<?xml version="1.0"?> 
<VTKFile type="StructuredGrid" version="0.1"> 
<StructuredGrid WholeExtent="0 128 0 128 0 0"> 
<Piece Extent="0 128 0 128 0 0"> 
<PointData>
<DataArray type="Float32" Name="u" format="ascii" NumberOfComponents="1"> 
0 0 0 0 0 0 0 0 0 0 0 0 0 0 0 0 0 0 0 0 0 0 0 0 0 0 0 0 0 0 0 0 0 0 0 0 0 0 0 0 0 0 0 0 0 0 0 0 0 0 0 0 0 0 0 0 0 0 0 0 0 0 0 0 0 0 0 0 0 0 0 0 0 0 0 0 0 0 0 0 0 0 0 0 0 0 0 0 0 0 0 0 0 0 0 0 0 0 0 0 0 0 0 0 0 0 0 0 0 0 0 0 0 0 0 0 0 0 0 0 0 0 0 0 0 0 0 0 0 0 1.31278e-07 5.25114e-07 1.18151e-06 2.10046e-06 3.0905e-06 3.96019e-06 4.70952e-06 5.33849e-06 5.74028e-06 5.80804e-06 5.54179e-06 4.94152e-06 3.93745e-06 2.4598e-06 5.08559e-07 -1.91626e-06 -4.83889e-06 -8.28356e-06 -1.22503e-05 -1.6739e-05 -2.17393e-05 -2.72405e-05 -3.32427e-05 -3.97459e-05 -4.67113e-05 -5.41e-05 -6.19121e-05 -7.01475e-05 -7.87464e-05 -8.76487e-05 -9.68545e-05 -0.000106364 -0.000116104 -0.000126001 -0.000136056 -0.000146269 -0.000156562 -0.000166856 -0.000177152 -0.00018745 -0.000197674 -0.000207745 -0.000217666 -0.000227435 -0.000236982 -0.000246235 -0.000255196 -0.000263864 -0.000272178 -0.000280075 -0.000287556 -0.00029462 -0.000301219 -0.000307302 -0.000312869 -0.00031792 -0.000322421 -0.000326336 -0.000329666 -0.000332409 -0.000334548 -0.000336066 -0.000336961 -0.000337234 -0.000336886 -0.000335916 -0.000334325 -0.000332113 -0.000329298 -0.000325898 -0.000321915 -0.000317348 -0.000312233 -0.000306605 -0.000300464 -0.000293811 -0.000286695 -0.000279168 -0.000271228 -0.000262877 -0.000254175 -0.000245185 -0.000235908 -0.000226343 -0.00021656 -0.000206632 -0.000196558 -0.000186338 -0.000176048 -0.000165765 -0.000155489 -0.000145221 -0.000135036 -0.000125014 -0.000115153 -0.000105454 -9.59896e-05 -8.68306e-05 -7.79777e-05 -6.94306e-05 -6.12485e-05 -5.34901e-05 -4.61556e-05 -3.92448e-05 -3.27956e-05 -2.68457e-05 -2.13951e-05 -1.64438e-05 -1.20016e-05 -8.07801e-06 -4.67317e-06 -1.78703e-06 6.05059e-07 2.52775e-06 3.98106e-06 4.96497e-06 5.5491e-06 5.80304e-06 5.7268e-06 5.32039e-06 4.68977e-06 3.94095e-06 3.07392e-06 2.08868e-06 1.17488e-06 5.22171e-07 1.30543e-07 0 0 5.25114e-07 2.10046e-06 4.72602e-06 8.40182e-06 1.2362e-05 1.58408e-05 1.88381e-05 2.1354e-05 2.29611e-05 2.32322e-05 2.21672e-05 1.97661e-05 1.57498e-05 9.83918e-06 2.03424e-06 -7.66504e-06 -1.93556e-05 -3.31343e-05 -4.90011e-05 -6.69561e-05 -8.69572e-05 -0.000108962 -0.000132971 -0.000158984 -0.000186845 -0.0002164 -0.000247648 -0.00028059 -0.000314986 -0.000350595 -0.000387418 -0.000425455 -0.000464414 -0.000504004 -0.000544225 -0.000585076 -0.000626246 -0.000667424 -0.000708609 -0.000749801 -0.000790694 -0.000830981 -0.000870663 -0.000909739 -0.000947927 -0.000984942 -0.00102079 -0.00105546 -0.00108871 -0.0011203 -0.00115022 -0.00117848 -0.00120487 -0.00122921 -0.00125148 -0.00127168 -0.00128969 -0.00130535 -0.00131866 -0.00132964 -0.00133819 -0.00134426 -0.00134784 -0.00134894 -0.00134754 -0.00134367 -0.0013373 -0.00132845 -0.00131719 -0.00130359 -0.00128766 -0.00126939 -0.00124893 -0.00122642 -0.00120186 -0.00117524 -0.00114678 -0.00111667 -0.00108491 -0.00105151 -0.0010167 -0.000980742 -0.000943632 -0.00090537 -0.000866241 -0.000826528 -0.000786231 -0.00074535 -0.000704191 -0.00066306 -0.000621958 -0.000580883 -0.000540145 -0.000500055 -0.000460613 -0.000421818 -0.000383958 -0.000347323 -0.000311911 -0.000277723 -0.000244994 -0.000213961 -0.000184622 -0.000156979 -0.000131182 -0.000107383 -8.55804e-05 -6.57753e-05 -4.80063e-05 -3.2312e-05 -1.86927e-05 -7.14811e-06 2.42024e-06 1.0111e-05 1.59242e-05 1.98599e-05 2.21964e-05 2.32122e-05 2.29072e-05 2.12815e-05 1.87591e-05 1.57638e-05 1.22957e-05 8.35473e-06 4.69954e-06 2.08868e-06 5.22171e-07 0 0 1.18151e-06 4.72602e-06 1.06336e-05 1.89041e-05 2.78145e-05 3.56417e-05 4.23857e-05 4.80464e-05 5.16625e-05 5.22724e-05 4.98761e-05 4.44737e-05 3.5437e-05 2.21382e-05 4.57703e-06 -1.72463e-05 -4.355e-05 -7.45521e-05 -0.000110252 -0.000150651 -0.000195654 -0.000245165 -0.000299185 -0.000357713 -0.000420401 -0.0004869 -0.000557209 -0.000631328 -0.000708718 -0.000788839 -0.000871691 -0.000957274 -0.00104493 -0.00113401 -0.00122451 -0.00131642 -0.00140905 -0.0015017 -0.00159437 -0.00168705 -0.00177906 -0.00186971 -0.00195899 -0.00204691 -0.00213283 -0.00221612 -0.00229677 -0.00237478 -0.0024496 -0.00252067 -0.002588 -0.00265158 -0.00271097 -0.00276571 -0.00281582 -0.00286128 -0.00290179 -0.00293703 -0.00296699 -0.00299168 -0.00301093 -0.00302459 -0.00303265 -0.00303511 -0.00303198 -0.00302325 -0.00300893 -0.00298901 -0.00296368 -0.00293309 -0.00289724 -0.00285613 -0.00281009 -0.00275944 -0.00270418 -0.0026443 -0.00258026 -0.00251251 -0.00244105 -0.00236589 -0.00228757 -0.00220667 -0.00212317 -0.00203708 -0.00194904 -0.00185969 -0.00176902 -0.00167704 -0.00158443 -0.00149189 -0.0013994 -0.00130699 -0.00121533 -0.00112512 -0.00103638 -0.00094909 -0.000863906 -0.000781476 -0.000701799 -0.000624876 -0.000551236 -0.000481411 -0.0004154 -0.000353203 -0.00029516 -0.000241611 -0.000192556 -0.000147994 -0.000108014 -7.27021e-05 -4.20585e-05 -1.60833e-05 5.44553e-06 2.27498e-05 3.58295e-05 4.46847e-05 4.99419e-05 5.22274e-05 5.15412e-05 4.78835e-05 4.22079e-05 3.54685e-05 2.76653e-05 1.87981e-05 1.0574e-05 4.69954e-06 1.17488e-06 0 0 2.10046e-06 8.40182e-06 1.89041e-05 3.36073e-05 4.94481e-05 6.33631e-05 7.53524e-05 8.54159e-05 9.18444e-05 9.29286e-05 8.86686e-05 7.90643e-05 6.29992e-05 3.93567e-05 8.13695e-06 -3.06602e-05 -7.74223e-05 -0.000132537 -0.000196004 -0.000267824 -0.000347829 -0.000435848 -0.000531884 -0.000635935 -0.00074738 -0.0008656 -0.000990593 -0.00112236 -0.00125994 -0.00140238 -0.00154967 -0.00170182 -0.00185766 -0.00201602 -0.0021769 -0.0023403 -0.00250499 -0.0026697 -0.00283444 -0.0029992 -0.00316278 -0.00332393 -0.00348265 -0.00363896 -0.00379171 -0.00393977 -0.00408314 -0.00422183 -0.00435484 -0.0044812 -0.00460089 -0.00471392 -0.0048195 -0.00491683 -0.0050059 -0.00508673 -0.00515874 -0.00522138 -0.00527465 -0.00531854 -0.00535277 -0.00537705 -0.00539138 -0.00539575 -0.00539018 -0.00537466 -0.0053492 -0.0053138 -0.00526876 -0.00521437 -0.00515064 -0.00507757 -0.00499572 -0.00490568 -0.00480743 -0.00470098 -0.00458713 -0.00446669 -0.00433965 -0.00420603 -0.0040668 -0.00392297 -0.00377453 -0.00362148 -0.00346496 -0.00330611 -0.00314492 -0.0029814 -0.00281677 -0.00265224 -0.00248783 -0.00232353 -0.00216058 -0.00200022 -0.00184245 -0.00168727 -0.00153583 -0.00138929 -0.00124764 -0.00111089 -0.000979976 -0.000855842 -0.000738489 -0.000627917 -0.000524729 -0.000429531 -0.000342322 -0.000263101 -0.000192025 -0.000129248 -7.47706e-05 -2.85925e-05 9.68094e-06 4.04441e-05 6.36969e-05 7.94395e-05 8.87856e-05 9.28487e-05 9.16289e-05 8.51262e-05 7.50363e-05 6.30552e-05 4.91827e-05 3.34189e-05 1.87981e-05 8.35473e-06 2.08868e-06 0 0 3.08156e-06 1.23262e-05 2.7734e-05 4.9305e-05 7.24455e-05 9.25622e-05 0.000109655 0.000123724 0.000132198 0.000132506 0.000124648 0.000108623 8.27637e-05 4.54014e-05 -3.46391e-06 -6.38323e-05 -0.000136269 -0.000221341 -0.000319048 -0.000429389 -0.000552086 -0.000686859 -0.000833708 -0.000992633 -0.00116267 -0.00134285 -0.00153319 -0.00173366 -0.00194282 -0.00215918 -0.00238274 -0.0026135 -0.00284969 -0.00308953 -0.00333303 -0.00358018 -0.0038291 -0.0040779 -0.00432658 -0.00457515 -0.00482177 -0.0050646 -0.00530363 -0.00553888 -0.00576865 -0.00599126 -0.00620671 -0.00641501 -0.00661469 -0.00680429 -0.00698383 -0.0071533 -0.00731153 -0.00745736 -0.00759078 -0.0077118 -0.00781959 -0.00791334 -0.00799305 -0.00805872 -0.00810991 -0.00814623 -0.00816765 -0.00817419 -0.00816584 -0.00814263 -0.00810454 -0.00805158 -0.00798418 -0.00790278 -0.00780738 -0.00769799 -0.00757542 -0.00744053 -0.00729331 -0.00713375 -0.00696304 -0.00678237 -0.00659172 -0.0063911 -0.00618198 -0.00596582 -0.00574263 -0.00551239 -0.00527681 -0.00503757 -0.00479467 -0.00454811 -0.00429972 -0.00405135 -0.00380298 -0.00355463 -0.00330816 -0.00306544 -0.00282647 -0.00259126 -0.00236156 -0.00213913 -0.00192396 -0.00171605 -0.00151686 -0.00132783 -0.00114896 -0.000980243 -0.000822627 -0.000677049 -0.000543509 -0.000422006 -0.0003128 -0.000216149 -0.000132053 -6.05118e-05 -9.49461e-07 4.72107e-05 8.39688e-05 0.000109325 0.000124943 0.000132488 0.00013196 0.000123359 0.000109236 9.21421e-05 7.20774e-05 4.90419e-05 2.75861e-05 1.22605e-05 3.06512e-06 0 0 3.92442e-06 1.56977e-05 3.53198e-05 6.27907e-05 9.19898e-05 0.000116797 0.000137211 0.000153233 0.000161415 0.000158309 0.000143916 0.000118235 7.9058e-05 2.41787e-05 -4.64034e-05 -0.000132688 -0.000235389 -0.000355217 -0.000492174 -0.000646258 -0.000817028 -0.00100404 -0.0012073 -0.00142679 -0.00166116 -0.00190902 -0.00217037 -0.00244522 -0.00273151 -0.00302719 -0.00333226 -0.00364672 -0.00396814 -0.00429407 -0.00462453 -0.0049595 -0.00529644 -0.0056328 -0.00596859 -0.00630379 -0.00663598 -0.00696268 -0.00728392 -0.00759968 -0.00790777 -0.00820596 -0.00849428 -0.00877271 -0.00903937 -0.00929239 -0.00953178 -0.00975751 -0.00996813 -0.0101621 -0.0103395 -0.0105003 -0.0106434 -0.0107679 -0.0108736 -0.0109607 -0.0110286 -0.0110767 -0.0111051 -0.0111137 -0.0111027 -0.0110719 -0.0110213 -0.0109511 -0.0108617 -0.0107536 -0.010627 -0.0104817 -0.0103188 -0.0101394 -0.00994352 -0.0097311 -0.00950367 -0.00926273 -0.00900827 -0.00874031 -0.00846073 -0.00817143 -0.0078724 -0.00756365 -0.00724739 -0.00692583 -0.00659898 -0.00626683 -0.00593183 -0.00559642 -0.00526061 -0.00492439 -0.00459029 -0.00426086 -0.00393608 -0.00361597 -0.00330292 -0.00299935 -0.00270527 -0.00242066 -0.00214755 -0.00188795 -0.00164187 -0.0014093 -0.00119159 -0.000990073 -0.00080475 -0.00063562 -0.0004831 -0.000347602 -0.000229128 -0.000127677 -4.25216e-05 2.70666e-05 8.10873e-05 0.000119541 0.00014463 0.000158558 0.000161325 0.000152932 0.000136799 0.000116348 9.15787e-05 6.24918e-05 3.51516e-05 1.56229e-05 3.90574e-06 0 0 4.62903e-06 1.85161e-05 4.16613e-05 7.40645e-05 0.000108081 0.000136066 0.00015802 0.000173943 0.000179495 0.000170339 0.000146473 0.000107899 5.18822e-05 -2.43114e-05 -0.000120682 -0.000237229 -0.00037478 -0.000534165 -0.000715382 -0.000918433 -0.00114266 -0.00138739 -0.00165265 -0.00193841 -0.00224285 -0.00256409 -0.00290215 -0.00325702 -0.003626 -0.00400641 -0.00439824 -0.00480148 -0.005213 -0.00562963 -0.00605139 -0.00647827 -0.00690702 -0.00733442 -0.00776045 -0.00818513 -0.00860539 -0.00901819 -0.00942351 -0.00982137 -0.0102091 -0.0105839 -0.0109458 -0.0112949 -0.0116289 -0.0119455 -0.0122447 -0.0125266 -0.0127893 -0.0130311 -0.0132521 -0.0134522 -0.0136302 -0.0137849 -0.0139163 -0.0140245 -0.0141087 -0.0141685 -0.0142037 -0.0142144 -0.0142006 -0.0141623 -0.0140996 -0.0140123 -0.0139012 -0.0137669 -0.0136094 -0.0134286 -0.0132259 -0.0130024 -0.0127581 -0.012493 -0.012209 -0.0119078 -0.0115893 -0.0112536 -0.010903 -0.0105398 -0.0101638 -0.00977524 -0.00937669 -0.00897089 -0.00855785 -0.00813756 -0.00771308 -0.00728747 -0.00686071 -0.00643281 -0.006007 -0.00558649 -0.00517129 -0.00476138 -0.0043599 -0.00396996 -0.00359156 -0.0032247 -0.00287203 -0.00253621 -0.00221723 -0.0019151 -0.00163162 -0.0013686 -0.00112604 -0.000903943 -0.000702924 -0.000523609 -0.000365997 -0.000230089 -0.000115036 -1.99884e-05 5.50527e-05 0.000110088 0.000147846 0.000171058 0.000179725 0.000173844 0.000157724 0.000135672 0.000107687 7.37687e-05 4.14949e-05 1.84422e-05 4.61054e-06 0 0 5.19539e-06 2.07816e-05 4.67585e-05 8.31263e-05 0.000120719 0.000150371 0.000172082 0.000185853 0.000186438 0.000168594 0.00013232 7.76167e-05 1.23622e-06 -0.000100069 -0.000226299 -0.000377453 -0.000554444 -0.000758184 -0.000988673 -0.00124591 -0.00152897 -0.00183692 -0.00216976 -0.0025275 -0.00290773 -0.00330807 -0.00372851 -0.00416906 -0.00462631 -0.00509685 -0.00558067 -0.00607778 -0.00658427 -0.00709622 -0.00761362 -0.00813648 -0.00866083 -0.00918273 -0.00970217 -0.0102192 -0.01073 -0.0112311 -0.0117224 -0.0122039 -0.0126725 -0.013125 -0.0135614 -0.0139817 -0.0143833 -0.0147636 -0.0151227 -0.0154605 -0.015775 -0.0160644 -0.0163285 -0.0165675 -0.0167799 -0.0169645 -0.0171212 -0.0172501 -0.0173504 -0.0174215 -0.0174635 -0.0174762 -0.0174597 -0.0174141 -0.0173393 -0.0172353 -0.0171029 -0.0169426 -0.0167546 -0.0165388 -0.0162966 -0.0160293 -0.015737 -0.0154195 -0.015079 -0.0147175 -0.0143348 -0.0139311 -0.0135089 -0.0130709 -0.012617 -0.0121472 -0.0116647 -0.0111728 -0.0106713 -0.0101603 -0.00964349 -0.00912448 -0.00860329 -0.0080799 -0.00755827 -0.00704233 -0.00653208 -0.00602751 -0.00553251 -0.00505096 -0.00458285 -0.00412818 -0.00369031 -0.00327259 -0.00287503 -0.00249763 -0.00214272 -0.00181264 -0.00150739 -0.00122698 -0.000972274 -0.000744168 -0.000542659 -0.000367747 -0.000218491 -9.39541e-05 5.86469e-06 8.09651e-05 0.000134592 0.000169989 0.000187157 0.000186096 0.000172013 0.000150115 0.000120401 8.28726e-05 4.66158e-05 2.07181e-05 5.17954e-06 0 0 5.50817e-06 2.20327e-05 4.95735e-05 8.81307e-05 0.000127126 0.000155981 0.000174696 0.000183271 0.000175591 0.00014554 9.312e-05 1.83295e-05 -8.25299e-05 -0.000213157 -0.000373552 -0.000563715 -0.000784573 -0.00103705 -0.00132116 -0.00163689 -0.00198296 -0.00235811 -0.00276232 -0.00319561 -0.00365496 -0.00413735 -0.00464279 -0.00517127 -0.00571862 -0.00628065 -0.00685736 -0.00744876 -0.00805013 -0.00865676 -0.00926866 -0.00988583 -0.0105036 -0.0111173 -0.011727 -0.0123326 -0.0129299 -0.0135148 -0.0140872 -0.0146472 -0.0151911 -0.0157156 -0.0162206 -0.016706 -0.0171691 -0.0176072 -0.0180202 -0.0184081 -0.0187688 -0.0191004 -0.0194028 -0.0196759 -0.0199185 -0.0201292 -0.020308 -0.0204548 -0.020569 -0.02065 -0.0206977 -0.0207122 -0.0206934 -0.0206414 -0.0205561 -0.0204376 -0.0202865 -0.0201036 -0.0198889 -0.0196424 -0.0193654 -0.0190593 -0.0187242 -0.01836 -0.0179689 -0.0175529 -0.017112 -0.0166463 -0.0161585 -0.0156515 -0.0151253 -0.0145798 -0.0140186 -0.0134453 -0.0128599 -0.0122623 -0.0116567 -0.0110475 -0.0104345 -0.00981776 -0.00920194 -0.00859167 -0.00798694 -0.00738777 -0.0067988 -0.00622471 -0.0056655 -0.00512116 -0.00459583 -0.0040936 -0.0036145 -0.00315851 -0.00272858 -0.00232767 -0.00195576 -0.00161287 -0.00130021 -0.001019 -0.000769238 -0.000550928 -0.000363106 -0.000204812 -7.60446e-05 2.31952e-05 9.66057e-05 0.000147885 0.000177033 0.00018405 0.000175009 0.000155983 0.000126972 8.79763e-05 4.94867e-05 2.19941e-05 5.49852e-06 0 0 5.45202e-06 2.18081e-05 4.90682e-05 8.72324e-05 0.000124524 0.000149167 0.00016116 0.000160505 0.000140299 9.36435e-05 2.0537e-05 -7.902e-05 -0.000209066 -0.00037364 -0.00057274 -0.000806369 -0.00107536 -0.00138056 -0.00172195 -0.00209955 -0.00251162 -0.00295644 -0.00343401 -0.00394433 -0.00448368 -0.00504833 -0.00563829 -0.00625356 -0.00688912 -0.00753997 -0.00820611 -0.00888753 -0.00957874 -0.0102742 -0.010974 -0.011678 -0.012381 -0.0130777 -0.013768 -0.014452 -0.0151251 -0.0157825 -0.0164244 -0.0170508 -0.0176578 -0.0182419 -0.0188029 -0.0193409 -0.0198532 -0.0203368 -0.0207919 -0.0212184 -0.0216143 -0.0219778 -0.0223087 -0.0226071 -0.0228718 -0.0231015 -0.0232962 -0.023456 -0.0235801 -0.0236681 -0.0237199 -0.0237356 -0.023715 -0.0236584 -0.0235656 -0.0234366 -0.0232721 -0.0230728 -0.0228385 -0.0225693 -0.0222665 -0.0219313 -0.0215638 -0.0211639 -0.0207337 -0.0202751 -0.0197882 -0.0192729 -0.018732 -0.0181685 -0.0175823 -0.0169734 -0.0163455 -0.0157024 -0.0150441 -0.0143706 -0.0136865 -0.0129964 -0.0123004 -0.0115985 -0.0108958 -0.0101978 -0.00950437 -0.00881555 -0.00813681 -0.00747359 -0.00682589 -0.00619372 -0.00558202 -0.00499573 -0.00443483 -0.00389935 -0.00339291 -0.00291917 -0.00247813 -0.00206979 -0.0016958 -0.00135782 -0.00105586 -0.00078991 -0.000559098 -0.000362542 -0.000200243 -7.22007e-05 2.56267e-05 9.72804e-05 0.00014276 0.000162067 0.000162055 0.000149583 0.000124648 8.72528e-05 4.90797e-05 2.18132e-05 5.4533e-06 0 0 5.02695e-06 2.01078e-05 4.52425e-05 8.04312e-05 0.000112913 0.000129927 0.000131474 0.000117554 8.05639e-05 1.2903e-05 -8.5429e-05 -0.000214432 -0.000378372 -0.000581516 -0.000823864 -0.00110541 -0.00142681 -0.00178869 -0.00219105 -0.00263389 -0.00311495 -0.00363192 -0.00418482 -0.00477365 -0.00539389 -0.00604101 -0.00671502 -0.00741592 -0.00813781 -0.00887481 -0.00962691 -0.0103941 -0.0111701 -0.0119486 -0.0127296 -0.013513 -0.0142931 -0.0150638 -0.0158253 -0.0165775 -0.0173155 -0.0180344 -0.0187342 -0.0194148 -0.0200726 -0.0207038 -0.0213084 -0.0218865 -0.0224354 -0.0229525 -0.0234378 -0.0238914 -0.0243115 -0.0246965 -0.0250464 -0.0253611 -0.0256398 -0.0258815 -0.026086 -0.0262536 -0.0263836 -0.0264758 -0.02653 -0.0265463 -0.0265246 -0.0264651 -0.0263677 -0.0262324 -0.0260597 -0.02585 -0.0256033 -0.0253196 -0.025 -0.0246454 -0.0242558 -0.0238313 -0.0233735 -0.0228841 -0.0223632 -0.0218108 -0.0212295 -0.0206219 -0.019988 -0.0193279 -0.0186454 -0.0179441 -0.0172241 -0.0164853 -0.0157328 -0.0149714 -0.0142012 -0.013422 -0.0126399 -0.0118607 -0.0110844 -0.0103109 -0.00954654 -0.00879759 -0.00806403 -0.00734586 -0.0066489 -0.00597896 -0.00533605 -0.00472015 -0.00413571 -0.00358716 -0.0030745 -0.00259772 -0.00215903 -0.00176063 -0.00140252 -0.00108469 -0.000806466 -0.000567146 -0.000366731 -0.000205222 -7.83452e-05 1.81754e-05 8.43393e-05 0.000120146 0.000133153 0.000130914 0.000113431 8.0702e-05 4.53949e-05 2.01755e-05 5.04387e-06 0 0 4.23295e-06 1.69318e-05 3.80966e-05 6.77272e-05 9.22931e-05 9.82636e-05 8.56386e-05 5.44183e-05 -3.61561e-06 -9.6681e-05 -0.000224778 -0.000387906 -0.000590449 -0.000836787 -0.00112692 -0.00146085 -0.00183892 -0.00226145 -0.00272845 -0.00323993 -0.00379294 -0.00438455 -0.00501476 -0.00568357 -0.00638558 -0.00711538 -0.00787297 -0.00865836 -0.0094647 -0.0102852 -0.0111198 -0.0119685 -0.0128242 -0.0136799 -0.0145354 -0.0153909 -0.0162398 -0.0170758 -0.0178989 -0.0187091 -0.0195013 -0.0202703 -0.0210163 -0.0217392 -0.0224354 -0.0231014 -0.0237372 -0.0243427 -0.0249158 -0.0254542 -0.0259579 -0.0264271 -0.0268603 -0.0272566 -0.0276158 -0.027938 -0.0282226 -0.028469 -0.0286774 -0.0288476 -0.0289796 -0.029073 -0.0291279 -0.0291443 -0.0291222 -0.0290616 -0.0289626 -0.028825 -0.0286492 -0.0284353 -0.0281834 -0.0278933 -0.0275659 -0.0272015 -0.0268002 -0.026362 -0.0258881 -0.0253799 -0.0248372 -0.0242601 -0.0236508 -0.0230116 -0.0223425 -0.0216435 -0.0209182 -0.0201703 -0.0193997 -0.0186064 -0.0177956 -0.0169723 -0.0161366 -0.0152885 -0.0144343 -0.0135804 -0.0127269 -0.0118737 -0.011028 -0.0101967 -0.0093799 -0.00857757 -0.00779645 -0.00704331 -0.00631813 -0.00562092 -0.00495698 -0.00433163 -0.00374486 -0.00319667 -0.00268991 -0.00222743 -0.00180922 -0.00143528 -0.00110521 -0.000818622 -0.000575508 -0.00037587 -0.00021531 -8.94299e-05 1.76978e-06 5.82892e-05 8.83009e-05 9.99772e-05 9.33182e-05 6.83239e-05 3.84322e-05 1.7081e-05 4.27025e-06 0 0 3.00145e-06 1.20058e-05 2.70131e-05 4.80232e-05 6.10278e-05 5.20183e-05 2.09948e-05 -3.20427e-05 -0.000115794 -0.00023896 -0.00040154 -0.000603534 -0.000849281 -0.00114312 -0.00148504 -0.00187506 -0.00231306 -0.00279893 -0.00333267 -0.00391428 -0.00454004 -0.00520623 -0.00591286 -0.00665991 -0.00744101 -0.00824977 -0.00908617 -0.00995023 -0.0108341 -0.01173 -0.012638 -0.0135579 -0.014482 -0.0154023 -0.0163189 -0.0172316 -0.0181338 -0.0190186 -0.019886 -0.0207359 -0.0215634 -0.0223633 -0.0231357 -0.0238805 -0.0245946 -0.0252749 -0.0259213 -0.0265339 -0.027111 -0.0276513 -0.0281546 -0.028621 -0.02905 -0.0294413 -0.0297947 -0.0301104 -0.0303883 -0.0306286 -0.0308313 -0.0309963 -0.0311239 -0.0312142 -0.0312672 -0.0312829 -0.0312613 -0.0312025 -0.0311063 -0.0309728 -0.0308019 -0.0305934 -0.0303474 -0.0300637 -0.0297424 -0.0293834 -0.0289867 -0.0285524 -0.0280808 -0.0275725 -0.0270275 -0.0264458 -0.0258289 -0.0251786 -0.0244947 -0.0237773 -0.0230296 -0.0222547 -0.0214528 -0.0206238 -0.0197728 -0.0189049 -0.0180201 -0.0171185 -0.0162067 -0.0152917 -0.0143734 -0.0134518 -0.0125349 -0.0116303 -0.0107382 -0.00985853 -0.00899898 -0.00816732 -0.00736354 -0.00658763 -0.0058459 -0.0051446 -0.00448375 -0.00386334 -0.003287 -0.00275834 -0.00227735 -0.00184405 -0.00145846 -0.00112062 -0.000830541 -0.000588212 -0.000389272 -0.000229361 -0.000108478 -2.66221e-05 2.48623e-05 5.46325e-05 6.26886e-05 4.90304e-05 2.75796e-05 1.22576e-05 3.0644e-06 0 0 1.26387e-06 5.05549e-06 1.13749e-05 2.0222e-05 1.74807e-05 -1.09651e-05 -6.51153e-05 -0.00014497 -0.000259528 -0.000417786 -0.000619746 -0.000865407 -0.00115885 -0.00150417 -0.00190136 -0.00235042 -0.00285062 -0.00340121 -0.00400219 -0.00465356 -0.00535068 -0.00608886 -0.00686813 -0.00768848 -0.00854242 -0.00942247 -0.0103286 -0.0112609 -0.0122105 -0.0131685 -0.0141349 -0.0151097 -0.0160844 -0.0170502 -0.0180072 -0.0189555 -0.0198878 -0.0207972 -0.0216837 -0.0225472 -0.023383 -0.0241862 -0.0249569 -0.0256952 -0.0263984 -0.0270644 -0.0276931 -0.0282844 -0.0288379 -0.0293532 -0.0298301 -0.0302688 -0.0306698 -0.0310339 -0.031361 -0.0316511 -0.0319053 -0.0321245 -0.0323087 -0.0324578 -0.0325727 -0.0326539 -0.0327015 -0.0327153 -0.0326956 -0.0326421 -0.032555 -0.0324343 -0.0322792 -0.0320891 -0.031864 -0.031604 -0.031308 -0.0309751 -0.0306053 -0.0301986 -0.0297544 -0.029272 -0.0287516 -0.028193 -0.0275969 -0.0269637 -0.0262936 -0.0255864 -0.0248448 -0.024071 -0.0232652 -0.0224274 -0.0215623 -0.0206748 -0.019765 -0.0188327 -0.0178851 -0.0169293 -0.0159652 -0.0149929 -0.0140209 -0.0130579 -0.0121037 -0.0111584 -0.0102308 -0.00932955 -0.00845472 -0.00760629 -0.00679163 -0.0060181 -0.0052857 -0.00459443 -0.00394884 -0.00335347 -0.00280832 -0.00231339 -0.00186934 -0.0014768 -0.0011358 -0.000846314 -0.000604237 -0.000405443 -0.000249932 -0.000137705 -5.98007e-05 -7.25963e-06 1.99183e-05 2.17333e-05 1.2225e-05 5.43331e-06 1.35833e-06 0 0 -9.79782e-07 -3.91913e-06 -8.81804e-06 -1.56765e-05 -3.83482e-05 -9.06866e-05 -0.000172692 -0.000284364 -0.000434816 -0.00063316 -0.000879396 -0.00117352 -0.00151917 -0.00191995 -0.00237588 -0.00288694 -0.00345159 -0.00406828 -0.00473702 -0.00545779 -0.00622485 -0.00703245 -0.00788059 -0.00876927 -0.0096898 -0.0106335 -0.0116004 -0.0125904 -0.0135937 -0.0146004 -0.0156104 -0.0166238 -0.0176312 -0.0186235 -0.0196005 -0.0205624 -0.0215018 -0.0224117 -0.0232921 -0.0241429 -0.02496 -0.025739 -0.0264801 -0.0271831 -0.0278469 -0.02847 -0.0290524 -0.0295943 -0.0300965 -0.0305599 -0.0309845 -0.0313705 -0.0317197 -0.0320345 -0.0323147 -0.0325603 -0.0327736 -0.0329567 -0.0331095 -0.0332321 -0.0333259 -0.033392 -0.0334306 -0.0334415 -0.0334249 -0.0333807 -0.0333088 -0.0332093 -0.0330809 -0.0329223 -0.0327334 -0.0325142 -0.0322626 -0.0319765 -0.0316559 -0.0313007 -0.0309089 -0.0304785 -0.0300095 -0.0295018 -0.0289546 -0.0283671 -0.0277392 -0.027071 -0.0263639 -0.0256192 -0.0248369 -0.0240171 -0.0231641 -0.0222821 -0.0213711 -0.0204312 -0.0194695 -0.0184932 -0.0175024 -0.0164969 -0.0154862 -0.0144793 -0.0134763 -0.0124772 -0.0114918 -0.01053 -0.00959168 -0.00867688 -0.00779418 -0.00695212 -0.00615071 -0.00538994 -0.00467544 -0.00401284 -0.00340213 -0.00284331 -0.00233784 -0.00188716 -0.00149127 -0.00115018 -0.000860204 -0.000617676 -0.000422594 -0.000274959 -0.000165688 -8.56992e-05 -3.49924e-05 -1.35676e-05 -7.63176e-06 -3.39189e-06 -8.47973e-07 0 0 -3.72951e-06 -1.49181e-05 -3.35656e-05 -5.96722e-05 -0.000106459 -0.000187146 -0.000301735 -0.000450224 -0.000641658 -0.00088508 -0.00118049 -0.00152789 -0.00193023 -0.00239046 -0.00290859 -0.00348461 -0.00411598 -0.00480016 -0.00553716 -0.00632696 -0.00716257 -0.008037 -0.00895024 -0.00990229 -0.0108832 -0.0118829 -0.0129014 -0.0139387 -0.0149839 -0.0160258 -0.0170646 -0.0181002 -0.0191227 -0.0201222 -0.0210987 -0.0220523 -0.0229757 -0.023862 -0.0247112 -0.0255231 -0.0262945 -0.0270218 -0.0277051 -0.0283445 -0.0289399 -0.0294915 -0.0299994 -0.0304635 -0.0308866 -0.0312714 -0.0316179 -0.031926 -0.0321997 -0.0324429 -0.0326557 -0.0328379 -0.0329932 -0.0331252 -0.0332339 -0.0333193 -0.0333835 -0.0334286 -0.0334546 -0.0334615 -0.0334493 -0.033418 -0.0333676 -0.033298 -0.0332072 -0.033093 -0.0329554 -0.0327943 -0.0326063 -0.0323877 -0.0321384 -0.0318587 -0.0315444 -0.0311919 -0.0308012 -0.0303721 -0.0299022 -0.0293887 -0.0288316 -0.028231 -0.0275869 -0.0268992 -0.0261679 -0.025393 -0.0245781 -0.0237266 -0.0228385 -0.0219139 -0.0209599 -0.0199835 -0.0189849 -0.0179639 -0.0169305 -0.0158946 -0.014856 -0.0138149 -0.0127822 -0.0117687 -0.0107744 -0.00979942 -0.00885355 -0.00794667 -0.00707877 -0.00624986 -0.00546679 -0.00473643 -0.00405877 -0.0034338 -0.00286397 -0.00235169 -0.00189697 -0.0014998 -0.00115717 -0.000866059 -0.000626463 -0.000438384 -0.0002928 -0.000180686 -0.000102044 -5.68721e-05 -3.19905e-05 -1.4218e-05 -3.5545e-06 0 0 -6.99192e-06 -2.79677e-05 -6.29273e-05 -0.000111871 -0.000186984 -0.000300452 -0.000452277 -0.000642456 -0.000879747 -0.0011729 -0.00152192 -0.00192681 -0.0023896 -0.00291234 -0.00349501 -0.00413763 -0.00483645 -0.00558771 -0.00639142 -0.00724758 -0.00814776 -0.00908355 -0.0100549 -0.0110619 -0.0120931 -0.0131371 -0.0141937 -0.0152632 -0.0163333 -0.0173918 -0.0184388 -0.0194743 -0.0204878 -0.021469 -0.0224178 -0.0233342 -0.0242114 -0.0250426 -0.0258277 -0.0265669 -0.0272578 -0.0278981 -0.0284879 -0.029027 -0.0295176 -0.0299615 -0.0303589 -0.0307095 -0.0310186 -0.0312909 -0.0315265 -0.0317255 -0.0318938 -0.0320378 -0.0321573 -0.0322523 -0.0323282 -0.0323905 -0.032439 -0.0324738 -0.032498 -0.0325146 -0.0325237 -0.0325252 -0.0325192 -0.0325055 -0.0324842 -0.0324553 -0.0324156 -0.0323621 -0.0322946 -0.0322133 -0.0321127 -0.0319875 -0.0318377 -0.0316632 -0.0314581 -0.0312161 -0.0309375 -0.0306221 -0.0302651 -0.0298615 -0.0294116 -0.0289151 -0.0283703 -0.0277754 -0.0271303 -0.026435 -0.0256919 -0.0249035 -0.0240697 -0.0231905 -0.0222728 -0.0213234 -0.0203424 -0.0193298 -0.0182959 -0.0172512 -0.0161957 -0.0151293 -0.0140642 -0.0130124 -0.0119738 -0.0109486 -0.00994785 -0.008983 -0.00805401 -0.00716087 -0.00631186 -0.00551523 -0.004771 -0.00407916 -0.00344332 -0.00286711 -0.00235051 -0.00189354 -0.00149407 -0.00114997 -0.000861246 -0.000627897 -0.000441176 -0.000292333 -0.000181371 -0.000108287 -6.09116e-05 -2.70718e-05 -6.76796e-06 0 0 -1.07736e-05 -4.30943e-05 -9.69622e-05 -0.000172377 -0.000280056 -0.000430713 -0.00062435 -0.000860966 -0.00114877 -0.00149598 -0.0019026 -0.00236862 -0.00289488 -0.00348224 -0.00413068 -0.00484022 -0.00560566 -0.00642179 -0.00728862 -0.00820616 -0.00916435 -0.0101532 -0.0111726 -0.0122226 -0.0132903 -0.0143626 -0.0154396 -0.0165212 -0.0175942 -0.0186452 -0.0196743 -0.0206815 -0.0216558 -0.0225865 -0.0234736 -0.024317 -0.0251104 -0.0258477 -0.0265287 -0.0271536 -0.0277215 -0.0282316 -0.0286841 -0.0290788 -0.0294201 -0.0297124 -0.0299555 -0.0301496 -0.0303024 -0.0304215 -0.030507 -0.030559 -0.0305861 -0.0305974 -0.0305927 -0.0305721 -0.030543 -0.0305131 -0.0304822 -0.0304505 -0.0304221 -0.0304014 -0.0303882 -0.0303827 -0.0303848 -0.0303943 -0.0304114 -0.030436 -0.0304637 -0.0304903 -0.0305158 -0.0305401 -0.0305556 -0.030555 -0.0305381 -0.030505 -0.0304469 -0.030355 -0.0302293 -0.0300698 -0.0298689 -0.0296189 -0.02932 -0.0289719 -0.0285707 -0.0281122 -0.0275962 -0.0270229 -0.0263931 -0.0257078 -0.0249669 -0.0241704 -0.0233247 -0.0224361 -0.0215046 -0.0205303 -0.019524 -0.0184965 -0.0174479 -0.0163781 -0.0153004 -0.014228 -0.0131608 -0.012099 -0.0110552 -0.0100424 -0.00906054 -0.00810964 -0.00719958 -0.00634023 -0.00553159 -0.00477366 -0.00407148 -0.00343011 -0.00284953 -0.00232975 -0.00186982 -0.00146878 -0.00112665 -0.000843413 -0.000610855 -0.000420754 -0.000273109 -0.00016792 -9.44552e-05 -4.19801e-05 -1.0495e-05 0 0 -1.50745e-05 -6.0298e-05 -0.000135671 -0.000241192 -0.000385674 -0.000577928 -0.000817955 -0.00110575 -0.00144874 -0.00185432 -0.00232251 -0.0028533 -0.00344606 -0.00410016 -0.0048156 -0.00559237 -0.00642361 -0.00730241 -0.00822877 -0.00920271 -0.0102123 -0.0112458 -0.0123032 -0.0133843 -0.0144747 -0.0155595 -0.0166389 -0.0177128 -0.0187667 -0.0197861 -0.0207711 -0.0217217 -0.0226266 -0.0234748 -0.0242661 -0.0250006 -0.0256729 -0.0262774 -0.0268141 -0.027283 -0.0276854 -0.0280223 -0.0282937 -0.0284997 -0.0286475 -0.0287441 -0.0287895 -0.0287838 -0.028738 -0.0286632 -0.0285594 -0.0284265 -0.0282766 -0.0281217 -0.0279619 -0.0277972 -0.0276375 -0.027493 -0.0273636 -0.0272493 -0.0271558 -0.0270888 -0.0270481 -0.0270339 -0.027046 -0.0270844 -0.0271491 -0.0272401 -0.0273516 -0.0274778 -0.0276188 -0.0277746 -0.0279351 -0.0280902 -0.0282398 -0.0283841 -0.028511 -0.0286084 -0.0286765 -0.0287152 -0.0287136 -0.0286608 -0.0285568 -0.0284015 -0.0281881 -0.0279095 -0.0275658 -0.0271568 -0.0266818 -0.0261396 -0.0255302 -0.0248536 -0.0241156 -0.0233215 -0.0224715 -0.0215656 -0.0206149 -0.0196306 -0.0186128 -0.0175614 -0.0164908 -0.0154155 -0.0143354 -0.0132506 -0.0121756 -0.0111248 -0.0100983 -0.00909617 -0.00812997 -0.00721143 -0.00634054 -0.00551731 -0.00474846 -0.00404069 -0.00339401 -0.00280842 -0.00228441 -0.0018225 -0.00142267 -0.00108493 -0.000801839 -0.000565947 -0.000377258 -0.000235771 -0.000132621 -5.89428e-05 -1.47357e-05 0 0 -1.98947e-05 -7.95788e-05 -0.000179052 -0.000318315 -0.00050384 -0.000742098 -0.00103309 -0.00137682 -0.00177964 -0.00224792 -0.00278166 -0.00338086 -0.00404314 -0.0047661 -0.00554975 -0.00639409 -0.0072903 -0.00822955 -0.00921186 -0.0102372 -0.0112917 -0.0123616 -0.0134467 -0.0145471 -0.0156463 -0.0167278 -0.0177917 -0.0188379 -0.0198507 -0.0208145 -0.0217293 -0.022595 -0.0234003 -0.0241337 -0.0247954 -0.0253852 -0.0258988 -0.0263317 -0.0266839 -0.0269553 -0.0271496 -0.0272701 -0.0273168 -0.0272898 -0.0271996 -0.0270566 -0.0268607 -0.0266121 -0.0263256 -0.0260161 -0.0256835 -0.025328 -0.0249652 -0.0246108 -0.024265 -0.0239276 -0.0236117 -0.0233301 -0.023083 -0.0228702 -0.0226991 -0.0225768 -0.0225034 -0.0224788 -0.022503 -0.0225759 -0.0226974 -0.0228676 -0.0230791 -0.0233245 -0.0236038 -0.023917 -0.0242511 -0.024593 -0.0249428 -0.0253005 -0.0256503 -0.0259765 -0.0262793 -0.0265584 -0.0267993 -0.0269872 -0.0271221 -0.0272039 -0.0272225 -0.0271674 -0.0270389 -0.0268367 -0.0265578 -0.0261987 -0.0257596 -0.0252403 -0.0246455 -0.0239798 -0.0232432 -0.0224356 -0.0215686 -0.0206535 -0.0196903 -0.0186791 -0.0176354 -0.0165749 -0.0154977 -0.0144036 -0.013309 -0.0122303 -0.0111674 -0.0101205 -0.00910302 -0.0