<?xml version="1.0"?> 
<VTKFile type="StructuredGrid" version="0.1"> 
<StructuredGrid WholeExtent="0 128 0 128 0 0"> 
<Piece Extent="0 128 0 128 0 0"> 
<PointData>
<DataArray type="Float32" Name="u" format="ascii" NumberOfComponents="1"> 
0 0 0 0 0 0 0 0 0 0 0 0 0 0 0 0 0 0 0 0 0 0 0 0 0 0 0 0 0 0 0 0 0 0 0 0 0 0 0 0 0 0 0 0 0 0 0 0 0 0 0 0 0 0 0 0 0 0 0 0 0 0 0 0 0 0 0 0 0 0 0 0 0 0 0 0 0 0 0 0 0 0 0 0 0 0 0 0 0 0 0 0 0 0 0 0 0 0 0 0 0 0 0 0 0 0 0 0 0 0 0 0 0 0 0 0 0 0 0 0 0 0 0 0 0 0 0 0 0 0 -1.46909e-07 -5.87636e-07 -1.32218e-06 -2.35055e-06 -3.71844e-06 -5.47159e-06 -7.60999e-06 -1.01336e-05 -1.30597e-05 -1.64051e-05 -2.01701e-05 -2.43545e-05 -2.89243e-05 -3.38451e-05 -3.9117e-05 -4.47401e-05 -5.06666e-05 -5.68489e-05 -6.3287e-05 -6.99809e-05 -7.68755e-05 -8.39153e-05 -9.11006e-05 -9.84312e-05 -0.000105847 -0.000113286 -0.00012075 -0.000128238 -0.00013569 -0.000143045 -0.000150302 -0.000157463 -0.000164473 -0.000171281 -0.000177885 -0.000184286 -0.000190447 -0.000196331 -0.000201936 -0.000207265 -0.000212299 -0.000217023 -0.000221436 -0.000225539 -0.000229338 -0.000232836 -0.000236034 -0.000238932 -0.000241553 -0.000243918 -0.000246027 -0.000247881 -0.000249509 -0.000250942 -0.00025218 -0.000253223 -0.0002541 -0.000254837 -0.000255436 -0.000255896 -0.000256233 -0.000256465 -0.000256592 -0.000256613 -0.000256528 -0.000256337 -0.00025604 -0.000255638 -0.000255112 -0.000254447 -0.000253642 -0.000252698 -0.000251586 -0.000250278 -0.000248775 -0.000247075 -0.000245151 -0.00024297 -0.000240535 -0.000237844 -0.000234876 -0.00023161 -0.000228046 -0.000224184 -0.00022002 -0.000215549 -0.000210771 -0.000205687 -0.000200314 -0.000194669 -0.000188752 -0.000182563 -0.00017614 -0.000169521 -0.000162706 -0.000155694 -0.00014854 -0.000141296 -0.000133962 -0.000126538 -0.000119085 -0.000111663 -0.000104271 -9.69109e-05 -8.96411e-05 -8.25217e-05 -7.55525e-05 -6.87338e-05 -6.21192e-05 -5.57629e-05 -4.96648e-05 -4.38249e-05 -3.82891e-05 -3.31035e-05 -2.8268e-05 -2.37825e-05 -1.96795e-05 -1.59911e-05 -1.27174e-05 -9.85828e-06 -7.39563e-06 -5.31126e-06 -3.60517e-06 -2.27736e-06 -1.28101e-06 -5.69339e-07 -1.42335e-07 0 0 -5.87636e-07 -2.35055e-06 -5.28873e-06 -9.40218e-06 -1.48738e-05 -2.18864e-05 -3.044e-05 -4.05346e-05 -5.22386e-05 -6.56206e-05 -8.06804e-05 -9.74182e-05 -0.000115697 -0.00013538 -0.000156468 -0.00017896 -0.000202666 -0.000227395 -0.000253148 -0.000279924 -0.000307502 -0.000335661 -0.000364402 -0.000393725 -0.000423386 -0.000453145 -0.000483001 -0.000512953 -0.000542761 -0.000572179 -0.00060121 -0.000629851 -0.000657893 -0.000685123 -0.00071154 -0.000737145 -0.000761789 -0.000785323 -0.000807746 -0.000829058 -0.000849195 -0.000868091 -0.000885745 -0.000902158 -0.00091735 -0.000931343 -0.000944136 -0.00095573 -0.000966212 -0.000975672 -0.000984108 -0.000991523 -0.000998035 -0.00100377 -0.00100872 -0.00101289 -0.0010164 -0.00101935 -0.00102174 -0.00102358 -0.00102493 -0.00102586 -0.00102637 -0.00102645 -0.00102611 -0.00102535 -0.00102416 -0.00102255 -0.00102045 -0.00101779 -0.00101457 -0.00101079 -0.00100634 -0.00100111 -0.000995098 -0.000988301 -0.000980602 -0.000971882 -0.000962139 -0.000951375 -0.000939504 -0.00092644 -0.000912184 -0.000896736 -0.000880079 -0.000862195 -0.000843085 -0.00082275 -0.000801257 -0.000778677 -0.000755009 -0.000730253 -0.00070456 -0.000678083 -0.000650822 -0.000622777 -0.000594159 -0.000565183 -0.000535847 -0.000506152 -0.00047634 -0.000446651 -0.000417085 -0.000387644 -0.000358565 -0.000330087 -0.00030221 -0.000274935 -0.000248477 -0.000223052 -0.000198659 -0.0001753 -0.000153156 -0.000132414 -0.000113072 -9.51302e-05 -7.87181e-05 -6.39645e-05 -5.08695e-05 -3.94331e-05 -2.95825e-05 -2.12451e-05 -1.44207e-05 -9.10942e-06 -5.12405e-06 -2.27736e-06 -5.69339e-07 0 0 -1.32218e-06 -5.28873e-06 -1.18996e-05 -2.11549e-05 -3.3466e-05 -4.92443e-05 -6.84899e-05 -9.12028e-05 -0.000117537 -0.000147646 -0.000181531 -0.000219191 -0.000260318 -0.000304606 -0.000352053 -0.000402661 -0.000455999 -0.00051164 -0.000569583 -0.000629828 -0.000691879 -0.000755238 -0.000819905 -0.000885881 -0.000952619 -0.00101958 -0.00108675 -0.00115415 -0.00122121 -0.0012874 -0.00135272 -0.00141717 -0.00148026 -0.00154153 -0.00160097 -0.00165858 -0.00171403 -0.00176698 -0.00181743 -0.00186538 -0.00191069 -0.0019532 -0.00199293 -0.00202986 -0.00206404 -0.00209552 -0.00212431 -0.00215039 -0.00217398 -0.00219526 -0.00221424 -0.00223093 -0.00224558 -0.00225848 -0.00226962 -0.00227901 -0.0022869 -0.00229354 -0.00229892 -0.00230306 -0.0023061 -0.00230819 -0.00230933 -0.00230952 -0.00230875 -0.00230703 -0.00230436 -0.00230074 -0.00229601 -0.00229002 -0.00228278 -0.00227428 -0.00226427 -0.0022525 -0.00223897 -0.00222368 -0.00220636 -0.00218673 -0.00216481 -0.00214059 -0.00211388 -0.00208449 -0.00205241 -0.00201766 -0.00198018 -0.00193994 -0.00189694 -0.00185119 -0.00180283 -0.00175202 -0.00169877 -0.00164307 -0.00158526 -0.00152569 -0.00146435 -0.00140125 -0.00133686 -0.00127166 -0.00120566 -0.00113884 -0.00107176 -0.00100496 -0.000938442 -0.000872198 -0.00080677 -0.000742695 -0.000679973 -0.000618604 -0.000559073 -0.000501866 -0.000446983 -0.000394424 -0.000344602 -0.000297931 -0.000254412 -0.000214043 -0.000177116 -0.00014392 -0.000114456 -8.87245e-05 -6.65607e-05 -4.78014e-05 -3.24465e-05 -2.04962e-05 -1.15291e-05 -5.12405e-06 -1.28101e-06 0 0 -2.35055e-06 -9.40218e-06 -2.11549e-05 -3.76087e-05 -5.94951e-05 -8.75455e-05 -0.00012176 -0.000162138 -0.000208955 -0.000262482 -0.000322722 -0.000389673 -0.000462788 -0.000541522 -0.000625872 -0.000715841 -0.000810665 -0.000909582 -0.00101259 -0.00111969 -0.00123001 -0.00134265 -0.00145761 -0.0015749 -0.00169355 -0.00181258 -0.001932 -0.00205181 -0.00217104 -0.00228872 -0.00240484 -0.00251941 -0.00263157 -0.00274049 -0.00284616 -0.00294858 -0.00304716 -0.00314129 -0.00323098 -0.00331623 -0.00339678 -0.00347236 -0.00354298 -0.00360863 -0.0036694 -0.00372537 -0.00377655 -0.00382292 -0.00386485 -0.00390269 -0.00393643 -0.00396609 -0.00399214 -0.00401507 -0.00403488 -0.00405158 -0.0040656 -0.0040774 -0.00408697 -0.00409433 -0.00409973 -0.00410345 -0.00410547 -0.00410581 -0.00410445 -0.00410139 -0.00409665 -0.0040902 -0.0040818 -0.00407115 -0.00405828 -0.00404317 -0.00402537 -0.00400445 -0.00398039 -0.00395321 -0.00392241 -0.00388753 -0.00384856 -0.0038055 -0.00375802 -0.00370576 -0.00364874 -0.00358694 -0.00352031 -0.00344878 -0.00337234 -0.003291 -0.00320503 -0.00311471 -0.00302003 -0.00292101 -0.00281824 -0.00271233 -0.00260329 -0.00249111 -0.00237664 -0.00226073 -0.00214339 -0.00202461 -0.00190536 -0.0017866 -0.00166834 -0.00155057 -0.00143426 -0.00132035 -0.00120884 -0.00109974 -0.000993908 -0.000892207 -0.000794637 -0.000701198 -0.000612626 -0.000529656 -0.000452287 -0.000380521 -0.000314872 -0.000255858 -0.000203478 -0.000157732 -0.00011833 -8.49802e-05 -5.76827e-05 -3.64377e-05 -2.04962e-05 -9.10942e-06 -2.27736e-06 0 0 -3.71679e-06 -1.48671e-05 -3.34511e-05 -5.94686e-05 -9.39006e-05 -0.000137728 -0.000190951 -0.000253569 -0.000325969 -0.000408538 -0.000501276 -0.000604182 -0.000716401 -0.000837076 -0.000966205 -0.00110379 -0.00124865 -0.0013996 -0.00155665 -0.00171979 -0.00188765 -0.00205889 -0.00223348 -0.00241145 -0.00259129 -0.00277152 -0.00295215 -0.00313316 -0.00331309 -0.00349046 -0.00366525 -0.00383748 -0.00400586 -0.00416912 -0.00432725 -0.00448026 -0.00462726 -0.00476737 -0.00490058 -0.0050269 -0.00514596 -0.0052574 -0.00536123 -0.00545744 -0.00554621 -0.00562769 -0.0057019 -0.00576884 -0.00582908 -0.00588322 -0.00593125 -0.00597318 -0.00600979 -0.00604185 -0.00606938 -0.00609236 -0.00611152 -0.00612758 -0.00614052 -0.00615036 -0.00615752 -0.00616242 -0.00616505 -0.00616543 -0.00616354 -0.00615937 -0.00615294 -0.00614424 -0.00613283 -0.0061183 -0.00610064 -0.00607985 -0.00605521 -0.00602602 -0.00599226 -0.00595395 -0.0059103 -0.00586054 -0.00580469 -0.00574273 -0.00567411 -0.00559825 -0.00551515 -0.00542482 -0.00532711 -0.00522187 -0.0051091 -0.00498881 -0.00486137 -0.00472717 -0.00458622 -0.00443851 -0.00428495 -0.00412642 -0.00396294 -0.00379451 -0.0036224 -0.0034479 -0.00327102 -0.00309175 -0.00291156 -0.00273192 -0.00255285 -0.00237433 -0.00219783 -0.00202482 -0.0018553 -0.00168926 -0.00152805 -0.00137299 -0.00122409 -0.00108134 -0.000945878 -0.000818853 -0.000700262 -0.000590105 -0.00048919 -0.000398329 -0.000317519 -0.000246763 -0.000185646 -0.000133755 -9.109e-05 -5.76513e-05 -3.24288e-05 -1.44128e-05 -3.60321e-06 0 0 -5.46496e-06 -2.18598e-05 -4.91847e-05 -8.74394e-05 -0.000137622 -0.00020073 -0.000276763 -0.000365722 -0.000468059 -0.000584223 -0.000714217 -0.000858039 -0.00101445 -0.00118222 -0.00136133 -0.0015518 -0.00175194 -0.00196009 -0.00217623 -0.00240037 -0.00263059 -0.00286496 -0.0031035 -0.00334619 -0.00359097 -0.00383576 -0.00408057 -0.0043254 -0.00456821 -0.00480696 -0.00504166 -0.0052723 -0.00549717 -0.00571452 -0.00592438 -0.00612672 -0.00632041 -0.0065043 -0.00667837 -0.00684265 -0.00699671 -0.00714017 -0.00727301 -0.00739524 -0.00750722 -0.00760928 -0.00770143 -0.00778367 -0.00785693 -0.00792213 -0.00797927 -0.00802836 -0.00807058 -0.00810712 -0.00813797 -0.00816314 -0.0081837 -0.00820072 -0.00821419 -0.00822413 -0.00823115 -0.00823589 -0.00823833 -0.00823849 -0.00823635 -0.00823192 -0.00822517 -0.00821613 -0.00820414 -0.00818858 -0.00816944 -0.00814673 -0.00811936 -0.00808628 -0.00804748 -0.00800296 -0.00795155 -0.00789207 -0.00782453 -0.00774893 -0.00766437 -0.00756994 -0.00746566 -0.00735151 -0.00722718 -0.00709235 -0.00694704 -0.00679122 -0.00662535 -0.00644986 -0.00626475 -0.00607001 -0.00586682 -0.00565636 -0.00543862 -0.0052136 -0.00498305 -0.00474869 -0.00451052 -0.00426855 -0.0040248 -0.00378129 -0.00353802 -0.00329501 -0.00305428 -0.00281788 -0.00258582 -0.00235809 -0.00213658 -0.00192315 -0.00171781 -0.00152055 -0.00133301 -0.00115679 -0.000991899 -0.000838335 -0.000697272 -0.000569882 -0.000456165 -0.000356122 -0.000269263 -0.000195099 -0.000133629 -8.48544e-05 -4.77306e-05 -2.12136e-05 -5.3034e-06 0 0 -7.59507e-06 -3.03803e-05 -6.83557e-05 -0.000121521 -0.000190659 -0.000276551 -0.000379198 -0.000498599 -0.000635223 -0.000789538 -0.000961544 -0.00115124 -0.00135694 -0.00157694 -0.00181125 -0.00205987 -0.00232055 -0.00259103 -0.00287133 -0.00316144 -0.00345881 -0.00376088 -0.00406765 -0.00437913 -0.00469259 -0.00500531 -0.00531729 -0.00562852 -0.00593638 -0.00623822 -0.00653405 -0.00682387 -0.00710548 -0.0073767 -0.00763752 -0.00788796 -0.00812661 -0.00835208 -0.00856437 -0.00876349 -0.00894904 -0.00912065 -0.00927831 -0.00942204 -0.00955243 -0.00967013 -0.00977513 -0.00986742 -0.00994839 -0.0100194 -0.0100805 -0.0101316 -0.0101745 -0.0102109 -0.0102407 -0.0102639 -0.0102821 -0.0102968 -0.010308 -0.0103156 -0.0103206 -0.0103238 -0.0103253 -0.010325 -0.0103229 -0.010319 -0.0103133 -0.0103059 -0.0102957 -0.010282 -0.0102647 -0.0102438 -0.0102178 -0.0101852 -0.010146 -0.0101002 -0.0100462 -0.00998211 -0.00990809 -0.0098241 -0.0097288 -0.00962085 -0.00950025 -0.009367 -0.00922052 -0.00906023 -0.00888615 -0.00869825 -0.00849699 -0.00828277 -0.00805561 -0.0078155 -0.00756386 -0.00730214 -0.00703031 -0.00674839 -0.00645858 -0.00616308 -0.00586189 -0.00555502 -0.00524507 -0.00493469 -0.00462387 -0.00431262 -0.00400361 -0.00369954 -0.00340042 -0.00310623 -0.00281948 -0.00254267 -0.00227579 -0.00201885 -0.00177402 -0.00154347 -0.0013272 -0.00112521 -0.000939118 -0.000770519 -0.000619416 -0.00048581 -0.000369181 -0.000269011 -0.0001853 -0.000118047 -6.64014e-05 -2.95117e-05 -7.37794e-06 0 0 -1.01071e-05 -4.04285e-05 -9.09641e-05 -0.000161714 -0.000253012 -0.000365192 -0.000498254 -0.000652198 -0.000827462 -0.00102448 -0.00124326 -0.00148379 -0.00174386 -0.00202125 -0.00231597 -0.002628 -0.00295445 -0.00329244 -0.00364195 -0.004003 -0.00437231 -0.00474663 -0.00512594 -0.00551027 -0.00589615 -0.00628016 -0.00666228 -0.00704253 -0.00741761 -0.00778425 -0.00814243 -0.00849217 -0.0088308 -0.00915564 -0.0094667 -0.00976398 -0.0100459 -0.0103107 -0.0105586 -0.0107894 -0.0110029 -0.0111989 -0.0113771 -0.0115378 -0.0116819 -0.0118102 -0.011923 -0.0120201 -0.0121035 -0.0121751 -0.0122349 -0.012283 -0.0123216 -0.0123531 -0.0123775 -0.0123947 -0.0124068 -0.0124159 -0.0124219 -0.0124249 -0.0124259 -0.0124263 -0.012426 -0.0124249 -0.0124232 -0.0124207 -0.0124175 -0.0124135 -0.0124076 -0.0123986 -0.0123864 -0.0123711 -0.0123506 -0.0123229 -0.0122879 -0.0122458 -0.0121941 -0.0121307 -0.0120553 -0.0119682 -0.0118674 -0.011751 -0.0116189 -0.0114713 -0.0113071 -0.0111255 -0.0109264 -0.0107099 -0.0104763 -0.0102259 -0.00995881 -0.00967498 -0.00937608 -0.00906376 -0.00873803 -0.00839888 -0.00804901 -0.00769109 -0.00732514 -0.00695115 -0.00657239 -0.00619214 -0.00581039 -0.00542715 -0.00504582 -0.0046698 -0.00429908 -0.00393368 -0.00357677 -0.00323156 -0.00289805 -0.00257623 -0.0022689 -0.00197888 -0.00170616 -0.00145074 -0.00121473 -0.00100024 -0.000807271 -0.000635826 -0.000485401 -0.000355493 -0.000246102 -0.000157229 -8.84414e-05 -3.93073e-05 -9.82682e-06 0 0 -1.30095e-05 -5.2038e-05 -0.000117086 -0.000208152 -0.000324853 -0.000466802 -0.000634001 -0.000826449 -0.00104446 -0.00128837 -0.00155815 -0.00185383 -0.00217254 -0.00251145 -0.00287056 -0.00324986 -0.00364573 -0.00405452 -0.00447625 -0.0049109 -0.00535443 -0.00580278 -0.00625596 -0.00671395 -0.00717254 -0.00762751 -0.00807886 -0.00852658 -0.00896672 -0.00939531 -0.00981235 -0.0102178 -0.0106087 -0.0109816 -0.0113368 -0.0116742 -0.0119919 -0.0122883 -0.0125633 -0.012817 -0.0130491 -0.0132597 -0.0134486 -0.013616 -0.0137632 -0.0138918 -0.0140018 -0.0140931 -0.0141685 -0.0142306 -0.0142794 -0.0143148 -0.0143401 -0.0143582 -0.0143691 -0.014373 -0.0143724 -0.01437 -0.0143659 -0.01436 -0.0143539 -0.0143491 -0.0143456 -0.0143434 -0.0143425 -0.0143429 -0.0143445 -0.0143474 -0.01435 -0.0143508 -0.0143496 -0.0143466 -0.014339 -0.0143242 -0.0143021 -0.0142727 -0.0142331 -0.01418 -0.0141135 -0.0140337 -0.0139379 -0.0138234 -0.0136904 -0.0135388 -0.0133671 -0.0131741 -0.0129596 -0.0127236 -0.0124665 -0.0121883 -0.011889 -0.0115687 -0.0112292 -0.0108723 -0.0104981 -0.0101064 -0.00970058 -0.00928367 -0.00885572 -0.00841671 -0.00797061 -0.00752136 -0.00706896 -0.00661342 -0.00615891 -0.0057096 -0.00526549 -0.00482659 -0.00439686 -0.00398028 -0.00357684 -0.00318655 -0.00281292 -0.00245947 -0.00212622 -0.00181314 -0.00152297 -0.00125842 -0.00101947 -0.000806139 -0.000618021 -0.000454716 -0.000316224 -0.000202545 -0.000113931 -5.06362e-05 -1.2659e-05 0 0 -1.63106e-05 -6.52425e-05 -0.000146796 -0.00026097 -0.000406353 -0.000581532 -0.000786508 -0.00102128 -0.00128592 -0.0015805 -0.00190503 -0.00225949 -0.0026403 -0.00304384 -0.00347013 -0.00391915 -0.00438643 -0.0048675 -0.00536236 -0.005871 -0.0063885 -0.00690992 -0.00743526 -0.00796453 -0.00849265 -0.00901458 -0.00953031 -0.0100398 -0.0105385 -0.0110217 -0.0114893 -0.0119415 -0.0123746 -0.012785 -0.0131728 -0.0135379 -0.0138786 -0.014193 -0.014481 -0.0147427 -0.0149784 -0.0151881 -0.015372 -0.0155299 -0.0156642 -0.015777 -0.0158683 -0.0159381 -0.0159899 -0.0160274 -0.0160506 -0.0160595 -0.016058 -0.0160503 -0.0160364 -0.0160163 -0.0159934 -0.0159713 -0.0159499 -0.0159292 -0.0159112 -0.0158979 -0.0158893 -0.0158854 -0.0158861 -0.0158915 -0.0159015 -0.0159161 -0.0159333 -0.0159511 -0.0159695 -0.0159885 -0.0160045 -0.0160141 -0.0160173 -0.0160142 -0.0160005 -0.0159724 -0.0159299 -0.0158728 -0.0157978 -0.0157013 -0.0155833 -0.0154437 -0.0152806 -0.0150917 -0.0148772 -0.014637 -0.0143709 -0.0140789 -0.0137609 -0.013417 -0.013049 -0.0126589 -0.0122467 -0.0118124 -0.0113596 -0.0108918 -0.0104091 -0.00991148 -0.0094036 -0.00889009 -0.00837097 -0.00784622 -0.00732086 -0.00679989 -0.00628331 -0.00577113 -0.00526818 -0.00477928 -0.00430445 -0.00384367 -0.0034013 -0.00298168 -0.0025848 -0.00221067 -0.00186273 -0.00154442 -0.00125575 -0.000996715 -0.000767139 -0.000566851 -0.000395851 -0.000254138 -0.000142953 -6.35345e-05 -1.58836e-05 0 0 -2.00105e-05 -8.00419e-05 -0.000180094 -0.000320167 -0.000497513 -0.000709382 -0.000955775 -0.00123669 -0.00155183 -0.00190089 -0.00228388 -0.00270079 -0.00314713 -0.00361843 -0.00411467 -0.00463586 -0.00517657 -0.00573138 -0.00630029 -0.0068833 -0.00747451 -0.00806803 -0.00866386 -0.00926199 -0.00985648 -0.0104414 -0.0110166 -0.0115823 -0.012133 -0.0126634 -0.0131734 -0.0136631 -0.0141285 -0.0145657 -0.0149746 -0.0153553 -0.0157059 -0.0160247 -0.0163116 -0.0165667 -0.0167906 -0.0169841 -0.0171471 -0.0172797 -0.0173849 -0.0174659 -0.0175225 -0.0175549 -0.0175677 -0.0175656 -0.0175487 -0.0175169 -0.0174755 -0.0174297 -0.0173794 -0.0173247 -0.01727 -0.0172198 -0.0171739 -0.0171324 -0.0170979 -0.0170728 -0.0170571 -0.0170509 -0.017054 -0.0170665 -0.0170884 -0.0171195 -0.0171575 -0.0171997 -0.0172461 -0.0172967 -0.017347 -0.0173927 -0.0174337 -0.0174701 -0.0174965 -0.017508 -0.0175043 -0.0174857 -0.0174473 -0.0173846 -0.0172976 -0.0171862 -0.0170475 -0.0168786 -0.0166794 -0.0164499 -0.0161896 -0.0158978 -0.0155745 -0.0152198 -0.0148355 -0.0144236 -0.013984 -0.0135168 -0.0130259 -0.0125154 -0.0119853 -0.0114354 -0.0108713 -0.0102983 -0.0097164 -0.00912555 -0.00853167 -0.00794067 -0.00735255 -0.0067673 -0.00619071 -0.00562857 -0.00508087 -0.00454761 -0.00403406 -0.0035455 -0.00308192 -0.00264331 -0.002234 -0.00185826 -0.00151612 -0.00120756 -0.000932757 -0.000691899 -0.000484983 -0.000312008 -0.000175505 -7.80021e-05 -1.95005e-05 0 0 -2.41091e-05 -9.64362e-05 -0.000216981 -0.000385745 -0.000598333 -0.000850352 -0.0011418 -0.00147268 -0.0018422 -0.00224954 -0.00269471 -0.00317771 -0.00369304 -0.0042352 -0.00480418 -0.00539998 -0.00601613 -0.00664615 -0.00729003 -0.00794779 -0.00861246 -0.00927712 -0.00994175 -0.0106064 -0.011264 -0.0119079 -0.0125378 -0.013154 -0.0137502 -0.0143204 -0.0148645 -0.0153827 -0.0158705 -0.0163237 -0.0167423 -0.0171262 -0.0174739 -0.0177835 -0.0180552 -0.0182888 -0.0184859 -0.0186476 -0.0187741 -0.0188652 -0.0189253 -0.0189583 -0.0189644 -0.0189435 -0.0189017 -0.0188451 -0.0187735 -0.0186872 -0.0185925 -0.0184961 -0.018398 -0.0182982 -0.0182021 -0.0181154 -0.0180379 -0.0179698 -0.017914 -0.0178738 -0.0178491 -0.01784 -0.0178463 -0.017868 -0.0179052 -0.0179577 -0.0180225 -0.0180964 -0.0181793 -0.0182712 -0.0183666 -0.0184599 -0.0185512 -0.0186405 -0.0187211 -0.0187866 -0.0188369 -0.0188722 -0.0188863 -0.0188733 -0.0188333 -0.0187661 -0.0186679 -0.0185345 -0.018366 -0.0181624 -0.0179224 -0.0176449 -0.0173298 -0.0169771 -0.0165887 -0.0161663 -0.01571 -0.0152196 -0.0146997 -0.0141546 -0.0135842 -0.0129886 -0.0123739 -0.0117461 -0.0111053 -0.0104514 -0.00979135 -0.00913195 -0.0084732 -0.0078151 -0.00716447 -0.00652814 -0.0059061 -0.00529835 -0.0047112 -0.00415093 -0.00361756 -0.00311108 -0.00263677 -0.00219994 -0.00180056 -0.00143866 -0.00111487 -0.00082986 -0.000583622 -0.000376157 -0.000211588 -9.40392e-05 -2.35098e-05 0 0 -2.8555e-05 -0.00011422 -0.000256995 -0.00045688 -0.000707535 -0.00100262 -0.00134213 -0.00172608 -0.00215299 -0.00262143 -0.00313139 -0.00368286 -0.00426919 -0.00488369 -0.00552637 -0.00619723 -0.00688861 -0.00759287 -0.00831001 -0.00904002 -0.00977481 -0.0105063 -0.0112345 -0.0119594 -0.0126731 -0.0133676 -0.014043 -0.0146993 -0.0153296 -0.0159272 -0.016492 -0.017024 -0.0175188 -0.0179716 -0.0183824 -0.0187513 -0.0190769 -0.0193578 -0.0195938 -0.0197851 -0.0199338 -0.0200422 -0.0201101 -0.0201377 -0.0201304 -0.0200937 -0.0200275 -0.0199319 -0.0198145 -0.019683 -0.0195374 -0.0193777 -0.0192121 -0.0190486 -0.0188874 -0.0187284 -0.0185784 -0.0184441 -0.0183257 -0.018223 -0.0181399 -0.0180802 -0.018044 -0.0180311 -0.0180416 -0.0180754 -0.0181325 -0.0182129 -0.0183126 -0.0184277 -0.0185583 -0.0187044 -0.018859 -0.0190155 -0.0191737 -0.0193336 -0.0194873 -0.0196264 -0.019751 -0.0198612 -0.0199492 -0.0200077 -0.0200366 -0.0200359 -0.0200002 -0.0199242 -0.019808 -0.0196516 -0.0194528 -0.0192097 -0.0189224 -0.0185907 -0.0182162 -0.0178005 -0.0173437 -0.0168456 -0.016311 -0.0157446 -0.0151463 -0.0145161 -0.013861 -0.0131876 -0.012496 -0.0117862 -0.011066 -0.0103433 -0.00961818 -0.0088905 -0.00816826 -0.00745942 -0.00676397 -0.0060819 -0.00542068 -0.00478774 -0.00418309 -0.00360673 -0.00306508 -0.00256456 -0.00210518 -0.00168693 -0.0013111 -0.000978964 -0.000690526 -0.000445785 -0.000250754 -0.000111446 -2.78616e-05 0 0 -3.3297e-05 -0.000133188 -0.000299673 -0.000532752 -0.000823843 -0.00116436 -0.00155431 -0.00199369 -0.00248021 -0.00301158 -0.00358779 -0.00420884 -0.00486673 -0.00555344 -0.00626897 -0.00701332 -0.00777752 -0.00855262 -0.00933862 -0.0101355 -0.010934 -0.0117247 -0.0125077 -0.0132829 -0.0140413 -0.0147741 -0.0154812 -0.0161626 -0.0168108 -0.0174182 -0.0179849 -0.018511 -0.0189915 -0.0194217 -0.0198016 -0.0201313 -0.0204097 -0.0206359 -0.0208098 -0.0209315 -0.0210043 -0.0210313 -0.0210127 -0.0209483 -0.0208454 -0.020711 -0.0205451 -0.0203477 -0.0201283 -0.0198966 -0.0196525 -0.0193961 -0.0191373 -0.0188862 -0.0186429 -0.0184072 -0.0181875 -0.0179921 -0.0178209 -0.017674 -0.0175559 -0.0174714 -0.0174204 -0.017403 -0.0174189 -0.0174683 -0.017551 -0.017667 -0.0178117 -0.0179802 -0.0181725 -0.0183886 -0.0186203 -0.018859 -0.0191049 -0.019358 -0.0196081 -0.0198454 -0.0200699 -0.0202814 -0.0204706 -0.0206281 -0.0207537 -0.0208476 -0.0209027 -0.0209122 -0.0208761 -0.0207944 -0.020664 -0.0204818 -0.0202478 -0.019962 -0.0196256 -0.0192397 -0.0188043 -0.0183194 -0.0177899 -0.0172207 -0.0166118 -0.0159632 -0.0152824 -0.014577 -0.0138469 -0.0130922 -0.0123218 -0.0115445 -0.0107604 -0.00996947 -0.00918089 -0.00840383 -0.00763828 -0.00688426 -0.00615048 -0.00544568 -0.00476987 -0.00412305 -0.00351293 -0.00294727 -0.00242605 -0.00194928 -0.00151905 -0.00113744 -0.000804456 -0.000520096 -0.000292554 -0.000130024 -3.2506e-05 0 0 -3.83351e-05 -0.00015334 -0.000345016 -0.000613361 -0.000947257 -0.00133558 -0.00177834 -0.00227553 -0.00282385 -0.00341997 -0.0040639 -0.00475565 -0.00548567 -0.00624445 -0.00703197 -0.00784824 -0.00868284 -0.00952539 -0.0103759 -0.0112343 -0.01209 -0.0129323 -0.0137612 -0.0145768 -0.0153688 -0.0161274 -0.0168524 -0.0175439 -0.0181937 -0.0187935 -0.0193434 -0.0198434 -0.0202886 -0.0206741 -0.0209999 -0.0212661 -0.0214722 -0.0216179 -0.0217032 -0.021728 -0.0216971 -0.021615 -0.0214816 -0.0212971 -0.0210704 -0.0208104 -0.0205173 -0.020191 -0.0198432 -0.0194858 -0.0191189 -0.0187422 -0.0183682 -0.0180089 -0.0176644 -0.0173346 -0.0170295 -0.0167592 -0.0165236 -0.0163227 -0.0161621 -0.0160474 -0.0159785 -0.0159554 -0.0159782 -0.0160466 -0.0161606 -0.0163203 -0.0165199 -0.0167537 -0.0170217 -0.0173239 -0.0176502 -0.0179906 -0.018345 -0.0187134 -0.0190837 -0.0194438 -0.0197935 -0.020133 -0.0204505 -0.0207343 -0.0209846 -0.0212013 -0.0213755 -0.0214985 -0.0215704 -0.0215909 -0.021556 -0.021461 -0.0213061 -0.0210912 -0.0208169 -0.0204838 -0.0200918 -0.019641 -0.0191364 -0.018583 -0.0179808 -0.0173298 -0.0166382 -0.0159143 -0.015158 -0.0143695 -0.0135586 -0.0127354 -0.0118999 -0.011052 -0.0102024 -0.00936137 -0.00852905 -0.00770541 -0.0069006 -0.00612476 -0.0053779 -0.00466002 -0.00398034 -0.00334805 -0.00276318 -0.00222571 -0.00173872 -0.00130529 -0.000925411 -0.000599089 -0.000336987 -0.000149772 -3.7443e-05 0 0 -4.36691e-05 -0.000174677 -0.000393022 -0.000698706 -0.00107778 -0.00151628 -0.00201422 -0.0025716 -0.0031839 -0.00384661 -0.00455974 -0.00532328 -0.00612601 -0.00695671 -0.00781537 -0.00870199 -0.00960459 -0.0105112 -0.0114218 -0.0123364 -0.0132428 -0.0141291 -0.0149952 -0.0158411 -0.0166556 -0.0174274 -0.0181567 -0.0188433 -0.0194784 -0.0200531 -0.0205675 -0.0210215 -0.0214102 -0.0217288 -0.0219773 -0.0221557 -0.0222644 -0.0223038 -0.0222739 -0.0221747 -0.0220124 -0.0217932 -0.021517 -0.021184 -0.0208052 -0.0203919 -0.019944 -0.0194617 -0.0189592 -0.0184507 -0.0179364 -0.0174162 -0.0169047 -0.0164166 -0.0159519 -0.0155105 -0.0151044 -0.0147455 -0.0144337 -0.0141692 -0.0139584 -0.0138081 -0.0137181 -0.0136886 -0.0137193 -0.0138103 -0.0139614 -0.0141726 -0.0144372 -0.0147484 -0.0151061 -0.0155102 -0.0159489 -0.0164101 -0.0168938 -0.0174 -0.017914 -0.0184214 -0.0189219 -0.0194158 -0.0198887 -0.0203265 -0.0207293 -0.021097 -0.0214186 -0.0216831 -0.0218907 -0.0220412 -0.0221287 -0.0221474 -0.0220972 -0.0219782 -0.0217901 -0.0215328 -0.0212062 -0.0208105 -0.0203505 -0.0198314 -0.0192532 -0.0186159 -0.0179283 -0.0171995 -0.0164294 -0.015618 -0.0147765 -0.013916 -0.0130366 -0.0121381 -0.0112327 -0.010332 -0.00943628 -0.00854538 -0.00767104 -0.00682498 -0.00600718 -0.00521766 -0.00446729 -0.00376692 -0.00311656 -0.00251621 -0.00197012 -0.00148251 -0.00105339 -0.000682765 -0.000384055 -0.000170691 -4.26728e-05 0 0 -4.92289e-05 -0.000196915 -0.00044306 -0.000787662 -0.00121367 -0.00170402 -0.00225872 -0.00287776 -0.00355525 -0.00428529 -0.00506786 -0.00590298 -0.00677754 -0.00767842 -0.00860564 -0.00955919 -0.0105253 -0.0114904 -0.0124544 -0.0134173 -0.0143654 -0.0152853 -0.0161767 -0.0170398 -0.0178621 -0.0186313 -0.0193473 -0.0200101 -0.0206102 -0.0211381 -0.0215939 -0.0219774 -0.022284 -0.0225088 -0.0226519 -0.0227133 -0.0226943 -0.0225965 -0.0224197 -0.022164 -0.0218374 -0.021448 -0.0209958 -0.0204807 -0.0199165 -0.019317 -0.0186821 -0.0180119 -0.0173236 -0.0166343 -0.015944 -0.0152527 -0.0145779 -0.0139369 -0.0133298 -0.0127564 -0.012231 -0.0117675 -0.011366 -0.0110264 -0.0107566 -0.0105644 -0.0104497 -0.0104125 -0.0104528 -0.0105704 -0.0107652 -0.0110373 -0.0113786 -0.0117811 -0.0122447 -0.0127696 -0.0133414 -0.0139459 -0.0145832 -0.0152532 -0.0159386 -0.016622 -0.0173034 -0.0179827 -0.018643 -0.0192672 -0.0198553 -0.0204073 -0.0209098 -0.0213491 -0.0217254 -0.0220386 -0.022281 -0.0224448 -0.0225302 -0.022537 -0.0224641 -0.0223105 -0.0220761 -0.0217608 -0.0213698 -0.0209079 -0.0203752 -0.0197716 -0.0191068 -0.0183903 -0.0176221 -0.0168023 -0.0159431 -0.015057 -0.0141439 -0.0132038 -0.0122503 -0.0112966 -0.0103429 -0.00938903 -0.00844852 -0.00753474 -0.0066477 -0.00578738 -0.0049665 -0.00419777 -0.00348119 -0.00281676 -0.00221007 -0.00166672 -0.0011867 -0.000770021 -0.000433137 -0.000192505 -4.81263e-05 0 0 -5.49439e-05 -0.000219776 -0.000494495 -0.000879102 -0.00135319 -0.00189636 -0.0025086 -0.00318991 -0.00393281 -0.00472979 -0.00558085 -0.006486 -0.00743004 -0.00839779 -0.00938925 -0.0104044 -0.0114277 -0.0124435 -0.0134518 -0.0144527 -0.0154308 -0.0163708 -0.0172728 -0.0181367 -0.018949 -0.0196959 -0.0203775 -0.0209938 -0.0215346 -0.0219898 -0.0223595 -0.0226436 -0.0228376 -0.022937 -0.0229417 -0.0228519 -0.0226701 -0.0223989 -0.0220384 -0.0215886 -0.0210596 -0.0204617 -0.0197948 -0.0190591 -0.0182711 -0.0174476 -0.0165884 -0.0156937 -0.0147839 -0.0138795 -0.0129804 -0.0120867 -0.0112189 -0.0103975 -0.00962245 -0.0088938 -0.00822806 -0.00764174 -0.00713483 -0.00670734 -0.00636839 -0.0061271 -0.00598348 -0.00593752 -0.00598905 -0.00613789 -0.00638406 -0.00672754 -0.00715891 -0.00766876 -0.00825707 -0.00892386 -0.00965242 -0.0104261 -0.0112448 -0.0121087 -0.0129971 -0.0138896 -0.0147862 -0.0156868 -0.0165712 -0.017419 -0.0182303 -0.0190051 -0.0197269 -0.0203794 -0.0209627 -0.0214766 -0.0219114 -0.0222572 -0.0225139 -0.0226816 -0.022758 -0.0227407 -0.0226298 -0.0224253 -0.0221319 -0.0217544 -0.0212928 -0.0207471 -0.0201275 -0.0194442 -0.0186973 -0.0178866 -0.017026 -0.0161288 -0.0151952 -0.0142251 -0.0132336 -0.0122358 -0.0112317 -0.0102212 -0.00921976 -0.00824248 -0.00728943 -0.00636058 -0.0054707 -0.00463453 -0.00385207 -0.00312331 -0.00245542 -0.00185553 -0.00132364 -0.000859758 -0.000483614 -0.00021494 -5.37349e-05 0 0 -6.08142e-05 -0.000243257 -0.000547328 -0.000973028 -0.00149635 -0.0020933 -0.00276386 -0.00350805 -0.00431656 -0.00518011 -0.0060987 -0.00707232 -0.00808351 -0.00911481 -0.0101662 -0.0112377 -0.0123117 -0.0133705 -0.0144141 -0.0154426 -0.0164388 -0.0173857 -0.0182835 -0.0191319 -0.0199162 -0.0206214 -0.0212474 -0.0217944 -0.0222515 -0.0226081 -0.0228643 -0.02302 -0.023071 -0.0230133 -0.0228469 -0.0225716 -0.0221917 -0.0217111 -0.02113 -0.0204483 -0.0196788 -0.0188341 -0.0179142 -0.0169191 -0.0158689 -0.0147835 -0.0136629 -0.0125071 -0.0113402 -0.0101865 -0.00904576 -0.00791816 -0.00682765 -0.00579822 -0.00482987 -0.00392261 -0.00309565 -0.00236823 -0.00174034 -0.001212 -0.000793779 -0.000496291 -0.000319532 -0.000263501 -0.000327993 -0.000512804 -0.000817933 -0.00124338 -0.00177819 -0.00241142 -0.00314305 -0.0039731 -0.00488212 -0.00585067 -0.00687876 -0.00796637 -0.00908951 -0.0102241 -0.0113703 -0.0125279 -0.0136731 -0.0147819 -0.0158543 -0.0168902 -0.0178701 -0.0187742 -0.0196026 -0.0203553 -0.02102 -0.0215844 -0.0220484 -0.022412 -0.0226716 -0.0228235 -0.0228675 -0.0228038 -0.0226368 -0.0223709 -0.022006 -0.0215422 -0.0209904 -0.0203612 -0.0196548 -0.0188711 -0.0180251 -0.0171315 -0.0161905 -0.0152019 -0.0141827 -0.0131496 -0.0121028 -0.011042 -0.00998475 -0.00894819 -0.00793237 -0.00693727 -0.00597989 -0.00507719 -0.00422919 -0.00343588 -0.00270616 -0.00204894 -0.00146421 -0.000951975 -0.000535486 -0.000237994 -5.94984e-05 0 0 -6.68399e-05 -0.000267359 -0.000601559 -0.00106944 -0.00164315 -0.00229484 -0.00302451 -0.00383217 -0.00470651 -0.00563626 -0.0066214 -0.00766195 -0.00873795 -0.00982947 -0.0109365 -0.0120591 -0.0131773 -0.0142713 -0.0153412 -0.0163869 -0.0173895 -0.0183301 -0.0192087 -0.0200254 -0.0207637 -0.0214076 -0.021957 -0.0224118 -0.0227609 -0.0229931 -0.0231084 -0.0231067 -0.0229844 -0.0227379 -0.0223672 -0.0218724 -0.0212591 -0.0205331 -0.0196946 -0.0187434 -0.0176951 -0.0165652 -0.0153538 -0.0140608 -0.01271 -0.0113249 -0.00990555 -0.008452 -0.00699245 -0.0055551 -0.00413996 -0.00274703 -0.00140415 -0.000139158 0.00104794 0.00215715 0.00316625 0.00405303 0.00481749 0.00545963 0.00596722 0.00632807 0.00654216 0.0066095 0.00653033 0.00630489 0.00593318 0.00541519 0.00476357 0.00399095 0.00309732 0.0020827 0.000969544 -0.000219666 -0.00148493 -0.00282626 -0.00421577 -0.00562559 -0.00705571 -0.00850615 -0.00994888 -0.0113559 -0.0127271 -0.0140627 -0.0153392 -0.0165333 -0.0176452 -0.0186747 -0.0196069 -0.0204265 -0.0211336 -0.0217283 -0.0222051 -0.0225587 -0.0227892 -0.0228964 -0.0228845 -0.0227573 -0.0225148 -0.0221571 -0.0216955 -0.0211414 -0.0204948 -0.0197558 -0.0189404 