<?xml version="1.0"?> 
<VTKFile type="StructuredGrid" version="0.1"> 
<StructuredGrid WholeExtent="0 128 0 128 0 0"> 
<Piece Extent="0 128 0 128 0 0"> 
<PointData>
<DataArray type="Float32" Name="u" format="ascii" NumberOfComponents="1"> 
0 0 0 0 0 0 0 0 0 0 0 0 0 0 0 0 0 0 0 0 0 0 0 0 0 0 0 0 0 0 0 0 0 0 0 0 0 0 0 0 0 0 0 0 0 0 0 0 0 0 0 0 0 0 0 0 0 0 0 0 0 0 0 0 0 0 0 0 0 0 0 0 0 0 0 0 0 0 0 0 0 0 0 0 0 0 0 0 0 0 0 0 0 0 0 0 0 0 0 0 0 0 0 0 0 0 0 0 0 0 0 0 0 0 0 0 0 0 0 0 0 0 0 0 0 0 0 0 0 0 1.24657e-10 4.9863e-10 1.12192e-09 1.99452e-09 2.6116e-09 2.46834e-09 1.56472e-09 -9.92556e-11 -2.74629e-09 -6.59908e-09 -1.16576e-08 -1.7922e-08 -2.47293e-08 -3.14169e-08 -3.79847e-08 -4.44327e-08 -4.85986e-08 -4.83198e-08 -4.35964e-08 -3.44283e-08 -1.79166e-08 8.83779e-09 4.58348e-08 9.30745e-08 1.52013e-07 2.24107e-07 3.09356e-07 4.0776e-07 5.1769e-07 6.37517e-07 7.6724e-07 9.06859e-07 1.05266e-06 1.20093e-06 1.35166e-06 1.50487e-06 1.65786e-06 1.80796e-06 1.95517e-06 2.09948e-06 2.24137e-06 2.3813e-06 2.51926e-06 2.65525e-06 2.7916e-06 2.93061e-06 3.07229e-06 3.21663e-06 3.36428e-06 3.51585e-06 3.67135e-06 3.83078e-06 3.99086e-06 4.14831e-06 4.30312e-06 4.45529e-06 4.59898e-06 4.72834e-06 4.84338e-06 4.94408e-06 5.02593e-06 5.08439e-06 5.11945e-06 5.13113e-06 5.11942e-06 5.08432e-06 5.02583e-06 4.94395e-06 4.84321e-06 4.72815e-06 4.59876e-06 4.45505e-06 4.30286e-06 4.14803e-06 3.99058e-06 3.83048e-06 3.67104e-06 3.51553e-06 3.36395e-06 3.2163e-06 3.07195e-06 2.93027e-06 2.79126e-06 2.65491e-06 2.51891e-06 2.38096e-06 2.24104e-06 2.09916e-06 1.95485e-06 1.80766e-06 1.65757e-06 1.5046e-06 1.35141e-06 1.2007e-06 1.05245e-06 9.06674e-07 7.67078e-07 6.37378e-07 5.17574e-07 4.07666e-07 3.09282e-07 2.24052e-07 1.51974e-07 9.30492e-08 4.58211e-08 8.8334e-09 -1.79139e-08 -3.44209e-08 -4.3586e-08 -4.83077e-08 -4.8586e-08 -4.44208e-08 -3.79742e-08 -3.14079e-08 -2.47221e-08 -1.79166e-08 -1.1654e-08 -6.59694e-09 -2.74528e-09 -9.90792e-11 1.56434e-09 2.46765e-09 2.61085e-09 1.99394e-09 1.12159e-09 4.98485e-10 1.24621e-10 0 0 4.9863e-10 1.99452e-09 4.48767e-09 7.97808e-09 1.04464e-08 9.87334e-09 6.25886e-09 -3.97022e-10 -1.09851e-08 -2.63963e-08 -4.66305e-08 -7.16878e-08 -9.89171e-08 -1.25667e-07 -1.51939e-07 -1.77731e-07 -1.94394e-07 -1.93279e-07 -1.74386e-07 -1.37713e-07 -7.16663e-08 3.53512e-08 1.83339e-07 3.72298e-07 6.08052e-07 8.96428e-07 1.23742e-06 1.63104e-06 2.07076e-06 2.55007e-06 3.06896e-06 3.62744e-06 4.21064e-06 4.80372e-06 5.40666e-06 6.01947e-06 6.63143e-06 7.23183e-06 7.82066e-06 8.39793e-06 8.96548e-06 9.52518e-06 1.0077e-05 1.0621e-05 1.11664e-05 1.17224e-05 1.22892e-05 1.28665e-05 1.34571e-05 1.40634e-05 1.46854e-05 1.53231e-05 1.59635e-05 1.65932e-05 1.72125e-05 1.78212e-05 1.83959e-05 1.89134e-05 1.93735e-05 1.97763e-05 2.01037e-05 2.03375e-05 2.04778e-05 2.05245e-05 2.04777e-05 2.03373e-05 2.01033e-05 1.97758e-05 1.93729e-05 1.89126e-05 1.83951e-05 1.78202e-05 1.72114e-05 1.65921e-05 1.59623e-05 1.53219e-05 1.46842e-05 1.40621e-05 1.34558e-05 1.28652e-05 1.22878e-05 1.17211e-05 1.1165e-05 1.06196e-05 1.00757e-05 9.52383e-06 8.96415e-06 8.39663e-06 7.8194e-06 7.23062e-06 6.63028e-06 6.01839e-06 5.40565e-06 4.80279e-06 4.20981e-06 3.62669e-06 3.06831e-06 2.54951e-06 2.0703e-06 1.63066e-06 1.23713e-06 8.96206e-07 6.07896e-07 3.72197e-07 1.83284e-07 3.53336e-08 -7.16557e-08 -1.37684e-07 -1.74344e-07 -1.93231e-07 -1.94344e-07 -1.77683e-07 -1.51897e-07 -1.25632e-07 -9.88883e-08 -7.16664e-08 -4.66162e-08 -2.63877e-08 -1.09811e-08 -3.96317e-10 6.25737e-09 9.87061e-09 1.04434e-08 7.97575e-09 4.48636e-09 1.99394e-09 4.98485e-10 0 0 1.12192e-09 4.48767e-09 1.00973e-08 1.79507e-08 2.35044e-08 2.2215e-08 1.40824e-08 -8.933e-10 -2.47166e-08 -5.93917e-08 -1.04919e-07 -1.61298e-07 -2.22564e-07 -2.82752e-07 -3.41862e-07 -3.99895e-07 -4.37388e-07 -4.34878e-07 -3.92368e-07 -3.09855e-07 -1.61249e-07 7.95401e-08 4.12513e-07 8.37671e-07 1.36812e-06 2.01696e-06 2.7842e-06 3.66984e-06 4.65921e-06 5.73765e-06 6.90516e-06 8.16173e-06 9.47394e-06 1.08084e-05 1.2165e-05 1.35438e-05 1.49207e-05 1.62716e-05 1.75965e-05 1.88953e-05 2.01723e-05 2.14317e-05 2.26733e-05 2.38973e-05 2.51244e-05 2.63755e-05 2.76506e-05 2.89497e-05 3.02785e-05 3.16426e-05 3.30422e-05 3.44771e-05 3.59178e-05 3.73348e-05 3.8728e-05 4.00976e-05 4.13908e-05 4.25551e-05 4.35904e-05 4.44967e-05 4.52334e-05 4.57595e-05 4.60751e-05 4.61802e-05 4.60748e-05 4.57589e-05 4.52325e-05 4.44955e-05 4.35889e-05 4.25534e-05 4.13889e-05 4.00955e-05 3.87257e-05 3.73323e-05 3.59152e-05 3.44743e-05 3.30394e-05 3.16398e-05 3.02755e-05 2.89467e-05 2.76476e-05 2.63724e-05 2.51213e-05 2.38942e-05 2.26702e-05 2.14286e-05 2.01693e-05 1.88924e-05 1.75937e-05 1.62689e-05 1.49181e-05 1.35414e-05 1.21627e-05 1.08063e-05 9.47207e-06 8.16006e-06 6.9037e-06 5.7364e-06 4.65817e-06 3.66899e-06 2.78354e-06 2.01646e-06 1.36777e-06 8.37442e-07 4.1239e-07 7.95006e-08 -1.61225e-07 -3.09788e-07 -3.92274e-07 -4.34769e-07 -4.37274e-07 -3.99788e-07 -3.41768e-07 -2.82671e-07 -2.22499e-07 -1.61249e-07 -1.04886e-07 -5.93724e-08 -2.47075e-08 -8.91713e-10 1.40791e-08 2.22089e-08 2.34977e-08 1.79454e-08 1.00943e-08 4.48636e-09 1.12159e-09 0 0 1.99452e-09 7.97808e-09 1.79507e-08 3.19123e-08 4.17857e-08 3.94934e-08 2.50355e-08 -1.58809e-09 -4.39406e-08 -1.05585e-07 -1.86522e-07 -2.86751e-07 -3.95669e-07 -5.0267e-07 -6.07755e-07 -7.10924e-07 -7.77578e-07 -7.73117e-07 -6.97542e-07 -5.50853e-07 -2.86665e-07 1.41405e-07 7.33357e-07 1.48919e-06 2.43221e-06 3.58571e-06 4.94969e-06 6.52416e-06 8.28304e-06 1.02003e-05 1.22758e-05 1.45097e-05 1.68426e-05 1.92149e-05 2.16266e-05 2.40779e-05 2.65257e-05 2.89273e-05 3.12827e-05 3.35917e-05 3.58619e-05 3.81007e-05 4.03081e-05 4.2484e-05 4.46656e-05 4.68898e-05 4.91566e-05 5.14661e-05 5.38284e-05 5.62536e-05 5.87416e-05 6.12925e-05 6.38538e-05 6.63729e-05 6.88499e-05 7.12846e-05 7.35837e-05 7.56535e-05 7.7494e-05 7.91053e-05 8.04149e-05 8.13502e-05 8.19113e-05 8.20981e-05 8.19107e-05 8.13491e-05 8.04133e-05 7.91032e-05 7.74914e-05 7.56504e-05 7.35802e-05 7.12808e-05 6.88458e-05 6.63686e-05 6.38492e-05 6.12877e-05 5.87366e-05 5.62485e-05 5.38232e-05 5.14608e-05 4.91512e-05 4.68843e-05 4.46601e-05 4.24785e-05 4.03026e-05 3.80953e-05 3.58566e-05 3.35865e-05 3.12776e-05 2.89225e-05 2.65211e-05 2.40736e-05 2.16226e-05 1.92112e-05 1.68392e-05 1.45068e-05 1.22732e-05 1.0198e-05 8.28119e-06 6.52266e-06 4.94852e-06 3.58483e-06 2.43158e-06 1.48879e-06 7.33138e-07 1.41334e-07 -2.86623e-07 -5.50735e-07 -6.97376e-07 -7.72923e-07 -7.77376e-07 -7.10734e-07 -6.07587e-07 -5.02527e-07 -3.95553e-07 -2.86666e-07 -1.86465e-07 -1.05551e-07 -4.39245e-08 -1.58527e-09 2.50295e-08 3.94825e-08 4.17736e-08 3.1903e-08 1.79454e-08 7.97575e-09 1.99394e-09 0 0 2.61106e-09 1.04443e-08 2.34996e-08 4.1777e-08 5.36218e-08 4.73791e-08 2.30489e-08 -1.93688e-08 -8.38538e-08 -1.74386e-07 -2.90965e-07 -4.33591e-07 -5.84799e-07 -7.27126e-07 -8.6057e-07 -9.85131e-07 -1.05071e-06 -1.00719e-06 -8.54584e-07 -5.92887e-07 -1.61019e-07 5.02103e-07 1.39648e-06 2.5221e-06 3.90026e-06 5.55223e-06 7.47801e-06 9.67761e-06 1.21003e-05 1.46955e-05 1.74632e-05 2.04033e-05 2.34247e-05 2.64363e-05 2.9438e-05 3.24299e-05 3.53569e-05 3.8164e-05 4.0851e-05 4.34181e-05 4.58927e-05 4.83024e-05 5.06472e-05 5.2927e-05 5.52155e-05 5.75864e-05 6.00394e-05 6.25748e-05 6.52224e-05 6.80122e-05 7.09442e-05 7.40184e-05 7.71635e-05 8.03084e-05 8.34529e-05 8.65972e-05 8.96006e-05 9.23229e-05 9.47638e-05 9.69235e-05 9.86901e-05 9.99519e-05 0.000100709 0.000100961 0.000100708 9.99507e-05 9.86883e-05 9.69211e-05 9.47608e-05 9.23194e-05 8.95967e-05 8.65928e-05 8.34482e-05 8.03033e-05 7.71582e-05 7.40129e-05 7.09385e-05 6.80063e-05 6.52163e-05 6.25686e-05 6.00331e-05 5.75798e-05 5.52089e-05 5.29203e-05 5.06405e-05 4.82957e-05 4.5886e-05 4.34115e-05 4.08445e-05 3.81577e-05 3.53509e-05 3.24242e-05 2.94326e-05 2.64312e-05 2.34201e-05 2.03991e-05 1.74595e-05 1.46923e-05 1.20976e-05 9.67539e-06 7.47625e-06 5.55087e-06 3.89927e-06 2.52143e-06 1.39608e-06 5.01928e-07 -1.61021e-07 -5.92769e-07 -8.54385e-07 -1.00694e-06 -1.05044e-06 -9.84869e-07 -8.60333e-07 -7.2692e-07 -5.8463e-07 -4.33462e-07 -2.90876e-07 -1.7433e-07 -8.38245e-08 -1.93595e-08 2.30444e-08 4.73665e-08 5.36067e-08 4.17651e-08 2.34928e-08 1.04413e-08 2.61032e-09 0 0 2.46618e-09 9.86471e-09 2.21956e-08 3.94588e-08 4.73445e-08 3.15428e-08 -7.94635e-09 -7.11229e-08 -1.59653e-07 -2.75202e-07 -4.17771e-07 -5.87359e-07 -7.56524e-07 -8.97824e-07 -1.01126e-06 -1.09683e-06 -1.09251e-06 -9.36294e-07 -6.28168e-07 -1.68137e-07 5.02587e-07 1.44279e-06 2.65248e-06 4.13164e-06 5.8722e-06 7.86608e-06 1.01133e-05 1.26138e-05 1.52692e-05 1.7981e-05 2.07493e-05 2.35741e-05 2.63284e-05 2.88856e-05 3.12455e-05 3.34082e-05 3.53248e-05 3.69466e-05 3.82735e-05 3.93055e-05 4.01231e-05 4.08067e-05 4.13564e-05 4.1772e-05 4.21999e-05 4.27863e-05 4.35313e-05 4.44347e-05 4.55761e-05 4.70347e-05 4.88104e-05 5.09034e-05 5.32388e-05 5.57417e-05 5.84122e-05 6.12502e-05 6.4068e-05 6.66776e-05 6.90793e-05 7.12728e-05 7.31011e-05 7.4407e-05 7.51905e-05 7.54515e-05 7.51901e-05 7.44063e-05 7.31001e-05 7.12715e-05 6.90776e-05 6.66758e-05 6.40659e-05 6.12479e-05 5.84098e-05 5.57391e-05 5.3236e-05 5.09005e-05 4.88073e-05 4.70314e-05 4.55726e-05 4.44311e-05 4.35274e-05 4.27821e-05 4.21954e-05 4.17673e-05 4.13513e-05 4.08015e-05 4.01176e-05 3.92998e-05 3.82676e-05 3.69407e-05 3.53189e-05 3.34024e-05 3.12398e-05 2.88802e-05 2.63233e-05 2.35694e-05 2.0745e-05 1.79772e-05 1.52658e-05 1.26109e-05 1.01109e-05 7.86419e-06 5.87074e-06 4.13058e-06 2.65176e-06 1.44237e-06 5.02406e-07 -1.68137e-07 -6.28036e-07 -9.3607e-07 -1.09224e-06 -1.09654e-06 -1.01098e-06 -8.97572e-07 -7.56306e-07 -5.87186e-07 -4.17644e-07 -2.75116e-07 -1.596e-07 -7.10968e-08 -7.94033e-09 3.1536e-08 4.73322e-08 3.94482e-08 2.21896e-08 9.86204e-09 2.46551e-09 0 0 1.55986e-09 6.23943e-09 1.40387e-08 2.49577e-08 2.29539e-08 -8.01545e-09 -6.79502e-08 -1.5685e-07 -2.71338e-07 -4.08034e-07 -5.6694e-07 -7.48054e-07 -9.10841e-07 -1.01476e-06 -1.05982e-06 -1.04602e-06 -9.03001e-07 -5.60426e-07 -1.82933e-08 7.23398e-07 1.70415e-06 2.96347e-06 4.50136e-06 6.31781e-06 8.34804e-06 1.05273e-05 1.28555e-05 1.53327e-05 1.77896e-05 2.00568e-05 2.21343e-05 2.40222e-05 2.55539e-05 2.65628e-05 2.70491e-05 2.70126e-05 2.64293e-05 2.52751e-05 2.355e-05 2.1254e-05 1.85531e-05 1.56137e-05 1.24356e-05 9.01895e-06 5.61864e-06 2.4897e-06 -3.67881e-07 -2.9541e-06 -5.11063e-06 -6.67919e-06 -7.65977e-06 -8.05236e-06 -7.92031e-06 -7.32693e-06 -6.27224e-06 -4.75623e-06 -3.01439e-06 -1.2822e-06 4.40336e-07 2.15322e-06 3.64778e-06 4.71537e-06 5.35599e-06 5.56962e-06 5.35629e-06 4.71598e-06 3.6487e-06 2.15444e-06 4.41874e-07 -1.28036e-06 -3.01226e-06 -4.75382e-06 -6.26959e-06 -7.32409e-06 -7.91734e-06 -8.04932e-06 -7.65674e-06 -6.67628e-06 -5.10793e-06 -2.9517e-06 -3.65888e-07 2.49121e-06 5.61959e-06 9.01926e-06 1.24353e-05 1.56126e-05 1.85514e-05 2.12515e-05 2.35469e-05 2.52715e-05 2.64253e-05 2.70082e-05 2.70444e-05 2.6558e-05 2.55491e-05 2.40175e-05 2.21298e-05 2.00526e-05 1.77857e-05 1.53293e-05 1.28525e-05 1.05248e-05 8.34601e-06 6.31623e-06 4.50019e-06 2.96267e-06 1.70366e-06 7.23161e-07 -1.83289e-08 -5.6031e-07 -9.02784e-07 -1.04575e-06 -1.05954e-06 -1.01448e-06 -9.10582e-07 -7.47836e-07 -5.6677e-07 -4.07908e-07 -2.71251e-07 -1.56797e-07 -6.79247e-08 -8.00889e-09 2.29501e-08 2.49524e-08 1.40357e-08 6.23809e-09 1.55952e-09 0 0 -1.07893e-10 -4.31572e-10 -9.71037e-10 -1.72629e-09 -1.95502e-08 -7.12957e-08 -1.56963e-07 -2.76551e-07 -4.18909e-07 -5.72882e-07 -7.38472e-07 -9.15678e-07 -1.04775e-06 -1.07795e-06 -1.00626e-06 -8.32697e-07 -4.82167e-07 1.20411e-07 9.7504e-07 2.08172e-06 3.44367e-06 5.06414e-06 6.94312e-06 9.0806e-06 1.13278e-05 1.35358e-05 1.57046e-05 1.78343e-05 1.96615e-05 2.09228e-05 2.16181e-05 2.17476e-05 2.11009e-05 1.9468e-05 1.68488e-05 1.32433e-05 8.67051e-06 3.14963e-06 -3.3194e-06 -1.07366e-05 -1.88172e-05 -2.72767e-05 -3.6115e-05 -4.53321e-05 -5.45282e-05 -6.33035e-05 -7.1658e-05 -7.95917e-05 -8.68377e-05 -9.31293e-05 -9.84664e-05 -0.000102849 -0.000106314 -0.000108898 -0.0001106 -0.000111422 -0.000111646 -0.000111557 -0.000111153 -0.000110435 -0.00010967 -0.000109123 -0.000108795 -0.000108685 -0.000108793 -0.00010912 -0.000109666 -0.00011043 -0.000111146 -0.000111549 -0.000111638 -0.000111412 -0.00011059 -0.000108886 -0.000106302 -0.000102837 -9.84538e-05 -9.31167e-05 -8.68253e-05 -7.95797e-05 -7.16467e-05 -6.3293e-05 -5.45186e-05 -4.53236e-05 -3.61078e-05 -2.72708e-05 -1.88127e-05 -1.07334e-05 -3.31757e-06 3.15021e-06 8.66996e-06 1.32417e-05 1.68463e-05 1.94648e-05 2.10972e-05 2.17435e-05 2.16139e-05 2.09185e-05 1.96574e-05 1.78304e-05 1.57011e-05 1.35326e-05 1.13251e-05 9.07838e-06 6.94137e-06 5.06282e-06 3.44274e-06 2.08112e-06 9.74737e-07 1.20337e-07 -4.82074e-07 -8.32496e-07 -1.006e-06 -1.07765e-06 -1.04746e-06 -9.15415e-07 -7.38253e-07 -5.72708e-07 -4.18777e-07 -2.76461e-07 -1.56909e-07 -7.12682e-08 -1.95395e-08 -1.72239e-09 -9.68845e-10 -4.30598e-10 -1.07649e-10 0 0 -2.75823e-09 -1.10329e-08 -2.48241e-08 -4.41317e-08 -8.41089e-08 -1.59909e-07 -2.71532e-07 -4.18977e-07 -5.80662e-07 -7.35e-07 -8.81993e-07 -1.02164e-06 -1.08272e-06 -9.94007e-07 -7.55506e-07 -3.67215e-07 2.37335e-07 1.12461e-06 2.29462e-06 3.74735e-06 5.42789e-06 7.28129e-06 9.30757e-06 1.15067e-05 1.36333e-05 1.54419e-05 1.69324e-05 1.8105e-05 1.86154e-05 1.81195e-05 1.66174e-05 1.4109e-05 1.03724e-05 5.18567e-06 -1.45112e-06 -9.53801e-06 -1.8991e-05 -2.97261e-05 -4.17433e-05 -5.50426e-05 -6.92295e-05 -8.39097e-05 -9.90829e-05 -0.000114749 -0.000130391 -0.00014549 -0.000160047 -0.00017406 -0.000187168 -0.000199005 -0.000209572 -0.000218869 -0.000226882 -0.0002336 -0.000239022 -0.000243147 -0.000246263 -0.000248656 -0.000250325 -0.000251271 -0.000251781 -0.000252146 -0.000252364 -0.000252436 -0.000252361 -0.000252141 -0.000251774 -0.000251261 -0.000250313 -0.000248641 -0.000246247 -0.000243129 -0.000239002 -0.000233579 -0.00022686 -0.000218845 -0.000209548 -0.000198981 -0.000187144 -0.000174037 -0.000160024 -0.000145469 -0.000130371 -0.000114731 -9.90662e-05 -8.38948e-05 -6.92167e-05 -5.50319e-05 -4.17347e-05 -2.97195e-05 -1.89863e-05 -9.53515e-06 -1.44991e-06 5.18548e-06 1.0371e-05 1.41067e-05 1.66144e-05 1.8116e-05 1.86116e-05 1.81011e-05 1.69287e-05 1.54384e-05 1.36301e-05 1.1504e-05 9.30527e-06 7.27943e-06 5.42646e-06 3.74633e-06 2.29397e-06 1.12427e-06 2.37226e-07 -3.6715e-07 -7.5532e-07 -9.93744e-07 -1.08242e-06 -1.02135e-06 -8.81734e-07 -7.34778e-07 -5.80481e-07 -4.18844e-07 -2.71442e-07 -1.59853e-07 -8.40768e-08 -4.41136e-08 -2.48139e-08 -1.10284e-08 -2.7571e-09 0 0 -6.6123e-09 -2.64492e-08 -5.95107e-08 -1.05797e-07 -1.74663e-07 -2.75466e-07 -4.08206e-07 -5.72881e-07 -7.34893e-07 -8.59641e-07 -9.47126e-07 -9.97348e-07 -9.312e-07 -6.6958e-07 -2.12487e-07 4.4008e-07 1.32286e-06 2.47057e-06 3.88323e-06 5.56084e-06 7.36352e-06 9.15142e-06 1.09245e-05 1.26829e-05 1.40866e-05 1.47958e-05 1.48106e-05 1.41309e-05 1.23816e-05 9.18751e-06 4.54864e-06 -1.53503e-06 -9.22922e-06 -1.86997e-05 -2.99463e-05 -4.29693e-05 -5.75945e-05 -7.36482e-05 -9.11302e-05 -0.000110041 -0.000129925 -0.00015033 -0.000171256 -0.000192701 -0.00021412 -0.000234967 -0.000255241 -0.000274942 -0.000293662 -0.000310994 -0.000326938 -0.000341493 -0.000354567 -0.000366064 -0.000375986 -0.000384332 -0.000391301 -0.00039709 -0.0004017 -0.00040513 -0.000407616 -0.000409391 -0.000410455 -0.000410809 -0.000410451 -0.000409384 -0.000407605 -0.000405116 -0.000401682 -0.000397068 -0.000391276 -0.000384305 -0.000375957 -0.000366033 -0.000354534 -0.000341459 -0.000326903 -0.000310959 -0.000293627 -0.000274907 -0.000255207 -0.000234934 -0.000214089 -0.000192672 -0.000171228 -0.000150305 -0.000129903 -0.000110021 -9.11133e-05 -7.36339e-05 -5.75829e-05 -4.29602e-05 -2.99396e-05 -1.86951e-05 -9.22653e-06 -1.534e-06 4.54828e-06 9.18605e-06 1.23793e-05 1.41281e-05 1.48074e-05 1.47925e-05 1.40833e-05 1.26799e-05 1.09219e-05 9.14912e-06 7.36162e-06 5.55936e-06 3.88217e-06 2.46987e-06 1.32245e-06 4.39918e-07 -2.12459e-07 -6.69416e-07 -9.30953e-07 -9.9707e-07 -9.46853e-07 -8.59385e-07 -7.34668e-07 -5.72701e-07 -4.08073e-07 -2.75374e-07 -1.74602e-07 -1.05759e-07 -5.94893e-08 -2.64397e-08 -6.60992e-09 0 0 -1.16701e-08 -4.66805e-08 -1.05031e-07 -1.86722e-07 -2.91214e-07 -4.17968e-07 -5.66984e-07 -7.38262e-07 -8.81603e-07 -9.46807e-07 -9.33873e-07 -8.42803e-07 -5.93199e-07 -1.04666e-07 6.22796e-07 1.58919e-06 2.77439e-06 4.15829e-06 5.74089e-06 7.52217e-06 9.25058e-06 1.06745e-05 1.1794e-05 1.2609e-05 1.26875e-05 1.15976e-05 9.33909e-06 5.91211e-06 9.60165e-07 -5.87323e-06 -1.45881e-05 -2.51844e-05 -3.77038e-05 -5.2188e-05 -6.86369e-05 -8.70506e-05 -0.00010714 -0.000128617 -0.00015148 -0.000175731 -0.000200905 -0.000226539 -0.000252633 -0.000279187 -0.000305716 -0.000331734 -0.000357241 -0.000382237 -0.000406322 -0.000429099 -0.000450566 -0.000470724 -0.000489367 -0.00050629 -0.000521493 -0.000534976 -0.000546758 -0.000556859 -0.000565278 -0.000572015 -0.000577174 -0.000580859 -0.000583069 -0.000583803 -0.000583063 -0.000580849 -0.000577159 -0.000571995 -0.000565253 -0.00055683 -0.000546726 -0.00053494 -0.000521454 -0.000506249 -0.000489323 -0.000470679 -0.00045052 -0.000429052 -0.000406275 -0.00038219 -0.000357195 -0.00033169 -0.000305673 -0.000279146 -0.000252594 -0.000226503 -0.000200871 -0.000175701 -0.000151453 -0.000128593 -0.00010712 -8.70334e-05 -6.86228e-05 -5.21768e-05 -3.76953e-05 -2.51784e-05 -1.45843e-05 -5.87135e-06 9.60508e-07 5.91124e-06 9.33731e-06 1.15951e-05 1.26847e-05 1.26061e-05 1.17912e-05 1.06719e-05 9.24823e-06 7.52022e-06 5.73935e-06 4.15714e-06 2.77359e-06 1.58871e-06 6.22586e-07 -1.04669e-07 -5.93057e-07 -8.42577e-07 -9.33609e-07 -9.46528e-07 -8.81337e-07 -7.38033e-07 -5.66803e-07 -4.1783e-07 -2.91115e-07 -1.86658e-07 -1.04995e-07 -4.66644e-08 -1.16661e-08 0 0 -1.79317e-08 -7.17267e-08 -1.61385e-07 -2.86907e-07 -4.3376e-07 -5.87414e-07 -7.47867e-07 -9.15121e-07 -1.02079e-06 -9.96496e-07 -8.42234e-07 -5.58005e-07 -6.87146e-08 7.00735e-07 1.75034e-06 3.08011e-06 4.59195e-06 6.18777e-06 7.86757e-06 9.63136e-06 1.10891e-05 1.18506e-05 1.1916e-05 1.12852e-05 9.43623e-06 5.84716e-06 5.17949e-07 -6.55139e-06 -1.56489e-05 -2.70627e-05 -4.07928e-05 -5.68391e-05 -7.50513e-05 -9.52792e-05 -0.000117523 -0.000141782 -0.000167628 -0.000194632 -0.000222793 -0.000252113 -0.000282167 -0.000312535 -0.000343215 -0.000374208 -0.000405178 -0.000435791 -0.000466047 -0.000495945 -0.000525147 -0.000553317 -0.000580454 -0.000606559 -0.000631282 -0.000654277 -0.000675542 -0.000695079 -0.000712636 -0.000727962 -0.000741058 -0.000751924 -0.000760456 -0.000766549 -0.000770204 -0.00077142 -0.000770197 -0.000766536 -0.000760437 -0.0007519 -0.000741028 -0.000727927 -0.000712596 -0.000695035 -0.000675494 -0.000654226 -0.000631229 -0.000606503 -0.000580397 -0.000553259 -0.000525089 -0.000495886 -0.000465989 -0.000435735 -0.000405123 -0.000374155 -0.000343164 -0.000312487 -0.000282122 -0.000252071 -0.000222755 -0.000194597 -0.000167597 -0.000141755 -0.000117499 -9.52597e-05 -7.50354e-05 -5.68266e-05 -4.07834e-05 -2.70562e-05 -1.56448e-05 -6.54934e-06 5.18308e-07 5.8462e-06 9.43432e-06 1.12827e-05 1.19132e-05 1.18477e-05 1.10863e-05 9.62889e-06 7.8655e-06 6.18609e-06 4.59066e-06 3.07922e-06 1.74981e-06 7.00496e-07 -6.87314e-08 -5.5787e-07 -8.42002e-07 -9.96208e-07 -1.02049e-06 -9.1484e-07 -7.47631e-07 -5.87223e-07 -4.33617e-07 -2.86811e-07 -1.61331e-07 -7.17027e-08 -1.79257e-08 0 0 -2.47282e-08 -9.89129e-08 -2.22554e-07 -3.95652e-07 -5.84701e-07 -7.56198e-07 -9.10141e-07 -1.04653e-06 -1.08108e-06 -9.29494e-07 -5.91774e-07 -6.79199e-08 6.94942e-07 1.74969e-06 3.09632e-06 4.73483e-06 6.46741e-06 8.09627e-06 9.62139e-06 1.10428e-05 1.18437e-05 1.15074e-05 1.0034e-05 7.4233e-06 3.14123e-06 -3.34647e-06 -1.20398e-05 -2.29387e-05 -3.61445e-05 -5.17584e-05 -6.97804e-05 -9.02104e-05 -0.000112627 -0.000136607 -0.000162152 -0.000189261 -0.000217392 -0.000246004 -0.000275098 -0.000304672 -0.000334482 -0.00036428 -0.000394068 -0.000423845 -0.000453607 -0.00048335 -0.000513076 -0.000542783 -0.000572328 -0.000601567 -0.000630501 -0.000659129 -0.000686971 -0.000713548 -0.000738858 -0.000762904 -0.000785061 -0.000804711 -0.000821851 -0.000836483 -0.000848188 -0.000856548 -0.000861562 -0.000863232 -0.000861556 -0.000856534 -0.000848168 -0.000836457 -0.000821819 -0.000804673 -0.000785019 -0.000762857 -0.000738808 -0.000713494 -0.000686915 -0.000659071 -0.000630441 -0.000601506 -0.000572266 -0.000542721 -0.000513014 -0.00048329 -0.000453547 -0.000423786 -0.000394011 -0.000364226 -0.000334429 -0.000304623 -0.000275051 -0.000245961 -0.000217353 -0.000189225 -0.00016212 -0.00013658 -0.000112603 -9.01911e-05 -6.9765e-05 -5.17465e-05 -3.61359e-05 -2.29329e-05 -1.20365e-05 -3.34518e-06 3.14093e-06 7.42186e-06 1.00317e-05 1.15047e-05 1.18408e-05 1.104e-05 9.61888e-06 8.0941e-06 6.46563e-06 4.73349e-06 3.09541e-06 1.74915e-06 6.94699e-07 -6.7935e-08 -5.91623e-07 -9.29232e-07 -1.08076e-06 -1.04622e-06 -9.09858e-07 -7.55956e-07 -5.84511e-07 -3.95522e-07 -2.22481e-07 -9.88804e-08 -2.47201e-08 0 0 -3.1391e-08 -1.25564e-07 -2.82519e-07 -5.02257e-07 -7.26435e-07 -8.96714e-07 -1.01309e-06 -1.07557e-06 -9.91092e-07 -6.66588e-07 -1.02061e-07 7.02488e-07 1.75046e-06 3.04526e-06 4.58688e-06 6.37532e-06 8.09268e-06 9.42105e-06 1.03604e-05 1.09108e-05 1.04793e-05 8.47284e-06 4.89154e-06 -2.64639e-07 -7.38888e-06 -1.68744e-05 -2.87211e-05 -4.29291e-05 -5.92255e-05 -7.73378e-05 -9.72657e-05 -0.000119009 -0.000141784 -0.000164805 -0.000188071 -0.000211584 -0.000234767 -0.000257047 -0.000278423 -0.000298895 -0.000318615 -0.000337736 -0.000356257 -0.000374179 -0.0003921 -0.000410623 -0.000429745 -0.000449468 -0.000470054 -0.000491765 -0.000514601 -0.000538562 -0.000563089 -0.000587623 -0.000612164 -0.000636712 -0.000660163 -0.000681415 -0.000700466 -0.000717317 -0.000731098 -0.000740942 -0.000746847 -0.000748813 -0.000746841 -0.000740931 -0.000731083 -0.000717296 -0.000700441 -0.000681386 -0.000660131 -0.000636677 -0.000612127 -0.000587583 -0.000563048 -0.000538519 -0.000514557 -0.00049172 -0.000470008 -0.000449421 -0.000429697 -0.000410574 -0.000392052 -0.00037413 -0.000356208 -0.000337688 -0.000318568 -0.000298848 -0.000278377 -0.000257003 -0.000234726 -0.000211545 -0.000188036 -0.000164772 -0.000141755 -0.000118985 -9.72448e-05 -7.73205e-05 -5.92119e-05 -4.29188e-05 -2.87139e-05 -1.68699e-05 -7.3866e-06 -2.64143e-07 4.89067e-06 8.47099e-06 1.04768e-05 1.09081e-05 1.03578e-05 9.41856e-06 8.09048e-06 6.37355e-06 4.58556e-06 3.04435e-06 1.74991e-06 7.02243e-07 -1.02061e-07 -6.66411e-07 -9.90809e-07 -1.07525e-06 -1.01278e-06 -8.96431e-07 -7.26202e-07 -5.02094e-07 -2.82428e-07 -1.25524e-07 -3.13809e-08 0 0 -3.79201e-08 -1.5168e-07 -3.41281e-07 -6.06722e-07 -8.58962e-07 -1.00896e-06 -1.05672e-06 -1.00224e-06 -7.50827e-07 -2.07777e-07 6.26904e-07 1.75322e-06 3.09784e-06 4.58744e-06 6.22203e-06 8.00159e-06 9.46775e-06 1.01621e-05 1.00847e-05 9.23548e-06 6.99576e-06 2.74683e-06 -3.51131e-06 -1.17787e-05 -2.21541e-05 -3.47365e-05 -4.95259e-05 -6.65223e-05 -8.48919e-05 -0.000103801 -0.000123249 -0.000143236 -0.000162524 -0.000179872 -0.000195282 -0.000208752 -0.000219754 -0.000227759 -0.000232768 -0.000234781 -0.000234568 -0.000232902 -0.000229783 -0.00022521 -0.00022066 -0.000217608 -0.000216056 -0.000216002 -0.000218327 -0.000223912 -0.000232756 -0.00024486 -0.000259638 -0.000276504 -0.00029546 -0.000316505 -0.000337942 -0.000358074 -0.000376902 -0.000394425 -0.000409186 -0.00041973 -0.000426056 -0.000428164 -0.000426054 -0.000419726 -0.000409181 -0.000394418 -0.000376893 -0.000358065 -0.000337932 -0.000316494 -0.000295449 -0.000276493 -0.000259626 -0.000244848 -0.000232744 -0.000223899 -0.000218313 -0.000215986 -0.000216038 -0.000217589 -0.000220638 -0.000225186 -0.000229756 -0.000232873 -0.000234536 -0.000234747 -0.000232733 -0.000227723 -0.000219717 -0.000208715 -0.000195246 -0.000179838 -0.000162492 -0.000143207 -0.000123223 -0.000103778 -8.48728e-05 -6.65069e-05 -4.95141e-05 -3.47279e-05 -2.21483e-05 -1.17753e-05 -3.51004e-06 2.74649e-06 6.99427e-06 9.2333e-06 1.00822e-05 1.01595e-05 9.46522e-06 7.9994e-06 6.22027e-06 4.5861e-06 3.0969e-06 1.75266e-06 6.26684e-07 -2.07745e-07 -7.50624e-07 -1.00195e-06 -1.0564e-06 -1.00865e-06 -8.58691e-07 -6.06529e-07 -3.41172e-07 -1.51632e-07 -3.79081e-08 0 0 -4.43154e-08 -1.77262e-07 -3.98839e-07 -7.09047e-07 -9.82283e-07 -1.09294e-06 -1.04103e-06 -8.26542e-07 -3.60284e-07 4.46938e-07 1.59512e-06 3.08427e-06 4.73708e-06 6.37625e-06 8.00177e-06 9.61364e-06 1.05926e-05 1.03195e-05 8.79419e-06 6.01676e-06 1.39317e-06 -5.67061e-06 -1.51746e-05 -2.71188e-05 -4.11544e-05 -5.6933e-05 -7.44544e-05 -9.37186e-05 -0.000113144 -0.000131147 -0.00014773 -0.000162891 -0.000174846 -0.00018181 -0.000183783 -0.000180764 -0.000172351 -0.000158141 -0.000138134 -0.00011233 -8.23409e-05 -4.97794e-05 -1.46454e-05 2.30611e-05 6.07154e-05 9.56929e-05 0.000127994 0.000157617 0.000182854 0.000201993 0.000215035 0.000221979 0.000223384 0.000219809 0.000211254 0.000197719 0.000181604 0.000165312 0.000148841 0.000132193 0.000117548 0.000107086 0.000100809 9.87155e-05 0.000100806 0.00010708 0.000117538 0.00013218 0.000148824 0.000165291 0.00018158 0.000197691 0.000211224 0.000219776 0.000223349 0.000221942 0.000214997 0.000201956 0.000182818 0.000157584 0.000127963 9.5667e-05 6.06946e-05 2.30463e-05 -1.46537e-05 -4.97812e-05 -8.23362e-05 -0.000112319 -0.000138117 -0.000158119 -0.000172325 -0.000180734 -0.00018375 -0.000181777 -0.000174813 -0.000162859 -0.000147699 -0.000131119 -0.000113119 -9.36973e-05 -7.44369e-05 -5.69192e-05 -4.11441e-05 -2.71117e-05 -1.51704e-05 -5.66876e-06 1.3932e-06 6.01551e-06 8.79208e-06 1.03169e-05 1.05898e-05 9.61104e-06 7.99953e-06 6.37441e-06 4.73568e-06 3.08333e-06 1.59461e-06 4.46766e-07 -3.60209e-07 -8.26313e-07 -1.04072e-06 -1.09261e-06 -9.81978e-07 -7.08825e-07 -3.98714e-07 -1.77206e-07 -4.43016e-08 0 0 -4.84149e-08 -1.9366e-07 -4.35734e-07 -7.74639e-07 -1.04633e-06 -1.08676e-06 -8.95929e-07 -4.73839e-07 2.46312e-07 1.33133e-06 2.78121e-06 4.59596e-06 6.46845e-06 8.09159e-06 9.46537e-06 1.05898e-05 1.07122e-05 9.07996e-06 5.69307e-06 5.51547e-07 -6.78001e-06 -1.6737e-05 -2.93194e-05 -4.45271e-05 -6.13924e-05 -7.89474e-05 -9.71919e-05 -0.000116126 -0.000133376 -0.00014657 -0.000155706 -0.000160785 -0.000159621 -0.000150026 -0.000132003 -0.000105549 -7.05684e-05 -2.69625e-05 2.52683e-05 8.6124e-05 0.000153108 0.000223722 0.000297968 0.000375844 0.000453631 0.000527608 0.000597777 0.000664136 0.000724122 0.000775172 0.000817287 0.000850465 0.000875085 0.000891525 0.000899787 0.000899869 0.000894704 0.000887226 0.000877434 0.000865328 0.000853723 0.000845433 0.000840456 0.000838794 0.000840446 0.000845412 0.000853693 0.000865288 0.000877384 0.000887166 0.000894636 0.000899792 0.000899702 0.000891435 0.000874989 0.000850365 0.000817185 0.00077507 0.000724021 0.000664038 0.000597684 0.000527522 0.000453553 0.000375775 0.00029791 0.000223675 0.000153072 8.60998e-05 2.52552e-05 -2.69655e-05 -7.05623e-05 -0.000105535 -0.000131982 -0.000150001 -0.000159591 -0.000160754 -0.000155675 -0.000146539 -0.000133348 -0.0001161 -9.71695e-05 -7.89286e-05 -6.13774e-05 -4.45159e-05 -2.93116e-05 -1.67323e-05 -6.77781e-06 5.51786e-07 5.69185e-06 9.07774e-06 1.07094e-05 1.0587e-05 9.46275e-06 8.08929e-06 6.46656e-06 4.59458e-06 2.78035e-06 1.33089e-06 2.46194e-07 -4.73728e-07 -8.95673e-07 -1.08643e-06 -1.04601e-06 -7.74401e-07 -4.35601e-07 -1.936e-07 -4.84001e-08 0 0 -4.80565e-08 -1.92226e-07 -4.32509e-07 -7.68905e-07 -1.00103e-06 -9.28507e-07 -5.51332e-07 1.30494e-07 1.13474e-06 2.47917e-06 4.16378e-06 6.18858e-06 8.09223e-06 9.4134e-06 1.01521e-05 1.03083e-05 9.07132e-06 5.63039e-06 -1.44814e-08 -7.86329e-06 -1.79753e-05 -3.04097e-05 -4.51667e-05 -6.2246e-05 -7.98706e-05 -9.62634e-05 -0.000111424 -0.000125353 -0.000134986 -0.00013726 -0.000132174 -0.000119729 -9.7717e-05 -6.39307e-05 -1.83701e-05 3.89648e-05 0.000107586 0.000187007 0.000277228 0.000378247 0.000486818 0.000599691 0.000716867 0.000838347 0.000959692 0.00107647 0.00118867 0.0012963 0.00139611 0.00148485 0.00156251 0.00162911 0.00168457 0.00172885 0.00176195 0.00178386 0.00179759 0.00180615 0.00180955 0.00180777 0.00180396 0.00180123 0.00179959 0.00179904 0.00179957 0.0018012 0.0018039 0.0018077 0.00180946 0.00180605 0.00179747 0.00178372 0.0017618 0.00172869 0.0016844 0.00162893 0.00156234 0.00148467 0.00139593 0.00129613 0.0011885 0.00107631 0.000959543 0.000838211 0.000716746 0.000599585 0.000486727 0.000378173 0.00027717 0.000186965 0.000107559 3.89504e-05 -1.83725e-05 -6.39232e-05 -9.77016e-05 -0.000119708 -0.000132149 -0.000137232 -0.000134958 -0.000125326 -0.000111399 -9.62409e-05 -7.98514e-05 -6.22306e-05 -4.51551e-05 -3.04016e-05 -1.79702e-05 -7.86081e-06 -1.41343e-08 5.62917e-06 9.06909e-06 1.03056e-05 1.01493e-05 9.41076e-06 8.0899e-06 6.18675e-06 4.16251e-06 2.47838e-06 1.13434e-06 1.30411e-07 -5.51193e-07 -9.28241e-07 -1.00074e-06 -7.68675e-07 -4.3238e-07 -1.92169e-07 -4.80422e-08 0 0 -4.32402e-08 -1.72961e-07 -3.89162e-07 -6.91843e-07 -8.46391e-07 -6.18189e-07 -7.23964e-09 9.86459e-07 2.30499e-06 3.89045e-06 5.74284e-06 7.86214e-06 9.60841e-06 1.03417e-05 1.0062e-05 8.76924e-06 5.67001e-06 -2.92263e-08 -8.32848e-06 -1.92277e-05 -3.21927e-05 -4.66889e-05 -6.27165e-05 -8.02754e-05 -9.65891e-05 -0.000108881 -0.000117151 -0.0001214 -0.000117973 -0.000103218 -7.71348e-05 -3.97235e-05 1.08645e-05 7.64774e-05 0.000157115 0.000252778 0.000362113 0.000483768 0.000617744 0.000764039 0.000918789 0.00107813 0.00124205 0.00141057 0.0015789 0.00174226 0.00190067 0.00205411 0.00219882 0.00233102 0.00245072 0.00255791 0.00265184 0.00273179 0.00279773 0.00284968 0.00289026 0.00292209 0.00294518 0.00295953 0.00296826 0.00297449 0.00297822 0.00297945 0.00297819 0.00297443 0.00296817 0.00295942 0.00294505 0.00292193 0.00289007 0.00284948 0.00279751 0.00273155 0.00265159 0.00255765 0.00245045 0.00233075 0.00219855 0.00205385 0.00190041 0.00174202 0.00157867 0.00141035 0.00124185 0.00107795 0.000918629 0.000763901 0.000617627 0.000483673 0.000362038 0.000252722 0.0