<?xml version="1.0"?> 
<VTKFile type="StructuredGrid" version="0.1"> 
<StructuredGrid WholeExtent="0 128 0 128 0 0"> 
<Piece Extent="0 128 0 128 0 0"> 
<PointData>
<DataArray type="Float32" Name="u" format="ascii" NumberOfComponents="1"> 
0 0 0 0 0 0 0 0 0 0 0 0 0 0 0 0 0 0 0 0 0 0 0 0 0 0 0 0 0 0 0 0 0 0 0 0 0 0 0 0 0 0 0 0 0 0 0 0 0 0 0 0 0 0 0 0 0 0 0 0 0 0 0 0 0 0 0 0 0 0 0 0 0 0 0 0 0 0 0 0 0 0 0 0 0 0 0 0 0 0 0 0 0 0 0 0 0 0 0 0 0 0 0 0 0 0 0 0 0 0 0 0 0 0 0 0 0 0 0 0 0 0 0 0 0 0 0 0 0 0 -2.2698e-07 -9.07918e-07 -2.04282e-06 -3.63167e-06 -5.66865e-06 -8.1479e-06 -1.10694e-05 -1.44332e-05 -1.8225e-05 -2.24305e-05 -2.70497e-05 -3.20825e-05 -3.74626e-05 -4.31231e-05 -4.90643e-05 -5.52861e-05 -6.17202e-05 -6.82987e-05 -7.50214e-05 -8.18884e-05 -8.88343e-05 -9.57937e-05 -0.000102767 -0.000109753 -0.000116691 -0.000123519 -0.000130238 -0.000136847 -0.000143292 -0.00014952 -0.000155531 -0.000161325 -0.000166862 -0.000172102 -0.000177047 -0.000181696 -0.00018603 -0.000190031 -0.000193698 -0.000197032 -0.000200038 -0.000202722 -0.000205082 -0.000207121 -0.000208864 -0.000210342 -0.000211552 -0.000212497 -0.000213218 -0.000213761 -0.000214125 -0.00021431 -0.000214365 -0.000214339 -0.000214232 -0.000214044 -0.000213816 -0.00021359 -0.000213366 -0.000213145 -0.000212948 -0.000212801 -0.000212703 -0.000212654 -0.000212654 -0.000212702 -0.000212799 -0.000212944 -0.000213113 -0.000213282 -0.000213451 -0.000213619 -0.000213746 -0.000213789 -0.000213748 -0.000213624 -0.000213367 -0.00021293 -0.000212312 -0.000211514 -0.000210491 -0.000209202 -0.000207647 -0.000205824 -0.000203709 -0.000201273 -0.000198517 -0.000195441 -0.000192041 -0.000188313 -0.000184256 -0.000179871 -0.000175177 -0.000170195 -0.000164925 -0.000159365 -0.000153557 -0.000147541 -0.000141316 -0.000134883 -0.000128295 -0.000121606 -0.000114817 -0.000107926 -0.000100996 -9.40871e-05 -8.71991e-05 -8.03323e-05 -7.35507e-05 -6.69183e-05 -6.04351e-05 -5.41011e-05 -4.79824e-05 -4.21449e-05 -3.65888e-05 -3.13139e-05 -2.63842e-05 -2.18634e-05 -1.77517e-05 -1.40489e-05 -1.07675e-05 -7.91987e-06 -5.50609e-06 -3.52612e-06 -1.98344e-06 -8.81531e-07 -2.20383e-07 0 0 -9.07918e-07 -3.63167e-06 -8.17126e-06 -1.45267e-05 -2.26746e-05 -3.25916e-05 -4.42777e-05 -5.77329e-05 -7.29001e-05 -8.9722e-05 -0.000108199 -0.00012833 -0.00014985 -0.000172493 -0.000196257 -0.000221144 -0.000246881 -0.000273195 -0.000300086 -0.000327554 -0.000355337 -0.000383175 -0.000411066 -0.000439012 -0.000466764 -0.000494078 -0.000520952 -0.000547388 -0.000573169 -0.000598082 -0.000622125 -0.000645299 -0.000667447 -0.00068841 -0.000708189 -0.000726784 -0.000744121 -0.000760123 -0.000774793 -0.000788128 -0.000800152 -0.000810886 -0.000820329 -0.000828483 -0.000835458 -0.000841367 -0.00084621 -0.000849987 -0.000852873 -0.000855044 -0.0008565 -0.00085724 -0.000857461 -0.000857357 -0.000856928 -0.000856175 -0.000855264 -0.000854361 -0.000853466 -0.000852578 -0.000851793 -0.000851204 -0.000850812 -0.000850617 -0.000850617 -0.00085081 -0.000851196 -0.000851776 -0.000852452 -0.000853128 -0.000853803 -0.000854477 -0.000854984 -0.000855156 -0.000854993 -0.000854496 -0.00085347 -0.000851721 -0.000849249 -0.000846054 -0.000841965 -0.000836809 -0.000830587 -0.000823298 -0.000814836 -0.000805093 -0.000794069 -0.000781765 -0.000768164 -0.00075325 -0.000737023 -0.000719483 -0.000700709 -0.000680781 -0.000659698 -0.000637461 -0.00061423 -0.000590164 -0.000565265 -0.000539532 -0.00051318 -0.000486425 -0.000459267 -0.000431706 -0.000403985 -0.000376348 -0.000348797 -0.000321329 -0.000294203 -0.000267673 -0.00024174 -0.000216404 -0.000191929 -0.00016858 -0.000146355 -0.000125256 -0.000105537 -8.74538e-05 -7.10067e-05 -5.61955e-05 -4.30699e-05 -3.16795e-05 -2.20244e-05 -1.41045e-05 -7.93378e-06 -3.52612e-06 -8.81531e-07 0 0 -2.04282e-06 -8.17126e-06 -1.83853e-05 -3.26851e-05 -5.10178e-05 -7.33311e-05 -9.96248e-05 -0.000129899 -0.000164025 -0.000201875 -0.000243447 -0.000288743 -0.000337163 -0.000388108 -0.000441579 -0.000497574 -0.000555482 -0.000614688 -0.000675193 -0.000736996 -0.000799509 -0.000862143 -0.000924899 -0.000987776 -0.00105022 -0.00111168 -0.00117214 -0.00123162 -0.00128963 -0.00134568 -0.00139978 -0.00145192 -0.00150175 -0.00154892 -0.00159343 -0.00163526 -0.00167427 -0.00171028 -0.00174328 -0.00177329 -0.00180034 -0.00182449 -0.00184574 -0.00186409 -0.00187978 -0.00189308 -0.00190397 -0.00191247 -0.00191896 -0.00192385 -0.00192712 -0.00192879 -0.00192929 -0.00192905 -0.00192809 -0.00192639 -0.00192434 -0.00192231 -0.0019203 -0.0019183 -0.00191653 -0.00191521 -0.00191433 -0.00191389 -0.00191389 -0.00191432 -0.00191519 -0.0019165 -0.00191802 -0.00191954 -0.00192106 -0.00192257 -0.00192371 -0.0019241 -0.00192373 -0.00192262 -0.00192031 -0.00191637 -0.00191081 -0.00190362 -0.00189442 -0.00188282 -0.00186882 -0.00185242 -0.00183338 -0.00181146 -0.00178666 -0.00175897 -0.00172837 -0.00169481 -0.0016583 -0.00161884 -0.0015766 -0.00153176 -0.00148432 -0.00143429 -0.00138202 -0.00132787 -0.00127185 -0.00121395 -0.00115466 -0.00109446 -0.00103335 -0.000971337 -0.000908965 -0.000846784 -0.000784792 -0.000722991 -0.000661956 -0.000602265 -0.000543916 -0.00048691 -0.000431841 -0.000379304 -0.000329299 -0.000281825 -0.000237458 -0.000196771 -0.000159765 -0.00012644 -9.69072e-05 -7.12789e-05 -4.95548e-05 -3.17351e-05 -1.7851e-05 -7.93378e-06 -1.98344e-06 0 0 -3.63167e-06 -1.45267e-05 -3.26851e-05 -5.81068e-05 -9.06984e-05 -0.000130366 -0.000177111 -0.000230932 -0.0002916 -0.000358888 -0.000432795 -0.000513321 -0.000599401 -0.00068997 -0.000785029 -0.000884577 -0.000987524 -0.00109278 -0.00120034 -0.00131022 -0.00142135 -0.0015327 -0.00164427 -0.00175605 -0.00186706 -0.00197631 -0.00208381 -0.00218955 -0.00229268 -0.00239233 -0.0024885 -0.0025812 -0.00266979 -0.00275364 -0.00283276 -0.00290714 -0.00297648 -0.00304049 -0.00309917 -0.00315251 -0.00320061 -0.00324354 -0.00328132 -0.00331393 -0.00334183 -0.00336547 -0.00338484 -0.00339995 -0.00341149 -0.00342018 -0.003426 -0.00342896 -0.00342984 -0.00342943 -0.00342771 -0.0034247 -0.00342106 -0.00341744 -0.00341386 -0.00341031 -0.00340717 -0.00340482 -0.00340325 -0.00340247 -0.00340247 -0.00340324 -0.00340478 -0.0034071 -0.00340981 -0.00341251 -0.00341521 -0.00341791 -0.00341994 -0.00342062 -0.00341997 -0.00341798 -0.00341388 -0.00340688 -0.00339699 -0.00338422 -0.00336786 -0.00334724 -0.00332235 -0.00329319 -0.00325934 -0.00322037 -0.00317628 -0.00312706 -0.00307266 -0.003013 -0.00294809 -0.00287793 -0.00280284 -0.00272312 -0.00263879 -0.00254984 -0.00245692 -0.00236066 -0.00226106 -0.00215813 -0.00205272 -0.0019457 -0.00183707 -0.00172682 -0.00161594 -0.00150539 -0.00139519 -0.00128532 -0.00117681 -0.00107069 -0.000966962 -0.000865618 -0.000767718 -0.000674318 -0.00058542 -0.000501022 -0.000422147 -0.000349815 -0.000284027 -0.000224782 -0.000172279 -0.000126718 -8.80975e-05 -5.6418e-05 -3.17351e-05 -1.41045e-05 -3.52612e-06 0 0 -5.66411e-06 -2.26564e-05 -5.09769e-05 -9.06257e-05 -0.000141318 -0.000202771 -0.000274983 -0.000357955 -0.000451312 -0.00055468 -0.000668057 -0.000791444 -0.000923202 -0.00106169 -0.0012069 -0.00135885 -0.00151585 -0.00167621 -0.00183995 -0.00200706 -0.00217594 -0.00234496 -0.00251414 -0.00268347 -0.00285144 -0.00301654 -0.00317877 -0.00333813 -0.00349331 -0.003643 -0.0037872 -0.00392591 -0.00405819 -0.00418309 -0.0043006 -0.00441074 -0.00451306 -0.00460714 -0.00469298 -0.00477058 -0.00484011 -0.00490173 -0.00495544 -0.00500126 -0.00503989 -0.00507207 -0.00509779 -0.00511707 -0.005131 -0.00514071 -0.0051462 -0.00514746 -0.00514572 -0.00514222 -0.00513696 -0.00512994 -0.0051222 -0.00511479 -0.0051077 -0.00510094 -0.00509509 -0.00509075 -0.00508792 -0.0050866 -0.00508678 -0.00508844 -0.00509159 -0.00509623 -0.00510175 -0.00510755 -0.00511361 -0.00511994 -0.0051255 -0.00512922 -0.00513112 -0.00513119 -0.00512821 -0.00512096 -0.00510943 -0.00509362 -0.00507245 -0.00504481 -0.00501072 -0.00497017 -0.00492246 -0.00486691 -0.0048035 -0.00473225 -0.00465301 -0.00456566 -0.00447018 -0.00436659 -0.00425534 -0.00413689 -0.00401123 -0.00387837 -0.00373928 -0.00359491 -0.00344527 -0.00329036 -0.00313148 -0.00296995 -0.00280577 -0.00263894 -0.00247096 -0.00230332 -0.00213602 -0.00196906 -0.00180401 -0.00164246 -0.00148441 -0.00132985 -0.00118041 -0.00103772 -0.000901779 -0.000772588 -0.000651719 -0.000540748 -0.000439673 -0.000348496 -0.000267545 -0.000197148 -0.000137306 -8.80194e-05 -4.95109e-05 -2.20048e-05 -5.50121e-06 0 0 -8.12973e-06 -3.25189e-05 -7.31676e-05 -0.000130076 -0.00020248 -0.000289618 -0.00039149 -0.000508094 -0.000638848 -0.000783166 -0.000941048 -0.00111249 -0.0012952 -0.00148687 -0.0016875 -0.00189709 -0.00211329 -0.00233374 -0.00255844 -0.0027874 -0.00301835 -0.00324906 -0.0034795 -0.0037097 -0.00393753 -0.00416091 -0.00437984 -0.0045943 -0.00480252 -0.00500268 -0.0051948 -0.00537887 -0.00555362 -0.0057178 -0.00587139 -0.0060144 -0.00614631 -0.00626659 -0.00637524 -0.00647226 -0.00655799 -0.00663273 -0.0066965 -0.0067493 -0.00679223 -0.0068264 -0.00685182 -0.00686849 -0.00687804 -0.00688215 -0.00688079 -0.00687398 -0.00686351 -0.00685119 -0.006837 -0.00682097 -0.00680459 -0.00678938 -0.00677535 -0.00676249 -0.00675167 -0.00674373 -0.00673868 -0.00673652 -0.00673724 -0.00674081 -0.00674723 -0.00675652 -0.00676778 -0.00678014 -0.00679359 -0.00680813 -0.00682224 -0.0068344 -0.0068446 -0.00685284 -0.00685734 -0.0068563 -0.00684972 -0.00683761 -0.00681835 -0.00679031 -0.00675349 -0.00670791 -0.00665248 -0.00658615 -0.00650891 -0.00642076 -0.00632142 -0.00621062 -0.00608836 -0.00595463 -0.00581001 -0.00565505 -0.00548975 -0.00531412 -0.00512944 -0.00493702 -0.00473684 -0.00452891 -0.00431503 -0.004097 -0.00387482 -0.00364849 -0.00342009 -0.0031917 -0.00296332 -0.00273495 -0.0025088 -0.00228708 -0.00206979 -0.00185692 -0.00165077 -0.00145361 -0.00126544 -0.00108626 -0.000918288 -0.00076373 -0.000622586 -0.000494856 -0.000381061 -0.000281721 -0.000196836 -0.000126405 -7.11031e-05 -3.16014e-05 -7.90034e-06 0 0 -1.10286e-05 -4.41142e-05 -9.9257e-05 -0.000176457 -0.000274184 -0.000390908 -0.00052663 -0.000681349 -0.000854207 -0.00104435 -0.00125177 -0.00147647 -0.00171541 -0.00196552 -0.00222682 -0.0024993 -0.00277985 -0.00306535 -0.00335581 -0.00365122 -0.0039486 -0.00424498 -0.00454035 -0.00483472 -0.00512533 -0.00540943 -0.00568701 -0.00595808 -0.00622031 -0.00647139 -0.0067113 -0.00694007 -0.00715608 -0.00735776 -0.00754511 -0.00771813 -0.00787623 -0.00801883 -0.00814595 -0.00825757 -0.00835425 -0.00843656 -0.0085045 -0.00855806 -0.00859885 -0.00862847 -0.00864692 -0.0086542 -0.00865262 -0.00864448 -0.00862979 -0.00860854 -0.00858322 -0.00855632 -0.00852783 -0.00849777 -0.0084682 -0.00844122 -0.00841681 -0.00839499 -0.00837691 -0.00836376 -0.00835554 -0.00835224 -0.00835385 -0.00836034 -0.00837171 -0.00838796 -0.00840789 -0.00843028 -0.00845515 -0.00848247 -0.00851017 -0.00853615 -0.0085604 -0.00858293 -0.00860125 -0.00861291 -0.00861789 -0.00861619 -0.00860556 -0.00858372 -0.00855067 -0.00850641 -0.0084494 -0.00837809 -0.00829249 -0.00819259 -0.00807789 -0.0079479 -0.00780263 -0.00764206 -0.00746684 -0.00727761 -0.00707435 -0.00685708 -0.00662741 -0.00638698 -0.00613577 -0.0058738 -0.00560338 -0.00532685 -0.00504421 -0.00475546 -0.00446333 -0.00417054 -0.0038771 -0.00358301 -0.00329119 -0.00300455 -0.0027231 -0.00244684 -0.00217879 -0.00192198 -0.00167639 -0.00144204 -0.00122185 -0.00101876 -0.000832765 -0.000663863 -0.000512829 -0.000380436 -0.000266685 -0.000171576 -9.65117e-05 -4.28941e-05 -1.07235e-05 0 0 -1.43606e-05 -5.74423e-05 -0.000129245 -0.000229769 -0.000356429 -0.000506641 -0.000680404 -0.000877718 -0.00109739 -0.00133822 -0.00160022 -0.00188337 -0.00218381 -0.00249764 -0.00282486 -0.00316548 -0.00351553 -0.00387106 -0.00423205 -0.00459852 -0.00496667 -0.00533273 -0.00569669 -0.00605855 -0.00641484 -0.00676209 -0.00710029 -0.00742945 -0.00774669 -0.0080491 -0.00833671 -0.0086095 -0.00886557 -0.00910299 -0.00932178 -0.00952192 -0.00970282 -0.00986388 -0.0100051 -0.0101265 -0.0102289 -0.0103132 -0.0103794 -0.0104275 -0.0104597 -0.0104783 -0.0104831 -0.0104742 -0.0104547 -0.0104277 -0.0103932 -0.0103511 -0.0103048 -0.0102576 -0.0102095 -0.0101604 -0.0101131 -0.0100703 -0.0100321 -0.00999841 -0.00997082 -0.00995084 -0.00993849 -0.00993376 -0.00993661 -0.00994703 -0.00996501 -0.00999056 -0.0100221 -0.010058 -0.0100983 -0.010143 -0.0101893 -0.0102345 -0.0102785 -0.0103214 -0.01036 -0.0103908 -0.0104139 -0.0104294 -0.0104341 -0.010425 -0.0104022 -0.0103657 -0.0103132 -0.0102427 -0.0101542 -0.0100477 -0.00992241 -0.00977749 -0.00961298 -0.00942887 -0.00922584 -0.00900456 -0.00876503 -0.00850725 -0.00823318 -0.00794479 -0.00764206 -0.00732501 -0.00699652 -0.0066595 -0.00631395 -0.00595985 -0.00560067 -0.00523984 -0.00487736 -0.00451323 -0.00415116 -0.00379487 -0.00344435 -0.00309961 -0.00276449 -0.00244283 -0.00213465 -0.00183993 -0.00156242 -0.00130584 -0.00107021 -0.000855515 -0.000662847 -0.000493294 -0.000346855 -0.000223532 -0.000125737 -5.5883e-05 -1.39707e-05 0 0 -1.80993e-05 -7.2397e-05 -0.000162893 -0.000289588 -0.000448541 -0.000635812 -0.000851401 -0.00109531 -0.0013659 -0.00166156 -0.00198228 -0.00232807 -0.00269409 -0.00307553 -0.00347238 -0.00388465 -0.00430743 -0.00473582 -0.00516982 -0.00560944 -0.00604999 -0.00648682 -0.00691992 -0.00734929 -0.00777068 -0.00817984 -0.00857678 -0.00896149 -0.0093305 -0.00968034 -0.010011 -0.0103225 -0.0106126 -0.0108792 -0.0111221 -0.0113414 -0.0115365 -0.011707 -0.0118528 -0.0119738 -0.0120715 -0.012147 -0.0122004 -0.0122317 -0.0122439 -0.0122398 -0.0122195 -0.012183 -0.0121344 -0.0120775 -0.0120126 -0.0119394 -0.0118624 -0.0117857 -0.0117094 -0.0116335 -0.0115614 -0.0114966 -0.0114393 -0.0113894 -0.0113488 -0.0113195 -0.0113016 -0.011295 -0.0112996 -0.0113156 -0.0113428 -0.0113812 -0.0114288 -0.0114837 -0.0115457 -0.0116149 -0.0116878 -0.0117607 -0.0118338 -0.0119069 -0.0119759 -0.0120365 -0.0120887 -0.0121326 -0.0121641 -0.0121793 -0.0121782 -0.0121607 -0.0121241 -0.0120655 -0.0119848 -0.011882 -0.0117561 -0.0116057 -0.0114309 -0.0112317 -0.0110087 -0.0107626 -0.0104933 -0.0102009 -0.00988762 -0.00955578 -0.00920536 -0.00883636 -0.00845227 -0.00805657 -0.00764928 -0.00723037 -0.00680408 -0.00637462 -0.00594198 -0.00550617 -0.00507177 -0.00464336 -0.00422095 -0.00380452 -0.00339885 -0.0030087 -0.00263407 -0.00227496 -0.00193601 -0.00162187 -0.00133253 -0.001068 -0.000829768 -0.000619337 -0.000436704 -0.00028187 -0.000158552 -7.04675e-05 -1.76169e-05 0 0 -2.22181e-05 -8.88724e-05 -0.000199963 -0.00035549 -0.000549844 -0.000777417 -0.00103821 -0.00133222 -0.00165726 -0.00201114 -0.00239386 -0.00280541 -0.00323992 -0.00369149 -0.00416012 -0.00464581 -0.00514262 -0.0056446 -0.00615177 -0.00666411 -0.00717598 -0.00768177 -0.00818145 -0.00867504 -0.00915746 -0.00962363 -0.0100736 -0.0105072 -0.0109206 -0.0113096 -0.0116742 -0.0120145 -0.0123279 -0.012612 -0.0128667 -0.0130922 -0.0132879 -0.0134535 -0.013589 -0.0136943 -0.0137715 -0.0138222 -0.0138466 -0.0138446 -0.0138202 -0.0137771 -0.0137155 -0.0136352 -0.0135416 -0.0134397 -0.0133296 -0.0132112 -0.01309 -0.0129714 -0.0128553 -0.0127418 -0.0126353 -0.0125402 -0.0124566 -0.0123844 -0.0123261 -0.0122843 -0.0122588 -0.0122498 -0.012257 -0.0122806 -0.0123205 -0.0123767 -0.0124467 -0.0125278 -0.0126201 -0.0127236 -0.0128338 -0.0129462 -0.0130609 -0.0131778 -0.0132915 -0.0133967 -0.0134933 -0.0135814 -0.0136558 -0.0137115 -0.0137484 -0.0137666 -0.0137622 -0.0137316 -0.0136746 -0.0135913 -0.01348 -0.0133388 -0.0131679 -0.0129671 -0.0127371 -0.0124782 -0.0121906 -0.0118742 -0.0115316 -0.0111653 -0.0107753 -0.0103617 -0.00992842 -0.00947969 -0.00901546 -0.00853573 -0.00804553 -0.00754992 -0.00704888 -0.00654241 -0.00603606 -0.00553536 -0.0050403 -0.00455088 -0.0040729 -0.00361211 -0.00316853 -0.00274216 -0.00233866 -0.00196372 -0.00161733 -0.00129949 -0.00101224 -0.000757609 -0.000535591 -0.000346189 -0.000194731 -8.65472e-05 -2.16368e-05 0 0 -2.67171e-05 -0.000106868 -0.000240454 -0.000427474 -0.000660338 -0.000931456 -0.00124083 -0.00158846 -0.00197146 -0.00238695 -0.00283493 -0.00331541 -0.0038213 -0.00434552 -0.00488808 -0.00544897 -0.00602111 -0.00659741 -0.00717788 -0.00776252 -0.00834465 -0.00891757 -0.00948129 -0.0100358 -0.0105752 -0.0110935 -0.0115906 -0.0120667 -0.012517 -0.0129369 -0.0133263 -0.0136854 -0.0140113 -0.0143014 -0.0145557 -0.0147742 -0.0149568 -0.0151033 -0.0152137 -0.015288 -0.0153289 -0.0153389 -0.015318 -0.0152662 -0.0151886 -0.0150902 -0.0149709 -0.0148308 -0.0146763 -0.0145141 -0.0143442 -0.0141664 -0.0139876 -0.0138145 -0.0136471 -0.0134854 -0.0133349 -0.0132011 -0.013084 -0.0129836 -0.0129029 -0.0128452 -0.0128102 -0.0127981 -0.0128088 -0.0128422 -0.0128984 -0.0129772 -0.0130756 -0.0131904 -0.0133215 -0.0134691 -0.0136274 -0.013791 -0.0139599 -0.0141341 -0.0143067 -0.0144712 -0.0146275 -0.0147757 -0.0149092 -0.0150216 -0.015113 -0.0151833 -0.0152276 -0.0152411 -0.0152238 -0.0151756 -0.0150941 -0.0149769 -0.0148239 -0.0146351 -0.0144109 -0.0141516 -0.013857 -0.0135272 -0.0131651 -0.0127733 -0.0123519 -0.0119009 -0.011425 -0.0109289 -0.0104125 -0.00987591 -0.00932502 -0.00876573 -0.00819804 -0.00762195 -0.00704403 -0.00647085 -0.00590241 -0.0053387 -0.00478662 -0.00425307 -0.00373803 -0.00324152 -0.00277037 -0.00233139 -0.00192461 -0.00155 -0.00121027 -0.00090811 -0.000643515 -0.000416488 -0.000234274 -0.000104122 -2.60305e-05 0 0 -3.15963e-05 -0.000126385 -0.000284367 -0.000505541 -0.000780023 -0.00109793 -0.00145926 -0.00186401 -0.00230849 -0.00278899 -0.00330552 -0.00385806 -0.00443824 -0.00503764 -0.00565627 -0.00629413 -0.00694289 -0.00759424 -0.00824818 -0.00890469 -0.00955598 -0.0101942 -0.0108194 -0.0114316 -0.0120239 -0.0125893 -0.013128 -0.0136399 -0.0141197 -0.0145622 -0.0149673 -0.0153352 -0.0156628 -0.0159475 -0.016189 -0.0163876 -0.0165433 -0.0166565 -0.016727 -0.0167549 -0.0167438 -0.016697 -0.0166146 -0.0164965 -0.0163492 -0.016179 -0.0159858 -0.0157697 -0.0155387 -0.0153009 -0.0150563 -0.014805 -0.0145552 -0.0143151 -0.0140848 -0.0138642 -0.0136601 -0.0134791 -0.0133214 -0.0131868 -0.0130792 -0.0130022 -0.0129558 -0.0129401 -0.012955 -0.0130004 -0.0130762 -0.0131826 -0.0133156 -0.0134714 -0.0136499 -0.0138513 -0.0140686 -0.0142951 -0.0145308 -0.0147758 -0.0150216 -0.0152602 -0.0154915 -0.0157155 -0.0159243 -0.0161097 -0.0162719 -0.0164108 -0.0165202 -0.0165941 -0.0166323 -0.0166348 -0.0165984 -0.0165198 -0.0163989 -0.0162358 -0.0160303 -0.0157826 -0.0154924 -0.0151599 -0.0147881 -0.0143798 -0.0139352 -0.0134541 -0.012942 -0.0124041 -0.0118404 -0.0112509 -0.0106425 -0.010022 -0.00938947 -0.00874479 -0.00809569 -0.00744985 -0.00680728 -0.00616797 -0.00554003 -0.00493156 -0.00434257 -0.00377306 -0.00323113 -0.0027249 -0.00225437 -0.00181952 -0.00142386 -0.00107084 -0.000760477 -0.000492767 -0.000277182 -0.000123192 -3.0798e-05 0 0 -3.67703e-05 -0.000147081 -0.000330933 -0.000588325 -0.0009068 -0.0012739 -0.00168962 -0.00215397 -0.00266227 -0.00320987 -0.00379675 -0.00442292 -0.00507853 -0.00575372 -0.00644849 -0.00716284 -0.00788711 -0.00861161 -0.00933635 -0.0100613 -0.0107775 -0.0114759 -0.0121566 -0.0128194 -0.0134565 -0.0140602 -0.0146304 -0.0151671 -0.0156644 -0.0161166 -0.0165235 -0.0168852 -0.0171987 -0.0174611 -0.0176724 -0.0178326 -0.0179423 -0.0180024 -0.0180128 -0.0179735 -0.017889 -0.017764 -0.0175985 -0.0173923 -0.0171536 -0.01689 -0.0166017 -0.0162885 -0.0159605 -0.0156275 -0.0152894 -0.0149464 -0.0146083 -0.0142852 -0.0139772 -0.0136841 -0.0134142 -0.0131755 -0.012968 -0.0127917 -0.0126511 -0.0125507 -0.0124905 -0.0124704 -0.0124905 -0.0125506 -0.0126506 -0.0127907 -0.0129661 -0.0131723 -0.0134091 -0.0136767 -0.0139668 -0.0142712 -0.0145899 -0.014923 -0.0152604 -0.0155921 -0.0159182 -0.0162386 -0.0165435 -0.0168233 -0.0170778 -0.0173071 -0.0175034 -0.0176591 -0.0177742 -0.0178487 -0.0178781 -0.0178583 -0.017789 -0.0176705 -0.017502 -0.0172832 -0.0170141 -0.0166946 -0.0163278 -0.0159169 -0.0154618 -0.0149625 -0.0144249 -0.0138551 -0.0132529 -0.0126184 -0.0119594 -0.0112837 -0.0105913 -0.0098822 -0.00916525 -0.00844934 -0.00773446 -0.00702063 -0.00631727 -0.00563381 -0.00497024 -0.00432657 -0.00371232 -0.00313702 -0.00260066 -0.00210326 -0.00164921 -0.00124294 -0.000884434 -0.0005737 -0.000322706 -0.000143425 -3.58562e-05 0 0 -4.21539e-05 -0.000168616 -0.000379386 -0.000674463 -0.00103857 -0.00145643 -0.00192804 -0.0024534 -0.00302671 -0.00364217 -0.00429978 -0.00499953 -0.00572998 -0.00647965 -0.00724854 -0.00803666 -0.00883287 -0.00962602 -0.0104161 -0.0112032 -0.0119769 -0.0127269 -0.0134533 -0.014156 -0.0148262 -0.015455 -0.0160425 -0.0165886 -0.017087 -0.017531 -0.0179209 -0.0182565 -0.0185349 -0.0187532 -0.0189114 -0.0190094 -0.0190487 -0.0190305 -0.018955 -0.0188221 -0.0186376 -0.0184075 -0.0181318 -0.0178105 -0.0174532 -0.0170697 -0.0166599 -0.016224 -0.0157738 -0.0153214 -0.0148666 -0.0144096 -0.0139623 -0.0135368 -0.0131331 -0.0127511 -0.0124005 -0.0120911 -0.0118228 -0.0115956 -0.0114149 -0.0112861 -0.011209 -0.0111838 -0.0112103 -0.0112884 -0.0114181 -0.0115994 -0.0118267 -0.0120946 -0.012403 -0.0127519 -0.0131315 -0.013532 -0.0139535 -0.0143959 -0.0148472 -0.0152954 -0.0157405 -0.0161825 -0.0166096 -0.0170099 -0.0173833 -0.01773 -0.0180404 -0.018305 -0.0185237 -0.0186967 -0.0188183 -0.0188828 -0.0188902 -0.0188406 -0.0187328 -0.0185657 -0.0183392 -0.0180534 -0.0177115 -0.0173165 -0.0168684 -0.0163672 -0.0158195 -0.0152317 -0.014604 -0.0139361 -0.0132371 -0.0125156 -0.0117718 -0.0110055 -0.0102269 -0.00944629 -0.00866353 -0.00787865 -0.00710252 -0.00634601 -0.00560912 -0.00489184 -0.00420528 -0.00356052 -0.00295756 -0.00239641 -0.00188257 -0.00142155 -0.00101334 -0.000657957 -0.000370101 -0.000164489 -4.11223e-05 0 0 -4.77471e-05 -0.000190989 -0.000429724 -0.000763954 -0.00117533 -0.00164552 -0.0021745 -0.00276229 -0.00340179 -0.00408589 -0.0048146 -0.00558791 -0.00639259 -0.00721544 -0.00805644 -0.00891559 -0.00978018 -0.0106375 -0.0114875 -0.0123303 -0.013154 -0.0139472 -0.0147097 -0.0154416 -0.0161329 -0.0167739 -0.0173644 -0.0179045 -0.0183873 -0.0188056 -0.0191596 -0.0194492 -0.0196716 -0.0198239 -0.019906 -0.0199181 -0.0198624 -0.0197409 -0.0195537 -0.0193008 -0.0189896 -0.0186275 -0.0182146 -0.0177509 -0.017248 -0.016718 -0.0161606 -0.0155761 -0.0149786 -0.0143826 -0.013788 -0.0131948 -0.0126173 -0.0120699 -0.0115524 -0.011065 -0.010619 -0.010226 -0.00988587 -0.00959868 -0.00937073 -0.00920835 -0.00911152 -0.00908025 -0.0091144 -0.00921384 -0.00937857 -0.00960859 -0.00989735 -0.0102383 -0.0106314 -0.0110767 -0.0115627 -0.0120776 -0.0126215 -0.0131944 -0.013782 -0.01437 -0.0149584 -0.0155473 -0.0161224 -0.0166695 -0.0171886 -0.0176796 -0.0181312 -0.0185316 -0.0188809 -0.019179 -0.0194189 -0.0195934 -0.0197025 -0.0197462 -0.0197226 -0.0196298 -0.0194677 -0.0192365 -0.0189391 -0.0185786 -0.018155 -0.0176683 -0.0171256 -0.016534 -0.0158935 -0.015204 -0.0144755 -0.0137178 -0.0129308 -0.0121146 -0.0112808 -0.0104407 -0.00959447 -0.00874201 -0.00789577 -0.00706817 -0.00625921 -0.00546888 -0.00471001 -0.0039954 -0.00332506 -0.00269898 -0.00212392 -0.00160667 -0.00114721 -0.00074554 -0.000419366 -0.000186385 -4.65963e-05 0 0 -5.35499e-05 -0.0002142 -0.000481949 -0.000856798 -0.00131709 -0.00184116 -0.00242902 -0.00308066 -0.00378752 -0.00454104 -0.00534121 -0.00618803 -0.00706637 -0.00796108 -0.00887217 -0.00979962 -0.010729 -0.011646 -0.0125505 -0.0134425 -0.014309 -0.0151367 -0.0159257 -0.016676 -0.0173767 -0.0180167 -0.018596 -0.0191148 -0.0195654 -0.0199403 -0.0202396 -0.0204633 -0.0206086 -0.020673 -0.0206564 -0.0205588 -0.0203834 -0.0201334 -0.0198087 -0.0194095 -0.0189449 -0.018424 -0.0178469 -0.0172136 -0.0165382 -0.0158349 -0.0151038 -0.0143448 -0.0135749 -0.0128111 -0.0120534 -0.0113019 -0.0105733 -0.00988442 -0.00923529 -0.00862592 -0.00806972 -0.00758014 -0.00715717 -0.00680082 -0.00651847 -0.00631751 -0.00619794 -0.00615976 -0.00620281 -0.00632692 -0.00653211 -0.00681836 -0.00717801 -0.0076034 -0.00809452 -0.00865138 -0.00926037 -0.00990789 -0.0105939 -0.0113185 -0.0120648 -0.012816 -0.013572 -0.014333 -0.0150819 -0.0158021 -0.0164935 -0.017156 -0.0177758 -0.018339 -0.0188456 -0.0192955 -0.0196799 -0.01999 -0.0202258 -0.0203872 -0.0204715 -0.0204756 -0.0203997 -0.0202437 -0.0200106 -0.0197032 -0.0193216 -0.0188657 -0.0183433 -0.0177619 -0.0171214 -0.016422 -0.0156746 -0.0148901 -0.0140684 -0.0132097 -0.0123268 -0.0114326 -0.0105273 -0.00961072 -0.00869703 -0.00780029 -0.00692052 -0.0060577 -0.00522652 -0.00444167 -0.00370315 -0.00301096 -0.00237328 -0.0017983 -0.00128602 -0.000836448 -0.000470502 -0.000209112 -5.2278e-05 0 0 -5.94738e-05 -0.000237895 -0.000535264 -0.000951581 -0.00146167 -0.00204034 -0.0026876 -0.00340346 -0.0041777 -0.00500014 -0.00587078 -0.0067896 -0.00773941 -0.00870297 -0.0096803 -0.0106714 -0.01166 -0.0126299 -0.0135811 -0.0145136 -0.0154127 -0.0162638 -0.0170668 -0.0178218 -0.0185167 -0.0191395 -0.01969 -0.0201684 -0.0205667 -0.0208767 -0.0210987 -0.0212324 -0.0212757 -0.021226 -0.0210835 -0.020848 -0.0205241 -0.0201159 -0.0196237 -0.0190473 -0.0183979 -0.0176869 -0.0169141 -0.0160796 -0.0152003 -0.014293 -0.0133576 -0.0123943 -0.011423 -0.0104636 -0.00951621 -0.00858073 -0.00767683 -0.00682414 -0.00602266 -0.0052724 -0.00458898 -0.00398804 -0.00346957 -0.00303357 -0.00268862 -0.0024433 -0.0022976 -0.00225153 -0.00230489 -0.00245751 -0.00270936 -0.00306047 -0.00350191 -0.00402479 -0.0046291 -0.00531484 -0.00606618 -0.0068673 -0.00771818 -0.00861884 -0.00954961 -0.0104908 -0.0114425 -0.0124047 -0.0133575 -0.0142812 -0.0151757 -0.016041 -0.0168607 -0.0176181 -0.0183132 -0.0189461 -0.0195058 -0.0199816 -0.0203735 -0.0206814 -0.0209014 -0.0210294 -0.0210655 -0.0210097 -0.0208646 -0.0206328 -0.0203144 -0.0199094 -0.0194258 -0.018872 -0.0182478 -0.0175533 -0.0168005 -0.0160015 -0.0151562 -0.0142647 -0.0133414 -0.0124008 -0.0114429 -0.0104677 -0.00949116 -0.00852904 -0.00758137 -0.00664817 -0.00574615 -0.00489202 -0.00408577 -0.00332742 -0.00262673 -0.00199348 -0.00142767 -0.0009293 -0.000522731 -0.000232325 -5.80812e-05 0 0 -6.54305e-05 -0.000261722 -0.000588874 -0.00104689 -0.00160689 -0.00224002 -0.00294627 -0.00372564 -0.00456613 -0.00545573 -0.00639445 -0.00738229 -0.00839979 -0.0094275 -0.0104654 -0.0115135 -0.0125537 -0.0135677 -0.0145555 -0.0155171 -0.0164363 -0.0172967 -0.0180984 -0.0188414 -0.0195124 -0.0200982 -0.0205989 -0.0210145 -0.0213365 -0.0215565 -0.0216744 -0.0216903 -0.0216022 -0.0214083 -0.0211084 -0.0207026 -0.0201967 -0.0195965 -0.0189018 -0.0181129 -0.0172431 -0.016306 -0.0153017 -0.0142301 -0.0131111 -0.0119646 -0.0107906 -0.00958917 -0.00838349 -0.00719692 -0.00602944 -0.00488108 -0.00377459 -0.00273274 -0.00175555 -0.000843012 -1.3188e-05 0.000715849 0.0013441 0.00187157 0.00228835 0.00258456 0.0027602 0.00281526 0.00274997 0.00256454 0.00225899 0.00183331 0.00129777 0.000662676 -7.19854e-05 -0.000906212 -0.00182169 -0.00280012 -0.0038415 -0.00494583 -0.0060903 -0.0072521 -0.00843123 -0.00962769 -0.0108184 -0.0119801 -0.0131129 -0.0142168 -0.0152723 -0.0162597 -0.0171792 -0.0180306 -0.0188009 -0.019477 -0.0200588 -0.0205464 -0.0209344 -0.0212175 -0.0213957 -0.0214689 -0.0214395 -0.0213097 -0.0210795 -0.0207489 -0.0203266 -0.0198211 -0.0192325 -0.0185608 -0.0178191 -0.0170207 -0.0161655 -0.0152537 -0.0143011 -0.013324 -0.0123223 -0.0112961 -0.010263 -0.00924106 -0.00823012 -0.00723022 -0.00626025 -0.00533913 -0.00446686 -0.00364343 -0.00288038 -0.00218925 -0.00157002 -0.00102271 -0.000575276 -0.000255678 -6.39195e-05 0 0 -7.14199e-05 -0.00028568 -0.000642779 -0.00114272 -0.00175277 -0.0024402 -0.00320501 -0.0040472 -0.00495279 -0.0059078 -0.00691224 -0.0079661 -0.00904752 -0.0101347 -0.0112275 -0.0123261 -0.0134101 -0.0144592 -0.0154735 -0.016453 -0.0173797 -0.0182355 -0.0190205 -0.0197346 -0.0203636 -0.020893 -0.0213228 -0.021653 -0.0218749 -0.0219795 -0.0219668 -0.0218369 -0.0215883 -0.0212198 -0.0207312 -0.0201226 -0.0194014 -0.0185749 -0.0176432 -0.0166063 -0.0154803 -0.0142815 -0.0130097 -0.011665 -0.0102706 -0.0088499 -0.00740276 -0.00592923 -0.00445628 -0.00301092 -0.00159314 -0.000202944 0.00113344 0.00238976 0.00356603 0.00466225 0.00565766 0.00653152 0.00728383 0.00791458 0.00841244 0.00876606 0.00897545 0.0090406 0.00896177 0.00873922 0.00837295 0.00786296 0.00722104 0.00645899 0.00557681 0.0045745 0.00347309 0.00229362 0.00103609 -0.000299505 -0.00168688 -0.00309974 -0.00453809 -0.00600192 -0.00746445 -0.00889887 -0.0103052 -0.0116834 -0.0130106 -0.0142639 -0.0154434 -0.0165491 -0.0175652 -0.0184761 -0.0192818 -0.0199822 -0.0205706 -0.0210399 -0.0213902 -0.0216214 -0.0217354 -0.0217339 -0.0216169 -0.0213844 -0.0210455 -0.0206092 -0.0200755 -0.0194445 -0.0187304 -0.0179478 -0.0170965 -0.0161767 -0.015206 -0.0142022 -0.0131655 -0.0120957 -0.0110127 -0.00993638 -0.00886676 -0.00780382 -0.00676882 -0.00578302 -0.00484641 -0.003959 -0.00313424 -0.00238561 -0.00171309 -0.00111669 -0.000628136 -0.000279171 -6.97929e-05 0 0 -7.74421e-05 -0.000309768 -0.000696979 -0.00123907 -0.00189929 -0.00264088 -0.00346383 -0.00436814 -0.0053377 -0.00635636 -0.00742414 -0.00854102 -0.0096826 -0.0108244 -0.0119666 -0.0131089 -0.0142291 -0.0153046 -0.0163353 -0.0173214 -0.0182429 -0.0190801 -0.019833 -0.0205016 -0.0210704 -0.0215237 -0.0218616 -0.022084 -0.0221818 -0.0221458 -0.0219759 -0.0216722 -0.021234 -0.0206605 -0.0199519 -0.0191079 -0.018138 -0.0170514 -0.0158479 -0.0145277 -0.0131098 -0.0116132 -0.0100381 -0.0083843 -0.00667888 -0.00494878 -0.00319399 -0.00141452 0.000358607 0.00209435 0.0037927 0.00545367 0.00704724 0.00854338 0.00994209 0.0112434 0.0124236 0.013459 0.0143496 0.0150955 0.0156837 0.0161012 0.0163482 0.0164245 0.0163305 0.0160665 0.0156325 0.0150285 0.0142679 0.0133642 0.0123173 0.0111273 0.00981818 0.00841395 0.0069146 0.00532014 0.00366065 0.00196623 0.000236874 -0.00152742 -0.00329581 -0.00503748 -0.00675242 -0.00844063 -0.0100756 -0.0116307 -0.013106 -0.0145015 -0.0157987 -0.016979 -0.0180423 -0.0189888 -0.0198098 -0.0204965 -0.021049 -0.0214672 -0.0217523 -0.0219055 -0.0219267 -0.0218159 -0.0215826 -0.0212362 -0.0207768