<?xml version="1.0"?> 
<VTKFile type="StructuredGrid" version="0.1"> 
<StructuredGrid WholeExtent="0 128 0 128 0 0"> 
<Piece Extent="0 128 0 128 0 0"> 
<PointData>
<DataArray type="Float32" Name="u" format="ascii" NumberOfComponents="1"> 
0 0 0 0 0 0 0 0 0 0 0 0 0 0 0 0 0 0 0 0 0 0 0 0 0 0 0 0 0 0 0 0 0 0 0 0 0 0 0 0 0 0 0 0 0 0 0 0 0 0 0 0 0 0 0 0 0 0 0 0 0 0 0 0 0 0 0 0 0 0 0 0 0 0 0 0 0 0 0 0 0 0 0 0 0 0 0 0 0 0 0 0 0 0 0 0 0 0 0 0 0 0 0 0 0 0 0 0 0 0 0 0 0 0 0 0 0 0 0 0 0 0 0 0 0 0 0 0 0 0 -2.10048e-07 -8.40193e-07 -1.89043e-06 -3.36077e-06 -5.25664e-06 -7.58348e-06 -1.03413e-05 -1.35301e-05 -1.71424e-05 -2.11709e-05 -2.56155e-05 -3.04762e-05 -3.56934e-05 -4.12075e-05 -4.70186e-05 -5.31266e-05 -5.94676e-05 -6.5978e-05 -7.26577e-05 -7.95067e-05 -8.64616e-05 -9.34591e-05 -0.000100499 -0.000107582 -0.000114646 -0.000121629 -0.000128532 -0.000135354 -0.000142041 -0.000148536 -0.000154839 -0.000160951 -0.000166829 -0.000172431 -0.000177756 -0.000182805 -0.000187555 -0.000191982 -0.000196087 -0.00019987 -0.000203331 -0.000206472 -0.000209291 -0.00021179 -0.00021399 -0.000215916 -0.000217567 -0.000218943 -0.000220084 -0.000221028 -0.000221776 -0.000222328 -0.000222728 -0.000223022 -0.000223209 -0.00022329 -0.000223303 -0.000223287 -0.000223243 -0.00022317 -0.000223089 -0.000223025 -0.000222975 -0.000222941 -0.000222922 -0.000222918 -0.000222929 -0.000222954 -0.000222971 -0.000222958 -0.000222914 -0.000222839 -0.000222695 -0.000222441 -0.00022208 -0.00022161 -0.000220987 -0.000220166 -0.000219147 -0.00021793 -0.000216478 -0.000214751 -0.000212749 -0.000210474 -0.000207901 -0.000205011 -0.000201802 -0.000198276 -0.000194431 -0.00019027 -0.000185792 -0.000180997 -0.000175908 -0.000170551 -0.000164925 -0.000159029 -0.000152908 -0.000146603 -0.000140116 -0.000133445 -0.000126647 -0.000119777 -0.000112835 -0.000105821 -9.87955e-05 -9.18198e-05 -8.48938e-05 -7.80175e-05 -7.12529e-05 -6.46618e-05 -5.82445e-05 -5.20007e-05 -4.59924e-05 -4.02814e-05 -3.48675e-05 -2.9751e-05 -2.49887e-05 -2.06377e-05 -1.66982e-05 -1.31699e-05 -1.00588e-05 -7.37053e-06 -5.10507e-06 -3.26244e-06 -1.83512e-06 -8.1561e-07 -2.03902e-07 0 0 -8.40193e-07 -3.36077e-06 -7.56173e-06 -1.34431e-05 -2.10266e-05 -3.03339e-05 -4.13652e-05 -5.41203e-05 -6.85697e-05 -8.46835e-05 -0.000102462 -0.000121905 -0.000142774 -0.00016483 -0.000188074 -0.000212506 -0.000237871 -0.000263912 -0.000290631 -0.000318027 -0.000345846 -0.000373837 -0.000401997 -0.000430328 -0.000458584 -0.000486517 -0.000514128 -0.000541418 -0.000568163 -0.000594143 -0.000619357 -0.000643805 -0.000667318 -0.000689725 -0.000711026 -0.000731221 -0.000750219 -0.000767928 -0.000784348 -0.00079948 -0.000813325 -0.000825887 -0.000837165 -0.000847159 -0.000855961 -0.000863664 -0.000870268 -0.000875773 -0.000880335 -0.000884112 -0.000887104 -0.00088931 -0.000890911 -0.000892086 -0.000892836 -0.000893159 -0.000893212 -0.00089315 -0.000892972 -0.000892678 -0.000892357 -0.000892098 -0.000891901 -0.000891765 -0.00089169 -0.000891673 -0.000891716 -0.000891817 -0.000891886 -0.000891832 -0.000891656 -0.000891356 -0.000890778 -0.000889766 -0.00088832 -0.000886439 -0.000883946 -0.000880662 -0.000876587 -0.000871722 -0.000865911 -0.000859004 -0.000850998 -0.000841894 -0.000831606 -0.000820044 -0.00080721 -0.000793103 -0.000777725 -0.00076108 -0.000743167 -0.000723987 -0.000703634 -0.000682205 -0.000659699 -0.000636117 -0.00061163 -0.000586412 -0.000560462 -0.00053378 -0.000506589 -0.000479109 -0.00045134 -0.000423284 -0.000395182 -0.000367279 -0.000339575 -0.00031207 -0.000285011 -0.000258647 -0.000232978 -0.000208003 -0.00018397 -0.000161125 -0.00013947 -0.000119004 -9.99546e-05 -8.25509e-05 -6.67926e-05 -5.26798e-05 -4.02353e-05 -2.94821e-05 -2.04203e-05 -1.30498e-05 -7.34049e-06 -3.26244e-06 -8.1561e-07 0 0 -1.89043e-06 -7.56173e-06 -1.70139e-05 -3.02469e-05 -4.73098e-05 -6.82514e-05 -9.30717e-05 -0.000121771 -0.000154282 -0.000190538 -0.000230539 -0.000274286 -0.000321241 -0.000370868 -0.000423167 -0.000478139 -0.000535209 -0.000593802 -0.000653919 -0.00071556 -0.000778154 -0.000841132 -0.000904494 -0.000968239 -0.00103181 -0.00109466 -0.00115679 -0.00121819 -0.00127837 -0.00133682 -0.00139355 -0.00144856 -0.00150147 -0.00155188 -0.00159981 -0.00164525 -0.00168799 -0.00172784 -0.00176478 -0.00179883 -0.00182998 -0.00185825 -0.00188362 -0.00190611 -0.00192591 -0.00194324 -0.0019581 -0.00197049 -0.00198075 -0.00198925 -0.00199598 -0.00200095 -0.00200455 -0.00200719 -0.00200888 -0.00200961 -0.00200973 -0.00200959 -0.00200919 -0.00200853 -0.0020078 -0.00200722 -0.00200678 -0.00200647 -0.0020063 -0.00200626 -0.00200636 -0.00200659 -0.00200674 -0.00200662 -0.00200623 -0.00200555 -0.00200425 -0.00200197 -0.00199872 -0.00199449 -0.00198888 -0.00198149 -0.00197232 -0.00196137 -0.0019483 -0.00193276 -0.00191475 -0.00189426 -0.00187111 -0.0018451 -0.00181622 -0.00178448 -0.00174988 -0.00171243 -0.00167213 -0.00162897 -0.00158318 -0.00153496 -0.00148432 -0.00143126 -0.00137617 -0.00131943 -0.00126104 -0.00120101 -0.00113982 -0.00107799 -0.00101552 -0.000952388 -0.00088916 -0.000826379 -0.000764045 -0.000702158 -0.000641276 -0.000581957 -0.0005242 -0.000468007 -0.000413932 -0.000362532 -0.000313808 -0.000267759 -0.000224898 -0.00018574 -0.000150283 -0.000118529 -9.05294e-05 -6.63348e-05 -4.59457e-05 -2.9362e-05 -1.65161e-05 -7.34049e-06 -1.83512e-06 0 0 -3.36077e-06 -1.34431e-05 -3.02469e-05 -5.37723e-05 -8.41063e-05 -0.000121336 -0.000165461 -0.000216481 -0.000274279 -0.000338734 -0.000409847 -0.000487619 -0.000571094 -0.000659321 -0.000752298 -0.000850025 -0.000951482 -0.00105565 -0.00116252 -0.00127211 -0.00138339 -0.00149535 -0.00160799 -0.00172131 -0.00183433 -0.00194607 -0.00205651 -0.00216567 -0.00227265 -0.00237657 -0.00247743 -0.00257522 -0.00266927 -0.0027589 -0.0028441 -0.00292488 -0.00300087 -0.00307171 -0.00313739 -0.00319792 -0.0032533 -0.00330355 -0.00334866 -0.00338863 -0.00342384 -0.00345466 -0.00348107 -0.00350309 -0.00352134 -0.00353645 -0.00354842 -0.00355724 -0.00356364 -0.00356834 -0.00357134 -0.00357264 -0.00357285 -0.0035726 -0.00357189 -0.00357071 -0.00356943 -0.00356839 -0.0035676 -0.00356706 -0.00356676 -0.00356669 -0.00356686 -0.00356727 -0.00356754 -0.00356733 -0.00356662 -0.00356542 -0.00356311 -0.00355906 -0.00355328 -0.00354576 -0.00353578 -0.00352265 -0.00350635 -0.00348689 -0.00346365 -0.00343601 -0.00340399 -0.00336758 -0.00332642 -0.00328018 -0.00322884 -0.00317241 -0.0031109 -0.00304432 -0.00297267 -0.00289595 -0.00281454 -0.00272882 -0.0026388 -0.00254447 -0.00244652 -0.00234565 -0.00224185 -0.00213512 -0.00202635 -0.00191643 -0.00180536 -0.00169313 -0.00158073 -0.00146912 -0.0013583 -0.00124828 -0.00114005 -0.00103459 -0.000931911 -0.000832012 -0.000735879 -0.000644502 -0.000557881 -0.000476015 -0.000399819 -0.000330204 -0.00026717 -0.000210719 -0.000160941 -0.000117929 -8.16812e-05 -5.2199e-05 -2.9362e-05 -1.30498e-05 -3.26244e-06 0 0 -5.25267e-06 -2.10107e-05 -4.72741e-05 -8.40428e-05 -0.000131309 -0.000189065 -0.000257311 -0.000336046 -0.000425063 -0.000524153 -0.000633316 -0.000752552 -0.000880389 -0.00101535 -0.00115745 -0.00130667 -0.00146145 -0.00162021 -0.00178295 -0.00194968 -0.00211882 -0.00228883 -0.0024597 -0.00263143 -0.00280251 -0.00297144 -0.0031382 -0.00330281 -0.00346391 -0.00362014 -0.00377152 -0.00391804 -0.00405867 -0.0041924 -0.00431922 -0.00443913 -0.0045516 -0.00465611 -0.00475264 -0.0048412 -0.00492184 -0.00499462 -0.00505952 -0.00511656 -0.00516633 -0.00520945 -0.00524591 -0.00527572 -0.00529987 -0.00531936 -0.0053342 -0.00534439 -0.00535106 -0.00535536 -0.00535727 -0.0053568 -0.00535493 -0.00535264 -0.00534992 -0.00534677 -0.00534375 -0.00534141 -0.00533977 -0.00533881 -0.00533853 -0.00533892 -0.00533997 -0.0053417 -0.00534352 -0.00534487 -0.00534575 -0.00534615 -0.0053451 -0.00534161 -0.00533569 -0.00532734 -0.00531542 -0.00529882 -0.00527752 -0.00525153 -0.00521986 -0.00518155 -0.00513658 -0.00508497 -0.00502612 -0.00495947 -0.00488502 -0.00480276 -0.00471268 -0.00461475 -0.00450898 -0.00439537 -0.00427447 -0.00414684 -0.00401248 -0.00387139 -0.00372461 -0.00357318 -0.00341709 -0.00325635 -0.00309231 -0.00292632 -0.00275838 -0.00258848 -0.00241813 -0.00224882 -0.00208053 -0.00191329 -0.00174861 -0.00158802 -0.00143152 -0.00127911 -0.00113231 -0.00099265 -0.000860131 -0.00073475 -0.000617918 -0.000511045 -0.000414131 -0.000327176 -0.000250347 -0.000183809 -0.000127565 -8.16123e-05 -4.59069e-05 -2.04031e-05 -5.10077e-06 0 0 -7.56761e-06 -3.02704e-05 -6.81085e-05 -0.000121082 -0.000188811 -0.000270917 -0.0003674 -0.000478259 -0.000603137 -0.000741675 -0.000893873 -0.00105973 -0.00123718 -0.00142414 -0.00162061 -0.00182659 -0.00203988 -0.00225825 -0.00248172 -0.00271029 -0.00294175 -0.00317394 -0.00340685 -0.00364047 -0.00387271 -0.00410148 -0.00432676 -0.00454856 -0.00476502 -0.00497429 -0.00517638 -0.00537127 -0.0055576 -0.00573399 -0.00590046 -0.00605698 -0.00620291 -0.00633757 -0.00646098 -0.00657312 -0.00667416 -0.00676427 -0.00684345 -0.00691169 -0.00696996 -0.00701918 -0.00705936 -0.0070905 -0.0071141 -0.00713165 -0.00714315 -0.0071486 -0.00714967 -0.00714804 -0.00714371 -0.00713666 -0.00712834 -0.00712016 -0.00711212 -0.00710422 -0.00709727 -0.00709208 -0.00708866 -0.00708699 -0.00708707 -0.00708889 -0.00709244 -0.00709773 -0.00710391 -0.00711017 -0.0071165 -0.00712291 -0.00712795 -0.0071302 -0.00712966 -0.00712634 -0.00711856 -0.00710467 -0.00708467 -0.00705856 -0.00702487 -0.00698214 -0.00693037 -0.00686956 -0.0067988 -0.00671719 -0.00662472 -0.00652141 -0.00640712 -0.00628174 -0.00614526 -0.00599769 -0.00583973 -0.00567207 -0.00549473 -0.00530769 -0.00511236 -0.00491012 -0.00470097 -0.00448493 -0.00426383 -0.00403955 -0.00381207 -0.0035814 -0.00334961 -0.00311879 -0.00288893 -0.00266004 -0.00243425 -0.00221371 -0.00199842 -0.00178837 -0.00158572 -0.00139259 -0.001209 -0.00103494 -0.000872398 -0.000723366 -0.000587843 -0.000465828 -0.000357621 -0.000263523 -0.000183534 -0.000117653 -6.61799e-05 -2.94133e-05 -7.35332e-06 0 0 -1.03056e-05 -4.12223e-05 -9.27502e-05 -0.000164889 -0.000256612 -0.000366892 -0.000495727 -0.00064312 -0.0008085 -0.000991301 -0.00119152 -0.00140916 -0.00164146 -0.00188566 -0.00214177 -0.00240978 -0.00268676 -0.00296977 -0.00325883 -0.00355393 -0.00385217 -0.00415067 -0.00444942 -0.00474843 -0.00504494 -0.00533619 -0.00562218 -0.00590291 -0.00617599 -0.00643902 -0.00669199 -0.00693491 -0.00716605 -0.00738369 -0.00758782 -0.00777844 -0.0079548 -0.00811612 -0.00826241 -0.00839367 -0.00851026 -0.00861251 -0.00870044 -0.00877404 -0.00883471 -0.00888383 -0.00892141 -0.00894744 -0.00896404 -0.00897331 -0.00897525 -0.00896987 -0.00895948 -0.00894641 -0.00893065 -0.00891222 -0.00889306 -0.00887515 -0.00885849 -0.00884306 -0.00883 -0.0088204 -0.00881427 -0.00881161 -0.0088124 -0.00881662 -0.00882427 -0.00883535 -0.00884872 -0.00886323 -0.00887889 -0.00889569 -0.00891166 -0.00892482 -0.00893519 -0.00894274 -0.00894518 -0.00894021 -0.00892781 -0.00890798 -0.00887867 -0.00883779 -0.00878536 -0.00872135 -0.00864445 -0.00855332 -0.00844795 -0.00832835 -0.00819422 -0.00804527 -0.0078815 -0.00770291 -0.00751032 -0.00730453 -0.00708555 -0.00685337 -0.00660976 -0.00635647 -0.00609349 -0.00582084 -0.00554092 -0.00525611 -0.00496643 -0.00467187 -0.00437517 -0.00407904 -0.0037835 -0.00348853 -0.00319698 -0.00291168 -0.00263262 -0.00235982 -0.0020961 -0.00184433 -0.00160449 -0.00137658 -0.00116326 -0.000967167 -0.000788305 -0.000626674 -0.000482766 -0.000357071 -0.000249589 -0.000160322 -9.01809e-05 -4.00804e-05 -1.00201e-05 0 0 -1.34666e-05 -5.38664e-05 -0.000121199 -0.000215465 -0.000334713 -0.000476989 -0.000642294 -0.000830629 -0.00104115 -0.00127303 -0.00152626 -0.00180084 -0.00209324 -0.00239994 -0.00272094 -0.00305623 -0.00340209 -0.00375477 -0.00411428 -0.00448061 -0.00485009 -0.00521903 -0.00558744 -0.00595531 -0.00631918 -0.00667556 -0.00702446 -0.00736587 -0.00769682 -0.00801432 -0.00831837 -0.00860897 -0.00888404 -0.00914148 -0.00938131 -0.00960351 -0.00980726 -0.00999174 -0.0101569 -0.0103029 -0.0104301 -0.0105393 -0.0106305 -0.0107036 -0.0107606 -0.0108034 -0.0108321 -0.0108465 -0.0108497 -0.0108443 -0.0108305 -0.0108082 -0.0107805 -0.0107504 -0.0107181 -0.0106835 -0.0106491 -0.0106176 -0.010589 -0.0105633 -0.0105419 -0.0105264 -0.0105166 -0.0105127 -0.0105145 -0.0105221 -0.0105355 -0.0105546 -0.0105779 -0.010604 -0.0106329 -0.0106645 -0.0106962 -0.0107255 -0.0107523 -0.0107766 -0.0107953 -0.0108054 -0.0108069 -0.0107998 -0.0107813 -0.0107485 -0.0107015 -0.0106403 -0.0105631 -0.0104679 -0.0103547 -0.0102236 -0.010074 -0.00990535 -0.0097177 -0.00951103 -0.00928623 -0.0090442 -0.00878493 -0.00850843 -0.00821681 -0.00791222 -0.00759465 -0.0072641 -0.00692356 -0.00657602 -0.00622147 -0.00585992 -0.0054948 -0.00512957 -0.00476423 -0.00439876 -0.00403679 -0.00368191 -0.00333412 -0.00299344 -0.00266347 -0.00234786 -0.00204659 -0.00175968 -0.0014905 -0.00124245 -0.00101552 -0.000809716 -0.000625779 -0.000464451 -0.00032573 -0.000209617 -0.00011791 -5.24044e-05 -1.31011e-05 0 0 -1.70316e-05 -6.81266e-05 -0.000153285 -0.000272506 -0.00042262 -0.000600453 -0.000806007 -0.00103928 -0.00129907 -0.00158418 -0.00189459 -0.00223032 -0.00258696 -0.00296011 -0.00334978 -0.00375596 -0.00417402 -0.00459932 -0.00503186 -0.00547165 -0.00591413 -0.00635477 -0.00679356 -0.0072305 -0.00766134 -0.00808182 -0.00849194 -0.0088917 -0.00927752 -0.00964581 -0.00999656 -0.0103298 -0.010643 -0.0109339 -0.0112023 -0.0114484 -0.0116713 -0.0118701 -0.0120449 -0.0121956 -0.0123233 -0.0124289 -0.0125125 -0.012574 -0.012616 -0.0126413 -0.0126497 -0.0126414 -0.0126199 -0.0125892 -0.0125492 -0.0124998 -0.0124451 -0.0123891 -0.0123318 -0.0122732 -0.0122167 -0.0121655 -0.0121197 -0.0120793 -0.0120462 -0.0120223 -0.0120074 -0.0120018 -0.0120052 -0.0120178 -0.0120394 -0.0120701 -0.0121079 -0.012151 -0.0121992 -0.0122527 -0.012308 -0.0123618 -0.0124141 -0.0124648 -0.01251 -0.0125457 -0.0125718 -0.0125885 -0.012592 -0.0125786 -0.0125483 -0.0125011 -0.0124346 -0.012346 -0.0122355 -0.0121031 -0.0119477 -0.0117686 -0.0115658 -0.0113393 -0.0110898 -0.0108185 -0.0105252 -0.0102101 -0.00987541 -0.0095238 -0.00915523 -0.00876969 -0.00837078 -0.00796211 -0.00754367 -0.00711547 -0.00668171 -0.00624663 -0.00581021 -0.00537246 -0.00493784 -0.0045108 -0.00409136 -0.00367949 -0.00327972 -0.00289654 -0.00252994 -0.00217994 -0.00185076 -0.00154663 -0.00126755 -0.00101352 -0.000785625 -0.00058495 -0.000411494 -0.000265256 -0.000149207 -6.63141e-05 -1.65785e-05 0 0 -2.09817e-05 -8.3927e-05 -0.000188836 -0.000335708 -0.00051984 -0.000736528 -0.000985773 -0.00126757 -0.00158023 -0.00192205 -0.00229303 -0.00269318 -0.00311708 -0.00355934 -0.00401997 -0.00449895 -0.00499067 -0.00548947 -0.00599537 -0.00650837 -0.00702296 -0.00753365 -0.00804046 -0.00854336 -0.00903729 -0.00951714 -0.00998294 -0.0104347 -0.0108681 -0.0112791 -0.0116676 -0.0120336 -0.0123745 -0.0126874 -0.0129724 -0.0132294 -0.0134578 -0.0136569 -0.0138266 -0.0139669 -0.0140793 -0.0141655 -0.0142253 -0.0142587 -0.0142693 -0.0142607 -0.0142327 -0.0141854 -0.0141237 -0.0140524 -0.0139714 -0.0138809 -0.0137858 -0.0136914 -0.0135975 -0.0135043 -0.013416 -0.0133367 -0.0132666 -0.0132056 -0.013156 -0.0131203 -0.0130985 -0.0130905 -0.0130964 -0.013116 -0.0131494 -0.0131966 -0.013255 -0.0133224 -0.0133986 -0.0134837 -0.0135734 -0.0136634 -0.0137537 -0.0138444 -0.0139303 -0.0140062 -0.0140723 -0.0141286 -0.0141702 -0.0141923 -0.014195 -0.0141783 -0.0141388 -0.014073 -0.013981 -0.0138627 -0.0137168 -0.0135418 -0.0133378 -0.0131048 -0.0128435 -0.0125549 -0.0122389 -0.0118954 -0.0115274 -0.0111376 -0.010726 -0.0102926 -0.00984158 -0.00937723 -0.00889953 -0.00840847 -0.00790909 -0.00740645 -0.00690054 -0.00639136 -0.0058843 -0.00538477 -0.00489275 -0.00440826 -0.00393676 -0.00348373 -0.00304917 -0.00263308 -0.00224067 -0.00187713 -0.00154245 -0.00123665 -0.000961264 -0.000717854 -0.000506417 -0.000326954 -0.000183911 -8.17384e-05 -2.04346e-05 0 0 -2.53169e-05 -0.000101268 -0.000227852 -0.00040507 -0.000626374 -0.000885215 -0.00118159 -0.00151551 -0.00188464 -0.00228666 -0.00272159 -0.0031894 -0.00368359 -0.00419762 -0.0047315 -0.00528521 -0.00585204 -0.00642524 -0.00700481 -0.00759076 -0.00817656 -0.00875569 -0.00932813 -0.0098939 -0.010447 -0.0109815 -0.0114975 -0.0119948 -0.0124686 -0.0129142 -0.0133315 -0.0137206 -0.0140784 -0.014402 -0.0146913 -0.0149465 -0.0151669 -0.015352 -0.0155019 -0.0156166 -0.0156982 -0.015749 -0.0157688 -0.0157578 -0.0157206 -0.0156617 -0.0155811 -0.0154788 -0.015361 -0.0152339 -0.0150973 -0.0149514 -0.0148026 -0.0146572 -0.0145152 -0.0143767 -0.014247 -0.0141313 -0.0140297 -0.013942 -0.0138714 -0.0138206 -0.0137898 -0.013779 -0.013788 -0.0138169 -0.0138655 -0.013934 -0.0140193 -0.0141183 -0.014231 -0.0143575 -0.0144924 -0.0146303 -0.0147713 -0.0149154 -0.0150561 -0.0151872 -0.0153085 -0.01542 -0.0155158 -0.0155897 -0.0156418 -0.0156719 -0.0156758 -0.0156489 -0.0155911 -0.0155026 -0.0153812 -0.0152249 -0.0150337 -0.0148076 -0.0145473 -0.0142533 -0.0139258 -0.0135646 -0.0131729 -0.0127536 -0.012307 -0.0118328 -0.011336 -0.0108214 -0.010289 -0.00973891 -0.00917694 -0.00860904 -0.00803521 -0.00745545 -0.00687618 -0.0063038 -0.00573832 -0.00517972 -0.00463457 -0.00410942 -0.00360427 -0.00311911 -0.00266024 -0.00223395 -0.00184024 -0.0014791 -0.0011527 -0.000863162 -0.0006105 -0.000394709 -0.000222024 -9.86773e-05 -2.46693e-05 0 0 -3.00371e-05 -0.000120148 -0.000270334 -0.000480594 -0.000742222 -0.00104651 -0.00139346 -0.00178308 -0.00221228 -0.002678 -0.00318024 -0.003719 -0.0042865 -0.00487496 -0.00548437 -0.00611474 -0.00675814 -0.00740662 -0.00806019 -0.00871884 -0.00937495 -0.0100209 -0.0106566 -0.0112821 -0.0118906 -0.012475 -0.0130355 -0.013572 -0.014079 -0.0145511 -0.0149883 -0.0153906 -0.0157548 -0.0160777 -0.0163593 -0.0165996 -0.0167985 -0.0169556 -0.0170711 -0.0171448 -0.0171799 -0.0171794 -0.0171432 -0.0170713 -0.0169697 -0.0168442 -0.0166948 -0.0165214 -0.0163318 -0.0161336 -0.0159268 -0.0157115 -0.0154954 -0.0152865 -0.0150849 -0.0148905 -0.0147098 -0.0145492 -0.0144089 -0.0142886 -0.0141922 -0.0141231 -0.0140814 -0.0140671 -0.0140801 -0.0141203 -0.0141878 -0.0142825 -0.0144007 -0.0145387 -0.0146965 -0.0148741 -0.0150649 -0.0152625 -0.0154668 -0.0156778 -0.0158876 -0.0160884 -0.0162802 -0.0164628 -0.0166289 -0.0167708 -0.0168884 -0.0169819 -0.0170455 -0.0170735 -0.0170659 -0.0170226 -0.0169409 -0.0168178 -0.0166535 -0.0164477 -0.0162011 -0.0159138 -0.0155859 -0.0152175 -0.0148117 -0.0143719 -0.0138981 -0.0133903 -0.0128539 -0.0122946 -0.0117122 -0.0111068 -0.0104853 -0.0098544 -0.00921423 -0.00856475 -0.00791347 -0.0072679 -0.00662804 -0.00599389 -0.00537318 -0.00477363 -0.00419524 -0.00363801 -0.00310946 -0.00261709 -0.0021609 -0.00174089 -0.00135992 -0.00102088 -0.000723742 -0.000468523 -0.000263544 -0.000117131 -2.92827e-05 0 0 -3.50643e-05 -0.000140257 -0.000315578 -0.000561028 -0.000865457 -0.00121772 -0.00161781 -0.00206573 -0.00255751 -0.00308918 -0.00366073 -0.00427216 -0.00491431 -0.00557799 -0.0062632 -0.00696995 -0.00768899 -0.00841106 -0.00913616 -0.00986431 -0.0105867 -0.0112944 -0.0119875 -0.0126659 -0.0133219 -0.0139474 -0.0145426 -0.0151074 -0.0156357 -0.0161214 -0.0165646 -0.0169653 -0.01732 -0.0176255 -0.0178819 -0.018089 -0.0182471 -0.0183566 -0.0184172 -0.0184292 -0.0183965 -0.0183231 -0.0182092 -0.0180546 -0.0178667 -0.0176529 -0.0174133 -0.0171477 -0.0168657 -0.0165767 -0.0162806 -0.0159774 -0.0156768 -0.0153883 -0.0151121 -0.0148481 -0.0146041 -0.0143879 -0.0141997 -0.0140392 -0.013911 -0.0138194 -0.0137643 -0.0137458 -0.0137638 -0.0138181 -0.0139089 -0.014036 -0.014195 -0.0143815 -0.0145953 -0.0148365 -0.0150972 -0.0153695 -0.0156534 -0.0159488 -0.0162462 -0.0165359 -0.016818 -0.0170925 -0.01735 -0.0175812 -0.0177861 -0.0179648 -0.01811 -0.0182146 -0.0182785 -0.0183017 -0.0182804 -0.0182108 -0.0180928 -0.0179265 -0.0177117 -0.0174485 -0.0171369 -0.0167767 -0.0163716 -0.015925 -0.0154368 -0.014907 -0.0143419 -0.0137474 -0.0131237 -0.0124708 -0.0117963 -0.0111083 -0.0104067 -0.00969148 -0.00897133 -0.00825496 -0.00754237 -0.00683355 -0.00613751 -0.00546328 -0.00481085 -0.00418022 -0.00358025 -0.00301982 -0.00249892 -0.00201755 -0.00157946 -0.00118836 -0.00084427 -0.000547179 -0.000307788 -0.000136795 -3.41987e-05 0 0 -4.03202e-05 -0.000161281 -0.000362882 -0.000645123 -0.000994155 -0.00139613 -0.00185105 -0.0023589 -0.00291466 -0.00351328 -0.00415475 -0.00483907 -0.00555552 -0.00629337 -0.00705261 -0.00783325 -0.00862461 -0.00941599 -0.0102074 -0.0109989 -0.0117802 -0.0125414 -0.0132824 -0.0140032 -0.0146949 -0.0153486 -0.0159643 -0.0165421 -0.0170752 -0.0175569 -0.0179872 -0.0183662 -0.0186905 -0.0189567 -0.0191647 -0.0193147 -0.0194075 -0.0194439 -0.0194238 -0.0193474 -0.0192199 -0.0190466 -0.0188276 -0.0185627 -0.0182613 -0.0179324 -0.017576 -0.0171922 -0.0167923 -0.0163879 -0.015979 -0.0155655 -0.0151591 -0.0147714 -0.0144024 -0.014052 -0.0137297 -0.0134448 -0.0131975 -0.0129876 -0.0128204 -0.012701 -0.0126295 -0.012606 -0.0126301 -0.012702 -0.0128215 -0.0129887 -0.0131982 -0.0134445 -0.0137278 -0.014048 -0.0143956 -0.014761 -0.0151444 -0.0155457 -0.0159533 -0.0163556 -0.0167527 -0.0171444 -0.0175195 -0.0178666 -0.0181858 -0.0184769 -0.0187311 -0.0189395 -0.019102 -0.0192186 -0.0192842 -0.0192938 -0.0192474 -0.019145 -0.0189859 -0.0187696 -0.0184959 -0.018165 -0.0177803 -0.0173454 -0.0168603 -0.0163249 -0.0157461 -0.0151306 -0.0144783 -0.0137893 -0.0130725 -0.0123366 -0.0115818 -0.0108079 -0.0100249 -0.00924288 -0.00846173 -0.00768147 -0.00691253 -0.00616533 -0.00543987 -0.00473614 -0.00406452 -0.00343541 -0.00284879 -0.00230467 -0.00180781 -0.001363 -0.000970211 -0.000629462 -0.000354073 -0.000157366 -3.93414e-05 0 0 -4.58049e-05 -0.00018322 -0.000412244 -0.000732879 -0.00112832 -0.00158175 -0.00209318 -0.0026626 -0.00328374 -0.00395031 -0.0046623 -0.00541973 -0.00621014 -0.0070211 -0.0078526 -0.00870464 -0.009565 -0.0104214 -0.0112739 -0.0121225 -0.0129557 -0.013762 -0.0145414 -0.0152939 -0.0160096 -0.0166785 -0.0173007 -0.017876 -0.0183974 -0.0188574 -0.0192561 -0.0195935 -0.0198662 -0.0200711 -0.020208 -0.0202769 -0.0202796 -0.0202175 -0.0200908 -0.0198994 -0.0196502 -0.0193498 -0.0189984 -0.0185959 -0.0181536 -0.0176826 -0.017183 -0.0166547 -0.0161116 -0.0155674 -0.0150222 -0.014476 -0.0139425 -0.0134358 -0.0129557 -0.0125022 -0.0120866 -0.01172 -0.0114023 -0.0111337 -0.0109202 -0.010768 -0.0106771 -0.0106476 -0.0106792 -0.010772 -0.0109257 -0.0111406 -0.0114101 -0.0117279 -0.0120941 -0.0125085 -0.0129599 -0.0134371 -0.0139399 -0.0144685 -0.015009 -0.0155475 -0.016084 -0.0166186 -0.0171375 -0.0176271 -0.0180874 -0.0185183 -0.018909 -0.0192484 -0.0195365 -0.0197733 -0.0199523 -0.020067 -0.0201174 -0.0201034 -0.0200237 -0.0198769 -0.0196631 -0.0193822 -0.0190378 -0.0186332 -0.0181687 -0.017644 -0.0170667 -0.016444 -0.0157759 -0.0150625 -0.0143137 -0.0135393 -0.0127394 -0.0119139 -0.0110742 -0.0102316 -0.00938611 -0.00853766 -0.00769824 -0.00687978 -0.00608229 -0.00530578 -0.00456228 -0.00386386 -0.00321051 -0.00260223 -0.00204499 -0.00154477 -0.00110157 -0.000715372 -0.000402397 -0.000178843 -4.47108e-05 0 0 -5.15184e-05 -0.000206074 -0.000463666 -0.000824295 -0.00126794 -0.00177457 -0.0023442 -0.00297682 -0.00366474 -0.00440026 -0.0051834 -0.00601413 -0.00687816 -0.00776117 -0.00866316 -0.00958412 -0.0105102 -0.0114274 -0.0123357 -0.0132352 -0.014113 -0.014956 -0.0157644 -0.0165381 -0.017266 -0.0179372 -0.0185516 -0.0191092 -0.0196023 -0.0200229 -0.0203712 -0.020647 -0.0208472 -0.0209687 -0.0210115 -0.0209755 -0.0208633 -0.0206776 -0.0204182 -0.0200853 -0.0196873 -0.0192327 -0.0187217 -0.0181541 -0.0175436 -0.0169036 -0.0162342 -0.0155354 -0.0148236 -0.0141152 -0.0134102 -0.0127087 -0.012027 -0.0113814 -0.010772 -0.0101988 -0.00967484 -0.00921332 -0.00881422 -0.00847754 -0.0082105 -0.00802036 -0.0079071 -0.00787072 -0.00791108 -0.00802802 -0.00822154 -0.00849165 -0.00883084 -0.00923162 -0.009694 -0.010218 -0.0107902 -0.0113975 -0.0120399 -0.0127172 -0.0134133 -0.0141116 -0.0148122 -0.0155151 -0.016204 -0.0168626 -0.0174909 -0.018089 -0.0186435 -0.0191411 -0.0195819 -0.0199659 -0.0202847 -0.0205303 -0.0207026 -0.0208016 -0.0208251 -0.0207707 -0.0206385 -0.0204284 -0.020144 -0.0197885 -0.0193619 -0.0188643 -0.0183036 -0.0176877 -0.0170166 -0.0162904 -0.0155199 -0.0147164 -0.0138796 -0.0130097 -0.0121193 -0.0112213 -0.0103155 -0.00940212 -0.00849463 -0.00760663 -0.00673813 -0.00588914 -0.00507352 -0.00430516 -0.00358407 -0.00291023 -0.00229099 -0.00173369 -0.00123833 -0.000804909 -0.000452761 -0.000201227 -5.03068e-05 0 0 -5.73761e-05 -0.000229504 -0.000516385 -0.000918017 -0.00141094 -0.0019717 -0.00260029 -0.00329671 -0.00405168 -0.00485594 -0.00570947 -0.00661228 -0.00754802 -0.00850034 -0.00946924 -0.0104547 -0.0114411 -0.0124126 -0.0133692 -0.014311 -0.0152235 -0.0160922 -0.0169172 -0.0176984 -0.0184236 -0.0190808 -0.0196698 -0.0201908 -0.0206353 -0.020995 -0.02127 -0.0214601 -0.0215625 -0.0215744 -0.0214956 -0.0213263 -0.02107 -0.0207306 -0.0203081 -0.0198023 -0.019224 -0.0185835 -0.0178809 -0.0171163 -0.0163057 -0.0154654 -0.0145954 -0.0136957 -0.0127857 -0.0118847 -0.0109929 -0.0101101 -0.00925551 -0.00844838 -0.00768867 -0.00697639 -0.00632683 -0.00575534 -0.0052619 -0.00484651 -0.0045176 -0.00428359 -0.00414448 -0.00410027 -0.00415077 -0.00429582 -0.00453541 -0.00486954 -0.00528947 -0.00578648 -0.00636056 -0.00701171 -0.00772443 -0.00848321 -0.00928806 -0.010139 -0.0110168 -0.0119022 -0.0127954 -0.0136963 -0.0145856 -0.0154441 -0.0162719 -0.0170688 -0.0178192 -0.0185069 -0.019132 -0.0196946 -0.0201844 -0.0205914 -0.0209154 -0.0211564 -0.0213113 -0.0213764 -0.0213519 -0.0212378 -0.0210372 -0.0207532 -0.020386 -0.0199355 -0.0194101 -0.0188185 -0.0181605 -0.0174361 -0.0166575 -0.0158369 -0.0149742 -0.0140695 -0.013137 -0.0121909 -0.0112313 -0.0102582 -0.00928694 -0.00833289 -0.00739605 -0.00647642 -0.00558987 -0.00475227 -0.00396362 -0.00322393 -0.00254207 -0.00192692 -0.00137848 -0.000896747 -0.00050442 -0.000224187 -5.60467e-05 0 0 -6.32931e-05 -0.000253172 -0.000569638 -0.00101269 -0.00155524 -0.00217021 -0.0028576 -0.00361741 -0.00443859 -0.00531011 -0.00623198 -0.00720418 -0.00820816 -0.00922537 -0.0102558 -0.0112995 -0.0123387 -0.0133558 -0.0143509 -0.0153239 -0.0162587 -0.0171392 -0.0179655 -0.0187375 -0.0194419 -0.0200654 -0.020608 -0.0210697 -0.0214416 -0.021715 -0.0218898 -0.0219661 -0.0219412 -0.0218128 -0.0215808 -0.0212452 -0.020811 -0.0202835 -0.0196625 -0.018948 -0.018153 -0.0172902 -0.0163596 -0.0153612 -0.0143143 -0.0132379 -0.0121322 -0.0109972 -0.00985545 -0.00872976 -0.00762014 -0.00652656 -0.00547135 -0.00447681 -0.00354296 -0.00266978 -0.00187504 -0.0011765 -0.000574144 -6.79854e-05 0.000332236 0.000616777 0.000785637 0.000838817 0.000776528 0.000598979 0.00030617 -0.000101897 -0.000615112 -0.00122336 -0.00192665 -0.00272497 -0.00360035 -0.0045348 -0.00552831 -0.0065809 -0.00767022 -0.00877393 -0.00989203 -0.0110245 -0.0121488 -0.0132425 -0.0143054 -0.0153377 -0.0163204 -0.0172347 -0.0180805 -0.018858 -0.0195545 -0.0201578 -0.0206679 -0.0210847 -0.0214035 -0.0216197 -0.0217334 -0.0217444 -0.0216556 -0.0214698 -0.0211871 -0.0208074 -0.0203398 -0.0197932 -0.0191676 -0.018463 -0.0176928 -0.0168702 -0.0159952 -0.0150679 -0.0141041 -0.0131197 -0.0121148 -0.0110892 -0.0100604 -0.00904557 -0.00804471 -0.00705782 -0.00610295 -0.00519811 -0.00434332 -0.00353858 -0.00279447 -0.0021216 -0.00151996 -0.000989563 -0.000556629 -0.000247391 -6.18477e-05 0 0 -6.92695e-05 -0.000277078 -0.000623425 -0.00110831 -0.00170084 -0.00237012 -0.00311615 -0.00393892 -0.00482546 -0.00576279 -0.00675091 -0.00778981 -0.00885857 -0.00993624 -0.0110228 -0.0121183 -0.013203 -0.0142572 -0.0152808 -0.0162738 -0.0172185 -0.018097 -0.0189093 -0.0196555 -0.0203209 -0.0208911 -0.0213662 -0.021746 -0.0220213 -0.0221829 -0.0222308 -0.0221649 -0.0219833 -0.021684 -0.0212669 -0.0207321 -0.0200863 -0.019336 -0.0184814 -0.0175224 -0.0164744 -0.0153528 -0.0141577 -0.012889 -0.0115694 -0.0102213 -0.00884478 -0.00743983 -0.00603286 -0.00465025 -0.00329202 -0.00195816 -0.000674455 0.000533313 0.00166514 0.00272103 0.00368054 0.00452321 0.00524904 0.00585804 0.00633901 0.00668075 0.00688326 0.00694653 0.00687083 0.00665638 0.00630319 0.00581127 0.00519224 0.00445772 0.00360772 0.00264224 0.001582 0.000447709 -0.000760633 -0.00204302 -0.00337364 -0.00472665 -0.00610205 -0.00749986 -0.00889384 -0.0102578 -0.0115917 -0.0128956 -0.0141473 -0.0153246 -0.0164274 -0.0174559 -0.018395 -0.0192297 -0.0199601 -0.0205863 -0.0211018 -0.0215007 -0.0217828 -0.0219482 -0.0219992 -0.0219382 -0.0217651 -0.0214801 -0.0210924 -0.0206117 -0.0200379 -0.019371 -0.0186256 -0.0178161 -0.0169425 -0.0160048 -0.0150207 -0.0140077 -0.0129659 -0.0118953 -0.0108151 -0.00974469 -0.00868412 -0.00763335 -0.00661276 -0.00564269 -0.00472317 -0.00385417 -0.0030482 -0.00231774 -0.00166279 -0.00108336 -0.000609388 -0.000270839 -6.77098e-05 0 0 -7.53053e-05 -0.000301221 -0.000677747 -0.00120488 -0.00184774 -0.00257142 -0.00337592 -0.00426124 -0.00521229 -0.00621397 -0.00726627 -0.00836919 -0.00949925 -0.010633 -0.0117703 -0.0129114 -0.0140341 -0.0151166 -0.0161588 -0.0171608 -0.0181029 -0.0189655 -0.0197486 -0.0204522 -0.0210606 -0.0215579 -0.0219443 -0.0222196 -0.0223744 -0.0223988 -0.0222929 -0.0220567 -0.0216888 -0.0211879 -0.0205541 -0.0197872 -0.0188958 -0.0178884 -0.0167649 -0.0155253 -0.014188 -0.0127713 -0.0112752 -0.00969968 -0.00807099 -0.00641543 -0.00473298 -0.00302366 -0.00131792 0.000353797 0.00199148 0.00359513 0.00513516 0.006582 0.00793563 0.00919607 0.0103399 0.0113438 0.0122077 0.0129316 0.0135027 0.0139083 0.0141484 0.0142229 0.0141321 0.0138764 0.0134557 0.01287 0.0121326 0.0112568 0.0102426 0.00908995 0.00782263 0.0064643 0.00501498 0.00347467 0.00187299 0.000239608 -0.00142549 -0.00312229 -0.00482055 -0.00649001 -0.00813069 -0.00974256 -0.0112998 -0.0127765 -0.0141727 -0.0154884 -0.0167057 -0.017807 -0.0187922 -0.0196612 -0.0204062 -0.0210192 -0.0215003 -0.0218493 -0.022068 -0.0221583 -0.0221201 -0.0219534 -0.0216681 -0.02127