<?xml version="1.0"?> 
<VTKFile type="StructuredGrid" version="0.1"> 
<StructuredGrid WholeExtent="0 128 0 128 0 0"> 
<Piece Extent="0 128 0 128 0 0"> 
<PointData>
<DataArray type="Float32" Name="u" format="ascii" NumberOfComponents="1"> 
0 0 0 0 0 0 0 0 0 0 0 0 0 0 0 0 0 0 0 0 0 0 0 0 0 0 0 0 0 0 0 0 0 0 0 0 0 0 0 0 0 0 0 0 0 0 0 0 0 0 0 0 0 0 0 0 0 0 0 0 0 0 0 0 0 0 0 0 0 0 0 0 0 0 0 0 0 0 0 0 0 0 0 0 0 0 0 0 0 0 0 0 0 0 0 0 0 0 0 0 0 0 0 0 0 0 0 0 0 0 0 0 0 0 0 0 0 0 0 0 0 0 0 0 0 0 0 0 0 0 1.82402e-07 7.29608e-07 1.64162e-06 2.91843e-06 4.44413e-06 6.10281e-06 7.89446e-06 9.81909e-06 1.18027e-05 1.37713e-05 1.57248e-05 1.76634e-05 1.95068e-05 2.1175e-05 2.2668e-05 2.39859e-05 2.50707e-05 2.58645e-05 2.63675e-05 2.65796e-05 2.6461e-05 2.59723e-05 2.51133e-05 2.38841e-05 2.22616e-05 2.02227e-05 1.77674e-05 1.48957e-05 1.16015e-05 7.87848e-06 3.72679e-06 -8.5363e-07 -5.84991e-06 -1.12492e-05 -1.70515e-05 -2.32568e-05 -2.98291e-05 -3.67324e-05 -4.39667e-05 -5.15319e-05 -5.93641e-05 -6.73991e-05 -7.5637e-05 -8.40777e-05 -9.26275e-05 -0.000101193 -0.000109773 -0.000118368 -0.000126862 -0.000135137 -0.000143192 -0.000151029 -0.000158523 -0.000165551 -0.000172113 -0.00017821 -0.000183736 -0.000188587 -0.000192763 -0.000196264 -0.000199031 -0.000201002 -0.000202178 -0.000202559 -0.000202145 -0.000200937 -0.000198935 -0.000196138 -0.000192607 -0.000188403 -0.000183526 -0.000177977 -0.000171859 -0.000165278 -0.000158234 -0.000150726 -0.000142879 -0.000134816 -0.000126537 -0.000118042 -0.000109447 -0.000100871 -9.23126e-05 -8.37722e-05 -7.53432e-05 -6.71192e-05 -5.91001e-05 -5.12859e-05 -4.37402e-05 -3.65266e-05 -2.96451e-05 -2.30958e-05 -1.6914e-05 -1.11354e-05 -5.75996e-06 -7.87622e-07 3.76921e-06 7.89816e-06 1.15992e-05 1.48724e-05 1.77243e-05 2.01614e-05 2.21837e-05 2.37913e-05 2.50074e-05 2.58554e-05 2.63353e-05 2.6447e-05 2.62304e-05 2.5725e-05 2.49309e-05 2.3848e-05 2.25341e-05 2.10467e-05 1.93858e-05 1.75515e-05 1.56232e-05 1.36806e-05 1.17237e-05 9.75238e-06 7.84011e-06 6.06024e-06 4.41277e-06 2.89771e-06 1.62996e-06 7.24428e-07 1.81107e-07 0 0 7.29608e-07 2.91843e-06 6.56647e-06 1.16737e-05 1.77765e-05 2.44112e-05 3.15779e-05 3.92764e-05 4.72108e-05 5.50851e-05 6.28993e-05 7.06534e-05 7.80271e-05 8.47e-05 9.06721e-05 9.59435e-05 0.000100283 0.000103458 0.00010547 0.000106318 0.000105844 0.000103889 0.000100453 9.55366e-05 8.90465e-05 8.08909e-05 7.10697e-05 5.95829e-05 4.64058e-05 3.15139e-05 1.49071e-05 -3.41452e-06 -2.33996e-05 -4.49968e-05 -6.8206e-05 -9.30273e-05 -0.000119317 -0.00014693 -0.000175867 -0.000206128 -0.000237456 -0.000269596 -0.000302548 -0.000336311 -0.00037051 -0.00040477 -0.000439092 -0.000473474 -0.000507449 -0.000540547 -0.000572769 -0.000604116 -0.000634092 -0.000662204 -0.000688454 -0.000712839 -0.000734943 -0.000754347 -0.000771052 -0.000785057 -0.000796123 -0.000804008 -0.000808712 -0.000810236 -0.000808581 -0.000803749 -0.000795738 -0.00078455 -0.000770428 -0.000753613 -0.000734106 -0.000711907 -0.000687436 -0.000661112 -0.000632935 -0.000602905 -0.000571517 -0.000539264 -0.000506148 -0.000472167 -0.000437789 -0.000403484 -0.00036925 -0.000335089 -0.000301373 -0.000268477 -0.0002364 -0.000205143 -0.000174961 -0.000146106 -0.00011858 -9.2383e-05 -6.76561e-05 -4.45417e-05 -2.30398e-05 -3.15049e-06 1.50768e-05 3.15926e-05 4.63969e-05 5.94897e-05 7.08972e-05 8.06456e-05 8.87349e-05 9.51652e-05 0.00010003 0.000103422 0.000105341 0.000105788 0.000104922 0.0001029 9.97235e-05 9.53921e-05 9.01363e-05 8.41867e-05 7.75432e-05 7.02059e-05 6.24929e-05 5.47225e-05 4.68947e-05 3.90095e-05 3.13604e-05 2.4241e-05 1.76511e-05 1.15909e-05 6.51986e-06 2.89771e-06 7.24428e-07 0 0 1.64162e-06 6.56647e-06 1.47746e-05 2.62659e-05 3.99972e-05 5.49253e-05 7.10502e-05 8.83718e-05 0.000106224 0.000123941 0.000141523 0.00015897 0.000175561 0.000190575 0.000204012 0.000215873 0.000225636 0.000232781 0.000237307 0.000239216 0.000238149 0.000233751 0.00022602 0.000214957 0.000200355 0.000182005 0.000159907 0.000134061 0.000104413 7.09063e-05 3.35411e-05 -7.68267e-06 -5.26492e-05 -0.000101243 -0.000153464 -0.000209311 -0.000268462 -0.000330592 -0.0003957 -0.000463787 -0.000534277 -0.000606592 -0.000680733 -0.0007567 -0.000833648 -0.000910733 -0.000987956 -0.00106532 -0.00114176 -0.00121623 -0.00128873 -0.00135926 -0.00142671 -0.00148996 -0.00154902 -0.00160389 -0.00165362 -0.00169728 -0.00173487 -0.00176638 -0.00179128 -0.00180902 -0.0018196 -0.00182303 -0.00181931 -0.00180843 -0.00179041 -0.00176524 -0.00173346 -0.00169563 -0.00165174 -0.00160179 -0.00154673 -0.0014875 -0.0014241 -0.00135654 -0.00128591 -0.00121335 -0.00113883 -0.00106237 -0.000985026 -0.000907839 -0.000830813 -0.00075395 -0.000678089 -0.000604073 -0.000531901 -0.000461573 -0.000393662 -0.000328739 -0.000266806 -0.000207862 -0.000152226 -0.000100219 -5.18396e-05 -7.0886e-06 3.39229e-05 7.10834e-05 0.000104393 0.000133852 0.000159519 0.000181453 0.000199654 0.000214122 0.000225067 0.000232699 0.000237018 0.000238023 0.000236073 0.000231525 0.000224378 0.000214632 0.000202807 0.00018942 0.000174472 0.000157963 0.000140609 0.000123126 0.000105513 8.77715e-05 7.0561e-05 5.45421e-05 3.9715e-05 2.60794e-05 1.46697e-05 6.51986e-06 1.62996e-06 0 0 2.91843e-06 1.16737e-05 2.62659e-05 4.66949e-05 7.11062e-05 9.7645e-05 0.000126311 0.000157105 0.000188843 0.00022034 0.000251597 0.000282614 0.000312108 0.0003388 0.000362689 0.000383774 0.000401131 0.000413833 0.00042188 0.000425273 0.000423377 0.000415557 0.000401813 0.000382146 0.000356186 0.000323564 0.000284279 0.000238332 0.000185623 0.000126056 5.96286e-05 -1.36581e-05 -9.35986e-05 -0.000179987 -0.000272824 -0.000372109 -0.000477266 -0.000587719 -0.000703467 -0.000824511 -0.000949825 -0.00107839 -0.00121019 -0.00134524 -0.00148204 -0.00161908 -0.00175637 -0.0018939 -0.00202979 -0.00216219 -0.00229108 -0.00241646 -0.00253637 -0.00264882 -0.00275381 -0.00285136 -0.00293977 -0.00301739 -0.00308421 -0.00314023 -0.00318449 -0.00321603 -0.00323485 -0.00324094 -0.00323432 -0.00321499 -0.00318295 -0.0031382 -0.00308171 -0.00301445 -0.00293642 -0.00284763 -0.00274974 -0.00264445 -0.00253174 -0.00241162 -0.00228607 -0.00215706 -0.00202459 -0.00188867 -0.00175116 -0.00161394 -0.001477 -0.00134035 -0.00120549 -0.00107391 -0.000945601 -0.000820574 -0.000699843 -0.000584425 -0.000474322 -0.000369532 -0.000270624 -0.000178167 -9.21593e-05 -1.2602e-05 6.03073e-05 0.000126371 0.000185588 0.000237959 0.000283589 0.000322582 0.00035494 0.000380661 0.000400119 0.000413687 0.000421365 0.000423153 0.000419686 0.0004116 0.000398894 0.000381568 0.000360545 0.000336747 0.000310173 0.000280823 0.000249972 0.00021889 0.000187579 0.000156038 0.000125442 9.69638e-05 7.06044e-05 4.63634e-05 2.60794e-05 1.15909e-05 2.89771e-06 0 0 4.44633e-06 1.77853e-05 4.0017e-05 7.11413e-05 0.00010828 0.000148556 0.000191969 0.000238519 0.000286388 0.00033376 0.000380634 0.000427011 0.000470938 0.000510464 0.000545588 0.000576311 0.000601232 0.00061895 0.000629465 0.000632777 0.000627941 0.000614009 0.000590983 0.000558862 0.000517111 0.000465196 0.000403117 0.000330873 0.000248343 0.000155404 5.20554e-05 -6.17023e-05 -0.000185535 -0.00031911 -0.000462426 -0.000615484 -0.000777396 -0.000947274 -0.00112512 -0.00131093 -0.00150315 -0.00170021 -0.00190212 -0.00210887 -0.00231819 -0.0025278 -0.00273769 -0.00294788 -0.00315551 -0.00335773 -0.00355456 -0.00374598 -0.00392901 -0.00410063 -0.00426086 -0.00440968 -0.00454457 -0.00466298 -0.00476491 -0.00485035 -0.00491786 -0.00496596 -0.00499466 -0.00500396 -0.00499386 -0.00496438 -0.00491551 -0.00484725 -0.00476108 -0.00465848 -0.00453944 -0.00440397 -0.00425462 -0.00409393 -0.00392191 -0.00373855 -0.00354687 -0.00334985 -0.00314751 -0.00293983 -0.00272967 -0.00251986 -0.00231041 -0.00210131 -0.00189484 -0.00169326 -0.00149658 -0.0013048 -0.00111946 -0.000942115 -0.000772765 -0.00061141 -0.000458925 -0.000316185 -0.000183191 -5.99421e-05 5.32392e-05 0.000156031 0.000248433 0.000330446 0.000402201 0.000463831 0.000515336 0.000556716 0.000588511 0.000611263 0.000624971 0.000629635 0.000626203 0.000615621 0.000597889 0.000573008 0.000542372 0.000507378 0.000468025 0.000424313 0.000378182 0.00033157 0.000284477 0.000236904 0.000190652 0.000147523 0.000107519 7.06381e-05 3.97339e-05 1.76595e-05 4.41488e-06 0 0 6.1116e-06 2.44464e-05 5.50044e-05 9.77856e-05 0.000148697 0.000203646 0.000262631 0.000325654 0.000390181 0.00045368 0.000516149 0.00057759 0.000635319 0.000686656 0.000731599 0.00077015 0.000800407 0.00082047 0.000830341 0.000830018 0.000818255 0.000793809 0.000756677 0.000706861 0.000643699 0.00056653 0.000475352 0.000370168 0.00025088 0.000117393 -3.02926e-05 -0.000192177 -0.000367747 -0.000556492 -0.000758409 -0.0009735 -0.00120052 -0.00143822 -0.00168661 -0.00194568 -0.00221329 -0.00248729 -0.0027677 -0.0030545 -0.00334459 -0.00363486 -0.00392531 -0.00421593 -0.00450285 -0.00478218 -0.00505392 -0.00531808 -0.00557055 -0.00580725 -0.00602817 -0.00623331 -0.00641919 -0.00658235 -0.00672279 -0.0068405 -0.00693348 -0.00699974 -0.00703926 -0.00705207 -0.00703816 -0.00699754 -0.00693022 -0.00683619 -0.00671748 -0.00657611 -0.00641207 -0.00622537 -0.0060195 -0.00579793 -0.00556067 -0.00530773 -0.00504319 -0.00477117 -0.00449166 -0.00420466 -0.00391405 -0.00362371 -0.00333364 -0.00304383 -0.0027574 -0.00247743 -0.00220393 -0.0019369 -0.00167847 -0.00143076 -0.00119377 -0.000967511 -0.000753202 -0.000552073 -0.000364126 -0.00018936 -2.82722e-05 0.000118642 0.000251382 0.000369949 0.00047445 0.000564996 0.000641586 0.000704221 0.00075357 0.000790305 0.000814424 0.000825929 0.000826066 0.000816083 0.00079598 0.000765757 0.000727308 0.000682525 0.000631408 0.000573959 0.00051284 0.000450718 0.000387592 0.000323461 0.00026084 0.000202239 0.000147658 9.70987e-05 5.4618e-05 2.42747e-05 6.06867e-06 0 0 7.91424e-06 3.16569e-05 7.12281e-05 0.000126628 0.000192356 0.000262912 0.000338297 0.000418511 0.000500222 0.000580098 0.000658141 0.000734349 0.000805252 0.000867376 0.000920721 0.000965289 0.000998654 0.00101839 0.00102451 0.00101699 0.000994321 0.000954956 0.000898897 0.000826146 0.000735951 0.000627565 0.000500986 0.000356214 0.000193233 1.20228e-05 -0.000187415 -0.000405082 -0.000640235 -0.000892131 -0.00116077 -0.00144616 -0.00174664 -0.00206056 -0.00238793 -0.00272875 -0.00308024 -0.00343964 -0.00380694 -0.00418215 -0.00456126 -0.00494028 -0.00531921 -0.00569805 -0.00607182 -0.00643552 -0.00678917 -0.00713275 -0.00746101 -0.00776868 -0.00805575 -0.00832223 -0.00856364 -0.00877552 -0.00895786 -0.00911066 -0.00923135 -0.00931734 -0.00936865 -0.00938526 -0.0093672 -0.00931447 -0.00922708 -0.00910503 -0.00895092 -0.00876735 -0.00855432 -0.00831184 -0.00804438 -0.00775645 -0.00744804 -0.00711914 -0.00677505 -0.00642102 -0.00605705 -0.00568315 -0.0053043 -0.00492548 -0.00454668 -0.00416792 -0.00379316 -0.00342641 -0.00306765 -0.00271688 -0.00237687 -0.00205036 -0.00173735 -0.00143784 -0.00115345 -0.000885831 -0.000634966 -0.000400857 -0.000184227 1.42036e-05 0.000194435 0.000356466 0.000500335 0.000626076 0.000733689 0.000823175 0.000895296 0.000950812 0.000989725 0.00101203 0.00101928 0.00101299 0.000993167 0.000959817 0.000915352 0.000862187 0.000800323 0.00072976 0.000653947 0.000576335 0.000496923 0.000415712 0.000336006 0.000261109 0.000191022 0.000125745 7.07316e-05 3.14363e-05 7.85907e-06 0 0 9.85424e-06 3.9417e-05 8.86882e-05 0.000157668 0.000239257 0.000326357 0.000418968 0.000517089 0.00061651 0.000713016 0.00080661 0.00089729 0.000980735 0.00105262 0.00111295 0.00116173 0.00119597 0.00121272 0.00121196 0.00119371 0.00115614 0.00109745 0.00101764 0.000916714 0.000793867 0.000648301 0.000480016 0.000289013 7.54022e-05 -0.000160707 -0.000419313 -0.000700417 -0.001003 -0.00132603 -0.00166952 -0.00203346 -0.00241575 -0.0028143 -0.0032291 -0.00366016 -0.00410402 -0.00455725 -0.00501984 -0.0054918 -0.00596818 -0.00644404 -0.0069194 -0.00739424 -0.00786242 -0.00831777 -0.0087603 -0.00919001 -0.00960038 -0.00998491 -0.0103436 -0.0106764 -0.0109779 -0.0112425 -0.0114701 -0.0116608 -0.0118115 -0.0119188 -0.0119828 -0.0120035 -0.011981 -0.0119152 -0.0118061 -0.0116538 -0.0114614 -0.0112322 -0.0109662 -0.0106634 -0.0103293 -0.00996948 -0.009584 -0.00917281 -0.00874243 -0.00829939 -0.00784368 -0.00737531 -0.00690042 -0.00642516 -0.00594954 -0.00547356 -0.00500214 -0.00454019 -0.00408773 -0.00364474 -0.00321466 -0.00280091 -0.00240348 -0.00202238 -0.00165968 -0.00131746 -0.000995709 -0.000694432 -0.000414625 -0.000157284 7.75907e-05 0.00029 0.000479856 0.000647071 0.000791645 0.000913579 0.00101369 0.00109279 0.00115087 0.00118795 0.00120583 0.00120633 0.00118945 0.00115519 0.0011065 0.00104637 0.00097477 0.000891717 0.000801503 0.000708421 0.000612471 0.000513655 0.00041615 0.000324136 0.000237611 0.000156578 8.80749e-05 3.91444e-05 9.7861e-06 0 0 1.18538e-05 4.74152e-05 0.000106684 0.000189661 0.00028749 0.000391316 0.000501139 0.00061696 0.000733603 0.000845895 0.000953836 0.00105743 0.00115145 0.00123071 0.00129519 0.00134489 0.00137631 0.00138594 0.00137377 0.0013398 0.00128201 0.00119836 0.00108885 0.000953482 0.000791487 0.000602096 0.00038531 0.000141128 -0.000130129 -0.000428141 -0.000752908 -0.00110443 -0.00148134 -0.00188228 -0.00230726 -0.00275626 -0.0032267 -0.00371602 -0.0042242 -0.00475126 -0.00529305 -0.00584546 -0.00640848 -0.00698212 -0.00756049 -0.00813773 -0.00871383 -0.0092888 -0.0098553 -0.010406 -0.0109409 -0.0114601 -0.0119556 -0.0124199 -0.0128528 -0.0132544 -0.013618 -0.0139371 -0.0142117 -0.0144416 -0.0146232 -0.0147526 -0.0148298 -0.0148548 -0.0148276 -0.0147483 -0.0146167 -0.0144331 -0.0142011 -0.0139246 -0.0136038 -0.0132385 -0.0128353 -0.0124011 -0.0119356 -0.011439 -0.0109191 -0.0103835 -0.0098323 -0.00926552 -0.00869045 -0.00811442 -0.00753744 -0.00695949 -0.00638645 -0.00582416 -0.00527264 -0.00473187 -0.00420595 -0.003699 -0.00321101 -0.00274198 -0.00229446 -0.001871 -0.0014716 -0.00109625 -0.000746301 -0.000423072 -0.000126565 0.00014322 0.00038599 0.000601455 0.000789613 0.000950466 0.0010848 0.00119341 0.00127629 0.00133344 0.0013669 0.00137871 0.00136887 0.00133737 0.00128773 0.00122344 0.0011445 0.0010509 0.000947839 0.000840482 0.000728833 0.000612893 0.000497795 0.000388673 0.000285529 0.00018836 0.000105953 4.709e-05 1.17725e-05 0 0 1.38351e-05 5.53403e-05 0.000124516 0.000221361 0.000335142 0.000455124 0.000581308 0.000713692 0.00084606 0.000972196 0.0010921 0.00120577 0.00130709 0.00138993 0.0014543 0.00150019 0.00152361 0.00152053 0.00149098 0.00143493 0.00135024 0.00123475 0.00108846 0.000911365 0.000702853 0.000462309 0.000189731 -0.000114878 -0.000450878 -0.000817625 -0.00121512 -0.00164336 -0.00210058 -0.00258499 -0.00309661 -0.00363542 -0.00419835 -0.00478233 -0.00538736 -0.00601343 -0.00665577 -0.0073096 -0.00797494 -0.00865177 -0.00933334 -0.0100129 -0.0106905 -0.011366 -0.0120311 -0.0126773 -0.0133047 -0.0139131 -0.0144937 -0.0150375 -0.0155444 -0.0160145 -0.0164401 -0.0168134 -0.0171347 -0.0174037 -0.0176161 -0.0177675 -0.0178577 -0.017887 -0.0178551 -0.0177623 -0.0176084 -0.0173936 -0.0171222 -0.0167987 -0.0164232 -0.0159956 -0.0155237 -0.0150152 -0.01447 -0.0138882 -0.0132787 -0.0126505 -0.0120037 -0.0113382 -0.0106624 -0.00998491 -0.00930557 -0.00862444 -0.00794824 -0.0072837 -0.00663084 -0.00598964 -0.00536486 -0.00476123 -0.00417876 -0.00361746 -0.00308035 -0.00257049 -0.00208786 -0.00163249 -0.00120609 -0.000810409 -0.000445446 -0.000111202 0.000191716 0.0004627 0.000701751 0.000908868 0.00108469 0.00122986 0.00134438 0.00142825 0.00148363 0.0015127 0.00151545 0.00149189 0.00144601 0.00138179 0.00129926 0.00119839 0.00108529 0.000966025 0.000840604 0.000709027 0.000577462 0.000452078 0.000332877 0.000219857 0.00012367 5.49643e-05 1.37411e-05 0 0 1.57981e-05 6.31924e-05 0.000142183 0.000252769 0.000382215 0.000517783 0.000659473 0.000807286 0.000953881 0.00109192 0.0012214 0.00134233 0.00144764 0.0015303 0.0015903 0.00162764 0.00163786 0.00161651 0.00156359 0.00147909 0.00136084 0.00120663 0.00101647 0.000790363 0.000527965 0.000228938 -0.000106719 -0.000479005 -0.000886845 -0.00132916 -0.00180595 -0.00231722 -0.00286071 -0.00343416 -0.00403757 -0.00467095 -0.0053307 -0.00601323 -0.00671856 -0.00744666 -0.00819217 -0.00894969 -0.00971921 -0.0105008 -0.0112867 -0.0120696 -0.0128493 -0.0136259 -0.0143899 -0.0151317 -0.0158515 -0.0165492 -0.0172146 -0.0178377 -0.0184184 -0.0189567 -0.019444 -0.0198714 -0.0202391 -0.020547 -0.02079 -0.0209632 -0.0210665 -0.0211 -0.0210635 -0.0209573 -0.0207812 -0.0205353 -0.0202246 -0.0198544 -0.0194245 -0.0189349 -0.0183945 -0.0178119 -0.0171871 -0.0165202 -0.0158212 -0.0151004 -0.0143578 -0.0135933 -0.0128164 -0.0120366 -0.011254 -0.0104684 -0.0096875 -0.00891881 -0.00816234 -0.00741807 -0.00669137 -0.00598759 -0.00530674 -0.00464881 -0.00401735 -0.00341592 -0.00284452 -0.00230313 -0.00179399 -0.00131929 -0.000879055 -0.000473267 -0.000102968 0.000230807 0.000528058 0.000788784 0.00101336 0.00120215 0.00135516 0.00147239 0.00155604 0.00160831 0.00162921 0.00161873 0.00158132 0.00152143 0.00143905 0.00133419 0.00121385 0.00108505 0.000947785 0.000802057 0.000655151 0.000514351 0.000379657 0.000251069 0.000141226 6.27673e-05 1.56918e-05 0 0 1.77428e-05 7.09713e-05 0.000159686 0.000283885 0.000428708 0.000579292 0.000735637 0.000897742 0.00105707 0.00120506 0.00134174 0.00146709 0.00157311 0.00165181 0.00170318 0.00172722 0.00171908 0.00167387 0.00159161 0.00147229 0.00131379 0.00111399 0.000872882 0.000590475 0.000266824 -9.80149e-05 -0.00050404 -0.000951253 -0.00143803 -0.00196275 -0.0025254 -0.003126 -0.00376173 -0.00442978 -0.00513015 -0.00586284 -0.00662374 -0.00740872 -0.0082178 -0.00905097 -0.00990226 -0.0107657 -0.0116413 -0.0125291 -0.0134207 -0.0143077 -0.0151903 -0.0160684 -0.0169315 -0.0177692 -0.0185815 -0.0193683 -0.0201184 -0.0208206 -0.0214748 -0.0220811 -0.0226297 -0.023111 -0.0235249 -0.0238715 -0.0241451 -0.02434 -0.0244562 -0.0244938 -0.0244528 -0.0243332 -0.024135 -0.0238582 -0.0235085 -0.0230916 -0.0226076 -0.0220563 -0.0214475 -0.0207911 -0.0200869 -0.0193351 -0.0185468 -0.0177333 -0.0168946 -0.0160308 -0.0151523 -0.0142696 -0.0133826 -0.0124914 -0.0116042 -0.0107295 -0.00986713 -0.00901714 -0.00818548 -0.00737808 -0.00659493 -0.00583604 -0.00510547 -0.00440731 -0.00374155 -0.00310819 -0.00251 -0.00194973 -0.00142739 -0.000942973 -0.00049806 -9.42237e-05 0.000268535 0.000590216 0.000870801 0.00111027 0.00130862 0.00146585 0.00158412 0.00166554 0.00171014 0.0017179 0.00169368 0.00164234 0.00156387 0.00145828 0.00133352 0.00119756 0.00105038 0.000891985 0.000730863 0.00057549 0.000425868 0.000281995 0.000158622 7.04988e-05 1.76247e-05 0 0 1.95755e-05 7.8302e-05 0.000176179 0.000313208 0.000472337 0.000636515 0.000805742 0.00098002 0.00114954 0.00130451 0.00144492 0.00157077 0.00167314 0.00174308 0.00178059 0.00178568 0.00175316 0.00167786 0.00155978 0.00139891 0.00119335 0.000941184 0.000642424 0.000297065 -9.42667e-05 -0.000530944 -0.00101297 -0.00154034 -0.00211074 -0.00272187 -0.00337373 -0.00406631 -0.00479618 -0.00555992 -0.00635751 -0.00718897 -0.00804968 -0.00893501 -0.00984497 -0.0107796 -0.0117323 -0.0126969 -0.0136732 -0.0146612 -0.015652 -0.0166368 -0.0176154 -0.018588 -0.0195431 -0.0204696 -0.0213675 -0.0222366 -0.0230649 -0.02384 -0.024562 -0.0252309 -0.0258361 -0.0263669 -0.0268234 -0.0272056 -0.0275072 -0.0277221 -0.0278503 -0.0278917 -0.0278465 -0.0277146 -0.027496 -0.0271908 -0.0268051 -0.0263453 -0.0258114 -0.0252032 -0.0245316 -0.023807 -0.0230296 -0.0221993 -0.0213284 -0.0204292 -0.0195015 -0.0185455 -0.0175723 -0.0165934 -0.0156086 -0.0146181 -0.0136306 -0.0126552 -0.0116917 -0.0107403 -0.00980727 -0.00889907 -0.00801569 -0.00715714 -0.00632798 -0.00553279 -0.00477157 -0.00404431 -0.0033544 -0.00270522 -0.00209676 -0.00152902 -0.00100426 -0.000524742 -9.0459e-05 0.000298588 0.000641818 0.00093865 0.00118908 0.00139312 0.00155269 0.00166973 0.00174423 0.00177619 0.0017708 0.00173321 0.00166342 0.00156145 0.00143617 0.00129647 0.00114235 0.000973802 0.000800569 0.000632382 0.000469241 0.000311146 0.000175019 7.77864e-05 1.94466e-05 0 0 2.12022e-05 8.4809e-05 0.00019082 0.000339236 0.000510815 0.000686315 0.000865736 0.00104908 0.00122524 0.00138313 0.00152275 0.00164409 0.00173734 0.0017927 0.00181016 0.00178973 0.00172604 0.00161375 0.00145285 0.00124335 0.000983753 0.000672578 0.000309825 -0.000104506 -0.000569 -0.00108224 -0.00164424 -0.00225498 -0.0029113 -0.00361003 -0.00435118 -0.00513474 -0.0059566 -0.00681263 -0.00770284 -0.00862722 -0.00958073 -0.0105583 -0.01156 -0.0125857 -0.0136287 -0.0146824 -0.0157467 -0.0168215 -0.0178978 -0.0189661 -0.0200265 -0.0210789 -0.0221116 -0.0231128 -0.0240824 -0.0250204 -0.0259139 -0.0267499 -0.0275284 -0.0282494 -0.0289017 -0.0294737 -0.0299657 -0.0303775 -0.0307025 -0.030934 -0.0310722 -0.0311168 -0.031068 -0.0309259 -0.0306904 -0.0303614 -0.0299458 -0.0294502 -0.0288747 -0.0282192 -0.0274951 -0.0267138 -0.0258752 -0.0249794 -0.0240394 -0.0230682 -0.0220656 -0.0210318 -0.0199786 -0.0189177 -0.0178493 -0.0167732 -0.0156988 -0.0146353 -0.0135827 -0.0125409 -0.0115168 -0.0105169 -0.00954138 -0.00859012 -0.00766816 -0.00678051 -0.00592717 -0.00510814 -0.00432748 -0.00358925 -0.00289346 -0.0022401 -0.00163228 -0.0010731 -0.000562565 -0.000100676 0.000311207 0.000671725 0.000980877 0.00123866 0.0014466 0.00160621 0.00171748 0.00178042 0.00180038 0.00178271 0.0017274 0.00163446 0.00151364 0.00137471 0.00121767 0.0010425 0.000860244 0.000681912 0.000507507 0.000337029 0.000189579 8.42573e-05 2.10643e-05 0 0 2.26231e-05 9.04924e-05 0.000203608 0.00036197 0.000544142 0.000728692 0.000915617 0.00110492 0.00128417 0.00144094 0.00157523 0.00168703 0.00176573 0.00180068 0.0017919 0.00173937 0.00163771 0.00148154 0.00127084 0.00100561 0.00068501 0.000308168 -0.000124914 -0.000614236 -0.00115738 -0.00175191 -0.00239784 -0.00309517 -0.0038397 -0.00462723 -0.00545776 -0.0063313 -0.00724298 -0.00818792 -0.00916612 -0.0101776 -0.0112169 -0.0122786 -0.0133628 -0.0144693 -0.0155914 -0.0167223 -0.0178618 -0.0190102 -0.0201579 -0.0212956 -0.0224234 -0.0235412 -0.024637 -0.0256987 -0.0267262 -0.0277196 -0.0286653 -0.0295501 -0.0303739 -0.0311366 -0.0318265 -0.0324315 -0.0329518 -0.0333873 -0.033731 -0.0339758 -0.0341218 -0.0341691 -0.0341175 -0.0339671 -0.033718 -0.0333701 -0.0329306 -0.0324064 -0.0317976 -0.0311042 -0.0303381 -0.0295113 -0.0286237 -0.0276754 -0.0266798 -0.0256503 -0.024587 -0.0234899 -0.0223711 -0.0212426 -0.0201045 -0.0189568 -0.0178088 -0.0166699 -0.0155399 -0.0144191 -0.013314 -0.0122317 -0.011172 -0.010135 -0.009126 -0.00815046 -0.00720835 -0.00629967 -0.00542923 -0.00460184 -0.0038175 -0.00307622 -0.0023821 -0.00173929 -0.00114778 -0.000607576 -0.000121031 0.000309493 0.000683997 0.00100248 0.00126584 0.00147498 0.00162989 0.00173058 0.00178244 0.00179084 0.0017558 0.00167731 0.00156595 0.00143229 0.00127634 0.00109809 0.000909886 0.000724079 0.000540666 0.000359646 0.000202301 8.99115e-05 2.24779e-05 0 0 2.3838e-05 9.53522e-05 0.000214542 0.000381409 0.00057232 0.000763646 0.000955387 0.00114754 0.00132632 0.00147792 0.00160235 0.00169961 0.0017583 0.00176703 0.0017258 0.00163461 0.00148818 0.00128121 0.00101372 0.000685697 0.000297118 -0.000152046 -0.000661794 -0.00123213 -0.00185939 -0.00253995 -0.00327379 -0.00406092 -0.00489593 -0.00577345 -0.00669347 -0.00765599 -0.00865533 -0.00968579 -0.0107474 -0.0118401 -0.0129582 -0.0140959 -0.0152534 -0.0164304 -0.0176204 -0.0188165 -0.0200187 -0.021227 -0.0224323 -0.0236254 -0.0248063 -0.025975 -0.0271193 -0.0282273 -0.0292989 -0.0303342 -0.0313193 -0.0322408 -0.0330985 -0.0338925 -0.0346105 -0.0352402 -0.0357817 -0.0362349 -0.0365926 -0.0368474 -0.0369994 -0.0370485 -0.0369948 -0.0368383 -0.036579 -0.0362169 -0.0357594 -0.0352137 -0.0345801 -0.0338583 -0.0330607 -0.0321997 -0.0312752 -0.0302872 -0.0292494 -0.0281756 -0.0270657 -0.0259198 -0.0247499 -0.0235681 -0.0223744 -0.0211689 -0.0199606 -0.0187588 -0.0175635 -0.0163747 -0.015199 -0.0140433 -0.0129075 -0.0117917 -0.0107015 -0.00964264 -0.00861511 -0.00761891 -0.00665966 -0.00574298 -0.00486889 -0.00403737 -0.00325374 -0.00252332 -0.00184611 -0.00122211 -0.000654898 -0.000148046 0.000298444 0.000684573 0.00101041 0.00127605 0.00148147 0.00162668 0.00171696 0.00175761 0.00174862 0.00169 0.00159308 0.0014692 0.00131836 0.00114055 0.000949496 0.000758884 0.000568717 0.000378996 0.000213185 9.4749e-05 2.36872e-05 0 0 2.47683e-05 9.90731e-05 0.000222915 0.000396292 0.000593443 0.000788601 0.000981767 0.00117294 0.00134697 0.00148871 0.00159815 0.00167529 0.00170809 0.0016845 0.00160452 0.00146814 0.0012704 0.0010063 0.000675852 0.000279054 -0.000183028 -0.000709323 -0.00129983 -0.00195456 -0.00266835 -0.00343608 -0.00425772 -0.0051333 -0.00605601 -0.00701909 -0.00802254 -0.00906634 -0.010144 -0.0112488 -0.012381 -0.0135403 -0.0147211 -0.0159172 -0.0171288 -0.0183557 -0.0195918 -0.0208304 -0.0220716 -0.0233154 -0.0245533 -0.0257765 -0.0269852 -0.0281792 -0.029347 -0.0304768 -0.0315688 -0.0326228 -0.0336254 -0.034563 -0.0354356 -0.0362431 -0.0369733 -0.0376137 -0.0381644 -0.0386253 -0.0389891 -0.0392483 -0.0394028 -0.0394527 -0.0393981 -0.0392389 -0.0389751 -0.0386068 -0.0381414 -0.0375864 -0.0369419 -0.0362078 -0.0353964 -0.0345204 -0.0335795 -0.0325739 -0.0315171 -0.0304226 -0.0292906 -0.028121 -0.0269254 -0.0257156 -0.0244915 -0.0232531 -0.0220091 -0.0207681 -0.01953 -0.0182948 -0.0170691 -0.0158591 -0.0146648 -0.0134862 -0.0123293 -0.0111999 -0.010098 -0.00902358 -0.00798316 -0.00698321 -0.00602374 -0.00510474 -0.00423292 -0.00341497 -0.0026509 -0.0019407 -0.00128943 -0.000702155 -0.000178876 0.000280408 0.000674687 0.00100295 0.0012652 0.00146144 0.00159665 0.00167582 0.00169895 0.00166605 0.0015891 0.00148009 0.00133904 0.00116593 0.000975818 0.000783765 0.000589768 0.000393827 0.000221527 9.84566e-05 2.46142e-05 0 0 2.5335e-05 0.00010134 0.000228015 0.00040536 0.000605605 0.000800978 0.000991481 0.00117711 0.00134141 0.00146792 0.00155663 0.00160755 0.00160814 0.00154586 0.0014207 0.00123267 0.000977346 0.000650316 0.000251579 -0.000218865 -0.00075853 -0.00136493 -0.00203805 -0.00277791 -0.00357755 -0.00443001 -0.00533529 -0.00629339 -0.00729593 -0.00833453 -0.00940917 -0.0105199 -0.0116592 -0.0128196 -0.0140012 -0.015204 -0.016422 -0.0176493 -0.018886 -0.020132 -0.0213816 -0.0226293 -0.023875 -0.0251187 -0.0263528 -0.02757 -0.0287701 -0.0299531 -0.0311085 -0.0322255 -0.033304 -0.0343442 -0.0353331 -0.0362578 -0.0371183 -0.0379145 -0.0386344 -0.0392658 -0.0398088 -0.0402634 -0.0406222 -0.0408779 -0.0410303 -0.0410795 -0.0410256 -0.0408685 -0.0406083 -0.040245 -0.0397859 -0.0392386 -0.0386029 -0.037879 -0.0370789 -0.0362148 -0.0352867 -0.0342945 -0.0332514 -0.0321701 -0.0310507 -0.0298932 -0.0287083 -0.0275066 -0.0262883 -0.0250533 -0.0238091 -0.0225632 -0.0213158 -0.0200667 -0.0188216 -0.0175863 -0.0163606 -0.0151446 -0.0139441 -0.0127651 -0.0116075 -0.0104714 -0.00936412 -0.00829304 -0.00725817 -0.00625952 -0.00530537 -0.00440403 -0.00355548 -0.00275974 -0.00202366 -0.0013541 -0.000751061 -0.000214545 0.00025303 0.000649247 0.000974106 0.00122761 0.00141418 0.00153827 0.00159986 0.00159896 0.00154806 0.00145963 0.00133369 0.00117022 0.000985594 0.000796162 0.000601926 0.000402885 0.000226623 0.000100721 2.51803e-05 0 0 2.55382e-05 0.000102153 0.000229844 0.000408612 0.000608806 0.000800778 0.000984528 0.00116006 0.00130964 0.00141556 0.00147781 0.0014964 0.00145845 0.0013511 0.00117434 0.000928185 0.000609023 0.000213262 -0.000259099 -0.00080806 -0.00142939 -0.00211885 -0.00287645 -0.00370219 -0.00458699 -0.00552175 -0.00650649 -0.00754121 -0.00861569 -0.00971975 -0.0108534 -0.0120166 -0.013201 -0.0143982 -0.0156082 -0.0168311 -0.018061 -0.0192923 -0.020525 -0.0217591 -0.02299 -0.0242132 -0.0254288 -0.0266367 -0.027831 -0.0290058 -0.030161 -0.0312968 -0.0324039 -0.0334731 -0.0345046 -0.0354984 -0.0364425 -0.0373253 -0.0381466 -0.0389066 -0.0395938 -0.0401966 -0.0407151 -0.0411493 -0.041492 -0.0417362 -0.0418818 -0.0419288 -0.0418773 -0.0417272 -0.0414786 -0.0411314 -0.0406929 -0.0401702 -0.0395632 -0.038872 -0.0381081 -0.037283 -0.0363967 -0.0354492 -0.0344523 -0.0334179 -0.0323459 -0.0312363 -0.0300984 -0.0289413 -0.0277649 -0.0265693 -0.0253605 -0.0241444 -0.0229209 -0.0216902 -0.0204566 -0.0192249 -0.0179949 -0.0167666 -0.0155458 -0.0143382 -0.0131437 -0.0119624 -0.0108026 -0.00967249 -0.00857221 -0.00750171 -0.0064711 -0.00549049 -0.00455987 -0.00367924 -0.00285759 -0.00210388 -0.00141811 -0.000800285 -0.000254555 0.000214933 0.000608178 0.000925182 0.00116957 0.00134496 0.00145135 0.00148874 0.00146996 0.00140782 0.00130231 0.00115344 0.000978826 0.000796075 0.00060519 0.000406171 0.000228471 0.000101543 2.53857e-05 0 0 2.53779e-05 0.000101512 0.000228401 0.000406047 0.000603047 0.000788001 0.000960909 0.00112177 0.00125165 0.00133162 0.00136168 0.00134182 0.00125902 0.00110023 0.000865455 0.000554695 0.000165428 -0.000304865 -0.000856184 -0.00148853 -0.0021956 -0.00297111 -0.00381504 -0.00472739 -0.00569666 -0.0067113 -0.00777133 -0.00887674 -0.0100153 -0.0111748 -0.0123552 -0.0135565 -0.0147694 -0.0159845 -0.0172019 -0.0184215 -0.0196381 -0.0208462 -0.0220458 -0.0232371 -0.0244168 -0.0255822 -0.0267331 -0.0278696 -0.0289878 -0.0300839 -0.0311581 -0.0322101 -0.0332331 -0.0342199 -0.0351706 -0.0360852 -0.0369535 -0.0377653 -0.0385207 -0.0392195 -0.0398515 -0.040406 -0.0408831 -0.0412828 -0.0415984 -0.0418233 -0.0419574 -0.0420006 -0.0419532 -0.0418149 -0.0415859 -0.0412662 -0.0408623 -0.0403812 -0.0398227 -0.0391868 -0.0384841 -0.0377251 -0.0369096 -0.0360379 -0.0351199 -0.0341661 -0.0331762 -0.0321505 -0.0310959 -0.0300195 -0.0289213 -0.0278014 -0.0266635 -0.0255115 -0.0243455 -0.0231653 -0.0219741 -0.020775 -0.0195677 -0.0183525 -0.0171346 -0.0159193 -0.0147066 -0.0134966 -0.0122985 -0.0111215 -0.00996583 -0.0088313 -0.0077301 -0.00667435 -0.00566405 -0.00469921 -0.00379122 -0.00295149 -0.00218002 -0.00147681 -0.00084807 -0.000299993 0.000167419 0.000554165 0.000862801 0.00109589 0.00125342 0.0013354 0.00135481 0.00132465 0.00124491 0.00111559 0.