<?xml version="1.0"?> 
<VTKFile type="StructuredGrid" version="0.1"> 
<StructuredGrid WholeExtent="0 128 0 128 0 0"> 
<Piece Extent="0 128 0 128 0 0"> 
<PointData>
<DataArray type="Float32" Name="u" format="ascii" NumberOfComponents="1"> 
0 0 0 0 0 0 0 0 0 0 0 0 0 0 0 0 0 0 0 0 0 0 0 0 0 0 0 0 0 0 0 0 0 0 0 0 0 0 0 0 0 0 0 0 0 0 0 0 0 0 0 0 0 0 0 0 0 0 0 0 0 0 0 0 0 0 0 0 0 0 0 0 0 0 0 0 0 0 0 0 0 0 0 0 0 0 0 0 0 0 0 0 0 0 0 0 0 0 0 0 0 0 0 0 0 0 0 0 0 0 0 0 0 0 0 0 0 0 0 0 0 0 0 0 0 0 0 0 0 0 1.54855e-07 6.1942e-07 1.39369e-06 2.47768e-06 3.67149e-06 4.77525e-06 5.78896e-06 6.71262e-06 7.43389e-06 7.84042e-06 7.93223e-06 7.7093e-06 7.09382e-06 6.00795e-06 4.4517e-06 2.42506e-06 -1.02545e-07 -3.1617e-06 -6.75241e-06 -1.08747e-05 -1.5523e-05 -2.06919e-05 -2.63814e-05 -3.25915e-05 -3.92876e-05 -4.6435e-05 -5.40336e-05 -6.20835e-05 -7.0528e-05 -7.93102e-05 -8.84301e-05 -9.78879e-05 -0.000107612 -0.000117532 -0.000127647 -0.000137957 -0.000148385 -0.00015885 -0.000169354 -0.000179897 -0.000190397 -0.000200776 -0.000211032 -0.000221166 -0.000231101 -0.000240759 -0.000250139 -0.000259243 -0.000267999 -0.000276336 -0.000284254 -0.000291755 -0.000298777 -0.000305261 -0.000311209 -0.000316618 -0.000321447 -0.000325651 -0.000329231 -0.000332187 -0.000334495 -0.000336134 -0.000337102 -0.0003374 -0.000337029 -0.000335988 -0.000334278 -0.000331899 -0.000328873 -0.000325226 -0.000320956 -0.000316063 -0.000310593 -0.000304588 -0.000298049 -0.000290975 -0.000283427 -0.000275466 -0.00026709 -0.000258299 -0.000249166 -0.000239761 -0.000230083 -0.000220134 -0.00020999 -0.00019973 -0.000189353 -0.000178859 -0.000168329 -0.000157841 -0.000147397 -0.000136997 -0.000126717 -0.000116637 -0.000106755 -9.70735e-05 -8.7661e-05 -7.85883e-05 -6.98554e-05 -6.14624e-05 -5.34649e-05 -4.59187e-05 -3.88237e-05 -3.218e-05 -2.60212e-05 -2.0381e-05 -1.52593e-05 -1.06562e-05 -6.57634e-06 -3.02443e-06 -4.885e-10 2.49549e-06 4.49443e-06 6.02722e-06 7.09387e-06 7.69438e-06 7.90626e-06 7.80702e-06 7.39667e-06 6.67521e-06 5.75403e-06 4.74453e-06 3.64671e-06 2.46058e-06 1.38408e-06 6.15145e-07 1.53786e-07 0 0 6.1942e-07 2.47768e-06 5.57478e-06 9.91072e-06 1.4686e-05 1.9101e-05 2.31559e-05 2.68505e-05 2.97356e-05 3.13617e-05 3.17289e-05 3.08372e-05 2.83753e-05 2.40318e-05 1.78068e-05 9.70024e-06 -4.10182e-07 -1.26468e-05 -2.70096e-05 -4.34987e-05 -6.2092e-05 -8.27677e-05 -0.000105526 -0.000130366 -0.00015715 -0.00018574 -0.000216134 -0.000248334 -0.000282112 -0.000317241 -0.000353721 -0.000391551 -0.000430449 -0.000470127 -0.000510588 -0.000551829 -0.000593539 -0.000635401 -0.000677417 -0.000719587 -0.000761589 -0.000803102 -0.000844128 -0.000884665 -0.000924404 -0.000963034 -0.00100056 -0.00103697 -0.00107199 -0.00110534 -0.00113702 -0.00116702 -0.00119511 -0.00122105 -0.00124483 -0.00126647 -0.00128579 -0.0013026 -0.00131692 -0.00132875 -0.00133798 -0.00134453 -0.00134841 -0.0013496 -0.00134812 -0.00134395 -0.00133711 -0.00132759 -0.00131549 -0.0013009 -0.00128382 -0.00126425 -0.00124237 -0.00121835 -0.00119219 -0.0011639 -0.00113371 -0.00110186 -0.00106836 -0.0010332 -0.000996664 -0.000959042 -0.000920333 -0.000880536 -0.000839962 -0.00079892 -0.000757412 -0.000715437 -0.000673315 -0.000631365 -0.000589589 -0.000547986 -0.000506868 -0.000466547 -0.000427022 -0.000388294 -0.000350644 -0.000314353 -0.000279422 -0.00024585 -0.00021386 -0.000183675 -0.000155295 -0.00012872 -0.000104085 -8.15241e-05 -6.10374e-05 -4.26249e-05 -2.63054e-05 -1.20977e-05 -1.954e-09 9.98198e-06 1.79777e-05 2.41089e-05 2.83755e-05 3.07775e-05 3.1625e-05 3.12281e-05 2.95867e-05 2.67008e-05 2.30161e-05 1.89781e-05 1.45868e-05 9.84232e-06 5.5363e-06 2.46058e-06 6.15145e-07 0 0 1.39369e-06 5.57478e-06 1.25433e-05 2.22991e-05 3.30434e-05 4.29773e-05 5.21007e-05 6.04136e-05 6.6905e-05 7.05638e-05 7.139e-05 6.93837e-05 6.38444e-05 5.40715e-05 4.00653e-05 2.18255e-05 -9.22909e-07 -2.84553e-05 -6.07717e-05 -9.7872e-05 -0.000139707 -0.000186227 -0.000237433 -0.000293324 -0.000353588 -0.000417915 -0.000486302 -0.000558752 -0.000634752 -0.000713792 -0.000795871 -0.000880991 -0.000968509 -0.00105779 -0.00114882 -0.00124162 -0.00133546 -0.00142965 -0.00152419 -0.00161907 -0.00171357 -0.00180698 -0.00189929 -0.0019905 -0.00207991 -0.00216683 -0.00225125 -0.00233318 -0.00241199 -0.00248702 -0.00255829 -0.00262579 -0.00268899 -0.00274735 -0.00280088 -0.00284956 -0.00289302 -0.00293086 -0.00296308 -0.00298968 -0.00301046 -0.0030252 -0.00303392 -0.0030366 -0.00303326 -0.00302389 -0.0030085 -0.00298709 -0.00295986 -0.00292703 -0.0028886 -0.00284457 -0.00279533 -0.00274129 -0.00268244 -0.00261878 -0.00255085 -0.00247919 -0.00240381 -0.00232469 -0.00224249 -0.00215785 -0.00207075 -0.00198121 -0.00188991 -0.00179757 -0.00170418 -0.00160973 -0.00151496 -0.00142057 -0.00132658 -0.00123297 -0.00114045 -0.00104973 -0.000960799 -0.000873661 -0.000788949 -0.000707295 -0.000628699 -0.000553162 -0.000481184 -0.000413268 -0.000349413 -0.00028962 -0.000234191 -0.000183429 -0.000137334 -9.59059e-05 -5.91871e-05 -2.72199e-05 -4.3965e-09 2.24595e-05 4.04498e-05 5.4245e-05 6.38448e-05 6.92494e-05 7.11563e-05 7.02632e-05 6.65701e-05 6.00769e-05 5.17862e-05 4.27007e-05 3.28204e-05 2.21452e-05 1.24567e-05 5.5363e-06 1.38408e-06 0 0 2.47768e-06 9.91072e-06 2.22991e-05 3.96429e-05 5.87439e-05 7.64041e-05 9.26234e-05 0.000107402 0.000118942 0.000125447 0.000126916 0.000123349 0.000113501 9.61272e-05 7.12271e-05 3.88009e-05 -1.64073e-06 -5.05872e-05 -0.000108039 -0.000173995 -0.000248368 -0.000331071 -0.000422103 -0.000521465 -0.000628602 -0.000742959 -0.000864537 -0.000993336 -0.00112845 -0.00126896 -0.00141488 -0.00156621 -0.00172179 -0.00188051 -0.00204235 -0.00220732 -0.00237415 -0.0025416 -0.00270967 -0.00287835 -0.00304635 -0.00321241 -0.00337651 -0.00353866 -0.00369761 -0.00385214 -0.00400223 -0.00414788 -0.00428798 -0.00442137 -0.00454807 -0.00466807 -0.00478043 -0.00488418 -0.00497934 -0.00506589 -0.00514315 -0.00521042 -0.0052677 -0.00531499 -0.00535192 -0.00537814 -0.00539363 -0.00539841 -0.00539246 -0.00537581 -0.00534845 -0.00531038 -0.00526197 -0.00520361 -0.00513529 -0.00505701 -0.00496948 -0.0048734 -0.00476878 -0.0046556 -0.00453484 -0.00440745 -0.00427343 -0.00413279 -0.00398665 -0.00383617 -0.00368133 -0.00352215 -0.00335985 -0.00319568 -0.00302965 -0.00286175 -0.00269326 -0.00252546 -0.00235836 -0.00219195 -0.00202747 -0.00186619 -0.00170809 -0.00155318 -0.00140258 -0.00125741 -0.00111769 -0.000983398 -0.000855438 -0.000734699 -0.000621179 -0.00051488 -0.00041634 -0.000326096 -0.00024415 -0.000170499 -0.000105222 -4.8391e-05 -7.816e-09 3.99279e-05 7.19108e-05 9.64355e-05 0.000113502 0.00012311 0.0001265 0.000124912 0.000118347 0.000106803 9.20644e-05 7.59124e-05 5.83474e-05 3.93693e-05 2.21452e-05 9.84232e-06 2.46058e-06 0 0 3.66207e-06 1.46483e-05 3.29586e-05 5.85931e-05 8.67435e-05 0.000112602 0.000136168 0.000157441 0.000173716 0.000182284 0.000183146 0.000176301 0.000159886 0.000132034 9.27454e-05 4.20209e-05 -2.08607e-05 -9.66204e-05 -0.000185258 -0.000286774 -0.000401012 -0.000527815 -0.000667184 -0.000819118 -0.000982753 -0.00115722 -0.00134253 -0.00153868 -0.00174427 -0.0019579 -0.00217957 -0.00240929 -0.00264532 -0.00288593 -0.0031311 -0.00338085 -0.00363328 -0.00388647 -0.00414044 -0.00439518 -0.00464877 -0.00489928 -0.00514671 -0.00539105 -0.00563047 -0.00586311 -0.00608897 -0.00630805 -0.00651867 -0.00671916 -0.00690952 -0.00708974 -0.00725842 -0.00741415 -0.00755693 -0.00768677 -0.00780264 -0.00790351 -0.00798939 -0.00806028 -0.00811563 -0.00815492 -0.00817814 -0.00818529 -0.00817638 -0.00815141 -0.00811039 -0.00805332 -0.00798075 -0.00789324 -0.00779078 -0.00767337 -0.00754205 -0.00739787 -0.00724081 -0.00707089 -0.00688951 -0.00669811 -0.00649667 -0.0062852 -0.00606539 -0.00583891 -0.00560579 -0.00536601 -0.00512142 -0.00487388 -0.00462339 -0.00436995 -0.00411548 -0.0038619 -0.00360921 -0.00335742 -0.0031084 -0.00286405 -0.00262437 -0.00238935 -0.00216072 -0.00194018 -0.00172774 -0.00152339 -0.00132852 -0.00114447 -0.000971272 -0.000808908 -0.000658221 -0.000520051 -0.000394399 -0.000281264 -0.000180784 -9.30958e-05 -1.82e-05 4.39036e-05 9.3944e-05 0.000132651 0.000160023 0.000176062 0.000182624 0.000181569 0.000172894 0.000156601 0.000135374 0.000111898 8.6173e-05 5.81984e-05 3.27366e-05 1.45496e-05 3.6374e-06 0 0 4.73755e-06 1.89502e-05 4.26379e-05 7.58008e-05 0.000111998 0.00014479 0.000174177 0.000200157 0.000219094 0.000227348 0.00022492 0.00021181 0.000185538 0.000143626 8.6073e-05 1.28799e-05 -7.68799e-05 -0.000184133 -0.000308879 -0.000451118 -0.000610576 -0.000786978 -0.000980323 -0.00119061 -0.0014166 -0.00165706 -0.00191198 -0.00218137 -0.00246327 -0.00275573 -0.00305876 -0.00337235 -0.00369412 -0.00402167 -0.00435501 -0.00469414 -0.00503649 -0.00537947 -0.00572309 -0.00606735 -0.00640967 -0.00674748 -0.00708078 -0.00740958 -0.00773142 -0.00804388 -0.00834697 -0.00864066 -0.00892279 -0.00919117 -0.00944579 -0.00968666 -0.00991195 -0.0101199 -0.0103104 -0.0104835 -0.0106379 -0.0107724 -0.0108868 -0.0109812 -0.0110548 -0.0111071 -0.011138 -0.0111475 -0.0111357 -0.0111024 -0.0110478 -0.0109718 -0.0108751 -0.0107585 -0.0106219 -0.0104654 -0.0102903 -0.0100979 -0.00988814 -0.00966115 -0.0094187 -0.00916263 -0.00889295 -0.00860964 -0.00831492 -0.00801098 -0.00769782 -0.00737544 -0.00704629 -0.00671279 -0.00637496 -0.0060328 -0.00568887 -0.00534574 -0.00500341 -0.00466188 -0.00432371 -0.00399146 -0.00366513 -0.00334471 -0.00303258 -0.00273107 -0.00244021 -0.00215998 -0.00189231 -0.00163911 -0.00140037 -0.00117611 -0.000967524 -0.00077582 -0.000600998 -0.000443058 -0.000302249 -0.000178819 -7.27687e-05 1.59026e-05 8.81329e-05 0.000144861 0.000186086 0.000211808 0.000224497 0.000226625 0.000218189 0.000199191 0.00017324 0.000143944 0.000111302 7.53166e-05 4.23656e-05 1.88291e-05 4.70729e-06 0 0 5.70412e-06 2.28165e-05 5.13371e-05 9.1266e-05 0.000134508 0.00017297 0.000206651 0.00023555 0.000255077 0.000260641 0.00025224 0.000229874 0.000190458 0.000130903 5.12099e-05 -4.8622e-05 -0.000169698 -0.000313125 -0.000478901 -0.000667027 -0.000877061 -0.00110856 -0.00136152 -0.00163595 -0.00193016 -0.00224247 -0.00257289 -0.00292141 -0.00328546 -0.00366248 -0.00405245 -0.00445538 -0.00486817 -0.00528774 -0.00571408 -0.00614719 -0.00658379 -0.0070206 -0.00745761 -0.00789484 -0.00832905 -0.00875701 -0.00917874 -0.00959423 -0.0100005 -0.0103945 -0.0107762 -0.0111457 -0.0115003 -0.0118374 -0.0121569 -0.0124588 -0.012741 -0.0130013 -0.0132397 -0.0134561 -0.0136491 -0.013817 -0.0139598 -0.0140776 -0.0141695 -0.0142348 -0.0142733 -0.0142851 -0.0142703 -0.0142288 -0.0141606 -0.0140658 -0.0139451 -0.0137994 -0.0136288 -0.0134332 -0.0132142 -0.0129734 -0.0127108 -0.0124264 -0.0121224 -0.011801 -0.0114623 -0.0111061 -0.0107353 -0.0103524 -0.00995743 -0.00955046 -0.00913445 -0.00871242 -0.00828437 -0.00785031 -0.00741344 -0.00697699 -0.00654096 -0.00610534 -0.00567341 -0.00524842 -0.00483036 -0.00441925 -0.00401814 -0.00363009 -0.0032551 -0.00289316 -0.00254682 -0.00221859 -0.00190848 -0.00161649 -0.00134425 -0.0010934 -0.000863947 -0.000655883 -0.000469618 -0.000305562 -0.000163714 -4.4075e-05 5.44774e-05 0.000133065 0.000191689 0.000230347 0.000252119 0.000260081 0.000254232 0.000234574 0.000205661 0.000172048 0.000133736 9.07238e-05 5.10321e-05 2.26809e-05 5.67024e-06 0 0 6.56179e-06 2.62472e-05 5.90561e-05 0.000104989 0.000154274 0.000197141 0.00023359 0.00026362 0.000281666 0.00028216 0.000265103 0.000230495 0.000174646 9.38665e-05 -1.18439e-05 -0.000142485 -0.000299316 -0.000483595 -0.000695324 -0.000934501 -0.00120047 -0.00149256 -0.00181078 -0.00215512 -0.00252341 -0.00291345 -0.00332525 -0.0037588 -0.00421085 -0.00467812 -0.00516063 -0.00565837 -0.00616749 -0.00668413 -0.0072083 -0.00773999 -0.00827518 -0.00880986 -0.00934402 -0.00987766 -0.0104069 -0.0109279 -0.0114406 -0.011945 -0.0124376 -0.0129149 -0.0133767 -0.0138232 -0.0142513 -0.0146578 -0.0150428 -0.0154063 -0.0157457 -0.0160585 -0.0163448 -0.0166046 -0.0168361 -0.0170374 -0.0172086 -0.0173497 -0.0174598 -0.0175378 -0.017584 -0.0175981 -0.0175803 -0.0175306 -0.0174489 -0.0173352 -0.0171906 -0.017016 -0.0168113 -0.0165766 -0.0163137 -0.0160244 -0.0157087 -0.0153666 -0.0150006 -0.0146133 -0.0142046 -0.0137746 -0.0133264 -0.0128631 -0.0123846 -0.011891 -0.0113859 -0.0108728 -0.0103516 -0.00982246 -0.00928918 -0.00875564 -0.00822185 -0.0076878 -0.00715749 -0.00663491 -0.00612008 -0.00561297 -0.00511742 -0.00463723 -0.0041724 -0.00372294 -0.00329204 -0.00288293 -0.00249559 -0.00213004 -0.0017884 -0.0014728 -0.00118325 -0.000919736 -0.000682889 -0.000473322 -0.000291036 -0.000136029 -7.0225e-06 9.72648e-05 0.000176833 0.000231681 0.000265489 0.000281937 0.000281023 0.000262749 0.000232638 0.000196212 0.000153473 0.00010442 5.87363e-05 2.6105e-05 6.52625e-06 0 0 7.1882e-06 2.87528e-05 6.46938e-05 0.000115011 0.000168344 0.000213331 0.000249972 0.000278267 0.000291702 0.000283762 0.000254448 0.000203758 0.000127457 2.13072e-05 -0.00011469 -0.000280536 -0.000477576 -0.000707159 -0.000969285 -0.00126395 -0.00159021 -0.00194709 -0.00233461 -0.00275276 -0.00319877 -0.00366987 -0.00416605 -0.00468733 -0.00522969 -0.0057891 -0.00636557 -0.00695911 -0.00756505 -0.00817876 -0.00880024 -0.00942948 -0.0100617 -0.0106923 -0.0113211 -0.0119482 -0.012569 -0.0131792 -0.0137787 -0.0143676 -0.0149417 -0.0154972 -0.016034 -0.0165522 -0.0170483 -0.0175189 -0.017964 -0.0183837 -0.0187752 -0.0191358 -0.0194656 -0.0197644 -0.0200304 -0.0202618 -0.0204584 -0.0206203 -0.0207465 -0.0208361 -0.0208889 -0.0209051 -0.0208847 -0.0208276 -0.0207338 -0.0206034 -0.0204373 -0.0202367 -0.0200014 -0.0197315 -0.019429 -0.0190957 -0.0187317 -0.018337 -0.0179143 -0.0174663 -0.0169931 -0.0164947 -0.0159744 -0.0154358 -0.0148788 -0.0143034 -0.0137136 -0.0131135 -0.012503 -0.0118821 -0.0112553 -0.0106272 -0.00999756 -0.00936655 -0.00873884 -0.00811916 -0.00750751 -0.00690388 -0.00631287 -0.0057391 -0.00518254 -0.00464321 -0.00412506 -0.00363205 -0.00316416 -0.0027214 -0.00230648 -0.0019221 -0.00156827 -0.00124498 -0.000953131 -0.000693636 -0.00046649 -0.000271695 -0.000107874 2.63451e-05 0.000130964 0.000205982 0.000255627 0.000284124 0.000291473 0.000277676 0.000249197 0.000212503 0.000167593 0.000114467 6.43877e-05 2.86168e-05 7.15419e-06 0 0 7.461e-06 2.9844e-05 6.7149e-05 0.000119376 0.000173768 0.000217569 0.000250777 0.000273394 0.000278032 0.000257303 0.000211209 0.000139748 3.82435e-05 -9.79828e-05 -0.000268931 -0.0004746 -0.000716323 -0.00099543 -0.00131192 -0.0016658 -0.00205571 -0.00248029 -0.00293955 -0.00343348 -0.00395864 -0.00451158 -0.0050923 -0.0057008 -0.00633225 -0.00698183 -0.00764952 -0.00833534 -0.00903383 -0.00973954 -0.0104525 -0.0111726 -0.0118946 -0.0126129 -0.0133276 -0.0140387 -0.0147412 -0.0154302 -0.0161057 -0.0167676 -0.0174117 -0.0180337 -0.0186337 -0.0192116 -0.0197639 -0.020287 -0.0207811 -0.021246 -0.0216791 -0.0220776 -0.0224415 -0.0227709 -0.0230638 -0.0233183 -0.0235345 -0.0237124 -0.0238509 -0.0239492 -0.0240072 -0.0240249 -0.0240024 -0.0239396 -0.0238366 -0.0236933 -0.0235108 -0.02329 -0.023031 -0.0227337 -0.0224001 -0.0220321 -0.0216297 -0.0211929 -0.0207244 -0.0202271 -0.0197009 -0.0191458 -0.0185654 -0.0179633 -0.0173393 -0.0166936 -0.0160305 -0.0153542 -0.0146647 -0.013962 -0.0132511 -0.012537 -0.0118195 -0.0110989 -0.0103804 -0.00966936 -0.0089659 -0.00826996 -0.00758696 -0.00692228 -0.00627593 -0.0056479 -0.00504296 -0.00446586 -0.00391661 -0.0033952 -0.002905 -0.0024494 -0.00202838 -0.00164195 -0.00129141 -0.000978034 -0.000701834 -0.000462806 -0.000259586 -9.08076e-05 4.35295e-05 0.000143425 0.00021355 0.000258572 0.000278494 0.000273314 0.000250367 0.000216987 0.000173173 0.000118927 6.68962e-05 2.97317e-05 7.43292e-06 0 0 7.38019e-06 2.95208e-05 6.64217e-05 0.000118083 0.000170546 0.000209854 0.000236004 0.000248999 0.000240653 0.000202782 0.000135386 3.84658e-05 -9.29931e-05 -0.000264003 -0.000474566 -0.000724679 -0.00101556 -0.00134841 -0.00172324 -0.00214004 -0.00259696 -0.00309214 -0.00362558 -0.00419728 -0.00480303 -0.00543859 -0.00610399 -0.00679921 -0.00751855 -0.00825631 -0.00901249 -0.00978708 -0.0105738 -0.0113665 -0.012165 -0.0129694 -0.0137736 -0.0145717 -0.0153636 -0.0161493 -0.0169234 -0.0176808 -0.0184213 -0.019145 -0.0198475 -0.0205244 -0.0211757 -0.0218014 -0.0223981 -0.0229622 -0.0234939 -0.0239931 -0.0244573 -0.0248838 -0.0252728 -0.0256241 -0.0259361 -0.0262071 -0.0264371 -0.026626 -0.026773 -0.0268772 -0.0269387 -0.0269574 -0.0269334 -0.0268667 -0.0267572 -0.026605 -0.0264109 -0.026176 -0.0259 -0.0255832 -0.0252271 -0.0248336 -0.0244026 -0.0239343 -0.023431 -0.0228956 -0.0223279 -0.021728 -0.0210993 -0.0204454 -0.0197663 -0.0190618 -0.0183365 -0.0175948 -0.0168367 -0.0160622 -0.0152765 -0.014485 -0.0136878 -0.0128848 -0.012082 -0.0112855 -0.0104953 -0.00971124 -0.00893968 -0.00818678 -0.00745256 -0.006737 -0.00604573 -0.00538438 -0.00475295 -0.00415144 -0.00358397 -0.00305469 -0.00256359 -0.00211067 -0.00169772 -0.00132652 -0.000997066 -0.000709364 -0.000462158 -0.000254194 -8.5471e-05 4.40099e-05 0.000139258 0.000205283 0.000242085 0.000249664 0.000236147 0.000209665 0.000170215 0.000117799 6.62619e-05 2.94497e-05 7.36243e-06 0 0 6.94577e-06 2.77831e-05 6.25119e-05 0.000111132 0.000158679 0.000190186 0.000205654 0.000205083 0.000179567 0.000120199 2.69808e-05 -0.000100089 -0.000266253 -0.000476755 -0.000731595 -0.00103077 -0.00137528 -0.00176609 -0.00220322 -0.00268667 -0.00321397 -0.00378265 -0.00439271 -0.00504417 -0.00573192 -0.00645091 -0.00720112 -0.00798256 -0.00878858 -0.00961255 -0.0104545 -0.0113143 -0.012185 -0.0130595 -0.0139378 -0.0148198 -0.015699 -0.0165687 -0.017429 -0.0182799 -0.0191157 -0.019931 -0.0207258 -0.0214999 -0.0222492 -0.0229692 -0.0236601 -0.0243217 -0.0249509 -0.0255445 -0.0261026 -0.0266251 -0.0271098 -0.0275546 -0.0279593 -0.0283241 -0.0286475 -0.0289281 -0.0291659 -0.029361 -0.0295126 -0.0296201 -0.0296835 -0.0297027 -0.0296778 -0.0296088 -0.0294957 -0.0293384 -0.0291378 -0.0288945 -0.0286085 -0.0282798 -0.0279099 -0.0275001 -0.0270505 -0.0265611 -0.0260341 -0.0254718 -0.0248742 -0.0242413 -0.0235762 -0.0228823 -0.0221596 -0.0214079 -0.0206318 -0.0198355 -0.0190191 -0.0181826 -0.0173315 -0.0164714 -0.0156024 -0.0147243 -0.0138439 -0.0129676 -0.0120956 -0.0112277 -0.010371 -0.00953261 -0.00871243 -0.0079105 -0.00713337 -0.0063876 -0.00567318 -0.00499011 -0.00434339 -0.00373798 -0.0031739 -0.00265113 -0.00217207 -0.00173909 -0.00135219 -0.00101137 -0.000715589 -0.000463813 -0.000256037 -9.22638e-05 3.27525e-05 0.000124256 0.000182247 0.000206725 0.000206538 0.000190536 0.000158718 0.000111084 6.24846e-05 2.77709e-05 6.94273e-06 0 0 6.07873e-06 2.43149e-05 5.47085e-05 9.72596e-05 0.000136274 0.000156058 0.000156612 0.000137936 9.05268e-05 4.88377e-06 -0.000118993 -0.000281105 -0.000486768 -0.0007413 -0.0010447 -0.00139697 -0.00179874 -0.00225061 -0.00275259 -0.00330468 -0.00390369 -0.00454639 -0.0052328 -0.00596291 -0.00673068 -0.00753006 -0.00836106 -0.00922366 -0.0101102 -0.0110132 -0.0119325 -0.0128681 -0.0138122 -0.0147568 -0.015702 -0.0166478 -0.017587 -0.0185127 -0.0194248 -0.0203233 -0.0212027 -0.0220572 -0.022887 -0.0236919 -0.024468 -0.0252113 -0.0259217 -0.0265994 -0.0272415 -0.0278456 -0.0284115 -0.0289394 -0.0294277 -0.0298747 -0.0302805 -0.030645 -0.0309674 -0.0312468 -0.0314833 -0.0316767 -0.0318269 -0.0319332 -0.0319959 -0.0320148 -0.03199 -0.0319214 -0.0318091 -0.0316531 -0.0314538 -0.0312116 -0.0309265 -0.0305984 -0.0302284 -0.0298172 -0.029365 -0.0288716 -0.0283388 -0.0277681 -0.0271596 -0.0265132 -0.0258317 -0.0251177 -0.0243713 -0.0235923 -0.0227849 -0.0219532 -0.0210972 -0.0202168 -0.0193177 -0.0184055 -0.0174802 -0.0165419 -0.0155976 -0.0146543 -0.013712 -0.0127708 -0.0118384 -0.0109227 -0.0100238 -0.00914151 -0.0082835 -0.00745726 -0.00666282 -0.00590015 -0.00517521 -0.00449393 -0.00385632 -0.00326236 -0.00271518 -0.00221788 -0.00177045 -0.0013729 -0.00102454 -0.000724698 -0.000473367 -0.000270548 -0.000110916 1.08557e-05 9.47665e-05 0.000140817 0.000158451 0.000157114 0.000136807 9.7528e-05 5.48595e-05 2.4382e-05 6.0955e-06 0 0 4.70005e-06 1.88002e-05 4.23005e-05 7.52008e-05 0.000101441 0.000104963 8.5764e-05 4.38459e-05 -3.07135e-05 -0.000147836 -0.000307522 -0.00050977 -0.000759768 -0.0010627 -0.00141857 -0.00182738 -0.00228919 -0.00280407 -0.00337203 -0.00399307 -0.00466307 -0.00537795 -0.00613769 -0.0069423 -0.00778466 -0.00865761 -0.00956118 -0.0104954 -0.0114515 -0.0124208 -0.0134035 -0.0143994 -0.0153999 -0.0163964 -0.0173888 -0.0183772 -0.0193542 -0.0203124 -0.0212518 -0.0221725 -0.0230689 -0.0239358 -0.024773 -0.0255807 -0.0263553 -0.0270937 -0.0277957 -0.0284614 -0.0290891 -0.029677 -0.0302253 -0.0307338 -0.031202 -0.0316293 -0.0320156 -0.032361 -0.0326655 -0.0329288 -0.0331511 -0.0333324 -0.0334726 -0.033572 -0.0336304 -0.0336478 -0.0336244 -0.03356 -0.0334547 -0.0333085 -0.0331213 -0.0328931 -0.0326239 -0.0323136 -0.0319624 -0.0315704 -0.0311376 -0.0306639 -0.0301501 -0.0295968 -0.0290039 -0.0283716 -0.0277015 -0.0269954 -0.0262534 -0.0254753 -0.0246647 -0.023825 -0.0229561 -0.0220581 -0.0211365 -0.0201965 -0.0192384 -0.018262 -0.0172747 -0.0162839 -0.0152896 -0.0142918 -0.0132991 -0.0123201 -0.0113548 -0.0104031 -0.0094737 -0.00857513 -0.00770738 -0.00687048 -0.00607141 -0.00531721 -0.00460788 -0.0039434 -0.00332778 -0.00276501 -0.0022551 -0.00179803 -0.00139368 -0.00104188 -0.000742657 -0.000495995 -0.000296695 -0.000139553 -2.45679e-05 4.82596e-05 8.87973e-05 0.000106913 0.000102607 7.58785e-05 4.26817e-05 1.89696e-05 4.74241e-06 0 0 2.80975e-06 1.1239e-05 2.52877e-05 4.4956e-05 5.41806e-05 3.68985e-05 -6.89036e-06 -7.7186e-05 -0.000184154 -0.00033796 -0.000538604 -0.000786085 -0.00108525 -0.00144096 -0.0018532 -0.00232198 -0.00284663 -0.00342649 -0.00406155 -0.00475182 -0.00549213 -0.00627732 -0.00710739 -0.00798234 -0.00889384 -0.00983356 -0.0108015 -0.0117976 -0.0128122 -0.0138355 -0.0148675 -0.0159082 -0.0169482 -0.0179782 -0.0189982 -0.0200081 -0.0210005 -0.0219678 -0.0229101 -0.0238272 -0.0247144 -0.0255666 -0.0263839 -0.0271662 -0.0279111 -0.0286164 -0.029282 -0.0299079 -0.0304937 -0.031039 -0.0315438 -0.0320081 -0.0324327 -0.0328182 -0.0331647 -0.0334722 -0.0337417 -0.0339741 -0.0341695 -0.0343279 -0.03445 -0.0345363 -0.0345869 -0.0346019 -0.0345811 -0.0345246 -0.0344324 -0.0343045 -0.0341403 -0.033939 -0.0337007 -0.0334253 -0.033112 -0.0327597 -0.0323684 -0.0319381 -0.0314681 -0.0309579 -0.0304073 -0.0298163 -0.0291856 -0.0285154 -0.0278059 -0.027057 -0.0262711 -0.0254508 -0.024596 -0.0237067 -0.0227879 -0.0218446 -0.0208768 -0.0198846 -0.0188753 -0.0178566 -0.0168285 -0.015791 -0.0147533 -0.0137248 -0.0127054 -0.0116953 -0.010704 -0.00974118 -0.00880688 -0.00790108 -0.00703199 -0.00620782 -0.00542857 -0.00469424 -0.00400987 -0.0033805 -0.00280614 -0.00228677 -0.00182299 -0.00141537 -0.00106391 -0.000768606 -0.000524586 -0.00032697 -0.000175757 -7.09464e-05 -2.42238e-06 3.99326e-05 5.61185e-05 4.61353e-05 2.59511e-05 1.15338e-05 2.88346e-06 0 0 4.07816e-07 1.63126e-06 3.67034e-06 6.52505e-06 -5.50837e-06 -4.81337e-05 -0.000121351 -0.00022516 -0.000369794 -0.000565488 -0.00081224 -0.00111005 -0.00146323 -0.00187608 -0.0023486 -0.00288079 -0.00347107 -0.00411786 -0.00482115 -0.00558094 -0.00639085 -0.0072445 -0.00814189 -0.00908302 -0.0100582 -0.0110579 -0.012082 -0.0131305 -0.0141925 -0.0152572 -0.0163246 -0.0173946 -0.0184572 -0.0195024 -0.0205301 -0.0215405 -0.022526 -0.023479 -0.0243996 -0.0252877 -0.0261392 -0.0269498 -0.0277195 -0.0284484 -0.0291354 -0.0297795 -0.0303806 -0.0309387 -0.0314552 -0.0319313 -0.0323671 -0.0327624 -0.0331198 -0.0334416 -0.0337279 -0.0339786 -0.034196 -0.0343827 -0.0345384 -0.0346633 -0.0347588 -0.0348262 -0.0348655 -0.0348768 -0.0348601 -0.0348152 -0.0347423 -0.0346412 -0.0345107 -0.0343493 -0.0341569 -0.0339336 -0.0336771 -0.033385 -0.0330573 -0.0326941 -0.0322928 -0.0318513 -0.0313696 -0.0308475 -0.0302839 -0.0296777 -0.0290288 -0.0283373 -0.0276042 -0.0268306 -0.0260167 -0.0251624 -0.024272 -0.0233497 -0.0223956 -0.0214097 -0.0203994 -0.0193724 -0.0183286 -0.0172681 -0.0162008 -0.0151367 -0.0140758 -0.0130181 -0.0119744 -0.0109554 -0.00996131 -0.00899197 -0.00805695 -0.00716576 -0.00631841 -0.00551489 -0.00476145 -0.00406434 -0.00342356 -0.00283912 -0.00231249 -0.00184515 -0.00143712 -0.00108838 -0.000794588 -0.000551395 -0.000358799 -0.000216801 -0.000115208 -4.38273e-05 -2.65838e-06 8.29844e-06 4.66787e-06 2.07461e-06 5.18653e-07 0 0 -2.52114e-06 -1.00846e-05 -2.26903e-05 -4.03382e-05 -7.79721e-05 -0.000150536 -0.000258028 -0.000400451 -0.00058789 -0.000830434 -0.00112808 -0.00148084 -0.00189221 -0.00236574 -0.00290141 -0.00349922 -0.00415646 -0.00487041 -0.00564106 -0.00646842 -0.0073447 -0.00826211 -0.00922065 -0.0102203 -0.01125 -0.0122987 -0.0133663 -0.0144528 -0.0155461 -0.0166342 -0.0177172 -0.0187949 -0.0198567 -0.0208922 -0.0219011 -0.0228837 -0.0238324 -0.0247401 -0.0256068 -0.0264324 -0.0272137 -0.0279477 -0.0286344 -0.0292736 -0.0298662 -0.0304129 -0.0309136 -0.0313683 -0.0317806 -0.0321537 -0.0324877 -0.0327826 -0.0330429 -0.0332731 -0.0334733 -0.0336434 -0.0337874 -0.0339095 -0.0340095 -0.0340875 -0.0341459 -0.0341868 -0.0342105 -0.0342167 -0.0342056 -0.034177 -0.0341311 -0.0340677 -0.0339846 -0.0338793 -0.0337519 -0.0336023 -0.0334266 -0.0332207 -0.0329846 -0.0327184 -0.0324175 -0.0320775 -0.0316983 -0.0312801 -0.0308195 -0.0303131 -0.0297609 -0.0291631 -0.0285189 -0.0278277 -0.0270896 -0.0263046 -0.0254759 -0.0246068 -0.0236972 -0.0227471 -0.021764 -0.0207552 -0.0197206 -0.0186602 -0.0175847 -0.0165046 -0.0154199 -0.0143306 -0.0132487 -0.0121862 -0.0111431 -0.0101194 -0.00912594 -0.00817382 -0.00726299 -0.00639347 -0.00557288 -0.00480886 -0.00410142 -0.00345056 -0.00285887 -0.00232897 -0.00186085 -0.00145451 -0.00110637 -0.000812854 -0.000573958 -0.000389684 -0.000249973 -0.000144769 -7.40704e-05 -3.78782e-05 -2.13065e-05 -9.46956e-06 -2.36739e-06 0 0 -5.99251e-06 -2.397e-05 -5.39326e-05 -9.58801e-05 -0.000163557 -0.000270709 -0.000417334 -0.000603433 -0.000838697 -0.00113281 -0.00148579 -0.00189761 -0.00237074 -0.00290764 -0.00350829 -0.0041727 -0.00489676 -0.00567638 -0.00651154 -0.00740226 -0.00833912 -0.00931275 -0.0103231 -0.0113703 -0.0124415 -0.013524 -0.0146179 -0.0157233 -0.0168266 -0.0179148 -0.0189878 -0.0200456 -0.021077 -0.022071 -0.0230276 -0.0239468 -0.0248217 -0.0256456 -0.0264182 -0.0271398 -0.0278086 -0.0284229 -0.0289826 -0.0294878 -0.0299415 -0.0303466 -0.0307031 -0.0310111 -0.0312765 -0.0315056 -0.0316982 -0.0318545 -0.0319815 -0.0320865 -0.0321693 -0.03223 -0.0322747 -0.0323095 -0.0323343 -0.0323493 -0.0323578 -0.0323634 -0.0323659 -0.0323654 -0.032362 -0.0323554 -0.0323457 -0.032333 -0.0323137 -0.0322843 -0.0322448 -0.0321951 -0.0321292 -0.032041 -0.0319304 -0.0317975 -0.0316352 -0.0314364 -0.0312011 -0.0309293 -0.030615 -0.0302522 -0.029841 -0.0293813 -0.0288703 -0.0283051 -0.0276859 -0.0270125 -0.0262868 -0.0255107 -0.024684 -0.0238069 -0.0228862 -0.0219288 -0.0209348 -0.0199041 -0.0188478 -0.0177771 -0.0166918 -0.0155921 -0.0144911 -0.013402 -0.0123248 -0.0112595 -0.0102186 -0.00921479 -0.00824795 -0.00731811 -0.00643451 -0.00560639 -0.00483374 -0.00411657 -0.00345885 -0.00286455 -0.00233366 -0.00186619 -0.0014596 -0.00111137 -0.000821496 -0.000589973 -0.000407131 -0.000263294 -0.000158464 -9.26408e-05 -5.21104e-05 -2.31602e-05 -5.79005e-06 0 0 -1.00063e-05 -4.00252e-05 -9.00566e-05 -0.000160101 -0.000262264 -0.000408653 -0.000599267 -0.000834107 -0.00112221 -0.00147263 -0.00188535 -0.00236038 -0.00289882 -0.00350177 -0.00416924 -0.00490121 -0.00569197 -0.00653576 -0.00743258 -0.00838245 -0.00937414 -0.0103964 -0.0114493 -0.0125328 -0.0136325 -0.0147339 -0.015837 -0.016942 -0.0180341 -0.0190989 -0.0201364 -0.0211466 -0.022118 -0.023039 -0.0239097 -0.02473 -0.0254939 -0.0261952 -0.026834 -0.0274101 -0.0279238 -0.0283752 -0.0287643 -0.0290911 -0.0293614 -0.0295807 -0.0297493 -0.0298669 -0.0299431 -0.029987 -0.0299987 -0.0299782 -0.0299358 -0.0298817 -0.0298159 -0.0297384 -0.0296578 -0.0295827 -0.029513 -0.0294487 -0.0293947 -0.0293558 -0.0293319 -0.029323 -0.0293292 -0.0293503 -0.0293863 -0.0294372 -0.0294982 -0.0295643 -0.0296356 -0.029712 -0.029785 -0.0298459 -0.0298947 -0.0299316 -0.0299461 -0.0299282 -0.0298778 -0.029795 -0.0296705 -0.0294952 -0.0292689 -0.0289919 -0.0286584 -0.0282629 -0.0278055 -0.0272861 -0.0267048 -0.0260614 -0.0253561 -0.0245889 -0.0237659 -0.0228934 -0.0219714 -0.0209998 -0.0199903 -0.0189542 -0.0178916 -0.0168025 -0.0157014 -0.0146026 -0.0135063 -0.0124123 -0.011335 -0.0102887 -0.00927328 -0.00828882 -0.00734636 -0.00645692 -0.00562053 -0.00483716 -0.00411242 -0.00345188 -0.00285555 -0.00232342 -0.00185429 -0.00144695 -0.00110141 -0.000817669 -0.00058668 -0.000399404 -0.00025584 -0.000155989 -8.77439e-05 -3.89973e-05 -9.74932e-06 0 0 -1.45625e-05 -5.825e-05 -0.000131062 -0.000233 -0.000374092 -0.000564368 -0.000803828 -0.00109247 -0.00143844 -0.00184988 -0.00232677 -0.00286914 -0.00347644 -0.00414814 -0.00488425 -0.00568477 -0.00654208 -0.00744855 -0.00840419 -0.009409 -0.0104497 -0.0115131 -0.0125992 -0.0137079 -0.0148231 -0.0159283 -0.0170236 -0.0181089 -0.0191686 -0.0201866 -0.0211631 -0.022098 -0.0229796 -0.023796 -0.0245472 -0.0252332 -0.025849 -0.0263892 -0.0268539 -0.0272432 -0.0275593 -0.0278048 -0.0279795 -0.0280835 -0.0281257 -0.0281152 -0.0280519 -0.0279359 -0.0277802 -0.027598 -0.0273891 -0.0271537 -0.0269056 -0.0266587 -0.026413 -0.0261686 -0.0259368 -0.0257291 -0.0255454 -0.0253857 -0.0252565 -0.025164 -0.0251084 -0.0250895 -0.0251072 -0.0251616 -0.0252527 -0.0253803 -0.025538 -0.0257194 -0.0259244 -0.0261531 -0.0263939 -0.0266354 -0.0268775 -0.0271204 -0.0273501 -0.0275529 -0.0277286 -0.0278773 -0.027986 -0.0280419 -0.0280448 -0.0279949 -0.0278832 -0.0277011 -0.0274485 -0.0271255 -0.0267297 -0.0262591 -0.0257136 -0.0250932 -0.0244032 -0.0236489 -0.0228303 -0.0219474 -0.021012 -0.020036 -0.0190193 -0.0179619 -0.0168796 -0.0157882 -0.0146876 -0.0135779 -0.0124751 -0.0113955 -0.010339 -0.0093056 -0.00830841 -0.00736047 -0.00646178 