<?xml version="1.0"?> 
<VTKFile type="StructuredGrid" version="0.1"> 
<StructuredGrid WholeExtent="0 128 0 128 0 0"> 
<Piece Extent="0 128 0 128 0 0"> 
<PointData>
<DataArray type="Float32" Name="u" format="ascii" NumberOfComponents="1"> 
0 0 0 0 0 0 0 0 0 0 0 0 0 0 0 0 0 0 0 0 0 0 0 0 0 0 0 0 0 0 0 0 0 0 0 0 0 0 0 0 0 0 0 0 0 0 0 0 0 0 0 0 0 0 0 0 0 0 0 0 0 0 0 0 0 0 0 0 0 0 0 0 0 0 0 0 0 0 0 0 0 0 0 0 0 0 0 0 0 0 0 0 0 0 0 0 0 0 0 0 0 0 0 0 0 0 0 0 0 0 0 0 0 0 0 0 0 0 0 0 0 0 0 0 0 0 0 0 0 0 -1.46173e-08 -5.84693e-08 -1.31556e-07 -2.33877e-07 -2.92137e-07 -2.33038e-07 -5.65817e-08 2.37233e-07 6.8067e-07 1.306e-06 2.11321e-06 3.10231e-06 4.26831e-06 5.60621e-06 7.11603e-06 8.79774e-06 1.06137e-05 1.25263e-05 1.45354e-05 1.66412e-05 1.87891e-05 2.0925e-05 2.30487e-05 2.51603e-05 2.7208e-05 2.914e-05 3.09563e-05 3.26568e-05 3.42077e-05 3.55749e-05 3.67583e-05 3.77581e-05 3.85633e-05 3.9163e-05 3.95573e-05 3.97463e-05 3.97385e-05 3.9543e-05 3.91596e-05 3.85885e-05 3.78514e-05 3.69704e-05 3.59455e-05 3.47766e-05 3.34944e-05 3.21294e-05 3.06816e-05 2.91511e-05 2.75749e-05 2.59901e-05 2.43967e-05 2.27947e-05 2.12243e-05 1.97257e-05 1.82988e-05 1.69438e-05 1.56964e-05 1.45927e-05 1.36324e-05 1.28158e-05 1.21642e-05 1.16993e-05 1.14211e-05 1.13296e-05 1.14246e-05 1.17061e-05 1.2174e-05 1.28284e-05 1.36476e-05 1.46097e-05 1.57149e-05 1.69631e-05 1.83183e-05 1.97447e-05 2.12421e-05 2.28106e-05 2.441e-05 2.60002e-05 2.75811e-05 2.91528e-05 3.06783e-05 3.21206e-05 3.34798e-05 3.47558e-05 3.59183e-05 3.69368e-05 3.78114e-05 3.8542e-05 3.91069e-05 3.94843e-05 3.96743e-05 3.96769e-05 3.94834e-05 3.90851e-05 3.84821e-05 3.76744e-05 3.66728e-05 3.54884e-05 3.41211e-05 3.25709e-05 3.08717e-05 2.90576e-05 2.71285e-05 2.50844e-05 2.2977e-05 2.08579e-05 1.8727e-05 1.65845e-05 1.44844e-05 1.24808e-05 1.05739e-05 8.76349e-06 7.08716e-06 5.58234e-06 4.24904e-06 3.08725e-06 2.10188e-06 1.29783e-06 6.7511e-07 2.3371e-07 -5.85684e-08 -2.33927e-07 -2.92365e-07 -2.33883e-07 -1.31559e-07 -5.84708e-08 -1.46177e-08 0 0 -5.84693e-08 -2.33877e-07 -5.26223e-07 -9.35508e-07 -1.16855e-06 -9.32152e-07 -2.26327e-07 9.48931e-07 2.72268e-06 5.22398e-06 8.45283e-06 1.24092e-05 1.70732e-05 2.24249e-05 2.84641e-05 3.5191e-05 4.24548e-05 5.01051e-05 5.81417e-05 6.65646e-05 7.51565e-05 8.36999e-05 9.21948e-05 0.000100641 0.000108832 0.00011656 0.000123825 0.000130627 0.000136831 0.0001423 0.000147033 0.000151032 0.000154253 0.000156652 0.000158229 0.000158985 0.000158954 0.000158172 0.000156639 0.000154354 0.000151406 0.000147882 0.000143782 0.000139106 0.000133978 0.000128518 0.000122727 0.000116605 0.0001103 0.000103961 9.75869e-05 9.11788e-05 8.48971e-05 7.89026e-05 7.31953e-05 6.77752e-05 6.27858e-05 5.83706e-05 5.45297e-05 5.12631e-05 4.86569e-05 4.67974e-05 4.56845e-05 4.53183e-05 4.56984e-05 4.68243e-05 4.86961e-05 5.13137e-05 5.45903e-05 5.84389e-05 6.28596e-05 6.78523e-05 7.32733e-05 7.89787e-05 8.49684e-05 9.12424e-05 9.76401e-05 0.000104001 0.000110325 0.000116611 0.000122713 0.000128482 0.000133919 0.000139023 0.000143673 0.000147747 0.000151245 0.000154168 0.000156427 0.000157937 0.000158697 0.000158708 0.000157934 0.000156341 0.000153929 0.000150698 0.000146691 0.000141954 0.000136484 0.000130283 0.000123487 0.00011623 0.000108514 0.000100338 9.19079e-05 8.34314e-05 7.49081e-05 6.63379e-05 5.79374e-05 4.99233e-05 4.22955e-05 3.5054e-05 2.83486e-05 2.23294e-05 1.69961e-05 1.2349e-05 8.40751e-06 5.19133e-06 2.70044e-06 9.3484e-07 -2.34273e-07 -9.35707e-07 -1.16946e-06 -9.35533e-07 -5.26238e-07 -2.33883e-07 -5.84708e-08 0 0 -1.31556e-07 -5.26223e-07 -1.184e-06 -2.10489e-06 -2.62923e-06 -2.09734e-06 -5.09235e-07 2.13509e-06 6.12603e-06 1.1754e-05 1.90189e-05 2.79208e-05 3.84148e-05 5.04559e-05 6.40442e-05 7.91797e-05 9.55234e-05 0.000112736 0.000130819 0.00014977 0.000169102 0.000188325 0.000207438 0.000226443 0.000244872 0.00026226 0.000278606 0.000293912 0.00030787 0.000320174 0.000330825 0.000339823 0.000347069 0.000352467 0.000356016 0.000357716 0.000357647 0.000355887 0.000352437 0.000347296 0.000340663 0.000332734 0.000323509 0.000312989 0.000301449 0.000289165 0.000276135 0.00026236 0.000248174 0.000233911 0.00021957 0.000205152 0.000191019 0.000177531 0.000164689 0.000152494 0.000141268 0.000131334 0.000122692 0.000115342 0.000109478 0.000105294 0.00010279 0.000101966 0.000102821 0.000105355 0.000109566 0.000115456 0.000122828 0.000131487 0.000141434 0.000152668 0.000164865 0.000177702 0.000191179 0.000205295 0.00021969 0.000234002 0.00024823 0.000262375 0.000276105 0.000289086 0.000301318 0.000312802 0.000323265 0.000332431 0.000340302 0.000346878 0.000351962 0.000355359 0.000357069 0.000357092 0.00035535 0.000351766 0.000346339 0.00033907 0.000330056 0.000319396 0.00030709 0.000293138 0.000277845 0.000261518 0.000244156 0.00022576 0.000206793 0.000187721 0.000168543 0.00014926 0.000130359 0.000112327 9.51648e-05 7.88714e-05 6.37844e-05 5.0241e-05 3.82413e-05 2.77852e-05 1.89169e-05 1.16805e-05 6.07599e-06 2.10339e-06 -5.27115e-07 -2.10534e-06 -2.63129e-06 -2.10495e-06 -1.18403e-06 -5.26238e-07 -1.31559e-07 0 0 -2.33877e-07 -9.35508e-07 -2.10489e-06 -3.74203e-06 -4.67418e-06 -3.72861e-06 -9.05307e-07 3.79572e-06 1.08907e-05 2.08959e-05 3.38113e-05 4.96369e-05 6.82929e-05 8.96994e-05 0.000113856 0.000140764 0.000169819 0.00020042 0.000232567 0.000266259 0.000300626 0.0003348 0.000368779 0.000402565 0.000435328 0.00046624 0.0004953 0.00052251 0.000547324 0.000569198 0.000588134 0.000604129 0.000617012 0.000626608 0.000632918 0.00063594 0.000635817 0.000632688 0.000626554 0.000617415 0.000605623 0.000591527 0.000575128 0.000556426 0.00053591 0.00051407 0.000490906 0.000466418 0.000441199 0.000415842 0.000390348 0.000364715 0.000339589 0.00031561 0.000292781 0.000271101 0.000251143 0.000233482 0.000218119 0.000205052 0.000194628 0.00018719 0.000182738 0.000181273 0.000182794 0.000187297 0.000194784 0.000205255 0.000218361 0.000233756 0.000251438 0.000271409 0.000293093 0.000315915 0.000339873 0.00036497 0.00039056 0.000416003 0.000441298 0.000466445 0.000490853 0.00051393 0.000535677 0.000556093 0.000574693 0.000590989 0.000604982 0.000616671 0.00062571 0.000631749 0.000634789 0.000634831 0.000631734 0.000625362 0.000615714 0.00060279 0.000586766 0.000567814 0.000545937 0.000521134 0.000493947 0.000464921 0.000434056 0.00040135 0.000367632 0.000333726 0.000299632 0.000265352 0.00023175 0.000199693 0.000169182 0.000140216 0.000113394 8.93174e-05 6.79846e-05 4.9396e-05 3.36301e-05 2.07653e-05 1.08018e-05 3.73936e-06 -9.37094e-07 -3.74283e-06 -4.67784e-06 -3.74213e-06 -2.10495e-06 -9.35533e-07 -2.33883e-07 0 0 -2.90042e-07 -1.16017e-06 -2.61038e-06 -4.64068e-06 -5.53941e-06 -3.59492e-06 1.1928e-06 8.82373e-06 2.00435e-05 3.55977e-05 5.54864e-05 7.97096e-05 0.000108111 0.000140535 0.000176982 0.000217452 0.000261006 0.000306709 0.000354559 0.000404558 0.000455376 0.000505685 0.000555485 0.000604775 0.000652305 0.000696822 0.000738327 0.000776819 0.000811489 0.000841527 0.000866933 0.000887707 0.000903604 0.000914381 0.000920038 0.000920575 0.000916226 0.000907225 0.000893571 0.000875264 0.000852862 0.00082692 0.000797439 0.000764418 0.000728634 0.000690865 0.00065111 0.000609369 0.000566592 0.000523728 0.000480777 0.00043774 0.000395651 0.000355548 0.000317431 0.000281298 0.000248079 0.0002187 0.000193162 0.000171465 0.000154167 0.000141824 0.000134439 0.000132009 0.000134534 0.00014201 0.000154437 0.000171815 0.000193582 0.000219177 0.000248598 0.000281846 0.000317992 0.000356105 0.000396185 0.000438233 0.000481213 0.00052409 0.000566864 0.000609534 0.000651155 0.00069078 0.000728409 0.000764042 0.000796906 0.00082623 0.000852013 0.000874256 0.000892407 0.000905913 0.000914776 0.000918995 0.00091834 0.000912581 0.000901719 0.000885753 0.000864928 0.000839492 0.000809443 0.000774782 0.000736317 0.000694858 0.000650404 0.000602956 0.000553761 0.000504067 0.000453875 0.000403184 0.000353318 0.0003056 0.00026003 0.000216609 0.000176269 0.000139942 0.000107629 7.93291e-05 5.51969e-05 3.53858e-05 1.98958e-05 8.727e-06 1.13505e-06 -3.62424e-06 -5.55085e-06 -4.64479e-06 -2.61269e-06 -1.1612e-06 -2.90299e-07 0 0 -2.24662e-07 -8.98647e-07 -2.02196e-06 -3.59459e-06 -3.46089e-06 5.34772e-07 8.39241e-06 2.0112e-05 3.66111e-05 5.88072e-05 8.67004e-05 0.00012029 0.000159273 0.000203344 0.000252503 0.000306751 0.000364747 0.000425154 0.000487971 0.000553198 0.000618999 0.000683541 0.000746821 0.000808841 0.000867908 0.00092233 0.000972107 0.00101724 0.00105666 0.00108932 0.0011152 0.00113431 0.00114637 0.00115109 0.00114848 0.00113854 0.00112164 0.00109815 0.00106807 0.0010314 0.000988959 0.000941575 0.000889245 0.000831969 0.000770897 0.000707179 0.000640815 0.000571804 0.000501572 0.000431543 0.000361718 0.000292097 0.000224251 0.000159751 9.85973e-05 4.079e-05 -1.22568e-05 -5.91288e-05 -9.9826e-05 -0.000134348 -0.000161844 -0.00018146 -0.000193198 -0.000197056 -0.000193039 -0.000181151 -0.000161391 -0.00013376 -9.91153e-05 -5.83159e-05 -1.13617e-05 4.17473e-05 9.95938e-05 0.00016076 0.000225247 0.000293054 0.000362611 0.000432347 0.000502262 0.000572356 0.000641209 0.0007074 0.000770928 0.000831794 0.000888854 0.000940965 0.000988127 0.00103034 0.00106679 0.00109666 0.00111995 0.00113666 0.00114642 0.00114888 0.00114402 0.00113185 0.00111265 0.00108671 0.00105402 0.00101459 0.00096948 0.000919747 0.000865394 0.000806421 0.000744516 0.000681365 0.000616969 0.000551329 0.000486271 0.000423626 0.000363393 0.000305572 0.000251496 0.000202497 0.000158576 0.000119732 8.62673e-05 5.84819e-05 3.63764e-05 1.99506e-05 8.28856e-06 4.74359e-07 -3.49204e-06 -3.61063e-06 -2.03098e-06 -9.02656e-07 -2.25664e-07 0 0 -3.77348e-08 -1.50939e-07 -3.39613e-07 -6.03756e-07 1.56136e-06 8.66046e-06 2.06935e-05 3.76606e-05 6.05936e-05 9.05244e-05 0.000127453 0.00017138 0.000221779 0.000278126 0.00034042 0.000408661 0.000481042 0.000555755 0.0006328 0.000712177 0.000791496 0.000868367 0.000942789 0.00101476 0.00108214 0.00114276 0.00119664 0.00124377 0.00128284 0.00131256 0.00133293 0.00134393 0.0013453 0.00133674 0.00131825 0.00128984 0.00125205 0.00120546 0.00115004 0.00108581 0.00101391 0.00093549 0.000850546 0.00075908 0.000662699 0.000563012 0.00046002 0.000353722 0.000246138 0.000139288 3.31713e-05 -7.22119e-05 -0.000174612 -0.000271781 -0.000363718 -0.000450424 -0.000529864 -0.000600005 -0.000660846 -0.000712388 -0.000753404 -0.000782664 -0.000800171 -0.000805923 -0.000799926 -0.000782184 -0.000752699 -0.000711469 -0.000659731 -0.000598722 -0.000528441 -0.000448887 -0.000362101 -0.000270118 -0.00017294 -7.05669e-05 3.47539e-05 0.000140774 0.000247493 0.000354912 0.000461015 0.00056379 0.000663235 0.000759351 0.000850537 0.000935194 0.00101332 0.00108492 0.00114885 0.00120398 0.0012503 0.00128782 0.00131598 0.00133425 0.00134262 0.00134108 0.00132993 0.00130947 0.00127968 0.00124056 0.00119343 0.00113959 0.00107903 0.00101175 0.000939896 0.00086562 0.000788916 0.000709786 0.000630611 0.000553773 0.000479271 0.000407106 0.000339077 0.000276985 0.000220827 0.000170606 0.000126841 9.00537e-05 6.02433e-05 3.741e-05 2.05234e-05 8.55296e-06 1.4986e-06 -6.3964e-07 -3.59797e-07 -1.5991e-07 -3.99775e-08 0 0 2.70738e-07 1.08295e-06 2.43664e-06 4.33181e-06 9.52735e-06 2.07821e-05 3.80962e-05 6.14695e-05 9.19909e-05 0.000130749 0.000177745 0.000232977 0.000295628 0.00036488 0.000440731 0.000523183 0.000609891 0.000698513 0.000789049 0.000881498 0.000972867 0.00106016 0.00114339 0.00122254 0.00129499 0.00135812 0.00141193 0.00145641 0.00149003 0.00151127 0.00152012 0.00151658 0.00150041 0.00147133 0.00142935 0.00137447 0.00130747 0.00122915 0.00113949 0.00103851 0.000927722 0.000808667 0.000681343 0.000545749 0.000404039 0.000258365 0.000108727 -4.48754e-05 -0.000199708 -0.000353038 -0.000504864 -0.000655188 -0.000800939 -0.000939049 -0.00106952 -0.00119234 -0.00130474 -0.00140393 -0.0014899 -0.00156265 -0.00162051 -0.00166179 -0.00168648 -0.00169459 -0.00168613 -0.00166109 -0.00161949 -0.00156131 -0.00148827 -0.00140204 -0.00130264 -0.00119006 -0.00106709 -0.000936531 -0.000798378 -0.000652631 -0.000502358 -0.000350629 -0.000197443 -4.27999e-05 0.000110573 0.000259949 0.000405329 0.000546711 0.000681955 0.000808917 0.000927598 0.001038 0.0011386 0.00122788 0.00130584 0.00137248 0.00142702 0.0014687 0.00149751 0.00151344 0.00151678 0.00150776 0.0014864 0.0014527 0.00140818 0.00135438 0.0012913 0.00121893 0.0011399 0.00105683 0.000969715 0.000878556 0.000786337 0.000696039 0.000607664 0.00052121 0.000439012 0.000363403 0.000294382 0.00023195 0.000176919 0.000130101 9.14967e-05 6.11054e-05 3.78397e-05 2.06116e-05 9.42106e-06 4.26817e-06 2.40084e-06 1.06704e-06 2.6676e-07 0 0 7.38248e-07 2.95299e-06 6.64423e-06 1.1812e-05 2.1309e-05 3.79881e-05 6.18492e-05 9.28924e-05 0.000132164 0.000180712 0.000238534 0.000305632 0.000380796 0.000462816 0.000551691 0.000647423 0.000747065 0.000847673 0.000949245 0.00105178 0.00115167 0.00124528 0.00133262 0.00141369 0.00148542 0.00154471 0.00159157 0.00162601 0.00164631 0.00165076 0.00163938 0.00161215 0.00156892 0.0015095 0.0014339 0.00134212 0.00123522 0.00111426 0.000979253 0.000830186 0.000669025 0.000497737 0.000316319 0.000124772 -7.41317e-05 -0.000277622 -0.000485699 -0.000698363 -0.000912043 -0.00112317 -0.00133175 -0.00153777 -0.00173719 -0.00192596 -0.00210407 -0.00227152 -0.00242462 -0.00255967 -0.00267665 -0.00277559 -0.00285423 -0.00291032 -0.00294388 -0.0029549 -0.00294339 -0.00290935 -0.00285279 -0.00277372 -0.00267437 -0.00255702 -0.00242165 -0.00226828 -0.00210061 -0.00192234 -0.00173348 -0.00153403 -0.00132803 -0.00111954 -0.000908554 -0.000695079 -0.000482674 -0.000274899 -7.17545e-05 0.00012676 0.000317884 0.000498862 0.000669691 0.000830373 0.000978957 0.00111349 0.00123399 0.00134043 0.00143178 0.00150698 0.00156603 0.00160893 0.00163587 0.00164702 0.00164237 0.00162193 0.0015874 0.0015405 0.00148122 0.00140956 0.00132859 0.00124139 0.00114796 0.0010483 0.000946004 0.000844692 0.000744358 0.000645004 0.000549563 0.000460967 0.000379217 0.000304313 0.000237457 0.000179851 0.000131494 9.23865e-05 6.14823e-05 3.7735e-05 2.11444e-05 1.17107e-05 6.58726e-06 2.92767e-06 7.31917e-07 0 0 1.40228e-06 5.60914e-06 1.26206e-05 2.24366e-05 3.77782e-05 6.13665e-05 9.32014e-05 0.000133283 0.000182475 0.000241641 0.000310781 0.000389895 0.000477257 0.000571144 0.000671554 0.000778489 0.000888334 0.000997477 0.00110592 0.00121366 0.00131646 0.00141007 0.0014945 0.00156975 0.00163234 0.00167882 0.00170918 0.00172341 0.00171974 0.00169637 0.0016533 0.00159054 0.00150807 0.00140591 0.00128404 0.00114248 0.000982617 0.000805839 0.000612147 0.000401542 0.000176459 -6.06681e-05 -0.00030984 -0.000571056 -0.000840863 -0.00111581 -0.00139589 -0.00168111 -0.00196694 -0.00224885 -0.00252684 -0.00280091 -0.00306584 -0.00331642 -0.00355264 -0.00377451 -0.00397723 -0.00415599 -0.00431079 -0.00444163 -0.0045456 -0.00461976 -0.00466412 -0.00467868 -0.00466346 -0.00461845 -0.00454366 -0.0044391 -0.00430769 -0.00415239 -0.00397318 -0.00377008 -0.00354788 -0.00331141 -0.00306066 -0.00279564 -0.00252155 -0.00224362 -0.00196185 -0.00167623 -0.00139128 -0.00111153 -0.00083698 -0.000567622 -0.000306897 -5.82454e-05 0.000178334 0.000402842 0.00061286 0.000805971 0.000982174 0.00114147 0.00128248 0.00140383 0.00150552 0.00158754 0.00164991 0.00169264 0.00171573 0.00171917 0.00170477 0.0016743 0.00162778 0.0015652 0.00149002 0.0014057 0.00131225 0.00120966 0.00110217 0.000993996 0.000885141 0.000775606 0.00066899 0.000568891 0.00047531 0.000388245 0.000309413 0.000240529 0.000181592 0.000132603 9.26963e-05 6.10079e-05 3.75378e-05 2.22858e-05 1.25357e-05 5.57144e-06 1.39286e-06 0 0 2.26285e-06 9.0514e-06 2.03656e-05 3.62056e-05 5.89349e-05 9.09174e-05 0.000132153 0.000182642 0.000242923 0.000313537 0.000394484 0.000485764 0.000585012 0.000689864 0.00080032 0.000916379 0.0010337 0.00114793 0.00125907 0.00136712 0.00146723 0.00155453 0.00162902 0.0016907 0.00173578 0.00176046 0.00176474 0.00174863 0.00171034 0.00164809 0.00156189 0.00145173 0.00131787 0.00116055 0.000979783 0.000775563 0.000549668 0.000303872 3.8175e-05 -0.000247422 -0.000549977 -0.000866547 -0.00119713 -0.00154174 -0.00189615 -0.00225619 -0.00262185 -0.00299313 -0.00336441 -0.00373008 -0.00409014 -0.0044446 -0.00478688 -0.00511043 -0.00541524 -0.00570132 -0.00596257 -0.00619289 -0.0063923 -0.00656078 -0.00669462 -0.0067901 -0.00684721 -0.00686595 -0.00684634 -0.00678839 -0.0066921 -0.00655747 -0.00638824 -0.00618816 -0.00595723 -0.00569545 -0.00540891 -0.00510374 -0.00477993 -0.00443747 -0.00408294 -0.00372289 -0.00335733 -0.00298625 -0.00261525 -0.00224995 -0.00189035 -0.00153643 -0.00119239 -0.000862404 -0.000546472 -0.000244595 4.03048e-05 0.000305304 0.000550402 0.000775599 0.000979138 0.00115926 0.00131597 0.00144926 0.0015589 0.00164464 0.00170649 0.00174444 0.00176028 0.0017558 0.00173099 0.00168586 0.00162418 0.00154976 0.00146258 0.00136266 0.00125483 0.00114395 0.00103001 0.000913017 0.000797295 0.000687175 0.000582659 0.000483746 0.000392787 0.000312136 0.000241792 0.000181754 0.000131482 9.04304e-05 5.86011e-05 3.59935e-05 2.02463e-05 8.99836e-06 2.24959e-06 0 0 3.31994e-06 1.32798e-05 2.98795e-05 5.3119e-05 8.47792e-05 0.000126641 0.000178704 0.000240968 0.000313508 0.000396401 0.000489645 0.00059324 0.00070406 0.000818976 0.000937988 0.0010611 0.00118316 0.00129902 0.0014087 0.00151218 0.00160399 0.00167866 0.00173617 0.00177655 0.00179571 0.00178962 0.00175826 0.00170165 0.00161809 0.00150592 0.00136514 0.00119573 0.000998303 0.00077343 0.000521115 0.000241357 -6.36303e-05 -0.000391637 -0.000742663 -0.00111671 -0.00151028 -0.0019199 -0.00234556 -0.00278727 -0.00324001 -0.00369878 -0.00416357 -0.0046344 -0.00510444 -0.00556685 -0.00602165 -0.00646884 -0.00690031 -0.00730799 -0.00769186 -0.00805193 -0.00838063 -0.00867039 -0.00892119 -0.00913304 -0.00930131 -0.00942134 -0.00949313 -0.00951669 -0.00949203 -0.00941916 -0.00929809 -0.00912881 -0.008916 -0.00866433 -0.00837379 -0.00804438 -0.0076837 -0.00729933 -0.00689127 -0.00645953 -0.00601218 -0.00555734 -0.00509499 -0.00462513 -0.00415459 -0.00369016 -0.00323186 -0.00277967 -0.00233859 -0.00191361 -0.00150473 -0.00111194 -0.000738708 -0.000388506 -6.13311e-05 0.000242817 0.000521747 0.000773271 0.000997388 0.0011941 0.00136283 0.00150301 0.00161464 0.00169773 0.00175395 0.00178499 0.00179085 0.00177153 0.00173108 0.00167356 0.00159896 0.00150728 0.001404 0.00129456 0.00117897 0.00105724 0.000934477 0.00081582 0.000701266 0.000590815 0.000487579 0.000394672 0.000312092 0.000239841 0.000177838 0.000126003 8.43343e-05 5.28337e-05 2.9719e-05 1.32084e-05 3.30211e-06 0 0 4.57423e-06 1.82969e-05 4.11681e-05 7.31877e-05 0.000115289 0.000168405 0.000232536 0.000307682 0.000393284 0.000488784 0.000594182 0.000709479 0.000830655 0.000953695 0.0010786 0.00120536 0.00132802 0.00144058 0.00154306 0.00163544 0.00171171 0.00176584 0.00179781 0.00180765 0.00179115 0.00174414 0.00166663 0.00155861 0.00141865 0.00124533 0.00103866 0.00079863 0.000526266 0.000222592 -0.000112392 -0.000478686 -0.00087362 -0.00129452 -0.0017414 -0.00221424 -0.00270906 -0.00322184 -0.00375258 -0.0043013 -0.00486218 -0.00542945 -0.00600309 -0.00658311 -0.00716142 -0.00772994 -0.00828867 -0.00883761 -0.00936701 -0.00986709 -0.0103379 -0.0107793 -0.0111823 -0.0115375 -0.0118449 -0.0121046 -0.0123108 -0.0124579 -0.0125459 -0.0125748 -0.0125446 -0.0124552 -0.0123068 -0.0120993 -0.0118385 -0.01153 -0.0111738 -0.0107699 -0.0103277 -0.00985625 -0.00935564 -0.00882586 -0.00827666 -0.0077178 -0.00714929 -0.00657112 -0.00599137 -0.0054181 -0.00485132 -0.00429103 -0.003743 -0.00321301 -0.00270105 -0.00220712 -0.00173521 -0.00128929 -0.000869351 -0.000475404 -0.00011009 0.000223944 0.0005267 0.000798176 0.00103737 0.00124328 0.0014159 0.00155523 0.00166271 0.00173977 0.00178641 0.00180263 0.00179261 0.00176054 0.0017064 0.0016302 0.00153795 0.00143567 0.00132336 0.00120102 0.0010746 0.000950058 0.000827399 0.000706619 0.000591718 0.000486696 0.000391552 0.000306287 0.000231451 0.000167594 0.000114716 7.28177e-05 4.09599e-05 1.82044e-05 4.55111e-06 0 0 6.02638e-06 2.41055e-05 5.42375e-05 9.64222e-05 0.000150442 0.000216078 0.000293332 0.000382203 0.000481302 0.00058924 0.000706017 0.000831633 0.000961052 0.00108924 0.00121619 0.00134191 0.00145959 0.00156242 0.0016504 0.00172353 0.00177536 0.00179944 0.00179577 0.00176435 0.00170108 0.00160187 0.00146672 0.00129563 0.00108764 0.000841786 0.00055807 0.000236494 -0.000121362 -0.000513916 -0.000941168 -0.00140312 -0.00189664 -0.00241863 -0.00296907 -0.00354796 -0.0041509 -0.00477346 -0.00541566 -0.00607748 -0.00675245 -0.00743409 -0.00812241 -0.0088174 -0.00950975 -0.0101901 -0.0108585 -0.0115149 -0.0121478 -0.0127457 -0.0133086 -0.0138365 -0.0143184 -0.0147431 -0.0151109 -0.0154215 -0.0156683 -0.0158443 -0.0159496 -0.0159841 -0.0159479 -0.0158411 -0.0156635 -0.0154152 -0.0151031 -0.0147341 -0.0143081 -0.0138251 -0.0132963 -0.0127325 -0.012134 -0.0115005 -0.0108437 -0.0101751 -0.00949469 -0.00880244 -0.00810767 -0.00741971 -0.00673856 -0.0060642 -0.00540311 -0.00476172 -0.00414005 -0.00353809 -0.00296024 -0.00241087 -0.00188998 -0.00139759 -0.000936775 -0.000510634 -0.000119167 0.000237626 0.000558188 0.000840958 0.00108594 0.00129313 0.0014635 0.00159803 0.00169672 0.00175957 0.00179067 0.00179412 0.00176991 0.00171806 0.00164499 0.00155714 0.00145451 0.00133711 0.00121172 0.00108513 0.000957327 0.000828325 0.000703133 0.000586768 0.000479228 0.000380514 0.000292004 0.000215074 0.000149725 9.59565e-05 5.39755e-05 2.39891e-05 5.99728e-06 0 0 7.67641e-06 3.07056e-05 6.90877e-05 0.000122823 0.000190238 0.000269661 0.000361093 0.000464532 0.000577563 0.000697769 0.00082515 0.000959705 0.00109525 0.0012256 0.00135077 0.00147073 0.00157787 0.00166453 0.00173072 0.00177644 0.00179494 0.00177948 0.00173005 0.00164666 0.00152551 0.0013628 0.00115854 0.000912723 0.000625065 0.000295279 -7.6634e-05 -0.000490675 -0.000944583 -0.0014361 -0.00196521 -0.00253194 -0.0031327 -0.00376394 -0.00442566 -0.00511786 -0.00583581 -0.00657478 -0.00733478 -0.00811581 -0.0089108 -0.00971272 -0.0105215 -0.0113373 -0.0121494 -0.0129474 -0.0137311 -0.0145007 -0.0152428 -0.0159439 -0.0166041 -0.0172235 -0.0177889 -0.0182874 -0.0187191 -0.0190839 -0.0193737 -0.0195804 -0.0197041 -0.0197447 -0.0197022 -0.0195767 -0.0193681 -0.0190765 -0.01871 -0.0182767 -0.0177767 -0.01721 -0.0165895 -0.0159282 -0.0152262 -0.0144835 -0.0137134 -0.0129293 -0.0121312 -0.0113191 -0.0105035 -0.009695 -0.00889356 -0.00809918 -0.0073189 -0.00655975 -0.00582174 -0.00510485 -0.00441378 -0.00375325 -0.00312323 -0.00252374 -0.00195831 -0.00143046 -0.000940213 -0.000487553 -7.47192e-05 0.000296056 0.000624773 0.000911431 0.00115633 0.00135979 0.00152179 0.00164235 0.00172525 0.00177431 0.00178951 0.00177087 0.0017251 0.00165896 0.00157243 0.00146552 0.00134585 0.00122102 0.00109105 0.000955932 0.000821825 0.000694888 0.000575121 0.000462524 0.000359498 0.000268444 0.000189361 0.00012225 6.87656e-05 3.05625e-05 7.64063e-06 0 0 9.5243e-06 3.80972e-05 8.57187e-05 0.000152389 0.000234677 0.000329153 0.000435817 0.000554669 0.000682067 0.000814371 0.000951579 0.00109369 0.00123325 0.00136279 0.00148232 0.00159183 0.00168286 0.00174692 0.00178403 0.00179417 0.00177045 0.00170594 0.00160065 0.00145457 0.00126443 0.00102693 0.000742082 0.000409881 3.09264e-05 -0.000394185 -0.000865452 -0.00138288 -0.00194339 -0.00254395 -0.00318453 -0.00386515 -0.0045818 -0.00533048 -0.00611119 -0.00692394 -0.00776378 -0.00862579 -0.00950995 -0.0104163 -0.0113372 -0.0122653 -0.0132005 -0.0141428 -0.0150804 -0.0160017 -0.0169066 -0.0177951 -0.0186519 -0.0194616 -0.0202244 -0.0209402 -0.0215938 -0.0221703 -0.0226696 -0.0230917 -0.0234271 -0.0236664 -0.0238095 -0.0238565 -0.0238073 -0.023662 -0.0234206 -0.0230831 -0.022659 -0.0221579 -0.0215797 -0.0209245 -0.0202073 -0.0194433 -0.0186325 -0.0177748 -0.0168857 -0.0159803 -0.0150588 -0.0141211 -0.0131789 -0.012244 -0.0113163 -0.010396 -0.0094904 -0.00860711 -0.0077461 -0.00690738 -0.00609586 -0.00531642 -0.00456909 -0.00385385 -0.00317468 -0.00253554 -0.00193644 -0.00137736 -0.00086135 -0.00039143 3.23979e-05 0.000410134 0.000741203 0.00102503 0.00126162 0.00145096 0.00159636 0.0017011 0.00176519 0.00178863 0.00177831 0.00174114 0.00167711 0.00158624 0.00147697 0.00135775 0.00122857 0.00108944 0.000947793 0.000811056 0.00067923 0.000552315 0.000433932 0.000327702 0.000233624 0.000151698 8.53304e-05 3.79246e-05 9.48115e-06 0 0 1.15317e-05 4.61269e-05 0.000103786 0.000184508 0.0002828 0.000393167 0.000515611 0.000650131 0.000791661 0.000935137 0.00108056 0.00122793 0.00136841 0.00149317 0.0016022 0.00169552 0.00176389 0.00179807 0.00179806 0.00176388 0.00168866 0.00156556 0.0013946 0.00117575 0.000906583 0.000584629 0.000209893 -0.000217625 -0.000696161 -0.00122395 -0.00180099 -0.00242728 -0.00309884 -0.00381167 -0.00456577 -0.00536115 -0.00619346 -0.00705833 -0.00795576 -0.00888577 -0.00984344 -0.0108239 -0.0118271 -0.0128531 -0.0138941 -0.0149424 -0.0159981 -0.0170611 -0.0181187 -0.0191581 -0.0201793 -0.0211823 -0.02215 -0.023065 -0.0239273 -0.0247371 -0.025477 -0.0261297 -0.0266953 -0.0271737 -0.0275541 -0.0278254 -0.0279877 -0.0280409 -0.0279852 -0.0278204 -0.0275467 -0.027164 -0.0266834 -0.0261157 -0.025461 -0.0247193 -0.0239079 -0.0230441 -0.0221278 -0.0211592 -0.0201553 -0.0191335 -0.0180937 -0.0170359 -0.0159729 -0.0149174 -0.0138694 -0.012829 -0.0118037 -0.0108014 -0.00982197 -0.00886546 -0.00793673 -0.00704065 -0.00617723 -0.00534646 -0.00455266 -0.00380016 -0.00308894 -0.00241902 -0.00179434 -0.00121886 -0.000692577 -0.00021549 0.000210664 0.000584149 0.000904966 0.00117311 0.00139106 0.00156128 0.00168376 0.00175851 0.00179237 0.00179218 0.00175793 0.00168962 0.00159647 0.00148769 0.00136326 0.0012232 0.00107631 0.00093138 0.000788416 0.000647416 0.000513421 0.000391468 0.000281558 0.000183691 0.000103326 4.59228e-05 1.14807e-05 0 0 1.36604e-05 5.46415e-05 0.000122943 0.000218566 0.000333645 0.000460316 0.000598579 0.000748434 0.000903191 0.00105616 0.00120734 0.00135673 0.00149407 0.00160908 0.00170175 0.00177211 0.00181028 0.00180644 0.00176057 0.00167268 0.00153634 0.00134509 0.00109893 0.000797875 0.000440718 2.62652e-05 -0.000445484 -0.000974529 -0.00155758 -0.00219136 -0.00287585 -0.00361106 -0.00439195 -0.00521346 -0.0060756 -0.00697837 -0.00791721 -0.00888758 -0.00988948 -0.0109229 -0.0119834 -0.0130664 -0.0141721 -0.0153003 -0.0164436 -0.0175946 -0.0187532 -0.0199196 -0.0210801 -0.0222216 -0.0233438 -0.024447 -0.025512 -0.0265199 -0.0274709 -0.0283647 -0.0291821 -0.0299036 -0.0305292 -0.0310588 -0.0314801 -0.0317807 -0.0319605 -0.0320195 -0.0319577 -0.0317752 -0.0314721 -0.0310482 -0.030516 -0.0298881 -0.0291645 -0.0283451 -0.0274494 -0.0264968 -0.0254874 -0.0244212 -0.0233171 -0.022194 -0.021052 -0.0198911 -0.0187247 -0.0175661 -0.0164154 -0.0152725 -0.014145 -0.0130402 -0.0119581 -0.0108988 -0.00986668 -0.00886617 -0.0078973 -0.00696007 -0.00605899 -0.00519858 -0.00437883 -0.00359974 -0.00286633 -0.0021836 -0.00155154 -0.000970169 -0.000442726 2.75337e-05 0.000440609 0.000796501 0.00109643 0.00134161 0.00153203 0.00166772 0.00175509 0.00180059 0.00180423 0.001766 0.00169572 0.00160323 0.00148851 0.00135157 0.00120264 0.00105197 0.000899537 0.000745354 0.000596076 0.000458361 0.000332208 0.000217618 0.00012241 5.44045e-05 1.36011e-05 0 0 1.59102e-05 6.3641e-05 0.000143192 0.000254564 0.000387214 0.0005306 0.000684722 0.00084958 0.00101666 0.00117744 0.00133193 0.00148012 0.00161024 0.00171053 0.00178097 0.00182158 0.00182204 0.00177203 0.00167155 0.0015206 0.00131349 0.0010445 0.000713653 0.000320933 -0.000133167 -0.000648162 -0.00122405 -0.00186083 -0.00255334 -0.00329641 -0.00409003 -0.00493422 -0.00582274 -0.00674934 -0.00771402 -0.00871679 -0.00975306 -0.0108183 -0.0119124 -0.0130354 -0.0141837 -0.0153535 -0.0165449 -0.0177579 -0.0189858 -0.0202218 -0.0214659 -0.0227181 -0.0239647 -0.0251921 -0.0264002 -0.0275889 -0.0287379 -0.0298266 -0.030855 -0.031823 -0.0327092 -0.0334919 -0.0341711 -0.0347469 -0.0352053 -0.0355323 -0.0357279 -0.0357921 -0.035725 -0.0355265 -0.0351966 -0.0347355 -0.034157 -0.0334753 -0.0326902 -0.0318018 -0.0308317 -0.0298015 -0.0287113 -0.0275609 -0.0263709 -0.0251619 -0.0239338 -0.0226867 -0.0214342 -0.02019 -0.0189542 -0.0177267 -0.0165143 -0.0153236 -0.0141546 -0.0130075 -0.0118857 -0.010793 -0.00972932 -0.0086947 -0.00769368 -0.00673081 -0.0058061 -0.00491954 -0.00407732 -0.00328564 -0.0025445 -0.0018539 -0.00121897 -0.000644816 -0.000131453 0.000321123 0.000712455 0.00104208 0.00131001 0.00151623 0.00166645 0.00176639 0.00181603 0.00181537 0.00177472 0.00170436 0.0016043 0.00147454 0.0013268 0.00117282 0.0010126 0.00084613 0.000681899 0.000528381 0.000385574 0.000253479 0.000142582 6.33697e-05 1.58424e-05 0 0 1.82813e-05 7.31253e-05 0.000164532 0.000292501 0.000443506 0.000604018 0.000774039 0.000953568 0.00113206 0.00129898 0.00145431 0.00159807 0.00171692 0.00179751 0.00183986 0.00184395 0.00179916 0.00169484 0.001531 0.00130763 0.00102011 0.000663821 0.000238761 -0.00025507 -0.000815074 -0.00143865 -0.0021258 -0.00287653 -0.00368343 -0.0045391 -0.00544354 -0.00639676 -0.00739119 -0.00841928 -0.00948102 -0.0105764 -0.011701 -0.0128503 -0.0140244 -0.0152232 -0.0164442 -0.017685 -0.0189456 -0.020226 -0.0215207 -0.022824 -0.024136 -0.0254567 -0.0267725 -0.0280697 -0.0293483 -0.0306083 -0.0318278 -0.0329849 -0.0340796 -0.035112 -0.0360582 -0.0368947 -0.0376213 -0.0382381 -0.0387296 -0.0390802 -0.03929 -0.0393588 -0.0392869 -0.0390741 -0.0387205 -0.038226 -0.0376064 -0.0368771 -0.0360381 -0.0350895 -0.034055 -0.0329582 -0.0317993 -0.0305783 -0.0293169 -0.0280372 -0.0267391 -0.0254227 -0.0241015 -0.0227892 -0.0214859 -0.0201915 -0.0189115 -0.0176515 -0.0164115 -0.0151914 -0.0139938 -0.0128211 -0.0116733 -0.0105503 -0.00945672 -0.00839686 -0.00737075 -0.00637839 -0.0054273 -0.00452499 -0.00367145 -0.00286669 -0.00211806 -0.0014329 -0.000811221 -0.000253019 0.000239146 0.000662713 0.00101768 0.00130406 0.00152647 0.00168956 0.00179331 0.00183774 0.00183347