<?xml version="1.0"?> 
<VTKFile type="StructuredGrid" version="0.1"> 
<StructuredGrid WholeExtent="0 128 0 128 0 0"> 
<Piece Extent="0 128 0 128 0 0"> 
<PointData>
<DataArray type="Float32" Name="u" format="ascii" NumberOfComponents="1"> 
0 0 0 0 0 0 0 0 0 0 0 0 0 0 0 0 0 0 0 0 0 0 0 0 0 0 0 0 0 0 0 0 0 0 0 0 0 0 0 0 0 0 0 0 0 0 0 0 0 0 0 0 0 0 0 0 0 0 0 0 0 0 0 0 0 0 0 0 0 0 0 0 0 0 0 0 0 0 0 0 0 0 0 0 0 0 0 0 0 0 0 0 0 0 0 0 0 0 0 0 0 0 0 0 0 0 0 0 0 0 0 0 0 0 0 0 0 0 0 0 0 0 0 0 0 0 0 0 0 0 1.56819e-07 6.27275e-07 1.41137e-06 2.5091e-06 3.71995e-06 4.8434e-06 5.87945e-06 6.82811e-06 7.5766e-06 8.01216e-06 8.13479e-06 7.94448e-06 7.36277e-06 6.31114e-06 4.78961e-06 2.79818e-06 3.05726e-07 -2.71887e-06 -6.27562e-06 -1.03645e-05 -1.49805e-05 -2.01186e-05 -2.57787e-05 -3.19609e-05 -3.86309e-05 -4.57545e-05 -5.33316e-05 -6.13622e-05 -6.97899e-05 -7.85583e-05 -8.76673e-05 -9.71169e-05 -0.000106836 -0.000116754 -0.000126871 -0.000137186 -0.000147621 -0.000158098 -0.000168617 -0.000179177 -0.000189698 -0.0002001 -0.000210383 -0.000220546 -0.000230511 -0.000240202 -0.000249616 -0.000258756 -0.000267548 -0.000275922 -0.000283877 -0.000291413 -0.000298471 -0.00030499 -0.000310969 -0.000316409 -0.000321265 -0.000325494 -0.000329095 -0.000332069 -0.000334392 -0.000336041 -0.000337015 -0.000337316 -0.000336942 -0.000335896 -0.000334175 -0.000331782 -0.000328739 -0.00032507 -0.000320775 -0.000315856 -0.000310355 -0.000304318 -0.000297746 -0.000290637 -0.000283053 -0.000275055 -0.000266643 -0.000257816 -0.000248648 -0.000239209 -0.000229499 -0.000219519 -0.000209347 -0.000199061 -0.00018866 -0.000178146 -0.000167598 -0.000157097 -0.000146641 -0.000136233 -0.000125949 -0.000115867 -0.000105988 -9.63108e-05 -8.69065e-05 -7.78448e-05 -6.91257e-05 -6.07494e-05 -5.2771e-05 -4.52462e-05 -3.81749e-05 -3.1557e-05 -2.54259e-05 -1.98148e-05 -1.47236e-05 -1.01525e-05 -6.10564e-06 -2.58731e-06 4.02485e-07 2.86374e-06 4.8279e-06 6.3264e-06 7.35924e-06 7.92642e-06 8.1061e-06 7.97644e-06 7.53746e-06 6.78913e-06 5.84329e-06 4.81175e-06 3.69451e-06 2.49157e-06 1.40151e-06 6.22893e-07 1.55723e-07 0 0 6.27275e-07 2.5091e-06 5.64547e-06 1.00364e-05 1.48798e-05 1.93736e-05 2.35178e-05 2.73124e-05 3.03064e-05 3.20486e-05 3.25391e-05 3.17779e-05 2.94511e-05 2.52446e-05 1.91585e-05 1.11927e-05 1.22291e-06 -1.08755e-05 -2.51025e-05 -4.1458e-05 -5.9922e-05 -8.04742e-05 -0.000103115 -0.000127844 -0.000154524 -0.000183018 -0.000213326 -0.000245449 -0.00027916 -0.000314233 -0.000350669 -0.000388468 -0.000427345 -0.000467016 -0.000507483 -0.000548743 -0.000590485 -0.000632393 -0.000674467 -0.000716707 -0.000758792 -0.0008004 -0.00084153 -0.000882183 -0.000922046 -0.000960807 -0.000998466 -0.00103502 -0.00107019 -0.00110369 -0.00113551 -0.00116565 -0.00119388 -0.00121996 -0.00124388 -0.00126563 -0.00128506 -0.00130198 -0.00131638 -0.00132828 -0.00133757 -0.00134416 -0.00134806 -0.00134926 -0.00134777 -0.00134358 -0.0013367 -0.00132713 -0.00131495 -0.00130028 -0.0012831 -0.00126342 -0.00124142 -0.00121727 -0.00119098 -0.00116255 -0.00113221 -0.00110022 -0.00106657 -0.00103127 -0.000994591 -0.000956834 -0.000917996 -0.000878076 -0.000837388 -0.000796243 -0.000754642 -0.000712585 -0.000670392 -0.000628386 -0.000586566 -0.000544931 -0.000503795 -0.000463468 -0.000423951 -0.000385243 -0.000347626 -0.000311379 -0.000276503 -0.000242997 -0.000211084 -0.000180985 -0.000152699 -0.000126228 -0.000101704 -7.9259e-05 -5.88945e-05 -4.061e-05 -2.44225e-05 -1.03492e-05 1.60994e-06 1.1455e-05 1.93116e-05 2.53056e-05 2.94369e-05 3.17057e-05 3.24244e-05 3.19058e-05 3.01498e-05 2.71565e-05 2.33732e-05 1.9247e-05 1.4778e-05 9.96629e-06 5.60604e-06 2.49157e-06 6.22893e-07 0 0 1.41137e-06 5.64547e-06 1.27023e-05 2.25819e-05 3.34795e-05 4.35906e-05 5.29151e-05 6.1453e-05 6.81894e-05 7.21094e-05 7.32131e-05 7.15004e-05 6.62649e-05 5.68003e-05 4.31065e-05 2.51836e-05 2.75154e-06 -2.44699e-05 -5.64805e-05 -9.32805e-05 -0.000134824 -0.000181067 -0.000232008 -0.000287648 -0.000347678 -0.00041179 -0.000479984 -0.00055226 -0.000628109 -0.000707025 -0.000789005 -0.000874052 -0.000961525 -0.00105079 -0.00114184 -0.00123467 -0.00132859 -0.00142288 -0.00151755 -0.00161259 -0.00170728 -0.0018009 -0.00189344 -0.00198491 -0.0020746 -0.00216181 -0.00224655 -0.0023288 -0.00240793 -0.0024833 -0.00255489 -0.00262272 -0.00268624 -0.00274491 -0.00279872 -0.00284768 -0.00289139 -0.00292945 -0.00296186 -0.00298862 -0.00300953 -0.00302437 -0.00303314 -0.00303584 -0.00303248 -0.00302306 -0.00300758 -0.00298604 -0.00295865 -0.00292563 -0.00288698 -0.0028427 -0.00279319 -0.00273886 -0.00267971 -0.00261573 -0.00254748 -0.0024755 -0.00239979 -0.00232035 -0.00223783 -0.00215288 -0.00206549 -0.00197567 -0.00188412 -0.00179155 -0.00169794 -0.00160332 -0.00150838 -0.00141387 -0.00131977 -0.0012261 -0.00113354 -0.0010428 -0.000953889 -0.000866797 -0.000782158 -0.000700603 -0.000622132 -0.000546744 -0.000474939 -0.000407216 -0.000343574 -0.000284013 -0.000228833 -0.000178333 -0.000132513 -9.13725e-05 -5.49507e-05 -2.32858e-05 3.62237e-06 2.57737e-05 4.34511e-05 5.69376e-05 6.62331e-05 7.13377e-05 7.29549e-05 7.1788e-05 6.78371e-05 6.11022e-05 5.25896e-05 4.33057e-05 3.32506e-05 2.24242e-05 1.26136e-05 5.60604e-06 1.40151e-06 0 0 2.5091e-06 1.00364e-05 2.25819e-05 4.01456e-05 5.95192e-05 7.74944e-05 9.40713e-05 0.00010925 0.000121226 0.000128195 0.000130157 0.000127112 0.000117804 0.000100978 7.66338e-05 4.47709e-05 4.89162e-06 -4.3502e-05 -0.00010041 -0.000165832 -0.000239688 -0.000321897 -0.000412459 -0.000511375 -0.000618095 -0.000732072 -0.000853305 -0.000981795 -0.00111664 -0.00125693 -0.00140268 -0.00155387 -0.00170938 -0.00186807 -0.00202993 -0.00219497 -0.00236194 -0.00252957 -0.00269787 -0.00286683 -0.00303517 -0.0032016 -0.00336612 -0.00352873 -0.00368818 -0.00384323 -0.00399386 -0.00414009 -0.00428077 -0.00441475 -0.00454203 -0.00466262 -0.00477554 -0.00487983 -0.0049755 -0.00506254 -0.00514024 -0.0052079 -0.00526552 -0.0053131 -0.00535027 -0.00537665 -0.00539224 -0.00539705 -0.00539108 -0.00537433 -0.00534681 -0.00530851 -0.00525982 -0.00520112 -0.00513241 -0.00505369 -0.00496568 -0.00486909 -0.00476393 -0.00465019 -0.00452885 -0.00440088 -0.00426628 -0.00412506 -0.00397836 -0.00382734 -0.00367198 -0.00351231 -0.00334955 -0.00318497 -0.00301857 -0.00285034 -0.00268157 -0.00251354 -0.00234626 -0.00217973 -0.00201518 -0.00185387 -0.0016958 -0.00154097 -0.0013905 -0.00124552 -0.00110601 -0.00097199 -0.000844337 -0.00072394 -0.000610798 -0.000504912 -0.000406814 -0.000317036 -0.000235578 -0.00016244 -9.76902e-05 -4.13969e-05 6.43976e-06 4.58198e-05 7.72464e-05 0.000101222 0.000117748 0.000126823 0.000129698 0.000127623 0.000120599 0.000108626 9.34926e-05 7.6988e-05 5.91122e-05 3.98652e-05 2.24242e-05 9.96629e-06 2.49157e-06 0 0 3.71049e-06 1.4842e-05 3.33944e-05 5.93679e-05 8.79377e-05 0.000114279 0.000138393 0.000160278 0.000177218 0.000186494 0.000188107 0.000182057 0.000166462 0.000139442 0.000100996 5.11247e-05 -1.09064e-05 -8.58312e-05 -0.00017365 -0.000274362 -0.000387822 -0.000513884 -0.00065255 -0.000803817 -0.000966832 -0.00114074 -0.00132554 -0.00152123 -0.00172643 -0.00193974 -0.00216117 -0.00239071 -0.00262664 -0.00286722 -0.00311245 -0.00336234 -0.00361498 -0.00386847 -0.00412282 -0.00437801 -0.00463213 -0.00488323 -0.00513131 -0.00537638 -0.00561657 -0.00585002 -0.00607673 -0.0062967 -0.00650823 -0.00670962 -0.00690088 -0.007082 -0.00725156 -0.00740812 -0.0075517 -0.00768228 -0.00779883 -0.00790031 -0.00798672 -0.00805805 -0.00811376 -0.00815331 -0.00817668 -0.00818388 -0.00817492 -0.00814981 -0.00810854 -0.00805112 -0.00797811 -0.00789007 -0.00778701 -0.00766892 -0.00753687 -0.0073919 -0.00723401 -0.00706322 -0.00688095 -0.00668865 -0.00648631 -0.00627395 -0.00605325 -0.00582594 -0.00559201 -0.00535146 -0.00510616 -0.00485797 -0.0046069 -0.00435294 -0.00409802 -0.00384407 -0.0035911 -0.00333909 -0.00308994 -0.00284554 -0.00260588 -0.00237097 -0.00214252 -0.00192223 -0.00171011 -0.00150615 -0.00131172 -0.00112819 -0.000955543 -0.000793793 -0.000643767 -0.000506294 -0.000381374 -0.000269009 -0.000169324 -8.24458e-05 -8.3753e-06 5.28879e-05 0.000102086 0.000139961 0.000166512 0.000181741 0.000187519 0.000185722 0.000176349 0.0001594 0.00013757 0.000113553 8.7351e-05 5.89627e-05 3.31665e-05 1.47407e-05 3.68517e-06 0 0 4.80557e-06 1.92223e-05 4.32502e-05 7.68892e-05 0.000113674 0.00014714 0.000177287 0.000204115 0.00022397 0.0002332 0.000231804 0.000219782 0.000194633 0.000153855 9.74494e-05 2.54151e-05 -6.31921e-05 -0.000169317 -0.000292959 -0.000434118 -0.000592535 -0.00076795 -0.000960361 -0.00116977 -0.00139495 -0.00163467 -0.00188894 -0.00215775 -0.00243916 -0.00273123 -0.00303397 -0.00334736 -0.00366904 -0.00399662 -0.00433009 -0.00466947 -0.00501216 -0.0053556 -0.00569979 -0.00604473 -0.00638783 -0.0067265 -0.00706076 -0.00739059 -0.00771355 -0.00802718 -0.00833147 -0.00862643 -0.00890984 -0.0091795 -0.00943539 -0.00967753 -0.00990407 -0.0101131 -0.0103048 -0.010479 -0.0106344 -0.0107696 -0.0108848 -0.0109798 -0.011054 -0.0111066 -0.0111377 -0.0111473 -0.0111354 -0.0111019 -0.0110469 -0.0109704 -0.0108732 -0.0107558 -0.0106184 -0.0104609 -0.0102847 -0.0100912 -0.00988034 -0.00965211 -0.0094084 -0.00915107 -0.00888011 -0.00859554 -0.00829956 -0.00799442 -0.00768011 -0.00735664 -0.00702645 -0.00669201 -0.00635333 -0.0060104 -0.0056658 -0.00532211 -0.00497933 -0.00463746 -0.00429905 -0.00396667 -0.00364032 -0.00332 -0.00300806 -0.00270685 -0.00241637 -0.00213663 -0.00186953 -0.00161698 -0.00137898 -0.00115552 -0.00094781 -0.00075703 -0.000583185 -0.000426275 -0.000286534 -0.000164196 -5.92603e-05 2.82724e-05 9.93583e-05 0.000154954 0.000195058 0.000219672 0.000231288 0.000232396 0.000222999 0.000203095 0.000176308 0.000146261 0.000112955 7.63901e-05 4.29694e-05 1.90975e-05 4.77438e-06 0 0 5.79434e-06 2.31774e-05 5.21491e-05 9.27095e-05 0.000136729 0.000176077 0.000210753 0.000240759 0.000261482 0.00026831 0.000261245 0.000240285 0.000202315 0.000144218 6.59935e-05 -3.23579e-05 -0.000151966 -0.000293959 -0.000458338 -0.000645103 -0.000853829 -0.00108409 -0.00133589 -0.00160923 -0.00190245 -0.00221387 -0.0025435 -0.00289134 -0.00325483 -0.00363141 -0.00402107 -0.00442383 -0.00483658 -0.00525626 -0.00568285 -0.00611635 -0.00655348 -0.00699097 -0.0074288 -0.00786698 -0.00830227 -0.00873143 -0.00915447 -0.00957137 -0.00997912 -0.0103747 -0.0107581 -0.0111293 -0.0114856 -0.0118244 -0.0121456 -0.0124492 -0.0127331 -0.0129949 -0.0132348 -0.0134526 -0.0136468 -0.0138159 -0.0139597 -0.0140783 -0.0141709 -0.0142366 -0.0142754 -0.0142873 -0.0142724 -0.0142306 -0.014162 -0.0140665 -0.013945 -0.0137983 -0.0136266 -0.0134297 -0.0132093 -0.012967 -0.0127029 -0.0124169 -0.0121112 -0.0117881 -0.0114477 -0.0110898 -0.0107173 -0.0103328 -0.00993629 -0.00952782 -0.00911041 -0.00868708 -0.00825786 -0.00782272 -0.00738491 -0.00694766 -0.00651096 -0.00607482 -0.00564251 -0.00521727 -0.00479912 -0.00438805 -0.00398712 -0.00359937 -0.00322482 -0.00286344 -0.00251778 -0.00219033 -0.00188111 -0.0015901 -0.00131894 -0.00106925 -0.000841011 -0.000634239 -0.000449321 -0.000286647 -0.000146215 -2.80268e-05 6.90635e-05 0.000146201 0.000203385 0.000240617 0.000261002 0.000267646 0.000260549 0.000239711 0.000209707 0.000175112 0.000135925 9.21474e-05 5.18329e-05 2.30369e-05 5.75921e-06 0 0 6.6768e-06 2.67072e-05 6.00912e-05 0.000106829 0.000157101 0.000201089 0.000238792 0.000270211 0.000289753 0.000291827 0.000276432 0.000243568 0.00018951 0.00011053 6.62844e-06 -0.000122194 -0.000277227 -0.000459757 -0.000669787 -0.000907314 -0.0011717 -0.00146231 -0.00177915 -0.00212221 -0.00248932 -0.00287833 -0.00328923 -0.00372201 -0.00417344 -0.00464027 -0.00512249 -0.0056201 -0.00612927 -0.00664614 -0.00717072 -0.00770299 -0.00823895 -0.00877456 -0.00930984 -0.00984477 -0.0103755 -0.010898 -0.0114124 -0.0119187 -0.0124133 -0.0128926 -0.0133566 -0.0138053 -0.0142355 -0.0146443 -0.0150314 -0.015397 -0.0157386 -0.0160534 -0.0163416 -0.0166032 -0.0168363 -0.017039 -0.0172115 -0.0173536 -0.0174645 -0.0175432 -0.0175897 -0.017604 -0.0175861 -0.0175359 -0.0174537 -0.0173392 -0.0171936 -0.0170177 -0.0168116 -0.0165753 -0.0163106 -0.0160194 -0.0157017 -0.0153575 -0.0149894 -0.0145999 -0.014189 -0.0137568 -0.0133064 -0.012841 -0.0123605 -0.011865 -0.011358 -0.0108432 -0.0103205 -0.0097899 -0.00925535 -0.00872072 -0.008186 -0.00765119 -0.00712031 -0.00659733 -0.00608228 -0.00557513 -0.00507971 -0.00459981 -0.00413543 -0.00368658 -0.00325645 -0.00284823 -0.00246193 -0.00209753 -0.00175717 -0.00144294 -0.00115485 -0.000892901 -0.000657686 -0.000449798 -0.00026924 -0.00011601 1.12014e-05 0.000113703 0.000191494 0.000244575 0.000276662 0.00029147 0.000288999 0.000269249 0.000237768 0.000200105 0.000156261 0.000106235 5.9757e-05 2.65587e-05 6.63966e-06 0 0 7.33005e-06 2.93202e-05 6.59704e-05 0.000117281 0.000171827 0.000218186 0.000256356 0.000286339 0.000301587 0.000295554 0.00026824 0.000219646 0.000145489 4.1488e-05 -9.23562e-05 -0.000256044 -0.000450958 -0.000678482 -0.000938615 -0.00123136 -0.00155578 -0.00191096 -0.00229689 -0.00271358 -0.00315827 -0.00362822 -0.00412343 -0.0046439 -0.00518563 -0.00574461 -0.00632086 -0.00691438 -0.00752051 -0.00813463 -0.00875673 -0.00938682 -0.0100201 -0.0106519 -0.0112822 -0.011911 -0.0125337 -0.0131459 -0.0137476 -0.0143388 -0.0149155 -0.0154735 -0.016013 -0.0165339 -0.0170328 -0.0175061 -0.017954 -0.0183764 -0.0187705 -0.0191336 -0.0194657 -0.0197667 -0.0200347 -0.0202679 -0.020466 -0.0206292 -0.0207565 -0.0208468 -0.0209001 -0.0209164 -0.0208958 -0.0208383 -0.0207438 -0.0206123 -0.020445 -0.0202428 -0.0200058 -0.0197339 -0.0194292 -0.0190936 -0.0187271 -0.0183298 -0.0179044 -0.0174537 -0.0169778 -0.0164766 -0.0159537 -0.0154124 -0.0148528 -0.0142749 -0.0136828 -0.0130805 -0.012468 -0.0118453 -0.0112169 -0.0105872 -0.00995639 -0.00932434 -0.0086958 -0.00807551 -0.00746346 -0.00685965 -0.00626868 -0.00569513 -0.005139 -0.0046003 -0.00408296 -0.00359091 -0.00312416 -0.00268271 -0.00226924 -0.00188643 -0.00153428 -0.0012128 -0.000922864 -0.000665339 -0.000440228 -0.000247533 -8.58432e-05 4.62509e-05 0.000148749 0.000221652 0.000269229 0.000295752 0.000301221 0.000285635 0.000255492 0.00021729 0.000171027 0.000116705 6.56465e-05 2.91762e-05 7.29405e-06 0 0 7.63118e-06 3.05247e-05 6.86807e-05 0.000122099 0.000177943 0.000223377 0.0002584 0.000283012 0.000289788 0.0002713 0.000227548 0.000158534 5.95246e-05 -7.42104e-05 -0.000242671 -0.000445857 -0.000685143 -0.000961902 -0.00127613 -0.00162784 -0.00201569 -0.00243838 -0.00289589 -0.00338824 -0.00391199 -0.00446372 -0.00504344 -0.00565114 -0.00628202 -0.00693126 -0.00759886 -0.00828483 -0.00898371 -0.00969008 -0.0104039 -0.0111252 -0.0118486 -0.0125686 -0.0132852 -0.0139985 -0.0147033 -0.0153949 -0.0160731 -0.0167379 -0.0173851 -0.0180103 -0.0186136 -0.0191948 -0.0197505 -0.020277 -0.0207744 -0.0212426 -0.0216788 -0.0220803 -0.0224471 -0.0227791 -0.0230745 -0.0233311 -0.0235492 -0.0237286 -0.0238684 -0.0239676 -0.0240261 -0.024044 -0.0240213 -0.023958 -0.0238541 -0.0237096 -0.0235255 -0.0233029 -0.0230417 -0.022742 -0.0224058 -0.022035 -0.0216296 -0.0211896 -0.0207179 -0.0202172 -0.0196877 -0.0191293 -0.0185455 -0.0179401 -0.0173131 -0.0166643 -0.0159983 -0.0153192 -0.0146272 -0.0139222 -0.0132092 -0.0124931 -0.0117741 -0.011052 -0.0103324 -0.00962046 -0.00891635 -0.00822003 -0.00753689 -0.00687231 -0.00622629 -0.00559884 -0.00499469 -0.00441859 -0.00387054 -0.00335053 -0.00286191 -0.00240803 -0.00198889 -0.00160449 -0.00125609 -0.000944955 -0.000671075 -0.000434454 -0.000233686 -6.73621e-05 6.45166e-05 0.00016195 0.000229662 0.000272374 0.000290086 0.000282798 0.000257883 0.000222713 0.000177289 0.000121611 6.84063e-05 3.04028e-05 7.6007e-06 0 0 7.58021e-06 3.03208e-05 6.82219e-05 0.000121283 0.000175449 0.000216662 0.000244922 0.000260231 0.000254355 0.000219063 0.000154356 6.02325e-05 -6.83826e-05 -0.000236565 -0.000444316 -0.000691634 -0.000979781 -0.00131002 -0.00168234 -0.00209676 -0.00255144 -0.00304457 -0.00357615 -0.00414618 -0.00475046 -0.00538482 -0.00604925 -0.00674374 -0.00746262 -0.0082002 -0.00895648 -0.00973146 -0.0105189 -0.0113125 -0.0121123 -0.0129183 -0.0137244 -0.0145246 -0.0153189 -0.0161072 -0.0168844 -0.0176449 -0.0183888 -0.019116 -0.0198223 -0.020503 -0.0211582 -0.0217879 -0.0223887 -0.0229568 -0.0234925 -0.0239956 -0.0244636 -0.0248937 -0.025286 -0.0256405 -0.0259554 -0.0262289 -0.026461 -0.0266518 -0.0268003 -0.0269056 -0.0269677 -0.0269866 -0.0269624 -0.026895 -0.0267845 -0.0266308 -0.026435 -0.0261978 -0.0259193 -0.0255996 -0.0252404 -0.0248435 -0.024409 -0.0239369 -0.0234298 -0.0228904 -0.0223187 -0.0217148 -0.0210821 -0.0204243 -0.0197413 -0.0190332 -0.0183043 -0.0175593 -0.0167981 -0.0160206 -0.0152323 -0.0144384 -0.0136391 -0.0128343 -0.0120299 -0.0112322 -0.0104409 -0.00965627 -0.00888433 -0.00813134 -0.0073973 -0.00668221 -0.00599166 -0.00533128 -0.00470105 -0.00410099 -0.00353518 -0.00300774 -0.00251867 -0.00206797 -0.00165738 -0.00128865 -0.000961779 -0.000676773 -0.000432326 -0.000227136 -6.12038e-05 6.54716e-05 0.000157961 0.000221335 0.000255593 0.000260736 0.000244939 0.000216376 0.000175048 0.000120954 6.80364e-05 3.02384e-05 7.5596e-06 0 0 7.17712e-06 2.87085e-05 6.45941e-05 0.000114834 0.000164344 0.000198041 0.000215924 0.000217994 0.000195288 0.000138844 4.8662e-05 -7.52584e-05 -0.000238233 -0.000445577 -0.000697291 -0.000993375 -0.00133487 -0.00172283 -0.00215724 -0.00263811 -0.00316302 -0.00372953 -0.00433766 -0.0049874 -0.0056737 -0.00639152 -0.00714085 -0.0079217 -0.00872743 -0.00955144 -0.0103937 -0.0112543 -0.012126 -0.0130019 -0.0138818 -0.0147659 -0.0156474 -0.0165199 -0.0173832 -0.0182373 -0.0190768 -0.0198959 -0.0206947 -0.0214731 -0.0222268 -0.0229514 -0.0236469 -0.0243133 -0.0249473 -0.0255457 -0.0261084 -0.0266355 -0.0271247 -0.0275736 -0.0279823 -0.0283508 -0.0286775 -0.0289611 -0.0292015 -0.0293987 -0.0295521 -0.0296608 -0.0297249 -0.0297443 -0.0297192 -0.0296495 -0.0295351 -0.0293762 -0.0291734 -0.0289276 -0.0286386 -0.0283066 -0.0279329 -0.0275192 -0.0270655 -0.0265716 -0.0260401 -0.0254731 -0.0248708 -0.0242331 -0.0235633 -0.0228648 -0.0221375 -0.0213815 -0.0206011 -0.0198008 -0.0189806 -0.0181405 -0.0172862 -0.0164231 -0.0155514 -0.014671 -0.0137886 -0.0129107 -0.0120372 -0.0111684 -0.010311 -0.00947224 -0.00865204 -0.0078504 -0.00707386 -0.00632897 -0.00561571 -0.00493409 -0.00428906 -0.00368557 -0.00312363 -0.00260323 -0.00212671 -0.00169641 -0.00131234 -0.000974489 -0.000681764 -0.000433072 -0.000228412 -6.77846e-05 5.4126e-05 0.000142635 0.000197744 0.000219451 0.000216661 0.000198278 0.000164302 0.000114732 6.45368e-05 2.8683e-05 7.17076e-06 0 0 6.34203e-06 2.53681e-05 5.70783e-05 0.000101473 0.000142717 0.000164977 0.000168253 0.000152544 0.000108284 2.59026e-05 -9.45989e-05 -0.000253221 -0.000455364 -0.000706428 -0.00100641 -0.00135532 -0.00175383 -0.00220263 -0.00270172 -0.0032511 -0.0038476 -0.00448808 -0.00517253 -0.00590095 -0.00666734 -0.00746566 -0.00829593 -0.00915814 -0.0100447 -0.0109479 -0.0118679 -0.0128046 -0.0137501 -0.0146966 -0.015644 -0.0165924 -0.0175346 -0.0184636 -0.0193793 -0.0202819 -0.0211655 -0.0220246 -0.0228591 -0.0236691 -0.0244505 -0.0251991 -0.025915 -0.0265982 -0.0272459 -0.0278554 -0.0284268 -0.02896 -0.0294534 -0.0299052 -0.0303156 -0.0306843 -0.0310106 -0.0312935 -0.0315329 -0.0317288 -0.0318809 -0.0319887 -0.0320522 -0.0320713 -0.0320462 -0.0319768 -0.0318632 -0.0317052 -0.0315034 -0.0312583 -0.0309697 -0.0306378 -0.0302635 -0.0298478 -0.0293907 -0.0288923 -0.0283542 -0.0277781 -0.0271641 -0.0265123 -0.0258252 -0.0251058 -0.024354 -0.0235699 -0.0227575 -0.021921 -0.0210605 -0.0201758 -0.0192727 -0.0183569 -0.0174284 -0.0164872 -0.0155403 -0.0145948 -0.0136507 -0.0127081 -0.0117747 -0.0108583 -0.00995902 -0.00907682 -0.0082192 -0.00739369 -0.0066003 -0.00583901 -0.00511575 -0.00443641 -0.00380099 -0.00320951 -0.00266501 -0.00217057 -0.00172617 -0.00133183 -0.000986793 -0.00069032 -0.00044241 -0.000243063 -8.68713e-05 3.15722e-05 0.000112267 0.000155214 0.000169923 0.000165903 0.000143156 0.00010168 5.71949e-05 2.542e-05 6.35499e-06 0 0 4.99508e-06 1.99803e-05 4.49557e-05 7.99212e-05 0.000108654 0.000114932 9.87549e-05 6.01225e-05 -1.09637e-05 -0.000124502 -0.000280494 -0.000478937 -0.000725113 -0.0010243 -0.0013765 -0.00178171 -0.00224008 -0.00275173 -0.00331667 -0.00393491 -0.00460238 -0.00531503 -0.00607286 -0.00687588 -0.00771698 -0.00858907 -0.00949215 -0.0104262 -0.0113826 -0.0123527 -0.0133364 -0.0143339 -0.0153363 -0.0163352 -0.0173304 -0.018322 -0.0193026 -0.0202648 -0.0212086 -0.022134 -0.0230355 -0.0239077 -0.0247505 -0.0255641 -0.0263448 -0.0270894 -0.0277977 -0.0284697 -0.0291038 -0.029698 -0.0302524 -0.030767 -0.031241 -0.0316738 -0.0320653 -0.0324156 -0.0327244 -0.0329916 -0.0332173 -0.0334013 -0.0335438 -0.0336447 -0.0337041 -0.0337219 -0.0336981 -0.0336328 -0.0335259 -0.0333774 -0.0331874 -0.0329559 -0.0326828 -0.0323681 -0.0320121 -0.031615 -0.0311767 -0.0306972 -0.0301773 -0.0296179 -0.0290188 -0.0283801 -0.0277036 -0.0269913 -0.0262431 -0.0254591 -0.0246426 -0.0237973 -0.0229232 -0.0220202 -0.0210938 -0.0201496 -0.0191875 -0.0182075 -0.017217 -0.0162235 -0.0152269 -0.0142272 -0.0132329 -0.0122528 -0.0112868 -0.0103349 -0.00940556 -0.00850748 -0.00764061 -0.00680494 -0.00600746 -0.00525515 -0.00454802 -0.00388605 -0.0032732 -0.00271341 -0.00220668 -0.00175302 -0.00135221 -0.00100403 -0.000708501 -0.000465608 -0.00027006 -0.000116559 -5.10616e-06 6.42984e-05 0.000101598 0.000116737 0.000109714 8.05297e-05 4.5298e-05 2.01324e-05 5.03311e-06 0 0 3.13624e-06 1.2545e-05 2.82262e-05 5.01798e-05 6.21566e-05 4.79069e-05 7.43098e-06 -5.92713e-05 -0.000162454 -0.000312371 -0.000509022 -0.000752407 -0.00104748 -0.0013992 -0.00180755 -0.00227255 -0.00279361 -0.00337012 -0.0040021 -0.00468954 -0.00542734 -0.00621038 -0.00703866 -0.00791218 -0.00882265 -0.00976175 -0.0107295 -0.0117259 -0.0127412 -0.0137656 -0.0147992 -0.015842 -0.0168846 -0.0179175 -0.018941 -0.0199548 -0.0209515 -0.0219236 -0.022871 -0.0237937 -0.0246868 -0.0255452 -0.0263689 -0.0271579 -0.0279099 -0.0286222 -0.0292949 -0.029928 -0.0305211 -0.0310735 -0.0315852 -0.0320564 -0.0324875 -0.0328793 -0.0332316 -0.0335445 -0.0338189 -0.0340556 -0.0342548 -0.0344163 -0.0345409 -0.034629 -0.0346807 -0.034696 -0.0346748 -0.0346173 -0.0345233 -0.0343929 -0.0342255 -0.0340205 -0.0337778 -0.0334976 -0.0331788 -0.0328207 -0.0324232 -0.0319864 -0.0315096 -0.0309924 -0.0304347 -0.0298366 -0.0291986 -0.0285214 -0.0278048 -0.027049 -0.0262565 -0.0254297 -0.0245688 -0.0236736 -0.0227494 -0.021801 -0.0208285 -0.0198319 -0.0188188 -0.0177968 -0.0167657 -0.0157256 -0.0146859 -0.0136558 -0.0126353 -0.0116245 -0.010633 -0.00967034 -0.00873665 -0.00783188 -0.00696421 -0.00614181 -0.00536469 -0.00463284 -0.00395126 -0.00332494 -0.00275387 -0.00223806 -0.001778 -0.00137421 -0.00102668 -0.000735421 -0.000495439 -0.000301758 -0.000154377 -5.32965e-05 1.16871e-05 5.07781e-05 6.39763e-05 5.12817e-05 2.8846e-05 1.28204e-05 3.20511e-06 0 0 7.65526e-07 3.06211e-06 6.88974e-06 1.22484e-05 3.22374e-06 -3.60987e-05 -0.000105719 -0.000205637 -0.000346187 -0.000537703 -0.000780184 -0.00107363 -0.00142247 -0.00183111 -0.00229957 -0.00282784 -0.00341442 -0.00405781 -0.004758 -0.00551501 -0.00632249 -0.00717412 -0.00806991 -0.00900985 -0.00998433 -0.0109837 -0.012008 -0.0130572 -0.0141204 -0.0151868 -0.0162564 -0.017329 -0.0183948 -0.0194437 -0.0204757 -0.0214907 -0.0224813 -0.0234399 -0.0243665 -0.025261 -0.0261193 -0.026937 -0.0277141 -0.0284507 -0.0291456 -0.0297976 -0.0304067 -0.030973 -0.0314976 -0.0319817 -0.0324252 -0.0328282 -0.0331929 -0.0335216 -0.0338143 -0.0340711 -0.034294 -0.0344855 -0.0346454 -0.0347738 -0.034872 -0.0349414 -0.0349819 -0.0349936 -0.0349764 -0.0349303 -0.0348554 -0.0347516 -0.0346176 -0.034452 -0.0342548 -0.0340261 -0.0337635 -0.033465 -0.0331304 -0.0327598 -0.032351 -0.0319017 -0.031412 -0.0308819 -0.0303102 -0.029696 -0.0290392 -0.0283398 -0.027599 -0.0268182 -0.0259973 -0.0251362 -0.0242394 -0.0233112 -0.0223516 -0.0213606 -0.0203457 -0.0193146 -0.0182672 -0.0172035 -0.0161335 -0.0150672 -0.0140046 -0.0129458 -0.0119014 -0.0108823 -0.00988841 -0.00891982 -0.00798598 -0.00709638 -0.00625102 -0.0054499 -0.00469922 -0.00400516 -0.00336774 -0.00278695 -0.00226418 -0.00180086 -0.00139696 -0.0010525 -0.000763009 -0.000524024 -0.000335545 -0.000197571 -9.98105e-05 -3.19727e-05 5.94278e-06 1.3936e-05 7.83897e-06 3.48399e-06 8.70997e-07 0 0 -2.13323e-06 -8.53291e-06 -1.91991e-05 -3.41317e-05 -6.85097e-05 -0.000137512 -0.000241139 -0.000379391 -0.000562468 -0.000800571 -0.0010937 -0.00144185 -0.00184868 -0.00231784 -0.00284931 -0.00344311 -0.00409659 -0.00480714 -0.00557475 -0.00639942 -0.00727342 -0.00818902 -0.00914622 -0.010145 -0.0111744 -0.0122232 -0.0132914 -0.0143791 -0.0154742 -0.0165646 -0.0176504 -0.0187315 -0.0197973 -0.0208372 -0.0218511 -0.0228391 -0.0237939 -0.024708 -0.0255816 -0.0264145 -0.0272036 -0.0279456 -0.0286405 -0.0292884 -0.0298898 -0.0304454 -0.0309551 -0.0314189 -0.0318401 -0.032222 -0.0325647 -0.032868 -0.0331364 -0.0333742 -0.0335815 -0.0337582 -0.0339083 -0.0340356 -0.0341402 -0.034222 -0.0342834 -0.0343265 -0.0343514 -0.0343581 -0.0343465 -0.0343167 -0.0342685 -0.0342021 -0.0341151 -0.0340053 -0.0338726 -0.033717 -0.0335346 -0.0333216 -0.033078 -0.0328036 -0.0324943 -0.0321457 -0.0317578 -0.0313306 -0.030861 -0.0303456 -0.0297847 -0.029178 -0.0285253 -0.0278258 -0.0270798 -0.0262871 -0.0254512 -0.0245752 -0.0236592 -0.0227033 -0.0217147 -0.0207009 -0.0196619 -0.0185977 -0.0175188 -0.0164359 -0.015349 -0.014258 -0.0131749 -0.0121118 -0.0110685 -0.0100451 -0.00905258 -0.00810179 -0.00719275 -0.00632547 -0.00550754 -0.00474653 -0.00404244 -0.00339528 -0.00280755 -0.00228179 -0.00181797 -0.00141611 -0.00107251 -0.000783442 -0.000548921 -0.000368943 -0.00023334 -0.000131943 -6.47518e-05 -3.1766e-05 -1.78683e-05 -7.94149e-06 -1.98537e-06 0 0 -5.57619e-06 -2.23048e-05 -5.01857e-05 -8.92191e-05 -0.000153409 -0.000256761 -0.000399274 -0.000580949 -0.000811601 -0.00110105 -0.00144929 -0.00185632 -0.00232475 -0.00285715 -0.00345352 -0.00411388 -0.0048342 -0.00561048 -0.00644272 -0.00733091 -0.00826573 -0.00923782 -0.0102472 -0.0112938 -0.0123651 -0.0134483 -0.0145434 -0.0156505 -0.0167563 -0.0178474 -0.018924 -0.0199859 -0.021022 -0.0220213 -0.0229837 -0.0239093 -0.0247911 -0.0256222 -0.0264027 -0.0271326 -0.02781 -0.0284332 -0.0290022 -0.029517 -0.0299805 -0.0303954 -0.0307618 -0.0310797 -0.031355 -0.0315937 -0.0317958 -0.0319613 -0.0320971 -0.0322103 -0.0323008 -0.0323688 -0.03242 -0.0324605 -0.0324903 -0.0325095 -0.0325213 -0.0325291 -0.0325331 -0.0325331 -0.0325291 -0.0325211 -0.0325091 -0.032493 -0.0324695 -0.0324351 -0.0323898 -0.0323336 -0.0322605 -0.0321646 -0.0320457 -0.0319041 -0.0317326 -0.0315243 -0.0312794 -0.0309978 -0.0306735 -0.0303009 -0.0298799 -0.0294105 -0.02889 -0.0283157 -0.0276876 -0.0270056 -0.0262717 -0.0254878 -0.0246539 -0.02377 -0.022843 -0.0218799 -0.0208806 -0.0198453 -0.0187849 -0.0177106 -0.0166225 -0.0155204 -0.0144176 -0.0133273 -0.0122495 -0.0111842 -0.0101438 -0.00914097 -0.00817564 -0.00724783 -0.00636671 -0.00554148 -0.00477212 -0.00405864 -0.00340492 -0.00281482 -0.00228836 -0.00182553 -0.00142367 -0.00108009 -0.000794816 -0.000567834 -0.000389349 -0.000249561 -0.000148473 -8.60823e-05 -4.84213e-05 -2.15206e-05 -5.38014e-06 0 0 -9.56336e-06 -3.82535e-05 -8.60703e-05 -0.000153014 -0.000251475 -0.000393845 -0.000580123 -0.00081031 -0.00109359 -0.00143913 -0.00184695 -0.00231704 -0.00285065 -0.00344904 -0.00411221 -0.00484015 -0.00562723 -0.00646781 -0.0073619 -0.00830948 -0.00929941 -0.0103205 -0.0113728 -0.0124563 -0.0135565 -0.0146591 -0.0157641 -0.0168715 -0.0179667 -0.0190352 -0.020077 -0.0210922 -0.0220691 -0.0229962 -0.0238736 -0.0247012 -0.0254729 -0.0261825 -0.02683 -0.0274153 -0.0279386 -0.0284 -0.0287993 -0.0291366 -0.0294175 -0.0296476 -0.0298269 -0.0299554 -0.0300422 -0.0300966 -0.0301186 -0.030108 -0.0300751 -0.0300299 -0.0299724 -0.0299027 -0.0298292 -0.0297602 -0.0296958 -0.029636 -0.0295856 -0.0295491 -0.0295267 -0.0295184 -0.029524 -0.0295435 -0.029577 -0.0296244 -0.0296809 -0.0297416 -0.0298067 -0.029876 -0.0299412 -0.0299938 -0.0300337 -0.030061 -0.0300656 -0.0300376 -0.0299768 -0.0298832 -0.0297479 -0.0295619 -0.029325 -0.0290373 -0.0286934 -0.0282878 -0.0278205 -0.0272916 -0.0267011 -0.0260491 -0.0253356 -0.0245606 -0.0237305 -0.0228513 -0.0219233 -0.0209462 -0.0199318 -0.0188914 -0.0178252 -0.0167331 -0.0156295 -0.014529 -0.0134314 -0.0123369 -0.0112597 -0.0102139 -0.00919969 -0.00821697 -0.00727675 -0.00639002 -0.00555679 -0.00477704 -0.00405628 -0.00339997 -0.00280813 -0.00228075 -0.00181649 -0.00141398 -0.00107323 -0.000794244 -0.000567835 -0.000384827 -0.00024522 -0.000149013 -8.38198e-05 -3.72532e-05 -9.31331e-06 0 0 -1.40947e-05 -5.6379e-05 -0.000126853 -0.000225516 -0.000362707 -0.000548764 -0.000783687 -0.00106748 -0.00140843 -0.00181483 -0.00228669 -0.002824 -0.0034264 -0.00409353 -0.00482537 -0.00562193 -0.00647569 -0.00737915 -0.0083323 -0.00933514 -0.0103745 -0.0114371 -0.0125231 -0.0136323 -0.0147486 -0.0158556 -0.0169534 -0.018042 -0.0191055 -0.020128 -0.0211097 -0.0220504 -0.0229384 -0.0237618 -0.0245206 -0.0252149 -0.0258394 -0.0263889 -0.0268633 -0.0272627 -0.0275895 -0.0278457 -0.0280316 -0.028147 -0.0282009 -0.028202 -0.0281504 -0.0280461 -0.0279019 -0.0277309 -0.027533 -0.0273082 -0.0270703 -0.026833 -0.0265963 -0.0263601 -0.0261358 -0.0259347 -0.0257567 -0.0256018 -0.0254763 -0.0253865 -0.0253324 -0.025314 -0.0253312 -0.025384 -0.0254723 -0.0255961 -0.025749 -0.0259247 -0.0261231 -0.0263442 -0.0265767 -0.0268092 -0.0270418 -0.0272745 -0.0274936 -0.0276854 -0.0278498 -0.027987 -0.0280841 -0.0281284 -0.0281198 -0.0280583 -0.0279353 -0.0277421 -0.0274787 -0.0271451 -0.0267393 -0.026259 -0.0257044 -0.0250753 -0.0243772 -0.0236154 -0.0227898 -0.0219006 -0.0209594 -0.0199783 -0.0189572 -0.017896 -0.0168106 -0.0157167 -0.0146143 -0.0135034 -0.0124002 -0.0113207 -0.0102649 -0.00923289 -0.00823764 -0.00729215 -0.006396