<?xml version="1.0"?> 
<VTKFile type="StructuredGrid" version="0.1"> 
<StructuredGrid WholeExtent="0 128 0 128 0 0"> 
<Piece Extent="0 128 0 128 0 0"> 
<PointData>
<DataArray type="Float32" Name="u" format="ascii" NumberOfComponents="1"> 
0 0 0 0 0 0 0 0 0 0 0 0 0 0 0 0 0 0 0 0 0 0 0 0 0 0 0 0 0 0 0 0 0 0 0 0 0 0 0 0 0 0 0 0 0 0 0 0 0 0 0 0 0 0 0 0 0 0 0 0 0 0 0 0 0 0 0 0 0 0 0 0 0 0 0 0 0 0 0 0 0 0 0 0 0 0 0 0 0 0 0 0 0 0 0 0 0 0 0 0 0 0 0 0 0 0 0 0 0 0 0 0 0 0 0 0 0 0 0 0 0 0 0 0 0 0 0 0 0 0 1.92193e-07 7.68772e-07 1.72974e-06 3.07509e-06 4.59552e-06 6.08172e-06 7.5337e-06 8.95146e-06 1.02159e-05 1.12078e-05 1.19273e-05 1.23743e-05 1.24588e-05 1.20908e-05 1.12703e-05 9.9973e-06 8.23067e-06 5.92931e-06 3.09322e-06 -2.77609e-07 -4.18708e-06 -8.63911e-06 -1.36337e-05 -1.91708e-05 -2.52247e-05 -3.17696e-05 -3.88054e-05 -4.63322e-05 -5.43012e-05 -6.26636e-05 -7.14195e-05 -8.05689e-05 -9.00464e-05 -9.97865e-05 -0.000109789 -0.000120055 -0.000130507 -0.000141067 -0.000151736 -0.000162514 -0.000173317 -0.000184059 -0.00019474 -0.000205362 -0.000215834 -0.000226069 -0.000236067 -0.000245826 -0.000255261 -0.000264285 -0.000272896 -0.000281095 -0.000288804 -0.000295945 -0.000302518 -0.000308523 -0.0003139 -0.000318591 -0.000322594 -0.000325909 -0.000328506 -0.000330351 -0.000331444 -0.000331785 -0.000331376 -0.000330215 -0.000328304 -0.000325642 -0.000322262 -0.000318197 -0.000313447 -0.000308012 -0.000301952 -0.000295327 -0.000288138 -0.000280385 -0.000272145 -0.000263498 -0.000254443 -0.00024498 -0.000235198 -0.000225183 -0.000214936 -0.000204456 -0.000193832 -0.000183152 -0.000172418 -0.000161627 -0.000150866 -0.000140218 -0.000129684 -0.000119262 -0.00010903 -9.90643e-05 -8.9364e-05 -7.99294e-05 -7.08251e-05 -6.21156e-05 -5.38008e-05 -4.58808e-05 -3.84033e-05 -3.1416e-05 -2.4919e-05 -1.89122e-05 -1.34206e-05 -8.46886e-06 -4.05715e-06 -1.85418e-07 3.15088e-06 5.95631e-06 8.23085e-06 9.97452e-06 1.12286e-05 1.20343e-05 1.23917e-05 1.23007e-05 1.1851e-05 1.11319e-05 1.01434e-05 8.88566e-06 7.47665e-06 6.03443e-06 4.55902e-06 3.05041e-06 1.71586e-06 7.62603e-07 1.90651e-07 0 0 7.68772e-07 3.07509e-06 6.91895e-06 1.23004e-05 1.83821e-05 2.43269e-05 3.01348e-05 3.58058e-05 4.08635e-05 4.48312e-05 4.77091e-05 4.94971e-05 4.98352e-05 4.83632e-05 4.50812e-05 3.99892e-05 3.29227e-05 2.37173e-05 1.23729e-05 -1.11044e-06 -1.67483e-05 -3.45564e-05 -5.45347e-05 -7.66833e-05 -0.000100899 -0.000127078 -0.000155222 -0.000185329 -0.000217205 -0.000250654 -0.000285678 -0.000322276 -0.000360185 -0.000399146 -0.000439158 -0.00048022 -0.000522026 -0.000564267 -0.000606944 -0.000650057 -0.000693267 -0.000736235 -0.000778962 -0.000821447 -0.000863337 -0.000904277 -0.000944266 -0.000983306 -0.00102105 -0.00105714 -0.00109158 -0.00112438 -0.00115522 -0.00118378 -0.00121007 -0.00123409 -0.0012556 -0.00127436 -0.00129037 -0.00130364 -0.00131402 -0.0013214 -0.00132577 -0.00132714 -0.0013255 -0.00132086 -0.00131322 -0.00130257 -0.00128905 -0.00127279 -0.00125379 -0.00123205 -0.00120781 -0.00118131 -0.00115255 -0.00112154 -0.00108858 -0.00105399 -0.00101777 -0.000979921 -0.000940792 -0.000900732 -0.000859742 -0.000817822 -0.000775326 -0.000732609 -0.00068967 -0.00064651 -0.000603465 -0.000560873 -0.000518735 -0.000477049 -0.000436122 -0.000396257 -0.000357456 -0.000319718 -0.000283301 -0.000248462 -0.000215203 -0.000183523 -0.000153613 -0.000125664 -9.9676e-05 -7.56489e-05 -5.36822e-05 -3.38754e-05 -1.62286e-05 -7.41671e-07 1.26035e-05 2.38252e-05 3.29234e-05 3.98981e-05 4.49143e-05 4.81372e-05 4.95667e-05 4.9203e-05 4.74038e-05 4.45274e-05 4.05737e-05 3.55427e-05 2.99066e-05 2.41377e-05 1.82361e-05 1.22016e-05 6.86343e-06 3.05041e-06 7.62603e-07 0 0 1.72974e-06 6.91895e-06 1.55676e-05 2.76758e-05 4.13597e-05 5.47355e-05 6.78033e-05 8.05631e-05 9.19428e-05 0.00010087 0.000107345 0.000111368 0.000112129 0.000108817 0.000101433 8.99757e-05 7.4076e-05 5.33638e-05 2.7839e-05 -2.49848e-06 -3.76837e-05 -7.7752e-05 -0.000122703 -0.000172537 -0.000227022 -0.000285926 -0.000349248 -0.000416989 -0.00048871 -0.000563972 -0.000642776 -0.00072512 -0.000810417 -0.000898079 -0.000988105 -0.0010805 -0.00117456 -0.0012696 -0.00136562 -0.00146263 -0.00155985 -0.00165653 -0.00175266 -0.00184826 -0.00194251 -0.00203462 -0.0021246 -0.00221244 -0.00229735 -0.00237856 -0.00245606 -0.00252986 -0.00259924 -0.00266351 -0.00272266 -0.00277671 -0.0028251 -0.00286732 -0.00290334 -0.00293318 -0.00295655 -0.00297315 -0.00298299 -0.00298607 -0.00298238 -0.00297194 -0.00295474 -0.00293078 -0.00290035 -0.00286377 -0.00282102 -0.0027721 -0.00271757 -0.00265795 -0.00259324 -0.00252346 -0.0024493 -0.00237148 -0.00228998 -0.00220482 -0.00211678 -0.00202665 -0.00193442 -0.0018401 -0.00174448 -0.00164837 -0.00155176 -0.00145465 -0.0013578 -0.00126197 -0.00116715 -0.00107336 -0.000981274 -0.000891579 -0.000804276 -0.000719365 -0.000637426 -0.000559041 -0.000484208 -0.000412927 -0.00034563 -0.000282744 -0.000224271 -0.00017021 -0.000120785 -7.62197e-05 -3.65143e-05 -1.66876e-06 2.8358e-05 5.36068e-05 7.40777e-05 8.97707e-05 0.000101057 0.000108309 0.000111525 0.000110707 0.000106659 0.000100187 9.12908e-05 7.9971e-05 6.72898e-05 5.43099e-05 4.10312e-05 2.74537e-05 1.54427e-05 6.86343e-06 1.71586e-06 0 0 3.07509e-06 1.23004e-05 2.76758e-05 4.92014e-05 7.35283e-05 9.73076e-05 0.000120539 0.000143223 0.000163454 0.000179325 0.000190836 0.000197988 0.000199341 0.000193453 0.000180325 0.000159957 0.000131691 9.4869e-05 4.94915e-05 -4.44174e-06 -6.69933e-05 -0.000138226 -0.000218139 -0.000306733 -0.000403595 -0.000508313 -0.000620886 -0.000741315 -0.000868818 -0.00100262 -0.00114271 -0.0012891 -0.00144074 -0.00159658 -0.00175663 -0.00192088 -0.0020881 -0.00225707 -0.00242778 -0.00260023 -0.00277307 -0.00294494 -0.00311585 -0.00328579 -0.00345335 -0.00361711 -0.00377706 -0.00393322 -0.00408418 -0.00422855 -0.00436633 -0.00449752 -0.00462087 -0.00473513 -0.00484029 -0.00493637 -0.00502241 -0.00509745 -0.0051615 -0.00521455 -0.00525609 -0.00528561 -0.0053031 -0.00530857 -0.00530201 -0.00528344 -0.00525286 -0.00521027 -0.00515619 -0.00509114 -0.00501514 -0.00492818 -0.00483123 -0.00472524 -0.00461021 -0.00448615 -0.00435432 -0.00421596 -0.00407108 -0.00391969 -0.00376317 -0.00360293 -0.00343897 -0.00327129 -0.00310131 -0.00293044 -0.00275868 -0.00258604 -0.00241386 -0.00224349 -0.00207494 -0.0019082 -0.00174449 -0.00158503 -0.00142982 -0.00127887 -0.0011332 -0.00099385 -0.000860814 -0.000734093 -0.000614453 -0.000502657 -0.000398704 -0.000302596 -0.000214729 -0.000135502 -6.49144e-05 -2.96668e-06 5.04142e-05 9.53009e-05 0.000131694 0.000159592 0.000179657 0.000192549 0.000198267 0.000196812 0.000189615 0.00017811 0.000162295 0.000142171 0.000119626 9.65509e-05 7.29443e-05 4.88066e-05 2.74537e-05 1.22016e-05 3.05041e-06 0 0 4.58598e-06 1.83439e-05 4.12738e-05 7.33757e-05 0.000109592 0.000144866 0.000179197 0.000212585 0.000242154 0.000265027 0.000281203 0.000290684 0.000291304 0.0002809 0.000259471 0.000227018 0.000182561 0.000125122 5.47015e-05 -2.8701e-05 -0.000125157 -0.00023474 -0.000357448 -0.000493282 -0.000641592 -0.000801726 -0.000973686 -0.00115747 -0.00135188 -0.0015557 -0.00176894 -0.0019916 -0.00222207 -0.00245877 -0.00270169 -0.00295083 -0.00320433 -0.00346032 -0.0037188 -0.00397977 -0.00424119 -0.00450103 -0.00475929 -0.00501596 -0.00526892 -0.00551605 -0.00575736 -0.00599283 -0.00622039 -0.00643796 -0.00664553 -0.0068431 -0.00702882 -0.00720083 -0.00735912 -0.00750369 -0.00763313 -0.00774601 -0.00784235 -0.00792214 -0.00798461 -0.00802899 -0.00805529 -0.00806351 -0.00805365 -0.00802572 -0.00797973 -0.00791567 -0.00783432 -0.00773648 -0.00762214 -0.00749131 -0.0073454 -0.00718587 -0.0070127 -0.00682589 -0.00662733 -0.00641888 -0.00620053 -0.0059723 -0.00573627 -0.00549453 -0.00524709 -0.00499393 -0.00473718 -0.00447897 -0.0042193 -0.00395816 -0.00369758 -0.00343961 -0.00318423 -0.00293145 -0.00268312 -0.00244108 -0.00220534 -0.00197589 -0.00175432 -0.0015422 -0.00133953 -0.00114631 -0.00096372 -0.000792937 -0.000633964 -0.000486799 -0.000352071 -0.000230408 -0.00012181 -2.62762e-05 5.62805e-05 0.000125948 0.000182726 0.000226615 0.000258598 0.000279657 0.000289792 0.000289003 0.000279442 0.000263262 0.000240463 0.000211043 0.000177856 0.000143752 0.000108731 7.27928e-05 4.0946e-05 1.81982e-05 4.54955e-06 0 0 6.04358e-06 2.41743e-05 5.43922e-05 9.66973e-05 0.000144256 0.000190233 0.000234631 0.000277447 0.0003148 0.000342807 0.000361468 0.000370783 0.000367855 0.000349789 0.000316585 0.000268243 0.00020348 0.000121012 2.08401e-05 -9.70369e-05 -0.000232656 -0.000386056 -0.000557236 -0.000746196 -0.000951986 -0.00117365 -0.0014112 -0.00166462 -0.00193223 -0.00221233 -0.00250491 -0.00280998 -0.00312533 -0.00344875 -0.00378024 -0.0041198 -0.00446489 -0.00481299 -0.00516407 -0.00551816 -0.0058725 -0.00622437 -0.00657376 -0.00692067 -0.00726229 -0.00759579 -0.00792117 -0.00823843 -0.00854483 -0.00883761 -0.00911677 -0.00938233 -0.00963182 -0.00986281 -0.0100753 -0.0102693 -0.0104429 -0.0105943 -0.0107234 -0.0108304 -0.0109141 -0.0109735 -0.0110088 -0.0110198 -0.0110065 -0.0109691 -0.0109075 -0.0108216 -0.0107126 -0.0105814 -0.010428 -0.0102525 -0.0100567 -0.00984251 -0.00960993 -0.00935896 -0.00909204 -0.00881166 -0.0085178 -0.00821047 -0.00789243 -0.00756643 -0.00723247 -0.00689055 -0.0065435 -0.00619414 -0.00584246 -0.00548847 -0.00513489 -0.00478446 -0.00443716 -0.00409301 -0.00375452 -0.0034242 -0.00310206 -0.0027881 -0.00248449 -0.00219341 -0.00191487 -0.00164887 -0.00139707 -0.00116112 -0.000941038 -0.000736814 -0.00054937 -0.000379626 -0.000227582 -9.3238e-05 2.34654e-05 0.000122588 0.00020413 0.000268092 0.000315763 0.000348431 0.000366098 0.000368763 0.000359307 0.00034061 0.000312671 0.000275491 0.000232919 0.000188804 0.000143146 9.59451e-05 5.39691e-05 2.39863e-05 5.99657e-06 0 0 7.44788e-06 2.97915e-05 6.70309e-05 0.000119166 0.000177519 0.00023341 0.00028684 0.000337809 0.000381393 0.000412666 0.00043163 0.000438284 0.000428992 0.00040012 0.000351668 0.000283634 0.000194449 8.254e-05 -5.20929e-05 -0.00020945 -0.00038949 -0.000592174 -0.000817503 -0.00106548 -0.00133478 -0.0016241 -0.00193343 -0.00226278 -0.00260988 -0.0029725 -0.00335062 -0.00374424 -0.0041505 -0.00456651 -0.00499227 -0.00542778 -0.0058698 -0.00631508 -0.00676361 -0.0072154 -0.007667 -0.00811495 -0.00855926 -0.00899994 -0.00943345 -0.00985631 -0.0102685 -0.01067 -0.0110575 -0.0114275 -0.0117801 -0.0121152 -0.0124299 -0.0127211 -0.0129888 -0.0132331 -0.0134516 -0.0136422 -0.0138047 -0.0139392 -0.0140445 -0.0141192 -0.0141635 -0.0141773 -0.0141607 -0.0141136 -0.0140361 -0.0139281 -0.0137909 -0.0136258 -0.0134327 -0.0132117 -0.0129651 -0.0126952 -0.0124019 -0.0120853 -0.0117485 -0.0113943 -0.0110229 -0.0106342 -0.0102316 -0.0098186 -0.00939511 -0.00896116 -0.00852027 -0.00807594 -0.00762818 -0.00717698 -0.00672579 -0.00627804 -0.00583374 -0.00539288 -0.00495869 -0.0045344 -0.00411999 -0.00371547 -0.00332369 -0.00294748 -0.00258684 -0.00224178 -0.0019145 -0.00160721 -0.00131993 -0.00105264 -0.000806624 -0.000583154 -0.00038223 -0.000203852 -4.80312e-05 8.52215e-05 0.000195906 0.000284022 0.000351151 0.000398873 0.000427187 0.000436094 0.00042921 0.000410152 0.00037892 0.000335514 0.000284815 0.000231707 0.00017619 0.000118263 6.65231e-05 2.95658e-05 7.39145e-06 0 0 8.79889e-06 3.51955e-05 7.919e-05 0.000140782 0.000209381 0.000274396 0.000335826 0.000393672 0.000441932 0.000474604 0.00049169 0.000493188 0.000474717 0.000431893 0.000364718 0.00027319 0.000155467 9.70469e-06 -0.000164097 -0.000365939 -0.000595659 -0.000853095 -0.00113825 -0.00145112 -0.00178997 -0.00215305 -0.00254037 -0.00295192 -0.00338483 -0.00383622 -0.00430607 -0.0047944 -0.0052976 -0.00581206 -0.00633779 -0.00687479 -0.00741906 -0.0079666 -0.00851741 -0.00907149 -0.00962468 -0.0101728 -0.0107158 -0.0112537 -0.0117824 -0.0122976 -0.0127993 -0.0132876 -0.0137584 -0.0142077 -0.0146354 -0.0150417 -0.0154229 -0.0157756 -0.0160997 -0.0163952 -0.0166595 -0.0168898 -0.0170862 -0.0172487 -0.0173758 -0.0174661 -0.0175196 -0.0175362 -0.0175161 -0.0174592 -0.0173655 -0.0172351 -0.0170693 -0.0168697 -0.0166363 -0.016369 -0.0160707 -0.0157439 -0.0153887 -0.0150051 -0.0145966 -0.0141668 -0.0137158 -0.0132435 -0.0127539 -0.0122511 -0.011735 -0.0112058 -0.0106675 -0.0101244 -0.00957644 -0.00902369 -0.00847027 -0.00792036 -0.00737396 -0.00683106 -0.00629564 -0.00577166 -0.00525912 -0.00475803 -0.00427193 -0.0038044 -0.00335543 -0.00292502 -0.002516 -0.00213121 -0.00177063 -0.00143428 -0.00112383 -0.000840993 -0.000585755 -0.000358119 -0.000158209 1.3848e-05 0.000158053 0.000274407 0.000364764 0.000430981 0.000473058 0.000490995 0.000489152 0.00047189 0.00043921 0.000391111 0.000333545 0.000272462 0.000207863 0.000139747 7.86079e-05 3.49368e-05 8.73421e-06 0 0 9.96538e-06 3.98615e-05 8.96885e-05 0.000159446 0.000236672 0.000308903 0.00037614 0.000438383 0.000488562 0.000519609 0.000531523 0.000524305 0.000492867 0.000432121 0.000342066 0.000222704 7.19751e-05 -0.000112179 -0.000329759 -0.000580764 -0.000864838 -0.00118162 -0.00153112 -0.00191332 -0.00232599 -0.00276688 -0.00323598 -0.00373329 -0.00425524 -0.00479825 -0.00536232 -0.00594744 -0.00654925 -0.00716338 -0.00778983 -0.0084286 -0.00907494 -0.00972411 -0.0103761 -0.0110309 -0.0116837 -0.0123296 -0.0129687 -0.0136008 -0.0142213 -0.0148253 -0.0154128 -0.0159838 -0.0165338 -0.0170582 -0.0175572 -0.0180305 -0.0184743 -0.0188847 -0.0192615 -0.0196049 -0.0199118 -0.0201792 -0.0204071 -0.0205956 -0.020743 -0.0208477 -0.0209097 -0.020929 -0.0209056 -0.0208396 -0.0207309 -0.0205796 -0.0203872 -0.0201555 -0.0198845 -0.019574 -0.0192273 -0.0188472 -0.0184338 -0.0179871 -0.0175111 -0.0170098 -0.0164832 -0.0159313 -0.0153586 -0.0147698 -0.0141647 -0.0135435 -0.0129108 -0.0122716 -0.0116258 -0.0109734 -0.0103193 -0.00966831 -0.0090204 -0.00837561 -0.00773863 -0.00711419 -0.00650229 -0.00590291 -0.0053204 -0.00475905 -0.00421888 -0.00369988 -0.00320557 -0.00273947 -0.00230157 -0.00189188 -0.00151259 -0.00116588 -0.000851748 -0.000570203 -0.000321552 -0.00010611 7.6124e-05 0.00022515 0.000343044 0.000431879 0.000491655 0.000522374 0.000529099 0.000516894 0.000485759 0.000435695 0.000373712 0.000306822 0.000235024 0.000158318 8.90541e-05 3.95796e-05 9.8949e-06 0 0 1.08162e-05 4.32647e-05 9.73455e-05 0.000173059 0.00025622 0.000332646 0.000402337 0.000465292 0.00051343 0.000538668 0.000541007 0.000520446 0.000471283 0.000387816 0.000270044 0.000117968 -7.05873e-05 -0.000297798 -0.000563664 -0.000868186 -0.0012107 -0.00159056 -0.00200775 -0.00246228 -0.0029513 -0.00347193 -0.0040242 -0.00460809 -0.00521927 -0.00585337 -0.0065104 -0.00719037 -0.00788811 -0.00859846 -0.00932142 -0.010057 -0.0107997 -0.0115442 -0.0122903 -0.0130382 -0.0137823 -0.0145173 -0.0152432 -0.0159598 -0.0166621 -0.0173448 -0.0180078 -0.0186511 -0.01927 -0.0198595 -0.0204195 -0.0209502 -0.0214473 -0.0219066 -0.022328 -0.0227116 -0.0230541 -0.0233526 -0.0236068 -0.0238169 -0.0239811 -0.0240977 -0.0241668 -0.0241882 -0.0241622 -0.0240885 -0.0239674 -0.0237987 -0.0235842 -0.0233256 -0.023023 -0.0226764 -0.0222889 -0.0218638 -0.021401 -0.0209006 -0.0203669 -0.019804 -0.0192119 -0.0185908 -0.0179454 -0.0172808 -0.0165968 -0.0158935 -0.0151761 -0.0144499 -0.0137149 -0.0129711 -0.0122239 -0.0114788 -0.0107356 -0.00999456 -0.00926094 -0.00854018 -0.0078323 -0.00713729 -0.00646025 -0.0058063 -0.00517541 -0.00456761 -0.00398716 -0.00343835 -0.00292116 -0.00243561 -0.00198447 -0.00157054 -0.0011938 -0.00085427 -0.000552544 -0.000289231 -6.43301e-05 0.000122159 0.000272433 0.000388688 0.000470924 0.000519141 0.000539018 0.000536233 0.000510786 0.000462676 0.000399922 0.000330541 0.000254533 0.000171898 9.66924e-05 4.29744e-05 1.07436e-05 0 0 1.13512e-05 4.54049e-05 0.000102161 0.00018162 0.000268026 0.000345625 0.000414416 0.0004744 0.000516535 0.000531782 0.000520141 0.00048161 0.000409965 0.000298979 0.000148652 -4.10166e-05 -0.00027222 -0.000547152 -0.000865813 -0.0012282 -0.00163326 -0.00207991 -0.00256815 -0.003098 -0.00366587 -0.00426822 -0.00490504 -0.00557634 -0.00627691 -0.00700158 -0.00775034 -0.00852319 -0.00931416 -0.0101173 -0.0109326 -0.01176 -0.0125934 -0.0134268 -0.0142601 -0.0150933 -0.0159205 -0.0167359 -0.0175393 -0.0183308 -0.019105 -0.0198562 -0.0205844 -0.0212897 -0.021967 -0.0226113 -0.0232226 -0.0238009 -0.0243419 -0.0248413 -0.025299 -0.0257152 -0.0260865 -0.0264099 -0.0266852 -0.0269125 -0.02709 -0.0272161 -0.0272907 -0.0273139 -0.0272856 -0.027206 -0.0270748 -0.0268923 -0.0266601 -0.02638 -0.026052 -0.0256761 -0.0252556 -0.0247936 -0.0242903 -0.0237455 -0.0231637 -0.0225492 -0.0219019 -0.0212219 -0.0205142 -0.019784 -0.0190311 -0.0182557 -0.0174632 -0.0166592 -0.0158437 -0.0150167 -0.014184 -0.0133517 -0.0125197 -0.0116879 -0.0108626 -0.0100496 -0.00924916 -0.00846115 -0.00769151 -0.00694614 -0.00622504 -0.00552822 -0.00486079 -0.00422785 -0.0036294 -0.00306545 -0.00253948 -0.00205497 -0.00161192 -0.00121032 -0.000851185 -0.000535515 -0.000263309 -3.45672e-05 0.000152931 0.000301408 0.000410863 0.000481296 0.000518911 0.000529908 0.00051429 0.000472055 0.000412175 0.00034362 0.00026639 0.000180485 0.000101523 4.51212e-05 1.12803e-05 0 0 1.15706e-05 4.62824e-05 0.000104135 0.000185129 0.000272089 0.000347838 0.000412377 0.000465705 0.000497878 0.000498951 0.000468925 0.000407798 0.000308913 0.00016561 -2.21117e-05 -0.000254251 -0.000532922 -0.00086024 -0.00123621 -0.00166082 -0.00213249 -0.00264966 -0.00321232 -0.00382046 -0.00446973 -0.00515574 -0.0058785 -0.00663801 -0.00742817 -0.00824287 -0.00908211 -0.0099459 -0.0108274 -0.0117199 -0.0126233 -0.0135376 -0.0144561 -0.015372 -0.0162854 -0.0171962 -0.0180983 -0.0189852 -0.019857 -0.0207138 -0.0215498 -0.0223594 -0.0231426 -0.0238994 -0.0246248 -0.0253138 -0.0259663 -0.0265825 -0.027158 -0.0276888 -0.0281747 -0.0286158 -0.029009 -0.0293511 -0.0296423 -0.0298824 -0.0300698 -0.0302029 -0.0302816 -0.030306 -0.0302761 -0.0301919 -0.0300533 -0.0298605 -0.029615 -0.0293187 -0.0289714 -0.0285732 -0.0281273 -0.0276367 -0.0271016 -0.0265218 -0.0259017 -0.0252455 -0.0245531 -0.0238246 -0.0230651 -0.0222795 -0.0214678 -0.0206302 -0.0197722 -0.0188995 -0.0180121 -0.0171101 -0.0161997 -0.0152872 -0.0143725 -0.0134557 -0.0125435 -0.0116425 -0.0107529 -0.0098745 -0.00901415 -0.00817857 -0.00736776 -0.00658171 -0.00582644 -0.00510797 -0.0044263 -0.00378142 -0.00317763 -0.00261918 -0.00210609 -0.00163835 -0.00121747 -0.000844961 -0.000520812 -0.000245028 -1.54604e-05 0.00017004 0.000311473 0.000408839 0.000468775 0.00049792 0.000496272 0.000463832 0.000410471 0.000346058 0.000270595 0.00018408 0.000103545 4.602e-05 1.1505e-05 0 0 1.13785e-05 4.55139e-05 0.000102406 0.000182056 0.000266108 0.00033621 0.000392361 0.000434562 0.000452069 0.000434137 0.000380766 0.000291957 0.000160761 -1.97727e-05 -0.000249643 -0.00052885 -0.000859288 -0.00124285 -0.00167953 -0.00216934 -0.00271004 -0.0032994 -0.00393743 -0.00462412 -0.00535417 -0.0061223 -0.00692851 -0.00777278 -0.00864804 -0.00954721 -0.0104703 -0.0114172 -0.0123804 -0.0133523 -0.0143327 -0.0153218 -0.0163122 -0.0172967 -0.0182753 -0.019248 -0.0202082 -0.0211497 -0.0220723 -0.0229761 -0.0238555 -0.024705 -0.0255245 -0.0263142 -0.0270692 -0.027785 -0.0284614 -0.0290985 -0.0296925 -0.0302395 -0.0307395 -0.0311926 -0.0315959 -0.0319466 -0.0322447 -0.0324902 -0.0326817 -0.0328177 -0.0328981 -0.0329229 -0.0328922 -0.032806 -0.0326643 -0.0324671 -0.0322158 -0.0319121 -0.031556 -0.0311473 -0.0306891 -0.030184 -0.0296322 -0.0290336 -0.0283921 -0.0277116 -0.026992 -0.0262334 -0.0254406 -0.0246182 -0.0237663 -0.0228849 -0.0219795 -0.0210557 -0.0201135 -0.019153 -0.0181805 -0.0172026 -0.0162193 -0.0152304 -0.0142434 -0.0132654 -0.0122964 -0.0113364 -0.010393 -0.00947381 -0.00857878 -0.00770792 -0.00686821 -0.00606666 -0.00530327 -0.00457803 -0.00389613 -0.00326278 -0.00267796 -0.00214168 -0.00165609 -0.00122333 -0.000843395 -0.000516294 -0.000240088 -1.2842e-05 0.000165445 0.000294774 0.000382074 0.000434279 0.000451388 0.000433401 0.000390984 0.000334806 0.000264867 0.000181165 0.000101905 4.52913e-05 1.13228e-05 0 0 1.06791e-05 4.27166e-05 9.61123e-05 0.000170866 0.000247782 0.000307665 0.000350513 0.000376327 0.000373719 0.000331301 0.000249073 0.000127036 -4.18563e-05 -0.000264648 -0.00054134 -0.000871931 -0.00125791 -0.00170076 -0.00220049 -0.00275709 -0.00336751 -0.0040287 -0.00474066 -0.00550339 -0.00631053 -0.00715573 -0.00803899 -0.0089603 -0.00991153 -0.0108845 -0.0118793 -0.0128959 -0.0139258 -0.0149606 -0.0160002 -0.0170448 -0.0180866 -0.019118 -0.0201389 -0.0211494 -0.0221431 -0.0231136 -0.0240609 -0.0249849 -0.0258807 -0.0267431 -0.0275722 -0.0283678 -0.0291261 -0.029843 -0.0305185 -0.0311525 -0.0317421 -0.032284 -0.0327783 -0.0332249 -0.0336217 -0.0339664 -0.0342591 -0.0344997 -0.0346871 -0.0348201 -0.0348987 -0.0349229 -0.0348927 -0.0348082 -0.0346692 -0.0344759 -0.0342295 -0.033931 -0.0335806 -0.0331782 -0.0327261 -0.0322265 -0.0316794 -0.0310849 -0.0304461 -0.0297661 -0.029045 -0.0282828 -0.0274835 -0.0266512 -0.0257859 -0.0248877 -0.0239615 -0.0230127 -0.0220411 -0.0210468 -0.0200361 -0.0190156 -0.0179851 -0.0169446 -0.0159019 -0.0148645 -0.0138325 -0.0128058 -0.0117929 -0.0108021 -0.00983333 -0.00888669 -0.0079702 -0.00709188 -0.00625174 -0.00544978 -0.00469224 -0.00398537 -0.00332916 -0.00272362 -0.0021717 -0.00167637 -0.00123761 -0.000855435 -0.000528299 -0.000254664 -3.45302e-05 0.000132103 0.000252268 0.000332999 0.000374294 0.000376156 0.000349892 0.000306816 0.000246925 0.000170221 9.57496e-05 4.25554e-05 1.06388e-05 0 0 9.47259e-06 3.78904e-05 8.52533e-05 0.000151561 0.000217112 0.000262201 0.00028683 0.000290998 0.000262828 0.000190444 7.38462e-05 -8.69661e-05 -0.000298939 -0.000569017 -0.000897202 -0.00128349 -0.00172879 -0.00223398 -0.00279907 -0.00342406 -0.00410491 -0.00483756 -0.00562202 -0.00645828 -0.0073388 -0.00825602 -0.00920994 -0.0102006 -0.0112186 -0.0122549 -0.0133093 -0.0143819 -0.0154634 -0.0165447 -0.0176258 -0.0187066 -0.0197792 -0.0208357 -0.0218762 -0.0229006 -0.0239028 -0.0248769 -0.0258228 -0.0267404 -0.0276256 -0.028474 -0.0292856 -0.0300604 -0.0307955 -0.0314878 -0.0321375 -0.0327445 -0.0333067 -0.0338222 -0.0342908 -0.0347127 -0.0350865 -0.0354107 -0.0356855 -0.0359108 -0.0360859 -0.0362102 -0.0362835 -0.036306 -0.0362775 -0.0361982 -0.0360681 -0.0358871 -0.0356559 -0.0353753 -0.0350452 -0.0346657 -0.0342382 -0.033764 -0.0332432 -0.0326757 -0.0320636 -0.0314091 -0.0307121 -0.0299727 -0.0291938 -0.0283785 -0.0275268 -0.0266386 -0.0257184 -0.0247705 -0.0237948 -0.0227915 -0.0217665 -0.0207259 -0.0196699 -0.0185983 -0.0175191 -0.0164401 -0.0153614 -0.0142829 -0.0132138 -0.0121633 -0.0111314 -0.010118 -0.00913239 -0.00818361 -0.0072717 -0.00639667 -0.00556594 -0.00478695 -0.00405969 -0.00338417 -0.00276432 -0.00220408 -0.00170346 -0.00126245 -0.000880092 -0.000555426 -0.000288453 -7.91728e-05 7.93571e-05 0.000194079 0.000264992 0.000292097 0.000287194 0.000262086 0.000216771 0.000151249 8.50777e-05 3.78123e-05 9.45308e-06 0 0 7.75882e-06 3.10353e-05 6.98294e-05 0.000124141 0.000174096 0.00019982 0.000201314 0.000178576 0.000119397 1.15666e-05 -0.000144915 -0.000350049 -0.000610486 -0.000932879 -0.00131723 -0.00176353 -0.00227192 -0.0028425 -0.00347528 -0.00417027 -0.00492223 -0.00572598 -0.0065815 -0.00748879 -0.00843898 -0.00942317 -0.0104414 -0.0114936 -0.0125693 -0.0136582 -0.0147601 -0.0158752 -0.0169934 -0.0181048 -0.0192094 -0.0203071 -0.02139 -0.02245 -0.0234872 -0.0245015 -0.0254875 -0.0264397 -0.027358 -0.0282425 -0.0290901 -0.0298975 -0.0306647 -0.0313918 -0.0320772 -0.0327195 -0.0333185 -0.0338744 -0.0343864 -0.034854 -0.0352772 -0.035656 -0.0359902 -0.0362795 -0.0365239 -0.0367235 -0.0368782 -0.0369878 -0.0370525 -0.0370721 -0.0370467 -0.0369763 -0.0368609 -0.0367005 -0.0364951 -0.0362449 -0.0359499 -0.03561 -0.0352255 -0.0347967 -0.0343235 -0.033806 -0.0332448 -0.0326406 -0.0319934 -0.0313031 -0.0305715 -0.0298 -0.0289888 -0.0281377 -0.02725 -0.026329 -0.0253747 -0.024387 -0.0233716 -0.0223338 -0.0212738 -0.0201914 -0.0190948 -0.017992 -0.0168829 -0.0157675 -0.0146558 -0.0135576 -0.012473 -0.011402 -0.0103548 -0.00934186 -0.00836317 -0.00741871 -0.00651725 -0.00566753 -0.00486956 -0.00412333 -0.00343394 -0.00280648 -0.00224094 -0.00173734 -0.00129547 -0.000915128 -0.000596324 -0.000339054 -0.000136659 1.75191e-05 0.00012348 0.000181225 0.000202891 0.000200617 0.000174402 0.000124248 6.98897e-05 3.10621e-05 7.76552e-06 0 0 5.50603e-06 2.20241e-05 4.95543e-05 8.80965e-05 0.000117989 0.000119572 9.28431e-05 3.78039e-05 -5.78929e-05 -0.000206594 -0.0004083 -0.00066301 -0.000976847 -0.00135593 -0.00180026 -0.00230984 -0.0028838 -0.00352125 -0.00422219 -0.00498664 -0.005808 -0.00667971 -0.00760176 -0.00857415 -0.00958651 -0.0106285 -0.0117001 -0.0128013 -0.0139203 -0.0150456 -0.0161771 -0.0173147 -0.0184479 -0.019566 -0.020669 -0.0217568 -0.0228216 -0.0238554 -0.0248582 -0.0258301 -0.0267664 -0.0276626 -0.0285187 -0.0293346 -0.0301088 -0.0308396 -0.0315271 -0.0321713 -0.0327725 -0.0333311 -0.0338472 -0.0343206 -0.0347527 -0.0351448 -0.0354968 -0.0358088 -0.0360819 -0.0363175 -0.0365155 -0.036676 -0.0367997 -0.0368873 -0.0369387 -0.0369541 -0.0369334 -0.0368766 -0.0367836 -0.0366546 -0.0364887 -0.0362852 -0.0360441 -0.0357653 -0.0354478 -0.0350902 -0.0346925 -0.0342548 -0.0337758 -0.0332543 -0.0326904 -0.032084 -0.0314348 -0.0307426 -0.0300073 -0.0292289 -0.0284092 -0.0275499 -0.0266508 -0.0257121 -0.0247384 -0.0237343 -0.0226999 -0.021635 -0.0205478 -0.019446 -0.0183298 -0.017199 -0.0160644 -0.0149364 -0.0138152 -0.0127007 -0.0116045 -0.0105382 -0.00950179 -0.00849532 -0.00752897 -0.006613 -0.00574739 -0.00493214 -0.00417371 -0.00347853 -0.0028466 -0.00227793 -0.00177329 -0.00133348 -0.0009585 -0.000648342 -0.000396868 -0.000197939 -5.15532e-05 4.22881e-05 9.58665e-05 0.000121464 0.000119079 8.87132e-05 4.99012e-05 2.21783e-05 5.54458e-06 0 0 2.68242e-06 1.07297e-05 2.41417e-05 4.29186e-05 4.80448e-05 2.05045e-05 -3.97023e-05 -0.000132575 -0.00027036 -0.0004653 -0.000717397 -0.00102665 -0.00139837 -0.00183787 -0.00234515 -0.0029202 -0.00356091 -0.00426513 -0.00503287 -0.00586412 -0.00675073 -0.0076845 -0.00866545 -0.00969358 -0.0107569 -0.0118433 -0.0129528 -0.0140855 -0.0152283 -0.0163682 -0.0175052 -0.0186393 -0.0197592 -0.0208536 -0.0219226 -0.0229662 -0.0239766 -0.0249465 -0.0258757 -0.0267643 -0.027609 -0.0284065 -0.0291568 -0.0298599 -0.0305163 -0.0311264 -0.0316903 -0.032208 -0.0326822 -0.0331159 -0.033509 -0.0338616 -0.0341773 -0.0344597 -0.0347089 -0.0349249 -0.0351107 -0.0352696 -0.0354016 -0.0355065 -0.0355863 -0.0356426 -0.0356755 -0.0356849 -0.0356709 -0.0356334 -0.0355723 -0.0354878 -0.035378 -0.0352411 -0.0350772 -0.0348861 -0.0346649 -0.0344103 -0.0341224 -0.0338011 -0.0334429 -0.0330441 -0.0326048 -0.032125 -0.0316019 -0.0310327 -0.0304175 -0.0297563 -0.0290487 -0.0282943 -0.0274932 -0.0266453 -0.025754 -0.0248228 -0.0238515 -0.0228401 -0.0217964 -0.0207279 -0.0196347 -0.0185166 -0.017385 -0.0162512 -0.015115 -0.0139764 -0.0128485 -0.0117441 -0.0106633 -0.0096059 -0.00858394 -0.00760925 -0.00668182 -0.00580165 -0.00497677 -0.00421521 -0.00351696 -0.00288203 -0.00231243 -0.0018102 -0.00137534 -0.00100784 -0.000702359 -0.000453553 -0.000261421 -0.000125964 -3.49923e-05 2.36819e-05 5.00587e-05 4.41383e-05 2.48278e-05 1.10346e-05 2.75864e-06 0 0 -7.1203e-07 -2.84812e-06 -6.40827e-06 -1.13925e-05 -3.57377e-05 -9.73811e-05 -0.000196322 -0.000332562 -0.000518004 -0.000764552 -0.00107221 -0.00144097 -0.00187506 -0.00237869 -0.00295188 -0.00359461 -0.00430325 -0.00507415 -0.00590731 -0.00680273 -0.00775041 -0.00874036 -0.00977259 -0.0108471 -0.01195 -0.0130676 -0.0141997 -0.0153464 -0.0164934 -0.0176261 -0.0187446 -0.0198489 -0.0209272 -0.0219677 -0.0229703 -0.0239352 -0.0248552 -0.0257234 -0.0265397 -0.0273042 -0.0280152 -0.0286713 -0.0292724 -0.0298185 -0.0303126 -0.0307579 -0.0311543 -0.0315018 -0.0318064 -0.0320738 -0.0323041 -0.0324973 -0.03266 -0.0327987 -0.0329135 -0.0330043 -0.0330766 -0.0331358 -0.033182 -0.033215 -0.033238 -0.0332539 -0.0332628 -0.0332645 -0.0332592 -0.0332467 -0.033227 -0.0332002 -0.0331631 -0.0331128 -0.0330492 -0.0329723 -0.0328767 -0.0327569 -0.032613 -0.0324448 -0.032246 -0.03201 -0.0317367 -0.0314263 -0.0310728 -0.0306706 -0.0302196 -0.0297198 -0.0291684 -0.0285624 -0.0279018 -0.0271866 -0.0264184 -0.0255991 -0.0247285 -0.0238067 -0.0228407 -0.0218377 -0.0207976 -0.0197204 -0.0186179 -0.0175019 -0.0163723 -0.0152292 -0.0140869 -0.0129597 -0.0118475 -0.0107505 -0.00968215 -0.00865628 -0.00767285 -0.00673186 -0.00584314 -0.00501653 -0.00425204 -0.00354965 -0.00291289 -0.00234529 -0.00184684 -0.00141755 -0.00105313 -0.000749324 -0.000506124 -0.000323531 -0.000189686 -9.27284e-05 -3.26586e-05 -9.47652e-06 -5.33054e-06 -2.36913e-06 -5.92283e-07 0 0 -4.6773e-06 -1.87092e-05 -4.20957e-05 -7.48368e-05 -0.000133358 -0.000234085 -0.000377017 -0.000562155 -0.000800824 -0.00110435 -0.00147273 -0.00190596 -0.0024069 -0.0029784 -0.00362046 -0.00433308 -0.00511083 -0.00594831 -0.00684552 -0.00780244 -0.00880705 -0.00984729 -0.0109232 -0.0120347 -0.013166 -0.0143013 -0.0154406 -0.0165839 -0.0177154 -0.0188191 -0.0198952 -0.0209435 -0.0219519 -0.0229081 -0.0238121 -0.0246638 -0.0254572 -0.0261859 -0.0268501 -0.0274496 -0.0279851 -0.028457 -0.0288654 -0.0292103 -0.0294978 -0.029734 -0.0299191 -0.0300529 -0.030145 -0.0302048 -0.0302324 -0.0302277 -0.0302008 -0.0301618 -0.0301105 -0.0300471 -0.0299796 -0.0299161 -0.0298568 -0.0298015 -0.0297548 -0.0297212 -0.0297005 -0.0296929 -0.0296982 -0.0297165 -0.0297476 -0.0297917 -0.0298441 -0.0299003 -0.0299602 -0.0300239 -0.0300833 -0.0301301 -0.0301643 -0.0301861 -0.0301852 -0.0301519 -0.0300861 -0.0299877 -0.0298475 -0.0296561 -0.0294134 -0.0291195 -0.0287685 -0.0283542 -0.0278767 -0.0273359 -0.0267316 -0.0260633 -0.025331 -0.0245347 -0.0236807 -0.0227753 -0.0218185 -0.0208103 -0.0197629 -0.0186885 -0.0175872 -0.0164591 -0.0153197 -0.0141849 -0.0130547 -0.011929 -0.0108236 -0.00975409 -0.00872048 -0.00772276 -0.0067728 -0.00588249 -0.00505182 -0.0042807