<?xml version="1.0"?> 
<VTKFile type="StructuredGrid" version="0.1"> 
<StructuredGrid WholeExtent="0 128 0 128 0 0"> 
<Piece Extent="0 128 0 128 0 0"> 
<PointData>
<DataArray type="Float32" Name="u" format="ascii" NumberOfComponents="1"> 
0 0 0 0 0 0 0 0 0 0 0 0 0 0 0 0 0 0 0 0 0 0 0 0 0 0 0 0 0 0 0 0 0 0 0 0 0 0 0 0 0 0 0 0 0 0 0 0 0 0 0 0 0 0 0 0 0 0 0 0 0 0 0 0 0 0 0 0 0 0 0 0 0 0 0 0 0 0 0 0 0 0 0 0 0 0 0 0 0 0 0 0 0 0 0 0 0 0 0 0 0 0 0 0 0 0 0 0 0 0 0 0 0 0 0 0 0 0 0 0 0 0 0 0 0 0 0 0 0 0 1.18243e-08 4.72974e-08 1.06419e-07 1.8919e-07 2.79245e-07 3.60222e-07 4.32121e-07 4.94942e-07 5.35572e-07 5.40902e-07 5.1093e-07 4.45657e-07 3.34028e-07 1.64988e-07 -6.14636e-08 -3.45326e-07 -6.85908e-07 -1.08252e-06 -1.53515e-06 -2.04382e-06 -2.59107e-06 -3.15947e-06 -3.74902e-06 -4.35972e-06 -4.96236e-06 -5.52771e-06 -6.05579e-06 -6.54658e-06 -6.97342e-06 -7.30965e-06 -7.55525e-06 -7.71022e-06 -7.76515e-06 -7.71061e-06 -7.54659e-06 -7.2731e-06 -6.90322e-06 -6.45003e-06 -5.91354e-06 -5.29375e-06 -4.61881e-06 -3.91685e-06 -3.1879e-06 -2.43193e-06 -1.67715e-06 -9.5174e-07 -2.55697e-07 4.10978e-07 1.03313e-06 1.59561e-06 2.09842e-06 2.54155e-06 2.92655e-06 3.25497e-06 3.52681e-06 3.74207e-06 3.91232e-06 4.04911e-06 4.15246e-06 4.22237e-06 4.26887e-06 4.30201e-06 4.3218e-06 4.32822e-06 4.3213e-06 4.30103e-06 4.26742e-06 4.22048e-06 4.15017e-06 4.04646e-06 3.90936e-06 3.73886e-06 3.52341e-06 3.25145e-06 2.92298e-06 2.53801e-06 2.09498e-06 1.59234e-06 1.03011e-06 4.08281e-07 -2.58008e-07 -9.53612e-07 -1.67853e-06 -2.43277e-06 -3.18815e-06 -3.91652e-06 -4.61787e-06 -5.2922e-06 -5.91139e-06 -6.44731e-06 -6.89997e-06 -7.26937e-06 -7.54244e-06 -7.7061e-06 -7.76038e-06 -7.70525e-06 -7.55016e-06 -7.30454e-06 -6.96838e-06 -6.54168e-06 -6.0511e-06 -5.5233e-06 -4.95828e-06 -4.35604e-06 -3.74576e-06 -3.15664e-06 -2.58868e-06 -2.04187e-06 -1.53364e-06 -1.0814e-06 -6.85154e-07 -3.44901e-07 -6.13242e-08 1.64892e-07 3.33749e-07 4.45246e-07 5.10432e-07 5.40356e-07 5.35018e-07 4.94418e-07 4.31655e-07 3.59827e-07 2.78935e-07 1.88978e-07 1.063e-07 4.72445e-08 1.18111e-08 0 0 4.72974e-08 1.8919e-07 4.25676e-07 7.56758e-07 1.11698e-06 1.44089e-06 1.72848e-06 1.97977e-06 2.14229e-06 2.16361e-06 2.04372e-06 1.78263e-06 1.33611e-06 6.59951e-07 -2.45854e-07 -1.3813e-06 -2.74363e-06 -4.33007e-06 -6.14062e-06 -8.17527e-06 -1.03643e-05 -1.26379e-05 -1.49961e-05 -1.74389e-05 -1.98494e-05 -2.21109e-05 -2.42231e-05 -2.61863e-05 -2.78937e-05 -2.92386e-05 -3.0221e-05 -3.08409e-05 -3.10606e-05 -3.08424e-05 -3.01864e-05 -2.90924e-05 -2.76129e-05 -2.58001e-05 -2.36542e-05 -2.1175e-05 -1.84752e-05 -1.56674e-05 -1.27516e-05 -9.72773e-06 -6.70861e-06 -3.80696e-06 -1.02279e-06 1.64391e-06 4.13253e-06 6.38244e-06 8.39367e-06 1.01662e-05 1.17062e-05 1.30199e-05 1.41073e-05 1.49683e-05 1.56493e-05 1.61965e-05 1.66099e-05 1.68895e-05 1.70755e-05 1.72081e-05 1.72872e-05 1.73129e-05 1.72852e-05 1.72041e-05 1.70697e-05 1.68819e-05 1.66007e-05 1.61858e-05 1.56374e-05 1.49554e-05 1.40936e-05 1.30058e-05 1.16919e-05 1.0152e-05 8.3799e-06 6.36937e-06 4.12045e-06 1.63312e-06 -1.03203e-06 -3.81445e-06 -6.71413e-06 -9.73107e-06 -1.27526e-05 -1.56661e-05 -1.84715e-05 -2.11688e-05 -2.36456e-05 -2.57893e-05 -2.75999e-05 -2.90775e-05 -3.01697e-05 -3.08244e-05 -3.10415e-05 -3.0821e-05 -3.02007e-05 -2.92182e-05 -2.78735e-05 -2.61667e-05 -2.42044e-05 -2.20932e-05 -1.98331e-05 -1.74242e-05 -1.4983e-05 -1.26266e-05 -1.03547e-05 -8.16748e-06 -6.13455e-06 -4.3256e-06 -2.74062e-06 -1.3796e-06 -2.45297e-07 6.5957e-07 1.335e-06 1.78098e-06 2.04173e-06 2.16142e-06 2.14007e-06 1.97767e-06 1.72662e-06 1.43931e-06 1.11574e-06 7.55912e-07 4.252e-07 1.88978e-07 4.72445e-08 0 0 1.06419e-07 4.25676e-07 9.57772e-07 1.70271e-06 2.51321e-06 3.242e-06 3.88909e-06 4.45448e-06 4.82015e-06 4.86812e-06 4.59837e-06 4.01091e-06 3.00625e-06 1.48489e-06 -5.53172e-07 -3.10793e-06 -6.17317e-06 -9.74265e-06 -1.38164e-05 -1.83944e-05 -2.33196e-05 -2.84353e-05 -3.37412e-05 -3.92375e-05 -4.46612e-05 -4.97494e-05 -5.45021e-05 -5.89192e-05 -6.27608e-05 -6.57868e-05 -6.79972e-05 -6.9392e-05 -6.98864e-05 -6.93955e-05 -6.79193e-05 -6.54579e-05 -6.21289e-05 -5.80503e-05 -5.32219e-05 -4.76438e-05 -4.15692e-05 -3.52517e-05 -2.86911e-05 -2.18874e-05 -1.50944e-05 -8.56566e-06 -2.30127e-06 3.6988e-06 9.29818e-06 1.43605e-05 1.88857e-05 2.28739e-05 2.6339e-05 2.92948e-05 3.17413e-05 3.36787e-05 3.52109e-05 3.6442e-05 3.73722e-05 3.80013e-05 3.84198e-05 3.87181e-05 3.88962e-05 3.8954e-05 3.88917e-05 3.87093e-05 3.84068e-05 3.79843e-05 3.73515e-05 3.64181e-05 3.51842e-05 3.36497e-05 3.17107e-05 2.92631e-05 2.63069e-05 2.28421e-05 1.88548e-05 1.43311e-05 9.27101e-06 3.67453e-06 -2.32207e-06 -8.58251e-06 -1.51068e-05 -2.18949e-05 -2.86934e-05 -3.52487e-05 -4.15608e-05 -4.76298e-05 -5.32025e-05 -5.80258e-05 -6.20998e-05 -6.54243e-05 -6.78819e-05 -6.93549e-05 -6.98434e-05 -6.93473e-05 -6.79515e-05 -6.57408e-05 -6.27154e-05 -5.88751e-05 -5.44599e-05 -4.97097e-05 -4.46245e-05 -3.92043e-05 -3.37118e-05 -2.84098e-05 -2.32981e-05 -1.83768e-05 -1.38027e-05 -9.7326e-06 -6.16638e-06 -3.10411e-06 -5.51918e-07 1.48403e-06 3.00374e-06 4.00721e-06 4.59389e-06 4.8632e-06 4.81516e-06 4.44976e-06 3.88489e-06 3.23844e-06 2.51041e-06 1.7008e-06 9.56701e-07 4.252e-07 1.063e-07 0 0 1.8919e-07 7.56758e-07 1.70271e-06 3.02703e-06 4.46792e-06 5.76356e-06 6.91394e-06 7.91907e-06 8.56916e-06 8.65443e-06 8.17488e-06 7.13051e-06 5.34445e-06 2.6398e-06 -9.83417e-07 -5.52521e-06 -1.09745e-05 -1.73203e-05 -2.45625e-05 -3.27011e-05 -4.14571e-05 -5.05516e-05 -5.99844e-05 -6.97556e-05 -7.93977e-05 -8.84434e-05 -9.68926e-05 -0.000104745 -0.000111575 -0.000116954 -0.000120884 -0.000123364 -0.000124242 -0.00012337 -0.000120745 -0.00011637 -0.000110451 -0.000103201 -9.46167e-05 -8.47e-05 -7.39009e-05 -6.26697e-05 -5.10063e-05 -3.89109e-05 -2.68344e-05 -1.52278e-05 -4.09115e-06 6.57565e-06 1.65301e-05 2.55298e-05 3.35747e-05 4.06648e-05 4.68248e-05 5.20796e-05 5.6429e-05 5.98732e-05 6.25971e-05 6.47858e-05 6.64394e-05 6.75579e-05 6.83019e-05 6.88322e-05 6.91487e-05 6.92515e-05 6.91407e-05 6.88165e-05 6.82788e-05 6.75277e-05 6.64027e-05 6.47433e-05 6.25497e-05 5.98218e-05 5.63746e-05 5.20232e-05 4.67678e-05 4.06081e-05 3.35196e-05 2.54775e-05 1.64818e-05 6.5325e-06 -4.12812e-06 -1.52578e-05 -2.68565e-05 -3.89243e-05 -5.10104e-05 -6.26643e-05 -7.38859e-05 -8.46752e-05 -9.45822e-05 -0.000103157 -0.0001104 -0.00011631 -0.000120679 -0.000123298 -0.000124166 -0.000123284 -0.000120803 -0.000116873 -0.000111494 -0.000104667 -9.68177e-05 -8.83729e-05 -7.93325e-05 -6.96966e-05 -5.99322e-05 -5.05062e-05 -4.14188e-05 -3.26699e-05 -2.45382e-05 -1.73024e-05 -1.09625e-05 -5.51841e-06 -9.81187e-07 2.63828e-06 5.33999e-06 7.12394e-06 8.16691e-06 8.64569e-06 8.56029e-06 7.91069e-06 6.90647e-06 5.75723e-06 4.46295e-06 3.02365e-06 1.7008e-06 7.55912e-07 1.88978e-07 0 0 2.79243e-07 1.11697e-06 2.51319e-06 4.46789e-06 6.58183e-06 8.45577e-06 1.00897e-05 1.14836e-05 1.23276e-05 1.23115e-05 1.14353e-05 9.6992e-06 6.8598e-06 2.67388e-06 -2.85853e-06 -9.73745e-06 -1.79137e-05 -2.73381e-05 -3.80105e-05 -4.99312e-05 -6.2655e-05 -7.57373e-05 -8.91779e-05 -0.000102977 -0.000116429 -0.000128828 -0.000140175 -0.000150469 -0.000159091 -0.000165419 -0.000169454 -0.000171195 -0.000170446 -0.00016701 -0.000160886 -0.000152076 -0.000140911 -0.000127727 -0.000112522 -9.52978e-05 -7.6731e-05 -5.74997e-05 -3.76041e-05 -1.70439e-05 3.50702e-06 2.33752e-05 4.25606e-05 6.10633e-05 7.85048e-05 9.4507e-05 0.00010907 0.000122193 0.00013387 0.000144092 0.000152861 0.000160175 0.000166252 0.000171307 0.000175342 0.000178357 0.000180546 0.000182109 0.000183043 0.00018335 0.000183029 0.000182081 0.000180506 0.000178304 0.000175279 0.000171234 0.000166169 0.000160085 0.000152765 0.000143993 0.000133768 0.000122091 0.00010897 9.44105e-05 7.84138e-05 6.09797e-05 4.24861e-05 2.33111e-05 3.45481e-06 -1.70829e-05 -3.76289e-05 -5.75101e-05 -7.67264e-05 -9.52779e-05 -0.000112487 -0.000127678 -0.000140849 -0.000152 -0.0001608 -0.000166914 -0.000170343 -0.000171086 -0.00016934 -0.000165304 -0.000158976 -0.000150357 -0.000140067 -0.000128726 -0.000116333 -0.00010289 -8.91005e-05 -7.56696e-05 -6.25974e-05 -4.98838e-05 -3.79733e-05 -2.73101e-05 -1.78943e-05 -9.72593e-06 -2.85388e-06 2.67285e-06 6.85427e-06 9.69036e-06 1.14243e-05 1.22991e-05 1.23148e-05 1.14715e-05 1.00789e-05 8.44652e-06 6.57454e-06 4.46291e-06 2.51039e-06 1.11573e-06 2.78932e-07 0 0 3.60215e-07 1.44086e-06 3.24193e-06 5.76343e-06 8.45565e-06 1.07689e-05 1.27031e-05 1.42583e-05 1.50336e-05 1.46281e-05 1.30419e-05 1.02748e-05 6.0614e-06 1.36328e-07 -7.50046e-06 -1.6849e-05 -2.77567e-05 -4.00712e-05 -5.37923e-05 -6.89203e-05 -8.47915e-05 -0.000100743 -0.000116774 -0.000132885 -0.000148124 -0.000161539 -0.00017313 -0.000182896 -0.000190064 -0.000193858 -0.000194278 -0.000191325 -0.000184814 -0.00017456 -0.000160564 -0.000142824 -0.000121839 -9.81055e-05 -7.16227e-05 -4.23912e-05 -1.13205e-05 2.06796e-05 5.36091e-05 8.7468e-05 0.000121366 0.000154412 0.000186607 0.00021795 0.000247899 0.000275909 0.00030198 0.000326114 0.00034818 0.000368051 0.000385727 0.000401207 0.000414618 0.000426087 0.000435612 0.000443195 0.000448978 0.000453106 0.000455577 0.000456393 0.000455554 0.00045306 0.00044891 0.000443106 0.000435504 0.000425961 0.000414477 0.000401053 0.000385561 0.000367878 0.000348002 0.000325933 0.0003018 0.000275732 0.000247728 0.000217789 0.000186457 0.000154276 0.000121245 8.73654e-05 5.3526e-05 2.06168e-05 -1.13623e-05 -4.24111e-05 -7.16209e-05 -9.80826e-05 -0.000121796 -0.000142762 -0.000160484 -0.000174465 -0.000184706 -0.000191206 -0.000194151 -0.000193726 -0.000189929 -0.000182761 -0.000172998 -0.000161412 -0.000148004 -0.000132774 -0.000116673 -0.000100653 -8.47142e-05 -6.88555e-05 -5.37402e-05 -4.00309e-05 -2.77275e-05 -1.68301e-05 -7.49078e-06 1.38286e-07 6.05711e-06 1.02657e-05 1.30294e-05 1.46136e-05 1.50183e-05 1.42434e-05 1.26895e-05 1.07572e-05 8.44635e-06 5.75706e-06 3.23835e-06 1.43926e-06 3.59816e-07 0 0 4.32104e-07 1.72841e-06 3.88893e-06 6.91366e-06 1.00894e-05 1.27028e-05 1.47541e-05 1.62431e-05 1.66873e-05 1.56045e-05 1.29944e-05 8.85717e-06 2.94926e-06 -4.97287e-06 -1.49092e-05 -2.68597e-05 -4.05035e-05 -5.55196e-05 -7.19079e-05 -8.96684e-05 -0.000107867 -0.000125568 -0.000142773 -0.00015948 -0.000174484 -0.000186576 -0.000195757 -0.000202026 -0.000204494 -0.000202272 -0.000195359 -0.000183755 -0.000167347 -0.000146021 -0.000119777 -8.86156e-05 -5.32355e-05 -1.43363e-05 2.80822e-05 7.40199e-05 0.000122331 0.000171869 0.000222633 0.000274625 0.000326742 0.000377883 0.000428048 0.000477237 0.000524712 0.000569735 0.000612307 0.000652426 0.000689755 0.000723955 0.000755027 0.000782969 0.000807697 0.000829123 0.000847248 0.000862072 0.000873597 0.000881823 0.000886752 0.000888382 0.000886715 0.000881752 0.000873491 0.000861934 0.000847079 0.000828926 0.000807474 0.000782725 0.000754764 0.000723678 0.000689468 0.000652133 0.000612011 0.000569442 0.000524425 0.00047696 0.000427784 0.000377636 0.000326515 0.000274421 0.000222454 0.000171716 0.000122207 7.39253e-05 2.80175e-05 -1.43719e-05 -5.32427e-05 -8.85951e-05 -0.000119731 -0.000145951 -0.000167256 -0.000183646 -0.000195235 -0.000202137 -0.000204352 -0.000201879 -0.000195609 -0.00018643 -0.000174343 -0.000159348 -0.000142651 -0.000125458 -0.000107769 -8.95851e-05 -7.1839e-05 -5.54646e-05 -4.04619e-05 -2.68308e-05 -1.48919e-05 -4.96542e-06 2.94853e-06 8.84996e-06 1.29824e-05 1.55892e-05 1.66705e-05 1.62262e-05 1.47385e-05 1.26892e-05 1.00784e-05 6.90609e-06 3.88468e-06 1.72652e-06 4.31631e-07 0 0 4.9491e-07 1.97964e-06 4.45419e-06 7.91857e-06 1.1483e-05 1.42577e-05 1.62426e-05 1.74379e-05 1.72887e-05 1.52404e-05 1.1293e-05 5.44645e-06 -2.47663e-06 -1.26537e-05 -2.50847e-05 -3.97698e-05 -5.61542e-05 -7.36833e-05 -9.23571e-05 -0.000112176 -0.00013188 -0.000150213 -0.000167174 -0.000182762 -0.000195508 -0.000203939 -0.000208056 -0.000207859 -0.000202382 -0.00019066 -0.000172694 -0.000148483 -0.000118044 -8.13918e-05 -3.85269e-05 1.05506e-05 6.49e-05 0.000123581 0.000186592 0.000253935 0.000324223 0.000396067 0.000469468 0.000544427 0.000619636 0.000693788 0.000766884 0.000838924 0.000908945 0.000975987 0.00104005 0.00110113 0.0011586 0.00121181 0.00126076 0.00130546 0.00134549 0.00138042 0.00141025 0.00143499 0.0014544 0.00146826 0.00147657 0.00147932 0.00147651 0.00146816 0.00145425 0.00143479 0.00141 0.00138013 0.00134516 0.0013051 0.00126037 0.00121139 0.00115817 0.00110069 0.0010396 0.00097554 0.000908504 0.000838493 0.000766468 0.000693392 0.000619264 0.000544083 0.000469156 0.000395788 0.00032398 0.000253731 0.000186428 0.000123455 6.48124e-05 1.05009e-05 -3.85403e-05 -8.13718e-05 -0.000117994 -0.000148406 -0.000172592 -0.000190539 -0.000202245 -0.000207711 -0.000207902 -0.000203782 -0.000195352 -0.000182613 -0.000167033 -0.000150083 -0.000131763 -0.000112073 -9.22697e-05 -7.36114e-05 -5.60976e-05 -3.97282e-05 -2.50572e-05 -1.26383e-05 -2.47149e-06 5.44312e-06 1.12831e-05 1.52259e-05 1.72716e-05 1.74201e-05 1.62257e-05 1.42425e-05 1.14706e-05 7.91e-06 4.44938e-06 1.9775e-06 4.94375e-07 0 0 5.35899e-07 2.1436e-06 4.8231e-06 8.57439e-06 1.23354e-05 1.50442e-05 1.67006e-05 1.73047e-05 1.6257e-05 1.29579e-05 7.40743e-06 -3.94396e-07 -1.04957e-05 -2.29445e-05 -3.77409e-05 -5.48848e-05 -7.35226e-05 -9.28008e-05 -0.000112719 -0.000133278 -0.000152877 -0.000169915 -0.000184392 -0.000196309 -0.000203985 -0.000205741 -0.000201576 -0.00019149 -0.000174545 -0.000149802 -0.000117261 -7.69223e-05 -2.90151e-05 2.62304e-05 8.88144e-05 0.000158737 0.000234806 0.000315832 0.000401813 0.00049275 0.000587086 0.00068326 0.000781275 0.00088113 0.000981401 0.00108067 0.00117892 0.00127618 0.00137126 0.00146302 0.00155145 0.00163655 0.00171731 0.0017927 0.00186272 0.00192739 0.00198578 0.00203699 0.00208104 0.0021179 0.00214702 0.00216781 0.00218026 0.00218439 0.00218019 0.00216767 0.00214681 0.00211763 0.0020807 0.0020366 0.00198533 0.0019269 0.0018622 0.00179214 0.00171672 0.00163595 0.00155083 0.0014624 0.00137064 0.00127557 0.00117833 0.0010801 0.000980857 0.000880619 0.000780802 0.000682827 0.000586695 0.000492407 0.000401518 0.000315585 0.000234608 0.000158587 8.87121e-05 2.61726e-05 -2.90314e-05 -7.69e-05 -0.000117204 -0.000149716 -0.000174434 -0.000191359 -0.00020143 -0.000205586 -0.000203826 -0.00019615 -0.000184238 -0.000169769 -0.000152742 -0.000133157 -0.000112614 -9.27115e-05 -7.34498e-05 -5.48287e-05 -3.77008e-05 -2.29186e-05 -1.04821e-05 -3.91383e-07 7.40194e-06 1.29462e-05 1.62414e-05 1.72874e-05 1.66835e-05 1.50284e-05 1.23224e-05 8.56526e-06 4.81796e-06 2.14132e-06 5.35329e-07 0 0 5.42335e-07 2.16934e-06 4.88102e-06 8.67736e-06 1.23456e-05 1.4673e-05 1.56596e-05 1.53054e-05 1.30114e-05 8.17877e-06 8.07518e-07 -9.10237e-06 -2.13873e-05 -3.58836e-05 -5.25913e-05 -7.15104e-05 -9.14228e-05 -0.000111111 -0.000130574 -0.000149812 -0.0001669 -0.00017991 -0.000188843 -0.000193698 -0.000192705 -0.000184094 -0.000167865 -0.000144017 -0.000111803 -7.04757e-05 -2.00355e-05 3.95178e-05 0.000107631 0.000183749 0.000267874 0.000360005 0.000458721 0.000562602 0.000671648 0.000785859 0.00090365 0.00102344 0.00114521 0.00126899 0.00139339 0.00151705 0.00163998 0.00176216 0.00188232 0.00199919 0.00211275 0.00222301 0.0023285 0.00242773 0.00252071 0.00260744 0.00268635 0.00275588 0.00281602 0.00286678 0.00290708 0.00293585 0.00295309 0.00295881 0.002953 0.00293567 0.00290681 0.00286643 0.0028156 0.00275539 0.00268579 0.00260682 0.00252004 0.00242702 0.00232775 0.00222224 0.00211196 0.00199839 0.00188153 0.00176137 0.0016392 0.0015163 0.00139266 0.0012683 0.00114456 0.00102283 0.000903089 0.000785351 0.000671196 0.000562206 0.000458383 0.000359725 0.000267652 0.000183582 0.000107516 3.94537e-05 -2.00532e-05 -7.04522e-05 -0.000111743 -0.000143927 -0.00016775 -0.000183961 -0.000192559 -0.000193544 -0.000188687 -0.000179757 -0.000166754 -0.000149678 -0.000130453 -0.000111005 -9.13336e-05 -7.14386e-05 -5.25367e-05 -3.58447e-05 -2.13625e-05 -9.09015e-06 8.09251e-07 8.17253e-06 1.29997e-05 1.52907e-05 1.5644e-05 1.46581e-05 1.23328e-05 8.66832e-06 4.87593e-06 2.16708e-06 5.4177e-07 0 0 5.14218e-07 2.05687e-06 4.62796e-06 8.22748e-06 1.15136e-05 1.31443e-05 1.31198e-05 1.14399e-05 7.55196e-06 9.03065e-07 -8.50674e-06 -2.06775e-05 -3.51514e-05 -5.14709e-05 -6.9636e-05 -8.96466e-05 -0.000109855 -0.000128613 -0.00014592 -0.000161778 -0.000173949 -0.000180198 -0.000180525 -0.000174929 -0.000161668 -0.000139 -0.000106923 -6.54384e-05 -1.41547e-05 4.7319e-05 0.000118983 0.000200837 0.000291893 0.000391165 0.000498653 0.000614356 0.000736646 0.000863893 0.000996099 0.00113326 0.00127392 0.00141659 0.00156129 0.00170801 0.00185561 0.00200295 0.00215004 0.00229688 0.00244214 0.00258449 0.00272395 0.00286051 0.00299216 0.0031169 0.00323472 0.00334563 0.00344722 0.00353707 0.0036152 0.00368161 0.00373457 0.00377239 0.00379505 0.00380257 0.00379495 0.00377217 0.00373425 0.00368119 0.00361469 0.00353648 0.00344654 0.00334488 0.00323391 0.00311604 0.00299126 0.00285957 0.00272299 0.00258351 0.00244115 0.00229589 0.00214907 0.002002 0.00185468 0.00170711 0.00156044 0.00141578 0.00127316 0.00113257 0.000995462 0.00086332 0.000736137 0.000613915 0.000498279 0.000390857 0.00029165 0.000200656 0.000118861 4.72516e-05 -1.41733e-05 -6.54134e-05 -0.00010686 -0.000138906 -0.000161551 -0.000174795 -0.00018038 -0.000180048 -0.0001738 -0.000161635 -0.000145787 -0.000128492 -0.000109749 -8.9558e-05 -6.95651e-05 -5.14167e-05 -3.51127e-05 -2.06532e-05 -8.49499e-06 9.04916e-07 7.54655e-06 1.14299e-05 1.31074e-05 1.31315e-05 1.15021e-05 8.21919e-06 4.6233e-06 2.0548e-06 5.137e-07 0 0 4.51547e-07 1.80619e-06 4.06392e-06 7.22474e-06 9.83925e-06 1.0458e-05 9.08105e-06 5.70835e-06 -1.21335e-07 -8.86923e-06 -2.05354e-05 -3.51197e-05 -5.17881e-05 -6.97066e-05 -8.8875e-05 -0.000109293 -0.000128819 -0.000145307 -0.000158759 -0.000169175 -0.000174025 -0.00017078 -0.000159439 -0.000140003 -0.000110874 -7.0457e-05 -1.87507e-05 4.42447e-05 0.000118399 0.000203582 0.000299794 0.000407034 0.000523772 0.000648478 0.00078115 0.000921789 0.00106858 0.0012197 0.00137516 0.00153496 0.00169788 0.00186273 0.00202949 0.00219818 0.00236805 0.00253836 0.00270912 0.00288033 0.00305069 0.00321894 0.00338506 0.00354905 0.00370831 0.00386021 0.00400476 0.00414195 0.00426837 0.00438058 0.00447859 0.00456239 0.0046295 0.00467742 0.00470614 0.00471568 0.00470602 0.00467717 0.00462913 0.00456191 0.00447799 0.00437988 0.00426757 0.00414107 0.00400381 0.00385919 0.00370724 0.00354794 0.00338391 0.00321776 0.00304951 0.00287914 0.00270794 0.0025372 0.00236691 0.00219707 0.00202842 0.0018617 0.00169691 0.00153405 0.00137432 0.00121892 0.00106787 0.000921156 0.000780594 0.000647998 0.000523369 0.000406706 0.000299539 0.000203396 0.000118276 4.4181e-05 -1.87618e-05 -7.04231e-05 -0.000110803 -0.000139902 -0.000159315 -0.000170641 -0.000173879 -0.000169028 -0.000158617 -0.000145173 -0.000128696 -0.000109187 -8.87859e-05 -6.96345e-05 -5.17327e-05 -3.50805e-05 -2.05108e-05 -8.85664e-06 -1.18022e-07 5.70507e-06 9.07362e-06 1.04486e-05 9.83002e-06 7.21787e-06 4.06005e-06 1.80447e-06 4.51117e-07 0 0 3.43736e-07 1.37495e-06 3.09363e-06 5.49978e-06 7.09007e-06 6.36116e-06 3.31304e-06 -2.05429e-06 -1.00462e-05 -2.0968e-05 -3.48197e-05 -5.16013e-05 -7.00309e-05 -8.88267e-05 -0.000107989 -0.000127517 -0.00014477 -0.000157109 -0.000164532 -0.00016704 -0.000161935 -0.000146517 -0.000120787 -8.47445e-05 -3.71652e-05 2.3176e-05 9.62792e-05 0.000182144 0.000279904 0.000388692 0.000508509 0.000639353 0.000779072 0.000925513 0.00107868 0.00123856 0.00140328 0.00157094 0.00174154 0.00191509 0.00209089 0.00226825 0.00244718 0.00262768 0.00280967 0.00299312 0.00317801 0.00336435 0.00355107 0.0037371 0.00392245 0.00410711 0.00428789 0.00446159 0.0046282 0.00478773 0.00493565 0.00506743 0.00518308 0.00528259 0.00536258 0.00541971 0.00545395 0.00546532 0.00545381 0.00541943 0.00536218 0.00528205 0.00518242 0.00506667 0.00493478 0.00478677 0.00462715 0.00446046 0.00428671 0.00410588 0.00392117 0.0037358 0.00354974 0.00336301 0.00317667 0.00299179 0.00280836 0.00262639 0.00244593 0.00226704 0.00208973 0.00191398 0.0017405 0.00156996 0.00140237 0.00123773 0.00107793 0.000924851 0.000778495 0.000638862 0.000508103 0.000388368 0.000279657 0.000181971 9.61738e-05 2.31306e-05 -3.71586e-05 -8.46938e-05 -0.0001207 -0.000146403 -0.000161802 -0.000166898 -0.000164387 -0.000156965 -0.000144635 -0.000127394 -0.000107882 -8.87361e-05 -6.99573e-05 -5.15451e-05 -3.478e-05 -2.09422e-05 -1.00318e-05 -2.04863e-06 3.31245e-06 6.35677e-06 7.08434e-06 5.49514e-06 3.09102e-06 1.37379e-06 3.43447e-07 0 0 1.80201e-07 7.20805e-07 1.62181e-06 2.88322e-06 3.03342e-06 6.00801e-07 -4.41463e-06 -1.20129e-05 -2.22602e-05 -3.52229e-05 -5.0901e-05 -6.92944e-05 -8.86132e-05 -0.000107068 -0.000124657 -0.000141383 -0.000154166 -0.000159932 -0.00015868 -0.000150409 -0.000132485 -0.000102272 -5.97708e-05 -4.98102e-06 6.26166e-05 0.000143541 0.000237793 0.000345372 0.000464408 0.00059303 0.000731239 0.000879035 0.0010336 0.0011921 0.00135454 0.00152093 0.0016895 0.0018585 0.00202793 0.00219779 0.00236828 0.00253958 0.00271171 0.00288466 0.00305944 0.00323705 0.0034175 0.00360078 0.00378633 0.00397358 0.00416252 0.00435317 0.00454186 0.00472494 0.00490242 0.00507429 0.00523492 0.00537868 0.00550559 0.00561563 0.00570453 0.005768 0.00580606 0.0058187 0.00580593 0.00576773 0.00570412 0.0056151 0.00550494 0.00537792 0.00523405 0.00507333 0.00490137 0.00472382 0.00454067 0.00435193 0.00416124 0.00397225 0.00378498 0.00359941 0.00341612 0.00323567 0.00305806 0.00288329 0.00271036 0.00253826 0.00236699 0.00219655 0.00202674 0.00185737 0.00168844 0.00151994 0.00135363 0.00119127 0.00103285 0.00087838 0.000730675 0.000592556 0.000464021 0.000345071 0.000237574 0.000143396 6.25378e-05 -5.00075e-06 -5.97401e-05 -0.000102201 -0.000132382 -0.000150285 -0.000158542 -0.000159789 -0.000154024 -0.000141248 -0.000124535 -0.00010696 -8.85214e-05 -6.92203e-05 -5.08445e-05 -3.51819e-05 -2.22323e-05 -1.1996e-05 -4.40625e-06 6.03288e-07 3.03264e-06 2.88182e-06 1.62103e-06 7.20456e-07 1.80114e-07 0 0 -3.90591e-08 -1.56236e-07 -3.51532e-07 -6.24946e-07 -2.33071e-06 -6.82304e-06 -1.4102e-05 -2.41674e-05 -3.67635e-05 -5.16341e-05 -6.87793e-05 -8.81991e-05 -0.000107535 -0.000124429 -0.000138881 -0.000150891 -0.000157007 -0.000153777 -0.000141202 -0.000119281 -8.56756e-05 -3.80455e-05 2.3609e-05 9.92878e-05 0.000188471 0.000290639 0.000405791 0.000533928 0.000671909 0.000816595 0.000967986 0.00112608 0.00128734 0.00144823 0.00160875 0.00176889 0.00192724 0.00208239 0.00223433 0.00238306 0.00253004 0.00267671 0.00282307 0.00296914 0.00311735 0.00327017 0.00342759 0.00358962 0.00375648 0.00392836 0.00410528 0.00428723 0.00447022 0.00465029 0.00482742 0.00500162 0.00516617 0.00531433 0.00544611 0.00556152 0.00565533 0.00572231 0.00576248 0.00577583 0.00576236 0.00572207 0.00565497 0.00556105 0.00544553 0.00531364 0.00516539 0.00500075 0.00482647 0.00464927 0.00446914 0.00428609 0.00410409 0.00392713 0.00375521 0.00358833 0.00342627 0.00326883 0.003116 0.00296778 0.00282172 0.00267536 0.00252871 0.00238176 0.00223306 0.00208116 0.00192606 0.00176776 0.00160769 0.00144724 0.00128643 0.00112526 0.000967257 0.00081596 0.000671368 0.000533482 0.000405439 0.000290373 0.000188286 9.91777e-05 2.35651e-05 -3.80335e-05 -8.56181e-05 -0.000119189 -0.000141084 -0.000153643 -0.000156864 -0.000150749 -0.000138747 -0.000124305 -0.000107425 -8.81061e-05 -6.87044e-05 -5.15756e-05 -3.67198e-05 -2.41369e-05 -1.40825e-05 -6.81186e-06 -2.32506e-06 -6.22098e-07 -3.4993e-07 -1.55524e-07 -3.88811e-08 0 0 -3.14044e-07 -1.25618e-06 -2.8264e-06 -5.02471e-06 -9.00231e-06 -1.59104e-05 -2.57489e-05 -3.8518e-05 -5.3556e-05 -7.02016e-05 -8.84547e-05 -0.000108315 -0.000126797 -0.000140911 -0.00015066 -0.000156042 -0.000153292 -0.000138644 -0.0001121 -7.36577e-05 -2.15072e-05 4.6163e-05 0.000129353 0.000228062 0.000340398 0.000464468 0.000600273 0.000747812 0.000902408 0.00105939 0.00121875 0.00138049 0.00154031 0.00169391 0.00184129 0.00198245 0.00211651 0.00224261 0.00236074 0.00247091 0.00257618 0.00267964 0.00278128 0.0028811 0.00298339 0.00309246 0.00320828 0.00333088 0.00346151 0.00360145 0.00375071 0.00390928 0.00407298 0.00423762 0.00440321 0.00456974 0.0047294 0.00487437 0.00500466 0.00512026 0.00521499 0.00528263 0.0053232 0.00533669 0.0053231 0.00528244 0.00521471 0.00511989 0.0050042 0.00487383 0.00472878 0.00456905 0.00440246 0.00423681 0.00407211 0.00390836 0.00374974 0.00360044 0.00346045 0.00332977 0.00320714 0.00309128 0.00298218 0.00287985 0.00278001 0.00267835 0.00257488 0.0024696 0.00235943 0.00224131 0.00211524 0.00198121 0.0018401 0.00169278 0.00153925 0.0013795 0.00121785 0.00105858 0.000901698 0.000747204 0.000599768 0.000464062 0.000340087 0.000227841 0.000129215 4.60981e-05 -2.15104e-05 -7.361e-05 -0.000112012 -0.000138527 -0.000153156 -0.000155898 -0.000150516 -0.000140772 -0.000126668 -0.000108202 -8.83595e-05 -7.01234e-05 -5.34941e-05 -3.84716e-05 -2.57162e-05 -1.58887e-05 -8.98878e-06 -5.01662e-06 -2.82185e-06 -1.25415e-06 -3.13539e-07 0 0 -6.44666e-07 -2.57866e-06 -5.80199e-06 -1.03147e-05 -1.69477e-05 -2.65323e-05 -3.90684e-05 -5.45559e-05 -7.18444e-05 -8.9783e-05 -0.000108372 -0.000127611 -0.000143887 -0.000153586 -0.000156707 -0.000153252 -0.000139327 -0.000111039 -6.8388e-05 -1.13735e-05 6.09291e-05 0.000149445 0.000254173 0.000375114 0.000508636 0.000651105 0.000802522 0.000962886 0.00112582 0.00128495 0.00144026 0.00159177 0.00173453 0.00186359 0.00197895 0.00208062 0.00216858 0.00224281 0.00230331 0.00235009 0.00238818 0.00242261 0.00245339 0.0024805 0.00251037 0.00254941 0.00259761 0.00265497 0.00272409 0.00280759 0.00290544 0.00301766 0.00314016 0.00326884 0.00340371 0.00354477 0.00368339 0.00381098 0.00392753 0.00403304 0.00412053 0.00418302 0.0042205 0.00423298 0.00422045 0.00418292 0.00412039 0.00403285 0.00392729 0.0038107 0.00368307 0.0035444 0.0034033 0.00326839 0.00313967 0.00301713 0.00290486 0.00280696 0.00272341 0.00265423 0.00259681 0.00254855 0.00250946 0.00247953 0.00245235 0.00242152 0.00238704 0.0023489 0.00230209 0.00224156 0.00216731 0.00207935 0.0019777 0.00186237 0.00173335 0.00159065 0.00143922 0.00128398 0.00112495 0.000962118 0.000801861 0.00065055 0.000508186 0.000374769 0.000253927 0.000149287 6.08493e-05 -1.13855e-05 -6.83436e-05 -0.000110951 -0.000139208 -0.000153114 -0.00015656 -0.000153436 -0.000143742 -0.000127479 -0.000108256 -8.96843e-05 -7.17628e-05 -5.44919e-05 -3.90207e-05 -2.64984e-05 -1.6925e-05 -1.03004e-05 -5.79395e-06 -2.57509e-06 -6.43772e-07 0 0 -1.03083e-06 -4.12334e-06 -9.27751e-06 -1.64933e-05 -2.61333e-05 -3.85599e-05 -5.3773e-05 -7.17728e-05 -9.08351e-05 -0.000109236 -0.000126976 -0.000144054 -0.000156295 -0.000159523 -0.000153738 -0.000138941 -0.000111421 -6.74678e-05 -7.08237e-06 6.97357e-05 0.000162542 0.00027089 0.000394782 0.000534217 0.000683422 0.000836623 0.00099382 0.00115501 0.00131206 0.00145681 0.00158927 0.00170943 0.001812 0.00189169 0.0019485 0.00198242 0.00199471 0.00198664 0.0019582 0.0019094 0.00184753 0.00177989 0.00170648 0.00162731 0.00155108 0.0014865 0.00143359 0.00139233 0.0013669 0.00136149 0.00137609 0.00141071 0.00146181 0.00152587 0.00160288 0.00169285 0.00178695 0.00187635 0.00196105 0.00204105 0.002109 0.00215753 0.00218666 0.00219637 0.00218668 0.00215757 0.00210906 0.00204113 0.00196114 0.00187645 0.00178707 0.00169297 0.001603 0.00152598 0.00146191 0.00141078 0.00137613 0.00136148 0.00136683 0.00139219 0.00143337 0.00148621 0.00155069 0.00162682 0.0017059 0.0017792 0.00184674 0.00190852 0.00195723 0.00198559 0.0019936 0.00198126 0.0019473 0.00189048 0.0018108 0.00170825 0.00158813 0.00145574 0.00131106 0.00115411 0.000993015 0.000835923 0.000682831 0.00053374 0.000394415 0.000270625 0.000162369 6.96475e-05 -7.09754e-06 -6.74236e-05 -0.000111331 -0.000138819 -0.000153595 -0.000159369 -0.000156139 -0.000143906 -0.000126841 -0.000109117 -9.07334e-05 -7.169e-05 -5.37091e-05 -3.85124e-05 -2.61e-05 -1.64719e-05 -9.26545e-06 -4.11798e-06 -1.02949e-06 0 0 -1.47255e-06 -5.8902e-06 -1.32529e-05 -2.35608e-05 -3.65591e-05 -5.19931e-05 -6.9863e-05 -9.01685e-05 -0.000110528 -0.000128561 -0.000144266 -0.000157643 -0.00016402 -0.000158723 -0.000141752 -0.000113106 -6.9571e-05 -7.92988e-06 7.1817e-05 0.00016967 0.00028333 0.000410501 0.000551181 0.000705371 0.000864757 0.00102102 0.00117417 0.00132419 0.00146112 0.00157498 0.00166576 0.00173347 0.00177274 0.00177823 0.00174993 0.00168785 0.00159492 0.00147411 0.00132541 0.00114883 0.000954222 0.000751467 0.000540564 0.000321511 0.000105506 -9.62561e-05 -0.000283775 -0.00045705 -0.000610073 -0.000736836 -0.000837338 -0.00091158 -0.000962066 -0.000991299 -0.000999279 -0.000986007 -0.000959941 -0.000929538 -0.000894799 -0.000855724 -0.000819629 -0.00079383 -0.000778327 -0.000773119 -0.000778209 -0.000793598 -0.000819287 -0.000855275 -0.00089425 -0.0009289 -0.000959224 -0.000985224 -0.000998442 -0.000990426 -0.000961175 -0.000910688 -0.000836464 -0.000735999 -0.000609294 -0.000456348 -0.000283168 -9.57608e-05 0.000105875 0.000321739 0.00054064 0.00075139 0.000953988 0.00114843 0.00132487 0.00147343 0.00159411 0.00168692 0.00174891 0.00177714 0.0017716 0.0017323 0.0016646 0.00157384 0.00146003 0.00132317 0.00117323 0.00102018 0.000864022 0.000704753 0.000550681 0.000410113 0.000283049 0.000169489 7.17265e-05 -7.94451e-06 -6.9524e-05 -0.000113012 -0.000141623 -0.000158572 -0.000163859 -0.000157483 -0.000144114 -0.000128422 -0.000110406 -9.0066e-05 -6.97813e-05 -5.19306e-05 -3.6514e-05 -2.35313e-05 -1.32364e-05 -5.88282e-06 -1.47071e-06 0 0 -1.96981e-06 -7.87925e-06 -1.77283e-05 -3.1517e-05 -4.8225e-05 -6.6832e-05 -8.73381e-05 -0.000109743 -0.000130924 -0.000147757 -0.000160242 -0.00016838 -0.000167063 -0.000151186 -0.000120748 -7.57492e-05 -1.37788e-05 6.75744e-05 0.00016831 0.000288429 0.000423295 0.000568275 0.000723369 0.000888576 0.00105264 0.0012043 0.00134357 0.00147043 0.00157302 0.00163946 0.00166975 0.00166389 0.00161675 0.00152321 0.00138326 0.00119691 0.000969209 0.00070522 