<?xml version="1.0"?> 
<VTKFile type="StructuredGrid" version="0.1"> 
<StructuredGrid WholeExtent="0 128 0 128 0 0"> 
<Piece Extent="0 128 0 128 0 0"> 
<PointData>
<DataArray type="Float32" Name="u" format="ascii" NumberOfComponents="1"> 
0 0 0 0 0 0 0 0 0 0 0 0 0 0 0 0 0 0 0 0 0 0 0 0 0 0 0 0 0 0 0 0 0 0 0 0 0 0 0 0 0 0 0 0 0 0 0 0 0 0 0 0 0 0 0 0 0 0 0 0 0 0 0 0 0 0 0 0 0 0 0 0 0 0 0 0 0 0 0 0 0 0 0 0 0 0 0 0 0 0 0 0 0 0 0 0 0 0 0 0 0 0 0 0 0 0 0 0 0 0 0 0 0 0 0 0 0 0 0 0 0 0 0 0 0 0 0 0 0 0 -1.74173e-09 -6.96692e-09 -1.56756e-08 -2.78677e-08 -3.83651e-08 -4.19898e-08 -3.87417e-08 -2.86208e-08 -9.26676e-09 2.16809e-08 6.42221e-08 1.18357e-07 1.81605e-07 2.51485e-07 3.27999e-07 4.11145e-07 4.91199e-07 5.58437e-07 6.12857e-07 6.5446e-07 6.68841e-07 6.41595e-07 5.72722e-07 4.62222e-07 2.9818e-07 6.86814e-08 -2.26274e-07 -5.86686e-07 -1.01534e-06 -1.51504e-06 -2.08576e-06 -2.72753e-06 -3.43322e-06 -4.19574e-06 -5.0151e-06 -5.89128e-06 -6.81244e-06 -7.76671e-06 -8.7541e-06 -9.7746e-06 -1.08174e-05 -1.18719e-05 -1.29378e-05 -1.40154e-05 -1.50962e-05 -1.61719e-05 -1.72425e-05 -1.83079e-05 -1.93589e-05 -2.0386e-05 -2.13893e-05 -2.23687e-05 -2.33106e-05 -2.4201e-05 -2.50401e-05 -2.58278e-05 -2.65479e-05 -2.71842e-05 -2.77367e-05 -2.82053e-05 -2.85786e-05 -2.88452e-05 -2.90051e-05 -2.90582e-05 -2.90046e-05 -2.88443e-05 -2.85773e-05 -2.82035e-05 -2.77345e-05 -2.71817e-05 -2.65451e-05 -2.58246e-05 -2.50367e-05 -2.41973e-05 -2.33067e-05 -2.23647e-05 -2.13852e-05 -2.03818e-05 -1.93546e-05 -1.83036e-05 -1.72382e-05 -1.61677e-05 -1.50921e-05 -1.40114e-05 -1.2934e-05 -1.18682e-05 -1.08139e-05 -9.77131e-06 -8.75104e-06 -7.7639e-06 -6.80989e-06 -5.889e-06 -5.01308e-06 -4.194e-06 -3.43174e-06 -2.7263e-06 -2.08479e-06 -1.51429e-06 -1.01481e-06 -5.86343e-07 -2.261e-07 6.87116e-08 2.98092e-07 4.62042e-07 5.72474e-07 6.41299e-07 6.68519e-07 6.54133e-07 6.1254e-07 5.5814e-07 4.90931e-07 4.10915e-07 3.2781e-07 2.51336e-07 1.81493e-07 1.18281e-07 6.41784e-08 2.16627e-08 -9.26574e-09 -2.8607e-08 -3.87205e-08 -4.19657e-08 -3.83426e-08 -2.78512e-08 -1.56663e-08 -6.96279e-09 -1.7407e-09 0 0 -6.96692e-09 -2.78677e-08 -6.27023e-08 -1.11471e-07 -1.53461e-07 -1.67959e-07 -1.54967e-07 -1.14483e-07 -3.7067e-08 8.67235e-08 2.56888e-07 4.73427e-07 7.26419e-07 1.00594e-06 1.312e-06 1.64458e-06 1.9648e-06 2.23375e-06 2.45143e-06 2.61784e-06 2.67536e-06 2.56638e-06 2.29089e-06 1.84889e-06 1.19272e-06 2.74726e-07 -9.05096e-07 -2.34674e-06 -4.06138e-06 -6.06015e-06 -8.34305e-06 -1.09101e-05 -1.37329e-05 -1.6783e-05 -2.00604e-05 -2.35651e-05 -2.72498e-05 -3.10669e-05 -3.50164e-05 -3.90984e-05 -4.32698e-05 -4.74874e-05 -5.17514e-05 -5.60617e-05 -6.03848e-05 -6.46876e-05 -6.89699e-05 -7.32317e-05 -7.74356e-05 -8.15441e-05 -8.55572e-05 -8.9475e-05 -9.32423e-05 -9.68041e-05 -0.00010016 -0.000103311 -0.000106192 -0.000108737 -0.000110947 -0.000112821 -0.000114314 -0.000115381 -0.00011602 -0.000116233 -0.000116018 -0.000115377 -0.000114309 -0.000112814 -0.000110938 -0.000108727 -0.00010618 -0.000103299 -0.000100147 -9.67894e-05 -9.32268e-05 -8.94588e-05 -8.55406e-05 -8.15272e-05 -7.74184e-05 -7.32145e-05 -6.89528e-05 -6.46707e-05 -6.03683e-05 -5.60456e-05 -5.17359e-05 -4.74726e-05 -4.32557e-05 -3.90852e-05 -3.50042e-05 -3.10556e-05 -2.72395e-05 -2.3556e-05 -2.00523e-05 -1.6776e-05 -1.37269e-05 -1.09052e-05 -8.33916e-06 -6.05717e-06 -4.05924e-06 -2.34537e-06 -9.04401e-07 2.74846e-07 1.19237e-06 1.84817e-06 2.2899e-06 2.5652e-06 2.67408e-06 2.61653e-06 2.45016e-06 2.23256e-06 1.96372e-06 1.64366e-06 1.31124e-06 1.00534e-06 7.25973e-07 4.73125e-07 2.56714e-07 8.66509e-08 -3.7063e-08 -1.14428e-07 -1.54882e-07 -1.67863e-07 -1.5337e-07 -1.11405e-07 -6.26651e-08 -2.78512e-08 -6.96279e-09 0 0 -1.56756e-08 -6.27023e-08 -1.4108e-07 -2.50809e-07 -3.45286e-07 -3.77908e-07 -3.48675e-07 -2.57587e-07 -8.34008e-08 1.95128e-07 5.77999e-07 1.06521e-06 1.63444e-06 2.26337e-06 2.95199e-06 3.70031e-06 4.4208e-06 5.02593e-06 5.51571e-06 5.89014e-06 6.01957e-06 5.77435e-06 5.1545e-06 4.16e-06 2.68362e-06 6.18133e-07 -2.03647e-06 -5.28017e-06 -9.13809e-06 -1.36353e-05 -1.87719e-05 -2.45477e-05 -3.0899e-05 -3.77617e-05 -4.51359e-05 -5.30216e-05 -6.1312e-05 -6.99004e-05 -7.87869e-05 -8.79714e-05 -9.73569e-05 -0.000106847 -0.000116441 -0.000126139 -0.000135866 -0.000145547 -0.000155182 -0.000164771 -0.00017423 -0.000183474 -0.000192504 -0.000201319 -0.000209795 -0.000217809 -0.000225361 -0.00023245 -0.000238931 -0.000244658 -0.00024963 -0.000253847 -0.000257207 -0.000259607 -0.000261046 -0.000261524 -0.000261042 -0.000259599 -0.000257195 -0.000253832 -0.00024961 -0.000244635 -0.000238906 -0.000232422 -0.00022533 -0.000217776 -0.00020976 -0.000201282 -0.000192466 -0.000183436 -0.000174191 -0.000164733 -0.000155144 -0.000145509 -0.000135829 -0.000126103 -0.000116406 -0.000106813 -9.73254e-05 -8.79418e-05 -7.87594e-05 -6.98751e-05 -6.1289e-05 -5.3001e-05 -4.51178e-05 -3.7746e-05 -3.08856e-05 -2.45367e-05 -1.87631e-05 -1.36286e-05 -9.13328e-06 -5.27709e-06 -2.0349e-06 6.18404e-07 2.68283e-06 4.15838e-06 5.15226e-06 5.77169e-06 6.01667e-06 5.8872e-06 5.51286e-06 5.02326e-06 4.41838e-06 3.69823e-06 2.95029e-06 2.26203e-06 1.63344e-06 1.06453e-06 5.77606e-07 1.94965e-07 -8.33917e-08 -2.57463e-07 -3.48484e-07 -3.77691e-07 -3.45083e-07 -2.5066e-07 -1.40996e-07 -6.26651e-08 -1.56663e-08 0 0 -2.78677e-08 -1.11471e-07 -2.50809e-07 -4.45883e-07 -6.13842e-07 -6.71837e-07 -6.19867e-07 -4.57933e-07 -1.48268e-07 3.46894e-07 1.02755e-06 1.89371e-06 2.90568e-06 4.02377e-06 5.24798e-06 6.57832e-06 7.85919e-06 8.93499e-06 9.80571e-06 1.04714e-05 1.07015e-05 1.02655e-05 9.16355e-06 7.39555e-06 4.77088e-06 1.0989e-06 -3.62038e-06 -9.38698e-06 -1.62455e-05 -2.42406e-05 -3.33722e-05 -4.36404e-05 -5.49315e-05 -6.71319e-05 -8.02416e-05 -9.42606e-05 -0.000108999 -0.000124267 -0.000140066 -0.000156394 -0.000173079 -0.00018995 -0.000207006 -0.000224247 -0.000241539 -0.00025875 -0.000275879 -0.000292927 -0.000309742 -0.000326176 -0.000342229 -0.0003579 -0.000372969 -0.000387216 -0.000400642 -0.000413245 -0.000424767 -0.000434947 -0.000443786 -0.000451284 -0.000457258 -0.000461523 -0.000464081 -0.000464931 -0.000464074 -0.000461509 -0.000457236 -0.000451256 -0.000443752 -0.000434907 -0.000424721 -0.000413194 -0.000400587 -0.000387158 -0.000372907 -0.000357835 -0.000342162 -0.000326109 -0.000309674 -0.000292858 -0.000275811 -0.000258683 -0.000241473 -0.000224182 -0.000206944 -0.000189891 -0.000173023 -0.000156341 -0.000140017 -0.000124222 -0.000108958 -9.4224e-05 -8.02094e-05 -6.7104e-05 -5.49078e-05 -4.36208e-05 -3.33566e-05 -2.42287e-05 -1.62369e-05 -9.38149e-06 -3.6176e-06 1.09939e-06 4.76948e-06 7.39268e-06 9.15958e-06 1.02608e-05 1.06963e-05 1.04661e-05 9.80064e-06 8.93023e-06 7.8549e-06 6.57464e-06 5.24496e-06 4.02138e-06 2.90389e-06 1.8925e-06 1.02685e-06 3.46604e-07 -1.48252e-07 -4.57712e-07 -6.19528e-07 -6.71451e-07 -6.13481e-07 -4.45618e-07 -2.5066e-07 -1.11405e-07 -2.78512e-08 0 0 -3.83615e-08 -1.53446e-07 -3.45253e-07 -6.13783e-07 -8.38196e-07 -8.9765e-07 -7.92145e-07 -5.21681e-07 -3.64381e-08 7.13405e-07 1.72785e-06 3.00689e-06 4.48142e-06 6.08232e-06 7.8096e-06 9.66324e-06 1.1408e-05 1.28087e-05 1.38653e-05 1.45777e-05 1.46163e-05 1.36513e-05 1.16826e-05 8.71023e-06 4.48077e-06 -1.25925e-06 -8.50982e-06 -1.7271e-05 -2.7576e-05 -3.94582e-05 -5.29175e-05 -6.79541e-05 -8.43829e-05 -0.000102019 -0.000120862 -0.000140912 -0.0001619 -0.000183558 -0.000205884 -0.00022888 -0.000252327 -0.000276007 -0.000299921 -0.000324069 -0.000348297 -0.000372452 -0.000396535 -0.000420545 -0.00044429 -0.000467576 -0.000490405 -0.000512775 -0.000534361 -0.000554839 -0.000574206 -0.000592465 -0.000609207 -0.000624029 -0.000636929 -0.000647908 -0.000656673 -0.000662932 -0.000666685 -0.000667933 -0.000666675 -0.000662912 -0.000656643 -0.000647868 -0.00063688 -0.000623972 -0.000609143 -0.000592393 -0.000574128 -0.000554755 -0.000534274 -0.000512684 -0.00049031 -0.00046748 -0.000444192 -0.000420447 -0.000396437 -0.000372356 -0.000348202 -0.000323977 -0.000299832 -0.000275922 -0.000252245 -0.000228803 -0.000205813 -0.000183492 -0.00016184 -0.000140858 -0.000120814 -0.000101977 -8.43467e-05 -6.7924e-05 -5.28931e-05 -3.94391e-05 -2.75619e-05 -1.72614e-05 -8.50432e-06 -1.25722e-06 4.47991e-06 8.70706e-06 1.16776e-05 1.36451e-05 1.46094e-05 1.45705e-05 1.38581e-05 1.28019e-05 1.14018e-05 9.65784e-06 7.80511e-06 6.07873e-06 4.47869e-06 3.00499e-06 1.7267e-06 7.12856e-07 -3.65266e-08 -5.21452e-07 -7.91723e-07 -8.97142e-07 -8.37709e-07 -6.13423e-07 -3.45051e-07 -1.53356e-07 -3.8339e-08 0 0 -4.19751e-08 -1.679e-07 -3.77776e-07 -6.71602e-07 -8.97414e-07 -9.0325e-07 -6.89109e-07 -2.54992e-07 4.4732e-07 1.46605e-06 2.80118e-06 4.45274e-06 6.30299e-06 8.23423e-06 1.02464e-05 1.23397e-05 1.41953e-05 1.54948e-05 1.62382e-05 1.64255e-05 1.56595e-05 1.35431e-05 1.00761e-05 5.25871e-06 -1.16044e-06 -9.43259e-06 -1.95577e-05 -3.15359e-05 -4.53218e-05 -6.08703e-05 -7.81813e-05 -9.72549e-05 -0.000117805 -0.000139547 -0.000162481 -0.000186605 -0.000211604 -0.000237161 -0.000263274 -0.000289945 -0.000316991 -0.00034423 -0.000371662 -0.000399288 -0.000427029 -0.000454807 -0.000482621 -0.000510473 -0.000538189 -0.0005656 -0.000592703 -0.0006195 -0.000645569 -0.000670489 -0.000694258 -0.000716878 -0.000737763 -0.000756327 -0.00077257 -0.000786493 -0.00079766 -0.000805634 -0.000810417 -0.000812007 -0.000810405 -0.000805611 -0.000797625 -0.000786447 -0.000772513 -0.00075626 -0.000737687 -0.000716794 -0.000694167 -0.000670391 -0.000645466 -0.000619393 -0.000592592 -0.000565486 -0.000538074 -0.000510357 -0.000482505 -0.000454691 -0.000426915 -0.000399177 -0.000371554 -0.000344125 -0.00031689 -0.000289849 -0.000263184 -0.000237076 -0.000211527 -0.000186534 -0.000162417 -0.000139491 -0.000117756 -9.72125e-05 -7.81461e-05 -6.08418e-05 -4.52996e-05 -3.15196e-05 -1.95468e-05 -9.42641e-06 -1.15828e-06 5.25752e-06 1.00723e-05 1.35372e-05 1.56522e-05 1.64175e-05 1.623e-05 1.54867e-05 1.41876e-05 1.23328e-05 1.02406e-05 8.2294e-06 6.29918e-06 4.44996e-06 2.79936e-06 1.46501e-06 4.46901e-07 -2.54961e-07 -6.88782e-07 -9.02765e-07 -8.96911e-07 -6.7122e-07 -3.77561e-07 -1.67805e-07 -4.19512e-08 0 0 -3.87086e-08 -1.54834e-07 -3.48378e-07 -6.19338e-07 -7.91498e-07 -6.88639e-07 -3.10762e-07 3.42134e-07 1.30301e-06 2.60482e-06 4.24756e-06 6.23124e-06 8.37037e-06 1.04795e-05 1.25585e-05 1.46076e-05 1.6221e-05 1.69934e-05 1.69246e-05 1.60148e-05 1.38311e-05 9.94089e-06 4.3442e-06 -2.95899e-06 -1.21527e-05 -2.34211e-05 -3.67642e-05 -5.21818e-05 -6.94831e-05 -8.8477e-05 -0.000109164 -0.000131543 -0.000155199 -0.000179718 -0.000205098 -0.000231341 -0.000258111 -0.000285076 -0.000312235 -0.000339589 -0.000367071 -0.000394618 -0.00042223 -0.000449905 -0.000477737 -0.000505815 -0.000534139 -0.00056271 -0.000591442 -0.000620246 -0.000649124 -0.000678076 -0.000706593 -0.000734166 -0.000760797 -0.000786485 -0.000810432 -0.000831841 -0.00085071 -0.000867041 -0.00088022 -0.000889631 -0.000895275 -0.000897152 -0.000895262 -0.000889606 -0.000880183 -0.000866993 -0.000850651 -0.000831771 -0.000810353 -0.000786397 -0.000760702 -0.000734064 -0.000706484 -0.000677963 -0.000649007 -0.000620126 -0.000591319 -0.000562586 -0.000534014 -0.00050569 -0.000477613 -0.000449783 -0.000422109 -0.000394501 -0.000366957 -0.000339479 -0.000312131 -0.000284977 -0.000258018 -0.000231254 -0.000205019 -0.000179646 -0.000155135 -0.000131487 -0.000109115 -8.84367e-05 -6.94502e-05 -5.21562e-05 -3.67452e-05 -2.34082e-05 -1.21451e-05 -2.95593e-06 4.34341e-06 9.93703e-06 1.38249e-05 1.60071e-05 1.69162e-05 1.69846e-05 1.62124e-05 1.45996e-05 1.25514e-05 1.04734e-05 8.36537e-06 6.22741e-06 4.24486e-06 2.60306e-06 1.30203e-06 3.41762e-07 -3.10703e-07 -6.88319e-07 -7.91087e-07 -6.19008e-07 -3.48192e-07 -1.54752e-07 -3.8688e-08 0 0 -2.8562e-08 -1.14248e-07 -2.57058e-07 -4.56992e-07 -5.20446e-07 -2.53816e-07 3.42899e-07 1.2697e-06 2.53062e-06 4.12971e-06 6.06697e-06 8.3424e-06 1.06836e-05 1.28181e-05 1.47459e-05 1.6467e-05 1.74853e-05 1.73044e-05 1.59244e-05 1.33454e-05 9.13092e-06 2.84472e-06 -5.51322e-06 -1.59429e-05 -2.84962e-05 -4.32249e-05 -6.01291e-05 -7.92087e-05 -0.00010006 -0.000122278 -0.000145864 -0.000170817 -0.000196564 -0.00022253 -0.000248714 -0.000275118 -0.000301422 -0.000327305 -0.000352768 -0.000377811 -0.000402568 -0.000427172 -0.000451622 -0.00047592 -0.000500419 -0.000525475 -0.000551088 -0.000577257 -0.000604046 -0.000631516 -0.000659668 -0.000688502 -0.000717432 -0.000745872 -0.000773824 -0.000801286 -0.000827217 -0.000850571 -0.000871349 -0.000889552 -0.000904351 -0.000914921 -0.00092126 -0.000923369 -0.000921248 -0.000914897 -0.000904317 -0.000889506 -0.000871293 -0.000850505 -0.000827142 -0.000801203 -0.000773733 -0.000745775 -0.000717329 -0.000688394 -0.000659556 -0.0006314 -0.000603927 -0.000577136 -0.000550965 -0.000525351 -0.000500294 -0.000475795 -0.000451497 -0.000427048 -0.000402446 -0.000377692 -0.000352653 -0.000327194 -0.000301315 -0.000275018 -0.00024862 -0.000222442 -0.000196484 -0.000170746 -0.000145801 -0.000122224 -0.000100014 -7.9171e-05 -6.00994e-05 -4.32025e-05 -2.84805e-05 -1.59333e-05 -5.50889e-06 2.8447e-06 9.12746e-06 1.33394e-05 1.59167e-05 1.72956e-05 1.7476e-05 1.64581e-05 1.47376e-05 1.28107e-05 1.06773e-05 8.33734e-06 6.06317e-06 4.12702e-06 2.52886e-06 1.26872e-06 3.42513e-07 -2.53805e-07 -5.20238e-07 -4.56787e-07 -2.56943e-07 -1.14197e-07 -2.85492e-08 0 0 -9.23158e-09 -3.69263e-08 -8.30842e-08 -1.47705e-07 -3.57818e-08 4.47694e-07 1.30272e-06 2.5293e-06 4.08547e-06 5.92926e-06 8.06068e-06 1.04797e-05 1.2818e-05 1.4707e-05 1.61468e-05 1.71374e-05 1.71176e-05 1.55263e-05 1.23634e-05 7.62907e-06 9.52329e-07 -8.03761e-06 -1.93408e-05 -3.29571e-05 -4.87215e-05 -6.64689e-05 -8.61992e-05 -0.000107912 -0.000130939 -0.000154608 -0.000178921 -0.000203877 -0.000228752 -0.000252823 -0.000276088 -0.000298548 -0.000319961 -0.000340084 -0.000358918 -0.000376461 -0.000393132 -0.00040935 -0.000425113 -0.000440423 -0.000455981 -0.000472486 -0.000489939 -0.00050834 -0.000527968 -0.000549102 -0.000571741 -0.000595886 -0.000620925 -0.000646243 -0.000671843 -0.000697723 -0.000722629 -0.000745305 -0.000765751 -0.000783967 -0.000798931 -0.000809617 -0.000816027 -0.000818161 -0.000816018 -0.0008096 -0.000798904 -0.000783933 -0.000765709 -0.000745255 -0.000722573 -0.000697661 -0.000671775 -0.00064617 -0.000620846 -0.000595804 -0.000571654 -0.000549011 -0.000527874 -0.000508242 -0.000489838 -0.000472381 -0.000455874 -0.000440314 -0.000425002 -0.000409236 -0.000393018 -0.000376346 -0.000358803 -0.000339972 -0.000319851 -0.000298442 -0.000275986 -0.000252726 -0.000228662 -0.000203794 -0.000178845 -0.000154541 -0.00013088 -0.000107862 -8.61578e-05 -6.64358e-05 -4.86962e-05 -3.29391e-05 -1.93294e-05 -8.03195e-06 9.53289e-07 7.62628e-06 1.23578e-05 1.55186e-05 1.71088e-05 1.71282e-05 1.61379e-05 1.46986e-05 1.28105e-05 1.04734e-05 8.0557e-06 5.92547e-06 4.08274e-06 2.52751e-06 1.3017e-06 4.47227e-07 -3.59137e-08 -1.4772e-07 -8.30927e-08 -3.69301e-08 -9.23253e-09 0 0 2.15863e-08 8.63452e-08 1.94277e-07 3.45381e-07 7.10972e-07 1.46236e-06 2.59956e-06 4.12255e-06 5.92286e-06 7.89198e-06 1.00299e-05 1.23367e-05 1.43489e-05 1.56033e-05 1.60997e-05 1.58382e-05 1.42478e-05 1.07575e-05 5.36741e-06 -1.92257e-06 -1.13115e-05 -2.29983e-05 -3.6983e-05 -5.32657e-05 -7.13597e-05 -9.07782e-05 -0.000111521 -0.000133589 -0.000156007 -0.000177802 -0.000198973 -0.00021952 -0.000238617 -0.000255436 -0.000269978 -0.000282242 -0.000292157 -0.000299653 -0.000304728 -0.000307385 -0.000308414 -0.000308612 -0.000307976 -0.000306507 -0.000305323 -0.000305542 -0.000307162 -0.000310184 -0.000315174 -0.000322696 -0.000332751 -0.000345339 -0.000359911 -0.000375918 -0.00039336 -0.000412238 -0.000431184 -0.000448832 -0.000465181 -0.000480231 -0.000492832 -0.000501832 -0.000507232 -0.000509031 -0.000507229 -0.000501827 -0.000492824 -0.000480221 -0.000465168 -0.000448817 -0.000431167 -0.000412218 -0.000393339 -0.000375894 -0.000359884 -0.00034531 -0.000332719 -0.000322661 -0.000315134 -0.00031014 -0.000307113 -0.000305487 -0.000305264 -0.000306442 -0.000307904 -0.000308534 -0.000308332 -0.000307297 -0.000304637 -0.000299558 -0.00029206 -0.000282144 -0.000269881 -0.000255341 -0.000238525 -0.000219432 -0.00019889 -0.000177725 -0.000155938 -0.000133528 -0.000111469 -9.07341e-05 -7.13239e-05 -5.3238e-05 -3.6963e-05 -2.2985e-05 -1.13041e-05 -1.9202e-06 5.36568e-06 1.07527e-05 1.42407e-05 1.58299e-05 1.60909e-05 1.55945e-05 1.43407e-05 1.23294e-05 1.00238e-05 7.88701e-06 5.91899e-06 4.11975e-06 2.5977e-06 1.46122e-06 7.10335e-07 3.45029e-07 1.94079e-07 8.62572e-08 2.15643e-08 0 0 6.38917e-08 2.55567e-07 5.75025e-07 1.02227e-06 1.71981e-06 2.79019e-06 4.2334e-06 6.04944e-06 8.04278e-06 1.00179e-05 1.19747e-05 1.39134e-05 1.52765e-05 1.55069e-05 1.46045e-05 1.25694e-05 8.8758e-06 2.99814e-06 -5.06364e-06 -1.53095e-05 -2.76604e-05 -4.20373e-05 -5.84401e-05 -7.68688e-05 -9.64107e-05 -0.000116153 -0.000136095 -0.000156238 -0.000175264 -0.000191858 -0.000206019 -0.000217747 -0.000226158 -0.000230371 -0.000230384 -0.000226199 -0.000218009 -0.000206009 -0.000190201 -0.000170583 -0.000148415 -0.000124957 -0.00010021 -7.41716e-05 -4.8448e-05 -2.46431e-05 -2.75705e-06 1.72102e-05 3.43368e-05 4.77007e-05 5.73019e-05 6.31405e-05 6.56102e-05 6.51051e-05 6.1625e-05 5.51701e-05 4.71187e-05 3.88495e-05 3.03623e-05 2.16572e-05 1.39444e-05 8.43434e-06 5.12692e-06 4.02217e-06 5.12016e-06 8.42096e-06 1.39246e-05 2.1631e-05 3.03302e-05 3.8812e-05 4.70765e-05 5.51236e-05 6.15751e-05 6.50529e-05 6.55569e-05 6.3087e-05 5.72497e-05 4.76511e-05 3.42913e-05 1.71702e-05 -2.7903e-06 -2.46685e-05 -4.84643e-05 -7.41778e-05 -0.000100205 -0.000124942 -0.000148389 -0.000170545 -0.000190153 -0.000205952 -0.000217943 -0.000226126 -0.000230306 -0.000230288 -0.000226074 -0.000217662 -0.000205935 -0.000191778 -0.000175189 -0.000156168 -0.000136033 -0.000116098 -9.63634e-05 -7.683e-05 -5.84096e-05 -4.20144e-05 -2.76446e-05 -1.53e-05 -5.05966e-06 2.99765e-06 8.87191e-06 1.25631e-05 1.45967e-05 1.54983e-05 1.52678e-05 1.39052e-05 1.19675e-05 1.00116e-05 8.03762e-06 6.04544e-06 4.2305e-06 2.78819e-06 1.71851e-06 1.02146e-06 5.74572e-07 2.55365e-07 6.38413e-08 0 0 1.17684e-07 4.70738e-07 1.05916e-06 1.88295e-06 2.99075e-06 4.43118e-06 6.20426e-06 8.30998e-06 1.04452e-05 1.23069e-05 1.38951e-05 1.52097e-05 1.56006e-05 1.44178e-05 1.16612e-05 7.33095e-06 1.00166e-06 -7.7519e-06 -1.89297e-05 -3.25318e-05 -4.80946e-05 -6.51546e-05 -8.37119e-05 -0.000103766 -0.000123874 -0.000142593 -0.000159921 -0.00017586 -0.000188711 -0.000196778 -0.000200059 -0.000198556 -0.000191376 -0.000177626 -0.000157307 -0.000130418 -9.7516e-05 -5.91546e-05 -1.53344e-05 3.39447e-05 8.6866e-05 0.000141613 0.000198186 0.000256584 0.000314646 0.00037021 0.000423276 0.000473843 0.000520564 0.000562089 0.000598419 0.000629552 0.000655638 0.000676825 0.000693112 0.000704501 0.000712279 0.000717738 0.000720878 0.000721697 0.000721399 0.000721182 0.000721049 0.000720997 0.000721029 0.000721144 0.000721341 0.000721622 0.000720785 0.00071763 0.000712157 0.000704365 0.000692966 0.00067667 0.000655477 0.000629387 0.000598252 0.000561924 0.000520403 0.000473689 0.00042313 0.000370075 0.000314524 0.000256477 0.000198096 0.000141541 8.6812e-05 3.39095e-05 -1.53509e-05 -5.91535e-05 -9.74983e-05 -0.000130385 -0.00015726 -0.000177568 -0.000191308 -0.000198482 -0.000199981 -0.000196697 -0.000188631 -0.000175783 -0.000159849 -0.000142526 -0.000123815 -0.000103715 -8.36692e-05 -6.51203e-05 -4.80683e-05 -3.25133e-05 -1.89182e-05 -7.74638e-06 1.00231e-06 7.32784e-06 1.16554e-05 1.441e-05 1.55919e-05 1.52009e-05 1.38868e-05 1.22994e-05 1.04386e-05 8.30458e-06 6.2001e-06 4.42811e-06 2.9886e-06 1.88157e-06 1.05839e-06 4.70394e-07 1.17598e-07 0 0 1.80415e-07 7.21662e-07 1.62374e-06 2.88665e-06 4.45315e-06 6.266e-06 8.32521e-06 1.06308e-05 1.27616e-05 1.42968e-05 1.52361e-05 1.55798e-05 1.46217e-05 1.16558e-05 6.68209e-06 -2.99385e-07 -9.5186e-06 -2.12055e-05 -3.53601e-05 -5.19824e-05 -7.0124e-05 -8.88362e-05 -0.000108119 -0.000127973 -0.000146405 -0.000161421 -0.000173022 -0.000181209 -0.000184001 -0.000179419 -0.000167463 -0.000148133 -0.000120676 -8.43392e-05 -3.9123e-05 1.49729e-05 7.69553e-05 0.000145831 0.0002216 0.000304262 0.000391499 0.000480991 0.00057274 0.000666744 0.000760413 0.000851154 0.000938967 0.00102385 0.0011041 0.00117798 0.0012455 0.00130666 0.00136125 0.00140907 0.00145011 0.00148438 0.00151283 0.00153642 0.00155516 0.00156905 0.00157908 0.00158623 0.00159052 0.00159193 0.00159048 0.00158616 0.00157897 0.00156892 0.001555 0.00153623 0.00151261 0.00148414 0.00144986 0.0014088 0.00136097 0.00130637 0.0012452 0.00117768 0.0011038 0.00102356 0.00093869 0.00085089 0.000760166 0.000666517 0.000572535 0.000480811 0.000391344 0.000304134 0.000221499 0.000145756 7.69059e-05 1.4948e-05 -3.91251e-05 -8.43213e-05 -0.00012064 -0.000148083 -0.000167401 -0.000179349 -0.000183925 -0.000181132 -0.000172946 -0.000161347 -0.000146335 -0.000127911 -0.000108065 -8.87903e-05 -7.00866e-05 -5.19538e-05 -3.53399e-05 -2.11926e-05 -9.51198e-06 -2.98043e-07 6.67922e-06 1.16498e-05 1.46137e-05 1.55709e-05 1.52271e-05 1.4288e-05 1.27537e-05 1.06239e-05 8.31972e-06 6.26175e-06 4.45005e-06 2.88461e-06 1.6226e-06 7.21154e-07 1.80288e-07 0 0 2.49535e-07 9.9814e-07 2.24582e-06 3.99256e-06 6.03639e-06 8.1753e-06 1.04093e-05 1.27384e-05 1.46233e-05 1.55249e-05 1.54431e-05 1.43779e-05 1.16401e-05 6.5405e-06 -9.20851e-07 -1.0744e-05 -2.28289e-05 -3.70756e-05 -5.34842e-05 -7.20545e-05 -9.12585e-05 -0.000109568 -0.000126983 -0.000143504 -0.000156655 -0.000163961 -0.000165423 -0.00016104 -0.000148787 -0.00012664 -9.45974e-05 -5.26606e-05 -4.65484e-07 6.23513e-05 0.00013579 0.00021985 0.00031304 0.000413867 0.000522332 0.000638433 0.000759553 0.000883069 0.00100898 0.0011373 0.00126531 0.00139033 0.00151235 0.00163138 0.00174552 0.00185287 0.00195344 0.00204723 0.00213354 0.00221167 0.00228163 0.00234342 0.00239729 0.00244349 0.00248202 0.00251288 0.00253652 0.0025534 0.00256352 0.00256687 0.00256347 0.0025533 0.00253637 0.00251269 0.00248178 0.00244322 0.00239698 0.00234308 0.00228126 0.00221128 0.00213312 0.0020468 0.00195301 0.00185243 0.00174508 0.00163095 0.00151193 0.00138992 0.00126493 0.00113694 0.00100865 0.000882765 0.00075928 0.000638194 0.000522127 0.000413696 0.000312903 0.000219747 0.000135718 6.23089e-05 -4.81456e-07 -5.26528e-05 -9.45693e-05 -0.000126595 -0.00014873 -0.000160974 -0.000165351 -0.000163888 -0.000156582 -0.000143435 -0.00012692 -0.000109512 -9.12107e-05 -7.20156e-05 -5.34544e-05 -3.70541e-05 -2.28149e-05 -1.07367e-05 -9.19243e-07 6.53766e-06 1.1634e-05 1.43699e-05 1.54341e-05 1.55156e-05 1.46143e-05 1.27303e-05 1.04025e-05 8.16986e-06 6.03229e-06 3.98982e-06 2.24427e-06 9.97455e-07 2.49364e-07 0 0 3.25043e-07 1.30017e-06 2.92539e-06 5.2007e-06 7.74047e-06 1.01591e-05 1.24566e-05 1.46329e-05 1.60304e-05 1.59914e-05 1.45159e-05 1.16039e-05 6.6558e-06 -9.28025e-07 -1.11476e-05 -2.40028e-05 -3.89293e-05 -5.53623e-05 -7.33019e-05 -9.2748e-05 -0.000111498 -0.00012735 -0.000140303 -0.000150358 -0.000154625 -0.000150212 -0.000137122 -0.000115352 -8.30698e-05 -3.84403e-05 1.85363e-05 8.78601e-05 0.000169255 0.000262446 0.000367432 0.000484213 0.000610738 0.000744954 0.000886861 0.00103646 0.00119103 0.00134785 0.00150692 0.00166824 0.00182933 0.00198773 0.00214342 0.00229642 0.00244483 0.00258677 0.00272225 0.00285126 0.00297249 0.00308463 0.00318768 0.00328164 0.00336567 0.00343894 0.00350144 0.00355318 0.00359373 0.00362269 0.00364005 0.00364581 0.00363998 0.00362256 0.00359354 0.00355292 0.00350113 0.00343858 0.00336526 0.00328119 0.00318719 0.00308411 0.00297194 0.00285069 0.00272167 0.00258619 0.00244424 0.00229584 0.00214285 0.00198718 0.0018288 0.00166773 0.00150644 0.0013474 0.00119062 0.00103609 0.000886533 0.000744667 0.000610493 0.00048401 0.00036727 0.000262323 0.000169169 8.78074e-05 1.85141e-05 -3.84365e-05 -8.30442e-05 -0.000115309 -0.000137066 -0.000150147 -0.000154555 -0.000150288 -0.000140235 -0.000127286 -0.000111441 -9.26988e-05 -7.32618e-05 -5.5331e-05 -3.89064e-05 -2.39881e-05 -1.114e-05 -9.26396e-07 6.65285e-06 1.15977e-05 1.45076e-05 1.59819e-05 1.60206e-05 1.46237e-05 1.24486e-05 1.01524e-05 7.7353e-06 5.19719e-06 2.92342e-06 1.2993e-06 3.24825e-07 0 0 4.06941e-07 1.62776e-06 3.66247e-06 6.51105e-06 9.56539e-06 1.22174e-05 1.4467e-05 1.63142e-05 1.69828e-05 1.56962e-05 1.24546e-05 7.25789e-06 -3.31147e-07 -1.07498e-05 -2.39981e-05 -4.0076e-05 -5.78197e-05 -7.60654e-05 -9.48132e-05 -0.000114063 -0.000130843 -0.000142182 -0.00014808 -0.000148537 -0.000140315 -0.000120175 -8.81193e-05 -4.41464e-05 1.31506e-05 8.51789e-05 0.000171939 0.000273429 0.000388486 0.000515944 0.000655803 0.000808062 0.000970049 0.00113909 0.00131519 0.00149834 0.00168592 0.00187533 0.00206654 0.00225957 0.00245249 0.00264336 0.00283219 0.00301897 0.00320203 0.00337968 0.00355192 0.00371874 0.0038781 0.00402794 0.00416824 0.00429902 0.00441797 0.00452277 0.00461343 0.00468995 0.00475071 0.0047941 0.00482011 0.00482876 0.00482003 0.00479393 0.00475047 0.00468963 0.00461305 0.00452232 0.00441746 0.00429846 0.00416763 0.00402729 0.00387742 0.00371804 0.00355119 0.00337894 0.00320129 0.00301824 0.00283146 0.00264265 0.0024518 0.00225891 0.00206591 0.00187473 0.00168537 0.00149782 0.00131472 0.00113867 0.000969675 0.000807739 0.00065553 0.000515721 0.00038831 0.000273298 0.000171849 8.51269e-05 1.31311e-05 -4.41381e-05 -8.80883e-05 -0.000120127 -0.000140254 -0.000148469 -0.000148009 -0.000142112 -0.000130777 -0.000114003 -9.4762e-05 -7.60231e-05 -5.77865e-05 -4.00522e-05 -2.39831e-05 -1.07424e-05 -3.29818e-07 7.25447e-06 1.24477e-05 1.5687e-05 1.69725e-05 1.63041e-05 1.44578e-05 1.22095e-05 9.5591e-06 6.50674e-06 3.66004e-06 1.62668e-06 4.06671e-07 0 0 4.85659e-07 1.94264e-06 4.37093e-06 7.77054e-06 1.12799e-05 1.40375e-05 1.60433e-05 1.72972e-05 1.69333e-05 1.40853e-05 8.7533e-06 9.37268e-07 -9.52559e-06 -2.27981e-05 -3.88802e-05 -5.77719e-05 -7.75953e-05 -9.64724e-05 -0.000114403 -0.000131388 -0.000143735 -0.000147754 -0.000143445 -0.000130808 -0.000106565 -6.74377e-05 -1.34271e-05 5.54672e-05 0.000139787 0.000240075 0.000356332 0.000488556 0.000634413 0.000791569 0.000960024 0.00113978 0.00132763 0.0015204 0.00171808 0.00192067 0.00212611 0.00233238 0.00253945 0.00274734 0.00295527 0.00316247 0.00336895 0.00357471 0.00377867 0.0039798 0.00417808 0.00437351 0.00456328 0.00474456 0.00491737 0.0050817 0.00523337 0.00536823 0.00548627 0.0055875 0.00566871 0.00572671 0.00576148 0.00577304 0.00576139 0.00572652 0.00566844 0.00558714 0.00548584 0.00536772 0.00523279 0.00508106 0.00491668 0.00474383 0.00456251 0.00437271 0.00417726 0.00397896 0.00377783 0.00357386 0.00336811 0.00316165 0.00295446 0.00274655 0.00253869 0.00233165 0.00212543 0.00192002 0.00171748 0.00151985 0.00132714 0.00113933 0.000959637 0.000791238 0.000634138 0.000488335 0.000356163 0.000239955 0.00013971 5.54283e-05 -1.34327e-05 -6.74162e-05 -0.000106522 -0.000130751 -0.000143378 -0.000147683 -0.000143663 -0.00013132 -0.000114342 -9.64195e-05 -7.75515e-05 -5.77384e-05 -3.88568e-05 -2.27836e-05 -9.51873e-06 9.37762e-07 8.7488e-06 1.40773e-05 1.69232e-05 1.72867e-05 1.60332e-05 1.40285e-05 1.12726e-05 7.76547e-06 4.36808e-06 1.94137e-06 4.85342e-07 0 0 5.51631e-07 2.20652e-06 4.96468e-06 8.82609e-06 1.26528e-05 1.53068e-05 1.67881e-05 1.70967e-05 1.53348e-05 1.06046e-05 2.90619e-06 -7.76054e-06 -2.11324e-05 -3.69461e-05 -5.52017e-05 -7.58992e-05 -9.63513e-05 -0.000113871 -0.000128457 -0.000140111 -0.000144615 -0.000137755 -0.00011953 -8.99396e-05 -4.62151e-05 1.44126e-05 9.19437e-05 0.000186378 0.000296753 0.000422106 0.000562438 0.000717747 0.00088422 0.00105804 0.00123922 0.00142774 0.00162015 0.00181301 0.0020063 0.00220003 0.00239347 0.00258587 0.00277724 0.00296758 0.00315818 0.00335033 0.00354403 0.00373929 0.00393632 0.00413534 0.00433636 0.00453936 0.00474089 0.00493747 0.00512909 0.00531577 0.00549107 0.00564856 0.00578825 0.00591014 0.006009 0.0060796 0.00612194 0.00613602 0.00612184 0.00607941 0.00600873 0.00590978 0.00578782 0.00564805 0.00549049 0.00531514 0.00512841 0.00493674 0.00474013 0.00453857 0.00433554 0.00413451 0.00393548 0.00373844 0.00354318 0.00334948 0.00315734 0.00296675 0.00277643 0.00258509 0.00239271 0.00219931 0.00200562 0.00181237 0.00161956 0.0014272 0.00123873 0.00105761 0.000883847 0.000717434 0.000562183 0.000421907 0.000296605 0.000186279 9.18879e-05 1.43938e-05 -4.62036e-05 -8.99042e-05 -0.000119477 -0.00013769 -0.000144544 -0.000140039 -0.000128389 -0.000113809 -9.62976e-05 -7.58558e-05 -5.51691e-05 -3.69234e-05 -2.11186e-05 -7.75475e-06 2.90537e-06 1.05989e-05 1.5326e-05 1.70864e-05 1.67777e-05 1.52971e-05 1.26447e-05 8.82041e-06 4.96148e-06 2.2051e-06 5.51276e-07 0 0 6.04856e-07 2.41942e-06 5.44371e-06 9.6777e-06 1.3684e-05 1.60253e-05 1.67015e-05 1.57126e-05 1.21873e-05 5.2542e-06 -5.08675e-06 -1.88355e-05 -3.51514e-05 -5.31938e-05 -7.29626e-05 -9.44579e-05 -0.000114088 -0.00012826 -0.000136975 -0.000140232 -0.000133485 -0.000112186 -7.63348e-05 -2.59323e-05 4.07339e-05 0.000125376 0.000227993 0.000348586 0.000484048 0.000631272 0.000790257 0.000961004 0.00113791 0.00131537 0.00149338 0.00167195 0.00184761 0.00201691 0.00217986 0.00233644 0.00248798 0.00263581 0.00277991 0.0029203 0.00306122 0.00320693 0.00335743 0.00351272 0.00367496 0.00384631 0.00402676 0.00421631 0.00441094 0.00460665 0.00480341 0.00500124 0.00519105 0.00536376 0.00551936 0.00565787 0.00577157 0.00585277 0.00590148 0.00591768 0.00590139 0.00585261 0.00577133 0.00565756 0.00551899 0.00536332 0.00519056 0.0050007 0.00480282 0.00460602 0.00441029 0.00421562 0.00402605 0.00384558 0.00367422 0.00351197 0.00335666 0.00320616 0.00306044 0.00291952 0.00277913 0.00263504 0.00248722 0.0023357 0.00217913 0.00201622 0.00184695 0.00167132 0.0014928 0.00131484 0.00113744 0.000960594 0.000789908 0.000630983 0.000483818 0.000348413 0.000227874 0.000125303 4.0702e-05 -2.593e-05 -7.6305e-05 -0.000112135 -0.000133421 -0.000140162 -0.000136904 -0.000128191 -0.000114025 -9.44046e-05 -7.29202e-05 -5.3