<?xml version="1.0"?> 
<VTKFile type="StructuredGrid" version="0.1"> 
<StructuredGrid WholeExtent="0 128 0 128 0 0"> 
<Piece Extent="0 128 0 128 0 0"> 
<PointData>
<DataArray type="Float32" Name="u" format="ascii" NumberOfComponents="1"> 
0 0 0 0 0 0 0 0 0 0 0 0 0 0 0 0 0 0 0 0 0 0 0 0 0 0 0 0 0 0 0 0 0 0 0 0 0 0 0 0 0 0 0 0 0 0 0 0 0 0 0 0 0 0 0 0 0 0 0 0 0 0 0 0 0 0 0 0 0 0 0 0 0 0 0 0 0 0 0 0 0 0 0 0 0 0 0 0 0 0 0 0 0 0 0 0 0 0 0 0 0 0 0 0 0 0 0 0 0 0 0 0 0 0 0 0 0 0 0 0 0 0 0 0 0 0 0 0 0 0 -6.17939e-08 -2.47175e-07 -5.56145e-07 -9.88702e-07 -1.47379e-06 -1.94036e-06 -2.3884e-06 -2.81792e-06 -3.18387e-06 -3.44117e-06 -3.58983e-06 -3.62986e-06 -3.52585e-06 -3.24242e-06 -2.77956e-06 -2.13728e-06 -1.30368e-06 -2.66847e-07 9.7321e-07 2.41649e-06 4.05105e-06 5.86493e-06 7.85812e-06 1.00306e-05 1.23538e-05 1.4799e-05 1.73661e-05 2.00552e-05 2.28354e-05 2.56758e-05 2.85764e-05 3.15373e-05 3.45388e-05 3.75616e-05 4.06057e-05 4.36711e-05 4.67531e-05 4.98472e-05 5.29535e-05 5.60718e-05 5.92034e-05 6.23491e-05 6.55091e-05 6.86833e-05 7.18629e-05 7.50392e-05 7.8212e-05 8.13815e-05 8.45184e-05 8.75933e-05 9.06065e-05 9.35577e-05 9.64e-05 9.9086e-05 0.000101616 0.000103989 0.000106157 0.00010807 0.000109727 0.000111128 0.000112242 0.000113037 0.000113513 0.00011367 0.000113509 0.000113028 0.000112228 0.000111109 0.000109703 0.000108041 0.000106124 0.000103952 0.000101575 9.9041e-05 9.63513e-05 9.35057e-05 9.05513e-05 8.75353e-05 8.44577e-05 8.13185e-05 7.8147e-05 7.49725e-05 7.17948e-05 6.86141e-05 6.54392e-05 6.22789e-05 5.91331e-05 5.60019e-05 5.28842e-05 4.97791e-05 4.66864e-05 4.36062e-05 4.0543e-05 3.75014e-05 3.44814e-05 3.1483e-05 2.85256e-05 2.56286e-05 2.27921e-05 2.00159e-05 1.7331e-05 1.4768e-05 1.23271e-05 1.00082e-05 7.83981e-06 5.85056e-06 4.04044e-06 2.40943e-06 9.69408e-07 -2.67755e-07 -1.30206e-06 -2.13351e-06 -2.77403e-06 -3.23554e-06 -3.51805e-06 -3.62155e-06 -3.58138e-06 -3.43289e-06 -3.17606e-06 -2.81091e-06 -2.38237e-06 -1.93539e-06 -1.46998e-06 -9.86134e-07 -5.547e-07 -2.46533e-07 -6.16334e-08 0 0 -2.47175e-07 -9.88702e-07 -2.22458e-06 -3.95481e-06 -5.89516e-06 -7.76143e-06 -9.55361e-06 -1.12717e-05 -1.27355e-05 -1.37647e-05 -1.43593e-05 -1.45194e-05 -1.41034e-05 -1.29697e-05 -1.11183e-05 -8.54914e-06 -5.21472e-06 -1.06739e-06 3.89284e-06 9.66598e-06 1.62042e-05 2.34597e-05 3.14325e-05 4.01225e-05 4.94152e-05 5.91958e-05 6.94643e-05 8.02208e-05 9.13416e-05 0.000102703 0.000114306 0.000126149 0.000138155 0.000150247 0.000162423 0.000174684 0.000187012 0.000199389 0.000211814 0.000224287 0.000236813 0.000249396 0.000262036 0.000274733 0.000287452 0.000300157 0.000312848 0.000325526 0.000338073 0.000350373 0.000362426 0.000374231 0.0003856 0.000396344 0.000406463 0.000415958 0.000424629 0.000432279 0.000438906 0.000444512 0.000448969 0.000452149 0.000454054 0.000454682 0.000454034 0.00045211 0.00044891 0.000444435 0.00043881 0.000432164 0.000424498 0.000415809 0.000406299 0.000396164 0.000385405 0.000374023 0.000362205 0.000350141 0.000337831 0.000325274 0.000312588 0.00029989 0.000287179 0.000274457 0.000261757 0.000249115 0.000236532 0.000224008 0.000211537 0.000199116 0.000186745 0.000174425 0.000162172 0.000150006 0.000137926 0.000125932 0.000114102 0.000102514 9.11682e-05 8.00636e-05 6.93239e-05 5.90722e-05 4.93084e-05 4.00327e-05 3.13592e-05 2.34023e-05 1.61617e-05 9.63771e-06 3.87763e-06 -1.07102e-06 -5.20824e-06 -8.53404e-06 -1.10961e-05 -1.29422e-05 -1.40722e-05 -1.44862e-05 -1.43255e-05 -1.37316e-05 -1.27043e-05 -1.12436e-05 -9.52948e-06 -7.74158e-06 -5.87993e-06 -3.94454e-06 -2.2188e-06 -9.86134e-07 -2.46533e-07 0 0 -5.56145e-07 -2.22458e-06 -5.0053e-06 -8.89831e-06 -1.32641e-05 -1.74632e-05 -2.14956e-05 -2.53613e-05 -2.86548e-05 -3.09705e-05 -3.23085e-05 -3.26687e-05 -3.17327e-05 -2.91818e-05 -2.50161e-05 -1.92356e-05 -1.17331e-05 -2.40163e-06 8.75889e-06 2.17484e-05 3.64595e-05 5.27843e-05 7.07231e-05 9.02757e-05 0.000111184 0.000133191 0.000156295 0.000180497 0.000205519 0.000231082 0.000257188 0.000283835 0.000310849 0.000338055 0.000365451 0.00039304 0.000420778 0.000448625 0.000476581 0.000504646 0.00053283 0.000561142 0.000589582 0.00061815 0.000646766 0.000675352 0.000703908 0.000732434 0.000760665 0.00078834 0.000815458 0.00084202 0.0008676 0.000891774 0.000914543 0.000935905 0.000955416 0.000972627 0.000987539 0.00100015 0.00101018 0.00101734 0.00102162 0.00102303 0.00102158 0.00101725 0.00101005 0.000999978 0.000987323 0.00097237 0.000955119 0.000935571 0.000914172 0.000891369 0.000867162 0.000841551 0.000814962 0.000787818 0.000760119 0.000731867 0.000703323 0.000674752 0.000646154 0.000617527 0.000588953 0.00056051 0.000532198 0.000504017 0.000475958 0.000448012 0.000420177 0.000392455 0.000364887 0.000337513 0.000310333 0.000283347 0.00025673 0.000230658 0.000205128 0.000180143 0.000155979 0.000132912 0.000110944 9.00736e-05 7.05583e-05 5.26551e-05 3.63639e-05 2.16849e-05 8.72467e-06 -2.40979e-06 -1.17185e-05 -1.92016e-05 -2.49662e-05 -2.91199e-05 -3.16624e-05 -3.25939e-05 -3.22325e-05 -3.0896e-05 -2.85846e-05 -2.52982e-05 -2.14413e-05 -1.74185e-05 -1.32298e-05 -8.8752e-06 -4.9923e-06 -2.2188e-06 -5.547e-07 0 0 -9.88702e-07 -3.95481e-06 -8.89831e-06 -1.58192e-05 -2.35807e-05 -3.10457e-05 -3.82144e-05 -4.50868e-05 -5.09418e-05 -5.50587e-05 -5.74373e-05 -5.80777e-05 -5.64136e-05 -5.18787e-05 -4.4473e-05 -3.41965e-05 -2.08589e-05 -4.26956e-06 1.55714e-05 3.86639e-05 6.48168e-05 9.38388e-05 0.00012573 0.00016049 0.000197661 0.000236783 0.000277857 0.000320883 0.000365367 0.000410813 0.000457223 0.000504596 0.000552621 0.000600986 0.000649691 0.000698737 0.000748049 0.000797556 0.000847256 0.000897149 0.000947254 0.000997586 0.00104815 0.00109893 0.00114981 0.00120063 0.00125139 0.0013021 0.00135229 0.00140149 0.0014497 0.00149692 0.0015424 0.00158538 0.00162585 0.00166383 0.00169852 0.00172911 0.00175562 0.00177805 0.00179587 0.0018086 0.00181621 0.00181873 0.00181614 0.00180844 0.00179564 0.00177774 0.00175524 0.00172866 0.00169799 0.00166324 0.00162519 0.00158466 0.00154162 0.00149609 0.00144882 0.00140056 0.00135132 0.0013011 0.00125035 0.00119956 0.00114872 0.00109783 0.00104703 0.000996462 0.000946129 0.00089603 0.000846148 0.000796465 0.000746982 0.000697699 0.000648688 0.000600022 0.000551702 0.000503728 0.00045641 0.000410058 0.000364673 0.000320255 0.000277296 0.000236289 0.000197234 0.000160131 0.000125437 9.3609e-05 6.4647e-05 3.85509e-05 1.55105e-05 -4.28408e-06 -2.0833e-05 -3.41361e-05 -4.43844e-05 -5.17686e-05 -5.62887e-05 -5.79448e-05 -5.73021e-05 -5.49262e-05 -5.0817e-05 -4.49745e-05 -3.81179e-05 -3.09663e-05 -2.35197e-05 -1.57781e-05 -8.8752e-06 -3.94454e-06 -9.86134e-07 0 0 -1.47568e-06 -5.90271e-06 -1.32811e-05 -2.36108e-05 -3.51648e-05 -4.62157e-05 -5.67638e-05 -6.68088e-05 -7.5265e-05 -8.10463e-05 -8.41528e-05 -8.45844e-05 -8.15105e-05 -7.41002e-05 -6.23535e-05 -4.62704e-05 -2.56046e-05 -1.09572e-07 3.02146e-05 6.5368e-05 0.000105016 0.000148826 0.000196796 0.000248927 0.000304493 0.000362768 0.000423754 0.000487449 0.000553098 0.000619944 0.000687988 0.000757229 0.00082721 0.000897474 0.00096802 0.00103885 0.00110988 0.00118103 0.00125229 0.00132368 0.00139524 0.00146706 0.00153911 0.00161142 0.00168379 0.00175609 0.00182829 0.0019004 0.00197178 0.00204176 0.00211036 0.00217757 0.00224232 0.00230352 0.00236118 0.00241531 0.00246475 0.00250838 0.00254618 0.00257817 0.0026036 0.00262175 0.00263262 0.00263621 0.00263251 0.00262153 0.00260327 0.00257773 0.00254564 0.00250773 0.002464 0.00241446 0.00236024 0.00230249 0.0022412 0.00217638 0.0021091 0.00204043 0.00197038 0.00189895 0.00182679 0.00175454 0.00168222 0.00160981 0.00153748 0.00146542 0.0013936 0.00132204 0.00125066 0.00117942 0.0011083 0.00103731 0.000966531 0.00089604 0.00082584 0.000755931 0.000686768 0.000618809 0.000552052 0.000486498 0.000422901 0.000362014 0.000303838 0.000248373 0.000196341 0.000148465 0.000104746 6.51833e-05 3.01089e-05 -1.4504e-07 -2.55785e-05 -4.61914e-05 -6.22309e-05 -7.39441e-05 -8.1331e-05 -8.43916e-05 -8.39554e-05 -8.08519e-05 -7.50811e-05 -6.6643e-05 -5.66208e-05 -4.60979e-05 -3.50742e-05 -2.35497e-05 -1.32467e-05 -5.88743e-06 -1.47186e-06 0 0 -1.9479e-06 -7.7916e-06 -1.75311e-05 -3.11664e-05 -4.63364e-05 -6.06801e-05 -7.41973e-05 -8.68882e-05 -9.72926e-05 -0.000103951 -0.000106862 -0.000106027 -0.000100388 -8.88858e-05 -7.15218e-05 -4.82955e-05 -1.89829e-05 1.66399e-05 5.85731e-05 0.000106816 0.000160798 0.000219947 0.000284263 0.000353745 0.000427327 0.000503941 0.000583587 0.000666264 0.000750926 0.000836524 0.000923059 0.00101053 0.00109836 0.00118595 0.00127331 0.00136045 0.00144731 0.00153388 0.00162015 0.00170611 0.00179196 0.00187788 0.00196387 0.00204993 0.00213595 0.00222184 0.00230759 0.0023932 0.00247794 0.00256108 0.00264263 0.00272259 0.00279966 0.00287257 0.00294132 0.0030059 0.00306494 0.00311705 0.00316223 0.00320048 0.00323091 0.00325263 0.00326563 0.00326992 0.0032655 0.00325236 0.00323052 0.00319996 0.00316158 0.00311628 0.00306405 0.00300489 0.0029402 0.00287134 0.00279832 0.00272115 0.0026411 0.00255946 0.00247623 0.00239142 0.00230574 0.00221993 0.00213399 0.00204792 0.00196183 0.00187582 0.00178988 0.00170403 0.00161807 0.00153182 0.00144528 0.00135845 0.00127137 0.00118407 0.00109655 0.00100881 0.000921436 0.000835004 0.000749517 0.000664975 0.000582422 0.000502903 0.000426419 0.000352969 0.000283616 0.000219426 0.000160397 0.00010653 5.83934e-05 1.65561e-05 -1.8982e-05 -4.82209e-05 -7.13858e-05 -8.87019e-05 -0.000100169 -0.000105787 -0.000106613 -0.000103703 -9.70564e-05 -8.66738e-05 -7.40116e-05 -6.05263e-05 -4.62178e-05 -3.10862e-05 -1.7486e-05 -7.77156e-06 -1.94289e-06 0 0 -2.40537e-06 -9.6215e-06 -2.16484e-05 -3.8486e-05 -5.70957e-05 -7.44387e-05 -9.05151e-05 -0.000105325 -0.000117025 -0.000123771 -0.000125565 -0.000122405 -0.000113045 -9.62356e-05 -7.19779e-05 -4.02717e-05 -9.93805e-07 4.5979e-05 0.000100647 0.000163009 0.000232163 0.000307204 0.000388132 0.000474947 0.000566165 0.000660301 0.000757355 0.000857328 0.00095885 0.00106055 0.00116244 0.0012645 0.00136606 0.00146641 0.00156557 0.00166353 0.00176036 0.00185612 0.00195082 0.00204446 0.00213741 0.00223007 0.00232242 0.00241448 0.00250628 0.00259788 0.00268928 0.00278048 0.00287077 0.00295945 0.00304652 0.00313197 0.00321444 0.00329253 0.00336626 0.00343562 0.00349908 0.00355513 0.00360376 0.00364498 0.0036778 0.00370121 0.00371524 0.00371987 0.0037151 0.00370094 0.00367738 0.00364443 0.00360308 0.00355431 0.00349813 0.00343454 0.00336505 0.0032912 0.00321299 0.0031304 0.00304484 0.00295766 0.00286888 0.00277849 0.0026872 0.00259572 0.00250404 0.00241217 0.00232006 0.00222766 0.00213498 0.002042 0.00194836 0.00185366 0.00175792 0.00166112 0.00156321 0.00146412 0.00136384 0.00126237 0.00116041 0.00105864 0.000957068 0.000855684 0.000755859 0.000658956 0.000564975 0.000473918 0.000387262 0.00030649 0.000231599 0.000162591 0.000100364 4.58195e-05 -1.04349e-06 -4.02247e-05 -7.18492e-05 -9.6042e-05 -0.000112803 -0.000122132 -0.000125275 -0.000123479 -0.000116743 -0.000105067 -9.02903e-05 -7.42515e-05 -5.69506e-05 -3.83878e-05 -2.15931e-05 -9.59694e-06 -2.39924e-06 0 0 -2.8481e-06 -1.13924e-05 -2.56329e-05 -4.55695e-05 -6.74425e-05 -8.74916e-05 -0.000105717 -0.000122119 -0.000134461 -0.000140509 -0.000140261 -0.000133719 -0.000119482 -9.61496e-05 -6.3722e-05 -2.21992e-05 2.83627e-05 8.79076e-05 0.000156435 0.000233946 0.00031911 0.000410595 0.000508402 0.00061253 0.000721005 0.000831848 0.00094506 0.00106064 0.00117687 0.00129203 0.00140612 0.00151914 0.00163032 0.00173887 0.0018448 0.0019481 0.00204901 0.00214775 0.00224432 0.00233871 0.00243159 0.0025236 0.00261476 0.00270505 0.00279478 0.00288422 0.00297338 0.00306226 0.00315028 0.00323687 0.00332202 0.00340573 0.00348665 0.00356341 0.00363601 0.00370445 0.00376717 0.00382262 0.00387079 0.00391168 0.00394426 0.00396752 0.00398145 0.00398604 0.00398131 0.00396725 0.00394387 0.00391115 0.00387013 0.00382183 0.00376625 0.00370339 0.00363481 0.00356208 0.00348519 0.00340414 0.0033203 0.00323503 0.00314832 0.00306018 0.00297119 0.00288192 0.00279238 0.00270256 0.00261218 0.00252096 0.00242888 0.00233596 0.00224153 0.00214495 0.00204621 0.00194532 0.00184205 0.00173617 0.00162769 0.00151661 0.00140369 0.00128973 0.0011747 0.00105863 0.000943211 0.000830171 0.000719507 0.00061122 0.00050728 0.000409657 0.000318352 0.000233365 0.000156021 8.7645e-05 2.8237e-05 -2.22029e-05 -6.36212e-05 -9.59644e-05 -0.000119233 -0.000133426 -0.000139942 -0.000140181 -0.000134141 -0.000121823 -0.000105457 -8.72735e-05 -6.72727e-05 -4.54543e-05 -2.5568e-05 -1.13636e-05 -2.84089e-06 0 0 -3.23168e-06 -1.29267e-05 -2.90851e-05 -5.17068e-05 -7.63063e-05 -9.83979e-05 -0.000117982 -0.000135057 -0.000147017 -0.00015125 -0.000147759 -0.000136542 -0.000116125 -8.50348e-05 -4.32709e-05 9.16654e-06 7.1924e-05 0.000144648 0.000227338 0.000319994 0.000420743 0.000527708 0.000640891 0.000760291 0.000883369 0.00100759 0.00113294 0.00125944 0.001385 0.00150755 0.00162709 0.00174363 0.00185635 0.00196445 0.00206791 0.00216675 0.00226142 0.00235239 0.00243966 0.00252322 0.00260411 0.00268332 0.00276087 0.00283676 0.00291161 0.00298609 0.00306018 0.00313389 0.00320692 0.00327896 0.00335002 0.00342009 0.00348803 0.00355268 0.00361403 0.00367209 0.00372545 0.00377269 0.00381382 0.00384883 0.00387678 0.00389673 0.00390868 0.00391263 0.00390858 0.00389652 0.00387646 0.0038484 0.00381328 0.00377204 0.00372468 0.0036712 0.00361301 0.00355153 0.00348675 0.00341868 0.00334846 0.00327727 0.00320509 0.00313192 0.00305808 0.00298385 0.00290925 0.00283426 0.00275826 0.00268061 0.0026013 0.00252034 0.00243671 0.00234939 0.00225839 0.00216371 0.00206488 0.00196144 0.0018534 0.00174076 0.00162432 0.00150489 0.00138247 0.00125707 0.00113075 0.00100558 0.000881555 0.000758684 0.000639496 0.000526523 0.000419765 0.000319221 0.000226761 0.000144251 7.16911e-05 9.08215e-06 -4.32263e-05 -8.48843e-05 -0.000115892 -0.000136249 -0.000147428 -0.000150902 -0.000146671 -0.000134734 -0.000117694 -9.81552e-05 -7.61162e-05 -5.15774e-05 -2.90123e-05 -1.28944e-05 -3.22359e-06 0 0 -3.51172e-06 -1.40469e-05 -3.16055e-05 -5.61875e-05 -8.26166e-05 -0.000105716 -0.000125487 -0.000141928 -0.000152105 -0.000153084 -0.000144864 -0.000127445 -9.93991e-05 -5.92981e-05 -7.14179e-06 5.70698e-05 0.000132527 0.000218422 0.000314753 0.00042152 0.000536166 0.000656131 0.000781416 0.000912021 0.00104478 0.00117652 0.00130724 0.00143694 0.00156323 0.0016837 0.00179834 0.00190716 0.00200939 0.00210429 0.00219185 0.00227206 0.00234574 0.00241368 0.00247589 0.00253236 0.00258458 0.00263404 0.00268074 0.00272467 0.00276696 0.00280873 0.00284999 0.00289072 0.00293112 0.00297134 0.0030114 0.00305129 0.00309033 0.00312784 0.00316381 0.00319824 0.00323014 0.00325852 0.00328338 0.00330471 0.00332183 0.00333405 0.00334137 0.0033438 0.00334133 0.00333395 0.00332167 0.0033045 0.0032831 0.00325817 0.00322971 0.00319772 0.00316319 0.00312711 0.00308949 0.00305032 0.0030103 0.00297009 0.00292972 0.00288916 0.00284827 0.00280685 0.00276492 0.00272246 0.00267838 0.00263153 0.00258194 0.00252958 0.002473 0.00241069 0.00234268 0.00226894 0.00218869 0.00210113 0.00200625 0.00190406 0.00179531 0.00168076 0.00156041 0.00143427 0.00130474 0.0011742 0.00104266 0.000910118 0.000779739 0.00065468 0.000534942 0.000420525 0.000313979 0.000217854 0.000132151 5.68679e-05 -7.1894e-06 -5.92169e-05 -9.92148e-05 -0.000127183 -0.000144548 -0.000152739 -0.000151754 -0.000141594 -0.000125186 -0.000105459 -8.24137e-05 -5.60489e-05 -3.15275e-05 -1.40122e-05 -3.50305e-06 0 0 -3.68823e-06 -1.47529e-05 -3.31941e-05 -5.90117e-05 -8.63735e-05 -0.000109447 -0.000128233 -0.000142731 -0.000149727 -0.000146009 -0.000131576 -0.000106429 -6.93045e-05 -1.89396e-05 4.46654e-05 0.000121511 0.000210173 0.000309229 0.000418679 0.000538524 0.000665379 0.000795864 0.000929978 0.00106772 0.00120523 0.00133864 0.00146795 0.00159317 0.00171158 0.00182047 0.00191985 0.00200971 0.00208943 0.00215839 0.0022166 0.00226403 0.00230196 0.00233161 0.002353 0.00236611 0.00237302 0.00237577 0.00237436 0.00236879 0.00236081 0.00235214 0.00234279 0.00233276 0.00232289 0.00231403 0.00230618 0.00229934 0.00229356 0.00228889 0.00228533 0.00228289 0.00228125 0.0022801 0.00227946 0.00227931 0.0022794 0.00227947 0.00227952 0.00227955 0.00227956 0.00227954 0.0022795 0.00227943 0.00227958 0.00228022 0.00228135 0.00228295 0.00228535 0.00228883 0.00229341 0.00229908 0.0023058 0.00231351 0.00232221 0.00233191 0.00234175 0.00235091 0.00235938 0.00236716 0.00237252 0.00237373 0.00237079 0.0023637 0.0023504 0.00232886 0.00229907 0.00226103 0.00221349 0.00215523 0.00208623 0.0020065 0.00191666 0.00181734 0.00170853 0.00159024 0.00146518 0.00133603 0.00120281 0.00106552 0.000928007 0.000794129 0.000663886 0.000537278 0.000417677 0.000308456 0.000209615 0.000121154 4.44895e-05 -1.89623e-05 -6.92012e-05 -0.000106227 -0.000131303 -0.00014569 -0.00014939 -0.000142402 -0.000127932 -0.000109186 -8.61651e-05 -5.88686e-05 -3.31136e-05 -1.47171e-05 -3.67929e-06 0 0 -3.76121e-06 -1.50448e-05 -3.38509e-05 -6.01793e-05 -8.7577e-05 -0.000109591 -0.00012622 -0.000137465 -0.000139882 -0.000130026 -0.000107897 -7.34942e-05 -2.5841e-05 3.60406e-05 0.000112151 0.000202489 0.000304861 0.00041707 0.000539118 0.000671005 0.000808383 0.000946907 0.00108658 0.00122739 0.00136473 0.00149396 0.00161509 0.00172811 0.00183003 0.00191787 0.00199163 0.00205129 0.00209647 0.00212676 0.00214216 0.00214267 0.00213008 0.00210619 0.00207099 0.00202449 0.00196941 0.00190849 0.00184173 0.00176913 0.00169317 0.00161632 0.0015386 0.00146 0.00138223 0.00130701 0.00123434 0.00116422 0.0010977 0.00103583 0.000978611 0.00092604 0.000878768 0.000837444 0.000802067 0.000772639 0.000749501 0.000732997 0.000723125 0.000719887 0.000723277 0.000733292 0.000749931 0.000773194 0.000802732 0.000838194 0.000879581 0.000926893 0.000979477 0.00103668 0.00109851 0.00116495 0.00123497 0.0013075 0.00138256 0.00146015 0.00153854 0.00161604 0.00169265 0.00176836 0.0018407 0.0019072 0.00196786 0.00202267 0.00206893 0.00210389 0.00212757 0.00213996 0.00213928 0.00212374 0.00209334 0.00204809 0.00198838 0.00191463 0.00182683 0.00172498 0.00161207 0.00149108 0.00136203 0.00122489 0.0010843 0.00094487 0.000806596 0.000669479 0.000537854 0.000416056 0.000304085 0.000201941 0.00011181 3.58796e-05 -2.58513e-05 -7.33822e-05 -0.000107691 -0.000129757 -0.00013958 -0.000137159 -0.000125931 -0.000109335 -8.73705e-05 -6.00366e-05 -3.37706e-05 -1.50092e-05 -3.75229e-06 0 0 -3.69161e-06 -1.47664e-05 -3.32245e-05 -5.90658e-05 -8.53068e-05 -0.000104964 -0.000118037 -0.000124527 -0.000120846 -0.000103409 -7.22144e-05 -2.7263e-05 3.19809e-05 0.000106053 0.000194953 0.000298682 0.000414102 0.000538079 0.000670612 0.0008117 0.000955925 0.00109786 0.00123752 0.00137489 0.00150459 0.00162122 0.0017248 0.00181532 0.0018896 0.00194448 0.00197995 0.00199601 0.00199262 0.00196972 0.00192731 0.00186539 0.0017864 0.00169276 0.00158447 0.00146153 0.0013274 0.00118553 0.00103591 0.000878542 0.000716724 0.000553741 0.000389593 0.000224281 6.05541e-05 -9.88352e-05 -0.000253887 -0.000404602 -0.000548636 -0.000683645 -0.000809629 -0.000926588 -0.00103258 -0.00112567 -0.00120585 -0.00127313 -0.00132634 -0.00136429 -0.00138701 -0.00139448 -0.00138671 -0.00136371 -0.00132548 -0.00127202 -0.00120451 -0.00112412 -0.00103086 -0.000924733 -0.000807675 -0.000681635 -0.000546613 -0.000402609 -0.000251965 -9.70244e-05 6.22137e-05 0.000225749 0.000390837 0.000554734 0.000717439 0.000878952 0.00103599 0.00118529 0.00132683 0.00146062 0.00158322 0.00169118 0.00178452 0.00186322 0.00192487 0.00196705 0.00198975 0.00199299 0.00197681 0.00194126 0.00188635 0.00181209 0.00172162 0.00161814 0.00150164 0.00137212 0.00123496 0.00109553 0.00095384 0.000809881 0.000669065 0.000536798 0.000413079 0.000297909 0.000194414 0.000105719 3.18228e-05 -2.72734e-05 -7.21074e-05 -0.000103217 -0.000120602 -0.000124263 -0.000117778 -0.000104728 -8.51119e-05 -5.89299e-05 -3.31481e-05 -1.47325e-05 -3.68312e-06 0 0 -3.4404e-06 -1.37616e-05 -3.09636e-05 -5.50464e-05 -7.86429e-05 -9.43857e-05 -0.000102275 -0.000102311 -9.08952e-05 -6.44313e-05 -2.2919e-05 3.36417e-05 0.000105151 0.000191508 0.000292712 0.000408765 0.000535409 0.000668388 0.000807701 0.000953349 0.00109875 0.00123734 0.00136911 0.00149407 0.00160612 0.00169918 0.00177326 0.00182836 0.00186129 0.00186887 0.0018511 0.00180797 0.00173998 0.00164759 0.0015308 0.00138962 0.00122719 0.00104666 0.000848028 0.000631297 0.000400623 0.000160165 -9.00786e-05 -0.000350107 -0.000615825 -0.000883139 -0.00115205 -0.00142255 -0.00169073 -0.00195264 -0.00220829 -0.00245769 -0.00269686 -0.00292185 -0.00313266 -0.00332928 -0.00350809 -0.00366545 -0.00380136 -0.00391583 -0.00400657 -0.00407132 -0.00411008 -0.00412283 -0.00410961 -0.0040704 -0.00400521 -0.00391405 -0.00379919 -0.00366293 -0.00350527 -0.0033262 -0.00312937 -0.00291842 -0.00269334 -0.00245413 -0.00220476 -0.00194919 -0.00168741 -0.00141942 -0.00114915 -0.000880519 -0.00061352 -0.000348156 -8.85107e-05 0.000161334 0.000401378 0.000631622 0.000847921 0.00104613 0.00122625 0.00138828 0.00152909 0.00164554 0.00173763 0.00180536 0.00184826 0.00186586 0.00185816 0.00182517 0.00177005 0.001696 0.00160302 0.0014911 0.00136632 0.00123475 0.00109639 0.00095124 0.000805864 0.000666823 0.000534114 0.000407739 0.000291941 0.000190964 0.000104809 3.34735e-05 -2.2944e-05 -6.43477e-05 -9.07374e-05 -0.000102113 -0.000102066 -9.4185e-05 -7.84717e-05 -5.49254e-05 -3.08955e-05 -1.37314e-05 -3.43284e-06 0 0 -3.00758e-06 -1.20303e-05 -2.70682e-05 -4.81213e-05 -6.75852e-05 -7.78556e-05 -7.89324e-05 -7.08158e-05 -5.00285e-05 -1.30934e-05 3.99894e-05 0.00010922 0.000193668 0.000292404 0.000405428 0.00053274 0.000668782 0.000807998 0.000950387 0.00109595 0.00123687 0.00136534 0.00148136 0.00158492 0.00166932 0.00172784 0.00176048 0.00176723 0.00174509 0.00169103 0.00160506 0.00148718 0.00133855 0.00116038 0.000952643 0.000715353 0.000452453 0.000167891 -0.000138334 -0.000466222 -0.000810923 -0.00116759 -0.00153622 -0.00191682 -0.00230448 -0.00269432 -0.00308633 -0.00348051 -0.00387161 -0.0042544 -0.00462888 -0.00499503 -0.00534697 -0.00567878 -0.00599047 -0.00628203 -0.00654775 -0.00678189 -0.00698446 -0.00715545 -0.00729121 -0.00738809 -0.00744608 -0.00746518 -0.0074454 -0.00738676 -0.00728925 -0.00715288 -0.00698131 -0.00677823 -0.00654363 -0.00627752 -0.00598562 -0.00567367 -0.00534167 -0.00498962 -0.00462342 -0.00424898 -0.0038663 -0.00347537 -0.00308143 -0.00268971 -0.00230023 -0.00191297 -0.00153281 -0.00116465 -0.000808486 -0.000464309 -0.000136957 0.000168738 0.000452775 0.000715155 0.000951946 0.00115922 0.00133697 0.0014852 0.00160274 0.00168842 0.00174225 0.00176422 0.00175735 0.00172466 0.00166615 0.00158182 0.00147837 0.00136251 0.00123424 0.00109355 0.000948252 0.000806132 0.000667191 0.000531431 0.000404392 0.000291617 0.000193106 0.000108858 3.97987e-05 -1.31493e-05 -4.99854e-05 -7.07096e-05 -7.87929e-05 -7.77063e-05 -6.74497e-05 -4.80231e-05 -2.7013e-05 -1.20058e-05 -3.00144e-06 0 0 -2.39315e-06 -9.5726e-06 -2.15383e-05 -3.82904e-05 -5.21338e-05 -5.53737e-05 -4.801e-05 -3.00428e-05 1.75356e-06 5.06048e-05 0.000116511 0.000199472 0.000297534 0.000408744 0.000533101 0.000670606 0.000814221 0.000956908 0.00109867 0.0012395 0.00137028 0.00148186 0.00157426 0.00164746 0.0016942 0.00170719 0.00168644 0.00163193 0.001541 0.00141098 0.00124185 0.00103362 0.000788341 0.000508079 0.000192828 -0.00015741 -0.00053781 -0.000943546 -0.00137462 -0.00183102 -0.00230724 -0.00279774 -0.00330252 -0.00382159 -0.00434924 -0.00487979 -0.00541324 -0.00594957 -0.0064821 -0.00700413 -0.00751564 -0.00801664 -0.00849897 -0.00895444 -0.00938307 -0.00978485 -0.0101516 -0.010475 -0.0107551 -0.010992 -0.0111803 -0.0113146 -0.011395 -0.0114215 -0.0113941 -0.0113128 -0.0111776 -0.0109885 -0.0107509 -0.01047 -0.010146 -0.00977867 -0.00937641 -0.00894738 -0.0084916 -0.00800907 -0.00750795 -0.00699641 -0.00647446 -0.00594209 -0.00540599 -0.00487285 -0.00434268 -0.00381548 -0.00329692 -0.00279268 -0.00230277 -0.00182718 -0.00137142 -0.000940997 -0.000535914 -0.00015617 0.000193429 0.000508075 0.000787767 0.00103251 0.00124025 0.00140896 0.00153862 0.00162925 0.00168353 0.00170412 0.00169104 0.00164429 0.00157113 0.00147883 0.00136739 0.00123682 0.00109623 0.000954725 0.000812309 0.000668984 0.000531766 0.000407677 0.000296715 0.000198881 0.000116121 5.03782e-05 1.65387e-06 -3.00522e-05 -4.79606e-05 -5.52919e-05 -5.2046e-05 -3.8223e-05 -2.15005e-05 -9.55576e-06 -2.38894e-06 0 0 -1.57598e-06 -6.30391e-06 -1.41838e-05 -2.52156e-05 -3.18201e-05 -2.64179e-05 -9.00904e-06 2.04065e-05 6.46281e-05 0.000126455 0.000205888 0.000302926 0.000414385 0.000537081 0.000671014 0.000816184 0.000963939 0.00110562 0.00124124 0.00137079 0.00148386 0.00157001 0.00162926 0.0016616 0.0016594 0.00161504 0.00152852 0.00139984 0.00122697 0.00100787 0.000742553 0.000431014 7.64103e-05 -0.000318103 -0.000752525 -0.00122686 -0.00173539 -0.0022724 -0.00283791 -0.0034319 -0.00404838 -0.00468133 -0.00533074 -0.00599664 -0.00667272 -0.00735272 -0.00803664 -0.00872448 -0.0094081 -0.0100794 -0.0107383 -0.0113848 -0.0120084 -0.0125982 -0.0131542 -0.0136765 -0.014154 -0.0145755 -0.014941 -0.0152506 -0.0154969 -0.0156727 -0.0157779 -0.0158126 -0.0157767 -0.0156704 -0.0154935 -0.0152461 -0.0149356 -0.0145691 -0.0141468 -0.0136686 -0.0131456 -0.012589 -0.0119988 -0.011375 -0.0107282 -0.0100692 -0.00939792 -0.00871443 -0.00802681 -0.00734321 -0.00666361 -0.00598801 -0.00532268 -0.00467387 -0.00404159 -0.00342584 -0.0028326 -0.00226786 -0.00173163 -0.00122389 -0.000750346 -0.000316678 7.71111e-05 0.000431022 0.000741917 0.00100666 0.00122524 0.00139768 0.00152599 0.00161222 0.00165638 0.00165845 0.00162607 0.00156684 0.00148077 0.00136786 0.00123852 0.00110313 0.000961701 0.000814234 0.00066936 0.000535708 0.00041328 0.000302075 0.000205267 0.000126028 6.43576e-05 2.02567e-05 -9.07071e-06 -2.64206e-05 -3.1793e-05 -2.51879e-05 -1.41682e-05 -6.29696e-06 -1.57424e-06 0 0 -5.34936e-07 -2.13974e-06 -4.81442e-06 -8.55897e-06 -6.1755e-06 9.53387e-06 3.85692e-05 8.09303e-05 0.000138772 0.000214249 0.000307362 0.00041811 0.000541859 0.000673973 0.000814452 0.000963297 0.00111015 0.00124465 0.00136681 0.00147661 0.0015625 0.0016129 0.00162781 0.00160723 0.00154356 0.00142919 0.00126411 0.00104833 0.000780904 0.000460888 8.8282e-05 -0.000336913 -0.000810171 -0.00132697 -0.0018873 -0.00249117 -0.00313206 -0.00380344 -0.00450531 -0.00523767 -0.00599441 -0.00676941 -0.00756266 -0.00837418 -0.00919752 -0.0100263 -0.0108604 -0.0116999 -0.0125355 -0.0133577 -0.0141665 -0.014962 -0.0157307 -0.0164592 -0.0171476 -0.0177959 -0.0183896 -0.0189142 -0.0193698 -0.0197564 -0.0200643 -0.0202841 -0.0204157 -0.0204591 -0.0204143 -0.0202813 -0.0200602 -0.019751 -0.0193631 -0.0189064 -0.0183807 -0.0177861 -0.0171371 -0.016448 -0.0157189 -0.0149497 -0.014154 -0.013345 -0.0125227 -0.0116872 -0.0108479 -0.0100141 -0.00918572 -0.00836288 -0.00755196 -0.00675937 -0.0059851 -0.00522917 -0.00449765 -0.00379666 -0.00312618 -0.00248622 -0.00188327 -0.00132384 -0.000807922 -0.000335518 8.88684e-05 0.000460734 0.000780078 0.0010469 0.00126216 0.00142681 0.00154084 0.00160426 0.00162468 0.00160969 0.00155929 0.00147349 0.00136383 0.00124187 0.0011076 0.00096102 0.000812468 0.000672276 0.000540445 0.000416973 0.000306482 0.000213592 0.000138303 8.06149e-05 3.83745e-05 9.42847e-06 -6.22308e-06 -8.5802e-06 -4.82636e-06 -2.14505e-06 -5.36262e-07 0 0 7.29974e-07 2.91989e-06 6.56976e-06 1.16796e-05 2.48e-05 5.24817e-05 9.47246e-05 0.000151529 0.000224186 0.000313988 0.000420934 0.000545026 0.000679956 0.000819419 0.000963415 0.00111194 0.00125285 0.00137399 0.00147536 0.00155696 0.00160621 0.00161052 0.00156992 0.00148438 0.00134669 0.00114964 0.000893207 0.000577407 0.00020282 -0.000229971 -0.000720966 -0.00127017 -0.0018714 -0.00251852 -0.0032115 -0.00395036 -0.00472783 -0.00553665 -0.00637681 -0.00724832 -0.00814533 -0.00906198 -0.00999827 -0.0109542 -0.0119237 -0.0129004 -0.0138845 -0.014876 -0.0158643 -0.0168391 -0.0178003 -0.0187481 -0.0196659 -0.0205377 -0.0213634 -0.0221429 -0.0228582 -0.023491 -0.0240414 -0.0245093 -0.0248826 -0.025149 -0.0253084 -0.025361 -0.0253068 -0.0251457 -0.0248777 -0.0245029 -0.0240336 -0.0234818 -0.0228478 -0.0221314 -0.0213508 -0.0205243 -0.0196518 -0.0187334 -0.0177853 -0.0168237 -0.0158488 -0.0148605 -0.0138692 -0.0128854 -0.011909 -0.0109401 -0.00998476 -0.00904916 -0.00813329 -0.00723715 -0.00636657 -0.00552737 -0.00471957 -0.00394314 -0.00320535 -0.00251341 -0.00186733 -0.00126711 -0.000718897 -0.000228816 0.000203128 0.000576935 0.000892038 0.00114787 0.00134443 0.00148173 0.00156697 0.00160738 0.00160296 0.00155371 0.00147218 0.00137095 0.00125 0.00110934 0.000961091 0.000817381 0.000678208 0.000543574 0.000419766 0.000313071 0.00022349 0.000151022 9.43749e-05 5.22554e-05 2.46638e-05 1.15999e-05 6.52496e-06 2.89998e-06 7.24995e-07 0 0 2.21875e-06 8.875e-06 1.99688e-05 3.55e-05 6.11064e-05 0.000102425 0.000159457 0.000232202 0.000320869 0.00042567 0.000546604 0.000683671 0.000828675 0.000973419 0.0011179 0.00126212 0.00139205 0.00149364 0.0015669 0.00161183 0.00161498 0.00156289 0.00145558 0.00129303 0.00106879 0.000776379 0.000415806 -1.29331e-05 -0.000507287 -0.00106471 -0.00168519 -0.00236874 -0.00310729 -0.00389275 -0.00472513 -0.00560442 -0.0065227 -0.00747204 -0.00845242 -0.00946385 -0.0105011 -0.011559 -0.0126376 -0.0137367 -0.0148511 -0.0159752 -0.017109 -0.0182525 -0.0193945 -0.0205236 -0.0216398 -0.0227431 -0.0238141 -0.0248336 -0.0258014 -0.0267176 -0.02756 -0.028306 -0.0289559 -0.0295095 -0.0299516 -0.0302672 -0.0304561 -0.0305185 -0.0304542 -0.0302634 -0.029946 -0.0295021 -0.0289468 -0.0282954 -0.0275479 -0.0267043 -0.0257869 -0.024818 -0.0237977 -0.022726 -0.0216221 -0.0205056 -0.0193763 -0.0182343 -0.0170908 -0.0159572 -0.0148335 -0.0137196 -0.0126211 -0.0115432 -0.0104862 -0.00944979 -0.00843935 -0.00746002 -0.00651179 -0.00559467 -0.00471657 -0.00388538 -0.00310112 -0.00236377 -0.00168138 -0.00106199 -0.000505608 -1.22271e