<?xml version="1.0"?> 
<VTKFile type="StructuredGrid" version="0.1"> 
<StructuredGrid WholeExtent="0 128 0 128 0 0"> 
<Piece Extent="0 128 0 128 0 0"> 
<PointData>
<DataArray type="Float32" Name="u" format="ascii" NumberOfComponents="1"> 
0 0 0 0 0 0 0 0 0 0 0 0 0 0 0 0 0 0 0 0 0 0 0 0 0 0 0 0 0 0 0 0 0 0 0 0 0 0 0 0 0 0 0 0 0 0 0 0 0 0 0 0 0 0 0 0 0 0 0 0 0 0 0 0 0 0 0 0 0 0 0 0 0 0 0 0 0 0 0 0 0 0 0 0 0 0 0 0 0 0 0 0 0 0 0 0 0 0 0 0 0 0 0 0 0 0 0 0 0 0 0 0 0 0 0 0 0 0 0 0 0 0 0 0 0 0 0 0 0 0 -1.94642e-07 -7.78569e-07 -1.75178e-06 -3.11428e-06 -4.88157e-06 -7.06918e-06 -9.6771e-06 -1.27053e-05 -1.61526e-05 -2.00176e-05 -2.43003e-05 -2.90008e-05 -3.40656e-05 -3.94416e-05 -4.51286e-05 -5.11267e-05 -5.7376e-05 -6.38166e-05 -7.04486e-05 -7.7272e-05 -8.42252e-05 -9.1247e-05 -9.83373e-05 -0.000105496 -0.000112662 -0.000119774 -0.000126831 -0.000133834 -0.000140725 -0.000147449 -0.000154004 -0.000160391 -0.000166565 -0.00017248 -0.000178137 -0.000183535 -0.000188648 -0.000193449 -0.000197938 -0.000202116 -0.000205978 -0.000209521 -0.000212745 -0.00021565 -0.000218255 -0.000220578 -0.000222619 -0.000224379 -0.000225892 -0.000227193 -0.000228282 -0.00022916 -0.000229867 -0.000230446 -0.000230896 -0.000231217 -0.000231446 -0.000231618 -0.000231734 -0.000231793 -0.000231817 -0.000231826 -0.00023182 -0.000231799 -0.000231764 -0.000231713 -0.000231647 -0.000231566 -0.000231447 -0.000231271 -0.000231037 -0.000230745 -0.000230359 -0.000229842 -0.000229195 -0.000228417 -0.000227467 -0.000226305 -0.00022493 -0.000223343 -0.000221508 -0.000219393 -0.000216997 -0.00021432 -0.000211344 -0.000208053 -0.000204445 -0.000200521 -0.000196286 -0.000191745 -0.000186898 -0.000181744 -0.000176311 -0.000170627 -0.000164692 -0.000158505 -0.000152112 -0.000145559 -0.000138847 -0.000131975 -0.000124999 -0.000117977 -0.000110909 -0.000103794 -9.66938e-05 -8.96685e-05 -8.27182e-05 -7.5843e-05 -6.91029e-05 -6.25579e-05 -5.62082e-05 -5.00536e-05 -4.41522e-05 -3.85618e-05 -3.32825e-05 -2.83142e-05 -2.37079e-05 -1.95145e-05 -1.57341e-05 -1.23666e-05 -9.41187e-06 -6.86957e-06 -4.73972e-06 -3.02233e-06 -1.70006e-06 -7.55582e-07 -1.88896e-07 0 0 -7.78569e-07 -3.11428e-06 -7.00712e-06 -1.24571e-05 -1.95263e-05 -2.82767e-05 -3.87084e-05 -5.08213e-05 -6.46103e-05 -8.00703e-05 -9.72012e-05 -0.000116003 -0.000136263 -0.000157766 -0.000180514 -0.000204507 -0.000229504 -0.000255267 -0.000281795 -0.000309088 -0.000336901 -0.000364988 -0.000393349 -0.000421985 -0.000450648 -0.000479094 -0.000507323 -0.000535334 -0.000562901 -0.000589795 -0.000616016 -0.000641565 -0.00066626 -0.000689921 -0.000712547 -0.000734139 -0.00075459 -0.000773794 -0.000791752 -0.000808462 -0.000823911 -0.000838084 -0.00085098 -0.000862601 -0.00087302 -0.000882312 -0.000890477 -0.000897515 -0.000903566 -0.000908771 -0.000913128 -0.00091664 -0.00091947 -0.000921785 -0.000923585 -0.000924869 -0.000925783 -0.000926472 -0.000926935 -0.000927172 -0.000927267 -0.000927303 -0.00092728 -0.000927198 -0.000927056 -0.000926853 -0.000926588 -0.000926262 -0.000925789 -0.000925085 -0.000924149 -0.00092298 -0.000921435 -0.000919368 -0.000916778 -0.000913666 -0.000909868 -0.000905219 -0.00089972 -0.000893371 -0.000886034 -0.000877573 -0.000867988 -0.00085728 -0.000845377 -0.00083221 -0.00081778 -0.000802085 -0.000785146 -0.000766981 -0.000747591 -0.000726976 -0.000705245 -0.000682508 -0.000658766 -0.000634018 -0.000608448 -0.000582238 -0.000555388 -0.000527898 -0.000499996 -0.000471908 -0.000443635 -0.000415177 -0.000386775 -0.000358674 -0.000330873 -0.000303372 -0.000276411 -0.000250232 -0.000224833 -0.000200215 -0.000176609 -0.000154247 -0.00013313 -0.000113257 -9.48314e-05 -7.8058e-05 -6.29364e-05 -4.94665e-05 -3.76475e-05 -2.74783e-05 -1.89589e-05 -1.20893e-05 -6.80024e-06 -3.02233e-06 -7.55582e-07 0 0 -1.75178e-06 -7.00712e-06 -1.5766e-05 -2.80285e-05 -4.39341e-05 -6.36226e-05 -8.70939e-05 -0.000114348 -0.000145373 -0.000180158 -0.000218703 -0.000261007 -0.000306591 -0.000354974 -0.000406157 -0.00046014 -0.000516384 -0.00057435 -0.000634038 -0.000695448 -0.000758027 -0.000821223 -0.000885036 -0.000949465 -0.00101396 -0.00107796 -0.00114148 -0.0012045 -0.00126653 -0.00132704 -0.00138604 -0.00144352 -0.00149909 -0.00155232 -0.00160323 -0.00165181 -0.00169783 -0.00174104 -0.00178144 -0.00181904 -0.0018538 -0.00188569 -0.00191471 -0.00194085 -0.00196429 -0.0019852 -0.00200357 -0.00201941 -0.00203302 -0.00204473 -0.00205454 -0.00206244 -0.00206881 -0.00207402 -0.00207807 -0.00208096 -0.00208301 -0.00208456 -0.0020856 -0.00208614 -0.00208635 -0.00208643 -0.00208638 -0.0020862 -0.00208588 -0.00208542 -0.00208482 -0.00208409 -0.00208303 -0.00208144 -0.00207933 -0.00207671 -0.00207323 -0.00206858 -0.00206275 -0.00205575 -0.0020472 -0.00203674 -0.00202437 -0.00201008 -0.00199358 -0.00197454 -0.00195297 -0.00192888 -0.0019021 -0.00187247 -0.00184 -0.00180469 -0.00176658 -0.00172571 -0.00168208 -0.0016357 -0.0015868 -0.00153564 -0.00148222 -0.00142654 -0.00136901 -0.00131004 -0.00124962 -0.00118777 -0.00112499 -0.00106179 -0.000998179 -0.000934147 -0.000870244 -0.000807016 -0.000744464 -0.000682587 -0.000621926 -0.000563021 -0.000505874 -0.000450483 -0.00039737 -0.000347056 -0.000299542 -0.000254827 -0.000213371 -0.000175631 -0.000141607 -0.0001113 -8.47069e-05 -6.18261e-05 -4.26575e-05 -2.7201e-05 -1.53005e-05 -6.80024e-06 -1.70006e-06 0 0 -3.11428e-06 -1.24571e-05 -2.80285e-05 -4.98284e-05 -7.81051e-05 -0.000113107 -0.000154834 -0.000203285 -0.000258441 -0.000320281 -0.000388805 -0.000464012 -0.00054505 -0.000631065 -0.000722058 -0.000818027 -0.000918016 -0.00102107 -0.00112718 -0.00123635 -0.0013476 -0.00145995 -0.0015734 -0.00168794 -0.00180259 -0.00191638 -0.00202929 -0.00214134 -0.0022516 -0.00235918 -0.00246406 -0.00256626 -0.00266504 -0.00275968 -0.00285019 -0.00293656 -0.00301836 -0.00309518 -0.00316701 -0.00323385 -0.00329564 -0.00335234 -0.00340392 -0.0034504 -0.00349208 -0.00352925 -0.00356191 -0.00359006 -0.00361426 -0.00363508 -0.00365251 -0.00366656 -0.00367788 -0.00368714 -0.00369434 -0.00369948 -0.00370313 -0.00370589 -0.00370774 -0.00370869 -0.00370907 -0.00370921 -0.00370912 -0.00370879 -0.00370822 -0.00370741 -0.00370635 -0.00370505 -0.00370316 -0.00370034 -0.00369659 -0.00369192 -0.00368574 -0.00367747 -0.00366711 -0.00365467 -0.00363947 -0.00362088 -0.00359888 -0.00357348 -0.00354414 -0.00351029 -0.00347195 -0.00342912 -0.00338151 -0.00332884 -0.00327112 -0.00320834 -0.00314058 -0.00306793 -0.00299036 -0.0029079 -0.00282098 -0.00273003 -0.00263506 -0.00253607 -0.00243379 -0.00232895 -0.00222155 -0.00211159 -0.00199998 -0.00188763 -0.00177454 -0.00166071 -0.0015471 -0.0014347 -0.00132349 -0.00121349 -0.00110565 -0.00100093 -0.000899331 -0.000800858 -0.000706435 -0.000616989 -0.000532519 -0.000453027 -0.000379326 -0.000312232 -0.000251746 -0.000197866 -0.00015059 -0.000109913 -7.58355e-05 -4.83573e-05 -2.7201e-05 -1.20893e-05 -3.02233e-06 0 0 -4.87814e-06 -1.95126e-05 -4.39033e-05 -7.80503e-05 -0.000122193 -0.00017657 -0.000241183 -0.00031603 -0.000401052 -0.00049619 -0.000601444 -0.000716814 -0.000840979 -0.000972619 -0.00111173 -0.00125833 -0.00141091 -0.00156802 -0.00172965 -0.00189579 -0.00206495 -0.00223559 -0.00240773 -0.00258136 -0.00275498 -0.00292707 -0.00309764 -0.00326669 -0.00343283 -0.00359468 -0.00375223 -0.00390549 -0.00405336 -0.00419476 -0.00432969 -0.00445814 -0.00457949 -0.00469313 -0.00479905 -0.00489725 -0.00498768 -0.00507029 -0.00514507 -0.00521203 -0.00527167 -0.00532447 -0.00537045 -0.0054096 -0.00544283 -0.00547102 -0.00549419 -0.00551233 -0.00552649 -0.00553772 -0.00554604 -0.00555142 -0.0055548 -0.00555707 -0.00555825 -0.00555834 -0.00555785 -0.00555731 -0.00555673 -0.00555609 -0.00555541 -0.00555466 -0.00555385 -0.00555297 -0.00555149 -0.00554888 -0.00554513 -0.00554024 -0.0055333 -0.00552338 -0.0055105 -0.00549464 -0.00547477 -0.00544985 -0.00541987 -0.00538483 -0.00534386 -0.00529608 -0.00524148 -0.00518008 -0.00511139 -0.00503494 -0.00495075 -0.0048588 -0.00475918 -0.00465197 -0.00453718 -0.00441479 -0.00428547 -0.00414984 -0.00400791 -0.00385969 -0.00370627 -0.00354875 -0.00338715 -0.00322145 -0.00305303 -0.0028833 -0.00271223 -0.00253984 -0.00236762 -0.00219705 -0.00202813 -0.00186086 -0.00169674 -0.00153722 -0.00138232 -0.00123204 -0.0010878 -0.000951041 -0.000821757 -0.00069995 -0.000586882 -0.000483814 -0.000390748 -0.000307682 -0.000234639 -0.00017164 -0.000118685 -7.57754e-05 -4.26237e-05 -1.89439e-05 -4.73596e-06 0 0 -7.05546e-06 -2.82219e-05 -6.34992e-05 -0.000112887 -0.000176351 -0.000253854 -0.000345396 -0.000450978 -0.000570443 -0.000703637 -0.000850557 -0.00101121 -0.00118371 -0.00136622 -0.00155871 -0.00176119 -0.00197159 -0.00218782 -0.00240988 -0.00263777 -0.00286937 -0.00310256 -0.00333733 -0.00357369 -0.00380953 -0.00404276 -0.00427339 -0.00450141 -0.00472491 -0.00494199 -0.00515266 -0.00535692 -0.00555329 -0.00574031 -0.005918 -0.00608633 -0.00624453 -0.00639182 -0.00652817 -0.00665361 -0.00676815 -0.00687182 -0.0069646 -0.00704652 -0.00711835 -0.0071809 -0.00723418 -0.00727818 -0.00731425 -0.00734376 -0.0073667 -0.00738307 -0.00739444 -0.00740234 -0.00740679 -0.00740778 -0.00740666 -0.00740475 -0.00740207 -0.0073986 -0.00739513 -0.0073924 -0.00739043 -0.00738921 -0.00738874 -0.00738899 -0.00738997 -0.00739169 -0.00739334 -0.00739416 -0.00739414 -0.00739327 -0.00739022 -0.00738365 -0.00737354 -0.0073599 -0.00734119 -0.00731587 -0.00728394 -0.00724539 -0.0071989 -0.00714315 -0.00707812 -0.00700383 -0.00691951 -0.0068244 -0.00671851 -0.00660183 -0.00647439 -0.00633619 -0.00618725 -0.00602756 -0.00585794 -0.00567922 -0.00549139 -0.00529446 -0.00508991 -0.00487921 -0.00466238 -0.0044394 -0.00421219 -0.00398265 -0.00375077 -0.00351655 -0.00328207 -0.0030494 -0.00281855 -0.00258951 -0.00236436 -0.00214518 -0.00193196 -0.00172472 -0.00152546 -0.00133621 -0.00115695 -0.000987693 -0.000830224 -0.000686329 -0.000556008 -0.000439262 -0.000336194 -0.000246906 -0.000171399 -0.000109673 -6.16909e-05 -2.74182e-05 -6.85454e-06 0 0 -9.64624e-06 -3.8585e-05 -8.68162e-05 -0.00015434 -0.000240579 -0.000344957 -0.000467474 -0.00060813 -0.000766615 -0.00094262 -0.00113614 -0.00134719 -0.00157326 -0.00181185 -0.00206298 -0.00232663 -0.00260005 -0.00288046 -0.00316788 -0.00346229 -0.00376089 -0.00406086 -0.0043622 -0.00466492 -0.00496626 -0.00526347 -0.00555654 -0.00584549 -0.00612784 -0.00640113 -0.00666537 -0.00692054 -0.00716482 -0.00739634 -0.00761511 -0.00782113 -0.00801348 -0.00819123 -0.00835438 -0.00850293 -0.00863706 -0.00875692 -0.00886252 -0.00895385 -0.00903213 -0.00909854 -0.00915309 -0.00919578 -0.00922853 -0.00925329 -0.00927005 -0.0092788 -0.00928173 -0.009281 -0.00927661 -0.00926856 -0.00925871 -0.00924892 -0.00923917 -0.00922948 -0.0092209 -0.00921448 -0.00921023 -0.00920815 -0.00920821 -0.00921041 -0.00921474 -0.0092212 -0.0092287 -0.00923618 -0.00924361 -0.00925102 -0.00925652 -0.00925826 -0.00925624 -0.00925045 -0.00923874 -0.00921896 -0.0091911 -0.00915517 -0.00910926 -0.0090515 -0.00898187 -0.00890038 -0.00880588 -0.00869723 -0.00857441 -0.00843744 -0.00828621 -0.00812059 -0.00794059 -0.00774621 -0.00753842 -0.00731818 -0.00708551 -0.00684039 -0.0065847 -0.00632032 -0.00604725 -0.00576547 -0.00547747 -0.00518569 -0.00489014 -0.00459082 -0.00429046 -0.00399177 -0.00369475 -0.00339942 -0.00310851 -0.00282479 -0.00254826 -0.00227891 -0.00201943 -0.00177249 -0.0015381 -0.00131626 -0.00110935 -0.000919775 -0.000747527 -0.000592608 -0.000455257 -0.000335713 -0.000233977 -0.000150049 -8.44026e-05 -3.75123e-05 -9.37807e-06 0 0 -1.26505e-05 -5.06019e-05 -0.000113854 -0.000202408 -0.000314878 -0.000449881 -0.000607417 -0.000787486 -0.000989567 -0.00121314 -0.00145821 -0.00172476 -0.00200961 -0.00230954 -0.00262455 -0.00295464 -0.00329628 -0.00364595 -0.00400363 -0.00436934 -0.00473948 -0.00511048 -0.00548234 -0.00585506 -0.00622516 -0.00658917 -0.0069471 -0.00729893 -0.00764162 -0.00797209 -0.00829034 -0.00859637 -0.00888795 -0.00916284 -0.00942104 -0.00966255 -0.00988633 -0.0100914 -0.0102777 -0.0104452 -0.0105944 -0.0107256 -0.0108388 -0.010934 -0.011013 -0.0110774 -0.0111272 -0.0111624 -0.0111857 -0.0111996 -0.0112042 -0.0111995 -0.0111884 -0.0111737 -0.0111555 -0.0111338 -0.011111 -0.0110896 -0.0110696 -0.011051 -0.0110352 -0.0110236 -0.0110161 -0.0110129 -0.0110138 -0.0110189 -0.0110281 -0.0110415 -0.0110576 -0.0110749 -0.0110936 -0.0111135 -0.0111322 -0.0111472 -0.0111586 -0.0111663 -0.0111674 -0.0111591 -0.0111414 -0.0111142 -0.0110749 -0.0110211 -0.0109527 -0.0108697 -0.0107705 -0.0106534 -0.0105185 -0.0103656 -0.0101946 -0.0100052 -0.00979719 -0.00957073 -0.00932688 -0.00906672 -0.00879026 -0.00849748 -0.00819066 -0.00787209 -0.00754175 -0.00719965 -0.00684885 -0.00649242 -0.00613036 -0.00576266 -0.00539278 -0.00502414 -0.00465674 -0.00429059 -0.0039292 -0.00357607 -0.0032312 -0.0028946 -0.00256968 -0.00225989 -0.00196521 -0.00168564 -0.00142427 -0.00118415 -0.000965305 -0.000767718 -0.000591827 -0.00043806 -0.00030642 -0.000196904 -0.000110759 -4.92261e-05 -1.23065e-05 0 0 -1.6056e-05 -6.42238e-05 -0.000144504 -0.000256895 -0.000398918 -0.000568093 -0.000764418 -0.000987895 -0.0012377 -0.001513 -0.00181381 -0.00214012 -0.00248792 -0.00285318 -0.00323591 -0.00363611 -0.00404939 -0.00447135 -0.004902 -0.00534133 -0.00578493 -0.00622834 -0.00667159 -0.00711466 -0.0075533 -0.00798327 -0.00840455 -0.00881715 -0.00921737 -0.00960154 -0.00996964 -0.0103217 -0.0106551 -0.0109671 -0.0112579 -0.0115275 -0.0117746 -0.0119984 -0.0121987 -0.0123756 -0.0125298 -0.012662 -0.0127722 -0.0128604 -0.012929 -0.0129803 -0.0130142 -0.0130309 -0.0130337 -0.0130263 -0.0130084 -0.0129802 -0.0129455 -0.012908 -0.0128677 -0.0128246 -0.012782 -0.012743 -0.0127075 -0.0126757 -0.0126493 -0.01263 -0.012618 -0.0126132 -0.0126156 -0.0126251 -0.0126417 -0.0126655 -0.0126946 -0.0127271 -0.0127631 -0.0128025 -0.0128421 -0.0128788 -0.0129125 -0.0129432 -0.0129672 -0.0129807 -0.0129836 -0.0129761 -0.0129546 -0.0129158 -0.0128597 -0.0127862 -0.0126931 -0.0125781 -0.0124413 -0.0122826 -0.0121013 -0.011897 -0.0116695 -0.011419 -0.0111464 -0.0108531 -0.0105389 -0.0102038 -0.00985065 -0.00948195 -0.00909774 -0.00869802 -0.00828649 -0.00786683 -0.00743906 -0.00700317 -0.00656337 -0.00612388 -0.0056847 -0.00524583 -0.00481161 -0.00438638 -0.00397016 -0.00356293 -0.00316896 -0.00279251 -0.00243358 -0.00209218 -0.00177215 -0.00147737 -0.00120782 -0.000963505 -0.000745146 -0.000553452 -0.000388423 -0.00025006 -0.000140659 -6.25151e-05 -1.56288e-05 0 0 -1.98505e-05 -7.94018e-05 -0.000178654 -0.000317607 -0.000492372 -0.00069906 -0.000937672 -0.00120821 -0.00150941 -0.00184002 -0.00220003 -0.00258946 -0.00300334 -0.00343672 -0.00388958 -0.00436195 -0.00484845 -0.00534374 -0.00584782 -0.00636069 -0.00687699 -0.00739136 -0.00790379 -0.00841428 -0.00891776 -0.00940912 -0.00988837 -0.0103555 -0.0108062 -0.0112362 -0.0116453 -0.0120338 -0.0123985 -0.0127365 -0.013048 -0.0133327 -0.0135899 -0.0138183 -0.0140181 -0.0141893 -0.014333 -0.0144504 -0.0145415 -0.0146064 -0.0146482 -0.01467 -0.014672 -0.0146541 -0.0146208 -0.0145767 -0.0145217 -0.014456 -0.0143843 -0.0143114 -0.0142375 -0.0141625 -0.0140904 -0.0140253 -0.0139673 -0.0139162 -0.0138745 -0.0138444 -0.0138258 -0.0138188 -0.0138234 -0.0138395 -0.013867 -0.0139061 -0.0139543 -0.0140094 -0.0140712 -0.0141398 -0.0142112 -0.0142812 -0.0143498 -0.014417 -0.014478 -0.014528 -0.0145669 -0.0145948 -0.0146071 -0.0145995 -0.0145718 -0.0145242 -0.0144535 -0.0143566 -0.0142336 -0.0140844 -0.013908 -0.0137032 -0.0134701 -0.0132087 -0.0129201 -0.0126054 -0.0122646 -0.0118976 -0.0115075 -0.0110974 -0.0106671 -0.0102167 -0.00975052 -0.00927292 -0.00878389 -0.00828343 -0.00777657 -0.00726837 -0.00675882 -0.00624792 -0.00574094 -0.00524313 -0.0047545 -0.00427504 -0.00380996 -0.00336446 -0.00293854 -0.00253219 -0.0021502 -0.00179731 -0.00147354 -0.00117888 -0.000914457 -0.000681393 -0.000479686 -0.000309338 -0.000174003 -7.73345e-05 -1.93336e-05 0 0 -2.4034e-05 -9.61359e-05 -0.000216306 -0.000384544 -0.00059524 -0.000842784 -0.00112718 -0.00144842 -0.00180469 -0.00219418 -0.00261687 -0.00307278 -0.00355588 -0.00406014 -0.00458556 -0.00513214 -0.00569346 -0.00626312 -0.0068411 -0.00742742 -0.00801568 -0.00859952 -0.00917894 -0.00975393 -0.0103185 -0.0108667 -0.0113986 -0.011914 -0.0124082 -0.012876 -0.0133174 -0.0137326 -0.0141182 -0.0144711 -0.0147911 -0.0150784 -0.0153321 -0.0155513 -0.015736 -0.0158863 -0.0160039 -0.0160907 -0.0161467 -0.0161719 -0.0161705 -0.0161467 -0.0161005 -0.0160319 -0.0159468 -0.0158509 -0.0157442 -0.0156268 -0.0155047 -0.0153841 -0.0152649 -0.0151472 -0.0150361 -0.0149367 -0.0148488 -0.0147726 -0.0147109 -0.0146665 -0.0146395 -0.0146297 -0.0146373 -0.0146621 -0.0147041 -0.0147633 -0.0148368 -0.0149217 -0.0150179 -0.0151256 -0.0152394 -0.0153544 -0.0154705 -0.0155877 -0.0157 -0.0158011 -0.0158912 -0.0159702 -0.0160323 -0.016072 -0.0160891 -0.0160837 -0.0160516 -0.0159889 -0.0158954 -0.0157712 -0.0156145 -0.0154238 -0.015199 -0.01494 -0.014648 -0.0143237 -0.0139673 -0.0135788 -0.0131613 -0.0127183 -0.0122498 -0.0117556 -0.011241 -0.0107107 -0.0101649 -0.00960344 -0.00903238 -0.0084576 -0.0078791 -0.00729687 -0.00671718 -0.0061463 -0.00558421 -0.00503094 -0.0044927 -0.00397575 -0.00348008 -0.0030057 -0.0025584 -0.00214399 -0.00176247 -0.00141384 -0.00109976 -0.000821883 -0.000580208 -0.000374738 -0.00021079 -9.36844e-05 -2.34211e-05 0 0 -2.86065e-05 -0.000114426 -0.000257459 -0.000457705 -0.000707521 -0.000999265 -0.00133294 -0.00170853 -0.00212355 -0.00257548 -0.00306433 -0.00359008 -0.00414553 -0.00472345 -0.00532384 -0.00594669 -0.00658444 -0.00722949 -0.00788184 -0.0085415 -0.009201 -0.00985284 -0.010497 -0.0111336 -0.0117556 -0.0123561 -0.0129352 -0.0134927 -0.0140232 -0.0145209 -0.0149859 -0.0154182 -0.0158143 -0.0161707 -0.0164874 -0.0167644 -0.0170012 -0.0171971 -0.0173523 -0.0174665 -0.0175426 -0.017583 -0.0175878 -0.0175569 -0.0174959 -0.0174102 -0.0172997 -0.0171645 -0.0170118 -0.016849 -0.0166759 -0.0164926 -0.0163067 -0.0161259 -0.0159499 -0.015779 -0.0156193 -0.015477 -0.0153522 -0.0152449 -0.0151585 -0.0150965 -0.015059 -0.015046 -0.0150573 -0.0150929 -0.0151528 -0.0152371 -0.015342 -0.0154641 -0.0156033 -0.0157596 -0.0159268 -0.0160984 -0.0162746 -0.0164553 -0.016633 -0.0168 -0.0169564 -0.0171023 -0.0172303 -0.0173334 -0.0174115 -0.0174647 -0.0174875 -0.0174749 -0.0174266 -0.0173428 -0.017221 -0.0170587 -0.016856 -0.0166129 -0.01633 -0.0160081 -0.0156472 -0.0152473 -0.014812 -0.0143448 -0.0138458 -0.0133149 -0.0127578 -0.0121801 -0.0115819 -0.0109632 -0.0103308 -0.00969158 -0.00904554 -0.00839268 -0.00774034 -0.00709589 -0.00645931 -0.00583061 -0.00521717 -0.00462637 -0.00405821 -0.00351268 -0.00299676 -0.0025174 -0.00207461 -0.00166839 -0.00130106 -0.000974922 -0.000689989 -0.000446259 -0.000251021 -0.000111565 -2.78912e-05 0 0 -3.34965e-05 -0.000133986 -0.000301469 -0.000535944 -0.000827448 -0.00116601 -0.00155164 -0.00198433 -0.00246073 -0.0029775 -0.00353464 -0.00413214 -0.00476144 -0.00541399 -0.00608978 -0.00678881 -0.00750222 -0.00822115 -0.0089456 -0.00967557 -0.0104024 -0.0111174 -0.0118206 -0.0125121 -0.0131838 -0.0138279 -0.0144445 -0.0150334 -0.0155884 -0.0161033 -0.0165781 -0.0170126 -0.0174034 -0.0177467 -0.0180426 -0.018291 -0.0184917 -0.0186447 -0.0187498 -0.0188072 -0.0188202 -0.0187927 -0.0187245 -0.0186157 -0.0184731 -0.0183037 -0.0181074 -0.0178843 -0.0176434 -0.0173936 -0.017135 -0.0168675 -0.0166004 -0.016343 -0.0160953 -0.0158573 -0.0156366 -0.0154407 -0.0152697 -0.0151235 -0.0150064 -0.0149227 -0.0148722 -0.0148551 -0.0148712 -0.0149204 -0.0150028 -0.0151184 -0.0152627 -0.0154315 -0.0156247 -0.0158423 -0.0160767 -0.0163202 -0.0165729 -0.0168346 -0.0170962 -0.0173484 -0.0175913 -0.0178247 -0.0180399 -0.0182278 -0.0183887 -0.0185223 -0.0186221 -0.0186812 -0.0186997 -0.0186776 -0.0186115 -0.0184979 -0.0183369 -0.0181284 -0.017873 -0.0175708 -0.0172219 -0.0168263 -0.0163877 -0.01591 -0.0153931 -0.014837 -0.0142481 -0.0136327 -0.0129907 -0.0123222 -0.011635 -0.010937 -0.0102281 -0.00950846 -0.00878645 -0.00807064 -0.00736104 -0.00665763 -0.00596905 -0.00530395 -0.00466231 -0.00404414 -0.0034577 -0.00291127 -0.00240484 -0.00193842 -0.00151513 -0.00113809 -0.00080731 -0.000522788 -0.000294068 -0.000130697 -3.26742e-05 0 0 -3.86323e-05 -0.000154529 -0.000347691 -0.000618117 -0.000953253 -0.00134054 -0.00177998 -0.00227158 -0.00281097 -0.00339379 -0.00402003 -0.00468971 -0.00539276 -0.0061191 -0.00686875 -0.00764169 -0.00842767 -0.00921641 -0.0100079 -0.0108022 -0.0115893 -0.0123594 -0.0131123 -0.0138482 -0.014558 -0.0152329 -0.0158728 -0.0164778 -0.017041 -0.0175554 -0.018021 -0.0184379 -0.0188023 -0.0191105 -0.0193624 -0.0195582 -0.0196981 -0.0197826 -0.0198116 -0.0197852 -0.0197082 -0.0195854 -0.0194167 -0.0192021 -0.0189504 -0.0186702 -0.0183614 -0.018024 -0.0176692 -0.0173078 -0.0169398 -0.0165653 -0.0161956 -0.0158417 -0.0155038 -0.0151818 -0.0148849 -0.0146221 -0.0143936 -0.0141992 -0.0140441 -0.0139333 -0.0138669 -0.0138448 -0.0138669 -0.0139332 -0.0140436 -0.0141981 -0.0143916 -0.0146187 -0.0148794 -0.0151738 -0.0154927 -0.0158267 -0.016176 -0.0165405 -0.016909 -0.0172702 -0.0176243 -0.0179711 -0.0182998 -0.0185995 -0.0188702 -0.019112 -0.0193163 -0.0194747 -0.0195872 -0.0196538 -0.0196699 -0.019631 -0.019537 -0.019388 -0.0191838 -0.0189241 -0.0186091 -0.0182387 -0.0178167 -0.017347 -0.0168298 -0.0162648 -0.0156592 -0.0150198 -0.0143467 -0.0136399 -0.0129082 -0.0121606 -0.0113969 -0.0106173 -0.00983152 -0.00904929 -0.00827062 -0.00749553 -0.00673402 -0.0059961 -0.00528178 -0.00459105 -0.00393365 -0.0033193 -0.00274802 -0.0022198 -0.00173875 -0.00130896 -0.000930452 -0.000603211 -0.000339306 -0.000150803 -3.77007e-05 0 0 -4.4014e-05 -0.000176056 -0.000396126 -0.000704223 -0.00108494 -0.00152285 -0.00201797 -0.00257029 -0.00317426 -0.00382434 -0.00452052 -0.00526281 -0.00603948 -0.00683879 -0.00766074 -0.00850533 -0.00936078 -0.0102153 -0.0110688 -0.0119214 -0.0127618 -0.0135787 -0.014372 -0.0151418 -0.0158781 -0.016571 -0.0172203 -0.0178261 -0.0183808 -0.0188771 -0.0193148 -0.019694 -0.0200109 -0.0202619 -0.020447 -0.020566 -0.0206203 -0.0206108 -0.0205377 -0.0204008 -0.0202065 -0.019961 -0.0196643 -0.0193164 -0.018928 -0.0185097 -0.0180616 -0.0175836 -0.0170891 -0.0165914 -0.0160904 -0.0155862 -0.0150922 -0.014622 -0.0141754 -0.0137525 -0.0133642 -0.0130213 -0.0127239 -0.0124719 -0.0122715 -0.0121285 -0.012043 -0.012015 -0.0120445 -0.0121311 -0.0122751 -0.0124763 -0.0127286 -0.0130256 -0.0133675 -0.0137541 -0.0141746 -0.0146179 -0.015084 -0.0155729 -0.0160711 -0.0165653 -0.0170554 -0.0175414 -0.0180101 -0.0184484 -0.0188562 -0.0192335 -0.01957 -0.0198551 -0.0200889 -0.0202713 -0.0203964 -0.0204581 -0.0204565 -0.0203916 -0.0202624 -0.0200682 -0.0198089 -0.0194845 -0.0190989 -0.0186559 -0.0181557 -0.0175981 -0.0169909 -0.0163415 -0.0156499 -0.0149162 -0.0141504 -0.0133623 -0.0125519 -0.0117193 -0.0108756 -0.0100318 -0.00918807 -0.00834432 -0.00751206 -0.00670283 -0.00591662 -0.00515342 -0.0044246 -0.00374151 -0.00310416 -0.00251255 -0.00197192 -0.00148755 -0.00105941 -0.000687527 -0.000386734 -0.000171882 -4.29705e-05 0 0 -4.96414e-05 -0.000198566 -0.000446773 -0.000794263 -0.0012225 -0.00171294 -0.00226559 -0.00288045 -0.00355061 -0.00426916 -0.0050361 -0.00585144 -0.00670161 -0.00757305 -0.00846576 -0.00937974 -0.0103016 -0.0112177 -0.0121283 -0.0130333 -0.0139199 -0.0147754 -0.0155998 -0.0163931 -0.0171443 -0.0178421 -0.0184867 -0.0190781 -0.019608 -0.0200685 -0.0204594 -0.0207809 -0.0210294 -0.0212011 -0.0212962 -0.0213146 -0.0212583 -0.0211294 -0.0209279 -0.0206538 -0.020315 -0.0199195 -0.0194673 -0.0189584 -0.0184057 -0.0178222 -0.017208 -0.016563 -0.0159032 -0.0152444 -0.0145867 -0.0139301 -0.0132904 -0.0126838 -0.0121101 -0.0115694 -0.0110745 -0.0106383 -0.0102607 -0.00994171 -0.0096885 -0.00950812 -0.00940056 -0.00936584 -0.0094038 -0.0095143 -0.00969735 -0.00995294 -0.0102737 -0.0106524 -0.0110889 -0.0115833 -0.0121226 -0.0126938 -0.0132969 -0.0139319 -0.0145828 -0.0152337 -0.0158847 -0.0165356 -0.0171708 -0.0177744 -0.0183465 -0.018887 -0.0193833 -0.0198226 -0.0202049 -0.0205302 -0.0207908 -0.0209792 -0.0210953 -0.0211391 -0.0211089 -0.021003 -0.0208212 -0.0205637 -0.0202343 -0.0198367 -0.0193709 -0.0188371 -0.0182432 -0.0175977 -0.0169004 -0.0161513 -0.0153615 -0.0145421 -0.013693 -0.0128143 -0.0119186 -0.0110182 -0.0101134 -0.00920399 -0.0083032 -0.00742414 -0.00656682 -0.00573125 -0.00493055 -0.00417789 -0.00347325 -0.00281665 -0.00221465 -0.00167384 -0.0011942 -0.000775738 -0.000436352 -0.000193934 -4.84836e-05 0 0 -5.54334e-05 -0.000221734 -0.000498901 -0.000886935 -0.00136394 -0.00190801 -0.00251916 -0.00319739 -0.00393424 -0.00472127 -0.00555848 -0.00644587 -0.00736789 -0.00830897 -0.00926911 -0.0102483 -0.0112313 -0.012203 -0.0131632 -0.014112 -0.0150352 -0.0159184 -0.0167616 -0.0175649 -0.0183161 -0.0190028 -0.0196251 -0.0201829 -0.0206677 -0.0210708 -0.0213921 -0.0216317 -0.0217862 -0.0218522 -0.0218298 -0.0217188 -0.0215225 -0.021244 -0.0208833 -0.0204404 -0.0199252 -0.0193476 -0.0187076 -0.0180052 -0.017256 -0.0164757 -0.0156641 -0.0148214 -0.0139664 -0.0131178 -0.0122758 -0.0114404 -0.0106302 -0.00986405 -0.00914193 -0.00846385 -0.00784482 -0.00729988 -0.00682902 -0.00643224 -0.00611782 -0.00589404 -0.0057609 -0.00571839 -0.00576635 -0.0059046 -0.00613315 -0.006452 -0.00685257 -0.00732629 -0.00787316 -0.00849318 -0.00917115 -0.00989187 -0.0106553 -0.0114616 -0.0122918 -0.0131272 -0.0139679 -0.0148138 -0.0156462 -0.0164465 -0.0172146 -0.0179505 -0.0186389 -0.0192646 -0.0198274 -0.0203275 -0.0207552 -0.0211009 -0.0213648 -0.0215467 -0.0216439 -0.0216535 -0.0215756 -0.0214102 -0.0211609 -0.0208313 -0.0204215 -0.0199314 -0.0193697 -0.0187454 -0.0180583 -0.0173085 -0.0165082 -0.0156695 -0.0147926 -0.0138773 -0.0129378 -0.0119881 -0.0110283 -0.0100583 -0.009093 -0.00814737 -0.00722138 -0.00631502 -0.0054434 -0.00462161 -0.00384965 -0.00312754 -0.00246333 -0.0018651 -0.00133284 -0.000866571 -0.000487446 -0.000216643 -5.41607e-05 0 0 -6.13087e-05 -0.000245235 -0.000551778 -0.000980939 -0.00150726 -0.00210528 -0.002775 -0.00351642 -0.00431937 -0.00517369 -0.00607937 -0.00703642 -0.00802709 -0.00903365 -0.0100561 -0.0110944 -0.0121315 -0.0131501 -0.0141503 -0.0151321 -0.0160795 -0.0169767 -0.0178236 -0.0186202 -0.0193533 -0.0200092 -0.020588 -0.0210898 -0.0215053 -0.0218254 -0.0220501 -0.0221793 -0.0222102 -0.0221396 -0.0219675 -0.0216939 -0.0213234 -0.0208604 -0.0203048 -0.0196567 -0.0189282 -0.0181316 -0.0172669 -0.0163339 -0.0153514 -0.0143379 -0.0132934 -0.0122179 -0.0111335 -0.0100625 -0.0090049 -0.00796062 -0.00695158 -0.00599966 -0.00510487 -0.0042672 -0.00350413 -0.00283311 -0.00225416 -0.00176727 -0.00138203 -0.00110806 -0.000945349 -0.000893899 -0.00095351 -0.00112398 -0.00140531 -0.0017975 -0.00229059 -0.00287465 -0.00354966 -0.00431563 -0.00515487 -0.00604972 -0.00700016 -0.0080062 -0.00904594 -0.0100975 -0.0111607 -0.0122358 -0.0133007 -0.0143333 -0.0153337 -0.0163019 -0.0172197 -0.0180686 -0.0188488 -0.0195603 -0.0201913 -0.0207299 -0.0211762 -0.0215302 -0.0217878 -0.021945 -0.0220016 -0.0219578 -0.0218168 -0.021582 -0.0212534 -0.0208309 -0.0203238 -0.0197416 -0.0190841 -0.0183514 -0.017557 -0.016714 -0.0158227 -0.0148829 -0.0139104 -0.0129209 -0.0119144 -0.0108908 -0.00986706 -0.00885987 -0.00786926 -0.00689523 -0.00595501 -0.00506583 -0.00422771 -0.00344063 -0.00271434 -0.0020586 -0.0014734 -0.000958754 -0.000539299 -0.000239689 -5.99222e-05 0 0 -6.72672e-05 -0.000269069 -0.000605405 -0.00107628 -0.00165246 -0.00230473 -0.0030331 -0.00383755 -0.00470602 -0.00562643 -0.00659878 -0.00762307 -0.0086792 -0.00974708 -0.0108267 -0.0119181 -0.013002 -0.0140592 -0.0150897 -0.0160934 -0.0170528 -0.0179502 -0.0187856 -0.019559 -0.0202558 -0.0208613 -0.0213756 -0.0217986 -0.0221207 -0.0223322 -0.0224333 -0.0224238 -0.0223012 -0.0220631 -0.0217093 -0.0212399 -0.020661 -0.0199784 -0.0191924 -0.0183027 -0.0173242 -0.0162717 -0.0151452 -0.0139445 -0.0126918 -0.0114088 -0.0100957 -0.00875234 -0.00740467 -0.00607852 -0.00477389 -0.00349079 -0.00225458 -0.00109062 1.08501e-06 0.00102054 0.00194759 0.00276205 0.00346392 0.00405322 0.00451888 0.00484983 0.00504608 0.00510763 0.00503471 0.00482756 0.00448618 0.00401056 0.00341219 0.00270253 0.00188158 0.00094934 -7.37662e-05 -0.00116732 -0.00233133 -0.00356578 -0.00484529 -0.00614445 -0.00746326 -0.00880173 -0.0101342 -0.0114349 -0.012704 -0.0139413 -0.0151254 -0.0162347 -0.0172691 -0.0182287 -0.0190991 -0.0198661 -0.0205297 -0.0210898 -0.0215409 -0.0218773 -0.0220992 -0.0222065 -0.022202 -0.0220887 -0.0218665 -0.0215355 -0.0211055 -0.0205862 -0.0199778 -0.0192801 -0.0185078 -0.0176756 -0.0167834 -0.0158312 -0.0148365 -0.0138167 -0.0127717 -0.0117017 -0.0106254 -0.00956164 -0.00851047 -0.00747187 -0.00646539 -0.00551057 -0.00460741 -0.00375592 -0.00296769 -0.00225434 -0.00161587 -0.00105229 -0.000591913 -0.000263072 -6.57681e-05 0 0 -7.3309e-05 -0.000293236 -0.000659781 -0.00117294 -0.00179954 -0.00250637 -0.00329345 -0.00416078 -0.00509418 -0.00607948 -0.0071167 -0.00820582 -0.00932422 -0.0104493 -0.011581 -0.0127193 -0.0138429 -0.0149302 -0.0159812 -0.016996 -0.0179551 -0.018839 -0.0196478 -0.0203813 -0.0210237 -0.0215592 -0.0219878 -0.0223093 -0.0225139 -0.0225914 -0.0225418 -0.0223651 -0.0220594 -0.0216228 -0.0210552 -0.0203568 -0.0195352 -0.0185982 -0.017546 -0.0163784 -0.0151132 -0.0137679 -0.0123425 -0.010837 -0.00927718 -0.00768854 -0.00607111 -0.00442489 -0.00277981 -0.00116578 0.000417188 0.0019691 0.00346079 0.00486306 0.00617593 0.00739938 0.00851031 0.0094856 0.0103252 0.0110292 0.0115849 0.0119796 0.0122134 0.0122862 0.0121983 0.01195 0.0115413 0.0109722 0.0102558 0.00940524 0.00842055 0.00730173 0.00607217 0.00475532 0.00335116 0.0018597 0.000310168 -0.00126821 -0.00287543 -0.0045115 -0.00614669 -0.00775129 -0.00932529 -0.0108687 -0.0123563 -0.0137628 -0.0150882 -0.0163326 -0.0174788 -0.0185096 -0.0194251 -0.0202254 -0.0209029 -0.0214506 -0.0218684 -0.0221562 -0.0223164 -0.0223513 -0.022261 -0.0220453 -0.0217147 -0.0212793 -0.02073