<?xml version="1.0"?> 
<VTKFile type="StructuredGrid" version="0.1"> 
<StructuredGrid WholeExtent="0 128 0 128 0 0"> 
<Piece Extent="0 128 0 128 0 0"> 
<PointData>
<DataArray type="Float32" Name="u" format="ascii" NumberOfComponents="1"> 
0 0 0 0 0 0 0 0 0 0 0 0 0 0 0 0 0 0 0 0 0 0 0 0 0 0 0 0 0 0 0 0 0 0 0 0 0 0 0 0 0 0 0 0 0 0 0 0 0 0 0 0 0 0 0 0 0 0 0 0 0 0 0 0 0 0 0 0 0 0 0 0 0 0 0 0 0 0 0 0 0 0 0 0 0 0 0 0 0 0 0 0 0 0 0 0 0 0 0 0 0 0 0 0 0 0 0 0 0 0 0 0 0 0 0 0 0 0 0 0 0 0 0 0 0 0 0 0 0 0 5.21063e-08 2.08425e-07 4.68957e-07 8.33701e-07 1.32147e-06 1.95106e-06 2.72248e-06 3.63572e-06 4.69015e-06 5.88509e-06 7.22055e-06 8.69653e-06 1.02805e-05 1.194e-05 1.3675e-05 1.54855e-05 1.73219e-05 1.91348e-05 2.09241e-05 2.26898e-05 2.43767e-05 2.59296e-05 2.73483e-05 2.8633e-05 2.97361e-05 3.06098e-05 3.12543e-05 3.16695e-05 3.18258e-05 3.16936e-05 3.1273e-05 3.05638e-05 2.95587e-05 2.825e-05 2.66378e-05 2.47221e-05 2.25171e-05 2.0037e-05 1.72819e-05 1.42517e-05 1.09817e-05 7.50686e-06 3.8273e-06 -5.70047e-08 -4.09016e-06 -8.21628e-06 -1.24354e-05 -1.67474e-05 -2.10785e-05 -2.53546e-05 -2.95758e-05 -3.3742e-05 -3.77711e-05 -4.15807e-05 -4.51708e-05 -4.85414e-05 -5.16198e-05 -5.43329e-05 -5.66809e-05 -5.86636e-05 -6.02381e-05 -6.1361e-05 -6.20323e-05 -6.22522e-05 -6.20207e-05 -6.13381e-05 -6.02044e-05 -5.86195e-05 -5.6627e-05 -5.42703e-05 -5.15495e-05 -4.84644e-05 -4.50883e-05 -4.14941e-05 -3.76818e-05 -3.36514e-05 -2.94852e-05 -2.52655e-05 -2.09922e-05 -1.66653e-05 -1.23587e-05 -8.14604e-06 -4.02744e-06 -2.84715e-09 3.87211e-06 7.54182e-06 1.10063e-05 1.42655e-05 1.72846e-05 2.00287e-05 2.2498e-05 2.46922e-05 2.65976e-05 2.82001e-05 2.94997e-05 3.04965e-05 3.1198e-05 3.16121e-05 3.17388e-05 3.15779e-05 3.11593e-05 3.05124e-05 2.96374e-05 2.85342e-05 2.72503e-05 2.58333e-05 2.42832e-05 2.25999e-05 2.08385e-05 1.9054e-05 1.72466e-05 1.54161e-05 1.36119e-05 1.18832e-05 1.02301e-05 8.65261e-06 7.18294e-06 5.85342e-06 4.66405e-06 3.61483e-06 2.70631e-06 1.93904e-06 1.31303e-06 8.28268e-07 4.65901e-07 2.07067e-07 5.17668e-08 0 0 2.08425e-07 8.33701e-07 1.87583e-06 3.33481e-06 5.28586e-06 7.80423e-06 1.08899e-05 1.45429e-05 1.87606e-05 2.35404e-05 2.88822e-05 3.47861e-05 4.11221e-05 4.776e-05 5.47e-05 6.19419e-05 6.92876e-05 7.65391e-05 8.36963e-05 9.07593e-05 9.75069e-05 0.000103718 0.000109393 0.000114532 0.000118944 0.000122439 0.000125017 0.000126678 0.000127303 0.000126774 0.000125092 0.000122255 0.000118235 0.000113 0.000106551 9.88884e-05 9.00683e-05 8.01481e-05 6.91276e-05 5.70069e-05 4.39267e-05 3.00274e-05 1.53092e-05 -2.28019e-07 -1.63606e-05 -3.28651e-05 -4.97415e-05 -6.69897e-05 -8.43139e-05 -0.000101418 -0.000118303 -0.000134968 -0.000151084 -0.000166323 -0.000180683 -0.000194166 -0.000206479 -0.000217332 -0.000226723 -0.000234655 -0.000240952 -0.000245444 -0.000248129 -0.000249009 -0.000248083 -0.000245353 -0.000240818 -0.000234478 -0.000226508 -0.000217081 -0.000206198 -0.000193858 -0.000180353 -0.000165976 -0.000150727 -0.000134606 -0.000117941 -0.000101062 -8.39686e-05 -6.66612e-05 -4.94346e-05 -3.25842e-05 -1.61098e-05 -1.13886e-08 1.54884e-05 3.01673e-05 4.40251e-05 5.70619e-05 6.91383e-05 8.0115e-05 8.99918e-05 9.87689e-05 0.00010639 0.0001128 0.000117999 0.000121986 0.000124792 0.000126449 0.000126955 0.000126312 0.000124637 0.00012205 0.00011855 0.000114137 0.000109001 0.000103333 9.71327e-05 9.03995e-05 8.33539e-05 7.62162e-05 6.89864e-05 6.16644e-05 5.44475e-05 4.75329e-05 4.09206e-05 3.46105e-05 2.87318e-05 2.34137e-05 1.86562e-05 1.44593e-05 1.08252e-05 7.75617e-06 5.25212e-06 3.31307e-06 1.8636e-06 8.28268e-07 2.07067e-07 0 0 4.68957e-07 1.87583e-06 4.22061e-06 7.50331e-06 1.18932e-05 1.75595e-05 2.45023e-05 3.27215e-05 4.22113e-05 5.29658e-05 6.4985e-05 7.82688e-05 9.25247e-05 0.00010746 0.000123075 0.000139369 0.000155897 0.000172213 0.000188317 0.000204208 0.000219391 0.000233366 0.000246135 0.000257697 0.000267625 0.000275488 0.000281289 0.000285025 0.000286432 0.000285243 0.000281457 0.000275074 0.000266028 0.00025425 0.00023974 0.000222499 0.000202654 0.000180333 0.000155537 0.000128266 9.8835e-05 6.75617e-05 3.44457e-05 -5.13043e-07 -3.68115e-05 -7.39465e-05 -0.000111918 -0.000150727 -0.000189706 -0.000228191 -0.000266182 -0.000303678 -0.00033994 -0.000374226 -0.000406537 -0.000436873 -0.000464578 -0.000488996 -0.000510128 -0.000527973 -0.000542143 -0.000552249 -0.000558291 -0.00056027 -0.000558187 -0.000552043 -0.00054184 -0.000527576 -0.000509643 -0.000488433 -0.000463945 -0.00043618 -0.000405795 -0.000373447 -0.000339136 -0.000302863 -0.000265367 -0.000227389 -0.000188929 -0.000149988 -0.000111228 -7.33144e-05 -3.62469e-05 -2.56244e-08 3.4849e-05 6.78764e-05 9.90564e-05 0.000128389 0.000155561 0.000180259 0.000202482 0.00022223 0.000239378 0.000253801 0.000265497 0.000274468 0.000280782 0.000284509 0.000285649 0.000284201 0.000280433 0.000274612 0.000266737 0.000256808 0.000245253 0.0002325 0.000218549 0.000203399 0.000187546 0.000171486 0.000155219 0.000138745 0.000122507 0.000106949 9.20713e-05 7.78735e-05 6.46465e-05 5.26808e-05 4.19765e-05 3.25335e-05 2.43568e-05 1.74514e-05 1.18173e-05 7.45441e-06 4.19311e-06 1.8636e-06 4.65901e-07 0 0 8.33701e-07 3.33481e-06 7.50331e-06 1.33392e-05 2.11435e-05 3.12169e-05 4.35596e-05 5.81716e-05 7.50423e-05 9.41614e-05 0.000115529 0.000139145 0.000164488 0.00019104 0.0002188 0.000247767 0.00027715 0.000306156 0.000334785 0.000363037 0.000390028 0.000414873 0.000437574 0.000458129 0.000475777 0.000489757 0.000500069 0.000506712 0.000509213 0.000507098 0.000500367 0.000489021 0.000472939 0.000452 0.000426205 0.000395553 0.000360273 0.000320592 0.00027651 0.000228028 0.000175707 0.00012011 6.12368e-05 -9.12076e-07 -6.54426e-05 -0.000131461 -0.000198966 -0.000267959 -0.000337256 -0.000405674 -0.000473212 -0.000539872 -0.000604337 -0.000665291 -0.000722733 -0.000776663 -0.000825916 -0.000869327 -0.000906894 -0.000938618 -0.000963809 -0.000981775 -0.000992517 -0.000996035 -0.000992332 -0.00098141 -0.00096327 -0.000937912 -0.000906032 -0.000868325 -0.000824791 -0.000775431 -0.000721413 -0.000663905 -0.000602908 -0.000538422 -0.000471763 -0.000404247 -0.000335874 -0.000266645 -0.000197739 -0.000130337 -6.4439e-05 -4.55544e-08 6.19538e-05 0.000120669 0.0001761 0.000228248 0.000276553 0.00032046 0.000359967 0.000395076 0.000425562 0.000451202 0.000471996 0.000487944 0.000499169 0.000505794 0.00050782 0.000505247 0.000498548 0.000488199 0.000474198 0.000456547 0.000436006 0.000413333 0.000388531 0.000361598 0.000333416 0.000304865 0.000275945 0.000246658 0.00021779 0.000190132 0.000163682 0.000138442 0.000114927 9.36548e-05 7.46248e-05 5.78373e-05 4.3301e-05 3.10247e-05 2.10085e-05 1.32523e-05 7.45441e-06 3.31307e-06 8.28268e-07 0 0 1.32644e-06 5.30575e-06 1.19379e-05 2.1223e-05 3.35361e-05 4.92524e-05 6.83719e-05 9.08946e-05 0.000116766 0.000145932 0.000178393 0.000214149 0.000252382 0.000292274 0.000333827 0.000377039 0.000420698 0.000463587 0.000505708 0.00054706 0.000586305 0.000622108 0.000654468 0.000683384 0.000707718 0.00072633 0.000739221 0.00074639 0.000747141 0.000740776 0.000727296 0.000706702 0.00067883 0.000643519 0.000600769 0.000550581 0.000493317 0.000429341 0.000358653 0.000281253 0.000198011 0.0001098 1.66191e-05 -8.15318e-05 -0.000183271 -0.000287219 -0.000393375 -0.000501739 -0.000610481 -0.000717773 -0.000823615 -0.000928006 -0.00102891 -0.00112428 -0.00121413 -0.00129845 -0.00137544 -0.00144328 -0.00150199 -0.00155155 -0.0015909 -0.00161896 -0.00163574 -0.00164123 -0.00163545 -0.00161839 -0.00159005 -0.00155044 -0.00150063 -0.0014417 -0.00137366 -0.0012965 -0.00121204 -0.00112209 -0.00102664 -0.000925696 -0.0008213 -0.000715487 -0.000608258 -0.000499613 -0.000391377 -0.000285375 -0.000181607 -8.00739e-05 1.7851e-05 0.000110793 0.000198752 0.000281729 0.000358859 0.000429278 0.000492988 0.000549987 0.000599919 0.000642428 0.000677513 0.000705175 0.000725579 0.000738893 0.000745115 0.000744247 0.000736986 0.000724029 0.000705378 0.000681032 0.000652129 0.000619805 0.000584061 0.000544896 0.000503643 0.000461636 0.000418873 0.000375355 0.000332291 0.000290889 0.000251149 0.000213072 0.000177469 0.000145152 0.000116121 9.03769e-05 6.79702e-05 4.8953e-05 3.33252e-05 2.1087e-05 1.18614e-05 5.27175e-06 1.31794e-06 0 0 1.97095e-06 7.88379e-06 1.77385e-05 3.15352e-05 4.95706e-05 7.21419e-05 9.9249e-05 0.000130892 0.000166895 0.000207084 0.000251458 0.000300017 0.000351573 0.000404936 0.000460108 0.000517088 0.000574188 0.000629722 0.000683689 0.00073609 0.000785111 0.00082894 0.000867577 0.000901021 0.000927763 0.000946293 0.000956609 0.000958713 0.000951712 0.000934713 0.000907716 0.000870722 0.000823563 0.000766075 0.000698258 0.000620111 0.000532176 0.000434996 0.000328571 0.0002129 8.92185e-05 -4.12384e-05 -0.000178471 -0.000322479 -0.000471316 -0.000623035 -0.000777637 -0.000935121 -0.0010929 -0.0012484 -0.00140161 -0.00155253 -0.00169828 -0.00183597 -0.00196559 -0.00208716 -0.00219809 -0.00229583 -0.00238037 -0.00245172 -0.00250835 -0.00254874 -0.00257288 -0.00258079 -0.00257246 -0.0025479 -0.00250711 -0.00245009 -0.00237838 -0.00229351 -0.00219548 -0.00208429 -0.00196251 -0.00183272 -0.00169491 -0.00154909 -0.00139814 -0.00124496 -0.00108954 -0.000931874 -0.000774554 -0.000620154 -0.000468674 -0.000320113 -0.000176411 -3.95036e-05 9.06085e-05 0.000213925 0.000329222 0.000435274 0.000532082 0.000619645 0.00069743 0.000764905 0.00082207 0.000868925 0.000905643 0.000932394 0.00094918 0.000956 0.000953749 0.000943323 0.00092472 0.000897941 0.000864494 0.000825887 0.000782119 0.000733192 0.000680911 0.000627083 0.00057171 0.00051479 0.000458003 0.000403029 0.000349869 0.000298521 0.000250168 0.000205989 0.000165986 0.000130158 9.86768e-05 7.17131e-05 4.92671e-05 3.13388e-05 1.76281e-05 7.8347e-06 1.95867e-06 0 0 2.76723e-06 1.10689e-05 2.49051e-05 4.42757e-05 6.9247e-05 9.98854e-05 0.000136191 0.000178163 0.00022543 0.000277616 0.000334722 0.000396749 0.000462062 0.000529027 0.000597644 0.000667913 0.000737623 0.000804562 0.000868731 0.000930129 0.000986445 0.00103537 0.0010769 0.00111104 0.00113591 0.00114964 0.00115223 0.00114368 0.00112293 0.00108891 0.00104163 0.000981081 0.000907139 0.000819669 0.00071867 0.000604142 0.00047685 0.000337557 0.000186264 2.29696e-05 -0.000150672 -0.000333006 -0.000524033 -0.000723753 -0.000929575 -0.00113891 -0.00135175 -0.0015681 -0.00178452 -0.00199755 -0.0022072 -0.00241345 -0.00261246 -0.00280035 -0.00297712 -0.00314278 -0.00329387 -0.00342696 -0.00354205 -0.00363913 -0.00371617 -0.00377111 -0.00380395 -0.0038147 -0.00380337 -0.00376995 -0.00371446 -0.00363689 -0.0035393 -0.00342376 -0.00329025 -0.00313879 -0.00297283 -0.00279581 -0.00260774 -0.00240861 -0.0022023 -0.00199266 -0.00177971 -0.00156343 -0.00134727 -0.00113467 -0.000925637 -0.000720164 -0.000520832 -0.000330221 -0.000148332 2.48369e-05 0.000187644 0.000338448 0.000477249 0.000604049 0.000718094 0.000818633 0.000905667 0.000979195 0.00103936 0.0010863 0.00112001 0.00114051 0.00114884 0.00114608 0.00113222 0.00110727 0.0010731 0.00103158 0.000982707 0.000926485 0.000865218 0.000801208 0.000734456 0.000664961 0.000594926 0.000526553 0.00045984 0.000394789 0.000333023 0.000276167 0.00022422 0.000177182 0.000135421 9.93051e-05 6.8834e-05 4.40077e-05 2.47543e-05 1.10019e-05 2.75048e-06 0 0 3.71528e-06 1.48611e-05 3.34375e-05 5.94445e-05 9.25653e-05 0.000132483 0.000179198 0.000232709 0.000292369 0.000357528 0.000428187 0.000504345 0.000583849 0.000664545 0.000746433 0.000829514 0.000911001 0.000988107 0.00106083 0.00112918 0.00119031 0.00124139 0.00128244 0.00131344 0.00133217 0.00133639 0.00132609 0.0013013 0.00126079 0.00120336 0.00112903 0.00103778 0.000929558 0.000804299 0.000662005 0.000502676 0.000327339 0.000137024 -6.82681e-05 -0.000288539 -0.000521659 -0.000765502 -0.00102007 -0.00128535 -0.00155805 -0.00183484 -0.00211572 -0.00240069 -0.00268533 -0.00296523 -0.00324037 -0.00351077 -0.00377144 -0.00401743 -0.00424871 -0.00446531 -0.00466278 -0.00483668 -0.00498702 -0.00511379 -0.00521435 -0.00528607 -0.00532895 -0.00534298 -0.00532817 -0.00528454 -0.00521209 -0.00511082 -0.00498338 -0.00483243 -0.00465797 -0.00446001 -0.00424299 -0.00401136 -0.00376511 -0.00350426 -0.00323376 -0.0029586 -0.00267877 -0.00239427 -0.00210952 -0.00182893 -0.0015525 -0.00128023 -0.00101541 -0.00076136 -0.000518068 -0.000285537 -6.58773e-05 0.000138798 0.000328491 0.000503199 0.000661911 0.000803612 0.000928303 0.00103598 0.00112673 0.0012006 0.00125762 0.00129777 0.00132226 0.0013323 0.00132789 0.00130903 0.00127795 0.00123688 0.00118582 0.00112478 0.00105656 0.00098401 0.000907112 0.00082587 0.000743061 0.000661459 0.000581064 0.000501876 0.000426036 0.000355684 0.000290821 0.000231447 0.000178203 0.000131729 9.2026e-05 5.90937e-05 3.32402e-05 1.47734e-05 3.69336e-06 0 0 4.81949e-06 1.9278e-05 4.33754e-05 7.71119e-05 0.000119593 0.000169923 0.000228103 0.000294132 0.000366977 0.000445605 0.000530014 0.000620205 0.00071342 0.000806901 0.000900647 0.000994659 0.00108554 0.00116989 0.00124771 0.00131901 0.00138044 0.00142866 0.00146369 0.00148551 0.00149159 0.00147939 0.00144892 0.00140016 0.00133186 0.00124272 0.00113275 0.00100195 0.00085039 0.000678135 0.000485185 0.000271541 3.8537e-05 -0.000212492 -0.000481547 -0.000768626 -0.0010711 -0.00138632 -0.00171429 -0.00205502 -0.00240442 -0.00275839 -0.00311693 -0.00348005 -0.00384227 -0.0041981 -0.00454755 -0.00489061 -0.0052211 -0.00553282 -0.00582577 -0.00609996 -0.00634983 -0.00656985 -0.00676001 -0.00692031 -0.00704744 -0.00713811 -0.00719231 -0.00721004 -0.00719132 -0.00713615 -0.00704455 -0.0069165 -0.00675534 -0.00656439 -0.00634366 -0.00609314 -0.00581839 -0.00552498 -0.00521289 -0.00488214 -0.00453892 -0.00418941 -0.00383362 -0.00347155 -0.00310867 -0.00275045 -0.00239689 -0.00204798 -0.00170781 -0.00138044 -0.00106587 -0.000764114 -0.000477774 -0.000209471 4.07962e-05 0.000273027 0.000485905 0.000678115 0.000849657 0.00100053 0.00113068 0.00124006 0.00132866 0.00139649 0.00144482 0.00147495 0.00148686 0.00148057 0.00145861 0.00142351 0.00137527 0.0013139 0.00124273 0.00116507 0.00108093 0.000990316 0.000896605 0.000803181 0.000710045 0.000617196 0.000527378 0.000443332 0.00036506 0.000292561 0.000226858 0.000168974 0.000118911 7.66674e-05 4.31254e-05 1.91669e-05 4.79172e-06 0 0 6.08425e-06 2.4337e-05 5.47582e-05 9.73479e-05 0.000150396 0.000212194 0.00028274 0.000362034 0.000448517 0.000540627 0.000638365 0.000741729 0.000847262 0.000951503 0.00105445 0.00115611 0.00125245 0.00133945 0.0014171 0.00148541 0.00154058 0.00157882 0.00160013 0.00160452 0.00158924 0.00155154 0.00149142 0.00140889 0.0013027 0.00117161 0.00101562 0.000834727 0.000629208 0.000399342 0.000145129 -0.000133432 -0.000434662 -0.000756882 -0.00110009 -0.0014643 -0.00184633 -0.00224304 -0.00265443 -0.0030805 -0.00351636 -0.00395713 -0.00440279 -0.00485337 -0.00530225 -0.00574283 -0.00617512 -0.00659912 -0.0070073 -0.00739217 -0.0077537 -0.00809192 -0.00840004 -0.00867132 -0.00890574 -0.0091033 -0.00925997 -0.0093717 -0.00943848 -0.00946033 -0.00943725 -0.00936926 -0.00925636 -0.00909855 -0.00889991 -0.00866449 -0.00839231 -0.00808336 -0.00774443 -0.00738229 -0.00699694 -0.00658839 -0.00616415 -0.00573174 -0.00529116 -0.0048424 -0.00439207 -0.00394674 -0.00350642 -0.00307111 -0.00264567 -0.00223498 -0.00183903 -0.00145781 -0.00109448 -0.000752157 -0.000430843 -0.000130539 0.000147098 0.000400413 0.000629405 0.000834075 0.00101416 0.00116941 0.00129981 0.00140538 0.00148735 0.00154699 0.0015843 0.00159927 0.00159465 0.00157318 0.00153486 0.0014797 0.00141147 0.00133396 0.00124717 0.0011511 0.00104975 0.00094715 0.000843287 0.000738164 0.000635223 0.000537903 0.000446206 0.00036013 0.000281222 0.000211032 0.000149557 9.67995e-05 5.44497e-05 2.41999e-05 6.04997e-06 0 0 7.50954e-06 3.00382e-05 6.75859e-05 0.000120153 0.000184976 0.000259295 0.000343108 0.000436416 0.000536989 0.000642597 0.00075324 0.000868917 0.000985374 0.00109835 0.00120785 0.00131388 0.00141175 0.00149678 0.00156899 0.00162837 0.00167072 0.00169186 0.00169178 0.00167048 0.00162511 0.00155283 0.00145362 0.00132748 0.00117333 0.000990048 0.00077764 0.000536106 0.000266012 -3.20781e-05 -0.000358163 -0.000712242 -0.00109226 -0.00149615 -0.00192391 -0.00237555 -0.00284737 -0.00333568 -0.00384049 -0.00436179 -0.00489388 -0.00543105 -0.0059733 -0.00652063 -0.00706527 -0.00759942 -0.00812309 -0.00863628 -0.00913005 -0.00959546 -0.0100325 -0.0104412 -0.0108134 -0.0111411 -0.0114242 -0.0116628 -0.0118519 -0.0119868 -0.0120675 -0.0120938 -0.012066 -0.0119839 -0.0118475 -0.011657 -0.0114171 -0.0111327 -0.0108039 -0.0104307 -0.0100211 -0.00958328 -0.00911725 -0.00862299 -0.00810945 -0.00758558 -0.00705137 -0.00650683 -0.00595972 -0.00541781 -0.00488111 -0.00434961 -0.00382901 -0.00332498 -0.00283752 -0.00236664 -0.001916 -0.00148926 -0.00108643 -0.000707499 -0.000354509 -2.94939e-05 0.000267548 0.000536616 0.000777165 0.000988653 0.00117108 0.00132444 0.00144986 0.00154844 0.00162019 0.00166512 0.00168606 0.00168589 0.00166459 0.00162217 0.00156281 0.0014907 0.00140583 0.00130822 0.00120251 0.00109337 0.000980791 0.000864781 0.000749572 0.000639397 0.000534258 0.000434153 0.000341297 0.000257901 0.000183965 0.00011949 6.7213e-05 2.98724e-05 7.46811e-06 0 0 9.09538e-06 3.63815e-05 8.18584e-05 0.000145526 0.000223333 0.000311227 0.000409208 0.000517277 0.000632393 0.000751513 0.000874639 0.00100177 0.00112776 0.00124745 0.00136085 0.00146795 0.00156341 0.00164189 0.00170339 0.0017479 0.00177088 0.00176779 0.00173863 0.00168339 0.00159922 0.00148325 0.00133549 0.00115594 0.000943732 0.000698023 0.000418808 0.00010609 -0.0002392 -0.000616127 -0.00102469 -0.00146489 -0.00193425 -0.00243028 -0.00295299 -0.00350238 -0.0040742 -0.00466423 -0.00527246 -0.00589889 -0.00653697 -0.00718016 -0.00782845 -0.00848185 -0.00913133 -0.00976787 -0.0103915 -0.0110021 -0.0115893 -0.0121427 -0.0126622 -0.0131478 -0.0135899 -0.0139792 -0.0143154 -0.0145987 -0.0148233 -0.0149835 -0.0150793 -0.0151106 -0.0150775 -0.01498 -0.0148181 -0.0145918 -0.0143069 -0.0139691 -0.0135785 -0.0131351 -0.0126484 -0.012128 -0.0115738 -0.010986 -0.0103748 -0.00975094 -0.00911427 -0.00846482 -0.00781161 -0.00716366 -0.00652095 -0.00588349 -0.00525781 -0.00465044 -0.00406136 -0.00349059 -0.00294232 -0.00242078 -0.00192596 -0.00145785 -0.00101892 -0.000611605 -0.000235915 0.000108153 0.000419691 0.00069779 0.000942451 0.00115367 0.00133233 0.00147929 0.00159455 0.00167812 0.00173286 0.00176164 0.00176445 0.00174131 0.00169673 0.00163527 0.00155692 0.00146167 0.00135487 0.00124183 0.00112256 0.000997046 0.000870423 0.000747813 0.000629216 0.000514632 0.000407081 0.000309581 0.000222134 0.000144738 8.14153e-05 3.61846e-05 9.04615e-06 0 0 1.08082e-05 4.32327e-05 9.72736e-05 0.000172931 0.000264619 0.000366753 0.000479332 0.000602358 0.000731822 0.000863721 0.000998054 0.00113482 0.00126789 0.00139115 0.00150459 0.00160821 0.00169601 0.00176202 0.00180623 0.00182865 0.00182448 0.00178895 0.00172206 0.00162381 0.0014915 0.00132242 0.00111658 0.000873969 0.000594144 0.000276651 -7.85095e-05 -0.000471338 -0.000900441 -0.00136443 -0.00186329 -0.00239704 -0.00296277 -0.00355756 -0.00418143 -0.00483437 -0.00551165 -0.00620855 -0.00692507 -0.00766122 -0.00840965 -0.00916307 -0.00992145 -0.0106848 -0.0114429 -0.0121855 -0.0129126 -0.0136241 -0.0143082 -0.0149526 -0.0155575 -0.0161229 -0.0166376 -0.0170907 -0.0174821 -0.0178119 -0.0180733 -0.0182597 -0.0183712 -0.0184076 -0.0183691 -0.0182556 -0.0180671 -0.0178037 -0.017472 -0.0170789 -0.0166242 -0.0161079 -0.0155413 -0.0149352 -0.0142898 -0.0136049 -0.0128927 -0.0121653 -0.0114224 -0.0106643 -0.00990108 -0.009143 -0.00839007 -0.00764227 -0.00690692 -0.0061913 -0.00549543 -0.00481929 -0.00416759 -0.00354502 -0.00295158 -0.00238727 -0.00185496 -0.00135753 -0.000894974 -0.000467294 -7.58544e-05 0.000277983 0.000594217 0.000872849 0.00111435 0.00131919 0.00148738 0.00161891 0.00171649 0.00178283 0.00181795 0.00182182 0.00179924 0.00175498 0.00168902 0.00160138 0.00149803 0.00138494 0.0012621 0.00112952 0.000993291 0.000859515 0.000728191 0.000599318 0.000476875 0.000364843 0.000263222 0.000172011 9.67563e-05 4.30028e-05 1.07507e-05 0 0 1.26144e-05 5.04575e-05 0.000113529 0.00020183 0.000307989 0.000424636 0.000551772 0.000689396 0.000832372 0.000975565 0.00111897 0.0012626 0.00139927 0.00152181 0.00163023 0.00172452 0.00179811 0.00184443 0.00186348 0.00185526 0.00181493 0.00173767 0.00162345 0.0014723 0.00128189 0.00104993 0.000776393 0.000461296 0.000104795 -0.000292953 -0.000731949 -0.00121219 -0.00173173 -0.0022886 -0.00288281 -0.00351436 -0.00417994 -0.00487626 -0.00560331 -0.00636109 -0.00714453 -0.00794852 -0.00877308 -0.0096182 -0.010476 -0.0113384 -0.0122055 -0.0130773 -0.0139424 -0.0147896 -0.0156187 -0.0164299 -0.0172095 -0.017944 -0.0186334 -0.0192777 -0.0198643 -0.0203807 -0.0208269 -0.0212029 -0.021501 -0.0217135 -0.0218406 -0.0218821 -0.0218381 -0.0217087 -0.0214939 -0.0211935 -0.0208154 -0.0203672 -0.0198489 -0.0192605 -0.0186146 -0.0179238 -0.0171881 -0.0164076 -0.0155957 -0.014766 -0.0139185 -0.0130532 -0.0121814 -0.0113146 -0.0104526 -0.00959547 -0.00875115 -0.00792752 -0.0071246 -0.00634239 -0.00558593 -0.00486028 -0.00416545 -0.00350142 -0.00287148 -0.00227888 -0.00172362 -0.00120571 -0.000727066 -0.000289608 0.000106662 0.000461746 0.00077551 0.00104782 0.00127869 0.0014681 0.00161839 0.00173187 0.00180856 0.00184844 0.00185635 0.00183712 0.00179076 0.00171727 0.00162319 0.00151507 0.00139293 0.00125676 0.00111369 0.000970866 0.000828291 0.000685961 0.000548982 0.000422458 0.000306389 0.000200774 0.000112935 5.01935e-05 1.25484e-05 0 0 1.45139e-05 5.80557e-05 0.000130625 0.000232223 0.000353442 0.000484877 0.000626527 0.000778393 0.000934043 0.00108705 0.0012374 0.00138511 0.00152189 0.00163944 0.00173777 0.00181689 0.0018697 0.00188911 0.00187512 0.00182774 0.00174225 0.00161394 0.00144281 0.00122886 0.000970409 0.000665767 0.000314936 -8.20818e-05 -0.000524315 -0.00101079 -0.00154151 -0.00211647 -0.00273305 -0.00338864 -0.00408324 -0.00481683 -0.00558577 -0.00638637 -0.00721863 -0.00808256 -0.00897283 -0.00988414 -0.0108165 -0.0117699 -0.0127359 -0.0137061 -0.0146806 -0.0156593 -0.0166299 -0.0175801 -0.0185099 -0.0194193 -0.0202932 -0.0211167 -0.0218897 -0.0226122 -0.0232702 -0.0238494 -0.0243499 -0.0247718 -0.0251063 -0.0253448 -0.0254874 -0.025534 -0.0254847 -0.0253394 -0.0250983 -0.0247612 -0.0243369 -0.0238341 -0.0232527 -0.0225928 -0.0218684 -0.0210938 -0.020269 -0.0193939 -0.0184836 -0.0175531 -0.0166024 -0.0156315 -0.0146527 -0.0136784 -0.0127085 -0.0117431 -0.0107905 -0.0098591 -0.00894889 -0.00805988 -0.00719734 -0.00636657 -0.00556756 -0.00480032 -0.00406847 -0.00337565 -0.00272186 -0.00210709 -0.00153394 -0.00100498 -0.000520215 -7.96381e-05 0.000315807 0.00066518 0.00096848 0.00122571 0.00143857 0.00160876 0.00173628 0.00182114 0.00186805 0.00188171 0.00186214 0.00180932 0.00173033 0.00163225 0.00151505 0.00137876 0.00123161 0.00108187 0.000929515 0.000774562 0.000623401 0.000482424 0.000351633 0.000231027 0.000129953 5.77568e-05 1.44392e-05 0 0 1.65069e-05 6.60276e-05 0.000148562 0.00026411 0.000400979 0.000547475 0.000703598 0.000869348 0.00103683 0.00119816 0.00135333 0.00150235 0.00163574 0.00174403 0.00182722 0.00188532 0.00191078 0.00189606 0.00184116 0.00174609 0.00160644 0.00141779 0.00118014 0.0008935 0.000557042 0.000169946 -0.00026779 -0.000756165 -0.00129319 -0.00187686 -0.00250719 -0.00318417 -0.00390442 -0.00466456 -0.00546458 -0.00630448 -0.00718025 -0.00808789 -0.00902739 -0.00999875 -0.0109966 -0.0120154 -0.0130553 -0.0141162 -0.0151894 -0.0162662 -0.0173467 -0.0184308 -0.0195054 -0.0205572 -0.0215862 -0.0225925 -0.0235595 -0.0244709 -0.0253265 -0.0261265 -0.0268551 -0.0274966 -0.0280511 -0.0285186 -0.0288893 -0.0291537 -0.0293117 -0.0293634 -0.0293087 -0.0291477 -0.0288804 -0.0285068 -0.0280367 -0.0274796 -0.0268356 -0.0261048 -0.0253028 -0.0244453 -0.0235323 -0.0225639 -0.0215565 -0.0205265 -0.0194741 -0.0183991 -0.0173148 -0.0162344 -0.0151579 -0.0140852 -0.013025 -0.011986 -0.0109683 -0.00997176 -0.00900183 -0.00806388 -0.00715792 -0.00628394 -0.00544593 -0.00464784 -0.00388968 -0.00317145 -0.00249649 -0.00186814 -0.00128641 -0.000751302 -0.000264759 0.000171259 0.000556754 0.000891724 0.00117702 0.00141349 0.00160113 0.00173994 0.00183434 0.00188874 0.00190314 0.00187755 0.00181948 0.00173645 0.00162847 0.00149553 0.00134707 0.00119251 0.00103187 0.000865122 0.000700132 0.000544743 0.000398956 0.00026277 0.000147808 6.56926e-05 1.64231e-05 0 0 1.85308e-05 7.4123e-05 0.000166777 0.000296492 0.000449067 0.000610299 0.00078019 0.000958737 0.00113644 0.00130381 0.00146083 0.00160751 0.00173317 0.00182713 0.00188938 0.00191994 0.00191094 0.00185452 0.0017507 0.00159946 0.00139698 0.00113941 0.000826749 0.000459004 3.65296e-05 -0.000440316 -0.000971532 -0.00155712 -0.00219381 -0.00287833 -0.00361069 -0.00439088 -0.00521465 -0.00607775 -0.00698019 -0.00792197 -0.00889882 -0.00990651 -0.010945 -0.0120144 -0.0131093 -0.0142245 -0.01536 -0.0165159 -0.0176833 -0.0188537 -0.020027 -0.0212033 -0.0223688 -0.0235096 -0.0246257 -0.0257173 -0.0267665 -0.0277556 -0.0286846 -0.0295535 -0.0303452 -0.0310425 -0.0316453 -0.0321538 -0.0325572 -0.0328448 -0.0330168 -0.033073 -0.0330135 -0.0328383 -0.0325475 -0.032141 -0.0316296 -0.0310239 -0.030324 -0.0295298 -0.0286586 -0.0277275 -0.0267366 -0.0256858 -0.0245929 -0.0234756 -0.022334 -0.021168 -0.0199914 -0.018818 -0.0176477 -0.0164807 -0.0153255 -0.0141908 -0.0130766 -0.011983 -0.010915 -0.0098781 -0.00887214 -0.00789716 -0.00695737 -0.00605699 -0.00519601 -0.00437443 -0.00359646 -0.00286631 -0.00218397 -0.00154944 -0.000965946 -0.000436715 3.82562e-05 0.000458966 0.000825092 0.00113631 0.00139262 0.00159402 0.00174436 0.00184749 0.00190341 0.00191212 0.00188146 0.00181927 0.00172554 0.00160029 0.00145414 0.00129773 0.00113106 0.000954133 0.000776394 0.000607294 0.000446832 0.000295009 0.000165942 7.37522e-05 1.84381e-05 0 0 2.05231e-05 8.20922e-05 0.000184707 0.000328369 0.000496174 0.000671221 0.000853509 0.00104304 0.00122857 0.00139887 0.00155394 0.00169377 0.00180651 0.00188027 0.00191506 0.00191088 0.00185976 0.00175374 0.00159282 0.001377 0.00110338 0.000769028 0.000373961 -8.18258e-05 -0.000596391 -0.00116779 -0.00179604 -0.00248111 -0.00321818 -0.00400237 -0.0048337 -0.00571215 -0.00663253 -0.00758963 -0.00858345 -0.00961398 -0.0106769 -0.0117679 -0.012887 -0.0140341 -0.0152046 -0.0163937 -0.0176014 -0.0188277 -0.0200645 -0.0213035 -0.0225447 -0.0237882 -0.02502 -0.0262262 -0.0274067 -0.0285616 -0.0296723 -0.0307199 -0.0317046 -0.0326263 -0.0334666 -0.034207 -0.0348475 -0.035388 -0.0358171 -0.0361231 -0.0363059 -0.0363657 -0.0363025 -0.0361162 -0.0358069 -0.0353745 -0.0348308 -0.0341873 -0.0334441 -0.0326011 -0.0316769 -0.0306899 -0.0296403 -0.0285278 -0.0273714 -0.0261895 -0.0249823 -0.0237498 -0.0225058 -0.0212642 -0.0200252 -0.0187887 -0.0175629 -0.0163559 -0.0151677 -0.0139984 -0.0128527 -0.0117351 -0.0106459 -0.00958482 -0.00855632 -0.00756463 -0.00660977 -0.00569172 -0.00481564 -0.00398671 -0.0032049 -0.00247024 -0.00178751 -0.00116152 -0.000592265 -7.97496e-05 0.00037413 0.000767476 0.00110029 0.00137257 0.00158724 0.00174724 0.00185256 0.00190321 0.00190713 0.00187227 0.00179865 0.00168625 0.0015469 0.00139242 0.00122282 0.00103809 0.000849408 0.000667958 0.000493738 0.000326749 0.000183796 8.16871e-05 2.04218e-05 0 0 2.24838e-05 8.99351e-05 0.000202354 0.000359741 0.0005423 0.000730238 0.000923555 0.00112225 0.00131322 0.00148336 0.00163267 0.00176115 0.00185576 0.00190346 0.00190425 0.00185814 0.00175725 0.00159372 0.00136754 0.00107872 0.000725628 0.000306648 -0.000178225 -0.00072899 -0.00134172 -0.00201249 -0.0027413 -0.00352815 -0.00436629 -0.00524898 -0.00617622 -0.007148 -0.00815808 -0.00920019 -0.0102743 -0.0113805 -0.0125145 -0.0136721 -0.0148532 -0.0160579 -0.0172824 -0.0185229 -0.0197793 -0.0210517 -0.0223328 -0.0236155 -0.0248997 -0.0261854 -0.0274591 -0.028707 -0.0299292 -0.0311256 -0.0322769 -0.0333639 -0.0343866 -0.035345 -0.0362193 -0.0369902 -0.0376575 -0.0382213 -0.038669 -0.0389883 -0.0391792 -0.0392416 -0.0391756 -0.0389812 -0.0386584 -0.0382073 -0.0376402 -0.0369697 -0.0361959 -0.0353187 -0.0343577 -0.0333326 -0.0322434 -0.03109 -0.0298919 -0.0286683 -0.0274191 -0.0261445 -0.024858 -0.0235733 -0.0222904 -0.0210093 -0.0197372 -0.0184813 -0.0172416 -0.0160182 -0.0148147 -0.013635 -0.0124791 -0.0113469 -0.0102428 -0.00917077 -0.00813095 -0.0071233 -0.00615402 -0.00522933 -0.00434923 -0.0035137 -0.00272945 -0.00200315 -0.00133481 -0.000724424 -0.000175866 0.000306989 0.000724141 0.00107559 0.00136299 0.001588 0.0017506 0.00185081 0.00189648 0.00189547 0.00184778 0.00175342 0.00162536 0.0014766 0.00130715 0.00111699 0.000919173 0.000726734 0.000539673 0.000357989 0.000201369 8.94973e-05 2.23743e-05 0 0 2.44129e-05 9.76518e-05 0.000219717 0.000390607 0.000587445 0.000787352 0.000990329 0.00119637 0.00139039 0.00155727 0.00169701 0.00180963 0.00188092 0.0018967 0.00185697 0.00176172 0.0016034 0.00137444 0.00107484 0.000704601 0.000263736 -0.000247734 -0.000829809 -0.00148249 -0.00219946 -0.0029744 -0.00380732 -0.00469822 -0.00563815 -0.00661816 -0.00763825 -0.00869843 -0.00979129 -0.0109094 -0.0120529 -0.0132216 -0.0144116 -0.015619 -0.0168437 -0.0180858 -0.0193428 -0.0206121 -0.0218938 -0.0231878 -0.0244884 -0.0257898 -0.027092 -0.0283951 -0.0296861 -0.0309521 -0.0321931 -0.0334091 -0.0345804 -0.0356876 -0.0367306 -0.0377094 -0.0386034 -0.0393921 -0.0400754 -0.0406535 -0.041113 -0.0414407 -0.0416366 -0.0417007 -0.0416329 -0.0414335 -0.0411023 -0.0406393 -0.0400579 -0.0393713 -0.0385795 -0.0376826 -0.036701 -0.0356555 -0.0345459 -0.0333724 -0.0321545 -0.0309118 -0.0296443 -0.0283521 -0.0270481 -0.0257451 -0.0244432 -0.0231424 -0.0218485 -0.0205671 -0.0192983 -0.0180422 -0.0168011 -0.0155776 -0.0143717 -0.0131835 -0.0120167 -0.0108754 -0.00975956 -0.00866918 -0.00761161 -0.00659419 -0.00561693 -0.00467983 -0.00379177 -0.00296162 -0.00218938 -0.00147506 -0.000824898 -0.000245154 0.000264