<?xml version="1.0"?> 
<VTKFile type="StructuredGrid" version="0.1"> 
<StructuredGrid WholeExtent="0 128 0 128 0 0"> 
<Piece Extent="0 128 0 128 0 0"> 
<PointData>
<DataArray type="Float32" Name="u" format="ascii" NumberOfComponents="1"> 
0 0 0 0 0 0 0 0 0 0 0 0 0 0 0 0 0 0 0 0 0 0 0 0 0 0 0 0 0 0 0 0 0 0 0 0 0 0 0 0 0 0 0 0 0 0 0 0 0 0 0 0 0 0 0 0 0 0 0 0 0 0 0 0 0 0 0 0 0 0 0 0 0 0 0 0 0 0 0 0 0 0 0 0 0 0 0 0 0 0 0 0 0 0 0 0 0 0 0 0 0 0 0 0 0 0 0 0 0 0 0 0 0 0 0 0 0 0 0 0 0 0 0 0 0 0 0 0 0 0 -3.01739e-07 -1.20696e-06 -2.71565e-06 -4.82783e-06 -7.48458e-06 -1.0627e-05 -1.42551e-05 -1.83689e-05 -2.29218e-05 -2.78672e-05 -3.32051e-05 -3.89356e-05 -4.49603e-05 -5.11813e-05 -5.75985e-05 -6.42118e-05 -7.09339e-05 -7.76775e-05 -8.44424e-05 -9.12288e-05 -9.79627e-05 -0.00010457 -0.000111051 -0.000117406 -0.000123574 -0.000129495 -0.000135168 -0.000140594 -0.000145728 -0.000150526 -0.000154987 -0.000159112 -0.000162878 -0.000166261 -0.00016926 -0.000171877 -0.000174112 -0.000175969 -0.000177446 -0.000178544 -0.000179292 -0.000179717 -0.00017982 -0.000179601 -0.00017911 -0.000178399 -0.000177468 -0.000176317 -0.000175011 -0.000173615 -0.000172129 -0.000170553 -0.000168953 -0.000167396 -0.00016588 -0.000164408 -0.000163031 -0.000161805 -0.000160729 -0.000159803 -0.000159056 -0.00015852 -0.000158193 -0.000158076 -0.000158167 -0.000158468 -0.000158976 -0.000159693 -0.000160587 -0.000161627 -0.000162814 -0.000164147 -0.000165572 -0.000167034 -0.000168534 -0.000170071 -0.00017158 -0.000172994 -0.000174313 -0.000175538 -0.000176604 -0.000177447 -0.000178067 -0.000178465 -0.00017859 -0.000178393 -0.000177874 -0.000177034 -0.000175845 -0.000174281 -0.000172343 -0.000170029 -0.00016734 -0.000164276 -0.000160836 -0.000157021 -0.000152856 -0.000148365 -0.000143547 -0.000138404 -0.00013298 -0.00012732 -0.000121424 -0.000115292 -0.000108984 -0.00010256 -9.6021e-05 -8.93662e-05 -8.26683e-05 -7.59996e-05 -6.93602e-05 -6.27501e-05 -5.62542e-05 -4.99573e-05 -4.38594e-05 -3.79604e-05 -3.23551e-05 -2.71379e-05 -2.23089e-05 -1.78681e-05 -1.38592e-05 -1.03261e-05 -7.26881e-06 -4.68728e-06 -2.6366e-06 -1.17182e-06 -2.92955e-07 0 0 -1.20696e-06 -4.82783e-06 -1.08626e-05 -1.93113e-05 -2.99383e-05 -4.2508e-05 -5.70205e-05 -7.34757e-05 -9.16872e-05 -0.000111469 -0.000132821 -0.000155742 -0.000179841 -0.000204725 -0.000230394 -0.000256847 -0.000283736 -0.00031071 -0.00033777 -0.000364915 -0.000391851 -0.000418281 -0.000444206 -0.000469626 -0.000494298 -0.00051798 -0.000540673 -0.000562376 -0.000582912 -0.000602102 -0.000619948 -0.000636449 -0.000651512 -0.000665042 -0.000677041 -0.000687508 -0.00069645 -0.000703876 -0.000709785 -0.000714178 -0.000717168 -0.000718869 -0.00071928 -0.000718402 -0.000716439 -0.000713596 -0.000709873 -0.000705269 -0.000700046 -0.000694461 -0.000688517 -0.000682212 -0.000675812 -0.000669582 -0.000663522 -0.000657631 -0.000652125 -0.00064722 -0.000642915 -0.00063921 -0.000636225 -0.000634079 -0.000632771 -0.000632303 -0.00063267 -0.000633871 -0.000635904 -0.000638771 -0.000642348 -0.000646509 -0.000651256 -0.000656588 -0.000662288 -0.000668137 -0.000674136 -0.000680286 -0.00068632 -0.000691976 -0.000697253 -0.000702151 -0.000706415 -0.000709787 -0.000712268 -0.000713858 -0.000714359 -0.000713572 -0.000711498 -0.000708136 -0.00070338 -0.000697125 -0.00068937 -0.000680115 -0.00066936 -0.000657103 -0.000643345 -0.000628086 -0.000611424 -0.000593459 -0.00057419 -0.000553617 -0.00053192 -0.00050928 -0.000485695 -0.000461167 -0.000435935 -0.000410241 -0.000384084 -0.000357465 -0.000330673 -0.000303998 -0.000277441 -0.000251001 -0.000225017 -0.000199829 -0.000175437 -0.000151842 -0.00012942 -0.000108552 -8.92356e-05 -7.14723e-05 -5.54368e-05 -4.13045e-05 -2.90753e-05 -1.87491e-05 -1.05464e-05 -4.68728e-06 -1.17182e-06 0 0 -2.71565e-06 -1.08626e-05 -2.44409e-05 -4.34504e-05 -6.73612e-05 -9.56431e-05 -0.000128296 -0.00016532 -0.000206296 -0.000250805 -0.000298846 -0.00035042 -0.000404643 -0.000460632 -0.000518386 -0.000577906 -0.000638405 -0.000699097 -0.000759982 -0.000821059 -0.000881664 -0.000941132 -0.000999463 -0.00105666 -0.00111217 -0.00116546 -0.00121651 -0.00126535 -0.00131155 -0.00135473 -0.00139488 -0.00143201 -0.0014659 -0.00149635 -0.00152334 -0.00154689 -0.00156701 -0.00158372 -0.00159702 -0.0016069 -0.00161363 -0.00161745 -0.00161838 -0.0016164 -0.00161199 -0.00160559 -0.00159721 -0.00158686 -0.0015751 -0.00156254 -0.00154916 -0.00153498 -0.00152058 -0.00150656 -0.00149292 -0.00147967 -0.00146728 -0.00145625 -0.00144656 -0.00143822 -0.00143151 -0.00142668 -0.00142374 -0.00142268 -0.00142351 -0.00142621 -0.00143078 -0.00143724 -0.00144528 -0.00145465 -0.00146533 -0.00147732 -0.00149015 -0.00150331 -0.00151681 -0.00153064 -0.00154422 -0.00155695 -0.00156882 -0.00157984 -0.00158943 -0.00159702 -0.0016026 -0.00160618 -0.00160731 -0.00160554 -0.00160087 -0.00159331 -0.00158261 -0.00156853 -0.00155108 -0.00153026 -0.00150606 -0.00147848 -0.00144753 -0.00141319 -0.0013757 -0.00133528 -0.00129193 -0.00124564 -0.00119682 -0.00114588 -0.00109281 -0.00103762 -0.000980853 -0.000923041 -0.000864189 -0.000804296 -0.000744014 -0.000683996 -0.000624242 -0.000564751 -0.000506288 -0.000449616 -0.000394734 -0.000341644 -0.000291196 -0.000244241 -0.00020078 -0.000160813 -0.000124733 -9.29351e-05 -6.54193e-05 -4.21855e-05 -2.37294e-05 -1.05464e-05 -2.6366e-06 0 0 -4.82783e-06 -1.93113e-05 -4.34504e-05 -7.72452e-05 -0.000119753 -0.000170032 -0.000228082 -0.000293903 -0.000366749 -0.000445875 -0.000531282 -0.000622969 -0.000719366 -0.000818901 -0.000921575 -0.00102739 -0.00113494 -0.00124284 -0.00135108 -0.00145966 -0.0015674 -0.00167312 -0.00177682 -0.0018785 -0.00197719 -0.00207192 -0.00216269 -0.0022495 -0.00233165 -0.00240841 -0.00247979 -0.0025458 -0.00260605 -0.00266017 -0.00270816 -0.00275003 -0.0027858 -0.0028155 -0.00283914 -0.00285671 -0.00286867 -0.00287547 -0.00287712 -0.00287361 -0.00286576 -0.00285439 -0.00283949 -0.00282108 -0.00280018 -0.00277785 -0.00275407 -0.00272885 -0.00270325 -0.00267833 -0.00265409 -0.00263052 -0.0026085 -0.00258888 -0.00257166 -0.00255684 -0.0025449 -0.00253632 -0.00253109 -0.00252921 -0.00253068 -0.00253548 -0.00254362 -0.00255509 -0.00256939 -0.00258604 -0.00260502 -0.00262635 -0.00264915 -0.00267255 -0.00269655 -0.00272114 -0.00274528 -0.0027679 -0.00278901 -0.00280861 -0.00282566 -0.00283915 -0.00284907 -0.00285543 -0.00285743 -0.00285429 -0.00284599 -0.00283254 -0.00281352 -0.0027885 -0.00275748 -0.00272046 -0.00267744 -0.00262841 -0.00257338 -0.00251234 -0.0024457 -0.00237383 -0.00229676 -0.00221447 -0.00212768 -0.00203712 -0.00194278 -0.00184467 -0.00174374 -0.00164096 -0.00153634 -0.00142986 -0.00132269 -0.00121599 -0.00110976 -0.001004 -0.000900067 -0.000799317 -0.00070175 -0.000607367 -0.000517681 -0.000434207 -0.000356943 -0.000285889 -0.000221747 -0.000165218 -0.000116301 -7.49965e-05 -4.21855e-05 -1.87491e-05 -4.68728e-06 0 0 -7.47784e-06 -2.99113e-05 -6.73005e-05 -0.000119645 -0.000185364 -0.000262876 -0.000352179 -0.000453275 -0.000565007 -0.000686217 -0.000816905 -0.000957071 -0.00110431 -0.00125622 -0.00141279 -0.00157404 -0.0017378 -0.00190195 -0.00206647 -0.00223137 -0.00239484 -0.00255506 -0.00271202 -0.00286574 -0.00301472 -0.00315748 -0.00329402 -0.00342435 -0.00354738 -0.00366204 -0.00376831 -0.00386621 -0.00395518 -0.00403465 -0.00410464 -0.00416514 -0.00421622 -0.00425796 -0.00429035 -0.00431341 -0.00432784 -0.00433439 -0.00433304 -0.00432381 -0.00430798 -0.00428684 -0.00426038 -0.00422861 -0.00419315 -0.00415564 -0.00411607 -0.00407443 -0.0040324 -0.00399161 -0.00395208 -0.00391379 -0.00387809 -0.00384632 -0.00381849 -0.00379459 -0.00377536 -0.00376155 -0.00375315 -0.00375017 -0.00375259 -0.00376038 -0.00377356 -0.00379213 -0.0038153 -0.00384231 -0.00387315 -0.00390783 -0.003945 -0.00398328 -0.0040227 -0.00406323 -0.00410324 -0.00414108 -0.00417674 -0.00421022 -0.00423993 -0.00426425 -0.00428318 -0.00429674 -0.00430366 -0.0043027 -0.00429387 -0.00427715 -0.00425186 -0.00421734 -0.00417356 -0.00412055 -0.00405826 -0.00398667 -0.00390577 -0.00381557 -0.00371666 -0.00360962 -0.00349446 -0.00337117 -0.00324085 -0.00310459 -0.0029624 -0.00281426 -0.00266167 -0.00250608 -0.00234751 -0.00218596 -0.00202319 -0.001861 -0.00169938 -0.00153833 -0.00137994 -0.00122629 -0.00107738 -0.000933205 -0.000796088 -0.000668346 -0.000549978 -0.000440985 -0.000342456 -0.00025548 -0.000180057 -0.000116187 -6.53553e-05 -2.90468e-05 -7.2617e-06 0 0 -1.06e-05 -4.24002e-05 -9.54004e-05 -0.000169601 -0.000262444 -0.000371373 -0.000496389 -0.000637491 -0.000793031 -0.000961365 -0.00114249 -0.00133641 -0.00153978 -0.00174927 -0.00196487 -0.00218659 -0.00241144 -0.00263644 -0.00286158 -0.00308686 -0.00330975 -0.00352773 -0.00374079 -0.00394893 -0.0041501 -0.00434223 -0.00452533 -0.00469939 -0.00486294 -0.0050145 -0.00515408 -0.00528166 -0.00539652 -0.00549794 -0.00558591 -0.00566044 -0.00572169 -0.00576983 -0.00580486 -0.00582678 -0.00583668 -0.00583565 -0.0058237 -0.00580082 -0.0057689 -0.00572981 -0.00568355 -0.00563013 -0.00557189 -0.00551117 -0.00544799 -0.00538234 -0.0053166 -0.00525314 -0.00519196 -0.00513305 -0.00507835 -0.00502978 -0.00498732 -0.00495098 -0.00492183 -0.00490092 -0.00488825 -0.00488383 -0.00488762 -0.00489961 -0.00491979 -0.00494816 -0.00498363 -0.00502508 -0.00507251 -0.00512593 -0.00518339 -0.00524295 -0.0053046 -0.00536836 -0.00543185 -0.00549269 -0.0055509 -0.00560646 -0.00565707 -0.0057004 -0.00573645 -0.00576523 -0.00578491 -0.00579367 -0.0057915 -0.00577841 -0.00575336 -0.00571534 -0.00566433 -0.00560035 -0.00552328 -0.00543302 -0.00532956 -0.00521292 -0.00508386 -0.00494315 -0.0047908 -0.00462681 -0.00445267 -0.00426989 -0.00407846 -0.00387838 -0.00367171 -0.00346049 -0.00324472 -0.00302439 -0.002802 -0.00258003 -0.00235847 -0.00213733 -0.00191951 -0.0017079 -0.00150252 -0.00130335 -0.00111363 -0.000936556 -0.000772142 -0.000620384 -0.000482836 -0.00036105 -0.000255025 -0.000164763 -9.26791e-05 -4.11907e-05 -1.02977e-05 0 0 -1.41944e-05 -5.67778e-05 -0.00012775 -0.000227111 -0.000350993 -0.000495526 -0.000660711 -0.000846548 -0.00105082 -0.00127132 -0.00150804 -0.00176098 -0.00202578 -0.00229805 -0.00257782 -0.00286506 -0.00315587 -0.00344631 -0.00373639 -0.00402611 -0.00431213 -0.00459114 -0.00486312 -0.00512809 -0.00538334 -0.00562618 -0.00585661 -0.00607462 -0.00627833 -0.00646582 -0.00663708 -0.00679213 -0.00693007 -0.00705002 -0.00715197 -0.00723593 -0.0073022 -0.00735111 -0.00738265 -0.00739682 -0.00739518 -0.00737927 -0.00734909 -0.00730464 -0.00724852 -0.00718331 -0.00710901 -0.00702564 -0.00693638 -0.00684445 -0.00674985 -0.00665258 -0.00655585 -0.0064629 -0.00637373 -0.00628833 -0.0062093 -0.00613924 -0.00607815 -0.00602603 -0.00598431 -0.00595444 -0.0059364 -0.00593019 -0.00593579 -0.00595316 -0.0059823 -0.0060232 -0.00607438 -0.00613435 -0.0062031 -0.00628063 -0.00636432 -0.00645153 -0.00654227 -0.00663653 -0.0067311 -0.00682275 -0.0069115 -0.00699733 -0.00707708 -0.00714759 -0.00720887 -0.0072609 -0.00730118 -0.00732718 -0.00733889 -0.00733633 -0.00731803 -0.00728251 -0.00722979 -0.00715987 -0.0070725 -0.00696747 -0.00684476 -0.00670438 -0.00654729 -0.00637442 -0.00618579 -0.00598139 -0.00576315 -0.00553301 -0.00529097 -0.00503703 -0.00477387 -0.00450417 -0.00422794 -0.00394516 -0.00365912 -0.00337307 -0.00308703 -0.00280098 -0.00251875 -0.00224415 -0.00197717 -0.00171781 -0.0014703 -0.00123884 -0.00102343 -0.000824086 -0.000642886 -0.000481926 -0.000341205 -0.000220723 -0.000124157 -5.51808e-05 -1.37952e-05 0 0 -1.8261e-05 -7.30442e-05 -0.000164349 -0.000292177 -0.00045101 -0.000635333 -0.000845146 -0.00108045 -0.00133838 -0.00161608 -0.00191355 -0.00223079 -0.0025623 -0.00290257 -0.00325162 -0.00360943 -0.00397107 -0.00433156 -0.00469091 -0.00504912 -0.00540199 -0.00574529 -0.00607903 -0.00640321 -0.00671443 -0.00700932 -0.00728785 -0.00755005 -0.00779354 -0.00801597 -0.00821734 -0.00839764 -0.00855584 -0.0086909 -0.00880282 -0.0088916 -0.00895776 -0.0090018 -0.00902373 -0.00902354 -0.00900334 -0.00896523 -0.0089092 -0.00883526 -0.00874682 -0.00864732 -0.00853676 -0.00841513 -0.00828664 -0.00815547 -0.00802164 -0.00788513 -0.00775015 -0.00762091 -0.00749739 -0.0073796 -0.00727091 -0.00717471 -0.00709098 -0.00701973 -0.00696281 -0.0069221 -0.00689758 -0.00688926 -0.00689709 -0.00692103 -0.00696108 -0.00701723 -0.00708756 -0.00717012 -0.00726492 -0.00737195 -0.0074878 -0.00760904 -0.00773569 -0.00786774 -0.00800099 -0.00813126 -0.00825853 -0.00838282 -0.00849997 -0.00860584 -0.00870044 -0.00878376 -0.00885247 -0.00890323 -0.00893605 -0.00895091 -0.00894585 -0.00891886 -0.00886994 -0.0087991 -0.00870593 -0.00859001 -0.00845136 -0.00828997 -0.00810695 -0.00790344 -0.00767942 -0.00743491 -0.00717229 -0.00689396 -0.00659994 -0.00629021 -0.00596815 -0.00563714 -0.00529718 -0.00494827 -0.00459454 -0.00424014 -0.00388506 -0.0035293 -0.00317768 -0.00283502 -0.00250132 -0.00217658 -0.0018661 -0.00157519 -0.00130385 -0.00105209 -0.000822607 -0.000618109 -0.000438596 -0.000284069 -0.000159789 -7.10172e-05 -1.77543e-05 0 0 -2.27388e-05 -9.09554e-05 -0.00020465 -0.000363821 -0.000560985 -0.000788655 -0.00104683 -0.00133551 -0.00165109 -0.00198996 -0.00235211 -0.00273755 -0.00313955 -0.00355135 -0.00397296 -0.00440439 -0.00483954 -0.00527235 -0.00570281 -0.00613092 -0.00655152 -0.00695942 -0.00735463 -0.00773714 -0.00810283 -0.00844755 -0.00877129 -0.00907407 -0.00935305 -0.0096054 -0.00983112 -0.0100302 -0.0102015 -0.0103439 -0.0104573 -0.0105418 -0.0105981 -0.0106271 -0.0106287 -0.010603 -0.0105527 -0.0104805 -0.0103866 -0.0102708 -0.0101376 -0.00999143 -0.00983227 -0.00966013 -0.00948034 -0.00929828 -0.00911394 -0.00892732 -0.00874374 -0.00856855 -0.00840174 -0.00824331 -0.00809753 -0.00796867 -0.00785673 -0.00776172 -0.00768597 -0.00763185 -0.00759935 -0.00758846 -0.00759914 -0.00763132 -0.00768501 -0.00776021 -0.00785446 -0.00796533 -0.0080928 -0.00823689 -0.00839326 -0.00855759 -0.00872987 -0.00891011 -0.00909298 -0.00927316 -0.00945065 -0.00962544 -0.00979224 -0.00994577 -0.010086 -0.010213 -0.0103224 -0.0104099 -0.0104756 -0.0105194 -0.0105386 -0.0105307 -0.0104957 -0.0104335 -0.0103435 -0.0102251 -0.0100781 -0.00990274 -0.00970014 -0.0094716 -0.00921711 -0.00893667 -0.00863316 -0.00830947 -0.00796558 -0.00760151 -0.00722137 -0.00682929 -0.00642527 -0.00600931 -0.00558648 -0.00516188 -0.00473551 -0.00430735 -0.00388334 -0.00346938 -0.00306548 -0.00267162 -0.00229433 -0.0019401 -0.00160894 -0.00130085 -0.00101924 -0.000767536 -0.000545743 -0.000353859 -0.000199046 -8.84649e-05 -2.21162e-05 0 0 -2.75669e-05 -0.000110267 -0.000248102 -0.00044107 -0.000679408 -0.000953352 -0.0012629 -0.00160806 -0.00198434 -0.00238725 -0.00281681 -0.00327299 -0.00374772 -0.0042329 -0.00472852 -0.00523458 -0.00574379 -0.00624885 -0.00674976 -0.00724652 -0.00773292 -0.00820276 -0.00865603 -0.00909274 -0.00950796 -0.00989676 -0.0102591 -0.0105951 -0.0109013 -0.0111745 -0.0114147 -0.0116219 -0.0117949 -0.0119323 -0.0120343 -0.0121009 -0.0121331 -0.0121323 -0.0120983 -0.0120312 -0.0119346 -0.0118121 -0.0116637 -0.0114893 -0.0112946 -0.0110852 -0.010861 -0.0106221 -0.0103752 -0.0101269 -0.00987734 -0.00962644 -0.00938086 -0.00914724 -0.00892558 -0.00871589 -0.00852347 -0.00835362 -0.00820635 -0.00808165 -0.00798244 -0.00791164 -0.00786923 -0.00785523 -0.00786955 -0.00791214 -0.00798298 -0.00808208 -0.0082064 -0.00835291 -0.0085216 -0.00871247 -0.00892015 -0.00913926 -0.0093698 -0.00961177 -0.00985853 -0.0101034 -0.0103465 -0.0105877 -0.0108204 -0.011038 -0.0112405 -0.0114279 -0.0115947 -0.0117354 -0.0118502 -0.0119389 -0.0119981 -0.0120245 -0.012018 -0.0119785 -0.0119052 -0.011797 -0.0116539 -0.0114758 -0.0112642 -0.0110203 -0.0107443 -0.010436 -0.0100989 -0.00973625 -0.00934814 -0.00893454 -0.00850037 -0.00805053 -0.00758502 -0.00710386 -0.00661313 -0.00611895 -0.00562131 -0.00512021 -0.00462276 -0.00413607 -0.00366012 -0.00319492 -0.0027483 -0.00232807 -0.00193424 -0.0015668 -0.00123001 -0.000928145 -0.000661193 -0.000429156 -0.0002414 -0.000107289 -2.68223e-05 0 0 -3.27451e-05 -0.00013098 -0.000294706 -0.000523921 -0.000806277 -0.00112942 -0.00149336 -0.00189809 -0.00233812 -0.00280797 -0.00330763 -0.00383711 -0.00438683 -0.00494722 -0.00551828 -0.00610002 -0.00668381 -0.00726106 -0.00783176 -0.00839591 -0.0089462 -0.00947531 -0.00998325 -0.01047 -0.0109298 -0.011357 -0.0117514 -0.0121131 -0.0124384 -0.0127234 -0.0129682 -0.0131727 -0.0133358 -0.0134562 -0.0135339 -0.0135689 -0.0135628 -0.0135173 -0.0134325 -0.0133083 -0.0131493 -0.01296 -0.0127406 -0.0124909 -0.0122179 -0.0119287 -0.0116231 -0.0113012 -0.0109712 -0.0106414 -0.0103119 -0.0099825 -0.0096615 -0.00935697 -0.00906891 -0.00879734 -0.00854873 -0.00832956 -0.00813982 -0.00797953 -0.00785222 -0.00776146 -0.00770724 -0.00768956 -0.00770833 -0.00776347 -0.00785498 -0.00798285 -0.00814338 -0.00833286 -0.0085513 -0.0087987 -0.00906848 -0.00935408 -0.00965549 -0.00997272 -0.0102976 -0.0106221 -0.0109461 -0.0112696 -0.0115845 -0.0118826 -0.0121639 -0.0124283 -0.0126692 -0.0128797 -0.0130597 -0.0132094 -0.0133243 -0.0134001 -0.0134367 -0.0134342 -0.0133911 -0.0133058 -0.0131785 -0.0130091 -0.012799 -0.0125496 -0.0122609 -0.0119329 -0.0115694 -0.0111743 -0.0107476 -0.0102893 -0.00980513 -0.00930084 -0.00877644 -0.00823193 -0.0076745 -0.00711135 -0.00654247 -0.00596788 -0.00539595 -0.00483507 -0.00428525 -0.00374647 -0.003228 -0.00273909 -0.00227974 -0.00184995 -0.00145494 -0.00109994 -0.000784943 -0.000509959 -0.000286852 -0.00012749 -3.18725e-05 0 0 -3.82735e-05 -0.000153094 -0.000344462 -0.000612376 -0.000941594 -0.00131687 -0.00173821 -0.00220561 -0.00271244 -0.00325211 -0.00382459 -0.0044299 -0.00505687 -0.00569432 -0.00634227 -0.0070007 -0.00765961 -0.00830898 -0.00894881 -0.0095791 -0.0101914 -0.0107771 -0.0113363 -0.0118689 -0.0123684 -0.0128281 -0.013248 -0.0136281 -0.0139642 -0.0142519 -0.0144914 -0.0146827 -0.0148244 -0.0149155 -0.0149559 -0.0149457 -0.014887 -0.0147822 -0.0146312 -0.0144341 -0.0141965 -0.0139243 -0.0136172 -0.0132755 -0.0129075 -0.0125218 -0.0121184 -0.0116972 -0.0112683 -0.0108417 -0.0104175 -0.00999551 -0.00958566 -0.00919773 -0.00883173 -0.00848767 -0.00817332 -0.00789648 -0.00765716 -0.00745535 -0.00729531 -0.00718132 -0.00711337 -0.00709145 -0.00711548 -0.00718533 -0.007301 -0.0074625 -0.00766538 -0.00790518 -0.00818191 -0.00849556 -0.00883824 -0.00920203 -0.00958694 -0.00999296 -0.0104103 -0.0108291 -0.0112494 -0.0116711 -0.0120845 -0.0124795 -0.0128561 -0.0132144 -0.013546 -0.0138427 -0.0141043 -0.014331 -0.0145173 -0.0146576 -0.014752 -0.0148005 -0.014801 -0.0147516 -0.0146521 -0.0145027 -0.0143047 -0.0140594 -0.013767 -0.0134273 -0.0130447 -0.0126236 -0.012164 -0.0116658 -0.0111357 -0.0105802 -0.00999953 -0.00939352 -0.00877058 -0.00813907 -0.00749899 -0.00685035 -0.0062029 -0.00556641 -0.00494086 -0.00432627 -0.00373344 -0.00317316 -0.00264545 -0.00215029 -0.00169401 -0.00128291 -0.000916995 -0.000596268 -0.000335401 -0.000149067 -3.72668e-05 0 0 -4.40353e-05 -0.000176141 -0.000396318 -0.000704565 -0.0010825 -0.00151172 -0.00199225 -0.00252407 -0.0030993 -0.00371006 -0.00435635 -0.00503817 -0.00574263 -0.00645685 -0.00718082 -0.00791456 -0.00864653 -0.00936524 -0.0100707 -0.0107628 -0.011432 -0.0120684 -0.012672 -0.0132429 -0.0137735 -0.0142562 -0.014691 -0.015078 -0.0154125 -0.0156897 -0.0159098 -0.0160726 -0.016177 -0.0162221 -0.0162078 -0.016134 -0.0160038 -0.0158202 -0.0155832 -0.0152928 -0.0149559 -0.0145797 -0.014164 -0.0137091 -0.0132249 -0.012722 -0.0122002 -0.0116596 -0.0111121 -0.0105698 -0.0100326 -0.00950063 -0.00898546 -0.00849884 -0.00804076 -0.00761123 -0.0072195 -0.00687484 -0.00657725 -0.00632674 -0.00612835 -0.00598716 -0.00590317 -0.00587636 -0.00590662 -0.00599381 -0.00613794 -0.00633901 -0.00659173 -0.00689081 -0.00723625 -0.00762806 -0.00805683 -0.00851317 -0.00899708 -0.00950855 -0.0100359 -0.0105673 -0.011103 -0.0116427 -0.0121748 -0.0126872 -0.01318 -0.0136532 -0.0140967 -0.0145005 -0.0148646 -0.015189 -0.0154669 -0.0156916 -0.0158631 -0.0159813 -0.0160436 -0.0160472 -0.0159922 -0.0158785 -0.0157075 -0.0154805 -0.0151974 -0.0148582 -0.0144679 -0.0140311 -0.0135479 -0.0130182 -0.0124497 -0.0118498 -0.0112186 -0.0105561 -0.00987179 -0.00917535 -0.00846678 -0.00774607 -0.00702444 -0.00631313 -0.00561213 -0.00492145 -0.00425356 -0.00362093 -0.00302357 -0.00246147 -0.00194216 -0.0014732 -0.00105456 -0.000686265 -0.000386024 -0.000171566 -4.28915e-05 0 0 -4.99135e-05 -0.000199654 -0.000449221 -0.000798615 -0.00122612 -0.00171 -0.00225028 -0.00284694 -0.00349069 -0.00417224 -0.00489158 -0.00564872 -0.00642892 -0.00721745 -0.00801432 -0.00881952 -0.00961994 -0.0104025 -0.0111671 -0.0119139 -0.0126317 -0.0133096 -0.0139474 -0.0145452 -0.0150945 -0.0155869 -0.0160223 -0.0164008 -0.0167171 -0.0169663 -0.0171483 -0.0172632 -0.0173099 -0.0172877 -0.0171966 -0.0170364 -0.0168112 -0.0165248 -0.0161772 -0.0157683 -0.0153068 -0.0148011 -0.0142514 -0.0136576 -0.0130319 -0.0123867 -0.011722 -0.0110377 -0.0103481 -0.00966751 -0.00899581 -0.00833305 -0.00769304 -0.00708959 -0.00652271 -0.00599239 -0.00550955 -0.00508509 -0.00471902 -0.00441134 -0.004168 -0.00399495 -0.00389219 -0.00385972 -0.00389739 -0.00400505 -0.00418269 -0.00443032 -0.00474172 -0.00511066 -0.00553715 -0.00602118 -0.00655168 -0.00711757 -0.00771886 -0.00835554 -0.00901377 -0.00967973 -0.0103534 -0.0110348 -0.0117098 -0.0123644 -0.0129984 -0.013612 -0.014193 -0.0147294 -0.0152213 -0.0156686 -0.0160631 -0.0163966 -0.016669 -0.0168804 -0.0170272 -0.0171058 -0.0171163 -0.0170586 -0.0169339 -0.0167433 -0.0164869 -0.0161646 -0.0157817 -0.0153434 -0.0148498 -0.0143008 -0.013705 -0.0130707 -0.0123981 -0.0116871 -0.0109485 -0.0101934 -0.00942174 -0.00863346 -0.00784139 -0.00705831 -0.00628423 -0.00551914 -0.00477732 -0.00407305 -0.00340631 -0.00277711 -0.00219436 -0.00166694 -0.00119486 -0.00077813 -0.000437698 -0.000194532 -4.86331e-05 0 0 -5.5908e-05 -0.000223632 -0.000503172 -0.000894529 -0.00137246 -0.00191172 -0.00251231 -0.00317422 -0.00388662 -0.00463864 -0.00543028 -0.00626155 -0.00711573 -0.00797613 -0.00884275 -0.00971558 -0.0105798 -0.0114207 -0.0122382 -0.0130323 -0.0137906 -0.0145006 -0.0151624 -0.0157759 -0.0163317 -0.0168204 -0.0172419 -0.0175963 -0.0178781 -0.0180817 -0.0182072 -0.0182546 -0.0182232 -0.0181124 -0.0179224 -0.017653 -0.0173092 -0.0168959 -0.016413 -0.0158607 -0.0152492 -0.0145887 -0.0138793 -0.013121 -0.0123284 -0.0115159 -0.0106836 -0.00983153 -0.00897636 -0.00813485 -0.00730698 -0.00649277 -0.00570839 -0.00496999 -0.00427758 -0.00363116 -0.00304346 -0.00252723 -0.00208246 -0.00170915 -0.00141424 -0.00120467 -0.00108043 -0.00104154 -0.0010878 -0.00121903 -0.00143525 -0.00173644 -0.00211536 -0.00256474 -0.00308459 -0.00367491 -0.00432277 -0.00501522 -0.00575227 -0.00653393 -0.00734399 -0.00816625 -0.00900071 -0.00984737 -0.0106897 -0.011511 -0.0123113 -0.0130906 -0.0138347 -0.0145293 -0.0151744 -0.0157699 -0.016306 -0.0167727 -0.01717 -0.0174979 -0.0177519 -0.0179273 -0.0180243 -0.0180429 -0.0179838 -0.017848 -0.0176355 -0.0173464 -0.0169862 -0.0165607 -0.0160698 -0.0155136 -0.0149015 -0.0142429 -0.0135379 -0.0127865 -0.0120008 -0.0111933 -0.0103639 -0.00951253 -0.00865374 -0.00780194 -0.00695714 -0.00611934 -0.00530473 -0.00452951 -0.00379368 -0.00309723 -0.00245058 -0.00186414 -0.0013379 -0.000871863 -0.000490423 -0.000217966 -5.44914e-05 0 0 -6.20191e-05 -0.000248076 -0.000558171 -0.000992305 -0.00152152 -0.00211686 -0.00277833 -0.00350592 -0.00428708 -0.00510925 -0.00597244 -0.00687665 -0.00780307 -0.00873289 -0.00966612 -0.0106027 -0.0115262 -0.0124199 -0.0132838 -0.014118 -0.0149085 -0.0156415 -0.016317 -0.0169349 -0.0174849 -0.0179565 -0.0183498 -0.0186647 -0.0188953 -0.0190359 -0.0190863 -0.0190467 -0.0189167 -0.0186962 -0.0183852 -0.0179837 -0.0174977 -0.0169334 -0.0162909 -0.01557 -0.0147831 -0.0139423 -0.0130478 -0.0120994 -0.0111143 -0.0101096 -0.00908516 -0.00804106 -0.00699679 -0.00597182 -0.00496615 -0.0039798 -0.0030315 -0.00214003 -0.00130537 -0.000527529 0.000178756 0.000798745 0.00133244 0.00177984 0.00213292 0.00238368 0.0025321 0.0025782 0.00252217 0.00236423 0.00210439 0.00174263 0.00128736 0.00074695 0.000121408 -0.000589266 -0.0013701 -0.00220612 -0.00309733 -0.00404373 -0.00502651 -0.00602689 -0.00704485 -0.00808041 -0.00911422 -0.010127 -0.0111186 -0.0120892 -0.013022 -0.0139002 -0.0147238 -0.0154928 -0.0161954 -0.0168197 -0.0173658 -0.0178337 -0.0182175 -0.0185118 -0.0187164 -0.0188313 -0.0188572 -0.0187945 -0.0186433 -0.0184036 -0.0180814 -0.0176828 -0.0172079 -0.0166565 -0.0160392 -0.0153664 -0.0146381 -0.0138543 -0.0130287 -0.012175 -0.0112932 -0.0103833 -0.0094615 -0.00854403 -0.00763088 -0.00672205 -0.00583578 -0.00499032 -0.00418566 -0.00342182 -0.00271084 -0.00206479 -0.00148366 -0.000967465 -0.000544199 -0.000241866 -6.04666e-05 0 0 -6.81425e-05 -0.00027257 -0.000613283 -0.00109028 -0.00167076 -0.0023219 -0.00304371 -0.00383619 -0.00468494 -0.00557556 -0.00650806 -0.00748243 -0.00847764 -0.00947266 -0.0104675 -0.0114621 -0.0124381 -0.013377 -0.0142787 -0.0151433 -0.0159554 -0.0166995 -0.0173758 -0.0179841 -0.0185131 -0.0189514 -0.0192988 -0.0195556 -0.0197154 -0.019772 -0.0197255 -0.0195759 -0.0193234 -0.0189683 -0.0185106 -0.0179504 -0.017295 -0.016552 -0.0157214 -0.0148032 -0.0138118 -0.0127616 -0.0116527 -0.0104851 -0.00927856 -0.00805303 -0.00680848 -0.00554492 -0.00428487 -0.00305087 -0.00184291 -0.000660995 0.000473277 0.00153831 0.00253409 0.00346063 0.00430099 0.00503824 0.00567237 0.00620338 0.00662208 0.00691926 0.00709492 0.00714907 0.00708195 0.0068938 0.00658461 0.0061544 0.0056128 0.00496942 0.00422428 0.00337738 0.00244592 0.00144711 0.000380963 -0.00075253 -0.00193171 -0.00313491 -0.00436215 -0.00561341 -0.00686634 -0.00809858 -0.00931012 -0.010501 -0.0116516 -0.0127426 -0.0137738 -0.0147453 -0.0156432 -0.0164533 -0.0171758 -0.0178107 -0.0183508 -0.0187893 -0.0191261 -0.0193613 -0.0194948 -0.0195269 -0.0194576 -0.0192868 -0.019021 -0.0186666 -0.0182237 -0.0176921 -0.0170834 -0.0164091 -0.0156691 -0.0148634 -0.0140072 -0.0131158 -0.0121891 -0.0112272 -0.0102481 -0.00926985 -0.00829246 -0.00731593 -0.00636069 -0.00544715 -0.00457532 -0.00374518 -0.00297061 -0.00226544 -0.00162967 -0.00106331 -0.000598114 -0.000265828 -6.64571e-05 0 0 -7.41745e-05 -0.000296698 -0.000667571 -0.00118679 -0.00181762 -0.00252329 -0.00330383 -0.00415922 -0.00507308 -0.00602905 -0.00702711 -0.00806728 -0.00912616 -0.0101804 -0.0112299 -0.0122748 -0.0132946 -0.0142687 -0.0151974 -0.0160804 -0.0169009 -0.0176419 -0.0183033 -0.0188853 -0.0193752 -0.0197608 -0.020042 -0.0202189 -0.0202848 -0.0202334 -0.0200646 -0.0197786 -0.019376 -0.0188579 -0.0182242 -0.017475 -0.0166192 -0.015666 -0.0146153 -0.0134672 -0.0122384 -0.010946 -0.00958996 -0.0081702 -0.00670971 -0.00523147 -0.00373547 -0.00222171 -0.000716082 0.00075554 0.00219315 0.00359676 0.00494163 0.00620303 0.00738098 0.00847546 0.00946714 0.0103367 0.011084 0.0117093 0.0122018 0.0125513 0.0127575 0.0128207 0.012741 0.0125187 0.0121538 0.0116464 0.0110073 0.0102477 0.00936746 0.00836664 0.00726489 0.00608187 0.0048176 0.00347206 0.00207006 0.000636406 -0.000828909 -0.00232588 -0.00382882 -0.00531201 -0.00677545 -0.00821916 -0.00962055 -0.0109571 -0.0122287 -0.0134355 -0.014561 -0.0155889 -0.0165192 -0.0173518 -0.0180783 -0.0186902 -0.0191874 -0.01957 -0.0198374 -0.0199894 -0.0200258 -0.0199466 -0.0197587 -0.0194688 -0.0190768 -0.0185828 -0.0179993 -0.0173387 -0.0166011 -0.0157864 -0.0149115 -0.0139931 -0.0130312 -0.0120258 -0.010997 -0.00996466 -0.00892888 -0.00788964 -0.00686967 -0.00589168 -0.00495567 -0.00406164 -0.00322537 -0.00246264 -0.00177345 -0.00115778 -0.000651254 -0.000289446 -7.23615e-05 0 0 -8.0115e-05 -0.00032046 -0.000721035 -0.00128184 -0.0019621 -0.00272105 -0.00355868 -0.00447499 -0.0054515 -0.0064697 -0.0075296 -0.0086312 -0.00974863 -0.010856 -0.0119534 -0.0130408 -0.0140956 -0.0150953 -0.0160399 -0.0169293 -0.0177451 -0.0184685 -0.0190996 -0.0196384 -0.0200713 -0.020385 -0.0205794 -0.0206545 -0.0206036 -0.02042 -0.0201037 -0.0196547 -0.0190746 -0.018365 -0.017526 -0.0165575 -0.0154704 -0.0142754 -0.0129726 -0.011562 -0.0100631 -0.00849565 -0.00685954 -0.00515481 -0.00340781 -0.00164492 0.00013387 0.00192856 0.00370959 0.00544742 0.00714204 0.00879346 0.0103735 0.0118542 0.0132353 0.014517 0.0156772 0.016694 0.0175674 0.0182975 0.0188722 0.0192797 0.01952 0.0195931 0.0194993 0.0192389 0.018812 0.0182185 0.0174709 0.0165818 0.0155509 0.0143785 0.0130868 0.0116982 0.0102126 0.00863005 0.0069788 0.00528708 0.00355487 0.00178218 -1.64528e-06 -0.00176724 -0.00351461 -0.00524376 -0.00692875 -0.00854366 -0.0100885 -0.0115632 -0.0129489 -0.0142264 -0.0153958 -0.0164571 -0.0174 -0.0182144 -0.0189002 -0.0194574 -0.019885 -0.0201818 -0.0203478 -0.020383 -0.0202945 -0.0200893 -0.0197673 -0.0193287 -0.0187868 -0.0181554 -0.0174343 -0.0166236 -0.0157416 -0.0148069 -0.0138194 -0.0127791 -0.0117081 -0.0106285 -0.00954015 -0.00844319 -0.00736272 -0.0063239 -0.00532672 -0.00437119 -0.00347513 -0.0026564 -0.00191498 -0.00125088 -0.00070362 -0.00031272 -7.818e-05 0 0 -8.59641e-05 -0.000343856 -0.000773677 -0.00137543 -0.00210422 -0.00291516 -0.00380827 -0.00478352 -0.00582019 -0.00689753 -0.00801553 -0.00917419 -0.0103451 -0.0114997 -0.012638 -0.0137601 -0.0148412 -0.0158565 -0.0168062 -0.0176901 -0.018488 -0.0191795 -0.0197647 -0.0202434 -0.0206013 -0.0208238 -0.0209108 -0.0208624 -0.0206717 -0.0203318 -0.0198426 -0.0192042 -0.0184191 -0.0174897 -0.016416 -0.015198 -0.0138485 -0.0123803 -0.0107934 -0.00908767 -0.00728584 -0.00541044 -0.00346146 -0.00143891 0.000627142 0.00270662 0.00479954 0.00690589 0.00899214 0.0110248 0.0130038 0.0149291 0.016769 0.0184917 0.020097 0.0215851 0.0229312 0.0241103 0.0251226 0.025968 0.0266331 0.0271045 0.0273822 0.0274662 0.0273568 0.0270545 0.0265592 0.0258709 0.0250037 0.0239716 0.0227747 0.021413 0.0199117 0.018296 0.0165659 0.0147214 0.0127945 0.0108171 0.00878918 0.00671077 0.00461517 0.00253572 0.000472403 -0.00157477 -0.00357622 -0.00550234 -0.00735315 -0.00912864 -0.0108069 -0.0123659 -0.013