<?xml version="1.0"?> 
<VTKFile type="StructuredGrid" version="0.1"> 
<StructuredGrid WholeExtent="0 128 0 128 0 0"> 
<Piece Extent="0 128 0 128 0 0"> 
<PointData>
<DataArray type="Float32" Name="u" format="ascii" NumberOfComponents="1"> 
0 0 0 0 0 0 0 0 0 0 0 0 0 0 0 0 0 0 0 0 0 0 0 0 0 0 0 0 0 0 0 0 0 0 0 0 0 0 0 0 0 0 0 0 0 0 0 0 0 0 0 0 0 0 0 0 0 0 0 0 0 0 0 0 0 0 0 0 0 0 0 0 0 0 0 0 0 0 0 0 0 0 0 0 0 0 0 0 0 0 0 0 0 0 0 0 0 0 0 0 0 0 0 0 0 0 0 0 0 0 0 0 0 0 0 0 0 0 0 0 0 0 0 0 0 0 0 0 0 0 -2.0365e-07 -8.146e-07 -1.83285e-06 -3.2584e-06 -5.1009e-06 -7.36998e-06 -1.00656e-05 -1.31879e-05 -1.67319e-05 -2.06927e-05 -2.50704e-05 -2.9865e-05 -3.50194e-05 -4.04767e-05 -4.62369e-05 -5.22999e-05 -5.86037e-05 -6.5086e-05 -7.17468e-05 -7.85861e-05 -8.55415e-05 -9.25502e-05 -9.96125e-05 -0.000106728 -0.000113836 -0.000120874 -0.000127842 -0.000134741 -0.000141514 -0.000148106 -0.000154515 -0.000160743 -0.000166746 -0.000172479 -0.000177944 -0.000183139 -0.000188041 -0.000192625 -0.000196892 -0.00020084 -0.000204469 -0.000207778 -0.000210767 -0.000213436 -0.000215806 -0.000217898 -0.000219712 -0.000221248 -0.000222544 -0.000223638 -0.000224528 -0.000225216 -0.000225745 -0.000226158 -0.000226454 -0.000226636 -0.000226739 -0.000226802 -0.000226824 -0.000226806 -0.000226769 -0.000226735 -0.000226704 -0.000226675 -0.00022665 -0.000226626 -0.000226605 -0.000226585 -0.000226546 -0.000226465 -0.000226341 -0.000226176 -0.00022593 -0.000225567 -0.000225086 -0.000224487 -0.000223728 -0.000222764 -0.000221597 -0.000220225 -0.000218613 -0.000216724 -0.000214557 -0.000212114 -0.000209373 -0.000206314 -0.000202938 -0.000199245 -0.000195237 -0.000190917 -0.000186284 -0.000181338 -0.000176105 -0.00017061 -0.000164854 -0.000158836 -0.0001526 -0.000146191 -0.000139608 -0.000132852 -0.000125979 -0.000119045 -0.000112049 -0.000104992 -9.79338e-05 -9.09362e-05 -8.3999e-05 -7.71221e-05 -7.03666e-05 -6.37938e-05 -5.74036e-05 -5.11961e-05 -4.52315e-05 -3.95699e-05 -3.42114e-05 -2.91559e-05 -2.4458e-05 -2.01721e-05 -1.62984e-05 -1.28367e-05 -9.79039e-06 -7.16261e-06 -4.9534e-06 -3.16274e-06 -1.77904e-06 -7.90686e-07 -1.97671e-07 0 0 -8.146e-07 -3.2584e-06 -7.3314e-06 -1.30336e-05 -2.04036e-05 -2.94799e-05 -4.02626e-05 -5.27516e-05 -6.69275e-05 -8.27708e-05 -0.000100282 -0.00011946 -0.000140078 -0.000161907 -0.000184947 -0.0002092 -0.000234415 -0.000260344 -0.000286987 -0.000314344 -0.000342166 -0.000370201 -0.00039845 -0.000426913 -0.000455343 -0.000483495 -0.000511369 -0.000538964 -0.000566056 -0.000592422 -0.000618061 -0.000642973 -0.000666983 -0.000689917 -0.000711775 -0.000732557 -0.000752165 -0.000770501 -0.000787566 -0.00080336 -0.000817877 -0.000831113 -0.000843069 -0.000853744 -0.000863223 -0.00087159 -0.000878847 -0.000884993 -0.000890178 -0.000894551 -0.000898114 -0.000900865 -0.000902979 -0.00090463 -0.000905818 -0.000906543 -0.000906955 -0.000907206 -0.000907295 -0.000907223 -0.000907076 -0.00090694 -0.000906815 -0.000906702 -0.000906599 -0.000906504 -0.000906418 -0.000906341 -0.000906184 -0.000905859 -0.000905365 -0.000904703 -0.000903721 -0.000902268 -0.000900345 -0.00089795 -0.000894912 -0.000891057 -0.000886387 -0.000880901 -0.000874453 -0.000866896 -0.000858229 -0.000848454 -0.00083749 -0.000825256 -0.000811753 -0.000796981 -0.000780949 -0.000763667 -0.000745134 -0.000725351 -0.00070442 -0.000682441 -0.000659416 -0.000635343 -0.0006104 -0.000584763 -0.000558433 -0.00053141 -0.000503917 -0.000476179 -0.000448195 -0.000419966 -0.000391735 -0.000363745 -0.000335996 -0.000308488 -0.000281466 -0.000255175 -0.000229614 -0.000204784 -0.000180926 -0.00015828 -0.000136846 -0.000116624 -9.78319e-05 -8.06886e-05 -6.51936e-05 -5.13469e-05 -3.91615e-05 -2.86504e-05 -1.98136e-05 -1.2651e-05 -7.11617e-06 -3.16274e-06 -7.90686e-07 0 0 -1.83285e-06 -7.3314e-06 -1.64957e-05 -2.93256e-05 -4.59081e-05 -6.63298e-05 -9.05908e-05 -0.000118691 -0.000150587 -0.000186234 -0.000225634 -0.000268785 -0.000315175 -0.00036429 -0.000416132 -0.000470699 -0.000527433 -0.000585774 -0.000645721 -0.000707275 -0.000769873 -0.000832952 -0.000896512 -0.000960553 -0.00102452 -0.00108786 -0.00115058 -0.00121267 -0.00127363 -0.00133295 -0.00139064 -0.00144669 -0.00150071 -0.00155231 -0.00160149 -0.00164825 -0.00169237 -0.00173363 -0.00177202 -0.00180756 -0.00184022 -0.00187001 -0.00189691 -0.00192092 -0.00194225 -0.00196108 -0.00197741 -0.00199123 -0.0020029 -0.00201274 -0.00202076 -0.00202695 -0.0020317 -0.00203542 -0.00203809 -0.00203972 -0.00204065 -0.00204121 -0.00204141 -0.00204125 -0.00204092 -0.00204061 -0.00204033 -0.00204008 -0.00203985 -0.00203963 -0.00203944 -0.00203927 -0.00203891 -0.00203818 -0.00203707 -0.00203558 -0.00203337 -0.0020301 -0.00202578 -0.00202039 -0.00201355 -0.00200488 -0.00199437 -0.00198203 -0.00196752 -0.00195052 -0.00193102 -0.00190902 -0.00188435 -0.00185683 -0.00182645 -0.00179321 -0.00175714 -0.00171825 -0.00167655 -0.00163204 -0.00158494 -0.00153549 -0.00148368 -0.00142952 -0.0013734 -0.00131572 -0.00125648 -0.00119567 -0.00113381 -0.0010714 -0.00100844 -0.000944924 -0.000881404 -0.000818426 -0.000755991 -0.000694099 -0.000633299 -0.000574144 -0.000516632 -0.000460765 -0.000407083 -0.000356129 -0.000307902 -0.000262403 -0.000220122 -0.000181549 -0.000146686 -0.000115531 -8.81135e-05 -6.44635e-05 -4.45806e-05 -2.84647e-05 -1.60114e-05 -7.11617e-06 -1.77904e-06 0 0 -3.2584e-06 -1.30336e-05 -2.93256e-05 -5.21344e-05 -8.16143e-05 -0.00011792 -0.00016105 -0.000211006 -0.00026771 -0.000331083 -0.000401127 -0.00047784 -0.00056031 -0.000647627 -0.00073979 -0.000836799 -0.000937659 -0.00104138 -0.00114795 -0.00125738 -0.00136866 -0.0014808 -0.0015938 -0.00170765 -0.00182137 -0.00193398 -0.00204547 -0.00215586 -0.00226423 -0.00236969 -0.00247224 -0.00257189 -0.00266793 -0.00275967 -0.0028471 -0.00293023 -0.00300866 -0.00308201 -0.00315027 -0.00321344 -0.00327151 -0.00332445 -0.00337228 -0.00341498 -0.00345289 -0.00348636 -0.00351539 -0.00353997 -0.00356071 -0.0035782 -0.00359245 -0.00360346 -0.00361192 -0.00361852 -0.00362327 -0.00362617 -0.00362782 -0.00362882 -0.00362918 -0.00362889 -0.0036283 -0.00362776 -0.00362726 -0.00362681 -0.00362639 -0.00362602 -0.00362567 -0.00362536 -0.00362474 -0.00362344 -0.00362146 -0.00361881 -0.00361488 -0.00360907 -0.00360138 -0.0035918 -0.00357965 -0.00356423 -0.00354555 -0.00352361 -0.00349781 -0.00346758 -0.00343292 -0.00339382 -0.00334996 -0.00330103 -0.00324701 -0.00318792 -0.0031238 -0.00305467 -0.00298054 -0.00290141 -0.00281768 -0.00272976 -0.00263766 -0.00254137 -0.0024416 -0.00233905 -0.00223373 -0.00212564 -0.00201567 -0.00190472 -0.00179278 -0.00167986 -0.00156694 -0.00145498 -0.00134398 -0.00123395 -0.00112587 -0.0010207 -0.000918458 -0.000819138 -0.000723704 -0.000633119 -0.000547382 -0.000466494 -0.000391328 -0.000322754 -0.000260774 -0.000205388 -0.000156646 -0.000114602 -7.92543e-05 -5.06039e-05 -2.84647e-05 -1.2651e-05 -3.16274e-06 0 0 -5.09715e-06 -2.03886e-05 -4.58743e-05 -8.15544e-05 -0.000127524 -0.000183879 -0.000250618 -0.000327742 -0.000415105 -0.000512561 -0.000620109 -0.000737749 -0.000864073 -0.000997671 -0.00113854 -0.00128669 -0.00144058 -0.00159867 -0.00176098 -0.00192749 -0.00209666 -0.00226696 -0.00243839 -0.00261094 -0.00278311 -0.00295338 -0.00312176 -0.00328825 -0.00345148 -0.00361009 -0.00376407 -0.00391343 -0.00405711 -0.00419406 -0.00432428 -0.00444778 -0.00456398 -0.00467232 -0.00477279 -0.00486539 -0.00495013 -0.00502702 -0.00509607 -0.00515726 -0.00521116 -0.00525833 -0.00529877 -0.00533248 -0.00536042 -0.00538355 -0.00540187 -0.00541538 -0.00542518 -0.00543237 -0.00543695 -0.00543893 -0.00543925 -0.00543886 -0.00543777 -0.00543597 -0.005434 -0.00543242 -0.00543122 -0.00543039 -0.00542994 -0.00542985 -0.00543013 -0.00543077 -0.00543122 -0.00543091 -0.00542986 -0.00542805 -0.00542454 -0.00541837 -0.00540954 -0.00539806 -0.00538282 -0.00536273 -0.00533781 -0.00530804 -0.00527248 -0.00523021 -0.00518122 -0.0051255 -0.00506254 -0.00499179 -0.00491325 -0.00482694 -0.00473286 -0.00463104 -0.00452148 -0.00440419 -0.00427975 -0.00414876 -0.00401122 -0.00386713 -0.00371755 -0.00356355 -0.00340514 -0.0032423 -0.00307641 -0.00290882 -0.00273955 -0.00256859 -0.00239743 -0.00222756 -0.00205899 -0.00189171 -0.00172723 -0.00156706 -0.00141121 -0.00125966 -0.00111391 -0.000975437 -0.000844247 -0.000720339 -0.00060506 -0.000499759 -0.000404436 -0.000319091 -0.00024383 -0.000178759 -0.000123879 -7.91891e-05 -4.45439e-05 -1.97973e-05 -4.94932e-06 0 0 -7.35499e-06 -2.942e-05 -6.61949e-05 -0.00011768 -0.000183639 -0.000263836 -0.000358271 -0.000466944 -0.000589582 -0.00072591 -0.000875928 -0.00103964 -0.00121505 -0.00140017 -0.00159502 -0.00179957 -0.00201168 -0.0022292 -0.00245211 -0.00268043 -0.00291199 -0.00314463 -0.00337836 -0.00361316 -0.00384694 -0.00407761 -0.00430516 -0.00452959 -0.00474903 -0.0049616 -0.0051673 -0.00536614 -0.00555669 -0.00573756 -0.00590873 -0.00607021 -0.00622129 -0.00636125 -0.00649008 -0.0066078 -0.00671449 -0.00681028 -0.00689516 -0.00696912 -0.00703306 -0.00708786 -0.00713351 -0.00717003 -0.00719884 -0.00722139 -0.00723767 -0.00724768 -0.00725305 -0.0072554 -0.00725473 -0.00725104 -0.00724572 -0.00724015 -0.00723435 -0.0072283 -0.0072228 -0.00721864 -0.00721582 -0.00721434 -0.00721419 -0.00721535 -0.00721783 -0.00722163 -0.00722592 -0.00722991 -0.00723359 -0.00723696 -0.00723862 -0.00723719 -0.00723266 -0.00722502 -0.00721268 -0.00719402 -0.00716903 -0.00713772 -0.00709868 -0.00705051 -0.00699319 -0.00692674 -0.00685031 -0.00676305 -0.00666496 -0.00655605 -0.00643625 -0.00630549 -0.00616379 -0.00601113 -0.00584827 -0.00567597 -0.00549422 -0.00530302 -0.0051038 -0.004898 -0.00468561 -0.00446663 -0.00424295 -0.00401643 -0.00378708 -0.00355489 -0.00332194 -0.00309031 -0.00286 -0.00263101 -0.00240546 -0.00218545 -0.00197099 -0.00176208 -0.00156081 -0.00136927 -0.00118746 -0.00101538 -0.00085493 -0.000708019 -0.000574647 -0.000454812 -0.000348734 -0.000256629 -0.000178498 -0.000114341 -6.43167e-05 -2.85852e-05 -7.1463e-06 0 0 -1.00319e-05 -4.01277e-05 -9.02873e-05 -0.000160511 -0.000249959 -0.000357791 -0.000484009 -0.000628611 -0.000791138 -0.00097113 -0.00116858 -0.0013835 -0.00161324 -0.00185514 -0.0021092 -0.00237543 -0.00265097 -0.00293294 -0.00322136 -0.00351622 -0.00381466 -0.00411382 -0.0044137 -0.00471431 -0.00501288 -0.00530666 -0.00559566 -0.00587987 -0.00615686 -0.00642422 -0.00668194 -0.00693002 -0.00716669 -0.00739016 -0.00760044 -0.00779753 -0.00798059 -0.0081488 -0.00830216 -0.00844067 -0.0085646 -0.00867422 -0.00876955 -0.00885057 -0.0089186 -0.00897495 -0.00901963 -0.00905262 -0.00907597 -0.00909171 -0.00909984 -0.00910036 -0.00909553 -0.00908761 -0.0090766 -0.0090625 -0.00904723 -0.0090327 -0.00901892 -0.00900589 -0.00899469 -0.00898642 -0.00898107 -0.00897865 -0.00897914 -0.00898251 -0.00898878 -0.00899793 -0.00900885 -0.00902043 -0.00903265 -0.00904553 -0.00905713 -0.00906553 -0.00907072 -0.00907271 -0.00906924 -0.00905808 -0.00903922 -0.00901266 -0.00897642 -0.00892848 -0.00886885 -0.00879754 -0.00871327 -0.0086148 -0.00850213 -0.00837526 -0.00823396 -0.00807802 -0.00790745 -0.00772223 -0.00752326 -0.0073114 -0.00708667 -0.00684905 -0.00660035 -0.00634239 -0.00607515 -0.00579865 -0.0055153 -0.00522754 -0.00493536 -0.00463877 -0.00434049 -0.00404325 -0.00374704 -0.00345187 -0.00316054 -0.00287586 -0.00259781 -0.00232641 -0.00206442 -0.00181463 -0.00157702 -0.00135161 -0.00114094 -0.000947535 -0.000771406 -0.000612552 -0.000471358 -0.000348212 -0.000243112 -0.000156059 -8.77831e-05 -3.90147e-05 -9.75368e-06 0 0 -1.3128e-05 -5.25118e-05 -0.000118152 -0.000210047 -0.000326484 -0.000465745 -0.000627832 -0.000812745 -0.00101978 -0.00124822 -0.00149808 -0.00176935 -0.00205864 -0.00236256 -0.00268111 -0.00301429 -0.00335844 -0.00370991 -0.00406871 -0.00443484 -0.00480465 -0.00517452 -0.00554442 -0.00591438 -0.00628091 -0.00664054 -0.00699326 -0.00733908 -0.00767499 -0.00799795 -0.00830799 -0.00860508 -0.0088871 -0.00915187 -0.00939941 -0.00962972 -0.00984187 -0.010035 -0.010209 -0.010364 -0.0105004 -0.0106189 -0.0107192 -0.0108016 -0.0108678 -0.0109196 -0.0109571 -0.0109803 -0.0109918 -0.0109945 -0.0109884 -0.0109734 -0.0109526 -0.010929 -0.0109026 -0.0108733 -0.0108438 -0.0108165 -0.0107915 -0.0107687 -0.0107497 -0.0107358 -0.010727 -0.0107233 -0.0107248 -0.0107313 -0.010743 -0.0107597 -0.01078 -0.0108025 -0.0108271 -0.0108538 -0.0108801 -0.0109034 -0.0109237 -0.0109411 -0.0109525 -0.0109549 -0.0109484 -0.0109329 -0.0109057 -0.0108641 -0.0108082 -0.0107379 -0.0106514 -0.0105471 -0.0104248 -0.0102846 -0.010126 -0.00994863 -0.00975247 -0.0095375 -0.0093047 -0.00905506 -0.00878856 -0.00850521 -0.00820721 -0.00789672 -0.00757377 -0.00723834 -0.00689346 -0.00654215 -0.00618441 -0.00582023 -0.00545307 -0.00508635 -0.00472009 -0.00435429 -0.0039925 -0.00363829 -0.00329167 -0.00295264 -0.00262473 -0.0023115 -0.00201293 -0.00172904 -0.00146308 -0.00121831 -0.000994715 -0.000792311 -0.000611704 -0.000453507 -0.00031772 -0.000204344 -0.000114943 -5.10859e-05 -1.27715e-05 0 0 -1.66269e-05 -6.65077e-05 -0.000149642 -0.000266031 -0.000412789 -0.000587035 -0.000788767 -0.00101799 -0.00127365 -0.0015547 -0.00186115 -0.002193 -0.002546 -0.00291592 -0.00330275 -0.00370649 -0.00412262 -0.00454659 -0.00497841 -0.00541808 -0.00586109 -0.00630296 -0.00674368 -0.00718325 -0.00761742 -0.00804193 -0.00845678 -0.00886197 -0.00925387 -0.00962885 -0.00998691 -0.010328 -0.0106497 -0.0109495 -0.0112274 -0.0114833 -0.0117163 -0.0119256 -0.0121111 -0.0122728 -0.0124116 -0.0125283 -0.012623 -0.0126957 -0.0127488 -0.012785 -0.0128041 -0.0128062 -0.0127949 -0.0127739 -0.0127431 -0.0127026 -0.0126562 -0.0126079 -0.0125577 -0.0125056 -0.0124549 -0.0124088 -0.0123673 -0.0123305 -0.0123001 -0.0122781 -0.0122645 -0.0122592 -0.0122622 -0.0122734 -0.012293 -0.0123208 -0.012355 -0.0123937 -0.0124368 -0.0124844 -0.0125332 -0.0125798 -0.0126243 -0.0126667 -0.012703 -0.0127294 -0.0127459 -0.0127525 -0.0127455 -0.0127215 -0.0126804 -0.0126223 -0.0125446 -0.012445 -0.0123235 -0.01218 -0.0120138 -0.0118242 -0.011611 -0.0113744 -0.0111153 -0.0108347 -0.0105326 -0.0102091 -0.00986664 -0.00950784 -0.00913267 -0.00874115 -0.0083369 -0.00792358 -0.00750117 -0.00706969 -0.00663334 -0.00619635 -0.00575871 -0.00532042 -0.0048859 -0.00445956 -0.00404139 -0.0036314 -0.00323398 -0.00285355 -0.00249011 -0.00214364 -0.00181823 -0.00151795 -0.00124281 -0.000992797 -0.000768849 -0.000571892 -0.000401927 -0.000258954 -0.000145662 -6.47386e-05 -1.61846e-05 0 0 -2.05126e-05 -8.20505e-05 -0.000184614 -0.000328202 -0.000508451 -0.000720997 -0.00096584 -0.00124298 -0.0015509 -0.00188809 -0.00225455 -0.00265028 -0.00307006 -0.00350868 -0.00396614 -0.00444243 -0.00493204 -0.00542946 -0.00593468 -0.0064477 -0.00696309 -0.0074754 -0.00798463 -0.00849078 -0.00898878 -0.00947352 -0.00994501 -0.0104033 -0.010844 -0.011263 -0.0116602 -0.0120356 -0.0123865 -0.0127099 -0.013006 -0.0132747 -0.0135152 -0.0137265 -0.0139088 -0.0140621 -0.0141876 -0.0142868 -0.0143597 -0.0144063 -0.01443 -0.0144341 -0.0144186 -0.0143836 -0.0143338 -0.0142738 -0.0142037 -0.0141235 -0.0140382 -0.0139527 -0.0138672 -0.0137816 -0.0137 -0.0136267 -0.0135616 -0.0135047 -0.0134584 -0.0134251 -0.0134046 -0.013397 -0.0134023 -0.0134205 -0.0134514 -0.0134952 -0.0135494 -0.0136117 -0.0136819 -0.0137601 -0.0138421 -0.0139238 -0.0140051 -0.0140859 -0.0141614 -0.0142266 -0.0142813 -0.0143257 -0.014355 -0.0143647 -0.0143548 -0.0143252 -0.0142726 -0.0141938 -0.0140888 -0.0139576 -0.0137989 -0.0136114 -0.0133952 -0.0131503 -0.0128776 -0.012578 -0.0122515 -0.0118982 -0.011521 -0.0111226 -0.0107031 -0.0102625 -0.0098051 -0.00933515 -0.00885263 -0.00835756 -0.00785499 -0.00734994 -0.00684243 -0.00633246 -0.00582535 -0.00532646 -0.00483578 -0.00435331 -0.00388442 -0.00343447 -0.00300345 -0.00259137 -0.00220324 -0.00184409 -0.00151392 -0.00121272 -0.000941872 -0.000702744 -0.000495336 -0.00031965 -0.000179803 -7.99126e-05 -1.99782e-05 0 0 -2.47851e-05 -9.91404e-05 -0.000223066 -0.000396562 -0.00061347 -0.000867633 -0.00115905 -0.00148772 -0.00185154 -0.00224839 -0.00267827 -0.00314119 -0.00363082 -0.00414085 -0.00467127 -0.0052221 -0.00578671 -0.00635852 -0.00693752 -0.00752371 -0.00811063 -0.00869182 -0.00926726 -0.00983698 -0.010395 -0.0109353 -0.011458 -0.0119629 -0.0124453 -0.0129003 -0.0133278 -0.0137278 -0.0140973 -0.0144331 -0.0147354 -0.015004 -0.0152383 -0.0154378 -0.0156023 -0.0157318 -0.0158285 -0.0158944 -0.0159293 -0.0159335 -0.0159112 -0.0158669 -0.0158007 -0.0157125 -0.0156084 -0.0154943 -0.0153702 -0.0152362 -0.0150985 -0.0149634 -0.014831 -0.0147012 -0.0145792 -0.0144703 -0.0143744 -0.0142915 -0.0142246 -0.0141765 -0.0141473 -0.0141369 -0.0141453 -0.0141724 -0.0142183 -0.014283 -0.0143633 -0.0144564 -0.0145623 -0.0146809 -0.014807 -0.0149354 -0.015066 -0.0151989 -0.0153277 -0.0154463 -0.0155545 -0.0156525 -0.0157342 -0.0157938 -0.0158313 -0.0158466 -0.0158354 -0.0157935 -0.0157208 -0.0156173 -0.0154812 -0.0153105 -0.0151052 -0.0148653 -0.0145917 -0.014285 -0.0139453 -0.0135727 -0.0131701 -0.0127409 -0.012285 -0.0118024 -0.0112981 -0.0107769 -0.0102388 -0.00968386 -0.009118 -0.00854713 -0.00797126 -0.00739038 -0.00681085 -0.006239 -0.00567485 -0.00511839 -0.00457605 -0.00405424 -0.00355297 -0.00307223 -0.00261813 -0.00219673 -0.00180805 -0.00145208 -0.00113077 -0.000846061 -0.000597948 -0.000386432 -0.000217368 -9.66081e-05 -2.4152e-05 0 0 -2.94443e-05 -0.000117777 -0.000264999 -0.000471109 -0.000727845 -0.00102694 -0.0013684 -0.00175222 -0.00217556 -0.0026356 -0.00313232 -0.00366573 -0.00422828 -0.00481242 -0.00541816 -0.00604549 -0.00668662 -0.00733377 -0.00798693 -0.00864611 -0.00930373 -0.00995222 -0.0105916 -0.0112218 -0.011836 -0.0124273 -0.0129956 -0.013541 -0.0140579 -0.0145408 -0.0149897 -0.0154046 -0.0157821 -0.0161191 -0.0164154 -0.0166712 -0.0168859 -0.0170593 -0.0171914 -0.0172821 -0.0173343 -0.0173509 -0.0173318 -0.0172771 -0.0171925 -0.0170836 -0.0169504 -0.016793 -0.0166188 -0.0164354 -0.0162427 -0.0160407 -0.0158372 -0.01564 -0.0154491 -0.0152645 -0.0150925 -0.0149396 -0.0148057 -0.0146908 -0.0145986 -0.0145325 -0.0144925 -0.0144787 -0.014491 -0.0145293 -0.0145936 -0.014684 -0.0147967 -0.014928 -0.0150781 -0.0152468 -0.0154277 -0.0156145 -0.0158071 -0.0160054 -0.0162019 -0.0163886 -0.0165656 -0.0167329 -0.016883 -0.0170087 -0.0171099 -0.0171865 -0.0172331 -0.0172441 -0.0172194 -0.0171592 -0.0170607 -0.0169212 -0.0167408 -0.0165194 -0.0162575 -0.0159557 -0.015614 -0.0152324 -0.0148142 -0.0143629 -0.0138784 -0.0133609 -0.0128158 -0.0122487 -0.0116596 -0.0110486 -0.0104224 -0.00978792 -0.0091452 -0.0084942 -0.00784239 -0.00719718 -0.0065586 -0.00592663 -0.00530885 -0.00471286 -0.00413866 -0.00358623 -0.00306288 -0.00257587 -0.0021252 -0.00171088 -0.00133555 -0.00100185 -0.000709761 -0.000459299 -0.000258356 -0.000114825 -2.87062e-05 0 0 -3.44149e-05 -0.00013766 -0.000309734 -0.000550638 -0.000849716 -0.00119631 -0.00159042 -0.00203205 -0.00251748 -0.003043 -0.00360862 -0.00421433 -0.00485121 -0.00551034 -0.00619172 -0.00689535 -0.00761214 -0.00833301 -0.00905796 -0.00978697 -0.0105113 -0.0112222 -0.0119196 -0.0126036 -0.0132663 -0.0138997 -0.0145039 -0.0150788 -0.0156184 -0.0161164 -0.0165729 -0.0169878 -0.0173576 -0.017679 -0.0179519 -0.0181763 -0.0183523 -0.01848 -0.0185593 -0.0185902 -0.0185767 -0.0185225 -0.0184276 -0.0182921 -0.0181232 -0.017928 -0.0177064 -0.0174586 -0.0171938 -0.0169211 -0.0166406 -0.0163523 -0.0160657 -0.0157902 -0.0155259 -0.0152727 -0.0150384 -0.0148307 -0.0146496 -0.0144951 -0.0143715 -0.0142832 -0.01423 -0.0142121 -0.0142293 -0.0142815 -0.0143688 -0.0144911 -0.014644 -0.014823 -0.0150283 -0.0152597 -0.0155094 -0.0157697 -0.0160405 -0.0163219 -0.0166044 -0.0168785 -0.0171442 -0.0174015 -0.0176413 -0.0178545 -0.018041 -0.0182009 -0.0183271 -0.0184126 -0.0184576 -0.0184618 -0.0184218 -0.0183337 -0.0181977 -0.0180138 -0.0177819 -0.0175024 -0.0171751 -0.0168001 -0.0163809 -0.0159212 -0.015421 -0.0148801 -0.0143049 -0.0137016 -0.0130702 -0.0124106 -0.0117308 -0.0110385 -0.0103337 -0.00961652 -0.00889549 -0.00817924 -0.00746779 -0.00676112 -0.0060681 -0.00539757 -0.00474955 -0.00412403 -0.00352962 -0.00297495 -0.00246002 -0.00198482 -0.00155284 -0.00116755 -0.000828967 -0.000537079 -0.000302107 -0.00013427 -3.35674e-05 0 0 -3.96214e-05 -0.000158486 -0.000356592 -0.000633942 -0.000977223 -0.00137312 -0.00182165 -0.00232279 -0.00287179 -0.0034639 -0.00409911 -0.00477742 -0.00548838 -0.00622153 -0.00697687 -0.00775442 -0.00854364 -0.00933405 -0.0101256 -0.0109184 -0.0117023 -0.0124673 -0.0132134 -0.0139406 -0.0146399 -0.0153026 -0.0159286 -0.0165178 -0.0170636 -0.017559 -0.0180042 -0.0183991 -0.0187402 -0.019024 -0.0192505 -0.0194196 -0.0195322 -0.0195887 -0.0195892 -0.0195337 -0.0194273 -0.0192751 -0.0190771 -0.0188333 -0.0185526 -0.018244 -0.0179075 -0.017543 -0.017162 -0.0167755 -0.0163837 -0.0159865 -0.0155953 -0.0152217 -0.0148656 -0.0145271 -0.0142154 -0.0139397 -0.0137002 -0.0134968 -0.0133346 -0.0132188 -0.0131494 -0.0131265 -0.0131498 -0.0132193 -0.013335 -0.013497 -0.0136997 -0.0139381 -0.014212 -0.0145214 -0.014857 -0.0152094 -0.0155785 -0.0159645 -0.0163558 -0.016741 -0.0171201 -0.017493 -0.0178488 -0.0181761 -0.018475 -0.0187456 -0.0189789 -0.0191664 -0.019308 -0.0194037 -0.0194486 -0.0194379 -0.0193716 -0.0192497 -0.0190717 -0.0188372 -0.0185462 -0.0181987 -0.0177983 -0.0173488 -0.0168502 -0.0163024 -0.0157122 -0.0150866 -0.0144256 -0.013729 -0.0130059 -0.012265 -0.0115063 -0.0107299 -0.00994567 -0.00916342 -0.00838319 -0.00760498 -0.00683902 -0.00609559 -0.00537467 -0.00467626 -0.00401048 -0.00338744 -0.00280714 -0.00226958 -0.00177925 -0.00134064 -0.000953756 -0.000618596 -0.00034796 -0.000154649 -3.86623e-05 0 0 -4.50638e-05 -0.000180255 -0.000405574 -0.000721021 -0.00111037 -0.00155739 -0.00206208 -0.00262444 -0.0032385 -0.00389828 -0.00460378 -0.00535499 -0.00613978 -0.00694599 -0.00777363 -0.00862269 -0.00948112 -0.0103369 -0.0111899 -0.0120403 -0.0128766 -0.0136875 -0.0144728 -0.0152327 -0.0159571 -0.0166361 -0.0172697 -0.0178579 -0.0183933 -0.0188686 -0.0192837 -0.0196386 -0.0199299 -0.0201541 -0.0203112 -0.0204011 -0.0204254 -0.0203853 -0.020281 -0.0201124 -0.0198861 -0.0196087 -0.0192801 -0.0189005 -0.0184807 -0.0180317 -0.0175536 -0.0170463 -0.0165234 -0.0159986 -0.0154719 -0.0149431 -0.0144262 -0.0139346 -0.0134685 -0.0130277 -0.0126235 -0.0122668 -0.0119575 -0.0116958 -0.0114878 -0.0113394 -0.0112508 -0.0112219 -0.0112526 -0.0113428 -0.0114925 -0.0117017 -0.011964 -0.0122732 -0.0126292 -0.013032 -0.0134706 -0.0139336 -0.0144211 -0.0149332 -0.0154561 -0.0159761 -0.0164932 -0.0170075 -0.0175055 -0.0179737 -0.018412 -0.0188206 -0.0191886 -0.0195053 -0.0197707 -0.0199848 -0.0201413 -0.0202338 -0.0202624 -0.0202271 -0.0201267 -0.0199601 -0.0197272 -0.019428 -0.0190663 -0.0186457 -0.0181661 -0.0176276 -0.0170377 -0.0164037 -0.0157257 -0.0150037 -0.0142476 -0.0134674 -0.012663 -0.0118344 -0.0109929 -0.0101497 -0.00930481 -0.00845819 -0.00762164 -0.00680691 -0.00601401 -0.00524294 -0.00450546 -0.00381334 -0.00316658 -0.00256517 -0.00201479 -0.00152111 -0.00108413 -0.000703852 -0.000395917 -0.000175963 -4.39908e-05 0 0 -5.07421e-05 -0.000202968 -0.000456679 -0.000811874 -0.00124915 -0.00174909 -0.00231171 -0.00293701 -0.00361761 -0.00434615 -0.00512264 -0.00594706 -0.00680543 -0.00768373 -0.00858198 -0.00950017 -0.0104246 -0.0113415 -0.0122509 -0.0131528 -0.0140344 -0.0148828 -0.015698 -0.01648 -0.0172178 -0.0179002 -0.0185274 -0.0190992 -0.0196078 -0.0200451 -0.0204113 -0.0207063 -0.0209267 -0.0210693 -0.0211339 -0.0211207 -0.0210319 -0.02087 -0.0206348 -0.0203265 -0.0199532 -0.0195234 -0.0190369 -0.0184938 -0.0179074 -0.017291 -0.0166447 -0.0159683 -0.0152781 -0.0145904 -0.0139051 -0.0132223 -0.0125581 -0.0119288 -0.0113343 -0.0107746 -0.0102628 -0.00981176 -0.00942161 -0.00909231 -0.00883103 -0.00864494 -0.00853405 -0.00849836 -0.00853772 -0.00865198 -0.00884114 -0.00910519 -0.00943672 -0.00982829 -0.0102799 -0.0107915 -0.0113501 -0.0119423 -0.0125683 -0.013228 -0.0139052 -0.0145838 -0.0152637 -0.015945 -0.0166114 -0.0172471 -0.017852 -0.018426 -0.0189562 -0.0194295 -0.0198458 -0.0202052 -0.0204998 -0.0207214 -0.0208702 -0.0209461 -0.0209471 -0.0208711 -0.0207182 -0.0204882 -0.0201849 -0.0198117 -0.0193687 -0.0188558 -0.0182812 -0.0176528 -0.0169706 -0.0162347 -0.0154561 -0.0146458 -0.0138038 -0.01293 -0.0120373 -0.0111381 -0.0102326 -0.00932076 -0.00841593 -0.00753154 -0.00666758 -0.00582407 -0.00501456 -0.00425265 -0.00353832 -0.00287158 -0.00225945 -0.00170895 -0.00122009 -0.000792847 -0.000445976 -0.000198212 -4.95529e-05 0 0 -5.65731e-05 -0.000226292 -0.000509158 -0.000905169 -0.00139152 -0.00194539 -0.00256678 -0.0032557 -0.00400322 -0.00480039 -0.00564723 -0.00654374 -0.00747388 -0.00842164 -0.00938702 -0.01037 -0.0113551 -0.0123268 -0.0132851 -0.01423 -0.0151471 -0.016022 -0.0168547 -0.0176453 -0.0183815 -0.0190511 -0.0196542 -0.0201906 -0.0206521 -0.02103 -0.0213244 -0.0215353 -0.0216596 -0.0216941 -0.0216389 -0.021494 -0.0212628 -0.0209489 -0.0205522 -0.0200727 -0.0195207 -0.0189065 -0.0182301 -0.0174914 -0.0167064 -0.0158912 -0.0150455 -0.0141696 -0.0132825 -0.0124034 -0.0115323 -0.0106692 -0.00983316 -0.00904309 -0.00829904 -0.00760099 -0.00696415 -0.0064037 -0.00591966 -0.00551201 -0.00518913 -0.00495938 -0.00482274 -0.00477924 -0.00482868 -0.0049709 -0.00520589 -0.00553365 -0.00594552 -0.00643283 -0.00699558 -0.00763377 -0.00833202 -0.00907495 -0.00986256 -0.0106949 -0.0115528 -0.0124174 -0.0132887 -0.0141667 -0.0150323 -0.0158665 -0.0166694 -0.0174409 -0.0181654 -0.0188272 -0.0194263 -0.0199627 -0.0204266 -0.020808 -0.0211068 -0.0213231 -0.0214538 -0.0214957 -0.0214489 -0.0213133 -0.0210922 -0.0207891 -0.020404 -0.0199369 -0.0193963 -0.0187908 -0.0181205 -0.0173854 -0.0165976 -0.0157694 -0.0149006 -0.0139913 -0.0130557 -0.012108 -0.0111481 -0.0101762 -0.0092073 -0.00825662 -0.00732418 -0.00640996 -0.00552951 -0.0046984 -0.00391661 -0.00318415 -0.00250956 -0.00190138 -0.00135962 -0.000884277 -0.000497406 -0.000221069 -5.52673e-05 0 0 -6.24734e-05 -0.000249893 -0.00056226 -0.000999574 -0.00153542 -0.0021434 -0.00282351 -0.00357575 -0.00438943 -0.00525389 -0.00616913 -0.00713514 -0.0081337 -0.00914661 -0.0101739 -0.0112154 -0.0122539 -0.0132718 -0.0142692 -0.015246 -0.0161862 -0.0170739 -0.0179089 -0.0186913 -0.0194078 -0.020045 -0.0206028 -0.0210814 -0.0214716 -0.0217646 -0.0219603 -0.0220588 -0.0220573 -0.0219531 -0.0217461 -0.0214365 -0.0210289 -0.0205283 -0.0199347 -0.019248 -0.0184807 -0.0176456 -0.0167424 -0.0157714 -0.0147513 -0.0137012 -0.012621 -0.0115107 -0.0103929 -0.00929002 -0.00820205 -0.00712901 -0.00609302 -0.00511623 -0.00419863 -0.00334023 -0.00255867 -0.00187157 -0.00127896 -0.000780809 -0.00038682 -0.000106673 5.96328e-05 0.000112097 5.09251e-05 -0.000123675 -0.000411705 -0.000813163 -0.001318 -0.00191618 -0.0026077 -0.00339256 -0.00425289 -0.00517085 -0.00614643 -0.00717963 -0.0082483 -0.00933026 -0.0104255 -0.0115341 -0.0126336 -0.0137018 -0.0147387 -0.0157443 -0.0166998 -0.0175869 -0.0184053 -0.0191552 -0.0198243 -0.0204006 -0.020884 -0.0212746 -0.0215678 -0.0217593 -0.0218491 -0.0218371 -0.0217264 -0.0215201 -0.0212181 -0.0208204 -0.0203362 -0.0197746 -0.0191356 -0.0184192 -0.0176387 -0.0168074 -0.0159255 -0.0149928 -0.0140252 -0.0130386 -0.0120328 -0.011008 -0.00998112 -0.00896932 -0.00797259 -0.00699093 -0.00604204 -0.00514362 -0.00429567 -0.00349818 -0.00276141 -0.0020956 -0.00150074 -0.000976841 -0.000549473 -0.00024421 -6.10525e-05 0 0 -6.8443e-05 -0.000273772 -0.000615987 -0.00109509 -0.00168087 -0.00234314 -0.0030819 -0.00389714 -0.00477626 -0.00570665 -0.00668832 -0.00772127 -0.0087849 -0.00985864 -0.0109425 -0.0120364 -0.0131209 -0.0141765 -0.0152031 -0.0162008 -0.0171518 -0.0180383 -0.0188604 -0.0196181 -0.0202968 -0.0208819 -0.0213734 -0.0217714 -0.0220663 -0.0222489 -0.022319 -0.0222768 -0.0221199 -0.0218462 -0.0214556 -0.0209482 -0.0203303 -0.0196083 -0.0187823 -0.0178523 -0.0168333 -0.0157405 -0.014574 -0.0133337 -0.012042 -0.0107211 -0.00937095 -0.00799167 -0.0066094 -0.00525031 -0.0039144 -0.00260167 -0.00133773 -0.000148193 0.000966944 0.00200768 0.00295368 0.00378462 0.0045005 0.00510131 0.00557591 0.00591317 0.00611308 0.00617564 0.00610109 0.00588969 0.00554141 0.00505627 0.00444584 0.00372166 0.00288375 0.0019321 0.000887313 -0.000230026 -0.00141991 -0.00268235 -0.00399168 -0.00532227 -0.0066741 -0.00804718 -0.00941553 -0.0107531 -0.01206 -0.0133362 -0.0145597 -0.0157086 -0.0167828 -0.0177825 -0.018693 -0.0194994 -0.0202019 -0.0208004 -0.021289 -0.0216618 -0.0219187 -0.0220597 -0.0220875 -0.0220046 -0.0218109 -0.0215066 -0.0211011 -0.0206042 -0.0200158 -0.0193359 -0.0185791 -0.01776 -0.0168785 -0.0159346 -0.0149459 -0.0139299 -0.0128867 -0.0118161 -0.0107374 -0.00966963 -0.00861283 -0.007567 -0.00655215 -0.00558832 -0.0046755 -0.00381369 -0.00301501 -0.00229159 -0.00164344 -0.00107054 -0.000602177 -0.000267634 -6.69086e-05 0 0 -7.4482e-05 -0.000297928 -0.000670338 -0.00119171 -0.00182786 -0.00254461 -0.00334195 -0.00421988 -0.00516369 -0.00615866 -0.00720481 -0.00830212 -0.00942747 -0.0105577 -0.0116929 -0.012833 -0.0139562 -0.0150409 -0.0160869 -0.0170944 -0.0180438 -0.0189155 -0.0197094 -0.0204256 -0.0210483 -0.0215617 -0.0219658 -0.0222606 -0.0224362 -0.0224829 -0.0224006 -0.0221893 -0.0218475 -0.0213735 -0.0207673 -0.0200291 -0.0191668 -0.0181889 -0.0170951 -0.0158856 -0.0145784 -0.0131915 -0.0117248 -0.0101785 -0.00857852 -0.00695084 -0.00529548 -0.00361244 -0.00193195 -0.000284252 0.00133066 0.00291278 0.0044327 0.005861 0.00719768 0.00844274 0.00957291 0.0105649 0.0114187 0.0121343 0.0126991 0.0131001 0.0133376 0.0134114 0.0133218 0.0130692 0.0126535 0.0120747 0.011346 0.0104807 0.00947877 0.0083402 0.00708859 0.00574752 0.00431699 0.002797 0.00121703 -0.000393458 -0.00203446 -0.00370597 -0.00537796 -0.0070204 -0.00863329 -0.0102166 -0.0117448 -0.0131922 -0.0145589 -0.0158448 -0.0170325 -0.0181044 -0.0190604 -0.0199007 -0.0206176 -0.0212033 -0.0216578 -0.0219812 -0.0221754 -0.0222425 -0.0221825 -0.0219952 -0.0216909 -0.0212796 -0.0207612 -0