<?xml version="1.0"?> 
<VTKFile type="StructuredGrid" version="0.1"> 
<StructuredGrid WholeExtent="0 128 0 128 0 0"> 
<Piece Extent="0 128 0 128 0 0"> 
<PointData>
<DataArray type="Float32" Name="u" format="ascii" NumberOfComponents="1"> 
0 0 0 0 0 0 0 0 0 0 0 0 0 0 0 0 0 0 0 0 0 0 0 0 0 0 0 0 0 0 0 0 0 0 0 0 0 0 0 0 0 0 0 0 0 0 0 0 0 0 0 0 0 0 0 0 0 0 0 0 0 0 0 0 0 0 0 0 0 0 0 0 0 0 0 0 0 0 0 0 0 0 0 0 0 0 0 0 0 0 0 0 0 0 0 0 0 0 0 0 0 0 0 0 0 0 0 0 0 0 0 0 0 0 0 0 0 0 0 0 0 0 0 0 0 0 0 0 0 0 3.02837e-09 1.21135e-08 2.72553e-08 4.84539e-08 7.57092e-08 1.09021e-07 1.4839e-07 1.93816e-07 2.52832e-07 3.32976e-07 4.34245e-07 5.5664e-07 7.00162e-07 8.64809e-07 1.05058e-06 1.25748e-06 1.47869e-06 1.7074e-06 1.94361e-06 2.18731e-06 2.43851e-06 2.69721e-06 2.9634e-06 3.23709e-06 3.49559e-06 3.71621e-06 3.89894e-06 4.04379e-06 4.15075e-06 4.21983e-06 4.25103e-06 4.24434e-06 4.1847e-06 4.05705e-06 3.86138e-06 3.5977e-06 3.266e-06 2.86628e-06 2.39855e-06 1.86281e-06 1.26574e-06 6.14049e-07 -9.22698e-08 -8.53214e-07 -1.66878e-06 -2.53898e-06 -3.4638e-06 -4.44325e-06 -5.43539e-06 -6.39831e-06 -7.332e-06 -8.23646e-06 -9.11169e-06 -9.95769e-06 -1.07745e-05 -1.1562e-05 -1.22866e-05 -1.29146e-05 -1.3446e-05 -1.38808e-05 -1.4219e-05 -1.44605e-05 -1.46054e-05 -1.46537e-05 -1.46054e-05 -1.44605e-05 -1.4219e-05 -1.38808e-05 -1.3446e-05 -1.29146e-05 -1.22866e-05 -1.1562e-05 -1.07745e-05 -9.95769e-06 -9.11169e-06 -8.23646e-06 -7.332e-06 -6.39831e-06 -5.43539e-06 -4.44325e-06 -3.4638e-06 -2.53898e-06 -1.66878e-06 -8.53214e-07 -9.22698e-08 6.14049e-07 1.26574e-06 1.86281e-06 2.39855e-06 2.86628e-06 3.266e-06 3.5977e-06 3.86138e-06 4.05705e-06 4.1847e-06 4.24434e-06 4.25103e-06 4.21983e-06 4.15075e-06 4.04379e-06 3.89894e-06 3.71621e-06 3.49559e-06 3.23709e-06 2.9634e-06 2.69721e-06 2.43851e-06 2.18731e-06 1.94361e-06 1.7074e-06 1.47869e-06 1.25748e-06 1.05058e-06 8.64809e-07 7.00162e-07 5.5664e-07 4.34245e-07 3.32976e-07 2.52832e-07 1.93816e-07 1.4839e-07 1.09021e-07 7.57092e-08 4.84539e-08 2.72553e-08 1.21135e-08 3.02837e-09 0 0 1.21135e-08 4.84539e-08 1.09021e-07 1.93816e-07 3.02837e-07 4.36085e-07 5.9356e-07 7.75262e-07 1.01133e-06 1.3319e-06 1.73698e-06 2.22656e-06 2.80065e-06 3.45924e-06 4.20233e-06 5.02993e-06 5.91478e-06 6.82961e-06 7.77443e-06 8.74925e-06 9.75405e-06 1.07888e-05 1.18536e-05 1.29484e-05 1.39824e-05 1.48648e-05 1.55958e-05 1.61751e-05 1.6603e-05 1.68793e-05 1.70041e-05 1.69774e-05 1.67388e-05 1.62282e-05 1.54455e-05 1.43908e-05 1.3064e-05 1.14651e-05 9.59421e-06 7.45123e-06 5.06296e-06 2.45619e-06 -3.69079e-07 -3.41286e-06 -6.67514e-06 -1.01559e-05 -1.38552e-05 -1.7773e-05 -2.17416e-05 -2.55932e-05 -2.9328e-05 -3.29458e-05 -3.64468e-05 -3.98308e-05 -4.30979e-05 -4.6248e-05 -4.91465e-05 -5.16585e-05 -5.37841e-05 -5.55232e-05 -5.68758e-05 -5.7842e-05 -5.84217e-05 -5.86149e-05 -5.84217e-05 -5.7842e-05 -5.68758e-05 -5.55232e-05 -5.37841e-05 -5.16585e-05 -4.91465e-05 -4.6248e-05 -4.30979e-05 -3.98308e-05 -3.64468e-05 -3.29458e-05 -2.9328e-05 -2.55932e-05 -2.17416e-05 -1.7773e-05 -1.38552e-05 -1.01559e-05 -6.67514e-06 -3.41286e-06 -3.69079e-07 2.45619e-06 5.06296e-06 7.45123e-06 9.59421e-06 1.14651e-05 1.3064e-05 1.43908e-05 1.54455e-05 1.62282e-05 1.67388e-05 1.69774e-05 1.70041e-05 1.68793e-05 1.6603e-05 1.61751e-05 1.55958e-05 1.48648e-05 1.39824e-05 1.29484e-05 1.18536e-05 1.07888e-05 9.75405e-06 8.74925e-06 7.77443e-06 6.82961e-06 5.91478e-06 5.02993e-06 4.20233e-06 3.45924e-06 2.80065e-06 2.22656e-06 1.73698e-06 1.3319e-06 1.01133e-06 7.75262e-07 5.9356e-07 4.36085e-07 3.02837e-07 1.93816e-07 1.09021e-07 4.84539e-08 1.21135e-08 0 0 2.72553e-08 1.09021e-07 2.45298e-07 4.36085e-07 6.81383e-07 9.81191e-07 1.33551e-06 1.74434e-06 2.27549e-06 2.99678e-06 3.9082e-06 5.00976e-06 6.30145e-06 7.78328e-06 9.45525e-06 1.13173e-05 1.33082e-05 1.53666e-05 1.74925e-05 1.96858e-05 2.19466e-05 2.42749e-05 2.66706e-05 2.91338e-05 3.14603e-05 3.34459e-05 3.50904e-05 3.63941e-05 3.73567e-05 3.79785e-05 3.82592e-05 3.8199e-05 3.76623e-05 3.65134e-05 3.47524e-05 3.23793e-05 2.9394e-05 2.57966e-05 2.1587e-05 1.67653e-05 1.13917e-05 5.52644e-06 -8.30428e-07 -7.67893e-06 -1.50191e-05 -2.28508e-05 -3.11742e-05 -3.99892e-05 -4.89186e-05 -5.75848e-05 -6.5988e-05 -7.41281e-05 -8.20052e-05 -8.96192e-05 -9.69702e-05 -0.000104058 -0.00011058 -0.000116232 -0.000121014 -0.000124927 -0.000127971 -0.000130144 -0.000131449 -0.000131884 -0.000131449 -0.000130144 -0.000127971 -0.000124927 -0.000121014 -0.000116232 -0.00011058 -0.000104058 -9.69702e-05 -8.96192e-05 -8.20052e-05 -7.41281e-05 -6.5988e-05 -5.75848e-05 -4.89186e-05 -3.99892e-05 -3.11742e-05 -2.28508e-05 -1.50191e-05 -7.67893e-06 -8.30428e-07 5.52644e-06 1.13917e-05 1.67653e-05 2.1587e-05 2.57966e-05 2.9394e-05 3.23793e-05 3.47524e-05 3.65134e-05 3.76623e-05 3.8199e-05 3.82592e-05 3.79785e-05 3.73567e-05 3.63941e-05 3.50904e-05 3.34459e-05 3.14603e-05 2.91338e-05 2.66706e-05 2.42749e-05 2.19466e-05 1.96858e-05 1.74925e-05 1.53666e-05 1.33082e-05 1.13173e-05 9.45525e-06 7.78328e-06 6.30145e-06 5.00976e-06 3.9082e-06 2.99678e-06 2.27549e-06 1.74434e-06 1.33551e-06 9.81191e-07 6.81383e-07 4.36085e-07 2.45298e-07 1.09021e-07 2.72553e-08 0 0 4.84539e-08 1.93816e-07 4.36085e-07 7.75262e-07 1.21135e-06 1.74434e-06 2.37424e-06 3.10105e-06 4.04532e-06 5.32761e-06 6.94792e-06 8.90624e-06 1.12026e-05 1.38369e-05 1.68093e-05 2.01197e-05 2.36591e-05 2.73184e-05 3.10977e-05 3.4997e-05 3.90162e-05 4.31553e-05 4.74144e-05 5.17935e-05 5.59295e-05 5.94593e-05 6.2383e-05 6.47006e-05 6.6412e-05 6.75173e-05 6.80164e-05 6.79094e-05 6.69552e-05 6.49128e-05 6.17821e-05 5.75632e-05 5.2256e-05 4.58605e-05 3.83769e-05 2.98049e-05 2.02519e-05 9.82478e-06 -1.47632e-06 -1.36514e-05 -2.67005e-05 -4.06237e-05 -5.54208e-05 -7.1092e-05 -8.69663e-05 -0.000102373 -0.000117312 -0.000131783 -0.000145787 -0.000159323 -0.000172391 -0.000184992 -0.000196586 -0.000206634 -0.000215136 -0.000222093 -0.000227503 -0.000231368 -0.000233687 -0.00023446 -0.000233687 -0.000231368 -0.000227503 -0.000222093 -0.000215136 -0.000206634 -0.000196586 -0.000184992 -0.000172391 -0.000159323 -0.000145787 -0.000131783 -0.000117312 -0.000102373 -8.69663e-05 -7.1092e-05 -5.54208e-05 -4.06237e-05 -2.67005e-05 -1.36514e-05 -1.47632e-06 9.82478e-06 2.02519e-05 2.98049e-05 3.83769e-05 4.58605e-05 5.2256e-05 5.75632e-05 6.17821e-05 6.49128e-05 6.69552e-05 6.79094e-05 6.80164e-05 6.75173e-05 6.6412e-05 6.47006e-05 6.2383e-05 5.94593e-05 5.59295e-05 5.17935e-05 4.74144e-05 4.31553e-05 3.90162e-05 3.4997e-05 3.10977e-05 2.73184e-05 2.36591e-05 2.01197e-05 1.68093e-05 1.38369e-05 1.12026e-05 8.90624e-06 6.94792e-06 5.32761e-06 4.04532e-06 3.10105e-06 2.37424e-06 1.74434e-06 1.21135e-06 7.75262e-07 4.36085e-07 1.93816e-07 4.84539e-08 0 0 7.57092e-08 3.02837e-07 6.81383e-07 1.21135e-06 1.89273e-06 2.72553e-06 3.70975e-06 4.84539e-06 6.32081e-06 8.32439e-06 1.08561e-05 1.3916e-05 1.7504e-05 2.16202e-05 2.62646e-05 3.14371e-05 3.69674e-05 4.26851e-05 4.85902e-05 5.46828e-05 6.09628e-05 6.74302e-05 7.40851e-05 8.09274e-05 8.73898e-05 9.29052e-05 9.74734e-05 0.000101095 0.000103769 0.000105496 0.000106276 0.000106108 0.000104618 0.000101426 9.65345e-05 8.99425e-05 8.165e-05 7.16571e-05 5.99638e-05 4.65702e-05 3.16435e-05 1.53512e-05 -2.30675e-06 -2.13304e-05 -4.17196e-05 -6.34745e-05 -8.6595e-05 -0.000111081 -0.000135885 -0.000159958 -0.0001833 -0.000205911 -0.000227792 -0.000248942 -0.000269362 -0.00028905 -0.000307166 -0.000322866 -0.000336151 -0.00034702 -0.000355474 -0.000361512 -0.000365135 -0.000366343 -0.000365135 -0.000361512 -0.000355474 -0.00034702 -0.000336151 -0.000322866 -0.000307166 -0.00028905 -0.000269362 -0.000248942 -0.000227792 -0.000205911 -0.0001833 -0.000159958 -0.000135885 -0.000111081 -8.6595e-05 -6.34745e-05 -4.17196e-05 -2.13304e-05 -2.30675e-06 1.53512e-05 3.16435e-05 4.65702e-05 5.99638e-05 7.16571e-05 8.165e-05 8.99425e-05 9.65345e-05 0.000101426 0.000104618 0.000106108 0.000106276 0.000105496 0.000103769 0.000101095 9.74734e-05 9.29052e-05 8.73898e-05 8.09274e-05 7.40851e-05 6.74302e-05 6.09628e-05 5.46828e-05 4.85902e-05 4.26851e-05 3.69674e-05 3.14371e-05 2.62646e-05 2.16202e-05 1.7504e-05 1.3916e-05 1.08561e-05 8.32439e-06 6.32081e-06 4.84539e-06 3.70975e-06 2.72553e-06 1.89273e-06 1.21135e-06 6.81383e-07 3.02837e-07 7.57092e-08 0 0 1.09021e-07 4.36085e-07 9.81191e-07 1.74434e-06 2.72553e-06 3.92476e-06 5.34204e-06 6.97736e-06 9.10197e-06 1.19871e-05 1.56328e-05 2.0039e-05 2.52058e-05 3.11331e-05 3.7821e-05 4.52694e-05 5.3233e-05 6.14665e-05 6.99699e-05 7.87432e-05 8.77864e-05 9.70995e-05 0.000106683 0.000116535 0.000125841 0.000133783 0.000140362 0.000145576 0.000149427 0.000151914 0.000153037 0.000152796 0.000150649 0.000146054 0.00013901 0.000129517 0.000117576 0.000103186 8.63479e-05 6.70611e-05 4.55667e-05 2.21057e-05 -3.32171e-06 -3.07157e-05 -6.00762e-05 -9.14033e-05 -0.000124697 -0.000159957 -0.000195674 -0.000230339 -0.000263952 -0.000296513 -0.000328021 -0.000358477 -0.000387881 -0.000416232 -0.000442319 -0.000464927 -0.000484057 -0.000499709 -0.000511882 -0.000520578 -0.000525795 -0.000527534 -0.000525795 -0.000520578 -0.000511882 -0.000499709 -0.000484057 -0.000464927 -0.000442319 -0.000416232 -0.000387881 -0.000358477 -0.000328021 -0.000296513 -0.000263952 -0.000230339 -0.000195674 -0.000159957 -0.000124697 -9.14033e-05 -6.00762e-05 -3.07157e-05 -3.32171e-06 2.21057e-05 4.55667e-05 6.70611e-05 8.63479e-05 0.000103186 0.000117576 0.000129517 0.00013901 0.000146054 0.000150649 0.000152796 0.000153037 0.000151914 0.000149427 0.000145576 0.000140362 0.000133783 0.000125841 0.000116535 0.000106683 9.70995e-05 8.77864e-05 7.87432e-05 6.99699e-05 6.14665e-05 5.3233e-05 4.52694e-05 3.7821e-05 3.11331e-05 2.52058e-05 2.0039e-05 1.56328e-05 1.19871e-05 9.10197e-06 6.97736e-06 5.34204e-06 3.92476e-06 2.72553e-06 1.74434e-06 9.81191e-07 4.36085e-07 1.09021e-07 0 0 1.4839e-07 5.9356e-07 1.33551e-06 2.37424e-06 3.70975e-06 5.34204e-06 7.27111e-06 9.49696e-06 1.23888e-05 1.63158e-05 2.1278e-05 2.72754e-05 3.43079e-05 4.23757e-05 5.14786e-05 6.16167e-05 7.2456e-05 8.36627e-05 9.52368e-05 0.000107178 0.000119487 0.000132163 0.000145207 0.000158618 0.000171284 0.000182094 0.000191048 0.000198145 0.000203387 0.000206772 0.0002083 0.000207973 0.00020505 0.000198795 0.000189208 0.000176287 0.000160034 0.000140448 0.000117529 9.12776e-05 6.20213e-05 3.00884e-05 -4.52122e-06 -4.18075e-05 -8.17704e-05 -0.00012441 -0.000169726 -0.000217719 -0.000266334 -0.000313517 -0.000359268 -0.000403587 -0.000446473 -0.000487927 -0.000527949 -0.000566538 -0.000602045 -0.000632817 -0.000658855 -0.000680159 -0.000696729 -0.000708564 -0.000715666 -0.000718033 -0.000715666 -0.000708564 -0.000696729 -0.000680159 -0.000658855 -0.000632817 -0.000602045 -0.000566538 -0.000527949 -0.000487927 -0.000446473 -0.000403587 -0.000359268 -0.000313517 -0.000266334 -0.000217719 -0.000169726 -0.00012441 -8.17704e-05 -4.18075e-05 -4.52122e-06 3.00884e-05 6.20213e-05 9.12776e-05 0.000117529 0.000140448 0.000160034 0.000176287 0.000189208 0.000198795 0.00020505 0.000207973 0.0002083 0.000206772 0.000203387 0.000198145 0.000191048 0.000182094 0.000171284 0.000158618 0.000145207 0.000132163 0.000119487 0.000107178 9.52368e-05 8.36627e-05 7.2456e-05 6.16167e-05 5.14786e-05 4.23757e-05 3.43079e-05 2.72754e-05 2.1278e-05 1.63158e-05 1.23888e-05 9.49696e-06 7.27111e-06 5.34204e-06 3.70975e-06 2.37424e-06 1.33551e-06 5.9356e-07 1.4839e-07 0 0 1.93816e-07 7.75262e-07 1.74434e-06 3.10105e-06 4.84539e-06 6.97736e-06 9.49696e-06 1.24042e-05 1.61813e-05 2.13104e-05 2.77917e-05 3.5625e-05 4.48103e-05 5.53478e-05 6.72373e-05 8.04789e-05 9.46364e-05 0.000109274 0.000124391 0.000139988 0.000156065 0.000172621 0.000189658 0.000207174 0.000223718 0.000237837 0.000249532 0.000258802 0.000265648 0.000270069 0.000272066 0.000271638 0.000267821 0.000259651 0.000247128 0.000230253 0.000209024 0.000183442 0.000153507 0.00011922 8.10074e-05 3.92991e-05 -5.90527e-06 -5.46057e-05 -0.000106802 -0.000162495 -0.000221683 -0.000284368 -0.000347865 -0.000409492 -0.000469248 -0.000527133 -0.000583148 -0.000637292 -0.000689566 -0.000739969 -0.000786344 -0.000826537 -0.000860546 -0.000888371 -0.000910013 -0.000925472 -0.000934747 -0.000937839 -0.000934747 -0.000925472 -0.000910013 -0.000888371 -0.000860546 -0.000826537 -0.000786344 -0.000739969 -0.000689566 -0.000637292 -0.000583148 -0.000527133 -0.000469248 -0.000409492 -0.000347865 -0.000284368 -0.000221683 -0.000162495 -0.000106802 -5.46057e-05 -5.90527e-06 3.92991e-05 8.10074e-05 0.00011922 0.000153507 0.000183442 0.000209024 0.000230253 0.000247128 0.000259651 0.000267821 0.000271638 0.000272066 0.000270069 0.000265648 0.000258802 0.000249532 0.000237837 0.000223718 0.000207174 0.000189658 0.000172621 0.000156065 0.000139988 0.000124391 0.000109274 9.46364e-05 8.04789e-05 6.72373e-05 5.53478e-05 4.48103e-05 3.5625e-05 2.77917e-05 2.13104e-05 1.61813e-05 1.24042e-05 9.49696e-06 6.97736e-06 4.84539e-06 3.10105e-06 1.74434e-06 7.75262e-07 1.93816e-07 0 0 2.5019e-07 1.00076e-06 2.25171e-06 4.00304e-06 6.25475e-06 9.00685e-06 1.22593e-05 1.60122e-05 2.08446e-05 2.73359e-05 3.54861e-05 4.52951e-05 5.67629e-05 6.98896e-05 8.46751e-05 0.000101119 0.000118638 0.000136648 0.000155148 0.000174138 0.000193619 0.00021359 0.000234051 0.000255003 0.000274562 0.000290844 0.00030385 0.000313578 0.00032003 0.000323205 0.000323103 0.000319724 0.000311831 0.000298184 0.000278785 0.000253633 0.000222728 0.00018607 0.000143659 9.54958e-05 4.22363e-05 -1.54621e-05 -7.75994e-05 -0.000144176 -0.000215191 -0.000290645 -0.000370538 -0.000454869 -0.000540149 -0.000622887 -0.000703083 -0.000780736 -0.000855846 -0.000928415 -0.000998441 -0.00106592 -0.001128 -0.0011818 -0.00122732 -0.00126456 -0.00129353 -0.00131422 -0.00132664 -0.00133077 -0.00132664 -0.00131422 -0.00129353 -0.00126456 -0.00122732 -0.0011818 -0.001128 -0.00106592 -0.000998441 -0.000928415 -0.000855846 -0.000780736 -0.000703083 -0.000622887 -0.000540149 -0.000454869 -0.000370538 -0.000290645 -0.000215191 -0.000144176 -7.75994e-05 -1.54621e-05 4.22363e-05 9.54958e-05 0.000143659 0.00018607 0.000222728 0.000253633 0.000278785 0.000298184 0.000311831 0.000319724 0.000323103 0.000323205 0.00032003 0.000313578 0.00030385 0.000290844 0.000274562 0.000255003 0.000234051 0.00021359 0.000193619 0.000174138 0.000155148 0.000136648 0.000118638 0.000101119 8.46751e-05 6.98896e-05 5.67629e-05 4.52951e-05 3.54861e-05 2.73359e-05 2.08446e-05 1.60122e-05 1.22593e-05 9.00685e-06 6.25475e-06 4.00304e-06 2.25171e-06 1.00076e-06 2.5019e-07 0 0 3.22406e-07 1.28962e-06 2.90166e-06 5.1585e-06 8.06015e-06 1.16066e-05 1.57979e-05 2.0634e-05 2.67441e-05 3.47572e-05 4.46735e-05 5.64929e-05 7.02154e-05 8.58411e-05 0.00010337 0.000122802 0.000143326 0.000164133 0.000185223 0.000206594 0.000228248 0.000250185 0.000272404 0.000294905 0.000315237 0.000330947 0.000342037 0.000348505 0.000350352 0.000347577 0.000340182 0.000328165 0.00030995 0.000283959 0.000250191 0.000208648 0.000159329 0.000102233 3.73618e-05 -3.52856e-05 -0.000114581 -0.000199395 -0.000289729 -0.000385582 -0.000486955 -0.000593847 -0.000706259 -0.00082419 -0.000943069 -0.00105833 -0.00116996 -0.00127798 -0.00138237 -0.00148314 -0.00158028 -0.00167381 -0.00175979 -0.00183431 -0.00189736 -0.00194895 -0.00198908 -0.00201774 -0.00203493 -0.00204066 -0.00203493 -0.00201774 -0.00198908 -0.00194895 -0.00189736 -0.00183431 -0.00175979 -0.00167381 -0.00158028 -0.00148314 -0.00138237 -0.00127798 -0.00116996 -0.00105833 -0.000943069 -0.00082419 -0.000706259 -0.000593847 -0.000486955 -0.000385582 -0.000289729 -0.000199395 -0.000114581 -3.52856e-05 3.73618e-05 0.000102233 0.000159329 0.000208648 0.000250191 0.000283959 0.00030995 0.000328165 0.000340182 0.000347577 0.000350352 0.000348505 0.000342037 0.000330947 0.000315237 0.000294905 0.000272404 0.000250185 0.000228248 0.000206594 0.000185223 0.000164133 0.000143326 0.000122802 0.00010337 8.58411e-05 7.02154e-05 5.64929e-05 4.46735e-05 3.47572e-05 2.67441e-05 2.0634e-05 1.57979e-05 1.16066e-05 8.06015e-06 5.1585e-06 2.90166e-06 1.28962e-06 3.22406e-07 0 0 4.10464e-07 1.64185e-06 3.69417e-06 6.56742e-06 1.02616e-05 1.47767e-05 2.01127e-05 2.62697e-05 3.38795e-05 4.35743e-05 5.53539e-05 6.92185e-05 8.51679e-05 0.000103202 0.000123321 0.000145526 0.0001687 0.00019173 0.000214616 0.000237357 0.000259954 0.000282406 0.000304714 0.000326878 0.000345741 0.000358146 0.000364093 0.000363582 0.000356613 0.000343187 0.000323303 0.00029696 0.000262178 0.000216974 0.000161347 9.52972e-05 1.88254e-05 -6.80689e-05 -0.000165386 -0.000273125 -0.000389444 -0.0005125 -0.000642294 -0.000778826 -0.000922095 -0.0010721 -0.00122885 -0.00139233 -0.00155662 -0.00171581 -0.00186989 -0.00201885 -0.00216271 -0.00230146 -0.00243509 -0.00256362 -0.00268172 -0.00278407 -0.00287068 -0.00294153 -0.00299665 -0.00303601 -0.00305963 -0.00306751 -0.00305963 -0.00303601 -0.00299665 -0.00294153 -0.00287068 -0.00278407 -0.00268172 -0.00256362 -0.00243509 -0.00230146 -0.00216271 -0.00201885 -0.00186989 -0.00171581 -0.00155662 -0.00139233 -0.00122885 -0.0010721 -0.000922095 -0.000778826 -0.000642294 -0.0005125 -0.000389444 -0.000273125 -0.000165386 -6.80689e-05 1.88254e-05 9.52972e-05 0.000161347 0.000216974 0.000262178 0.00029696 0.000323303 0.000343187 0.000356613 0.000363582 0.000364093 0.000358146 0.000345741 0.000326878 0.000304714 0.000282406 0.000259954 0.000237357 0.000214616 0.00019173 0.0001687 0.000145526 0.000123321 0.000103202 8.51679e-05 6.92185e-05 5.53539e-05 4.35743e-05 3.38795e-05 2.62697e-05 2.01127e-05 1.47767e-05 1.02616e-05 6.56742e-06 3.69417e-06 1.64185e-06 4.10464e-07 0 0 5.14363e-07 2.05745e-06 4.62926e-06 8.2298e-06 1.28591e-05 1.85171e-05 2.52038e-05 3.29192e-05 4.22511e-05 5.37872e-05 6.75274e-05 8.34718e-05 0.00010162 0.000121973 0.00014453 0.000169291 0.000194759 0.000219438 0.000243327 0.000266425 0.000288735 0.000310254 0.000330984 0.000350923 0.000366075 0.00037244 0.000370018 0.00035881 0.000338815 0.000310033 0.000272465 0.00022611 0.000168516 9.72296e-05 1.22513e-05 -8.64191e-05 -0.000198782 -0.000324836 -0.000464583 -0.000618021 -0.000782352 -0.000954777 -0.0011353 -0.00132391 -0.00152061 -0.00172541 -0.0019383 -0.00215929 -0.00238082 -0.00259534 -0.00280286 -0.00300337 -0.00319687 -0.00338337 -0.00356287 -0.00373536 -0.00389378 -0.00403108 -0.00414726 -0.00424232 -0.00431625 -0.00436906 -0.00440074 -0.0044113 -0.00440074 -0.00436906 -0.00431625 -0.00424232 -0.00414726 -0.00403108 -0.00389378 -0.00373536 -0.00356287 -0.00338337 -0.00319687 -0.00300337 -0.00280286 -0.00259534 -0.00238082 -0.00215929 -0.0019383 -0.00172541 -0.00152061 -0.00132391 -0.0011353 -0.000954777 -0.000782352 -0.000618021 -0.000464583 -0.000324836 -0.000198782 -8.64191e-05 1.22513e-05 9.72296e-05 0.000168516 0.00022611 0.000272465 0.000310033 0.000338815 0.00035881 0.000370018 0.00037244 0.000366075 0.000350923 0.000330984 0.000310254 0.000288735 0.000266425 0.000243327 0.000219438 0.000194759 0.000169291 0.00014453 0.000121973 0.00010162 8.34718e-05 6.75274e-05 5.37872e-05 4.22511e-05 3.29192e-05 2.52038e-05 1.85171e-05 1.28591e-05 8.2298e-06 4.62926e-06 2.05745e-06 5.14363e-07 0 0 6.34103e-07 2.53641e-06 5.70693e-06 1.01456e-05 1.58526e-05 2.28277e-05 3.1071e-05 4.05826e-05 5.18587e-05 6.53958e-05 8.11938e-05 9.92528e-05 0.000119573 0.000142154 0.000166996 0.000194098 0.000221505 0.000247257 0.000271356 0.0002938 0.000314591 0.000333728 0.000351211 0.00036704 0.000376239 0.00037383 0.000359813 0.000334188 0.000296956 0.000248116 0.000187669 0.000115614 2.89627e-05 -7.52735e-05 -0.000197095 -0.000336501 -0.000493492 -0.000668068 -0.000860229 -0.00106998 -0.00129331 -0.00152623 -0.00176873 -0.00202082 -0.0022825 -0.00255377 -0.00283462 -0.00312506 -0.00341564 -0.00369691 -0.00396887 -0.00423152 -0.00448486 -0.00472889 -0.00496361 -0.00518902 -0.00539598 -0.00557535 -0.00572712 -0.00585129 -0.00594788 -0.00601686 -0.00605825 -0.00607205 -0.00605825 -0.00601686 -0.00594788 -0.00585129 -0.00572712 -0.00557535 -0.00539598 -0.00518902 -0.00496361 -0.00472889 -0.00448486 -0.00423152 -0.00396887 -0.00369691 -0.00341564 -0.00312506 -0.00283462 -0.00255377 -0.0022825 -0.00202082 -0.00176873 -0.00152623 -0.00129331 -0.00106998 -0.000860229 -0.000668068 -0.000493492 -0.000336501 -0.000197095 -7.52735e-05 2.89627e-05 0.000115614 0.000187669 0.000248116 0.000296956 0.000334188 0.000359813 0.00037383 0.000376239 0.00036704 0.000351211 0.000333728 0.000314591 0.0002938 0.000271356 0.000247257 0.000221505 0.000194098 0.000166996 0.000142154 0.000119573 9.92528e-05 8.11938e-05 6.53958e-05 5.18587e-05 4.05826e-05 3.1071e-05 2.28277e-05 1.58526e-05 1.01456e-05 5.70693e-06 2.53641e-06 6.34103e-07 0 0 7.69685e-07 3.07874e-06 6.92716e-06 1.2315e-05 1.92421e-05 2.77087e-05 3.77146e-05 4.92598e-05 6.27024e-05 7.84002e-05 9.63533e-05 0.000116562 0.000139025 0.000163744 0.000190718 0.000219947 0.000248936 0.000275188 0.000298703 0.000319481 0.000337523 0.000352829 0.000365397 0.000375229 0.000376233 0.000362315 0.000333477 0.000289717 0.000231037 0.000157436 6.89148e-05 -3.45277e-05 -0.000156481 -0.000300536 -0.000466691 -0.000654948 -0.000865306 -0.00109777 -0.00135233 -0.00162899 -0.00192231 -0.00222685 -0.0025426 -0.00286958 -0.00320777 -0.00355718 -0.00391781 -0.00428966 -0.0046611 -0.00502053 -0.00536793 -0.00570331 -0.00602667 -0.00633801 -0.00663732 -0.00692462 -0.00718832 -0.00741687 -0.00761025 -0.00776847 -0.00789153 -0.00797943 -0.00803217 -0.00804975 -0.00803217 -0.00797943 -0.00789153 -0.00776847 -0.00761025 -0.00741687 -0.00718832 -0.00692462 -0.00663732 -0.00633801 -0.00602667 -0.00570331 -0.00536793 -0.00502053 -0.0046611 -0.00428966 -0.00391781 -0.00355718 -0.00320777 -0.00286958 -0.0025426 -0.00222685 -0.00192231 -0.00162899 -0.00135233 -0.00109777 -0.000865306 -0.000654948 -0.000466691 -0.000300536 -0.000156481 -3.45277e-05 6.89148e-05 0.000157436 0.000231037 0.000289717 0.000333477 0.000362315 0.000376233 0.000375229 0.000365397 0.000352829 0.000337523 0.000319481 0.000298703 0.000275188 0.000248936 0.000219947 0.000190718 0.000163744 0.000139025 0.000116562 9.63533e-05 7.84002e-05 6.27024e-05 4.92598e-05 3.77146e-05 2.77087e-05 1.92421e-05 1.2315e-05 6.92716e-06 3.07874e-06 7.69685e-07 0 0 9.21108e-07 3.68443e-06 8.28997e-06 1.47377e-05 2.30277e-05 3.31599e-05 4.51343e-05 5.89509e-05 7.47822e-05 9.28004e-05 0.000113006 0.000135398 0.000159977 0.000186744 0.000215697 0.000246838 0.000277053 0.000303229 0.000325368 0.000343469 0.000357531 0.000367556 0.000373542 0.00037549 0.000366056 0.000337896 0.00029101 0.000225397 0.000141058 3.79934e-05 -8.37977e-05 -0.000224315 -0.000387816 -0.000578557 -0.000796539 -0.00104176 -0.00131422 -0.00161393 -0.00194087 -0.00229506 -0.00266935 -0.00305664 -0.00345691 -0.00387017 -0.00429642 -0.00473565 -0.00518787 -0.00565307 -0.0061172 -0.00656619 -0.00700004 -0.00741874 -0.0078223 -0.00821072 -0.008584 -0.00894214 -0.0092708 -0.00955563 -0.00979665 -0.00999384 -0.0101472 -0.0102568 -0.0103225 -0.0103444 -0.0103225 -0.0102568 -0.0101472 -0.00999384 -0.00979665 -0.00955563 -0.0092708 -0.00894214 -0.008584 -0.00821072 -0.0078223 -0.00741874 -0.00700004 -0.00656619 -0.0061172 -0.00565307 -0.00518787 -0.00473565 -0.00429642 -0.00387017 -0.00345691 -0.00305664 -0.00266935 -0.00229506 -0.00194087 -0.00161393 -0.00131422 -0.00104176 -0.000796539 -0.000578557 -0.000387816 -0.000224315 -8.37977e-05 3.79934e-05 0.000141058 0.000225397 0.00029101 0.000337896 0.000366056 0.00037549 0.000373542 0.000367556 0.000357531 0.000343469 0.000325368 0.000303229 0.000277053 0.000246838 0.000215697 0.000186744 0.000159977 0.000135398 0.000113006 9.28004e-05 7.47822e-05 5.89509e-05 4.51343e-05 3.31599e-05 2.30277e-05 1.47377e-05 8.28997e-06 3.68443e-06 9.21108e-07 0 0 1.08837e-06 4.35349e-06 9.79536e-06 1.7414e-05 2.72093e-05 3.91814e-05 5.33303e-05 6.96559e-05 8.8098e-05 0.000108596 0.000131151 0.000155762 0.00018243 0.000211153 0.000241934 0.00027477 0.000305855 0.000331383 0.000351352 0.000365762 0.000374615 0.000377909 0.000375645 0.000367823 0.00034571 0.000300573 0.000232412 0.000141228 2.70193e-05 -0.000110213 -0.000270469 -0.000453748 -0.000665041 -0.000909337 -0.00118664 -0.00149694 -0.00184025 -0.00221655 -0.00262587 -0.00306818 -0.00353445 -0.0040156 -0.00451165 -0.0050226 -0.00554844 -0.00608917 -0.00664479 -0.00721531 -0.00778394 -0.0083339 -0.00886519 -0.00937781 -0.00987176 -0.010347 -0.0108036 -0.0112416 -0.0116434 -0.0119917 -0.0122863 -0.0125274 -0.0127149 -0.0128489 -0.0129292 -0.012956 -0.0129292 -0.0128489 -0.0127149 -0.0125274 -0.0122863 -0.0119917 -0.0116434 -0.0112416 -0.0108036 -0.010347 -0.00987176 -0.00937781 -0.00886519 -0.0083339 -0.00778394 -0.00721531 -0.00664479 -0.00608917 -0.00554844 -0.0050226 -0.00451165 -0.0040156 -0.00353445 -0.00306818 -0.00262587 -0.00221655 -0.00184025 -0.00149694 -0.00118664 -0.000909337 -0.000665041 -0.000453748 -0.000270469 -0.000110213 2.70193e-05 0.000141228 0.000232412 0.000300573 0.00034571 0.000367823 0.000375645 0.000377909 0.000374615 0.000365762 0.000351352 0.000331383 0.000305855 0.00027477 0.000241934 0.000211153 0.00018243 0.000155762 0.000131151 0.000108596 8.8098e-05 6.96559e-05 5.33303e-05 3.91814e-05 2.72093e-05 1.7414e-05 9.79536e-06 4.35349e-06 1.08837e-06 0 0 1.27457e-06 5.09829e-06 1.14712e-05 2.03932e-05 3.18643e-05 4.58846e-05 6.24541e-05 8.15727e-05 0.000102874 0.000125991 0.000150924 0.000177673 0.000206238 0.000236619 0.000268815 0.000302828 0.00033404 0.000357836 0.000374214 0.000383176 0.000384721 0.000378849 0.00036556 0.000344855 0.000306727 0.000241171 0.000148186 2.77742e-05 -0.000120066 -0.000295334 -0.000498031 -0.000728155 -0.000991042 -0.00129203 -0.00163111 -0.00200828 -0.00242356 -0.00287693 -0.00336839 -0.00389796 -0.0044547 -0.00502771 -0.00561698 -0.00622251 -0.00684431 -0.00748236 -0.00813669 -0.00880727 -0.00947493 -0.0101205 -0.010744 -0.0113453 -0.0119246 -0.0124818 -0.0130169 -0.0135298 -0.0140004 -0.0144082 -0.0147533 -0.0150356 -0.0152552 -0.0154121 -0.0155062 -0.0155376 -0.0155062 -0.0154121 -0.0152552 -0.0150356 -0.0147533 -0.0144082 -0.0140004 -0.0135298 -0.0130169 -0.0124818 -0.0119246 -0.0113453 -0.010744 -0.0101205 -0.00947493 -0.00880727 -0.00813669 -0.00748236 -0.00684431 -0.00622251 -0.00561698 -0.00502771 -0.0044547 -0.00389796 -0.00336839 -0.00287693 -0.00242356 -0.00200828 -0.00163111 -0.00129203 -0.000991042 -0.000728155 -0.000498031 -0.000295334 -0.000120066 2.77742e-05 0.000148186 0.000241171 0.000306727 0.000344855 0.00036556 0.000378849 0.000384721 0.000383176 0.000374214 0.000357836 0.00033404 0.000302828 0.000268815 0.000236619 0.000206238 0.000177673 0.000150924 0.000125991 0.000102874 8.15727e-05 6.24541e-05 4.58846e-05 3.18643e-05 2.03932e-05 1.14712e-05 5.09829e-06 1.27457e-06 0 0 1.4828e-06 5.93122e-06 1.33452e-05 2.37249e-05 3.70701e-05 5.33809e-05 7.26574e-05 9.48994e-05 0.000119334 0.000145187 0.000172458 0.000201148 0.000231257 0.000262785 0.000295731 0.000330097 0.000360304 0.000380778 0.000391518 0.000392524 0.000383797 0.000365336 0.000337141 0.000299213 0.000240641 0.000150515 2.88357e-05 -0.000124397 -0.000309184 -0.000525524 -0.000773417 -0.00105286 -0.0013687 -0.00172577 -0.00212407 -0.00256359 -0.00304434 -0.00356633 -0.00412954 -0.00473398 -0.00536724 -0.00601693 -0.00668303 -0.00736556 -0.0080645 -0.00877987 -0.00951166 -0.0102599 -0.0110038 -0.0117229 -0.012417 -0.0130862 -0.0137305 -0.0143498 -0.0149442 -0.0155138 -0.016036 -0.0164886 -0.0168716 -0.0171849 -0.0174286 -0.0176027 -0.0177072 -0.017742 -0.0177072 -0.0176027 -0.0174286 -0.0171849 -0.0168716 -0.0164886 -0.016036 -0.0155138 -0.0149442 -0.0143498 -0.0137305 -0.0130862 -0.012417 -0.0117229 -0.0110038 -0.0102599 -0.00951166 -0.00877987 -0.0080645 -0.00736556 -0.00668303 -0.00601693 -0.00536724 -0.00473398 -0.00412954 -0.00356633 -0.00304434 -0.00256359 -0.00212407 -0.00172577 -0.0013687 -0.00105286 -0.000773417 -0.000525524 -0.000309184 -0.000124397 2.88357e-05 0.000150515 0.000240641 0.000299213 0.000337141 0.000365336 0.000383797 0.000392524 0.000391518 0.000380778 0.000360304 0.000330097 0.000295731 0.000262785 0.000231257 0.000201148 0.000172458 0.000145187 0.000119334 9.48994e-05 7.26574e-05 5.33809e-05 3.70701e-05 2.37249e-05 1.33452e-05 5.93122e-06 1.4828e-06 0 0 1.71306e-06 6.85226e-06 1.54176e-05 2.7409e-05 4.28266e-05 6.16703e-05 8.39401e-05 0.000109636 0.000137477 0.000166183 0.000195754 0.000226189 0.000257489 0.000289653 0.000322682 0.000356575 0.000384647 0.000400209 0.000403263 0.000393807 0.000371843 0.00033737 0.000290388 0.000230897 0.000147452 2.86061e-05 -0.00012564 -0.000315287 -0.000540333 -0.000800781 -0.00109663 -0.00142788 -0.00179802 -0.00221057 -0.00266552 -0.00316286 -0.00370261 -0.00428475 -0.00490929 -0.00557623 -0.00627206 -0.00698325 -0.00770981 -0.00845173 -0.00920903 -0.00998168 -0.0107697 -0.0115731 -0.0123706 -0.013141 -0.0138842 -0.0146003 -0.0152893 -0.0159511 -0.0165858 -0.0171934 -0.0177502 -0.0182328 -0.0186412 -0.0189753 -0.0192352 -0.0194208 -0.0195322 -0.0195693 -0.0195322 -0.0194208 -0.0192352 -0.0189753 -0.0186412 -0.0182328 -0.0177502 -0.0171934 -0.0165858 -0.0159511 -0.0152893 -0.0146003 -0.0138842 -0.013141 -0.0123706 -0.0115731 -0.0107697 -0.00998168 -0.00920903 -0.00845173 -0.00770981 -0.00698325 -0.00627206 -0.00557623 -0.00490929 -0.00428475 -0.00370261 -0.00316286 -0.00266552 -0.00221057 -0.00179802 -0.00142788 -0.00109663 -0.000800781 -0.000540333 -0.000315287 -0.00012564 2.86061e-05 0.000147452 0.000230897 0.000290388 0.00033737 0.000371843 0.000393807 0.000403263 0.000400209 0.000384647 0.000356575 0.000322682 0.000289653 0.000257489 0.000226189 0.000195754 0.000166183 0.000137477 0.000109636 8.39401e-05 6.16703e-05 4.28266e-05 2.7409e-05 1.54176e-05 6.85226e-06 1.71306e-06 0 0 1.96535e-06 7.86142e-06 1.76882e-05 3.14457e-05 4.91339e-05 7.07528e-05 9.63024e-05 0.000125783 0.000157305 0.000188981 0.000220811 0.000252794 0.000284931 0.000317222 0.000349666 0.000382264 0.000407068 0.000416129 0.000409448 0.000387025 0.000348859 0.000294951 0.000225301 0.000139908 2.716e-05 -0.000124556 -0.000315241 -0.000544894 -0.000813515 