<?xml version="1.0"?> 
<VTKFile type="StructuredGrid" version="0.1"> 
<StructuredGrid WholeExtent="0 128 0 128 0 0"> 
<Piece Extent="0 128 0 128 0 0"> 
<PointData>
<DataArray type="Float32" Name="u" format="ascii" NumberOfComponents="1"> 
0 0 0 0 0 0 0 0 0 0 0 0 0 0 0 0 0 0 0 0 0 0 0 0 0 0 0 0 0 0 0 0 0 0 0 0 0 0 0 0 0 0 0 0 0 0 0 0 0 0 0 0 0 0 0 0 0 0 0 0 0 0 0 0 0 0 0 0 0 0 0 0 0 0 0 0 0 0 0 0 0 0 0 0 0 0 0 0 0 0 0 0 0 0 0 0 0 0 0 0 0 0 0 0 0 0 0 0 0 0 0 0 0 0 0 0 0 0 0 0 0 0 0 0 0 0 0 0 0 0 2.18532e-07 8.74127e-07 1.96679e-06 3.49651e-06 5.46329e-06 7.86714e-06 1.07081e-05 1.3986e-05 1.75097e-05 2.10878e-05 2.47202e-05 2.8407e-05 3.21482e-05 3.59437e-05 3.97936e-05 4.36979e-05 4.76533e-05 5.16567e-05 5.57079e-05 5.9807e-05 6.39541e-05 6.81491e-05 7.23919e-05 7.66827e-05 8.09893e-05 8.52796e-05 8.95536e-05 9.38112e-05 9.80526e-05 0.000102278 0.000106486 0.000110679 0.000114826 0.0001189 0.000122901 0.000126827 0.000130681 0.00013446 0.000138166 0.000141799 0.000145334 0.000148749 0.000152042 0.000155215 0.000158266 0.000161197 0.000164007 0.000166696 0.000169247 0.000171643 0.000173884 0.000175969 0.000177899 0.000179674 0.000181294 0.000182759 0.000184059 0.000185186 0.000186139 0.000186919 0.000187526 0.00018796 0.00018822 0.000188306 0.00018822 0.00018796 0.000187526 0.000186919 0.000186139 0.000185186 0.000184059 0.000182759 0.000181294 0.000179674 0.000177899 0.000175969 0.000173884 0.000171643 0.000169247 0.000166696 0.000164007 0.000161197 0.000158266 0.000155215 0.000152042 0.000148749 0.000145334 0.000141799 0.000138166 0.00013446 0.000130681 0.000126828 0.000122901 0.0001189 0.000114826 0.000110679 0.000106486 0.000102278 9.80527e-05 9.38113e-05 8.95536e-05 8.52797e-05 8.09894e-05 7.66828e-05 7.2392e-05 6.81491e-05 6.39542e-05 5.98071e-05 5.5708e-05 5.16567e-05 4.76534e-05 4.3698e-05 3.97937e-05 3.59438e-05 3.21483e-05 2.84071e-05 2.47203e-05 2.10878e-05 1.75098e-05 1.39861e-05 1.07081e-05 7.86716e-06 5.46331e-06 3.49652e-06 1.96679e-06 8.74129e-07 2.18532e-07 0 0 8.74127e-07 3.49651e-06 7.86714e-06 1.3986e-05 2.18532e-05 3.14686e-05 4.28322e-05 5.59441e-05 7.00389e-05 8.43512e-05 9.88809e-05 0.000113628 0.000128593 0.000143775 0.000159175 0.000174792 0.000190613 0.000206627 0.000222832 0.000239228 0.000255816 0.000272596 0.000289568 0.000306731 0.000323957 0.000341118 0.000358214 0.000375245 0.00039221 0.000409111 0.000425946 0.000442716 0.000459306 0.000475601 0.000491603 0.00050731 0.000522723 0.000537841 0.000552666 0.000567195 0.000581337 0.000594994 0.000608168 0.000620858 0.000633065 0.000644789 0.000656028 0.000666785 0.000676989 0.000686572 0.000695534 0.000703876 0.000711597 0.000718697 0.000725176 0.000731034 0.000736235 0.000740743 0.000744557 0.000747678 0.000750105 0.000751839 0.000752879 0.000753226 0.000752879 0.000751839 0.000750105 0.000747678 0.000744557 0.000740743 0.000736235 0.000731034 0.000725176 0.000718697 0.000711597 0.000703876 0.000695534 0.000686572 0.000676989 0.000666785 0.000656028 0.000644789 0.000633065 0.000620859 0.000608168 0.000594994 0.000581337 0.000567196 0.000552666 0.000537841 0.000522723 0.00050731 0.000491603 0.000475602 0.000459306 0.000442716 0.000425946 0.000409111 0.000392211 0.000375245 0.000358215 0.000341119 0.000323958 0.000306731 0.000289568 0.000272597 0.000255817 0.000239228 0.000222832 0.000206627 0.000190614 0.000174792 0.000159175 0.000143775 0.000128593 0.000113628 9.88811e-05 8.43514e-05 7.00391e-05 5.59443e-05 4.28323e-05 3.14687e-05 2.18532e-05 1.39861e-05 7.86716e-06 3.49652e-06 8.74129e-07 0 0 1.96679e-06 7.86714e-06 1.77011e-05 3.14686e-05 4.91696e-05 7.08043e-05 9.63725e-05 0.000125874 0.000157588 0.00018979 0.000222482 0.000255663 0.000289334 0.000323494 0.000358143 0.000393281 0.00042888 0.00046491 0.000501371 0.000538263 0.000575587 0.000613342 0.000651527 0.000690145 0.000728904 0.000767516 0.000805982 0.000844301 0.000882474 0.000920499 0.000958378 0.00099611 0.00103344 0.0010701 0.00110611 0.00114145 0.00117613 0.00121014 0.0012435 0.00127619 0.00130801 0.00133874 0.00136838 0.00139693 0.0014244 0.00145077 0.00147606 0.00150027 0.00152322 0.00154479 0.00156495 0.00158372 0.00160109 0.00161707 0.00163165 0.00164483 0.00165653 0.00166667 0.00167525 0.00168227 0.00168774 0.00169164 0.00169398 0.00169476 0.00169398 0.00169164 0.00168774 0.00168228 0.00167525 0.00166667 0.00165653 0.00164483 0.00163165 0.00161707 0.00160109 0.00158372 0.00156495 0.00154479 0.00152322 0.00150027 0.00147606 0.00145077 0.0014244 0.00139693 0.00136838 0.00133874 0.00130801 0.00127619 0.0012435 0.00121014 0.00117613 0.00114145 0.00110611 0.0010701 0.00103344 0.00099611 0.000958378 0.0009205 0.000882474 0.000844302 0.000805983 0.000767517 0.000728904 0.000690145 0.000651528 0.000613342 0.000575588 0.000538264 0.000501372 0.000464911 0.000428881 0.000393282 0.000358143 0.000323494 0.000289334 0.000255664 0.000222482 0.000189791 0.000157588 0.000125875 9.63728e-05 7.08045e-05 4.91698e-05 3.14687e-05 1.77011e-05 7.86716e-06 1.96679e-06 0 0 3.49651e-06 1.3986e-05 3.14686e-05 5.59441e-05 8.74127e-05 0.000125874 0.000171329 0.000223777 0.000280156 0.000337405 0.000395524 0.000454512 0.000514371 0.0005751 0.000636698 0.000699167 0.000762453 0.000826507 0.000891326 0.000956913 0.00102327 0.00109039 0.00115827 0.00122692 0.00129583 0.00136447 0.00143286 0.00150098 0.00156884 0.00163644 0.00170378 0.00177086 0.00183722 0.00190241 0.00196641 0.00202924 0.00209089 0.00215137 0.00221066 0.00226878 0.00232535 0.00237998 0.00243267 0.00248343 0.00253226 0.00257915 0.00262411 0.00266714 0.00270795 0.00274629 0.00278214 0.0028155 0.00284639 0.00287479 0.0029007 0.00292414 0.00294494 0.00296297 0.00297823 0.00299071 0.00300042 0.00300735 0.00301152 0.0030129 0.00301152 0.00300735 0.00300042 0.00299071 0.00297823 0.00296297 0.00294494 0.00292414 0.0029007 0.00287479 0.00284639 0.0028155 0.00278214 0.00274629 0.00270796 0.00266714 0.00262411 0.00257915 0.00253226 0.00248343 0.00243267 0.00237998 0.00232535 0.00226878 0.00221066 0.00215137 0.00209089 0.00202924 0.00196641 0.00190241 0.00183722 0.00177086 0.00170378 0.00163644 0.00156884 0.00150098 0.00143286 0.00136447 0.00129583 0.00122692 0.00115827 0.00109039 0.00102327 0.000956914 0.000891327 0.000826508 0.000762454 0.000699168 0.000636699 0.000575101 0.000514372 0.000454513 0.000395524 0.000337405 0.000280156 0.000223777 0.000171329 0.000125875 8.74129e-05 5.59443e-05 3.14687e-05 1.39861e-05 3.49652e-06 0 0 5.46329e-06 2.18532e-05 4.91696e-05 8.74127e-05 0.000136582 0.000196679 0.000267701 0.000349651 0.000437743 0.000527195 0.000618005 0.000710175 0.000803705 0.000898593 0.000994841 0.00109245 0.00119133 0.00129142 0.0013927 0.00149518 0.00159885 0.00170373 0.0018098 0.00191707 0.00202473 0.00213199 0.00223884 0.00234528 0.00245132 0.00255694 0.00266216 0.00276697 0.00287066 0.00297251 0.00307252 0.00317069 0.00326702 0.00336151 0.00345416 0.00354497 0.00363335 0.00371871 0.00380105 0.00388036 0.00395666 0.00402993 0.00410018 0.0041674 0.00423118 0.00429107 0.00434709 0.00439922 0.00444748 0.00449185 0.00453235 0.00456896 0.00460147 0.00462964 0.00465348 0.00467299 0.00468816 0.00469899 0.00470549 0.00470766 0.00470549 0.00469899 0.00468816 0.00467299 0.00465348 0.00462964 0.00460147 0.00456896 0.00453235 0.00449185 0.00444748 0.00439923 0.00434709 0.00429108 0.00423118 0.0041674 0.00410018 0.00402993 0.00395666 0.00388037 0.00380105 0.00371871 0.00363335 0.00354497 0.00345416 0.00336151 0.00326702 0.00317069 0.00307252 0.00297251 0.00287066 0.00276697 0.00266216 0.00255694 0.00245132 0.00234528 0.00223884 0.00213199 0.00202473 0.00191707 0.0018098 0.00170373 0.00159885 0.00149518 0.0013927 0.00129142 0.00119134 0.00109245 0.000994843 0.000898595 0.000803706 0.000710177 0.000618007 0.000527196 0.000437744 0.000349652 0.000267702 0.000196679 0.000136583 8.74129e-05 4.91698e-05 2.18532e-05 5.46331e-06 0 0 7.86714e-06 3.14686e-05 7.08043e-05 0.000125874 0.000196679 0.000283217 0.00038549 0.000503497 0.00063035 0.00075916 0.000889928 0.00102265 0.00115733 0.00129397 0.00143257 0.00157312 0.00171552 0.00185964 0.00200548 0.00215305 0.00230235 0.00245337 0.00260611 0.00276058 0.00291562 0.00307007 0.00322393 0.0033772 0.00352989 0.003682 0.00383351 0.00398444 0.00413375 0.00428041 0.00442442 0.00456579 0.0047045 0.00484057 0.00497399 0.00510476 0.00523203 0.00535495 0.00547351 0.00558773 0.00569759 0.0058031 0.00590426 0.00600106 0.0060929 0.00617915 0.00625981 0.00633488 0.00640437 0.00646827 0.00652658 0.00657931 0.00662612 0.00666669 0.00670101 0.0067291 0.00675094 0.00676655 0.00677591 0.00677903 0.00677591 0.00676655 0.00675094 0.0067291 0.00670101 0.00666669 0.00662612 0.00657931 0.00652658 0.00646827 0.00640437 0.00633488 0.00625981 0.00617915 0.0060929 0.00600106 0.00590426 0.0058031 0.00569759 0.00558773 0.00547351 0.00535495 0.00523203 0.00510476 0.00497399 0.00484057 0.00470451 0.00456579 0.00442443 0.00428041 0.00413375 0.00398444 0.00383351 0.003682 0.0035299 0.00337721 0.00322393 0.00307007 0.00291562 0.00276058 0.00260611 0.00245337 0.00230235 0.00215306 0.00200549 0.00185964 0.00171552 0.00157313 0.00143257 0.00129398 0.00115734 0.00102265 0.00088993 0.000759162 0.000630352 0.000503498 0.000385491 0.000283218 0.000196679 0.000125875 7.08045e-05 3.14687e-05 7.86716e-06 0 0 1.07081e-05 4.28322e-05 9.63725e-05 0.000171329 0.000267701 0.00038549 0.000524695 0.000685316 0.000857977 0.0010333 0.00121129 0.00139194 0.00157526 0.00176124 0.00194989 0.0021412 0.00233501 0.00253118 0.00272969 0.00293054 0.00313375 0.0033393 0.00354721 0.00375745 0.00396848 0.0041787 0.00438813 0.00459675 0.00480458 0.00501161 0.00521783 0.00542326 0.00562649 0.00582612 0.00602213 0.00621455 0.00640335 0.00658856 0.00677015 0.00694814 0.00712137 0.00728868 0.00745006 0.00760552 0.00775505 0.00789866 0.00803635 0.00816811 0.00829311 0.00841051 0.0085203 0.00862248 0.00871706 0.00880403 0.0088834 0.00895517 0.00901888 0.0090741 0.00912082 0.00915905 0.00918879 0.00921002 0.00922277 0.00922701 0.00922277 0.00921002 0.00918879 0.00915905 0.00912082 0.0090741 0.00901888 0.00895517 0.0088834 0.00880403 0.00871706 0.00862248 0.0085203 0.00841051 0.00829311 0.00816811 0.00803635 0.00789866 0.00775505 0.00760552 0.00745006 0.00728868 0.00712137 0.00694815 0.00677015 0.00658856 0.00640336 0.00621455 0.00602214 0.00582612 0.0056265 0.00542327 0.00521784 0.00501161 0.00480458 0.00459675 0.00438813 0.0041787 0.00396848 0.00375746 0.00354721 0.00333931 0.00313375 0.00293055 0.00272969 0.00253118 0.00233502 0.0021412 0.00194989 0.00176125 0.00157526 0.00139195 0.00121129 0.0010333 0.000857979 0.000685317 0.000524696 0.000385491 0.000267702 0.000171329 9.63728e-05 4.28323e-05 1.07081e-05 0 0 1.3986e-05 5.59441e-05 0.000125874 0.000223777 0.000349651 0.000503497 0.000685316 0.000895106 0.00112062 0.00134962 0.00158209 0.00181805 0.00205748 0.0023004 0.00254679 0.00279667 0.00304981 0.00330603 0.00356531 0.00382765 0.00409306 0.00436154 0.00463308 0.00490769 0.00518332 0.00545789 0.00573143 0.00600392 0.00627537 0.00654577 0.00681513 0.00708345 0.00734889 0.00760962 0.00786564 0.00811696 0.00836356 0.00860546 0.00884265 0.00907513 0.00930138 0.0095199 0.00973069 0.00993373 0.010129 0.0103166 0.0104965 0.0106686 0.0108318 0.0109852 0.0111285 0.011262 0.0113855 0.0114991 0.0116028 0.0116965 0.0117798 0.0118519 0.0119129 0.0119628 0.0120017 0.0120294 0.0120461 0.0120516 0.0120461 0.0120294 0.0120017 0.0119628 0.0119129 0.0118519 0.0117798 0.0116965 0.0116028 0.0114991 0.0113855 0.011262 0.0111286 0.0109852 0.0108318 0.0106686 0.0104965 0.0103166 0.010129 0.00993374 0.00973069 0.00951991 0.00930139 0.00907513 0.00884265 0.00860546 0.00836357 0.00811696 0.00786565 0.00760962 0.00734889 0.00708345 0.00681514 0.00654578 0.00627537 0.00600392 0.00573143 0.0054579 0.00518332 0.0049077 0.00463309 0.00436154 0.00409307 0.00382766 0.00356531 0.00330603 0.00304982 0.00279667 0.0025468 0.0023004 0.00205749 0.00181805 0.0015821 0.00134962 0.00112063 0.000895108 0.000685317 0.000503498 0.000349652 0.000223777 0.000125875 5.59443e-05 1.39861e-05 0 0 1.75045e-05 7.00179e-05 0.00015754 0.000280072 0.000437612 0.000630161 0.000857719 0.00112029 0.00140253 0.00168911 0.00198002 0.00227528 0.00257488 0.00287881 0.00318708 0.00349969 0.00381639 0.00413692 0.00446127 0.00478946 0.00512148 0.00545733 0.00579701 0.00614052 0.00648529 0.00682875 0.00717091 0.00751176 0.0078513 0.00818954 0.00852646 0.00886208 0.0091941 0.00952024 0.00984048 0.0101548 0.0104633 0.0107659 0.0110625 0.0113533 0.0116363 0.0119097 0.0121733 0.0124273 0.0126716 0.0129062 0.0131312 0.0133464 0.0135506 0.0137424 0.0139218 0.0140887 0.0142433 0.0143854 0.014515 0.0146323 0.0147364 0.0148266 0.0149029 0.0149654 0.0150139 0.0150486 0.0150694 0.0150764 0.0150694 0.0150486 0.0150139 0.0149654 0.0149029 0.0148266 0.0147364 0.0146323 0.014515 0.0143854 0.0142433 0.0140887 0.0139218 0.0137424 0.0135506 0.0133464 0.0131312 0.0129062 0.0126716 0.0124273 0.0121733 0.0119097 0.0116363 0.0113533 0.0110625 0.0107659 0.0104633 0.0101548 0.00984048 0.00952024 0.00919411 0.00886209 0.00852647 0.00818954 0.00785131 0.00751176 0.00717091 0.00682876 0.00648529 0.00614052 0.00579701 0.00545733 0.00512148 0.00478947 0.00446128 0.00413692 0.0038164 0.0034997 0.00318709 0.00287882 0.00257488 0.00227529 0.00198003 0.00168911 0.00140253 0.00112029 0.000857721 0.000630163 0.000437613 0.000280072 0.000157541 7.00181e-05 1.75045e-05 0 0 2.10668e-05 8.42671e-05 0.000189601 0.000337068 0.000526669 0.000758404 0.00103227 0.00134827 0.00168793 0.00203276 0.00238277 0.00273795 0.00309831 0.00346385 0.00383456 0.00421044 0.00459121 0.00497657 0.00536652 0.00576107 0.0061602 0.00656392 0.00697223 0.00738513 0.00779954 0.00821238 0.00862363 0.00903331 0.00944142 0.00984794 0.0102529 0.0106563 0.0110553 0.0114473 0.0118322 0.01221 0.0125807 0.0129443 0.0133009 0.0136504 0.0139905 0.014319 0.0146359 0.0149411 0.0152347 0.0155167 0.015787 0.0160458 0.0162912 0.0165217 0.0167373 0.0169379 0.0171236 0.0172944 0.0174502 0.0175911 0.0177162 0.0178247 0.0179164 0.0179915 0.0180499 0.0180916 0.0181166 0.0181249 0.0181166 0.0180916 0.0180499 0.0179915 0.0179164 0.0178247 0.0177162 0.0175911 0.0174502 0.0172944 0.0171236 0.0169379 0.0167373 0.0165217 0.0162912 0.0160458 0.015787 0.0155167 0.0152347 0.0149411 0.0146359 0.014319 0.0139905 0.0136504 0.0133009 0.0129443 0.0125807 0.01221 0.0118322 0.0114473 0.0110553 0.0106563 0.0102529 0.00984795 0.00944142 0.00903332 0.00862364 0.00821238 0.00779955 0.00738514 0.00697224 0.00656393 0.0061602 0.00576107 0.00536653 0.00497658 0.00459122 0.00421045 0.00383456 0.00346385 0.00309832 0.00273796 0.00238277 0.00203277 0.00168793 0.00134828 0.00103227 0.000758406 0.000526671 0.000337069 0.000189601 8.42673e-05 2.10668e-05 0 0 2.46729e-05 9.86917e-05 0.000222056 0.000394767 0.000616823 0.000888226 0.00120897 0.00157907 0.00197683 0.00238058 0.00279033 0.00320606 0.00362779 0.00405551 0.00448922 0.00492892 0.00537428 0.005825 0.00628106 0.00674247 0.00720922 0.00768132 0.00815876 0.00864155 0.00912609 0.00960877 0.0100896 0.0105686 0.0110457 0.011521 0.0119944 0.012466 0.0129325 0.0133907 0.0138407 0.0142823 0.0147157 0.0151409 0.0155577 0.0159662 0.0163639 0.0167479 0.0171183 0.0174752 0.0178184 0.018148 0.0184641 0.0187665 0.0190535 0.0193229 0.019575 0.0198095 0.0200266 0.0202263 0.0204085 0.0205732 0.0207194 0.0208462 0.0209534 0.0210412 0.0211094 0.0211582 0.0211875 0.0211972 0.0211875 0.0211582 0.0211094 0.0210412 0.0209534 0.0208462 0.0207194 0.0205732 0.0204085 0.0202263 0.0200266 0.0198095 0.019575 0.0193229 0.0190535 0.0187666 0.0184641 0.0181481 0.0178184 0.0174752 0.0171183 0.0167479 0.0163639 0.0159663 0.0155577 0.0151409 0.0147157 0.0142823 0.0138407 0.0133907 0.0129325 0.012466 0.0119944 0.011521 0.0110457 0.0105686 0.0100896 0.00960878 0.00912609 0.00864156 0.00815877 0.00768132 0.00720923 0.00674247 0.00628107 0.00582501 0.00537429 0.00492892 0.00448922 0.00405552 0.0036278 0.00320607 0.00279033 0.00238059 0.00197684 0.00157907 0.00120898 0.000888228 0.000616825 0.000394768 0.000222057 9.8692e-05 2.4673e-05 0 0 2.8323e-05 0.000113292 0.000254907 0.000453167 0.000708074 0.00101963 0.00138782 0.00181267 0.00226923 0.00273257 0.0032027 0.00367961 0.00416331 0.00465379 0.00515106 0.00565511 0.0061656 0.00668219 0.00720488 0.00773366 0.00826854 0.00880952 0.00935659 0.00990976 0.0104649 0.0110179 0.0115688 0.0121176 0.0126642 0.0132087 0.013751 0.0142913 0.0148257 0.0153506 0.015866 0.016372 0.0168685 0.0173554 0.017833 0.018301 0.0187565 0.0191964 0.0196207 0.0200295 0.0204227 0.0208003 0.0211623 0.0215088 0.0218375 0.0221462 0.0224349 0.0227036 0.0229523 0.023181 0.0233897 0.0235784 0.0237459 0.0238911 0.024014 0.0241145 0.0241927 0.0242486 0.0242821 0.0242932 0.0242821 0.0242486 0.0241927 0.0241145 0.024014 0.0238911 0.0237459 0.0235784 0.0233897 0.023181 0.0229523 0.0227036 0.0224349 0.0221462 0.0218375 0.0215088 0.0211623 0.0208003 0.0204227 0.0200295 0.0196207 0.0191964 0.0187565 0.018301 0.017833 0.0173555 0.0168685 0.016372 0.015866 0.0153506 0.0148257 0.0142913 0.013751 0.0132087 0.0126642 0.0121176 0.0115688 0.0110179 0.0104649 0.00990977 0.0093566 0.00880953 0.00826855 0.00773367 0.00720489 0.0066822 0.00616561 0.00565512 0.00515107 0.0046538 0.00416332 0.00367962 0.00320271 0.00273258 0.00226923 0.00181267 0.00138783 0.00101963 0.000708076 0.000453168 0.000254907 0.000113292 2.8323e-05 0 0 3.20168e-05 0.000128067 0.000288152 0.000512269 0.000800421 0.00115261 0.00156883 0.00204908 0.00256513 0.00308873 0.00361989 0.0041586 0.00470488 0.0052587 0.00582009 0.00638903 0.00696517 0.00754815 0.00813798 0.00873465 0.00933816 0.00994852 0.0105657 0.0111898 0.011816 0.0124399 0.0130613 0.0136803 0.0142969 0.014911 0.0155228 0.0161321 0.0167348 0.0173269 0.0179082 0.0184789 0.0190389 0.0195881 0.0201267 0.0206545 0.0211683 0.0216644 0.022143 0.022604 0.0230475 0.0234734 0.0238817 0.0242725 0.0246432 0.0249914 0.025317 0.0256201 0.0259006 0.0261585 0.0263939 0.0266068 0.0267957 0.0269595 0.0270981 0.0272115 0.0272996 0.0273626 0.0274004 0.027413 0.0274004 0.0273626 0.0272996 0.0272115 0.0270981 0.0269595 0.0267957 0.0266068 0.0263939 0.0261585 0.0259006 0.0256201 0.025317 0.0249914 0.0246432 0.0242725 0.0238818 0.0234734 0.0230475 0.022604 0.022143 0.0216644 0.0211683 0.0206545 0.0201267 0.0195881 0.0190389 0.0184789 0.0179082 0.0173269 0.0167348 0.0161321 0.0155228 0.014911 0.0142969 0.0136803 0.0130613 0.0124399 0.011816 0.0111898 0.0105657 0.00994853 0.00933817 0.00873466 0.00813799 0.00754816 0.00696518 0.00638904 0.0058201 0.00525871 0.00470489 0.00415861 0.0036199 0.00308874 0.00256513 0.00204908 0.00156883 0.00115261 0.000800423 0.000512271 0.000288152 0.000128068 3.20169e-05 0 0 3.57546e-05 0.000143018 0.000321791 0.000572073 0.000893865 0.00128717 0.00175197 0.00228829 0.00286452 0.00344905 0.00404189 0.00464303 0.00525248 0.00587024 0.0064963 0.00713067 0.00777298 0.00842288 0.00908036 0.00974543 0.0104181 0.0110983 0.0117862 0.0124816 0.0131794 0.0138746 0.014567 0.0152567 0.0159437 0.016628 0.0173096 0.0179884 0.01866 0.0193196 0.0199673 0.0206031 0.0212269 0.0218388 0.0224388 0.0230269 0.0235993 0.024152 0.0246852 0.0251989 0.0256929 0.0261674 0.0266223 0.0270577 0.0274707 0.0278586 0.0282214 0.028559 0.0288715 0.0291589 0.0294212 0.0296583 0.0298688 0.0300513 0.0302057 0.030332 0.0304302 0.0305004 0.0305425 0.0305566 0.0305425 0.0305004 0.0304302 0.030332 0.0302057 0.0300513 0.0298688 0.0296583 0.0294212 0.0291589 0.0288715 0.028559 0.0282214 0.0278586 0.0274707 0.0270577 0.0266223 0.0261674 0.0256929 0.0251989 0.0246852 0.024152 0.0235993 0.0230269 0.0224389 0.0218388 0.0212269 0.0206031 0.0199673 0.0193196 0.01866 0.0179884 0.0173096 0.016628 0.0159437 0.0152567 0.014567 0.0138746 0.0131794 0.0124816 0.0117862 0.0110983 0.0104181 0.00974544 0.00908037 0.00842289 0.00777299 0.00713068 0.00649631 0.00587025 0.00525249 0.00464304 0.0040419 0.00344906 0.00286453 0.0022883 0.00175198 0.00128717 0.000893867 0.000572075 0.000321792 0.000143019 3.57547e-05 0 0 3.95362e-05 0.000158145 0.000355826 0.000632579 0.000988405 0.0014233 0.00193727 0.00253032 0.00316741 0.00381354 0.00446871 0.0051329 0.00580613 0.0064884 0.0071797 0.00788003 0.00858904 0.00930637 0.010032 0.010766 0.0115083 0.0122589 0.0130179 0.0137852 0.0145551 0.015322 0.0160859 0.0168468 0.0176047 0.0183596 0.0191115 0.0198603 0.0206011 0.0213287 0.0220432 0.0227445 0.0234326 0.0241076 0.0247695 0.0254182 0.0260495 0.0266592 0.0272474 0.0278139 0.0283589 0.0288823 0.0293841 0.0298643 0.0303199 0.0307478 0.0311479 0.0315204 0.0318651 0.0321821 0.0324714 0.032733 0.0329652 0.0331665 0.0333368 0.0334761 0.0335845 0.0336619 0.0337084 0.0337238 0.0337084 0.0336619 0.0335845 0.0334761 0.0333368 0.0331665 0.0329652 0.032733 0.0324714 0.0321821 0.0318651 0.0315204 0.0311479 0.0307478 0.0303199 0.0298644 0.0293841 0.0288823 0.0283589 0.0278139 0.0272474 0.0266592 0.0260495 0.0254182 0.0247695 0.0241076 0.0234326 0.0227445 0.0220432 0.0213287 0.0206011 0.0198603 0.0191115 0.0183596 0.0176047 0.0168469 0.016086 0.015322 0.0145551 0.0137852 0.0130179 0.012259 0.0115083 0.010766 0.010032 0.00930639 0.00858905 0.00788004 0.00717971 0.00648841 0.00580614 0.00513291 0.00446872 0.00381355 0.00316742 0.00253032 0.00193728 0.00142331 0.000988407 0.000632581 0.000355827 0.000158145 3.95363e-05 0 0 4.33617e-05 0.000173447 0.000390255 0.000693787 0.00108404 0.00156102 0.00212472 0.00277515 0.0034738 0.0041822 0.00490034 0.00562821 0.00636583 0.00711318 0.00787028 0.00863711 0.00941334 0.0101986 0.010993 0.0117964 0.0126088 0.0134304 0.0142609 0.0151006 0.0159431 0.0167823 0.0176181 0.0184507 0.0192799 0.0201059 0.0209285 0.0217478 0.0225582 0.0233543 0.0241359 0.0249032 0.025656 0.0263945 0.0271186 0.0278282 0.0285189 0.029186 0.0298294 0.0304492 0.0310455 0.0316181 0.0321671 0.0326924 0.0331909 0.033659 0.0340967 0.0345042 0.0348813 0.0352282 0.0355446 0.0358308 0.0360849 0.0363051 0.0364914 0.0366439 0.0367624 0.0368471 0.0368979 0.0369149 0.0368979 0.0368471 0.0367624 0.0366439 0.0364914 0.0363051 0.0360849 0.0358308 0.0355447 0.0352282 0.0348813 0.0345042 0.0340967 0.033659 0.0331909 0.0326925 0.0321671 0.0316181 0.0310455 0.0304492 0.0298294 0.029186 0.0285189 0.0278282 0.0271186 0.0263945 0.025656 0.0249032 0.0241359 0.0233543 0.0225582 0.0217478 0.0209285 0.0201059 0.01928 0.0184507 0.0176182 0.0167823 0.0159431 0.0151006 0.014261 0.0134304 0.0126089 0.0117964 0.010993 0.0101986 0.00941336 0.00863712 0.00787029 0.00711319 0.00636584 0.00562822 0.00490035 0.00418221 0.00347381 0.00277515 0.00212473 0.00156102 0.00108404 0.000693788 0.000390256 0.000173447 4.33618e-05 0 0 4.72227e-05 0.000188891 0.000425005 0.000755564 0.00118057 0.00170002 0.00231391 0.00302226 0.00378304 0.00455425 0.00533589 0.00612797 0.00693048 0.00774342 0.00856679 0.0094006 0.0102445 0.0110982 0.0119617 0.012835 0.0137181 0.0146109 0.0155136 0.016426 0.0173415 0.0182534 0.0191617 0.0200663 0.0209673 0.0218647 0.0227585 0.0236486 0.0245291 0.025394 0.0262432 0.0270768 0.0278947 0.028697 0.0294837 0.0302547 0.031005 0.0317297 0.0324288 0.0331022 0.0337499 0.034372 0.0349684 0.0355392 0.0360807 0.0365893 0.0370649 0.0375076 0.0379173 0.0382941 0.038638 0.0389489 0.0392249 0.0394642 0.0396666 0.0398322 0.039961 0.0400531 0.0401083 0.0401267 0.0401083 0.0400531 0.039961 0.0398322 0.0396666 0.0394642 0.0392249 0.0389489 0.038638 0.0382941 0.0379173 0.0375076 0.0370649 0.0365893 0.0360807 0.0355392 0.0349685 0.034372 0.0337499 0.0331022 0.0324288 0.0317297 0.031005 0.0302547 0.0294837 0.028697 0.0278947 0.0270768 0.0262432 0.025394 0.0245291 0.0236486 0.0227585 0.0218647 0.0209673 0.0200663 0.0191617 0.0182534 0.0173415 0.016426 0.0155136 0.0146109 0.0137181 0.012835 0.0119617 0.0110982 0.0102445 0.00940061 0.00856681 0.00774343 0.00693049 0.00612798 0.0053359 0.00455426 0.00378304 0.00302226 0.00231392 0.00170002 0.00118057 0.000755566 0.000425006 0.000188891 4.72229e-05 0 0 5.11112e-05 0.000204445 0.000460001 0.000817779 0.00127778 0.00184 0.00250445 0.00327112 0.00409445 0.00492891 0.00577449 0.00663119 0.00749901 0.00837794 0.009268 0.0101692 0.0110812 0.0120037 0.0129367 0.0138803 0.0148343 0.0157989 0.016774 0.0177597 0.0187486 0.0197335 0.0207146 0.0216917 0.0226648 0.0236341 0.0245993 0.0255607 0.0265116 0.0274456 0.0283628 0.029263 0.0301463 0.0310127 0.0318623 0.0326949 0.0335052 0.0342879 0.0350428 0.03577 0.0364696 0.0371414 0.0377855 0.0384019 0.0389867 0.039536 0.0400496 0.0405277 0.0409702 0.0413771 0.0417484 0.0420842 0.0423823 0.0426407 0.0428593 0.0430382 0.0431773 0.0432767 0.0433363 0.0433562 0.0433363 0.0432767 0.0431773 0.0430382 0.0428593 0.0426407 0.0423823 0.0420842 0.0417484 0.0413771 0.0409702 0.0405277 0.0400496 0.039536 0.0389867 0.038402 0.0377855 0.0371414 0.0364696 0.03577 0.0350428 0.0342879 0.0335052 0.0326949 0.0318623 0.0310128 0.0301463 0.029263 0.0283628 0.0274456 0.0265116 0.0255607 0.0245993 0.0236341 0.0226648 0.0216917 0.0207146 0.0197336 0.0187486 0.0177597 0.016774 0.0157989 0.0148344 0.0138803 0.0129367 0.0120037 0.0110812 0.0101692 0.00926801 0.00837796 0.00749902 0.0066312 0.0057745 0.00492892 0.00409446 0.00327112 0.00250445 0.00184001 0.00127778 0.000817781 0.000460002 0.000204445 5.11113e-05 0 0 5.5027e-05 0.000220108 0.000495243 0.000880432 0.00137567 0.00198097 0.00269632 0.00352173 0.00440806 0.0053062 0.00621613 0.00713787 0.00807141 0.00901675 0.00997389 0.0109428 0.0119233 0.012915 0.013918 0.0149322 0.0159577 0.0169944 0.0180423 0.0191016 0.0201643 0.0212227 0.0222769 0.0233268 0.0243725 0.0254139 0.0264511 0.027484 0.0285057 0.0295092 0.0304946 0.0314618 0.0324108 0.0333417 0.0342544 0.035149 0.0360196 0.0368605 0.0376715 0.0384529 0.0392044 0.0399262 0.0406183 0.0412806 0.0419089 0.0424989 0.0430508 0.0435644 0.0440398 0.044477 0.044876 0.0452368 0.0455571 0.0458347 0.0460696 0.0462617 0.0464112 0.046518 0.046582 0.0466034 0.046582 0.046518 0.0464112 0.0462617 0.0460696 0.0458347 0.0455571 0.0452368 0.044876 0.044477 0.0440398 0.0435644 0.0430508 0.0424989 0.0419089 0.0412806 0.0406183 0.0399262 0.0392044 0.0384529 0.0376715 0.0368605 0.0360196 0.035149 0.0342544 0.0333417 0.0324108 0.0314618 0.0304946 0.0295092 0.0285057 0.027484 0.0264511 0.0254139 0.0243725 0.0233268 0.0222769 0.0212227 0.0201643 0.0191016 0.0180424 0.0169944 0.0159577 0.0149322 0.013918 0.012915 0.0119233 0.0109429 0.00997391 0.00901677 0.00807142 0.00713788 0.00621614 0.00530621 0.00440807 0.00352174 0.00269633 0.00198098 0.00137568 0.000880434 0.000495244 0.000220108 5.50271e-05 0 0 5.89702e-05 0.000235881 0.000530732 0.000943523 0.00147425 0.00212293 0.00288954 0.00377409 0.00472385 0.00568609 0.00666081 0.00764801 0.00864769 0.00965984 0.0106845 0.0117216 0.0127709 0.0138323 0.0149055 0.0159908 0.0170881 0.0181973 0.0193185 0.0204517 0.0215886 0.0227209 0.0238486 0.0249717 0.0260903 0.0272043 0.0283137 0.0294185 0.0305113 0.0315847 0.0326386 0.0336731 0.0346882 0.0356839 0.0366601 0.0376169 0.0385481 0.0394474 0.040315 0.0411506 0.0419545 0.0427265 0.0434667 0.0441751 0.0448471 0.0454782 0.0460685 0.0466179 0.0471264 0.047594 0.0480207 0.0484066 0.0487492 0.0490461 0.0492974 0.0495029 0.0496628 0.049777 0.0498455 0.0498683 0.0498455 0.049777 0.0496628 0.0495029 0.0492974 0.0490461 0.0487492 0.0484066 0.0480208 0.047594 0.0471264 0.0466179 0.0460685 0.0454782 0.0448471 0.0441751 0.0434667 0.0427265 0.0419545 0.0411507 0.040315 0.0394475 0.0385481 0.0376169 0.0366601 0.0356839 0.0346882 0.0336732 0.0326386 0.0315847 0.0305113 0.0294185 0.0283137 0.0272043 0.0260903 0.0249718 0.0238486 0.0227209 0.0215886 0.0204517 0.0193185 0.0181973 0.0170881 0.0159908 0.0149056 0.0138323 0.012771 0.0117216 0.0106845 0.00965986 0.0086477 0.00764803 0.00666083 0.00568611 0.00472386 0.0037741 0.00288954 0.00212293 0.00147426 0.000943525 0.000530733 0.000235881 5.89703e-05 0 0 6.29407e-05 0.000251763 0.000566466 0.00100705 0.00157352 0.00226587 0.00308409 0.00402821 0.00504183 0.00606861 0.00710854 0.00816161 0.00922784 0.0103072 0.0113998 0.0125054 0.013624 0.0147554 0.0158994 0.0170561 0.0182255 0.0194077 0.0206025 0.0218101 0.0230215 0.0242281 0.0254297 0.0266264 0.0278182 0.0290051 0.0301871 0.0313642 0.0325285 0.0336721 0.0347949 0.0358971 0.0369786 0.0380393 0.0390794 0.0400987 0.0410907 0.0420489 0.0429731 0.0438634 0.0447198 0.0455423 0.0463309 0.0470855 0.0478015 0.0484739 0.0491027 0.049688 0.0502298 0.050728 0.0511826 0.0515937 0.0519587 0.052275 0.0525427 0.0527617 0.052932 0.0530537 0.0531267 0.053151 0.0531267 0.0530537 0.052932 0.0527617 0.0525427 0.052275 0.0519587 0.0515937 0.0511826 0.050728 0.0502298 0.049688 0.0491027 0.0484739 0.0478015 0.0470855 0.0463309 0.0455423 0.0447198 0.0438634 0.0429731 0.0420489 0.0410907 0.0400987 0.0390794 0.0380393 0.0369786 0.0358971 0.034795 0.0336721 0.0325285 0.0313642 0.0301872 0.0290052 0.0278183 0.0266264 0.0254297 0.0242281 0.0230215 0.0218101 0.0206025 0.0194077 0.0182256 0.0170561 0.0158994 0.0147554 0.0136241 0.0125054 0.0113998 0.0103072 0.00922786 0.00816163 0.00710855 0.00606862 0.00504184 0.00402821 0.0030841 0.00226587 0.00157352 0.00100705 0.000566468 0.000251763 6.29408e-05 0 0 6.69386e-05 0.000267754 0.000602447 0.00107102 0.00167347 0.00240979 0.00327999 0.00428407 0.005362 0.00645374 0.0075593 0.00867868 0.00981187 0.0109589 0.0121197 0.0132944 0.0144826 0.0156843 0.0168995 0.0181281 0.0193701 0.0206255 0.0218944 0.0231767 0.0244631 0.0257443 0.0270202 0.0282909 0.0295563 0.0308165 0.0320715 0.0333212 0.0345573 0.0357714 0.0369635 0.0381337 0.0392818 0.040408 0.0415121 0.0425943 0.0436475 0.0446647 0.0456459 0.0465911 0.0475003 0.0483735 0.0492107 0.0500119 0.050772 0.0514858 0.0521534 0.0527748 0.05335 0.0538789 0.0543616 0.0547981 0.0551856 0.0555214 0.0558056 0.0560381 0.0562189 0.0563481 0.0564256 0.0564514 0.0564256 0.0563481 0.0562189 0.0560381 0.0558056 0.0555214 0.0551856 0.0547981 0.0543616 0.0538789 0.05335 0.0527748 0.0521534 0.0514858 0.050772 0.0500119 0.0492107 0.0483735 0.0475003 0.0465911 0.0456459 0.0446647 0.0436475 0.0425943 0.0415121 0.040408 0.0392818 0.0381337 0.0369635 0.0357714 0.