<?xml version="1.0"?> 
<VTKFile type="StructuredGrid" version="0.1"> 
<StructuredGrid WholeExtent="0 128 0 128 0 0"> 
<Piece Extent="0 128 0 128 0 0"> 
<PointData>
<DataArray type="Float32" Name="u" format="ascii" NumberOfComponents="1"> 
0 0 0 0 0 0 0 0 0 0 0 0 0 0 0 0 0 0 0 0 0 0 0 0 0 0 0 0 0 0 0 0 0 0 0 0 0 0 0 0 0 0 0 0 0 0 0 0 0 0 0 0 0 0 0 0 0 0 0 0 0 0 0 0 0 0 0 0 0 0 0 0 0 0 0 0 0 0 0 0 0 0 0 0 0 0 0 0 0 0 0 0 0 0 0 0 0 0 0 0 0 0 0 0 0 0 0 0 0 0 0 0 0 0 0 0 0 0 0 0 0 0 0 0 0 0 0 0 0 0 1.92813e-07 7.71253e-07 1.73532e-06 3.08501e-06 4.82033e-06 6.94128e-06 9.44785e-06 1.234e-05 1.5572e-05 1.90979e-05 2.29178e-05 2.70316e-05 3.14393e-05 3.6141e-05 4.11366e-05 4.64261e-05 5.20549e-05 5.80682e-05 6.4466e-05 7.12483e-05 7.84152e-05 8.59665e-05 9.39024e-05 0.000102223 0.00011089 0.000119866 0.000129152 0.000138747 0.000148651 0.000158864 0.000169386 0.000180217 0.000191246 0.000202363 0.000213566 0.000224857 0.000236235 0.000247699 0.000259251 0.00027089 0.00028246 0.000293806 0.000304928 0.000315825 0.000326498 0.000336947 0.000347171 0.000357172 0.000366797 0.000375897 0.000384471 0.000392519 0.000400043 0.00040704 0.000413512 0.000419459 0.000424787 0.000429405 0.000433313 0.00043651 0.000438996 0.000440772 0.000441838 0.000442193 0.000441838 0.000440772 0.000438996 0.00043651 0.000433313 0.000429405 0.000424787 0.000419459 0.000413512 0.00040704 0.000400043 0.000392519 0.000384471 0.000375897 0.000366797 0.000357172 0.000347171 0.000336947 0.000326498 0.000315825 0.000304928 0.000293806 0.00028246 0.00027089 0.000259251 0.000247699 0.000236235 0.000224857 0.000213566 0.000202363 0.000191246 0.000180217 0.000169386 0.000158864 0.000148651 0.000138747 0.000129152 0.000119866 0.00011089 0.000102223 9.39024e-05 8.59666e-05 7.84152e-05 7.12484e-05 6.4466e-05 5.80682e-05 5.20549e-05 4.64262e-05 4.11366e-05 3.6141e-05 3.14394e-05 2.70316e-05 2.29178e-05 1.9098e-05 1.55721e-05 1.23401e-05 9.44787e-06 6.94129e-06 4.82034e-06 3.08502e-06 1.73532e-06 7.71255e-07 1.92814e-07 0 0 7.71253e-07 3.08501e-06 6.94128e-06 1.234e-05 1.92813e-05 2.77651e-05 3.77914e-05 4.93602e-05 6.22881e-05 7.63918e-05 9.16712e-05 0.000108126 0.000125757 0.000144564 0.000164546 0.000185705 0.00020822 0.000232273 0.000257864 0.000284993 0.000313661 0.000343866 0.00037561 0.000408891 0.00044356 0.000479466 0.000516608 0.000554987 0.000594602 0.000635454 0.000677543 0.000720868 0.000764986 0.000809452 0.000854266 0.000899428 0.000944939 0.000990797 0.001037 0.00108356 0.00112984 0.00117522 0.00121971 0.0012633 0.00130599 0.00134779 0.00138869 0.00142869 0.00146719 0.00150359 0.00153788 0.00157008 0.00160017 0.00162816 0.00165405 0.00167783 0.00169915 0.00171762 0.00173325 0.00174604 0.00175598 0.00176309 0.00176735 0.00176877 0.00176735 0.00176309 0.00175598 0.00174604 0.00173325 0.00171762 0.00169915 0.00167783 0.00165405 0.00162816 0.00160017 0.00157008 0.00153788 0.00150359 0.00146719 0.00142869 0.00138869 0.00134779 0.00130599 0.0012633 0.00121971 0.00117522 0.00112984 0.00108356 0.001037 0.000990797 0.000944939 0.000899428 0.000854266 0.000809452 0.000764986 0.000720868 0.000677543 0.000635454 0.000594602 0.000554987 0.000516608 0.000479466 0.00044356 0.000408891 0.00037561 0.000343866 0.000313661 0.000284993 0.000257864 0.000232273 0.00020822 0.000185705 0.000164547 0.000144564 0.000125757 0.000108127 9.16714e-05 7.63919e-05 6.22882e-05 4.93603e-05 3.77915e-05 2.77652e-05 1.92814e-05 1.23401e-05 6.94129e-06 3.08502e-06 7.71255e-07 0 0 1.73532e-06 6.94128e-06 1.56179e-05 2.77651e-05 4.3383e-05 6.24715e-05 8.50306e-05 0.00011106 0.000140148 0.000171882 0.00020626 0.000243284 0.000282954 0.000325269 0.000370229 0.000417835 0.000468494 0.000522614 0.000580194 0.000641235 0.000705736 0.000773699 0.000845122 0.000920005 0.00099801 0.0010788 0.00116237 0.00124872 0.00133785 0.00142977 0.00152447 0.00162195 0.00172122 0.00182127 0.0019221 0.00202371 0.00212611 0.00222929 0.00233326 0.00243801 0.00254214 0.00264425 0.00274435 0.00284242 0.00293848 0.00303252 0.00312454 0.00321454 0.00330117 0.00338307 0.00346024 0.00353268 0.00360038 0.00366336 0.00372161 0.00377513 0.00382308 0.00386465 0.00389981 0.00392859 0.00395097 0.00396695 0.00397654 0.00397974 0.00397654 0.00396695 0.00395097 0.00392859 0.00389981 0.00386465 0.00382308 0.00377513 0.00372161 0.00366336 0.00360038 0.00353268 0.00346024 0.00338307 0.00330117 0.00321454 0.00312454 0.00303252 0.00293848 0.00284242 0.00274435 0.00264425 0.00254214 0.00243801 0.00233326 0.00222929 0.00212611 0.00202371 0.0019221 0.00182127 0.00172122 0.00162195 0.00152447 0.00142977 0.00133785 0.00124872 0.00116237 0.0010788 0.000998011 0.000920006 0.000845122 0.000773699 0.000705737 0.000641235 0.000580194 0.000522614 0.000468495 0.000417836 0.00037023 0.000325269 0.000282954 0.000243285 0.000206261 0.000171882 0.000140149 0.000111061 8.50308e-05 6.24716e-05 4.33831e-05 2.77652e-05 1.56179e-05 6.94129e-06 1.73532e-06 0 0 3.08501e-06 1.234e-05 2.77651e-05 4.93602e-05 7.71253e-05 0.00011106 0.000151166 0.000197441 0.000249152 0.000305567 0.000366685 0.000432505 0.000503029 0.000578256 0.000658185 0.000742818 0.000832878 0.000929091 0.00103146 0.00113997 0.00125464 0.00137546 0.00150244 0.00163556 0.00177424 0.00191786 0.00206643 0.00221995 0.00237841 0.00254182 0.00271017 0.00288347 0.00305994 0.00323781 0.00341706 0.00359771 0.00377975 0.00396319 0.00414802 0.00433424 0.00451936 0.0047009 0.00487884 0.0050532 0.00522397 0.00539115 0.00555474 0.00571474 0.00586875 0.00601435 0.00615153 0.00628031 0.00640068 0.00651264 0.00661619 0.00671134 0.00679659 0.00687048 0.006933 0.00698415 0.00702394 0.00705236 0.00706941 0.00707509 0.00706941 0.00705236 0.00702394 0.00698415 0.006933 0.00687048 0.00679659 0.00671134 0.00661619 0.00651264 0.00640068 0.00628031 0.00615153 0.00601435 0.00586875 0.00571474 0.00555474 0.00539115 0.00522397 0.0050532 0.00487884 0.0047009 0.00451936 0.00433424 0.00414802 0.00396319 0.00377975 0.00359771 0.00341706 0.00323781 0.00305994 0.00288347 0.00271017 0.00254182 0.00237841 0.00221995 0.00206643 0.00191786 0.00177424 0.00163557 0.00150244 0.00137547 0.00125464 0.00113997 0.00103146 0.000929092 0.000832879 0.000742819 0.000658186 0.000578257 0.00050303 0.000432506 0.000366685 0.000305568 0.000249153 0.000197441 0.000151166 0.000111061 7.71255e-05 4.93603e-05 2.77652e-05 1.23401e-05 3.08502e-06 0 0 4.82033e-06 1.92813e-05 4.3383e-05 7.71253e-05 0.000120508 0.000173532 0.000236196 0.000308501 0.000389301 0.000477449 0.000572945 0.00067579 0.000785983 0.000903525 0.00102841 0.00116065 0.00130137 0.0014517 0.00161165 0.00178121 0.00196038 0.00214916 0.00234756 0.00255557 0.00277225 0.00299666 0.0032288 0.00346867 0.00371626 0.00397159 0.00423464 0.00450543 0.00478116 0.00505907 0.00533916 0.00562143 0.00590587 0.00619248 0.00648128 0.00677225 0.0070615 0.00734515 0.00762319 0.00789562 0.00816245 0.00842367 0.00867928 0.00892929 0.00916992 0.00939742 0.00961177 0.00981299 0.0100011 0.010176 0.0103378 0.0104865 0.0106197 0.0107351 0.0108328 0.0109127 0.0109749 0.0110193 0.011046 0.0110548 0.011046 0.0110193 0.0109749 0.0109127 0.0108328 0.0107351 0.0106197 0.0104865 0.0103378 0.010176 0.0100011 0.00981299 0.00961177 0.00939742 0.00916992 0.00892929 0.00867928 0.00842367 0.00816245 0.00789562 0.00762319 0.00734515 0.0070615 0.00677225 0.00648128 0.00619248 0.00590587 0.00562143 0.00533916 0.00505907 0.00478116 0.00450543 0.00423464 0.00397159 0.00371626 0.00346867 0.0032288 0.00299666 0.00277225 0.00255557 0.00234756 0.00214916 0.00196038 0.00178121 0.00161165 0.00145171 0.00130137 0.00116065 0.00102842 0.000903526 0.000785984 0.000675791 0.000572946 0.00047745 0.000389301 0.000308502 0.000236197 0.000173532 0.000120509 7.71255e-05 4.33831e-05 1.92814e-05 4.82034e-06 0 0 6.94128e-06 2.77651e-05 6.24715e-05 0.00011106 0.000173532 0.000249886 0.000340123 0.000444242 0.000560593 0.000687526 0.000825041 0.000973137 0.00113182 0.00130108 0.00148092 0.00167134 0.00187398 0.00209045 0.00232078 0.00256494 0.00282295 0.00309479 0.00338049 0.00368002 0.00399204 0.00431519 0.00464947 0.00499488 0.00535142 0.00571909 0.00609789 0.00648781 0.00688487 0.00728507 0.00768839 0.00809485 0.00850445 0.00891718 0.00933304 0.00975204 0.0101686 0.010577 0.0109774 0.0113697 0.0117539 0.0121301 0.0124982 0.0128582 0.0132047 0.0135323 0.013841 0.0141307 0.0144015 0.0146534 0.0148864 0.0151005 0.0152923 0.0154586 0.0155993 0.0157143 0.0158039 0.0158678 0.0159062 0.015919 0.0159062 0.0158678 0.0158039 0.0157143 0.0155993 0.0154586 0.0152923 0.0151005 0.0148864 0.0146534 0.0144015 0.0141307 0.013841 0.0135323 0.0132047 0.0128582 0.0124982 0.0121301 0.0117539 0.0113697 0.0109774 0.010577 0.0101686 0.00975204 0.00933304 0.00891718 0.00850445 0.00809485 0.00768839 0.00728507 0.00688487 0.00648781 0.00609789 0.00571909 0.00535142 0.00499488 0.00464947 0.00431519 0.00399204 0.00368002 0.00338049 0.0030948 0.00282295 0.00256494 0.00232078 0.00209046 0.00187398 0.00167134 0.00148092 0.00130108 0.00113182 0.000973139 0.000825042 0.000687527 0.000560594 0.000444243 0.000340123 0.000249886 0.000173532 0.000111061 6.24716e-05 2.77652e-05 6.94129e-06 0 0 9.44785e-06 3.77914e-05 8.50306e-05 0.000151166 0.000236196 0.000340123 0.000462945 0.000604662 0.000763029 0.000935799 0.00112297 0.00132455 0.00154053 0.00177091 0.00201569 0.00227488 0.00255069 0.00284534 0.00315883 0.00349117 0.00384234 0.00421236 0.00460122 0.00500892 0.00543361 0.00587346 0.00632845 0.00679859 0.00728388 0.00778431 0.0082999 0.00883063 0.00937108 0.00991578 0.0104648 0.011018 0.0115755 0.0121373 0.0127033 0.0132736 0.0138405 0.0143965 0.0149415 0.0154754 0.0159984 0.0165104 0.0170114 0.0175014 0.017973 0.0184189 0.0188391 0.0192335 0.0196021 0.019945 0.0202621 0.0205535 0.0208146 0.0210408 0.0212323 0.021389 0.0215108 0.0215978 0.0216501 0.0216675 0.0216501 0.0215978 0.0215108 0.021389 0.0212323 0.0210408 0.0208146 0.0205535 0.0202621 0.019945 0.0196021 0.0192335 0.0188391 0.0184189 0.017973 0.0175014 0.0170114 0.0165104 0.0159984 0.0154754 0.0149415 0.0143965 0.0138405 0.0132736 0.0127033 0.0121373 0.0115755 0.011018 0.0104648 0.00991578 0.00937108 0.00883064 0.0082999 0.00778431 0.00728388 0.00679859 0.00632845 0.00587346 0.00543361 0.00500892 0.00460122 0.00421236 0.00384235 0.00349117 0.00315884 0.00284534 0.00255069 0.00227488 0.0020157 0.00177091 0.00154053 0.00132455 0.00112297 0.000935801 0.000763031 0.000604664 0.000462946 0.000340123 0.000236197 0.000151166 8.50308e-05 3.77915e-05 9.44787e-06 0 0 1.234e-05 4.93602e-05 0.00011106 0.000197441 0.000308501 0.000444242 0.000604662 0.000789763 0.00099661 0.00122227 0.00146674 0.00173002 0.00201212 0.00231302 0.00263274 0.00297127 0.00333151 0.00371636 0.00412582 0.00455989 0.00501857 0.00550186 0.00600975 0.00654226 0.00709696 0.00767145 0.00826573 0.00887979 0.00951363 0.0101673 0.0108407 0.0115339 0.0122398 0.0129512 0.0136683 0.0143909 0.015119 0.0158528 0.0165921 0.017337 0.0180774 0.0188036 0.0195154 0.0202128 0.0208959 0.0215646 0.022219 0.022859 0.023475 0.0240574 0.0246061 0.0251212 0.0256027 0.0260506 0.0264648 0.0268454 0.0271864 0.0274819 0.027732 0.0279366 0.0280958 0.0282094 0.0282776 0.0283004 0.0282776 0.0282094 0.0280958 0.0279366 0.027732 0.0274819 0.0271864 0.0268453 0.0264648 0.0260506 0.0256027 0.0251212 0.0246061 0.0240574 0.023475 0.022859 0.022219 0.0215646 0.0208959 0.0202128 0.0195154 0.0188036 0.0180774 0.017337 0.0165921 0.0158528 0.015119 0.0143909 0.0136683 0.0129512 0.0122398 0.0115339 0.0108407 0.0101673 0.00951364 0.00887979 0.00826573 0.00767145 0.00709696 0.00654226 0.00600976 0.00550186 0.00501857 0.0045599 0.00412583 0.00371637 0.00333152 0.00297128 0.00263275 0.00231303 0.00201212 0.00173002 0.00146674 0.00122227 0.000996612 0.000789765 0.000604664 0.000444243 0.000308502 0.000197441 0.000111061 4.93603e-05 1.23401e-05 0 0 1.55188e-05 6.20751e-05 0.000139669 0.0002483 0.000387969 0.000558676 0.00076042 0.000993202 0.00125325 0.0015368 0.00184384 0.00217438 0.00252841 0.00290594 0.00330697 0.0037315 0.00418315 0.00466556 0.00517872 0.00572264 0.00629732 0.00690275 0.00753893 0.00820588 0.00890055 0.00961995 0.010364 0.0111329 0.0119264 0.0127446 0.0135876 0.0144553 0.0153388 0.0162292 0.0171266 0.0180309 0.0189421 0.0198603 0.0207854 0.0217174 0.022644 0.0235525 0.0244431 0.0253157 0.0261703 0.027007 0.0278256 0.0286263 0.029397 0.0301256 0.0308121 0.0314565 0.0320588 0.0326191 0.0331372 0.0336133 0.0340399 0.0344096 0.0347225 0.0349784 0.0351775 0.0353197 0.035405 0.0354334 0.035405 0.0353197 0.0351775 0.0349784 0.0347225 0.0344096 0.0340399 0.0336133 0.0331372 0.0326191 0.0320588 0.0314565 0.0308121 0.0301256 0.029397 0.0286263 0.0278256 0.027007 0.0261703 0.0253157 0.0244431 0.0235525 0.022644 0.0217174 0.0207854 0.0198603 0.0189421 0.0180309 0.0171266 0.0162292 0.0153388 0.0144553 0.0135876 0.0127446 0.0119264 0.0111329 0.0103641 0.00961995 0.00890056 0.00820588 0.00753894 0.00690275 0.00629732 0.00572264 0.00517872 0.00466556 0.00418315 0.0037315 0.00330698 0.00290595 0.00252842 0.00217438 0.00184384 0.0015368 0.00125325 0.000993204 0.000760422 0.000558677 0.00038797 0.000248301 0.000139669 6.20752e-05 1.55188e-05 0 0 1.88849e-05 7.55398e-05 0.000169965 0.000302159 0.000472124 0.000679858 0.000925362 0.00120864 0.00152487 0.00186924 0.00224177 0.00264243 0.00307124 0.0035282 0.0040133 0.00452654 0.0050723 0.00565496 0.0062745 0.00693094 0.00762427 0.00835449 0.0091216 0.0099256 0.0107629 0.0116297 0.0125262 0.0134522 0.0144079 0.0153931 0.016408 0.0174524 0.0185158 0.0195875 0.0206673 0.0217555 0.0228518 0.0239565 0.0250693 0.0261904 0.0273048 0.0283976 0.0294686 0.030518 0.0315458 0.0325518 0.0335362 0.0344989 0.0354255 0.0363015 0.0371269 0.0379016 0.0386258 0.0392993 0.0399222 0.0404945 0.0410073 0.0414517 0.0418278 0.0421355 0.0423748 0.0425457 0.0426483 0.0426825 0.0426483 0.0425457 0.0423748 0.0421355 0.0418278 0.0414517 0.0410073 0.0404945 0.0399222 0.0392993 0.0386258 0.0379016 0.0371269 0.0363015 0.0354255 0.0344989 0.0335362 0.0325518 0.0315458 0.030518 0.0294686 0.0283976 0.0273048 0.0261904 0.0250693 0.0239565 0.0228518 0.0217555 0.0206673 0.0195875 0.0185158 0.0174524 0.016408 0.0153931 0.0144079 0.0134522 0.0125262 0.0116297 0.0107629 0.0099256 0.0091216 0.00835449 0.00762427 0.00693094 0.00627451 0.00565496 0.00507231 0.00452654 0.0040133 0.0035282 0.00307125 0.00264244 0.00224177 0.00186925 0.00152487 0.00120864 0.000925364 0.00067986 0.000472125 0.00030216 0.000169965 7.554e-05 1.8885e-05 0 0 2.24386e-05 8.97542e-05 0.000201947 0.000359017 0.000560964 0.000807788 0.00109949 0.00143607 0.00181146 0.00221961 0.00266052 0.00313418 0.0036406 0.00417978 0.00475171 0.0053564 0.00599897 0.00668456 0.00741316 0.00818479 0.00899942 0.00985708 0.0107577 0.0117014 0.0126838 0.0137007 0.014752 0.0158378 0.016958 0.0181127 0.0193019 0.0205254 0.021771 0.0230261 0.0242906 0.0255647 0.0268482 0.0281413 0.0294439 0.0307559 0.03206 0.0333387 0.034592 0.0358198 0.0370222 0.0381991 0.0393507 0.0404768 0.0415606 0.0425851 0.0435505 0.0444566 0.0453035 0.0460912 0.0468197 0.0474889 0.0480886 0.0486083 0.0490481 0.0494079 0.0496877 0.0498876 0.0500075 0.0500475 0.0500075 0.0498876 0.0496877 0.0494079 0.0490481 0.0486083 0.0480886 0.0474889 0.0468197 0.0460912 0.0453035 0.0444566 0.0435505 0.0425851 0.0415606 0.0404768 0.0393507 0.0381991 0.0370222 0.0358198 0.034592 0.0333387 0.03206 0.0307559 0.0294439 0.0281413 0.0268482 0.0255647 0.0242906 0.0230261 0.021771 0.0205254 0.0193019 0.0181127 0.016958 0.0158378 0.014752 0.0137007 0.0126839 0.0117014 0.0107577 0.00985708 0.00899943 0.00818479 0.00741317 0.00668456 0.00599898 0.0053564 0.00475171 0.00417978 0.00364061 0.00313419 0.00266053 0.00221962 0.00181147 0.00143607 0.00109949 0.00080779 0.000560965 0.000359018 0.000201947 8.97544e-05 2.24386e-05 0 0 2.61796e-05 0.000104718 0.000235616 0.000418874 0.00065449 0.000942466 0.0012828 0.00167549 0.00211303 0.0025879 0.0031001 0.00364964 0.0042365 0.00486069 0.00552221 0.00622107 0.00696315 0.00775437 0.00859471 0.00948418 0.0104228 0.0114105 0.0124474 0.0135334 0.0146636 0.015833 0.0170417 0.0182897 0.0195769 0.0209034 0.0222692 0.0236742 0.0251042 0.0265449 0.0279964 0.0294585 0.0309313 0.0324148 0.033909 0.0354139 0.0369096 0.038376 0.0398131 0.041221 0.0425996 0.0439489 0.045269 0.0465599 0.0478021 0.0489765 0.0500829 0.0511215 0.0520921 0.0529949 0.0538297 0.0545966 0.0552838 0.0558793 0.0563832 0.0567955 0.0571162 0.0573452 0.0574827 0.0575285 0.0574827 0.0573452 0.0571162 0.0567955 0.0563832 0.0558793 0.0552838 0.0545966 0.0538297 0.0529949 0.0520921 0.0511215 0.0500829 0.0489765 0.0478021 0.0465599 0.045269 0.0439489 0.0425996 0.041221 0.0398131 0.038376 0.0369096 0.0354139 0.033909 0.0324148 0.0309313 0.0294585 0.0279964 0.0265449 0.0251042 0.0236742 0.0222692 0.0209034 0.0195769 0.0182897 0.0170417 0.015833 0.0146636 0.0135334 0.0124474 0.0114105 0.0104228 0.00948419 0.00859472 0.00775437 0.00696316 0.00622108 0.00552222 0.0048607 0.0042365 0.00364964 0.00310011 0.00258791 0.00211304 0.0016755 0.0012828 0.000942468 0.000654491 0.000418875 0.000235617 0.000104719 2.61797e-05 0 0 3.01081e-05 0.000120432 0.000270973 0.000481729 0.000752702 0.00108389 0.0014753 0.00192692 0.00242958 0.00297411 0.00356052 0.00418879 0.00485893 0.00557093 0.00632481 0.00712056 0.00796485 0.00886438 0.00981914 0.0108291 0.0118944 0.0130148 0.0141905 0.0154214 0.016702 0.0180265 0.0193952 0.0208078 0.0222645 0.0237653 0.02531 0.0268988 0.0285156 0.0301442 0.0317846 0.0334369 0.035101 0.036777 0.0384648 0.0401645 0.0418535 0.0435093 0.045132 0.0467216 0.048278 0.0498012 0.0512913 0.0527482 0.0541502 0.0554756 0.0567242 0.0578962 0.0589916 0.0600102 0.0609522 0.0618175 0.0625928 0.0632647 0.0638333 0.0642985 0.0646603 0.0649187 0.0650738 0.0651254 0.0650738 0.0649187 0.0646603 0.0642985 0.0638333 0.0632647 0.0625928 0.0618175 0.0609522 0.0600102 0.0589916 0.0578962 0.0567242 0.0554756 0.0541502 0.0527482 0.0512913 0.0498012 0.048278 0.0467216 0.045132 0.0435093 0.0418535 0.0401645 0.0384648 0.036777 0.035101 0.0334369 0.0317846 0.0301442 0.0285156 0.0268988 0.02531 0.0237653 0.0222645 0.0208078 0.0193952 0.0180265 0.016702 0.0154214 0.0141905 0.0130148 0.0118944 0.0108291 0.00981915 0.00886439 0.00796486 0.00712056 0.00632482 0.00557094 0.00485893 0.00418879 0.00356052 0.00297412 0.00242959 0.00192692 0.0014753 0.00108389 0.000752704 0.00048173 0.000270973 0.000120433 3.01082e-05 0 0 3.4224e-05 0.000136896 0.000308016 0.000547584 0.0008556 0.00123206 0.00167698 0.00219034 0.00276111 0.00337825 0.00404176 0.00475164 0.00550789 0.00631051 0.0071595 0.00805486 0.00900407 0.0100146 0.0110865 0.0122196 0.0134141 0.0146699 0.0159871 0.0173656 0.0187991 0.0202814 0.0218124 0.0233922 0.0250208 0.0266982 0.0284243 0.0301992 0.032005 0.0338237 0.0356553 0.0374999 0.0393574 0.0412278 0.0431112 0.0450075 0.0468917 0.0487388 0.0505487 0.0523216 0.0540573 0.0557559 0.0574174 0.0590418 0.0606048 0.0620823 0.0634744 0.0647809 0.0660018 0.0671373 0.0681872 0.0691517 0.0700157 0.0707646 0.0713982 0.0719167 0.0723199 0.0726079 0.0727808 0.0728384 0.0727808 0.0726079 0.0723199 0.0719167 0.0713982 0.0707646 0.0700157 0.0691517 0.0681872 0.0671373 0.0660018 0.0647809 0.0634744 0.0620823 0.0606048 0.0590418 0.0574174 0.0557559 0.0540573 0.0523216 0.0505487 0.0487388 0.0468917 0.0450075 0.0431112 0.0412278 0.0393574 0.0374999 0.0356553 0.0338237 0.032005 0.0301992 0.0284243 0.0266982 0.0250208 0.0233922 0.0218124 0.0202814 0.0187991 0.0173656 0.0159871 0.01467 0.0134141 0.0122196 0.0110865 0.0100146 0.00900408 0.00805487 0.00715951 0.00631052 0.0055079 0.00475164 0.00404176 0.00337825 0.00276111 0.00219034 0.00167698 0.00123207 0.000855602 0.000547585 0.000308017 0.000136896 3.42241e-05 0 0 3.85274e-05 0.00015411 0.000346746 0.000616438 0.000963184 0.00138699 0.00188784 0.00246575 0.00310761 0.0038003 0.00454382 0.00533819 0.00618338 0.00707941 0.00802628 0.00902398 0.0100808 0.011205 0.0123966 0.0136557 0.0149821 0.0163759 0.0178372 0.0193658 0.0209549 0.0225974 0.0242934 0.0260429 0.0278458 0.0297022 0.0316121 0.0335754 0.0355725 0.0375835 0.0396085 0.0416475 0.0437004 0.0457673 0.0478481 0.049943 0.0520242 0.0540643 0.0560632 0.058021 0.0599376 0.0618131 0.0636474 0.0654406 0.0671659 0.0687968 0.0703333 0.0717753 0.0731229 0.0743761 0.0755348 0.0765991 0.0775525 0.0783789 0.0790781 0.0796502 0.0800952 0.080413 0.0806037 0.0806672 0.0806037 0.080413 0.0800952 0.0796502 0.0790781 0.0783789 0.0775525 0.0765991 0.0755348 0.0743761 0.0731229 0.0717753 0.0703333 0.0687968 0.0671659 0.0654406 0.0636474 0.0618131 0.0599376 0.058021 0.0560632 0.0540643 0.0520242 0.049943 0.0478482 0.0457673 0.0437004 0.0416475 0.0396085 0.0375835 0.0355725 0.0335754 0.0316121 0.0297022 0.0278458 0.0260429 0.0242934 0.0225974 0.0209549 0.0193658 0.0178372 0.0163759 0.0149821 0.0136557 0.0123967 0.011205 0.0100808 0.00902399 0.00802629 0.00707942 0.00618339 0.00533819 0.00454383 0.00380031 0.00310761 0.00246576 0.00188785 0.00138699 0.000963187 0.000616439 0.000346747 0.00015411 3.85275e-05 0 0 4.30182e-05 0.000172073 0.000387164 0.000688291 0.00107545 0.00154865 0.00210789 0.00275316 0.00346909 0.00424027 0.00506672 0.00594843 0.00688541 0.00787765 0.00892515 0.0100279 0.011195 0.0124356 0.0137497 0.0151373 0.0165983 0.0181328 0.0197407 0.0214222 0.0231694 0.0249747 0.0268382 0.0287598 0.0307395 0.0327774 0.0348734 0.0370274 0.0392181 0.0414237 0.0436442 0.0458796 0.0481301 0.0503954 0.0526757 0.054971 0.0572511 0.059486 0.0616756 0.0638199 0.065919 0.0679728 0.0699813 0.0719446 0.0738336 0.0756191 0.0773011 0.0788797 0.0803549 0.0817266 0.0829949 0.0841597 0.0852032 0.0861076 0.0868729 0.087499 0.087986 0.0883338 0.0885425 0.0886121 0.0885425 0.0883338 0.087986 0.087499 0.0868729 0.0861076 0.0852032 0.0841597 0.0829949 0.0817266 0.0803549 0.0788797 0.0773011 0.0756191 0.0738336 0.0719446 0.0699813 0.0679728 0.065919 0.0638199 0.0616756 0.059486 0.0572511 0.054971 0.0526757 0.0503954 0.0481301 0.0458796 0.0436442 0.0414237 0.0392181 0.0370275 0.0348734 0.0327774 0.0307395 0.0287598 0.0268382 0.0249748 0.0231694 0.0214222 0.0197407 0.0181328 0.0165983 0.0151373 0.0137497 0.0124357 0.0111951 0.0100279 0.00892516 0.00787766 0.00688542 0.00594844 0.00506673 0.00424028 0.00346909 0.00275317 0.0021079 0.00154866 0.00107546 0.000688292 0.000387164 0.000172073 4.30183e-05 0 0 4.76961e-05 0.000190784 0.000429265 0.000763137 0.0011924 0.00171706 0.00233711 0.00305255 0.00384552 0.00469815 0.00561045 0.00658241 0.00761403 0.00870532 0.00985627 0.0110669 0.0123471 0.0137068 0.0151461 0.0166649 0.0182633 0.0199412 0.0216986 0.0235355 0.0254436 0.0274144 0.0294479 0.0315442 0.0337033 0.0359251 0.0382096 0.0405569 0.0429435 0.0453459 0.0477642 0.0501984 0.0526485 0.0551144 0.0575962 0.0600939 0.0625748 0.0650062 0.0673882 0.0697208 0.072004 0.0742377 0.076422 0.0785569 0.0806107 0.0825521 0.0843809 0.0860972 0.0877009 0.0891921 0.0905708 0.0918369 0.0929712 0.0939542 0.094786 0.0954666 0.0959959 0.096374 0.0966008 0.0966765 0.0966008 0.096374 0.0959959 0.0954666 0.094786 0.0939542 0.0929712 0.0918369 0.0905708 0.0891921 0.0877009 0.0860972 0.0843809 0.0825521 0.0806107 0.0785569 0.076422 0.0742377 0.072004 0.0697208 0.0673882 0.0650062 0.0625748 0.0600939 0.0575962 0.0551144 0.0526485 0.0501984 0.0477642 0.0453459 0.0429435 0.0405569 0.0382096 0.0359251 0.0337033 0.0315443 0.029448 0.0274144 0.0254436 0.0235355 0.0216986 0.0199412 0.0182633 0.0166649 0.0151461 0.0137069 0.0123471 0.0110669 0.00985628 0.00870533 0.00761404 0.00658242 0.00561046 0.00469816 0.00384552 0.00305255 0.00233711 0.00171706 0.0011924 0.000763139 0.000429265 0.000190785 4.76962e-05 0 0 5.25607e-05 0.000210243 0.000473046 0.00084097 0.00131402 0.00189218 0.00257547 0.00336388 0.00423688 0.00517392 0.006175 0.00724013 0.00836931 0.00956254 0.0108198 0.0121411 0.0135373 0.015019 0.0165863 0.0182392 0.0199777 0.0218017 0.0237114 0.0257067 0.0277784 0.0299174 0.0321237 0.0343974 0.0367384 0.0391467 0.0416224 0.0441653 0.0467503 0.049352 0.0519705 0.0546057 0.0572577 0.0599263 0.0626117 0.0653139 0.0679976 0.0706276 0.0732039 0.0757265 0.0781955 0.0806107 0.0829723 0.0852802 0.0875005 0.089599 0.0915758 0.0934309 0.0951642 0.0967759 0.0982659 0.0996342 0.10086 0.101922 0.102821 0.103556 0.104128 0.104537 0.104782 0.104864 0.104782 0.104537 0.104128 0.103556 0.102821 0.101922 0.10086 0.0996342 0.0982659 0.0967759 0.0951642 0.0934309 0.0915758 0.089599 0.0875005 0.0852802 0.0829723 0.0806107 0.0781955 0.0757265 0.0732039 0.0706276 0.0679976 0.0653139 0.0626117 0.0599263 0.0572577 0.0546057 0.0519705 0.049352 0.0467503 0.0441653 0.0416224 0.0391467 0.0367384 0.0343974 0.0321237 0.0299174 0.0277784 0.0257067 0.0237114 0.0218018 0.0199777 0.0182392 0.0165863 0.015019 0.0135373 0.0121411 0.0108198 0.00956255 0.00836933 0.00724015 0.00617501 0.00517393 0.00423688 0.00336389 0.00257548 0.00189219 0.00131402 0.000840972 0.000473047 0.000210243 5.25608e-05 0 0 5.7612e-05 0.000230448 0.000518508 0.000921791 0.0014403 0.00207403 0.00282299 0.00368717 0.00464316 0.00566757 0.00676039 0.00792161 0.00915125 0.0104493 0.0118158 0.0132506 0.0147655 0.0163721 0.0180702 0.01986 0.0217415 0.0237146 0.0257793 0.0279356 0.0301737 0.0324837 0.0348656 0.0373193 0.0398448 0.0424423 0.0451116 0.0478528 0.0506387 0.0534421 0.0562631 0.0591016 0.0619576 0.0648312 0.0677224 0.0706311 0.0735196 0.07635 0.0791225 0.081837 0.0844934 0.0870919 0.0896323 0.0921148 0.0945027 0.0967597 0.0988858 0.100881 0.102745 0.104478 0.10608 0.107551 0.108869 0.110011 0.110978 0.111769 0.112384 0.112823 0.113086 0.113174 0.113086 0.112823 0.112384 0.111769 0.110978 0.110011 0.108869 0.107551 0.10608 0.104478 0.102745 0.100881 0.0988858 0.0967597 0.0945027 0.0921148 0.0896323 0.0870919 0.0844934 0.081837 0.0791225 0.07635 0.0735196 0.0706311 0.0677224 0.0648312 0.0619576 0.0591016 0.0562631 0.0534421 0.0506387 0.0478528 0.0451116 0.0424423 0.0398449 0.0373193 0.0348656 0.0324837 0.0301738 0.0279356 0.0257793 0.0237146 0.0217415 0.01986 0.0180702 0.0163721 0.0147655 0.0132506 0.0118158 0.0104493 0.00915127 0.00792163 0.0067604 0.00566758 0.00464317 0.00368717 0.00282299 0.00207403 0.0014403 0.000921793 0.000518509 0.000230448 5.76121e-05 0 0 6.285e-05 0.0002514 0.00056565 0.0010056 0.00157125 0.0022626 0.00307965 0.0040224 0.00506438 0.00617911 0.0073666 0.00862685 0.00995985 0.0113656 0.0128441 0.0143954 0.0160319 0.0177661 0.0195979 0.0215275 0.0235547 0.0256796 0.0279022 0.0302225 0.0326298 0.0351134 0.0376735 0.0403099 0.0430227 0.0458118 0.0486773 0.0516192 0.0546085 0.057616 0.0606418 0.063686 0.0667484 0.0698291 0.0729281 0.0760455 0.0791407 0.0821736 0.0851441 0.0880521 0.0908978 0.0936811 0.096402 0.0990604 0.101618 0.104034 0.106311 0.108447 0.110443 0.112298 0.114014 0.115589 0.116999 0.118222 0.119256 0.120103 0.120761 0.121231 0.121514 0.121608 0.121514 0.121231 0.120761 0.120103 0.119256 0.118222 0.116999 0.115589 0.114014 0.112298 0.110443 0.108447 0.106311 0.104034 0.101618 0.0990604 0.096402 0.0936811 0.0908978 0.0880521 0.0851441 0.0821736 0.0791407 0.0760455 0.0729281 0.0698291 0.0667484 0.063686 0.0606419 0.057616 0.0546085 0.0516193 0.0486774 0.0458118 0.0430227 0.0403099 0.0376735 0.0351134 0.0326298 0.0302225 0.0279022 0.0256796 0.0235547 0.0215275 0.0195979 0.0177661 0.0160319 0.0143954 0.0128441 0.0113656 0.00995987 0.00862686 0.00736661 0.00617912 0.00506439 0.00402241 0.00307966 0.0022626 0.00157125 0.0010056 0.000565651 0.0002514 6.28501e-05 0 0 6.82747e-05 0.000273099 0.000614472 0.0010924 0.00170687 0.00245789 0.00334546 0.00436958 0.00550052 0.00670854 0.00799365 0.00935584 0.0107951 0.0123115 0.0139049 0.0155754 0.0173364 0.019201 0.0211694 0.0232415 0.0254173 0.0276969 0.0300801 0.0325671 0.0351464 0.0378065 0.0405474 0.0433692 0.0462718 0.0492553 0.0523196 0.0554647 0.0586598 0.0618738 0.0651069 0.0683589 0.07163 0.07492 0.078229 0.081557 0.0848611 0.0880983 0.0912686 0.0943721 0.0974087 0.100378 0.103281 0.106117 0.108845 0.111423 0.113851 0.11613 0.118258 0.120237 0.122066 0.123746 0.12525 0.126554 0.127657 0.128559 0.129261 0.129763 0.130064 0.130164 0.130064 0.129763 0.129261 0.128559 0.127657 0.126554 0.12525 0.123746 0.122066 0.120237 0.118258 0.11613 0.113851 0.111423 0.108845 0.106117 0.103281 0.100378 0.0974087 0.0943721 0.0912686 0.0880983 0.0848611 0.081557 0.078229 0.07492 0.07163 0.0683589 0.0651069 0.0618739 0.0586598 0.0554647 0.0523196 0.0492553 0.0462718 0.0433692 0.0405474 0.0378065 0.0351464 0.0325671 0.0300801 0.0276969 0.0254173 0.0232415 0.0211694 0.019201 0.0173364 0.0155755 0.0139049 0.0123115 0.0107951 0.00935585 0.00799366 0.00670855 0.00550053 0.00436959 0.00334547 0.00245789 0.00170687 0.0010924 0.000614474 0.000273099 6.82748e-05 0 0 7.38861e-05 0.000295545 0.000664975 0.00118218 0.00184715 0.0026599 0.00362042 0.00472871 0.00595159 0.00725586 0.00864152 0.0101086 0.011657 0.0132869 0.0149981 0.0167907 0.0186789 0.0206769 0.0227846 0.0250021 0.0273293 0.0297663 0.0323131 0.0349696 0.0377236 0.0405629 0.0434874 0.0464973 0.0495924 0.0527727 0.0560383 0.0593892 0.0627926 0.0662156 0.0696582 0.0731204 0.0766023 0.0801038 0.0836249 0.0871657 0.0906806 0.094124 0.0974961 0.100797 0.104026 0.107184 0.11027 0.113285 0.116185 0.118925 0.121506 0.123928 0.126191 0.128294 0.130238 0.132023 0.133622 0.135007 0.136179 0.137138 0.137884 0.138417 0.138737 0.138843 0.138737 0.138417 0.137884 0.137138 0.136179 0.135007 0.133622 0.132023 0.130238 0.128294 0.126191 0.123928 0.121506 0.118925 0.116185 0.113285 0.11027 0.107184 0.104026 0.100797 0.0974961 0.094124 0.0906806 0.0871657 0.0836249 0.0801038 0.0766023 0.0731204 0.0696582 0.0662156 0.0627926 0.0593893 0.0560384 0.0527727 0.0495924 0.0464973 0.0434874 0.0405629 0.0377236 0.0349696 0.0323131 0.0297663 0.0273294 0.0250021 0.0227846 0.0206769 0.018679 0.0167908 0.0149981 0.0132869 0.011657 0.0101086 0.00864154 0.00725587 0.0059516 0.00472872 0.00362043 0.00265991 0.00184716 0.00118218 0.000664977 0.000295545 7.38863e-05 0 0 7.96843e-05 0.000318737 0.000717159 0.00127495 0.00199211 0.00286863 0.00390453 0.00509979 0.00641759 0.00782106 0.00931022