<?xml version="1.0"?> 
<VTKFile type="StructuredGrid" version="0.1"> 
<StructuredGrid WholeExtent="0 64 0 64 0 0"> 
<Piece Extent="0 64 0 64 0 0"> 
<PointData>
<DataArray type="Float32" Name="u" format="ascii" NumberOfComponents="1"> 
0 0 0 0 0 0 0 0 0 0 0 0 0 0 0 0 0 0 0 0 0 0 0 0 0 0 0 0 0 0 0 0 0 0 0 0 0 0 0 0 0 0 0 0 0 0 0 0 0 0 0 0 0 0 0 0 0 0 0 0 0 0 0 0 0 0 -0.00242144 -0.00484288 -0.00717127 -0.00949966 -0.0116455 -0.0137914 -0.0156722 -0.0175531 -0.0190967 -0.0206402 -0.0217872 -0.0229342 -0.0236405 -0.0243468 -0.0245853 -0.0248238 -0.0245853 -0.0243468 -0.0236405 -0.0229342 -0.0217872 -0.0206402 -0.0190967 -0.0175531 -0.0156722 -0.0137914 -0.0116455 -0.00949966 -0.00717127 -0.00484288 -0.00242144 -1.75104e-17 0.00242144 0.00484288 0.00717127 0.00949966 0.0116455 0.0137914 0.0156722 0.0175531 0.0190967 0.0206402 0.0217872 0.0229342 0.0236405 0.0243468 0.0245853 0.0248238 0.0245853 0.0243468 0.0236405 0.0229342 0.0217872 0.0206402 0.0190967 0.0175531 0.0156722 0.0137914 0.0116455 0.00949966 0.00717127 0.00484288 0.00242144 -3.23339e-18 0 -0.00484288 -0.00968577 -0.0143425 -0.0189993 -0.023291 -0.0275827 -0.0313445 -0.0351062 -0.0381933 -0.0412805 -0.0435745 -0.0458684 -0.047281 -0.0486937 -0.0491706 -0.0496476 -0.0491706 -0.0486937 -0.047281 -0.0458684 -0.0435745 -0.0412805 -0.0381933 -0.0351062 -0.0313445 -0.0275827 -0.023291 -0.0189993 -0.0143425 -0.00968577 -0.00484288 -3.50209e-17 0.00484288 0.00968577 0.0143425 0.0189993 0.023291 0.0275827 0.0313445 0.0351062 0.0381933 0.0412805 0.0435745 0.0458684 0.047281 0.0486937 0.0491706 0.0496476 0.0491706 0.0486937 0.047281 0.0458684 0.0435745 0.0412805 0.0381933 0.0351062 0.0313445 0.0275827 0.023291 0.0189993 0.0143425 0.00968577 0.00484288 -6.46677e-18 0 -0.00717127 -0.0143425 -0.0212382 -0.0281339 -0.034489 -0.0408441 -0.0464144 -0.0519847 -0.0565561 -0.0611275 -0.0645244 -0.0679213 -0.0700131 -0.0721048 -0.0728112 -0.0735175 -0.0728112 -0.0721048 -0.0700131 -0.0679213 -0.0645244 -0.0611275 -0.0565561 -0.0519847 -0.0464144 -0.0408441 -0.034489 -0.0281339 -0.0212382 -0.0143425 -0.00717127 -5.82756e-17 0.00717127 0.0143425 0.0212382 0.0281339 0.034489 0.0408441 0.0464144 0.0519847 0.0565561 0.0611275 0.0645244 0.0679213 0.0700131 0.0721048 0.0728112 0.0735175 0.0728112 0.0721048 0.0700131 0.0679213 0.0645244 0.0611275 0.0565561 0.0519847 0.0464144 0.0408441 0.034489 0.0281339 0.0212382 0.0143425 0.00717127 -9.5759e-18 0 -0.00949966 -0.0189993 -0.0281339 -0.0372685 -0.045687 -0.0541055 -0.0614844 -0.0688632 -0.0749189 -0.0809746 -0.0854744 -0.0899741 -0.0927451 -0.095516 -0.0964517 -0.0973873 -0.0964517 -0.095516 -0.0927451 -0.0899741 -0.0854744 -0.0809746 -0.0749189 -0.0688632 -0.0614844 -0.0541055 -0.045687 -0.0372685 -0.0281339 -0.0189993 -0.00949966 -8.15302e-17 0.00949966 0.0189993 0.0281339 0.0372685 0.045687 0.0541055 0.0614844 0.0688632 0.0749189 0.0809746 0.0854744 0.0899741 0.0927451 0.095516 0.0964517 0.0973873 0.0964517 0.095516 0.0927451 0.0899741 0.0854744 0.0809746 0.0749189 0.0688632 0.0614844 0.0541055 0.045687 0.0372685 0.0281339 0.0189993 0.00949966 -1.2685e-17 0 -0.0116455 -0.023291 -0.034489 -0.045687 -0.0560071 -0.0663272 -0.0753729 -0.0844186 -0.0918421 -0.0992657 -0.104782 -0.110298 -0.113695 -0.117092 -0.118239 -0.119386 -0.118239 -0.117092 -0.113695 -0.110298 -0.104782 -0.0992657 -0.0918421 -0.0844186 -0.0753729 -0.0663272 -0.0560071 -0.045687 -0.034489 -0.023291 -0.0116455 -1.10473e-16 0.0116455 0.023291 0.034489 0.045687 0.0560071 0.0663272 0.0753729 0.0844186 0.0918421 0.0992657 0.104782 0.110298 0.113695 0.117092 0.118239 0.119386 0.118239 0.117092 0.113695 0.110298 0.104782 0.0992657 0.0918421 0.0844186 0.0753729 0.0663272 0.0560071 0.045687 0.034489 0.023291 0.0116455 -1.55504e-17 0 -0.0137914 -0.0275827 -0.0408441 -0.0541055 -0.0663272 -0.078549 -0.0892615 -0.0999739 -0.108765 -0.117557 -0.12409 -0.130622 -0.134645 -0.138668 -0.140026 -0.141384 -0.140026 -0.138668 -0.134645 -0.130622 -0.12409 -0.117557 -0.108765 -0.0999739 -0.0892615 -0.078549 -0.0663272 -0.0541055 -0.0408441 -0.0275827 -0.0137914 -1.39415e-16 0.0137914 0.0275827 0.0408441 0.0541055 0.0663272 0.078549 0.0892615 0.0999739 0.108765 0.117557 0.12409 0.130622 0.134645 0.138668 0.140026 0.141384 0.140026 0.138668 0.134645 0.130622 0.12409 0.117557 0.108765 0.0999739 0.0892615 0.078549 0.0663272 0.0541055 0.0408441 0.0275827 0.0137914 -1.84158e-17 0 -0.0156722 -0.0313445 -0.0464144 -0.0614844 -0.0753729 -0.0892615 -0.101435 -0.113608 -0.123599 -0.133589 -0.141013 -0.148436 -0.153008 -0.157579 -0.159123 -0.160666 -0.159123 -0.157579 -0.153008 -0.148436 -0.141013 -0.133589 -0.123599 -0.113608 -0.101435 -0.0892615 -0.0753729 -0.0614844 -0.0464144 -0.0313445 -0.0156722 -1.7859e-16 0.0156722 0.0313445 0.0464144 0.0614844 0.0753729 0.0892615 0.101435 0.113608 0.123599 0.133589 0.141013 0.148436 0.153008 0.157579 0.159123 0.160666 0.159123 0.157579 0.153008 0.148436 0.141013 0.133589 0.123599 0.113608 0.101435 0.0892615 0.0753729 0.0614844 0.0464144 0.0313445 0.0156722 -2.09273e-17 0 -0.0175531 -0.0351062 -0.0519847 -0.0688632 -0.0844186 -0.0999739 -0.113608 -0.127243 -0.138432 -0.149622 -0.157936 -0.166251 -0.171371 -0.176491 -0.178219 -0.179948 -0.178219 -0.176491 -0.171371 -0.166251 -0.157936 -0.149622 -0.138432 -0.127243 -0.113608 -0.0999739 -0.0844186 -0.0688632 -0.0519847 -0.0351062 -0.0175531 -2.17765e-16 0.0175531 0.0351062 0.0519847 0.0688632 0.0844186 0.0999739 0.113608 0.127243 0.138432 0.149622 0.157936 0.166251 0.171371 0.176491 0.178219 0.179948 0.178219 0.176491 0.171371 0.166251 0.157936 0.149622 0.138432 0.127243 0.113608 0.0999739 0.0844186 0.0688632 0.0519847 0.0351062 0.0175531 -2.34389e-17 0 -0.0190967 -0.0381933 -0.0565561 -0.0749189 -0.0918421 -0.108765 -0.123599 -0.138432 -0.150605 -0.162779 -0.171825 -0.18087 -0.186441 -0.192011 -0.193892 -0.195773 -0.193892 -0.192011 -0.186441 -0.18087 -0.171825 -0.162779 -0.150605 -0.138432 -0.123599 -0.108765 -0.0918421 -0.0749189 -0.0565561 -0.0381933 -0.0190967 -2.92604e-16 0.0190967 0.0381933 0.0565561 0.0749189 0.0918421 0.108765 0.123599 0.138432 0.150605 0.162779 0.171825 0.18087 0.186441 0.192011 0.193892 0.195773 0.193892 0.192011 0.186441 0.18087 0.171825 0.162779 0.150605 0.138432 0.123599 0.108765 0.0918421 0.0749189 0.0565561 0.0381933 0.0190967 -2.55e-17 0 -0.0206402 -0.0412805 -0.0611275 -0.0809746 -0.0992657 -0.117557 -0.133589 -0.149622 -0.162779 -0.175936 -0.185713 -0.19549 -0.20151 -0.207531 -0.209564 -0.211597 -0.209564 -0.207531 -0.20151 -0.19549 -0.185713 -0.175936 -0.162779 -0.149622 -0.133589 -0.117557 -0.0992657 -0.0809746 -0.0611275 -0.0412805 -0.0206402 -3.67443e-16 0.0206402 0.0412805 0.0611275 0.0809746 0.0992657 0.117557 0.133589 0.149622 0.162779 0.175936 0.185713 0.19549 0.20151 0.207531 0.209564 0.211597 0.209564 0.207531 0.20151 0.19549 0.185713 0.175936 0.162779 0.149622 0.133589 0.117557 0.0992657 0.0809746 0.0611275 0.0412805 0.0206402 -2.75612e-17 0 -0.0217872 -0.0435745 -0.0645244 -0.0854744 -0.104782 -0.12409 -0.141013 -0.157936 -0.171825 -0.185713 -0.196033 -0.206353 -0.212708 -0.219064 -0.221209 -0.223355 -0.221209 -0.219064 -0.212708 -0.206353 -0.196033 -0.185713 -0.171825 -0.157936 -0.141013 -0.12409 -0.104782 -0.0854744 -0.0645244 -0.0435745 -0.0217872 -4.14092e-16 0.0217872 0.0435745 0.0645244 0.0854744 0.104782 0.12409 0.141013 0.157936 0.171825 0.185713 0.196033 0.206353 0.212708 0.219064 0.221209 0.223355 0.221209 0.219064 0.212708 0.206353 0.196033 0.185713 0.171825 0.157936 0.141013 0.12409 0.104782 0.0854744 0.0645244 0.0435745 0.0217872 -2.90928e-17 0 -0.0229342 -0.0458684 -0.0679213 -0.0899741 -0.110298 -0.130622 -0.148436 -0.166251 -0.18087 -0.19549 -0.206353 -0.217217 -0.223906 -0.230596 -0.232855 -0.235114 -0.232855 -0.230596 -0.223906 -0.217217 -0.206353 -0.19549 -0.18087 -0.166251 -0.148436 -0.130622 -0.110298 -0.0899741 -0.0679213 -0.0458684 -0.0229342 -4.60741e-16 0.0229342 0.0458684 0.0679213 0.0899741 0.110298 0.130622 0.148436 0.166251 0.18087 0.19549 0.206353 0.217217 0.223906 0.230596 0.232855 0.235114 0.232855 0.230596 0.223906 0.217217 0.206353 0.19549 0.18087 0.166251 0.148436 0.130622 0.110298 0.0899741 0.0679213 0.0458684 0.0229342 -3.06244e-17 0 -0.0236405 -0.047281 -0.0700131 -0.0927451 -0.113695 -0.134645 -0.153008 -0.171371 -0.186441 -0.20151 -0.212708 -0.223906 -0.230802 -0.237698 -0.240026 -0.242355 -0.240026 -0.237698 -0.230802 -0.223906 -0.212708 -0.20151 -0.186441 -0.171371 -0.153008 -0.134645 -0.113695 -0.0927451 -0.0700131 -0.047281 -0.0236405 -4.86311e-16 0.0236405 0.047281 0.0700131 0.0927451 0.113695 0.134645 0.153008 0.171371 0.186441 0.20151 0.212708 0.223906 0.230802 0.237698 0.240026 0.242355 0.240026 0.237698 0.230802 0.223906 0.212708 0.20151 0.186441 0.171371 0.153008 0.134645 0.113695 0.0927451 0.0700131 0.047281 0.0236405 -3.15675e-17 0 -0.0243468 -0.0486937 -0.0721048 -0.095516 -0.117092 -0.138668 -0.157579 -0.176491 -0.192011 -0.207531 -0.219064 -0.230596 -0.237698 -0.2448 -0.247197 -0.249595 -0.247197 -0.2448 -0.237698 -0.230596 -0.219064 -0.207531 -0.192011 -0.176491 -0.157579 -0.138668 -0.117092 -0.095516 -0.0721048 -0.0486937 -0.0243468 -5.1188e-16 0.0243468 0.0486937 0.0721048 0.095516 0.117092 0.138668 0.157579 0.176491 0.192011 0.207531 0.219064 0.230596 0.237698 0.2448 0.247197 0.249595 0.247197 0.2448 0.237698 0.230596 0.219064 0.207531 0.192011 0.176491 0.157579 0.138668 0.117092 0.095516 0.0721048 0.0486937 0.0243468 -3.25107e-17 0 -0.0245853 -0.0491706 -0.0728112 -0.0964517 -0.118239 -0.140026 -0.159123 -0.178219 -0.193892 -0.209564 -0.221209 -0.232855 -0.240026 -0.247197 -0.249619 -0.25204 -0.249619 -0.247197 -0.240026 -0.232855 -0.221209 -0.209564 -0.193892 -0.178219 -0.159123 -0.140026 -0.118239 -0.0964517 -0.0728112 -0.0491706 -0.0245853 -4.97489e-16 0.0245853 0.0491706 0.0728112 0.0964517 0.118239 0.140026 0.159123 0.178219 0.193892 0.209564 0.221209 0.232855 0.240026 0.247197 0.249619 0.25204 0.249619 0.247197 0.240026 0.232855 0.221209 0.209564 0.193892 0.178219 0.159123 0.140026 0.118239 0.0964517 0.0728112 0.0491706 0.0245853 -3.28291e-17 0 -0.0248238 -0.0496476 -0.0735175 -0.0973873 -0.119386 -0.141384 -0.160666 -0.179948 -0.195773 -0.211597 -0.223355 -0.235114 -0.242355 -0.249595 -0.25204 -0.254485 -0.25204 -0.249595 -0.242355 -0.235114 -0.223355 -0.211597 -0.195773 -0.179948 -0.160666 -0.141384 -0.119386 -0.0973873 -0.0735175 -0.0496476 -0.0248238 -4.83097e-16 0.0248238 0.0496476 0.0735175 0.0973873 0.119386 0.141384 0.160666 0.179948 0.195773 0.211597 0.223355 0.235114 0.242355 0.249595 0.25204 0.254485 0.25204 0.249595 0.242355 0.235114 0.223355 0.211597 0.195773 0.179948 0.160666 0.141384 0.119386 0.0973873 0.0735175 0.0496476 0.0248238 -3.31476e-17 0 -0.0245853 -0.0491706 -0.0728112 -0.0964517 -0.118239 -0.140026 -0.159123 -0.178219 -0.193892 -0.209564 -0.221209 -0.232855 -0.240026 -0.247197 -0.249619 -0.25204 -0.249619 -0.247197 -0.240026 -0.232855 -0.221209 -0.209564 -0.193892 -0.178219 -0.159123 -0.140026 -0.118239 -0.0964517 -0.0728112 -0.0491706 -0.0245853 -4.24333e-16 0.0245853 0.0491706 0.0728112 0.0964517 0.118239 0.140026 0.159123 0.178219 0.193892 0.209564 0.221209 0.232855 0.240026 0.247197 0.249619 0.25204 0.249619 0.247197 0.240026 0.232855 0.221209 0.209564 0.193892 0.178219 0.159123 0.140026 0.118239 0.0964517 0.0728112 0.0491706 0.0245853 -3.28291e-17 0 -0.0243468 -0.0486937 -0.0721048 -0.095516 -0.117092 -0.138668 -0.157579 -0.176491 -0.192011 -0.207531 -0.219064 -0.230596 -0.237698 -0.2448 -0.247197 -0.249595 -0.247197 -0.2448 -0.237698 -0.230596 -0.219064 -0.207531 -0.192011 -0.176491 -0.157579 -0.138668 -0.117092 -0.095516 -0.0721048 -0.0486937 -0.0243468 -3.65569e-16 0.0243468 0.0486937 0.0721048 0.095516 0.117092 0.138668 0.157579 0.176491 0.192011 0.207531 0.219064 0.230596 0.237698 0.2448 0.247197 0.249595 0.247197 0.2448 0.237698 0.230596 0.219064 0.207531 0.192011 0.176491 0.157579 0.138668 0.117092 0.095516 0.0721048 0.0486937 0.0243468 -3.25107e-17 0 -0.0236405 -0.047281 -0.0700131 -0.0927451 -0.113695 -0.134645 -0.153008 -0.171371 -0.186441 -0.20151 -0.212708 -0.223906 -0.230802 -0.237698 -0.240026 -0.242355 -0.240026 -0.237698 -0.230802 -0.223906 -0.212708 -0.20151 -0.186441 -0.171371 -0.153008 -0.134645 -0.113695 -0.0927451 -0.0700131 -0.047281 -0.0236405 -3.02088e-16 0.0236405 0.047281 0.0700131 0.0927451 0.113695 0.134645 0.153008 0.171371 0.186441 0.20151 0.212708 0.223906 0.230802 0.237698 0.240026 0.242355 0.240026 0.237698 0.230802 0.223906 0.212708 0.20151 0.186441 0.171371 0.153008 0.134645 0.113695 0.0927451 0.0700131 0.047281 0.0236405 -3.15675e-17 0 -0.0229342 -0.0458684 -0.0679213 -0.0899741 -0.110298 -0.130622 -0.148436 -0.166251 -0.18087 -0.19549 -0.206353 -0.217217 -0.223906 -0.230596 -0.232855 -0.235114 -0.232855 -0.230596 -0.223906 -0.217217 -0.206353 -0.19549 -0.18087 -0.166251 -0.148436 -0.130622 -0.110298 -0.0899741 -0.0679213 -0.0458684 -0.0229342 -2.38608e-16 0.0229342 0.0458684 0.0679213 0.0899741 0.110298 0.130622 0.148436 0.166251 0.18087 0.19549 0.206353 0.217217 0.223906 0.230596 0.232855 0.235114 0.232855 0.230596 0.223906 0.217217 0.206353 0.19549 0.18087 0.166251 0.148436 0.130622 0.110298 0.0899741 0.0679213 0.0458684 0.0229342 -3.06244e-17 0 -0.0217872 -0.0435745 -0.0645244 -0.0854744 -0.104782 -0.12409 -0.141013 -0.157936 -0.171825 -0.185713 -0.196033 -0.206353 -0.212708 -0.219064 -0.221209 -0.223355 -0.221209 -0.219064 -0.212708 -0.206353 -0.196033 -0.185713 -0.171825 -0.157936 -0.141013 -0.12409 -0.104782 -0.0854744 -0.0645244 -0.0435745 -0.0217872 -1.87039e-16 0.0217872 0.0435745 0.0645244 0.0854744 0.104782 0.12409 0.141013 0.157936 0.171825 0.185713 0.196033 0.206353 0.212708 0.219064 0.221209 0.223355 0.221209 0.219064 0.212708 0.206353 0.196033 0.185713 0.171825 0.157936 0.141013 0.12409 0.104782 0.0854744 0.0645244 0.0435745 0.0217872 -2.90928e-17 0 -0.0206402 -0.0412805 -0.0611275 -0.0809746 -0.0992657 -0.117557 -0.133589 -0.149622 -0.162779 -0.175936 -0.185713 -0.19549 -0.20151 -0.207531 -0.209564 -0.211597 -0.209564 -0.207531 -0.20151 -0.19549 -0.185713 -0.175936 -0.162779 -0.149622 -0.133589 -0.117557 -0.0992657 -0.0809746 -0.0611275 -0.0412805 -0.0206402 -1.35471e-16 0.0206402 0.0412805 0.0611275 0.0809746 0.0992657 0.117557 0.133589 0.149622 0.162779 0.175936 0.185713 0.19549 0.20151 0.207531 0.209564 0.211597 0.209564 0.207531 0.20151 0.19549 0.185713 0.175936 0.162779 0.149622 0.133589 0.117557 0.0992657 0.0809746 0.0611275 0.0412805 0.0206402 -2.75612e-17 0 -0.0190967 -0.0381933 -0.0565561 -0.0749189 -0.0918421 -0.108765 -0.123599 -0.138432 -0.150605 -0.162779 -0.171825 -0.18087 -0.186441 -0.192011 -0.193892 -0.195773 -0.193892 -0.192011 -0.186441 -0.18087 -0.171825 -0.162779 -0.150605 -0.138432 -0.123599 -0.108765 -0.0918421 -0.0749189 -0.0565561 -0.0381933 -0.0190967 -1.13637e-16 0.0190967 0.0381933 0.0565561 0.0749189 0.0918421 0.108765 0.123599 0.138432 0.150605 0.162779 0.171825 0.18087 0.186441 0.192011 0.193892 0.195773 0.193892 0.192011 0.186441 0.18087 0.171825 0.162779 0.150605 0.138432 0.123599 0.108765 0.0918421 0.0749189 0.0565561 0.0381933 0.0190967 -2.55e-17 0 -0.0175531 -0.0351062 -0.0519847 -0.0688632 -0.0844186 -0.0999739 -0.113608 -0.127243 -0.138432 -0.149622 -0.157936 -0.166251 -0.171371 -0.176491 -0.178219 -0.179948 -0.178219 -0.176491 -0.171371 -0.166251 -0.157936 -0.149622 -0.138432 -0.127243 -0.113608 -0.0999739 -0.0844186 -0.0688632 -0.0519847 -0.0351062 -0.0175531 -9.18024e-17 0.0175531 0.0351062 0.0519847 0.0688632 0.0844186 0.0999739 0.113608 0.127243 0.138432 0.149622 0.157936 0.166251 0.171371 0.176491 0.178219 0.179948 0.178219 0.176491 0.171371 0.166251 0.157936 0.149622 0.138432 0.127243 0.113608 0.0999739 0.0844186 0.0688632 0.0519847 0.0351062 0.0175531 -2.34389e-17 0 -0.0156722 -0.0313445 -0.0464144 -0.0614844 -0.0753729 -0.0892615 -0.101435 -0.113608 -0.123599 -0.133589 -0.141013 -0.148436 -0.153008 -0.157579 -0.159123 -0.160666 -0.159123 -0.157579 -0.153008 -0.148436 -0.141013 -0.133589 -0.123599 -0.113608 -0.101435 -0.0892615 -0.0753729 -0.0614844 -0.0464144 -0.0313445 -0.0156722 -9.44613e-17 0.0156722 0.0313445 0.0464144 0.0614844 0.0753729 0.0892615 0.101435 0.113608 0.123599 0.133589 0.141013 0.148436 0.153008 0.157579 0.159123 0.160666 0.159123 0.157579 0.153008 0.148436 0.141013 0.133589 0.123599 0.113608 0.101435 0.0892615 0.0753729 0.0614844 0.0464144 0.0313445 0.0156722 -2.09273e-17 0 -0.0137914 -0.0275827 -0.0408441 -0.0541055 -0.0663272 -0.078549 -0.0892615 -0.0999739 -0.108765 -0.117557 -0.12409 -0.130622 -0.134645 -0.138668 -0.140026 -0.141384 -0.140026 -0.138668 -0.134645 -0.130622 -0.12409 -0.117557 -0.108765 -0.0999739 -0.0892615 -0.078549 -0.0663272 -0.0541055 -0.0408441 -0.0275827 -0.0137914 -9.71202e-17 0.0137914 0.0275827 0.0408441 0.0541055 0.0663272 0.078549 0.0892615 0.0999739 0.108765 0.117557 0.12409 0.130622 0.134645 0.138668 0.140026 0.141384 0.140026 0.138668 0.134645 0.130622 0.12409 0.117557 0.108765 0.0999739 0.0892615 0.078549 0.0663272 0.0541055 0.0408441 0.0275827 0.0137914 -1.84158e-17 0 -0.0116455 -0.023291 -0.034489 -0.045687 -0.0560071 -0.0663272 -0.0753729 -0.0844186 -0.0918421 -0.0992657 -0.104782 -0.110298 -0.113695 -0.117092 -0.118239 -0.119386 -0.118239 -0.117092 -0.113695 -0.110298 -0.104782 -0.0992657 -0.0918421 -0.0844186 -0.0753729 -0.0663272 -0.0560071 -0.045687 -0.034489 -0.023291 -0.0116455 -8.06786e-17 0.0116455 0.023291 0.034489 0.045687 0.0560071 0.0663272 0.0753729 0.0844186 0.0918421 0.0992657 0.104782 0.110298 0.113695 0.117092 0.118239 0.119386 0.118239 0.117092 0.113695 0.110298 0.104782 0.0992657 0.0918421 0.0844186 0.0753729 0.0663272 0.0560071 0.045687 0.034489 0.023291 0.0116455 -1.55504e-17 0 -0.00949966 -0.0189993 -0.0281339 -0.0372685 -0.045687 -0.0541055 -0.0614844 -0.0688632 -0.0749189 -0.0809746 -0.0854744 -0.0899741 -0.0927451 -0.095516 -0.0964517 -0.0973873 -0.0964517 -0.095516 -0.0927451 -0.0899741 -0.0854744 -0.0809746 -0.0749189 -0.0688632 -0.0614844 -0.0541055 -0.045687 -0.0372685 -0.0281339 -0.0189993 -0.00949966 -6.42371e-17 0.00949966 0.0189993 0.0281339 0.0372685 0.045687 0.0541055 0.0614844 0.0688632 0.0749189 0.0809746 0.0854744 0.0899741 0.0927451 0.095516 0.0964517 0.0973873 0.0964517 0.095516 0.0927451 0.0899741 0.0854744 0.0809746 0.0749189 0.0688632 0.0614844 0.0541055 0.045687 0.0372685 0.0281339 0.0189993 0.00949966 -1.2685e-17 0 -0.00717127 -0.0143425 -0.0212382 -0.0281339 -0.034489 -0.0408441 -0.0464144 -0.0519847 -0.0565561 -0.0611275 -0.0645244 -0.0679213 -0.0700131 -0.0721048 -0.0728112 -0.0735175 -0.0728112 -0.0721048 -0.0700131 -0.0679213 -0.0645244 -0.0611275 -0.0565561 -0.0519847 -0.0464144 -0.0408441 -0.034489 -0.0281339 -0.0212382 -0.0143425 -0.00717127 -4.52119e-17 0.00717127 0.0143425 0.0212382 0.0281339 0.034489 0.0408441 0.0464144 0.0519847 0.0565561 0.0611275 0.0645244 0.0679213 0.0700131 0.0721048 0.0728112 0.0735175 0.0728112 0.0721048 0.0700131 0.0679213 0.0645244 0.0611275 0.0565561 0.0519847 0.0464144 0.0408441 0.034489 0.0281339 0.0212382 0.0143425 0.00717127 -9.5759e-18 0 -0.00484288 -0.00968577 -0.0143425 -0.0189993 -0.023291 -0.0275827 -0.0313445 -0.0351062 -0.0381933 -0.0412805 -0.0435745 -0.0458684 -0.047281 -0.0486937 -0.0491706 -0.0496476 -0.0491706 -0.0486937 -0.047281 -0.0458684 -0.0435745 -0.0412805 -0.0381933 -0.0351062 -0.0313445 -0.0275827 -0.023291 -0.0189993 -0.0143425 -0.00968577 -0.00484288 -2.61867e-17 0.00484288 0.00968577 0.0143425 0.0189993 0.023291 0.0275827 0.0313445 0.0351062 0.0381933 0.0412805 0.0435745 0.0458684 0.047281 0.0486937 0.0491706 0.0496476 0.0491706 0.0486937 0.047281 0.0458684 0.0435745 0.0412805 0.0381933 0.0351062 0.0313445 0.0275827 0.023291 0.0189993 0.0143425 0.00968577 0.00484288 -6.46677e-18 0 -0.00242144 -0.00484288 -0.00717127 -0.00949966 -0.0116455 -0.0137914 -0.0156722 -0.0175531 -0.0190967 -0.0206402 -0.0217872 -0.0229342 -0.0236405 -0.0243468 -0.0245853 -0.0248238 -0.0245853 -0.0243468 -0.0236405 -0.0229342 -0.0217872 -0.0206402 -0.0190967 -0.0175531 -0.0156722 -0.0137914 -0.0116455 -0.00949966 -0.00717127 -0.00484288 -0.00242144 -1.02114e-17 0.00242144 0.00484288 0.00717127 0.00949966 0.0116455 0.0137914 0.0156722 0.0175531 0.0190967 0.0206402 0.0217872 0.0229342 0.0236405 0.0243468 0.0245853 0.0248238 0.0245853 0.0243468 0.0236405 0.0229342 0.0217872 0.0206402 0.0190967 0.0175531 0.0156722 0.0137914 0.0116455 0.00949966 0.00717127 0.00484288 0.00242144 -3.23339e-18 0 -2.9731e-17 -5.94619e-17 -7.75412e-17 -9.56204e-17 -8.71597e-17 -7.86991e-17 -5.17065e-17 -2.47139e-17 -9.83663e-18 5.04065e-18 3.22278e-18 1.40492e-18 -7.00004e-17 -1.41406e-16 -9.58469e-17 -5.02881e-17 -8.14973e-17 -1.12707e-16 -7.01417e-17 -2.75768e-17 -9.5316e-18 8.51362e-18 -2.29181e-17 -5.43499e-17 -7.69018e-18 3.89695e-17 2.95942e-17 2.02189e-17 1.86108e-17 1.70026e-17 1.13833e-17 5.76394e-18 7.05077e-18 8.3376e-18 1.59074e-18 -5.15612e-18 4.5456e-18 1.42473e-17 7.53486e-18 8.2239e-19 -4.06678e-17 -8.21581e-17 -1.00462e-16 -1.18766e-16 -1.44901e-16 -1.71036e-16 -1.80673e-16 -1.9031e-16 -1.73477e-16 -1.56644e-16 -1.27209e-16 -9.77736e-17 -1.05912e-16 -1.14051e-16 -1.47061e-16 -1.80072e-16 -1.7705e-16 -1.74029e-16 -1.7918e-16 -1.84331e-16 -1.44517e-16 -1.04703e-16 -5.23514e-17 -4.05941e-33 0 0.00242144 0.00484288 0.00717127 0.00949966 0.0116455 0.0137914 0.0156722 0.0175531 0.0190967 0.0206402 0.0217872 0.0229342 0.0236405 0.0243468 0.0245853 0.0248238 0.0245853 0.0243468 0.0236405 0.0229342 0.0217872 0.0206402 0.0190967 0.0175531 0.0156722 0.0137914 0.0116455 0.00949966 0.00717127 0.00484288 0.00242144 1.1369e-17 -0.00242144 -0.00484288 -0.00717127 -0.00949966 -0.0116455 -0.0137914 -0.0156722 -0.0175531 -0.0190967 -0.0206402 -0.0217872 -0.0229342 -0.0236405 -0.0243468 -0.0245853 -0.0248238 -0.0245853 -0.0243468 -0.0236405 -0.0229342 -0.0217872 -0.0206402 -0.0190967 -0.0175531 -0.0156722 -0.0137914 -0.0116455 -0.00949966 -0.00717127 -0.00484288 -0.00242144 3.23339e-18 0 0.00484288 0.00968577 0.0143425 0.0189993 0.023291 0.0275827 0.0313445 0.0351062 0.0381933 0.0412805 0.0435745 0.0458684 0.047281 0.0486937 0.0491706 0.0496476 0.0491706 0.0486937 0.047281 0.0458684 0.0435745 0.0412805 0.0381933 0.0351062 0.0313445 0.0275827 0.023291 0.0189993 0.0143425 0.00968577 0.00484288 1.69741e-17 -0.00484288 -0.00968577 -0.0143425 -0.0189993 -0.023291 -0.0275827 -0.0313445 -0.0351062 -0.0381933 -0.0412805 -0.0435745 -0.0458684 -0.047281 -0.0486937 -0.0491706 -0.0496476 -0.0491706 -0.0486937 -0.047281 -0.0458684 -0.0435745 -0.0412805 -0.0381933 -0.0351062 -0.0313445 -0.0275827 -0.023291 -0.0189993 -0.0143425 -0.00968577 -0.00484288 6.46677e-18 0 0.00717127 0.0143425 0.0212382 0.0281339 0.034489 0.0408441 0.0464144 0.0519847 0.0565561 0.0611275 0.0645244 0.0679213 0.0700131 0.0721048 0.0728112 0.0735175 0.0728112 0.0721048 0.0700131 0.0679213 0.0645244 0.0611275 0.0565561 0.0519847 0.0464144 0.0408441 0.034489 0.0281339 0.0212382 0.0143425 0.00717127 1.29923e-17 -0.00717127 -0.0143425 -0.0212382 -0.0281339 -0.034489 -0.0408441 -0.0464144 -0.0519847 -0.0565561 -0.0611275 -0.0645244 -0.0679213 -0.0700131 -0.0721048 -0.0728112 -0.0735175 -0.0728112 -0.0721048 -0.0700131 -0.0679213 -0.0645244 -0.0611275 -0.0565561 -0.0519847 -0.0464144 -0.0408441 -0.034489 -0.0281339 -0.0212382 -0.0143425 -0.00717127 9.5759e-18 0 0.00949966 0.0189993 0.0281339 0.0372685 0.045687 0.0541055 0.0614844 0.0688632 0.0749189 0.0809746 0.0854744 0.0899741 0.0927451 0.095516 0.0964517 0.0973873 0.0964517 0.095516 0.0927451 0.0899741 0.0854744 0.0809746 0.0749189 0.0688632 0.0614844 0.0541055 0.045687 0.0372685 0.0281339 0.0189993 0.00949966 9.01058e-18 -0.00949966 -0.0189993 -0.0281339 -0.0372685 -0.045687 -0.0541055 -0.0614844 -0.0688632 -0.0749189 -0.0809746 -0.0854744 -0.0899741 -0.0927451 -0.095516 -0.0964517 -0.0973873 -0.0964517 -0.095516 -0.0927451 -0.0899741 -0.0854744 -0.0809746 -0.0749189 -0.0688632 -0.0614844 -0.0541055 -0.045687 -0.0372685 -0.0281339 -0.0189993 -0.00949966 1.2685e-17 0 0.0116455 0.023291 0.034489 0.045687 0.0560071 0.0663272 0.0753729 0.0844186 0.0918421 0.0992657 0.104782 0.110298 0.113695 0.117092 0.118239 0.119386 0.118239 0.117092 0.113695 0.110298 0.104782 0.0992657 0.0918421 0.0844186 0.0753729 0.0663272 0.0560071 0.045687 0.034489 0.023291 0.0116455 -2.17968e-18 -0.0116455 -0.023291 -0.034489 -0.045687 -0.0560071 -0.0663272 -0.0753729 -0.0844186 -0.0918421 -0.0992657 -0.104782 -0.110298 -0.113695 -0.117092 -0.118239 -0.119386 -0.118239 -0.117092 -0.113695 -0.110298 -0.104782 -0.0992657 -0.0918421 -0.0844186 -0.0753729 -0.0663272 -0.0560071 -0.045687 -0.034489 -0.023291 -0.0116455 1.55504e-17 0 0.0137914 0.0275827 0.0408441 0.0541055 0.0663272 0.078549 0.0892615 0.0999739 0.108765 0.117557 0.12409 0.130622 0.134645 0.138668 0.140026 0.141384 0.140026 0.138668 0.134645 0.130622 0.12409 0.117557 0.108765 0.0999739 0.0892615 0.078549 0.0663272 0.0541055 0.0408441 0.0275827 0.0137914 -1.33699e-17 -0.0137914 -0.0275827 -0.0408441 -0.0541055 -0.0663272 -0.078549 -0.0892615 -0.0999739 -0.108765 -0.117557 -0.12409 -0.130622 -0.134645 -0.138668 -0.140026 -0.141384 -0.140026 -0.138668 -0.134645 -0.130622 -0.12409 -0.117557 -0.108765 -0.0999739 -0.0892615 -0.078549 -0.0663272 -0.0541055 -0.0408441 -0.0275827 -0.0137914 1.84158e-17 0 0.0156722 0.0313445 0.0464144 0.0614844 0.0753729 0.0892615 0.101435 0.113608 0.123599 0.133589 0.141013 0.148436 0.153008 0.157579 0.159123 0.160666 0.159123 0.157579 0.153008 0.148436 0.141013 0.133589 0.123599 0.113608 0.101435 0.0892615 0.0753729 0.0614844 0.0464144 0.0313445 0.0156722 -4.74318e-17 -0.0156722 -0.0313445 -0.0464144 -0.0614844 -0.0753729 -0.0892615 -0.101435 -0.113608 -0.123599 -0.133589 -0.141013 -0.148436 -0.153008 -0.157579 -0.159123 -0.160666 -0.159123 -0.157579 -0.153008 -0.148436 -0.141013 -0.133589 -0.123599 -0.113608 -0.101435 -0.0892615 -0.0753729 -0.0614844 -0.0464144 -0.0313445 -0.0156722 2.09273e-17 0 0.0175531 0.0351062 0.0519847 0.0688632 0.0844186 0.0999739 0.113608 0.127243 0.138432 0.149622 0.157936 0.166251 0.171371 0.176491 0.178219 0.179948 0.178219 0.176491 0.171371 0.166251 0.157936 0.149622 0.138432 0.127243 0.113608 0.0999739 0.0844186 0.0688632 0.0519847 0.0351062 0.0175531 -8.14937e-17 -0.0175531 -0.0351062 -0.0519847 -0.0688632 -0.0844186 -0.0999739 -0.113608 -0.127243 -0.138432 -0.149622 -0.157936 -0.166251 -0.171371 -0.176491 -0.178219 -0.179948 -0.178219 -0.176491 -0.171371 -0.166251 -0.157936 -0.149622 -0.138432 -0.127243 -0.113608 -0.0999739 -0.0844186 -0.0688632 -0.0519847 -0.0351062 -0.0175531 2.34389e-17 0 0.0190967 0.0381933 0.0565561 0.0749189 0.0918421 0.108765 0.123599 0.138432 0.150605 0.162779 0.171825 0.18087 0.186441 0.192011 0.193892 0.195773 0.193892 0.192011 0.186441 0.18087 0.171825 0.162779 0.150605 0.138432 0.123599 0.108765 0.0918421 0.0749189 0.0565561 0.0381933 0.0190967 -1.24986e-16 -0.0190967 -0.0381933 -0.0565561 -0.0749189 -0.0918421 -0.108765 -0.123599 -0.138432 -0.150605 -0.162779 -0.171825 -0.18087 -0.186441 -0.192011 -0.193892 -0.195773 -0.193892 -0.192011 -0.186441 -0.18087 -0.171825 -0.162779 -0.150605 -0.138432 -0.123599 -0.108765 -0.0918421 -0.0749189 -0.0565561 -0.0381933 -0.0190967 2.55e-17 0 0.0206402 0.0412805 0.0611275 0.0809746 0.0992657 0.117557 0.133589 0.149622 0.162779 0.175936 0.185713 0.19549 0.20151 0.207531 0.209564 0.211597 0.209564 0.207531 0.20151 0.19549 0.185713 0.175936 0.162779 0.149622 0.133589 0.117557 0.0992657 0.0809746 0.0611275 0.0412805 0.0206402 -1.68479e-16 -0.0206402 -0.0412805 -0.0611275 -0.0809746 -0.0992657 -0.117557 -0.133589 -0.149622 -0.162779 -0.175936 -0.185713 -0.19549 -0.20151 -0.207531 -0.209564 -0.211597 -0.209564 -0.207531 -0.20151 -0.19549 -0.185713 -0.175936 -0.162779 -0.149622 -0.133589 -0.117557 -0.0992657 -0.0809746 -0.0611275 -0.0412805 -0.0206402 2.75612e-17 0 0.0217872 0.0435745 0.0645244 0.0854744 0.104782 0.12409 0.141013 0.157936 0.171825 0.185713 0.196033 0.206353 0.212708 0.219064 0.221209 0.223355 0.221209 0.219064 0.212708 0.206353 0.196033 0.185713 0.171825 0.157936 0.141013 0.12409 0.104782 0.0854744 0.0645244 0.0435745 0.0217872 -2.34405e-16 -0.0217872 -0.0435745 -0.0645244 -0.0854744 -0.104782 -0.12409 -0.141013 -0.157936 -0.171825 -0.185713 -0.196033 -0.206353 -0.212708 -0.219064 -0.221209 -0.223355 -0.221209 -0.219064 -0.212708 -0.206353 -0.196033 -0.185713 -0.171825 -0.157936 -0.141013 -0.12409 -0.104782 -0.0854744 -0.0645244 -0.0435745 -0.0217872 2.90928e-17 0 0.0229342 0.0458684 0.0679213 0.0899741 0.110298 0.130622 0.148436 0.166251 0.18087 0.19549 0.206353 0.217217 0.223906 0.230596 0.232855 0.235114 0.232855 0.230596 0.223906 0.217217 0.206353 0.19549 0.18087 0.166251 0.148436 0.130622 0.110298 0.0899741 0.0679213 0.0458684 0.0229342 -3.00332e-16 -0.0229342 -0.0458684 -0.0679213 -0.0899741 -0.110298 -0.130622 -0.148436 -0.166251 -0.18087 -0.19549 -0.206353 -0.217217 -0.223906 -0.230596 -0.232855 -0.235114 -0.232855 -0.230596 -0.223906 -0.217217 -0.206353 -0.19549 -0.18087 -0.166251 -0.148436 -0.130622 -0.110298 -0.0899741 -0.0679213 -0.0458684 -0.0229342 3.06244e-17 0 0.0236405 0.047281 0.0700131 0.0927451 0.113695 0.134645 0.153008 0.171371 0.186441 0.20151 0.212708 0.223906 0.230802 0.237698 0.240026 0.242355 0.240026 0.237698 0.230802 0.223906 0.212708 0.20151 0.186441 0.171371 0.153008 0.134645 0.113695 0.0927451 0.0700131 0.047281 0.0236405 -3.8592e-16 -0.0236405 -0.047281 -0.0700131 -0.0927451 -0.113695 -0.134645 -0.153008 -0.171371 -0.186441 -0.20151 -0.212708 -0.223906 -0.230802 -0.237698 -0.240026 -0.242355 -0.240026 -0.237698 -0.230802 -0.223906 -0.212708 -0.20151 -0.186441 -0.171371 -0.153008 -0.134645 -0.113695 -0.0927451 -0.0700131 -0.047281 -0.0236405 3.15675e-17 0 0.0243468 0.0486937 0.0721048 0.095516 0.117092 0.138668 0.157579 0.176491 0.192011 0.207531 0.219064 0.230596 0.237698 0.2448 0.247197 0.249595 0.247197 0.2448 0.237698 0.230596 0.219064 0.207531 0.192011 0.176491 0.157579 0.138668 0.117092 0.095516 0.0721048 0.0486937 0.0243468 -4.71509e-16 -0.0243468 -0.0486937 -0.0721048 -0.095516 -0.117092 -0.138668 -0.157579 -0.176491 -0.192011 -0.207531 -0.219064 -0.230596 