<?xml version="1.0"?> 
<VTKFile type="StructuredGrid" version="0.1"> 
<StructuredGrid WholeExtent="0 64 0 64 0 0"> 
<Piece Extent="0 64 0 64 0 0"> 
<PointData>
<DataArray type="Float32" Name="u" format="ascii" NumberOfComponents="1"> 
0 0 0 0 0 0 0 0 0 0 0 0 0 0 0 0 0 0 0 0 0 0 0 0 0 0 0 0 0 0 0 0 0 0 -0 -0 -0 -0 -0 -0 -0 -0 -0 -0 -0 -0 -0 -0 -0 -0 -0 -0 -0 -0 -0 -0 -0 -0 -0 -0 -0 -0 -0 -0 -0 0 0.00023508 0.00047016 0.000696206 0.000922252 0.00113058 0.0013389 0.0015215 0.0017041 0.00185395 0.00200381 0.00211516 0.00222651 0.00229508 0.00236365 0.00238681 0.00240996 0.00238681 0.00236365 0.00229508 0.00222651 0.00211516 0.00200381 0.00185395 0.0017041 0.0015215 0.0013389 0.00113058 0.000922252 0.000696206 0.00047016 0.00023508 -1.38359e-17 -0.00023508 -0.00047016 -0.000696206 -0.000922252 -0.00113058 -0.0013389 -0.0015215 -0.0017041 -0.00185395 -0.00200381 -0.00211516 -0.00222651 -0.00229508 -0.00236365 -0.00238681 -0.00240996 -0.00238681 -0.00236365 -0.00229508 -0.00222651 -0.00211516 -0.00200381 -0.00185395 -0.0017041 -0.0015215 -0.0013389 -0.00113058 -0.000922252 -0.000696206 -0.00047016 -0.00023508 -3.23339e-18 0 0.00047016 0.00094032 0.00139241 0.0018445 0.00226116 0.00267781 0.003043 0.0034082 0.00370791 0.00400762 0.00423032 0.00445303 0.00459017 0.00472731 0.00477362 0.00481992 0.00477362 0.00472731 0.00459017 0.00445303 0.00423032 0.00400762 0.00370791 0.0034082 0.003043 0.00267781 0.00226116 0.0018445 0.00139241 0.00094032 0.00047016 -2.76717e-17 -0.00047016 -0.00094032 -0.00139241 -0.0018445 -0.00226116 -0.00267781 -0.003043 -0.0034082 -0.00370791 -0.00400762 -0.00423032 -0.00445303 -0.00459017 -0.00472731 -0.00477362 -0.00481992 -0.00477362 -0.00472731 -0.00459017 -0.00445303 -0.00423032 -0.00400762 -0.00370791 -0.0034082 -0.003043 -0.00267781 -0.00226116 -0.0018445 -0.00139241 -0.00094032 -0.00047016 -6.46677e-18 0 0.000696206 0.00139241 0.00206186 0.00273132 0.00334829 0.00396526 0.00450603 0.00504681 0.00549062 0.00593442 0.0062642 0.00659398 0.00679705 0.00700013 0.0070687 0.00713727 0.0070687 0.00700013 0.00679705 0.00659398 0.0062642 0.00593442 0.00549062 0.00504681 0.00450603 0.00396526 0.00334829 0.00273132 0.00206186 0.00139241 0.000696206 -3.37799e-17 -0.000696206 -0.00139241 -0.00206186 -0.00273132 -0.00334829 -0.00396526 -0.00450603 -0.00504681 -0.00549062 -0.00593442 -0.0062642 -0.00659398 -0.00679705 -0.00700013 -0.0070687 -0.00713727 -0.0070687 -0.00700013 -0.00679705 -0.00659398 -0.0062642 -0.00593442 -0.00549062 -0.00504681 -0.00450603 -0.00396526 -0.00334829 -0.00273132 -0.00206186 -0.00139241 -0.000696206 -9.5759e-18 0 0.000922252 0.0018445 0.00273132 0.00361813 0.00443542 0.0052527 0.00596906 0.00668542 0.00727333 0.00786123 0.00829808 0.00873493 0.00900394 0.00927295 0.00936378 0.00945462 0.00936378 0.00927295 0.00900394 0.00873493 0.00829808 0.00786123 0.00727333 0.00668542 0.00596906 0.0052527 0.00443542 0.00361813 0.00273132 0.0018445 0.000922252 -3.98881e-17 -0.000922252 -0.0018445 -0.00273132 -0.00361813 -0.00443542 -0.0052527 -0.00596906 -0.00668542 -0.00727333 -0.00786123 -0.00829808 -0.00873493 -0.00900394 -0.00927295 -0.00936378 -0.00945462 -0.00936378 -0.00927295 -0.00900394 -0.00873493 -0.00829808 -0.00786123 -0.00727333 -0.00668542 -0.00596906 -0.0052527 -0.00443542 -0.00361813 -0.00273132 -0.0018445 -0.000922252 -1.2685e-17 0 0.00113058 0.00226116 0.00334829 0.00443542 0.00543732 0.00643922 0.0073174 0.00819558 0.00891628 0.00963698 0.0101725 0.010708 0.0110378 0.0113676 0.0114789 0.0115903 0.0114789 0.0113676 0.0110378 0.010708 0.0101725 0.00963698 0.00891628 0.00819558 0.0073174 0.00643922 0.00543732 0.00443542 0.00334829 0.00226116 0.00113058 -5.01142e-17 -0.00113058 -0.00226116 -0.00334829 -0.00443542 -0.00543732 -0.00643922 -0.0073174 -0.00819558 -0.00891628 -0.00963698 -0.0101725 -0.010708 -0.0110378 -0.0113676 -0.0114789 -0.0115903 -0.0114789 -0.0113676 -0.0110378 -0.010708 -0.0101725 -0.00963698 -0.00891628 -0.00819558 -0.0073174 -0.00643922 -0.00543732 -0.00443542 -0.00334829 -0.00226116 -0.00113058 -1.55504e-17 0 0.0013389 0.00267781 0.00396526 0.0052527 0.00643922 0.00762575 0.00866574 0.00970573 0.0105592 0.0114127 0.0120469 0.0126812 0.0130717 0.0134622 0.0135941 0.013726 0.0135941 0.0134622 0.0130717 0.0126812 0.0120469 0.0114127 0.0105592 0.00970573 0.00866574 0.00762575 0.00643922 0.0052527 0.00396526 0.00267781 0.0013389 -6.03402e-17 -0.0013389 -0.00267781 -0.00396526 -0.0052527 -0.00643922 -0.00762575 -0.00866574 -0.00970573 -0.0105592 -0.0114127 -0.0120469 -0.0126812 -0.0130717 -0.0134622 -0.0135941 -0.013726 -0.0135941 -0.0134622 -0.0130717 -0.0126812 -0.0120469 -0.0114127 -0.0105592 -0.00970573 -0.00866574 -0.00762575 -0.00643922 -0.0052527 -0.00396526 -0.00267781 -0.0013389 -1.84158e-17 0 0.0015215 0.003043 0.00450603 0.00596906 0.0073174 0.00866574 0.00984757 0.0110294 0.0119993 0.0129692 0.0136899 0.0144106 0.0148544 0.0152982 0.0154481 0.0155979 0.0154481 0.0152982 0.0148544 0.0144106 0.0136899 0.0129692 0.0119993 0.0110294 0.00984757 0.00866574 0.0073174 0.00596906 0.00450603 0.003043 0.0015215 -5.83168e-17 -0.0015215 -0.003043 -0.00450603 -0.00596906 -0.0073174 -0.00866574 -0.00984757 -0.0110294 -0.0119993 -0.0129692 -0.0136899 -0.0144106 -0.0148544 -0.0152982 -0.0154481 -0.0155979 -0.0154481 -0.0152982 -0.0148544 -0.0144106 -0.0136899 -0.0129692 -0.0119993 -0.0110294 -0.00984757 -0.00866574 -0.0073174 -0.00596906 -0.00450603 -0.003043 -0.0015215 -2.09273e-17 0 0.0017041 0.0034082 0.00504681 0.00668542 0.00819558 0.00970573 0.0110294 0.0123531 0.0134394 0.0145257 0.0153328 0.01614 0.0166371 0.0171342 0.017302 0.0174699 0.017302 0.0171342 0.0166371 0.01614 0.0153328 0.0145257 0.0134394 0.0123531 0.0110294 0.00970573 0.00819558 0.00668542 0.00504681 0.0034082 0.0017041 -5.62933e-17 -0.0017041 -0.0034082 -0.00504681 -0.00668542 -0.00819558 -0.00970573 -0.0110294 -0.0123531 -0.0134394 -0.0145257 -0.0153328 -0.01614 -0.0166371 -0.0171342 -0.017302 -0.0174699 -0.017302 -0.0171342 -0.0166371 -0.01614 -0.0153328 -0.0145257 -0.0134394 -0.0123531 -0.0110294 -0.00970573 -0.00819558 -0.00668542 -0.00504681 -0.0034082 -0.0017041 -2.34389e-17 0 0.00185395 0.00370791 0.00549062 0.00727333 0.00891628 0.0105592 0.0119993 0.0134394 0.0146212 0.015803 0.0166812 0.0175594 0.0181001 0.0186409 0.0188235 0.0190061 0.0188235 0.0186409 0.0181001 0.0175594 0.0166812 0.015803 0.0146212 0.0134394 0.0119993 0.0105592 0.00891628 0.00727333 0.00549062 0.00370791 0.00185395 -1.94504e-17 -0.00185395 -0.00370791 -0.00549062 -0.00727333 -0.00891628 -0.0105592 -0.0119993 -0.0134394 -0.0146212 -0.015803 -0.0166812 -0.0175594 -0.0181001 -0.0186409 -0.0188235 -0.0190061 -0.0188235 -0.0186409 -0.0181001 -0.0175594 -0.0166812 -0.015803 -0.0146212 -0.0134394 -0.0119993 -0.0105592 -0.00891628 -0.00727333 -0.00549062 -0.00370791 -0.00185395 -2.55e-17 0 0.00200381 0.00400762 0.00593442 0.00786123 0.00963698 0.0114127 0.0129692 0.0145257 0.015803 0.0170804 0.0180295 0.0189787 0.0195632 0.0201477 0.020345 0.0205424 0.020345 0.0201477 0.0195632 0.0189787 0.0180295 0.0170804 0.015803 0.0145257 0.0129692 0.0114127 0.00963698 0.00786123 0.00593442 0.00400762 0.00200381 1.73925e-17 -0.00200381 -0.00400762 -0.00593442 -0.00786123 -0.00963698 -0.0114127 -0.0129692 -0.0145257 -0.015803 -0.0170804 -0.0180295 -0.0189787 -0.0195632 -0.0201477 -0.020345 -0.0205424 -0.020345 -0.0201477 -0.0195632 -0.0189787 -0.0180295 -0.0170804 -0.015803 -0.0145257 -0.0129692 -0.0114127 -0.00963698 -0.00786123 -0.00593442 -0.00400762 -0.00200381 -2.75612e-17 0 0.00211516 0.00423032 0.0062642 0.00829808 0.0101725 0.0120469 0.0136899 0.0153328 0.0166812 0.0180295 0.0190314 0.0200333 0.0206503 0.0212673 0.0214756 0.0216839 0.0214756 0.0212673 0.0206503 0.0200333 0.0190314 0.0180295 0.0166812 0.0153328 0.0136899 0.0120469 0.0101725 0.00829808 0.0062642 0.00423032 0.00211516 3.78469e-17 -0.00211516 -0.00423032 -0.0062642 -0.00829808 -0.0101725 -0.0120469 -0.0136899 -0.0153328 -0.0166812 -0.0180295 -0.0190314 -0.0200333 -0.0206503 -0.0212673 -0.0214756 -0.0216839 -0.0214756 -0.0212673 -0.0206503 -0.0200333 -0.0190314 -0.0180295 -0.0166812 -0.0153328 -0.0136899 -0.0120469 -0.0101725 -0.00829808 -0.0062642 -0.00423032 -0.00211516 -2.90928e-17 0 0.00222651 0.00445303 0.00659398 0.00873493 0.010708 0.0126812 0.0144106 0.01614 0.0175594 0.0189787 0.0200333 0.021088 0.0217374 0.0223869 0.0226062 0.0228255 0.0226062 0.0223869 0.0217374 0.021088 0.0200333 0.0189787 0.0175594 0.01614 0.0144106 0.0126812 0.010708 0.00873493 0.00659398 0.00445303 0.00222651 5.83012e-17 -0.00222651 -0.00445303 -0.00659398 -0.00873493 -0.010708 -0.0126812 -0.0144106 -0.01614 -0.0175594 -0.0189787 -0.0200333 -0.021088 -0.0217374 -0.0223869 -0.0226062 -0.0228255 -0.0226062 -0.0223869 -0.0217374 -0.021088 -0.0200333 -0.0189787 -0.0175594 -0.01614 -0.0144106 -0.0126812 -0.010708 -0.00873493 -0.00659398 -0.00445303 -0.00222651 -3.06244e-17 0 0.00229508 0.00459017 0.00679705 0.00900394 0.0110378 0.0130717 0.0148544 0.0166371 0.0181001 0.0195632 0.0206503 0.0217374 0.0224069 0.0230763 0.0233024 0.0235284 0.0233024 0.0230763 0.0224069 0.0217374 0.0206503 0.0195632 0.0181001 0.0166371 0.0148544 0.0130717 0.0110378 0.00900394 0.00679705 0.00459017 0.00229508 7.87231e-17 -0.00229508 -0.00459017 -0.00679705 -0.00900394 -0.0110378 -0.0130717 -0.0148544 -0.0166371 -0.0181001 -0.0195632 -0.0206503 -0.0217374 -0.0224069 -0.0230763 -0.0233024 -0.0235284 -0.0233024 -0.0230763 -0.0224069 -0.0217374 -0.0206503 -0.0195632 -0.0181001 -0.0166371 -0.0148544 -0.0130717 -0.0110378 -0.00900394 -0.00679705 -0.00459017 -0.00229508 -3.15675e-17 0 0.00236365 0.00472731 0.00700013 0.00927295 0.0113676 0.0134622 0.0152982 0.0171342 0.0186409 0.0201477 0.0212673 0.0223869 0.0230763 0.0237658 0.0239986 0.0242314 0.0239986 0.0237658 0.0230763 0.0223869 0.0212673 0.0201477 0.0186409 0.0171342 0.0152982 0.0134622 0.0113676 0.00927295 0.00700013 0.00472731 0.00236365 9.9145e-17 -0.00236365 -0.00472731 -0.00700013 -0.00927295 -0.0113676 -0.0134622 -0.0152982 -0.0171342 -0.0186409 -0.0201477 -0.0212673 -0.0223869 -0.0230763 -0.0237658 -0.0239986 -0.0242314 -0.0239986 -0.0237658 -0.0230763 -0.0223869 -0.0212673 -0.0201477 -0.0186409 -0.0171342 -0.0152982 -0.0134622 -0.0113676 -0.00927295 -0.00700013 -0.00472731 -0.00236365 -3.25107e-17 0 0.00238681 0.00477362 0.0070687 0.00936378 0.0114789 0.0135941 0.0154481 0.017302 0.0188235 0.020345 0.0214756 0.0226062 0.0233024 0.0239986 0.0242337 0.0244687 0.0242337 0.0239986 0.0233024 0.0226062 0.0214756 0.020345 0.0188235 0.017302 0.0154481 0.0135941 0.0114789 0.00936378 0.0070687 0.00477362 0.00238681 1.00068e-16 -0.00238681 -0.00477362 -0.0070687 -0.00936378 -0.0114789 -0.0135941 -0.0154481 -0.017302 -0.0188235 -0.020345 -0.0214756 -0.0226062 -0.0233024 -0.0239986 -0.0242337 -0.0244687 -0.0242337 -0.0239986 -0.0233024 -0.0226062 -0.0214756 -0.020345 -0.0188235 -0.017302 -0.0154481 -0.0135941 -0.0114789 -0.00936378 -0.0070687 -0.00477362 -0.00238681 -3.28291e-17 0 0.00240996 0.00481992 0.00713727 0.00945462 0.0115903 0.013726 0.0155979 0.0174699 0.0190061 0.0205424 0.0216839 0.0228255 0.0235284 0.0242314 0.0244687 0.0247061 0.0244687 0.0242314 0.0235284 0.0228255 0.0216839 0.0205424 0.0190061 0.0174699 0.0155979 0.013726 0.0115903 0.00945462 0.00713727 0.00481992 0.00240996 1.00991e-16 -0.00240996 -0.00481992 -0.00713727 -0.00945462 -0.0115903 -0.013726 -0.0155979 -0.0174699 -0.0190061 -0.0205424 -0.0216839 -0.0228255 -0.0235284 -0.0242314 -0.0244687 -0.0247061 -0.0244687 -0.0242314 -0.0235284 -0.0228255 -0.0216839 -0.0205424 -0.0190061 -0.0174699 -0.0155979 -0.013726 -0.0115903 -0.00945462 -0.00713727 -0.00481992 -0.00240996 -3.31476e-17 0 0.00238681 0.00477362 0.0070687 0.00936378 0.0114789 0.0135941 0.0154481 0.017302 0.0188235 0.020345 0.0214756 0.0226062 0.0233024 0.0239986 0.0242337 0.0244687 0.0242337 0.0239986 0.0233024 0.0226062 0.0214756 0.020345 0.0188235 0.017302 0.0154481 0.0135941 0.0114789 0.00936378 0.0070687 0.00477362 0.00238681 6.96135e-17 -0.00238681 -0.00477362 -0.0070687 -0.00936378 -0.0114789 -0.0135941 -0.0154481 -0.017302 -0.0188235 -0.020345 -0.0214756 -0.0226062 -0.0233024 -0.0239986 -0.0242337 -0.0244687 -0.0242337 -0.0239986 -0.0233024 -0.0226062 -0.0214756 -0.020345 -0.0188235 -0.017302 -0.0154481 -0.0135941 -0.0114789 -0.00936378 -0.0070687 -0.00477362 -0.00238681 -3.28291e-17 0 0.00236365 0.00472731 0.00700013 0.00927295 0.0113676 0.0134622 0.0152982 0.0171342 0.0186409 0.0201477 0.0212673 0.0223869 0.0230763 0.0237658 0.0239986 0.0242314 0.0239986 0.0237658 0.0230763 0.0223869 0.0212673 0.0201477 0.0186409 0.0171342 0.0152982 0.0134622 0.0113676 0.00927295 0.00700013 0.00472731 0.00236365 3.82364e-17 -0.00236365 -0.00472731 -0.00700013 -0.00927295 -0.0113676 -0.0134622 -0.0152982 -0.0171342 -0.0186409 -0.0201477 -0.0212673 -0.0223869 -0.0230763 -0.0237658 -0.0239986 -0.0242314 -0.0239986 -0.0237658 -0.0230763 -0.0223869 -0.0212673 -0.0201477 -0.0186409 -0.0171342 -0.0152982 -0.0134622 -0.0113676 -0.00927295 -0.00700013 -0.00472731 -0.00236365 -3.25107e-17 0 0.00229508 0.00459017 0.00679705 0.00900394 0.0110378 0.0130717 0.0148544 0.0166371 0.0181001 0.0195632 0.0206503 0.0217374 0.0224069 0.0230763 0.0233024 0.0235284 0.0233024 0.0230763 0.0224069 0.0217374 0.0206503 0.0195632 0.0181001 0.0166371 0.0148544 0.0130717 0.0110378 0.00900394 0.00679705 0.00459017 0.00229508 1.4009e-17 -0.00229508 -0.00459017 -0.00679705 -0.00900394 -0.0110378 -0.0130717 -0.0148544 -0.0166371 -0.0181001 -0.0195632 -0.0206503 -0.0217374 -0.0224069 -0.0230763 -0.0233024 -0.0235284 -0.0233024 -0.0230763 -0.0224069 -0.0217374 -0.0206503 -0.0195632 -0.0181001 -0.0166371 -0.0148544 -0.0130717 -0.0110378 -0.00900394 -0.00679705 -0.00459017 -0.00229508 -3.15675e-17 0 0.00222651 0.00445303 0.00659398 0.00873493 0.010708 0.0126812 0.0144106 0.01614 0.0175594 0.0189787 0.0200333 0.021088 0.0217374 0.0223869 0.0226062 0.0228255 0.0226062 0.0223869 0.0217374 0.021088 0.0200333 0.0189787 0.0175594 0.01614 0.0144106 0.0126812 0.010708 0.00873493 0.00659398 0.00445303 0.00222651 -1.02183e-17 -0.00222651 -0.00445303 -0.00659398 -0.00873493 -0.010708 -0.0126812 -0.0144106 -0.01614 -0.0175594 -0.0189787 -0.0200333 -0.021088 -0.0217374 -0.0223869 -0.0226062 -0.0228255 -0.0226062 -0.0223869 -0.0217374 -0.021088 -0.0200333 -0.0189787 -0.0175594 -0.01614 -0.0144106 -0.0126812 -0.010708 -0.00873493 -0.00659398 -0.00445303 -0.00222651 -3.06244e-17 0 0.00211516 0.00423032 0.0062642 0.00829808 0.0101725 0.0120469 0.0136899 0.0153328 0.0166812 0.0180295 0.0190314 0.0200333 0.0206503 0.0212673 0.0214756 0.0216839 0.0214756 0.0212673 0.0206503 0.0200333 0.0190314 0.0180295 0.0166812 0.0153328 0.0136899 0.0120469 0.0101725 0.00829808 0.0062642 0.00423032 0.00211516 -2.21717e-17 -0.00211516 -0.00423032 -0.0062642 -0.00829808 -0.0101725 -0.0120469 -0.0136899 -0.0153328 -0.0166812 -0.0180295 -0.0190314 -0.0200333 -0.0206503 -0.0212673 -0.0214756 -0.0216839 -0.0214756 -0.0212673 -0.0206503 -0.0200333 -0.0190314 -0.0180295 -0.0166812 -0.0153328 -0.0136899 -0.0120469 -0.0101725 -0.00829808 -0.0062642 -0.00423032 -0.00211516 -2.90928e-17 0 0.00200381 0.00400762 0.00593442 0.00786123 0.00963698 0.0114127 0.0129692 0.0145257 0.015803 0.0170804 0.0180295 0.0189787 0.0195632 0.0201477 0.020345 0.0205424 0.020345 0.0201477 0.0195632 0.0189787 0.0180295 0.0170804 0.015803 0.0145257 0.0129692 0.0114127 0.00963698 0.00786123 0.00593442 0.00400762 0.00200381 -3.41251e-17 -0.00200381 -0.00400762 -0.00593442 -0.00786123 -0.00963698 -0.0114127 -0.0129692 -0.0145257 -0.015803 -0.0170804 -0.0180295 -0.0189787 -0.0195632 -0.0201477 -0.020345 -0.0205424 -0.020345 -0.0201477 -0.0195632 -0.0189787 -0.0180295 -0.0170804 -0.015803 -0.0145257 -0.0129692 -0.0114127 -0.00963698 -0.00786123 -0.00593442 -0.00400762 -0.00200381 -2.75612e-17 0 0.00185395 0.00370791 0.00549062 0.00727333 0.00891628 0.0105592 0.0119993 0.0134394 0.0146212 0.015803 0.0166812 0.0175594 0.0181001 0.0186409 0.0188235 0.0190061 0.0188235 0.0186409 0.0181001 0.0175594 0.0166812 0.015803 0.0146212 0.0134394 0.0119993 0.0105592 0.00891628 0.00727333 0.00549062 0.00370791 0.00185395 -1.90562e-17 -0.00185395 -0.00370791 -0.00549062 -0.00727333 -0.00891628 -0.0105592 -0.0119993 -0.0134394 -0.0146212 -0.015803 -0.0166812 -0.0175594 -0.0181001 -0.0186409 -0.0188235 -0.0190061 -0.0188235 -0.0186409 -0.0181001 -0.0175594 -0.0166812 -0.015803 -0.0146212 -0.0134394 -0.0119993 -0.0105592 -0.00891628 -0.00727333 -0.00549062 -0.00370791 -0.00185395 -2.55e-17 0 0.0017041 0.0034082 0.00504681 0.00668542 0.00819558 0.00970573 0.0110294 0.0123531 0.0134394 0.0145257 0.0153328 0.01614 0.0166371 0.0171342 0.017302 0.0174699 0.017302 0.0171342 0.0166371 0.01614 0.0153328 0.0145257 0.0134394 0.0123531 0.0110294 0.00970573 0.00819558 0.00668542 0.00504681 0.0034082 0.0017041 -3.98726e-18 -0.0017041 -0.0034082 -0.00504681 -0.00668542 -0.00819558 -0.00970573 -0.0110294 -0.0123531 -0.0134394 -0.0145257 -0.0153328 -0.01614 -0.0166371 -0.0171342 -0.017302 -0.0174699 -0.017302 -0.0171342 -0.0166371 -0.01614 -0.0153328 -0.0145257 -0.0134394 -0.0123531 -0.0110294 -0.00970573 -0.00819558 -0.00668542 -0.00504681 -0.0034082 -0.0017041 -2.34389e-17 0 0.0015215 0.003043 0.00450603 0.00596906 0.0073174 0.00866574 0.00984757 0.0110294 0.0119993 0.0129692 0.0136899 0.0144106 0.0148544 0.0152982 0.0154481 0.0155979 0.0154481 0.0152982 0.0148544 0.0144106 0.0136899 0.0129692 0.0119993 0.0110294 0.00984757 0.00866574 0.0073174 0.00596906 0.00450603 0.003043 0.0015215 2.21079e-17 -0.0015215 -0.003043 -0.00450603 -0.00596906 -0.0073174 -0.00866574 -0.00984757 -0.0110294 -0.0119993 -0.0129692 -0.0136899 -0.0144106 -0.0148544 -0.0152982 -0.0154481 -0.0155979 -0.0154481 -0.0152982 -0.0148544 -0.0144106 -0.0136899 -0.0129692 -0.0119993 -0.0110294 -0.00984757 -0.00866574 -0.0073174 -0.00596906 -0.00450603 -0.003043 -0.0015215 -2.09273e-17 0 0.0013389 0.00267781 0.00396526 0.0052527 0.00643922 0.00762575 0.00866574 0.00970573 0.0105592 0.0114127 0.0120469 0.0126812 0.0130717 0.0134622 0.0135941 0.013726 0.0135941 0.0134622 0.0130717 0.0126812 0.0120469 0.0114127 0.0105592 0.00970573 0.00866574 0.00762575 0.00643922 0.0052527 0.00396526 0.00267781 0.0013389 4.8203e-17 -0.0013389 -0.00267781 -0.00396526 -0.0052527 -0.00643922 -0.00762575 -0.00866574 -0.00970573 -0.0105592 -0.0114127 -0.0120469 -0.0126812 -0.0130717 -0.0134622 -0.0135941 -0.013726 -0.0135941 -0.0134622 -0.0130717 -0.0126812 -0.0120469 -0.0114127 -0.0105592 -0.00970573 -0.00866574 -0.00762575 -0.00643922 -0.0052527 -0.00396526 -0.00267781 -0.0013389 -1.84158e-17 0 0.00113058 0.00226116 0.00334829 0.00443542 0.00543732 0.00643922 0.0073174 0.00819558 0.00891628 0.00963698 0.0101725 0.010708 0.0110378 0.0113676 0.0114789 0.0115903 0.0114789 0.0113676 0.0110378 0.010708 0.0101725 0.00963698 0.00891628 0.00819558 0.0073174 0.00643922 0.00543732 0.00443542 0.00334829 0.00226116 0.00113058 4.64099e-17 -0.00113058 -0.00226116 -0.00334829 -0.00443542 -0.00543732 -0.00643922 -0.0073174 -0.00819558 -0.00891628 -0.00963698 -0.0101725 -0.010708 -0.0110378 -0.0113676 -0.0114789 -0.0115903 -0.0114789 -0.0113676 -0.0110378 -0.010708 -0.0101725 -0.00963698 -0.00891628 -0.00819558 -0.0073174 -0.00643922 -0.00543732 -0.00443542 -0.00334829 -0.00226116 -0.00113058 -1.55504e-17 0 0.000922252 0.0018445 0.00273132 0.00361813 0.00443542 0.0052527 0.00596906 0.00668542 0.00727333 0.00786123 0.00829808 0.00873493 0.00900394 0.00927295 0.00936378 0.00945462 0.00936378 0.00927295 0.00900394 0.00873493 0.00829808 0.00786123 0.00727333 0.00668542 0.00596906 0.0052527 0.00443542 0.00361813 0.00273132 0.0018445 0.000922252 4.46168e-17 -0.000922252 -0.0018445 -0.00273132 -0.00361813 -0.00443542 -0.0052527 -0.00596906 -0.00668542 -0.00727333 -0.00786123 -0.00829808 -0.00873493 -0.00900394 -0.00927295 -0.00936378 -0.00945462 -0.00936378 -0.00927295 -0.00900394 -0.00873493 -0.00829808 -0.00786123 -0.00727333 -0.00668542 -0.00596906 -0.0052527 -0.00443542 -0.00361813 -0.00273132 -0.0018445 -0.000922252 -1.2685e-17 0 0.000696206 0.00139241 0.00206186 0.00273132 0.00334829 0.00396526 0.00450603 0.00504681 0.00549062 0.00593442 0.0062642 0.00659398 0.00679705 0.00700013 0.0070687 0.00713727 0.0070687 0.00700013 0.00679705 0.00659398 0.0062642 0.00593442 0.00549062 0.00504681 0.00450603 0.00396526 0.00334829 0.00273132 0.00206186 0.00139241 0.000696206 2.96175e-17 -0.000696206 -0.00139241 -0.00206186 -0.00273132 -0.00334829 -0.00396526 -0.00450603 -0.00504681 -0.00549062 -0.00593442 -0.0062642 -0.00659398 -0.00679705 -0.00700013 -0.0070687 -0.00713727 -0.0070687 -0.00700013 -0.00679705 -0.00659398 -0.0062642 -0.00593442 -0.00549062 -0.00504681 -0.00450603 -0.00396526 -0.00334829 -0.00273132 -0.00206186 -0.00139241 -0.000696206 -9.5759e-18 0 0.00047016 0.00094032 0.00139241 0.0018445 0.00226116 0.00267781 0.003043 0.0034082 0.00370791 0.00400762 0.00423032 0.00445303 0.00459017 0.00472731 0.00477362 0.00481992 0.00477362 0.00472731 0.00459017 0.00445303 0.00423032 0.00400762 0.00370791 0.0034082 0.003043 0.00267781 0.00226116 0.0018445 0.00139241 0.00094032 0.00047016 1.46183e-17 -0.00047016 -0.00094032 -0.00139241 -0.0018445 -0.00226116 -0.00267781 -0.003043 -0.0034082 -0.00370791 -0.00400762 -0.00423032 -0.00445303 -0.00459017 -0.00472731 -0.00477362 -0.00481992 -0.00477362 -0.00472731 -0.00459017 -0.00445303 -0.00423032 -0.00400762 -0.00370791 -0.0034082 -0.003043 -0.00267781 -0.00226116 -0.0018445 -0.00139241 -0.00094032 -0.00047016 -6.46677e-18 0 0.00023508 0.00047016 0.000696206 0.000922252 0.00113058 0.0013389 0.0015215 0.0017041 0.00185395 0.00200381 0.00211516 0.00222651 0.00229508 0.00236365 0.00238681 0.00240996 0.00238681 0.00236365 0.00229508 0.00222651 0.00211516 0.00200381 0.00185395 0.0017041 0.0015215 0.0013389 0.00113058 0.000922252 0.000696206 0.00047016 0.00023508 -5.39649e-18 -0.00023508 -0.00047016 -0.000696206 -0.000922252 -0.00113058 -0.0013389 -0.0015215 -0.0017041 -0.00185395 -0.00200381 -0.00211516 -0.00222651 -0.00229508 -0.00236365 -0.00238681 -0.00240996 -0.00238681 -0.00236365 -0.00229508 -0.00222651 -0.00211516 -0.00200381 -0.00185395 -0.0017041 -0.0015215 -0.0013389 -0.00113058 -0.000922252 -0.000696206 -0.00047016 -0.00023508 -3.23339e-18 0 1.40979e-17 2.81959e-17 2.86511e-17 2.91064e-17 1.54236e-17 1.74081e-18 -3.29298e-17 -6.76004e-17 -8.99302e-17 -1.1226e-16 -1.12446e-16 -1.12633e-16 -4.41076e-17 2.44177e-17 -2.19033e-17 -6.82243e-17 -5.49232e-17 -4.16221e-17 -6.69459e-17 -9.22698e-17 -9.97648e-17 -1.0726e-16 -5.31814e-17 8.96884e-19 -4.24674e-17 -8.58316e-17 -6.37098e-17 -4.1588e-17 -3.83116e-17 -3.50351e-17 -3.02232e-17 -2.54113e-17 -3.05803e-17 -3.57492e-17 -3.76678e-17 -3.95863e-17 -5.98517e-17 -8.01171e-17 -8.04568e-17 -8.07965e-17 -4.68937e-17 -1.2991e-17 2.94173e-18 1.88745e-17 3.41721e-17 4.94697e-17 5.47928e-17 6.0116e-17 3.7889e-17 1.5662e-17 -3.92593e-17 -9.41806e-17 -8.67057e-17 -7.92307e-17 -4.01463e-17 -1.06201e-18 5.87022e-18 1.28024e-17 3.69454e-17 6.10884e-17 4.98051e-17 3.85218e-17 1.92609e-17 -4.05941e-33 0 -0.00023508 -0.00047016 -0.000696206 -0.000922252 -0.00113058 -0.0013389 -0.0015215 -0.0017041 -0.00185395 -0.00200381 -0.00211516 -0.00222651 -0.00229508 -0.00236365 -0.00238681 -0.00240996 -0.00238681 -0.00236365 -0.00229508 -0.00222651 -0.00211516 -0.00200381 -0.00185395 -0.0017041 -0.0015215 -0.0013389 -0.00113058 -0.000922252 -0.000696206 -0.00047016 -0.00023508 -4.40073e-17 0.00023508 0.00047016 0.000696206 0.000922252 0.00113058 0.0013389 0.0015215 0.0017041 0.00185395 0.00200381 0.00211516 0.00222651 0.00229508 0.00236365 0.00238681 0.00240996 0.00238681 0.00236365 0.00229508 0.00222651 0.00211516 0.00200381 0.00185395 0.0017041 0.0015215 0.0013389 0.00113058 0.000922252 0.000696206 0.00047016 0.00023508 3.23339e-18 -0 -0.00047016 -0.00094032 -0.00139241 -0.0018445 -0.00226116 -0.00267781 -0.003043 -0.0034082 -0.00370791 -0.00400762 -0.00423032 -0.00445303 -0.00459017 -0.00472731 -0.00477362 -0.00481992 -0.00477362 -0.00472731 -0.00459017 -0.00445303 -0.00423032 -0.00400762 -0.00370791 -0.0034082 -0.003043 -0.00267781 -0.00226116 -0.0018445 -0.00139241 -0.00094032 -0.00047016 -6.26033e-17 0.00047016 0.00094032 0.00139241 0.0018445 0.00226116 0.00267781 0.003043 0.0034082 0.00370791 0.00400762 0.00423032 0.00445303 0.00459017 0.00472731 0.00477362 0.00481992 0.00477362 0.00472731 0.00459017 0.00445303 0.00423032 0.00400762 0.00370791 0.0034082 0.003043 0.00267781 0.00226116 0.0018445 0.00139241 0.00094032 0.00047016 6.46677e-18 -0 -0.000696206 -0.00139241 -0.00206186 -0.00273132 -0.00334829 -0.00396526 -0.00450603 -0.00504681 -0.00549062 -0.00593442 -0.0062642 -0.00659398 -0.00679705 -0.00700013 -0.0070687 -0.00713727 -0.0070687 -0.00700013 -0.00679705 -0.00659398 -0.0062642 -0.00593442 -0.00549062 -0.00504681 -0.00450603 -0.00396526 -0.00334829 -0.00273132 -0.00206186 -0.00139241 -0.000696206 -8.16573e-17 0.000696206 0.00139241 0.00206186 0.00273132 0.00334829 0.00396526 0.00450603 0.00504681 0.00549062 0.00593442 0.0062642 0.00659398 0.00679705 0.00700013 0.0070687 0.00713727 0.0070687 0.00700013 0.00679705 0.00659398 0.0062642 0.00593442 0.00549062 0.00504681 0.00450603 0.00396526 0.00334829 0.00273132 0.00206186 0.00139241 0.000696206 9.5759e-18 -0 -0.000922252 -0.0018445 -0.00273132 -0.00361813 -0.00443542 -0.0052527 -0.00596906 -0.00668542 -0.00727333 -0.00786123 -0.00829808 -0.00873493 -0.00900394 -0.00927295 -0.00936378 -0.00945462 -0.00936378 -0.00927295 -0.00900394 -0.00873493 -0.00829808 -0.00786123 -0.00727333 -0.00668542 -0.00596906 -0.0052527 -0.00443542 -0.00361813 -0.00273132 -0.0018445 -0.000922252 -1.00711e-16 0.000922252 0.0018445 0.00273132 0.00361813 0.00443542 0.0052527 0.00596906 0.00668542 0.00727333 0.00786123 0.00829808 0.00873493 0.00900394 0.00927295 0.00936378 0.00945462 0.00936378 0.00927295 0.00900394 0.00873493 0.00829808 0.00786123 0.00727333 0.00668542 0.00596906 0.0052527 0.00443542 0.00361813 0.00273132 0.0018445 0.000922252 1.2685e-17 -0 -0.00113058 -0.00226116 -0.00334829 -0.00443542 -0.00543732 -0.00643922 -0.0073174 -0.00819558 -0.00891628 -0.00963698 -0.0101725 -0.010708 -0.0110378 -0.0113676 -0.0114789 -0.0115903 -0.0114789 -0.0113676 -0.0110378 -0.010708 -0.0101725 -0.00963698 -0.00891628 -0.00819558 -0.0073174 -0.00643922 -0.00543732 -0.00443542 -0.00334829 -0.00226116 -0.00113058 -1.20803e-16 0.00113058 0.00226116 0.00334829 0.00443542 0.00543732 0.00643922 0.0073174 0.00819558 0.00891628 0.00963698 0.0101725 0.010708 0.0110378 0.0113676 0.0114789 0.0115903 0.0114789 0.0113676 0.0110378 0.010708 0.0101725 0.00963698 0.00891628 0.00819558 0.0073174 0.00643922 0.00543732 0.00443542 0.00334829 0.00226116 0.00113058 1.55504e-17 -0 -0.0013389 -0.00267781 -0.00396526 -0.0052527 -0.00643922 -0.00762575 -0.00866574 -0.00970573 -0.0105592 -0.0114127 -0.0120469 -0.0126812 -0.0130717 -0.0134622 -0.0135941 -0.013726 -0.0135941 -0.0134622 -0.0130717 -0.0126812 -0.0120469 -0.0114127 -0.0105592 -0.00970573 -0.00866574 -0.00762575 -0.00643922 -0.0052527 -0.00396526 -0.00267781 -0.0013389 -1.40894e-16 0.0013389 0.00267781 0.00396526 0.0052527 0.00643922 0.00762575 0.00866574 0.00970573 0.0105592 0.0114127 0.0120469 0.0126812 0.0130717 0.0134622 0.0135941 0.013726 0.0135941 0.0134622 0.0130717 0.0126812 0.0120469 0.0114127 0.0105592 0.00970573 0.00866574 0.00762575 0.00643922 0.0052527 0.00396526 0.00267781 0.0013389 1.84158e-17 -0 -0.0015215 -0.003043 -0.00450603 -0.00596906 -0.0073174 -0.00866574 -0.00984757 -0.0110294 -0.0119993 -0.0129692 -0.0136899 -0.0144106 -0.0148544 -0.0152982 -0.0154481 -0.0155979 -0.0154481 -0.0152982 -0.0148544 -0.0144106 -0.0136899 -0.0129692 -0.0119993 -0.0110294 -0.00984757 -0.00866574 -0.0073174 -0.00596906 -0.00450603 -0.003043 -0.0015215 -1.56966e-16 0.0015215 0.003043 0.00450603 0.00596906 0.0073174 0.00866574 0.00984757 0.0110294 0.0119993 0.0129692 0.0136899 0.0144106 0.0148544 0.0152982 0.0154481 0.0155979 0.0154481 0.0152982 0.0148544 0.0144106 0.0136899 0.0129692 0.0119993 0.0110294 0.00984757 0.00866574 0.0073174 0.00596906 0.00450603 0.003043 0.0015215 2.09273e-17 -0 -0.0017041 -0.0034082 -0.00504681 -0.00668542 -0.00819558 -0.00970573 -0.0110294 -0.0123531 -0.0134394 -0.0145257 -0.0153328 -0.01614 -0.0166371 -0.0171342 -0.017302 -0.0174699 -0.017302 -0.0171342 -0.0166371 -0.01614 -0.0153328 -0.0145257 -0.0134394 -0.0123531 -0.0110294 -0.00970573 -0.00819558 -0.00668542 -0.00504681 -0.0034082 -0.0017041 -1.73038e-16 0.0017041 0.0034082 0.00504681 0.00668542 0.00819558 0.00970573 0.0110294 0.0123531 0.0134394 0.0145257 0.0153328 0.01614 0.0166371 0.0171342 0.017302 0.0174699 0.017302 0.0171342 0.0166371 0.01614 0.0153328 0.0145257 0.0134394 0.0123531 0.0110294 0.00970573 0.00819558 0.00668542 0.00504681 0.0034082 0.0017041 2.34389e-17 -0 -0.00185395 -0.00370791 -0.00549062 -0.00727333 -0.00891628 -0.0105592 -0.0119993 -0.0134394 -0.0146212 -0.015803 -0.0166812 -0.0175594 -0.0181001 -0.0186409 -0.0188235 -0.0190061 -0.0188235 -0.0186409 -0.0181001 -0.0175594 -0.0166812 -0.015803 -0.0146212 -0.0134394 -0.0119993 -0.0105592 -0.00891628 -0.00727333 -0.00549062 -0.00370791 -0.00185395 -1.86023e-16 0.00185395 0.00370791 0.00549062 0.00727333 0.00891628 0.0105592 0.0119993 0.0134394 0.0146212 0.015803 0.0166812 0.0175594 0.0181001 0.0186409 0.0188235 0.0190061 0.0188235 0.0186409 0.0181001 0.0175594 0.0166812 0.015803 0.0146212 0.0134394 0.0119993 0.0105592 0.00891628 0.00727333 0.00549062 0.00370791 0.00185395 2.55e-17 -0 -0.00200381 -0.00400762 -0.00593442 -0.00786123 -0.00963698 -0.0114127 -0.0129692 -0.0145257 -0.015803 -0.0170804 -0.0180295 -0.0189787 -0.0195632 -0.0201477 -0.020345 -0.0205424 -0.020345 -0.0201477 -0.0195632 -0.0189787 -0.0180295 -0.0170804 -0.015803 -0.0145257 -0.0129692 -0.0114127 -0.00963698 -0.00786123 -0.00593442 -0.00400762 -0.00200381 -1.99007e-16 0.00200381 0.00400762 0.00593442 0.00786123 0.00963698 0.0114127 0.0129692 0.0145257 0.015803 0.0170804 0.0180295 0.0189787 0.0195632 0.0201477 0.020345 0.0205424 0.020345 0.0201477 0.0195632 0.0189787 0.0180295 0.0170804 0.015803 0.0145257 0.0129692 0.0114127 0