<?xml version="1.0"?> 
<VTKFile type="StructuredGrid" version="0.1"> 
<StructuredGrid WholeExtent="0 64 0 64 0 0"> 
<Piece Extent="0 64 0 64 0 0"> 
<PointData>
<DataArray type="Float32" Name="u" format="ascii" NumberOfComponents="1"> 
0 0 0 0 0 0 0 0 0 0 0 0 0 0 0 0 0 0 0 0 0 0 0 0 0 0 0 0 0 0 0 0 0 0 0 0 0 0 0 0 0 0 0 0 0 0 0 0 0 0 0 0 0 0 0 0 0 0 0 0 0 0 0 0 0 0 -0.000313506 -0.000627012 -0.00092847 -0.00122993 -0.00150775 -0.00178558 -0.00202909 -0.00227261 -0.00247246 -0.00267231 -0.00282081 -0.00296931 -0.00306075 -0.0031522 -0.00318308 -0.00321396 -0.00318308 -0.0031522 -0.00306075 -0.00296931 -0.00282081 -0.00267231 -0.00247246 -0.00227261 -0.00202909 -0.00178558 -0.00150775 -0.00122993 -0.00092847 -0.000627012 -0.000313506 1.51749e-17 0.000313506 0.000627012 0.00092847 0.00122993 0.00150775 0.00178558 0.00202909 0.00227261 0.00247246 0.00267231 0.00282081 0.00296931 0.00306075 0.0031522 0.00318308 0.00321396 0.00318308 0.0031522 0.00306075 0.00296931 0.00282081 0.00267231 0.00247246 0.00227261 0.00202909 0.00178558 0.00150775 0.00122993 0.00092847 0.000627012 0.000313506 -3.23339e-18 0 -0.000627012 -0.00125402 -0.00185694 -0.00245986 -0.00301551 -0.00357116 -0.00405819 -0.00454522 -0.00494492 -0.00534461 -0.00564162 -0.00593862 -0.00612151 -0.0063044 -0.00636616 -0.00642791 -0.00636616 -0.0063044 -0.00612151 -0.00593862 -0.00564162 -0.00534461 -0.00494492 -0.00454522 -0.00405819 -0.00357116 -0.00301551 -0.00245986 -0.00185694 -0.00125402 -0.000627012 3.03498e-17 0.000627012 0.00125402 0.00185694 0.00245986 0.00301551 0.00357116 0.00405819 0.00454522 0.00494492 0.00534461 0.00564162 0.00593862 0.00612151 0.0063044 0.00636616 0.00642791 0.00636616 0.0063044 0.00612151 0.00593862 0.00564162 0.00534461 0.00494492 0.00454522 0.00405819 0.00357116 0.00301551 0.00245986 0.00185694 0.00125402 0.000627012 -6.46677e-18 0 -0.00092847 -0.00185694 -0.00274973 -0.00364252 -0.00446532 -0.00528812 -0.00600931 -0.0067305 -0.00732236 -0.00791423 -0.00835402 -0.00879382 -0.00906464 -0.00933547 -0.00942691 -0.00951836 -0.00942691 -0.00933547 -0.00906464 -0.00879382 -0.00835402 -0.00791423 -0.00732236 -0.0067305 -0.00600931 -0.00528812 -0.00446532 -0.00364252 -0.00274973 -0.00185694 -0.00092847 3.72203e-17 0.00092847 0.00185694 0.00274973 0.00364252 0.00446532 0.00528812 0.00600931 0.0067305 0.00732236 0.00791423 0.00835402 0.00879382 0.00906464 0.00933547 0.00942691 0.00951836 0.00942691 0.00933547 0.00906464 0.00879382 0.00835402 0.00791423 0.00732236 0.0067305 0.00600931 0.00528812 0.00446532 0.00364252 0.00274973 0.00185694 0.00092847 -9.5759e-18 0 -0.00122993 -0.00245986 -0.00364252 -0.00482518 -0.00591513 -0.00700508 -0.00796042 -0.00891577 -0.0096998 -0.0104838 -0.0110664 -0.011649 -0.0120078 -0.0123665 -0.0124877 -0.0126088 -0.0124877 -0.0123665 -0.0120078 -0.011649 -0.0110664 -0.0104838 -0.0096998 -0.00891577 -0.00796042 -0.00700508 -0.00591513 -0.00482518 -0.00364252 -0.00245986 -0.00122993 4.40909e-17 0.00122993 0.00245986 0.00364252 0.00482518 0.00591513 0.00700508 0.00796042 0.00891577 0.0096998 0.0104838 0.0110664 0.011649 0.0120078 0.0123665 0.0124877 0.0126088 0.0124877 0.0123665 0.0120078 0.011649 0.0110664 0.0104838 0.0096998 0.00891577 0.00796042 0.00700508 0.00591513 0.00482518 0.00364252 0.00245986 0.00122993 -1.2685e-17 0 -0.00150775 -0.00301551 -0.00446532 -0.00591513 -0.00725128 -0.00858744 -0.00975858 -0.0109297 -0.0118909 -0.012852 -0.0135662 -0.0142804 -0.0147202 -0.01516 -0.0153085 -0.015457 -0.0153085 -0.01516 -0.0147202 -0.0142804 -0.0135662 -0.012852 -0.0118909 -0.0109297 -0.00975858 -0.00858744 -0.00725128 -0.00591513 -0.00446532 -0.00301551 -0.00150775 5.38824e-17 0.00150775 0.00301551 0.00446532 0.00591513 0.00725128 0.00858744 0.00975858 0.0109297 0.0118909 0.012852 0.0135662 0.0142804 0.0147202 0.01516 0.0153085 0.015457 0.0153085 0.01516 0.0147202 0.0142804 0.0135662 0.012852 0.0118909 0.0109297 0.00975858 0.00858744 0.00725128 0.00591513 0.00446532 0.00301551 0.00150775 -1.55504e-17 0 -0.00178558 -0.00357116 -0.00528812 -0.00700508 -0.00858744 -0.0101698 -0.0115567 -0.0129437 -0.0140819 -0.0152202 -0.016066 -0.0169118 -0.0174326 -0.0179534 -0.0181293 -0.0183051 -0.0181293 -0.0179534 -0.0174326 -0.0169118 -0.016066 -0.0152202 -0.0140819 -0.0129437 -0.0115567 -0.0101698 -0.00858744 -0.00700508 -0.00528812 -0.00357116 -0.00178558 6.36738e-17 0.00178558 0.00357116 0.00528812 0.00700508 0.00858744 0.0101698 0.0115567 0.0129437 0.0140819 0.0152202 0.016066 0.0169118 0.0174326 0.0179534 0.0181293 0.0183051 0.0181293 0.0179534 0.0174326 0.0169118 0.016066 0.0152202 0.0140819 0.0129437 0.0115567 0.0101698 0.00858744 0.00700508 0.00528812 0.00357116 0.00178558 -1.84158e-17 0 -0.00202909 -0.00405819 -0.00600931 -0.00796042 -0.00975858 -0.0115567 -0.0131328 -0.0147089 -0.0160024 -0.0172959 -0.018257 -0.0192182 -0.01981 -0.0204019 -0.0206017 -0.0208016 -0.0206017 -0.0204019 -0.01981 -0.0192182 -0.018257 -0.0172959 -0.0160024 -0.0147089 -0.0131328 -0.0115567 -0.00975858 -0.00796042 -0.00600931 -0.00405819 -0.00202909 6.07697e-17 0.00202909 0.00405819 0.00600931 0.00796042 0.00975858 0.0115567 0.0131328 0.0147089 0.0160024 0.0172959 0.018257 0.0192182 0.01981 0.0204019 0.0206017 0.0208016 0.0206017 0.0204019 0.01981 0.0192182 0.018257 0.0172959 0.0160024 0.0147089 0.0131328 0.0115567 0.00975858 0.00796042 0.00600931 0.00405819 0.00202909 -2.09273e-17 0 -0.00227261 -0.00454522 -0.0067305 -0.00891577 -0.0109297 -0.0129437 -0.0147089 -0.0164742 -0.0179229 -0.0193716 -0.0204481 -0.0215246 -0.0221875 -0.0228504 -0.0230742 -0.023298 -0.0230742 -0.0228504 -0.0221875 -0.0215246 -0.0204481 -0.0193716 -0.0179229 -0.0164742 -0.0147089 -0.0129437 -0.0109297 -0.00891577 -0.0067305 -0.00454522 -0.00227261 5.78656e-17 0.00227261 0.00454522 0.0067305 0.00891577 0.0109297 0.0129437 0.0147089 0.0164742 0.0179229 0.0193716 0.0204481 0.0215246 0.0221875 0.0228504 0.0230742 0.023298 0.0230742 0.0228504 0.0221875 0.0215246 0.0204481 0.0193716 0.0179229 0.0164742 0.0147089 0.0129437 0.0109297 0.00891577 0.0067305 0.00454522 0.00227261 -2.34389e-17 0 -0.00247246 -0.00494492 -0.00732236 -0.0096998 -0.0118909 -0.0140819 -0.0160024 -0.0179229 -0.019499 -0.0210751 -0.0222463 -0.0234174 -0.0241386 -0.0248598 -0.0251033 -0.0253468 -0.0251033 -0.0248598 -0.0241386 -0.0234174 -0.0222463 -0.0210751 -0.019499 -0.0179229 -0.0160024 -0.0140819 -0.0118909 -0.0096998 -0.00732236 -0.00494492 -0.00247246 1.91675e-17 0.00247246 0.00494492 0.00732236 0.0096998 0.0118909 0.0140819 0.0160024 0.0179229 0.019499 0.0210751 0.0222463 0.0234174 0.0241386 0.0248598 0.0251033 0.0253468 0.0251033 0.0248598 0.0241386 0.0234174 0.0222463 0.0210751 0.019499 0.0179229 0.0160024 0.0140819 0.0118909 0.0096998 0.00732236 0.00494492 0.00247246 -2.55e-17 0 -0.00267231 -0.00534461 -0.00791423 -0.0104838 -0.012852 -0.0152202 -0.0172959 -0.0193716 -0.0210751 -0.0227786 -0.0240444 -0.0253102 -0.0260897 -0.0268692 -0.0271324 -0.0273956 -0.0271324 -0.0268692 -0.0260897 -0.0253102 -0.0240444 -0.0227786 -0.0210751 -0.0193716 -0.0172959 -0.0152202 -0.012852 -0.0104838 -0.00791423 -0.00534461 -0.00267231 -1.95306e-17 0.00267231 0.00534461 0.00791423 0.0104838 0.012852 0.0152202 0.0172959 0.0193716 0.0210751 0.0227786 0.0240444 0.0253102 0.0260897 0.0268692 0.0271324 0.0273956 0.0271324 0.0268692 0.0260897 0.0253102 0.0240444 0.0227786 0.0210751 0.0193716 0.0172959 0.0152202 0.012852 0.0104838 0.00791423 0.00534461 0.00267231 -2.75612e-17 0 -0.00282081 -0.00564162 -0.00835402 -0.0110664 -0.0135662 -0.016066 -0.018257 -0.0204481 -0.0222463 -0.0240444 -0.0253806 -0.0267167 -0.0275395 -0.0283623 -0.0286401 -0.028918 -0.0286401 -0.0283623 -0.0275395 -0.0267167 -0.0253806 -0.0240444 -0.0222463 -0.0204481 -0.018257 -0.016066 -0.0135662 -0.0110664 -0.00835402 -0.00564162 -0.00282081 -4.13952e-17 0.00282081 0.00564162 0.00835402 0.0110664 0.0135662 0.016066 0.018257 0.0204481 0.0222463 0.0240444 0.0253806 0.0267167 0.0275395 0.0283623 0.0286401 0.028918 0.0286401 0.0283623 0.0275395 0.0267167 0.0253806 0.0240444 0.0222463 0.0204481 0.018257 0.016066 0.0135662 0.0110664 0.00835402 0.00564162 0.00282081 -2.90928e-17 0 -0.00296931 -0.00593862 -0.00879382 -0.011649 -0.0142804 -0.0169118 -0.0192182 -0.0215246 -0.0234174 -0.0253102 -0.0267167 -0.0281232 -0.0289893 -0.0298554 -0.0301479 -0.0304403 -0.0301479 -0.0298554 -0.0289893 -0.0281232 -0.0267167 -0.0253102 -0.0234174 -0.0215246 -0.0192182 -0.0169118 -0.0142804 -0.011649 -0.00879382 -0.00593862 -0.00296931 -6.32598e-17 0.00296931 0.00593862 0.00879382 0.011649 0.0142804 0.0169118 0.0192182 0.0215246 0.0234174 0.0253102 0.0267167 0.0281232 0.0289893 0.0298554 0.0301479 0.0304403 0.0301479 0.0298554 0.0289893 0.0281232 0.0267167 0.0253102 0.0234174 0.0215246 0.0192182 0.0169118 0.0142804 0.011649 0.00879382 0.00593862 0.00296931 -3.06244e-17 0 -0.00306075 -0.00612151 -0.00906464 -0.0120078 -0.0147202 -0.0174326 -0.01981 -0.0221875 -0.0241386 -0.0260897 -0.0275395 -0.0289893 -0.0298821 -0.0307749 -0.0310764 -0.0313778 -0.0310764 -0.0307749 -0.0298821 -0.0289893 -0.0275395 -0.0260897 -0.0241386 -0.0221875 -0.01981 -0.0174326 -0.0147202 -0.0120078 -0.00906464 -0.00612151 -0.00306075 -8.42304e-17 0.00306075 0.00612151 0.00906464 0.0120078 0.0147202 0.0174326 0.01981 0.0221875 0.0241386 0.0260897 0.0275395 0.0289893 0.0298821 0.0307749 0.0310764 0.0313778 0.0310764 0.0307749 0.0298821 0.0289893 0.0275395 0.0260897 0.0241386 0.0221875 0.01981 0.0174326 0.0147202 0.0120078 0.00906464 0.00612151 0.00306075 -3.15675e-17 0 -0.0031522 -0.0063044 -0.00933547 -0.0123665 -0.01516 -0.0179534 -0.0204019 -0.0228504 -0.0248598 -0.0268692 -0.0283623 -0.0298554 -0.0307749 -0.0316944 -0.0320048 -0.0323153 -0.0320048 -0.0316944 -0.0307749 -0.0298554 -0.0283623 -0.0268692 -0.0248598 -0.0228504 -0.0204019 -0.0179534 -0.01516 -0.0123665 -0.00933547 -0.0063044 -0.0031522 -1.05201e-16 0.0031522 0.0063044 0.00933547 0.0123665 0.01516 0.0179534 0.0204019 0.0228504 0.0248598 0.0268692 0.0283623 0.0298554 0.0307749 0.0316944 0.0320048 0.0323153 0.0320048 0.0316944 0.0307749 0.0298554 0.0283623 0.0268692 0.0248598 0.0228504 0.0204019 0.0179534 0.01516 0.0123665 0.00933547 0.0063044 0.0031522 -3.25107e-17 0 -0.00318308 -0.00636616 -0.00942691 -0.0124877 -0.0153085 -0.0181293 -0.0206017 -0.0230742 -0.0251033 -0.0271324 -0.0286401 -0.0301479 -0.0310764 -0.0320048 -0.0323183 -0.0326318 -0.0323183 -0.0320048 -0.0310764 -0.0301479 -0.0286401 -0.0271324 -0.0251033 -0.0230742 -0.0206017 -0.0181293 -0.0153085 -0.0124877 -0.00942691 -0.00636616 -0.00318308 -1.04615e-16 0.00318308 0.00636616 0.00942691 0.0124877 0.0153085 0.0181293 0.0206017 0.0230742 0.0251033 0.0271324 0.0286401 0.0301479 0.0310764 0.0320048 0.0323183 0.0326318 0.0323183 0.0320048 0.0310764 0.0301479 0.0286401 0.0271324 0.0251033 0.0230742 0.0206017 0.0181293 0.0153085 0.0124877 0.00942691 0.00636616 0.00318308 -3.28291e-17 0 -0.00321396 -0.00642791 -0.00951836 -0.0126088 -0.015457 -0.0183051 -0.0208016 -0.023298 -0.0253468 -0.0273956 -0.028918 -0.0304403 -0.0313778 -0.0323153 -0.0326318 -0.0329484 -0.0326318 -0.0323153 -0.0313778 -0.0304403 -0.028918 -0.0273956 -0.0253468 -0.023298 -0.0208016 -0.0183051 -0.015457 -0.0126088 -0.00951836 -0.00642791 -0.00321396 -1.04029e-16 0.00321396 0.00642791 0.00951836 0.0126088 0.015457 0.0183051 0.0208016 0.023298 0.0253468 0.0273956 0.028918 0.0304403 0.0313778 0.0323153 0.0326318 0.0329484 0.0326318 0.0323153 0.0313778 0.0304403 0.028918 0.0273956 0.0253468 0.023298 0.0208016 0.0183051 0.015457 0.0126088 0.00951836 0.00642791 0.00321396 -3.31476e-17 0 -0.00318308 -0.00636616 -0.00942691 -0.0124877 -0.0153085 -0.0181293 -0.0206017 -0.0230742 -0.0251033 -0.0271324 -0.0286401 -0.0301479 -0.0310764 -0.0320048 -0.0323183 -0.0326318 -0.0323183 -0.0320048 -0.0310764 -0.0301479 -0.0286401 -0.0271324 -0.0251033 -0.0230742 -0.0206017 -0.0181293 -0.0153085 -0.0124877 -0.00942691 -0.00636616 -0.00318308 -7.078e-17 0.00318308 0.00636616 0.00942691 0.0124877 0.0153085 0.0181293 0.0206017 0.0230742 0.0251033 0.0271324 0.0286401 0.0301479 0.0310764 0.0320048 0.0323183 0.0326318 0.0323183 0.0320048 0.0310764 0.0301479 0.0286401 0.0271324 0.0251033 0.0230742 0.0206017 0.0181293 0.0153085 0.0124877 0.00942691 0.00636616 0.00318308 -3.28291e-17 0 -0.0031522 -0.0063044 -0.00933547 -0.0123665 -0.01516 -0.0179534 -0.0204019 -0.0228504 -0.0248598 -0.0268692 -0.0283623 -0.0298554 -0.0307749 -0.0316944 -0.0320048 -0.0323153 -0.0320048 -0.0316944 -0.0307749 -0.0298554 -0.0283623 -0.0268692 -0.0248598 -0.0228504 -0.0204019 -0.0179534 -0.01516 -0.0123665 -0.00933547 -0.0063044 -0.0031522 -3.75308e-17 0.0031522 0.0063044 0.00933547 0.0123665 0.01516 0.0179534 0.0204019 0.0228504 0.0248598 0.0268692 0.0283623 0.0298554 0.0307749 0.0316944 0.0320048 0.0323153 0.0320048 0.0316944 0.0307749 0.0298554 0.0283623 0.0268692 0.0248598 0.0228504 0.0204019 0.0179534 0.01516 0.0123665 0.00933547 0.0063044 0.0031522 -3.25107e-17 0 -0.00306075 -0.00612151 -0.00906464 -0.0120078 -0.0147202 -0.0174326 -0.01981 -0.0221875 -0.0241386 -0.0260897 -0.0275395 -0.0289893 -0.0298821 -0.0307749 -0.0310764 -0.0313778 -0.0310764 -0.0307749 -0.0298821 -0.0289893 -0.0275395 -0.0260897 -0.0241386 -0.0221875 -0.01981 -0.0174326 -0.0147202 -0.0120078 -0.00906464 -0.00612151 -0.00306075 -1.13717e-17 0.00306075 0.00612151 0.00906464 0.0120078 0.0147202 0.0174326 0.01981 0.0221875 0.0241386 0.0260897 0.0275395 0.0289893 0.0298821 0.0307749 0.0310764 0.0313778 0.0310764 0.0307749 0.0298821 0.0289893 0.0275395 0.0260897 0.0241386 0.0221875 0.01981 0.0174326 0.0147202 0.0120078 0.00906464 0.00612151 0.00306075 -3.15675e-17 0 -0.00296931 -0.00593862 -0.00879382 -0.011649 -0.0142804 -0.0169118 -0.0192182 -0.0215246 -0.0234174 -0.0253102 -0.0267167 -0.0281232 -0.0289893 -0.0298554 -0.0301479 -0.0304403 -0.0301479 -0.0298554 -0.0289893 -0.0281232 -0.0267167 -0.0253102 -0.0234174 -0.0215246 -0.0192182 -0.0169118 -0.0142804 -0.011649 -0.00879382 -0.00593862 -0.00296931 1.47873e-17 0.00296931 0.00593862 0.00879382 0.011649 0.0142804 0.0169118 0.0192182 0.0215246 0.0234174 0.0253102 0.0267167 0.0281232 0.0289893 0.0298554 0.0301479 0.0304403 0.0301479 0.0298554 0.0289893 0.0281232 0.0267167 0.0253102 0.0234174 0.0215246 0.0192182 0.0169118 0.0142804 0.011649 0.00879382 0.00593862 0.00296931 -3.06244e-17 0 -0.00282081 -0.00564162 -0.00835402 -0.0110664 -0.0135662 -0.016066 -0.018257 -0.0204481 -0.0222463 -0.0240444 -0.0253806 -0.0267167 -0.0275395 -0.0283623 -0.0286401 -0.028918 -0.0286401 -0.0283623 -0.0275395 -0.0267167 -0.0253806 -0.0240444 -0.0222463 -0.0204481 -0.018257 -0.016066 -0.0135662 -0.0110664 -0.00835402 -0.00564162 -0.00282081 2.77936e-17 0.00282081 0.00564162 0.00835402 0.0110664 0.0135662 0.016066 0.018257 0.0204481 0.0222463 0.0240444 0.0253806 0.0267167 0.0275395 0.0283623 0.0286401 0.028918 0.0286401 0.0283623 0.0275395 0.0267167 0.0253806 0.0240444 0.0222463 0.0204481 0.018257 0.016066 0.0135662 0.0110664 0.00835402 0.00564162 0.00282081 -2.90928e-17 0 -0.00267231 -0.00534461 -0.00791423 -0.0104838 -0.012852 -0.0152202 -0.0172959 -0.0193716 -0.0210751 -0.0227786 -0.0240444 -0.0253102 -0.0260897 -0.0268692 -0.0271324 -0.0273956 -0.0271324 -0.0268692 -0.0260897 -0.0253102 -0.0240444 -0.0227786 -0.0210751 -0.0193716 -0.0172959 -0.0152202 -0.012852 -0.0104838 -0.00791423 -0.00534461 -0.00267231 4.07998e-17 0.00267231 0.00534461 0.00791423 0.0104838 0.012852 0.0152202 0.0172959 0.0193716 0.0210751 0.0227786 0.0240444 0.0253102 0.0260897 0.0268692 0.0271324 0.0273956 0.0271324 0.0268692 0.0260897 0.0253102 0.0240444 0.0227786 0.0210751 0.0193716 0.0172959 0.0152202 0.012852 0.0104838 0.00791423 0.00534461 0.00267231 -2.75612e-17 0 -0.00247246 -0.00494492 -0.00732236 -0.0096998 -0.0118909 -0.0140819 -0.0160024 -0.0179229 -0.019499 -0.0210751 -0.0222463 -0.0234174 -0.0241386 -0.0248598 -0.0251033 -0.0253468 -0.0251033 -0.0248598 -0.0241386 -0.0234174 -0.0222463 -0.0210751 -0.019499 -0.0179229 -0.0160024 -0.0140819 -0.0118909 -0.0096998 -0.00732236 -0.00494492 -0.00247246 2.58329e-17 0.00247246 0.00494492 0.00732236 0.0096998 0.0118909 0.0140819 0.0160024 0.0179229 0.019499 0.0210751 0.0222463 0.0234174 0.0241386 0.0248598 0.0251033 0.0253468 0.0251033 0.0248598 0.0241386 0.0234174 0.0222463 0.0210751 0.019499 0.0179229 0.0160024 0.0140819 0.0118909 0.0096998 0.00732236 0.00494492 0.00247246 -2.55e-17 0 -0.00227261 -0.00454522 -0.0067305 -0.00891577 -0.0109297 -0.0129437 -0.0147089 -0.0164742 -0.0179229 -0.0193716 -0.0204481 -0.0215246 -0.0221875 -0.0228504 -0.0230742 -0.023298 -0.0230742 -0.0228504 -0.0221875 -0.0215246 -0.0204481 -0.0193716 -0.0179229 -0.0164742 -0.0147089 -0.0129437 -0.0109297 -0.00891577 -0.0067305 -0.00454522 -0.00227261 1.08659e-17 0.00227261 0.00454522 0.0067305 0.00891577 0.0109297 0.0129437 0.0147089 0.0164742 0.0179229 0.0193716 0.0204481 0.0215246 0.0221875 0.0228504 0.0230742 0.023298 0.0230742 0.0228504 0.0221875 0.0215246 0.0204481 0.0193716 0.0179229 0.0164742 0.0147089 0.0129437 0.0109297 0.00891577 0.0067305 0.00454522 0.00227261 -2.34389e-17 0 -0.00202909 -0.00405819 -0.00600931 -0.00796042 -0.00975858 -0.0115567 -0.0131328 -0.0147089 -0.0160024 -0.0172959 -0.018257 -0.0192182 -0.01981 -0.0204019 -0.0206017 -0.0208016 -0.0206017 -0.0204019 -0.01981 -0.0192182 -0.018257 -0.0172959 -0.0160024 -0.0147089 -0.0131328 -0.0115567 -0.00975858 -0.00796042 -0.00600931 -0.00405819 -0.00202909 -1.5086e-17 0.00202909 0.00405819 0.00600931 0.00796042 0.00975858 0.0115567 0.0131328 0.0147089 0.0160024 0.0172959 0.018257 0.0192182 0.01981 0.0204019 0.0206017 0.0208016 0.0206017 0.0204019 0.01981 0.0192182 0.018257 0.0172959 0.0160024 0.0147089 0.0131328 0.0115567 0.00975858 0.00796042 0.00600931 0.00405819 0.00202909 -2.09273e-17 0 -0.00178558 -0.00357116 -0.00528812 -0.00700508 -0.00858744 -0.0101698 -0.0115567 -0.0129437 -0.0140819 -0.0152202 -0.016066 -0.0169118 -0.0174326 -0.0179534 -0.0181293 -0.0183051 -0.0181293 -0.0179534 -0.0174326 -0.0169118 -0.016066 -0.0152202 -0.0140819 -0.0129437 -0.0115567 -0.0101698 -0.00858744 -0.00700508 -0.00528812 -0.00357116 -0.00178558 -4.10378e-17 0.00178558 0.00357116 0.00528812 0.00700508 0.00858744 0.0101698 0.0115567 0.0129437 0.0140819 0.0152202 0.016066 0.0169118 0.0174326 0.0179534 0.0181293 0.0183051 0.0181293 0.0179534 0.0174326 0.0169118 0.016066 0.0152202 0.0140819 0.0129437 0.0115567 0.0101698 0.00858744 0.00700508 0.00528812 0.00357116 0.00178558 -1.84158e-17 0 -0.00150775 -0.00301551 -0.00446532 -0.00591513 -0.00725128 -0.00858744 -0.00975858 -0.0109297 -0.0118909 -0.012852 -0.0135662 -0.0142804 -0.0147202 -0.01516 -0.0153085 -0.015457 -0.0153085 -0.01516 -0.0147202 -0.0142804 -0.0135662 -0.012852 -0.0118909 -0.0109297 -0.00975858 -0.00858744 -0.00725128 -0.00591513 -0.00446532 -0.00301551 -0.00150775 -3.90007e-17 0.00150775 0.00301551 0.00446532 0.00591513 0.00725128 0.00858744 0.00975858 0.0109297 0.0118909 0.012852 0.0135662 0.0142804 0.0147202 0.01516 0.0153085 0.015457 0.0153085 0.01516 0.0147202 0.0142804 0.0135662 0.012852 0.0118909 0.0109297 0.00975858 0.00858744 0.00725128 0.00591513 0.00446532 0.00301551 0.00150775 -1.55504e-17 0 -0.00122993 -0.00245986 -0.00364252 -0.00482518 -0.00591513 -0.00700508 -0.00796042 -0.00891577 -0.0096998 -0.0104838 -0.0110664 -0.011649 -0.0120078 -0.0123665 -0.0124877 -0.0126088 -0.0124877 -0.0123665 -0.0120078 -0.011649 -0.0110664 -0.0104838 -0.0096998 -0.00891577 -0.00796042 -0.00700508 -0.00591513 -0.00482518 -0.00364252 -0.00245986 -0.00122993 -3.69636e-17 0.00122993 0.00245986 0.00364252 0.00482518 0.00591513 0.00700508 0.00796042 0.00891577 0.0096998 0.0104838 0.0110664 0.011649 0.0120078 0.0123665 0.0124877 0.0126088 0.0124877 0.0123665 0.0120078 0.011649 0.0110664 0.0104838 0.0096998 0.00891577 0.00796042 0.00700508 0.00591513 0.00482518 0.00364252 0.00245986 0.00122993 -1.2685e-17 0 -0.00092847 -0.00185694 -0.00274973 -0.00364252 -0.00446532 -0.00528812 -0.00600931 -0.0067305 -0.00732236 -0.00791423 -0.00835402 -0.00879382 -0.00906464 -0.00933547 -0.00942691 -0.00951836 -0.00942691 -0.00933547 -0.00906464 -0.00879382 -0.00835402 -0.00791423 -0.00732236 -0.0067305 -0.00600931 -0.00528812 -0.00446532 -0.00364252 -0.00274973 -0.00185694 -0.00092847 -2.16047e-17 0.00092847 0.00185694 0.00274973 0.00364252 0.00446532 0.00528812 0.00600931 0.0067305 0.00732236 0.00791423 0.00835402 0.00879382 0.00906464 0.00933547 0.00942691 0.00951836 0.00942691 0.00933547 0.00906464 0.00879382 0.00835402 0.00791423 0.00732236 0.0067305 0.00600931 0.00528812 0.00446532 0.00364252 0.00274973 0.00185694 0.00092847 -9.5759e-18 0 -0.000627012 -0.00125402 -0.00185694 -0.00245986 -0.00301551 -0.00357116 -0.00405819 -0.00454522 -0.00494492 -0.00534461 -0.00564162 -0.00593862 -0.00612151 -0.0063044 -0.00636616 -0.00642791 -0.00636616 -0.0063044 -0.00612151 -0.00593862 -0.00564162 -0.00534461 -0.00494492 -0.00454522 -0.00405819 -0.00357116 -0.00301551 -0.00245986 -0.00185694 -0.00125402 -0.000627012 -6.24579e-18 0.000627012 0.00125402 0.00185694 0.00245986 0.00301551 0.00357116 0.00405819 0.00454522 0.00494492 0.00534461 0.00564162 0.00593862 0.00612151 0.0063044 0.00636616 0.00642791 0.00636616 0.0063044 0.00612151 0.00593862 0.00564162 0.00534461 0.00494492 0.00454522 0.00405819 0.00357116 0.00301551 0.00245986 0.00185694 0.00125402 0.000627012 -6.46677e-18 0 -0.000313506 -0.000627012 -0.00092847 -0.00122993 -0.00150775 -0.00178558 -0.00202909 -0.00227261 -0.00247246 -0.00267231 -0.00282081 -0.00296931 -0.00306075 -0.0031522 -0.00318308 -0.00321396 -0.00318308 -0.0031522 -0.00306075 -0.00296931 -0.00282081 -0.00267231 -0.00247246 -0.00227261 -0.00202909 -0.00178558 -0.00150775 -0.00122993 -0.00092847 -0.000627012 -0.000313506 1.41902e-17 0.000313506 0.000627012 0.00092847 0.00122993 0.00150775 0.00178558 0.00202909 0.00227261 0.00247246 0.00267231 0.00282081 0.00296931 0.00306075 0.0031522 0.00318308 0.00321396 0.00318308 0.0031522 0.00306075 0.00296931 0.00282081 0.00267231 0.00247246 0.00227261 0.00202909 0.00178558 0.00150775 0.00122993 0.00092847 0.000627012 0.000313506 -3.23339e-18 0 -1.18589e-17 -2.37179e-17 -2.16451e-17 -1.95723e-17 -2.7819e-18 1.40085e-17 5.14566e-17 8.89048e-17 1.1356e-16 1.38215e-16 1.39087e-16 1.39958e-16 7.09547e-17 1.95114e-18 4.7243e-17 9.25349e-17 7.80964e-17 6.3658e-17 8.85635e-17 1.13469e-16 1.22033e-16 1.30597e-16 7.53366e-17 2.00759e-17 6.26273e-17 1.05179e-16 8.20299e-17 5.88813e-17 5.35889e-17 4.82964e-17 4.14613e-17 3.46262e-17 3.75027e-17 4.03792e-17 3.95601e-17 3.87411e-17 5.58981e-17 7.30552e-17 7.05817e-17 6.81081e-17 3.08912e-17 -6.32566e-18 -2.66686e-17 -4.70114e-17 -6.69822e-17 -8.69529e-17 -9.48714e-17 -1.0279e-16 -8.30153e-17 -6.32407e-17 -7.91161e-18 4.74175e-17 3.98394e-17 3.22614e-17 -5.2643e-18 -4.279e-17 -4.71536e-17 -5.15173e-17 -7.08245e-17 -9.01318e-17 -7.20478e-17 -5.39638e-17 -2.69819e-17 -4.05941e-33 0 0.000313506 0.000627012 0.00092847 0.00122993 0.00150775 0.00178558 0.00202909 0.00227261 0.00247246 0.00267231 0.00282081 0.00296931 0.00306075 0.0031522 0.00318308 0.00321396 0.00318308 0.0031522 0.00306075 0.00296931 0.00282081 0.00267231 0.00247246 0.00227261 0.00202909 0.00178558 0.00150775 0.00122993 0.00092847 0.000627012 0.000313506 5.32835e-17 -0.000313506 -0.000627012 -0.00092847 -0.00122993 -0.00150775 -0.00178558 -0.00202909 -0.00227261 -0.00247246 -0.00267231 -0.00282081 -0.00296931 -0.00306075 -0.0031522 -0.00318308 -0.00321396 -0.00318308 -0.0031522 -0.00306075 -0.00296931 -0.00282081 -0.00267231 -0.00247246 -0.00227261 -0.00202909 -0.00178558 -0.00150775 -0.00122993 -0.00092847 -0.000627012 -0.000313506 3.23339e-18 0 0.000627012 0.00125402 0.00185694 0.00245986 0.00301551 0.00357116 0.00405819 0.00454522 0.00494492 0.00534461 0.00564162 0.00593862 0.00612151 0.0063044 0.00636616 0.00642791 0.00636616 0.0063044 0.00612151 0.00593862 0.00564162 0.00534461 0.00494492 0.00454522 0.00405819 0.00357116 0.00301551 0.00245986 0.00185694 0.00125402 0.000627012 7.19407e-17 -0.000627012 -0.00125402 -0.00185694 -0.00245986 -0.00301551 -0.00357116 -0.00405819 -0.00454522 -0.00494492 -0.00534461 -0.00564162 -0.00593862 -0.00612151 -0.0063044 -0.00636616 -0.00642791 -0.00636616 -0.0063044 -0.00612151 -0.00593862 -0.00564162 -0.00534461 -0.00494492 -0.00454522 -0.00405819 -0.00357116 -0.00301551 -0.00245986 -0.00185694 -0.00125402 -0.000627012 6.46677e-18 0 0.00092847 0.00185694 0.00274973 0.00364252 0.00446532 0.00528812 0.00600931 0.0067305 0.00732236 0.00791423 0.00835402 0.00879382 0.00906464 0.00933547 0.00942691 0.00951836 0.00942691 0.00933547 0.00906464 0.00879382 0.00835402 0.00791423 0.00732236 0.0067305 0.00600931 0.00528812 0.00446532 0.00364252 0.00274973 0.00185694 0.00092847 9.05839e-17 -0.00092847 -0.00185694 -0.00274973 -0.00364252 -0.00446532 -0.00528812 -0.00600931 -0.0067305 -0.00732236 -0.00791423 -0.00835402 -0.00879382 -0.00906464 -0.00933547 -0.00942691 -0.00951836 -0.00942691 -0.00933547 -0.00906464 -0.00879382 -0.00835402 -0.00791423 -0.00732236 -0.0067305 -0.00600931 -0.00528812 -0.00446532 -0.00364252 -0.00274973 -0.00185694 -0.00092847 9.5759e-18 0 0.00122993 0.00245986 0.00364252 0.00482518 0.00591513 0.00700508 0.00796042 0.00891577 0.0096998 0.0104838 0.0110664 0.011649 0.0120078 0.0123665 0.0124877 0.0126088 0.0124877 0.0123665 0.0120078 0.011649 0.0110664 0.0104838 0.0096998 0.00891577 0.00796042 0.00700508 0.00591513 0.00482518 0.00364252 0.00245986 0.00122993 1.09227e-16 -0.00122993 -0.00245986 -0.00364252 -0.00482518 -0.00591513 -0.00700508 -0.00796042 -0.00891577 -0.0096998 -0.0104838 -0.0110664 -0.011649 -0.0120078 -0.0123665 -0.0124877 -0.0126088 -0.0124877 -0.0123665 -0.0120078 -0.011649 -0.0110664 -0.0104838 -0.0096998 -0.00891577 -0.00796042 -0.00700508 -0.00591513 -0.00482518 -0.00364252 -0.00245986 -0.00122993 1.2685e-17 0 0.00150775 0.00301551 0.00446532 0.00591513 0.00725128 0.00858744 0.00975858 0.0109297 0.0118909 0.012852 0.0135662 0.0142804 0.0147202 0.01516 0.0153085 0.015457 0.0153085 0.01516 0.0147202 0.0142804 0.0135662 0.012852 0.0118909 0.0109297 0.00975858 0.00858744 0.00725128 0.00591513 0.00446532 0.00301551 0.00150775 1.2802e-16 -0.00150775 -0.00301551 -0.00446532 -0.00591513 -0.00725128 -0.00858744 -0.00975858 -0.0109297 -0.0118909 -0.012852 -0.0135662 -0.0142804 -0.0147202 -0.01516 -0.0153085 -0.015457 -0.0153085 -0.01516 -0.0147202 -0.0142804 -0.0135662 -0.012852 -0.0118909 -0.0109297 -0.00975858 -0.00858744 -0.00725128 -0.00591513 -0.00446532 -0.00301551 -0.00150775 1.55504e-17 0 0.00178558 0.00357116 0.00528812 0.00700508 0.00858744 0.0101698 0.0115567 0.0129437 0.0140819 0.0152202 0.016066 0.0169118 0.0174326 0.0179534 0.0181293 0.0183051 0.0181293 0.0179534 0.0174326 0.0169118 0.016066 0.0152202 0.0140819 0.0129437 0.0115567 0.0101698 0.00858744 0.00700508 0.00528812 0.00357116 0.00178558 1.46813e-16 -0.00178558 -0.00357116 -0.00528812 -0.00700508 -0.00858744 -0.0101698 -0.0115567 -0.0129437 -0.0140819 -0.0152202 -0.016066 -0.0169118 -0.0174326 -0.0179534 -0.0181293 -0.0183051 -0.0181293 -0.0179534 -0.0174326 -0.0169118 -0.016066 -0.0152202 -0.0140819 -0.0129437 -0.0115567 -0.0101698 -0.00858744 -0.00700508 -0.00528812 -0.00357116 -0.00178558 1.84158e-17 0 0.00202909 0.00405819 0.00600931 0.00796042 0.00975858 0.0115567 0.0131328 0.0147089 0.0160024 0.0172959 0.018257 0.0192182 0.01981 0.0204019 0.0206017 0.0208016 0.0206017 0.0204019 0.01981 0.0192182 0.018257 0.0172959 0.0160024 0.0147089 0.0131328 0.0115567 0.00975858 0.00796042 0.00600931 0.00405819 0.00202909 1.59911e-16 -0.00202909 -0.00405819 -0.00600931 -0.00796042 -0.00975858 -0.0115567 -0.0131328 -0.0147089 -0.0160024 -0.0172959 -0.018257 -0.0192182 -0.01981 -0.0204019 -0.0206017 -0.0208016 -0.0206017 -0.0204019 -0.01981 -0.0192182 -0.018257 -0.0172959 -0.0160024 -0.0147089 -0.0131328 -0.0115567 -0.00975858 -0.00796042 -0.00600931 -0.00405819 -0.00202909 2.09273e-17 0 0.00227261 0.00454522 0.0067305 0.00891577 0.0109297 0.0129437 0.0147089 0.0164742 0.0179229 0.0193716 0.0204481 0.0215246 0.0221875 0.0228504 0.0230742 0.023298 0.0230742 0.0228504 0.0221875 0.0215246 0.0204481 0.0193716 0.0179229 0.0164742 0.0147089 0.0129437 0.0109297 0.00891577 0.0067305 0.00454522 0.00227261 1.73008e-16 -0.00227261 -0.00454522 -0.0067305 -0.00891577 -0.0109297 -0.0129437 -0.0147089 -0.0164742 -0.0179229 -0.0193716 -0.0204481 -0.0215246 -0.0221875 -0.0228504 -0.0230742 -0.023298 -0.0230742 -0.0228504 -0.0221875 -0.0215246 -0.0204481 -0.0193716 -0.0179229 -0.0164742 -0.0147089 -0.0129437 -0.0109297 -0.00891577 -0.0067305 -0.00454522 -0.00227261 2.34389e-17 0 0.00247246 0.00494492 0.00732236 0.0096998 0.0118909 0.0140819 0.0160024 0.0179229 0.019499 0.0210751 0.0222463 0.0234174 0.0241386 0.0248598 0.0251033 0.0253468 0.0251033 0.0248598 0.0241386 0.0234174 0.0222463 0.0210751 0.019499 0.0179229 0.0160024 0.0140819 0.0118909 0.0096998 0.00732236 0.00494492 0.00247246 1.81069e-16 -0.00247246 -0.00494492 -0.00732236 -0.0096998 -0.0118909 -0.0140819 -0.0160024 -0.0179229 -0.019499 -0.0210751 -0.0222463 -0.0234174 -0.0241386 -0.0248598 -0.0251033 -0.0253468 -0.0251033 -0.0248598 -0.0241386 -0.0234174 -0.0222463 -0.0210751 -0.019499 -0.0179229 -0.0160024 -0.0140819 -0.0118909 -0.0096998 -0.00732236 -0.00494492 -0.00247246 2.55e-17 0 0.00267231 0.00534461 0.00791423 0.0104838 0.012852 0.0152202 0.0172959 0.0193716 0.0210751 0.0227786 0.0240444 0.0253102 0.0260897 0.0268692 0.0271324 0.0273956 0.0271324 0.0268692 0.0260897 0.0253102 0.0240444 0.0227786 0.0210751 0.0193716 0.0172959 0.0152202 0.012852 0.0104838 0.00791423 0.00534461 0.00267231 1.89131e-16 -0.00267231 -0.00534461 -0.00791423 -0.0104838 -0.012852 -0.0152202 -0.0172959 -0.0193716 -0.0210751 -0.0227786 -0.0240444 -0.0253102 -0.0260897 -0.0268692 -0.0271324 -0.0273956 -0.0271324 -0.0268692 -0.0260897 -0.0253102 -0.0240444 -0.0227786 -0.0210751 -0.0193716 -0.0172959 -0.0152202 -0.012852 -0.0104838 -0.00791423 -0.00534461 -0.00267231 2.75612e-17 0 0.00282081 0.00564162 0.00835402 0.0110664 0.0135662 0.016066 0.018257 0.0204481 0.0222463 0.0240444 0.0253806 0.0267167 0.0275395 0.0283623 0.0286401 0.028918 0.0286401 0.0283623 0.0