<?xml version="1.0"?> 
<VTKFile type="StructuredGrid" version="0.1"> 
<StructuredGrid WholeExtent="0 64 0 64 0 0"> 
<Piece Extent="0 64 0 64 0 0"> 
<PointData>
<DataArray type="Float32" Name="u" format="ascii" NumberOfComponents="1"> 
0 0 0 0 0 0 0 0 0 0 0 0 0 0 0 0 0 0 0 0 0 0 0 0 0 0 0 0 0 0 0 0 0 0 -0 -0 -0 -0 -0 -0 -0 -0 -0 -0 -0 -0 -0 -0 -0 -0 -0 -0 -0 -0 -0 -0 -0 -0 -0 -0 -0 -0 -0 -0 -0 0 0.000769632 0.00153926 0.00227932 0.00301938 0.00370142 0.00438346 0.00498127 0.00557908 0.00606969 0.0065603 0.00692486 0.00728942 0.00751391 0.00773841 0.00781421 0.00789001 0.00781421 0.00773841 0.00751391 0.00728942 0.00692486 0.0065603 0.00606969 0.00557908 0.00498127 0.00438346 0.00370142 0.00301938 0.00227932 0.00153926 0.000769632 -1.74412e-17 -0.000769632 -0.00153926 -0.00227932 -0.00301938 -0.00370142 -0.00438346 -0.00498127 -0.00557908 -0.00606969 -0.0065603 -0.00692486 -0.00728942 -0.00751391 -0.00773841 -0.00781421 -0.00789001 -0.00781421 -0.00773841 -0.00751391 -0.00728942 -0.00692486 -0.0065603 -0.00606969 -0.00557908 -0.00498127 -0.00438346 -0.00370142 -0.00301938 -0.00227932 -0.00153926 -0.000769632 -3.23339e-18 0 0.00153926 0.00307853 0.00455864 0.00603875 0.00740283 0.00876691 0.00996254 0.0111582 0.0121394 0.0131206 0.0138497 0.0145788 0.0150278 0.0154768 0.0156284 0.01578 0.0156284 0.0154768 0.0150278 0.0145788 0.0138497 0.0131206 0.0121394 0.0111582 0.00996254 0.00876691 0.00740283 0.00603875 0.00455864 0.00307853 0.00153926 -3.48823e-17 -0.00153926 -0.00307853 -0.00455864 -0.00603875 -0.00740283 -0.00876691 -0.00996254 -0.0111582 -0.0121394 -0.0131206 -0.0138497 -0.0145788 -0.0150278 -0.0154768 -0.0156284 -0.01578 -0.0156284 -0.0154768 -0.0150278 -0.0145788 -0.0138497 -0.0131206 -0.0121394 -0.0111582 -0.00996254 -0.00876691 -0.00740283 -0.00603875 -0.00455864 -0.00307853 -0.00153926 -6.46677e-18 0 0.00227932 0.00455864 0.00675037 0.0089421 0.010962 0.0129819 0.0147524 0.0165228 0.0179758 0.0194288 0.0205085 0.0215881 0.022253 0.0229178 0.0231423 0.0233668 0.0231423 0.0229178 0.022253 0.0215881 0.0205085 0.0194288 0.0179758 0.0165228 0.0147524 0.0129819 0.010962 0.0089421 0.00675037 0.00455864 0.00227932 -4.34422e-17 -0.00227932 -0.00455864 -0.00675037 -0.0089421 -0.010962 -0.0129819 -0.0147524 -0.0165228 -0.0179758 -0.0194288 -0.0205085 -0.0215881 -0.022253 -0.0229178 -0.0231423 -0.0233668 -0.0231423 -0.0229178 -0.022253 -0.0215881 -0.0205085 -0.0194288 -0.0179758 -0.0165228 -0.0147524 -0.0129819 -0.010962 -0.0089421 -0.00675037 -0.00455864 -0.00227932 -9.5759e-18 0 0.00301938 0.00603875 0.0089421 0.0118454 0.0145212 0.0171969 0.0195422 0.0218875 0.0238123 0.025737 0.0271672 0.0285974 0.0294781 0.0303589 0.0306562 0.0309536 0.0306562 0.0303589 0.0294781 0.0285974 0.0271672 0.025737 0.0238123 0.0218875 0.0195422 0.0171969 0.0145212 0.0118454 0.0089421 0.00603875 0.00301938 -5.20021e-17 -0.00301938 -0.00603875 -0.0089421 -0.0118454 -0.0145212 -0.0171969 -0.0195422 -0.0218875 -0.0238123 -0.025737 -0.0271672 -0.0285974 -0.0294781 -0.0303589 -0.0306562 -0.0309536 -0.0306562 -0.0303589 -0.0294781 -0.0285974 -0.0271672 -0.025737 -0.0238123 -0.0218875 -0.0195422 -0.0171969 -0.0145212 -0.0118454 -0.0089421 -0.00603875 -0.00301938 -1.2685e-17 0 0.00370142 0.00740283 0.010962 0.0145212 0.0178013 0.0210815 0.0239566 0.0268316 0.0291912 0.0315507 0.0333039 0.0350572 0.0361369 0.0372165 0.0375811 0.0379457 0.0375811 0.0372165 0.0361369 0.0350572 0.0333039 0.0315507 0.0291912 0.0268316 0.0239566 0.0210815 0.0178013 0.0145212 0.010962 0.00740283 0.00370142 -6.07541e-17 -0.00370142 -0.00740283 -0.010962 -0.0145212 -0.0178013 -0.0210815 -0.0239566 -0.0268316 -0.0291912 -0.0315507 -0.0333039 -0.0350572 -0.0361369 -0.0372165 -0.0375811 -0.0379457 -0.0375811 -0.0372165 -0.0361369 -0.0350572 -0.0333039 -0.0315507 -0.0291912 -0.0268316 -0.0239566 -0.0210815 -0.0178013 -0.0145212 -0.010962 -0.00740283 -0.00370142 -1.55504e-17 0 0.00438346 0.00876691 0.0129819 0.0171969 0.0210815 0.024966 0.0283709 0.0317758 0.03457 0.0373643 0.0394407 0.041517 0.0427956 0.0440742 0.044506 0.0449377 0.044506 0.0440742 0.0427956 0.041517 0.0394407 0.0373643 0.03457 0.0317758 0.0283709 0.024966 0.0210815 0.0171969 0.0129819 0.00876691 0.00438346 -6.95061e-17 -0.00438346 -0.00876691 -0.0129819 -0.0171969 -0.0210815 -0.024966 -0.0283709 -0.0317758 -0.03457 -0.0373643 -0.0394407 -0.041517 -0.0427956 -0.0440742 -0.044506 -0.0449377 -0.044506 -0.0440742 -0.0427956 -0.041517 -0.0394407 -0.0373643 -0.03457 -0.0317758 -0.0283709 -0.024966 -0.0210815 -0.0171969 -0.0129819 -0.00876691 -0.00438346 -1.84158e-17 0 0.00498127 0.00996254 0.0147524 0.0195422 0.0239566 0.0283709 0.0322401 0.0361093 0.0392847 0.0424601 0.0448196 0.0471791 0.0486321 0.050085 0.0505757 0.0510663 0.0505757 0.050085 0.0486321 0.0471791 0.0448196 0.0424601 0.0392847 0.0361093 0.0322401 0.0283709 0.0239566 0.0195422 0.0147524 0.00996254 0.00498127 -6.49427e-17 -0.00498127 -0.00996254 -0.0147524 -0.0195422 -0.0239566 -0.0283709 -0.0322401 -0.0361093 -0.0392847 -0.0424601 -0.0448196 -0.0471791 -0.0486321 -0.050085 -0.0505757 -0.0510663 -0.0505757 -0.050085 -0.0486321 -0.0471791 -0.0448196 -0.0424601 -0.0392847 -0.0361093 -0.0322401 -0.0283709 -0.0239566 -0.0195422 -0.0147524 -0.00996254 -0.00498127 -2.09273e-17 0 0.00557908 0.0111582 0.0165228 0.0218875 0.0268316 0.0317758 0.0361093 0.0404429 0.0439993 0.0475558 0.0501985 0.0528411 0.0544685 0.0560959 0.0566454 0.0571948 0.0566454 0.0560959 0.0544685 0.0528411 0.0501985 0.0475558 0.0439993 0.0404429 0.0361093 0.0317758 0.0268316 0.0218875 0.0165228 0.0111582 0.00557908 -6.03793e-17 -0.00557908 -0.0111582 -0.0165228 -0.0218875 -0.0268316 -0.0317758 -0.0361093 -0.0404429 -0.0439993 -0.0475558 -0.0501985 -0.0528411 -0.0544685 -0.0560959 -0.0566454 -0.0571948 -0.0566454 -0.0560959 -0.0544685 -0.0528411 -0.0501985 -0.0475558 -0.0439993 -0.0404429 -0.0361093 -0.0317758 -0.0268316 -0.0218875 -0.0165228 -0.0111582 -0.00557908 -2.34389e-17 0 0.00606969 0.0121394 0.0179758 0.0238123 0.0291912 0.03457 0.0392847 0.0439993 0.0478685 0.0517377 0.0546128 0.0574879 0.0592583 0.0610288 0.0616266 0.0622244 0.0616266 0.0610288 0.0592583 0.0574879 0.0546128 0.0517377 0.0478685 0.0439993 0.0392847 0.03457 0.0291912 0.0238123 0.0179758 0.0121394 0.00606969 -1.92008e-17 -0.00606969 -0.0121394 -0.0179758 -0.0238123 -0.0291912 -0.03457 -0.0392847 -0.0439993 -0.0478685 -0.0517377 -0.0546128 -0.0574879 -0.0592583 -0.0610288 -0.0616266 -0.0622244 -0.0616266 -0.0610288 -0.0592583 -0.0574879 -0.0546128 -0.0517377 -0.0478685 -0.0439993 -0.0392847 -0.03457 -0.0291912 -0.0238123 -0.0179758 -0.0121394 -0.00606969 -2.55e-17 0 0.0065603 0.0131206 0.0194288 0.025737 0.0315507 0.0373643 0.0424601 0.0475558 0.0517377 0.0559197 0.0590271 0.0621346 0.0640482 0.0659618 0.0666079 0.067254 0.0666079 0.0659618 0.0640482 0.0621346 0.0590271 0.0559197 0.0517377 0.0475558 0.0424601 0.0373643 0.0315507 0.025737 0.0194288 0.0131206 0.0065603 2.19777e-17 -0.0065603 -0.0131206 -0.0194288 -0.025737 -0.0315507 -0.0373643 -0.0424601 -0.0475558 -0.0517377 -0.0559197 -0.0590271 -0.0621346 -0.0640482 -0.0659618 -0.0666079 -0.067254 -0.0666079 -0.0659618 -0.0640482 -0.0621346 -0.0590271 -0.0559197 -0.0517377 -0.0475558 -0.0424601 -0.0373643 -0.0315507 -0.025737 -0.0194288 -0.0131206 -0.0065603 -2.75612e-17 0 0.00692486 0.0138497 0.0205085 0.0271672 0.0333039 0.0394407 0.0448196 0.0501985 0.0546128 0.0590271 0.0623073 0.0655874 0.0676074 0.0696273 0.0703093 0.0709913 0.0703093 0.0696273 0.0676074 0.0655874 0.0623073 0.0590271 0.0546128 0.0501985 0.0448196 0.0394407 0.0333039 0.0271672 0.0205085 0.0138497 0.00692486 4.56523e-17 -0.00692486 -0.0138497 -0.0205085 -0.0271672 -0.0333039 -0.0394407 -0.0448196 -0.0501985 -0.0546128 -0.0590271 -0.0623073 -0.0655874 -0.0676074 -0.0696273 -0.0703093 -0.0709913 -0.0703093 -0.0696273 -0.0676074 -0.0655874 -0.0623073 -0.0590271 -0.0546128 -0.0501985 -0.0448196 -0.0394407 -0.0333039 -0.0271672 -0.0205085 -0.0138497 -0.00692486 -2.90928e-17 0 0.00728942 0.0145788 0.0215881 0.0285974 0.0350572 0.041517 0.0471791 0.0528411 0.0574879 0.0621346 0.0655874 0.0690403 0.0711665 0.0732928 0.0740107 0.0747287 0.0740107 0.0732928 0.0711665 0.0690403 0.0655874 0.0621346 0.0574879 0.0528411 0.0471791 0.041517 0.0350572 0.0285974 0.0215881 0.0145788 0.00728942 6.9327e-17 -0.00728942 -0.0145788 -0.0215881 -0.0285974 -0.0350572 -0.041517 -0.0471791 -0.0528411 -0.0574879 -0.0621346 -0.0655874 -0.0690403 -0.0711665 -0.0732928 -0.0740107 -0.0747287 -0.0740107 -0.0732928 -0.0711665 -0.0690403 -0.0655874 -0.0621346 -0.0574879 -0.0528411 -0.0471791 -0.041517 -0.0350572 -0.0285974 -0.0215881 -0.0145788 -0.00728942 -3.06244e-17 0 0.00751391 0.0150278 0.022253 0.0294781 0.0361369 0.0427956 0.0486321 0.0544685 0.0592583 0.0640482 0.0676074 0.0711665 0.0733583 0.07555 0.07629 0.0770301 0.07629 0.07555 0.0733583 0.0711665 0.0676074 0.0640482 0.0592583 0.0544685 0.0486321 0.0427956 0.0361369 0.0294781 0.022253 0.0150278 0.00751391 8.76082e-17 -0.00751391 -0.0150278 -0.022253 -0.0294781 -0.0361369 -0.0427956 -0.0486321 -0.0544685 -0.0592583 -0.0640482 -0.0676074 -0.0711665 -0.0733583 -0.07555 -0.07629 -0.0770301 -0.07629 -0.07555 -0.0733583 -0.0711665 -0.0676074 -0.0640482 -0.0592583 -0.0544685 -0.0486321 -0.0427956 -0.0361369 -0.0294781 -0.022253 -0.0150278 -0.00751391 -3.15675e-17 0 0.00773841 0.0154768 0.0229178 0.0303589 0.0372165 0.0440742 0.050085 0.0560959 0.0610288 0.0659618 0.0696273 0.0732928 0.07555 0.0778072 0.0785694 0.0793315 0.0785694 0.0778072 0.07555 0.0732928 0.0696273 0.0659618 0.0610288 0.0560959 0.050085 0.0440742 0.0372165 0.0303589 0.0229178 0.0154768 0.00773841 1.0589e-16 -0.00773841 -0.0154768 -0.0229178 -0.0303589 -0.0372165 -0.0440742 -0.050085 -0.0560959 -0.0610288 -0.0659618 -0.0696273 -0.0732928 -0.07555 -0.0778072 -0.0785694 -0.0793315 -0.0785694 -0.0778072 -0.07555 -0.0732928 -0.0696273 -0.0659618 -0.0610288 -0.0560959 -0.050085 -0.0440742 -0.0372165 -0.0303589 -0.0229178 -0.0154768 -0.00773841 -3.25107e-17 0 0.00781421 0.0156284 0.0231423 0.0306562 0.0375811 0.044506 0.0505757 0.0566454 0.0616266 0.0666079 0.0703093 0.0740107 0.07629 0.0785694 0.079339 0.0801086 0.079339 0.0785694 0.07629 0.0740107 0.0703093 0.0666079 0.0616266 0.0566454 0.0505757 0.044506 0.0375811 0.0306562 0.0231423 0.0156284 0.00781421 9.70116e-17 -0.00781421 -0.0156284 -0.0231423 -0.0306562 -0.0375811 -0.044506 -0.0505757 -0.0566454 -0.0616266 -0.0666079 -0.0703093 -0.0740107 -0.07629 -0.0785694 -0.079339 -0.0801086 -0.079339 -0.0785694 -0.07629 -0.0740107 -0.0703093 -0.0666079 -0.0616266 -0.0566454 -0.0505757 -0.044506 -0.0375811 -0.0306562 -0.0231423 -0.0156284 -0.00781421 -3.28291e-17 0 0.00789001 0.01578 0.0233668 0.0309536 0.0379457 0.0449377 0.0510663 0.0571948 0.0622244 0.067254 0.0709913 0.0747287 0.0770301 0.0793315 0.0801086 0.0808857 0.0801086 0.0793315 0.0770301 0.0747287 0.0709913 0.067254 0.0622244 0.0571948 0.0510663 0.0449377 0.0379457 0.0309536 0.0233668 0.01578 0.00789001 8.81337e-17 -0.00789001 -0.01578 -0.0233668 -0.0309536 -0.0379457 -0.0449377 -0.0510663 -0.0571948 -0.0622244 -0.067254 -0.0709913 -0.0747287 -0.0770301 -0.0793315 -0.0801086 -0.0808857 -0.0801086 -0.0793315 -0.0770301 -0.0747287 -0.0709913 -0.067254 -0.0622244 -0.0571948 -0.0510663 -0.0449377 -0.0379457 -0.0309536 -0.0233668 -0.01578 -0.00789001 -3.31476e-17 0 0.00781421 0.0156284 0.0231423 0.0306562 0.0375811 0.044506 0.0505757 0.0566454 0.0616266 0.0666079 0.0703093 0.0740107 0.07629 0.0785694 0.079339 0.0801086 0.079339 0.0785694 0.07629 0.0740107 0.0703093 0.0666079 0.0616266 0.0566454 0.0505757 0.044506 0.0375811 0.0306562 0.0231423 0.0156284 0.00781421 4.47081e-17 -0.00781421 -0.0156284 -0.0231423 -0.0306562 -0.0375811 -0.044506 -0.0505757 -0.0566454 -0.0616266 -0.0666079 -0.0703093 -0.0740107 -0.07629 -0.0785694 -0.079339 -0.0801086 -0.079339 -0.0785694 -0.07629 -0.0740107 -0.0703093 -0.0666079 -0.0616266 -0.0566454 -0.0505757 -0.044506 -0.0375811 -0.0306562 -0.0231423 -0.0156284 -0.00781421 -3.28291e-17 0 0.00773841 0.0154768 0.0229178 0.0303589 0.0372165 0.0440742 0.050085 0.0560959 0.0610288 0.0659618 0.0696273 0.0732928 0.07555 0.0778072 0.0785694 0.0793315 0.0785694 0.0778072 0.07555 0.0732928 0.0696273 0.0659618 0.0610288 0.0560959 0.050085 0.0440742 0.0372165 0.0303589 0.0229178 0.0154768 0.00773841 1.28248e-18 -0.00773841 -0.0154768 -0.0229178 -0.0303589 -0.0372165 -0.0440742 -0.050085 -0.0560959 -0.0610288 -0.0659618 -0.0696273 -0.0732928 -0.07555 -0.0778072 -0.0785694 -0.0793315 -0.0785694 -0.0778072 -0.07555 -0.0732928 -0.0696273 -0.0659618 -0.0610288 -0.0560959 -0.050085 -0.0440742 -0.0372165 -0.0303589 -0.0229178 -0.0154768 -0.00773841 -3.25107e-17 0 0.00751391 0.0150278 0.022253 0.0294781 0.0361369 0.0427956 0.0486321 0.0544685 0.0592583 0.0640482 0.0676074 0.0711665 0.0733583 0.07555 0.07629 0.0770301 0.07629 0.07555 0.0733583 0.0711665 0.0676074 0.0640482 0.0592583 0.0544685 0.0486321 0.0427956 0.0361369 0.0294781 0.022253 0.0150278 0.00751391 -3.59048e-17 -0.00751391 -0.0150278 -0.022253 -0.0294781 -0.0361369 -0.0427956 -0.0486321 -0.0544685 -0.0592583 -0.0640482 -0.0676074 -0.0711665 -0.0733583 -0.07555 -0.07629 -0.0770301 -0.07629 -0.07555 -0.0733583 -0.0711665 -0.0676074 -0.0640482 -0.0592583 -0.0544685 -0.0486321 -0.0427956 -0.0361369 -0.0294781 -0.022253 -0.0150278 -0.00751391 -3.15675e-17 0 0.00728942 0.0145788 0.0215881 0.0285974 0.0350572 0.041517 0.0471791 0.0528411 0.0574879 0.0621346 0.0655874 0.0690403 0.0711665 0.0732928 0.0740107 0.0747287 0.0740107 0.0732928 0.0711665 0.0690403 0.0655874 0.0621346 0.0574879 0.0528411 0.0471791 0.041517 0.0350572 0.0285974 0.0215881 0.0145788 0.00728942 -7.30921e-17 -0.00728942 -0.0145788 -0.0215881 -0.0285974 -0.0350572 -0.041517 -0.0471791 -0.0528411 -0.0574879 -0.0621346 -0.0655874 -0.0690403 -0.0711665 -0.0732928 -0.0740107 -0.0747287 -0.0740107 -0.0732928 -0.0711665 -0.0690403 -0.0655874 -0.0621346 -0.0574879 -0.0528411 -0.0471791 -0.041517 -0.0350572 -0.0285974 -0.0215881 -0.0145788 -0.00728942 -3.06244e-17 0 0.00692486 0.0138497 0.0205085 0.0271672 0.0333039 0.0394407 0.0448196 0.0501985 0.0546128 0.0590271 0.0623073 0.0655874 0.0676074 0.0696273 0.0703093 0.0709913 0.0703093 0.0696273 0.0676074 0.0655874 0.0623073 0.0590271 0.0546128 0.0501985 0.0448196 0.0394407 0.0333039 0.0271672 0.0205085 0.0138497 0.00692486 -9.56939e-17 -0.00692486 -0.0138497 -0.0205085 -0.0271672 -0.0333039 -0.0394407 -0.0448196 -0.0501985 -0.0546128 -0.0590271 -0.0623073 -0.0655874 -0.0676074 -0.0696273 -0.0703093 -0.0709913 -0.0703093 -0.0696273 -0.0676074 -0.0655874 -0.0623073 -0.0590271 -0.0546128 -0.0501985 -0.0448196 -0.0394407 -0.0333039 -0.0271672 -0.0205085 -0.0138497 -0.00692486 -2.90928e-17 0 0.0065603 0.0131206 0.0194288 0.025737 0.0315507 0.0373643 0.0424601 0.0475558 0.0517377 0.0559197 0.0590271 0.0621346 0.0640482 0.0659618 0.0666079 0.067254 0.0666079 0.0659618 0.0640482 0.0621346 0.0590271 0.0559197 0.0517377 0.0475558 0.0424601 0.0373643 0.0315507 0.025737 0.0194288 0.0131206 0.0065603 -1.18296e-16 -0.0065603 -0.0131206 -0.0194288 -0.025737 -0.0315507 -0.0373643 -0.0424601 -0.0475558 -0.0517377 -0.0559197 -0.0590271 -0.0621346 -0.0640482 -0.0659618 -0.0666079 -0.067254 -0.0666079 -0.0659618 -0.0640482 -0.0621346 -0.0590271 -0.0559197 -0.0517377 -0.0475558 -0.0424601 -0.0373643 -0.0315507 -0.025737 -0.0194288 -0.0131206 -0.0065603 -2.75612e-17 0 0.00606969 0.0121394 0.0179758 0.0238123 0.0291912 0.03457 0.0392847 0.0439993 0.0478685 0.0517377 0.0546128 0.0574879 0.0592583 0.0610288 0.0616266 0.0622244 0.0616266 0.0610288 0.0592583 0.0574879 0.0546128 0.0517377 0.0478685 0.0439993 0.0392847 0.03457 0.0291912 0.0238123 0.0179758 0.0121394 0.00606969 -1.09657e-16 -0.00606969 -0.0121394 -0.0179758 -0.0238123 -0.0291912 -0.03457 -0.0392847 -0.0439993 -0.0478685 -0.0517377 -0.0546128 -0.0574879 -0.0592583 -0.0610288 -0.0616266 -0.0622244 -0.0616266 -0.0610288 -0.0592583 -0.0574879 -0.0546128 -0.0517377 -0.0478685 -0.0439993 -0.0392847 -0.03457 -0.0291912 -0.0238123 -0.0179758 -0.0121394 -0.00606969 -2.55e-17 0 0.00557908 0.0111582 0.0165228 0.0218875 0.0268316 0.0317758 0.0361093 0.0404429 0.0439993 0.0475558 0.0501985 0.0528411 0.0544685 0.0560959 0.0566454 0.0571948 0.0566454 0.0560959 0.0544685 0.0528411 0.0501985 0.0475558 0.0439993 0.0404429 0.0361093 0.0317758 0.0268316 0.0218875 0.0165228 0.0111582 0.00557908 -1.01019e-16 -0.00557908 -0.0111582 -0.0165228 -0.0218875 -0.0268316 -0.0317758 -0.0361093 -0.0404429 -0.0439993 -0.0475558 -0.0501985 -0.0528411 -0.0544685 -0.0560959 -0.0566454 -0.0571948 -0.0566454 -0.0560959 -0.0544685 -0.0528411 -0.0501985 -0.0475558 -0.0439993 -0.0404429 -0.0361093 -0.0317758 -0.0268316 -0.0218875 -0.0165228 -0.0111582 -0.00557908 -2.34389e-17 0 0.00498127 0.00996254 0.0147524 0.0195422 0.0239566 0.0283709 0.0322401 0.0361093 0.0392847 0.0424601 0.0448196 0.0471791 0.0486321 0.050085 0.0505757 0.0510663 0.0505757 0.050085 0.0486321 0.0471791 0.0448196 0.0424601 0.0392847 0.0361093 0.0322401 0.0283709 0.0239566 0.0195422 0.0147524 0.00996254 0.00498127 -8.15495e-17 -0.00498127 -0.00996254 -0.0147524 -0.0195422 -0.0239566 -0.0283709 -0.0322401 -0.0361093 -0.0392847 -0.0424601 -0.0448196 -0.0471791 -0.0486321 -0.050085 -0.0505757 -0.0510663 -0.0505757 -0.050085 -0.0486321 -0.0471791 -0.0448196 -0.0424601 -0.0392847 -0.0361093 -0.0322401 -0.0283709 -0.0239566 -0.0195422 -0.0147524 -0.00996254 -0.00498127 -2.09273e-17 0 0.00438346 0.00876691 0.0129819 0.0171969 0.0210815 0.024966 0.0283709 0.0317758 0.03457 0.0373643 0.0394407 0.041517 0.0427956 0.0440742 0.044506 0.0449377 0.044506 0.0440742 0.0427956 0.041517 0.0394407 0.0373643 0.03457 0.0317758 0.0283709 0.024966 0.0210815 0.0171969 0.0129819 0.00876691 0.00438346 -6.20798e-17 -0.00438346 -0.00876691 -0.0129819 -0.0171969 -0.0210815 -0.024966 -0.0283709 -0.0317758 -0.03457 -0.0373643 -0.0394407 -0.041517 -0.0427956 -0.0440742 -0.044506 -0.0449377 -0.044506 -0.0440742 -0.0427956 -0.041517 -0.0394407 -0.0373643 -0.03457 -0.0317758 -0.0283709 -0.024966 -0.0210815 -0.0171969 -0.0129819 -0.00876691 -0.00438346 -1.84158e-17 0 0.00370142 0.00740283 0.010962 0.0145212 0.0178013 0.0210815 0.0239566 0.0268316 0.0291912 0.0315507 0.0333039 0.0350572 0.0361369 0.0372165 0.0375811 0.0379457 0.0375811 0.0372165 0.0361369 0.0350572 0.0333039 0.0315507 0.0291912 0.0268316 0.0239566 0.0210815 0.0178013 0.0145212 0.010962 0.00740283 0.00370142 -6.92799e-17 -0.00370142 -0.00740283 -0.010962 -0.0145212 -0.0178013 -0.0210815 -0.0239566 -0.0268316 -0.0291912 -0.0315507 -0.0333039 -0.0350572 -0.0361369 -0.0372165 -0.0375811 -0.0379457 -0.0375811 -0.0372165 -0.0361369 -0.0350572 -0.0333039 -0.0315507 -0.0291912 -0.0268316 -0.0239566 -0.0210815 -0.0178013 -0.0145212 -0.010962 -0.00740283 -0.00370142 -1.55504e-17 0 0.00301938 0.00603875 0.0089421 0.0118454 0.0145212 0.0171969 0.0195422 0.0218875 0.0238123 0.025737 0.0271672 0.0285974 0.0294781 0.0303589 0.0306562 0.0309536 0.0306562 0.0303589 0.0294781 0.0285974 0.0271672 0.025737 0.0238123 0.0218875 0.0195422 0.0171969 0.0145212 0.0118454 0.0089421 0.00603875 0.00301938 -7.64799e-17 -0.00301938 -0.00603875 -0.0089421 -0.0118454 -0.0145212 -0.0171969 -0.0195422 -0.0218875 -0.0238123 -0.025737 -0.0271672 -0.0285974 -0.0294781 -0.0303589 -0.0306562 -0.0309536 -0.0306562 -0.0303589 -0.0294781 -0.0285974 -0.0271672 -0.025737 -0.0238123 -0.0218875 -0.0195422 -0.0171969 -0.0145212 -0.0118454 -0.0089421 -0.00603875 -0.00301938 -1.2685e-17 0 0.00227932 0.00455864 0.00675037 0.0089421 0.010962 0.0129819 0.0147524 0.0165228 0.0179758 0.0194288 0.0205085 0.0215881 0.022253 0.0229178 0.0231423 0.0233668 0.0231423 0.0229178 0.022253 0.0215881 0.0205085 0.0194288 0.0179758 0.0165228 0.0147524 0.0129819 0.010962 0.0089421 0.00675037 0.00455864 0.00227932 -9.61778e-17 -0.00227932 -0.00455864 -0.00675037 -0.0089421 -0.010962 -0.0129819 -0.0147524 -0.0165228 -0.0179758 -0.0194288 -0.0205085 -0.0215881 -0.022253 -0.0229178 -0.0231423 -0.0233668 -0.0231423 -0.0229178 -0.022253 -0.0215881 -0.0205085 -0.0194288 -0.0179758 -0.0165228 -0.0147524 -0.0129819 -0.010962 -0.0089421 -0.00675037 -0.00455864 -0.00227932 -9.5759e-18 0 0.00153926 0.00307853 0.00455864 0.00603875 0.00740283 0.00876691 0.00996254 0.0111582 0.0121394 0.0131206 0.0138497 0.0145788 0.0150278 0.0154768 0.0156284 0.01578 0.0156284 0.0154768 0.0150278 0.0145788 0.0138497 0.0131206 0.0121394 0.0111582 0.00996254 0.00876691 0.00740283 0.00603875 0.00455864 0.00307853 0.00153926 -1.15876e-16 -0.00153926 -0.00307853 -0.00455864 -0.00603875 -0.00740283 -0.00876691 -0.00996254 -0.0111582 -0.0121394 -0.0131206 -0.0138497 -0.0145788 -0.0150278 -0.0154768 -0.0156284 -0.01578 -0.0156284 -0.0154768 -0.0150278 -0.0145788 -0.0138497 -0.0131206 -0.0121394 -0.0111582 -0.00996254 -0.00876691 -0.00740283 -0.00603875 -0.00455864 -0.00307853 -0.00153926 -6.46677e-18 0 0.000769632 0.00153926 0.00227932 0.00301938 0.00370142 0.00438346 0.00498127 0.00557908 0.00606969 0.0065603 0.00692486 0.00728942 0.00751391 0.00773841 0.00781421 0.00789001 0.00781421 0.00773841 0.00751391 0.00728942 0.00692486 0.0065603 0.00606969 0.00557908 0.00498127 0.00438346 0.00370142 0.00301938 0.00227932 0.00153926 0.000769632 -1.39185e-16 -0.000769632 -0.00153926 -0.00227932 -0.00301938 -0.00370142 -0.00438346 -0.00498127 -0.00557908 -0.00606969 -0.0065603 -0.00692486 -0.00728942 -0.00751391 -0.00773841 -0.00781421 -0.00789001 -0.00781421 -0.00773841 -0.00751391 -0.00728942 -0.00692486 -0.0065603 -0.00606969 -0.00557908 -0.00498127 -0.00438346 -0.00370142 -0.00301938 -0.00227932 -0.00153926 -0.000769632 -3.23339e-18 0 1.0637e-17 2.12741e-17 1.76866e-17 1.40992e-17 -5.37641e-18 -2.4852e-17 -6.66836e-17 -1.08515e-16 -1.36532e-16 -1.64549e-16 -1.67298e-16 -1.70047e-16 -9.91164e-17 -2.81854e-17 -7.48767e-17 -1.21568e-16 -1.10545e-16 -9.95214e-17 -1.36352e-16 -1.73182e-16 -1.92274e-16 -2.11366e-16 -1.66251e-16 -1.21137e-16 -1.69706e-16 -2.18276e-16 -2.00795e-16 -1.83315e-16 -1.79533e-16 -1.75752e-16 -1.69123e-16 -1.62494e-16 -1.63232e-16 -1.6397e-16 -1.60863e-16 -1.57757e-16 -1.71053e-16 -1.84349e-16 -1.77515e-16 -1.70681e-16 -1.30477e-16 -9.02723e-17 -6.16712e-17 -3.307e-17 -7.46284e-18 1.81444e-17 3.58176e-17 5.34909e-17 4.53115e-17 3.71322e-17 -5.98905e-18 -4.91103e-17 -3.45478e-17 -1.99853e-17 2.33472e-17 6.66798e-17 7.46919e-17 8.27041e-17 1.0109e-16 1.19476e-16 9.51619e-17 7.08475e-17 3.54237e-17 -4.05941e-33 0 -0.000769632 -0.00153926 -0.00227932 -0.00301938 -0.00370142 -0.00438346 -0.00498127 -0.00557908 -0.00606969 -0.0065603 -0.00692486 -0.00728942 -0.00751391 -0.00773841 -0.00781421 -0.00789001 -0.00781421 -0.00773841 -0.00751391 -0.00728942 -0.00692486 -0.0065603 -0.00606969 -0.00557908 -0.00498127 -0.00438346 -0.00370142 -0.00301938 -0.00227932 -0.00153926 -0.000769632 -1.81448e-16 0.000769632 0.00153926 0.00227932 0.00301938 0.00370142 0.00438346 0.00498127 0.00557908 0.00606969 0.0065603 0.00692486 0.00728942 0.00751391 0.00773841 0.00781421 0.00789001 0.00781421 0.00773841 0.00751391 0.00728942 0.00692486 0.0065603 0.00606969 0.00557908 0.00498127 0.00438346 0.00370142 0.00301938 0.00227932 0.00153926 0.000769632 3.23339e-18 -0 -0.00153926 -0.00307853 -0.00455864 -0.00603875 -0.00740283 -0.00876691 -0.00996254 -0.0111582 -0.0121394 -0.0131206 -0.0138497 -0.0145788 -0.0150278 -0.0154768 -0.0156284 -0.01578 -0.0156284 -0.0154768 -0.0150278 -0.0145788 -0.0138497 -0.0131206 -0.0121394 -0.0111582 -0.00996254 -0.00876691 -0.00740283 -0.00603875 -0.00455864 -0.00307853 -0.00153926 -2.00402e-16 0.00153926 0.00307853 0.00455864 0.00603875 0.00740283 0.00876691 0.00996254 0.0111582 0.0121394 0.0131206 0.0138497 0.0145788 0.0150278 0.0154768 0.0156284 0.01578 0.0156284 0.0154768 0.0150278 0.0145788 0.0138497 0.0131206 0.0121394 0.0111582 0.00996254 0.00876691 0.00740283 0.00603875 0.00455864 0.00307853 0.00153926 6.46677e-18 -0 -0.00227932 -0.00455864 -0.00675037 -0.0089421 -0.010962 -0.0129819 -0.0147524 -0.0165228 -0.0179758 -0.0194288 -0.0205085 -0.0215881 -0.022253 -0.0229178 -0.0231423 -0.0233668 -0.0231423 -0.0229178 -0.022253 -0.0215881 -0.0205085 -0.0194288 -0.0179758 -0.0165228 -0.0147524 -0.0129819 -0.010962 -0.0089421 -0.00675037 -0.00455864 -0.00227932 -2.16435e-16 0.00227932 0.00455864 0.00675037 0.0089421 0.010962 0.0129819 0.0147524 0.0165228 0.0179758 0.0194288 0.0205085 0.0215881 0.022253 0.0229178 0.0231423 0.0233668 0.0231423 0.0229178 0.022253 0.0215881 0.0205085 0.0194288 0.0179758 0.0165228 0.0147524 0.0129819 0.010962 0.0089421 0.00675037 0.00455864 0.00227932 9.5759e-18 -0 -0.00301938 -0.00603875 -0.0089421 -0.0118454 -0.0145212 -0.0171969 -0.0195422 -0.0218875 -0.0238123 -0.025737 -0.0271672 -0.0285974 -0.0294781 -0.0303589 -0.0306562 -0.0309536 -0.0306562 -0.0303589 -0.0294781 -0.0285974 -0.0271672 -0.025737 -0.0238123 -0.0218875 -0.0195422 -0.0171969 -0.0145212 -0.0118454 -0.0089421 -0.00603875 -0.00301938 -2.32468e-16 0.00301938 0.00603875 0.0089421 0.0118454 0.0145212 0.0171969 0.0195422 0.0218875 0.0238123 0.025737 0.0271672 0.0285974 0.0294781 0.0303589 0.0306562 0.0309536 0.0306562 0.0303589 0.0294781 0.0285974 0.0271672 0.025737 0.0238123 0.0218875 0.0195422 0.0171969 0.0145212 0.0118454 0.0089421 0.00603875 0.00301938 1.2685e-17 -0 -0.00370142 -0.00740283 -0.010962 -0.0145212 -0.0178013 -0.0210815 -0.0239566 -0.0268316 -0.0291912 -0.0315507 -0.0333039 -0.0350572 -0.0361369 -0.0372165 -0.0375811 -0.0379457 -0.0375811 -0.0372165 -0.0361369 -0.0350572 -0.0333039 -0.0315507 -0.0291912 -0.0268316 -0.0239566 -0.0210815 -0.0178013 -0.0145212 -0.010962 -0.00740283 -0.00370142 -2.44627e-16 0.00370142 0.00740283 0.010962 0.0145212 0.0178013 0.0210815 0.0239566 0.0268316 0.0291912 0.0315507 0.0333039 0.0350572 0.0361369 0.0372165 0.0375811 0.0379457 0.0375811 0.0372165 0.0361369 0.0350572 0.0333039 0.0315507 0.0291912 0.0268316 0.0239566 0.0210815 0.0178013 0.0145212 0.010962 0.00740283 0.00370142 1.55504e-17 -0 -0.00438346 -0.00876691 -0.0129819 -0.0171969 -0.0210815 -0.024966 -0.0283709 -0.0317758 -0.03457 -0.0373643 -0.0394407 -0.041517 -0.0427956 -0.0440742 -0.044506 -0.0449377 -0.044506 -0.0440742 -0.0427956 -0.041517 -0.0394407 -0.0373643 -0.03457 -0.0317758 -0.0283709 -0.024966 -0.0210815 -0.0171969 -0.0129819 -0.00876691 -0.00438346 -2.56786e-16 0.00438346 0.00876691 0.0129819 0.0171969 0.0210815 0.024966 0.0283709 0.0317758 0.03457 0.0373643 0.0394407 0.041517 0.0427956 0.0440742 0.044506 0.0449377 0.044506 0.0440742 0.0427956 0.041517 0.0394407 0.0373643 0.03457 0.0317758 0.0283709 0.024966 0.0210815 0.0171969 0.0129819 0.00876691 0.00438346 1.84158e-17 -0 -0.00498127 -0.00996254 -0.0147524 -0.0195422 -0.0239566 -0.0283709 -0.0322401 -0.0361093 -0.0392847 -0.0424601 -0.0448196 -0.0471791 -0.0486321 -0.050085 -0.0505757 -0.0510663 -0.0505757 -0.050085 -0.0486321 -0.0471791 -0.0448196 -0.0424601 -0.0392847 -0.0361093 -0.0322401 -0.0283709 -0.0239566 -0.0195422 -0.0147524 -0.00996254 -0.00498127 -2.58739e-16 0.00498127 0.00996254 0.0147524 0.0195422 0.0239566 0.0283709 0.0322401 0.0361093 0.0392847 0.0424601 0.0448196 0.0471791 0.0486321 0.050085 0.0505757 0.0510663 0.0505757 0.050085 0.0486321 0.0471791 0.0448196 0.0424601 0.0392847 0.0361093 0.0322401 0.0283709 0.0239566 0.0195422 0.0147524 0.00996254 0.00498127 2.09273e-17 -0 -0.00557908 -0.0111582 -0.0165228 -0.0218875 -0.0268316 -0.0317758 -0.0361093 -0.0404429 -0.0439993 -0.0475558 -0.0501985 -0.0528411 -0.0544685 -0.0560959 -0.0566454 -0.0571948 -0.0566454 -0.0560959 -0.0544685 -0.0528411 -0.0501985 -0.0475558 -0.0439993 -0.0404429 -0.0361093 -0.0317758 -0.0268316 -0.0218875 -0.0165228 -0.0111582 -0.00557908 -2.60692e-16 0.00557908 0.0111582 0.0165228 0.0218875 0.0268316 0.0317758 0.0361093 0.0404429 0.0439993 0.0475558 0.0501985 0.0528411 0.0544685 0.0560959 0.0566454 0.0571948 0.0566454 0.0560959 0.0544685 0.0528411 0.0501985 0.0475558 0.0439993 0.0404429 0.0361093 0.0317758 0.0268316 0.0218875 0.0165228 0.0111582 0.00557908 2.34389e-17 -0 -0.00606969 -0.0121394 -0.0179758 -0.0238123 -0.0291912 -0.03457 -0.0392847 -0.0439993 -0.0478685 -0.0517377 -0.0546128 -0.0574879 -0.0592583 -0.0610288 -0.0616266 -0.0622244 -0.0616266 -0.0610288 -0.0592583 -0.0574879 -0.0546128 -0.0517377 -0.0478685 -0.0439993 -0.0392847 -0.03457 -0.0291912 -0.0238123 -0.0179758 -0.0121394 -0.00606969 -2.53398e-16 0.00606969 0.0121394 0.0179758 0.0238123 0.0291912 0.03457 0.0392847 0.0439993 0.0478685 0.0517377 0.0546128 0.0574879 0.0592583 0.0610288 0.0616266 0.0622244 0.0616266 0.0610288 0.0592583 0.0574879 0.0546128 0.0517377 0.0478685 0.0439993 0.0392847 0.03457 0.0291912 0.0238123 0.0179758 0.0121394 0.00606969 2.55e-17 -0 -0.0065603 -0.0131206 -0.0194288 -0.025737 -0.0315507 -0.0373643 -0.0424601 -0.0475558 -0.0517377 -0.0559197 -0.0590271 -0.0621346 -0.0640482 -0.0659618 -0.0666079 -0.067254 -0.0666079 -0.0659618 -0.0640482 -0.0621346 -0.0590271 -0.0559197 -0.0517377 -0.0475558 -0.0424601 -0.0373643 -0.0315507 -0.025737 -0.0194288 -0.0131206 -0.0065603 -2.46105e-16 0.0065603 0.0131206 0.0194288 0.025737 0.0315507 0.0373643 0.0424601 0.0475558 0.0517377 0.0559197 0.0590271 0.0621346 0.0640482 0.0659618 0.0666079 0.067254 0.0666079 0.0659618 0.0640482 0.0621346 0.0590271 0.0559197 0.0517377 0.0475558 0.0424601 0.0373643 0.0315507 0.025737 0.0194288 0.0131206 0.0065603 2.75612e-17 -0 -0.00692486 -0.0138497 -0.0205085 -0.0271672 -0.0333039 -0.0394407 -0.0448196 -0.0501985 -0.0546128 -0.0590271 -0.0623073 -0.0655874 -0.0676074 -0.0696273 -0.0703093 -0.0709913 -0.0703093 -0.0696273 -0.0676074 -0.0655874 -0.0623073 -0.0590271 -0.0546128 -0.0501985 -0.0448196 -0.0394407 -0.0333039 -0.0271672 -0.0205085 -0.0138497 -0.00692486 -2.18988e-16 0.00692486 0.0138497 0.0205085 0.0271672 0.0333039 0.0394407 0.0448196 0.0501985 0.0546128 0.0590271 0.0623073 0.0655874 0.0676074 0.0696273 0.0703093 0.0709913 0.0703093 0.0696273 0.0676074 0.0655874 0.0623073 0.0590271 0.0546128 0.0501985 0.0448196 0.0394407 0.0333039 0.0271672 0.0205085 0.0138497 0.00692486 2.90928e-17 -0 -0.00728942 -0.0145788 -0.0215881 -0.0285974 -0.0350572 -0.041517 -0.0471791 -0.0528411 -0.0574879 -0.0621346 -0.065