<?xml version="1.0"?> 
<VTKFile type="StructuredGrid" version="0.1"> 
<StructuredGrid WholeExtent="0 64 0 64 0 0"> 
<Piece Extent="0 64 0 64 0 0"> 
<PointData>
<DataArray type="Float32" Name="u" format="ascii" NumberOfComponents="1"> 
0 0 0 0 0 0 0 0 0 0 0 0 0 0 0 0 0 0 0 0 0 0 0 0 0 0 0 0 0 0 0 0 0 0 -0 -0 -0 -0 -0 -0 -0 -0 -0 -0 -0 -0 -0 -0 -0 -0 -0 -0 -0 -0 -0 -0 -0 -0 -0 -0 -0 -0 -0 -0 -0 0 9.72527e-06 1.94505e-05 2.88021e-05 3.81536e-05 4.6772e-05 5.53905e-05 6.29446e-05 7.04987e-05 7.66982e-05 8.28977e-05 8.75044e-05 9.2111e-05 9.49478e-05 9.77845e-05 9.87424e-05 9.97002e-05 9.87424e-05 9.77845e-05 9.49478e-05 9.2111e-05 8.75044e-05 8.28977e-05 7.66982e-05 7.04987e-05 6.29446e-05 5.53905e-05 4.6772e-05 3.81536e-05 2.88021e-05 1.94505e-05 9.72527e-06 -5.38772e-18 -9.72527e-06 -1.94505e-05 -2.88021e-05 -3.81536e-05 -4.6772e-05 -5.53905e-05 -6.29446e-05 -7.04987e-05 -7.66982e-05 -8.28977e-05 -8.75044e-05 -9.2111e-05 -9.49478e-05 -9.77845e-05 -9.87424e-05 -9.97002e-05 -9.87424e-05 -9.77845e-05 -9.49478e-05 -9.2111e-05 -8.75044e-05 -8.28977e-05 -7.66982e-05 -7.04987e-05 -6.29446e-05 -5.53905e-05 -4.6772e-05 -3.81536e-05 -2.88021e-05 -1.94505e-05 -9.72527e-06 -3.23339e-18 0 1.94505e-05 3.89011e-05 5.76042e-05 7.63072e-05 9.35441e-05 0.000110781 0.000125889 0.000140997 0.000153396 0.000165795 0.000175009 0.000184222 0.000189896 0.000195569 0.000197485 0.0001994 0.000197485 0.000195569 0.000189896 0.000184222 0.000175009 0.000165795 0.000153396 0.000140997 0.000125889 0.000110781 9.35441e-05 7.63072e-05 5.76042e-05 3.89011e-05 1.94505e-05 -1.07754e-17 -1.94505e-05 -3.89011e-05 -5.76042e-05 -7.63072e-05 -9.35441e-05 -0.000110781 -0.000125889 -0.000140997 -0.000153396 -0.000165795 -0.000175009 -0.000184222 -0.000189896 -0.000195569 -0.000197485 -0.0001994 -0.000197485 -0.000195569 -0.000189896 -0.000184222 -0.000175009 -0.000165795 -0.000153396 -0.000140997 -0.000125889 -0.000110781 -9.35441e-05 -7.63072e-05 -5.76042e-05 -3.89011e-05 -1.94505e-05 -6.46677e-18 0 2.88021e-05 5.76042e-05 8.52994e-05 0.000112995 0.000138519 0.000164043 0.000186415 0.000208787 0.000227147 0.000245507 0.00025915 0.000272793 0.000281194 0.000289596 0.000292432 0.000295269 0.000292432 0.000289596 0.000281194 0.000272793 0.00025915 0.000245507 0.000227147 0.000208787 0.000186415 0.000164043 0.000138519 0.000112995 8.52994e-05 5.76042e-05 2.88021e-05 -1.10942e-17 -2.88021e-05 -5.76042e-05 -8.52994e-05 -0.000112995 -0.000138519 -0.000164043 -0.000186415 -0.000208787 -0.000227147 -0.000245507 -0.00025915 -0.000272793 -0.000281194 -0.000289596 -0.000292432 -0.000295269 -0.000292432 -0.000289596 -0.000281194 -0.000272793 -0.00025915 -0.000245507 -0.000227147 -0.000208787 -0.000186415 -0.000164043 -0.000138519 -0.000112995 -8.52994e-05 -5.76042e-05 -2.88021e-05 -9.5759e-18 0 3.81536e-05 7.63072e-05 0.000112995 0.000149682 0.000183493 0.000217305 0.000246941 0.000276576 0.000300898 0.000325219 0.000343292 0.000361364 0.000372493 0.000383622 0.00038738 0.000391138 0.00038738 0.000383622 0.000372493 0.000361364 0.000343292 0.000325219 0.000300898 0.000276576 0.000246941 0.000217305 0.000183493 0.000149682 0.000112995 7.63072e-05 3.81536e-05 -1.1413e-17 -3.81536e-05 -7.63072e-05 -0.000112995 -0.000149682 -0.000183493 -0.000217305 -0.000246941 -0.000276576 -0.000300898 -0.000325219 -0.000343292 -0.000361364 -0.000372493 -0.000383622 -0.00038738 -0.000391138 -0.00038738 -0.000383622 -0.000372493 -0.000361364 -0.000343292 -0.000325219 -0.000300898 -0.000276576 -0.000246941 -0.000217305 -0.000183493 -0.000149682 -0.000112995 -7.63072e-05 -3.81536e-05 -1.2685e-17 0 4.6772e-05 9.35441e-05 0.000138519 0.000183493 0.000224942 0.000266391 0.000302721 0.000339052 0.000368867 0.000398682 0.000420837 0.000442992 0.000456635 0.000470278 0.000474885 0.000479491 0.000474885 0.000470278 0.000456635 0.000442992 0.000420837 0.000398682 0.000368867 0.000339052 0.000302721 0.000266391 0.000224942 0.000183493 0.000138519 9.35441e-05 4.6772e-05 -2.12957e-17 -4.6772e-05 -9.35441e-05 -0.000138519 -0.000183493 -0.000224942 -0.000266391 -0.000302721 -0.000339052 -0.000368867 -0.000398682 -0.000420837 -0.000442992 -0.000456635 -0.000470278 -0.000474885 -0.000479491 -0.000474885 -0.000470278 -0.000456635 -0.000442992 -0.000420837 -0.000398682 -0.000368867 -0.000339052 -0.000302721 -0.000266391 -0.000224942 -0.000183493 -0.000138519 -9.35441e-05 -4.6772e-05 -1.55504e-17 0 5.53905e-05 0.000110781 0.000164043 0.000217305 0.000266391 0.000315477 0.000358502 0.000401527 0.000436836 0.000472145 0.000498383 0.00052462 0.000540777 0.000556933 0.000562389 0.000567844 0.000562389 0.000556933 0.000540777 0.00052462 0.000498383 0.000472145 0.000436836 0.000401527 0.000358502 0.000315477 0.000266391 0.000217305 0.000164043 0.000110781 5.53905e-05 -3.11784e-17 -5.53905e-05 -0.000110781 -0.000164043 -0.000217305 -0.000266391 -0.000315477 -0.000358502 -0.000401527 -0.000436836 -0.000472145 -0.000498383 -0.00052462 -0.000540777 -0.000556933 -0.000562389 -0.000567844 -0.000562389 -0.000556933 -0.000540777 -0.00052462 -0.000498383 -0.000472145 -0.000436836 -0.000401527 -0.000358502 -0.000315477 -0.000266391 -0.000217305 -0.000164043 -0.000110781 -5.53905e-05 -1.84158e-17 0 6.29446e-05 0.000125889 0.000186415 0.000246941 0.000302721 0.000358502 0.000407394 0.000456287 0.000496411 0.000536536 0.000566352 0.000596167 0.000614527 0.000632888 0.000639087 0.000645287 0.000639087 0.000632888 0.000614527 0.000596167 0.000566352 0.000536536 0.000496411 0.000456287 0.000407394 0.000358502 0.000302721 0.000246941 0.000186415 0.000125889 6.29446e-05 -3.72371e-17 -6.29446e-05 -0.000125889 -0.000186415 -0.000246941 -0.000302721 -0.000358502 -0.000407394 -0.000456287 -0.000496411 -0.000536536 -0.000566352 -0.000596167 -0.000614527 -0.000632888 -0.000639087 -0.000645287 -0.000639087 -0.000632888 -0.000614527 -0.000596167 -0.000566352 -0.000536536 -0.000496411 -0.000456287 -0.000407394 -0.000358502 -0.000302721 -0.000246941 -0.000186415 -0.000125889 -6.29446e-05 -2.09273e-17 0 7.04987e-05 0.000140997 0.000208787 0.000276576 0.000339052 0.000401527 0.000456287 0.000511046 0.000555987 0.000600927 0.000634321 0.000667714 0.000688278 0.000708842 0.000715785 0.000722729 0.000715785 0.000708842 0.000688278 0.000667714 0.000634321 0.000600927 0.000555987 0.000511046 0.000456287 0.000401527 0.000339052 0.000276576 0.000208787 0.000140997 7.04987e-05 -4.32959e-17 -7.04987e-05 -0.000140997 -0.000208787 -0.000276576 -0.000339052 -0.000401527 -0.000456287 -0.000511046 -0.000555987 -0.000600927 -0.000634321 -0.000667714 -0.000688278 -0.000708842 -0.000715785 -0.000722729 -0.000715785 -0.000708842 -0.000688278 -0.000667714 -0.000634321 -0.000600927 -0.000555987 -0.000511046 -0.000456287 -0.000401527 -0.000339052 -0.000276576 -0.000208787 -0.000140997 -7.04987e-05 -2.34389e-17 0 7.66982e-05 0.000153396 0.000227147 0.000300898 0.000368867 0.000436836 0.000496411 0.000555987 0.000604879 0.000653771 0.000690102 0.000726432 0.000748804 0.000771176 0.00077873 0.000786284 0.00077873 0.000771176 0.000748804 0.000726432 0.000690102 0.000653771 0.000604879 0.000555987 0.000496411 0.000436836 0.000368867 0.000300898 0.000227147 0.000153396 7.66982e-05 -2.43094e-17 -7.66982e-05 -0.000153396 -0.000227147 -0.000300898 -0.000368867 -0.000436836 -0.000496411 -0.000555987 -0.000604879 -0.000653771 -0.000690102 -0.000726432 -0.000748804 -0.000771176 -0.00077873 -0.000786284 -0.00077873 -0.000771176 -0.000748804 -0.000726432 -0.000690102 -0.000653771 -0.000604879 -0.000555987 -0.000496411 -0.000436836 -0.000368867 -0.000300898 -0.000227147 -0.000153396 -7.66982e-05 -2.55e-17 0 8.28977e-05 0.000165795 0.000245507 0.000325219 0.000398682 0.000472145 0.000536536 0.000600927 0.000653771 0.000706616 0.000745882 0.000785149 0.000809329 0.00083351 0.000841675 0.000849839 0.000841675 0.00083351 0.000809329 0.000785149 0.000745882 0.000706616 0.000653771 0.000600927 0.000536536 0.000472145 0.000398682 0.000325219 0.000245507 0.000165795 8.28977e-05 -5.32294e-18 -8.28977e-05 -0.000165795 -0.000245507 -0.000325219 -0.000398682 -0.000472145 -0.000536536 -0.000600927 -0.000653771 -0.000706616 -0.000745882 -0.000785149 -0.000809329 -0.00083351 -0.000841675 -0.000849839 -0.000841675 -0.00083351 -0.000809329 -0.000785149 -0.000745882 -0.000706616 -0.000653771 -0.000600927 -0.000536536 -0.000472145 -0.000398682 -0.000325219 -0.000245507 -0.000165795 -8.28977e-05 -2.75612e-17 0 8.75044e-05 0.000175009 0.00025915 0.000343292 0.000420837 0.000498383 0.000566352 0.000634321 0.000690102 0.000745882 0.000787331 0.00082878 0.000854304 0.000879828 0.000888447 0.000897065 0.000888447 0.000879828 0.000854304 0.00082878 0.000787331 0.000745882 0.000690102 0.000634321 0.000566352 0.000498383 0.000420837 0.000343292 0.00025915 0.000175009 8.75044e-05 -6.23932e-18 -8.75044e-05 -0.000175009 -0.00025915 -0.000343292 -0.000420837 -0.000498383 -0.000566352 -0.000634321 -0.000690102 -0.000745882 -0.000787331 -0.00082878 -0.000854304 -0.000879828 -0.000888447 -0.000897065 -0.000888447 -0.000879828 -0.000854304 -0.00082878 -0.000787331 -0.000745882 -0.000690102 -0.000634321 -0.000566352 -0.000498383 -0.000420837 -0.000343292 -0.00025915 -0.000175009 -8.75044e-05 -2.90928e-17 0 9.2111e-05 0.000184222 0.000272793 0.000361364 0.000442992 0.00052462 0.000596167 0.000667714 0.000726432 0.000785149 0.00082878 0.000872411 0.000899279 0.000926146 0.000935219 0.000944291 0.000935219 0.000926146 0.000899279 0.000872411 0.00082878 0.000785149 0.000726432 0.000667714 0.000596167 0.00052462 0.000442992 0.000361364 0.000272793 0.000184222 9.2111e-05 -7.1557e-18 -9.2111e-05 -0.000184222 -0.000272793 -0.000361364 -0.000442992 -0.00052462 -0.000596167 -0.000667714 -0.000726432 -0.000785149 -0.00082878 -0.000872411 -0.000899279 -0.000926146 -0.000935219 -0.000944291 -0.000935219 -0.000926146 -0.000899279 -0.000872411 -0.00082878 -0.000785149 -0.000726432 -0.000667714 -0.000596167 -0.00052462 -0.000442992 -0.000361364 -0.000272793 -0.000184222 -9.2111e-05 -3.06244e-17 0 9.49478e-05 0.000189896 0.000281194 0.000372493 0.000456635 0.000540777 0.000614527 0.000688278 0.000748804 0.000809329 0.000854304 0.000899279 0.000926974 0.000954669 0.000964021 0.000973372 0.000964021 0.000954669 0.000926974 0.000899279 0.000854304 0.000809329 0.000748804 0.000688278 0.000614527 0.000540777 0.000456635 0.000372493 0.000281194 0.000189896 9.49478e-05 4.39089e-19 -9.49478e-05 -0.000189896 -0.000281194 -0.000372493 -0.000456635 -0.000540777 -0.000614527 -0.000688278 -0.000748804 -0.000809329 -0.000854304 -0.000899279 -0.000926974 -0.000954669 -0.000964021 -0.000973372 -0.000964021 -0.000954669 -0.000926974 -0.000899279 -0.000854304 -0.000809329 -0.000748804 -0.000688278 -0.000614527 -0.000540777 -0.000456635 -0.000372493 -0.000281194 -0.000189896 -9.49478e-05 -3.15675e-17 0 9.77845e-05 0.000195569 0.000289596 0.000383622 0.000470278 0.000556933 0.000632888 0.000708842 0.000771176 0.00083351 0.000879828 0.000926146 0.000954669 0.000983192 0.000992823 0.00100245 0.000992823 0.000983192 0.000954669 0.000926146 0.000879828 0.00083351 0.000771176 0.000708842 0.000632888 0.000556933 0.000470278 0.000383622 0.000289596 0.000195569 9.77845e-05 8.03388e-18 -9.77845e-05 -0.000195569 -0.000289596 -0.000383622 -0.000470278 -0.000556933 -0.000632888 -0.000708842 -0.000771176 -0.00083351 -0.000879828 -0.000926146 -0.000954669 -0.000983192 -0.000992823 -0.00100245 -0.000992823 -0.000983192 -0.000954669 -0.000926146 -0.000879828 -0.00083351 -0.000771176 -0.000708842 -0.000632888 -0.000556933 -0.000470278 -0.000383622 -0.000289596 -0.000195569 -9.77845e-05 -3.25107e-17 0 9.87424e-05 0.000197485 0.000292432 0.00038738 0.000474885 0.000562389 0.000639087 0.000715785 0.00077873 0.000841675 0.000888447 0.000935219 0.000964021 0.000992823 0.00100255 0.00101227 0.00100255 0.000992823 0.000964021 0.000935219 0.000888447 0.000841675 0.00077873 0.000715785 0.000639087 0.000562389 0.000474885 0.00038738 0.000292432 0.000197485 9.87424e-05 1.18166e-17 -9.87424e-05 -0.000197485 -0.000292432 -0.00038738 -0.000474885 -0.000562389 -0.000639087 -0.000715785 -0.00077873 -0.000841675 -0.000888447 -0.000935219 -0.000964021 -0.000992823 -0.00100255 -0.00101227 -0.00100255 -0.000992823 -0.000964021 -0.000935219 -0.000888447 -0.000841675 -0.00077873 -0.000715785 -0.000639087 -0.000562389 -0.000474885 -0.00038738 -0.000292432 -0.000197485 -9.87424e-05 -3.28291e-17 0 9.97002e-05 0.0001994 0.000295269 0.000391138 0.000479491 0.000567844 0.000645287 0.000722729 0.000786284 0.000849839 0.000897065 0.000944291 0.000973372 0.00100245 0.00101227 0.00102209 0.00101227 0.00100245 0.000973372 0.000944291 0.000897065 0.000849839 0.000786284 0.000722729 0.000645287 0.000567844 0.000479491 0.000391138 0.000295269 0.0001994 9.97002e-05 1.55994e-17 -9.97002e-05 -0.0001994 -0.000295269 -0.000391138 -0.000479491 -0.000567844 -0.000645287 -0.000722729 -0.000786284 -0.000849839 -0.000897065 -0.000944291 -0.000973372 -0.00100245 -0.00101227 -0.00102209 -0.00101227 -0.00100245 -0.000973372 -0.000944291 -0.000897065 -0.000849839 -0.000786284 -0.000722729 -0.000645287 -0.000567844 -0.000479491 -0.000391138 -0.000295269 -0.0001994 -9.97002e-05 -3.31476e-17 0 9.87424e-05 0.000197485 0.000292432 0.00038738 0.000474885 0.000562389 0.000639087 0.000715785 0.00077873 0.000841675 0.000888447 0.000935219 0.000964021 0.000992823 0.00100255 0.00101227 0.00100255 0.000992823 0.000964021 0.000935219 0.000888447 0.000841675 0.00077873 0.000715785 0.000639087 0.000562389 0.000474885 0.00038738 0.000292432 0.000197485 9.87424e-05 -3.23028e-18 -9.87424e-05 -0.000197485 -0.000292432 -0.00038738 -0.000474885 -0.000562389 -0.000639087 -0.000715785 -0.00077873 -0.000841675 -0.000888447 -0.000935219 -0.000964021 -0.000992823 -0.00100255 -0.00101227 -0.00100255 -0.000992823 -0.000964021 -0.000935219 -0.000888447 -0.000841675 -0.00077873 -0.000715785 -0.000639087 -0.000562389 -0.000474885 -0.00038738 -0.000292432 -0.000197485 -9.87424e-05 -3.28291e-17 0 9.77845e-05 0.000195569 0.000289596 0.000383622 0.000470278 0.000556933 0.000632888 0.000708842 0.000771176 0.00083351 0.000879828 0.000926146 0.000954669 0.000983192 0.000992823 0.00100245 0.000992823 0.000983192 0.000954669 0.000926146 0.000879828 0.00083351 0.000771176 0.000708842 0.000632888 0.000556933 0.000470278 0.000383622 0.000289596 0.000195569 9.77845e-05 -2.20599e-17 -9.77845e-05 -0.000195569 -0.000289596 -0.000383622 -0.000470278 -0.000556933 -0.000632888 -0.000708842 -0.000771176 -0.00083351 -0.000879828 -0.000926146 -0.000954669 -0.000983192 -0.000992823 -0.00100245 -0.000992823 -0.000983192 -0.000954669 -0.000926146 -0.000879828 -0.00083351 -0.000771176 -0.000708842 -0.000632888 -0.000556933 -0.000470278 -0.000383622 -0.000289596 -0.000195569 -9.77845e-05 -3.25107e-17 0 9.49478e-05 0.000189896 0.000281194 0.000372493 0.000456635 0.000540777 0.000614527 0.000688278 0.000748804 0.000809329 0.000854304 0.000899279 0.000926974 0.000954669 0.000964021 0.000973372 0.000964021 0.000954669 0.000926974 0.000899279 0.000854304 0.000809329 0.000748804 0.000688278 0.000614527 0.000540777 0.000456635 0.000372493 0.000281194 0.000189896 9.49478e-05 -3.22258e-17 -9.49478e-05 -0.000189896 -0.000281194 -0.000372493 -0.000456635 -0.000540777 -0.000614527 -0.000688278 -0.000748804 -0.000809329 -0.000854304 -0.000899279 -0.000926974 -0.000954669 -0.000964021 -0.000973372 -0.000964021 -0.000954669 -0.000926974 -0.000899279 -0.000854304 -0.000809329 -0.000748804 -0.000688278 -0.000614527 -0.000540777 -0.000456635 -0.000372493 -0.000281194 -0.000189896 -9.49478e-05 -3.15675e-17 0 9.2111e-05 0.000184222 0.000272793 0.000361364 0.000442992 0.00052462 0.000596167 0.000667714 0.000726432 0.000785149 0.00082878 0.000872411 0.000899279 0.000926146 0.000935219 0.000944291 0.000935219 0.000926146 0.000899279 0.000872411 0.00082878 0.000785149 0.000726432 0.000667714 0.000596167 0.00052462 0.000442992 0.000361364 0.000272793 0.000184222 9.2111e-05 -4.23917e-17 -9.2111e-05 -0.000184222 -0.000272793 -0.000361364 -0.000442992 -0.00052462 -0.000596167 -0.000667714 -0.000726432 -0.000785149 -0.00082878 -0.000872411 -0.000899279 -0.000926146 -0.000935219 -0.000944291 -0.000935219 -0.000926146 -0.000899279 -0.000872411 -0.00082878 -0.000785149 -0.000726432 -0.000667714 -0.000596167 -0.00052462 -0.000442992 -0.000361364 -0.000272793 -0.000184222 -9.2111e-05 -3.06244e-17 0 8.75044e-05 0.000175009 0.00025915 0.000343292 0.000420837 0.000498383 0.000566352 0.000634321 0.000690102 0.000745882 0.000787331 0.00082878 0.000854304 0.000879828 0.000888447 0.000897065 0.000888447 0.000879828 0.000854304 0.00082878 0.000787331 0.000745882 0.000690102 0.000634321 0.000566352 0.000498383 0.000420837 0.000343292 0.00025915 0.000175009 8.75044e-05 -4.5597e-17 -8.75044e-05 -0.000175009 -0.00025915 -0.000343292 -0.000420837 -0.000498383 -0.000566352 -0.000634321 -0.000690102 -0.000745882 -0.000787331 -0.00082878 -0.000854304 -0.000879828 -0.000888447 -0.000897065 -0.000888447 -0.000879828 -0.000854304 -0.00082878 -0.000787331 -0.000745882 -0.000690102 -0.000634321 -0.000566352 -0.000498383 -0.000420837 -0.000343292 -0.00025915 -0.000175009 -8.75044e-05 -2.90928e-17 0 8.28977e-05 0.000165795 0.000245507 0.000325219 0.000398682 0.000472145 0.000536536 0.000600927 0.000653771 0.000706616 0.000745882 0.000785149 0.000809329 0.00083351 0.000841675 0.000849839 0.000841675 0.00083351 0.000809329 0.000785149 0.000745882 0.000706616 0.000653771 0.000600927 0.000536536 0.000472145 0.000398682 0.000325219 0.000245507 0.000165795 8.28977e-05 -4.88022e-17 -8.28977e-05 -0.000165795 -0.000245507 -0.000325219 -0.000398682 -0.000472145 -0.000536536 -0.000600927 -0.000653771 -0.000706616 -0.000745882 -0.000785149 -0.000809329 -0.00083351 -0.000841675 -0.000849839 -0.000841675 -0.00083351 -0.000809329 -0.000785149 -0.000745882 -0.000706616 -0.000653771 -0.000600927 -0.000536536 -0.000472145 -0.000398682 -0.000325219 -0.000245507 -0.000165795 -8.28977e-05 -2.75612e-17 0 7.66982e-05 0.000153396 0.000227147 0.000300898 0.000368867 0.000436836 0.000496411 0.000555987 0.000604879 0.000653771 0.000690102 0.000726432 0.000748804 0.000771176 0.00077873 0.000786284 0.00077873 0.000771176 0.000748804 0.000726432 0.000690102 0.000653771 0.000604879 0.000555987 0.000496411 0.000436836 0.000368867 0.000300898 0.000227147 0.000153396 7.66982e-05 -3.49671e-17 -7.66982e-05 -0.000153396 -0.000227147 -0.000300898 -0.000368867 -0.000436836 -0.000496411 -0.000555987 -0.000604879 -0.000653771 -0.000690102 -0.000726432 -0.000748804 -0.000771176 -0.00077873 -0.000786284 -0.00077873 -0.000771176 -0.000748804 -0.000726432 -0.000690102 -0.000653771 -0.000604879 -0.000555987 -0.000496411 -0.000436836 -0.000368867 -0.000300898 -0.000227147 -0.000153396 -7.66982e-05 -2.55e-17 0 7.04987e-05 0.000140997 0.000208787 0.000276576 0.000339052 0.000401527 0.000456287 0.000511046 0.000555987 0.000600927 0.000634321 0.000667714 0.000688278 0.000708842 0.000715785 0.000722729 0.000715785 0.000708842 0.000688278 0.000667714 0.000634321 0.000600927 0.000555987 0.000511046 0.000456287 0.000401527 0.000339052 0.000276576 0.000208787 0.000140997 7.04987e-05 -2.1132e-17 -7.04987e-05 -0.000140997 -0.000208787 -0.000276576 -0.000339052 -0.000401527 -0.000456287 -0.000511046 -0.000555987 -0.000600927 -0.000634321 -0.000667714 -0.000688278 -0.000708842 -0.000715785 -0.000722729 -0.000715785 -0.000708842 -0.000688278 -0.000667714 -0.000634321 -0.000600927 -0.000555987 -0.000511046 -0.000456287 -0.000401527 -0.000339052 -0.000276576 -0.000208787 -0.000140997 -7.04987e-05 -2.34389e-17 0 6.29446e-05 0.000125889 0.000186415 0.000246941 0.000302721 0.000358502 0.000407394 0.000456287 0.000496411 0.000536536 0.000566352 0.000596167 0.000614527 0.000632888 0.000639087 0.000645287 0.000639087 0.000632888 0.000614527 0.000596167 0.000566352 0.000536536 0.000496411 0.000456287 0.000407394 0.000358502 0.000302721 0.000246941 0.000186415 0.000125889 6.29446e-05 2.56228e-18 -6.29446e-05 -0.000125889 -0.000186415 -0.000246941 -0.000302721 -0.000358502 -0.000407394 -0.000456287 -0.000496411 -0.000536536 -0.000566352 -0.000596167 -0.000614527 -0.000632888 -0.000639087 -0.000645287 -0.000639087 -0.000632888 -0.000614527 -0.000596167 -0.000566352 -0.000536536 -0.000496411 -0.000456287 -0.000407394 -0.000358502 -0.000302721 -0.000246941 -0.000186415 -0.000125889 -6.29446e-05 -2.09273e-17 0 5.53905e-05 0.000110781 0.000164043 0.000217305 0.000266391 0.000315477 0.000358502 0.000401527 0.000436836 0.000472145 0.000498383 0.00052462 0.000540777 0.000556933 0.000562389 0.000567844 0.000562389 0.000556933 0.000540777 0.00052462 0.000498383 0.000472145 0.000436836 0.000401527 0.000358502 0.000315477 0.000266391 0.000217305 0.000164043 0.000110781 5.53905e-05 2.62566e-17 -5.53905e-05 -0.000110781 -0.000164043 -0.000217305 -0.000266391 -0.000315477 -0.000358502 -0.000401527 -0.000436836 -0.000472145 -0.000498383 -0.00052462 -0.000540777 -0.000556933 -0.000562389 -0.000567844 -0.000562389 -0.000556933 -0.000540777 -0.00052462 -0.000498383 -0.000472145 -0.000436836 -0.000401527 -0.000358502 -0.000315477 -0.000266391 -0.000217305 -0.000164043 -0.000110781 -5.53905e-05 -1.84158e-17 0 4.6772e-05 9.35441e-05 0.000138519 0.000183493 0.000224942 0.000266391 0.000302721 0.000339052 0.000368867 0.000398682 0.000420837 0.000442992 0.000456635 0.000470278 0.000474885 0.000479491 0.000474885 0.000470278 0.000456635 0.000442992 0.000420837 0.000398682 0.000368867 0.000339052 0.000302721 0.000266391 0.000224942 0.000183493 0.000138519 9.35441e-05 4.6772e-05 2.89593e-17 -4.6772e-05 -9.35441e-05 -0.000138519 -0.000183493 -0.000224942 -0.000266391 -0.000302721 -0.000339052 -0.000368867 -0.000398682 -0.000420837 -0.000442992 -0.000456635 -0.000470278 -0.000474885 -0.000479491 -0.000474885 -0.000470278 -0.000456635 -0.000442992 -0.000420837 -0.000398682 -0.000368867 -0.000339052 -0.000302721 -0.000266391 -0.000224942 -0.000183493 -0.000138519 -9.35441e-05 -4.6772e-05 -1.55504e-17 0 3.81536e-05 7.63072e-05 0.000112995 0.000149682 0.000183493 0.000217305 0.000246941 0.000276576 0.000300898 0.000325219 0.000343292 0.000361364 0.000372493 0.000383622 0.00038738 0.000391138 0.00038738 0.000383622 0.000372493 0.000361364 0.000343292 0.000325219 0.000300898 0.000276576 0.000246941 0.000217305 0.000183493 0.000149682 0.000112995 7.63072e-05 3.81536e-05 3.1662e-17 -3.81536e-05 -7.63072e-05 -0.000112995 -0.000149682 -0.000183493 -0.000217305 -0.000246941 -0.000276576 -0.000300898 -0.000325219 -0.000343292 -0.000361364 -0.000372493 -0.000383622 -0.00038738 -0.000391138 -0.00038738 -0.000383622 -0.000372493 -0.000361364 -0.000343292 -0.000325219 -0.000300898 -0.000276576 -0.000246941 -0.000217305 -0.000183493 -0.000149682 -0.000112995 -7.63072e-05 -3.81536e-05 -1.2685e-17 0 2.88021e-05 5.76042e-05 8.52994e-05 0.000112995 0.000138519 0.000164043 0.000186415 0.000208787 0.000227147 0.000245507 0.00025915 0.000272793 0.000281194 0.000289596 0.000292432 0.000295269 0.000292432 0.000289596 0.000281194 0.000272793 0.00025915 0.000245507 0.000227147 0.000208787 0.000186415 0.000164043 0.000138519 0.000112995 8.52994e-05 5.76042e-05 2.88021e-05 2.88947e-17 -2.88021e-05 -5.76042e-05 -8.52994e-05 -0.000112995 -0.000138519 -0.000164043 -0.000186415 -0.000208787 -0.000227147 -0.000245507 -0.00025915 -0.000272793 -0.000281194 -0.000289596 -0.000292432 -0.000295269 -0.000292432 -0.000289596 -0.000281194 -0.000272793 -0.00025915 -0.000245507 -0.000227147 -0.000208787 -0.000186415 -0.000164043 -0.000138519 -0.000112995 -8.52994e-05 -5.76042e-05 -2.88021e-05 -9.5759e-18 0 1.94505e-05 3.89011e-05 5.76042e-05 7.63072e-05 9.35441e-05 0.000110781 0.000125889 0.000140997 0.000153396 0.000165795 0.000175009 0.000184222 0.000189896 0.000195569 0.000197485 0.0001994 0.000197485 0.000195569 0.000189896 0.000184222 0.000175009 0.000165795 0.000153396 0.000140997 0.000125889 0.000110781 9.35441e-05 7.63072e-05 5.76042e-05 3.89011e-05 1.94505e-05 2.61274e-17 -1.94505e-05 -3.89011e-05 -5.76042e-05 -7.63072e-05 -9.35441e-05 -0.000110781 -0.000125889 -0.000140997 -0.000153396 -0.000165795 -0.000175009 -0.000184222 -0.000189896 -0.000195569 -0.000197485 -0.0001994 -0.000197485 -0.000195569 -0.000189896 -0.000184222 -0.000175009 -0.000165795 -0.000153396 -0.000140997 -0.000125889 -0.000110781 -9.35441e-05 -7.63072e-05 -5.76042e-05 -3.89011e-05 -1.94505e-05 -6.46677e-18 0 9.72527e-06 1.94505e-05 2.88021e-05 3.81536e-05 4.6772e-05 5.53905e-05 6.29446e-05 7.04987e-05 7.66982e-05 8.28977e-05 8.75044e-05 9.2111e-05 9.49478e-05 9.77845e-05 9.87424e-05 9.97002e-05 9.87424e-05 9.77845e-05 9.49478e-05 9.2111e-05 8.75044e-05 8.28977e-05 7.66982e-05 7.04987e-05 6.29446e-05 5.53905e-05 4.6772e-05 3.81536e-05 2.88021e-05 1.94505e-05 9.72527e-06 2.38379e-17 -9.72527e-06 -1.94505e-05 -2.88021e-05 -3.81536e-05 -4.6772e-05 -5.53905e-05 -6.29446e-05 -7.04987e-05 -7.66982e-05 -8.28977e-05 -8.75044e-05 -9.2111e-05 -9.49478e-05 -9.77845e-05 -9.87424e-05 -9.97002e-05 -9.87424e-05 -9.77845e-05 -9.49478e-05 -9.2111e-05 -8.75044e-05 -8.28977e-05 -7.66982e-05 -7.04987e-05 -6.29446e-05 -5.53905e-05 -4.6772e-05 -3.81536e-05 -2.88021e-05 -1.94505e-05 -9.72527e-06 -3.23339e-18 0 1.51613e-17 3.03226e-17 3.5017e-17 3.97115e-17 3.4151e-17 2.85906e-17 2.93701e-18 -2.27165e-17 -3.9227e-17 -5.57375e-17 -6.00091e-17 -6.42806e-17 -4.19309e-18 5.58944e-17 5.95091e-18 -4.39926e-17 -2.97208e-17 -1.5449e-17 -3.28014e-17 -5.01539e-17 -5.16869e-17 -5.32199e-17 2.7736e-19 5.37747e-17 1.01925e-17 -3.33896e-17 -1.27751e-17 7.83928e-18 9.47985e-18 1.11204e-17 1.63344e-17 2.15483e-17 1.90091e-17 1.64699e-17 1.83071e-17 2.01442e-17 4.17882e-18 -1.17866e-17 -1.27961e-17 -1.38056e-17 1.36367e-17 4.10791e-17 4.63959e-17 5.17127e-17 5.72471e-17 6.27815e-17 6.37398e-17 6.4698e-17 4.2479e-17 2.026e-17 -3.41879e-17 -8.86358e-17 -8.93551e-17 -9.00744e-17 -6.41582e-17 -3.8242e-17 -3.95006e-17 -4.07592e-17 -1.60105e-17 8.73819e-18 8.19109e-18 7.644e-18 3.822e-18 -4.05941e-33 0 -9.72527e-06 -1.94505e-05 -2.88021e-05 -3.81536e-05 -4.6772e-05 -5.53905e-05 -6.29446e-05 -7.04987e-05 -7.66982e-05 -8.28977e-05 -8.75044e-05 -9.2111e-05 -9.49478e-05 -9.77845e-05 -9.87424e-05 -9.97002e-05 -9.87424e-05 -9.77845e-05 -9.49478e-05 -9.2111e-05 -8.75044e-05 -8.28977e-05 -7.66982e-05 -7.04987e-05 -6.29446e-05 -5.53905e-05 -4.6772e-05 -3.81536e-05 -2.88021e-05 -1.94505e-05 -9.72527e-06 2.25225e-17 9.72527e-06 1.94505e-05 2.88021e-05 3.81536e-05 4.6772e-05 5.53905e-05 6.29446e-05 7.04987e-05 7.66982e-05 8.28977e-05 8.75044e-05 9.2111e-05 9.49478e-05 9.77845e-05 9.87424e-05 9.97002e-05 9.87424e-05 9.77845e-05 9.49478e-05 9.2111e-05 8.75044e-05 8.28977e-05 7.66982e-05 7.04987e-05 6.29446e-05 5.53905e-05 4.6772e-05 3.81536e-05 2.88021e-05 1.94505e-05 9.72527e-06 3.23339e-18 -0 -1.94505e-05 -3.89011e-05 -5.76042e-05 -7.63072e-05 -9.35441e-05 -0.000110781 -0.000125889 -0.000140997 -0.000153396 -0.000165795 -0.000175009 -0.000184222 -0.000189896 -0.000195569 -0.000197485 -0.0001994 -0.000197485 -0.000195569 -0.000189896 -0.000184222 -0.000175009 -0.000165795 -0.000153396 -0.000140997 -0.000125889 -0.000110781 -9.35441e-05 -7.63072e-05 -5.76042e-05 -3.89011e-05 -1.94505e-05 2.34966e-17 1.94505e-05 3.89011e-05 5.76042e-05 7.63072e-05 9.35441e-05 0.000110781 0.000125889 0.000140997 0.000153396 0.000165795 0.000175009 0.000184222 0.000189896 0.000195569 0.000197485 0.0001994 0.000197485 0.000195569 0.000189896 0.000184222 0.000175009 0.000165795 0.000153396 0.000140997 0.000125889 0.000110781 9.35441e-05 7.63072e-05 5.76042e-05 3.89011e-05 1.94505e-05 6.46677e-18 -0 -2.88021e-05 -5.76042e-05 -8.52994e-05 -0.000112995 -0.000138519 -0.000164043 -0.000186415 -0.000208787 -0.000227147 -0.000245507 -0.00025915 -0.000272793 -0.000281194 -0.000289596 -0.000292432 -0.000295269 -0.000292432 -0.000289596 -0.000281194 -0.000272793 -0.00025915 -0.000245507 -0.000227147 -0.000208787 -0.000186415 -0.000164043 -0.000138519 -0.000112995 -8.52994e-05 -5.76042e-05 -2.88021e-05 2.30309e-17 2.88021e-05 5.76042e-05 8.52994e-05 0.000112995 0.000138519 0.000164043 0.000186415 0.000208787 0.000227147 0.000245507 0.00025915 0.000272793 0.000281194 0.000289596 0.000292432 0.000295269 0.000292432 0.000289596 0.000281194 0.000272793 0.00025915 0.000245507 0.000227147 0.000208787 0.000186415 0.000164043 0.000138519 0.000112995 8.52994e-05 5.76042e-05 2.88021e-05 9.5759e-18 -0 -3.81536e-05 -7.63072e-05 -0.000112995 -0.000149682 -0.000183493 -0.000217305 -0.000246941 -0.000276576 -0.000300898 -0.000325219 -0.000343292 -0.000361364 -0.000372493 -0.000383622 -0.00038738 -0.000391138 -0.00038738 -0.000383622 -0.000372493 -0.000361364 -0.000343292 -0.000325219 -0.000300898 -0.000276576 -0.000246941 -0.000217305 -0.000183493 -0.000149682 -0.000112995 -7.63072e-05 -3.81536e-05 2.25652e-17 3.81536e-05 7.63072e-05 0.000112995 0.000149682 0.000183493 0.000217305 0.000246941 0.000276576 0.000300898 0.000325219 0.000343292 0.000361364 0.000372493 0.000383622 0.00038738 0.000391138 0.00038738 0.000383622 0.000372493 0.000361364 0.000343292 0.000325219 0.000300898 0.000276576 0.000246941 0.000217305 0.000183493 0.000149682 0.000112995 7.63072e-05 3.81536e-05 1.2685e-17 -0 -4.6772e-05 -9.35441e-05 -0.000138519 -0.000183493 -0.000224942 -0.000266391 -0.000302721 -0.000339052 -0.000368867 -0.000398682 -0.000420837 -0.000442992 -0.000456635 -0.000470278 -0.000474885 -0.000479491 -0.000474885 -0.000470278 -0.000456635 -0.000442992 -0.000420837 -0.000398682 -0.000368867 -0.000339052 -0.000302721 -0.000266391 -0.000224942 -0.000183493 -0.000138519 -9.35441e-05 -4.6772e-05 1.7361e-17 4.6772e-05 9.35441e-05 0.000138519 0.000183493 0.000224942 0.000266391 0.000302721 0.000339052 0.000368867 0.000398682 0.000420837 0.000442992 0.000456635 0.000470278 0.000474885 0.000479491 0.000474885 0.000470278 0.000456635 0.000442992 0.000420837 0.000398682 0.000368867 0.000339052 0.000302721 0.000266391 0.000224942 0.000183493 0.000138519 9.35441e-05 4.6772e-05 1.55504e-17 -0 -5.53905e-05 -0.000110781 -0.000164043 -0.000217305 -0.000266391 -0.000315477 -0.000358502 -0.000401527 -0.000436836 -0.000472145 -0.00049