<?xml version="1.0"?> 
<VTKFile type="StructuredGrid" version="0.1"> 
<StructuredGrid WholeExtent="0 64 0 64 0 0"> 
<Piece Extent="0 64 0 64 0 0"> 
<PointData>
<DataArray type="Float32" Name="u" format="ascii" NumberOfComponents="1"> 
0 0 0 0 0 0 0 0 0 0 0 0 0 0 0 0 0 0 0 0 0 0 0 0 0 0 0 0 0 0 0 0 0 0 -0 -0 -0 -0 -0 -0 -0 -0 -0 -0 -0 -0 -0 -0 -0 -0 -0 -0 -0 -0 -0 -0 -0 -0 -0 -0 -0 -0 -0 -0 -0 0 2.8379e-05 5.67579e-05 8.40463e-05 0.000111335 0.000136484 0.000161633 0.000183676 0.00020572 0.00022381 0.000241901 0.000255343 0.000268786 0.000277063 0.000285341 0.000288136 0.000290931 0.000288136 0.000285341 0.000277063 0.000268786 0.000255343 0.000241901 0.00022381 0.00020572 0.000183676 0.000161633 0.000136484 0.000111335 8.40463e-05 5.67579e-05 2.8379e-05 -9.06747e-18 -2.8379e-05 -5.67579e-05 -8.40463e-05 -0.000111335 -0.000136484 -0.000161633 -0.000183676 -0.00020572 -0.00022381 -0.000241901 -0.000255343 -0.000268786 -0.000277063 -0.000285341 -0.000288136 -0.000290931 -0.000288136 -0.000285341 -0.000277063 -0.000268786 -0.000255343 -0.000241901 -0.00022381 -0.00020572 -0.000183676 -0.000161633 -0.000136484 -0.000111335 -8.40463e-05 -5.67579e-05 -2.8379e-05 -3.23339e-18 0 5.67579e-05 0.000113516 0.000168093 0.000222669 0.000272968 0.000323266 0.000367353 0.000411439 0.00044762 0.000483801 0.000510686 0.000537571 0.000554127 0.000570683 0.000576273 0.000581863 0.000576273 0.000570683 0.000554127 0.000537571 0.000510686 0.000483801 0.00044762 0.000411439 0.000367353 0.000323266 0.000272968 0.000222669 0.000168093 0.000113516 5.67579e-05 -1.81349e-17 -5.67579e-05 -0.000113516 -0.000168093 -0.000222669 -0.000272968 -0.000323266 -0.000367353 -0.000411439 -0.00044762 -0.000483801 -0.000510686 -0.000537571 -0.000554127 -0.000570683 -0.000576273 -0.000581863 -0.000576273 -0.000570683 -0.000554127 -0.000537571 -0.000510686 -0.000483801 -0.00044762 -0.000411439 -0.000367353 -0.000323266 -0.000272968 -0.000222669 -0.000168093 -0.000113516 -5.67579e-05 -6.46677e-18 0 8.40463e-05 0.000168093 0.000248909 0.000329725 0.000404206 0.000478687 0.00054397 0.000609253 0.00066283 0.000716406 0.000756217 0.000796028 0.000820543 0.000845058 0.000853336 0.000861614 0.000853336 0.000845058 0.000820543 0.000796028 0.000756217 0.000716406 0.00066283 0.000609253 0.00054397 0.000478687 0.000404206 0.000329725 0.000248909 0.000168093 8.40463e-05 -2.1213e-17 -8.40463e-05 -0.000168093 -0.000248909 -0.000329725 -0.000404206 -0.000478687 -0.00054397 -0.000609253 -0.00066283 -0.000716406 -0.000756217 -0.000796028 -0.000820543 -0.000845058 -0.000853336 -0.000861614 -0.000853336 -0.000845058 -0.000820543 -0.000796028 -0.000756217 -0.000716406 -0.00066283 -0.000609253 -0.00054397 -0.000478687 -0.000404206 -0.000329725 -0.000248909 -0.000168093 -8.40463e-05 -9.5759e-18 0 0.000111335 0.000222669 0.000329725 0.000436782 0.000535445 0.000634109 0.000720588 0.000807067 0.000878039 0.000949011 0.00100175 0.00105448 0.00108696 0.00111943 0.0011304 0.00114137 0.0011304 0.00111943 0.00108696 0.00105448 0.00100175 0.000949011 0.000878039 0.000807067 0.000720588 0.000634109 0.000535445 0.000436782 0.000329725 0.000222669 0.000111335 -2.4291e-17 -0.000111335 -0.000222669 -0.000329725 -0.000436782 -0.000535445 -0.000634109 -0.000720588 -0.000807067 -0.000878039 -0.000949011 -0.00100175 -0.00105448 -0.00108696 -0.00111943 -0.0011304 -0.00114137 -0.0011304 -0.00111943 -0.00108696 -0.00105448 -0.00100175 -0.000949011 -0.000878039 -0.000807067 -0.000720588 -0.000634109 -0.000535445 -0.000436782 -0.000329725 -0.000222669 -0.000111335 -1.2685e-17 0 0.000136484 0.000272968 0.000404206 0.000535445 0.000656395 0.000777346 0.00088336 0.000989374 0.00107638 0.00116338 0.00122803 0.00129268 0.00133249 0.0013723 0.00138574 0.00139919 0.00138574 0.0013723 0.00133249 0.00129268 0.00122803 0.00116338 0.00107638 0.000989374 0.00088336 0.000777346 0.000656395 0.000535445 0.000404206 0.000272968 0.000136484 -3.49012e-17 -0.000136484 -0.000272968 -0.000404206 -0.000535445 -0.000656395 -0.000777346 -0.00088336 -0.000989374 -0.00107638 -0.00116338 -0.00122803 -0.00129268 -0.00133249 -0.0013723 -0.00138574 -0.00139919 -0.00138574 -0.0013723 -0.00133249 -0.00129268 -0.00122803 -0.00116338 -0.00107638 -0.000989374 -0.00088336 -0.000777346 -0.000656395 -0.000535445 -0.000404206 -0.000272968 -0.000136484 -1.55504e-17 0 0.000161633 0.000323266 0.000478687 0.000634109 0.000777346 0.000920583 0.00104613 0.00117168 0.00127471 0.00137775 0.00145431 0.00153087 0.00157802 0.00162517 0.00164109 0.00165701 0.00164109 0.00162517 0.00157802 0.00153087 0.00145431 0.00137775 0.00127471 0.00117168 0.00104613 0.000920583 0.000777346 0.000634109 0.000478687 0.000323266 0.000161633 -4.55113e-17 -0.000161633 -0.000323266 -0.000478687 -0.000634109 -0.000777346 -0.000920583 -0.00104613 -0.00117168 -0.00127471 -0.00137775 -0.00145431 -0.00153087 -0.00157802 -0.00162517 -0.00164109 -0.00165701 -0.00164109 -0.00162517 -0.00157802 -0.00153087 -0.00145431 -0.00137775 -0.00127471 -0.00117168 -0.00104613 -0.000920583 -0.000777346 -0.000634109 -0.000478687 -0.000323266 -0.000161633 -1.84158e-17 0 0.000183676 0.000367353 0.00054397 0.000720588 0.00088336 0.00104613 0.0011888 0.00133147 0.00144856 0.00156565 0.00165265 0.00173965 0.00179323 0.00184681 0.0018649 0.00188299 0.0018649 0.00184681 0.00179323 0.00173965 0.00165265 0.00156565 0.00144856 0.00133147 0.0011888 0.00104613 0.00088336 0.000720588 0.00054397 0.000367353 0.000183676 -4.89016e-17 -0.000183676 -0.000367353 -0.00054397 -0.000720588 -0.00088336 -0.00104613 -0.0011888 -0.00133147 -0.00144856 -0.00156565 -0.00165265 -0.00173965 -0.00179323 -0.00184681 -0.0018649 -0.00188299 -0.0018649 -0.00184681 -0.00179323 -0.00173965 -0.00165265 -0.00156565 -0.00144856 -0.00133147 -0.0011888 -0.00104613 -0.00088336 -0.000720588 -0.00054397 -0.000367353 -0.000183676 -2.09273e-17 0 0.00020572 0.000411439 0.000609253 0.000807067 0.000989374 0.00117168 0.00133147 0.00149127 0.0016224 0.00175354 0.00185099 0.00194843 0.00200844 0.00206844 0.00208871 0.00210897 0.00208871 0.00206844 0.00200844 0.00194843 0.00185099 0.00175354 0.0016224 0.00149127 0.00133147 0.00117168 0.000989374 0.000807067 0.000609253 0.000411439 0.00020572 -5.22919e-17 -0.00020572 -0.000411439 -0.000609253 -0.000807067 -0.000989374 -0.00117168 -0.00133147 -0.00149127 -0.0016224 -0.00175354 -0.00185099 -0.00194843 -0.00200844 -0.00206844 -0.00208871 -0.00210897 -0.00208871 -0.00206844 -0.00200844 -0.00194843 -0.00185099 -0.00175354 -0.0016224 -0.00149127 -0.00133147 -0.00117168 -0.000989374 -0.000807067 -0.000609253 -0.000411439 -0.00020572 -2.34389e-17 0 0.00022381 0.00044762 0.00066283 0.000878039 0.00107638 0.00127471 0.00144856 0.0016224 0.00176507 0.00190775 0.00201376 0.00211977 0.00218506 0.00225034 0.00227238 0.00229443 0.00227238 0.00225034 0.00218506 0.00211977 0.00201376 0.00190775 0.00176507 0.0016224 0.00144856 0.00127471 0.00107638 0.000878039 0.00066283 0.00044762 0.00022381 -2.62564e-17 -0.00022381 -0.00044762 -0.00066283 -0.000878039 -0.00107638 -0.00127471 -0.00144856 -0.0016224 -0.00176507 -0.00190775 -0.00201376 -0.00211977 -0.00218506 -0.00225034 -0.00227238 -0.00229443 -0.00227238 -0.00225034 -0.00218506 -0.00211977 -0.00201376 -0.00190775 -0.00176507 -0.0016224 -0.00144856 -0.00127471 -0.00107638 -0.000878039 -0.00066283 -0.00044762 -0.00022381 -2.55e-17 0 0.000241901 0.000483801 0.000716406 0.000949011 0.00116338 0.00137775 0.00156565 0.00175354 0.00190775 0.00206195 0.00217653 0.00229111 0.00236167 0.00243223 0.00245606 0.00247988 0.00245606 0.00243223 0.00236167 0.00229111 0.00217653 0.00206195 0.00190775 0.00175354 0.00156565 0.00137775 0.00116338 0.000949011 0.000716406 0.000483801 0.000241901 -2.20986e-19 -0.000241901 -0.000483801 -0.000716406 -0.000949011 -0.00116338 -0.00137775 -0.00156565 -0.00175354 -0.00190775 -0.00206195 -0.00217653 -0.00229111 -0.00236167 -0.00243223 -0.00245606 -0.00247988 -0.00245606 -0.00243223 -0.00236167 -0.00229111 -0.00217653 -0.00206195 -0.00190775 -0.00175354 -0.00156565 -0.00137775 -0.00116338 -0.000949011 -0.000716406 -0.000483801 -0.000241901 -2.75612e-17 0 0.000255343 0.000510686 0.000756217 0.00100175 0.00122803 0.00145431 0.00165265 0.00185099 0.00201376 0.00217653 0.00229748 0.00241843 0.00249291 0.00256739 0.00259254 0.00261769 0.00259254 0.00256739 0.00249291 0.00241843 0.00229748 0.00217653 0.00201376 0.00185099 0.00165265 0.00145431 0.00122803 0.00100175 0.000756217 0.000510686 0.000255343 7.68601e-18 -0.000255343 -0.000510686 -0.000756217 -0.00100175 -0.00122803 -0.00145431 -0.00165265 -0.00185099 -0.00201376 -0.00217653 -0.00229748 -0.00241843 -0.00249291 -0.00256739 -0.00259254 -0.00261769 -0.00259254 -0.00256739 -0.00249291 -0.00241843 -0.00229748 -0.00217653 -0.00201376 -0.00185099 -0.00165265 -0.00145431 -0.00122803 -0.00100175 -0.000756217 -0.000510686 -0.000255343 -2.90928e-17 0 0.000268786 0.000537571 0.000796028 0.00105448 0.00129268 0.00153087 0.00173965 0.00194843 0.00211977 0.00229111 0.00241843 0.00254575 0.00262415 0.00270255 0.00272903 0.0027555 0.00272903 0.00270255 0.00262415 0.00254575 0.00241843 0.00229111 0.00211977 0.00194843 0.00173965 0.00153087 0.00129268 0.00105448 0.000796028 0.000537571 0.000268786 1.5593e-17 -0.000268786 -0.000537571 -0.000796028 -0.00105448 -0.00129268 -0.00153087 -0.00173965 -0.00194843 -0.00211977 -0.00229111 -0.00241843 -0.00254575 -0.00262415 -0.00270255 -0.00272903 -0.0027555 -0.00272903 -0.00270255 -0.00262415 -0.00254575 -0.00241843 -0.00229111 -0.00211977 -0.00194843 -0.00173965 -0.00153087 -0.00129268 -0.00105448 -0.000796028 -0.000537571 -0.000268786 -3.06244e-17 0 0.000277063 0.000554127 0.000820543 0.00108696 0.00133249 0.00157802 0.00179323 0.00200844 0.00218506 0.00236167 0.00249291 0.00262415 0.00270497 0.00278578 0.00281307 0.00284036 0.00281307 0.00278578 0.00270497 0.00262415 0.00249291 0.00236167 0.00218506 0.00200844 0.00179323 0.00157802 0.00133249 0.00108696 0.000820543 0.000554127 0.000277063 2.87895e-17 -0.000277063 -0.000554127 -0.000820543 -0.00108696 -0.00133249 -0.00157802 -0.00179323 -0.00200844 -0.00218506 -0.00236167 -0.00249291 -0.00262415 -0.00270497 -0.00278578 -0.00281307 -0.00284036 -0.00281307 -0.00278578 -0.00270497 -0.00262415 -0.00249291 -0.00236167 -0.00218506 -0.00200844 -0.00179323 -0.00157802 -0.00133249 -0.00108696 -0.000820543 -0.000554127 -0.000277063 -3.15675e-17 0 0.000285341 0.000570683 0.000845058 0.00111943 0.0013723 0.00162517 0.00184681 0.00206844 0.00225034 0.00243223 0.00256739 0.00270255 0.00278578 0.00286902 0.00289712 0.00292522 0.00289712 0.00286902 0.00278578 0.00270255 0.00256739 0.00243223 0.00225034 0.00206844 0.00184681 0.00162517 0.0013723 0.00111943 0.000845058 0.000570683 0.000285341 4.19861e-17 -0.000285341 -0.000570683 -0.000845058 -0.00111943 -0.0013723 -0.00162517 -0.00184681 -0.00206844 -0.00225034 -0.00243223 -0.00256739 -0.00270255 -0.00278578 -0.00286902 -0.00289712 -0.00292522 -0.00289712 -0.00286902 -0.00278578 -0.00270255 -0.00256739 -0.00243223 -0.00225034 -0.00206844 -0.00184681 -0.00162517 -0.0013723 -0.00111943 -0.000845058 -0.000570683 -0.000285341 -3.25107e-17 0 0.000288136 0.000576273 0.000853336 0.0011304 0.00138574 0.00164109 0.0018649 0.00208871 0.00227238 0.00245606 0.00259254 0.00272903 0.00281307 0.00289712 0.0029255 0.00295388 0.0029255 0.00289712 0.00281307 0.00272903 0.00259254 0.00245606 0.00227238 0.00208871 0.0018649 0.00164109 0.00138574 0.0011304 0.000853336 0.000576273 0.000288136 4.48222e-17 -0.000288136 -0.000576273 -0.000853336 -0.0011304 -0.00138574 -0.00164109 -0.0018649 -0.00208871 -0.00227238 -0.00245606 -0.00259254 -0.00272903 -0.00281307 -0.00289712 -0.0029255 -0.00295388 -0.0029255 -0.00289712 -0.00281307 -0.00272903 -0.00259254 -0.00245606 -0.00227238 -0.00208871 -0.0018649 -0.00164109 -0.00138574 -0.0011304 -0.000853336 -0.000576273 -0.000288136 -3.28291e-17 0 0.000290931 0.000581863 0.000861614 0.00114137 0.00139919 0.00165701 0.00188299 0.00210897 0.00229443 0.00247988 0.00261769 0.0027555 0.00284036 0.00292522 0.00295388 0.00298253 0.00295388 0.00292522 0.00284036 0.0027555 0.00261769 0.00247988 0.00229443 0.00210897 0.00188299 0.00165701 0.00139919 0.00114137 0.000861614 0.000581863 0.000290931 4.76583e-17 -0.000290931 -0.000581863 -0.000861614 -0.00114137 -0.00139919 -0.00165701 -0.00188299 -0.00210897 -0.00229443 -0.00247988 -0.00261769 -0.0027555 -0.00284036 -0.00292522 -0.00295388 -0.00298253 -0.00295388 -0.00292522 -0.00284036 -0.0027555 -0.00261769 -0.00247988 -0.00229443 -0.00210897 -0.00188299 -0.00165701 -0.00139919 -0.00114137 -0.000861614 -0.000581863 -0.000290931 -3.31476e-17 0 0.000288136 0.000576273 0.000853336 0.0011304 0.00138574 0.00164109 0.0018649 0.00208871 0.00227238 0.00245606 0.00259254 0.00272903 0.00281307 0.00289712 0.0029255 0.00295388 0.0029255 0.00289712 0.00281307 0.00272903 0.00259254 0.00245606 0.00227238 0.00208871 0.0018649 0.00164109 0.00138574 0.0011304 0.000853336 0.000576273 0.000288136 2.46811e-17 -0.000288136 -0.000576273 -0.000853336 -0.0011304 -0.00138574 -0.00164109 -0.0018649 -0.00208871 -0.00227238 -0.00245606 -0.00259254 -0.00272903 -0.00281307 -0.00289712 -0.0029255 -0.00295388 -0.0029255 -0.00289712 -0.00281307 -0.00272903 -0.00259254 -0.00245606 -0.00227238 -0.00208871 -0.0018649 -0.00164109 -0.00138574 -0.0011304 -0.000853336 -0.000576273 -0.000288136 -3.28291e-17 0 0.000285341 0.000570683 0.000845058 0.00111943 0.0013723 0.00162517 0.00184681 0.00206844 0.00225034 0.00243223 0.00256739 0.00270255 0.00278578 0.00286902 0.00289712 0.00292522 0.00289712 0.00286902 0.00278578 0.00270255 0.00256739 0.00243223 0.00225034 0.00206844 0.00184681 0.00162517 0.0013723 0.00111943 0.000845058 0.000570683 0.000285341 1.70379e-18 -0.000285341 -0.000570683 -0.000845058 -0.00111943 -0.0013723 -0.00162517 -0.00184681 -0.00206844 -0.00225034 -0.00243223 -0.00256739 -0.00270255 -0.00278578 -0.00286902 -0.00289712 -0.00292522 -0.00289712 -0.00286902 -0.00278578 -0.00270255 -0.00256739 -0.00243223 -0.00225034 -0.00206844 -0.00184681 -0.00162517 -0.0013723 -0.00111943 -0.000845058 -0.000570683 -0.000285341 -3.25107e-17 0 0.000277063 0.000554127 0.000820543 0.00108696 0.00133249 0.00157802 0.00179323 0.00200844 0.00218506 0.00236167 0.00249291 0.00262415 0.00270497 0.00278578 0.00281307 0.00284036 0.00281307 0.00278578 0.00270497 0.00262415 0.00249291 0.00236167 0.00218506 0.00200844 0.00179323 0.00157802 0.00133249 0.00108696 0.000820543 0.000554127 0.000277063 -1.27307e-17 -0.000277063 -0.000554127 -0.000820543 -0.00108696 -0.00133249 -0.00157802 -0.00179323 -0.00200844 -0.00218506 -0.00236167 -0.00249291 -0.00262415 -0.00270497 -0.00278578 -0.00281307 -0.00284036 -0.00281307 -0.00278578 -0.00270497 -0.00262415 -0.00249291 -0.00236167 -0.00218506 -0.00200844 -0.00179323 -0.00157802 -0.00133249 -0.00108696 -0.000820543 -0.000554127 -0.000277063 -3.15675e-17 0 0.000268786 0.000537571 0.000796028 0.00105448 0.00129268 0.00153087 0.00173965 0.00194843 0.00211977 0.00229111 0.00241843 0.00254575 0.00262415 0.00270255 0.00272903 0.0027555 0.00272903 0.00270255 0.00262415 0.00254575 0.00241843 0.00229111 0.00211977 0.00194843 0.00173965 0.00153087 0.00129268 0.00105448 0.000796028 0.000537571 0.000268786 -2.71652e-17 -0.000268786 -0.000537571 -0.000796028 -0.00105448 -0.00129268 -0.00153087 -0.00173965 -0.00194843 -0.00211977 -0.00229111 -0.00241843 -0.00254575 -0.00262415 -0.00270255 -0.00272903 -0.0027555 -0.00272903 -0.00270255 -0.00262415 -0.00254575 -0.00241843 -0.00229111 -0.00211977 -0.00194843 -0.00173965 -0.00153087 -0.00129268 -0.00105448 -0.000796028 -0.000537571 -0.000268786 -3.06244e-17 0 0.000255343 0.000510686 0.000756217 0.00100175 0.00122803 0.00145431 0.00165265 0.00185099 0.00201376 0.00217653 0.00229748 0.00241843 0.00249291 0.00256739 0.00259254 0.00261769 0.00259254 0.00256739 0.00249291 0.00241843 0.00229748 0.00217653 0.00201376 0.00185099 0.00165265 0.00145431 0.00122803 0.00100175 0.000756217 0.000510686 0.000255343 -3.13989e-17 -0.000255343 -0.000510686 -0.000756217 -0.00100175 -0.00122803 -0.00145431 -0.00165265 -0.00185099 -0.00201376 -0.00217653 -0.00229748 -0.00241843 -0.00249291 -0.00256739 -0.00259254 -0.00261769 -0.00259254 -0.00256739 -0.00249291 -0.00241843 -0.00229748 -0.00217653 -0.00201376 -0.00185099 -0.00165265 -0.00145431 -0.00122803 -0.00100175 -0.000756217 -0.000510686 -0.000255343 -2.90928e-17 0 0.000241901 0.000483801 0.000716406 0.000949011 0.00116338 0.00137775 0.00156565 0.00175354 0.00190775 0.00206195 0.00217653 0.00229111 0.00236167 0.00243223 0.00245606 0.00247988 0.00245606 0.00243223 0.00236167 0.00229111 0.00217653 0.00206195 0.00190775 0.00175354 0.00156565 0.00137775 0.00116338 0.000949011 0.000716406 0.000483801 0.000241901 -3.56326e-17 -0.000241901 -0.000483801 -0.000716406 -0.000949011 -0.00116338 -0.00137775 -0.00156565 -0.00175354 -0.00190775 -0.00206195 -0.00217653 -0.00229111 -0.00236167 -0.00243223 -0.00245606 -0.00247988 -0.00245606 -0.00243223 -0.00236167 -0.00229111 -0.00217653 -0.00206195 -0.00190775 -0.00175354 -0.00156565 -0.00137775 -0.00116338 -0.000949011 -0.000716406 -0.000483801 -0.000241901 -2.75612e-17 0 0.00022381 0.00044762 0.00066283 0.000878039 0.00107638 0.00127471 0.00144856 0.0016224 0.00176507 0.00190775 0.00201376 0.00211977 0.00218506 0.00225034 0.00227238 0.00229443 0.00227238 0.00225034 0.00218506 0.00211977 0.00201376 0.00190775 0.00176507 0.0016224 0.00144856 0.00127471 0.00107638 0.000878039 0.00066283 0.00044762 0.00022381 -1.83729e-17 -0.00022381 -0.00044762 -0.00066283 -0.000878039 -0.00107638 -0.00127471 -0.00144856 -0.0016224 -0.00176507 -0.00190775 -0.00201376 -0.00211977 -0.00218506 -0.00225034 -0.00227238 -0.00229443 -0.00227238 -0.00225034 -0.00218506 -0.00211977 -0.00201376 -0.00190775 -0.00176507 -0.0016224 -0.00144856 -0.00127471 -0.00107638 -0.000878039 -0.00066283 -0.00044762 -0.00022381 -2.55e-17 0 0.00020572 0.000411439 0.000609253 0.000807067 0.000989374 0.00117168 0.00133147 0.00149127 0.0016224 0.00175354 0.00185099 0.00194843 0.00200844 0.00206844 0.00208871 0.00210897 0.00208871 0.00206844 0.00200844 0.00194843 0.00185099 0.00175354 0.0016224 0.00149127 0.00133147 0.00117168 0.000989374 0.000807067 0.000609253 0.000411439 0.00020572 -1.11312e-18 -0.00020572 -0.000411439 -0.000609253 -0.000807067 -0.000989374 -0.00117168 -0.00133147 -0.00149127 -0.0016224 -0.00175354 -0.00185099 -0.00194843 -0.00200844 -0.00206844 -0.00208871 -0.00210897 -0.00208871 -0.00206844 -0.00200844 -0.00194843 -0.00185099 -0.00175354 -0.0016224 -0.00149127 -0.00133147 -0.00117168 -0.000989374 -0.000807067 -0.000609253 -0.000411439 -0.00020572 -2.34389e-17 0 0.000183676 0.000367353 0.00054397 0.000720588 0.00088336 0.00104613 0.0011888 0.00133147 0.00144856 0.00156565 0.00165265 0.00173965 0.00179323 0.00184681 0.0018649 0.00188299 0.0018649 0.00184681 0.00179323 0.00173965 0.00165265 0.00156565 0.00144856 0.00133147 0.0011888 0.00104613 0.00088336 0.000720588 0.00054397 0.000367353 0.000183676 2.6608e-17 -0.000183676 -0.000367353 -0.00054397 -0.000720588 -0.00088336 -0.00104613 -0.0011888 -0.00133147 -0.00144856 -0.00156565 -0.00165265 -0.00173965 -0.00179323 -0.00184681 -0.0018649 -0.00188299 -0.0018649 -0.00184681 -0.00179323 -0.00173965 -0.00165265 -0.00156565 -0.00144856 -0.00133147 -0.0011888 -0.00104613 -0.00088336 -0.000720588 -0.00054397 -0.000367353 -0.000183676 -2.09273e-17 0 0.000161633 0.000323266 0.000478687 0.000634109 0.000777346 0.000920583 0.00104613 0.00117168 0.00127471 0.00137775 0.00145431 0.00153087 0.00157802 0.00162517 0.00164109 0.00165701 0.00164109 0.00162517 0.00157802 0.00153087 0.00145431 0.00137775 0.00127471 0.00117168 0.00104613 0.000920583 0.000777346 0.000634109 0.000478687 0.000323266 0.000161633 5.43292e-17 -0.000161633 -0.000323266 -0.000478687 -0.000634109 -0.000777346 -0.000920583 -0.00104613 -0.00117168 -0.00127471 -0.00137775 -0.00145431 -0.00153087 -0.00157802 -0.00162517 -0.00164109 -0.00165701 -0.00164109 -0.00162517 -0.00157802 -0.00153087 -0.00145431 -0.00137775 -0.00127471 -0.00117168 -0.00104613 -0.000920583 -0.000777346 -0.000634109 -0.000478687 -0.000323266 -0.000161633 -1.84158e-17 0 0.000136484 0.000272968 0.000404206 0.000535445 0.000656395 0.000777346 0.00088336 0.000989374 0.00107638 0.00116338 0.00122803 0.00129268 0.00133249 0.0013723 0.00138574 0.00139919 0.00138574 0.0013723 0.00133249 0.00129268 0.00122803 0.00116338 0.00107638 0.000989374 0.00088336 0.000777346 0.000656395 0.000535445 0.000404206 0.000272968 0.000136484 5.78673e-17 -0.000136484 -0.000272968 -0.000404206 -0.000535445 -0.000656395 -0.000777346 -0.00088336 -0.000989374 -0.00107638 -0.00116338 -0.00122803 -0.00129268 -0.00133249 -0.0013723 -0.00138574 -0.00139919 -0.00138574 -0.0013723 -0.00133249 -0.00129268 -0.00122803 -0.00116338 -0.00107638 -0.000989374 -0.00088336 -0.000777346 -0.000656395 -0.000535445 -0.000404206 -0.000272968 -0.000136484 -1.55504e-17 0 0.000111335 0.000222669 0.000329725 0.000436782 0.000535445 0.000634109 0.000720588 0.000807067 0.000878039 0.000949011 0.00100175 0.00105448 0.00108696 0.00111943 0.0011304 0.00114137 0.0011304 0.00111943 0.00108696 0.00105448 0.00100175 0.000949011 0.000878039 0.000807067 0.000720588 0.000634109 0.000535445 0.000436782 0.000329725 0.000222669 0.000111335 6.14054e-17 -0.000111335 -0.000222669 -0.000329725 -0.000436782 -0.000535445 -0.000634109 -0.000720588 -0.000807067 -0.000878039 -0.000949011 -0.00100175 -0.00105448 -0.00108696 -0.00111943 -0.0011304 -0.00114137 -0.0011304 -0.00111943 -0.00108696 -0.00105448 -0.00100175 -0.000949011 -0.000878039 -0.000807067 -0.000720588 -0.000634109 -0.000535445 -0.000436782 -0.000329725 -0.000222669 -0.000111335 -1.2685e-17 0 8.40463e-05 0.000168093 0.000248909 0.000329725 0.000404206 0.000478687 0.00054397 0.000609253 0.00066283 0.000716406 0.000756217 0.000796028 0.000820543 0.000845058 0.000853336 0.000861614 0.000853336 0.000845058 0.000820543 0.000796028 0.000756217 0.000716406 0.00066283 0.000609253 0.00054397 0.000478687 0.000404206 0.000329725 0.000248909 0.000168093 8.40463e-05 5.58088e-17 -8.40463e-05 -0.000168093 -0.000248909 -0.000329725 -0.000404206 -0.000478687 -0.00054397 -0.000609253 -0.00066283 -0.000716406 -0.000756217 -0.000796028 -0.000820543 -0.000845058 -0.000853336 -0.000861614 -0.000853336 -0.000845058 -0.000820543 -0.000796028 -0.000756217 -0.000716406 -0.00066283 -0.000609253 -0.00054397 -0.000478687 -0.000404206 -0.000329725 -0.000248909 -0.000168093 -8.40463e-05 -9.5759e-18 0 5.67579e-05 0.000113516 0.000168093 0.000222669 0.000272968 0.000323266 0.000367353 0.000411439 0.00044762 0.000483801 0.000510686 0.000537571 0.000554127 0.000570683 0.000576273 0.000581863 0.000576273 0.000570683 0.000554127 0.000537571 0.000510686 0.000483801 0.00044762 0.000411439 0.000367353 0.000323266 0.000272968 0.000222669 0.000168093 0.000113516 5.67579e-05 5.02121e-17 -5.67579e-05 -0.000113516 -0.000168093 -0.000222669 -0.000272968 -0.000323266 -0.000367353 -0.000411439 -0.00044762 -0.000483801 -0.000510686 -0.000537571 -0.000554127 -0.000570683 -0.000576273 -0.000581863 -0.000576273 -0.000570683 -0.000554127 -0.000537571 -0.000510686 -0.000483801 -0.00044762 -0.000411439 -0.000367353 -0.000323266 -0.000272968 -0.000222669 -0.000168093 -0.000113516 -5.67579e-05 -6.46677e-18 0 2.8379e-05 5.67579e-05 8.40463e-05 0.000111335 0.000136484 0.000161633 0.000183676 0.00020572 0.00022381 0.000241901 0.000255343 0.000268786 0.000277063 0.000285341 0.000288136 0.000290931 0.000288136 0.000285341 0.000277063 0.000268786 0.000255343 0.000241901 0.00022381 0.00020572 0.000183676 0.000161633 0.000136484 0.000111335 8.40463e-05 5.67579e-05 2.8379e-05 4.24193e-17 -2.8379e-05 -5.67579e-05 -8.40463e-05 -0.000111335 -0.000136484 -0.000161633 -0.000183676 -0.00020572 -0.00022381 -0.000241901 -0.000255343 -0.000268786 -0.000277063 -0.000285341 -0.000288136 -0.000290931 -0.000288136 -0.000285341 -0.000277063 -0.000268786 -0.000255343 -0.000241901 -0.00022381 -0.00020572 -0.000183676 -0.000161633 -0.000136484 -0.000111335 -8.40463e-05 -5.67579e-05 -2.8379e-05 -3.23339e-18 0 1.4758e-17 2.95161e-17 3.20388e-17 3.45616e-17 2.48094e-17 1.50573e-17 -1.57528e-17 -4.65629e-17 -6.5805e-17 -8.50471e-17 -8.71915e-17 -8.93359e-17 -2.45194e-17 4.02971e-17 -6.60284e-18 -5.35028e-17 -3.77039e-17 -2.1905e-17 -4.05087e-17 -5.91124e-17 -6.07792e-17 -6.24459e-17 -5.9818e-18 5.04823e-17 9.25126e-18 -3.19798e-17 -8.69817e-18 1.45835e-17 1.84069e-17 2.22303e-17 2.84284e-17 3.46265e-17 3.17122e-17 2.8798e-17 2.94299e-17 3.00618e-17 1.22088e-17 -5.64412e-18 -7.12692e-18 -8.60972e-18 2.08756e-17 5.0361e-17 5.89875e-17 6.7614e-17 7.52035e-17 8.2793e-17 8.32324e-17 8.36718e-17 5.80979e-17 3.2524e-17 -2.58741e-17 -8.42723e-17 -8.44984e-17 -8.47246e-17 -5.5428e-17 -2.61315e-17 -2.51745e-17 -2.42174e-17 4.64563e-19 2.51466e-17 2.11906e-17 1.72346e-17 8.61729e-18 -4.05941e-33 0 -2.8379e-05 -5.67579e-05 -8.40463e-05 -0.000111335 -0.000136484 -0.000161633 -0.000183676 -0.00020572 -0.00022381 -0.000241901 -0.000255343 -0.000268786 -0.000277063 -0.000285341 -0.000288136 -0.000290931 -0.000288136 -0.000285341 -0.000277063 -0.000268786 -0.000255343 -0.000241901 -0.00022381 -0.00020572 -0.000183676 -0.000161633 -0.000136484 -0.000111335 -8.40463e-05 -5.67579e-05 -2.8379e-05 2.86824e-17 2.8379e-05 5.67579e-05 8.40463e-05 0.000111335 0.000136484 0.000161633 0.000183676 0.00020572 0.00022381 0.000241901 0.000255343 0.000268786 0.000277063 0.000285341 0.000288136 0.000290931 0.000288136 0.000285341 0.000277063 0.000268786 0.000255343 0.000241901 0.00022381 0.00020572 0.000183676 0.000161633 0.000136484 0.000111335 8.40463e-05 5.67579e-05 2.8379e-05 3.23339e-18 -0 -5.67579e-05 -0.000113516 -0.000168093 -0.000222669 -0.000272968 -0.000323266 -0.000367353 -0.000411439 -0.00044762 -0.000483801 -0.000510686 -0.000537571 -0.000554127 -0.000570683 -0.000576273 -0.000581863 -0.000576273 -0.000570683 -0.000554127 -0.000537571 -0.000510686 -0.000483801 -0.00044762 -0.000411439 -0.000367353 -0.000323266 -0.000272968 -0.000222669 -0.000168093 -0.000113516 -5.67579e-05 2.27383e-17 5.67579e-05 0.000113516 0.000168093 0.000222669 0.000272968 0.000323266 0.000367353 0.000411439 0.00044762 0.000483801 0.000510686 0.000537571 0.000554127 0.000570683 0.000576273 0.000581863 0.000576273 0.000570683 0.000554127 0.000537571 0.000510686 0.000483801 0.00044762 0.000411439 0.000367353 0.000323266 0.000272968 0.000222669 0.000168093 0.000113516 5.67579e-05 6.46677e-18 -0 -8.40463e-05 -0.000168093 -0.000248909 -0.000329725 -0.000404206 -0.000478687 -0.00054397 -0.000609253 -0.00066283 -0.000716406 -0.000756217 -0.000796028 -0.000820543 -0.000845058 -0.000853336 -0.000861614 -0.000853336 -0.000845058 -0.000820543 -0.000796028 -0.000756217 -0.000716406 -0.00066283 -0.000609253 -0.00054397 -0.000478687 -0.000404206 -0.000329725 -0.000248909 -0.000168093 -8.40463e-05 1.47736e-17 8.40463e-05 0.000168093 0.000248909 0.000329725 0.000404206 0.000478687 0.00054397 0.000609253 0.00066283 0.000716406 0.000756217 0.000796028 0.000820543 0.000845058 0.000853336 0.000861614 0.000853336 0.000845058 0.000820543 0.000796028 0.000756217 0.000716406 0.00066283 0.000609253 0.00054397 0.000478687 0.000404206 0.000329725 0.000248909 0.000168093 8.40463e-05 9.5759e-18 -0 -0.000111335 -0.000222669 -0.000329725 -0.000436782 -0.000535445 -0.000634109 -0.000720588 -0.000807067 -0.000878039 -0.000949011 -0.00100175 -0.00105448 -0.00108696 -0.00111943 -0.0011304 -0.00114137 -0.0011304 -0.00111943 -0.00108696 -0.00105448 -0.00100175 -0.000949011 -0.000878039 -0.000807067 -0.000720588 -0.000634109 -0.000535445 -0.000436782 -0.000329725 -0.000222669 -0.000111335 6.80875e-18 0.000111335 0.000222669 0.000329725 0.000436782 0.000535445 0.000634109 0.000720588 0.000807067 0.000878039 0.000949011 0.00100175 0.00105448 0.00108696 0.00111943 0.0011304 0.00114137 0.0011304 0.00111943 0.00108696 0.00105448 0.00100175 0.000949011 0.000878039 0.000807067 0.000720588 0.000634109 0.000535445 0.000436782 0.000329725 0.000222669 0.000111335 1.2685e-17 -0 -0.000136484 -0.000272968 -0.000404206 -0.000535445 -0.000656395 -0.000777346 -0.00088336 -0.000989374 -0.00107638 -0.00116338 -0.00122803 -0.00129268 -0.00133249 -0.0013723 -0.00138574 -0.00139919 -0.00138574 -0.0013723 -0.00133249 -0.00129268 -0.00122803 -0.00116338 -0.00107638 -0.000989374 -0.00088336 -0.000777346 -0.000656395 -0.000535445 -0.000404206 -0.000272968 -0.000136484 -5.6389e-18 0.000136484 0.000272968 0.000404206 0.000535445 0.000656395 0.000777346 0.00088336 0.000989374 0.00107638 0.00116338 0.00122803 0.00129268 0.00133249 0.0013723 0.00138574 0.00139919 0.00138574 0.0013723 0.00133249 0.00129268 0.00122803 0.00116338 0.00107638 0.000989374 0.00088336 0.000777346 0.000656395 0.000535445 0.000404206 0.000272968 0.000136484 1.55504e-17 -0 -0.000161633 -0.000323266 -0.000478687 -0.000634109 -0.000777346 -0.000920583 -0.00104613 -0.00117168 -0.00127471 -0.00137775 -0.00145431 -0.00153087 -0.00157802 -0.00162517 -0.00164109 -0.00165701 -0.00164109 -0.00162517 -0.00157802 -0.00153087 -0.00145431 -0.00137775 -0.00127471 -0.00117168 -0.00104613 -0.000920583 -0.000777346 -0.000634109 -0.000478687 -0.000323266 -0.000161633 -1.80866e-17 0.000161633 0.000323266 0.000478687 0.000634109 0.000777346 0.000920583 0.00104613 0.00117168 0.00127471 0.00137775 0.00145431 0.00153087 0.00157802 0.00162517 0.00164109 0.00165701 0.00164109 0.00162517 0.00157802 0.00153087 0.00145431 0.00137775 0.00127471 0.00117168 0.00104613 0.000920583 0.000777346 0.000634109 0.000478687 0.000323266 0.000161633 1.84158e-17 -0 -0.000183676 -0.000367353 -0.00054397 -0.000720588 -0.00088336 -0.00104613 -0.0011888 -0.00133147 -0.00144856 -0.00156565 -0.00165265 -0.00173965 -0.00179323 -0.00184681 -0.0018649 -0.00188299 -0.0018649 -0.00184681 -0.00179323 -0.00173965 -0.00165265 -0.00156565 -0.00144856 -0.00133147 -0.0011888 -0.00104613 -0.00088336 -0.000720588 -0.00054397 -0.000367353 -0.000183676 -3.30476e-17 0.000183676 0.000367353 0.00054397 0.000720588 0.00088336 0.00104613 0.0011888 0.00133147 0.00144856 0.00156565 0.00165265 0.00173965 0.00179323 0.001