<?xml version="1.0"?> 
<VTKFile type="StructuredGrid" version="0.1"> 
<StructuredGrid WholeExtent="0 128 0 128 0 0"> 
<Piece Extent="0 128 0 128 0 0"> 
<PointData>
<DataArray type="Float32" Name="u" format="ascii" NumberOfComponents="1"> 
0 0 0 0 0 0 0 0 0 0 0 0 0 0 0 0 0 0 0 0 0 0 0 0 0 0 0 0 0 0 0 0 0 0 0 0 0 0 0 0 0 0 0 0 0 0 0 0 0 0 0 0 0 0 0 0 0 0 0 0 0 0 0 0 0 0 0 0 0 0 0 0 0 0 0 0 0 0 0 0 0 0 0 0 0 0 0 0 0 0 0 0 0 0 0 0 0 0 0 0 0 0 0 0 0 0 0 0 0 0 0 0 0 0 0 0 0 0 0 0 0 0 0 0 0 0 0 0 0 0 -8.98563e-08 -3.59425e-07 -8.08707e-07 -1.4377e-06 -2.24641e-06 -3.23483e-06 -4.40296e-06 -5.7508e-06 -6.99287e-06 -7.84365e-06 -8.30317e-06 -8.37141e-06 -8.04837e-06 -7.33406e-06 -6.22847e-06 -4.73161e-06 -2.77852e-06 -3.0425e-07 2.6912e-06 6.20782e-06 1.02456e-05 1.48046e-05 1.98848e-05 2.54861e-05 3.12025e-05 3.66279e-05 4.17622e-05 4.66056e-05 5.11579e-05 5.54192e-05 5.93894e-05 6.30686e-05 6.61385e-05 6.82808e-05 6.94954e-05 6.97825e-05 6.91418e-05 6.75736e-05 6.50777e-05 6.16542e-05 5.75082e-05 5.28449e-05 4.76641e-05 4.1966e-05 3.57505e-05 2.90176e-05 2.17674e-05 1.39998e-05 6.37459e-06 -4.48379e-07 -6.46913e-06 -1.16877e-05 -1.6104e-05 -1.97181e-05 -2.253e-05 -2.45396e-05 -2.51725e-05 -2.3854e-05 -2.05842e-05 -1.5363e-05 -8.19045e-06 9.33437e-07 1.20087e-05 2.50353e-05 3.98877e-05 5.64406e-05 7.46938e-05 9.46475e-05 0.000116302 0.000139656 0.000164711 0.000191466 0.00021891 0.00024603 0.000272826 0.000299299 0.000325448 0.000351274 0.000376776 0.000401954 0.000425645 0.000446682 0.000465068 0.0004808 0.000493881 0.000504308 0.000512083 0.000517206 0.000519519 0.000518865 0.000515245 0.000508659 0.000499106 0.000486587 0.000471101 0.000452648 0.00043224 0.000410885 0.000388585 0.00036534 0.000341148 0.000316011 0.000289927 0.000262899 0.000236072 0.000210598 0.000186474 0.000163702 0.000142281 0.000122211 0.000103493 8.61261e-05 7.03268e-05 5.63113e-05 4.40798e-05 3.36321e-05 2.49683e-05 1.80885e-05 1.29925e-05 9.68045e-06 7.4116e-06 5.44526e-06 3.78143e-06 2.42011e-06 1.36131e-06 6.05028e-07 1.51257e-07 0 0 -3.59425e-07 -1.4377e-06 -3.23483e-06 -5.7508e-06 -8.98563e-06 -1.29393e-05 -1.76118e-05 -2.30032e-05 -2.79715e-05 -3.13746e-05 -3.32127e-05 -3.34856e-05 -3.21935e-05 -2.93362e-05 -2.49139e-05 -1.89264e-05 -1.11141e-05 -1.217e-06 1.07648e-05 2.48313e-05 4.09825e-05 5.92184e-05 7.9539e-05 0.000101944 0.00012481 0.000146512 0.000167049 0.000186422 0.000204632 0.000221677 0.000237558 0.000252275 0.000264554 0.000273123 0.000277982 0.00027913 0.000276567 0.000270294 0.000260311 0.000246617 0.000230033 0.000211379 0.000190656 0.000167864 0.000143002 0.000116071 8.70696e-05 5.59991e-05 2.54984e-05 -1.79352e-06 -2.58765e-05 -4.67507e-05 -6.44159e-05 -7.88723e-05 -9.01198e-05 -9.81584e-05 -0.00010069 -9.5416e-05 -8.23367e-05 -6.14519e-05 -3.27618e-05 3.73375e-06 4.80347e-05 0.000100141 0.000159551 0.000225762 0.000298775 0.00037859 0.000465206 0.000558624 0.000658843 0.000765864 0.000875638 0.000984118 0.0010913 0.0011972 0.00130179 0.00140509 0.0015071 0.00160782 0.00170258 0.00178673 0.00186027 0.0019232 0.00197552 0.00201723 0.00204833 0.00206882 0.00207808 0.00207546 0.00206098 0.00203464 0.00199642 0.00194635 0.0018844 0.00181059 0.00172896 0.00164354 0.00155434 0.00146136 0.00136459 0.00126404 0.00115971 0.00105159 0.00094429 0.00084239 0.000745896 0.000654807 0.000569124 0.000488846 0.000413972 0.000344505 0.000281307 0.000225245 0.000176319 0.000134528 9.98734e-05 7.23539e-05 5.19701e-05 3.87218e-05 2.96464e-05 2.1781e-05 1.51257e-05 9.68045e-06 5.44526e-06 2.42011e-06 6.05028e-07 0 0 -8.08707e-07 -3.23483e-06 -7.27836e-06 -1.29393e-05 -2.02177e-05 -2.91134e-05 -3.96266e-05 -5.17572e-05 -6.29358e-05 -7.05929e-05 -7.47285e-05 -7.53426e-05 -7.24353e-05 -6.60065e-05 -5.60562e-05 -4.25845e-05 -2.50067e-05 -2.73825e-06 2.42208e-05 5.58704e-05 9.22106e-05 0.000133241 0.000178963 0.000229375 0.000280823 0.000329651 0.00037586 0.00041945 0.000460421 0.000498772 0.000534505 0.000567618 0.000595247 0.000614527 0.000625459 0.000628042 0.000622277 0.000608162 0.0005857 0.000554888 0.000517574 0.000475604 0.000428977 0.000377694 0.000321755 0.000261159 0.000195907 0.000125998 5.73713e-05 -4.03542e-06 -5.82222e-05 -0.000105189 -0.000144936 -0.000177463 -0.00020277 -0.000220856 -0.000226552 -0.000214686 -0.000185258 -0.000138267 -7.37141e-05 8.40093e-06 0.000108078 0.000225317 0.00035899 0.000507965 0.000672244 0.000851827 0.00104671 0.0012569 0.0014824 0.00172319 0.00197019 0.00221427 0.00245543 0.00269369 0.00292903 0.00316146 0.00339098 0.00361759 0.0038308 0.00402014 0.00418561 0.0043272 0.00444492 0.00453877 0.00460875 0.00465485 0.00467567 0.00466979 0.00463721 0.00457793 0.00449195 0.00437928 0.00423991 0.00407383 0.00389016 0.00369797 0.00349727 0.00328806 0.00307033 0.0028441 0.00260935 0.00236609 0.00212465 0.00189538 0.00167827 0.00147332 0.00128053 0.0010999 0.000931438 0.000775135 0.000632941 0.000506802 0.000396718 0.000302689 0.000224715 0.000162796 0.000116933 8.71241e-05 6.67044e-05 4.90073e-05 3.40328e-05 2.1781e-05 1.22518e-05 5.44526e-06 1.36131e-06 0 0 -1.4377e-06 -5.7508e-06 -1.29393e-05 -2.30032e-05 -3.59425e-05 -5.17572e-05 -7.04473e-05 -9.20128e-05 -0.000111886 -0.000125498 -0.000132851 -0.000133942 -0.000128774 -0.000117345 -9.96555e-05 -7.57057e-05 -4.44563e-05 -4.868e-06 4.30591e-05 9.93251e-05 0.00016393 0.000236874 0.000318156 0.000407777 0.00049924 0.000586046 0.000668196 0.000745689 0.000818526 0.000886707 0.000950231 0.0010091 0.00105822 0.00109249 0.00111193 0.00111652 0.00110627 0.00108118 0.00104124 0.000986468 0.000920132 0.000845518 0.000762626 0.000671456 0.000572008 0.000464282 0.000348278 0.000223997 0.000101993 -7.17407e-06 -0.000103506 -0.000187003 -0.000257664 -0.000315489 -0.000360479 -0.000392634 -0.00040276 -0.000381664 -0.000329347 -0.000245808 -0.000131047 1.4935e-05 0.000192139 0.000400564 0.000638204 0.000903049 0.0011951 0.00151436 0.00186082 0.00223449 0.00263537 0.00306346 0.00350255 0.00393647 0.00436522 0.00478878 0.00520717 0.00562038 0.00602841 0.00643127 0.00681031 0.00714692 0.00744108 0.00769281 0.00790209 0.00806893 0.00819333 0.00827529 0.0083123 0.00830184 0.00824393 0.00813854 0.0079857 0.00778539 0.00753761 0.00724237 0.00691584 0.00657417 0.00621737 0.00584543 0.00545837 0.00505617 0.00463884 0.00420638 0.00377716 0.00336956 0.00298359 0.00261923 0.0022765 0.00195538 0.00165589 0.00137802 0.00112523 0.000900981 0.000705276 0.000538114 0.000399493 0.000289416 0.00020788 0.000154887 0.000118586 8.71241e-05 6.05028e-05 3.87218e-05 2.1781e-05 9.68045e-06 2.42011e-06 0 0 -2.24641e-06 -8.98563e-06 -2.02177e-05 -3.59425e-05 -5.61602e-05 -8.08707e-05 -0.000110074 -0.00014377 -0.000174822 -0.000196091 -0.000207579 -0.000209285 -0.000201209 -0.000183351 -0.000155712 -0.00011829 -6.94629e-05 -7.60625e-06 6.72799e-05 0.000155195 0.000256141 0.000370115 0.000497119 0.000637152 0.000780063 0.000915697 0.00104406 0.00116514 0.00127895 0.00138548 0.00148474 0.00157672 0.00165346 0.00170702 0.00173739 0.00174456 0.00172855 0.00168934 0.00162694 0.00154136 0.00143771 0.00132112 0.0011916 0.00104915 0.000893763 0.000725441 0.000544185 0.000349995 0.000159365 -1.12095e-05 -0.000161728 -0.000292192 -0.0004026 -0.000492952 -0.000563249 -0.00061349 -0.000629312 -0.00059635 -0.000514604 -0.000384075 -0.000204761 2.33359e-05 0.000300217 0.000625882 0.000997193 0.00141101 0.00186735 0.00236619 0.00290754 0.0034914 0.00411777 0.00478665 0.00547274 0.00615074 0.00682065 0.00748247 0.0081362 0.00878184 0.00941939 0.0100489 0.0106411 0.0111671 0.0116267 0.01202 0.012347 0.0126077 0.0128021 0.0129301 0.012988 0.0129716 0.0128811 0.0127165 0.0124776 0.0121647 0.0117775 0.0113162 0.010806 0.0102721 0.00971464 0.00913349 0.0085287 0.00790027 0.00724819 0.00657246 0.00590181 0.00526494 0.00466185 0.00409255 0.00355702 0.00305528 0.00258733 0.00215315 0.00175817 0.00140778 0.00110199 0.000840803 0.000624209 0.000452212 0.000324813 0.000242011 0.00018529 0.000136131 9.45357e-05 6.05028e-05 3.40328e-05 1.51257e-05 3.78143e-06 0 0 -3.23483e-06 -1.29393e-05 -2.91134e-05 -5.17572e-05 -8.08707e-05 -0.000116454 -0.000158507 -0.000207029 -0.000251743 -0.000282372 -0.000298914 -0.000301371 -0.000289741 -0.000264026 -0.000224225 -0.000170338 -0.000100027 -1.0953e-05 9.6883e-05 0.000223481 0.000368842 0.000532966 0.000715851 0.000917499 0.00112329 0.0013186 0.00150344 0.0016778 0.00184168 0.00199509 0.00213802 0.00227047 0.00238099 0.00245811 0.00250184 0.00251217 0.00248911 0.00243265 0.0023428 0.00221955 0.0020703 0.00190242 0.00171591 0.00151078 0.00128702 0.00104464 0.000783626 0.000503992 0.000229485 -1.61417e-05 -0.000232889 -0.000420756 -0.000579743 -0.000709851 -0.000811078 -0.000883426 -0.000906209 -0.000858744 -0.00074103 -0.000553067 -0.000294856 3.36037e-05 0.000432312 0.00090127 0.00143596 0.00203186 0.00268898 0.00340731 0.00418685 0.00502761 0.00592959 0.00689277 0.00788074 0.00885706 0.00982174 0.0107748 0.0117161 0.0126459 0.0135639 0.0144703 0.0153232 0.0160806 0.0167424 0.0173088 0.0177797 0.0181551 0.018435 0.0186194 0.0187027 0.0186792 0.0185488 0.0183117 0.0179678 0.0175171 0.0169596 0.0162953 0.0155606 0.0147919 0.0139891 0.0131522 0.0122813 0.0113764 0.0104374 0.00946435 0.00849861 0.00758151 0.00671307 0.00589327 0.00512211 0.00439961 0.00372575 0.00310054 0.00253176 0.00202721 0.00158687 0.00121076 0.00089886 0.000651185 0.000467731 0.000348496 0.000266817 0.000196029 0.000136131 8.71241e-05 4.90073e-05 2.1781e-05 5.44526e-06 0 0 -4.40296e-06 -1.76118e-05 -3.96266e-05 -7.04473e-05 -0.000110074 -0.000158507 -0.000215745 -0.000281789 -0.00034265 -0.000384339 -0.000406855 -0.000410199 -0.00039437 -0.000359369 -0.000305195 -0.000231849 -0.000136147 -1.49082e-05 0.000131869 0.000304183 0.000502035 0.000725425 0.000974353 0.00124882 0.00152892 0.00179477 0.00204635 0.00228367 0.00250674 0.00271554 0.00291008 0.00309036 0.00324079 0.00334576 0.00340528 0.00341934 0.00338795 0.00331111 0.00318881 0.00302106 0.0028179 0.0025894 0.00233554 0.00205633 0.00175177 0.00142186 0.0010666 0.000685989 0.000312355 -2.19706e-05 -0.000316988 -0.000572696 -0.000789095 -0.000966186 -0.00110397 -0.00120244 -0.00123345 -0.00116885 -0.00100862 -0.000752786 -0.000401332 4.57384e-05 0.000588425 0.00122673 0.0019545 0.00276559 0.00366 0.00463773 0.00569877 0.00684314 0.00807083 0.00938183 0.0107266 0.0120554 0.0133685 0.0146656 0.015947 0.0172124 0.018462 0.0196958 0.0208566 0.0218874 0.0227883 0.0235592 0.0242001 0.0247111 0.0250921 0.0253431 0.0254564 0.0254244 0.025247 0.0249243 0.0244562 0.0238427 0.0230839 0.0221798 0.0211797 0.0201334 0.0190407 0.0179016 0.0167163 0.0154845 0.0142064 0.012882 0.0115675 0.0103193 0.00913723 0.00802139 0.00697177 0.00598836 0.00507116 0.00422018 0.00344601 0.00275925 0.00215991 0.00164797 0.00122345 0.000886335 0.000636633 0.000474342 0.000363168 0.000266817 0.00018529 0.000118586 6.67044e-05 2.96464e-05 7.4116e-06 0 0 -5.7508e-06 -2.30032e-05 -5.17572e-05 -9.20128e-05 -0.00014377 -0.000207029 -0.000281789 -0.000368051 -0.000447543 -0.000501994 -0.000531403 -0.00053577 -0.000515096 -0.00046938 -0.000398622 -0.000302823 -0.000177825 -1.9472e-05 0.000172236 0.0003973 0.00065572 0.000947494 0.00127262 0.00163111 0.00199696 0.00234418 0.00267278 0.00298276 0.0032741 0.00354683 0.00380092 0.00403639 0.00423287 0.00436997 0.00444771 0.00446608 0.00442508 0.00432471 0.00416497 0.00394587 0.00368053 0.00338207 0.0030505 0.00268582 0.00228803 0.00185713 0.00139311 0.000895986 0.000407974 -2.86963e-05 -0.000414025 -0.000748011 -0.00103065 -0.00126196 -0.00144192 -0.00157054 -0.00161104 -0.00152666 -0.00131739 -0.000983231 -0.000524189 5.974e-05 0.000768555 0.00160226 0.00255281 0.0036122 0.00478041 0.00605744 0.0074433 0.00893798 0.0105415 0.0122538 0.0140102 0.0157459 0.0174609 0.0191551 0.0208287 0.0224815 0.0241136 0.0257251 0.0272412 0.0285877 0.0297643 0.0307712 0.0316084 0.0322757 0.0327733 0.0331012 0.0332492 0.0332074 0.0329757 0.0325542 0.0319428 0.0311415 0.0301504 0.0289695 0.0276633 0.0262967 0.0248695 0.0233817 0.0218335 0.0202247 0.0185554 0.0168255 0.0151086 0.0134782 0.0119343 0.0104769 0.00910598 0.00782153 0.00662356 0.00551207 0.00450091 0.00360392 0.0028211 0.00215245 0.00159797 0.00115766 0.000831521 0.000619549 0.000474342 0.000348496 0.000242011 0.000154887 8.71241e-05 3.87218e-05 9.68045e-06 0 0 -6.85432e-06 -2.74173e-05 -6.16889e-05 -0.000109669 -0.000171358 -0.000246755 -0.000335862 -0.000438676 -0.000531944 -0.000592407 -0.000620067 -0.000614924 -0.000576977 -0.000506226 -0.000402672 -0.000266315 -9.23342e-05 0.000124088 0.000382952 0.000684258 0.00102801 0.0014142 0.00184283 0.0023139 0.00279406 0.00324995 0.00368158 0.00408893 0.00447202 0.00483084 0.00516539 0.00547568 0.0057356 0.00591908 0.00602612 0.0060567 0.00601084 0.00588854 0.00568978 0.00541458 0.00507978 0.00470222 0.00428189 0.00381881 0.00331297 0.00276437 0.00217301 0.0015389 0.000916043 0.000358483 -0.000133784 -0.000560759 -0.000922442 -0.00121883 -0.00144993 -0.00161573 -0.00166932 -0.00156374 -0.00129901 -0.000875126 -0.000292085 0.000450112 0.00135146 0.00241197 0.00362136 0.00496934 0.00645592 0.00808111 0.00984489 0.0117473 0.0137882 0.0159678 0.0182035 0.0204127 0.0225954 0.0247516 0.0268815 0.0289848 0.0310617 0.0331121 0.0350412 0.036754 0.0382505 0.0395308 0.0405948 0.0414426 0.0420741 0.0424893 0.0426754 0.0426194 0.0423214 0.0417813 0.0409991 0.0399749 0.0387085 0.0372002 0.0355319 0.0337859 0.0319622 0.0300608 0.0280817 0.0260248 0.0238902 0.0216779 0.0194815 0.0173945 0.015417 0.0135489 0.0117903 0.0101411 0.00860137 0.0071711 0.00586848 0.00471173 0.00370085 0.00283583 0.00211668 0.0015434 0.00111599 0.000834446 0.000638873 0.000469376 0.000325956 0.000208612 0.000117344 5.21529e-05 1.30382e-05 0 0 -7.28946e-06 -2.91578e-05 -6.56051e-05 -0.000116631 -0.000182236 -0.00026242 -0.000357183 -0.000466525 -0.000561372 -0.000612651 -0.00062036 -0.000584501 -0.000505074 -0.000382077 -0.000215512 -5.37869e-06 0.000253051 0.000564504 0.000928982 0.00134648 0.00181701 0.00234055 0.00291713 0.00354672 0.00418689 0.00479517 0.00537157 0.00591609 0.00642873 0.00690948 0.00735835 0.00777534 0.00812738 0.00838143 0.00853749 0.00859554 0.0085556 0.00841766 0.00818172 0.00784778 0.00743727 0.00697162 0.00645082 0.00587487 0.00524378 0.00455754 0.00381616 0.00301963 0.00223626 0.00153437 0.000913949 0.000375001 -8.24743e-05 -0.000458477 -0.000753007 -0.000966065 -0.00103863 -0.000911668 -0.00058519 -5.91936e-05 0.000666323 0.00159136 0.00271591 0.00403999 0.00555058 0.00723467 0.00909228 0.0111234 0.013328 0.0157061 0.0182578 0.0209829 0.0237782 0.02654 0.0292685 0.0319637 0.0346255 0.0372539 0.0398489 0.0424106 0.0448202 0.046959 0.0488268 0.0504238 0.0517499 0.0528052 0.0535896 0.0541031 0.0543294 0.0542518 0.0538705 0.0531854 0.0521966 0.050904 0.0493076 0.0474075 0.045306 0.0431054 0.0408059 0.0384072 0.0359096 0.0333129 0.0306172 0.0278225 0.0250458 0.0224042 0.0198978 0.0175264 0.0152902 0.0131891 0.011223 0.00939213 0.00772072 0.00623318 0.00492952 0.00380974 0.00287383 0.0021218 0.00155364 0.00116936 0.000895294 0.000657767 0.000456783 0.000292341 0.000164442 7.30852e-05 1.82713e-05 0 0 -7.05622e-06 -2.82249e-05 -6.3506e-05 -0.0001129 -0.000176406 -0.000254024 -0.000345755 -0.000451598 -0.000535829 -0.000562724 -0.000532281 -0.000444502 -0.000299385 -9.6932e-05 0.000162858 0.000479985 0.000858331 0.00130178 0.00181032 0.00238397 0.00302272 0.00372657 0.00449552 0.00532957 0.00617544 0.00697983 0.00774276 0.00846422 0.00914421 0.00978273 0.0103798 0.0109354 0.0114082 0.011757 0.0119818 0.0120826 0.0120593 0.0119121 0.0116408 0.0112455 0.010753 0.0101903 0.00955727 0.00885399 0.00808045 0.00723663 0.00632254 0.00533819 0.00436863 0.00349896 0.00272917 0.00205927 0.00148925 0.00101911 0.000648849 0.000378474 0.00028103 0.000429563 0.000824075 0.00146456 0.00235103 0.00348348 0.0048619 0.00648631 0.00834047 0.0104082 0.0126895 0.0151843 0.0178927 0.0208146 0.0239501 0.0272991 0.0307343 0.034128 0.0374803 0.0407912 0.0440607 0.0472888 0.0504754 0.0536207 0.0565785 0.0592027 0.0614933 0.0634503 0.0650738 0.0663637 0.06732 0.0679427 0.0682111 0.0681046 0.0676232 0.0667667 0.0655354 0.063929 0.0619477 0.0595915 0.0569855 0.0542551 0.0514003 0.048421 0.0453172 0.042089 0.0387363 0.0352592 0.0318016 0.0285074 0.0253767 0.0224095 0.0196057 0.0169654 0.0144886 0.0121752 0.0100576 0.00816828 0.00650713 0.00507417 0.00386941 0.00289284 0.00214447 0.0016243 0.00124361 0.00091367 0.000634493 0.000406075 0.000228417 0.000101519 2.53797e-05 0 0 -6.15461e-06 -2.46185e-05 -5.53915e-05 -9.84738e-05 -0.000153865 -0.000221566 -0.000301576 -0.000393895 -0.000455315 -0.000442627 -0.00035583 -0.000194925 4.0088e-05 0.000349209 0.000732439 0.00118978 0.0017235 0.00233591 0.00302698 0.00379673 0.00464515 0.00557224 0.00657801 0.00766245 0.00875971 0.00980394 0.0107951 0.0117333 0.0126185 0.0134506 0.0142297 0.0149558 0.0155781 0.0160459 0.0163591 0.0165179 0.0165221 0.0163718 0.016067 0.0156076 0.015027 0.0143582 0.0136013 0.0127562 0.011823 0.0108016 0.00969218 0.00849457 0.00731315 0.00625226 0.00531189 0.00449205 0.00379272 0.00321392 0.00275564 0.00241788 0.00228965 0.00245995 0.00292879 0.00369615 0.00476205 0.00612647 0.00778943 0.00975093 0.011991 0.0144899 0.0172475 0.0202638 0.0235389 0.0270727 0.0308652 0.0349165 0.0390718 0.0431765 0.0472307 0.0512342 0.0551871 0.0590894 0.0629412 0.0667423 0.0703159 0.0734851 0.07625 0.0786104 0.0805664 0.082118 0.0832651 0.0840079 0.0843207 0.0841778 0.0835793 0.0825251 0.0810153 0.0790499 0.0766288 0.0737521 0.0705706 0.0672351 0.0637455 0.060102 0.0563045 0.052353 0.0482475 0.043988 0.0397487 0.035704 0.0318538 0.028198 0.0247368 0.0214701 0.0183979 0.0155202 0.0128792 0.010517 0.00843367 0.00662913 0.00510342 0.00385654 0.00288849 0.00219926 0.00168381 0.00123708 0.000859086 0.000549815 0.000309271 0.000137454 3.43634e-05 0 0 -4.58463e-06 -1.83385e-05 -4.12617e-05 -7.33541e-05 -0.000114616 -0.000165047 -0.000224647 -0.000293416 -0.000319829 -0.000252359 -9.10069e-05 0.000164228 0.000513346 0.000956347 0.00149323 0.002124 0.00284857 0.00366689 0.00457895 0.00558475 0.00668429 0.00787757 0.00916459 0.0105454 0.0119397 0.0132675 0.0145287 0.0157234 0.0168515 0.0179131 0.0189081 0.0198366 0.020637 0.0212479 0.0216694 0.0219013 0.0219438 0.0217968 0.0214603 0.0209343 0.0202592 0.0194753 0.0185828 0.0175814 0.0164714 0.0152526 0.0139251 0.0124888 0.0110698 0.00979427 0.00866211 0.00767333 0.00682795 0.00612596 0.00556736 0.00515216 0.00498724 0.0051795 0.00572894 0.00663556 0.00789936 0.00952034 0.0114985 0.0138338 0.0165023 0.0194798 0.0227664 0.026362 0.0302666 0.0344803 0.0390031 0.0438349 0.0487907 0.0536857 0.0585196 0.0632927 0.0680048 0.0726559 0.0772461 0.0817754 0.0860325 0.0898063 0.0930968 0.0959039 0.0982276 0.100068 0.101425 0.102299 0.102658 0.102471 0.101739 0.100461 0.0986365 0.0962666 0.0933509 0.0898894 0.0860611 0.0820452 0.0778416 0.0734504 0.0688715 0.064105 0.0591508 0.0540089 0.0488873 0.043994 0.0393289 0.0348921 0.0306835 0.0267032 0.0229511 0.0194273 0.0161855 0.0132794 0.0107091 0.00847462 0.00657587 0.00501289 0.00378568 0.00289424 0.0022159 0.00162801 0.00113056 0.000723559 0.000407002 0.00018089 4.52225e-05 0 0 -2.34628e-06 -9.38511e-06 -2.11165e-05 -3.75404e-05 -5.86569e-05 -8.4466e-05 -0.000114968 -0.000150162 -0.000129372 8.07792e-06 0.000262188 0.000632958 0.00112039 0.00172448 0.00244523 0.00328264 0.00423354 0.00529473 0.00646623 0.00774804 0.00914014 0.0106426 0.0122553 0.0139783 0.0157154 0.0173705 0.0189435 0.0204345 0.0218434 0.0231702 0.024415 0.0255777 0.0265849 0.0273632 0.0279126 0.028233 0.0283245 0.0281871 0.0278207 0.0272254 0.0264496 0.0255418 0.0245018 0.0233298 0.0220257 0.0205894 0.0190212 0.0173208 0.0156386 0.014125 0.0127798 0.0116031 0.0105949 0.00975523 0.00908402 0.00858131 0.00837379 0.00858821 0.00922454 0.0102828 0.011763 0.0136651 0.0159891 0.0187351 0.0218742 0.0253779 0.0292461 0.0334787 0.0380759 0.0430376 0.0483637 0.0540544 0.0598911 0.0656554 0.0713472 0.0769667 0.0825136 0.0879882 0.0933903 0.09872 0.103728 0.108166 0.112034 0.115331 0.118058 0.120214 0.1218 0.122815 0.123223 0.122985 0.122102 0.120573 0.118399 0.115579 0.112114 0.108003 0.103457 0.0986855 0.0936885 0.0884661 0.0830182 0.0773449 0.0714461 0.0653219 0.0592174 0.0533775 0.0478023 0.0424917 0.0374459 0.0326647 0.0281482 0.0238964 0.0199764 0.0164555 0.0133335 0.0106106 0.00828676 0.00636189 0.00483605 0.00370924 0.00283988 0.00208644 0.00144892 0.000927309 0.000521611 0.000231827 5.79568e-05 0 0 5.60453e-07 2.24181e-06 5.04408e-06 8.96725e-06 1.40113e-05 2.01763e-05 2.74622e-05 3.5869e-05 0.000116057 0.000338685 0.000703755 0.00121127 0.00186122 0.00265361 0.00358844 0.00466572 0.00587839 0.00721943 0.00868883 0.0102866 0.0120127 0.0138672 0.01585 0.0179612 0.0200869 0.0221129 0.0240395 0.0258665 0.027594 0.0292219 0.0307504 0.0321792 0.0334219 0.0343918 0.0350888 0.0355129 0.0356642 0.0355427 0.0351483 0.0344811 0.0335983 0.0325574 0.0313584 0.0300012 0.0284858 0.0268122 0.0249805 0.0229907 0.0210196 0.0192444 0.017665 0.0162814 0.0150937 0.0141017 0.0133056 0.0127053 0.0124493 0.0126861 0.0134156 0.0146379 0.0163529 0.0185607 0.0212613 0.0244546 0.0281068 0.0321842 0.0366866 0.0416141 0.0469667 0.0527444 0.0589472 0.065575 0.0723729 0.0790857 0.0857135 0.0922561 0.0987137 0.105086 0.111374 0.117576 0.123403 0.128565 0.133061 0.136891 0.140056 0.142556 0.14439 0.145558 0.146016 0.14572 0.144669 0.142863 0.140303 0.136988 0.132918 0.128094 0.122759 0.117156 0.111286 0.105149 0.0987446 0.0920728 0.0851336 0.0779271 0.0707388 0.0638544 0.0572737 0.0509969 0.0450238 0.0393546 0.0339891 0.0289275 0.024252 0.0200452 0.0163069 0.0130372 0.0102361 0.00790355 0.00603961 0.00464425 0.00355576 0.00261239 0.00181416 0.00116106 0.000653098 0.000290266 7.25665e-05 0 0 4.13556e-06 1.65422e-05 3.722e-05 6.61689e-05 0.000103389 0.00014888 0.000202642 0.000264676 0.000416457 0.000739463 0.00123369 0.00189915 0.00273583 0.00374373 0.00492286 0.00627322 0.00778314 0.00944098 0.0112467 0.0132004 0.015302 0.0175515 0.0199489 0.0224942 0.025054 0.0274948 0.0298167 0.0320195 0.0341034 0.0360683 0.0379142 0.0396411 0.041148 0.0423336 0.0431979 0.043741 0.0439629 0.0438636 0.043443 0.0427012 0.0417053 0.0405224 0.0391525 0.0375956 0.0358518 0.0339209 0.0318031 0.0294983 0.0272127 0.0251525 0.0233177 0.0217082 0.0203242 0.0191655 0.0182321 0.0175242 0.0172138 0.0174731 0.0183021 0.0197008 0.0216691 0.0242072 0.027315 0.0309924 0.0352001 0.0398986 0.045088 0.0507681 0.0569391 0.0636008 0.0707534 0.0783968 0.0862361 0.0939766 0.101618 0.109161 0.116605 0.12395 0.131196 0.138344 0.145057 0.151002 0.156178 0.160585 0.164224 0.167093 0.169194 0.170526 0.171037 0.170674 0.169439 0.16733 0.164347 0.160492 0.155763 0.150161 0.143966 0.137457 0.130635 0.123499 0.116051 0.108289 0.100213 0.0918244 0.0834517 0.0754247 0.0677433 0.0604075 0.0534173 0.0467728 0.0404739 0.0345206 0.0290123 0.0240485 0.0196291 0.0157543 0.0124238 0.00963786 0.00739634 0.00569929 0.00436352 0.00320585 0.00222629 0.00142482 0.000801463 0.000356206 8.90514e-05 0 0 8.91237e-06 3.56495e-05 8.02113e-05 0.000142598 0.000222809 0.000320845 0.000436706 0.000570391 0.000814993 0.0012636 0.00191622 0.00277285 0.00383348 0.00509813 0.00656678 0.00823944 0.0100986 0.0121266 0.0143236 0.0166896 0.0192245 0.0219283 0.0248011 0.0278428 0.0308985 0.0338132 0.036587 0.0392197 0.0417116 0.0440624 0.0462723 0.0483412 0.0501522 0.0515882 0.0526493 0.0533355 0.0536468 0.0535831 0.0531445 0.052331 0.0512202 0.04989 0.0483402 0.046571 0.0445823 0.0423741 0.0399464 0.0372992 0.0346702 0.0322973 0.0301803 0.0283194 0.0267144 0.0253655 0.0242726 0.0234356 0.0230523 0.0233202 0.0242394 0.0258098 0.0280315 0.0309043 0.0344285 0.0386038 0.043385 0.0487265 0.0546282 0.0610904 0.0681128 0.0756955 0.0838386 0.092542 0.101469 0.110282 0.118983 0.127569 0.136043 0.144403 0.15265 0.160783 0.168421 0.175182 0.181066 0.186073 0.190204 0.193457 0.195833 0.197332 0.197894 0.197457 0.196022 0.19359 0.190159 0.185729 0.180302 0.173876 0.16677 0.1593 0.151468 0.143272 0.134712 0.12579 0.116504 0.106855 0.0972186 0.0879707 0.0791112 0.0706402 0.0625576 0.0548635 0.0475579 0.0406407 0.0342306 0.0284459 0.0232869 0.0187533 0.0148453 0.0115628 0.0089059 0.0068745 0.00526329 0.00386691 0.00268535 0.00171863 0.000966727 0.000429656 0.000107414 0 0 1.54242e-05 6.16969e-05 0.000138818 0.000246787 0.000385605 0.000555272 0.000755786 0.00098715 0.00135483 0.0019643 0.00281556 0.0039086 0.00524343 0.00682005 0.00863846 0.0106986 0.0129754 0.0154436 0.0181033 0.0209543 0.0239967 0.0272305 0.0306558 0.0342724 0.0379018 0.041365 0.0446622 0.0477934 0.0507584 0.0535574 0.0561904 0.0586573 0.0608237 0.0625554 0.0638524 0.0647145 0.0651419 0.0651346 0.0646924 0.0638155 0.0625929 0.0611136 0.0593777 0.0573852 0.0551359 0.0526301 0.0498676 0.0468484 0.0438442 0.0411265 0.0386953 0.0365506 0.0346925 0.0331209 0.0318358 0.0308372 0.0303499 0.0305985 0.031583 0.0333034 0.0357597 0.0389519 0.0428801 0.0475442 0.0528923 0.0588728 0.0654855 0.0727305 0.0806077 0.0891173 0.0982591 0.108033 0.118059 0.127957 0.137727 0.147369 0.156882 0.166267 0.175524 0.184653 0.193224 0.200808 0.207406 0.213016 0.21764 0.221277 0.223927 0.225589 0.226196 0.225676 0.224031 0.221259 0.217361 0.212337 0.206187 0.198911 0.190864 0.182399 0.173518 0.16422 0.154506 0.144374 0.133826 0.12286 0.111902 0.101375 0.0912776 0.0816113 0.0723757 0.0635708 0.0551966 0.047253 0.0398801 0.033218 0.0272665 0.0220258 0.0174958 0.0136765 0.0105679 0.00817004 0.00625519 0.00459565 0.00319142 0.00204251 0.00114891 0.000510627 0.000127657 0 0 2.36711e-05 9.46844e-05 0.00021304 0.000378738 0.000591777 0.000852159 0.00115988 0.00151495 0.00203597 0.00284155 0.0039317 0.0053064 0.00696567 0.00890951 0.0111379 0.0136509 0.0164138 0.019392 0.0225855 0.0259944 0.0296186 0.0334581 0.037513 0.0417832 0.0460639 0.0501503 0.0540425 0.0577404 0.061244 0.0645534 0.0676685 0.0705893 0.0731626 0.0752352 0.076807 0.0778781 0.0784484 0.078518 0.0780868 0.0771549 0.0758233 0.0741934 0.072265 0.0700381 0.0675128 0.064689 0.0615667 0.0581461 0.0547346 0.0516401 0.0488626 0.046402 0.0442583 0.0424316 0.0409219 0.0397291 0.0391066 0.0393078 0.0403328 0.0421815 0.0448539 0.04835 0.0526698 0.0578134 0.0637221 0.0703375 0.0776597 0.0856885 0.0944239 0.103866 0.114015 0.12487 0.136008 0.147002 0.157852 0.168559 0.179123 0.189543 0.19982 0.209954 0.219467 0.227881 0.235197 0.241414 0.246533 0.250553 0.253475 0.255298 0.255943 0.255332 0.253463 0.250338 0.245955 0.240316 0.233419 0.225266 0.216247 0.206754 0.196787 0.186346 0.17543 0.164041 0.152178 0.139841 0.127502 0.115636 0.104242 0.0933209 0.0828717 0.0728946 0.0633899 0.0543574 0.045961 0.0383646 0.0315681 0.0255717 0.0203753 0.0159788 0.0123824 0.0095859 0.0073392 0.00539207 0.00374449 0.00239647 0.00134802 0.000599119 0.00014978 0 0 3.3653e-05 0.000134612 0.000302877 0.000538448 0.000841325 0.00121151 0.001649 0.00215379 0.00285841 0.00389536 0.00526464 0.00696626 0.00900021 0.0113665 0.0140651 0.0170961 0.0204135 0.0239717 0.0277705 0.0318101 0.0360903 0.0406112 0.0453727 0.050375 0.0553848 0.0601691 0.0647277 0.0690608 0.0731683 0.0770502 0.0807065 0.0841373 0.0871688 0.0896274 0.0915132 0.0928261 0.0935661 0.0937333 0.0933276 0.092349 0.0909116 0.0891292 0.0870019 0.0845298 0.0817127 0.0785508 0.0750439 0.0711922 0.0673416 0.0638383 0.0606822 0.0578735 0.055412 0.0532977 0.0515308 0.0501111 0.0493223 0.0494483 0.0504888 0.052444 0.0553139 0.0590984 0.0637976 0.0694114 0.0758744 0.0831208 0.0911508 0.0999643 0.109561 0.119942 0.131106 0.143054 0.155314 0.167415 0.179357 0.191141 0.202765 0.214231 0.225538 0.236686 0.247149 0.2564 0.264439 0.271266 0.276882 0.281285 0.284477 0.286457 0.287136 0.286423 0.28432 0.280826 0.275941 0.269665 0.261998 0.25294 0.242919 0.232364 0.221273 0.209647 0.197487 0.184791 0.171561 0.157795 0.144019 0.130756 0.118006 0.105769 0.0940454 0.082835 0.0721378 0.0619538 0.0524731 0.0438857 0.0361917 0.0293911 0.0234838 0.0184699 0.0143493 0.0111221 0.00851535 0.00625617 0.00434456 0.00278052 0.00156404 0.00069513 0.000173783 0 0 4.537e-05 0.00018148 0.00040833 0.00072592 0.00113425 0.00163332 0.00222313 0.00290368 0.00382215 0.00512572 0.00681439 0.00888817 0.011347 0.014191 0.0174201 0.0210343 0.0249748 0.0291827 0.0336582 0.0384012 0.0434116 0.0486896 0.054235 0.060048 0.0658646 0.0714213 0.076718 0.0817546 0.0865313 0.0910479 0.0953046 0.0993012 0.102842 0.105732 0.107971 0.109559 0.110495 0.110781 0.110415 0.109398 0.107858 0.105921 0.103589 0.10086 0.0977358 0.0942155 0.0902991 0.0859867 0.081665 0.0777209 0.0741542 0.0709651 0.0681534 0.0657192 0.0636625 0.0619833 0.0609972 0.0610198 0.0620511 0.0640911 0.0671399 0.0711974 0.0762635 0.0823384 0.0893491 0.0972226 0.105959 0.115558 0.12602 0.137345 0.149532 0.162583 0.175977 0.189197 0.202243 0.215113 0.227809 0.24033 0.252677 0.264849 0.276271 0.286365 0.295133 0.302573 0.308687 0.313474 0.316934 0.319067 0.319773 0.318951 0.316601 0.312723 0.307318 0.300384 0.291923 0.281934 0.270881 0.259229 0.246977 0.234126 0.220675 0.206624 0.191974 0.176725 0.161452 0.146733 0.132568 0.118956 0.105897 0.093392 0.0814405 0.0700424 0.0594165 0.0497815 0.0411372 0.0334839 0.0268213 0.0211496 0.0164687 0.0127786 0.00978361 0.00718796 0.00499164 0.00319465 0.00179699 0.000798662 0.000199666 0 0 5.8822e-05 0.000235288 0.000529398 0.000941152 0.00147055 0.00211759 0.00288228 0.00376461 0.00492719 0.00653264 0.00858095 0.0110721 0.0140062 0.0173831 0.0212029 0.0254655 0.0300974 0.0350251 0.0402486 0.0457678 0.0515827 0.0576934 0.0640998 0.070802 0.0775033 0.083907 0.0900132 0.0958219 0.101333 0.106547 0.111463 0.116081 0.120183 0.12355 0.12618 0.128076 0.129236 0.12966 0.129349 0.128302 0.126661 0.124569 0.122025 0.119029 0.115582 0.111683 0.107332 0.10253 0.097705 0.093288 0.0892786 0.0856768 0.0824826 0.079696 0.0773171 0.0753457 0.0741311 0.0740224 0.0750196 0.0771227 0.0803318 0.0846467 0.0900676 0.0965943 0.104146 0.112643 0.122084 0.13247 0.1438 0.156075 0.169294 0.183458 0.197999 0.212349 0.226508 0.24047