<?xml version="1.0"?> 
<VTKFile type="StructuredGrid" version="0.1"> 
<StructuredGrid WholeExtent="0 128 0 128 0 0"> 
<Piece Extent="0 128 0 128 0 0"> 
<PointData>
<DataArray type="Float32" Name="u" format="ascii" NumberOfComponents="1"> 
0 0 0 0 0 0 0 0 0 0 0 0 0 0 0 0 0 0 0 0 0 0 0 0 0 0 0 0 0 0 0 0 0 0 0 0 0 0 0 0 0 0 0 0 0 0 0 0 0 0 0 0 0 0 0 0 0 0 0 0 0 0 0 0 0 0 0 0 0 0 0 0 0 0 0 0 0 0 0 0 0 0 0 0 0 0 0 0 0 0 0 0 0 0 0 0 0 0 0 0 0 0 0 0 0 0 0 0 0 0 0 0 0 0 0 0 0 0 0 0 0 0 0 0 0 0 0 0 0 0 1.46771e-07 5.87083e-07 1.32094e-06 2.34833e-06 3.66927e-06 5.28374e-06 7.19176e-06 9.39332e-06 1.15176e-05 1.31938e-05 1.4422e-05 1.52021e-05 1.55341e-05 1.54181e-05 1.4854e-05 1.38418e-05 1.23879e-05 1.04986e-05 8.17386e-06 5.41371e-06 2.21816e-06 -1.41281e-06 -5.47919e-06 -9.98098e-06 -1.45027e-05 -1.86287e-05 -2.23592e-05 -2.5694e-05 -2.86333e-05 -3.11769e-05 -3.33249e-05 -3.50772e-05 -3.65483e-05 -3.78526e-05 -3.89899e-05 -3.99603e-05 -4.07639e-05 -4.14005e-05 -4.18703e-05 -4.21732e-05 -4.21309e-05 -4.15651e-05 -4.04759e-05 -3.88632e-05 -3.67271e-05 -3.40676e-05 -3.08845e-05 -2.71781e-05 -2.34623e-05 -2.02514e-05 -1.75453e-05 -1.5344e-05 -1.36476e-05 -1.2456e-05 -1.17693e-05 -1.15874e-05 -1.27685e-05 -1.61708e-05 -2.17944e-05 -2.96391e-05 -3.9705e-05 -5.19921e-05 -6.65004e-05 -8.32299e-05 -0.000101506 -0.000120655 -0.000140676 -0.00016157 -0.000183336 -0.000205975 -0.000229486 -0.00025387 -0.000278557 -0.000302977 -0.000327132 -0.00035102 -0.000374641 -0.000397997 -0.000421086 -0.000443909 -0.000465162 -0.000483542 -0.000499048 -0.00051168 -0.000521439 -0.000528324 -0.000532336 -0.000533474 -0.000531804 -0.000527392 -0.000520238 -0.000510342 -0.000497704 -0.000482323 -0.000464201 -0.000443336 -0.000421058 -0.000398695 -0.000376248 -0.000353716 -0.0003311 -0.000308399 -0.000285613 -0.000262742 -0.00024013 -0.000218121 -0.000196713 -0.000175907 -0.000155704 -0.000136102 -0.000117102 -9.87049e-05 -8.15339e-05 -6.62136e-05 -5.27442e-05 -4.11256e-05 -3.13579e-05 -2.34409e-05 -1.73748e-05 -1.31595e-05 -1.00753e-05 -7.40223e-06 -5.14044e-06 -3.28988e-06 -1.85056e-06 -8.2247e-07 -2.05618e-07 0 0 5.87083e-07 2.34833e-06 5.28374e-06 9.39332e-06 1.46771e-05 2.1135e-05 2.8767e-05 3.75733e-05 4.60705e-05 5.27754e-05 5.76881e-05 6.08084e-05 6.21366e-05 6.16724e-05 5.9416e-05 5.53673e-05 4.95517e-05 4.19944e-05 3.26954e-05 2.16549e-05 8.87263e-06 -5.65124e-06 -2.19168e-05 -3.99239e-05 -5.80107e-05 -7.4515e-05 -8.94368e-05 -0.000102776 -0.000114533 -0.000124707 -0.000133299 -0.000140309 -0.000146193 -0.00015141 -0.00015596 -0.000159841 -0.000163056 -0.000165602 -0.000167481 -0.000168693 -0.000168523 -0.00016626 -0.000161904 -0.000155453 -0.000146908 -0.00013627 -0.000123538 -0.000108712 -9.38492e-05 -8.10055e-05 -7.01811e-05 -6.13761e-05 -5.45904e-05 -4.98241e-05 -4.70772e-05 -4.63496e-05 -5.10741e-05 -6.46834e-05 -8.71775e-05 -0.000118556 -0.00015882 -0.000207968 -0.000266002 -0.00033292 -0.000406025 -0.00048262 -0.000562705 -0.000646281 -0.000733346 -0.0008239 -0.000917945 -0.00101548 -0.00111423 -0.00121191 -0.00130853 -0.00140408 -0.00149857 -0.00159199 -0.00168434 -0.00177564 -0.00186065 -0.00193417 -0.00199619 -0.00204672 -0.00208576 -0.0021133 -0.00212934 -0.00213389 -0.00212722 -0.00210957 -0.00208095 -0.00204137 -0.00199081 -0.00192929 -0.0018568 -0.00177334 -0.00168423 -0.00159478 -0.00150499 -0.00141487 -0.0013244 -0.00123359 -0.00114245 -0.00105097 -0.000960521 -0.000872482 -0.000786851 -0.000703629 -0.000622814 -0.000544408 -0.00046841 -0.00039482 -0.000326136 -0.000264855 -0.000210977 -0.000164503 -0.000125432 -9.37638e-05 -6.94993e-05 -5.26381e-05 -4.03011e-05 -2.96089e-05 -2.05618e-05 -1.31595e-05 -7.40223e-06 -3.28988e-06 -8.2247e-07 0 0 1.32094e-06 5.28374e-06 1.18884e-05 2.1135e-05 3.30234e-05 4.75537e-05 6.47259e-05 8.45399e-05 0.000103659 0.000118745 0.000129798 0.000136819 0.000139807 0.000138763 0.000133686 0.000124576 0.000111491 9.44873e-05 7.35647e-05 4.87234e-05 1.99634e-05 -1.27153e-05 -4.93127e-05 -8.98288e-05 -0.000130524 -0.000167659 -0.000201233 -0.000231246 -0.000257699 -0.000280592 -0.000299924 -0.000315695 -0.000328935 -0.000340673 -0.000350909 -0.000359643 -0.000366875 -0.000372605 -0.000376833 -0.000379558 -0.000379178 -0.000374086 -0.000364283 -0.000349769 -0.000330544 -0.000306608 -0.000277961 -0.000244603 -0.000211161 -0.000182262 -0.000157908 -0.000138096 -0.000122829 -0.000112104 -0.000105924 -0.000104287 -0.000114917 -0.000145538 -0.000196149 -0.000266752 -0.000357345 -0.000467929 -0.000598504 -0.000749069 -0.000913556 -0.0010859 -0.00126609 -0.00145413 -0.00165003 -0.00185378 -0.00206538 -0.00228483 -0.00250701 -0.0027268 -0.00294418 -0.00315918 -0.00337177 -0.00358197 -0.00378978 -0.00399518 -0.00418646 -0.00435188 -0.00449143 -0.00460512 -0.00469295 -0.00475492 -0.00479102 -0.00480126 -0.00478624 -0.00474653 -0.00468214 -0.00459308 -0.00447933 -0.00434091 -0.00417781 -0.00399002 -0.00378952 -0.00358826 -0.00338623 -0.00318345 -0.0029799 -0.00277559 -0.00257051 -0.00236468 -0.00216117 -0.00196309 -0.00177042 -0.00158316 -0.00140133 -0.00122492 -0.00105392 -0.000888344 -0.000733805 -0.000595923 -0.000474698 -0.000370131 -0.000282221 -0.000210968 -0.000156373 -0.000118436 -9.06774e-05 -6.66201e-05 -4.6264e-05 -2.96089e-05 -1.6655e-05 -7.40223e-06 -1.85056e-06 0 0 2.34833e-06 9.39332e-06 2.1135e-05 3.75733e-05 5.87083e-05 8.45399e-05 0.000115068 0.000150293 0.000184282 0.000211102 0.000230752 0.000243234 0.000248546 0.00024669 0.000237664 0.000221469 0.000198207 0.000167977 0.000130782 8.66194e-05 3.54905e-05 -2.2605e-05 -8.7667e-05 -0.000159696 -0.000232043 -0.00029806 -0.000357747 -0.000411105 -0.000458132 -0.00049883 -0.000533198 -0.000561236 -0.000584773 -0.000605641 -0.000623838 -0.000639365 -0.000652222 -0.000662409 -0.000669925 -0.000674771 -0.000674094 -0.000665041 -0.000647614 -0.000621812 -0.000587634 -0.000545081 -0.000494153 -0.000434849 -0.000375397 -0.000324022 -0.000280724 -0.000245504 -0.000218362 -0.000199297 -0.000188309 -0.000185399 -0.000204296 -0.000258734 -0.00034871 -0.000474225 -0.00063528 -0.000831874 -0.00106401 -0.00133168 -0.0016241 -0.00193048 -0.00225082 -0.00258512 -0.00293338 -0.0032956 -0.00367178 -0.00406192 -0.00445691 -0.00484764 -0.00523411 -0.00561631 -0.00599426 -0.00636795 -0.00673738 -0.00710255 -0.0074426 -0.00773667 -0.00798476 -0.00818688 -0.00834302 -0.00845319 -0.00851737 -0.00853558 -0.00850886 -0.00843827 -0.00832381 -0.00816547 -0.00796326 -0.00771717 -0.00742721 -0.00709338 -0.00673693 -0.00637913 -0.00601997 -0.00565946 -0.0052976 -0.00493438 -0.0045698 -0.00420387 -0.00384209 -0.00348993 -0.00314741 -0.00281452 -0.00249126 -0.00217763 -0.00187364 -0.00157928 -0.00130454 -0.00105942 -0.000843908 -0.00065801 -0.000501726 -0.000375055 -0.000277997 -0.000210552 -0.000161204 -0.000118436 -8.2247e-05 -5.26381e-05 -2.96089e-05 -1.31595e-05 -3.28988e-06 0 0 3.66927e-06 1.46771e-05 3.30234e-05 5.87083e-05 9.17317e-05 0.000132094 0.000179794 0.000234833 0.00028794 0.000329846 0.00036055 0.000380053 0.000388353 0.000385453 0.00037135 0.000346046 0.000309698 0.000262465 0.000204346 0.000135343 5.54539e-05 -3.53203e-05 -0.00013698 -0.000249525 -0.000362567 -0.000465719 -0.00055898 -0.000642351 -0.000715831 -0.000779422 -0.000833121 -0.000876931 -0.000913709 -0.000946314 -0.000974747 -0.000999008 -0.0010191 -0.00103501 -0.00104676 -0.00105433 -0.00105327 -0.00103913 -0.0010119 -0.000971581 -0.000918178 -0.000851689 -0.000772113 -0.000679452 -0.000586558 -0.000506284 -0.000438632 -0.000383601 -0.00034119 -0.000311401 -0.000294233 -0.000289685 -0.000319213 -0.000404271 -0.000544859 -0.000740977 -0.000992625 -0.0012998 -0.00166251 -0.00208075 -0.00253766 -0.00301638 -0.00351691 -0.00403925 -0.00458341 -0.00514938 -0.00573716 -0.00634675 -0.00696392 -0.00757443 -0.00817829 -0.00877549 -0.00936603 -0.00994992 -0.0105272 -0.0110977 -0.0116291 -0.0120885 -0.0124762 -0.012792 -0.013036 -0.0132081 -0.0133084 -0.0133368 -0.0132951 -0.0131848 -0.0130059 -0.0127585 -0.0124426 -0.0120581 -0.011605 -0.0110834 -0.0105265 -0.00996739 -0.00940621 -0.00884291 -0.00827749 -0.00770996 -0.00714032 -0.00656855 -0.00600326 -0.00545301 -0.00491782 -0.00439768 -0.00389259 -0.00340255 -0.00292756 -0.00246762 -0.00203835 -0.00165534 -0.00131861 -0.00102814 -0.000783947 -0.000586023 -0.000434371 -0.000328988 -0.000251882 -0.000185056 -0.000128511 -8.2247e-05 -4.6264e-05 -2.05618e-05 -5.14044e-06 0 0 5.28374e-06 2.1135e-05 4.75537e-05 8.45399e-05 0.000132094 0.000190215 0.000258903 0.00033816 0.000414634 0.000474979 0.000519192 0.000547276 0.000559229 0.000555052 0.000534744 0.000498306 0.000445965 0.000377949 0.000294259 0.000194894 7.98536e-05 -5.08612e-05 -0.000197251 -0.000359315 -0.000522096 -0.000670635 -0.000804931 -0.000924985 -0.0010308 -0.00112237 -0.00119969 -0.00126278 -0.00131574 -0.00136269 -0.00140364 -0.00143857 -0.0014675 -0.00149042 -0.00150733 -0.00151823 -0.00151671 -0.00149634 -0.00145713 -0.00139908 -0.00132218 -0.00122643 -0.00111184 -0.000978411 -0.000844643 -0.000729049 -0.00063163 -0.000552385 -0.000491314 -0.000448417 -0.000423695 -0.000417147 -0.000459667 -0.000582151 -0.000784597 -0.00106701 -0.00142938 -0.00187172 -0.00239401 -0.00299628 -0.00365423 -0.00434358 -0.00506435 -0.00581653 -0.00660011 -0.0074151 -0.00826151 -0.00913932 -0.010028 -0.0109072 -0.0117767 -0.0126367 -0.0134871 -0.0143279 -0.0151591 -0.0159807 -0.0167458 -0.0174075 -0.0179657 -0.0184205 -0.0187718 -0.0190197 -0.0191641 -0.0192051 -0.0191449 -0.0189861 -0.0187286 -0.0183723 -0.0179173 -0.0173636 -0.0167112 -0.0159601 -0.0151581 -0.014353 -0.0135449 -0.0127338 -0.0119196 -0.0111023 -0.0102821 -0.00945872 -0.00864469 -0.00785234 -0.00708166 -0.00633266 -0.00560533 -0.00489967 -0.00421569 -0.00355338 -0.00293522 -0.00238369 -0.00189879 -0.00148052 -0.00112888 -0.000843874 -0.000625494 -0.000473743 -0.000362709 -0.00026648 -0.000185056 -0.000118436 -6.66201e-05 -2.96089e-05 -7.40223e-06 0 0 7.19176e-06 2.8767e-05 6.47259e-05 0.000115068 0.000179794 0.000258903 0.000352396 0.000460273 0.000564363 0.000646499 0.000706679 0.000744903 0.000761173 0.000755487 0.000727846 0.000678249 0.000607008 0.000514431 0.000400519 0.000265272 0.00010869 -6.92277e-05 -0.00026848 -0.000489068 -0.000710631 -0.000912808 -0.0010956 -0.00125901 -0.00140303 -0.00152767 -0.00163292 -0.00171878 -0.00179087 -0.00185478 -0.0019105 -0.00195806 -0.00199743 -0.00202863 -0.00205164 -0.00206648 -0.00206441 -0.00203669 -0.00198332 -0.0019043 -0.00179963 -0.00166931 -0.00151334 -0.00133173 -0.00114965 -0.000992317 -0.000859719 -0.000751857 -0.000668733 -0.000610346 -0.000576696 -0.000567783 -0.000625658 -0.000792372 -0.00106792 -0.00145232 -0.00194554 -0.00254761 -0.00325852 -0.00407827 -0.00497381 -0.0059121 -0.00689314 -0.00791694 -0.00898348 -0.0100928 -0.0112448 -0.0124396 -0.0136493 -0.0148459 -0.0160294 -0.0172 -0.0183574 -0.0195018 -0.0206332 -0.0217516 -0.022793 -0.0236935 -0.0244533 -0.0250723 -0.0255505 -0.0258879 -0.0260844 -0.0261402 -0.0260584 -0.0258422 -0.0254917 -0.0250067 -0.0243875 -0.0236338 -0.0227458 -0.0217235 -0.0206318 -0.0195361 -0.0184362 -0.0173321 -0.0162239 -0.0151115 -0.013995 -0.0128744 -0.0117664 -0.0106879 -0.00963893 -0.00861945 -0.00762947 -0.006669 -0.00573802 -0.00483654 -0.00399516 -0.00324447 -0.00258447 -0.00201516 -0.00153654 -0.00114861 -0.000851366 -0.000644817 -0.000493688 -0.000362709 -0.000251882 -0.000161204 -9.06774e-05 -4.03011e-05 -1.00753e-05 0 0 9.39332e-06 3.75733e-05 8.45399e-05 0.000150293 0.000234833 0.00033816 0.000460273 0.000601173 0.000737128 0.000844406 0.000923009 0.000972935 0.000994185 0.000986758 0.000950656 0.000885877 0.000792826 0.00067191 0.000523127 0.000346478 0.000141962 -9.04199e-05 -0.000350668 -0.000638783 -0.000928171 -0.00119224 -0.00143099 -0.00164442 -0.00183253 -0.00199532 -0.00213279 -0.00224494 -0.00233909 -0.00242256 -0.00249535 -0.00255746 -0.00260889 -0.00264963 -0.0026797 -0.00269908 -0.00269637 -0.00266017 -0.00259046 -0.00248725 -0.00235054 -0.00218032 -0.00197661 -0.0017394 -0.00150159 -0.00129609 -0.0011229 -0.000982018 -0.000873447 -0.000797186 -0.000753235 -0.000741594 -0.000817186 -0.00103493 -0.00139484 -0.0018969 -0.00254112 -0.00332749 -0.00425603 -0.00532671 -0.0064964 -0.00772193 -0.00900329 -0.0103405 -0.0117335 -0.0131824 -0.0146871 -0.0162477 -0.0178276 -0.0193905 -0.0209364 -0.0224653 -0.023977 -0.0254718 -0.0269495 -0.0284102 -0.0297704 -0.0309467 -0.0319391 -0.0327475 -0.0333721 -0.0338127 -0.0340695 -0.0341423 -0.0340354 -0.0337531 -0.0332952 -0.0326619 -0.031853 -0.0308687 -0.0297088 -0.0283735 -0.0269477 -0.0255165 -0.0240799 -0.0226378 -0.0211904 -0.0197375 -0.0182792 -0.0168155 -0.0153683 -0.0139597 -0.0125896 -0.0112581 -0.00996503 -0.00871053 -0.00749456 -0.00631712 -0.00521817 -0.00423767 -0.00337563 -0.00263204 -0.0020069 -0.00150022 -0.00111199 -0.00084221 -0.000644817 -0.000473743 -0.000328988 -0.000210552 -0.000118436 -5.26381e-05 -1.31595e-05 0 0 1.12821e-05 4.51283e-05 0.000101539 0.000180513 0.000282052 0.000406155 0.000552822 0.000722053 0.000884109 0.00100925 0.00109747 0.00114878 0.00116318 0.00114066 0.00108122 0.000984871 0.000852726 0.000685907 0.000484416 0.000248251 -2.25871e-05 -0.000328098 -0.000668282 -0.00104314 -0.00141989 -0.00176574 -0.0020807 -0.00236477 -0.00261795 -0.00284023 -0.00303162 -0.00319212 -0.00332901 -0.00344959 -0.00355385 -0.0036418 -0.00371343 -0.00376875 -0.00380776 -0.00383044 -0.00382328 -0.00377273 -0.00367878 -0.00354145 -0.00336073 -0.00313662 -0.00286911 -0.00255822 -0.00224676 -0.00197756 -0.0017506 -0.0015659 -0.00142345 -0.00132325 -0.00126531 -0.00124961 -0.00133786 -0.00159175 -0.00201127 -0.00259642 -0.00334721 -0.00426363 -0.00534569 -0.00659338 -0.00795332 -0.00937212 -0.0108498 -0.0123863 -0.0139817 -0.015636 -0.0173491 -0.019121 -0.0209179 -0.0227057 -0.0244844 -0.026254 -0.0280146 -0.0297661 -0.0315085 -0.0332418 -0.034861 -0.0362613 -0.0374425 -0.0384046 -0.0391478 -0.0396719 -0.039977 -0.040063 -0.0399353 -0.0395991 -0.0390544 -0.0383013 -0.0373396 -0.0361694 -0.0347908 -0.0332036 -0.0315144 -0.0298296 -0.0281491 -0.026473 -0.0248013 -0.0231339 -0.021471 -0.0198124 -0.0181739 -0.0165712 -0.0150044 -0.0134734 -0.0119782 -0.0105189 -0.00909541 -0.00770777 -0.00640623 -0.00524109 -0.00421234 -0.00331998 -0.002564 -0.00194442 -0.00146123 -0.00111443 -0.000853233 -0.000626865 -0.000435323 -0.000278607 -0.000156716 -6.96517e-05 -1.74129e-05 0 0 1.22517e-05 4.90068e-05 0.000110265 0.000196027 0.000306292 0.000441061 0.000600333 0.000784109 0.000956489 0.00108157 0.00115937 0.00118986 0.00117307 0.00110898 0.000997594 0.000838915 0.00063601 0.000391944 0.000106718 -0.000219669 -0.000587215 -0.000995922 -0.00144579 -0.00193682 -0.00243095 -0.00289013 -0.00331435 -0.00370362 -0.00405794 -0.0043773 -0.00466171 -0.00491117 -0.00512922 -0.00531938 -0.00548167 -0.00561609 -0.00572263 -0.00580129 -0.00585208 -0.00587499 -0.00585581 -0.00578032 -0.00564853 -0.00546044 -0.00521604 -0.00491533 -0.00455832 -0.004145 -0.00373149 -0.00337391 -0.00307226 -0.00282653 -0.00263673 -0.00250285 -0.0024249 -0.00240288 -0.00249131 -0.00274473 -0.00316314 -0.00374654 -0.00449493 -0.0054083 -0.00648667 -0.00773002 -0.00907588 -0.0104618 -0.0118876 -0.0133535 -0.0148595 -0.0164054 -0.0179913 -0.0196173 -0.0212749 -0.0229559 -0.0246602 -0.0263878 -0.0281387 -0.0299129 -0.0317105 -0.0335314 -0.0352478 -0.0367317 -0.0379831 -0.0390022 -0.0397888 -0.0403429 -0.0406647 -0.040754 -0.0406172 -0.0402607 -0.0396845 -0.0388885 -0.0378728 -0.0366373 -0.0351821 -0.0335072 -0.0317406 -0.0300105 -0.0283169 -0.0266596 -0.0250389 -0.0234545 -0.0219066 -0.0203952 -0.0189062 -0.0174258 -0.0159538 -0.0144903 -0.0130353 -0.0115887 -0.0101507 -0.00872116 -0.00736134 -0.00613251 -0.00503464 -0.00406776 -0.00323185 -0.00252691 -0.00195296 -0.00150997 -0.00115607 -0.000849361 -0.000589834 -0.000377494 -0.00021234 -9.43734e-05 -2.35934e-05 0 0 1.23022e-05 4.92087e-05 0.00011072 0.000196835 0.000307554 0.000442878 0.000602806 0.000787339 0.000954267 0.00106138 0.00110869 0.00109618 0.00102385 0.000891718 0.00069977 0.00044801 0.000142679 -0.000209979 -0.000609966 -0.00105728 -0.00155192 -0.00209389 -0.00268319 -0.00331982 -0.00396136 -0.0045654 -0.00513193 -0.00566097 -0.00615251 -0.00660654 -0.00702307 -0.00740211 -0.00773971 -0.00803194 -0.00827882 -0.00848032 -0.00863647 -0.00874725 -0.00881266 -0.00883271 -0.00879396 -0.00868296 -0.00849971 -0.00824421 -0.00791646 -0.00751647 -0.00704422 -0.00649973 -0.00595578 -0.00548516 -0.00508788 -0.00476392 -0.00451329 -0.00433599 -0.00423202 -0.00420138 -0.00427752 -0.00449387 -0.00485045 -0.00534725 -0.00598427 -0.00676151 -0.00767896 -0.00873664 -0.00986408 -0.0109908 -0.0121168 -0.0132422 -0.0143668 -0.0154907 -0.0166139 -0.0177365 -0.0188987 -0.0201411 -0.0214637 -0.0228664 -0.0243494 -0.0259124 -0.0275557 -0.0292791 -0.0309306 -0.0323579 -0.0335611 -0.0345402 -0.0352951 -0.0358259 -0.0361326 -0.0362152 -0.0360811 -0.0357378 -0.0351853 -0.0344235 -0.0334525 -0.0322723 -0.0308829 -0.0292843 -0.0276264 -0.0260593 -0.0245831 -0.0231977 -0.0219031 -0.0206992 -0.0195862 -0.018564 -0.0175655 -0.0165234 -0.0154379 -0.0143088 -0.0131362 -0.0119201 -0.0106604 -0.00935729 -0.0080835 -0.00691192 -0.00584255 -0.00487539 -0.00401044 -0.0032477 -0.00258717 -0.00202885 -0.00155334 -0.00114123 -0.000792521 -0.000507213 -0.000285307 -0.000126803 -3.17008e-05 0 0 1.14335e-05 4.5734e-05 0.000102901 0.000182936 0.000285837 0.000411606 0.000560241 0.000731744 0.000877444 0.000948673 0.000945431 0.000867718 0.000715534 0.000488879 0.000187752 -0.000187845 -0.000627266 -0.00111986 -0.00166564 -0.00226458 -0.00291671 -0.00362201 -0.00438049 -0.00519214 -0.00601111 -0.00679155 -0.00753345 -0.00823681 -0.00890164 -0.00952794 -0.0101157 -0.0106649 -0.0111605 -0.0115873 -0.0119453 -0.0122345 -0.012455 -0.0126066 -0.0126895 -0.0127036 -0.0126377 -0.0124806 -0.0122323 -0.0118928 -0.011462 -0.01094 -0.0103268 -0.00962242 -0.00891963 -0.00831131 -0.00779745 -0.00737805 -0.00705312 -0.00682266 -0.00668666 -0.00664513 -0.00669649 -0.00683918 -0.0070732 -0.00739855 -0.00781523 -0.00832324 -0.00892257 -0.00961324 -0.0103179 -0.0109593 -0.0115374 -0.0120522 -0.0125037 -0.0128919 -0.0132169 -0.0134785 -0.0137892 -0.0142614 -0.014895 -0.0156901 -0.0166466 -0.0177646 -0.019044 -0.0204849 -0.0219095 -0.0231399 -0.0241763 -0.0250186 -0.0256668 -0.0261208 -0.0263808 -0.0264467 -0.0263271 -0.0260305 -0.0255569 -0.0249064 -0.0240789 -0.0230745 -0.0218931 -0.0205348 -0.0191717 -0.017976 -0.0169479 -0.0160872 -0.0153939 -0.0148681 -0.0145097 -0.0143189 -0.0141516 -0.0138642 -0.0134566 -0.0129289 -0.0122809 -0.0115129 -0.0106246 -0.00961617 -0.0085727 -0.00757933 -0.00663605 -0.00574287 -0.00489978 -0.00410678 -0.00336387 -0.00267106 -0.00204503 -0.00150247 -0.00104338 -0.000667765 -0.000375618 -0.000166941 -4.17353e-05 0 0 9.64568e-06 3.85827e-05 8.68111e-05 0.000154331 0.000241142 0.000347244 0.000472638 0.000617323 0.00072602 0.000743446 0.000669604 0.000504492 0.00024811 -9.95406e-05 -0.000538461 -0.00106865 -0.00167383 -0.00233771 -0.00306029 -0.00384158 -0.00468158 -0.00558027 -0.00653768 -0.00755378 -0.00858021 -0.00956858 -0.0105189 -0.0114312 -0.0123054 -0.0131415 -0.0139396 -0.0146996 -0.0153916 -0.0159854 -0.0164811 -0.0168786 -0.0171781 -0.0173794 -0.0174826 -0.0174877 -0.0173871 -0.0171733 -0.0168463 -0.0164061 -0.0158527 -0.015186 -0.0144061 -0.0135131 -0.012623 -0.0118523 -0.011201 -0.0106689 -0.0102562 -0.00996287 -0.00978883 -0.00973412 -0.00974823 -0.00978065 -0.00983139 -0.00990045 -0.00998782 -0.0100935 -0.0102175 -0.0103598 -0.0104374 -0.0103672 -0.0101493 -0.00978366 -0.00927023 -0.00860905 -0.00780012 -0.00684343 -0.00594646 -0.00531667 -0.00495406 -0.00485863 -0.00503038 -0.00546931 -0.00617543 -0.00714873 -0.00818444 -0.00907779 -0.00982879 -0.0104374 -0.0109037 -0.0112277 -0.0114092 -0.0114485 -0.011355 -0.0111387 -0.0107994 -0.0103371 -0.00975194 -0.00904383 -0.00821277 -0.00725877 -0.0063765 -0.00576063 -0.00541115 -0.00532806 -0.00551137 -0.00596106 -0.00667716 -0.00765964 -0.00866459 -0.00944805 -0.01001 -0.0103505 -0.0104696 -0.0103671 -0.0100432 -0.00949779 -0.00882895 -0.00813474 -0.00741516 -0.0066702 -0.00589986 -0.00510415 -0.00428306 -0.0034366 -0.00263115 -0.00193309 -0.00134242 -0.00085915 -0.000483272 -0.000214787 -5.36969e-05 0 0 6.93872e-06 2.77549e-05 6.24485e-05 0.000111019 0.000173468 0.000249794 0.000339997 0.000444078 0.000499994 0.000445702 0.000281203 6.49605e-06 -0.000378418 -0.00087354 -0.00147887 -0.00219441 -0.002997 -0.00386351 -0.00479394 -0.00578827 -0.00684652 -0.00796868 -0.00915476 -0.0104047 -0.0116687 -0.0128965 -0.0140883 -0.015244 -0.0163636 -0.0174472 -0.0184947 -0.0195062 -0.0204329 -0.0212262 -0.0218862 -0.0224127 -0.0228059 -0.0230656 -0.023192 -0.023185 -0.0230422 -0.0227611 -0.0223418 -0.0217842 -0.0210884 -0.0202544 -0.0192821 -0.0181716 -0.017066 -0.0161083 -0.0152985 -0.0146366 -0.0141226 -0.0137566 -0.0135385 -0.0134683 -0.0134327 -0.0133183 -0.013125 -0.0128529 -0.012502 -0.0120723 -0.0115637 -0.0109764 -0.0102225 -0.0092146 -0.0079526 -0.0064365 -0.00466632 -0.00264205 -0.000363701 0.00216874 0.00462955 0.006693 0.00835911 0.00962786 0.0104993 0.0109733 0.01105 0.0107294 0.0102445 0.00982852 0.00948144 0.00920326 0.00899398 0.0088536 0.00878212 0.00877954 0.00883499 0.0089376 0.00908738 0.00928433 0.00952844 0.00981972 0.0101582 0.0105438 0.0107591 0.0105869 0.0100271 0.0090796 0.00774452 0.00602182 0.00391151 0.00141358 -0.00110443 -0.003275 -0.00509813 -0.00657382 -0.00770206 -0.00848287 -0.00891623 -0.00900215 -0.00885225 -0.00857815 -0.00817986 -0.00765737 -0.00701069 -0.00623981 -0.00534474 -0.00432547 -0.00331169 -0.00243308 -0.00168964 -0.00108137 -0.000608269 -0.000270342 -6.75854e-05 0 0 3.31261e-06 1.32505e-05 2.98135e-05 5.30018e-05 8.28153e-05 0.000119254 0.000162318 0.000212007 0.000199366 5.54402e-05 -0.000219771 -0.000626268 -0.00116405 -0.00183312 -0.00263347 -0.00356511 -0.00459679 -0.00569728 -0.00686656 -0.00810465 -0.00941155 -0.0107872 -0.0122317 -0.013745 -0.0152765 -0.0167753 -0.0182416 -0.0196753 -0.0210765 -0.0224451 -0.0237812 -0.0250846 -0.0262845 -0.0273099 -0.0281606 -0.0288367 -0.0293383 -0.0296653 -0.0298177 -0.0297954 -0.0296028 -0.0292439 -0.0287186 -0.0280271 -0.0271693 -0.0261452 -0.0249549 -0.0235982 -0.0222485 -0.0210791 -0.0200899 -0.019281 -0.0186523 -0.0182039 -0.0179357 -0.0178478 -0.01775 -0.0174521 -0.0169541 -0.016256 -0.0153579 -0.0142596 -0.0129613 -0.0114629 -0.00967329 -0.0075014 -0.00494722 -0.00201075 0.001308 0.00500905 0.00909239 0.013558 0.0179388 0.0217676 0.0250445 0.0277694 0.0299424 0.0315633 0.0326324 0.0331494 0.0333773 0.033579 0.0337544 0.0339035 0.0340264 0.0341229 0.0341932 0.0342373 0.034243 0.0341983 0.0341033 0.0339579 0.0337622 0.0335161 0.0332197 0.0328728 0.0322353 0.0310666 0.0293668 0.0271358 0.0243738 0.0210806 0.0172563 0.0129008 0.00852886 0.00465495 0.0012791 -0.00159869 -0.00397842 -0.00586009 -0.0072437 -0.00812925 -0.00864258 -0.00890956 -0.00893016 -0.00870439 -0.00823226 -0.00751376 -0.0065489 -0.00533767 -0.00408665 -0.00300244 -0.00208503 -0.00133442 -0.000750609 -0.000333604 -8.3401e-05 0 0 -1.23263e-06 -4.93054e-06 -1.10937e-05 -1.97221e-05 -3.08158e-05 -4.43748e-05 -6.03991e-05 -7.88886e-05 -0.000175862 -0.000427339 -0.000833319 -0.0013938 -0.00210879 -0.00297828 -0.00400227 -0.00518077 -0.0064732 -0.007839 -0.00927818 -0.0107907 -0.0123766 -0.0140359 -0.0157686 -0.0175746 -0.0194036 -0.021205 -0.0229789 -0.0247252 -0.0264439 -0.0281352 -0.0297988 -0.031435 -0.0329465 -0.0342363 -0.0353044 -0.0361507 -0.0367754 -0.0371783 -0.0373596 -0.0373191 -0.0370691 -0.0366217 -0.0359769 -0.0351348 -0.0340953 -0.0328585 -0.0314243 -0.0297927 -0.0281706 -0.0267648 -0.0255753 -0.0246021 -0.0238453 -0.0233047 -0.0229805 -0.0228725 -0.0227 -0.0221821 -0.0213186 -0.0201097 -0.0185553 -0.0166555 -0.0144102 -0.0118194 -0.00878969 -0.00522763 -0.0011332 0.00349359 0.00865275 0.0143443 0.0205682 0.0273244 0.0339813 0.0399072 0.0451021 0.049566 0.0532989 0.0563007 0.0585716 0.0601114 0.0612141 0.0621737 0.0629901 0.0636633 0.0641934 0.0645804 0.0648241 0.0649248 0.064869 0.0646435 0.0642485 0.0636837 0.0629494 0.0620454 0.0609717 0.0597284 0.0580519 0.0556784 0.0526079 0.0488406 0.0443764 0.0392152 0.0333571 0.0268021 0.0202353 0.0143418 0.00912167 0.00457485 0.00070137 -0.00249878 -0.0050256 -0.00687909 -0.00819997 -0.00912896 -0.00966606 -0.00981127 -0.00956458 -0.00892601 -0.00789555 -0.00647319 -0.00495604 -0.00364117 -0.00252859 -0.0016183 -0.000910293 -0.000404575 -0.000101144 0 0 -7.16297e-06 -2.86519e-05 -6.44667e-05 -0.000114607 -0.000179074 -0.000257867 -0.000350985 -0.00045843 -0.000656646 -0.00102208 -0.00155473 -0.0022546 -0.00312169 -0.004156 -0.00535752 -0.00672627 -0.00821139 -0.00976205 -0.0113783 -0.01306 -0.0148073 -0.0166201 -0.0184985 -0.0204424 -0.0224138 -0.0243745 -0.0263245 -0.0282639 -0.0301927 -0.0321107 -0.0340182 -0.0359149 -0.0376757 -0.0391753 -0.0404135 -0.0413905 -0.0421062 -0.0425606 -0.0427538 -0.0426857 -0.042378 -0.0418522 -0.0411085 -0.0401468 -0.038967 -0.0375693 -0.0359536 -0.0341199 -0.0323096 -0.0307641 -0.0294833 -0.0284672 -0.0277159 -0.0272294 -0.0270076 -0.0270506 -0.026962 -0.0263455 -0.0252012 -0.023529 -0.0213289 -0.018601 -0.0153452 -0.0115615 -0.00715536 -0.00203216 0.00380809 0.0103654 0.0176398 0.0256312 0.0343397 0.0437652 0.0530818 0.0614635 0.0689103 0.0754222 0.0809992 0.0856413 0.0893485 0.0921208 0.0942831 0.0961602 0.0977522 0.099059 0.100081 0.100817 0.101269 0.101435 0.101302 0.100857 0.100099 0.0990288 0.0976459 0.0959503 0.0939422 0.0916215 0.0887016 0.0848963 0.0802053 0.0746287 0.0681666 0.0608189 0.0525856 0.0434667 0.0343418 0.0260902 0.018712 0.0122073 0.0065759 0.00181794 -0.00206663 -0.00507779 -0.00737123 -0.00910262 -0.010272 -0.0108792 -0.0109245 -0.0104076 -0.00932876 -0.00768783 -0.00588599 -0.0043244 -0.00300306 -0.00192196 -0.0010811 -0.000480489 -0.000120122 0 0 -1.49443e-05 -5.97773e-05 -0.000134499 -0.000239109 -0.000373608 -0.000537996 -0.000732272 -0.000956437 -0.00127394 -0.00174823 -0.00237931 -0.00316717 -0.00411183 -0.00521327 -0.00647149 -0.00788651 -0.00939653 -0.0109398 -0.0125163 -0.014126 -0.015769 -0.0174451 -0.0191546 -0.0208972 -0.0226707 -0.0244727 -0.0263031 -0.028162 -0.0300494 -0.0319652 -0.0339095 -0.0358823 -0.0377294 -0.0392967 -0.0405842 -0.041592 -0.0423199 -0.0427681 -0.0429365 -0.0428251 -0.0424664 -0.0418931 -0.0411051 -0.0401024 -0.038885 -0.037453 -0.0358062 -0.0339448 -0.0321431 -0.0306757 -0.0295425 -0.0287435 -0.0282788 -0.0281483 -0.0283521 -0.0288901 -0.0292151 -0.0287799 -0.0275846 -0.025629 -0.0229133 -0.0194373 -0.0152012 -0.0102049 -0.00435395 0.00244611 0.0101953 0.0188936 0.0285409 0.0391374 0.050683 0.0631777 0.075565 0.0867882 0.0968475 0.105743 0.113474 0.120041 0.125444 0.129683 0.133113 0.136086 0.138604 0.140667 0.142274 0.143425 0.14412 0.14436 0.144132 0.143423 0.142232 0.14056 0.138408 0.135774 0.132659 0.129063 0.124677 0.119194 0.112613 0.104935 0.0961587 0.0862849 0.0753133 0.0632441 0.0511752 0.0402047 0.0303327 0.021559 0.0138838 0.00730696 0.00182854 -0.00255147 -0.0060032 -0.00869679 -0.0106322 -0.0118095 -0.0122287 -0.0118897 -0.0107926 -0.00893734 -0.00684265 -0.00502726 -0.00349115 -0.00223434 -0.00125681 -0.000558584 -0.000139646 0 0 -2.45767e-05 -9.83069e-05 -0.000221191 -0.000393228 -0.000614418 -0.000884762 -0.00120426 -0.00157291 -0.00202774 -0.00260579 -0.00330704 -0.00413151 -0.00507919 -0.00615008 -0.00734418 -0.00866149 -0.0100286 -0.0113722 -0.0126922 -0.0139887 -0.0152616 -0.016511 -0.0177368 -0.018939 -0.0201744 -0.0214996 -0.0229146 -0.0244194 -0.0260141 -0.0276986 -0.0294729 -0.031337 -0.0331074 -0.0346005 -0.0358164 -0.0367551 -0.0374165 -0.0378007 -0.0379076 -0.0377372 -0.0373346 -0.0367444 -0.0359668 -0.0350018 -0.0338493 -0.0325094 -0.030982 -0.0292671 -0.027671 -0.0264995 -0.0257529 -0.025431 -0.0255338 -0.0260615 -0.0270138 -0.028391 -0.0294593 -0.0294852 -0.0284686 -0.0264097 -0.0233083 -0.0191645 -0.0139782 -0.00774958 -0.000385453 0.0082072 0.0180284 0.0290781 0.0413563 0.054863 0.0695982 0.085562 0.101431 0.115881 0.128913 0.140527 0.150723 0.1595 0.166858 0.172799 0.177703 0.181952 0.185547 0.188487 0.190772 0.192403 0.19338 0.193702 0.193359 0.19234 0.190647 0.188278 0.185235 0.181516 0.177122 0.172052 0.165979 0.158572 0.149832 0.139759 0.128353 0.115613 0.10154 0.0861341 0.0707356 0.0566854 0.0439836 0.0326301 0.022625 0.0139683 0.00665991 0.000699885 -0.00409588 -0.00791148 -0.0107469 -0.0126022 -0.0134773 -0.0133723 -0.0122871 -0.0102217 -0.00782602 -0.00574973 -0.00399287 -0.00255544 -0.00143743 -0.000638859 -0.000159715 0 0 -3.60602e-05 -0.000144241 -0.000324541 -0.000576962 -0.000901504 -0.00129817 -0.00176695 -0.00230785 -0.00291806 -0.00359475 -0.00433794 -0.00514762 -0.00602378 -0.00696644 -0.00797558 -0.00905121 -0.0101077 -0.0110593 -0.0119061 -0.0126481 -0.0132853 -0.0138176 -0.0142452 -0.0145679 -0.0149248 -0.0154552 -0.016159 -0.0170362 -0.0180868 -0.0193108 -0.0207082 -0.0222791 -0.0238098 -0.0250868 -0.0261102 -0.0268799 -0.0273959 -0.0276583 -0.0276671 -0.0274222 -0.0269823 -0.0264061 -0.0256936 -0.0248449 -0.0238599 -0.0227386 -0.021481 -0.0200871 -0.0188932 -0.0182357 -0.0181145 -0.0185296 -0.019481 -0.0209688 -0.0229929 -0.0255533 -0.0276946 -0.0284613 -0.0278535 -0.025871 -0.022514 -0.0177824 -0.0116763 -0.00419553 0.00475014 0.0152511 0.0273074 0.0409189 0.0560857 0.0728079 0.0910853 0.110918 0.130679 0.148743 0.165108 0.179776 0.192746 0.204017 0.213591 0.221467 0.228053 0.233757 0.238579 0.242519 0.245577 0.247753 0.249046 0.249458 0.248982 0.24761 0.245344 0.242183 0.238127 0.233176 0.227331 0.22059 0.212607 0.20303 0.191862 0.179101 0.164749 0.148804 0.131266 0.112137 0.093023 0.0755323 0.0596648 0.0454206 0.0327996 0.0218019 0.0124275 0.00467626 -0.00164926 -0.00674668 -0.010616 -0.0132572 -0.0146703 -0.0148553 -0.0138122 -0.011541 -0.00883609 -0.00649182 -0.00450821 -0.00288525 -0.00162296 -0.000721314 -0.000180328 0 0 -4.93946e-05 -0.000197578 -0.000444551 -0.000790314 -0.00123487 -0.0017