<?xml version="1.0"?> 
<VTKFile type="StructuredGrid" version="0.1"> 
<StructuredGrid WholeExtent="0 128 0 128 0 0"> 
<Piece Extent="0 128 0 128 0 0"> 
<PointData>
<DataArray type="Float32" Name="u" format="ascii" NumberOfComponents="1"> 
0 0 0 0 0 0 0 0 0 0 0 0 0 0 0 0 0 0 0 0 0 0 0 0 0 0 0 0 0 0 0 0 0 0 0 0 0 0 0 0 0 0 0 0 0 0 0 0 0 0 0 0 0 0 0 0 0 0 0 0 0 0 0 0 0 0 0 0 0 0 0 0 0 0 0 0 0 0 0 0 0 0 0 0 0 0 0 0 0 0 0 0 0 0 0 0 0 0 0 0 0 0 0 0 0 0 0 0 0 0 0 0 0 0 0 0 0 0 0 0 0 0 0 0 0 0 0 0 0 0 -2.02386e-07 -8.09546e-07 -1.82148e-06 -3.23818e-06 -5.05966e-06 -7.28591e-06 -9.91693e-06 -1.29527e-05 -1.60599e-05 -1.89052e-05 -2.14885e-05 -2.38098e-05 -2.58692e-05 -2.76666e-05 -2.9202e-05 -3.04755e-05 -3.1226e-05 -3.11924e-05 -3.03747e-05 -2.87729e-05 -2.63871e-05 -2.32171e-05 -1.92631e-05 -1.4525e-05 -9.44516e-06 -4.4658e-06 4.13047e-07 5.19139e-06 9.86922e-06 1.44465e-05 1.89233e-05 2.32996e-05 2.70971e-05 2.98375e-05 3.15207e-05 3.21468e-05 3.17158e-05 3.02277e-05 2.76824e-05 2.408e-05 1.95812e-05 1.43466e-05 8.37619e-06 1.67005e-06 -5.77187e-06 -1.39496e-05 -2.2863e-05 -3.25123e-05 -4.20758e-05 -5.07324e-05 -5.84819e-05 -6.53244e-05 -7.12598e-05 -7.62882e-05 -8.04095e-05 -8.36238e-05 -8.51486e-05 -8.42013e-05 -8.07821e-05 -7.48909e-05 -6.65276e-05 -5.56924e-05 -4.23852e-05 -2.6606e-05 -8.48778e-06 1.18363e-05 3.43663e-05 5.91021e-05 8.60439e-05 0.000115192 0.000146545 0.000180105 0.000214528 0.000248472 0.000281937 0.000314923 0.000347431 0.00037946 0.00041101 0.000442081 0.000471175 0.000496794 0.000518937 0.000537606 0.000552799 0.000564518 0.000572761 0.000577529 0.000578771 0.000576436 0.000570523 0.000561033 0.000547966 0.000531321 0.000511099 0.0004873 0.00046135 0.000434674 0.000407273 0.000379147 0.000350295 0.000320718 0.000290416 0.000259388 0.000228968 0.000200488 0.000173948 0.00014935 0.000126691 0.000105973 8.71956e-05 7.03585e-05 5.54295e-05 4.23762e-05 3.11986e-05 2.18966e-05 1.44703e-05 8.91971e-06 5.24479e-06 3.44556e-06 2.63801e-06 1.93813e-06 1.34592e-06 8.6139e-07 4.84532e-07 2.15347e-07 5.38369e-08 0 0 -8.09546e-07 -3.23818e-06 -7.28591e-06 -1.29527e-05 -2.02386e-05 -2.91436e-05 -3.96677e-05 -5.18109e-05 -6.42397e-05 -7.56207e-05 -8.59538e-05 -9.52391e-05 -0.000103477 -0.000110666 -0.000116808 -0.000121902 -0.000124904 -0.000124769 -0.000121499 -0.000115092 -0.000105548 -9.28685e-05 -7.70525e-05 -5.81001e-05 -3.77807e-05 -1.78632e-05 1.65219e-06 2.07655e-05 3.94769e-05 5.77861e-05 7.56934e-05 9.31986e-05 0.000108389 0.00011935 0.000126083 0.000128587 0.000126863 0.000120911 0.00011073 9.63201e-05 7.83247e-05 5.73863e-05 3.35048e-05 6.68018e-06 -2.30875e-05 -5.57982e-05 -9.14521e-05 -0.000130049 -0.000168303 -0.00020293 -0.000233928 -0.000261297 -0.000285039 -0.000305153 -0.000321638 -0.000334495 -0.000340594 -0.000336805 -0.000323128 -0.000299564 -0.000266111 -0.00022277 -0.000169541 -0.000106424 -3.39511e-05 4.73452e-05 0.000137465 0.000236409 0.000344176 0.000460766 0.00058618 0.000720418 0.00085811 0.000993887 0.00112775 0.00125969 0.00138972 0.00151784 0.00164404 0.00176832 0.0018847 0.00198717 0.00207575 0.00215042 0.0022112 0.00225807 0.00229104 0.00231012 0.00231508 0.00230574 0.00228209 0.00224413 0.00219186 0.00212528 0.0020444 0.0019492 0.0018454 0.0017387 0.00162909 0.00151659 0.00140118 0.00128287 0.00116166 0.00103755 0.00091587 0.000801951 0.000695794 0.000597398 0.000506765 0.000423893 0.000348783 0.000281434 0.000221718 0.000169505 0.000124794 8.75863e-05 5.78812e-05 3.56788e-05 2.09792e-05 1.37822e-05 1.0552e-05 7.75251e-06 5.38369e-06 3.44556e-06 1.93813e-06 8.6139e-07 2.15347e-07 0 0 -1.82148e-06 -7.28591e-06 -1.63933e-05 -2.91436e-05 -4.55369e-05 -6.55732e-05 -8.92524e-05 -0.000116575 -0.000144539 -0.000170147 -0.000193396 -0.000214288 -0.000232822 -0.000248999 -0.000262818 -0.000274279 -0.000281034 -0.000280731 -0.000273372 -0.000258956 -0.000237483 -0.000208954 -0.000173368 -0.000130725 -8.50065e-05 -4.01922e-05 3.71742e-06 4.67225e-05 8.88229e-05 0.000130019 0.00017031 0.000209697 0.000243874 0.000268537 0.000283686 0.000289321 0.000285442 0.000272049 0.000249142 0.00021672 0.000176231 0.000129119 7.53857e-05 1.50304e-05 -5.19469e-05 -0.000125546 -0.000205767 -0.00029261 -0.000378683 -0.000456592 -0.000526337 -0.000587919 -0.000641338 -0.000686594 -0.000723686 -0.000752614 -0.000766337 -0.000757812 -0.000727039 -0.000674018 -0.000598749 -0.000501232 -0.000381467 -0.000239454 -7.639e-05 0.000106527 0.000309296 0.000531919 0.000774395 0.00103672 0.00131891 0.00162094 0.00193075 0.00223624 0.00253743 0.00283431 0.00312688 0.00341514 0.00369909 0.00397873 0.00424057 0.00447114 0.00467044 0.00483845 0.00497519 0.00508066 0.00515485 0.00519776 0.00520894 0.00518792 0.00513471 0.0050493 0.00493169 0.00478189 0.00459989 0.0043857 0.00415215 0.00391207 0.00366546 0.00341232 0.00315266 0.00288646 0.00261374 0.00233449 0.00206071 0.00180439 0.00156554 0.00134415 0.00114022 0.000953758 0.000784761 0.000633227 0.000498866 0.000381386 0.000280787 0.000197069 0.000130233 8.02774e-05 4.72031e-05 3.101e-05 2.37421e-05 1.74431e-05 1.21133e-05 7.75251e-06 4.36079e-06 1.93813e-06 4.84532e-07 0 0 -3.23818e-06 -1.29527e-05 -2.91436e-05 -5.18109e-05 -8.09546e-05 -0.000116575 -0.000158671 -0.000207244 -0.000256959 -0.000302483 -0.000343815 -0.000380957 -0.000413906 -0.000442665 -0.000467232 -0.000487608 -0.000499616 -0.000499078 -0.000485995 -0.000460366 -0.000422193 -0.000371474 -0.00030821 -0.000232401 -0.000151123 -7.14529e-05 6.60875e-06 8.30622e-05 0.000157907 0.000231145 0.000302774 0.000372794 0.000433554 0.0004774 0.000504331 0.000514349 0.000507453 0.000483643 0.000442918 0.00038528 0.000313299 0.000229545 0.000134019 2.67207e-05 -9.235e-05 -0.000223193 -0.000365808 -0.000520196 -0.000673214 -0.000811718 -0.00093571 -0.00104519 -0.00114016 -0.00122061 -0.00128655 -0.00133798 -0.00136238 -0.00134722 -0.00129251 -0.00119825 -0.00106444 -0.000891079 -0.000678163 -0.000425695 -0.000135804 0.000189381 0.00054986 0.000945634 0.0013767 0.00184306 0.00234472 0.00288167 0.00343244 0.00397555 0.00451099 0.00503877 0.0055589 0.00607135 0.00657615 0.00707329 0.00753879 0.0079487 0.008303 0.00860169 0.00884479 0.00903228 0.00916418 0.00924047 0.00926034 0.00922297 0.00912837 0.00897653 0.00876745 0.00850114 0.00817759 0.00779681 0.0073816 0.00695479 0.00651637 0.00606635 0.00560472 0.00513149 0.00464665 0.0041502 0.00366348 0.0032078 0.00278317 0.00238959 0.00202706 0.00169557 0.00139513 0.00112574 0.000886873 0.000678019 0.000499177 0.000350345 0.000231525 0.000142715 8.39167e-05 5.5129e-05 4.22081e-05 3.101e-05 2.15347e-05 1.37822e-05 7.75251e-06 3.44556e-06 8.6139e-07 0 0 -5.05966e-06 -2.02386e-05 -4.55369e-05 -8.09546e-05 -0.000126492 -0.000182148 -0.000247923 -0.000323818 -0.000401498 -0.000472629 -0.000537212 -0.000595245 -0.000646729 -0.000691664 -0.00073005 -0.000761887 -0.000780649 -0.000779809 -0.000759367 -0.000719323 -0.000659676 -0.000580428 -0.000481578 -0.000363126 -0.000236129 -0.000111645 1.03262e-05 0.000129785 0.00024673 0.000361163 0.000473084 0.000582491 0.000677428 0.000745937 0.000788018 0.000803671 0.000792895 0.000755692 0.00069206 0.000602 0.000489529 0.000358664 0.000209405 4.17511e-05 -0.000144297 -0.000348739 -0.000571576 -0.000812806 -0.0010519 -0.00126831 -0.00146205 -0.00163311 -0.00178149 -0.0019072 -0.00201024 -0.00209059 -0.00212871 -0.00210503 -0.00201955 -0.00187227 -0.00166319 -0.00139231 -0.00105963 -0.000665149 -0.000212194 0.000295907 0.000859157 0.00147755 0.0021511 0.00287979 0.00366363 0.00450261 0.00536319 0.00621179 0.00704842 0.00787308 0.00868577 0.00948649 0.0102752 0.011052 0.0117794 0.0124198 0.0129734 0.0134401 0.01382 0.0141129 0.014319 0.0144382 0.0144693 0.0144109 0.0142631 0.0140258 0.0136991 0.013283 0.0127775 0.0121825 0.0115337 0.0108669 0.0101818 0.00947867 0.00875738 0.00801795 0.00726039 0.00648469 0.00572419 0.00501219 0.00434871 0.00373374 0.00316728 0.00264933 0.00217989 0.00175896 0.00138574 0.00105941 0.000779964 0.000547415 0.000361758 0.000222993 0.00013112 8.6139e-05 6.59502e-05 4.84532e-05 3.3648e-05 2.15347e-05 1.21133e-05 5.38369e-06 1.34592e-06 0 0 -7.28591e-06 -2.91436e-05 -6.55732e-05 -0.000116575 -0.000182148 -0.000262293 -0.00035701 -0.000466298 -0.000578158 -0.000680586 -0.000773585 -0.000857152 -0.00093129 -0.000995996 -0.00105127 -0.00109712 -0.00112413 -0.00112292 -0.00109349 -0.00103582 -0.000949934 -0.000835817 -0.000693472 -0.000522901 -0.000340026 -0.000160769 1.48697e-05 0.00018689 0.000355292 0.000520075 0.00068124 0.000838787 0.000975497 0.00107415 0.00113475 0.00115729 0.00114177 0.0010882 0.000996567 0.000866881 0.000704922 0.000516477 0.000301543 6.01216e-05 -0.000207787 -0.000502184 -0.000823069 -0.00117044 -0.00151473 -0.00182637 -0.00210535 -0.00235168 -0.00256535 -0.00274637 -0.00289474 -0.00301046 -0.00306535 -0.00303125 -0.00290816 -0.00269607 -0.002395 -0.00200493 -0.00152587 -0.000957814 -0.00030556 0.000426107 0.00123719 0.00212768 0.00309758 0.0041469 0.00527562 0.00648376 0.00772299 0.00894498 0.0101497 0.0113372 0.0125075 0.0136605 0.0147963 0.0159149 0.0169623 0.0178846 0.0186817 0.0193538 0.0199008 0.0203226 0.0206194 0.020791 0.0208358 0.0207517 0.0205388 0.0201972 0.0197268 0.0191276 0.0183996 0.0175428 0.0166086 0.0156483 0.0146618 0.0136493 0.0126106 0.0115458 0.010455 0.00933796 0.00824283 0.00721756 0.00626214 0.00537658 0.00456088 0.00381503 0.00313904 0.00253291 0.00199546 0.00152554 0.00112315 0.000788277 0.000520931 0.000321109 0.000188812 0.00012404 9.49682e-05 6.97726e-05 4.84532e-05 3.101e-05 1.74431e-05 7.75251e-06 1.93813e-06 0 0 -9.91693e-06 -3.96677e-05 -8.92524e-05 -0.000158671 -0.000247923 -0.00035701 -0.00048593 -0.000634684 -0.000786937 -0.000926354 -0.00105293 -0.00116668 -0.00126759 -0.00135566 -0.0014309 -0.0014933 -0.00153007 -0.00152843 -0.00148836 -0.00140987 -0.00129297 -0.00113764 -0.000943893 -0.000711727 -0.000462813 -0.000218824 2.02393e-05 0.000254378 0.000483592 0.00070788 0.000927244 0.00114168 0.00132776 0.00146204 0.00154452 0.00157519 0.00155407 0.00148116 0.00135644 0.00117992 0.000959478 0.000702982 0.000410433 8.18322e-05 -0.000282822 -0.000683529 -0.00112029 -0.0015931 -0.00206172 -0.00248589 -0.00286561 -0.00320089 -0.00349173 -0.00373812 -0.00394007 -0.00409757 -0.00417228 -0.00412587 -0.00395832 -0.00366965 -0.00325985 -0.00272893 -0.00207687 -0.00130369 -0.000415901 0.000579979 0.00168395 0.002896 0.00421615 0.00564439 0.00718071 0.00882512 0.0105118 0.0121751 0.0138149 0.0154312 0.0170241 0.0185935 0.0201395 0.0216619 0.0230876 0.0243429 0.0254279 0.0263427 0.0270872 0.0276614 0.0280653 0.0282989 0.0283598 0.0282453 0.0279556 0.0274906 0.0268503 0.0260347 0.0250439 0.0238777 0.0226061 0.021299 0.0199564 0.0185782 0.0171645 0.0157152 0.0142304 0.01271 0.0112194 0.0098239 0.00852347 0.00731813 0.00620787 0.00519268 0.00427259 0.00344757 0.00271605 0.00207643 0.00152873 0.00107293 0.000709045 0.000437066 0.000256995 0.000168832 0.000129262 9.49682e-05 6.59502e-05 4.22081e-05 2.37421e-05 1.0552e-05 2.63801e-06 0 0 -1.29527e-05 -5.18109e-05 -0.000116575 -0.000207244 -0.000323818 -0.000466298 -0.000634684 -0.000828975 -0.00102784 -0.00120993 -0.00137526 -0.00152383 -0.00165563 -0.00177066 -0.00186893 -0.00195043 -0.00199846 -0.00199631 -0.00194398 -0.00184147 -0.00168877 -0.0014859 -0.00123284 -0.000929602 -0.000604491 -0.000285811 2.6435e-05 0.000332249 0.00063163 0.000924578 0.00121109 0.00149118 0.00173422 0.0019096 0.00201733 0.0020574 0.00202981 0.00193457 0.00177167 0.00154112 0.0012532 0.000918181 0.000536076 0.000106883 -0.0003694 -0.000892772 -0.00146323 -0.00208078 -0.00269285 -0.00324687 -0.00374284 -0.00418076 -0.00456063 -0.00488244 -0.00514621 -0.00535192 -0.00544951 -0.00538889 -0.00517005 -0.00479302 -0.00425777 -0.00356431 -0.00271265 -0.00170278 -0.000543218 0.000757523 0.00219944 0.00378254 0.00550681 0.00737226 0.00937889 0.0115267 0.0137298 0.0159022 0.018044 0.0201551 0.0222356 0.0242854 0.0263046 0.0282932 0.0301552 0.0317948 0.033212 0.0344068 0.0353792 0.0361291 0.0366567 0.0369619 0.0370413 0.0368919 0.0365135 0.0359061 0.0350698 0.0340046 0.0327104 0.0311872 0.0295264 0.0278192 0.0260655 0.0242654 0.0224189 0.0205259 0.0185866 0.0166008 0.0146539 0.0128312 0.0111327 0.00955837 0.00810823 0.00678228 0.00558052 0.00450295 0.00354749 0.00271208 0.00199671 0.00140138 0.0009261 0.000570861 0.000335667 0.000220516 0.000168832 0.00012404 8.6139e-05 5.5129e-05 3.101e-05 1.37822e-05 3.44556e-06 0 0 -1.59206e-05 -6.36824e-05 -0.000143285 -0.00025473 -0.000398015 -0.000573141 -0.000780109 -0.00101892 -0.00126233 -0.0014831 -0.00168124 -0.00185675 -0.00200961 -0.00213985 -0.00224744 -0.0023324 -0.0023741 -0.00235191 -0.00226584 -0.00211589 -0.00190206 -0.00162434 -0.00128273 -0.000877245 -0.000444338 -2.04761e-05 0.000394341 0.000800112 0.00119684 0.00158452 0.00196316 0.00233275 0.00265408 0.00288792 0.00303427 0.00309314 0.00306453 0.00294842 0.00274484 0.00245376 0.00208851 0.00166238 0.00117537 0.000627482 1.87194e-05 -0.00065092 -0.00138144 -0.00217283 -0.00295772 -0.00366875 -0.0043059 -0.00486917 -0.00535858 -0.00577411 -0.00611577 -0.00638355 -0.00651351 -0.00644167 -0.00616805 -0.00569263 -0.00501543 -0.00413644 -0.00305566 -0.00177308 -0.000299633 0.00135379 0.00318718 0.00520054 0.00739387 0.00976718 0.0123204 0.0150537 0.0178574 0.0206222 0.023348 0.0260348 0.0286826 0.0312915 0.0338614 0.0363923 0.0387621 0.0408489 0.0426525 0.044173 0.0454103 0.0463646 0.0470357 0.0474237 0.0475242 0.0473329 0.0468497 0.0460747 0.0450079 0.0436492 0.0419987 0.0400563 0.037938 0.0357597 0.0335213 0.0312228 0.0288643 0.0264457 0.0239671 0.0214284 0.0189383 0.0166054 0.0144296 0.0124111 0.0105498 0.00884566 0.00729873 0.005909 0.00467463 0.00359377 0.00266641 0.00189256 0.00127222 0.00080539 0.000492066 0.000332249 0.000254378 0.00018689 0.000129785 8.30623e-05 4.67226e-05 2.07656e-05 5.1914e-06 0 0 -1.83478e-05 -7.33913e-05 -0.00016513 -0.000293565 -0.000458696 -0.000660522 -0.000899044 -0.00117426 -0.00145189 -0.00169766 -0.00191156 -0.0020936 -0.00224377 -0.00236207 -0.00244851 -0.00250308 -0.00250177 -0.00242056 -0.00225945 -0.00201844 -0.00169752 -0.00129671 -0.000815988 -0.00025537 0.000338365 0.000918435 0.00148484 0.00203758 0.00257665 0.00310206 0.0036138 0.00411188 0.00454655 0.00486807 0.00507645 0.00517168 0.00515376 0.0050227 0.00477848 0.00442113 0.00396785 0.00343587 0.0028252 0.00213584 0.00136778 0.000521023 -0.000404427 -0.00140857 -0.00240591 -0.00331093 -0.00412364 -0.00484403 -0.00547212 -0.00600788 -0.00645134 -0.00680248 -0.00698075 -0.00690559 -0.006577 -0.00599498 -0.00515953 -0.00407065 -0.00272834 -0.0011326 0.00070273 0.00276382 0.00505068 0.00756329 0.0103017 0.0132658 0.0164557 0.0198713 0.0233756 0.0268311 0.0302381 0.0335964 0.036906 0.040167 0.0433794 0.0465431 0.0495055 0.0521138 0.054368 0.0562682 0.0578143 0.0590063 0.0598443 0.0603282 0.0604521 0.0602099 0.0596017 0.0586275 0.0572872 0.0555808 0.0535085 0.0510701 0.0484098 0.0456718 0.042856 0.0399624 0.0369911 0.0339421 0.0308153 0.0276107 0.0244644 0.0215121 0.0187541 0.0161901 0.0138203 0.0116446 0.0096631 0.0078757 0.00628231 0.0048828 0.00367717 0.00266542 0.00184754 0.00122355 0.000793429 0.000557192 0.0004266 0.00031342 0.000217653 0.000139298 7.83551e-05 3.48245e-05 8.70612e-06 0 0 -2.02344e-05 -8.09377e-05 -0.00018211 -0.000323751 -0.000505861 -0.000728439 -0.000991487 -0.001295 -0.00159653 -0.0018536 -0.00206621 -0.00223438 -0.00235808 -0.00243734 -0.00247214 -0.00246249 -0.00238149 -0.00220226 -0.00192479 -0.0015491 -0.00107517 -0.000503005 0.000167391 0.00093602 0.00174362 0.00253092 0.00329793 0.00404465 0.00477107 0.0054772 0.00616303 0.00682856 0.00741163 0.00785007 0.00814386 0.00829301 0.00829752 0.00815739 0.00787262 0.00744321 0.00689121 0.00623867 0.00548558 0.00463195 0.00367777 0.00262306 0.00146779 0.000211988 -0.0010374 -0.00217342 -0.00319607 -0.00410534 -0.00490124 -0.00558377 -0.00615292 -0.00660871 -0.00685124 -0.00678064 -0.00639691 -0.00570006 -0.00469007 -0.00336696 -0.00173071 0.00021866 0.00246387 0.00498763 0.00778993 0.0108708 0.0142302 0.0178681 0.0217846 0.0259797 0.0302841 0.034529 0.0387142 0.0428398 0.0469057 0.050912 0.0548586 0.0587456 0.0623851 0.0655895 0.0683586 0.0706924 0.072591 0.0740544 0.0750826 0.0756755 0.075825 0.075523 0.0747694 0.0735643 0.0719077 0.0697995 0.0672398 0.0642285 0.0609417 0.0575553 0.0540695 0.0504842 0.0467994 0.043015 0.0391312 0.0351478 0.0312322 0.0275516 0.024106 0.0208954 0.0179198 0.0151792 0.0126736 0.010403 0.00837053 0.00657918 0.00502898 0.00371994 0.00265206 0.00182533 0.00123976 0.000895344 0.000685498 0.000503631 0.000349744 0.000223836 0.000125908 5.5959e-05 1.39897e-05 0 0 -2.15804e-05 -8.63216e-05 -0.000194224 -0.000345286 -0.00053951 -0.000776894 -0.00105744 -0.00138115 -0.00169623 -0.00195092 -0.0021452 -0.00227908 -0.00235256 -0.00236565 -0.00231833 -0.00221061 -0.00201324 -0.001697 -0.00126188 -0.000707879 -3.49975e-05 0.000756764 0.00166741 0.00269693 0.00377142 0.00481699 0.00583362 0.00682132 0.00778009 0.00870993 0.00961083 0.0104828 0.0112493 0.0118339 0.0122365 0.0124571 0.0124958 0.0123525 0.0120272 0.01152 0.0108586 0.0100708 0.0091565 0.00811582 0.00694871 0.00565518 0.00423523 0.00268885 0.00114779 -0.000256223 -0.00152318 -0.00265309 -0.00364595 -0.00450176 -0.00522052 -0.00580223 -0.00612497 -0.00606682 -0.00562779 -0.00480786 -0.00360705 -0.00202535 -6.27667e-05 0.00228071 0.00498379 0.0080252 0.0114049 0.015123 0.0191794 0.0235742 0.0283072 0.0333786 0.0385832 0.0437158 0.0487764 0.053765 0.0586817 0.0635263 0.068299 0.0729998 0.0774012 0.081276 0.0846241 0.0874456 0.0897405 0.0915088 0.0927505 0.0934655 0.093643 0.0932721 0.0923529 0.0908854 0.0888694 0.0863052 0.0831925 0.0795315 0.0755336 0.0714104 0.0671619 0.0627881 0.058289 0.0536645 0.0489148 0.0440397 0.0392418 0.0347237 0.0304855 0.026527 0.0228483 0.0194494 0.0163303 0.013491 0.0109393 0.00868289 0.00672184 0.00505613 0.00368577 0.00261074 0.00183105 0.0013467 0.00103107 0.000757521 0.000526057 0.000336676 0.00018938 8.4169e-05 2.10423e-05 0 0 -2.23857e-05 -8.95429e-05 -0.000201472 -0.000358172 -0.000559643 -0.000805886 -0.0010969 -0.00143269 -0.001751 -0.00198962 -0.00214852 -0.00222772 -0.00222721 -0.00214699 -0.00198707 -0.00174744 -0.00139704 -0.000904794 -0.000270707 0.000505222 0.00142299 0.0024826 0.00368406 0.00502735 0.00642178 0.00777663 0.0090919 0.0103676 0.0116037 0.0128003 0.0139572 0.0150746 0.0160596 0.0168196 0.0173544 0.017664 0.0177486 0.017608 0.0172424 0.0166515 0.01587 0.0149322 0.013838 0.0125874 0.0111806 0.00961739 0.00789787 0.00602201 0.00414967 0.00244067 0.000895012 -0.000487295 -0.00170626 -0.00276187 -0.00365414 -0.00438305 -0.00480195 -0.00476414 -0.00426962 -0.0033184 -0.00191047 -4.58396e-05 0.0022755 0.00505354 0.00826249 0.0118765 0.0158957 0.02032 0.0251494 0.0303839 0.0360235 0.0420682 0.0482727 0.0543915 0.0604246 0.0663721 0.072234 0.0780102 0.0837007 0.0893056 0.0945535 0.0991732 0.103165 0.106528 0.109263 0.11137 0.112848 0.113698 0.113906 0.113457 0.112352 0.110591 0.108172 0.105098 0.101367 0.0969791 0.0921857 0.0872371 0.0821332 0.0768742 0.07146 0.0658906 0.060166 0.0542862 0.0484931 0.0430285 0.0378924 0.0330848 0.0286058 0.0244552 0.0206332 0.0171396 0.0139886 0.011194 0.00875576 0.006674 0.00494867 0.00357978 0.00256731 0.00191127 0.00146332 0.00107509 0.000746592 0.000477819 0.000268773 0.000119455 2.98637e-05 0 0 -2.26504e-05 -9.06017e-05 -0.000203854 -0.000362407 -0.000566261 -0.000815415 -0.00110987 -0.00144963 -0.00176085 -0.0019697 -0.00207618 -0.00208028 -0.00198202 -0.00178138 -0.00147838 -0.001073 -0.000532874 0.000174367 0.00104873 0.0020902 0.0032988 0.00467451 0.00621734 0.00792729 0.00969468 0.0114098 0.0130728 0.0146835 0.0162419 0.0177482 0.0192022 0.020604 0.0218426 0.0228071 0.0234975 0.0239137 0.0240559 0.023924 0.0235179 0.0228378 0.0219255 0.0208229 0.01953 0.0180468 0.0163734 0.0145097 0.0124557 0.0102115 0.00796823 0.00591724 0.00405852 0.00239206 0.000917856 -0.000364083 -0.00145376 -0.00235118 -0.00288217 -0.00287258 -0.00232241 -0.00123166 0.00039967 0.00257158 0.00528408 0.00853715 0.0123 0.0165417 0.0212623 0.0264617 0.0321401 0.0382973 0.0449335 0.0520485 0.0593527 0.0665561 0.073659 0.0806611 0.0875626 0.0943634 0.101064 0.107663 0.113842 0.119281 0.12398 0.127939 0.131158 0.133637 0.135375 0.136374 0.136614 0.136079 0.134767 0.13268 0.129817 0.126177 0.121762 0.116571 0.110898 0.105035 0.0989834 0.0927425 0.0863125 0.0796933 0.072885 0.0658876 0.0589862 0.0524659 0.0463269 0.040569 0.0351922 0.0301966 0.0255822 0.0213489 0.0175184 0.0141124 0.0111307 0.00857354 0.00644077 0.00473244 0.00344853 0.00258905 0.00198224 0.00145634 0.00101135 0.000647263 0.000364086 0.000161816 4.0454e-05 0 0 -2.23745e-05 -8.9498e-05 -0.00020137 -0.000357992 -0.000559362 -0.000805482 -0.00109635 -0.00143197 -0.00172576 -0.00189116 -0.00192817 -0.00183678 -0.00161699 -0.00126881 -0.000792239 -0.00018727 0.000579251 0.00154048 0.00269642 0.00404707 0.00559242 0.00733249 0.00926726 0.0113967 0.0135901 0.0157166 0.0177762 0.019769 0.0216948 0.0235537 0.0253457 0.0270709 0.0285981 0.0297964 0.0306658 0.0312062 0.0314178 0.0313004 0.030854 0.0300788 0.0290249 0.0277429 0.0262325 0.024494 0.0225271 0.0203321 0.0179088 0.0152572 0.0126035 0.0101735 0.00796734 0.00598496 0.00422638 0.00269159 0.0013806 0.000293405 -0.000365635 -0.000392158 0.000213836 0.00145235 0.00332337 0.00582692 0.00896298 0.0127316 0.0170962 0.0220205 0.0275045 0.0335482 0.0401515 0.0473145 0.0550371 0.0633194 0.0718231 0.0802097 0.0884793 0.0966319 0.104668 0.112586 0.120388 0.128072 0.135267 0.1416 0.147071 0.151679 0.155426 0.15831 0.160332 0.161492 0.161767 0.161136 0.159598 0.157153 0.153802 0.149544 0.14438 0.138308 0.13167 0.124805 0.117712 0.110393 0.102846 0.0950725 0.0870717 0.0788437 0.070721 0.0630361 0.0557888 0.0489794 0.0426076 0.0366736 0.0311773 0.0261188 0.0215288 0.0174381 0.0138468 0.0107547 0.00816207 0.00606873 0.00447472 0.00338004 0.00258784 0.00190127 0.00132033 0.000845011 0.000475318 0.000211253 5.28132e-05 0 0 -2.15579e-05 -8.62317e-05 -0.000194021 -0.000344927 -0.000538948 -0.000776086 -0.00105634 -0.00137971 -0.00164575 -0.00175401 -0.00170449 -0.0014972 -0.00113213 -0.000609284 7.13395e-05 0.00090974 0.00193934 0.00319355 0.00467237 0.00637581 0.00830387 0.0104565 0.0128338 0.0154357 0.0181081 0.020697 0.0232023 0.025624 0.0279622 0.0302168 0.0323879 0.0344753 0.0363263 0.0377876 0.0388593 0.0395415 0.0398341 0.0397371 0.0392506 0.0383745 0.0371684 0.0356921 0.0339456 0.0319288 0.0296418 0.0270846 0.0242571 0.0211593 0.0180554 0.0152095 0.0126215 0.0102914 0.00821932 0.00640516 0.00484895 0.00355069 0.00274766 0.00267713 0.00333912 0.00473362 0.00686064 0.00972016 0.0133122 0.0176367 0.0226513 0.0283132 0.0346226 0.0415794 0.0491837 0.0574353 0.0663345 0.075881 0.0856839 0.0953522 0.104886 0.114285 0.123549 0.132678 0.141673 0.150533 0.158829 0.16613 0.172436 0.177749 0.182066 0.18539 0.187718 0.189053 0.189365 0.188629 0.186844 0.184011 0.180129 0.175198 0.169218 0.16219 0.154503 0.146546 0.13832 0.129826 0.121062 0.112028 0.102726 0.0931545 0.0836976 0.0747388 0.0662783 0.058316 0.050852 0.0438862 0.0374187 0.0314493 0.0260197 0.0211712 0.0169038 0.0132176 0.0101126 0.00758865 0.00564587 0.00428424 0.00328012 0.00240988 0.00167353 0.00107106 0.000602471 0.000267765 6.69412e-05 0 0 -1.94298e-05 -7.77191e-05 -0.000174868 -0.000310876 -0.000485744 -0.000699472 -0.000952059 -0.00124351 -0.00145842 -0.0014814 -0.00131246 -0.000951581 -0.000398778 0.000345954 0.00128261 0.0024112 0.00376411 0.00537372 0.00724003 0.00936305 0.0117428 0.0143792 0.0172723 0.0204222 0.0236488 0.0267721 0.0297923 0.0327093 0.0355231 0.0382336 0.040841 0.0433451 0.045569 0.0473356 0.0486448 0.0494968 0.0498914 0.0498287 0.0493087 0.0483314 0.0469667 0.0452844 0.0432846 0.0409672 0.0383323 0.0353799 0.0321099 0.0285224 0.0249228 0.0216166 0.0186037 0.0158842 0.013458 0.0113253 0.00948586 0.00793982 0.00695991 0.00681888 0.00751674 0.00905348 0.0114291 0.0146436 0.018697 0.0235893 0.0292713 0.0356938 0.0428569 0.0507605 0.0594046 0.0687893 0.0789145 0.0897803 0.10094 0.111946 0.122799 0.133499 0.144045 0.154439 0.164679 0.174766 0.18421 0.192522 0.1997 0.205746 0.21066 0.21444 0.217088 0.218603 0.218953 0.218105 0.216059 0.212815 0.208373 0.202733 0.195895 0.187859 0.179067 0.169958 0.160535 0.150795 0.14074 0.13037 0.119684 0.108682 0.0978032 0.0874842 0.0777254 0.0685268 0.0598885 0.0518103 0.0442923 0.0373346 0.0309913 0.0253167 0.0203108 0.0159736 0.0123051 0.00930536 0.00697431 0.00531196 0.00406697 0.00298798 0.00207498 0.00132799 0.000746995 0.000331998 8.29994e-05 0 0 -1.52191e-05 -6.08762e-05 -0.000136971 -0.000243505 -0.000380476 -0.000547886 -0.000745733 -0.000974019 -0.00110139 -0.000996507 -0.00065936 -8.99511e-05 0.000711718 0.00174565 0.00301184 0.00451029 0.0062703 0.00832115 0.0106629 0.0132954 0.0162188 0.0194331 0.0229381 0.0267341 0.0306121 0.0343633 0.0379877 0.0414853 0.0448561 0.0481002 0.0512174 0.0542079 0.0568683 0.0589953 0.0605889 0.0616492 0.062176 0.0621695 0.0616295 0.0605562 0.0590305 0.0571333 0.0548648 0.0522249 0.0492136 0.0458309 0.0420767 0.0379512 0.0338044 0.0299862 0.0264968 0.023336 0.0205039 0.0180006 0.0158259 0.01398 0.0127733 0.0125167 0.01321 0.0148532 0.0174465 0.0209896 0.0254828 0.0309259 0.0372626 0.0444367 0.052448 0.0612966 0.0709826 0.0815058 0.0928663 0.105064 0.117595 0.129953 0.142139 0.154154 0.165996 0.177667 0.189165 0.200491 0.211095 0.220427 0.228485 0.235272 0.240786 0.245027 0.247996 0.249692 0.250077 0.249111 0.246795 0.243129 0.238112 0.231745 0.224028 0.21496 0.205034 0.194741 0.184082 0.173057 0.161665 0.149906 0.137781 0.125289 0.112925 0.101182 0.0900602 0.0795595 0.06968 0.0604217 0.0517845 0.0437686 0.0364436 0.0298795 0.0240764 0.019034 0.0147526 0.011232 0.00847234 0.00647352 0.00495629 0.00364136 0.00252872 0.00161838 0.000910339 0.000404595 0.000101149 0 0 -8.92577e-06 -3.57031e-05 -8.0332e-05 -0.000142812 -0.000223144 -0.000321328 -0.000437363 -0.000571249 -0.000574675 -0.000299327 0.000254794 0.00108769 0.00219936 0.0035898 0.00525902 0.00720701 0.0094579 0.0120358 0.0149408 0.0181729 0.0217319 0.0256181 0.0298312 0.0343715 0.038998 0.0434703 0.0477883 0.051952 0.0559614 0.0598165 0.0635173 0.0670638 0.0702242 0.0727669 0.0746917 0.0759987 0.0766879 0.0767593 0.076213 0.0750487 0.0733597 0.0712389 0.0686863 0.0657018 0.0622855 0.0584374 0.0541575 0.0494458 0.0447001 0.0403184 0.0363007 0.0326469 0.029357 0.0264311 0.0238691 0.0216711 0.0201879 0.0197705 0.0204188 0.0221329 0.0249127 0.0287582 0.0336695 0.0396465 0.0466252 0.0545417 0.0633959 0.0731878 0.0839174 0.0955848 0.10819 0.121733 0.135649 0.149374 0.162907 0.17625 0.189401 0.202361 0.21513 0.227708 0.239484 0.249845 0.258792 0.266325 0.272444 0.277149 0.28044 0.282317 0.282735 0.281646 0.279052 0.274951 0.269345 0.262233 0.253616 0.243492 0.232405 0.220895 0.208964 0.19661 0.183835 0.170637 0.157017 0.142976 0.129064 0.115833 0.103283 0.0914142 0.0802267 0.0697204 0.0598953 0.0507513 0.0423768 0.0348599 0.0282006 0.022399 0.017455 0.0133687 0.01014 0.00776892 0.00594808 0.00437002 0.00303473 0.00194223 0.0010925 0.000485557 0.000121389 0 0 -5.49935e-07 -2.19974e-06 -4.94942e-06 -8.79897e-06 -1.37484e-05 -1.97977e-05 -2.69468e-05 -3.51959e-05 0.000121738 0.000610139 0.00143001 0.00258134 0.00406414 0.00587841 0.00802414 0.0105013 0.0133269 0.0165178 0.020074 0.0239954 0.0282822 0.0329343 0.0379516 0.0433343 0.0488067 0.0540934 0.0591943 0.0641095 0.0688389 0.0733826 0.0777405 0.0819127 0.0856367 0.0886502 0.0909531 0.0925454 0.0934272 0.0935984 0.093059 0.0918091 0.0899545 0.0876011 0.0847489 0.0813979 0.0775482 0.0731996 0.0683522 0.0630061 0.0576101 0.0526132 0.0480154 0.0438168 0.0400172 0.0366168 0.0336155 0.0310132 0.0292037 0.0285804 0.0291433 0.0308924 0.0338277 0.0379493 0.0432571 0.0497511 0.0573591 0.0660089 0.0757005 0.086434 0.0982092 0.111026 0.124885 0.139786 0.155102 0.170208 0.185103 0.199787 0.214261 0.228524 0.242576 0.256418 0.269376 0.280776 0.29062 0.298906 0.305636 0.310808 0.314423 0.316481 0.316928 0.315711 0.312829 0.308283 0.302073 0.294198 0.284659 0.273456 0.261179 0.24842 0.235179 0.221456 0.20725 0.192563 0.177393 0.161741 0.146218 0.131436 0.117393 0.104091 0.0915285 0.0797064 0.0686245 0.0582828 0.0487907 0.0402576 0.0326835 0.0260684 0.0204123 0.0157153 0.0119772 0.00919816 0.00704234 0.00517396 0.00359303 0.00229954 0.00129349 0.000574885 0.000143721 0 0 9.90846e-06 3.96338e-05 8.91761e-05 0.000158535 0.000247712 0.000356705 0.000485515 0.000634141 0.000987847 0.00173189 0.00286628 0.004391 0.00630607 0.00861148 0.0113072 0.0143933 0.0178774 0.021767 0.0260623 0.0307631 0.0358696 0.0413816 0.0472993 0.0536225 0.060038 0.0662324 0.0722056 0.0779577 0.0834886 0.0887984 0.0938871 0.0987547 0.103106 0.106645 0.109373 0.111289 0.112394 0.112687 0.112168 0.110837 0.108815 0.10622 0.103053 0.0993133 0.0950015 0.0901174 0.0846609 0.0786321 0.0725342 0.0668705 0.061641 0.0568457 0.0524846 0.0485577 0.0450649 0.0420064 0.0398206 0.0389463 0.0393833 0.0411318 0.0441917 0.0485629 0.0542456 0.0612397 0.0694642 0.0788383 0.089362 0.101035 0.113858 0.12783 0.142952 0.159224 0.175955 0.192455 0.208725 0.224765 0.240574 0.256153 0.271501 0.286619 0.300771 0.313221 0.323969 0.333015 0.340359 0.346002 0.349942 0.352181 0.352656 0.351305 0.348127 0.343124 0.336295 0.327639 0.317158 0.30485 0.291356 0.277316 0.262728 0.247593 0.231912 0.215683 0.198908 0.181586 0.16439 0.147991 0.132391 0.117589 0.103585 0.0903798 0.0779723 0.0663631 0.0556854 0.0460727 0.037525 0.0300423 0.0236246 0.0182718 0.013984 0.0107612 0.00823907 0.00605319 0.00420361 0.00269031 0.0015133 0.000672577 0.000168144 0 0 2.24494e-05 8.97977e-05 0.000202045 0.000359191 0.000561235 0.000808179 0.00110002 0.00143676 0.00202365 0.00306593 0.00456361 0.00651668 0.00892514 0.011789 0.0151083 0.0188829 0.0231092 0.0277835 0.0329057 0.0384759 0.0444941 0.0509602 0.0578742 0.0652363 0.072692 0.0798874 0.0868222 0.0934966 0.0999106 0.106064 0.111957 0.11759 0.122631 0.12675