<?xml version="1.0"?> 
<VTKFile type="StructuredGrid" version="0.1"> 
<StructuredGrid WholeExtent="0 128 0 128 0 0"> 
<Piece Extent="0 128 0 128 0 0"> 
<PointData>
<DataArray type="Float32" Name="u" format="ascii" NumberOfComponents="1"> 
0 0 0 0 0 0 0 0 0 0 0 0 0 0 0 0 0 0 0 0 0 0 0 0 0 0 0 0 0 0 0 0 0 0 0 0 0 0 0 0 0 0 0 0 0 0 0 0 0 0 0 0 0 0 0 0 0 0 0 0 0 0 0 0 0 0 0 0 0 0 0 0 0 0 0 0 0 0 0 0 0 0 0 0 0 0 0 0 0 0 0 0 0 0 0 0 0 0 0 0 0 0 0 0 0 0 0 0 0 0 0 0 0 0 0 0 0 0 0 0 0 0 0 0 0 0 0 0 0 0 -1.70609e-07 -6.82436e-07 -1.53548e-06 -2.72974e-06 -4.26522e-06 -6.14192e-06 -8.35984e-06 -1.0919e-05 -1.3493e-05 -1.57557e-05 -1.77069e-05 -1.93468e-05 -2.06752e-05 -2.16923e-05 -2.2398e-05 -2.27923e-05 -2.26711e-05 -2.18302e-05 -2.02697e-05 -1.79895e-05 -1.49898e-05 -1.12703e-05 -6.83128e-06 -1.67259e-06 3.76193e-06 9.0285e-06 1.41271e-05 1.90577e-05 2.38204e-05 2.84151e-05 3.28419e-05 3.71006e-05 4.07507e-05 4.33515e-05 4.49028e-05 4.54047e-05 4.48573e-05 4.32605e-05 4.06143e-05 3.69187e-05 3.23533e-05 2.70978e-05 2.11522e-05 1.45164e-05 7.19051e-06 -8.25542e-07 -9.53174e-06 -1.89281e-05 -2.82244e-05 -3.66306e-05 -4.41466e-05 -5.07724e-05 -5.65081e-05 -6.13536e-05 -6.5309e-05 -6.83742e-05 -6.98162e-05 -6.89022e-05 -6.5632e-05 -6.00057e-05 -5.20233e-05 -4.16847e-05 -2.89901e-05 -1.39393e-05 3.33438e-06 2.26977e-05 4.41507e-05 6.76933e-05 9.33255e-05 0.000121047 0.000150859 0.00018276 0.000215491 0.000247791 0.000279661 0.0003111 0.000342108 0.000372686 0.000402833 0.00043255 0.00046042 0.000485027 0.000506371 0.000524452 0.000539271 0.000550826 0.000559119 0.000564148 0.000565829 0.000564075 0.000558886 0.000550262 0.000538203 0.00052271 0.000503781 0.000481417 0.000456934 0.000431645 0.000405552 0.000378653 0.00035095 0.000322441 0.000293127 0.000263009 0.000233378 0.000205527 0.000179457 0.000155168 0.000132659 0.000111931 9.29826e-05 7.58152e-05 6.04716e-05 4.69955e-05 3.53867e-05 2.56452e-05 1.77712e-05 1.17645e-05 7.62512e-06 5.35315e-06 4.09851e-06 3.01115e-06 2.09108e-06 1.33829e-06 7.52787e-07 3.34572e-07 8.3643e-08 0 0 -6.82436e-07 -2.72974e-06 -6.14192e-06 -1.0919e-05 -1.70609e-05 -2.45677e-05 -3.34393e-05 -4.36759e-05 -5.39721e-05 -6.30227e-05 -7.08277e-05 -7.73871e-05 -8.2701e-05 -8.67693e-05 -8.9592e-05 -9.11691e-05 -9.06842e-05 -8.73207e-05 -8.10787e-05 -7.19581e-05 -5.9959e-05 -4.50813e-05 -2.73251e-05 -6.69037e-06 1.50477e-05 3.6114e-05 5.65084e-05 7.62309e-05 9.52816e-05 0.00011366 0.000131367 0.000148403 0.000163003 0.000173406 0.000179611 0.000181619 0.000179429 0.000173042 0.000162457 0.000147675 0.000129413 0.000108391 8.46088e-05 5.80657e-05 2.87621e-05 -3.30217e-06 -3.81269e-05 -7.57123e-05 -0.000112898 -0.000146522 -0.000176586 -0.00020309 -0.000226032 -0.000245414 -0.000261236 -0.000273497 -0.000279265 -0.000275609 -0.000262528 -0.000240023 -0.000208093 -0.000166739 -0.00011596 -5.57571e-05 1.33375e-05 9.07908e-05 0.000176603 0.000270773 0.000373302 0.00048419 0.000603436 0.000731041 0.000861963 0.000991164 0.00111864 0.0012444 0.00136843 0.00149074 0.00161133 0.0017302 0.00184168 0.00194011 0.00202548 0.00209781 0.00215708 0.0022033 0.00223647 0.00225659 0.00226332 0.0022563 0.00223554 0.00220105 0.00215281 0.00209084 0.00201512 0.00192567 0.00182774 0.00172658 0.00162221 0.00151461 0.0014038 0.00128976 0.00117251 0.00105203 0.000933511 0.000822109 0.00071783 0.000620672 0.000530636 0.000447722 0.000371931 0.000303261 0.000241887 0.000187982 0.000141547 0.000102581 7.10847e-05 4.70578e-05 3.05005e-05 2.14126e-05 1.6394e-05 1.20446e-05 8.3643e-06 5.35315e-06 3.01115e-06 1.33829e-06 3.34572e-07 0 0 -1.53548e-06 -6.14192e-06 -1.38193e-05 -2.45677e-05 -3.8387e-05 -5.52773e-05 -7.52385e-05 -9.82707e-05 -0.000121437 -0.000141801 -0.000159362 -0.000174121 -0.000186077 -0.000195231 -0.000201582 -0.000205131 -0.000204039 -0.000196472 -0.000182427 -0.000161906 -0.000134908 -0.000101433 -6.14816e-05 -1.50533e-05 3.38574e-05 8.12565e-05 0.000127144 0.00017152 0.000214384 0.000255736 0.000295577 0.000333906 0.000366757 0.000390163 0.000404125 0.000408643 0.000403716 0.000389344 0.000365529 0.000332268 0.00029118 0.000243881 0.00019037 0.000130648 6.47146e-05 -7.42988e-06 -8.57856e-05 -0.000170353 -0.00025402 -0.000329675 -0.000397319 -0.000456952 -0.000508573 -0.000552183 -0.000587781 -0.000615368 -0.000628346 -0.00062012 -0.000590688 -0.000540051 -0.00046821 -0.000375163 -0.000260911 -0.000125454 3.00094e-05 0.000204279 0.000397356 0.000609239 0.00083993 0.00108943 0.00135773 0.00164484 0.00193942 0.00223012 0.00251695 0.0027999 0.00307897 0.00335417 0.0036255 0.00389295 0.00414378 0.00436524 0.00455734 0.00472007 0.00485344 0.00495744 0.00503207 0.00507734 0.00509246 0.00507668 0.00502997 0.00495236 0.00484383 0.00470439 0.00453403 0.00433276 0.0041124 0.00388481 0.00364997 0.00340788 0.00315855 0.00290197 0.00263815 0.00236708 0.0021004 0.00184975 0.00161512 0.00139651 0.00119393 0.00100738 0.000836844 0.000682337 0.000544245 0.000422959 0.00031848 0.000230807 0.00015994 0.00010588 6.86261e-05 4.81784e-05 3.68866e-05 2.71003e-05 1.88197e-05 1.20446e-05 6.77508e-06 3.01115e-06 7.52787e-07 0 0 -2.72974e-06 -1.0919e-05 -2.45677e-05 -4.36759e-05 -6.82436e-05 -9.82707e-05 -0.000133757 -0.000174704 -0.000215888 -0.000252091 -0.000283311 -0.000309549 -0.000330804 -0.000347077 -0.000358368 -0.000364677 -0.000362737 -0.000349283 -0.000324315 -0.000287833 -0.000239836 -0.000180325 -0.000109301 -2.67615e-05 6.01909e-05 0.000144456 0.000226034 0.000304924 0.000381126 0.000454642 0.00052547 0.00059361 0.000652012 0.000693623 0.000718445 0.000726476 0.000717717 0.000692168 0.000649829 0.000590699 0.000517653 0.000433565 0.000338435 0.000232263 0.000115048 -1.32087e-05 -0.000152508 -0.000302849 -0.00045159 -0.000586089 -0.000706345 -0.000812359 -0.000904129 -0.000981658 -0.00104494 -0.00109399 -0.00111706 -0.00110243 -0.00105011 -0.000960091 -0.000832372 -0.000666956 -0.000463841 -0.000223029 5.33501e-05 0.000363163 0.00070641 0.00108309 0.00149321 0.00193676 0.00241374 0.00292416 0.00344785 0.00396466 0.00447457 0.00497759 0.00547373 0.00596297 0.00644533 0.0069208 0.00736672 0.00776043 0.00810194 0.00839124 0.00862833 0.00881322 0.0089459 0.00902637 0.00905327 0.0090252 0.00894218 0.00880419 0.00861125 0.00836335 0.00806049 0.00770268 0.00731094 0.00690632 0.00648883 0.00605845 0.00561519 0.00515906 0.00469004 0.00420814 0.00373404 0.00328844 0.00287132 0.00248269 0.00212254 0.00179089 0.00148772 0.00121304 0.000967546 0.000751927 0.000566187 0.000410324 0.000284339 0.000188231 0.000122002 8.56504e-05 6.55761e-05 4.81784e-05 3.34572e-05 2.14126e-05 1.20446e-05 5.35315e-06 1.33829e-06 0 0 -4.26522e-06 -1.70609e-05 -3.8387e-05 -6.82436e-05 -0.000106631 -0.000153548 -0.000208996 -0.000272974 -0.000337325 -0.000393892 -0.000442673 -0.00048367 -0.000516881 -0.000542308 -0.00055995 -0.000569807 -0.000566776 -0.000545755 -0.000506742 -0.000449738 -0.000374744 -0.000281758 -0.000170782 -4.18148e-05 9.40483e-05 0.000225712 0.000353177 0.000476443 0.00059551 0.000710378 0.000821046 0.000927516 0.00101877 0.00108379 0.00112257 0.00113512 0.00112143 0.00108151 0.00101536 0.000922967 0.000808833 0.000677446 0.000528805 0.000362911 0.000179763 -2.06386e-05 -0.000238293 -0.000473202 -0.00070561 -0.000915764 -0.00110366 -0.00126931 -0.0014127 -0.00153384 -0.00163272 -0.00170935 -0.00174541 -0.00172255 -0.0016408 -0.00150014 -0.00130058 -0.00104212 -0.000724752 -0.000348482 8.33596e-05 0.000567442 0.00110377 0.00169233 0.00233314 0.00302619 0.00377147 0.004569 0.00538727 0.00619477 0.00699151 0.00777749 0.0085527 0.00931715 0.0100708 0.0108137 0.0115105 0.0121257 0.0126593 0.0131113 0.0134818 0.0137707 0.013978 0.0141037 0.0141457 0.0141019 0.0139722 0.0137566 0.0134551 0.0130677 0.0125945 0.0120354 0.0114233 0.0107911 0.0101388 0.00946633 0.00877374 0.00806102 0.00732818 0.00657522 0.00583444 0.00513818 0.00448644 0.0038792 0.00331648 0.00279826 0.00232457 0.00189538 0.00151179 0.00117489 0.000884667 0.000641131 0.000444279 0.000294112 0.000190628 0.000133829 0.000102463 7.52787e-05 5.22769e-05 3.34572e-05 1.88197e-05 8.3643e-06 2.09108e-06 0 0 -6.14192e-06 -2.45677e-05 -5.52773e-05 -9.82707e-05 -0.000153548 -0.000221109 -0.000300954 -0.000393083 -0.000485749 -0.000567204 -0.000637449 -0.000696484 -0.000744309 -0.000780924 -0.000806328 -0.000820522 -0.000816158 -0.000785887 -0.000729708 -0.000647623 -0.000539631 -0.000405732 -0.000245926 -6.02134e-05 0.00013543 0.000325026 0.000508575 0.000686078 0.000857534 0.00102294 0.00118231 0.00133562 0.00146703 0.00156065 0.0016165 0.00163457 0.00161486 0.00155738 0.00146211 0.00132907 0.00116472 0.000975522 0.000761479 0.000522591 0.000258858 -2.97195e-05 -0.000343143 -0.000681411 -0.00101608 -0.0013187 -0.00158928 -0.00182781 -0.00203429 -0.00220873 -0.00235112 -0.00246147 -0.00251338 -0.00248048 -0.00236275 -0.00216021 -0.00187284 -0.00150065 -0.00104364 -0.000501814 0.000120038 0.000817117 0.00158942 0.00243696 0.00335972 0.00435771 0.00543092 0.00657936 0.00775767 0.00892048 0.0100678 0.0111996 0.0123159 0.0134167 0.014502 0.0155718 0.0165751 0.017461 0.0182294 0.0188803 0.0194137 0.0198297 0.0201283 0.0203093 0.0203699 0.0203067 0.0201199 0.0198094 0.0193753 0.0188175 0.0181361 0.017331 0.0164496 0.0155392 0.0145999 0.0136315 0.0126342 0.0116079 0.0105526 0.00946831 0.0084016 0.00739898 0.00646047 0.00558605 0.00477573 0.0040295 0.00334737 0.00272935 0.00217698 0.00169184 0.00127392 0.000923228 0.000639762 0.000423521 0.000274504 0.000192713 0.000147546 0.000108401 7.52787e-05 4.81784e-05 2.71003e-05 1.20446e-05 3.01115e-06 0 0 -8.35984e-06 -3.34393e-05 -7.52385e-05 -0.000133757 -0.000208996 -0.000300954 -0.000409632 -0.000535029 -0.000661158 -0.000772028 -0.000867639 -0.000947992 -0.00101309 -0.00106292 -0.0010975 -0.00111682 -0.00111088 -0.00106968 -0.000993214 -0.000881487 -0.000734498 -0.000552247 -0.000334733 -8.19571e-05 0.000184335 0.000442396 0.000692228 0.000933829 0.0011672 0.00139234 0.00160925 0.00181793 0.00199679 0.00212422 0.00220024 0.00222483 0.00219801 0.00211976 0.0019901 0.00180902 0.00158531 0.00132779 0.00103646 0.000711305 0.000352335 -4.04516e-05 -0.000467055 -0.000927475 -0.001383 -0.0017949 -0.00216318 -0.00248785 -0.0027689 -0.00300633 -0.00320014 -0.00335033 -0.003421 -0.00337621 -0.00321597 -0.00294028 -0.00254914 -0.00204255 -0.00142051 -0.000683025 0.000163385 0.00111219 0.00216338 0.00331697 0.00457295 0.00593132 0.00739209 0.00895525 0.0105591 0.0121418 0.0137034 0.0152439 0.0167633 0.0182616 0.0197388 0.0211949 0.0225606 0.0237663 0.0248122 0.0256982 0.0264243 0.0269905 0.0273968 0.0276433 0.0277256 0.0276397 0.0273854 0.0269628 0.026372 0.0256128 0.0246853 0.0235894 0.0223898 0.0211506 0.019872 0.018554 0.0171965 0.0157996 0.0143632 0.0128874 0.0114355 0.0100708 0.00879341 0.00760323 0.00650029 0.0054846 0.00455615 0.00371494 0.00296311 0.00230278 0.00173395 0.00125662 0.000870787 0.000576459 0.000373631 0.000262304 0.000200827 0.000147546 0.000102463 6.55761e-05 3.68866e-05 1.6394e-05 4.09851e-06 0 0 -1.0919e-05 -4.36759e-05 -9.82707e-05 -0.000174704 -0.000272974 -0.000393083 -0.000535029 -0.000698814 -0.000863553 -0.00100836 -0.00113324 -0.00123819 -0.00132322 -0.00138831 -0.00143347 -0.00145871 -0.00145095 -0.00139713 -0.00129726 -0.00115133 -0.000959344 -0.000721302 -0.000437202 -0.000107046 0.000240764 0.000577824 0.000904134 0.00121969 0.00152451 0.00181857 0.00210188 0.00237444 0.00260805 0.00277449 0.00287378 0.0029059 0.00287087 0.00276867 0.00259931 0.0023628 0.00207061 0.00173426 0.00135374 0.000929051 0.000460193 -5.28347e-05 -0.000610031 -0.0012114 -0.00180636 -0.00234436 -0.00282538 -0.00324943 -0.00361652 -0.00392663 -0.00417977 -0.00437595 -0.00446824 -0.00440974 -0.00420045 -0.00384036 -0.00332949 -0.00266782 -0.00185536 -0.000892114 0.000213401 0.00145265 0.00282564 0.00433237 0.00597283 0.00774703 0.00965497 0.0116966 0.0137914 0.0158586 0.0178983 0.0199104 0.0218949 0.0238519 0.0257813 0.0276832 0.0294669 0.0310417 0.0324077 0.0335649 0.0345133 0.0352529 0.0357836 0.0361055 0.0362131 0.0361008 0.0357687 0.0352168 0.034445 0.0334534 0.032242 0.0308107 0.0292438 0.0276253 0.0259553 0.0242338 0.0224608 0.0206362 0.0187601 0.0168326 0.0149362 0.0131537 0.0114853 0.00993075 0.00849018 0.00716356 0.00595089 0.00485217 0.00387018 0.00300771 0.00226475 0.00164129 0.00113735 0.000752926 0.000488008 0.000342602 0.000262304 0.000192713 0.000133829 8.56504e-05 4.81784e-05 2.14126e-05 5.35315e-06 0 0 -1.33534e-05 -5.34135e-05 -0.00012018 -0.000213654 -0.000333834 -0.000480721 -0.000654315 -0.000854615 -0.00105499 -0.00122881 -0.00137607 -0.00149678 -0.00159092 -0.00165851 -0.00169955 -0.00171402 -0.00168592 -0.00159921 -0.0014539 -0.00124998 -0.000987459 -0.000666332 -0.0002866 0.000151736 0.000612144 0.00105809 0.00148958 0.0019066 0.00230916 0.00269727 0.00307091 0.00343009 0.00373869 0.0039606 0.00409582 0.00414434 0.00410616 0.0039813 0.00376974 0.00347148 0.00310136 0.0026742 0.00218999 0.00164875 0.00105046 0.000395123 -0.000317252 -0.00108667 -0.00184837 -0.00253758 -0.00315431 -0.00369856 -0.00417033 -0.00456962 -0.00489643 -0.00515075 -0.00527271 -0.00520241 -0.00493985 -0.00448504 -0.00383797 -0.00299865 -0.00196707 -0.000743239 0.000661931 0.00223751 0.00398351 0.00589993 0.00798676 0.010244 0.0126717 0.0152697 0.0179355 0.0205661 0.0231617 0.0257222 0.0282476 0.0307379 0.0331932 0.0356134 0.0378831 0.0398869 0.0416249 0.0430971 0.0443034 0.0452439 0.0459185 0.0463273 0.046463 0.0463186 0.0458939 0.0451891 0.044204 0.0429387 0.0413932 0.0395675 0.0375685 0.035503 0.033371 0.0311726 0.0289077 0.0265763 0.0241784 0.0217141 0.0192887 0.0170074 0.0148704 0.0128776 0.011029 0.0093246 0.00776442 0.00634846 0.00508099 0.0039663 0.00300439 0.00219526 0.00153891 0.00103533 0.000684536 0.000486518 0.00037249 0.000273666 0.000190046 0.000121629 6.84166e-05 3.04074e-05 7.60184e-06 0 0 -1.51971e-05 -6.07883e-05 -0.000136774 -0.000243153 -0.000379927 -0.000547095 -0.000744657 -0.000972613 -0.00119753 -0.00138597 -0.00153793 -0.00165342 -0.00173244 -0.00177498 -0.00178104 -0.00175063 -0.00166537 -0.00150689 -0.00127519 -0.00097027 -0.000592131 -0.000140772 0.000383806 0.000981605 0.0016059 0.00220998 0.00279384 0.00335747 0.00390089 0.00442408 0.00492706 0.00540981 0.0058266 0.00613167 0.00632504 0.00640668 0.00637662 0.00623484 0.00598135 0.00561615 0.00515831 0.00462688 0.00402188 0.0033433 0.00259115 0.00176541 0.000866102 -0.000106785 -0.0010712 -0.00194507 -0.00272842 -0.00342124 -0.00402352 -0.00453528 -0.0049565 -0.00528719 -0.00545199 -0.00537554 -0.00505784 -0.00449888 -0.00369868 -0.00265722 -0.00137451 0.000149446 0.00190082 0.00386577 0.00604431 0.00843642 0.0110421 0.0138614 0.0168942 0.0201407 0.0234719 0.0267593 0.0300029 0.0332025 0.0363583 0.0394701 0.0425381 0.0455623 0.0483982 0.0509016 0.0530726 0.054911 0.056417 0.0575905 0.0584314 0.0589399 0.0591064 0.0589216 0.0583853 0.0574976 0.0562585 0.0546679 0.052726 0.0504327 0.0479208 0.0453235 0.0426405 0.039872 0.037018 0.0340784 0.0310532 0.0279425 0.024878 0.0219916 0.0192831 0.0167527 0.0144003 0.0122259 0.0102296 0.00841124 0.00677833 0.00533823 0.00409096 0.00303652 0.00217489 0.00150609 0.00103012 0.000746965 0.000571895 0.000420168 0.000291783 0.000186741 0.000105042 4.66853e-05 1.16713e-05 0 0 -1.64501e-05 -6.58004e-05 -0.000148051 -0.000263201 -0.000411252 -0.000592203 -0.000806054 -0.00105281 -0.00129116 -0.00147984 -0.00161883 -0.00170814 -0.00174776 -0.00173769 -0.00167795 -0.00156851 -0.00138929 -0.00112016 -0.00076113 -0.000312197 0.000226639 0.000855377 0.00157402 0.00238256 0.00322204 0.00403349 0.00481692 0.00557231 0.00629968 0.00699902 0.00767033 0.00831361 0.00887177 0.00928771 0.00956144 0.00969295 0.00968223 0.00952931 0.00923416 0.0087968 0.00824144 0.00759231 0.0068494 0.00601272 0.00508226 0.00405803 0.00294003 0.00172825 0.000525147 -0.00056684 -0.00154771 -0.00241746 -0.00317609 -0.0038236 -0.00435999 -0.00478527 -0.00500609 -0.00492914 -0.00455441 -0.0038819 -0.00291161 -0.00164354 -7.76892e-05 0.00178594 0.00393007 0.00633743 0.00900802 0.0119418 0.0151389 0.0185992 0.0223227 0.0263094 0.0304008 0.0344382 0.0384217 0.0423513 0.0462268 0.0500485 0.0538162 0.0575299 0.0610123 0.0640859 0.0667507 0.0690068 0.0708541 0.0722926 0.0733224 0.0739434 0.0741433 0.0739097 0.0732427 0.0721423 0.0706084 0.0686411 0.0662403 0.0634061 0.0603008 0.0570867 0.0537638 0.0503322 0.0467918 0.0431425 0.0393846 0.0355178 0.0317043 0.0281062 0.0247235 0.0215562 0.0186042 0.0158676 0.0133464 0.0110405 0.00896219 0.0071235 0.00552446 0.00416506 0.00304531 0.00216521 0.00152475 0.00112394 0.000860519 0.000632218 0.00043904 0.000280986 0.000158055 7.02465e-05 1.75616e-05 0 0 -1.71124e-05 -6.84497e-05 -0.000154012 -0.000273799 -0.00042781 -0.000616047 -0.000838508 -0.00109519 -0.0013359 -0.00151042 -0.00161876 -0.00166091 -0.00163688 -0.00154667 -0.00139027 -0.00116768 -0.000857682 -0.000439028 8.82798e-05 0.00072424 0.00146885 0.00232212 0.00328403 0.0043546 0.00546056 0.00652863 0.00755881 0.00855112 0.00950553 0.0104221 0.0113007 0.0121415 0.0128742 0.0134287 0.013805 0.0140031 0.014023 0.0138647 0.0135282 0.0130134 0.0123508 0.0115705 0.0106726 0.009657 0.00852381 0.00727299 0.00590453 0.00441845 0.00294066 0.00159712 0.00038783 -0.00068722 -0.00162803 -0.00243459 -0.00310691 -0.00364498 -0.00393501 -0.00386321 -0.00342956 -0.00263408 -0.00147676 4.24032e-05 0.0019234 0.00416624 0.00674968 0.00965249 0.0128747 0.0164162 0.0202771 0.0244574 0.028957 0.033776 0.0387221 0.0436028 0.0484183 0.0531685 0.0578534 0.062473 0.0670273 0.0715163 0.0757253 0.0794397 0.0826594 0.0853844 0.0876147 0.0893504 0.0905914 0.0913377 0.0915735 0.091283 0.0904663 0.0891232 0.0872538 0.0848581 0.0819361 0.0784878 0.0747083 0.0707927 0.0667409 0.062553 0.0582289 0.0537687 0.0491724 0.0444399 0.0397675 0.0353513 0.0311915 0.0272879 0.0236406 0.0202495 0.0171148 0.0142363 0.0116326 0.0093221 0.00730487 0.00558089 0.00415016 0.00301268 0.00216844 0.00161745 0.00123836 0.000909817 0.000631818 0.000404363 0.000227454 0.000101091 2.52727e-05 0 0 -1.71841e-05 -6.87362e-05 -0.000154656 -0.000274945 -0.000429601 -0.000618626 -0.000842019 -0.00109978 -0.00133174 -0.00147772 -0.00153773 -0.00151176 -0.00139982 -0.0012019 -0.000918007 -0.00054814 -7.05499e-05 0.00053651 0.00127304 0.00213904 0.00313451 0.00425945 0.00551385 0.00689773 0.00832145 0.00969539 0.0110195 0.0122939 0.0135185 0.0146932 0.0158182 0.0168934 0.0178339 0.0185547 0.0190558 0.0193372 0.0193989 0.019241 0.0188634 0.018266 0.0174863 0.0165614 0.0154913 0.0142761 0.0129158 0.0114103 0.00975961 0.00796379 0.00617535 0.00454682 0.00307819 0.00176947 0.000620662 -0.000368242 -0.00119724 -0.00186633 -0.00223875 -0.00217774 -0.0016833 -0.000755429 0.000605871 0.0024006 0.00462876 0.00729035 0.0103596 0.0138109 0.0176442 0.0218595 0.0264568 0.031436 0.0367973 0.0425405 0.0484358 0.0542532 0.0599926 0.0656542 0.0712379 0.0767436 0.0821715 0.0875214 0.0925373 0.096963 0.100798 0.104044 0.106699 0.108764 0.110238 0.111123 0.111397 0.111042 0.110056 0.10844 0.106195 0.103319 0.0998135 0.0956779 0.0911435 0.0864415 0.0815718 0.0765345 0.0713295 0.0659569 0.0604167 0.0547089 0.0490675 0.0437269 0.0386871 0.0339479 0.0295095 0.0253718 0.0215348 0.0179986 0.0147895 0.011934 0.0094322 0.00728401 0.00548944 0.0040485 0.00296118 0.00222749 0.00170542 0.00125297 0.000870115 0.000556873 0.000313241 0.000139218 3.48046e-05 0 0 -1.6665e-05 -6.666e-05 -0.000149985 -0.00026664 -0.000416625 -0.00059994 -0.000816585 -0.00106656 -0.00127867 -0.00138173 -0.00137573 -0.00126067 -0.00103656 -0.000703387 -0.000261161 0.000290122 0.000972109 0.00180645 0.00279315 0.0039322 0.00522361 0.00666737 0.00826348 0.010012 0.0118047 0.0135338 0.0151991 0.0168006 0.0183384 0.0198125 0.0212229 0.0225695 0.0237509 0.0246656 0.0253137 0.0256952 0.02581 0.0256582 0.0252397 0.0245546 0.023648 0.0225651 0.0213058 0.0198701 0.0182582 0.0164699 0.0145053 0.0123643 0.0102292 0.00828224 0.00652338 0.00495262 0.00356998 0.00237544 0.00136901 0.00055069 8.27004e-05 0.000127264 0.000684382 0.00175405 0.00333628 0.00543105 0.00803838 0.0111583 0.01476 0.0188128 0.0233167 0.0282717 0.0336778 0.0395351 0.0458434 0.0526028 0.0595419 0.0663892 0.0731447 0.0798084 0.0863803 0.0928604 0.0992487 0.105545 0.111448 0.116656 0.121168 0.124985 0.128106 0.130533 0.132263 0.133299 0.133614 0.133185 0.132012 0.130094 0.127431 0.124024 0.119872 0.114976 0.109606 0.104033 0.0982564 0.0922766 0.0860935 0.0797072 0.0731176 0.0663247 0.0596045 0.053233 0.0472103 0.0415363 0.0362109 0.0312344 0.0266065 0.0223273 0.0184329 0.0149593 0.0119065 0.00927441 0.00706315 0.00527267 0.00390297 0.00295407 0.00226171 0.00166166 0.00115393 0.000738516 0.000415415 0.000184629 4.61573e-05 0 0 -1.55553e-05 -6.2221e-05 -0.000139997 -0.000248884 -0.000388881 -0.000559989 -0.000762207 -0.000995536 -0.00117671 -0.00122245 -0.00113276 -0.000907646 -0.000547102 -5.11302e-05 0.00058027 0.0013471 0.00227029 0.0033708 0.00464861 0.00610372 0.00773615 0.00954588 0.0115329 0.0136973 0.0159104 0.0180438 0.0200974 0.0220713 0.0239655 0.0257799 0.0275146 0.0291696 0.0306251 0.0317615 0.0325789 0.0330771 0.0332563 0.0331163 0.0326573 0.0318792 0.0308359 0.0295815 0.0281158 0.026439 0.024551 0.0224518 0.0201415 0.01762 0.0151022 0.0128034 0.0107234 0.00886223 0.00721992 0.00579645 0.00459184 0.00360607 0.00302933 0.0030518 0.00367348 0.00489436 0.00671446 0.00913376 0.0121523 0.01577 0.0199507 0.024658 0.0298921 0.0356529 0.0419403 0.0487545 0.0560954 0.0639629 0.0720404 0.0800109 0.0878744 0.095631 0.103281 0.110823 0.118259 0.125588 0.132458 0.138518 0.143768 0.148208 0.151838 0.154657 0.156666 0.157866 0.158225 0.157714 0.156334 0.154083 0.150963 0.146973 0.142113 0.136383 0.130097 0.123567 0.116795 0.109779 0.102521 0.0950195 0.0872749 0.0792873 0.0713783 0.0638696 0.0567611 0.0500529 0.0437449 0.0378372 0.0323298 0.0272226 0.0225629 0.0183979 0.0147276 0.0115521 0.00887129 0.00668519 0.00499382 0.00379717 0.00290721 0.00213591 0.00148327 0.000949292 0.000533977 0.000237323 5.93308e-05 0 0 -1.38548e-05 -5.54193e-05 -0.000124693 -0.000221677 -0.00034637 -0.000498773 -0.000678886 -0.000886708 -0.00102584 -0.00099988 -0.000808829 -0.000452688 6.85455e-05 0.00075487 0.00160629 0.00262279 0.00382401 0.00522955 0.00683942 0.00865361 0.0106721 0.012895 0.0153221 0.0179536 0.0206384 0.0232254 0.0257146 0.028106 0.0303996 0.0325954 0.0346935 0.0366937 0.0384566 0.0398424 0.0408512 0.041483 0.0417377 0.0416154 0.0411161 0.0402397 0.03905 0.0376106 0.0359215 0.0339827 0.0317943 0.0293561 0.0266683 0.0237308 0.0207945 0.0181103 0.0156782 0.0134983 0.0115705 0.0098948 0.00847125 0.00729982 0.00660115 0.00659587 0.00728399 0.00866551 0.0107404 0.0135087 0.0169704 0.0211255 0.0259317 0.0313467 0.0373704 0.044003 0.0512443 0.0590944 0.0675533 0.0766209 0.0859313 0.0951183 0.104182 0.113122 0.121939 0.130632 0.139203 0.147649 0.155567 0.16255 0.168599 0.173713 0.177892 0.181137 0.183447 0.184823 0.185229 0.184628 0.183021 0.180409 0.17679 0.172165 0.166535 0.159898 0.152615 0.145044 0.137187 0.129043 0.120612 0.111894 0.102889 0.0935968 0.084389 0.0756366 0.0673395 0.0594978 0.0521114 0.0451804 0.0387047 0.0326843 0.0271794 0.0222498 0.0178957 0.0141171 0.0109139 0.00828607 0.00623372 0.0047568 0.00364193 0.0026757 0.00185813 0.0011892 0.000668925 0.0002973 7.4325e-05 0 0 -1.08538e-05 -4.34153e-05 -9.76844e-05 -0.000173661 -0.000271345 -0.000390737 -0.000531837 -0.000694644 -0.00076864 -0.000643306 -0.000318641 0.000205353 0.000928679 0.00185133 0.00297332 0.00429464 0.00583226 0.00760317 0.00960736 0.0118448 0.0143156 0.0170196 0.019957 0.0231276 0.0263555 0.0294646 0.0324551 0.0353268 0.0380797 0.040714 0.0432294 0.0456262 0.0477428 0.0494179 0.0506514 0.0514434 0.0517939 0.0517028 0.0511702 0.050196 0.0488545 0.0472201 0.0452927 0.0430722 0.0405588 0.0377523 0.0346529 0.0312605 0.0278649 0.0247559 0.0219335 0.0193978 0.0171486 0.0151862 0.0135103 0.012121 0.0112718 0.0112161 0.0119537 0.0134848 0.0158093 0.0189273 0.0228387 0.0275435 0.0329929 0.0391381 0.0459789 0.0535155 0.0617478 0.0706759 0.0802996 0.0906191 0.101216 0.111673 0.121988 0.132164 0.142198 0.152092 0.161846 0.171459 0.180469 0.188415 0.195296 0.201112 0.205864 0.209551 0.212174 0.213732 0.214184 0.213486 0.211639 0.208643 0.204498 0.199204 0.19276 0.185168 0.176833 0.168163 0.159158 0.149818 0.140143 0.130133 0.119788 0.109107 0.0985151 0.0884347 0.078866 0.069809 0.0612638 0.0532302 0.0457083 0.0386982 0.0322748 0.0265132 0.0214133 0.0169752 0.0131989 0.0100843 0.00763156 0.00584054 0.00447166 0.0032853 0.00228146 0.00146014 0.000821326 0.000365034 9.12585e-05 0 0 -5.84238e-06 -2.33695e-05 -5.25814e-05 -9.34781e-05 -0.00014606 -0.000210326 -0.000286277 -0.000373912 -0.000347675 -8.20058e-05 0.000423095 0.00116763 0.00215159 0.00337498 0.00483781 0.00654007 0.00849407 0.0107121 0.0131942 0.0159404 0.0189506 0.0222249 0.0257632 0.0295656 0.0334283 0.0371475 0.0407234 0.0441558 0.0474448 0.0505903 0.0535925 0.0564512 0.0589813 0.0609977 0.0625003 0.0634893 0.0639645 0.063926 0.0633737 0.0623077 0.0608138 0.0589775 0.0567991 0.0542783 0.0514153 0.0482101 0.0446626 0.0407729 0.0368725 0.0332932 0.0300349 0.0270976 0.0244814 0.0221862 0.020212 0.0185589 0.0175151 0.0173689 0.0181204 0.0197696 0.0223163 0.0257608 0.0301029 0.0353426 0.0414241 0.0482915 0.0559448 0.064384 0.0736091 0.0836201 0.094417 0.106 0.117897 0.129635 0.141216 0.152638 0.163902 0.175008 0.185956 0.196745 0.206858 0.215774 0.223495 0.230019 0.235347 0.239479 0.242414 0.244154 0.244648 0.243846 0.24175 0.238358 0.233671 0.227689 0.220411 0.211839 0.202425 0.192623 0.182434 0.171857 0.160892 0.14954 0.1378 0.125673 0.113635 0.102164 0.0912609 0.0809245 0.0711552 0.061953 0.0533179 0.0452498 0.0378416 0.031186 0.0252829 0.0201324 0.0157345 0.0120891 0.00919623 0.00705596 0.00540222 0.00396898 0.00275623 0.00176399 0.000992244 0.000440997 0.000110249 0 0 1.1795e-06 4.71799e-06 1.06155e-05 1.8872e-05 2.94874e-05 4.24619e-05 5.77953e-05 7.54878e-05 0.000237057 0.000684021 0.00141638 0.00243413 0.00373728 0.00532582 0.00719975 0.00935908 0.0118094 0.0145564 0.0176 0.0209403 0.0245771 0.0285107 0.0327408 0.0372676 0.0418568 0.0462741 0.0505195 0.0545931 0.0584947 0.0622246 0.0657825 0.0691686 0.072172 0.0745817 0.0763979 0.0776205 0.0782495 0.0782849 0.0777267 0.076575 0.0749277 0.0728829 0.0704407 0.0676011 0.064364 0.0607294 0.0566974 0.0522679 0.0478173 0.0437222 0.0399823 0.0365978 0.0335687 0.0308948 0.0285764 0.0266133 0.0253308 0.0250545 0.0257841 0.0275198 0.0302615 0.0340092 0.038763 0.0445228 0.0512252 0.058807 0.0672681 0.0766085 0.0868282 0.0979272 0.109906 0.122763 0.135972 0.149006 0.161863 0.174544 0.18705 0.199379 0.211532 0.22351 0.234734 0.24463 0.253196 0.260433 0.26634 0.270919 0.274168 0.276087 0.27662 0.275709 0.273353 0.269553 0.264309 0.257621 0.249488 0.239911 0.229389 0.218423 0.207013 0.195158 0.182859 0.170115 0.156926 0.143293 0.129749 0.116826 0.104524 0.0928443 0.0817858 0.0713488 0.0615333 0.0523392 0.0438799 0.0362683 0.0295046 0.0235886 0.0185205 0.0143002 0.0109277 0.00840305 0.00643359 0.00472672 0.00328244 0.00210076 0.00118168 0.000525191 0.000131298 0 0 1.02118e-05 4.08473e-05 9.19063e-05 0.000163389 0.000255295 0.000367625 0.000500379 0.000653556 0.000985555 0.00165477 0.00266121 0.00400487 0.00568574 0.00770384 0.0100592 0.0127517 0.0157783 0.019136 0.0228247 0.0268445 0.0311952 0.035877 0.0408898 0.0462337 0.051641 0.0568442 0.0618434 0.0666386 0.0712297 0.0756167 0.0797996 0.0837785 0.0873149 0.0901701 0.0923441 0.0938371 0.0946489 0.0947796 0.0942292 0.0929977 0.0911963 0.0889363 0.0862177 0.0830405 0.0794046 0.0753102 0.0707572 0.0657456 0.0606994 0.0560428 0.0517758 0.0478984 0.0444105 0.0413122 0.0386035 0.0362843 0.0347192 0.0342727 0.0349448 0.0367354 0.0396447 0.0436725 0.048819 0.055084 0.0623963 0.0706846 0.0799488 0.0901889 0.101405 0.113597 0.126765 0.140909 0.155444 0.169785 0.183931 0.197884 0.211642 0.225206 0.238576 0.251751 0.264098 0.274981 0.284399 0.292354 0.298845 0.303872 0.307435 0.309533 0.310102 0.309074 0.30645 0.30223 0.296413 0.289 0.27999 0.269384 0.257728 0.245565 0.232897 0.219722 0.206043 0.191857 0.177166 0.161969 0.146856 0.132419 0.118656 0.105568 0.0931555 0.0814176 0.0703545 0.0599664 0.0503895 0.0417601 0.0340782 0.0273439 0.0215571 0.0167178 0.012826 0.00988183 0.00756577 0.00555853 0.00386009 0.00247046 0.00138963 0.000617614 0.000154404 0 0 2.12546e-05 8.50183e-05 0.000191291 0.000340073 0.000531364 0.000765164 0.00104147 0.00136029 0.00189782 0.00283025 0.00415759 0.00587984 0.00799699 0.010509 0.013416 0.0167179 0.0204008 0.024451 0.0288684 0.033653 0.0388048 0.0443239 0.0502102 0.0564637 0.0627809 0.068858 0.0746952 0.0802923 0.0856495 0.0907667 0.0956438 0.100281 0.10441 0.107763 0.110339 0.112139 0.113163 0.11341 0.112881 0.111576 0.10962 0.107138 0.10413 0.100596 0.0965374 0.0919526 0.0868421 0.0812059 0.0755187 0.0702552 0.0654154 0.0609993 0.0570069 0.0534382 0.0502932 0.0475719 0.0456801 0.0450236 0.0456024 0.0474166 0.050466 0.0547508 0.0602709 0.0670264 0.0749374 0.0839242 0.0939868 0.105125 0.11734 0.13063 0.144996 0.160437 0.176311 0.191972 0.20742 0.222655 0.237678 0.252488 0.267086 0.281471 0.294949 0.306827 0.317105 0.325783 0.33286 0.338338 0.342215 0.344491 0.345092 0.343942 0.34104 0.336387 0.329982 0.321826 0.311918 0.300259 0.287439 0.274047 0.260084 0.24555 0.230444 0.214767 0.198519 0.181699 0.164958 0.148943 0.133656 0.119097 0.105264 0.0921593 0.0797817 0.0681313 0.0573705 0.0476613 0.0390039 0.0313982 0.0248441 0.0193418 0.0148912 0.0114923 0.00879878 0.00646441 0.00448917 0.00287307 0.0016161 0.000718267 0.000179567 0 0 3.43078e-05 0.000137231 0.00030877 0.000548924 0.000857694 0.00123508 0.00168108 0.0021957 0.00297385 0.00421046 0.00590552 0.00805904 0.010671 0.0137414 0.0172703 0.0212577 0.0256768 0.0305013 0.0357309 0.0413658 0.047406 0.0538514 0.060702 0.0679579 0.0752765 0.0823155 0.0890748 0.0955543 0.101754 0.107674 0.113315 0.118676 0.123457 0.12736 0.130383 0.132526 0.133791 0.134176 0.133683 0.13231 0.130198 0.127487 0.12