<?xml version="1.0"?> 
<VTKFile type="StructuredGrid" version="0.1"> 
<StructuredGrid WholeExtent="0 128 0 128 0 0"> 
<Piece Extent="0 128 0 128 0 0"> 
<PointData>
<DataArray type="Float32" Name="u" format="ascii" NumberOfComponents="1"> 
0 0 0 0 0 0 0 0 0 0 0 0 0 0 0 0 0 0 0 0 0 0 0 0 0 0 0 0 0 0 0 0 0 0 0 0 0 0 0 0 0 0 0 0 0 0 0 0 0 0 0 0 0 0 0 0 0 0 0 0 0 0 0 0 0 0 0 0 0 0 0 0 0 0 0 0 0 0 0 0 0 0 0 0 0 0 0 0 0 0 0 0 0 0 0 0 0 0 0 0 0 0 0 0 0 0 0 0 0 0 0 0 0 0 0 0 0 0 0 0 0 0 0 0 0 0 0 0 0 0 -1.74822e-07 -6.9929e-07 -1.5734e-06 -2.79716e-06 -4.37056e-06 -6.29361e-06 -8.5663e-06 -1.11886e-05 -1.38331e-05 -1.61721e-05 -1.82056e-05 -1.99337e-05 -2.13564e-05 -2.24737e-05 -2.32855e-05 -2.37918e-05 -2.37811e-05 -2.30416e-05 -2.15734e-05 -1.93765e-05 -1.64508e-05 -1.27965e-05 -8.41335e-06 -3.3015e-06 2.09493e-06 7.3318e-06 1.24091e-05 1.73268e-05 2.2085e-05 2.66836e-05 3.11227e-05 3.54022e-05 3.9076e-05 4.16981e-05 4.32684e-05 4.37869e-05 4.32536e-05 4.16686e-05 3.90318e-05 3.53432e-05 3.07802e-05 2.55202e-05 1.95631e-05 1.2909e-05 5.55791e-06 -2.49026e-06 -1.12355e-05 -2.06777e-05 -3.00221e-05 -3.84735e-05 -4.60321e-05 -5.26979e-05 -5.84708e-05 -6.33508e-05 -6.7338e-05 -7.04323e-05 -7.18937e-05 -7.09824e-05 -6.76984e-05 -6.20415e-05 -5.40118e-05 -4.36094e-05 -3.08342e-05 -1.56862e-05 1.70121e-06 2.11948e-05 4.27945e-05 6.65004e-05 9.23124e-05 0.000120231 0.000150255 0.000182385 0.00021535 0.000247879 0.00027997 0.000311625 0.000342843 0.000373624 0.000403968 0.000433876 0.000461919 0.00048667 0.00050813 0.000526298 0.000541174 0.000552758 0.000561051 0.000566052 0.000567679 0.000565852 0.00056057 0.000551833 0.000539641 0.000523994 0.000504892 0.000482336 0.000457655 0.000432178 0.000405907 0.00037884 0.000350978 0.000322322 0.00029287 0.000262623 0.000232879 0.000204938 0.000178798 0.00015446 0.000131924 0.000111191 9.22585e-05 7.51284e-05 5.98338e-05 4.64082e-05 3.48518e-05 2.51645e-05 1.73462e-05 1.1397e-05 7.3169e-06 5.10589e-06 3.90919e-06 2.87206e-06 1.99449e-06 1.27647e-06 7.18015e-07 3.19118e-07 7.97795e-08 0 0 -6.9929e-07 -2.79716e-06 -6.29361e-06 -1.11886e-05 -1.74822e-05 -2.51744e-05 -3.42652e-05 -4.47545e-05 -5.53323e-05 -6.46883e-05 -7.28225e-05 -7.9735e-05 -8.54257e-05 -8.98946e-05 -9.31418e-05 -9.51672e-05 -9.51243e-05 -9.21665e-05 -8.62937e-05 -7.7506e-05 -6.58034e-05 -5.11859e-05 -3.36534e-05 -1.3206e-05 8.37971e-06 2.93272e-05 4.96364e-05 6.93074e-05 8.83401e-05 0.000106735 0.000124491 0.000141609 0.000156304 0.000166792 0.000173073 0.000175147 0.000173014 0.000166674 0.000156127 0.000141373 0.000123121 0.000102081 7.82526e-05 5.16362e-05 2.22317e-05 -9.96104e-06 -4.49419e-05 -8.27109e-05 -0.000120088 -0.000153894 -0.000184129 -0.000210792 -0.000233883 -0.000253403 -0.000269352 -0.000281729 -0.000287575 -0.00028393 -0.000270793 -0.000248166 -0.000216047 -0.000174438 -0.000123337 -6.27449e-05 6.80484e-06 8.47792e-05 0.000171178 0.000266001 0.000369249 0.000480922 0.000601019 0.000729541 0.000861401 0.000991514 0.00111988 0.0012465 0.00137137 0.00149449 0.00161587 0.0017355 0.00184768 0.00194668 0.00203252 0.00210519 0.0021647 0.00221103 0.0022442 0.00226421 0.00227072 0.00226341 0.00224228 0.00220733 0.00215856 0.00209598 0.00201957 0.00192934 0.00183062 0.00172871 0.00162363 0.00151536 0.00140391 0.00128929 0.00117148 0.00105049 0.000931517 0.000819751 0.000715192 0.000617841 0.000527698 0.000444762 0.000369034 0.000300514 0.000239335 0.000185633 0.000139407 0.000100658 6.93847e-05 4.5588e-05 2.92676e-05 2.04235e-05 1.56368e-05 1.14882e-05 7.97795e-06 5.10589e-06 2.87206e-06 1.27647e-06 3.19118e-07 0 0 -1.5734e-06 -6.29361e-06 -1.41606e-05 -2.51744e-05 -3.9335e-05 -5.66425e-05 -7.70967e-05 -0.000100698 -0.000124498 -0.000145549 -0.000163851 -0.000179404 -0.000192208 -0.000202263 -0.000209569 -0.000214126 -0.00021403 -0.000207375 -0.000194161 -0.000174389 -0.000148058 -0.000115168 -7.57201e-05 -2.97135e-05 1.88544e-05 6.59862e-05 0.000111682 0.000155942 0.000198765 0.000240153 0.000280104 0.00031862 0.000351684 0.000375283 0.000389415 0.000394082 0.000389283 0.000375017 0.000351286 0.000318089 0.000277022 0.000229682 0.000176068 0.000116181 5.00212e-05 -2.24123e-05 -0.000101119 -0.0001861 -0.000270199 -0.000346262 -0.000414289 -0.000474281 -0.000526237 -0.000570157 -0.000606042 -0.00063389 -0.000647044 -0.000638842 -0.000609285 -0.000558373 -0.000486107 -0.000392485 -0.000277508 -0.000141176 1.53109e-05 0.000190753 0.000385151 0.000598503 0.000830811 0.00108207 0.00135229 0.00164147 0.00193815 0.00223091 0.00251973 0.00280462 0.00308558 0.00336261 0.00363571 0.00390488 0.00415727 0.00438003 0.00457317 0.00473668 0.00487057 0.00497482 0.00504946 0.00509447 0.00510911 0.00509267 0.00504513 0.00496649 0.00485677 0.00471595 0.00454403 0.00434102 0.00411889 0.0038896 0.00365316 0.00340956 0.0031588 0.00290089 0.00263583 0.0023636 0.00209591 0.00184444 0.00160918 0.00139014 0.00118732 0.00100071 0.000830326 0.000676155 0.000538504 0.000417674 0.000313666 0.00022648 0.000156116 0.000102573 6.58521e-05 4.5953e-05 3.51827e-05 2.58485e-05 1.79504e-05 1.14882e-05 6.46214e-06 2.87206e-06 7.18015e-07 0 0 -2.79716e-06 -1.11886e-05 -2.51744e-05 -4.47545e-05 -6.9929e-05 -0.000100698 -0.000137061 -0.000179018 -0.000221329 -0.000258753 -0.00029129 -0.00031894 -0.000341703 -0.000359578 -0.000372567 -0.000380669 -0.000380497 -0.000368666 -0.000345175 -0.000310024 -0.000263214 -0.000204743 -0.000134614 -5.2824e-05 3.35188e-05 0.000117309 0.000198546 0.00027723 0.00035336 0.000426938 0.000497963 0.000566435 0.000625216 0.000667169 0.000692294 0.00070059 0.000692058 0.000666697 0.000624508 0.000565491 0.000492484 0.000408323 0.00031301 0.000206545 8.89266e-05 -3.98441e-05 -0.000179768 -0.000330844 -0.000480353 -0.000615577 -0.000736514 -0.000843166 -0.000935533 -0.00101361 -0.00107741 -0.00112692 -0.0011503 -0.00113572 -0.00108317 -0.000992664 -0.00086419 -0.000697751 -0.000493348 -0.00025098 2.72194e-05 0.000339117 0.000684712 0.00106401 0.001477 0.00192369 0.00240408 0.00291816 0.0034456 0.00396606 0.00447952 0.004986 0.00548548 0.00597798 0.00646349 0.00694201 0.0073907 0.00778672 0.00813008 0.00842077 0.00865878 0.00884413 0.00897681 0.00905683 0.00908287 0.00905363 0.00896912 0.00882932 0.00863425 0.0083839 0.00807828 0.00771738 0.00732247 0.00691485 0.00649451 0.00606144 0.00561565 0.00515714 0.00468591 0.00420196 0.00372607 0.003279 0.00286077 0.00247136 0.00211079 0.00177905 0.00147614 0.00120205 0.00095734 0.000742532 0.000557629 0.000402631 0.000277539 0.000182352 0.00011707 8.16942e-05 6.25471e-05 4.5953e-05 3.19118e-05 2.04235e-05 1.14882e-05 5.10589e-06 1.27647e-06 0 0 -4.37056e-06 -1.74822e-05 -3.9335e-05 -6.9929e-05 -0.000109264 -0.00015734 -0.000214157 -0.000279716 -0.000345827 -0.000404302 -0.000455141 -0.000498344 -0.00053391 -0.000561841 -0.000582136 -0.000594795 -0.000594527 -0.00057604 -0.000539336 -0.000484413 -0.000411271 -0.000319912 -0.000210334 -8.25376e-05 5.23732e-05 0.000183295 0.000310228 0.000433171 0.000552126 0.000667091 0.000778068 0.000885055 0.000976901 0.00104245 0.00108171 0.00109467 0.00108134 0.00104171 0.000975794 0.00088358 0.000769506 0.000638005 0.000489079 0.000322726 0.000138948 -6.22565e-05 -0.000280887 -0.000516943 -0.000750552 -0.000961838 -0.0011508 -0.00131745 -0.00146177 -0.00158377 -0.00168345 -0.00176081 -0.00179734 -0.00177456 -0.00169246 -0.00155104 -0.0013503 -0.00109024 -0.000770855 -0.000392156 4.25302e-05 0.00052987 0.00106986 0.00166251 0.00230781 0.00300576 0.00375637 0.00455963 0.00538376 0.00619696 0.00699925 0.00779062 0.00857107 0.00934059 0.0100992 0.0108469 0.011548 0.0121668 0.0127032 0.0131574 0.0135293 0.013819 0.0140263 0.0141513 0.014192 0.0141463 0.0140142 0.0137958 0.013491 0.0130999 0.0126223 0.0120584 0.0114414 0.0108045 0.0101477 0.009471 0.00877446 0.00805804 0.00732174 0.00656557 0.00582198 0.00512344 0.00446995 0.00386151 0.00329811 0.00277976 0.00230646 0.00187821 0.00149584 0.00116021 0.000871295 0.000629111 0.000433655 0.000284925 0.000182923 0.000127647 9.77299e-05 7.18015e-05 4.98622e-05 3.19118e-05 1.79504e-05 7.97795e-06 1.99449e-06 0 0 -6.29361e-06 -2.51744e-05 -5.66425e-05 -0.000100698 -0.00015734 -0.00022657 -0.000308387 -0.000402791 -0.000497991 -0.000582194 -0.000655402 -0.000717615 -0.000768831 -0.000809052 -0.000838276 -0.000856505 -0.000856119 -0.000829498 -0.000776643 -0.000697554 -0.000592231 -0.000460673 -0.000302881 -0.000118854 7.54174e-05 0.000263945 0.000446728 0.000623766 0.000795061 0.000960611 0.00112042 0.00127448 0.00140674 0.00150113 0.00155766 0.00157633 0.00155713 0.00150007 0.00140514 0.00127236 0.00110809 0.000918727 0.000704273 0.000464726 0.000200085 -8.96493e-05 -0.000404477 -0.000744398 -0.00108079 -0.00138505 -0.00165716 -0.00189712 -0.00210495 -0.00228063 -0.00242417 -0.00253556 -0.00258817 -0.00255537 -0.00243714 -0.00223349 -0.00194443 -0.00156994 -0.00111003 -0.000564704 6.12435e-05 0.000763013 0.0015406 0.00239401 0.00332325 0.0043283 0.00540917 0.00656587 0.00775261 0.00892363 0.0100789 0.0112185 0.0123423 0.0134505 0.0145428 0.0156195 0.0166291 0.0175201 0.0182927 0.0189467 0.0194823 0.0198993 0.0201978 0.0203779 0.0204365 0.0203707 0.0201805 0.019866 0.0194271 0.0188638 0.0181761 0.0173641 0.0164756 0.0155584 0.0146126 0.0136382 0.0126352 0.0116036 0.0105433 0.00945442 0.00838365 0.00737776 0.00643673 0.00556057 0.00474928 0.00400286 0.00332131 0.00270462 0.00215402 0.0016707 0.00125467 0.00090592 0.000624463 0.000410292 0.000263408 0.000183812 0.000140731 0.000103394 7.18015e-05 4.5953e-05 2.58485e-05 1.14882e-05 2.87206e-06 0 0 -8.5663e-06 -3.42652e-05 -7.70967e-05 -0.000137061 -0.000214157 -0.000308387 -0.000419749 -0.000548243 -0.00067782 -0.000792431 -0.000892076 -0.000976753 -0.00104646 -0.00110121 -0.00114099 -0.0011658 -0.00116527 -0.00112904 -0.0010571 -0.000949449 -0.000806092 -0.000627027 -0.000412254 -0.000161774 0.000102651 0.000359258 0.000608046 0.000849015 0.00108217 0.0013075 0.00152501 0.00173471 0.00191473 0.00204321 0.00212015 0.00214556 0.00211943 0.00204176 0.00191256 0.00173182 0.00150823 0.00125049 0.000958594 0.000632543 0.000272338 -0.000122023 -0.000550538 -0.00101321 -0.00147108 -0.0018852 -0.00225558 -0.0025822 -0.00286507 -0.00310419 -0.00329956 -0.00345118 -0.00352279 -0.00347814 -0.00331722 -0.00304003 -0.00264658 -0.00213686 -0.00151088 -0.000768625 8.33593e-05 0.00103854 0.00209693 0.00325852 0.00452331 0.00589129 0.00736248 0.00893687 0.0105522 0.012146 0.0137185 0.0152696 0.0167993 0.0183076 0.0197944 0.0212599 0.022634 0.0238468 0.0248984 0.0257886 0.0265175 0.0270852 0.0274915 0.0277365 0.0278163 0.0277267 0.0274679 0.0270398 0.0264424 0.0256757 0.0247397 0.0236345 0.0224251 0.0211767 0.0198894 0.0185632 0.0171979 0.0157938 0.0143506 0.0128685 0.0114111 0.0100419 0.0087611 0.00756855 0.0064643 0.00544834 0.00452067 0.00368129 0.00293186 0.002274 0.00170774 0.00123306 0.000849963 0.000558453 0.000358528 0.000250188 0.000191551 0.000140731 9.77299e-05 6.25471e-05 3.51827e-05 1.56368e-05 3.90919e-06 0 0 -1.11886e-05 -4.47545e-05 -0.000100698 -0.000179018 -0.000279716 -0.000402791 -0.000548243 -0.000716072 -0.000885316 -0.00103501 -0.00116516 -0.00127576 -0.00136681 -0.00143831 -0.00149027 -0.00152268 -0.00152199 -0.00147466 -0.0013807 -0.0012401 -0.00105285 -0.000818974 -0.000538454 -0.000211296 0.000134075 0.000469235 0.000794183 0.00110892 0.00141344 0.00170775 0.00199185 0.00226574 0.00250087 0.00266868 0.00276918 0.00280236 0.00276823 0.00266679 0.00249803 0.00226196 0.00196993 0.00163329 0.00125204 0.000826179 0.000355707 -0.000159377 -0.00071907 -0.00132337 -0.00192141 -0.00246231 -0.00294606 -0.00337267 -0.00374213 -0.00405445 -0.00430963 -0.00450767 -0.0046012 -0.00454288 -0.00433269 -0.00397066 -0.00345676 -0.002791 -0.00197339 -0.00100392 0.000108877 0.00135647 0.00273885 0.00425602 0.00590799 0.00769475 0.00961631 0.0116727 0.0137824 0.0158642 0.0179181 0.019944 0.0219419 0.0239119 0.025854 0.027768 0.0295628 0.0311469 0.0325203 0.0336831 0.0346351 0.0353765 0.0359073 0.0362273 0.0363315 0.0362145 0.0358765 0.0353173 0.034537 0.0335356 0.0323131 0.0308695 0.0292899 0.0276594 0.025978 0.0242458 0.0224626 0.0206286 0.0187437 0.0168079 0.0149043 0.013116 0.0114431 0.00988546 0.00844316 0.00711619 0.00590454 0.00480822 0.00382936 0.00297013 0.00223052 0.00161053 0.00111016 0.000729408 0.000468282 0.000326777 0.000250188 0.000183812 0.000127647 8.16942e-05 4.5953e-05 2.04235e-05 5.10589e-06 0 0 -1.36935e-05 -5.47741e-05 -0.000123242 -0.000219097 -0.000342338 -0.000492967 -0.000670983 -0.000876386 -0.00108244 -0.00126241 -0.00141629 -0.00154409 -0.0016458 -0.00172143 -0.00177097 -0.00179442 -0.00177516 -0.00169655 -0.00155859 -0.00136129 -0.00110463 -0.000788629 -0.000413278 2.14204e-05 0.000478899 0.000922591 0.0013525 0.00176861 0.00217094 0.00255949 0.00293424 0.00329521 0.00360583 0.00382954 0.00396635 0.00401624 0.00397923 0.00385531 0.00364449 0.00334675 0.00297676 0.00254914 0.00206391 0.00152105 0.000920584 0.000262496 -0.00045321 -0.00122653 -0.00199232 -0.00268539 -0.00330577 -0.00385344 -0.0043284 -0.00473066 -0.00506022 -0.00531708 -0.00544077 -0.00537083 -0.00510728 -0.0046501 -0.00399929 -0.00315487 -0.00211682 -0.000885146 0.000529223 0.00211536 0.00387326 0.00580294 0.00790438 0.0101776 0.0126226 0.0152393 0.0179241 0.0205734 0.0231871 0.0257651 0.0283076 0.0308146 0.0332859 0.0357216 0.0380055 0.0400212 0.0417686 0.0432479 0.044459 0.0454019 0.0460766 0.0464831 0.0466146 0.0464642 0.046032 0.045318 0.0443221 0.0430444 0.0414849 0.0396436 0.0376284 0.0355477 0.0334012 0.0311891 0.0289113 0.0265678 0.0241587 0.0216839 0.0192492 0.0169605 0.0148178 0.012821 0.0109701 0.00926518 0.00770622 0.00629321 0.00502964 0.003919 0.00296127 0.00215648 0.00150461 0.00100566 0.000659637 0.000466539 0.000357194 0.000262428 0.000182242 0.000116635 6.56071e-05 2.91587e-05 7.28968e-06 0 0 -1.56139e-05 -6.24557e-05 -0.000140525 -0.000249823 -0.000390348 -0.000562102 -0.000765083 -0.000999292 -0.00123115 -0.00142709 -0.0015871 -0.0017112 -0.00179936 -0.00185161 -0.00186793 -0.00184832 -0.00177368 -0.00162488 -0.00140192 -0.00110481 -0.000733535 -0.000288107 0.000231477 0.000825218 0.00144633 0.00204804 0.00263034 0.00319324 0.00373673 0.00426081 0.00476548 0.00525075 0.00567029 0.0059778 0.00617328 0.00625672 0.00622813 0.0060875 0.00583483 0.00547013 0.00501225 0.00448003 0.00387348 0.00319259 0.00243736 0.0016078 0.000703904 -0.000274328 -0.00124432 -0.0021235 -0.00291186 -0.00360941 -0.00421615 -0.00473207 -0.00515718 -0.00549147 -0.00565886 -0.00558326 -0.00526467 -0.00470309 -0.00389852 -0.00285096 -0.00156041 -2.68656e-05 0.00173582 0.0037138 0.00590708 0.00831566 0.0109395 0.0137787 0.0168332 0.0201029 0.0234581 0.0267688 0.030035 0.0332566 0.0364338 0.0395665 0.0426547 0.0456985 0.0485522 0.0510705 0.0532535 0.055101 0.056613 0.0577897 0.0586309 0.0591367 0.0592981 0.059106 0.0585604 0.0576614 0.056409 0.0548031 0.0528438 0.050531 0.0479992 0.0453828 0.0426818 0.0398962 0.0370261 0.0340713 0.031032 0.0279081 0.024832 0.0219361 0.0192203 0.0166847 0.0143293 0.0121541 0.010159 0.0083441 0.0067158 0.00528054 0.00403829 0.00298907 0.00213288 0.00146971 0.000999561 0.000722439 0.000553117 0.000406372 0.000282203 0.00018061 0.000101593 4.51524e-05 1.12881e-05 0 0 -1.69498e-05 -6.77993e-05 -0.000152548 -0.000271197 -0.000423746 -0.000610194 -0.000830542 -0.00108479 -0.00133146 -0.00152906 -0.0016776 -0.00177708 -0.0018275 -0.00182885 -0.00178115 -0.00168438 -0.00151754 -0.00125965 -0.000910683 -0.000470657 6.04348e-05 0.000682591 0.00139581 0.0022001 0.00303638 0.00384559 0.00462773 0.0053828 0.00611079 0.00681172 0.00748557 0.00813235 0.00869425 0.00911346 0.00938997 0.00952378 0.00951491 0.00936334 0.00906907 0.00863211 0.00807642 0.00742597 0.00668076 0.00584078 0.00490604 0.00387654 0.00275227 0.00153325 0.000322573 -0.000776625 -0.00176435 -0.0026406 -0.00340537 -0.00405868 -0.0046005 -0.00503086 -0.00525549 -0.00518017 -0.00480489 -0.00412964 -0.00315444 -0.00187928 -0.00030416 0.00157092 0.00372867 0.0061518 0.00884031 0.0117942 0.0150135 0.0184981 0.0222481 0.0262635 0.0303843 0.0344504 0.0384618 0.0424185 0.0463205 0.0501678 0.0539605 0.0576985 0.0612029 0.064295 0.0669748 0.0692422 0.0710972 0.0725399 0.0735702 0.0741882 0.074382 0.0741398 0.0734617 0.0723476 0.0707976 0.0688116 0.0663897 0.0635317 0.060402 0.0571647 0.0538197 0.0503671 0.0468069 0.0431391 0.0393636 0.0354805 0.0316525 0.0280426 0.0246507 0.0214767 0.0185208 0.0157828 0.0132628 0.0109609 0.00888785 0.00705475 0.00546157 0.00410831 0.00299497 0.00212155 0.00148805 0.00109448 0.000837957 0.000615642 0.000427529 0.000273619 0.000153911 6.84047e-05 1.71012e-05 0 0 -1.77012e-05 -7.08049e-05 -0.000159311 -0.000283219 -0.00044253 -0.000637244 -0.00086736 -0.00113288 -0.00138335 -0.00156831 -0.00168778 -0.00174174 -0.00173021 -0.00165317 -0.00151063 -0.00130258 -0.00100676 -0.000600855 -8.48824e-05 0.000541162 0.00127728 0.00212347 0.00307973 0.00414606 0.00524903 0.00631523 0.00734465 0.00833728 0.00929314 0.0102122 0.0110945 0.01194 0.0126777 0.0132365 0.0136164 0.0138174 0.0138396 0.0136828 0.0133472 0.0128327 0.0121693 0.011387 0.0104857 0.00946563 0.00832662 0.00706871 0.0056919 0.00419619 0.00270837 0.00135523 0.000136778 -0.000946991 -0.00189608 -0.00271048 -0.00339019 -0.00393523 -0.00423065 -0.00416155 -0.00372792 -0.00292975 -0.00176706 -0.00023983 0.00165193 0.00390821 0.00650777 0.00942935 0.0126729 0.0162385 0.0201262 0.0243358 0.0288675 0.0337211 0.0387027 0.0436182 0.0484675 0.0532506 0.0579676 0.0626185 0.0672031 0.0717217 0.0759576 0.0796946 0.0829326 0.0856716 0.0879115 0.0896525 0.0908945 0.0916375 0.0918663 0.0915658 0.0907359 0.0893766 0.087488 0.08507 0.0821226 0.0786459 0.0748371 0.0708934 0.066815 0.0626018 0.0582538 0.053771 0.0491534 0.044401 0.0397109 0.0352802 0.0311089 0.027197 0.0235445 0.0201514 0.0170178 0.0141435 0.0115458 0.00924163 0.00723111 0.00551419 0.00409089 0.0029612 0.00212512 0.00158265 0.00121172 0.00089024 0.000618222 0.000395662 0.00022256 9.89155e-05 2.47289e-05 0 0 -1.78681e-05 -7.14724e-05 -0.000160813 -0.00028589 -0.000446702 -0.000643252 -0.000875537 -0.00114356 -0.00138683 -0.00154485 -0.00161764 -0.00160518 -0.00150749 -0.00132455 -0.00105637 -0.000702947 -0.000241315 0.000351495 0.00107548 0.00193065 0.00291699 0.00403452 0.00528322 0.0066631 0.0080843 0.00945697 0.0107811 0.0120567 0.0132838 0.0144623 0.0155923 0.0166738 0.0176207 0.0183469 0.0188526 0.0191377 0.0192021 0.019046 0.0186692 0.0180718 0.0172908 0.016363 0.0152884 0.0140671 0.0126991 0.0111843 0.00952278 0.00771449 0.00591306 0.00427206 0.00279152 0.00147141 0.000311746 -0.000687475 -0.00152625 -0.00220459 -0.00258435 -0.00252741 -0.00203376 -0.00110341 0.000263639 0.00206739 0.00430785 0.00698501 0.0100731 0.0135464 0.017405 0.0216487 0.0262776 0.0312918 0.0366911 0.0424757 0.0484134 0.0542722 0.0600521 0.0657531 0.0713752 0.0769184 0.0823827 0.0877681 0.0928164 0.0972693 0.101127 0.104389 0.107056 0.109128 0.110604 0.111485 0.111751 0.111384 0.110383 0.108748 0.10648 0.103578 0.100043 0.0958733 0.0913042 0.086569 0.0816677 0.0766003 0.0713668 0.0659672 0.0604015 0.0546697 0.049007 0.0436488 0.0385949 0.0338455 0.0294005 0.02526 0.0214238 0.0178921 0.0146896 0.0118412 0.0093469 0.00720671 0.00542063 0.00398864 0.00291075 0.00218696 0.00167439 0.00123016 0.000854281 0.00054674 0.000307541 0.000136685 3.41712e-05 0 0 -1.74505e-05 -6.98019e-05 -0.000157054 -0.000279208 -0.000436262 -0.000628217 -0.000855073 -0.00111683 -0.0013419 -0.00145868 -0.00146718 -0.0013674 -0.00115934 -0.000842998 -0.000418372 0.000114537 0.000778778 0.0015974 0.00257041 0.00369781 0.00497958 0.00641575 0.00800629 0.00975122 0.0115422 0.0132708 0.0149371 0.0165411 0.0180827 0.019562 0.0209789 0.0223336 0.0235231 0.0244448 0.0250986 0.0254845 0.0256026 0.0254528 0.0250351 0.0243496 0.023441 0.0223541 0.0210888 0.0196453 0.0180235 0.0162233 0.0142449 0.0120882 0.00993665 0.00797388 0.00619986 0.0046146 0.00321809 0.00201033 0.000991323 0.000161068 -0.000316573 -0.000277735 0.000277579 0.00134937 0.00293764 0.00504239 0.00766362 0.0108013 0.0144247 0.0185031 0.0230364 0.0280247 0.0334679 0.0393661 0.0457192 0.0525272 0.0595163 0.0664124 0.0732156 0.0799259 0.0865433 0.0930677 0.0994992 0.105838 0.111779 0.117019 0.121558 0.125395 0.128531 0.130965 0.132698 0.13373 0.134036 0.133594 0.132403 0.130463 0.127774 0.124336 0.12015 0.115214 0.109804 0.104191 0.0983778 0.0923626 0.0861459 0.0797276 0.0731078 0.0662865 0.0595409 0.0531484 0.0471088 0.0414223 0.0360888 0.0311084 0.0264809 0.0222065 0.0183193 0.0148534 0.011809 0.00918588 0.00698418 0.00520387 0.00384495 0.00290741 0.00222598 0.00163542 0.00113571 0.000726851 0.000408854 0.000181713 4.54282e-05 0 0 -1.64483e-05 -6.57934e-05 -0.000148035 -0.000263174 -0.000411209 -0.00059214 -0.000805969 -0.00105269 -0.00124856 -0.00130979 -0.00123641 -0.0010284 -0.000685769 -0.000208514 0.000403364 0.00114987 0.00205352 0.00313687 0.00439991 0.00584263 0.00746505 0.00926715 0.0112489 0.0134104 0.0156227 0.0177567 0.0198126 0.0217903 0.0236899 0.0255112 0.0272544 0.0289195 0.0303851 0.03153 0.0323543 0.0328579 0.0330409 0.0329033 0.0324449 0.0316659 0.0306199 0.0293602 0.027887 0.0262001 0.0242998 0.0221858 0.0198583 0.0173172 0.0147791 0.0124607 0.0103618 0.00848259 0.00682296 0.00538294 0.00416253 0.00316174 0.00257267 0.00258746 0.0032061 0.0044286 0.00625495 0.00868516 0.0117192 0.0153571 0.0195626 0.0242993 0.0295673 0.0353665 0.0416969 0.0485586 0.0559516 0.0638758 0.0720114 0.0800389 0.0879581 0.0957691 0.103472 0.111066 0.118553 0.125931 0.132846 0.138944 0.144225 0.148689 0.152336 0.155165 0.157177 0.158373 0.158722 0.158196 0.156796 0.15452 0.151369 0.147344 0.142444 0.136668 0.130335 0.123761 0.116945 0.109889 0.102591 0.0950523 0.0872724 0.0792515 0.0713126 0.063779 0.0566506 0.0499274 0.0436094 0.0376967 0.0321891 0.0270868 0.0224348 0.0182783 0.0146173 0.0114517 0.00878157 0.00660691 0.00492772 0.00374399 0.00286649 0.00210599 0.0014625 0.000935997 0.000526498 0.000233999 5.84998e-05 0 0 -1.48617e-05 -5.94468e-05 -0.000133755 -0.000237787 -0.000371543 -0.000535022 -0.000728224 -0.000951149 -0.0011068 -0.00109819 -0.000925318 -0.000588176 -8.67699e-05 0.000578902 0.00140884 0.00240304 0.00358292 0.0049699 0.00656397 0.00836513 0.0103734 0.0125887 0.0150112 0.0176407 0.0203258 0.0229147 0.0254077 0.0278045 0.0301054 0.0323101 0.0344188 0.0364314 0.0382065 0.0396026 0.0406198 0.041258 0.0415172 0.0413974 0.0408986 0.0400209 0.0388274 0.0373814 0.0356828 0.0337316 0.031528 0.0290717 0.0263629 0.0234016 0.0204405 0.0177325 0.0152774 0.0130754 0.0111263 0.00943035 0.00798737 0.00679742 0.00608338 0.00606818 0.00675181 0.00813427 0.0102156 0.0129957 0.0164747 0.0206524 0.0254867 0.0309351 0.0369975 0.0436741 0.0509647 0.0588695 0.0673883 0.0765212 0.0858988 0.0951516 0.104279 0.113283 0.122161 0.130914 0.139543 0.148047 0.156017 0.163044 0.169129 0.174271 0.178471 0.181727 0.184042 0.185414 0.185808 0.185191 0.183561 0.18092 0.177267 0.172602 0.166925 0.160236 0.152899 0.145277 0.13737 0.129179 0.120702 0.111941 0.102895 0.0935647 0.0843221 0.0755407 0.0672202 0.0593607 0.0519623 0.0450248 0.0385484 0.032533 0.0270363 0.0221159 0.0177718 0.0140041 0.0108128 0.00819774 0.00615906 0.00469671 0.00359592 0.0026419 0.00183465 0.00117418 0.000660475 0.000293544 7.33861e-05 0 0 -1.19723e-05 -4.78894e-05 -0.000107751 -0.000191558 -0.000299309 -0.000431004 -0.000586645 -0.00076623 -0.000858533 -0.000752326 -0.00044761 5.56156e-05 0.000757351 0.0016576 0.00275635 0.00405361 0.00556836 0.00731958 0.00930727 0.0115314 0.013992 0.0166891 0.0196227 0.0227927 0.0260225 0.0291355 0.0321316 0.0350108 0.0377732 0.0404188 0.0429474 0.0453593 0.0474907 0.0491782 0.0504217 0.0512213 0.0515769 0.0514886 0.0509564 0.0499802 0.0486339 0.0469912 0.045052 0.0428165 0.0402846 0.0374563 0.0343316 0.0309106 0.0274851 0.0243473 0.0214972 0.0189347 0.0166599 0.0146727 0.0129732 0.0115614 0.0106932 0.0106248 0.0113561 0.0128871 0.0152179 0.0183484 0.0222786 0.0270085 0.0324893 0.0386719 0.0455564 0.0531427 0.061431 0.070421 0.080113 0.0905068 0.10118 0.111712 0.122101 0.132348 0.142453 0.152415 0.162236 0.171914 0.180984 0.18898 0.195903 0.201752 0.206527 0.210229 0.212857 0.214411 0.21485 0.214134 0.212262 0.209233 0.205049 0.19971 0.193214 0.185563 0.177167 0.168439 0.159378 0.149984 0.140257 0.130198 0.119806 0.109081 0.098449 0.0883351 0.0787393 0.0696616 0.061102 0.0530605 0.0455371 0.0385318 0.0321171 0.0263651 0.0212761 0.0168499 0.0130865 0.00998598 0.00754832 0.00577351 0.00442035 0.0032476 0.00225528 0.00144338 0.0008119 0.000360845 9.02111e-05 0 0 -7.06203e-06 -2.82481e-05 -6.35583e-05 -0.000112992 -0.000176551 -0.000254233 -0.000346039 -0.00045197 -0.000445634 -0.00020064 0.000283011 0.00100532 0.00196629 0.00316591 0.00460419 0.00628113 0.00821124 0.010409 0.0128745 0.0156076 0.0186085 0.021877 0.0254131 0.029217 0.033084 0.0368095 0.0403937 0.0438364 0.0471377 0.0502975 0.0533159 0.0561929 0.0587408 0.0607721 0.0622867 0.0632847 0.0637659 0.0637306 0.0631785 0.0621098 0.0606096 0.0587632 0.0565705 0.0540315 0.0511463 0.0479149 0.0443371 0.0404132 0.0364772 0.0328634 0.0295718 0.0266024 0.0239552 0.0216302 0.0196274 0.0179468 0.0168798 0.0167176 0.0174603 0.0191078 0.0216602 0.0251175 0.0294796 0.0347466 0.0408625 0.0477713 0.0554731 0.0639677 0.0732553 0.0833358 0.0942092 0.105876 0.117858 0.129681 0.141344 0.152847 0.164191 0.175374 0.186397 0.197261 0.207441 0.216415 0.224182 0.230743 0.236098 0.240246 0.243188 0.244924 0.245405 0.244583 0.242458 0.239031 0.234301 0.228268 0.220933 0.212295 0.202813 0.192945 0.182693 0.172056 0.161033 0.149626 0.137833 0.125656 0.113573 0.102064 0.0911296 0.0807692 0.0709831 0.0617712 0.0531335 0.0450701 0.0376707 0.0310251 0.0251333 0.0199955 0.0156114 0.0119812 0.00910486 0.00698235 0.00534586 0.00392757 0.00272748 0.00174559 0.000981893 0.000436397 0.000109099 0 0 -1.30764e-07 -5.23056e-07 -1.17688e-06 -2.09223e-06 -3.2691e-06 -4.70751e-06 -6.40744e-06 -8.3689e-06 0.000131894 0.000556865 0.00126655 0.00226094 0.00354004 0.00510385 0.00695237 0.00908559 0.0115115 0.0142382 0.0172656 0.0205938 0.0242226 0.0281522 0.0323826 0.0369136 0.0415102 0.0459369 0.0501939 0.0542812 0.0581986 0.0619463 0.0655242 0.0689323 0.071957 0.0743845 0.0762149 0.0774481 0.0780842 0.0781231 0.0775649 0.0764095 0.0747545 0.0726974 0.0702381 0.0673767 0.0641131 0.0604474 0.0563795 0.0519095 0.0474167 0.0432806 0.0395012 0.0360784 0.0330123 0.0303028 0.02795 0.0259538 0.0246431 0.0243466 0.0250644 0.0267964 0.0295426 0.033303 0.0380777 0.0438667 0.0506064 0.0582333 0.0667475 0.076149 0.0864378 0.0976138 0.109677 0.122628 0.135933 0.14906 0.162009 0.174781 0.187374 0.199789 0.212027 0.224087 0.235387 0.245347 0.253966 0.261244 0.267182 0.271779 0.275036 0.276952 0.277471 0.276538 0.274152 0.270313 0.265022 0.258278 0.250081 0.240432 0.229835 0.218797 0.207317 0.195395 0.183031 0.170225 0.156978 0.143289 0.129694 0.116728 0.104391 0.0926837 0.0816057 0.071157 0.0613377 0.0521477 0.0436971 0.0360957 0.0293437 0.0234409 0.0183875 0.0141834 0.0108287 0.00832321 0.00637246 0.00468181 0.00325125 0.0020808 0.00117045 0.000520201 0.00013005 0 0 8.82145e-06 3.52858e-05 7.93931e-05 0.000141143 0.000220536 0.000317572 0.000432251 0.000564573 0.000874049 0.00152019 0.002503 0.00382247 0.0054786 0.0074714 0.00980087 0.012467 0.0154693 0.0188072 0.0224807 0.0264898 0.0308346 0.035515 0.040531 0.0458826 0.0513011 0.0565177 0.0615324 0.0663452 0.0709561 0.0753651 0.0795722 0.0835775 0.0871391 0.0900153 0.0922061 0.0937116 0.0945316 0.0946663 0.0941156 0.0928795 0.0910687 0.0887938 0.0860549 0.0828519 0.0791849 0.0750538 0.0704587 0.0653995 0.0603038 0.0555991 0.0512854 0.0473628 0.0438311 0.0406905 0.0379409 0.0355823 0.0339832 0.0335119 0.0341684 0.0359528 0.038865 0.0429051 0.048073 0.0543688 0.0617209 0.0700579 0.0793798 0.0896866 0.100978 0.113255 0.126516 0.140763 0.155403 0.169848 0.184096 0.198148 0.212003 0.225662 0.239125 0.252392 0.264822 0.275776 0.285254 0.293255 0.29978 0.304828 0.3084 0.310495 0.31105 0.309999 0.307342 0.30308 0.297212 0.289738 0.280659 0.269974 0.258235 0.245993 0.233248 0.220001 0.20625 0.191996 0.17724 0.161981 0.146811 0.132326 0.118524 0.105405 0.0929697 0.081218 0.0701496 0.0597648 0.0501963 0.041577 0.033907 0.0271863 0.0214149 0.0165927 0.0127198 0.0097961 0.00750014 0.00551031 0.0038266 0.00244903 0.00137758 0.000612257 0.000153064 0 0 1.97946e-05 7.91785e-05 0.000178152 0.000316714 0.000494865 0.000712606 0.000969936 0.00126686 0.00178083 0.00268933 0.00399236 0.00568991 0.00778198 0.0102686 0.0131497 0.0164254 0.0200844 0.0241159 0.0285197 0.0332958 0.0384443 0.0439651 0.0498583 0.0561239 0.0624567 0.0685517 0.074409 0.0800284 0.0854101 0.090554 0.0954601 0.100128 0.104287 0.107665 0.11026 0.112075 0.113108 0.11336 0.112831 0.11152 0.109552 0.107052 0.104021 0.100457 0.0963617 0.0917342 0.0865747 0.0808832 0.0751383 0.0698188 0.0649245 0.0604555 0.0564118 0.0527934 0.0496002 0.0468324 0.0449 0.0442133 0.0447723 0.0465771 0.0496275 0.0539236 0.0594654 0.0662529 0.0742061 0.0832451 0.09337 0.104581 0.116877 0.130259 0.144727 0.160281 0.17627 0.192045 0.207604 0.222948 0.238078 0.252992 0.267692 0.282177 0.295747 0.307704 0.318047 0.326776 0.333891 0.339393 0.34328 0.345554 0.346141 0.344966 0.342029 0.337331 0.330871 0.322649 0.312666 0.300922 0.288012 0.274534 0.260488 0.245873 0.23069 0.214939 0.198619 0.18173 0.164926 0.148859 0.133528 0.118933 0.105075 0.091954 0.0795693 0.0679212 0.0571683 0.047469 0.0388235 0.0312316 0.0246934 0.0192089 0.0147781 0.011401 0.00872891 0.00641308 0.00445353 0.00285026 0.00160327 0.000712564 0.000178141 0 0 3.27887e-05 0.000131155 0.000295099 0.00052462 0.000819718 0.00118039 0.00160665 0.00209848 0.00285224 0.0040643 0.00573464 0.00786326 0.0104502 0.0134954 0.0169989 0.0209607 0.025357 0.0301644 0.0353826 0.0410117 0.0470518 0.0535028 0.0603647 0.0676375 0.074977 0.0820391 0.0888238 0.0953309 0.101561 0.107513 0.113188 0.118585 0.123401 0.127332 0.130378 0.132539 0.133814 0.134205 0.13371 0.13233 0.130205 0.12747