<?xml version="1.0"?> 
<VTKFile type="StructuredGrid" version="0.1"> 
<StructuredGrid WholeExtent="0 128 0 128 0 0"> 
<Piece Extent="0 128 0 128 0 0"> 
<PointData>
<DataArray type="Float32" Name="u" format="ascii" NumberOfComponents="1"> 
0 0 0 0 0 0 0 0 0 0 0 0 0 0 0 0 0 0 0 0 0 0 0 0 0 0 0 0 0 0 0 0 0 0 0 0 0 0 0 0 0 0 0 0 0 0 0 0 0 0 0 0 0 0 0 0 0 0 0 0 0 0 0 0 0 0 0 0 0 0 0 0 0 0 0 0 0 0 0 0 0 0 0 0 0 0 0 0 0 0 0 0 0 0 0 0 0 0 0 0 0 0 0 0 0 0 0 0 0 0 0 0 0 0 0 0 0 0 0 0 0 0 0 0 0 0 0 0 0 0 1.35952e-07 5.43808e-07 1.22357e-06 2.17523e-06 3.3988e-06 4.89427e-06 6.66165e-06 8.70093e-06 1.07419e-05 1.25143e-05 1.40182e-05 1.52536e-05 1.62205e-05 1.69188e-05 1.73486e-05 1.75098e-05 1.73647e-05 1.68756e-05 1.60423e-05 1.48649e-05 1.33435e-05 1.14779e-05 9.26818e-06 6.71438e-06 4.1772e-06 2.01736e-06 2.34863e-07 -1.1703e-06 -2.19813e-06 -2.84861e-06 -3.12176e-06 -3.01757e-06 -2.7738e-06 -2.62819e-06 -2.58075e-06 -2.63148e-06 -2.78037e-06 -3.02743e-06 -3.37266e-06 -3.81605e-06 -4.14161e-06 -4.13334e-06 -3.79123e-06 -3.11529e-06 -2.10551e-06 -7.61893e-07 9.15556e-07 2.92684e-06 4.94143e-06 6.62878e-06 7.98889e-06 9.02177e-06 9.72741e-06 1.01058e-05 1.0157e-05 9.88093e-06 8.212e-06 4.08456e-06 -2.50139e-06 -1.15458e-05 -2.30488e-05 -3.70103e-05 -5.34302e-05 -7.23087e-05 -9.28992e-05 -0.000114455 -0.000136977 -0.000160464 -0.000184917 -0.000210335 -0.000236718 -0.000264068 -0.0002916 -0.000318535 -0.000344871 -0.000370609 -0.000395748 -0.000420289 -0.000444232 -0.000467576 -0.000489166 -0.000507847 -0.000523619 -0.000536481 -0.000546433 -0.000553476 -0.00055761 -0.000558834 -0.000557189 -0.000552718 -0.000545419 -0.000535294 -0.000522341 -0.000506562 -0.000487955 -0.000466521 -0.000443476 -0.000420036 -0.000396199 -0.000371968 -0.000347341 -0.000322318 -0.0002969 -0.000271086 -0.000245505 -0.000220786 -0.000196928 -0.000173931 -0.000151796 -0.000130522 -0.00011011 -9.05585e-05 -7.25232e-05 -5.66579e-05 -4.29628e-05 -3.14378e-05 -2.20828e-05 -1.4898e-05 -9.88321e-06 -7.03853e-06 -5.38888e-06 -3.95917e-06 -2.74943e-06 -1.75963e-06 -9.89794e-07 -4.39908e-07 -1.09977e-07 0 0 5.43808e-07 2.17523e-06 4.89427e-06 8.70093e-06 1.35952e-05 1.95771e-05 2.66466e-05 3.48037e-05 4.29676e-05 5.00573e-05 5.6073e-05 6.10145e-05 6.48818e-05 6.76751e-05 6.93942e-05 7.00392e-05 6.9459e-05 6.75023e-05 6.41692e-05 5.94597e-05 5.33738e-05 4.59115e-05 3.70727e-05 2.68575e-05 1.67088e-05 8.06946e-06 9.39452e-07 -4.6812e-06 -8.7925e-06 -1.13944e-05 -1.2487e-05 -1.20703e-05 -1.10952e-05 -1.05128e-05 -1.0323e-05 -1.05259e-05 -1.11215e-05 -1.21097e-05 -1.34906e-05 -1.52642e-05 -1.65665e-05 -1.65334e-05 -1.51649e-05 -1.24611e-05 -8.42203e-06 -3.04757e-06 3.66222e-06 1.17074e-05 1.97657e-05 2.65151e-05 3.19556e-05 3.60871e-05 3.89096e-05 4.04233e-05 4.0628e-05 3.95237e-05 3.2848e-05 1.63382e-05 -1.00055e-05 -4.61834e-05 -9.21952e-05 -0.000148041 -0.000213721 -0.000289235 -0.000371597 -0.000457821 -0.000547907 -0.000641856 -0.000739666 -0.000841339 -0.000946874 -0.00105627 -0.0011664 -0.00127414 -0.00137948 -0.00148243 -0.00158299 -0.00168116 -0.00177693 -0.0018703 -0.00195667 -0.00203139 -0.00209448 -0.00214592 -0.00218573 -0.0022139 -0.00223044 -0.00223533 -0.00222876 -0.00221087 -0.00218168 -0.00214118 -0.00208937 -0.00202625 -0.00195182 -0.00186608 -0.0017739 -0.00168014 -0.0015848 -0.00148787 -0.00138936 -0.00128927 -0.0011876 -0.00108434 -0.00098202 -0.000883143 -0.000787711 -0.000695724 -0.000607183 -0.000522088 -0.000440438 -0.000362234 -0.000290093 -0.000226632 -0.000171851 -0.000125751 -8.83313e-05 -5.95919e-05 -3.95328e-05 -2.81541e-05 -2.15555e-05 -1.58367e-05 -1.09977e-05 -7.03853e-06 -3.95917e-06 -1.75963e-06 -4.39908e-07 0 0 1.22357e-06 4.89427e-06 1.10121e-05 1.95771e-05 3.05892e-05 4.40484e-05 5.99548e-05 7.83084e-05 9.66771e-05 0.000112629 0.000126164 0.000137283 0.000145984 0.000152269 0.000156137 0.000157588 0.000156283 0.00015188 0.000144381 0.000133784 0.000120091 0.000103301 8.34136e-05 6.04294e-05 3.75948e-05 1.81563e-05 2.11377e-06 -1.05327e-05 -1.97831e-05 -2.56375e-05 -2.80958e-05 -2.71581e-05 -2.49642e-05 -2.36537e-05 -2.32267e-05 -2.36833e-05 -2.50233e-05 -2.72469e-05 -3.03539e-05 -3.43445e-05 -3.72745e-05 -3.72001e-05 -3.41211e-05 -2.80376e-05 -1.89496e-05 -6.85704e-06 8.24001e-06 2.63416e-05 4.44728e-05 5.9659e-05 7.19e-05 8.11959e-05 8.75467e-05 9.09524e-05 9.14129e-05 8.89284e-05 7.3908e-05 3.6761e-05 -2.25125e-05 -0.000103913 -0.000207439 -0.000333092 -0.000480872 -0.000650779 -0.000836093 -0.0010301 -0.00123279 -0.00144418 -0.00166425 -0.00189301 -0.00213047 -0.00237661 -0.0026244 -0.00286681 -0.00310384 -0.00333548 -0.00356173 -0.0037826 -0.00399809 -0.00420818 -0.0044025 -0.00457063 -0.00471257 -0.00482833 -0.0049179 -0.00498128 -0.00501849 -0.0050295 -0.0050147 -0.00497446 -0.00490877 -0.00481764 -0.00470107 -0.00455906 -0.00439159 -0.00419869 -0.00399129 -0.00378032 -0.00356579 -0.00334771 -0.00312607 -0.00290086 -0.0026721 -0.00243977 -0.00220955 -0.00198707 -0.00177235 -0.00156538 -0.00136616 -0.0011747 -0.000990986 -0.000815026 -0.000652708 -0.000509922 -0.000386665 -0.00028294 -0.000198746 -0.000134082 -8.89489e-05 -6.33468e-05 -4.84999e-05 -3.56326e-05 -2.47448e-05 -1.58367e-05 -8.90814e-06 -3.95917e-06 -9.89794e-07 0 0 2.17523e-06 8.70093e-06 1.95771e-05 3.48037e-05 5.43808e-05 7.83084e-05 0.000106586 0.000139215 0.00017187 0.000200229 0.000224292 0.000244058 0.000259527 0.0002707 0.000277577 0.000280157 0.000277836 0.000270009 0.000256677 0.000237839 0.000213495 0.000183646 0.000148291 0.00010743 6.68353e-05 3.22778e-05 3.75781e-06 -1.87248e-05 -3.517e-05 -4.55778e-05 -4.99482e-05 -4.82811e-05 -4.43807e-05 -4.2051e-05 -4.1292e-05 -4.21036e-05 -4.44859e-05 -4.84389e-05 -5.39625e-05 -6.10568e-05 -6.62658e-05 -6.61334e-05 -6.06597e-05 -4.98446e-05 -3.36881e-05 -1.21903e-05 1.46489e-05 4.68295e-05 7.90628e-05 0.00010606 0.000127822 0.000144348 0.000155639 0.000161693 0.000162512 0.000158095 0.000131392 6.5353e-05 -4.00222e-05 -0.000184733 -0.000368781 -0.000592164 -0.000854884 -0.00115694 -0.00148639 -0.00183128 -0.00219163 -0.00256742 -0.00295866 -0.00336536 -0.00378749 -0.00422508 -0.00466561 -0.00509656 -0.00551794 -0.00592974 -0.00633197 -0.00672463 -0.00710771 -0.00748122 -0.00782666 -0.00812556 -0.0083779 -0.00858369 -0.00874293 -0.00885562 -0.00892175 -0.00894134 -0.00891503 -0.00884349 -0.00872671 -0.0085647 -0.00835746 -0.00810499 -0.00780728 -0.00746434 -0.00709562 -0.00672057 -0.00633919 -0.00595148 -0.00555745 -0.00515709 -0.00475039 -0.00433737 -0.00392808 -0.00353257 -0.00315084 -0.0027829 -0.00242873 -0.00208835 -0.00176175 -0.00144894 -0.00116037 -0.000906527 -0.000687405 -0.000503005 -0.000353325 -0.000238368 -0.000158131 -0.000112617 -8.6222e-05 -6.33468e-05 -4.39908e-05 -2.81541e-05 -1.58367e-05 -7.03853e-06 -1.75963e-06 0 0 3.3988e-06 1.35952e-05 3.05892e-05 5.43808e-05 8.497e-05 0.000122357 0.000166541 0.000217523 0.000268547 0.000312858 0.000350456 0.00038134 0.000405511 0.000422969 0.000433714 0.000437745 0.000434119 0.00042189 0.000401058 0.000371623 0.000333586 0.000286947 0.000231704 0.00016786 0.00010443 5.04341e-05 5.87157e-06 -2.92575e-05 -5.49531e-05 -7.12153e-05 -7.8044e-05 -7.54393e-05 -6.93449e-05 -6.57047e-05 -6.45187e-05 -6.57869e-05 -6.95092e-05 -7.56857e-05 -8.43164e-05 -9.54013e-05 -0.00010354 -0.000103334 -9.47808e-05 -7.78822e-05 -5.26377e-05 -1.90473e-05 2.28889e-05 7.3171e-05 0.000123536 0.000165719 0.000199722 0.000225544 0.000243185 0.000252646 0.000253925 0.000247023 0.0002053 0.000102114 -6.25347e-05 -0.000288646 -0.00057622 -0.000925257 -0.00133576 -0.00180772 -0.00232248 -0.00286138 -0.00342442 -0.0040116 -0.00462291 -0.00525837 -0.00591796 -0.00660169 -0.00729001 -0.00796337 -0.00862177 -0.00926522 -0.0098937 -0.0105072 -0.0111058 -0.0116894 -0.0122292 -0.0126962 -0.0130905 -0.013412 -0.0136608 -0.0138369 -0.0139402 -0.0139708 -0.0139297 -0.0138179 -0.0136355 -0.0133823 -0.0130585 -0.012664 -0.0121989 -0.011663 -0.0110869 -0.0105009 -0.00990499 -0.00929919 -0.00868351 -0.00805795 -0.00742249 -0.00677715 -0.00613763 -0.00551964 -0.00492319 -0.00434828 -0.0037949 -0.00326305 -0.00275274 -0.00226396 -0.00181308 -0.00141645 -0.00107407 -0.000785945 -0.000552071 -0.000372449 -0.00024708 -0.000175963 -0.000134722 -9.89794e-05 -6.87357e-05 -4.39908e-05 -2.47448e-05 -1.09977e-05 -2.74943e-06 0 0 4.89427e-06 1.95771e-05 4.40484e-05 7.83084e-05 0.000122357 0.000176194 0.000239819 0.000313233 0.000386708 0.000450516 0.000504657 0.00054913 0.000583937 0.000609076 0.000624548 0.000630353 0.000625131 0.000607521 0.000577523 0.000535138 0.000480364 0.000413203 0.000333654 0.000241718 0.000150379 7.26251e-05 8.45507e-06 -4.21308e-05 -7.91325e-05 -0.00010255 -0.000112383 -0.000108633 -9.98567e-05 -9.46148e-05 -9.29069e-05 -9.47331e-05 -0.000100093 -0.000108987 -0.000121416 -0.000137378 -0.000149098 -0.0001488 -0.000136484 -0.00011215 -7.57983e-05 -2.74282e-05 3.296e-05 0.000105366 0.000177891 0.000238636 0.0002876 0.000324784 0.000350187 0.00036381 0.000365652 0.000355714 0.000295632 0.000147044 -9.00499e-05 -0.00041565 -0.000829757 -0.00133237 -0.00192349 -0.00260311 -0.00334437 -0.00412039 -0.00493117 -0.0057767 -0.006657 -0.00757205 -0.00852186 -0.00950643 -0.0104976 -0.0114673 -0.0124154 -0.0133419 -0.0142469 -0.0151304 -0.0159923 -0.0168327 -0.01761 -0.0182825 -0.0188503 -0.0193133 -0.0196716 -0.0199251 -0.0200739 -0.020118 -0.0200588 -0.0198978 -0.0196351 -0.0192706 -0.0188043 -0.0182362 -0.0175664 -0.0167948 -0.0159651 -0.0151213 -0.0142632 -0.0133908 -0.0125043 -0.0116034 -0.0106884 -0.00975909 -0.00883818 -0.00794828 -0.0070894 -0.00626152 -0.00546465 -0.00469879 -0.00396394 -0.0032601 -0.00261083 -0.00203969 -0.00154666 -0.00113176 -0.000794982 -0.000536327 -0.000355796 -0.000253387 -0.000194 -0.00014253 -9.89794e-05 -6.33468e-05 -3.56326e-05 -1.58367e-05 -3.95917e-06 0 0 6.66165e-06 2.66466e-05 5.99548e-05 0.000106586 0.000166541 0.000239819 0.000326421 0.000426345 0.000526353 0.000613202 0.000686894 0.000747427 0.000794802 0.00082902 0.000850079 0.000857981 0.000850873 0.000826903 0.000786073 0.000728382 0.000653829 0.000562415 0.000454141 0.000329005 0.000204683 9.88508e-05 1.15083e-05 -5.73447e-05 -0.000107708 -0.000139582 -0.000152966 -0.000147861 -0.000135916 -0.000128781 -0.000126457 -0.000128942 -0.000136238 -0.000148344 -0.00016526 -0.000186987 -0.000202939 -0.000202534 -0.00018577 -0.000152649 -0.00010317 -3.73328e-05 4.48623e-05 0.000143415 0.00024213 0.00032481 0.000391456 0.000442067 0.000476643 0.000495185 0.000497693 0.000484166 0.000402388 0.000200143 -0.000122568 -0.000565746 -0.00112939 -0.0018135 -0.00261808 -0.00354313 -0.00455206 -0.00560831 -0.00671186 -0.00786273 -0.00906091 -0.0103064 -0.0115992 -0.0129393 -0.0142884 -0.0156082 -0.0168987 -0.0181598 -0.0193917 -0.0205942 -0.0217674 -0.0229112 -0.0239692 -0.0248845 -0.0256573 -0.0262876 -0.0267752 -0.0271203 -0.0273229 -0.0273828 -0.0273023 -0.0270832 -0.0267255 -0.0262294 -0.0255947 -0.0248215 -0.0239098 -0.0228595 -0.0217303 -0.0205817 -0.0194138 -0.0182264 -0.0170197 -0.0157936 -0.0145481 -0.0132832 -0.0120298 -0.0108185 -0.00964946 -0.00852262 -0.00743799 -0.00639558 -0.00539537 -0.00443737 -0.00355364 -0.00277624 -0.00210518 -0.00154045 -0.00108206 -0.000730001 -0.000484277 -0.000344888 -0.000264055 -0.000194 -0.000134722 -8.6222e-05 -4.84999e-05 -2.15555e-05 -5.38888e-06 0 0 8.70093e-06 3.48037e-05 7.83084e-05 0.000139215 0.000217523 0.000313233 0.000426345 0.000556859 0.000687481 0.000800917 0.000897167 0.000976231 0.00103811 0.0010828 0.00111031 0.00112063 0.00111134 0.00108004 0.00102671 0.000951356 0.000853981 0.000734583 0.000593163 0.00042972 0.000267341 0.000129111 1.50312e-05 -7.48992e-05 -0.00014068 -0.000182311 -0.000199793 -0.000193125 -0.000177523 -0.000168204 -0.000165168 -0.000168414 -0.000177944 -0.000193756 -0.00021585 -0.000244227 -0.000265063 -0.000264534 -0.000242639 -0.000199378 -0.000134753 -4.87612e-05 5.85956e-05 0.000187318 0.000316251 0.000424242 0.000511289 0.000577393 0.000622554 0.000646773 0.000650048 0.00063238 0.000525568 0.000261412 -0.000160089 -0.000738934 -0.00147512 -0.00236866 -0.00341954 -0.00462776 -0.00594555 -0.00732514 -0.00876652 -0.0102697 -0.0118347 -0.0134614 -0.01515 -0.0169003 -0.0186624 -0.0203862 -0.0220717 -0.023719 -0.0253279 -0.0268985 -0.0284308 -0.0299249 -0.0313067 -0.0325022 -0.0335116 -0.0343348 -0.0349717 -0.0354225 -0.035687 -0.0357653 -0.0356601 -0.0353739 -0.0349068 -0.0342588 -0.0334298 -0.0324199 -0.0312291 -0.0298574 -0.0283825 -0.0268823 -0.0253568 -0.0238059 -0.0222298 -0.0206283 -0.0190016 -0.0173495 -0.0157123 -0.0141303 -0.0126034 -0.0111316 -0.00971493 -0.00835341 -0.00704701 -0.00579574 -0.00464148 -0.00362611 -0.00274962 -0.00201202 -0.0014133 -0.000953471 -0.000632526 -0.000450466 -0.000344888 -0.000253387 -0.000175963 -0.000112617 -6.33468e-05 -2.81541e-05 -7.03853e-06 0 0 1.05244e-05 4.20976e-05 9.47196e-05 0.00016839 0.00026311 0.000378879 0.000515696 0.000673562 0.000830378 0.000964046 0.00107457 0.00116194 0.00122616 0.00126724 0.00128516 0.00127994 0.00124928 0.0011909 0.00110479 0.000990949 0.000849385 0.000680095 0.000483079 0.000258336 3.45972e-05 -0.000159408 -0.00032368 -0.000458218 -0.000563022 -0.000638093 -0.00068343 -0.000699033 -0.000702012 -0.000709475 -0.000721423 -0.000737855 -0.000758771 -0.000784171 -0.000814056 -0.000848426 -0.000870597 -0.000863886 -0.000828294 -0.000763821 -0.000670467 -0.000548231 -0.000397115 -0.000217116 -3.68345e-05 0.000115133 0.000238786 0.000334125 0.000401149 0.00043986 0.000450256 0.000432337 0.00030779 -1.69938e-06 -0.000496132 -0.00117551 -0.00203982 -0.00308908 -0.00432329 -0.00574243 -0.00728696 -0.0088973 -0.0105735 -0.0123154 -0.0141232 -0.0159968 -0.0179363 -0.0199415 -0.0219624 -0.0239489 -0.025901 -0.0278186 -0.0297018 -0.0315506 -0.0333649 -0.0351448 -0.0367962 -0.0382249 -0.039431 -0.0404144 -0.0411753 -0.0417135 -0.0420291 -0.042122 -0.0419957 -0.0416536 -0.0410956 -0.0403217 -0.039332 -0.0381264 -0.036705 -0.0350677 -0.0333129 -0.0315389 -0.0297457 -0.0279333 -0.0261018 -0.024251 -0.022381 -0.0204919 -0.018621 -0.0168057 -0.0150461 -0.0133422 -0.0116939 -0.0101013 -0.00856435 -0.00708308 -0.00571055 -0.00449988 -0.00345106 -0.00256408 -0.00183895 -0.00127567 -0.000874234 -0.000634648 -0.000485902 -0.000356989 -0.000247909 -0.000158662 -8.92473e-05 -3.96655e-05 -9.91637e-06 0 0 1.16444e-05 4.65775e-05 0.000104799 0.00018631 0.000291109 0.000419197 0.000570574 0.00074524 0.000915329 0.00105298 0.00115818 0.00123094 0.00127126 0.00127914 0.00125457 0.00119757 0.00110743 0.00098346 0.000825668 0.00063405 0.000408607 0.000149338 -0.000143757 -0.000470677 -0.000797305 -0.00108952 -0.00134733 -0.00157072 -0.00175971 -0.00191428 -0.00203444 -0.0021202 -0.00218672 -0.00224919 -0.0023076 -0.00236197 -0.00241228 -0.00245854 -0.00250075 -0.00253891 -0.00255466 -0.00252968 -0.00246394 -0.00235746 -0.00221023 -0.00202226 -0.00179354 -0.00152408 -0.00125422 -0.00102431 -0.000834367 -0.000684377 -0.000574343 -0.000504265 -0.000474145 -0.00048398 -0.000608327 -0.000921739 -0.00142422 -0.00211576 -0.00299637 -0.00406604 -0.00532478 -0.00677258 -0.00833841 -0.00995123 -0.011611 -0.0133178 -0.0150716 -0.0168724 -0.0187201 -0.0206149 -0.0225312 -0.0244439 -0.0263529 -0.0282582 -0.0301597 -0.0320576 -0.0339517 -0.0358421 -0.0376113 -0.0391417 -0.0404333 -0.0414861 -0.0423001 -0.0428753 -0.0432117 -0.0433093 -0.0431725 -0.0428055 -0.0422083 -0.041381 -0.0403235 -0.0390358 -0.037518 -0.0357701 -0.033913 -0.0320677 -0.0302342 -0.0284126 -0.0266028 -0.0248048 -0.0230186 -0.0212442 -0.0194907 -0.0177668 -0.0160726 -0.0144081 -0.0127733 -0.0111682 -0.00959287 -0.0080472 -0.00659703 -0.00530814 -0.00418055 -0.00321425 -0.00240924 -0.00176552 -0.00128309 -0.000961959 -0.0007365 -0.000541102 -0.000375765 -0.00024049 -0.000135276 -6.01225e-05 -1.50306e-05 0 0 1.20608e-05 4.82433e-05 0.000108547 0.000192973 0.000301521 0.00043419 0.000590981 0.000771893 0.000942332 0.0010677 0.00114801 0.00118324 0.00117341 0.00111851 0.00101854 0.000873506 0.000685776 0.000457724 0.000189352 -0.00011934 -0.000468354 -0.000857688 -0.00128734 -0.00175732 -0.00222836 -0.00266123 -0.00305591 -0.00341242 -0.00373074 -0.00401088 -0.00425284 -0.00445661 -0.00463164 -0.00478734 -0.00492371 -0.00504075 -0.00513847 -0.00521687 -0.00527593 -0.00531567 -0.00531727 -0.0052619 -0.00514958 -0.0049803 -0.00475406 -0.00447085 -0.00413069 -0.00373357 -0.0033359 -0.0029941 -0.00270817 -0.00247811 -0.00230392 -0.0021856 -0.00212315 -0.00211657 -0.00222278 -0.00249871 -0.00294434 -0.00355969 -0.00434475 -0.00529952 -0.006424 -0.0077182 -0.0090999 -0.0104869 -0.0118792 -0.0132769 -0.0146798 -0.016088 -0.0175016 -0.0189204 -0.0203689 -0.0218712 -0.0234274 -0.0250375 -0.0267015 -0.0284194 -0.0301912 -0.0320169 -0.0337522 -0.0352527 -0.0365186 -0.0375497 -0.0383462 -0.0389079 -0.039235 -0.0393273 -0.0391904 -0.0388296 -0.038245 -0.0374366 -0.0364043 -0.0351482 -0.0336683 -0.0319645 -0.0301827 -0.0284686 -0.0268223 -0.0252437 -0.0237328 -0.0222897 -0.0209143 -0.0196066 -0.0183214 -0.0170135 -0.0156828 -0.0143294 -0.0129532 -0.0115543 -0.0101326 -0.00868812 -0.0073009 -0.0060509 -0.00493811 -0.00396253 -0.00312418 -0.00242303 -0.00185911 -0.0014324 -0.00109668 -0.000805726 -0.000559532 -0.0003581 -0.000201431 -8.95251e-05 -2.23813e-05 0 0 1.17738e-05 4.70951e-05 0.000105964 0.00018838 0.000294344 0.000423856 0.000576915 0.000753522 0.00091139 0.00100823 0.00104405 0.00101884 0.000932608 0.00078535 0.000577066 0.000307758 -1.56698e-05 -0.000386309 -0.00080416 -0.00126922 -0.0017815 -0.00234098 -0.00294768 -0.00360159 -0.00425858 -0.00487453 -0.00544944 -0.00598329 -0.00647611 -0.00692788 -0.00733861 -0.00770829 -0.00803678 -0.00832393 -0.00856974 -0.00877421 -0.00893735 -0.00905914 -0.0091396 -0.00917872 -0.00915841 -0.00906057 -0.00888521 -0.00863233 -0.00830193 -0.007894 -0.00740855 -0.00684558 -0.00628187 -0.00579422 -0.00538262 -0.00504708 -0.00478759 -0.00460415 -0.00449677 -0.00446544 -0.00453558 -0.0047326 -0.00505651 -0.0055073 -0.00608497 -0.00678953 -0.00762096 -0.00857929 -0.00957144 -0.0105044 -0.0113781 -0.0121925 -0.0129478 -0.0136438 -0.0142806 -0.0148581 -0.0154753 -0.0162308 -0.0171246 -0.0181568 -0.0193273 -0.0206362 -0.0220835 -0.0236691 -0.0252187 -0.0265579 -0.0276868 -0.0286053 -0.0293135 -0.0298113 -0.0300988 -0.0301759 -0.0300494 -0.029726 -0.0292058 -0.0284886 -0.0275745 -0.0264636 -0.0251557 -0.023651 -0.0221221 -0.0207417 -0.0195099 -0.0184266 -0.0174919 -0.0167057 -0.0160681 -0.015579 -0.0151133 -0.0145459 -0.0138769 -0.0131061 -0.0122336 -0.0112594 -0.0101835 -0.00900584 -0.00782218 -0.00672814 -0.00572372 -0.00480893 -0.00398375 -0.0032482 -0.00260228 -0.00204597 -0.00156645 -0.00115086 -0.000799208 -0.000511493 -0.000287715 -0.000127873 -3.19683e-05 0 0 1.07832e-05 4.31329e-05 9.70489e-05 0.000172531 0.00026958 0.000388196 0.000528378 0.000690126 0.0008225 0.00087456 0.000846306 0.000737738 0.000548855 0.000279658 -6.9853e-05 -0.000499678 -0.00099691 -0.00154864 -0.00215487 -0.0028156 -0.00353082 -0.00430055 -0.00512477 -0.00600349 -0.00688796 -0.00772943 -0.0085279 -0.00928336 -0.00999583 -0.0106653 -0.0112918 -0.0118752 -0.0124021 -0.012859 -0.0132457 -0.0135623 -0.0138089 -0.0139854 -0.0140918 -0.0141281 -0.0140781 -0.0139257 -0.0136708 -0.0133136 -0.0128539 -0.0122917 -0.0116271 -0.0108601 -0.0100921 -0.00942468 -0.00885773 -0.00839128 -0.00802534 -0.00775991 -0.00759499 -0.00753058 -0.00754672 -0.00762343 -0.00776072 -0.00795859 -0.00821703 -0.00853606 -0.00891566 -0.00935585 -0.00975301 -0.0100036 -0.0101075 -0.0100648 -0.00987557 -0.00953968 -0.00905717 -0.00842806 -0.00785049 -0.0075226 -0.00744439 -0.00761587 -0.00803704 -0.00870789 -0.00962842 -0.0107986 -0.0120108 -0.0130573 -0.013938 -0.0146529 -0.0152021 -0.0155856 -0.0158033 -0.0158552 -0.0157497 -0.0154948 -0.0150905 -0.014537 -0.0138341 -0.0129819 -0.0119803 -0.0108295 -0.00973108 -0.00888693 -0.00829704 -0.0079614 -0.00788001 -0.00805288 -0.00847999 -0.00916136 -0.00986628 -0.010364 -0.0106547 -0.0107381 -0.0106144 -0.0102835 -0.00974552 -0.00900035 -0.00816086 -0.00733987 -0.0065374 -0.00575343 -0.00498798 -0.00424103 -0.0035126 -0.00280267 -0.0021458 -0.0015765 -0.00109479 -0.000700669 -0.000394126 -0.000175167 -4.37918e-05 0 0 9.08914e-06 3.63566e-05 8.18023e-05 0.000145426 0.000227229 0.000327209 0.000445368 0.000581705 0.000675664 0.000666688 0.000554777 0.000339931 2.21503e-05 -0.000398565 -0.000922216 -0.0015488 -0.00225794 -0.00302927 -0.00386277 -0.00475846 -0.00571633 -0.00673638 -0.00781861 -0.00896302 -0.0101165 -0.0112259 -0.0122913 -0.0133126 -0.0142899 -0.0152231 -0.0161123 -0.0169574 -0.0177277 -0.0183924 -0.0189516 -0.0194052 -0.0197531 -0.0199956 -0.0201324 -0.0201637 -0.0200763 -0.0198572 -0.0195065 -0.019024 -0.0184098 -0.017664 -0.0167864 -0.0157772 -0.0147667 -0.0138855 -0.0131335 -0.0125107 -0.0120172 -0.0116529 -0.0114178 -0.011312 -0.0112562 -0.0111712 -0.011057 -0.0109136 -0.0107409 -0.0105391 -0.0103081 -0.0100479 -0.00964463 -0.00898454 -0.0080676 -0.00689381 -0.00546317 -0.00377568 -0.00183135 0.000369834 0.0025055 0.00425327 0.00561317 0.00658517 0.0071693 0.00736554 0.00717389 0.00659436 0.00587132 0.00524917 0.0047279 0.00430752 0.00398802 0.0037694 0.00365167 0.00363481 0.00370897 0.00386427 0.00410071 0.00441829 0.00481701 0.00529687 0.00585786 0.0065 0.00699028 0.0070957 0.00681627 0.00615198 0.00510284 0.00366884 0.00184998 -0.000353736 -0.00258033 -0.00446782 -0.00601621 -0.0072255 -0.00809569 -0.00862678 -0.00881877 -0.00867166 -0.00831694 -0.00788609 -0.00737913 -0.00679605 -0.00613684 -0.00540152 -0.00459007 -0.00370251 -0.00283473 -0.00208266 -0.00144629 -0.000925627 -0.000520665 -0.000231407 -5.78517e-05 0 0 6.69156e-06 2.67662e-05 6.0224e-05 0.000107065 0.000167289 0.000240896 0.000327886 0.00042826 0.000470881 0.000384615 0.000169462 -0.000174578 -0.000647506 -0.00124932 -0.00198002 -0.00283961 -0.00379877 -0.0048282 -0.00592788 -0.00709782 -0.00833802 -0.00964848 -0.0110292 -0.0124802 -0.0139442 -0.015364 -0.0167396 -0.0180711 -0.0193583 -0.0206013 -0.0218002 -0.0229548 -0.0240135 -0.0249243 -0.0256874 -0.0263026 -0.0267701 -0.0270897 -0.0272615 -0.0272856 -0.027153 -0.0268552 -0.0263921 -0.0257636 -0.0249699 -0.0240108 -0.0228865 -0.0215968 -0.0203056 -0.0191766 -0.0182099 -0.0174054 -0.0167631 -0.0162831 -0.0159653 -0.0158097 -0.015664 -0.0153759 -0.0149453 -0.0143722 -0.0136567 -0.0127987 -0.0117983 -0.0106554 -0.00924629 -0.00744727 -0.00525831 -0.00267941 0.000289425 0.00364819 0.0073969 0.0115355 0.0155927 0.0190969 0.0220481 0.0244464 0.0262917 0.0275841 0.0283235 0.0285099 0.0284278 0.0283614 0.0283108 0.028276 0.0282569 0.0282536 0.028266 0.0282942 0.0283264 0.028351 0.0283679 0.0283772 0.0283787 0.0283726 0.0283589 0.0283374 0.028042 0.0272062 0.02583 0.0239135 0.0214566 0.0184594 0.0149218 0.0108439 0.00674455 0.00314274 3.84716e-05 -0.00256826 -0.00467744 -0.00628909 -0.00740319 -0.00801976 -0.00829042 -0.00836681 -0.00824893 -0.00793678 -0.00743035 -0.00672966 -0.0058347 -0.00474547 -0.00363325 -0.00266933 -0.0018537 -0.00118637 -0.000667332 -0.000296592 -7.4148e-05 0 0 3.59047e-06 1.43619e-05 3.23142e-05 5.74475e-05 8.97617e-05 0.000129257 0.000175933 0.00022979 0.000208152 2.83425e-05 -0.000309638 -0.00080579 -0.00146011 -0.00227261 -0.00324327 -0.00437211 -0.0056194 -0.00694542 -0.00835018 -0.00983367 -0.0113959 -0.0130368 -0.0147565 -0.016555 -0.018371 -0.0201437 -0.0218729 -0.0235587 -0.025201 -0.0268 -0.0283555 -0.0298675 -0.0312595 -0.0324547 -0.0334531 -0.0342548 -0.0348597 -0.0352678 -0.0354792 -0.0354937 -0.0353083 -0.0349196 -0.0343277 -0.0335324 -0.032534 -0.0313322 -0.0299272 -0.0283189 -0.0267088 -0.0252981 -0.0240869 -0.0230753 -0.0222631 -0.0216505 -0.0212373 -0.0210237 -0.0207702 -0.0202375 -0.0194256 -0.0183345 -0.0169643 -0.0153148 -0.0133862 -0.0111784 -0.00855799 -0.00539176 -0.00167965 0.00257834 0.00738221 0.012732 0.0186276 0.0250691 0.0314111 0.0370082 0.0418604 0.0459677 0.0493301 0.0519477 0.0538203 0.0549481 0.0556586 0.0562795 0.0568108 0.0572525 0.0576045 0.0578669 0.0580398 0.0581229 0.0581028 0.0579655 0.0577111 0.0573397 0.0568511 0.0562455 0.0555227 0.0546828 0.0534241 0.0514445 0.0487442 0.0453232 0.0411814 0.0363189 0.0307356 0.0244315 0.0181083 0.0124676 0.00750939 0.00323363 -0.000359658 -0.00327047 -0.0054988 -0.00704465 -0.0080813 -0.00878201 -0.00914678 -0.00917561 -0.00886851 -0.00822546 -0.00724648 -0.00593156 -0.00454135 -0.0033365 -0.00231702 -0.00148289 -0.000834126 -0.000370723 -9.26806e-05 0 0 -9.30357e-07 -3.72143e-06 -8.37321e-06 -1.48857e-05 -2.32589e-05 -3.34928e-05 -4.55875e-05 -5.95428e-05 -0.000163183 -0.000444331 -0.000902989 -0.00153915 -0.00235283 -0.00334401 -0.0045127 -0.0058589 -0.007331 -0.00887738 -0.0104981 -0.012193 -0.0139622 -0.0158058 -0.0177236 -0.0197157 -0.02173 -0.0237145 -0.0256692 -0.0275941 -0.0294892 -0.0313545 -0.0331899 -0.0349956 -0.0366667 -0.0380986 -0.0392913 -0.0402447 -0.0409589 -0.0414338 -0.0416696 -0.041666 -0.0414268 -0.0409555 -0.040252 -0.0393163 -0.0381485 -0.0367485 -0.0351164 -0.0332522 -0.0313974 -0.0297939 -0.0284415 -0.0273403 -0.0264903 -0.0258914 -0.0255438 -0.0254473 -0.0252492 -0.0245964 -0.0234892 -0.0219273 -0.0199109 -0.0174399 -0.0145144 -0.0111342 -0.00715755 -0.0024423 0.00301152 0.00920391 0.0161349 0.0238044 0.0322125 0.0413591 0.0503925 0.0584607 0.0655638 0.0717017 0.0768744 0.0810821 0.0843245 0.0866018 0.0882867 0.0897521 0.0909978 0.0920238 0.0928303 0.0934172 0.0937844 0.0939321 0.0938448 0.0935075 0.0929201 0.0920826 0.090995 0.0896572 0.0880694 0.0862315 0.083805 0.0804513 0.0761706 0.0709628 0.0648279 0.0577659 0.0497769 0.0408607 0.0319283 0.0238906 0.0167477 0.0104994 0.00514581 0.000686933 -0.00287725 -0.00554673 -0.0075172 -0.00898436 -0.00994819 -0.0104087 -0.0103659 -0.00981981 -0.00877037 -0.00721763 -0.005526 -0.00405992 -0.00281939 -0.00180441 -0.00101498 -0.000451102 -0.000112775 0 0 -7.58714e-06 -3.03485e-05 -6.82842e-05 -0.000121394 -0.000189678 -0.000273137 -0.00037177 -0.000485577 -0.000693781 -0.00107561 -0.00163105 -0.00236012 -0.00326281 -0.00433912 -0.00558905 -0.00701261 -0.00854477 -0.0101205 -0.0117399 -0.0134028 -0.0151094 -0.0168595 -0.0186533 -0.0204906 -0.022354 -0.0242261 -0.0261067 -0.027996 -0.0298939 -0.0318003 -0.0337154 -0.0356391 -0.0374361 -0.0389712 -0.0402443 -0.0412554 -0.0420046 -0.0424918 -0.042717 -0.0426803 -0.0423934 -0.0418678 -0.0411038 -0.0401011 -0.03886 -0.0373802 -0.035662 -0.0337052 -0.0317928 -0.0302078 -0.0289503 -0.0280202 -0.0274175 -0.0271423 -0.0271945 -0.0275741 -0.0277755 -0.0272932 -0.0261272 -0.0242773 -0.0217438 -0.0185264 -0.0146253 -0.0100405 -0.00462276 0.00177683 0.00915834 0.0175217 0.0268671 0.0371943 0.0485034 0.0607945 0.0729689 0.0839281 0.093672 0.102201 0.109514 0.115613 0.120496 0.124164 0.127035 0.129528 0.131642 0.133377 0.134734 0.135712 0.136312 0.136533 0.13636 0.135777 0.134785 0.133383 0.131571 0.12935 0.126719 0.123679 0.119853 0.114867 0.108721 0.101414 0.0929469 0.0833194 0.0725313 0.0605829 0.0486217 0.0377956 0.0281044 0.0195483 0.0121271 0.00584095 0.000689794 -0.00332637 -0.00642573 -0.0088265 -0.0105287 -0.0115322 -0.0118372 -0.0114436 -0.0103513 -0.00856051 -0.00655414 -0.00481529 -0.00334395 -0.00214013 -0.00120382 -0.000535032 -0.000133758 0 0 -1.63799e-05 -6.55195e-05 -0.000147419 -0.000262078 -0.000409497 -0.000589675 -0.000802614 -0.00104831 -0.00138364 -0.00186548 -0.00249383 -0.00326869 -0.00419006 -0.00525794 -0.00647232 -0.00783321 -0.00926069 -0.0106748 -0.0120757 -0.0134631 -0.0148373 -0.0161981 -0.0175456 -0.0188797 -0.0202431 -0.0216784 -0.0231854 -0.0247643 -0.026415 -0.0281376 -0.0299319 -0.0317981 -0.0335678 -0.0350725 -0.0363122 -0.037287 -0.0379968 -0.0384417 -0.0386216 -0.0385366 -0.0382078 -0.0376566 -0.036883 -0.0358869 -0.0346683 -0.0332273 -0.0315638 -0.0296779 -0.0278948 -0.02654 -0.0256134 -0.0251151 -0.0250449 -0.0254031 -0.0261894 -0.027404 -0.0283493 -0.0283278 -0.0273396 -0.0253846 -0.0224629 -0.0185743 -0.0137191 -0.00789702 -0.000953641 0.00726563 0.0167608 0.0275319 0.0395788 0.0529017 0.0675004 0.0833751 0.0991401 0.11341 0.126185 0.137465 0.14725 0.15554 0.162335 0.167635 0.171904 0.175606 0.178742 0.181312 0.183315 0.184751 0.185621 0.185925 0.185647 0.184774 0.183305 0.18124 0.178579 0.175323 0.171472 0.167024 0.161569 0.154692 0.146395 0.136677 0.125538 0.112979 0.098999 0.0835982 0.0681886 0.0541825 0.0415797 0.0303803 0.0205843 0.0121916 0.00520232 -0.000383574 -0.00480689 -0.00830843 -0.0108882 -0.0125462 -0.0132823 -0.0130967 -0.0119894 -0.00996021 -0.00762578 -0.00560262 -0.00389071 -0.00249005 -0.00140065 -0.000622513 -0.000155628 0 0 -2.73086e-05 -0.000109234 -0.000245777 -0.000436937 -0.000682714 -0.000983108 -0.00133812 -0.00174775 -0.00223277 -0.00281396 -0.00349133 -0.00426487 -0.00513457 -0.00610045 -0.00716251 -0.00832073 -0.00947878 -0.0105403 -0.0115054 -0.0123739 -0.013146 -0.0138215 -0.0144006 -0.0148831 -0.0153973 -0.0160714 -0.0169053 -0.017899 -0.0190527 -0.0203661 -0.0218394 -0.0234726 -0.0250616 -0.0264024 -0.027495 -0.0283393 -0.0289355 -0.0292835 -0.0293832 -0.0292348 -0.0288703 -0.0283219 -0.0275897 -0.0266736 -0.0255736 -0.0242897 -0.022822 -0.0211703 -0.0197036 -0.0187904 -0.0184308 -0.0186249 -0.0193725 -0.0206737 -0.0225285 -0.024937 -0.0269704 -0.0277002 -0.0271265 -0.0252491 -0.0220682 -0.0175837 -0.0117956 -0.00470392 0.00384982 0.0140241 0.0258189 0.0392342 0.0542701 0.0709265 0.0892035 0.109101 0.128906 0.146907 0.163103 0.177495 0.190081 0.200864 0.209841 0.217014 0.222893 0.227988 0.2323 0.235828 0.238573 0.240535 0.241713 0.242108 0.241707 0.240498 0.23848 0.235654 0.23202 0.227578 0.222327 0.216268 0.208951 0.199926 0.189193 0.176752 0.162603 0.146745 0.12918 0.109906 0.090629 0.0730513 0.0571734 0.0429954 0.0305172 0.0197389 0.0106603 0.00328165 -0.00266069 -0.00743016 -0.0110268 -0.0134505 -0.0147014 -0.0147793 -0.0136845 -0.0114167 -0.00874093 -0.00642191 -0.00445966 -0.00285418 -0.00160548 -0.000713545 -0.000178386 0 0 -4.03732e-05 -0.000161493 -0.000363359 -0.000645971 -0.00100933 -0.00145344 -0.0019782