<?xml version="1.0"?> 
<VTKFile type="StructuredGrid" version="0.1"> 
<StructuredGrid WholeExtent="0 128 0 128 0 0"> 
<Piece Extent="0 128 0 128 0 0"> 
<PointData>
<DataArray type="Float32" Name="u" format="ascii" NumberOfComponents="1"> 
0 0 0 0 0 0 0 0 0 0 0 0 0 0 0 0 0 0 0 0 0 0 0 0 0 0 0 0 0 0 0 0 0 0 0 0 0 0 0 0 0 0 0 0 0 0 0 0 0 0 0 0 0 0 0 0 0 0 0 0 0 0 0 0 0 0 0 0 0 0 0 0 0 0 0 0 0 0 0 0 0 0 0 0 0 0 0 0 0 0 0 0 0 0 0 0 0 0 0 0 0 0 0 0 0 0 0 0 0 0 0 0 0 0 0 0 0 0 0 0 0 0 0 0 0 0 0 0 0 0 -2.9132e-07 -1.16528e-06 -2.62188e-06 -4.66113e-06 -7.28301e-06 -1.04875e-05 -1.42747e-05 -1.86445e-05 -2.37137e-05 -2.95992e-05 -3.63009e-05 -4.38189e-05 -5.21531e-05 -6.13035e-05 -7.12701e-05 -8.2053e-05 -9.33854e-05 -0.000105 -0.000116898 -0.000129078 -0.000141541 -0.000154287 -0.000167315 -0.000180626 -0.000193812 -0.000206467 -0.00021859 -0.000230181 -0.000241241 -0.000251769 -0.000261765 -0.000271229 -0.000279817 -0.000287183 -0.000293327 -0.000298249 -0.00030195 -0.000304428 -0.000305685 -0.000305719 -0.000304872 -0.000303483 -0.000301551 -0.000299077 -0.000296061 -0.000292503 -0.000288402 -0.00028376 -0.000278756 -0.000273571 -0.000268207 -0.000262661 -0.000256935 -0.000251029 -0.000244942 -0.000238674 -0.00023168 -0.000223412 -0.000213871 -0.000203057 -0.000190969 -0.000177608 -0.000162974 -0.000147066 -0.000130019 -0.000111967 -9.29078e-05 -7.28432e-05 -5.17727e-05 -2.96964e-05 -6.61419e-06 1.74739e-05 4.15344e-05 6.45339e-05 8.64724e-05 0.00010735 0.000127166 0.000145922 0.000163617 0.00018025 0.000195276 0.000208147 0.000218863 0.000227424 0.00023383 0.000238082 0.000240179 0.00024012 0.000238022 0.000233996 0.000228044 0.000220165 0.00021036 0.000198627 0.000184968 0.000169383 0.000152678 0.000135663 0.000118338 0.000100701 8.27543e-05 6.44968e-05 4.59286e-05 2.70498e-05 9.10642e-06 -6.65552e-06 -2.0236e-05 -3.1635e-05 -4.08526e-05 -4.78887e-05 -5.27433e-05 -5.54165e-05 -5.64176e-05 -5.62562e-05 -5.49321e-05 -5.24455e-05 -4.87963e-05 -4.39845e-05 -3.80101e-05 -3.08731e-05 -2.36372e-05 -1.73661e-05 -1.20598e-05 -7.71828e-06 -4.34153e-06 -1.92957e-06 -4.82393e-07 0 0 -1.16528e-06 -4.66113e-06 -1.04875e-05 -1.86445e-05 -2.9132e-05 -4.19501e-05 -5.70988e-05 -7.4578e-05 -9.4855e-05 -0.000118397 -0.000145204 -0.000175276 -0.000208612 -0.000245214 -0.000285081 -0.000328212 -0.000373541 -0.000420001 -0.000467592 -0.000516313 -0.000566165 -0.000617147 -0.00066926 -0.000722503 -0.000775248 -0.000825867 -0.000874359 -0.000920724 -0.000964962 -0.00100707 -0.00104706 -0.00108492 -0.00111927 -0.00114873 -0.00117331 -0.001193 -0.0012078 -0.00121771 -0.00122274 -0.00122288 -0.00121949 -0.00121393 -0.0012062 -0.00119631 -0.00118424 -0.00117001 -0.00115361 -0.00113504 -0.00111502 -0.00109429 -0.00107283 -0.00105064 -0.00102774 -0.00100411 -0.000979766 -0.000954696 -0.000926718 -0.000893647 -0.000855483 -0.000812226 -0.000763876 -0.000710432 -0.000651896 -0.000588266 -0.000520078 -0.000447866 -0.000371631 -0.000291373 -0.000207091 -0.000118786 -2.64568e-05 6.98956e-05 0.000166138 0.000258136 0.00034589 0.0004294 0.000508666 0.000583688 0.000654466 0.000721 0.000781103 0.000832586 0.00087545 0.000909695 0.000935321 0.000952327 0.000960714 0.000960482 0.000952087 0.000935985 0.000912176 0.000880661 0.000841438 0.000794509 0.000739873 0.00067753 0.000610713 0.000542653 0.00047335 0.000402805 0.000331017 0.000257987 0.000183715 0.000108199 3.64257e-05 -2.66221e-05 -8.0944e-05 -0.00012654 -0.00016341 -0.000191555 -0.000210973 -0.000221666 -0.00022567 -0.000225025 -0.000219729 -0.000209782 -0.000195185 -0.000175938 -0.00015204 -0.000123492 -9.45489e-05 -6.94645e-05 -4.82393e-05 -3.08731e-05 -1.73661e-05 -7.71828e-06 -1.92957e-06 0 0 -2.62188e-06 -1.04875e-05 -2.35969e-05 -4.19501e-05 -6.55471e-05 -9.43878e-05 -0.000128472 -0.000167801 -0.000213424 -0.000266393 -0.000326708 -0.00039437 -0.000469378 -0.000551731 -0.000641431 -0.000738477 -0.000840468 -0.000945003 -0.00105208 -0.0011617 -0.00127387 -0.00138858 -0.00150583 -0.00162563 -0.00174431 -0.0018582 -0.00196731 -0.00207163 -0.00217117 -0.00226592 -0.00235588 -0.00244106 -0.00251835 -0.00258465 -0.00263994 -0.00268424 -0.00271755 -0.00273985 -0.00275116 -0.00275147 -0.00274385 -0.00273134 -0.00271396 -0.00269169 -0.00266455 -0.00263252 -0.00259562 -0.00255384 -0.0025088 -0.00246214 -0.00241386 -0.00236395 -0.00231242 -0.00225926 -0.00220447 -0.00214807 -0.00208512 -0.00201071 -0.00192484 -0.00182751 -0.00171872 -0.00159847 -0.00146677 -0.0013236 -0.00117018 -0.0010077 -0.000836171 -0.000655589 -0.000465955 -0.000267268 -5.95277e-05 0.000157265 0.00037381 0.000580805 0.000778252 0.00096615 0.0011445 0.0013133 0.00147255 0.00162225 0.00175748 0.00187332 0.00196976 0.00204681 0.00210447 0.00214274 0.00216161 0.00216108 0.0021422 0.00210597 0.0020524 0.00198149 0.00189324 0.00178765 0.00166471 0.00152444 0.0013741 0.00122097 0.00106504 0.000906311 0.000744789 0.000580471 0.000413358 0.000243448 8.19578e-05 -5.98996e-05 -0.000182124 -0.000284715 -0.000367673 -0.000430998 -0.00047469 -0.000498748 -0.000507759 -0.000506306 -0.000494389 -0.00047201 -0.000439167 -0.000395861 -0.000342091 -0.000277858 -0.000212735 -0.000156295 -0.000108538 -6.94645e-05 -3.90738e-05 -1.73661e-05 -4.34153e-06 0 0 -4.66113e-06 -1.86445e-05 -4.19501e-05 -7.4578e-05 -0.000116528 -0.000167801 -0.000228395 -0.000298312 -0.00037942 -0.000473588 -0.000580815 -0.000701102 -0.000834449 -0.000980856 -0.00114032 -0.00131285 -0.00149417 -0.00168001 -0.00187037 -0.00206525 -0.00226466 -0.00246859 -0.00267704 -0.00289001 -0.00310099 -0.00330347 -0.00349744 -0.0036829 -0.00385985 -0.0040283 -0.00418824 -0.00433967 -0.00447707 -0.00459493 -0.00469323 -0.00477199 -0.00483119 -0.00487085 -0.00489095 -0.00489151 -0.00487795 -0.00485572 -0.00482481 -0.00478523 -0.00473698 -0.00468004 -0.00461444 -0.00454016 -0.00446009 -0.00437714 -0.0042913 -0.00420258 -0.00411096 -0.00401646 -0.00391907 -0.00381878 -0.00370687 -0.00357459 -0.00342193 -0.0032489 -0.0030555 -0.00284173 -0.00260758 -0.00235306 -0.00208031 -0.00179147 -0.00148653 -0.00116549 -0.000828364 -0.000475142 -0.000105827 0.000279582 0.000664551 0.00103254 0.00138356 0.0017176 0.00203466 0.00233475 0.00261786 0.002884 0.00312441 0.00333034 0.0035018 0.00363878 0.00374128 0.00380931 0.00384286 0.00384193 0.00380835 0.00374394 0.0036487 0.00352264 0.00336575 0.00317804 0.00295949 0.00271012 0.00244285 0.00217061 0.0018934 0.00161122 0.00132407 0.00103195 0.000734858 0.000432797 0.000145703 -0.000106488 -0.000323776 -0.00050616 -0.000653641 -0.000766219 -0.000843893 -0.000886663 -0.000902682 -0.000900099 -0.000878914 -0.000839128 -0.000780741 -0.000703752 -0.000608162 -0.00049397 -0.000378196 -0.000277858 -0.000192957 -0.000123492 -6.94645e-05 -3.08731e-05 -7.71828e-06 0 0 -7.28301e-06 -2.9132e-05 -6.55471e-05 -0.000116528 -0.000182075 -0.000262188 -0.000356867 -0.000466113 -0.000592844 -0.000739981 -0.000907523 -0.00109547 -0.00130383 -0.00153259 -0.00178175 -0.00205133 -0.00233463 -0.00262501 -0.00292245 -0.00322696 -0.00353853 -0.00385717 -0.00418287 -0.00451564 -0.0048453 -0.00516167 -0.00546474 -0.00575453 -0.00603102 -0.00629421 -0.00654412 -0.00678073 -0.00699543 -0.00717958 -0.00733318 -0.00745623 -0.00754874 -0.0076107 -0.00764212 -0.00764298 -0.0076218 -0.00758706 -0.00753877 -0.00747692 -0.00740152 -0.00731257 -0.00721006 -0.007094 -0.0069689 -0.00683929 -0.00670516 -0.00656653 -0.00642338 -0.00627571 -0.00612354 -0.00596685 -0.00579199 -0.0055853 -0.00534677 -0.00507641 -0.00477422 -0.0044402 -0.00407435 -0.00367666 -0.00325049 -0.00279916 -0.0023227 -0.00182108 -0.00129432 -0.00074241 -0.000165355 0.000436847 0.00103836 0.00161335 0.00216181 0.00268375 0.00317916 0.00364805 0.00409041 0.00450625 0.00488189 0.00520366 0.00547156 0.00568559 0.00584575 0.00595204 0.00600446 0.00600301 0.00595054 0.00584991 0.0057011 0.00550413 0.00525899 0.00496568 0.00462421 0.00423456 0.00381695 0.00339158 0.00295844 0.00251753 0.00206886 0.00161242 0.00114822 0.000676245 0.000227661 -0.000166388 -0.0005059 -0.000790875 -0.00102131 -0.00119722 -0.00131858 -0.00138541 -0.00141044 -0.0014064 -0.0013733 -0.00131114 -0.00121991 -0.00109961 -0.000950253 -0.000771828 -0.000590931 -0.000434153 -0.000301495 -0.000192957 -0.000108538 -4.82393e-05 -1.20598e-05 0 0 -1.04875e-05 -4.19501e-05 -9.43878e-05 -0.000167801 -0.000262188 -0.000377551 -0.000513889 -0.000671202 -0.000853695 -0.00106557 -0.00130683 -0.00157748 -0.00187751 -0.00220693 -0.00256573 -0.00295391 -0.00336187 -0.00378001 -0.00420833 -0.00464682 -0.00509548 -0.00555432 -0.00602334 -0.00650253 -0.00697724 -0.0074328 -0.00786923 -0.00828652 -0.00868466 -0.00906367 -0.00942353 -0.00976426 -0.0100734 -0.0103386 -0.0105598 -0.010737 -0.0108702 -0.0109594 -0.0110046 -0.0110059 -0.0109754 -0.0109254 -0.0108558 -0.0107668 -0.0106582 -0.0105301 -0.0103825 -0.0102154 -0.0100352 -0.00984857 -0.00965544 -0.0094558 -0.00924966 -0.00903703 -0.0088179 -0.00859226 -0.00834046 -0.00804283 -0.00769935 -0.00731004 -0.00687488 -0.00639389 -0.00586706 -0.00529439 -0.0046807 -0.0040308 -0.00334468 -0.00262236 -0.00186382 -0.00106907 -0.000238111 0.00062906 0.00149524 0.00232322 0.00311301 0.0038646 0.00457799 0.00525319 0.0058902 0.006489 0.00702993 0.00749328 0.00787905 0.00818726 0.00841789 0.00857094 0.00864643 0.00864434 0.00856878 0.00842386 0.00820959 0.00792594 0.00757294 0.00715058 0.00665886 0.00609777 0.00549641 0.00488387 0.00426015 0.00362525 0.00297916 0.00232188 0.00165343 0.000973793 0.000327831 -0.000239599 -0.000728496 -0.00113886 -0.00147069 -0.00172399 -0.00189876 -0.00199499 -0.00203103 -0.00202522 -0.00197756 -0.00188804 -0.00175667 -0.00158344 -0.00136836 -0.00111143 -0.00085094 -0.000625181 -0.000434153 -0.000277858 -0.000156295 -6.94645e-05 -1.73661e-05 0 0 -1.42747e-05 -5.70988e-05 -0.000128472 -0.000228395 -0.000356867 -0.000513889 -0.00069946 -0.000913581 -0.00116197 -0.00145036 -0.00177875 -0.00214713 -0.0025555 -0.00300387 -0.00349224 -0.0040206 -0.00457588 -0.00514502 -0.005728 -0.00632483 -0.00693552 -0.00756005 -0.00819843 -0.00885066 -0.00949679 -0.0101169 -0.0107109 -0.0112789 -0.0118208 -0.0123367 -0.0128265 -0.0132902 -0.013711 -0.014072 -0.014373 -0.0146142 -0.0147955 -0.014917 -0.0149785 -0.0149802 -0.0149387 -0.0148706 -0.014776 -0.0146548 -0.014507 -0.0143326 -0.0141317 -0.0139042 -0.013659 -0.013405 -0.0131421 -0.0128704 -0.0125898 -0.0123004 -0.0120021 -0.011695 -0.0113523 -0.0109472 -0.0104797 -0.00994977 -0.00935748 -0.0087028 -0.00798572 -0.00720626 -0.00637095 -0.00548636 -0.00455248 -0.00356932 -0.00253686 -0.00145512 -0.000324095 0.000856221 0.00203519 0.00316216 0.00423715 0.00526015 0.00623116 0.00715018 0.00801721 0.00883225 0.00956851 0.0101992 0.0107243 0.0111438 0.0114577 0.011666 0.0117687 0.0117659 0.0116631 0.0114658 0.0111742 0.0107881 0.0103076 0.00973273 0.00906344 0.00829974 0.00748123 0.0066475 0.00579854 0.00493436 0.00405496 0.00316034 0.0022505 0.00132544 0.000446215 -0.00032612 -0.000991564 -0.00155012 -0.00200178 -0.00234654 -0.00258442 -0.00271541 -0.00276446 -0.00275655 -0.00269168 -0.00256983 -0.00239102 -0.00215524 -0.0018625 -0.00151278 -0.00115822 -0.00085094 -0.000590931 -0.000378196 -0.000212735 -9.45489e-05 -2.36372e-05 0 0 -1.86445e-05 -7.4578e-05 -0.000167801 -0.000298312 -0.000466113 -0.000671202 -0.000913581 -0.00119325 -0.00151768 -0.00189435 -0.00232326 -0.00280441 -0.0033378 -0.00392342 -0.00456129 -0.00525139 -0.00597666 -0.00672002 -0.00748147 -0.00826101 -0.00905863 -0.00987435 -0.0107082 -0.01156 -0.012404 -0.0132139 -0.0139897 -0.0147316 -0.0154394 -0.0161132 -0.0167529 -0.0173587 -0.0179083 -0.0183797 -0.0187729 -0.019088 -0.0193248 -0.0194834 -0.0195638 -0.019566 -0.0195118 -0.0194229 -0.0192993 -0.0191409 -0.0189479 -0.0187202 -0.0184578 -0.0181606 -0.0178404 -0.0175086 -0.0171652 -0.0168103 -0.0164438 -0.0160658 -0.0156763 -0.0152751 -0.0148275 -0.0142984 -0.0136877 -0.0129956 -0.012222 -0.0113669 -0.0104303 -0.00941226 -0.00832125 -0.00716586 -0.0059461 -0.00466197 -0.00331346 -0.00190057 -0.000423308 0.00111833 0.0026582 0.00413017 0.00553424 0.0068704 0.00813866 0.00933901 0.0104715 0.011536 0.0124976 0.0133214 0.0140072 0.0145551 0.0149651 0.0152372 0.0153714 0.0153677 0.0152334 0.0149758 0.0145948 0.0140906 0.013463 0.0127121 0.011838 0.0108405 0.0097714 0.00868244 0.0075736 0.00644488 0.00529628 0.0041278 0.00293943 0.00173119 0.000582811 -0.000425953 -0.0012951 -0.00202464 -0.00261456 -0.00306487 -0.00337557 -0.00354665 -0.00361073 -0.0036004 -0.00351566 -0.00335651 -0.00312296 -0.00281501 -0.00243265 -0.00197588 -0.00151278 -0.00111143 -0.000771828 -0.00049397 -0.000277858 -0.000123492 -3.08731e-05 0 0 -2.34276e-05 -9.37103e-05 -0.000210848 -0.000374841 -0.00058569 -0.000843393 -0.00114795 -0.00149937 -0.00190588 -0.00237576 -0.00290899 -0.00350557 -0.00416551 -0.00488881 -0.00567546 -0.00652546 -0.00741726 -0.00832929 -0.00926155 -0.010214 -0.0111868 -0.0121797 -0.0131929 -0.0142263 -0.0152489 -0.0162295 -0.0171683 -0.0180651 -0.01892 -0.0197331 -0.0205042 -0.0212334 -0.0218946 -0.0224617 -0.0229349 -0.0233139 -0.023599 -0.02379 -0.0238869 -0.0238898 -0.0238259 -0.0237223 -0.0235791 -0.0233962 -0.0231736 -0.0229115 -0.0226096 -0.0222681 -0.021899 -0.021514 -0.0211133 -0.0206968 -0.0202645 -0.0198165 -0.0193527 -0.0188732 -0.0183309 -0.017679 -0.0169175 -0.0160464 -0.0150657 -0.0139754 -0.0127754 -0.0114658 -0.0100577 -0.00856206 -0.00697894 -0.00530832 -0.00355022 -0.00170462 0.000228467 0.00224905 0.00426987 0.00620369 0.00805051 0.00981032 0.0114831 0.0130689 0.0145677 0.0159795 0.0172567 0.0183515 0.0192641 0.0199943 0.0205422 0.0209078 0.0210911 0.0210922 0.0209201 0.0205844 0.0200849 0.0194217 0.0185947 0.017604 0.0164496 0.0151314 0.0137177 0.0122769 0.0108089 0.00931365 0.00779124 0.00624163 0.00466484 0.00306085 0.00153308 0.000184938 -0.000983584 -0.00197248 -0.00278176 -0.00341141 -0.00386143 -0.00413183 -0.00426321 -0.00429617 -0.00423071 -0.00406683 -0.00380453 -0.0034438 -0.00298466 -0.0024271 -0.00185825 -0.00136524 -0.000948085 -0.000606774 -0.000341311 -0.000151694 -3.79234e-05 0 0 -2.84546e-05 -0.000113818 -0.000256091 -0.000455273 -0.000711364 -0.00102436 -0.00139427 -0.00182109 -0.00231166 -0.00287281 -0.00350454 -0.00420686 -0.00497976 -0.00582324 -0.00673731 -0.00772197 -0.00875072 -0.00979708 -0.010861 -0.0119426 -0.0130418 -0.0141586 -0.015293 -0.016445 -0.0175816 -0.0186696 -0.019709 -0.0206999 -0.0216423 -0.0225361 -0.0233813 -0.024178 -0.0248992 -0.0255179 -0.0260342 -0.0264479 -0.0267592 -0.026968 -0.0270743 -0.0270782 -0.0270122 -0.0269091 -0.0267688 -0.0265914 -0.0263769 -0.0261252 -0.0258364 -0.0255104 -0.0251545 -0.024776 -0.0243749 -0.0239511 -0.0235047 -0.0230356 -0.022544 -0.0220297 -0.0214274 -0.0206719 -0.0197631 -0.0187011 -0.0174858 -0.0161173 -0.0145955 -0.0129204 -0.0111064 -0.00916771 -0.00710439 -0.00491641 -0.00260378 -0.000166495 0.00239545 0.00508204 0.00777578 0.0103592 0.0128322 0.0151949 0.0174472 0.0195892 0.0216209 0.0235421 0.025285 0.0267813 0.028031 0.0290342 0.0297909 0.030301 0.0305646 0.0305816 0.0303637 0.0299224 0.0292578 0.0283697 0.0272583 0.0259235 0.0243654 0.0225838 0.020671 0.018719 0.0167279 0.0146975 0.012628 0.0105193 0.00837134 0.00618425 0.0040925 0.00223059 0.000598526 -0.000803685 -0.00197605 -0.00291856 -0.00363123 -0.00411405 -0.00441531 -0.00458331 -0.00461805 -0.00451952 -0.00428774 -0.00392269 -0.00342438 -0.00279281 -0.00213824 -0.00157096 -0.00109094 -0.000698202 -0.000392739 -0.000174551 -4.36376e-05 0 0 -3.37255e-05 -0.000134902 -0.000303529 -0.000539607 -0.000843137 -0.00121412 -0.00165255 -0.00215843 -0.002735 -0.0033855 -0.00410992 -0.00490826 -0.00578054 -0.00672674 -0.00774686 -0.00884091 -0.00997703 -0.0111234 -0.01228 -0.0134468 -0.0146238 -0.015811 -0.0170085 -0.0182162 -0.0194021 -0.020534 -0.021612 -0.022636 -0.0236061 -0.0245222 -0.0253845 -0.0261927 -0.0269223 -0.0275483 -0.0280709 -0.0284899 -0.0288055 -0.0290175 -0.029126 -0.0291311 -0.0290708 -0.0289833 -0.0288686 -0.0287267 -0.0285576 -0.0283614 -0.0281379 -0.0278873 -0.027607 -0.0272946 -0.02695 -0.0265732 -0.0261643 -0.0257232 -0.02525 -0.0247446 -0.024117 -0.0232769 -0.0222245 -0.0209596 -0.0194823 -0.0177926 -0.0158905 -0.013776 -0.0114673 -0.00898283 -0.00632246 -0.00348623 -0.000474141 0.00271381 0.00607763 0.0096173 0.0131759 0.0165966 0.0198794 0.0230241 0.026031 0.0288999 0.0316308 0.0342238 0.0365825 0.0386106 0.0403081 0.0416749 0.0427111 0.0434168 0.0437918 0.0438361 0.0435641 0.0429898 0.0421134 0.0409347 0.0394538 0.0376707 0.0355854 0.0331979 0.0306313 0.0280089 0.0253306 0.0225965 0.0198065 0.0169606 0.0140589 0.0111014 0.00826105 0.00571099 0.00345123 0.00148175 -0.000197443 -0.00158635 -0.00268496 -0.00349329 -0.00406701 -0.0044618 -0.00467766 -0.00471459 -0.00457259 -0.00425166 -0.0037518 -0.00307302 -0.00235278 -0.00172857 -0.0012004 -0.000768254 -0.000432143 -0.000192063 -4.80159e-05 0 0 -3.92403e-05 -0.000156961 -0.000353162 -0.000627844 -0.000981007 -0.00141265 -0.00192277 -0.00251138 -0.00317591 -0.00391383 -0.00472512 -0.00560979 -0.00656785 -0.00759928 -0.0087041 -0.00988229 -0.0110962 -0.0123082 -0.0135183 -0.0147265 -0.0159327 -0.017137 -0.0183394 -0.0195399 -0.0207104 -0.0218228 -0.0228771 -0.0238733 -0.0248115 -0.0256916 -0.0265135 -0.0272774 -0.0279637 -0.0285529 -0.029045 -0.0294399 -0.0297377 -0.0299385 -0.0300421 -0.0300485 -0.0300016 -0.0299448 -0.0298783 -0.029802 -0.0297159 -0.02962 -0.0295144 -0.029399 -0.0292565 -0.0290697 -0.0288386 -0.0285631 -0.0282434 -0.0278793 -0.0274708 -0.0270181 -0.0263997 -0.0254941 -0.0243016 -0.0228219 -0.0210552 -0.0190014 -0.0166605 -0.0140326 -0.0111406 -0.00800741 -0.00463316 -0.00101779 0.0028387 0.0069363 0.011275 0.0158548 0.0204703 0.024916 0.0291919 0.033298 0.0372343 0.0410009 0.0445976 0.0480245 0.0511493 0.0538395 0.0560952 0.0579164 0.059303 0.0602551 0.0607726 0.0608557 0.0605213 0.0597866 0.0586517 0.0571166 0.0551812 0.0528455 0.0501096 0.0469734 0.0435985 0.0401464 0.0366171 0.0330105 0.0293268 0.0255658 0.0217276 0.0178123 0.0140387 0.0106262 0.00757452 0.00488382 0.00255406 0.000585245 -0.00102263 -0.00226957 -0.00321832 -0.00393165 -0.00440956 -0.00465204 -0.00465909 -0.00443073 -0.00396693 -0.00326772 -0.00250185 -0.00183809 -0.00127645 -0.000816929 -0.000459523 -0.000204232 -5.10581e-05 0 0 -4.4999e-05 -0.000179996 -0.000404991 -0.000719983 -0.00112497 -0.00161996 -0.00220495 -0.00287993 -0.00363439 -0.0044578 -0.00535015 -0.00631144 -0.00734169 -0.00844088 -0.00960902 -0.0108461 -0.0121083 -0.0133516 -0.0145761 -0.0157817 -0.0169686 -0.0181366 -0.0192857 -0.0204161 -0.0215065 -0.022536 -0.0235045 -0.024412 -0.0252585 -0.026044 -0.0267686 -0.0274321 -0.0280236 -0.0285317 -0.0289564 -0.0292979 -0.029556 -0.0297309 -0.0298224 -0.0298306 -0.0298046 -0.0297938 -0.029798 -0.0298173 -0.0298517 -0.0299012 -0.0299657 -0.0300454 -0.030103 -0.0301014 -0.0300407 -0.0299209 -0.0297419 -0.0295038 -0.0292065 -0.02885 -0.0282754 -0.0273235 -0.0259944 -0.0242881 -0.0222045 -0.0197436 -0.0169055 -0.0136902 -0.010126 -0.00624145 -0.00203647 0.00248893 0.00733474 0.012501 0.0179876 0.0237947 0.029659 0.0353174 0.0407699 0.0460166 0.0510573 0.0558922 0.0605212 0.0649443 0.0689853 0.0724681 0.0753925 0.0777586 0.0795665 0.080816 0.0815073 0.0816402 0.0812353 0.0803128 0.0788729 0.0769154 0.0744405 0.071448 0.067938 0.0639106 0.0595727 0.0551316 0.0505873 0.0459397 0.0411889 0.0363348 0.0313774 0.0263169 0.0214256 0.0169761 0.0129684 0.00940253 0.00627847 0.00359621 0.00135576 -0.000442879 -0.00186924 -0.00299286 -0.00381373 -0.00433186 -0.00454724 -0.00445988 -0.00406977 -0.00337691 -0.00258545 -0.00189951 -0.00131911 -0.000844228 -0.000474878 -0.000211057 -5.27642e-05 0 0 -5.10016e-05 -0.000204006 -0.000459014 -0.000816025 -0.00127504 -0.00183606 -0.00249908 -0.0032641 -0.00411044 -0.00501741 -0.005985 -0.00701322 -0.00810206 -0.00925154 -0.0104616 -0.0117324 -0.0130132 -0.0142534 -0.0154532 -0.0166125 -0.0177313 -0.0188096 -0.0198474 -0.0208447 -0.0217905 -0.0226736 -0.023494 -0.0242518 -0.024947 -0.0255796 -0.0261495 -0.0266568 -0.0271018 -0.0274846 -0.0278053 -0.0280639 -0.0282604 -0.0283947 -0.028467 -0.0284771 -0.0284799 -0.0285301 -0.0286277 -0.0287726 -0.028965 -0.0292048 -0.0294919 -0.0298265 -0.0301464 -0.0303897 -0.0305564 -0.0306464 -0.0306599 -0.0305967 -0.0304569 -0.0302405 -0.0297442 -0.0287651 -0.027303 -0.025358 -0.0229301 -0.0200193 -0.0166255 -0.0127488 -0.00842376 -0.00368495 0.0014676 0.00703392 0.013014 0.0194078 0.0262154 0.0334367 0.0407418 0.0478007 0.0546134 0.0611798 0.0675 0.0735739 0.0794017 0.0849832 0.0900906 0.0944962 0.0981999 0.101202 0.103502 0.1051 0.105996 0.10619 0.105706 0.104568 0.102777 0.100331 0.0972316 0.0934781 0.0890707 0.0840092 0.0785539 0.0729645 0.0672412 0.0613839 0.0553927 0.0492675 0.0430083 0.0366152 0.0304215 0.0247608 0.0196329 0.0150379 0.0109758 0.00744655 0.00445022 0.00198678 -1.97706e-05 -0.00164543 -0.00289019 -0.00375406 -0.00423703 -0.00433912 -0.00406031 -0.0034006 -0.00260359 -0.00191284 -0.00132836 -0.000850151 -0.00047821 -0.000212538 -5.31344e-05 0 0 -5.72481e-05 -0.000228992 -0.000515233 -0.00091597 -0.0014312 -0.00206093 -0.00280516 -0.00366388 -0.00460406 -0.00559266 -0.00662968 -0.00771511 -0.00884897 -0.0100312 -0.0112619 -0.0125411 -0.0138109 -0.0150138 -0.0161498 -0.0172189 -0.018221 -0.0191562 -0.0200245 -0.0208258 -0.0215622 -0.0222355 -0.0228458 -0.023393 -0.0238772 -0.0242984 -0.0246565 -0.0249516 -0.0251984 -0.0254117 -0.0255915 -0.0257379 -0.0258507 -0.02593 -0.0259759 -0.0259883 -0.0260274 -0.0261538 -0.0263673 -0.026668 -0.0270558 -0.0275308 -0.028093 -0.0287423 -0.0293868 -0.0299346 -0.0303856 -0.0307398 -0.0309973 -0.0311581 -0.0312221 -0.0311893 -0.0308062 -0.0298189 -0.0282274 -0.0260319 -0.0232322 -0.0198284 -0.0158205 -0.0112084 -0.00603374 -0.000337917 0.00587905 0.0126172 0.0198764 0.0276568 0.0359584 0.0447811 0.053719 0.062366 0.0707222 0.0787876 0.0865622 0.094046 0.101239 0.108141 0.114465 0.119924 0.124517 0.128245 0.131108 0.133106 0.134238 0.134504 0.133934 0.132553 0.130363 0.127364 0.123555 0.118936 0.113508 0.107269 0.100542 0.0936451 0.0865789 0.0793433 0.0719383 0.064364 0.0566203 0.0487073 0.0410266 0.0339802 0.0275679 0.0217899 0.016646 0.0121363 0.00826074 0.0050194 0.00233009 0.00011065 -0.00163893 -0.00291863 -0.00372847 -0.00406844 -0.00393855 -0.00333879 -0.00255626 -0.00187807 -0.00130421 -0.000834697 -0.000469517 -0.000208674 -5.21685e-05 0 0 -6.37385e-05 -0.000254954 -0.000573647 -0.00101982 -0.00159346 -0.00229459 -0.00312319 -0.00407927 -0.00511524 -0.00618355 -0.00728418 -0.00841713 -0.00958241 -0.01078 -0.0120099 -0.0132722 -0.0145015 -0.0156328 -0.0166659 -0.0176008 -0.0184377 -0.0191764 -0.019817 -0.0203594 -0.0208217 -0.0212218 -0.0215597 -0.0218354 -0.022049 -0.0222003 -0.0222894 -0.0223163 -0.0223134 -0.022313 -0.0223152 -0.0223198 -0.0223271 -0.0223368 -0.0223491 -0.0223639 -0.0224472 -0.0226649 -0.0230169 -0.0235033 -0.0241241 -0.0248793 -0.0257689 -0.0267928 -0.0278242 -0.028736 -0.0295283 -0.030201 -0.0307542 -0.0311879 -0.0315021 -0.0316967 -0.0314612 -0.0304848 -0.0287676 -0.0263095 -0.0231107 -0.0191709 -0.0144904 -0.00906905 -0.00295599 0.00379966 0.0111979 0.0192387 0.0279221 0.037248 0.0472166 0.0578277 0.0685903 0.0790132 0.0890965 0.0988401 0.108244 0.117308 0.126033 0.134418 0.142109 0.148751 0.154345 0.15889 0.162386 0.164834 0.166233 0.166584 0.165918 0.164268 0.161633 0.158014 0.15341 0.147821 0.141249 0.133691 0.125537 0.117173 0.1086 0.0998177 0.0908257 0.0816243 0.0722134 0.0625931 0.0532409 0.0446344 0.0367736 0.0296585 0.0232891 0.0176653 0.0127873 0.008655 0.00518035 0.00227537 -5.99419e-05 -0.00182558 -0.00302156 -0.00364786 -0.0037045 -0.00319147 -0.00244347 -0.0017952 -0.00124667 -0.000797867 -0.0004488 -0.000199467 -4.98667e-05 0 0 -6.94767e-05 -0.000277907 -0.00062529 -0.00111163 -0.00173692 -0.00250116 -0.00340436 -0.00444651 -0.00556225 -0.00668623 -0.00781843 -0.00895886 -0.0101075 -0.0112644 -0.0124295 -0.0136029 -0.0147118 -0.0156834 -0.0165178 -0.017215 -0.017775 -0.0181977 -0.0184832 -0.0186315 -0.0186822 -0.0186749 -0.0186097 -0.0184865 -0.0183053 -0.0180662 -0.0177691 -0.017414 -0.0170565 -0.0167522 -0.0165012 -0.0163033 -0.0161586 -0.0160671 -0.0160287 -0.0160436 -0.016183 -0.0165181 -0.0170491 -0.0177758 -0.0186984 -0.0198167 -0.0211309 -0.0226408 -0.0241771 -0.0255704 -0.0268205 -0.0279276 -0.0288916 -0.0297125 -0.0303903 -0.030925 -0.0309407 -0.0300615 -0.0282871 -0.0256178 -0.0220535 -0.0175942 -0.0122399 -0.00599058 0.00109643 0.00896381 0.0176116 0.0270397 0.0372482 0.048237 0.0600062 0.0725558 0.0853 0.0976528 0.109614 0.121185 0.132364 0.143151 0.153548 0.163553 0.172738 0.180675 0.187364 0.192804 0.196996 0.19994 0.201635 0.202081 0.201316 0.199375 0.196259 0.191966 0.186499 0.179855 0.172036 0.163041 0.153331 0.143366 0.133145 0.12267 0.111939 0.100953 0.0897126 0.0782167 0.0670259 0.0567004 0.0472404 0.0386457 0.0309164 0.0240525 0.018054 0.0129208 0.00856011 0.00487882 0.00187698 -0.000445413 -0.00208836 -0.00305185 -0.0033359 -0.0029405 -0.00225132 -0.00165403 -0.00114863 -0.000735125 -0.000413508 -0.000183781 -4.59453e-05 0 0 -7.34665e-05 -0.000293866 -0.000661199 -0.00117546 -0.00183666 -0.00264479 -0.00359986 -0.00470186 -0.00586333 -0.00699683 -0.00810235 -0.0091799 -0.0102295 -0.0112511 -0.0122447 -0.0132103 -0.0140683 -0.0147389 -0.0152222 -0.0155181 -0.0156266 -0.0155478 -0.0152816 -0.0148281 -0.0142568 -0.0136372 -0.0129695 -0.0122535 -0.0114894 -0.010677 -0.00981642 -0.00890762 -0.00803756 -0.00729319 -0.00667453 -0.00618156 -0.00581428 -0.00557271 -0.00545682 -0.00546664 -0.00567838 -0.00616829 -0.00693636 -0.0079826 -0.00930701 -0.0109096 -0.0127903 -0.0149492 -0.0171644 -0.0192141 -0.0210984 -0.0228171 -0.0243703 -0.0257579 -0.0269801 -0.0280368 -0.0284764 -0.0278474 -0.0261498 -0.0233836 -0.0195489 -0.0146455 -0.00867347 -0.00163288 0.00641043 0.0153906 0.0253075 0.0361613 0.0479519 0.0606793 0.0743436 0.0889446 0.103792 0.118195 0.132154 0.145669 0.158739 0.171365 0.183547 0.195285 0.20607 0.215394 0.223256 0.229657 0.234597 0.238076 0.240093 0.240649 0.239784 0.237539 0.233914 0.228909 0.222523 0.214758 0.205612 0.195086 0.183716 0.172038 0.160054 0.147762 0.135163 0.122257 0.109043 0.0955221 0.0823432 0.0701554 0.0589589 0.0487536 0.0395394 0.0313165 0.0240848 0.0178442 0.0124985 0.00795109 0.00420205 0.00125138 -0.000900942 -0.0022549 -0.0028105 -0.00256775 -0.00196593 -0.00144436 -0.00100303 -0.000641937 -0.000361089 -0.000160484 -4.0121e-05 0 0 -7.57079e-05 -0.000302832 -0.000681371 -0.00121133 -0.0018927 -0.00272548 -0.00370969 -0.00484531 -0.00601848 -0.00711537 -0.00813596 -0.00908025 -0.00994824 -0.0107399 -0.0114553 -0.0120945 -0.0125712 -0.0127993 -0.012779 -0.0125101 -0.0119926 -0.0112267 -0.0102122 -0.00894915 -0.0075454 -0.00610872 -0.00463911 -0.00313657 -0.00160111 -3.27231e-05 0.00156859 0.00320284 0.00474352 0.00606416 0.00716474 0.00804528 0.00870577 0.00914621 0.0093666 0.00936695 0.00906653 0.00838463 0.00732124 0.00587638 0.00405003 0.00184221 -0.000747098 -0.00371789 -0.00678601 -0.00966731 -0.0123618 -0.0148695 -0.0171903 -0.0193243 -0.0212716 -0.023032 -0.0240681 -0.0238427 -0.0223556 -0.0196069 -0.0155966 -0.0103247 -0.00379113 0.00400405 0.012986 0.0230799 0.0342858 0.0466036 0.0600333 0.074575 0.0902286 0.106994 0.124066 0.14064 0.156715 0.172292 0.18737 0.20195 0.216031 0.229614 0.242104 0.252906 0.262021 0.269449 0.275189 0.279243 0.281609 0.282287 0.281323 0.278761 0.2746 0.268841 0.261484 0.252529 0.241976 0.229824 0.216691 0.203191 0.189326 0.175094 0.160497 0.145534 0.130205 0.114509 0.0991928 0.0849994 0.0719291 0.059982 0.0491581 0.0394573 0.0308797 0.0234252 0.0169955 0.0114922 0.00691528 0.00326479 0.000540688 -0.00125701 -0.00212831 -0.00207321 -0.0015873 -0.00116618 -0.000809847 -0.000518302 -0.000291545 -0.000129575 -3.23939e-05 0 0 -7.62009e-05 -0.000304804 -0.000685808 -0.00121921 -0.00190502 -0.00274323 -0.00373384 -0.00487686 -0.00602771 -0.00704183 -0.00791923 -0.0086599 -0.00926384 -0.00973106 -0.0100615 -0.0102553 -0.0102203 -0.00986462 -0.00918816 -0.00819096 -0.00687301 -0.00523432 -0.00327488 -0.000994705 0.0014519 0.00391062 0.00638146 0.00886441 0.0113595 0.0138667 0.016386 0.0189174 0.0212867 0.0233198 0.0250166 0.0263772 0.0274016 0.0280897 0.0284415 0.0284572 0.0280518 0.0271406 0.0257237 0.0238011 0.0213727 0.0184386 0.0149987 0.0110531 0.00695813 0.00307015 -0.000610821 -0.00408478 -0.00735174 -0.0104117 -0.0132646 -0.0159106 -0.017716 -0.0180473 -0.0169045 -0.0142877 -0.0101969 -0.0046319 0.00240712 0.0109202 0.0208232 0.0320319 0.0445463 0.0583665 0.0734924 0.089924 0.107661 0.126704 0.146123 0.164988 0.183299 0.201055 0.218257 0.234906 0.251 0.26654 0.280839 0.293212 0.303659 0.312179 0.318773 0.32344 0.326181 0.326996 0.325932 0.323039 0.318316 0.311763 0.303381 0.29317 0.281129 0.267258 0.252257 0.236825 0.220961 0.204667 0.187941 0.170785 0.153197 0.135178 0.117575 0.101232 0.086151 0.0723311 0.0597723 0.0484749 0.0384386 0.0296637 0.0220511 0.0155021 0.0100167 0.00559482 0.00223653 -5.81775e-05 -0.00128932 -0.00145688 -0.00111542 -0.000819496 -0.000569094 -0.00036422 -0.000204874 -9.10551e-05 -2.27638e-05 0 0 -7.49455e-05 -0.000299782 -0.00067451 -0.00119913 -0.00187364 -0.00269804 -0.00367233 -0.00479651 -0.00589101 -0.00677623 -0.00745218 -0.00791886 -0.00817627 -0.00822441 -0.00806328 -0.00769288 -0.00701584 -0.00593482 -0.00444979 -0.00256077 -0.000267761 0.00242925 0.00553025 0.00903525 0.0127351 0.0164208 0.0200922 0.0237494 0.0273924 0.0310211 0.0346357 0.038236 0.041592 0.0444737 0.0468812 0.0488143 0.0502732 0.0512578 0.051768 0.051804 0.0512773 0.0500997 0.0482711 0.0457916 0.0426611 0.0388796 0.0344472 0.0293638 0.024068 0.0189982 0.0141546 0.00953697 0.00514546 0.000980034 -0.00295932 -0.00667259 -0.00941985 -0.0104612 -0.00979656 -0.00742601 -0.00334952 0.00243291 0.00992128 0.0191156 0.029922 0.0422465 0.0560892 0.0714501 0.0883291 0.106726 0.126642 0.148075 0.169962 0.191238 0.211903 0.231957 0.2514 0.270232 0.288453 0.306062 0.322277 0.336313 0.34817 0.357849 0.365348 0.370669 0.37