<?xml version="1.0"?> 
<VTKFile type="StructuredGrid" version="0.1"> 
<StructuredGrid WholeExtent="0 128 0 128 0 0"> 
<Piece Extent="0 128 0 128 0 0"> 
<PointData>
<DataArray type="Float32" Name="u" format="ascii" NumberOfComponents="1"> 
0 0 0 0 0 0 0 0 0 0 0 0 0 0 0 0 0 0 0 0 0 0 0 0 0 0 0 0 0 0 0 0 0 0 0 0 0 0 0 0 0 0 0 0 0 0 0 0 0 0 0 0 0 0 0 0 0 0 0 0 0 0 0 0 0 0 0 0 0 0 0 0 0 0 0 0 0 0 0 0 0 0 0 0 0 0 0 0 0 0 0 0 0 0 0 0 0 0 0 0 0 0 0 0 0 0 0 0 0 0 0 0 0 0 0 0 0 0 0 0 0 0 0 0 0 0 0 0 0 0 -3.23452e-07 -1.29381e-06 -2.91107e-06 -5.17523e-06 -8.0863e-06 -1.16443e-05 -1.58491e-05 -2.07009e-05 -2.62533e-05 -3.25598e-05 -3.96204e-05 -4.74353e-05 -5.60044e-05 -6.53276e-05 -7.5405e-05 -8.62366e-05 -9.7485e-05 -0.000108813 -0.00012022 -0.000131707 -0.000143273 -0.000154919 -0.000166644 -0.000178449 -0.000190018 -0.000201034 -0.0002115 -0.000221413 -0.000230775 -0.000239585 -0.000247844 -0.000255551 -0.000262515 -0.000268546 -0.000273645 -0.00027781 -0.000281042 -0.000283341 -0.000284708 -0.000285141 -0.000284919 -0.000284322 -0.000283349 -0.000282 -0.000280276 -0.000278175 -0.000275699 -0.000272847 -0.000269622 -0.000266029 -0.000262066 -0.000257734 -0.000253033 -0.000247962 -0.000242523 -0.000236714 -0.000229953 -0.000221656 -0.000211823 -0.000200455 -0.000187551 -0.000173111 -0.000157135 -0.000139623 -0.000120705 -0.00010051 -7.90368e-05 -5.62864e-05 -3.22585e-05 -6.95331e-06 1.96294e-05 4.74894e-05 7.54811e-05 0.000102458 0.000128421 0.00015337 0.000177304 0.000200224 0.000222129 0.00024302 0.000262058 0.000278402 0.000292052 0.00030301 0.000311274 0.000316845 0.000319723 0.000319907 0.000317536 0.000312748 0.000305543 0.000295922 0.000283883 0.000269427 0.000252554 0.000233265 0.00021266 0.000191843 0.000170813 0.00014957 0.000128115 0.000106446 8.45655e-05 6.24718e-05 4.14448e-05 2.27642e-05 6.42992e-06 -7.55805e-06 -1.91997e-05 -2.8495e-05 -3.54441e-05 -4.00467e-05 -4.28419e-05 -4.43683e-05 -4.46259e-05 -4.36147e-05 -4.13348e-05 -3.77861e-05 -3.29687e-05 -2.68824e-05 -2.05819e-05 -1.51214e-05 -1.0501e-05 -6.72061e-06 -3.78034e-06 -1.68015e-06 -4.20038e-07 0 0 -1.29381e-06 -5.17523e-06 -1.16443e-05 -2.07009e-05 -3.23452e-05 -4.65771e-05 -6.33966e-05 -8.28037e-05 -0.000105013 -0.000130239 -0.000158482 -0.000189741 -0.000224017 -0.00026131 -0.00030162 -0.000344946 -0.00038994 -0.000435252 -0.000480881 -0.000526828 -0.000573094 -0.000619676 -0.000666577 -0.000713796 -0.00076007 -0.000804138 -0.000845999 -0.000885653 -0.0009231 -0.000958341 -0.000991375 -0.0010222 -0.00105006 -0.00107419 -0.00109458 -0.00111124 -0.00112417 -0.00113337 -0.00113883 -0.00114056 -0.00113968 -0.00113729 -0.0011334 -0.001128 -0.0011211 -0.0011127 -0.0011028 -0.00109139 -0.00107849 -0.00106411 -0.00104826 -0.00103093 -0.00101213 -0.000991849 -0.000970091 -0.000946856 -0.000919811 -0.000886624 -0.000847293 -0.000801819 -0.000750202 -0.000692443 -0.00062854 -0.000558494 -0.000482821 -0.000402039 -0.000316147 -0.000225145 -0.000129034 -2.78132e-05 7.85174e-05 0.000189958 0.000301924 0.000409833 0.000513685 0.000613479 0.000709216 0.000800895 0.000888517 0.000972082 0.00104823 0.00111361 0.00116821 0.00121204 0.0012451 0.00126738 0.00127889 0.00127963 0.00127014 0.00125099 0.00122217 0.00118369 0.00113553 0.00107771 0.00101022 0.000933059 0.000850641 0.000767372 0.000683252 0.000598281 0.000512459 0.000425786 0.000338262 0.000249887 0.000165779 9.10569e-05 2.57197e-05 -3.02322e-05 -7.67988e-05 -0.00011398 -0.000141776 -0.000160187 -0.000171368 -0.000177473 -0.000178504 -0.000174459 -0.000165339 -0.000151144 -0.000131875 -0.00010753 -8.23275e-05 -6.04855e-05 -4.20038e-05 -2.68824e-05 -1.51214e-05 -6.72061e-06 -1.68015e-06 0 0 -2.91107e-06 -1.16443e-05 -2.61996e-05 -4.65771e-05 -7.27767e-05 -0.000104798 -0.000142642 -0.000186308 -0.000236279 -0.000293038 -0.000356584 -0.000426918 -0.000504039 -0.000587948 -0.000678645 -0.00077613 -0.000877365 -0.000979316 -0.00108198 -0.00118536 -0.00128946 -0.00139427 -0.0014998 -0.00160604 -0.00171016 -0.00180931 -0.0019035 -0.00199272 -0.00207698 -0.00215627 -0.00223059 -0.00229995 -0.00236263 -0.00241692 -0.0024628 -0.00250029 -0.00252938 -0.00255007 -0.00256237 -0.00256627 -0.00256427 -0.0025589 -0.00255014 -0.002538 -0.00252248 -0.00250358 -0.00248129 -0.00245562 -0.0024266 -0.00239426 -0.00235859 -0.0023196 -0.00227729 -0.00223166 -0.0021827 -0.00213043 -0.00206958 -0.0019949 -0.00190641 -0.00180409 -0.00168796 -0.001558 -0.00141421 -0.00125661 -0.00108635 -0.000904587 -0.000711331 -0.000506577 -0.000290327 -6.25798e-05 0.000176664 0.000427405 0.00067933 0.000922125 0.00115579 0.00138033 0.00159574 0.00180201 0.00199916 0.00218718 0.00235852 0.00250562 0.00262847 0.00272709 0.00280147 0.0028516 0.0028775 0.00287916 0.00285782 0.00281473 0.00274989 0.00266329 0.00255495 0.00242484 0.00227299 0.00209938 0.00191394 0.00172659 0.00153732 0.00134613 0.00115303 0.000958018 0.000761089 0.000562246 0.000373004 0.000204878 5.78693e-05 -6.80225e-05 -0.000172797 -0.000256455 -0.000318996 -0.000360421 -0.000385577 -0.000399315 -0.000401633 -0.000392533 -0.000372013 -0.000340075 -0.000296718 -0.000241942 -0.000185237 -0.000136092 -9.45086e-05 -6.04855e-05 -3.40231e-05 -1.51214e-05 -3.78034e-06 0 0 -5.17523e-06 -2.07009e-05 -4.65771e-05 -8.28037e-05 -0.000129381 -0.000186308 -0.000253586 -0.000331215 -0.000420052 -0.000520956 -0.000633927 -0.000758965 -0.00089607 -0.00104524 -0.00120648 -0.00137979 -0.00155976 -0.00174101 -0.00192352 -0.00210731 -0.00229237 -0.00247871 -0.00266631 -0.00285518 -0.00304028 -0.00321655 -0.00338399 -0.00354261 -0.0036924 -0.00383336 -0.0039655 -0.00408881 -0.00420024 -0.00429674 -0.00437832 -0.00444496 -0.00449668 -0.00453346 -0.00455532 -0.00456225 -0.00455871 -0.00454916 -0.00453359 -0.00451201 -0.00448441 -0.00445081 -0.00441119 -0.00436555 -0.00431396 -0.00425646 -0.00419305 -0.00412374 -0.00404852 -0.00396739 -0.00388036 -0.00378742 -0.00367925 -0.0035465 -0.00338917 -0.00320728 -0.00300081 -0.00276977 -0.00251416 -0.00223397 -0.00193128 -0.00160816 -0.00126459 -0.000900582 -0.000516137 -0.000111253 0.00031407 0.000759831 0.0012077 0.00163933 0.00205474 0.00245392 0.00283686 0.00320358 0.00355407 0.00388833 0.00419292 0.00445443 0.00467284 0.00484816 0.00498039 0.00506952 0.00511556 0.00511851 0.00508058 0.00500397 0.00488869 0.00473475 0.00454213 0.00431083 0.00404087 0.00373224 0.00340256 0.00306949 0.00273301 0.00239312 0.00204984 0.00170314 0.00135305 0.000999548 0.000663117 0.000364227 0.000102879 -0.000120929 -0.000307195 -0.000455921 -0.000567105 -0.000640748 -0.00068547 -0.000709892 -0.000714014 -0.000697836 -0.000661357 -0.000604578 -0.000527499 -0.000430119 -0.00032931 -0.000241942 -0.000168015 -0.00010753 -6.04855e-05 -2.68824e-05 -6.72061e-06 0 0 -8.0863e-06 -3.23452e-05 -7.27767e-05 -0.000129381 -0.000202158 -0.000291107 -0.000396229 -0.000517523 -0.000656331 -0.000813994 -0.000990511 -0.00118588 -0.00140011 -0.00163319 -0.00188513 -0.00215592 -0.00243713 -0.00272032 -0.00300551 -0.00329268 -0.00358183 -0.00387298 -0.00416611 -0.00446122 -0.00475044 -0.00502586 -0.00528749 -0.00553533 -0.00576938 -0.00598963 -0.00619609 -0.00638876 -0.00656287 -0.00671366 -0.00684112 -0.00694525 -0.00702606 -0.00708354 -0.00711769 -0.00712852 -0.00712298 -0.00710806 -0.00708373 -0.00705001 -0.0070069 -0.00695438 -0.00689248 -0.00682117 -0.00674056 -0.00665072 -0.00655164 -0.00644334 -0.00632581 -0.00619905 -0.00606307 -0.00591785 -0.00574882 -0.0055414 -0.00529558 -0.00501137 -0.00468877 -0.00432777 -0.00392837 -0.00349058 -0.00301763 -0.00251274 -0.00197592 -0.00140716 -0.000806464 -0.000173833 0.000490734 0.00118724 0.00188703 0.00256146 0.00321053 0.00383424 0.0044326 0.0050056 0.00555323 0.00607551 0.00655144 0.00696004 0.00730131 0.00757525 0.00778185 0.00792112 0.00799306 0.00799767 0.0079384 0.0078187 0.00763858 0.00739804 0.00709707 0.00673568 0.00631386 0.00583162 0.00531651 0.00479607 0.00427032 0.00373926 0.00320287 0.00266116 0.00211414 0.00156179 0.00103612 0.000569105 0.000160748 -0.000188951 -0.000479993 -0.000712376 -0.000886101 -0.00100117 -0.00107105 -0.00110921 -0.00111565 -0.00109037 -0.00103337 -0.000944653 -0.000824217 -0.000672061 -0.000514547 -0.000378034 -0.000262524 -0.000168015 -9.45086e-05 -4.20038e-05 -1.0501e-05 0 0 -1.16443e-05 -4.65771e-05 -0.000104798 -0.000186308 -0.000291107 -0.000419194 -0.000570569 -0.000745233 -0.000945117 -0.00117215 -0.00142634 -0.00170767 -0.00201616 -0.00235179 -0.00271458 -0.00310452 -0.00350946 -0.00391727 -0.00432793 -0.00474146 -0.00515784 -0.00557709 -0.0059992 -0.00642416 -0.00684063 -0.00723724 -0.00761399 -0.00797087 -0.0083079 -0.00862507 -0.00892237 -0.00919982 -0.00945054 -0.00966767 -0.00985121 -0.0100012 -0.0101175 -0.0102003 -0.0102495 -0.0102651 -0.0102571 -0.0102356 -0.0102006 -0.010152 -0.0100899 -0.0100143 -0.00992517 -0.00982249 -0.00970641 -0.00957703 -0.00943437 -0.00927841 -0.00910917 -0.00892664 -0.00873082 -0.0085217 -0.0082783 -0.00797961 -0.00762564 -0.00721637 -0.00675182 -0.00623198 -0.00565686 -0.00502644 -0.00434539 -0.00361835 -0.00284532 -0.00202631 -0.00116131 -0.000250319 0.000706657 0.00170962 0.00271732 0.0036885 0.00462316 0.00552131 0.00638294 0.00720806 0.00799666 0.00874874 0.00943408 0.0100225 0.0105139 0.0109084 0.0112059 0.0114064 0.01151 0.0115166 0.0114313 0.0112589 0.0109996 0.0106532 0.0102198 0.00969938 0.00909196 0.00839753 0.00765577 0.00690635 0.00614927 0.00538453 0.00461213 0.00383207 0.00304436 0.00224898 0.00149201 0.000819512 0.000231477 -0.00027209 -0.000691189 -0.00102582 -0.00127599 -0.00144168 -0.00154231 -0.00159726 -0.00160653 -0.00157013 -0.00148805 -0.0013603 -0.00118687 -0.000967768 -0.000740947 -0.000544369 -0.000378034 -0.000241942 -0.000136092 -6.04855e-05 -1.51214e-05 0 0 -1.58491e-05 -6.33966e-05 -0.000142642 -0.000253586 -0.000396229 -0.000570569 -0.000776608 -0.00101435 -0.00128641 -0.00159543 -0.0019414 -0.00232433 -0.00274421 -0.00320105 -0.00369485 -0.00422559 -0.00477677 -0.00533183 -0.00589079 -0.00645365 -0.0070204 -0.00759104 -0.00816557 -0.008744 -0.00931086 -0.00985069 -0.0103635 -0.0108492 -0.011308 -0.0117397 -0.0121443 -0.012522 -0.0128632 -0.0131588 -0.0134086 -0.0136127 -0.0137711 -0.0138837 -0.0139507 -0.0139719 -0.013961 -0.0139318 -0.0138841 -0.013818 -0.0137335 -0.0136306 -0.0135093 -0.0133695 -0.0132115 -0.0130354 -0.0128412 -0.012629 -0.0123986 -0.0121501 -0.0118836 -0.011599 -0.0112677 -0.0108611 -0.0103793 -0.00982229 -0.00918998 -0.00848242 -0.00769961 -0.00684155 -0.00591456 -0.00492498 -0.0038728 -0.00275803 -0.00158067 -0.000340712 0.000961838 0.00232698 0.00369857 0.00502046 0.00629264 0.00751512 0.0086879 0.00981097 0.0108843 0.011908 0.0128408 0.0136417 0.0143106 0.0148475 0.0152524 0.0155254 0.0156664 0.0156754 0.0155593 0.0153247 0.0149716 0.0145002 0.0139103 0.0132019 0.0123752 0.01143 0.0104204 0.00940031 0.00836984 0.00732894 0.00627762 0.00521588 0.00414371 0.00306112 0.0020308 0.00111545 0.000315066 -0.000370345 -0.000940786 -0.00139626 -0.00173676 -0.00196229 -0.00209925 -0.00217405 -0.00218667 -0.00213712 -0.00202541 -0.00185152 -0.00161546 -0.00131724 -0.00100851 -0.000740947 -0.000514547 -0.00032931 -0.000185237 -8.23275e-05 -2.05819e-05 0 0 -2.07009e-05 -8.28037e-05 -0.000186308 -0.000331215 -0.000517523 -0.000745233 -0.00101435 -0.00132486 -0.00168021 -0.00208382 -0.00253571 -0.00303586 -0.00358428 -0.00418097 -0.00482592 -0.00551914 -0.00623904 -0.00696403 -0.0076941 -0.00842925 -0.0091695 -0.00991482 -0.0106652 -0.0114207 -0.0121611 -0.0128662 -0.013536 -0.0141704 -0.0147696 -0.0153335 -0.015862 -0.0163552 -0.016801 -0.017187 -0.0175133 -0.0177798 -0.0179867 -0.0181339 -0.0182213 -0.018249 -0.0182348 -0.0181966 -0.0181344 -0.018048 -0.0179377 -0.0178032 -0.0176447 -0.0174622 -0.0172558 -0.0170258 -0.0167722 -0.016495 -0.0161941 -0.0158696 -0.0155214 -0.0151497 -0.014717 -0.014186 -0.0135567 -0.0128291 -0.0120032 -0.0110791 -0.0100566 -0.0089359 -0.00772514 -0.00643262 -0.00505835 -0.00360233 -0.00206455 -0.000445012 0.00125628 0.00303932 0.00483079 0.00655733 0.00821896 0.00981567 0.0113475 0.0128143 0.0142163 0.0155533 0.0167717 0.0178177 0.0186914 0.0193926 0.0199215 0.0202781 0.0204622 0.020474 0.0203223 0.0200159 0.0195548 0.018939 0.0181685 0.0172433 0.0161635 0.0149289 0.0136103 0.012278 0.010932 0.00957249 0.00819934 0.00681257 0.00541219 0.00399819 0.00265247 0.00145691 0.000411515 -0.000483715 -0.00122878 -0.00182368 -0.00226842 -0.00256299 -0.00274188 -0.00283957 -0.00285606 -0.00279134 -0.00264543 -0.00241831 -0.00210999 -0.00172048 -0.00131724 -0.000967768 -0.000672061 -0.000430119 -0.000241942 -0.00010753 -2.68824e-05 0 0 -2.59242e-05 -0.000103697 -0.000233318 -0.000414787 -0.000648105 -0.000933272 -0.00127029 -0.00165915 -0.00210314 -0.00260553 -0.00316633 -0.00378552 -0.00446312 -0.00519913 -0.00599353 -0.00684634 -0.00773036 -0.00861841 -0.00951047 -0.0104065 -0.0113067 -0.0122108 -0.0131189 -0.0140311 -0.0149235 -0.0157723 -0.0165777 -0.0173395 -0.0180577 -0.0187325 -0.0193636 -0.0199513 -0.0204818 -0.0209415 -0.0213305 -0.0216487 -0.0218961 -0.0220727 -0.0221786 -0.0222137 -0.0222003 -0.0221606 -0.0220946 -0.0220022 -0.0218835 -0.0217385 -0.0215673 -0.0213696 -0.0211434 -0.0208864 -0.0205984 -0.0202796 -0.0199298 -0.0195492 -0.0191377 -0.0186954 -0.0181725 -0.0175195 -0.0167363 -0.015823 -0.0147796 -0.013606 -0.0123023 -0.0108684 -0.00931507 -0.00765288 -0.00588183 -0.00400194 -0.00201321 8.43764e-05 0.00229081 0.00460609 0.00693435 0.00917973 0.0113422 0.0134219 0.0154186 0.0173325 0.0191635 0.0209116 0.0225058 0.0238753 0.0250199 0.0259398 0.0266348 0.027105 0.0273504 0.027371 0.0271779 0.0267824 0.0261843 0.0253838 0.0243807 0.0231751 0.0217671 0.0201565 0.0184352 0.0166947 0.0149351 0.0131564 0.0113585 0.00954159 0.00770552 0.00585034 0.0040818 0.00250566 0.00112194 -6.93705e-05 -0.00106827 -0.00187477 -0.00248885 -0.00291052 -0.00318274 -0.00334846 -0.00340767 -0.00336038 -0.00320659 -0.0029463 -0.0025795 -0.0021062 -0.00161256 -0.00118474 -0.000822734 -0.00052655 -0.000296184 -0.000131638 -3.29094e-05 0 0 -3.12436e-05 -0.000124974 -0.000281193 -0.000499898 -0.00078109 -0.00112477 -0.00153094 -0.00199959 -0.00253183 -0.00312874 -0.00379032 -0.00451658 -0.00530752 -0.00616313 -0.00708341 -0.00806837 -0.00908481 -0.0100995 -0.0111125 -0.0121238 -0.0131334 -0.0141412 -0.0151473 -0.0161517 -0.01713 -0.0180577 -0.0189348 -0.0197613 -0.0205373 -0.0212627 -0.0219376 -0.0225618 -0.0231238 -0.0236116 -0.0240254 -0.0243652 -0.0246309 -0.0248225 -0.02494 -0.0249835 -0.0249794 -0.0249542 -0.024908 -0.0248407 -0.0247523 -0.0246429 -0.0245124 -0.0243609 -0.0241784 -0.023955 -0.0236909 -0.0233859 -0.02304 -0.0226533 -0.0222258 -0.0217575 -0.0211805 -0.0204269 -0.0194968 -0.0183901 -0.0171069 -0.0156472 -0.0140109 -0.012198 -0.0102223 -0.00809733 -0.0058231 -0.00339963 -0.000826917 0.00189505 0.00476626 0.00778671 0.0108296 0.0137683 0.0166026 0.0193326 0.0219583 0.0244797 0.0268969 0.0292097 0.0313224 0.0331391 0.0346599 0.0358848 0.0368137 0.0374467 0.0377837 0.0378248 0.0375837 0.0370739 0.0362956 0.0352486 0.0339331 0.0323489 0.0304962 0.0283748 0.0261048 0.023806 0.0214783 0.0191218 0.0167365 0.0143224 0.0118794 0.00940767 0.00704354 0.00492347 0.00304747 0.00141552 2.7641e-05 -0.00111618 -0.00201593 -0.00267162 -0.00313438 -0.00345533 -0.00363448 -0.00367182 -0.00356736 -0.00332109 -0.00293301 -0.00240313 -0.0018399 -0.00135176 -0.000938724 -0.000600783 -0.000337941 -0.000150196 -3.7549e-05 0 0 -3.66591e-05 -0.000146636 -0.000329932 -0.000586546 -0.000916478 -0.00131973 -0.0017963 -0.00234618 -0.00296627 -0.00365344 -0.0044077 -0.00522904 -0.00611746 -0.00707296 -0.00809555 -0.00918523 -0.0103024 -0.0114074 -0.0125003 -0.013581 -0.0146496 -0.0157061 -0.0167505 -0.0177827 -0.0187807 -0.0197222 -0.0206073 -0.0214361 -0.0222084 -0.0229243 -0.0235838 -0.0241868 -0.0247269 -0.0251974 -0.0255982 -0.0259294 -0.026191 -0.026383 -0.0265054 -0.0265582 -0.026572 -0.0265775 -0.0265746 -0.0265635 -0.0265441 -0.0265163 -0.0264802 -0.0264359 -0.0263606 -0.0262318 -0.0260496 -0.0258139 -0.0255247 -0.025182 -0.0247858 -0.0243361 -0.023741 -0.0229083 -0.0218381 -0.0205305 -0.0189853 -0.0172026 -0.0151824 -0.0129248 -0.0104468 -0.00776598 -0.00488216 -0.0017954 0.00149433 0.004987 0.00868263 0.0125812 0.0165167 0.0203229 0.024 0.0275479 0.0309666 0.0342562 0.0374165 0.0404476 0.0432213 0.0456092 0.0476114 0.0492277 0.0504583 0.0513032 0.0517623 0.0518356 0.0515395 0.0508905 0.0498885 0.0485335 0.0468256 0.0447646 0.0423507 0.0395839 0.0366192 0.0336117 0.0305616 0.0274687 0.0243332 0.0211549 0.0179339 0.0146702 0.0115377 0.00871033 0.00618809 0.00397096 0.00205896 0.000452086 -0.000849665 -0.00184629 -0.0025968 -0.0031602 -0.00353649 -0.00372567 -0.00372774 -0.00354269 -0.00317054 -0.00261128 -0.00199926 -0.00146884 -0.00102003 -0.000652819 -0.000367211 -0.000163205 -4.08012e-05 0 0 -4.21707e-05 -0.000168683 -0.000379537 -0.000674732 -0.00105427 -0.00151815 -0.00206637 -0.00269893 -0.00340647 -0.00417965 -0.00501845 -0.00592289 -0.00689295 -0.00792864 -0.00902996 -0.0101969 -0.0113831 -0.012542 -0.0136737 -0.0147782 -0.0158555 -0.0169055 -0.0179284 -0.018924 -0.0198755 -0.0207659 -0.0215953 -0.0223636 -0.0230709 -0.0237171 -0.0243022 -0.0248263 -0.0252912 -0.0256987 -0.0260487 -0.0263414 -0.0265766 -0.0267544 -0.0268748 -0.0269378 -0.0269781 -0.0270303 -0.0270945 -0.0271706 -0.0272587 -0.0273587 -0.0274707 -0.0275946 -0.0276901 -0.0277168 -0.0276746 -0.0275636 -0.0273838 -0.0271351 -0.0268176 -0.0264312 -0.025854 -0.0249637 -0.0237604 -0.022244 -0.0204147 -0.0182723 -0.015817 -0.0130486 -0.00998868 -0.00665883 -0.00305901 0.000810772 0.00495052 0.00936023 0.0140399 0.0189896 0.0239954 0.0288437 0.0335345 0.0380678 0.0424435 0.0466617 0.0507223 0.0546255 0.0582027 0.0612856 0.0638742 0.0659686 0.0675687 0.0686745 0.069286 0.0694032 0.0690455 0.0682321 0.0669631 0.0652385 0.0630582 0.0604223 0.0573308 0.0537836 0.0499782 0.046112 0.042185 0.0381972 0.0341486 0.0300392 0.0258689 0.0216379 0.0175643 0.0138662 0.0105438 0.00759695 0.00502569 0.00283002 0.00100995 -0.00043453 -0.00157 -0.00246306 -0.0031137 -0.00352192 -0.00368772 -0.00361111 -0.00329208 -0.00273063 -0.00209064 -0.00153598 -0.00106665 -0.000682658 -0.000383995 -0.000170664 -4.26661e-05 0 0 -4.77785e-05 -0.000191114 -0.000430006 -0.000764455 -0.00119446 -0.00172002 -0.00234114 -0.00305782 -0.00385243 -0.00470735 -0.00562259 -0.00659813 -0.00763399 -0.00873015 -0.00988663 -0.0111034 -0.0123269 -0.0135033 -0.0146328 -0.0157154 -0.0167509 -0.0177394 -0.018681 -0.0195756 -0.0204145 -0.0211888 -0.0218987 -0.022544 -0.0231248 -0.0236412 -0.024093 -0.0244803 -0.0248167 -0.0251156 -0.025377 -0.025601 -0.0257876 -0.0259367 -0.0260483 -0.0261225 -0.0261978 -0.0263128 -0.0264676 -0.0266621 -0.0268963 -0.0271702 -0.0274838 -0.0278372 -0.028167 -0.0284099 -0.0285659 -0.028635 -0.0286173 -0.0285127 -0.0283212 -0.0280428 -0.0275195 -0.026593 -0.0252635 -0.0235309 -0.0213951 -0.0188563 -0.0159145 -0.0125695 -0.00884782 -0.00477588 -0.000353647 0.00441887 0.00954167 0.0150148 0.0208381 0.0270118 0.0332659 0.0393307 0.0452061 0.0508922 0.056389 0.0616964 0.0668144 0.0717431 0.0762664 0.0801682 0.0834486 0.0861074 0.0881447 0.0895606 0.0903549 0.0905278 0.0901016 0.0890988 0.0875195 0.0853636 0.0826311 0.079322 0.0754363 0.0709741 0.066182 0.0613068 0.0563486 0.0513072 0.0461827 0.0409752 0.0356846 0.0303108 0.0251233 0.0203912 0.0161146 0.0122935 0.00892782 0.00601763 0.00356291 0.00156367 -5.39845e-05 -0.00136391 -0.0023661 -0.00306058 -0.00344732 -0.00352634 -0.00329763 -0.00276119 -0.00211404 -0.00155317 -0.00107859 -0.000690298 -0.000388293 -0.000172575 -4.31436e-05 0 0 -5.34823e-05 -0.000213929 -0.000481341 -0.000855717 -0.00133706 -0.00192536 -0.00262063 -0.00342287 -0.00430415 -0.00523656 -0.0062201 -0.00725477 -0.00834057 -0.0094775 -0.0106656 -0.0119048 -0.0131338 -0.0142914 -0.0153777 -0.0163925 -0.0173359 -0.0182078 -0.0190084 -0.0197375 -0.0203976 -0.0209909 -0.0215175 -0.0219772 -0.0223703 -0.0226965 -0.0229561 -0.0231488 -0.0233033 -0.0234481 -0.0235831 -0.0237084 -0.0238239 -0.0239297 -0.0240258 -0.0241121 -0.0242311 -0.024425 -0.0246939 -0.0250379 -0.0254568 -0.0259507 -0.0265196 -0.0271635 -0.0277911 -0.0283111 -0.0287235 -0.0290282 -0.0292253 -0.0293148 -0.0292966 -0.0291709 -0.0287374 -0.0277963 -0.0263475 -0.0243909 -0.0219266 -0.0189546 -0.0154749 -0.0114875 -0.00702426 -0.00211712 0.00323393 0.00902889 0.0152678 0.0219506 0.0290772 0.0366479 0.0443281 0.0517837 0.0590148 0.0660212 0.072803 0.0793602 0.0856927 0.0918007 0.0974126 0.102257 0.106334 0.109644 0.112186 0.113961 0.114969 0.115209 0.114708 0.113491 0.111558 0.108909 0.105544 0.101464 0.0966673 0.0911552 0.0852305 0.0791961 0.0730522 0.0667987 0.0604356 0.053963 0.0473808 0.0406889 0.0342147 0.0282852 0.0229005 0.0180606 0.0137654 0.0100149 0.00680923 0.00414829 0.00195125 0.000137254 -0.00129371 -0.00234163 -0.00300652 -0.00328837 -0.00318719 -0.00270297 -0.00206946 -0.00152042 -0.00105585 -0.000675742 -0.000380105 -0.000168935 -4.22338e-05 0 0 -5.92822e-05 -0.000237129 -0.00053354 -0.000948516 -0.00148206 -0.00213416 -0.00290483 -0.00379406 -0.00476162 -0.00576727 -0.00681099 -0.00789281 -0.00901271 -0.0101707 -0.0113668 -0.0126009 -0.0138039 -0.0149063 -0.0159082 -0.0168095 -0.0176104 -0.0183107 -0.0189105 -0.0194098 -0.0198249 -0.0201722 -0.0204517 -0.0206633 -0.0208072 -0.0208832 -0.0208914 -0.0208318 -0.0207511 -0.0206962 -0.020667 -0.0206635 -0.0206857 -0.0207336 -0.0208073 -0.0209067 -0.0210779 -0.0213668 -0.0217735 -0.022298 -0.0229402 -0.0237003 -0.0245781 -0.0255736 -0.0265626 -0.0274205 -0.0281473 -0.028743 -0.0292077 -0.0295414 -0.0297439 -0.0298154 -0.0295079 -0.0285736 -0.0270123 -0.0248242 -0.0220091 -0.0185672 -0.0144983 -0.0098026 -0.00451801 0.00131743 0.00770372 0.0146408 0.0221288 0.0301676 0.0387573 0.0478978 0.057182 0.066203 0.0749605 0.0834547 0.0916856 0.0996531 0.107357 0.114798 0.121641 0.127552 0.132532 0.136579 0.139694 0.141877 0.143128 0.143448 0.142864 0.141407 0.139077 0.135874 0.131797 0.126847 0.121024 0.114327 0.107124 0.09978 0.092296 0.0846718 0.0769073 0.0690025 0.0609575 0.0527722 0.0448385 0.0375483 0.0309015 0.0248982 0.0195383 0.0148219 0.0107489 0.00731935 0.00444571 0.00204043 0.000103489 -0.0013651 -0.00236534 -0.00289722 -0.00296076 -0.00255595 -0.0019569 -0.00143772 -0.000998417 -0.000638987 -0.00035943 -0.000159747 -3.99367e-05 0 0 -6.51783e-05 -0.000260713 -0.000586605 -0.00104285 -0.00162946 -0.00234642 -0.00319374 -0.00417141 -0.00522485 -0.00629947 -0.00739527 -0.00851224 -0.00965039 -0.0108097 -0.0119902 -0.0131919 -0.014337 -0.0153478 -0.0162244 -0.0169666 -0.0175745 -0.0180481 -0.0183874 -0.0185924 -0.0186963 -0.0187327 -0.0187013 -0.0186022 -0.0184355 -0.0182011 -0.017899 -0.0175292 -0.0171601 -0.0168599 -0.0166286 -0.0164662 -0.0163729 -0.0163484 -0.0163929 -0.0165063 -0.0167382 -0.0171382 -0.0177063 -0.0184424 -0.0193466 -0.0204188 -0.0216592 -0.0230675 -0.0244814 -0.025738 -0.0268374 -0.0277796 -0.0285646 -0.0291924 -0.029663 -0.0299764 -0.0298309 -0.0289248 -0.027258 -0.0248306 -0.0216426 -0.017694 -0.0129847 -0.00751481 -0.00132905 0.00552779 0.0130557 0.0212547 0.0301248 0.039666 0.0498783 0.0607616 0.0718277 0.0825883 0.0930433 0.103193 0.113037 0.122575 0.131808 0.140735 0.148952 0.156054 0.16204 0.166911 0.170667 0.173308 0.174833 0.175243 0.17457 0.172849 0.170079 0.166259 0.16139 0.155473 0.148506 0.14049 0.131862 0.123058 0.11408 0.104926 0.0955977 0.0860938 0.0764148 0.0665607 0.0569948 0.0481804 0.0401176 0.0328064 0.0262467 0.0204385 0.0153819 0.0110768 0.00742939 0.00434561 0.00182549 -0.000130966 -0.00152376 -0.00235288 -0.00261834 -0.00232014 -0.00177636 -0.00130508 -0.000906305 -0.000580035 -0.00032627 -0.000145009 -3.62522e-05 0 0 -7.01767e-05 -0.000280707 -0.00063159 -0.00112283 -0.00175442 -0.00252636 -0.00343866 -0.00449131 -0.00561247 -0.00673032 -0.00784485 -0.00895606 -0.0100639 -0.0111685 -0.0122698 -0.0133677 -0.0143763 -0.0152094 -0.0158671 -0.0163495 -0.0166564 -0.0167879 -0.016744 -0.0165247 -0.0161854 -0.0157819 -0.0153139 -0.0147816 -0.0141849 -0.0135238 -0.0127984 -0.0120086 -0.0112498 -0.0106174 -0.0101114 -0.00973171 -0.00947845 -0.00935157 -0.00935108 -0.00947697 -0.009782 -0.0103189 -0.0110878 -0.0120885 -0.0133212 -0.0147857 -0.0164821 -0.0184105 -0.0203626 -0.0221305 -0.023714 -0.0251132 -0.026328 -0.0273586 -0.0282048 -0.0288668 -0.0289813 -0.0281854 -0.0264791 -0.0238623 -0.020335 -0.0158974 -0.0105492 -0.00429061 0.00282637 0.0107497 0.0194793 0.0290152 0.0393575 0.050506 0.0624609 0.0752221 0.0882115 0.100851 0.113141 0.12508 0.13667 0.14791 0.158799 0.169339 0.179047 0.187442 0.194523 0.20029 0.204744 0.207884 0.209711 0.210224 0.20946 0.207457 0.204213 0.199729 0.194005 0.187041 0.178837 0.169393 0.159222 0.148835 0.138233 0.127415 0.116383 0.105135 0.093672 0.0819937 0.0706413 0.0601557 0.0505371 0.0417853 0.0339004 0.0268824 0.0207313 0.015447 0.0109303 0.00708181 0.00390143 0.00138921 -0.000454842 -0.00163074 -0.00213847 -0.00197804 -0.00151444 -0.00111265 -0.000772671 -0.00049451 -0.000278162 -0.000123627 -3.09068e-05 0 0 -7.32836e-05 -0.000293135 -0.000659553 -0.00117254 -0.00183209 -0.00263821 -0.0035909 -0.00469015 -0.00584313 -0.00695697 -0.00803167 -0.00906725 -0.0100637 -0.011021 -0.0119392 -0.0128182 -0.0135645 -0.0140842 -0.0143774 -0.0144442 -0.0142844 -0.0138981 -0.0132854 -0.0124461 -0.0114657 -0.0104293 -0.00933706 -0.00818891 -0.00698486 -0.00572491 -0.00440906 -0.00303731 -0.00173988 -0.000646987 0.000241375 0.000925203 0.0014045 0.00167926 0.00174948 0.00161517 0.00122094 0.000511376 -0.000513507 -0.00185371 -0.00350924 -0.0054801 -0.00776627 -0.0103678 -0.0130216 -0.0154647 -0.0176972 -0.019719 -0.0215301 -0.0231305 -0.0245202 -0.0256993 -0.0262341 -0.0256909 -0.0240699 -0.021371 -0.0175942 -0.0127396 -0.00680699 0.000203476 0.008232 0.0172188 0.0271638 0.038067 0.0499285 0.0627482 0.0765261 0.0912623 0.10628 0.120902 0.13513 0.148961 0.162398 0.17544 0.188086 0.200337 0.211629 0.221397 0.229643 0.236365 0.241564 0.245239 0.247392 0.248021 0.247167 0.24487 0.24113 0.235948 0.229322 0.221254 0.211742 0.200788 0.188981 0.176913 0.164583 0.151992 0.139139 0.126024 0.112648 0.0990106 0.0857358 0.0734482 0.062148 0.0518351 0.0425094 0.0341711 0.02682 0.0204562 0.0149766 0.010278 0.00636045 0.00322389 0.000868352 -0.000706164 -0.00149966 -0.00151214 -0.00115773 -0.000850577 -0.000590678 -0.000378034 -0.000212644 -9.45085e-05 -2.36271e-05 0 0 -7.44992e-05 -0.000297997 -0.000670493 -0.00119199 -0.00186248 -0.00268197 -0.00365046 -0.00476795 -0.0059168 -0.0069794 -0.00795574 -0.00884581 -0.00964963 -0.0103672 -0.0109985 -0.0115435 -0.0119016 -0.0119722 -0.0117552 -0.0112506 -0.0104585 -0.00937881 -0.00801156 -0.00635675 -0.00453703 -0.00267503 -0.000770766 0.00117577 0.00316457 0.00519565 0.00726899 0.0093846 0.0113697 0.0130513 0.0144296 0.0155045 0.016276 0.0167441 0.0169088 0.0167701 0.0162706 0.0153527 0.0140165 0.012262 0.0100892 0.00749798 0.00448846 0.00106062 -0.00245824 -0.00574081 -0.00878707 -0.011597 -0.0141707 -0.0165081 -0.0186092 -0.0204739 -0.0215891 -0.0214413 -0.0200306 -0.0173569 -0.0134202 -0.0082206 -0.00175805 0.00596746 0.0148879 0.0249351 0.0361092 0.0484101 0.0618378 0.0763923 0.0920737 0.108882 0.126033 0.142742 0.15901 0.174837 0.190222 0.205165 0.219667 0.233728 0.246696 0.25792 0.267399 0.275134 0.281125 0.285372 0.287875 0.288633 0.28769 0.28509 0.280832 0.274916 0.267342 0.25811 0.247221 0.234673 0.22114 0.207293 0.193131 0.178656 0.163866 0.148762 0.133344 0.117611 0.102278 0.088058 0.0749505 0.0629558 0.0520738 0.0423046 0.0336481 0.0261044 0.0195682 0.0139343 0.00920254 0.00537306 0.00244583 0.00042083 -0.000701924 -0.000922436 -0.00070624 -0.00051887 -0.000360327 -0.000230609 -0.000129718 -5.76523e-05 -1.44131e-05 0 0 -7.38233e-05 -0.000295293 -0.00066441 -0.00118117 -0.00184558 -0.00265764 -0.00361734 -0.00472469 -0.00583351 -0.00679763 -0.00761704 -0.00829175 -0.00882175 -0.00920705 -0.00944765 -0.00954354 -0.00938778 -0.00887341 -0.00800044 -0.00676887 -0.0051787 -0.00322992 -0.000922534 0.00174345 0.00460048 0.00748099 0.010385 0.0133125 0.0162634 0.0192378 0.0222358 0.0252572 0.0280788 0.0304775 0.0324533 0.0340061 0.035136 0.0358429 0.0361269 0.0359879 0.035367 0.0342051 0.0325024 0.0302587 0.0274741 0.0241485 0.0202821 0.0158747 0.0113274 0.00704132 0.00301639 -0.000747377 -0.00424997 -0.00749141 -0.0104717 -0.0131908 -0.0150465 -0.0154365 -0.014361 -0.0118198 -0.00781295 -0.00234048 0.00459761 0.0130013 0.0227939 0.0338986 0.0463155 0.0600444 0.0750854 0.0914386 0.109104 0.128081 0.14747 0.166371 0.184783 0.202706 0.220141 0.237087 0.253544 0.269513 0.284249 0.297009 0.307792 0.316599 0.323429 0.328283 0.33116 0.33206 0.33103 0.328116 0.323316 0.316632 0.308064 0.297611 0.285273 0.27105 0.255699 0.239974 0.223877 0.207407 0.190563 0.173347 0.155758 0.137796 0.120269 0.103985 0.0889445 0.0751474 0.0625935 0.0512829 0.0412156 0.0323916 0.0247052 0.0180505 0.0124277 0.00783673 0.00427758 0.00175025 0.000254743 -0.000208936 -0.000159967 -0.000117527 -8.16157e-05 -5.22341e-05 -2.93817e-05 -1.30585e-05 -3.26463e-06 0 0 -7.1256e-05 -0.000285024 -0.000641304 -0.0011401 -0.0017814 -0.00256521 -0.00349154 -0.00456038 -0.00559325 -0.00641165 -0.00701558 -0.00740506 -0.00758007 -0.00754062 -0.0072867 -0.00681832 -0.0060229 -0.00478786 -0.00311319 -0.000998901 0.00155501 0.00454855 0.00798171 0.0118545 0.0159469 0.0200387 0.0241302 0.0282211 0.0323116 0.0364017 0.0404913 0.0445804 0.0483876 0.0516317 0.0543125 0.0564301 0.0579845 0.0589757 0.0594037 0.0592685 0.0585101 0.0570686 0.0549439 0.0521362 0.0486454 0.0444715 0.0396145 0.0340744 0.0283354 0.0228816 0.0177132 0.01283 0.00823215 0.00391956 -0.000107738 -0.00384975 -0.00660616 -0.00767663 -0.00706117 -0.00475978 -0.000772456 0.0049008 0.01226 0.0213051 0.0319502 0.0441094 0.0577827 0.07297 0.0896714 0.107887 0.127616 0.14886 0.170592 0.191788 0.212447 0.232569 0.252155 0.271204 0.289716 0.307691 0.324289 0.338665 0.350822 0.360759 0.368475 0.373971 0.377247 0.378303 0.377187 0.373948 0.368585 0.361098 0.3