<?xml version="1.0"?> 
<VTKFile type="StructuredGrid" version="0.1"> 
<StructuredGrid WholeExtent="0 128 0 128 0 0"> 
<Piece Extent="0 128 0 128 0 0"> 
<PointData>
<DataArray type="Float32" Name="u" format="ascii" NumberOfComponents="1"> 
0 0 0 0 0 0 0 0 0 0 0 0 0 0 0 0 0 0 0 0 0 0 0 0 0 0 0 0 0 0 0 0 0 0 0 0 0 0 0 0 0 0 0 0 0 0 0 0 0 0 0 0 0 0 0 0 0 0 0 0 0 0 0 0 0 0 0 0 0 0 0 0 0 0 0 0 0 0 0 0 0 0 0 0 0 0 0 0 0 0 0 0 0 0 0 0 0 0 0 0 0 0 0 0 0 0 0 0 0 0 0 0 0 0 0 0 0 0 0 0 0 0 0 0 0 0 0 0 0 0 -2.97163e-07 -1.18865e-06 -2.67447e-06 -4.75462e-06 -7.42909e-06 -1.06979e-05 -1.4561e-05 -1.90185e-05 -2.37613e-05 -2.84804e-05 -3.3176e-05 -3.7848e-05 -4.24963e-05 -4.7121e-05 -5.17221e-05 -5.62995e-05 -6.04281e-05 -6.36824e-05 -6.60625e-05 -6.75683e-05 -6.82e-05 -6.79574e-05 -6.68406e-05 -6.48495e-05 -6.23403e-05 -5.96687e-05 -5.68349e-05 -5.38389e-05 -5.06805e-05 -4.736e-05 -4.38771e-05 -4.0232e-05 -3.69427e-05 -3.45273e-05 -3.29859e-05 -3.23183e-05 -3.25247e-05 -3.36049e-05 -3.55591e-05 -3.83872e-05 -4.20151e-05 -4.63683e-05 -5.14471e-05 -5.72514e-05 -6.37812e-05 -7.10364e-05 -7.90172e-05 -8.77234e-05 -9.63373e-05 -0.000104041 -0.000110834 -0.000116717 -0.00012169 -0.000125752 -0.000128904 -0.000131146 -0.000131611 -0.000129433 -0.000124613 -0.000117149 -0.000107042 -9.42916e-05 -7.88985e-05 -6.08624e-05 -4.03037e-05 -1.73428e-05 8.02026e-06 3.57855e-05 6.5953e-05 9.85226e-05 0.000133494 0.000170868 0.000209121 0.00024673 0.000283695 0.000320016 0.000355692 0.000390724 0.000425113 0.000458857 0.000490277 0.000517696 0.000541113 0.000560528 0.00057594 0.000587351 0.000594759 0.000598166 0.000597638 0.000593242 0.000584979 0.000572848 0.00055685 0.000536984 0.000513251 0.000485651 0.000455904 0.000425733 0.000395137 0.000364117 0.000332672 0.000300802 0.000268507 0.000235788 0.000204051 0.000174704 0.000147748 0.000123181 0.000101004 8.12169e-05 6.38199e-05 4.88128e-05 3.59142e-05 2.48427e-05 1.55982e-05 8.18086e-06 2.59057e-06 -1.17265e-06 -3.10879e-06 -3.21786e-06 -2.46368e-06 -1.81005e-06 -1.25698e-06 -8.04466e-07 -4.52512e-07 -2.01117e-07 -5.02791e-08 0 0 -1.18865e-06 -4.75462e-06 -1.06979e-05 -1.90185e-05 -2.97163e-05 -4.27915e-05 -5.8244e-05 -7.60738e-05 -9.50451e-05 -0.000113922 -0.000132704 -0.000151392 -0.000169985 -0.000188484 -0.000206888 -0.000225198 -0.000241712 -0.000254729 -0.00026425 -0.000270273 -0.0002728 -0.00027183 -0.000267362 -0.000259398 -0.000249361 -0.000238675 -0.00022734 -0.000215355 -0.000202722 -0.00018944 -0.000175508 -0.000160928 -0.000147771 -0.000138109 -0.000131943 -0.000129273 -0.000130099 -0.00013442 -0.000142237 -0.000153549 -0.00016806 -0.000185473 -0.000205789 -0.000229006 -0.000255125 -0.000284146 -0.000316069 -0.000350894 -0.000385349 -0.000416163 -0.000443336 -0.000466868 -0.000486759 -0.000503009 -0.000515617 -0.000524585 -0.000526445 -0.000517734 -0.00049845 -0.000468594 -0.000428166 -0.000377166 -0.000315594 -0.00024345 -0.000161215 -6.93713e-05 3.20811e-05 0.000143142 0.000263812 0.00039409 0.000533978 0.000683474 0.000836486 0.000986921 0.00113478 0.00128006 0.00142277 0.0015629 0.00170045 0.00183543 0.00196111 0.00207079 0.00216445 0.00224211 0.00230376 0.0023494 0.00237904 0.00239266 0.00239055 0.00237297 0.00233991 0.00229139 0.0022274 0.00214794 0.00205301 0.0019426 0.00182362 0.00170293 0.00158055 0.00145647 0.00133069 0.00120321 0.00107403 0.000943151 0.000816205 0.000698818 0.00059099 0.000492723 0.000404015 0.000324868 0.000255279 0.000195251 0.000143657 9.93707e-05 6.23929e-05 3.27234e-05 1.03623e-05 -4.6906e-06 -1.24352e-05 -1.28715e-05 -9.85471e-06 -7.2402e-06 -5.02791e-06 -3.21786e-06 -1.81005e-06 -8.04466e-07 -2.01117e-07 0 0 -2.67447e-06 -1.06979e-05 -2.40702e-05 -4.27915e-05 -6.68618e-05 -9.6281e-05 -0.000131049 -0.000171166 -0.000213851 -0.000256324 -0.000298584 -0.000340632 -0.000382467 -0.000424089 -0.000465499 -0.000506696 -0.000543853 -0.000573141 -0.000594562 -0.000608115 -0.0006138 -0.000611616 -0.000601565 -0.000583646 -0.000561062 -0.000537019 -0.000511514 -0.00048455 -0.000456125 -0.00042624 -0.000394894 -0.000362088 -0.000332484 -0.000310746 -0.000296873 -0.000290865 -0.000292722 -0.000302445 -0.000320032 -0.000345485 -0.000378135 -0.000417315 -0.000463024 -0.000515263 -0.000574031 -0.000639328 -0.000711155 -0.000789511 -0.000867035 -0.000936367 -0.000997507 -0.00105045 -0.00109521 -0.00113177 -0.00116014 -0.00118032 -0.0011845 -0.0011649 -0.00112151 -0.00105434 -0.000963374 -0.000848624 -0.000710087 -0.000547762 -0.000362733 -0.000156085 7.21824e-05 0.00032207 0.000593577 0.000886703 0.00120145 0.00153782 0.00188209 0.00222057 0.00255326 0.00288014 0.00320123 0.00351652 0.00382601 0.00412971 0.0044125 0.00465927 0.00487002 0.00504475 0.00518346 0.00528616 0.00535283 0.00538349 0.00537874 0.00533918 0.00526481 0.00515563 0.00501165 0.00483286 0.00461926 0.00437086 0.00410314 0.0038316 0.00355624 0.00327705 0.00299404 0.00270722 0.00241656 0.00212209 0.00183646 0.00157234 0.00132973 0.00110863 0.000909035 0.000730952 0.000574379 0.000439315 0.000323228 0.000223584 0.000140384 7.36277e-05 2.33151e-05 -1.05538e-05 -2.79791e-05 -2.89608e-05 -2.21731e-05 -1.62904e-05 -1.13128e-05 -7.2402e-06 -4.07261e-06 -1.81005e-06 -4.52512e-07 0 0 -4.75462e-06 -1.90185e-05 -4.27915e-05 -7.60738e-05 -0.000118865 -0.000171166 -0.000232976 -0.000304295 -0.00038018 -0.000455687 -0.000530816 -0.000605567 -0.00067994 -0.000753936 -0.000827553 -0.000900792 -0.000966849 -0.00101892 -0.001057 -0.00108109 -0.0010912 -0.00108732 -0.00106945 -0.00103759 -0.000997444 -0.0009547 -0.000909359 -0.000861422 -0.000810889 -0.000757759 -0.000702034 -0.000643712 -0.000591083 -0.000552437 -0.000527774 -0.000517093 -0.000520395 -0.000537679 -0.000568946 -0.000614196 -0.000672241 -0.000741894 -0.000823154 -0.000916023 -0.0010205 -0.00113658 -0.00126428 -0.00140357 -0.0015414 -0.00166465 -0.00177335 -0.00186747 -0.00194704 -0.00201203 -0.00206247 -0.00209834 -0.00210578 -0.00207093 -0.0019938 -0.00187438 -0.00171267 -0.00150867 -0.00126238 -0.000973799 -0.000644859 -0.000277485 0.000128324 0.000572568 0.00105525 0.00157636 0.00213591 0.00273389 0.00334594 0.00394769 0.00453912 0.00512025 0.00569107 0.00625159 0.0068018 0.0073417 0.00784444 0.00828314 0.00865781 0.00896844 0.00921505 0.00939762 0.00951615 0.00957065 0.0095622 0.00949187 0.00935966 0.00916557 0.0089096 0.00859175 0.00821202 0.00777041 0.00729447 0.00681173 0.0063222 0.00582587 0.00532275 0.00481283 0.00429611 0.0037726 0.00326482 0.00279527 0.00236396 0.00197089 0.00161606 0.00129947 0.00102112 0.000781004 0.000574627 0.000397483 0.000249572 0.000130894 4.14491e-05 -1.87624e-05 -4.97407e-05 -5.14858e-05 -3.94188e-05 -2.89608e-05 -2.01117e-05 -1.28715e-05 -7.2402e-06 -3.21786e-06 -8.04466e-07 0 0 -7.42909e-06 -2.97163e-05 -6.68618e-05 -0.000118865 -0.000185727 -0.000267447 -0.000364025 -0.000475462 -0.000594032 -0.000712011 -0.0008294 -0.000946199 -0.00106241 -0.00117802 -0.00129305 -0.00140749 -0.0015107 -0.00159206 -0.00165156 -0.00168921 -0.001705 -0.00169893 -0.00167101 -0.00162124 -0.00155851 -0.00149172 -0.00142087 -0.00134597 -0.00126701 -0.001184 -0.00109693 -0.0010058 -0.000923567 -0.000863183 -0.000824646 -0.000807958 -0.000813117 -0.000840124 -0.000888978 -0.000959681 -0.00105038 -0.00115921 -0.00128618 -0.00143129 -0.00159453 -0.00177591 -0.00197543 -0.00219309 -0.00240843 -0.00260102 -0.00277085 -0.00291793 -0.00304224 -0.0031438 -0.00322261 -0.00327865 -0.00329028 -0.00323584 -0.00311531 -0.00292871 -0.00267604 -0.00235729 -0.00197246 -0.00152156 -0.00100759 -0.00043357 0.000200507 0.000894638 0.00164882 0.00246307 0.00333736 0.00427171 0.00522804 0.00616826 0.00709238 0.00800039 0.0088923 0.00976811 0.0106278 0.0114714 0.0122569 0.0129424 0.0135278 0.0140132 0.0143985 0.0146838 0.014869 0.0149541 0.0149409 0.014831 0.0146245 0.0143212 0.0139212 0.0134246 0.0128313 0.0121413 0.0113976 0.0106433 0.00987843 0.00910292 0.00831679 0.00752004 0.00671268 0.0058947 0.00510128 0.00436761 0.00369369 0.00307952 0.0025251 0.00203042 0.0015955 0.00122032 0.000897854 0.000621067 0.000389956 0.000204521 6.47642e-05 -2.93162e-05 -7.77199e-05 -8.04466e-05 -6.15919e-05 -4.52512e-05 -3.14245e-05 -2.01117e-05 -1.13128e-05 -5.02791e-06 -1.25698e-06 0 0 -1.06979e-05 -4.27915e-05 -9.6281e-05 -0.000171166 -0.000267447 -0.000385124 -0.000524196 -0.000684665 -0.000855406 -0.0010253 -0.00119434 -0.00136253 -0.00152987 -0.00169636 -0.00186199 -0.00202678 -0.00217541 -0.00229257 -0.00237825 -0.00243246 -0.0024552 -0.00244647 -0.00240626 -0.00233458 -0.00224425 -0.00214807 -0.00204606 -0.0019382 -0.0018245 -0.00170496 -0.00157958 -0.00144835 -0.00132994 -0.00124298 -0.00118749 -0.00116346 -0.00117089 -0.00120978 -0.00128013 -0.00138194 -0.00151254 -0.00166926 -0.0018521 -0.00206105 -0.00229612 -0.00255731 -0.00284462 -0.00315804 -0.00346814 -0.00374547 -0.00399003 -0.00420181 -0.00438083 -0.00452708 -0.00464055 -0.00472126 -0.00473801 -0.0046596 -0.00448605 -0.00421735 -0.0038535 -0.0033945 -0.00284035 -0.00219105 -0.00145093 -0.000624341 0.000288729 0.00128828 0.00237431 0.00354681 0.0048058 0.00615126 0.00752837 0.00888229 0.010213 0.0115206 0.0128049 0.0140661 0.0153041 0.0165188 0.01765 0.0186371 0.0194801 0.020179 0.0207339 0.0211446 0.0214113 0.021534 0.021515 0.0213567 0.0210592 0.0206225 0.0200466 0.0193314 0.018477 0.0174834 0.0164126 0.0153264 0.0142249 0.0131082 0.0119762 0.0108289 0.00966626 0.00848836 0.00734584 0.00628936 0.00531891 0.00443451 0.00363614 0.00292381 0.00229751 0.00175726 0.00129291 0.000894336 0.000561536 0.000294511 9.32604e-05 -4.22154e-05 -0.000111917 -0.000115843 -8.86924e-05 -6.51618e-05 -4.52512e-05 -2.89608e-05 -1.62904e-05 -7.2402e-06 -1.81005e-06 0 0 -1.4561e-05 -5.8244e-05 -0.000131049 -0.000232976 -0.000364025 -0.000524196 -0.000713489 -0.000931905 -0.0011643 -0.00139554 -0.00162562 -0.00185455 -0.00208232 -0.00230893 -0.00253438 -0.00275868 -0.00296097 -0.00312044 -0.00323706 -0.00331085 -0.0033418 -0.00332991 -0.00327519 -0.00317763 -0.00305467 -0.00292377 -0.00278491 -0.0026381 -0.00248335 -0.00232064 -0.00214998 -0.00197137 -0.00181019 -0.00169184 -0.00161631 -0.0015836 -0.00159371 -0.00164664 -0.0017424 -0.00188097 -0.00205874 -0.00227205 -0.00252091 -0.00280532 -0.00312528 -0.00348079 -0.00387184 -0.00429845 -0.00472053 -0.005098 -0.00543087 -0.00571914 -0.0059628 -0.00616186 -0.00631631 -0.00642616 -0.00644895 -0.00634224 -0.00610601 -0.00574028 -0.00524504 -0.00462029 -0.00386603 -0.00298226 -0.00197488 -0.000849798 0.000392993 0.00175349 0.0032317 0.00482761 0.00654123 0.00837255 0.010247 0.0120898 0.0139011 0.0156808 0.0174289 0.0191455 0.0208305 0.022484 0.0240236 0.0253671 0.0265145 0.0274659 0.0282211 0.0287802 0.0291432 0.0293101 0.0292842 0.0290688 0.0286639 0.0280695 0.0272856 0.0263122 0.0251493 0.0237969 0.0223393 0.0208609 0.0193617 0.0178417 0.0163009 0.0147393 0.0131568 0.0115536 0.00999851 0.00856052 0.00723963 0.00603586 0.00494919 0.00397963 0.00312717 0.00239183 0.00175979 0.00121729 0.000764313 0.000400862 0.000126938 -5.74598e-05 -0.000152331 -0.000157675 -0.00012072 -8.86924e-05 -6.15919e-05 -3.94188e-05 -2.21731e-05 -9.85471e-06 -2.46368e-06 0 0 -1.90185e-05 -7.60738e-05 -0.000171166 -0.000304295 -0.000475462 -0.000684665 -0.000931905 -0.00121718 -0.00152072 -0.00182275 -0.00212326 -0.00242227 -0.00271976 -0.00301574 -0.00331021 -0.00360317 -0.0038674 -0.00407567 -0.004228 -0.00432437 -0.0043648 -0.00434927 -0.0042778 -0.00415037 -0.00398978 -0.0038188 -0.00363744 -0.00344569 -0.00324355 -0.00303104 -0.00280813 -0.00257485 -0.00236433 -0.00220975 -0.00211109 -0.00206837 -0.00208158 -0.00215072 -0.00227578 -0.00245678 -0.00268896 -0.00296757 -0.00329262 -0.00366409 -0.004082 -0.00454633 -0.0050571 -0.0056143 -0.00616559 -0.00665861 -0.00709338 -0.00746989 -0.00778815 -0.00804814 -0.00824987 -0.00839335 -0.00842312 -0.00828374 -0.0079752 -0.00749751 -0.00685066 -0.00603466 -0.0050495 -0.00389519 -0.00257944 -0.00110994 0.000513297 0.00229027 0.00422099 0.00630545 0.00854364 0.0109356 0.0133838 0.0157907 0.0181565 0.020481 0.0227643 0.0250064 0.0272072 0.0293668 0.0313778 0.0331326 0.0346312 0.0358738 0.0368602 0.0375905 0.0380646 0.0382826 0.0382488 0.0379675 0.0374386 0.0366623 0.0356384 0.034367 0.0328481 0.0310817 0.0291779 0.0272469 0.0252888 0.0233035 0.021291 0.0192513 0.0171845 0.0150904 0.0130593 0.0111811 0.00945585 0.00788357 0.00646425 0.00519788 0.00408447 0.00312402 0.00229851 0.00158993 0.000998286 0.000523575 0.000165796 -7.50496e-05 -0.000198963 -0.000205943 -0.000157675 -0.000115843 -8.04466e-05 -5.14858e-05 -2.89608e-05 -1.28715e-05 -3.21786e-06 0 0 -2.3593e-05 -9.43721e-05 -0.000212337 -0.000377489 -0.000589826 -0.000849349 -0.00115606 -0.00150995 -0.00188562 -0.00225764 -0.00262601 -0.00299074 -0.00335182 -0.00370925 -0.00406304 -0.00441319 -0.00472574 -0.00496678 -0.00513629 -0.00523427 -0.00526074 -0.00521568 -0.00509909 -0.00491098 -0.00468106 -0.00443901 -0.00418484 -0.00391856 -0.00364016 -0.00334964 -0.00304701 -0.00273225 -0.00244811 -0.00223733 -0.00209989 -0.0020358 -0.00204507 -0.00212768 -0.00228364 -0.00251296 -0.0028093 -0.00316634 -0.00358407 -0.00406251 -0.00460165 -0.00520148 -0.00586202 -0.00658325 -0.00729773 -0.00793801 -0.00850409 -0.00899597 -0.00941365 -0.00975712 -0.0100264 -0.0102215 -0.0102713 -0.0101048 -0.00972192 -0.00912275 -0.00830725 -0.00727543 -0.00602728 -0.00456281 -0.0028919 -0.00102446 0.00103953 0.00330005 0.00575711 0.00841071 0.0112608 0.0143075 0.0174263 0.0204928 0.023507 0.0264688 0.0293784 0.0322356 0.0350405 0.0377931 0.0403564 0.0425934 0.0445041 0.0460884 0.0473464 0.0482781 0.0488835 0.0491626 0.0491205 0.0487626 0.0480889 0.0470992 0.0457938 0.0441724 0.0422352 0.0399821 0.0375532 0.0350884 0.0325879 0.0300515 0.0274794 0.0248714 0.0222276 0.019548 0.0169474 0.0145407 0.0123279 0.0103089 0.00848372 0.00685245 0.00541503 0.00417148 0.00309977 0.00217786 0.00140577 0.000783493 0.000311026 -1.16289e-05 -0.000184472 -0.000207502 -0.000158869 -0.00011672 -8.10555e-05 -5.18755e-05 -2.918e-05 -1.29689e-05 -3.24222e-06 0 0 -2.78075e-05 -0.00011123 -0.000250268 -0.00044492 -0.000695188 -0.00100107 -0.00136257 -0.00177968 -0.00221995 -0.00265093 -0.00307262 -0.00348501 -0.00388811 -0.00428192 -0.00466643 -0.00504165 -0.00536709 -0.00560226 -0.00574716 -0.0058018 -0.00576616 -0.00564025 -0.00542408 -0.00511764 -0.00476 -0.00439024 -0.00400835 -0.00361434 -0.0032082 -0.00278994 -0.00235955 -0.00191704 -0.00151729 -0.00121519 -0.00101073 -0.000903911 -0.00089474 -0.000983213 -0.00116933 -0.00145309 -0.00182582 -0.00227884 -0.00281214 -0.00342573 -0.0041196 -0.00489377 -0.00574821 -0.00668295 -0.00761138 -0.00844691 -0.00918953 -0.00983926 -0.0103961 -0.01086 -0.011231 -0.0115091 -0.0116042 -0.011426 -0.0109745 -0.0102497 -0.0092517 -0.00798042 -0.00643587 -0.00461806 -0.00253958 -0.00021304 0.00236157 0.00518424 0.00825498 0.0115738 0.0151406 0.0189556 0.0228621 0.0267036 0.0304802 0.0341918 0.0378385 0.0414202 0.0449369 0.0483887 0.0516036 0.0544097 0.056807 0.0587954 0.0603751 0.0615459 0.0623079 0.0626611 0.0626113 0.0621644 0.0613203 0.0600791 0.0584407 0.0564051 0.0539724 0.0511426 0.0480901 0.0449895 0.0418408 0.038644 0.0353991 0.032106 0.0287648 0.0253755 0.0220822 0.019029 0.0162159 0.0136429 0.01131 0.00921721 0.00736449 0.00575187 0.00435429 0.0031467 0.00212909 0.00130146 0.000663817 0.000216158 -4.15163e-05 -0.000109207 -8.36114e-05 -6.14288e-05 -4.26589e-05 -2.73017e-05 -1.53572e-05 -6.82542e-06 -1.70635e-06 0 0 -3.16619e-05 -0.000126648 -0.000284957 -0.00050659 -0.000791548 -0.00113983 -0.00155143 -0.00202636 -0.00252373 -0.00300264 -0.00346309 -0.00390509 -0.00432864 -0.00473374 -0.00512038 -0.00548857 -0.00579144 -0.00598212 -0.00606062 -0.00602693 -0.00588106 -0.005623 -0.00525276 -0.00477034 -0.00422661 -0.00367249 -0.00310796 -0.00253302 -0.00194768 -0.00135193 -0.00074578 -0.000129223 0.000428129 0.000856668 0.00115639 0.0013273 0.0013694 0.00128268 0.00106715 0.000722811 0.000261463 -0.000305078 -0.000976814 -0.00175374 -0.00263587 -0.00362318 -0.00471569 -0.0059134 -0.00710652 -0.00818529 -0.0091497 -0.00999975 -0.0107354 -0.0113568 -0.0118638 -0.0122564 -0.0124219 -0.0122473 -0.0117329 -0.0108784 -0.009684 -0.00814962 -0.00627526 -0.00406094 -0.00152247 0.00132431 0.00447942 0.00794284 0.0117146 0.0157947 0.020183 0.0248797 0.029691 0.0344231 0.0390761 0.0436499 0.0481445 0.05256 0.0568963 0.0611535 0.0651193 0.0685814 0.0715399 0.0739948 0.0759461 0.0773938 0.0783378 0.0787782 0.0787212 0.0781727 0.0771329 0.0756017 0.0735791 0.0710652 0.0680598 0.0645632 0.0607887 0.0569502 0.0530476 0.0490809 0.04505 0.0409551 0.0367961 0.032573 0.0284637 0.0246461 0.0211201 0.0178858 0.0149431 0.0122922 0.00993284 0.00786518 0.00606208 0.00449643 0.00316823 0.00207747 0.00122417 0.000608311 0.000229903 8.89429e-05 6.80969e-05 5.00304e-05 3.47433e-05 2.22357e-05 1.25076e-05 5.55893e-06 1.38973e-06 0 0 -3.51562e-05 -0.000140625 -0.000316406 -0.000562499 -0.000878905 -0.00126562 -0.00172265 -0.00225 -0.00279693 -0.00331274 -0.00379742 -0.00425098 -0.00467341 -0.00506471 -0.00542489 -0.00575393 -0.00599878 -0.00610636 -0.00607666 -0.00590969 -0.00560545 -0.00516393 -0.00458514 -0.00386907 -0.0030809 -0.00228576 -0.00148366 -0.000674604 0.000141411 0.000964385 0.00179432 0.00263121 0.00338815 0.00397824 0.00440147 0.00465784 0.00474736 0.00467001 0.00442581 0.00401476 0.00345256 0.00275494 0.0019219 0.000953446 -0.000150434 -0.00138974 -0.00276446 -0.0042746 -0.00578317 -0.00715317 -0.0083846 -0.00947745 -0.0104317 -0.0112475 -0.0119246 -0.0124632 -0.0127243 -0.0125689 -0.0119971 -0.0110088 -0.00960416 -0.00778303 -0.00554546 -0.00289146 0.000159421 0.0035876 0.00739308 0.0115759 0.0161359 0.0210733 0.026388 0.03208 0.0379132 0.0436514 0.0492947 0.0548431 0.0602966 0.0656552 0.0709188 0.0760875 0.0809034 0.0851085 0.0887029 0.0916866 0.0940595 0.0958218 0.0969732 0.097514 0.0974501 0.0967876 0.0955267 0.0936672 0.0912091 0.0881525 0.0844974 0.0802438 0.075649 0.0709704 0.0662081 0.0613621 0.0564323 0.0514188 0.0463215 0.0411405 0.0360919 0.0313918 0.0270404 0.0230374 0.0193831 0.0160773 0.0131201 0.0105114 0.00822314 0.00622706 0.0045232 0.00311154 0.00199208 0.00116483 0.000629786 0.000386947 0.000296256 0.000217657 0.000151151 9.67367e-05 5.44144e-05 2.41842e-05 6.04604e-06 0 0 -3.82904e-05 -0.000153162 -0.000344614 -0.000612647 -0.000957261 -0.00137846 -0.00187623 -0.00245059 -0.00303958 -0.00358125 -0.00407562 -0.00452267 -0.00492241 -0.00527484 -0.00557995 -0.00583775 -0.00598913 -0.00597497 -0.00579528 -0.00545006 -0.00493931 -0.00426302 -0.00342121 -0.00241386 -0.00132284 -0.000230047 0.000864537 0.00196091 0.00305907 0.00415901 0.00526074 0.00636426 0.00736278 0.00814953 0.0087245 0.0090877 0.00923913 0.00917877 0.00890665 0.00842274 0.00774747 0.00690123 0.00588402 0.00469584 0.00333669 0.00180658 0.000105498 -0.00176655 -0.00364131 -0.00535054 -0.00689422 -0.00827237 -0.00948497 -0.010532 -0.0114136 -0.0121296 -0.0125114 -0.0123906 -0.0117672 -0.010641 -0.00901217 -0.00688066 -0.00424647 -0.00110961 0.0025061 0.00657682 0.0111026 0.0160833 0.021519 0.0274098 0.0337556 0.0405564 0.0475285 0.0543884 0.0611361 0.0677715 0.0742947 0.0807056 0.0870043 0.0931908 0.098956 0.103991 0.108296 0.111871 0.114715 0.11683 0.118214 0.118868 0.118798 0.118009 0.116502 0.114275 0.111331 0.107667 0.103285 0.0981844 0.0926709 0.0870502 0.0813225 0.0754877 0.0695459 0.063497 0.057341 0.0510779 0.0449667 0.0392663 0.0339767 0.0290979 0.0246299 0.0205726 0.0169262 0.0136906 0.0108375 0.0083386 0.006194 0.00440365 0.00296756 0.00188572 0.00115813 0.000784805 0.000600866 0.000441453 0.000306564 0.000196201 0.000110363 4.90503e-05 1.22626e-05 0 0 -4.10646e-05 -0.000164258 -0.000369581 -0.000657033 -0.00102661 -0.00147832 -0.00201216 -0.00262813 -0.00325166 -0.00380817 -0.00429768 -0.00472017 -0.00507565 -0.00536411 -0.00558557 -0.00574001 -0.00576247 -0.00558796 -0.00521649 -0.00464805 -0.00388266 -0.00292029 -0.00176097 -0.000404677 0.00104754 0.00249464 0.00393663 0.00537352 0.00680528 0.00823194 0.00965349 0.0110699 0.012352 0.0133705 0.0141255 0.0146169 0.0148447 0.014809 0.0145097 0.0139468 0.0131462 0.0121338 0.0109095 0.00947343 0.00782551 0.00596576 0.00389417 0.00161075 -0.000680959 -0.0027774 -0.00467858 -0.00638449 -0.00789513 -0.00921051 -0.0103306 -0.0112555 -0.0117833 -0.0117125 -0.0110431 -0.00977488 -0.00790803 -0.0054425 -0.00237828 0.00128461 0.00551757 0.010292 0.0156078 0.0214651 0.0278639 0.0348041 0.0422857 0.0503088 0.0585371 0.0666342 0.0746002 0.0824351 0.0901388 0.0977114 0.105153 0.112463 0.119277 0.125229 0.130319 0.134547 0.137914 0.140418 0.142061 0.142841 0.142765 0.141837 0.140058 0.137427 0.133944 0.129609 0.124423 0.118385 0.111854 0.10519 0.0983907 0.0914578 0.0843908 0.0771897 0.0698545 0.0623853 0.0550882 0.0482695 0.0419291 0.0360671 0.0306835 0.0257782 0.0213512 0.0174026 0.013905 0.010831 0.00818062 0.00595381 0.00415059 0.00277097 0.00181494 0.00128252 0.000981927 0.000721416 0.000500983 0.000320629 0.000180354 8.01573e-05 2.00393e-05 0 0 -4.34786e-05 -0.000173914 -0.000391307 -0.000695657 -0.00108696 -0.00156523 -0.00213045 -0.00278263 -0.00343318 -0.0039935 -0.00446359 -0.00484347 -0.00513312 -0.00533255 -0.00544175 -0.00546073 -0.00531881 -0.00494533 -0.00434028 -0.00350366 -0.00243548 -0.00113574 0.000395579 0.00215846 0.00403025 0.00588831 0.00773263 0.00956322 0.0113801 0.0131832 0.0149726 0.0167482 0.0183558 0.0196413 0.0206044 0.0212454 0.0215641 0.0215606 0.0212348 0.0205868 0.0196487 0.0184526 0.0169984 0.0152862 0.013316 0.0110878 0.00860156 0.0058573 0.0030979 0.000566243 -0.00173766 -0.00381382 -0.00566222 -0.00728288 -0.00867579 -0.00984095 -0.01054 -0.0105346 -0.00982478 -0.00841049 -0.00629175 -0.00346855 5.90975e-05 0.0042912 0.00919383 0.0147331 0.0209089 0.0277214 0.0351705 0.0432562 0.0519785 0.0613374 0.0709389 0.0803887 0.089687 0.0988338 0.107829 0.116673 0.125365 0.133905 0.141867 0.148822 0.154772 0.159716 0.163654 0.166586 0.168512 0.169433 0.169351 0.168272 0.166195 0.163121 0.159048 0.153979 0.147911 0.140846 0.1332 0.125389 0.117413 0.109272 0.100967 0.0924969 0.0838621 0.0750626 0.0664564 0.0584014 0.0508976 0.0439451 0.0375439 0.0316939 0.0263951 0.0216477 0.0174259 0.0137044 0.0104831 0.00776202 0.00554119 0.00382059 0.00260022 0.00188008 0.00143944 0.00105755 0.000734407 0.000470021 0.000264387 0.000117505 2.93763e-05 0 0 -4.55325e-05 -0.00018213 -0.000409793 -0.000728521 -0.00113831 -0.00163917 -0.00223109 -0.00291408 -0.00358413 -0.00413723 -0.00457338 -0.00489258 -0.00509483 -0.00518013 -0.00514848 -0.00499989 -0.00465815 -0.00404707 -0.00316665 -0.00201689 -0.000597791 0.00109065 0.00304843 0.00527555 0.0076253 0.00995096 0.0122525 0.01453 0.0167834 0.0190127 0.0212179 0.0233991 0.0253743 0.0269617 0.0281614 0.0289732 0.0293973 0.0294336 0.0290822 0.0283429 0.0272551 0.0258576 0.0241507 0.0221342 0.0198082 0.0171727 0.0142277 0.0109731 0.00769525 0.0046804 0.00192853 -0.000560354 -0.00278625 -0.00474915 -0.00644907 -0.007886 -0.00878144 -0.00885689 -0.00811235 -0.00654783 -0.00416332 -0.000958818 0.00306567 0.00791015 0.0135349 0.0199001 0.0270058 0.0348521 0.0434388 0.0527661 0.0628338 0.0736421 0.0847338 0.095652 0.106397 0.116968 0.127365 0.137589 0.147639 0.157516 0.166725 0.174771 0.181656 0.187378 0.191937 0.195335 0.19757 0.198643 0.198556 0.197313 0.194914 0.191357 0.186645 0.180775 0.173749 0.165567 0.156706 0.147647 0.138389 0.128931 0.119274 0.109419 0.0993638 0.0891099 0.0790712 0.069662 0.0608822 0.0527319 0.0452111 0.0383198 0.032058 0.0264256 0.0214 0.0169586 0.0131014 0.00982827 0.00713934 0.00503457 0.00351396 0.0025775 0.0019734 0.00144985 0.00100684 0.000644376 0.000362461 0.000161094 4.02735e-05 0 0 -4.63046e-05 -0.000185218 -0.000416741 -0.000740873 -0.00115761 -0.00166697 -0.00226892 -0.00296349 -0.00362982 -0.00414706 -0.00451521 -0.00473426 -0.00480423 -0.00472511 -0.00449689 -0.00411959 -0.00351253 -0.00259505 -0.00136715 0.00017117 0.00201991 0.00417907 0.00664865 0.00942865 0.0123451 0.0152241 0.0180656 0.0208696 0.0236361 0.0263651 0.0290567 0.0317107 0.0341148 0.0360566 0.0375361 0.0385532 0.0391079 0.0392003 0.0388304 0.0379982 0.0367506 0.0351346 0.0331502 0.0307975 0.0280764 0.024987 0.0215291 0.017703 0.0138424 0.0102814 0.00701994 0.00405809 0.00139582 -0.000966866 -0.00302998 -0.00479351 -0.00593525 -0.00613296 -0.00538665 -0.00369631 -0.00106196 0.00251642 0.00703882 0.0125052 0.0188695 0.0260855 0.0341532 0.0430726 0.0528437 0.0634665 0.074941 0.0872672 0.0999209 0.112378 0.124639 0.136703 0.148571 0.160242 0.171716 0.182995 0.193511 0.202702 0.210567 0.217105 0.222317 0.226204 0.228764 0.229998 0.229907 0.228493 0.225754 0.221691 0.216304 0.209593 0.201558 0.192199 0.182059 0.171681 0.161065 0.150212 0.13912 0.127791 0.116224 0.104419 0.0928501 0.0819915 0.071843 0.0624047 0.0536765 0.0456586 0.0383508 0.0317533 0.0258479 0.0206169 0.0160602 0.0121779 0.00896983 0.00643611 0.00457671 0.00339164 0.00259673 0.0019078 0.00132486 0.000847911 0.00047695 0.000211978 5.29944e-05 0 0 -4.4873e-05 -0.000179492 -0.000403857 -0.000717967 -0.00112182 -0.00161543 -0.00219877 -0.00287187 -0.00349556 -0.0039307 -0.00417728 -0.00423531 -0.00410479 -0.00378572 -0.00327809 -0.00258191 -0.00161398 -0.000291119 0.00138669 0.00341943 0.00580711 0.00854974 0.0116473 0.0150998 0.0187021 0.0222492 0.025741 0.0291776 0.0325589 0.0358849 0.0391557 0.0423712 0.045285 0.0476507 0.0494684 0.050738 0.0514595 0.0516329 0.0512583 0.0503356 0.0489205 0.0470689 0.0447808 0.0420561 0.0388948 0.035297 0.0312626 0.0267917 0.0222705 0.0180855 0.0142365 0.0107237 0.00754702 0.00470643 0.00220195 3.3589e-05 -0.00142907 -0.00181645 -0.00112855 0.000634646 0.00347312 0.00738688 0.0123759 0.0184403 0.0255266 0.0335818 0.0426057 0.0525984 0.0635598 0.0754901 0.0883891 0.102257 0.116499 0.130522 0.144324 0.157907 0.17127 0.184413 0.197336 0.210039 0.221886 0.232241 0.241103 0.248473 0.25435 0.258734 0.261626 0.263026 0.262932 0.261342 0.258256 0.253675 0.247598 0.240025 0.230957 0.220393 0.208941 0.197207 0.18519 0.172892 0.160312 0.147451 0.134307 0.120882 0.107711 0.09533 0.08374 0.0729404 0.0629314 0.0537129 0.045285 0.0376475 0.0307901 0.0247025 0.0193844 0.0148361 0.0110574 0.00804838 0.00580904 0.00433936 0.00332233 0.00244089 0.00169506 0.00108484 0.000610223 0.00027121 6.78026e-05 0 0 -4.12376e-05 -0.00016495 -0.000371139 -0.000659802 -0.00103094 -0.00148455 -0.00202064 -0.00263921 -0.00318134 -0.00348814 -0.0035596 -0.00339572 -0.00299651 -0.00236196 -0.00149208 -0.000386855 0.00103748 0.00286472 0.00509485 0.00772789 0.0107638 0.0142026 0.0180444 0.022289 0.0266964 0.0310263 0.0352789 0.039454 0.0435517 0.0475721 0.051515 0.0553805 0.0588848 0.0617441 0.0639584 0.0655277 0.0664521 0.0667314 0.0663658 0.0653552 0.063765 0.0616608 0.0590424 0.05591 0.0522634 0.0481028 0.0434281 0.0382393 0.0329797 0.0280927 0.0235783 0.0194365 0.0156673 0.0122707 0.00924672 0.00659531 0.00473708 0.00409262 0.00466195 0.00644505 0.00944192 0.0136526 0.019077 0.0257152 0.0335062 0.0423888 0.0523633 0.0634294 0.0755873 0.0888369 0.103178 0.118611 0.134469 0.150082 0.165452 0.180579 0.195462 0.210101 0.224497 0.23865 0.25185 0.263388 0.273265 0.28148 0.288034 0.292926 0.296157 0.297726 0.297629 0.29586 0.29242 0.287309 0.280526 0.272072 0.261947 0.25015 0.237352 0.224223 0.210763 0.196972 0.18285 0.168397 0.153613 0.138498 0.123653 0.109678 0.0965732 0.0843393 0.0729758 0.0624828 0.0528603 0.0441083 0.0362267 0.0292152 0.023074 0.0178029 0.0134021 0.0098714 0.00721094 0.00542067 0.0041502 0.00304913 0.00211745 0.00135517 0.000762282 0.000338792 8.4698e-05 0 0 -3.53986e-05 -0.000141594 -0.000318587 -0.000566377 -0.000884965 -0.00127435 -0.00173453 -0.00226551 -0.00268717 -0.00281938 -0.00266216 -0.00221549 -0.00147939 -0.000453839 0.000861149 0.00246558 0.00444188 0.00687247 0.00975736 0.0130965 0.01689 0.0211378 0.0258399 0.0309962 0.0363278 0.0415554 0.0466791 0.0516989 0.0566147 0.0614266 0.0661346 0.0707386 0.0749142 0.0783366 0.081006 0.0829224 0.0840856 0.0844958 0.0841529 0.083057 0.081284 0.07891 0.0759351 0.0723592 0.0681823 0.0634044 0.0580255 0.0520457 0.0459699 0.0403031 0.0350453 0.0301965 0.0257568 0.021726 0.0181043 0.0148916 0.0125632 0.0115943 0.0119848 0.0137349 0.0168444 0.0213135 0.027142 0.0343301 0.0428081 0.0525068 0.063426 0.0755657 0.0889261 0.103507 0.119308 0.13633 0.153829 0.17106 0.188023 0.204719 0.221147 0.237308 0.253201 0.268826 0.283401 0.296143 0.307052 0.316128 0.32337 0.328779 0.332355 0.334098 0.333999 0.332048 0.328247 0.322594 0.315089 0.305734 0.294527 0.281469 0.267293 0.252732 0.237785 0.222452 0.206734 0.190631 0.174142 0.157268 0.140676 0.125034 0.110343 0.0966011 0.0838096 0.0719682 0.0610769 0.0511357 0.0421575 0.0341552 0.0271289 0.0210784 0.0160038 0.0119052 0.0087824 0.00663556 0.00508035 0.0037325 0.00259201 0.00165889 0.000933125 0.000414722 0.000103681 0 0 -2.73559e-05 -0.000109423 -0.000246203 -0.000437694 -0.000683897 -0.000984811 -0.00134044 -0.00175078 -0.00201304 -0.00192443 -0.00148496 -0.000694622 0.000446581 0.00193865 0.00378159 0.00597539 0.00859919 0.0117321 0.0153742 0.0195254 0.0241857 0.0293552 0.0350338 0.0412215 0.0475964 0.0538365 0.0599417 0.0659121 0.0717477 0.0774485 0.0830145 0.0884456 0.0933732 0.0974284 0.100611 0.102922 0.10436 0.104926 0.10462 0.103441 0.101477 0.0988168 0.0954588 0.0914037 0.0866514 0.0812018 0.075055 0.068211 0.0612411 0.0547166 0.0486374 0.0430037 0.0378153 0.0330724 0.0287748 0.0249226 0.0220493 0.0206885 0.0208401 0.0225042 0.0256807 0.0303696 0.036571 0.0442848 0.0534325 0.0639355 0.0757938 0.0890073 0.103576 0.1195 0.13678 0.155414 0.17458 0.193455 0.212037 0.230327 0.248326 0.266032 0.283447 0.300569 0.316542 0.330507 0.342465 0.352415 0.360358 0.366294 0.370222 0.372143 0.372042 0.369906 0.365735 0.359529 0.351287 0.34101 0.328698 0.314351 0.298764 0.282731 0.266254 0.249332 0.231964 0.214152 0.195894 0.177192 0.158781 0.1414 0.125048 0.109726 0.095433 0.0821692 0.0699348 0.0587297 0.0485827 0.0395225 0.0315491 0.0246625 0.0188627 0.0141496 0.0105234 0.00798403 0.00611277 0.004