<?xml version="1.0"?> 
<VTKFile type="StructuredGrid" version="0.1"> 
<StructuredGrid WholeExtent="0 128 0 128 0 0"> 
<Piece Extent="0 128 0 128 0 0"> 
<PointData>
<DataArray type="Float32" Name="u" format="ascii" NumberOfComponents="1"> 
0 0 0 0 0 0 0 0 0 0 0 0 0 0 0 0 0 0 0 0 0 0 0 0 0 0 0 0 0 0 0 0 0 0 0 0 0 0 0 0 0 0 0 0 0 0 0 0 0 0 0 0 0 0 0 0 0 0 0 0 0 0 0 0 0 0 0 0 0 0 0 0 0 0 0 0 0 0 0 0 0 0 0 0 0 0 0 0 0 0 0 0 0 0 0 0 0 0 0 0 0 0 0 0 0 0 0 0 0 0 0 0 0 0 0 0 0 0 0 0 0 0 0 0 0 0 0 0 0 0 -3.58399e-07 -1.4336e-06 -3.2256e-06 -5.73439e-06 -8.95999e-06 -1.29024e-05 -1.75616e-05 -2.29376e-05 -2.8961e-05 -3.55623e-05 -4.27417e-05 -5.04991e-05 -5.88345e-05 -6.77479e-05 -7.72392e-05 -8.73086e-05 -9.75078e-05 -0.000107389 -0.000116951 -0.000126196 -0.000135122 -0.00014373 -0.000152019 -0.00015999 -0.000167536 -0.000174548 -0.000181027 -0.000186973 -0.000192386 -0.000197265 -0.000201612 -0.000205425 -0.000208813 -0.000211882 -0.000214633 -0.000217065 -0.00021918 -0.000220975 -0.000222453 -0.000223612 -0.000224608 -0.000225593 -0.000226569 -0.000227535 -0.000228492 -0.000229439 -0.000230376 -0.000231304 -0.0002319 -0.00023184 -0.000231126 -0.000229757 -0.000227732 -0.000225053 -0.000221719 -0.00021773 -0.000212412 -0.000205089 -0.000195763 -0.000184432 -0.000171097 -0.000155758 -0.000138415 -0.000119068 -9.78308e-05 -7.4819e-05 -5.00322e-05 -2.34705e-05 4.86618e-06 3.49778e-05 6.68644e-05 0.000100526 0.00013462 0.000167804 0.000200078 0.000231442 0.000261895 0.000291439 0.000320073 0.000347796 0.000373302 0.000395283 0.000413739 0.00042867 0.000440076 0.000447958 0.000452314 0.000453145 0.000450615 0.000444886 0.00043596 0.000423836 0.000408513 0.000389993 0.000368275 0.000343359 0.000316787 0.000290105 0.000263311 0.000236405 0.000209388 0.000182259 0.000155019 0.000127667 0.000101537 7.7963e-05 5.69439e-05 3.84803e-05 2.2572e-05 9.21913e-06 -1.57836e-06 -9.82046e-06 -1.60552e-05 -2.08307e-05 -2.4147e-05 -2.60039e-05 -2.64016e-05 -2.534e-05 -2.28192e-05 -1.8839e-05 -1.44236e-05 -1.0597e-05 -7.359e-06 -4.70976e-06 -2.64924e-06 -1.17744e-06 -2.9436e-07 0 0 -1.4336e-06 -5.73439e-06 -1.29024e-05 -2.29376e-05 -3.58399e-05 -5.16095e-05 -7.02463e-05 -9.17503e-05 -0.000115844 -0.000142249 -0.000170967 -0.000201996 -0.000235338 -0.000270991 -0.000308957 -0.000349234 -0.000390031 -0.000429555 -0.000467806 -0.000504783 -0.000540487 -0.000574918 -0.000608076 -0.000639961 -0.000670142 -0.000698191 -0.000724108 -0.000747892 -0.000769543 -0.000789061 -0.000806447 -0.0008217 -0.000835251 -0.000847528 -0.000858531 -0.000868262 -0.000876718 -0.000883902 -0.000889812 -0.000894449 -0.00089843 -0.000902372 -0.000906276 -0.000910141 -0.000913968 -0.000917756 -0.000921506 -0.000925217 -0.000927599 -0.000927361 -0.000924503 -0.000919026 -0.00091093 -0.000900213 -0.000886877 -0.000870922 -0.000849648 -0.000820358 -0.000783051 -0.000737728 -0.000684388 -0.000623032 -0.00055366 -0.00047627 -0.000391323 -0.000299276 -0.000200129 -9.3882e-05 1.94647e-05 0.000139911 0.000267458 0.000402104 0.00053848 0.000671216 0.000800311 0.000925767 0.00104758 0.00116576 0.00128029 0.00139118 0.00149321 0.00158113 0.00165496 0.00171468 0.00176031 0.00179183 0.00180926 0.00181258 0.00180246 0.00177955 0.00174384 0.00169534 0.00163405 0.00155997 0.0014731 0.00137343 0.00126715 0.00116042 0.00105324 0.00094562 0.000837552 0.000729037 0.000620076 0.000510669 0.00040615 0.000311852 0.000227776 0.000153921 9.0288e-05 3.68765e-05 -6.31344e-06 -3.92818e-05 -6.42209e-05 -8.33229e-05 -9.65878e-05 -0.000104016 -0.000105606 -0.00010136 -9.12767e-05 -7.53562e-05 -5.76946e-05 -4.23878e-05 -2.9436e-05 -1.8839e-05 -1.0597e-05 -4.70976e-06 -1.17744e-06 0 0 -3.2256e-06 -1.29024e-05 -2.90304e-05 -5.16095e-05 -8.06399e-05 -0.000116121 -0.000158054 -0.000206438 -0.000260649 -0.000320061 -0.000384676 -0.000454492 -0.00052951 -0.000609731 -0.000695153 -0.000785778 -0.000877571 -0.000966499 -0.00105256 -0.00113576 -0.0012161 -0.00129357 -0.00136817 -0.00143991 -0.00150782 -0.00157093 -0.00162924 -0.00168276 -0.00173147 -0.00177539 -0.00181451 -0.00184883 -0.00187931 -0.00190694 -0.0019317 -0.00195359 -0.00197262 -0.00198878 -0.00200208 -0.00201251 -0.00202147 -0.00203034 -0.00203912 -0.00204782 -0.00205643 -0.00206495 -0.00207339 -0.00208174 -0.0020871 -0.00208656 -0.00208013 -0.00206781 -0.00204959 -0.00202548 -0.00199547 -0.00195957 -0.00191171 -0.00184581 -0.00176187 -0.00165989 -0.00153987 -0.00140182 -0.00124573 -0.00107161 -0.000880477 -0.000673371 -0.00045029 -0.000211235 4.37956e-05 0.0003148 0.00060178 0.000904734 0.00121158 0.00151024 0.0018007 0.00208298 0.00235706 0.00262295 0.00288065 0.00313017 0.00335972 0.00355755 0.00372365 0.00385803 0.00396069 0.00403162 0.00407082 0.0040783 0.00405553 0.00400398 0.00392364 0.00381452 0.00367662 0.00350994 0.00331447 0.00309023 0.00285109 0.00261094 0.0023698 0.00212765 0.00188449 0.00164033 0.00139517 0.00114901 0.000913837 0.000701667 0.000512495 0.000346322 0.000203148 8.29722e-05 -1.42052e-05 -8.83841e-05 -0.000144497 -0.000187477 -0.000217323 -0.000234035 -0.000237614 -0.00022806 -0.000205373 -0.000169551 -0.000129813 -9.53727e-05 -6.6231e-05 -4.23878e-05 -2.38432e-05 -1.0597e-05 -2.64924e-06 0 0 -5.73439e-06 -2.29376e-05 -5.16095e-05 -9.17503e-05 -0.00014336 -0.000206438 -0.000280985 -0.000367001 -0.000463375 -0.000568998 -0.000683868 -0.000807986 -0.000941352 -0.00108397 -0.00123583 -0.00139694 -0.00156013 -0.00171822 -0.00187122 -0.00201913 -0.00216195 -0.00229967 -0.0024323 -0.00255984 -0.00268057 -0.00279277 -0.00289643 -0.00299157 -0.00307817 -0.00315624 -0.00322579 -0.0032868 -0.003341 -0.00339011 -0.00343413 -0.00347305 -0.00350687 -0.00353561 -0.00355925 -0.0035778 -0.00359372 -0.00360949 -0.0036251 -0.00364057 -0.00365587 -0.00367102 -0.00368602 -0.00370087 -0.00371039 -0.00370944 -0.00369801 -0.00367611 -0.00364372 -0.00360085 -0.00354751 -0.00348369 -0.00339859 -0.00328143 -0.00313221 -0.00295091 -0.00273755 -0.00249213 -0.00221464 -0.00190508 -0.00156529 -0.0011971 -0.000800516 -0.000375528 7.78589e-05 0.000559645 0.00106983 0.00160842 0.00215392 0.00268486 0.00320125 0.00370307 0.00419033 0.00466303 0.00512116 0.00556474 0.00597284 0.00632453 0.00661983 0.00685873 0.00704122 0.00716732 0.00723702 0.00725032 0.00720983 0.00711818 0.00697536 0.00678137 0.00653622 0.00623989 0.0058924 0.00549374 0.0050686 0.00464168 0.00421297 0.00378248 0.00335021 0.00291615 0.0024803 0.00204268 0.0016246 0.00124741 0.000911103 0.000615684 0.000361152 0.000147506 -2.52537e-05 -0.000157127 -0.000256884 -0.000333292 -0.000386351 -0.000416063 -0.000422426 -0.00040544 -0.000365107 -0.000301425 -0.000230778 -0.000169551 -0.000117744 -7.53562e-05 -4.23878e-05 -1.8839e-05 -4.70976e-06 0 0 -8.95999e-06 -3.58399e-05 -8.06399e-05 -0.00014336 -0.000224 -0.00032256 -0.000439039 -0.000573439 -0.000724024 -0.000889059 -0.00106854 -0.00126248 -0.00147086 -0.0016937 -0.00193098 -0.00218272 -0.0024377 -0.00268472 -0.00292379 -0.00315489 -0.00337804 -0.00359324 -0.00380047 -0.00399975 -0.00418839 -0.0043637 -0.00452567 -0.00467432 -0.00480964 -0.00493163 -0.00504029 -0.00513563 -0.00522032 -0.00529705 -0.00536582 -0.00542663 -0.00547949 -0.00552439 -0.00556133 -0.00559031 -0.00561519 -0.00563983 -0.00566423 -0.00568838 -0.0057123 -0.00573598 -0.00575941 -0.0057826 -0.00579749 -0.00579601 -0.00577815 -0.00574392 -0.00569331 -0.00562633 -0.00554298 -0.00544326 -0.0053103 -0.00512724 -0.00489407 -0.0046108 -0.00427743 -0.00389395 -0.00346037 -0.00297669 -0.00244577 -0.00187047 -0.00125081 -0.000586763 0.000121655 0.000874446 0.00167161 0.00251315 0.0033655 0.0041951 0.00500195 0.00578604 0.00654739 0.00728598 0.00800182 0.00869491 0.00933256 0.00988208 0.0103435 0.0107168 0.0110019 0.0111989 0.0113078 0.0113286 0.0112654 0.0111222 0.010899 0.0105959 0.0102128 0.00974983 0.00920687 0.00858396 0.00791969 0.00725262 0.00658277 0.00591013 0.0052347 0.00455648 0.00387547 0.00319168 0.00253844 0.00194907 0.0014236 0.000962007 0.0005643 0.000230478 -3.9459e-05 -0.000245511 -0.000401381 -0.000520768 -0.000603674 -0.000650098 -0.00066004 -0.000633501 -0.000570479 -0.000470976 -0.000360591 -0.000264924 -0.000183975 -0.000117744 -6.6231e-05 -2.9436e-05 -7.359e-06 0 0 -1.29024e-05 -5.16095e-05 -0.000116121 -0.000206438 -0.00032256 -0.000464486 -0.000632217 -0.000825752 -0.00104259 -0.00128024 -0.0015387 -0.00181797 -0.00211804 -0.00243892 -0.00278061 -0.00314311 -0.00351028 -0.003866 -0.00421025 -0.00454305 -0.00486438 -0.00517426 -0.00547268 -0.00575964 -0.00603128 -0.00628372 -0.00651697 -0.00673102 -0.00692588 -0.00710155 -0.00725802 -0.0073953 -0.00751726 -0.00762775 -0.00772678 -0.00781435 -0.00789047 -0.00795512 -0.00800831 -0.00805004 -0.00808587 -0.00812135 -0.00815649 -0.00819127 -0.00822571 -0.00825981 -0.00829355 -0.00832695 -0.00834839 -0.00834625 -0.00832053 -0.00827124 -0.00819837 -0.00810192 -0.0079819 -0.0078383 -0.00764683 -0.00738322 -0.00704746 -0.00663955 -0.0061595 -0.00560729 -0.00498294 -0.00428643 -0.00352191 -0.00269348 -0.00180116 -0.000844938 0.000175183 0.0012592 0.00240712 0.00361894 0.00484632 0.00604094 0.0072028 0.0083319 0.00942824 0.0104918 0.0115226 0.0125207 0.0134389 0.0142302 0.0148946 0.0154321 0.0158428 0.0161265 0.0162833 0.0163132 0.0162221 0.0160159 0.0156946 0.0152581 0.0147065 0.0140398 0.0132579 0.0123609 0.0114043 0.0104438 0.00947919 0.00851058 0.00753796 0.00656133 0.00558068 0.00459602 0.00365535 0.00280667 0.00204998 0.00138529 0.000812592 0.000331889 -5.68209e-05 -0.000353537 -0.000577988 -0.000749906 -0.000869291 -0.000936141 -0.000950458 -0.000912241 -0.00082149 -0.000678206 -0.000519251 -0.000381491 -0.000264924 -0.000169551 -9.53727e-05 -4.23878e-05 -1.0597e-05 0 0 -1.75616e-05 -7.02463e-05 -0.000158054 -0.000280985 -0.000439039 -0.000632217 -0.000860517 -0.00112394 -0.00141909 -0.00174255 -0.00209434 -0.00247446 -0.00288289 -0.00331965 -0.00378472 -0.00427812 -0.00477788 -0.00526205 -0.00573062 -0.00618359 -0.00662097 -0.00704275 -0.00744893 -0.00783952 -0.00820924 -0.00855284 -0.00887032 -0.00916167 -0.0094269 -0.009666 -0.00987898 -0.0100658 -0.0102318 -0.0103822 -0.010517 -0.0106362 -0.0107398 -0.0108278 -0.0109002 -0.010957 -0.0110058 -0.0110541 -0.0111019 -0.0111492 -0.0111961 -0.0112425 -0.0112884 -0.0113339 -0.0113631 -0.0113602 -0.0113252 -0.0112581 -0.0111589 -0.0110276 -0.0108642 -0.0106688 -0.0104082 -0.0100494 -0.00959238 -0.00903717 -0.00838376 -0.00763215 -0.00678233 -0.00583431 -0.00479371 -0.00366613 -0.00245158 -0.00115005 0.000238443 0.00171391 0.00327636 0.00492577 0.00659638 0.0082224 0.00980382 0.0113406 0.0128329 0.0142805 0.0156836 0.017042 0.0182918 0.0193689 0.0202732 0.0210048 0.0215637 0.0219499 0.0221634 0.0222041 0.0220801 0.0217994 0.021362 0.020768 0.0200172 0.0191097 0.0180455 0.0168246 0.0155226 0.0142151 0.0129022 0.0115838 0.01026 0.0089307 0.00759593 0.00625569 0.00497533 0.00382019 0.00279025 0.00188553 0.00110603 0.000451737 -7.73396e-05 -0.000481203 -0.000786706 -0.00102071 -0.0011832 -0.00127419 -0.00129368 -0.00124166 -0.00111814 -0.000923113 -0.000706758 -0.000519251 -0.000360591 -0.000230778 -0.000129813 -5.76946e-05 -1.44236e-05 0 0 -2.29376e-05 -9.17503e-05 -0.000206438 -0.000367001 -0.000573439 -0.000825752 -0.00112394 -0.001468 -0.0018535 -0.00227599 -0.00273547 -0.00323194 -0.00376541 -0.00433586 -0.00494331 -0.00558775 -0.0062405 -0.00687288 -0.00748489 -0.00807653 -0.00864779 -0.00919869 -0.00972921 -0.0102394 -0.0107223 -0.0111711 -0.0115857 -0.0119663 -0.0123127 -0.012625 -0.0129032 -0.0131472 -0.013364 -0.0135604 -0.0137365 -0.0138922 -0.0140275 -0.0141424 -0.014237 -0.0143112 -0.0143749 -0.014438 -0.0145004 -0.0145623 -0.0146235 -0.0146841 -0.0147441 -0.0148035 -0.0148416 -0.0148378 -0.0147921 -0.0147044 -0.0145749 -0.0144034 -0.01419 -0.0139347 -0.0135944 -0.0131257 -0.0125288 -0.0118036 -0.0109502 -0.00996852 -0.00885855 -0.00762033 -0.00626117 -0.00478842 -0.00320206 -0.00150211 0.000311436 0.00223858 0.00427932 0.00643367 0.00861568 0.0107395 0.012805 0.0148123 0.0167613 0.0186521 0.0204847 0.022259 0.0238913 0.0252981 0.0264793 0.0274349 0.0281649 0.0286693 0.0289481 0.0290013 0.0288393 0.0284727 0.0279014 0.0271255 0.0261449 0.0249596 0.0235696 0.0219749 0.0202744 0.0185667 0.0168519 0.0151299 0.0134008 0.0116646 0.00992121 0.0081707 0.00649839 0.00498963 0.00364441 0.00246274 0.00144461 0.000590024 -0.000101015 -0.000628509 -0.00102753 -0.00133317 -0.00154541 -0.00166425 -0.0016897 -0.00162176 -0.00146043 -0.0012057 -0.000923113 -0.000678206 -0.000470976 -0.000301425 -0.000169551 -7.53562e-05 -1.8839e-05 0 0 -2.86188e-05 -0.000114475 -0.000257569 -0.0004579 -0.000715469 -0.00103028 -0.00140232 -0.0018316 -0.00231168 -0.00283611 -0.0034049 -0.00401805 -0.00467555 -0.00537741 -0.00612363 -0.0069142 -0.00771312 -0.0084844 -0.00922802 -0.009944 -0.0106323 -0.011293 -0.011926 -0.0125314 -0.013102 -0.0136304 -0.0141169 -0.0145613 -0.0149636 -0.0153239 -0.0156422 -0.0159184 -0.0161629 -0.0163858 -0.0165873 -0.0167673 -0.0169258 -0.0170628 -0.0171783 -0.0172723 -0.017357 -0.0174445 -0.0175349 -0.0176282 -0.0177243 -0.0178233 -0.0179251 -0.0180298 -0.018109 -0.0181345 -0.0181062 -0.0180242 -0.0178884 -0.0176988 -0.0174555 -0.0171585 -0.0167512 -0.016177 -0.0154361 -0.0145284 -0.013454 -0.0122127 -0.0108046 -0.00922975 -0.00749752 -0.00561732 -0.00358916 -0.00141305 0.000911031 0.00338307 0.00600307 0.00877103 0.011576 0.0143069 0.0169638 0.0195467 0.0220556 0.0244904 0.0268513 0.0291381 0.0312428 0.0330571 0.0345812 0.035815 0.0367585 0.0374118 0.0377747 0.0378473 0.0376428 0.0371741 0.0364413 0.0354444 0.0341834 0.0326583 0.0308691 0.0288158 0.026625 0.0244235 0.0222113 0.0199884 0.0177547 0.0155103 0.0132552 0.0109893 0.00882232 0.00686378 0.00511371 0.0035721 0.00223896 0.00111428 0.000198072 -0.000509674 -0.00105263 -0.00147446 -0.00177516 -0.00195475 -0.00201321 -0.00195055 -0.00176677 -0.00146186 -0.00111924 -0.000822299 -0.000571041 -0.000365466 -0.000205575 -9.13666e-05 -2.28416e-05 0 0 -3.41936e-05 -0.000136774 -0.000307742 -0.000547097 -0.000854839 -0.00123097 -0.00167548 -0.00218839 -0.00275946 -0.00337849 -0.00404547 -0.0047604 -0.00552328 -0.00633412 -0.00719291 -0.00809966 -0.00901073 -0.0098825 -0.010715 -0.0115082 -0.012262 -0.0129766 -0.0136519 -0.0142879 -0.0148799 -0.0154231 -0.0159175 -0.0163632 -0.0167601 -0.0171083 -0.0174078 -0.0176584 -0.0178774 -0.0180817 -0.0182714 -0.0184464 -0.0186068 -0.0187525 -0.0188836 -0.019 -0.0191158 -0.0192453 -0.0193883 -0.0195449 -0.019715 -0.0198988 -0.0200961 -0.020307 -0.0204905 -0.0206057 -0.0206526 -0.0206311 -0.0205414 -0.0203833 -0.020157 -0.0198623 -0.0194243 -0.0187681 -0.0178937 -0.016801 -0.0154901 -0.0139609 -0.0122135 -0.0102479 -0.00807597 -0.00570983 -0.00314944 -0.000394795 0.0025541 0.00569725 0.00903465 0.0125663 0.016149 0.0196394 0.0230377 0.0263438 0.0295576 0.0326793 0.0357087 0.038646 0.0413513 0.0436851 0.0456473 0.047238 0.048457 0.0493045 0.0497805 0.0498848 0.0496334 0.0490418 0.0481102 0.0468385 0.0452267 0.0432748 0.0409828 0.0383508 0.0355397 0.0327107 0.0298638 0.0269989 0.024116 0.0212152 0.0182965 0.0153598 0.0125449 0.00999141 0.00769939 0.00566882 0.00389971 0.00239205 0.00114584 0.000161087 -0.000614135 -0.00123174 -0.00169174 -0.00199412 -0.00213889 -0.00212604 -0.00195559 -0.00162751 -0.00124607 -0.000915476 -0.000635748 -0.000406878 -0.000228869 -0.00010172 -2.54299e-05 0 0 -3.9662e-05 -0.000158648 -0.000356958 -0.000634592 -0.00099155 -0.00142783 -0.00194344 -0.00253837 -0.00319685 -0.00390312 -0.00465716 -0.00545899 -0.0063086 -0.007206 -0.00815117 -0.00914413 -0.0101333 -0.0110672 -0.0119458 -0.012769 -0.0135369 -0.0142495 -0.0149068 -0.0155088 -0.016056 -0.0165489 -0.0169876 -0.017372 -0.0177022 -0.0179782 -0.0181999 -0.0183673 -0.0185077 -0.0186482 -0.0187889 -0.0189297 -0.0190706 -0.0192117 -0.0193529 -0.0194943 -0.0196515 -0.0198402 -0.0200605 -0.0203123 -0.0205957 -0.0209106 -0.021257 -0.021635 -0.021986 -0.0222514 -0.0224312 -0.0225253 -0.0225339 -0.0224569 -0.0222943 -0.0220461 -0.0216138 -0.0208989 -0.0199014 -0.0186213 -0.0170585 -0.0152132 -0.0130852 -0.0106746 -0.00799653 -0.00506594 -0.00188289 0.00155264 0.00524064 0.00918112 0.0133741 0.0178195 0.0223347 0.0267371 0.0310268 0.0352036 0.0392675 0.0432187 0.0470571 0.0507826 0.054217 0.057182 0.0596776 0.0617037 0.0632604 0.0643476 0.0649654 0.0651138 0.0648111 0.0640759 0.0629081 0.0613076 0.0592746 0.056809 0.0539108 0.05058 0.0470185 0.0434282 0.0398091 0.0361613 0.0324847 0.0287793 0.0250451 0.0212822 0.0176661 0.0143725 0.0114015 0.00875291 0.00642686 0.00442332 0.00274229 0.00138377 0.000287941 -0.000605026 -0.00129513 -0.00178236 -0.00206673 -0.00214824 -0.00202687 -0.00170265 -0.00130359 -0.000957738 -0.000665096 -0.000425661 -0.000239434 -0.000106415 -2.66038e-05 0 0 -4.5024e-05 -0.000180096 -0.000405216 -0.000720384 -0.0011256 -0.00162086 -0.00220618 -0.00288154 -0.00362384 -0.00440999 -0.00523999 -0.00611383 -0.00703151 -0.00799303 -0.0089984 -0.0100476 -0.0110809 -0.0120385 -0.0129203 -0.0137265 -0.014457 -0.0151117 -0.0156908 -0.0161941 -0.0166303 -0.017008 -0.0173271 -0.0175878 -0.0177899 -0.0179334 -0.0180185 -0.018045 -0.0180536 -0.0180852 -0.0181397 -0.018217 -0.0183172 -0.0184403 -0.0185863 -0.0187552 -0.0189638 -0.0192293 -0.0195515 -0.0199305 -0.0203662 -0.0208587 -0.021408 -0.022014 -0.0225956 -0.0230716 -0.023442 -0.0237068 -0.023866 -0.0239196 -0.0238677 -0.0237101 -0.0233197 -0.0225695 -0.0214594 -0.0199893 -0.0181594 -0.0159695 -0.0134198 -0.0105101 -0.0072592 -0.00368566 0.000210495 0.00442927 0.00897066 0.0138347 0.0190213 0.0245305 0.0301332 0.0356 0.0409309 0.046126 0.0511853 0.0561087 0.0608963 0.065548 0.0698399 0.0735479 0.076672 0.0792122 0.0811685 0.082541 0.0833295 0.0835342 0.0831761 0.0822764 0.080835 0.0788519 0.0763272 0.0732609 0.0696529 0.0655033 0.0610613 0.056576 0.0520475 0.0474757 0.0428607 0.0382025 0.0335011 0.0287564 0.024186 0.0200071 0.0162199 0.0128243 0.00982041 0.0072081 0.00498743 0.00315839 0.0016536 0.000405694 -0.000585332 -0.00131948 -0.00179674 -0.00201713 -0.00198063 -0.00168726 -0.00129181 -0.000949083 -0.000659086 -0.000421815 -0.000237271 -0.000105454 -2.63634e-05 0 0 -5.02797e-05 -0.000201119 -0.000452517 -0.000804475 -0.00125699 -0.00181007 -0.0024637 -0.0032179 -0.00404044 -0.00489912 -0.00579394 -0.0067249 -0.007692 -0.00869523 -0.00973461 -0.0108101 -0.0118535 -0.0127963 -0.0136388 -0.0143807 -0.0150222 -0.0155632 -0.0160037 -0.0163438 -0.0166029 -0.0168003 -0.0169362 -0.0170104 -0.0170231 -0.0169741 -0.0168636 -0.0166915 -0.0165153 -0.0163927 -0.0163238 -0.0163084 -0.0163466 -0.0164383 -0.0165837 -0.0167826 -0.017053 -0.0174126 -0.0178614 -0.0183994 -0.0190267 -0.0197432 -0.0205489 -0.0214438 -0.0223192 -0.0230663 -0.0236851 -0.0241755 -0.0245377 -0.0247715 -0.0248769 -0.0248541 -0.024542 -0.0237798 -0.0225675 -0.0209051 -0.0187926 -0.0162299 -0.0132172 -0.00975427 -0.00586397 -0.00156898 0.0031307 0.00823508 0.0137442 0.0196579 0.0259764 0.0326995 0.0395444 0.0462279 0.0527502 0.0591112 0.0653109 0.0713493 0.0772264 0.0829422 0.0882199 0.0927827 0.0966306 0.0997635 0.102182 0.103885 0.104873 0.105146 0.104728 0.103643 0.101891 0.0994713 0.0963846 0.0926306 0.0882093 0.0831209 0.0776681 0.0721541 0.0665788 0.0609421 0.0552442 0.0494849 0.0436644 0.0377825 0.0321045 0.0268952 0.0221548 0.0178831 0.0140804 0.0107464 0.00788125 0.00548492 0.00348284 0.00180042 0.000437649 -0.000605464 -0.00132892 -0.00173272 -0.00181687 -0.00158136 -0.00121073 -0.000889513 -0.000617717 -0.000395339 -0.000222378 -9.88348e-05 -2.47087e-05 0 0 -5.54289e-05 -0.000221716 -0.00049886 -0.000886863 -0.00138572 -0.00199544 -0.00271602 -0.00354745 -0.00444665 -0.00537051 -0.00631903 -0.00729222 -0.00829008 -0.0093126 -0.0103598 -0.0114316 -0.012451 -0.0133408 -0.014101 -0.0147316 -0.0152326 -0.015604 -0.0158458 -0.015958 -0.0159736 -0.0159259 -0.0158146 -0.01564 -0.0154018 -0.0151003 -0.0147352 -0.0143068 -0.0138927 -0.0135708 -0.0133412 -0.0132039 -0.0131587 -0.0132058 -0.0133452 -0.0135767 -0.0139189 -0.01439 -0.0149901 -0.0157191 -0.016577 -0.0175639 -0.0186798 -0.0199246 -0.0211569 -0.0222356 -0.0231604 -0.0239315 -0.0245488 -0.0250124 -0.0253222 -0.0254782 -0.0252807 -0.0245299 -0.0232259 -0.0213687 -0.0189582 -0.0159944 -0.0124774 -0.00840711 -0.00381085 0.00128409 0.00687774 0.0129701 0.0195611 0.0266508 0.0342393 0.0423264 0.0505683 0.058621 0.0664846 0.074159 0.0816443 0.0889404 0.0960474 0.102965 0.109357 0.114887 0.119553 0.123358 0.126299 0.128379 0.129595 0.129949 0.129468 0.128176 0.126076 0.123166 0.119447 0.114918 0.10958 0.103433 0.096839 0.0901625 0.083403 0.0765605 0.069635 0.0626265 0.055535 0.0483605 0.0414216 0.0350368 0.029206 0.0239293 0.0192067 0.0150382 0.0114237 0.00836339 0.00577567 0.00357915 0.00177381 0.000359677 -0.000663266 -0.00129502 -0.00153557 -0.00138494 -0.00106034 -0.000779026 -0.000540991 -0.000346234 -0.000194757 -8.65585e-05 -2.16396e-05 0 0 -6.04718e-05 -0.000241887 -0.000544246 -0.000967548 -0.00151179 -0.00217698 -0.00296312 -0.00387019 -0.00484245 -0.00582414 -0.00681525 -0.00781578 -0.00882574 -0.00984513 -0.0108739 -0.0119122 -0.0128736 -0.0136719 -0.0143071 -0.0147791 -0.0150881 -0.015234 -0.0152168 -0.0150365 -0.0147426 -0.0143846 -0.0139626 -0.0134764 -0.0129262 -0.0123118 -0.0116334 -0.0108909 -0.0101857 -0.00961945 -0.00919201 -0.0089034 -0.00875364 -0.00874272 -0.00887065 -0.00913742 -0.00956157 -0.0101616 -0.0109376 -0.0118895 -0.0130173 -0.014321 -0.0158006 -0.0174562 -0.0191087 -0.0205793 -0.021868 -0.0229747 -0.0238995 -0.0246424 -0.0252033 -0.0255823 -0.0255357 -0.0248198 -0.0234345 -0.02138 -0.0186561 -0.0152629 -0.0112004 -0.00646863 -0.00109984 0.00487357 0.0114516 0.0186343 0.0264216 0.0348135 0.04381 0.0534112 0.0632049 0.0727793 0.0821341 0.0912696 0.100186 0.108882 0.117359 0.125617 0.133251 0.139859 0.14544 0.149995 0.153522 0.156023 0.157497 0.157944 0.157394 0.155876 0.15339 0.149935 0.145513 0.140123 0.133765 0.126438 0.118574 0.110601 0.10252 0.0943309 0.0860332 0.0776272 0.069113 0.0604904 0.0521374 0.0444318 0.0373736 0.0309628 0.0251995 0.0200835 0.0156149 0.0117938 0.00853208 0.00574188 0.00342317 0.00157595 0.000200221 -0.000704012 -0.00113675 -0.001098 -0.000840655 -0.000617624 -0.000428906 -0.0002745 -0.000154406 -6.86249e-05 -1.71562e-05 0 0 -6.54082e-05 -0.000261633 -0.000588674 -0.00104653 -0.00163521 -0.0023547 -0.003205 -0.00418613 -0.00522787 -0.00626002 -0.0072826 -0.00829559 -0.00929899 -0.0102928 -0.0112771 -0.0122517 -0.0131211 -0.0137895 -0.0142569 -0.0145234 -0.0145889 -0.0144534 -0.0141169 -0.0135795 -0.0129098 -0.0121767 -0.01138 -0.0105198 -0.00959605 -0.00860882 -0.00755808 -0.00644383 -0.00539452 -0.00453862 -0.00387612 -0.00340703 -0.00313134 -0.00304906 -0.00316018 -0.0034647 -0.003981 -0.00472742 -0.00570397 -0.00691065 -0.00834746 -0.0100144 -0.0119115 -0.0140387 -0.0161745 -0.0180975 -0.0198078 -0.0213052 -0.0225897 -0.0236615 -0.0245204 -0.0251666 -0.0253071 -0.0246494 -0.0231934 -0.0209391 -0.0178864 -0.0140355 -0.00938633 -0.00393883 0.00226906 0.00919943 0.0168523 0.0252276 0.0343255 0.0441458 0.0546886 0.0659539 0.0774543 0.0887026 0.0996988 0.110443 0.120935 0.131174 0.141162 0.150897 0.159903 0.167701 0.174291 0.179674 0.18385 0.186817 0.188578 0.18913 0.188508 0.186742 0.183833 0.17978 0.174585 0.168246 0.160764 0.152139 0.142873 0.13347 0.12393 0.114253 0.104439 0.0944872 0.0843983 0.0741722 0.0642518 0.0550803 0.0466576 0.0389837 0.0320586 0.0258823 0.0204548 0.0157761 0.0117521 0.00828861 0.0053857 0.00304334 0.00126154 4.02927e-05 -0.000620402 -0.000720543 -0.000551666 -0.000405306 -0.000281462 -0.000180136 -0.000101326 -4.5034e-05 -1.12585e-05 0 0 -6.9253e-05 -0.000277012 -0.000623277 -0.00110805 -0.00173132 -0.00249311 -0.0033934 -0.00443219 -0.00552251 -0.00657736 -0.00759676 -0.00858069 -0.00952916 -0.0104422 -0.0113197 -0.0121618 -0.0128637 -0.0133205 -0.0135324 -0.0134993 -0.0132212 -0.0126982 -0.0119301 -0.010917 -0.00975149 -0.00852601 -0.00724058 -0.00589519 -0.00448986 -0.00302457 -0.00149934 8.58484e-05 0.00157051 0.00279418 0.00375684 0.00445851 0.00489918 0.00507886 0.00499753 0.00465521 0.00403423 0.00311693 0.00190332 0.000393397 -0.00141284 -0.0035154 -0.00591427 -0.00860945 -0.0113303 -0.0138063 -0.0160374 -0.0180236 -0.0197648 -0.0212612 -0.0225126 -0.0235192 -0.0239328 -0.0234056 -0.0219374 -0.0195284 -0.0161784 -0.0118876 -0.00665584 -0.000483201 0.00658631 0.0145087 0.0232838 0.0329119 0.0433927 0.0547264 0.066913 0.0799524 0.093275 0.106311 0.119061 0.131525 0.143702 0.155593 0.167198 0.178516 0.188991 0.198066 0.205739 0.212012 0.216884 0.220355 0.222426 0.223096 0.2224 0.220373 0.217015 0.212325 0.206304 0.198951 0.190267 0.180252 0.169486 0.158549 0.147441 0.136162 0.124712 0.113091 0.101299 0.0893368 0.0777165 0.066952 0.0570434 0.0479905 0.0397934 0.0324522 0.0259667 0.020337 0.015464 0.0112486 0.00769074 0.00479045 0.00254773 0.00096257 3.49803e-05 -0.000235042 -0.000179954 -0.000132211 -9.18135e-05 -5.87606e-05 -3.30528e-05 -1.46902e-05 -3.67254e-06 0 0 -7.10206e-05 -0.000284083 -0.000639186 -0.00113633 -0.00177552 -0.00255674 -0.00348001 -0.00454532 -0.00564599 -0.00667536 -0.00763341 -0.00852015 -0.00933558 -0.0100797 -0.0107525 -0.011354 -0.0117714 -0.0118918 -0.0117154 -0.011242 -0.0104716 -0.00940441 -0.00804024 -0.00637914 -0.00454377 -0.00265676 -0.000718125 0.00127215 0.00331406 0.0054076 0.00755277 0.00974958 0.0117989 0.0135014 0.0148573 0.0158665 0.0165289 0.0168447 0.0168137 0.0164361 0.0156955 0.0145757 0.0130768 0.0111986 0.00894124 0.0063047 0.00328897 -0.000105957 -0.00355214 -0.00672165 -0.00961448 -0.0122306 -0.0145701 -0.0166329 -0.0184191 -0.0199285 -0.0207508 -0.0204751 -0.0191017 -0.0166305 -0.0130614 -0.0083945 -0.00262978 0.00423276 0.0121423 0.0210482 0.0309503 0.0418486 0.0537432 0.0666341 0.0805212 0.0954046 0.110626 0.125526 0.140104 0.154362 0.168299 0.181915 0.19521 0.208184 0.220196 0.230607 0.239416 0.246622 0.252227 0.25623 0.258631 0.25943 0.258664 0.256369 0.252545 0.247193 0.240313 0.231904 0.221966 0.210499 0.198163 0.185617 0.172859 0.159892 0.146713 0.133325 0.119725 0.105915 0.092483 0.0800167 0.0685163 0.0579818 0.0484132 0.0398106 0.0321739 0.0255032 0.0196963 0.0146511 0.0103676 0.00684584 0.00408581 0.00208749 0.000850902 0.000376033 0.0002879 0.000211519 0.000146888 9.40083e-05 5.28796e-05 2.35021e-05 5.87552e-06 0 0 -7.07112e-05 -0.000282845 -0.000636401 -0.00113138 -0.00176778 -0.0025456 -0.00346485 -0.00452552 -0.00559833 -0.00655401 -0.00739255 -0.00811397 -0.00871825 -0.0092054 -0.00957541 -0.00982829 -0.00984422 -0.00950336 -0.00880573 -0.00775132 -0.00634013 -0.00457216 -0.00244741 3.41127e-05 0.00271331 0.00543107 0.00818738 0.0109823 0.0138157 0.0166877 0.0195983 0.0225474 0.0252905 0.0275831 0.0294252 0.0308168 0.0317579 0.0322484 0.0322885 0.031878 0.0310029 0.029649 0.0278163 0.0255049 0.0227148 0.0194459 0.0156982 0.0114718 0.00716008 0.00315647 -0.000539014 -0.00392638 -0.00700562 -0.00977674 -0.0122397 -0.0143946 -0.0157609 -0.0158581 -0.0146863 -0.0122453 -0.00853533 -0.00355627 0.00269186 0.0102091 0.0189372 0.028818 0.0398516 0.0520379 0.0653769 0.0798687 0.0955132 0.11231 0.129506 0.146345 0.162828 0.178955 0.194726 0.21014 0.225198 0.2399 0.253518 0.265325 0.275321 0.283505 0.289879 0.294441 0.297192 0.298131 0.297298 0.294729 0.290425 0.284386 0.276612 0.267103 0.255859 0.242879 0.228904 0.214673 0.200186 0.185442 0.170443 0.155187 0.139675 0.123908 0.108551 0.0942742 0.0810763 0.0689575 0.057918 0.0479577 0.0390766 0.0312747 0.0244488 0.0184961 0.0134163 0.00920952 0.00587578 0.00341506 0.00182736 0.00111268 0.000851898 0.000625884 0.000434642 0.000278171 0.000156471 6.95427e-05 1.73857e-05 0 0 -6.83247e-05 -0.000273299 -0.000614922 -0.00109319 -0.00170812 -0.00245969 -0.00334791 -0.00437278 -0.00537951 -0.00621331 -0.00687419 -0.00736214 -0.00767717 -0.00781926 -0.00778843 -0.00758468 -0.00708218 -0.00615513 -0.00480353 -0.00302738 -0.000826674 0.00179858 0.00484839 0.00832275 0.0120198 0.0157375 0.0194759 0.0232351 0.0270151 0.0308157 0.0346371 0.0384792 0.0420455 0.0450393 0.0474607 0.0493096 0.0505861 0.0512901 0.0514217 0.0509809 0.0499563 0.0483367 0.0461221 0.0433125 0.0399078 0.0359082 0.0313135 0.0261239 0.0208063 0.015828 0.011189 0.00688922 0.00292868 -0.000692607 -0.00397464 -0.00691742 -0.00896326 -0.00955447 -0.00869103 -0.00637296 -0.00260025 0.0026271 0.00930908 0.0174457 0.0269708 0.0378181 0.0499878 0.0634797 0.0782939 0.0944304 0.111889 0.13067 0.149916 0.168771 0.187233 0.205303 0.222981 0.240268 0.257162 0.273664 0.288957 0.30222 0.313455 0.322661 0.329839 0.334988 0.338109 0.3392 0.338303 0.335454 0.330654 0.323904 0.315202 0.30455 0.291947 0.277393 0.261709 0.245718 0.22942 0.212814 0.1959 0.178679 0.16115 0.143314 0.125921 0.109725 0.0947234 0.0809178 0.0683078 0.0568934 0.0466746 0.0376514 0.0297217 0.0227835 0.0168368 0.0118815 0.00791765 0.00494528 0.00296436 0.00197491 0.00151204 0.00111089 0.000771448 0.000493727 0.000277721 0.000123432 3.08579e-05 0 0 -6.38611e-05 -0.000255444 -0.00057475 -0.00102178 -0.00159653 -0.002299 -0.00312919 -0.00408711 -0.00498954 -0.00565328 -0.00607832 -0.00626467 -0.00621233 -0.0059213 -0.00539157 -0.00462315 -0.00348527 -0.00184714 0.000291239 0.00292986 0.00606872 0.00970782 0.0138472 0.0184868 0.0233756 0.0282625 0.0331476 0.0380308 0.0429122 0.0477917 0.0526693 0.0575451 0.0620638 0.0658699 0.0689636 0.0713448 0.0730135 0.0739697 0.0742134 0.0737447 0.0725557 0.0706388 0.0679939 0.0646211 0.0605203 0.0556916 0.0501349 0.0438502 0.0373866 0.0312931 0.0255696 0.0202161 0.0152328 0.0106195 0.00637623 0.00250304 -0.000357849 -0.00156421 -0.00111605 0.000986642 0.00474386 0.0101556 0.0172219 0.0259427 0.0362432 0.0480486 0.0613589 0.076174 0.0924941 0.110319 0.129649 0.150484 0.171857 0.192801 0.213318 0.233406 0.253066 0.272298 0.291102 0.309477 0.326512 0.341292 0.353818 0.36409 0.372108 0.377872 0.381382 0.382637 0.381678 0.378543 0.373232 0.365745 0.356083 0.344244 0.33023 0.314039 0.296578 0.278753 0.260562 0.242006 0.223086 0.2038 0.184149 0.164134 0.144593 0.126368 0.109458 0.0938625 0.0795825 0