<?xml version="1.0"?> 
<VTKFile type="StructuredGrid" version="0.1"> 
<StructuredGrid WholeExtent="0 128 0 128 0 0"> 
<Piece Extent="0 128 0 128 0 0"> 
<PointData>
<DataArray type="Float32" Name="u" format="ascii" NumberOfComponents="1"> 
0 0 0 0 0 0 0 0 0 0 0 0 0 0 0 0 0 0 0 0 0 0 0 0 0 0 0 0 0 0 0 0 0 0 0 0 0 0 0 0 0 0 0 0 0 0 0 0 0 0 0 0 0 0 0 0 0 0 0 0 0 0 0 0 0 0 0 0 0 0 0 0 0 0 0 0 0 0 0 0 0 0 0 0 0 0 0 0 0 0 0 0 0 0 0 0 0 0 0 0 0 0 0 0 0 0 0 0 0 0 0 0 0 0 0 0 0 0 0 0 0 0 0 0 0 0 0 0 0 0 -7.50687e-08 -3.00275e-07 -6.75618e-07 -1.2011e-06 -1.87672e-06 -2.70247e-06 -3.67837e-06 -4.8044e-06 -5.80711e-06 -6.41305e-06 -6.62223e-06 -6.43463e-06 -5.85027e-06 -4.86913e-06 -3.49123e-06 -1.71655e-06 4.96358e-07 3.18896e-06 6.36125e-06 1.00132e-05 1.41449e-05 1.87563e-05 2.38474e-05 2.94181e-05 3.50775e-05 4.04344e-05 4.54889e-05 5.02409e-05 5.46904e-05 5.88375e-05 6.26821e-05 6.62243e-05 6.91723e-05 7.12345e-05 7.2411e-05 7.27017e-05 7.21066e-05 7.06258e-05 6.82592e-05 6.50068e-05 6.10732e-05 5.66632e-05 5.17768e-05 4.64138e-05 4.05744e-05 3.42585e-05 2.74661e-05 2.01972e-05 1.30775e-05 6.73254e-06 1.16228e-06 -3.63324e-06 -7.65402e-06 -1.09001e-05 -1.33714e-05 -1.5068e-05 -1.54513e-05 -1.3983e-05 -1.06629e-05 -5.49117e-06 1.5323e-06 1.04075e-05 2.11344e-05 3.3713e-05 4.80206e-05 6.39345e-05 8.14548e-05 0.000100581 0.000121314 0.000143653 0.000167599 0.000193151 0.000219352 0.000245245 0.000270831 0.000296109 0.00032108 0.000345743 0.000370099 0.000394146 0.00041678 0.000436894 0.000454487 0.00046956 0.000482113 0.000492145 0.000499657 0.000504649 0.000506955 0.000506411 0.000503017 0.000496773 0.000487678 0.000475733 0.000460938 0.000443293 0.000423745 0.000403243 0.000381785 0.000359373 0.000336007 0.000311685 0.000286409 0.000260178 0.000234102 0.000209292 0.000185747 0.000163467 0.000142452 0.000122703 0.000104219 8.69997e-05 7.12887e-05 5.73282e-05 4.51183e-05 3.46589e-05 2.59501e-05 1.89919e-05 1.37843e-05 1.03272e-05 7.90675e-06 5.80904e-06 4.03406e-06 2.5818e-06 1.45226e-06 6.45449e-07 1.61362e-07 0 0 -3.00275e-07 -1.2011e-06 -2.70247e-06 -4.8044e-06 -7.50687e-06 -1.08099e-05 -1.47135e-05 -1.92176e-05 -2.32284e-05 -2.56522e-05 -2.64889e-05 -2.57385e-05 -2.34011e-05 -1.94765e-05 -1.39649e-05 -6.8662e-06 1.98543e-06 1.27558e-05 2.5445e-05 4.0053e-05 5.65797e-05 7.50252e-05 9.53895e-05 0.000117673 0.00014031 0.000161738 0.000181956 0.000200964 0.000218762 0.00023535 0.000250728 0.000264897 0.000276689 0.000284938 0.000289644 0.000290807 0.000288427 0.000282503 0.000273037 0.000260027 0.000244293 0.000226653 0.000207107 0.000185655 0.000162298 0.000137034 0.000109864 8.0789e-05 5.23101e-05 2.69302e-05 4.64913e-06 -1.4533e-05 -3.06161e-05 -4.36003e-05 -5.34856e-05 -6.02719e-05 -6.18054e-05 -5.5932e-05 -4.26518e-05 -2.19647e-05 6.12921e-06 4.163e-05 8.45376e-05 0.000134852 0.000192082 0.000255738 0.000325819 0.000402325 0.000485257 0.000574613 0.000670395 0.000772602 0.000877407 0.000980981 0.00108332 0.00118444 0.00128432 0.00138297 0.00148039 0.00157659 0.00166712 0.00174758 0.00181795 0.00187824 0.00192845 0.00196858 0.00199863 0.00201859 0.00202782 0.00202564 0.00201207 0.00198709 0.00195071 0.00190293 0.00184375 0.00177317 0.00169498 0.00161297 0.00152714 0.00143749 0.00134403 0.00124674 0.00114564 0.00104071 0.00093641 0.000837168 0.000742988 0.000653868 0.000569809 0.000490811 0.000416875 0.000347999 0.000285155 0.000229313 0.000180473 0.000138636 0.000103801 7.59676e-05 5.51371e-05 4.13087e-05 3.1627e-05 2.32362e-05 1.61362e-05 1.03272e-05 5.80904e-06 2.5818e-06 6.45449e-07 0 0 -6.75618e-07 -2.70247e-06 -6.08056e-06 -1.08099e-05 -1.68905e-05 -2.43223e-05 -3.31053e-05 -4.32396e-05 -5.2264e-05 -5.77175e-05 -5.96001e-05 -5.79117e-05 -5.26524e-05 -4.38222e-05 -3.1421e-05 -1.54489e-05 4.46722e-06 2.87006e-05 5.72513e-05 9.01192e-05 0.000127304 0.000168807 0.000214626 0.000264763 0.000315698 0.00036391 0.0004094 0.000452168 0.000492214 0.000529538 0.000564139 0.000596018 0.000622551 0.000641111 0.000651699 0.000654315 0.00064896 0.000635632 0.000614332 0.000585061 0.000549659 0.000509969 0.000465991 0.000417724 0.000365169 0.000308326 0.000247195 0.000181775 0.000117698 6.05928e-05 1.04605e-05 -3.26991e-05 -6.88862e-05 -9.81007e-05 -0.000120343 -0.000135612 -0.000139062 -0.000125847 -9.59665e-05 -4.94206e-05 1.37907e-05 9.36674e-05 0.00019021 0.000303417 0.000432186 0.000575411 0.000733093 0.000905232 0.00109183 0.00129288 0.00150839 0.00173836 0.00197417 0.00220721 0.00243748 0.00266498 0.00288972 0.00311169 0.00333089 0.00354732 0.00375102 0.00393204 0.00409038 0.00422604 0.00433901 0.0044293 0.00449691 0.00454184 0.00456259 0.0045577 0.00452715 0.00447095 0.0043891 0.0042816 0.00414844 0.00398964 0.00381371 0.00362918 0.00343607 0.00323436 0.00302406 0.00280517 0.00257768 0.0023416 0.00210692 0.00188363 0.00167172 0.0014712 0.00128207 0.00110433 0.000937968 0.000782997 0.000641598 0.000515954 0.000406064 0.00031193 0.000233551 0.000170927 0.000124058 9.29447e-05 7.11608e-05 5.22814e-05 3.63065e-05 2.32362e-05 1.30703e-05 5.80904e-06 1.45226e-06 0 0 -1.2011e-06 -4.8044e-06 -1.08099e-05 -1.92176e-05 -3.00275e-05 -4.32396e-05 -5.88538e-05 -7.68703e-05 -9.29138e-05 -0.000102609 -0.000105956 -0.000102954 -9.36043e-05 -7.79061e-05 -5.58596e-05 -2.74648e-05 7.94172e-06 5.10233e-05 0.00010178 0.000160212 0.000226319 0.000300101 0.000381558 0.00047069 0.00056124 0.000646951 0.000727822 0.000803854 0.000875047 0.0009414 0.00100291 0.00105959 0.00110676 0.00113975 0.00115858 0.00116323 0.00115371 0.00113001 0.00109215 0.00104011 0.000977172 0.000906612 0.000828428 0.000742621 0.00064919 0.000548136 0.000439458 0.000323156 0.00020924 0.000107721 1.85965e-05 -5.81318e-05 -0.000122464 -0.000174401 -0.000213942 -0.000241088 -0.000247222 -0.000223728 -0.000170607 -8.78588e-05 2.45169e-05 0.00016652 0.00033815 0.000539408 0.00076833 0.00102295 0.00130328 0.0016093 0.00194103 0.00229845 0.00268158 0.00309041 0.00350963 0.00392392 0.0043333 0.00473775 0.00513728 0.00553189 0.00592158 0.00630634 0.00666848 0.0069903 0.00727179 0.00751296 0.0077138 0.00787432 0.00799451 0.00807438 0.00811128 0.00810258 0.00804827 0.00794836 0.00780285 0.00761173 0.00737501 0.00709269 0.00677992 0.00645188 0.00610857 0.00574997 0.00537611 0.00498696 0.00458254 0.00416285 0.00374564 0.00334867 0.00297195 0.00261547 0.00227924 0.00196325 0.0016675 0.001392 0.00114062 0.000917251 0.000721892 0.000554543 0.000415202 0.000303871 0.000220548 0.000165235 0.000126508 9.29447e-05 6.45449e-05 4.13087e-05 2.32362e-05 1.03272e-05 2.5818e-06 0 0 -1.87672e-06 -7.50687e-06 -1.68905e-05 -3.00275e-05 -4.69179e-05 -6.75618e-05 -9.19591e-05 -0.00012011 -0.000145178 -0.000160326 -0.000165556 -0.000160866 -0.000146257 -0.000121728 -8.72806e-05 -4.29137e-05 1.24089e-05 7.9724e-05 0.000159031 0.000250331 0.000353623 0.000468908 0.000596184 0.000735454 0.000876938 0.00101086 0.00113722 0.00125602 0.00136726 0.00147094 0.00156705 0.00165561 0.00172931 0.00178086 0.00181028 0.00181754 0.00180267 0.00176564 0.00170648 0.00162517 0.00152683 0.00141658 0.00129442 0.00116035 0.00101436 0.000856462 0.000686652 0.000504931 0.000326938 0.000168313 2.90571e-05 -9.08309e-05 -0.000191351 -0.000272502 -0.000334285 -0.0003767 -0.000386284 -0.000349575 -0.000266574 -0.000137279 3.83076e-05 0.000260187 0.00052836 0.000842825 0.00120052 0.00159836 0.00203637 0.00251453 0.00303285 0.00359133 0.00418997 0.00482876 0.00548379 0.00613113 0.00677078 0.00740273 0.008027 0.00864358 0.00925246 0.00985366 0.0104195 0.0109223 0.0113622 0.011739 0.0120528 0.0123036 0.0124914 0.0126162 0.0126739 0.0126603 0.0125754 0.0124193 0.012192 0.0118933 0.0115235 0.0110823 0.0105936 0.0100811 0.00954463 0.00898433 0.00840017 0.00779213 0.00716023 0.00650445 0.00585256 0.0052323 0.00464367 0.00408667 0.00356131 0.00306757 0.00260547 0.00217499 0.00178222 0.0014332 0.00112796 0.000866473 0.000648753 0.000474798 0.000344607 0.00025818 0.000197669 0.000145226 0.000100851 6.45449e-05 3.63065e-05 1.61362e-05 4.03406e-06 0 0 -2.70247e-06 -1.08099e-05 -2.43223e-05 -4.32396e-05 -6.75618e-05 -9.7289e-05 -0.000132421 -0.000172958 -0.000209056 -0.00023087 -0.0002384 -0.000231647 -0.00021061 -0.000175289 -0.000125684 -6.17958e-05 1.78689e-05 0.000114803 0.000229005 0.000360477 0.000509217 0.000675227 0.000858506 0.00105905 0.00126279 0.00145564 0.0016376 0.00180867 0.00196886 0.00211815 0.00225656 0.00238407 0.0024902 0.00256444 0.0026068 0.00261726 0.00259584 0.00254253 0.00245733 0.00234024 0.00219864 0.00203988 0.00186396 0.0016709 0.00146068 0.00123331 0.00098878 0.000727101 0.000470791 0.000242371 4.18422e-05 -0.000130797 -0.000275545 -0.000392403 -0.00048137 -0.000542447 -0.000556248 -0.000503388 -0.000383866 -0.000197682 5.51629e-05 0.00037467 0.000760838 0.00121367 0.00172874 0.00230164 0.00293237 0.00362093 0.00436731 0.00517152 0.00603356 0.00695342 0.00789666 0.00882883 0.00974992 0.0106599 0.0115589 0.0124468 0.0133235 0.0141893 0.0150041 0.0157282 0.0163615 0.0169042 0.0173561 0.0177172 0.0179876 0.0181673 0.0182504 0.0182308 0.0181086 0.0178838 0.0175564 0.0171264 0.0165938 0.0159585 0.0152548 0.0145167 0.0137443 0.0129374 0.0120962 0.0112207 0.0103107 0.00936641 0.00842769 0.00753451 0.00668689 0.00588481 0.00512828 0.0044173 0.00375187 0.00313199 0.00256639 0.00206381 0.00162426 0.00124772 0.000934205 0.000683709 0.000496234 0.000371779 0.000284643 0.000209125 0.000145226 9.29447e-05 5.22814e-05 2.32362e-05 5.80904e-06 0 0 -3.67837e-06 -1.47135e-05 -3.31053e-05 -5.88538e-05 -9.19591e-05 -0.000132421 -0.00018024 -0.000235415 -0.000284548 -0.00031424 -0.000324489 -0.000315297 -0.000286663 -0.000238587 -0.00017107 -8.41109e-05 2.43215e-05 0.000156259 0.000311701 0.000490649 0.000693101 0.000919059 0.00116852 0.00144149 0.0017188 0.00198129 0.00222896 0.0024618 0.00267983 0.00288304 0.00307142 0.00324499 0.00338944 0.00349049 0.00354814 0.00356238 0.00353323 0.00346066 0.0033447 0.00318533 0.00299259 0.0027765 0.00253706 0.00227428 0.00198814 0.00167867 0.00134584 0.000989665 0.000640799 0.000329894 5.69519e-05 -0.000178029 -0.000375047 -0.000534104 -0.000655198 -0.000738331 -0.000757116 -0.000685167 -0.000522484 -0.000269068 7.50829e-05 0.000509967 0.00103559 0.00165194 0.00235301 0.00313279 0.00399128 0.00492848 0.00594439 0.00703901 0.00821234 0.00946438 0.0107482 0.012017 0.0132707 0.0145094 0.0157329 0.0169414 0.0181348 0.0193132 0.0204222 0.0214078 0.0222699 0.0230084 0.0236235 0.0241151 0.0244832 0.0247278 0.0248408 0.0248141 0.0246478 0.0243419 0.0238962 0.0233109 0.022586 0.0217214 0.0207635 0.0197589 0.0187075 0.0176093 0.0164643 0.0152726 0.014034 0.0127487 0.011471 0.0102553 0.0091016 0.00800988 0.00698016 0.00601244 0.00510671 0.00426299 0.00349314 0.00280908 0.00221079 0.00169829 0.00127156 0.000930604 0.000675429 0.000506032 0.000387431 0.000284643 0.000197669 0.000126508 7.11608e-05 3.1627e-05 7.90675e-06 0 0 -4.8044e-06 -1.92176e-05 -4.32396e-05 -7.68703e-05 -0.00012011 -0.000172958 -0.000235415 -0.000307481 -0.000371655 -0.000410435 -0.000423823 -0.000411816 -0.000374417 -0.000311624 -0.000223438 -0.000109859 3.17669e-05 0.000204093 0.00040712 0.000640848 0.000905275 0.0012004 0.00152623 0.00188276 0.00224496 0.0025878 0.00291129 0.00321542 0.00350019 0.0037656 0.00401166 0.00423835 0.00442703 0.00455901 0.0046343 0.00465291 0.00461482 0.00452005 0.00436859 0.00416043 0.00390869 0.00362645 0.00331371 0.00297048 0.00259676 0.00219254 0.00175783 0.00129262 0.000836962 0.000430882 7.43861e-05 -0.000232527 -0.000489858 -0.000697605 -0.000855769 -0.000964351 -0.000988886 -0.000894912 -0.000682428 -0.000351435 9.80674e-05 0.000666079 0.0013526 0.00215763 0.00307332 0.00409181 0.00521311 0.0064372 0.00776411 0.00919381 0.0107263 0.0123616 0.0140385 0.0156957 0.0173332 0.018951 0.0205491 0.0221276 0.0236863 0.0252254 0.0266739 0.0279612 0.0290872 0.0300518 0.0308552 0.0314973 0.031978 0.0322975 0.0324451 0.0324103 0.0321931 0.0317934 0.0312114 0.0304469 0.0295 0.0283707 0.0271197 0.0258075 0.0244343 0.0229999 0.0215044 0.0199479 0.0183302 0.0166514 0.0149826 0.0133947 0.0118878 0.0104619 0.00911695 0.00785298 0.00666999 0.00556798 0.00456247 0.003669 0.00288757 0.00221817 0.00166081 0.00121548 0.000882193 0.00066094 0.000506032 0.000371779 0.00025818 0.000165235 9.29447e-05 4.13087e-05 1.03272e-05 0 0 -5.67119e-06 -2.26847e-05 -5.10407e-05 -9.0739e-05 -0.00014178 -0.000204163 -0.000277888 -0.000362956 -0.000437096 -0.000478038 -0.000485783 -0.00046033 -0.000401679 -0.00030983 -0.000184783 -2.65389e-05 0.000167841 0.000401293 0.000673819 0.000985418 0.00133609 0.00172583 0.00215465 0.00262254 0.00309739 0.00354709 0.00397164 0.00437103 0.00474528 0.00509437 0.00541831 0.00571709 0.00596681 0.00614356 0.00624732 0.00627811 0.00623592 0.00612076 0.00593261 0.00567149 0.00535418 0.00499748 0.00460138 0.00416589 0.00369101 0.00317673 0.00262306 0.00203 0.00144876 0.000930579 0.000475446 8.33643e-05 -0.000245667 -0.000511646 -0.000714575 -0.000854452 -0.000887291 -0.000769104 -0.00049989 -7.96504e-05 0.000491615 0.00121391 0.00208723 0.00311157 0.00427689 0.00557314 0.00700031 0.00855841 0.0102474 0.0120674 0.0140183 0.0161001 0.0182347 0.0203442 0.0224286 0.0244877 0.0265217 0.0285305 0.0305141 0.0324725 0.0343156 0.0359532 0.0373852 0.0386117 0.0396327 0.0404482 0.0410581 0.0414625 0.0416479 0.0416006 0.0413207 0.0408082 0.0400631 0.0390854 0.0378751 0.0364322 0.0348338 0.0331569 0.0314017 0.0295681 0.027656 0.0256656 0.0235967 0.0214495 0.0193143 0.0172816 0.0153513 0.0135236 0.0117984 0.0101756 0.00865538 0.00723763 0.00594269 0.00479088 0.0037822 0.00291666 0.00219424 0.00161496 0.00117882 0.0008858 0.00067819 0.000498262 0.000346015 0.00022145 0.000124566 5.53625e-05 1.38406e-05 0 0 -5.86936e-06 -2.34774e-05 -5.28242e-05 -9.39097e-05 -0.000146734 -0.000211297 -0.000287599 -0.000375639 -0.000447591 -0.000475629 -0.000459752 -0.000399961 -0.000296255 -0.000148634 4.29015e-05 0.000278351 0.000560179 0.000890847 0.00127036 0.0016987 0.00217589 0.00270192 0.00327679 0.0039005 0.00453221 0.00513105 0.00569704 0.00623017 0.00673045 0.00719787 0.00763243 0.00803414 0.00837267 0.0086177 0.00876923 0.00882727 0.00879181 0.00866285 0.0084404 0.00812444 0.00773632 0.00729735 0.00680754 0.00626688 0.00567538 0.00503304 0.00433985 0.00359581 0.00286569 0.00221423 0.00164143 0.0011473 0.000731835 0.000395032 0.000136894 -4.25809e-05 -8.80625e-05 5.57774e-05 0.000388939 0.000911421 0.00162323 0.00252435 0.0036148 0.00489457 0.00635094 0.00797121 0.00975537 0.0117034 0.0138154 0.0160912 0.0185309 0.0211345 0.0238042 0.0264421 0.0290481 0.0316224 0.0341648 0.0366754 0.0391543 0.0416013 0.0439037 0.0459485 0.0477358 0.0492655 0.0505376 0.0515522 0.0523093 0.0528088 0.0530335 0.0529663 0.052607 0.0519558 0.0510126 0.0497775 0.0482503 0.0464312 0.0444162 0.0423014 0.0400869 0.0377726 0.0353586 0.0328448 0.0302313 0.027518 0.0248181 0.0222448 0.019798 0.0174778 0.0152842 0.0132171 0.0112766 0.00946259 0.0078021 0.00632201 0.00502232 0.00390303 0.00296415 0.00220567 0.00162759 0.00122991 0.000941649 0.000691824 0.000480433 0.000307477 0.000172956 7.68693e-05 1.92173e-05 0 0 -5.39891e-06 -2.15956e-05 -4.85902e-05 -8.63826e-05 -0.000134973 -0.000194361 -0.000264547 -0.00034553 -0.000403141 -0.000403208 -0.000345731 -0.00023071 -5.81451e-05 0.000171963 0.000459616 0.000804812 0.00120878 0.00167275 0.00219673 0.00278071 0.00342469 0.00412867 0.00489266 0.00571665 0.0065494 0.00733969 0.0080875 0.00879284 0.00945571 0.0100761 0.010654 0.0111895 0.0116446 0.0119814 0.0122 0.0123004 0.0122825 0.0121463 0.0118919 0.0115193 0.0110551 0.0105261 0.00993218 0.00927345 0.00854987 0.00776145 0.00690818 0.00599007 0.00508774 0.00428183 0.00357235 0.00295929 0.00244265 0.00202243 0.00169864 0.00147126 0.0014088 0.00157973 0.00198406 0.00262178 0.0034929 0.00459741 0.00593532 0.00750662 0.00929547 0.011286 0.0134783 0.0158722 0.0184679 0.0212652 0.0242643 0.027465 0.0307469 0.0339891 0.0371918 0.0403549 0.0434785 0.0465625 0.0496069 0.0526118 0.0554381 0.0579472 0.0601388 0.062013 0.0635699 0.0648094 0.0657315 0.0663363 0.0666021 0.0665073 0.0660521 0.0652363 0.0640599 0.0625231 0.0606256 0.0583677 0.0558669 0.053241 0.0504899 0.0476136 0.0446122 0.0414856 0.0382339 0.034857 0.0314942 0.0282844 0.0252279 0.0223246 0.0195744 0.0169774 0.0145335 0.0122429 0.0101407 0.00826238 0.00660792 0.0051773 0.00397052 0.00298759 0.00222851 0.00169327 0.00129641 0.000952463 0.000661433 0.000423317 0.000238116 0.000105829 2.64573e-05 0 0 -4.25985e-06 -1.70394e-05 -3.83386e-05 -6.81575e-05 -0.000106496 -0.000153354 -0.000208732 -0.00027263 -0.000303745 -0.000260774 -0.000143718 4.7423e-05 0.00031265 0.000651962 0.00106536 0.00155284 0.00211365 0.00274701 0.00345294 0.00423143 0.00508247 0.00600608 0.00700224 0.00807097 0.00914898 0.010173 0.011143 0.012059 0.012921 0.0137291 0.0144831 0.0151831 0.0157826 0.0162347 0.0165397 0.0166974 0.0167079 0.0165712 0.0162872 0.015856 0.0153105 0.0146836 0.0139753 0.0131856 0.0123145 0.011362 0.0103281 0.00921276 0.00811491 0.00713339 0.00626819 0.00551932 0.00488677 0.00437055 0.00397065 0.00368708 0.00360329 0.00380276 0.00428547 0.00505143 0.00610063 0.00743309 0.00904879 0.0109477 0.0131105 0.0155176 0.018169 0.0210648 0.024205 0.0275895 0.0312184 0.0350916 0.0390627 0.0429854 0.0468597 0.0506854 0.0544627 0.0581916 0.0618719 0.0655038 0.068919 0.0719492 0.0745943 0.0768545 0.0787296 0.0802198 0.0813249 0.0820451 0.0823536 0.0822238 0.0816558 0.0806495 0.079205 0.0773222 0.0750011 0.0722418 0.069186 0.0659756 0.0626106 0.059091 0.0554168 0.051588 0.0476045 0.0434665 0.0393423 0.0354005 0.031641 0.0280638 0.0246689 0.0214564 0.0184263 0.0155784 0.0129585 0.010612 0.008539 0.00673945 0.00521336 0.00396074 0.00298158 0.00227588 0.00174247 0.00128018 0.000889014 0.000568969 0.000320045 0.000142242 3.55606e-05 0 0 -2.45216e-06 -9.80865e-06 -2.20695e-05 -3.92346e-05 -6.13041e-05 -8.82779e-05 -0.000120156 -0.000156938 -0.000149403 -4.83289e-05 0.000146285 0.000434438 0.00081613 0.00129136 0.00186013 0.00252244 0.00327478 0.00411363 0.00503899 0.00605086 0.00714925 0.00833414 0.00960555 0.0109635 0.0123309 0.013631 0.0148636 0.0160287 0.0171265 0.0181568 0.0191197 0.0200151 0.0207866 0.0213777 0.0217883 0.0220184 0.0220682 0.0219375 0.0216263 0.0211347 0.0205026 0.01977 0.0189369 0.0180033 0.0169692 0.0158346 0.0145995 0.0132639 0.0119472 0.0107689 0.00972896 0.0088274 0.00806421 0.00743939 0.00695294 0.00660487 0.00649542 0.00672486 0.00729317 0.00820036 0.00944643 0.0110314 0.0129552 0.0152179 0.017796 0.0206659 0.0238277 0.0272813 0.0310267 0.035064 0.0393932 0.0440142 0.0487518 0.053431 0.0580517 0.0626138 0.0671175 0.0715627 0.0759494 0.0802775 0.0843462 0.0879545 0.0911023 0.0937898 0.0960167 0.0977833 0.0990894 0.0999351 0.100288 0.100116 0.0994182 0.0981956 0.0964478 0.0941748 0.0913767 0.0880534 0.0843734 0.0805053 0.0764491 0.0722048 0.0677724 0.0631518 0.0583432 0.0533464 0.0483626 0.0435929 0.0390372 0.0346955 0.0305679 0.0266543 0.0229548 0.0194693 0.0162555 0.0133709 0.0108156 0.0085895 0.00669268 0.00512511 0.0038868 0.00297773 0.00227983 0.00167498 0.00116318 0.000744434 0.000418744 0.000186108 4.65271e-05 0 0 2.41386e-08 9.65543e-08 2.17247e-07 3.86217e-07 6.03465e-07 8.68989e-07 1.18279e-06 1.54487e-06 5.98839e-05 0.000234129 0.000524279 0.000930335 0.0014523 0.00209016 0.00284394 0.00371361 0.00469218 0.0057726 0.00695488 0.00823901 0.00962501 0.0111129 0.0127026 0.0143942 0.0160953 0.0177136 0.0192492 0.020702 0.022072 0.0233592 0.0245637 0.0256854 0.0266567 0.0274102 0.0279457 0.0282634 0.0283632 0.0282451 0.0279091 0.0273552 0.0266313 0.0257852 0.024817 0.0237266 0.0225141 0.0211794 0.0197225 0.0181435 0.0165846 0.0151884 0.0139547 0.0128835 0.0119749 0.0112289 0.0106455 0.0102246 0.0100852 0.010346 0.0110072 0.0120686 0.0135303 0.0153923 0.0176546 0.0203171 0.023352 0.026731 0.0304541 0.0345215 0.038933 0.0436888 0.0487887 0.0542328 0.0598142 0.0653258 0.0707679 0.0761402 0.0814429 0.0866759 0.0918392 0.0969329 0.10172 0.105963 0.109663 0.112819 0.115431 0.1175 0.119025 0.120006 0.120405 0.120183 0.119339 0.117875 0.115788 0.113081 0.109752 0.105802 0.101429 0.0968301 0.0920054 0.086955 0.0816789 0.0761772 0.0704499 0.0644968 0.0585551 0.0528617 0.0474165 0.0422197 0.0372712 0.032571 0.0281191 0.0239155 0.0200317 0.016539 0.0134376 0.0107274 0.00840845 0.0064807 0.00494416 0.00379884 0.00290849 0.00213685 0.00148392 0.000949711 0.000534212 0.000237428 5.93569e-05 0 0 3.16906e-06 1.26762e-05 2.85215e-05 5.07049e-05 7.92265e-05 0.000114086 0.000155284 0.00020282 0.000324117 0.000586598 0.000990264 0.00153511 0.00222115 0.00304837 0.00401677 0.00512636 0.00636584 0.00772392 0.0092006 0.0107959 0.0125098 0.0143423 0.0162933 0.018363 0.020442 0.0224209 0.0242999 0.0260787 0.0277576 0.0293364 0.0308152 0.0321939 0.0333929 0.0343323 0.0350121 0.0354323 0.035593 0.0354941 0.0351357 0.0345177 0.0336967 0.0327293 0.0316156 0.0303555 0.0289491 0.0273962 0.025697 0.0238515 0.0220272 0.0203918 0.0189453 0.0176877 0.016619 0.0157392 0.0150483 0.0145464 0.0143726 0.0146663 0.0154274 0.0166561 0.0183522 0.0205158 0.0231469 0.0262454 0.0297784 0.0337128 0.0380485 0.0427855 0.047924 0.0534638 0.0594049 0.0657475 0.0722497 0.0786699 0.0850082 0.0912645 0.0974388 0.103531 0.109541 0.11547 0.12104 0.125975 0.130276 0.133942 0.136973 0.13937 0.141132 0.142259 0.142706 0.142426 0.141419 0.139686 0.137227 0.134041 0.130128 0.125489 0.120353 0.11495 0.109279 0.103342 0.0971365 0.0906642 0.0839246 0.0769177 0.0699197 0.0632068 0.0567791 0.0506365 0.0447789 0.0392065 0.0339192 0.028917 0.024287 0.0201164 0.0164051 0.0131532 0.0103607 0.00802751 0.00615368 0.0047392 0.00362845 0.0026658 0.00185125 0.0011848 0.00066645 0.0002962 7.405e-05 0 0 6.9826e-06 2.79304e-05 6.28434e-05 0.000111722 0.000174565 0.000251373 0.000342147 0.000446886 0.000643295 0.00100908 0.00154424 0.00224877 0.00312268 0.00416597 0.00537863 0.00676067 0.00829576 0.00996759 0.0117762 0.0137215 0.0158035 0.0180223 0.0203778 0.0228701 0.0253711 0.0277529 0.0300156 0.032159 0.0341833 0.0360883 0.0378741 0.0395408 0.0409951 0.0421439 0.0429873 0.0435252 0.0437576 0.0436845 0.043306 0.042622 0.0416987 0.0406022 0.0393327 0.03789 0.0362742 0.0344852 0.0325231 0.0303879 0.0282748 0.0263791 0.0247008 0.0232399 0.0219964 0.0209702 0.0201615 0.0195701 0.0193576 0.0196856 0.020554 0.0219629 0.0239122 0.0264019 0.0294321 0.0330028 0.0370754 0.0416113 0.0466106 0.0520734 0.0579995 0.064389 0.0712419 0.0785582 0.0860584 0.0934633 0.100773 0.107987 0.115105 0.122128 0.129056 0.135888 0.142306 0.147991 0.152941 0.157159 0.160642 0.163393 0.16541 0.166693 0.167189 0.166844 0.165658 0.163631 0.160763 0.157054 0.152504 0.147113 0.141146 0.134865 0.128271 0.121365 0.114145 0.106613 0.0987673 0.090609 0.0824565 0.0746284 0.0671248 0.0599457 0.053091 0.0465608 0.0403551 0.0344738 0.0290216 0.024103 0.0197182 0.015867 0.0125494 0.00976555 0.00751534 0.00579881 0.00443971 0.00326183 0.00226516 0.0014497 0.000815457 0.000362425 9.06064e-05 0 0 1.19608e-05 4.78432e-05 0.000107647 0.000191373 0.00029902 0.000430588 0.000586079 0.000765491 0.00105757 0.00155108 0.00224601 0.00314236 0.00424013 0.00553932 0.00703994 0.00874197 0.0106229 0.01266 0.0148535 0.0172032 0.0197092 0.0223714 0.02519 0.0281648 0.0311474 0.0339892 0.0366901 0.0392503 0.0416698 0.0439484 0.0460862 0.0480833 0.0498317 0.0512237 0.0522593 0.0529385 0.0532613 0.0532277 0.0528376 0.0520911 0.0510648 0.049835 0.0484019 0.0467654 0.0449256 0.0428824 0.0406358 0.0381859 0.0357577 0.0335764 0.031642 0.0299545 0.0285138 0.0273201 0.0263732 0.0256733 0.0254056 0.0257558 0.0267237 0.0283094 0.0305129 0.0333341 0.0367732 0.04083 0.0454602 0.0506193 0.0563075 0.0625247 0.0692709 0.076546 0.0843502 0.0926833 0.101226 0.109659 0.117983 0.126197 0.134302 0.142296 0.150182 0.157957 0.16526 0.171725 0.177353 0.182144 0.186097 0.189214 0.191493 0.192936 0.193479 0.19306 0.19168 0.189338 0.186035 0.18177 0.176544 0.170356 0.163507 0.156295 0.14872 0.140783 0.132484 0.123823 0.114799 0.105412 0.0960274 0.0870073 0.0783519 0.0700614 0.0621358 0.054575 0.047379 0.0405479 0.0342057 0.0284766 0.0233605 0.0188576 0.0149677 0.0116909 0.00902714 0.00697648 0.00534137 0.00392427 0.00272519 0.00174412 0.000981068 0.00043603 0.000109008 0 0 1.85997e-05 7.43987e-05 0.000167397 0.000297595 0.000464992 0.000669589 0.000911385 0.00119038 0.00160711 0.00226211 0.00315537 0.0042869 0.0056567 0.00726477 0.0091111 0.0111957 0.0134881 0.0159576 0.0186044 0.0214284 0.0244297 0.0276081 0.0309638 0.0344967 0.0380356 0.0414091 0.0446174 0.0476603 0.0505378 0.0532501 0.055797 0.0581786 0.060271 0.0619501 0.0632161 0.0640688 0.0645084 0.0645348 0.0641479 0.0633479 0.0622223 0.0608586 0.059257 0.0574173 0.0553396 0.0530239 0.0504702 0.0476784 0.0449058 0.0424095 0.0401894 0.0382457 0.0365782 0.035187 0.0340721 0.0332335 0.032882 0.0332287 0.0342734 0.0360161 0.0384569 0.0415958 0.0454327 0.0499677 0.0551502 0.0609296 0.0673059 0.0742792 0.0818493 0.0900164 0.0987804 0.108141 0.117739 0.127212 0.136561 0.145786 0.154887 0.163864 0.172716 0.181445 0.18964 0.196893 0.203203 0.208571 0.212996 0.216478 0.219018 0.220616 0.221199 0.220698 0.219111 0.216439 0.212682 0.20784 0.201912 0.1949 0.187137 0.178959 0.170366 0.161357 0.151933 0.142094 0.13184 0.12117 0.110495 0.100224 0.0903587 0.0808978 0.0718416 0.0631901 0.0549432 0.0471011 0.0398096 0.0332146 0.0273161 0.0221141 0.0176086 0.0137996 0.0106871 0.00827104 0.00633252 0.00465246 0.00323088 0.00206776 0.00116312 0.00051694 0.000129235 0 0 2.68993e-05 0.000107597 0.000242093 0.000430388 0.000672482 0.000968374 0.00131806 0.00172155 0.0022919 0.00314216 0.00427232 0.00568241 0.0073724 0.00934231 0.0115921 0.0141219 0.0168913 0.0198604 0.023029 0.0263972 0.029965 0.0337324 0.0376993 0.0418659 0.0460358 0.0500129 0.0537972 0.0573887 0.0607875 0.0639934 0.0670065 0.0698269 0.0723129 0.0743231 0.0758575 0.0769161 0.0774989 0.0776059 0.0772371 0.0763924 0.0751713 0.0736731 0.0718979 0.0698456 0.0675162 0.0649097 0.0620261 0.0588655 0.0557191 0.0528783 0.0503431 0.0481135 0.0461894 0.0445709 0.043258 0.0422507 0.0417868 0.0421042 0.043203 0.045083 0.0477443 0.0511869 0.0554108 0.060416 0.0661455 0.0725421 0.0796058 0.0873368 0.0957349 0.1048 0.114533 0.124932 0.135596 0.146121 0.156506 0.166753 0.176861 0.18683 0.196661 0.206352 0.215449 0.223496 0.230493 0.23644 0.241338 0.245186 0.247984 0.249733 0.250351 0.249756 0.24795 0.244933 0.240703 0.235262 0.228608 0.220743 0.212037 0.202858 0.193208 0.183086 0.172492 0.161427 0.14989 0.137881 0.125858 0.11428 0.103145 0.0924547 0.0822084 0.072406 0.0630478 0.0541336 0.0458334 0.0383172 0.0315849 0.0256365 0.0204721 0.0160916 0.0124951 0.00968249 0.00741315 0.0054464 0.00378222 0.00242062 0.0013616 0.000605155 0.000151289 0 0 3.68596e-05 0.000147438 0.000331736 0.000589753 0.000921489 0.00132694 0.00180612 0.00235901 0.00311194 0.00419123 0.00559687 0.00732887 0.00938723 0.0117719 0.014483 0.0175204 0.0208327 0.0243683 0.0281273 0.0321096 0.0363152 0.0407442 0.0453965 0.0502722 0.0551479 0.0598004 0.0642297 0.0684358 0.0724187 0.0761783 0.0797148 0.083028 0.0859575 0.0883427 0.0901837 0.0914804 0.0922328 0.092441 0.0921049 0.0912246 0.0899118 0.0882785 0.0863247 0.0840503 0.0814553 0.0785398 0.0753038 0.0717472 0.0681977 0.064983 0.0621031 0.0595579 0.0573475 0.0554719 0.053931 0.0527249 0.05212 0.0523825 0.0535125 0.05551 0.058375 0.0621075 0.0667075 0.0721749 0.078446 0.0854568 0.0932073 0.101698 0.110928 0.120897 0.131607 0.143056 0.154798 0.166386 0.17782 0.189099 0.200225 0.211196 0.222014 0.232677 0.242684 0.251532 0.259222 0.265752 0.271124 0.275337 0.278391 0.280287 0.280932 0.280236 0.278199 0.274819 0.270099 0.264036 0.256633 0.247887 0.238205 0.227992 0.217247 0.20597 0.194161 0.181821 0.168949 0.155546 0.142118 0.129173 0.116711 0.104732 0.0932361 0.0822229 0.0716926 0.0616453 0.0522771 0.0437843 0.0361668 0.0294248 0.0235582 0.018567 0.0144512 0.0112108 0.00858328 0.00630608 0.00437923 0.0028027 0.00157652 0.000700676 0.000175169 0 0 4.84805e-05 0.000193922 0.000436325 0.000775689 0.00121201 0.0017453 0.00237555 0.00310275 0.00406724 0.00540933 0.00712902 0.0092263 0.0117012 0.0145537 0.0177838 0.0213914 0.0253122 0.0294814 0.0338992 0.0385655 0.0434802 0.0486435 0.0540554 0.0597157 0.065372 0.0707717 0.0759148 0.0808014 0.0854314 0.0898049 0.0939217 0.097782 0.101205 0.104009 0.106195 0.107762 0.10871 0.10904 0.108752 0.107844 0.106444 0.104675 0.102537 0.100031 0.097157 0.0939143 0.0903031 0.0863235 0.0823416 0.0787235 0.0754693 0.072579 0.0700525 0.0678899 0.0660911 0.0646562 0.0638815 0.0640635 0.0652021 0.0672973 0.0703491 0.0743576 0.0793227 0.0852444 0.0920517 0.0996737 0.10811 0.117361 0.127427 0.138308 0.150003 0.162512 0.175345 0.188007 0.2005 0.212824 0.224978 0.236962 0.248776 0.260422 0.271347 0.281003 0.28939 0.296506 0.302354 0.306931 0.31024 0.312278 0.312945 0.312137 0.309855 0.306099 0.300869 0.294164 0.285985 0.276331 0.265643 0.25436 0.242482 0.230009 0.21694 0.203277 0.189018 0.174165 0.159274 0.144905 0.131057 0.11773 0.104925 0.0926407 0.0808778 0.0696362 0.0591406 0.0496159 0.041062 0.0334791 0.026867 0.0212258 0.0165555 0.012856 0.0098429 0.00723152 0.00502189 0.00321401 0.00180788 0.000803502 0.000200876 0 0 6.17622e-05 0.000247049 0.00055586 0.000988196 0.00154406 0.00222344 0.00302635 0.00395278 0.0051578 0.00679646 0.00886875 0.0113747 0.0143143 0.0176875 0.0214944 0.0257349 0.0303297 0.0351997 0.0403447 0.0457649 0.0514601 0.0574304 0.0636759 0.0701964 0.076708 0.0829267 0.0888526 0.0944856 0.0998258 0.104873 0.109627 0.114089 0.118055 0.121322 0.12389 0.12576 0.126931 0.127403 0.127177 0.126252 0.124767 0.122862 0.120536 0.117789 0.114621 0.111033 0.107024 0.102594 0.0981507 0.0940998 0.0904419 0.0871767 0.0843044 0.0818249 0.0797383 0.0780445 0.0770714 0.0771471 0.0782715 0.0804447 0.0836665 0.0879371 0.0932564 0.0996244 0.106963 0.115193 0.124315 0.134329 0.145234 0.157032 0.169721 0.183302 0.197236 0.210985 0.224548 0.237926 0.251119 0.264126 0.276948 0.289585 0.301438 0.311908 0.320997 0.328703 0.335027 0.339969 0.343529 0.345707 0