<?xml version="1.0"?> 
<VTKFile type="StructuredGrid" version="0.1"> 
<StructuredGrid WholeExtent="0 128 0 128 0 0"> 
<Piece Extent="0 128 0 128 0 0"> 
<PointData>
<DataArray type="Float32" Name="u" format="ascii" NumberOfComponents="1"> 
0 0 0 0 0 0 0 0 0 0 0 0 0 0 0 0 0 0 0 0 0 0 0 0 0 0 0 0 0 0 0 0 0 0 0 0 0 0 0 0 0 0 0 0 0 0 0 0 0 0 0 0 0 0 0 0 0 0 0 0 0 0 0 0 0 0 0 0 0 0 0 0 0 0 0 0 0 0 0 0 0 0 0 0 0 0 0 0 0 0 0 0 0 0 0 0 0 0 0 0 0 0 0 0 0 0 0 0 0 0 0 0 0 0 0 0 0 0 0 0 0 0 0 0 0 0 0 0 0 0 -8.75301e-08 -3.5012e-07 -7.87771e-07 -1.40048e-06 -2.18825e-06 -3.15108e-06 -4.28897e-06 -5.60192e-06 -6.8062e-06 -7.61806e-06 -8.0375e-06 -8.06453e-06 -7.69915e-06 -6.94134e-06 -5.79113e-06 -4.2485e-06 -2.25226e-06 2.58765e-07 3.28459e-06 6.82521e-06 1.08806e-05 1.54508e-05 2.05358e-05 2.61356e-05 3.18462e-05 3.72637e-05 4.2388e-05 4.72191e-05 5.1757e-05 5.60018e-05 5.99535e-05 6.36119e-05 6.6663e-05 6.87925e-05 7.00003e-05 7.02866e-05 6.96512e-05 6.80942e-05 6.56156e-05 6.22154e-05 5.80987e-05 5.34709e-05 4.83319e-05 4.26816e-05 3.65202e-05 2.98476e-05 2.26637e-05 1.49687e-05 7.4172e-06 6.63948e-07 -5.29105e-06 -1.04478e-05 -1.48063e-05 -1.83665e-05 -2.11285e-05 -2.30922e-05 -2.36886e-05 -2.23485e-05 -1.90719e-05 -1.38588e-05 -6.70921e-06 2.37685e-06 1.33994e-05 2.63584e-05 4.11288e-05 5.75856e-05 7.57287e-05 9.55581e-05 0.000117074 0.000140276 0.000165164 0.000191739 0.000218997 0.000245933 0.000272549 0.000298843 0.000324817 0.000350469 0.000375801 0.000400812 0.000424346 0.000445247 0.000463516 0.000479153 0.000492157 0.000502528 0.000510268 0.000515374 0.00051769 0.000517057 0.000513474 0.000506942 0.000497461 0.00048503 0.000469651 0.000451322 0.000431044 0.000409819 0.000387646 0.000364526 0.000340457 0.000315441 0.000289477 0.000262565 0.000235849 0.000210471 0.00018643 0.000163728 0.000142364 0.000122337 0.000103649 8.6299e-05 7.05076e-05 5.64954e-05 4.42625e-05 3.38089e-05 2.51346e-05 1.82395e-05 1.31238e-05 9.78732e-06 7.49342e-06 5.50537e-06 3.82317e-06 2.44683e-06 1.37634e-06 6.11707e-07 1.52927e-07 0 0 -3.5012e-07 -1.40048e-06 -3.15108e-06 -5.60192e-06 -8.75301e-06 -1.26043e-05 -1.71559e-05 -2.24077e-05 -2.72248e-05 -3.04722e-05 -3.215e-05 -3.22581e-05 -3.07966e-05 -2.77654e-05 -2.31645e-05 -1.6994e-05 -9.00905e-06 1.03506e-06 1.31384e-05 2.73008e-05 4.35225e-05 6.18033e-05 8.21433e-05 0.000104542 0.000127385 0.000149055 0.000169552 0.000188876 0.000207028 0.000224007 0.000239814 0.000254448 0.000266652 0.00027517 0.000280001 0.000281146 0.000278605 0.000272377 0.000262462 0.000248861 0.000232395 0.000213884 0.000193327 0.000170727 0.000146081 0.00011939 9.0655e-05 5.98748e-05 2.96688e-05 2.65579e-06 -2.11642e-05 -4.17912e-05 -5.92252e-05 -7.34661e-05 -8.4514e-05 -9.23689e-05 -9.47544e-05 -8.93939e-05 -7.62875e-05 -5.54351e-05 -2.68368e-05 9.50739e-06 5.35975e-05 0.000105434 0.000164515 0.000230342 0.000302915 0.000382233 0.000468296 0.000561104 0.000660658 0.000766957 0.000875987 0.000983733 0.00109019 0.00119537 0.00129927 0.00140188 0.0015032 0.00160325 0.00169738 0.00178099 0.00185406 0.00191661 0.00196863 0.00201011 0.00204107 0.0020615 0.00207076 0.00206823 0.0020539 0.00202777 0.00198984 0.00194012 0.0018786 0.00180529 0.00172418 0.00163928 0.00155058 0.0014581 0.00136183 0.00126176 0.00115791 0.00105026 0.000943396 0.000841882 0.000745721 0.000654911 0.000569454 0.000489349 0.000414597 0.000345196 0.00028203 0.000225982 0.00017705 0.000135236 0.000100538 7.29582e-05 5.24952e-05 3.91493e-05 2.99737e-05 2.20215e-05 1.52927e-05 9.78732e-06 5.50537e-06 2.44683e-06 6.11707e-07 0 0 -7.87771e-07 -3.15108e-06 -7.08994e-06 -1.26043e-05 -1.96943e-05 -2.83597e-05 -3.86008e-05 -5.04173e-05 -6.12558e-05 -6.85625e-05 -7.23375e-05 -7.25808e-05 -6.92923e-05 -6.24721e-05 -5.21202e-05 -3.82365e-05 -2.02704e-05 2.32889e-06 2.95613e-05 6.14268e-05 9.79255e-05 0.000139057 0.000184822 0.000235221 0.000286616 0.000335373 0.000381492 0.000424972 0.000465813 0.000504016 0.000539581 0.000572507 0.000599967 0.000619132 0.000630003 0.000632579 0.000626861 0.000612848 0.00059054 0.000559938 0.000522889 0.000481238 0.000434987 0.000384135 0.000328682 0.000268628 0.000203974 0.000134718 6.67548e-05 5.97553e-06 -4.76195e-05 -9.40302e-05 -0.000133257 -0.000165299 -0.000190157 -0.00020783 -0.000213197 -0.000201136 -0.000171647 -0.000124729 -6.03829e-05 2.13916e-05 0.000120594 0.000237226 0.00037016 0.00051827 0.000681558 0.000860023 0.00105367 0.00126248 0.00148648 0.00172565 0.00197097 0.0022134 0.00245294 0.00268959 0.00292335 0.00315422 0.00338221 0.00360731 0.00381911 0.00400722 0.00417165 0.00431237 0.00442941 0.00452276 0.00459241 0.00463837 0.00465921 0.00465351 0.00462127 0.00456248 0.00447715 0.00436527 0.00422686 0.0040619 0.0038794 0.00368837 0.00348882 0.00328073 0.00306411 0.00283897 0.00260529 0.00236309 0.00212264 0.00189423 0.00167787 0.00147355 0.00128127 0.00110104 0.000932842 0.000776691 0.000634568 0.000508459 0.000398363 0.00030428 0.000226211 0.000164156 0.000118114 8.80859e-05 6.74407e-05 4.95483e-05 3.44085e-05 2.20215e-05 1.23871e-05 5.50537e-06 1.37634e-06 0 0 -1.40048e-06 -5.60192e-06 -1.26043e-05 -2.24077e-05 -3.5012e-05 -5.04173e-05 -6.86236e-05 -8.96308e-05 -0.000108899 -0.000121889 -0.0001286 -0.000129032 -0.000123186 -0.000111062 -9.26581e-05 -6.7976e-05 -3.60362e-05 4.14024e-06 5.25534e-05 0.000109203 0.00017409 0.000247213 0.000328573 0.00041817 0.00050954 0.000596219 0.000678207 0.000755505 0.000828113 0.000896029 0.000959255 0.00101779 0.00106661 0.00110068 0.00112001 0.00112459 0.00111442 0.00108951 0.00104985 0.000995446 0.00092958 0.000855534 0.00077331 0.000682906 0.000584323 0.000477561 0.00036262 0.000239499 0.000118675 1.06232e-05 -8.46568e-05 -0.000167165 -0.000236901 -0.000293864 -0.000338056 -0.000369476 -0.000379018 -0.000357576 -0.00030515 -0.00022174 -0.000107347 3.80296e-05 0.00021439 0.000421735 0.000658061 0.00092137 0.00121166 0.00152893 0.00187318 0.00224442 0.00264263 0.00306783 0.00350395 0.00393493 0.00436078 0.00478149 0.00519707 0.00560751 0.00601282 0.00641299 0.00678953 0.00712395 0.00741626 0.00766644 0.00787451 0.00804045 0.00816428 0.00824599 0.00828304 0.00827291 0.00821558 0.00811107 0.00795937 0.00776049 0.00751441 0.00722115 0.00689671 0.00655711 0.00620234 0.00583241 0.00544731 0.00504706 0.00463163 0.00420105 0.00377358 0.00336753 0.00298288 0.00261965 0.00227782 0.0019574 0.00165839 0.00138078 0.00112812 0.000903926 0.0007082 0.000540943 0.000402153 0.000291833 0.000209981 0.000156597 0.000119895 8.80859e-05 6.11707e-05 3.91493e-05 2.20215e-05 9.78732e-06 2.44683e-06 0 0 -2.18825e-06 -8.75301e-06 -1.96943e-05 -3.5012e-05 -5.47063e-05 -7.87771e-05 -0.000107224 -0.000140048 -0.000170155 -0.000190451 -0.000200938 -0.000201613 -0.000192479 -0.000173534 -0.000144778 -0.000106212 -5.63066e-05 6.46913e-06 8.21147e-05 0.00017063 0.000272015 0.000386271 0.000513396 0.00065339 0.000796156 0.000931592 0.0010597 0.00118048 0.00129393 0.00140005 0.00149884 0.0015903 0.00166658 0.00171981 0.00175001 0.00175716 0.00174128 0.00170235 0.00164039 0.00155538 0.00145247 0.00133677 0.0012083 0.00106704 0.000913005 0.000746189 0.000566594 0.000374218 0.00018543 1.65987e-05 -0.000132276 -0.000261195 -0.000370157 -0.000459163 -0.000528213 -0.000577306 -0.000592215 -0.000558712 -0.000476797 -0.00034647 -0.00016773 5.94212e-05 0.000334985 0.00065896 0.00102822 0.00143964 0.00189322 0.00238895 0.00292685 0.0035069 0.00412911 0.00479348 0.00547492 0.00614833 0.00681372 0.00747108 0.00812042 0.00876173 0.00939503 0.0100203 0.0106086 0.0111312 0.0115879 0.0119788 0.0123039 0.0125632 0.0127567 0.0128844 0.0129423 0.0129264 0.0128368 0.0126735 0.0124365 0.0121258 0.0117413 0.011283 0.0107761 0.0102455 0.00969115 0.00911314 0.00851143 0.00788602 0.00723693 0.00656414 0.00589622 0.00526176 0.00466075 0.0040932 0.00355909 0.00305843 0.00259123 0.00215748 0.00176269 0.00141239 0.00110656 0.000845223 0.000628365 0.000455989 0.000328095 0.000244683 0.000187335 0.000137634 9.55793e-05 6.11707e-05 3.44085e-05 1.52927e-05 3.82317e-06 0 0 -3.15108e-06 -1.26043e-05 -2.83597e-05 -5.04173e-05 -7.87771e-05 -0.000113439 -0.000154403 -0.000201669 -0.000245023 -0.00027425 -0.00028935 -0.000290323 -0.000277169 -0.000249888 -0.000208481 -0.000152946 -8.10815e-05 9.31555e-06 0.000118245 0.000245707 0.000391702 0.00055623 0.00073929 0.000940882 0.00114646 0.00134149 0.00152597 0.00169989 0.00186325 0.00201607 0.00215832 0.00229003 0.00239987 0.00247653 0.00252001 0.00253032 0.00250744 0.00245139 0.00236216 0.00223975 0.00209155 0.00192495 0.00173995 0.00153654 0.00131473 0.00107451 0.000815895 0.000538873 0.000267019 2.39021e-05 -0.000190478 -0.000376121 -0.000533026 -0.000661195 -0.000760626 -0.000831321 -0.00085279 -0.000804545 -0.000686587 -0.000498916 -0.000241532 8.55665e-05 0.000482378 0.000948903 0.00148064 0.00207308 0.00272623 0.00344009 0.00421466 0.00504994 0.00594592 0.00690261 0.00788388 0.00885359 0.00981175 0.0107584 0.0116934 0.0126169 0.0135288 0.0144292 0.0152764 0.0160289 0.0166866 0.0172495 0.0177176 0.018091 0.0183696 0.0185535 0.0186368 0.018614 0.0184851 0.0182499 0.0179086 0.0174611 0.0169074 0.0162476 0.0155176 0.0147535 0.0139553 0.0131229 0.0122565 0.0113559 0.0104212 0.00945236 0.00849056 0.00757694 0.00671149 0.0058942 0.00512509 0.00440414 0.00373137 0.00310677 0.00253827 0.00203383 0.00159345 0.00121712 0.000904845 0.000656624 0.000472456 0.000352343 0.000269763 0.000198193 0.000137634 8.80859e-05 4.95483e-05 2.20215e-05 5.50537e-06 0 0 -4.28897e-06 -1.71559e-05 -3.86008e-05 -6.86236e-05 -0.000107224 -0.000154403 -0.00021016 -0.000274494 -0.000333504 -0.000373285 -0.000393838 -0.000395162 -0.000377258 -0.000340126 -0.000283765 -0.000208176 -0.000110361 1.26795e-05 0.000160945 0.000334435 0.00053315 0.00075709 0.00100626 0.00128065 0.00156046 0.00182592 0.00207701 0.00231373 0.00253609 0.00274409 0.00293772 0.00311698 0.00326649 0.00337083 0.00343002 0.00344404 0.00341291 0.00333662 0.00321516 0.00304855 0.00284684 0.00262007 0.00236826 0.0020914 0.00178949 0.00146253 0.00111052 0.000733467 0.000363443 3.25334e-05 -0.000259262 -0.000511942 -0.000725508 -0.00089996 -0.0010353 -0.00113152 -0.00116074 -0.00109508 -0.000934522 -0.00067908 -0.000328751 0.000116465 0.00065657 0.00129156 0.00201531 0.00282169 0.00371071 0.00468235 0.00573662 0.00687352 0.00809306 0.00939522 0.0107308 0.0120507 0.0133549 0.0146433 0.015916 0.017173 0.0184143 0.0196398 0.0207929 0.0218171 0.0227123 0.0234785 0.0241157 0.0246239 0.0250031 0.0252533 0.0253668 0.0253358 0.0251602 0.0248402 0.0243756 0.0237665 0.0230129 0.0221148 0.0211212 0.0200811 0.0189947 0.0178617 0.0166824 0.0154566 0.0141844 0.0128657 0.0115566 0.0103131 0.00913508 0.00802266 0.00697581 0.00599453 0.00507881 0.00422865 0.00345487 0.00276827 0.00216886 0.00165664 0.00123159 0.000893738 0.000643066 0.000479579 0.000367177 0.000269763 0.000187335 0.000119895 6.74407e-05 2.99737e-05 7.49342e-06 0 0 -5.60192e-06 -2.24077e-05 -5.04173e-05 -8.96308e-05 -0.000140048 -0.000201669 -0.000274494 -0.000358523 -0.000435597 -0.000487556 -0.0005144 -0.00051613 -0.000492745 -0.000444246 -0.000370632 -0.000271904 -0.000144145 1.6561e-05 0.000210214 0.000436813 0.000696359 0.000988853 0.00131429 0.00167268 0.00203816 0.00238487 0.00271283 0.00302202 0.00331245 0.00358412 0.00383702 0.00407116 0.00426643 0.00440272 0.00448002 0.00449834 0.00445768 0.00435803 0.0041994 0.00398178 0.00371832 0.00342214 0.00309324 0.00273162 0.00233729 0.00191024 0.00145048 0.000957997 0.000474701 4.24926e-05 -0.000338627 -0.000668659 -0.000947602 -0.00117546 -0.00135222 -0.0014779 -0.00151607 -0.0014303 -0.0012206 -0.000886962 -0.000429389 0.000152118 0.000857561 0.00168694 0.00263225 0.00368548 0.00484664 0.00611572 0.00749273 0.00897766 0.0105705 0.0122713 0.0140158 0.0157397 0.0174431 0.019126 0.0207883 0.02243 0.0240513 0.0256519 0.0271581 0.0284958 0.029665 0.0306658 0.031498 0.0321618 0.0326571 0.0329839 0.0331322 0.0330916 0.0328623 0.0324443 0.0318375 0.0310419 0.0300576 0.0288846 0.0275868 0.0262284 0.0248094 0.0233296 0.0217893 0.0201882 0.0185265 0.0168042 0.0150943 0.0134701 0.0119315 0.0104786 0.00911127 0.00782959 0.00663355 0.00552314 0.00451248 0.00361571 0.0028328 0.00216377 0.00160861 0.00116733 0.000839923 0.000626388 0.000479579 0.000352343 0.000244683 0.000156597 8.80859e-05 3.91493e-05 9.78732e-06 0 0 -6.66797e-06 -2.66719e-05 -6.00117e-05 -0.000106688 -0.000166699 -0.000240047 -0.00032673 -0.00042675 -0.000516993 -0.000574348 -0.000598815 -0.000590394 -0.000549084 -0.000474886 -0.000367799 -0.000227825 -5.04444e-05 0.000168859 0.000430086 0.000733237 0.00107831 0.00146531 0.00189423 0.00236507 0.00284466 0.00329981 0.00373053 0.00413681 0.00451866 0.00487607 0.00520905 0.00551759 0.00577594 0.00595835 0.0060648 0.00609531 0.00604987 0.00592849 0.00573115 0.00545787 0.00512549 0.00475086 0.00433397 0.00387484 0.00337345 0.00282982 0.00224393 0.00161579 0.000999007 0.000447196 -3.96473e-05 -0.000461521 -0.000818426 -0.00111036 -0.00133733 -0.00149933 -0.00154987 -0.00144247 -0.00117713 -0.000753841 -0.000172615 0.000566554 0.00146367 0.00251872 0.00372147 0.00506167 0.00653933 0.00815444 0.009907 0.011797 0.0138245 0.0159894 0.0182099 0.0204042 0.0225722 0.024714 0.0268295 0.0289188 0.0309818 0.0330185 0.0349349 0.0366366 0.0381236 0.0393961 0.0404539 0.0412971 0.0419256 0.0423396 0.0425258 0.0424715 0.0421764 0.0416407 0.0408643 0.0398473 0.0385896 0.0370913 0.0354336 0.0336981 0.0318848 0.0299935 0.0280244 0.0259774 0.0238525 0.0216498 0.0194623 0.0173832 0.0154125 0.0135501 0.0117961 0.0101506 0.00861334 0.0071845 0.0058826 0.00472619 0.00371526 0.00284982 0.00212988 0.00155541 0.00112644 0.000842959 0.00064539 0.000474164 0.000329281 0.00021074 0.000118541 5.26849e-05 1.31712e-05 0 0 -7.06514e-06 -2.82606e-05 -6.35862e-05 -0.000113042 -0.000176628 -0.000254345 -0.000346192 -0.000452169 -0.000543385 -0.000590949 -0.000594861 -0.00055512 -0.000471727 -0.000344682 -0.000173985 4.03644e-05 0.00030273 0.000617474 0.000984597 0.0014041 0.00187598 0.00240024 0.00297688 0.0036059 0.00424508 0.00485218 0.00542721 0.00597017 0.00648106 0.00695988 0.00740662 0.0078213 0.00817126 0.00842388 0.00857915 0.00863706 0.00859763 0.00846085 0.00822672 0.00789525 0.00748785 0.00702595 0.00650956 0.00593867 0.00531329 0.00463341 0.00389903 0.00311016 0.00233458 0.00164006 0.00102661 0.000494222 4.29049e-05 -0.000327345 -0.000616528 -0.000824644 -0.000893228 -0.000763815 -0.000436405 8.9001e-05 0.000812404 0.0017338 0.0028532 0.00417059 0.00567302 0.00734752 0.00919409 0.0112127 0.0134034 0.0157662 0.0183011 0.021008 0.0237844 0.0265277 0.0292379 0.031915 0.034559 0.0371699 0.0397477 0.0422923 0.044686 0.0468109 0.0486669 0.0502541 0.0515725 0.0526219 0.0534026 0.0539144 0.0541408 0.0540652 0.0536875 0.0530078 0.0520261 0.0507424 0.0491567 0.047269 0.0451806 0.0429931 0.0407063 0.0383204 0.0358352 0.0332508 0.0305673 0.0277845 0.0250191 0.0223874 0.0198895 0.0175254 0.0152951 0.0131986 0.0112359 0.00940703 0.0077367 0.00624978 0.00494624 0.0038261 0.00288935 0.002136 0.00156604 0.00117948 0.000903036 0.000663455 0.000460732 0.000294869 0.000165864 7.37172e-05 1.84293e-05 0 0 -6.79343e-06 -2.71737e-05 -6.11409e-05 -0.000108695 -0.000169836 -0.000244564 -0.000332878 -0.00043478 -0.000514772 -0.000537357 -0.000502536 -0.000410309 -0.000260675 -5.36352e-05 0.000210811 0.000532664 0.000915377 0.0013624 0.00187375 0.0024494 0.00308938 0.00379366 0.00456226 0.00539518 0.00623942 0.00704198 0.00780288 0.0085221 0.00919965 0.00983553 0.0104297 0.0109823 0.0114524 0.0117993 0.012023 0.0121236 0.012101 0.0119551 0.0116861 0.0112939 0.0108054 0.0102474 0.00961999 0.00892312 0.0081568 0.00732102 0.0064158 0.00544112 0.00448141 0.00362108 0.00286013 0.00219857 0.00163639 0.00117359 0.000810176 0.000546144 0.000453851 0.000605658 0.00100156 0.00164157 0.00252567 0.00365387 0.00502617 0.00664256 0.0084869 0.010543 0.0128109 0.0152906 0.017982 0.0208853 0.0240003 0.0273271 0.0307392 0.0341103 0.0374402 0.040729 0.0439768 0.0471834 0.0503489 0.0534733 0.0564117 0.0590189 0.0612949 0.0632399 0.0648537 0.0661364 0.067088 0.0677085 0.067977 0.0678727 0.0673956 0.0665456 0.0653229 0.0637273 0.0617589 0.0594177 0.0568278 0.0541132 0.051274 0.0483102 0.0452217 0.0420086 0.0386708 0.0352084 0.0317646 0.0284827 0.0253627 0.0224045 0.0196083 0.0169739 0.0145014 0.0121907 0.0100748 0.00818647 0.00652574 0.0050926 0.00388705 0.00290909 0.00215872 0.00163594 0.00125251 0.000920215 0.000639038 0.000408984 0.000230054 0.000102246 2.55615e-05 0 0 -5.85285e-06 -2.34114e-05 -5.26757e-05 -9.36457e-05 -0.000146321 -0.000210703 -0.00028679 -0.000374583 -0.000431153 -0.000413573 -0.000321842 -0.00015596 8.40722e-05 0.000398255 0.000786589 0.00124907 0.0017875 0.00240365 0.00309754 0.00386915 0.00471849 0.00564556 0.00665037 0.0077329 0.00882768 0.00986922 0.0108575 0.0117926 0.0126744 0.013503 0.0142784 0.0150005 0.0156193 0.0160846 0.0163965 0.0165549 0.0165598 0.0164113 0.0161093 0.0156539 0.0150781 0.0144153 0.0136653 0.0128282 0.011904 0.0108927 0.00979422 0.00860866 0.0074395 0.00639026 0.00546093 0.00465152 0.00396203 0.00339245 0.00294279 0.00261304 0.00249137 0.00266595 0.00313678 0.00390385 0.00496717 0.00632674 0.00798256 0.00993462 0.0121631 0.0146482 0.0173898 0.020388 0.0236428 0.0271542 0.0309222 0.0349467 0.0390745 0.0431519 0.0471791 0.0511561 0.0550829 0.0589593 0.0627856 0.0665616 0.0701117 0.0732604 0.0760076 0.0783534 0.0802977 0.0818405 0.0829819 0.0837218 0.0840345 0.0838941 0.0833007 0.0822542 0.0807546 0.078802 0.0763963 0.0735375 0.0703751 0.0670586 0.0635878 0.0599629 0.0561838 0.0522505 0.048163 0.0439214 0.039699 0.0356692 0.031832 0.0281874 0.0247355 0.0214762 0.0184096 0.0155355 0.0128969 0.0105363 0.00845376 0.00664932 0.00512296 0.00387468 0.00290447 0.00221235 0.00169383 0.00124445 0.000864198 0.000553087 0.000311111 0.000138272 3.45679e-05 0 0 -4.2434e-06 -1.69736e-05 -3.81906e-05 -6.78944e-05 -0.000106085 -0.000152762 -0.000207927 -0.000271578 -0.000292529 -0.000219596 -5.27776e-05 0.000207926 0.000562515 0.00101099 0.00155335 0.00218959 0.00291909 0.00374121 0.00465596 0.00566333 0.00676333 0.00795595 0.00924119 0.0106191 0.0120099 0.0133339 0.0145912 0.0157817 0.0169054 0.0179624 0.0189526 0.0198761 0.0206721 0.0212799 0.0216995 0.021931 0.0219743 0.0218294 0.0214963 0.0209751 0.020306 0.0195295 0.0186454 0.0176539 0.0165548 0.0153483 0.0140343 0.0126128 0.0112089 0.0099476 0.00882901 0.00785308 0.00701982 0.00632923 0.0057813 0.00537604 0.00521933 0.00541706 0.00596924 0.00687586 0.00813693 0.00975243 0.0117224 0.0140468 0.0167016 0.019663 0.0229308 0.026505 0.0303858 0.034573 0.0390667 0.0438669 0.04879 0.0536526 0.0584547 0.0631962 0.0678772 0.0724977 0.0770576 0.081557 0.0857862 0.0895355 0.092805 0.0955946 0.0979043 0.0997342 0.101084 0.101954 0.102313 0.102129 0.101403 0.100133 0.0983212 0.0959664 0.0930687 0.0896283 0.0858227 0.0818292 0.0776478 0.0732786 0.0687216 0.0639767 0.059044 0.0539235 0.0488221 0.0439467 0.0392974 0.0348741 0.0306769 0.0267057 0.0229606 0.0194415 0.0162029 0.0132992 0.0107303 0.00849627 0.00659709 0.00503277 0.00380331 0.0029087 0.00222698 0.00163615 0.00113621 0.000727176 0.000409036 0.000181794 4.54485e-05 0 0 -1.96507e-06 -7.86029e-06 -1.76857e-05 -3.14412e-05 -4.91268e-05 -7.07426e-05 -9.62886e-05 -0.000125765 -9.89009e-05 4.45728e-05 0.000304656 0.00068135 0.00117465 0.00178457 0.00251109 0.00335422 0.00431016 0.00537509 0.00654903 0.00783196 0.00922389 0.0107248 0.0123347 0.0140537 0.015786 0.017436 0.0190038 0.0204893 0.0218926 0.0232136 0.0244524 0.0256089 0.0266106 0.027385 0.0279321 0.0282518 0.0283443 0.0282094 0.0278471 0.0272576 0.0264891 0.02559 0.0245604 0.0234002 0.0221094 0.020688 0.019136 0.0174535 0.0157895 0.0142931 0.0129644 0.0118032 0.0108098 0.00998393 0.00932572 0.00883514 0.00863772 0.00885899 0.00949895 0.0105576 0.0120349 0.0139309 0.0162456 0.018979 0.0221025 0.0255874 0.0294338 0.0336416 0.0382109 0.0431417 0.0484339 0.0540875 0.0598859 0.0656124 0.0712668 0.0768493 0.0823599 0.0877984 0.093165 0.0984596 0.103435 0.107844 0.111687 0.114964 0.117674 0.119818 0.121395 0.122406 0.122813 0.122579 0.121702 0.120183 0.118023 0.115221 0.111776 0.10769 0.10317 0.098425 0.0934539 0.0882573 0.0828351 0.0771872 0.0713138 0.0652147 0.059134 0.0533154 0.0477589 0.0424646 0.0374324 0.0326623 0.0281545 0.0239087 0.019993 0.0164752 0.0133554 0.0106334 0.00830943 0.00638336 0.00485522 0.003725 0.00285196 0.00209531 0.00145508 0.000931251 0.000523829 0.000232813 5.82032e-05 0 0 9.82129e-07 3.92852e-06 8.83916e-06 1.57141e-05 2.45532e-05 3.53567e-05 4.81243e-05 6.28563e-05 0.000149733 0.000378934 0.00075046 0.00126431 0.00192049 0.00271899 0.00365981 0.00474296 0.0059607 0.00730529 0.00877673 0.010375 0.0121002 0.0139522 0.015931 0.0180367 0.020156 0.0221755 0.0240954 0.0259155 0.0276359 0.0292567 0.0307777 0.032199 0.033435 0.0344 0.0350942 0.0355175 0.0356698 0.0355513 0.0351618 0.0345014 0.0336274 0.032597 0.0314102 0.0300671 0.0285676 0.0269117 0.0250994 0.0231308 0.0211814 0.0194268 0.017867 0.016502 0.0153319 0.0143565 0.013576 0.0129903 0.0127466 0.0129917 0.0137259 0.014949 0.0166612 0.0188623 0.0215523 0.0247314 0.0283657 0.0324215 0.0368989 0.0417978 0.0471182 0.0528602 0.0590237 0.0656087 0.0723622 0.0790312 0.0856156 0.0921155 0.0985308 0.104862 0.111108 0.117269 0.123058 0.128187 0.132654 0.13646 0.139606 0.14209 0.143914 0.145077 0.145535 0.145242 0.144198 0.142404 0.139859 0.136564 0.132519 0.127723 0.122418 0.116846 0.111006 0.104899 0.0985242 0.091882 0.0849723 0.0777951 0.0706347 0.0637751 0.0572165 0.0509588 0.045002 0.0393461 0.0339911 0.028937 0.024267 0.0200643 0.0163289 0.0130608 0.01026 0.00792646 0.00606021 0.00466125 0.00356877 0.00262195 0.0018208 0.00116531 0.000655489 0.000291328 7.28321e-05 0 0 4.59821e-06 1.83928e-05 4.13839e-05 7.35713e-05 0.000114955 0.000165535 0.000225312 0.000294285 0.000453371 0.000783488 0.00128463 0.00195681 0.00280002 0.00381425 0.00499952 0.00635581 0.00787071 0.0095318 0.0113391 0.0132925 0.0153922 0.017638 0.02003 0.0225682 0.0251199 0.0275525 0.029866 0.0320603 0.0341355 0.0360916 0.0379285 0.0396463 0.0411451 0.042325 0.0431859 0.0437279 0.0439509 0.0438551 0.0434402 0.0427065 0.0417209 0.0405503 0.0391949 0.0376546 0.0359295 0.0340194 0.0319245 0.0296447 0.0273845 0.0253486 0.0235369 0.0219494 0.0205861 0.0194471 0.0185323 0.0178417 0.0175458 0.0178153 0.0186501 0.0200502 0.0220156 0.0245464 0.0276424 0.0313038 0.0354912 0.0401653 0.045326 0.0509735 0.0571077 0.0637285 0.0708361 0.0784304 0.0862189 0.0939091 0.101501 0.108995 0.11639 0.123687 0.130886 0.137987 0.144656 0.150562 0.155705 0.160085 0.163701 0.166553 0.168642 0.169968 0.170477 0.170118 0.168891 0.166795 0.163831 0.159998 0.155297 0.149727 0.143566 0.137092 0.130305 0.123203 0.115789 0.108061 0.10002 0.0916646 0.0833242 0.075326 0.0676703 0.0603568 0.0533857 0.046757 0.0404706 0.0345265 0.0290251 0.0240666 0.019651 0.0157784 0.0124488 0.00966205 0.00741828 0.00571745 0.00437742 0.00321606 0.00223338 0.00142936 0.000804016 0.00035734 8.93351e-05 0 0 9.41078e-06 3.76431e-05 8.4697e-05 0.000150572 0.000235269 0.000338788 0.000461128 0.00060229 0.000854719 0.00131086 0.00197072 0.00283429 0.00390157 0.00517256 0.00664727 0.0083257 0.0101895 0.0122202 0.0144179 0.0167826 0.0193143 0.022013 0.0248786 0.0279112 0.0309567 0.0338612 0.0366246 0.039247 0.0417282 0.0440684 0.0462676 0.0483256 0.050127 0.0515562 0.0526131 0.0532979 0.0536104 0.0535507 0.0531187 0.0523146 0.0512158 0.0499 0.0483671 0.0466172 0.0446502 0.0424662 0.0400651 0.037447 0.0348477 0.0325031 0.0304131 0.0285779 0.0269973 0.0256714 0.0246002 0.0237837 0.0234176 0.0236977 0.0246241 0.0261967 0.0284156 0.0312806 0.0347919 0.0389494 0.0437078 0.0490219 0.0548916 0.0613169 0.0682978 0.0758344 0.0839266 0.0925744 0.101444 0.1102 0.118844 0.127375 0.135793 0.144099 0.152292 0.160372 0.16796 0.174677 0.180524 0.185499 0.189604 0.192838 0.1952 0.196692 0.197252 0.196819 0.195394 0.192975 0.189564 0.185161 0.179764 0.173375 0.166308 0.158877 0.151083 0.142926 0.134406 0.125522 0.116275 0.106664 0.0970648 0.08785 0.0790199 0.0705747 0.0625142 0.0548386 0.0475477 0.0406417 0.0342399 0.0284619 0.0233077 0.0187773 0.0148707 0.0115879 0.0089288 0.00689353 0.00527786 0.00387761 0.00269278 0.00172338 0.000969402 0.000430845 0.000107711 0 0 1.59475e-05 6.37899e-05 0.000143527 0.00025516 0.000398687 0.000574109 0.000781426 0.00102064 0.00139648 0.00201368 0.00287225 0.00397218 0.00531348 0.00689614 0.00872016 0.0107855 0.0130662 0.0155361 0.0181952 0.0210435 0.024081 0.0273077 0.0307236 0.0343288 0.0379454 0.041396 0.0446805 0.0477989 0.0507512 0.0535373 0.0561574 0.0586114 0.0607665 0.06249 0.0637819 0.0646422 0.0650709 0.065068 0.0646335 0.0637674 0.0625586 0.0610959 0.0593794 0.0574091 0.055185 0.0527071 0.0499753 0.0469897 0.0440197 0.0413348 0.0389349 0.03682 0.0349902 0.0334454 0.0321857 0.031211 0.0307439 0.0310071 0.0320005 0.0337242 0.0361781 0.0393622 0.0432766 0.0479213 0.0532445 0.0591947 0.0657719 0.072976 0.0808072 0.0892653 0.0983504 0.108062 0.118024 0.127858 0.137565 0.147145 0.156596 0.16592 0.175117 0.184186 0.192702 0.200237 0.206792 0.212367 0.216962 0.220576 0.223211 0.224865 0.22547 0.224954 0.223318 0.220562 0.216687 0.211691 0.205575 0.19834 0.190335 0.181915 0.173077 0.163822 0.154151 0.144063 0.133558 0.122636 0.111719 0.101229 0.0911653 0.0815284 0.0723181 0.0635344 0.0551774 0.0472471 0.0398844 0.0332304 0.0272851 0.0220486 0.0175207 0.0137016 0.0105911 0.00818943 0.00627003 0.00460656 0.003199 0.00204736 0.00115164 0.00051184 0.00012796 0 0 2.42083e-05 9.68331e-05 0.000217875 0.000387333 0.000605207 0.000871498 0.00118621 0.00154933 0.00207865 0.00289196 0.00398924 0.0053705 0.00703574 0.00898496 0.0112182 0.0137353 0.016501 0.0194794 0.0226708 0.0260751 0.0296922 0.0335222 0.0375651 0.0418209 0.046086 0.0501569 0.0540336 0.057716 0.0612043 0.0644983 0.0675981 0.0705037 0.0730637 0.0751265 0.0766923 0.077761 0.0783326 0.0784071 0.0779846 0.0770649 0.0757491 0.0741381 0.0722319 0.0700305 0.0675339 0.064742 0.061655 0.0582728 0.0549006 0.0518437 0.0491021 0.0466758 0.0445648 0.0427691 0.0412887 0.0401235 0.0395248 0.0397433 0.0407793 0.0426326 0.0453032 0.0487912 0.0530966 0.0582193 0.0641011 0.0706836 0.0779669 0.085951 0.0946357 0.104021 0.114108 0.124895 0.135961 0.146884 0.157665 0.168303 0.178799 0.189152 0.199362 0.20943 0.218881 0.227241 0.23451 0.240688 0.245774 0.24977 0.252674 0.254487 0.25513 0.254522 0.252665 0.249556 0.245198 0.239589 0.23273 0.224621 0.21565 0.206204 0.196285 0.185892 0.175024 0.163683 0.151868 0.139579 0.127287 0.115463 0.104106 0.093218 0.0827973 0.0728446 0.0633597 0.0543427 0.0459584 0.0383719 0.0315832 0.0255921 0.0203988 0.0160032 0.0124053 0.00960517 0.00735395 0.00540291 0.00375202 0.00240129 0.00135073 0.000600323 0.000150081 0 0 3.41932e-05 0.000136773 0.000307739 0.000547092 0.00085483 0.00123096 0.00167547 0.00218837 0.00290124 0.00394567 0.00532167 0.00702923 0.00906836 0.011439 0.0141413 0.0171751 0.0204937 0.0240503 0.0278449 0.0318774 0.036148 0.0406565 0.045403 0.0503876 0.0553784 0.0601438 0.0646838 0.0689984 0.0730875 0.0769513 0.0805896 0.0840026 0.0870185 0.0894657 0.0913443 0.0926542 0.0933954 0.093568 0.0931719 0.0922072 0.0907875 0.0890266 0.0869245 0.0844813 0.0816968 0.0785711 0.0751042 0.0712962 0.0674902 0.0640298 0.0609147 0.0581452 0.055721 0.0536424 0.0519092 0.0505214 0.0497602 0.0499065 0.0509604 0.0529219 0.055791 0.0595676 0.0642519 0.0698437 0.0762777 0.0834887 0.0914767 0.100242 0.109783 0.120102 0.131198 0.143071 0.155253 0.167277 0.179143 0.190851 0.202401 0.213793 0.225027 0.236103 0.246498 0.25569 0.263677 0.270461 0.276041 0.280417 0.28359 0.285558 0.286234 0.285525 0.283433 0.279957 0.275098 0.268855 0.261229 0.252219 0.24225 0.231746 0.220708 0.209134 0.197026 0.184384 0.171206 0.157494 0.143769 0.130552 0.117843 0.105643 0.0939519 0.082769 0.0720945 0.0619285 0.0524622 0.0438866 0.0362019 0.029408 0.023505 0.0184927 0.0143713 0.0111407 0.00852962 0.00626666 0.00435185 0.00278518 0.00156666 0.000696295 0.000174074 0 0 4.59023e-05 0.000183609 0.00041312 0.000734436 0.00114756 0.00165248 0.00224921 0.00293775 0.00386424 0.00517484 0.00686956 0.00894839 0.0114113 0.0142584 0.0174896 0.0211048 0.0250444 0.0292486 0.0337173 0.0384505 0.0434483 0.0487106 0.0542374 0.0600288 0.0658227 0.0713568 0.0766312 0.081646 0.086401 0.0908963 0.095132 0.099108 0.102631 0.105508 0.107738 0.109322 0.110259 0.110551 0.110196 0.109194 0.107674 0.105761 0.103457 0.100761 0.0976738 0.0941943 0.090323 0.08606 0.0817887 0.077893 0.0743728 0.0712282 0.068459 0.0660653 0.0640472 0.0624046 0.0614501 0.0614966 0.062544 0.0645922 0.0676414 0.0716914 0.0767424 0.0827942 0.0897743 0.09761 0.106301 0.115848 0.12625 0.137508 0.149622 0.162591 0.175901 0.189037 0.202 0.214789 0.227403 0.239845 0.252112 0.264206 0.275553 0.285583 0.294294 0.301687 0.307762 0.312519 0.315958 0.318078 0.31878 0.317962 0.315623 0.311765 0.306387 0.299489 0.291072 0.281134 0.270137 0.258541 0.246345 0.23355 0.220157 0.206164 0.191572 0.17638 0.161164 0.146496 0.132376 0.118805 0.105782 0.0933077 0.0813819 0.0700046 0.0593955 0.0497744 0.0411413 0.0334963 0.0268392 0.0211702 0.0164891 0.0127961 0.00979702 0.00719781 0.00499848 0.00319903 0.00179945 0.000799757 0.000199939 0 0 5.93354e-05 0.000237342 0.000534019 0.000949367 0.00148339 0.00213608 0.00290744 0.00379747 0.00496765 0.00657946 0.0086329 0.011128 0.0140647 0.017443 0.0212629 0.0255245 0.0301532 0.0350744 0.0402881 0.0457943 0.0515931 0.0576844 0.0640683 0.0707447 0.0774188 0.0837958 0.0898758 0.0956588 0.101145 0.106333 0.111225 0.11582 0.119901 0.123252 0.125873 0.127764 0.128924 0.129355 0.129055 0.128026 0.126408 0.124342 0.12183 0.118871 0.115465 0.111612 0.107311 0.102564 0.0977961 0.0934335 0.0894764 0.0859248 0.0827787 0.080038 0.0777028 0.075773 0.0745946 0.0745136 0.0755299 0.0776435 0.0808544 0.0851626 0.0905682 0.097071 0.104591 0.113047 0.12244 0.13277 0.144037 0.15624 0.169379 0.183455 0.197905 0.212165 0.226235 0.240115 0.253805 0.267306 0.280616 0.293737 0