<?xml version="1.0"?> 
<VTKFile type="StructuredGrid" version="0.1"> 
<StructuredGrid WholeExtent="0 128 0 128 0 0"> 
<Piece Extent="0 128 0 128 0 0"> 
<PointData>
<DataArray type="Float32" Name="u" format="ascii" NumberOfComponents="1"> 
0 0 0 0 0 0 0 0 0 0 0 0 0 0 0 0 0 0 0 0 0 0 0 0 0 0 0 0 0 0 0 0 0 0 0 0 0 0 0 0 0 0 0 0 0 0 0 0 0 0 0 0 0 0 0 0 0 0 0 0 0 0 0 0 0 0 0 0 0 0 0 0 0 0 0 0 0 0 0 0 0 0 0 0 0 0 0 0 0 0 0 0 0 0 0 0 0 0 0 0 0 0 0 0 0 0 0 0 0 0 0 0 0 0 0 0 0 0 0 0 0 0 0 0 0 0 0 0 0 0 -1.53743e-07 -6.14973e-07 -1.38369e-06 -2.45989e-06 -3.84358e-06 -5.53476e-06 -7.53342e-06 -9.83957e-06 -1.21327e-05 -1.40923e-05 -1.57184e-05 -1.7011e-05 -1.79701e-05 -1.85957e-05 -1.88878e-05 -1.88463e-05 -1.82972e-05 -1.70663e-05 -1.51536e-05 -1.2559e-05 -9.2826e-06 -5.32439e-06 -6.84367e-07 4.63748e-06 1.02003e-05 1.55632e-05 2.07263e-05 2.56895e-05 3.04528e-05 3.50162e-05 3.93797e-05 4.35434e-05 4.70891e-05 4.95989e-05 5.10727e-05 5.15106e-05 5.09124e-05 4.92784e-05 4.66083e-05 4.29023e-05 3.83482e-05 3.31338e-05 2.72591e-05 2.07242e-05 1.3529e-05 5.67352e-06 -2.8422e-06 -1.20182e-05 -2.10854e-05 -2.92748e-05 -3.65864e-05 -4.30202e-05 -4.85762e-05 -5.32544e-05 -5.70548e-05 -5.99773e-05 -6.13182e-05 -6.03736e-05 -5.71435e-05 -5.16278e-05 -4.38267e-05 -3.374e-05 -2.13678e-05 -6.71015e-06 1.01005e-05 2.89314e-05 4.97827e-05 7.26544e-05 9.75464e-05 0.000124459 0.000153391 0.000184344 0.000216104 0.000247458 0.000278406 0.000308947 0.000339083 0.000368811 0.000398134 0.000427051 0.000454192 0.000478188 0.000499038 0.000516744 0.000531305 0.000542721 0.000550992 0.000556118 0.000557995 0.000556521 0.000551696 0.000543518 0.00053199 0.000517109 0.000498877 0.000477294 0.000453613 0.00042909 0.000403723 0.000377514 0.000350463 0.000322568 0.000293831 0.00026425 0.000235096 0.000207635 0.000181869 0.000157796 0.000135418 0.000114734 9.57437e-05 7.84476e-05 6.29278e-05 4.92664e-05 3.74635e-05 2.7519e-05 1.9433e-05 1.32054e-05 8.83631e-06 6.32566e-06 4.84309e-06 3.55819e-06 2.47096e-06 1.58142e-06 8.89546e-07 3.95354e-07 9.88385e-08 0 0 -6.14973e-07 -2.45989e-06 -5.53476e-06 -9.83957e-06 -1.53743e-05 -2.2139e-05 -3.01337e-05 -3.93583e-05 -4.85308e-05 -5.63693e-05 -6.28738e-05 -6.80442e-05 -7.18805e-05 -7.43829e-05 -7.55511e-05 -7.53854e-05 -7.31889e-05 -6.82652e-05 -6.06142e-05 -5.0236e-05 -3.71304e-05 -2.12976e-05 -2.73747e-06 1.85499e-05 4.08012e-05 6.22529e-05 8.29052e-05 0.000102758 0.000121811 0.000140065 0.000157519 0.000174174 0.000188357 0.000198396 0.000204291 0.000206042 0.00020365 0.000197113 0.000186433 0.000171609 0.000153393 0.000132535 0.000109036 8.28967e-05 5.41159e-05 2.26941e-05 -1.13688e-05 -4.80728e-05 -8.43416e-05 -0.000117099 -0.000146346 -0.000172081 -0.000194305 -0.000213018 -0.000228219 -0.000239909 -0.000245273 -0.000241494 -0.000228574 -0.000206511 -0.000175307 -0.00013496 -8.54714e-05 -2.68406e-05 4.04019e-05 0.000115726 0.000199131 0.000290618 0.000390185 0.000497835 0.000613565 0.000737378 0.000864418 0.000989833 0.00111362 0.00123579 0.00135633 0.00147525 0.00159254 0.0017082 0.00181677 0.00191275 0.00199615 0.00206698 0.00212522 0.00217088 0.00220397 0.00222447 0.00223198 0.00222608 0.00220678 0.00217407 0.00212796 0.00206844 0.00199551 0.00190918 0.00181445 0.00171636 0.00161489 0.00151006 0.00140185 0.00129027 0.00117532 0.001057 0.000940383 0.000830541 0.000727475 0.000631186 0.000541673 0.000458936 0.000382975 0.000313791 0.000251711 0.000197066 0.000149854 0.000110076 7.77319e-05 5.28216e-05 3.53452e-05 2.53027e-05 1.93723e-05 1.42327e-05 9.88385e-06 6.32566e-06 3.55819e-06 1.58142e-06 3.95354e-07 0 0 -1.38369e-06 -5.53476e-06 -1.24532e-05 -2.2139e-05 -3.45922e-05 -4.98128e-05 -6.78008e-05 -8.85561e-05 -0.000109194 -0.000126831 -0.000141466 -0.000153099 -0.000161731 -0.000167361 -0.00016999 -0.000169617 -0.000164675 -0.000153597 -0.000136382 -0.000113031 -8.35434e-05 -4.79195e-05 -6.1593e-06 4.17373e-05 9.18027e-05 0.000140069 0.000186537 0.000231205 0.000274075 0.000315146 0.000354418 0.000391891 0.000423802 0.00044639 0.000459654 0.000463595 0.000458212 0.000443505 0.000419475 0.000386121 0.000345133 0.000298204 0.000245332 0.000186518 0.000121761 5.10617e-05 -2.55798e-05 -0.000108164 -0.000189769 -0.000263473 -0.000329278 -0.000387182 -0.000437186 -0.000479289 -0.000513493 -0.000539796 -0.000551864 -0.000543362 -0.000514291 -0.000464651 -0.00039444 -0.00030366 -0.000192311 -6.03914e-05 9.09042e-05 0.000260383 0.000448045 0.000653889 0.000877917 0.00112013 0.00138052 0.0016591 0.00194494 0.00222712 0.00250565 0.00278053 0.00305174 0.0033193 0.00358321 0.00384346 0.00408772 0.00430369 0.00449135 0.0046507 0.00478175 0.00488449 0.00495893 0.00500506 0.00502196 0.00500869 0.00496526 0.00489167 0.00478791 0.00465398 0.0044899 0.00429565 0.00408252 0.00386181 0.00363351 0.00339763 0.00315416 0.00290311 0.00264447 0.00237825 0.00211586 0.00186872 0.00163682 0.00142017 0.00121876 0.00103261 0.000861694 0.000706029 0.00056635 0.000443398 0.000337171 0.000247671 0.000174897 0.000118849 7.95268e-05 5.6931e-05 4.35878e-05 3.20237e-05 2.22387e-05 1.42327e-05 8.00592e-06 3.55819e-06 8.89546e-07 0 0 -2.45989e-06 -9.83957e-06 -2.2139e-05 -3.93583e-05 -6.14973e-05 -8.85561e-05 -0.000120535 -0.000157433 -0.000194123 -0.000225477 -0.000251495 -0.000272177 -0.000287522 -0.000297531 -0.000302205 -0.000301541 -0.000292756 -0.000273061 -0.000242457 -0.000200944 -0.000148522 -8.51903e-05 -1.09499e-05 7.41997e-05 0.000163205 0.000249012 0.000331621 0.000411032 0.000487244 0.000560259 0.000630076 0.000696694 0.000753426 0.000793583 0.000817164 0.000824169 0.000814599 0.000788454 0.000745733 0.000686437 0.000613571 0.00053014 0.000436146 0.000331587 0.000216464 9.07763e-05 -4.54753e-05 -0.000192291 -0.000337367 -0.000468397 -0.000585383 -0.000688323 -0.000777219 -0.00085207 -0.000912876 -0.000959637 -0.000981091 -0.000965978 -0.000914296 -0.000826046 -0.000701227 -0.00053984 -0.000341886 -0.000107362 0.000161608 0.000462903 0.000796524 0.00116247 0.00156074 0.00199134 0.00245426 0.00294951 0.00345767 0.00395933 0.0044545 0.00494316 0.00542532 0.00590098 0.00637015 0.00683281 0.00726707 0.007651 0.00798461 0.00826791 0.00850088 0.00868354 0.00881587 0.00889788 0.00892792 0.00890434 0.00882713 0.00869629 0.00851183 0.00827375 0.00798204 0.0076367 0.00725781 0.00686544 0.00645958 0.00604023 0.0056074 0.00516109 0.00470129 0.00422801 0.00376153 0.00332216 0.0029099 0.00252474 0.00216669 0.00183574 0.0015319 0.00125516 0.00100684 0.000788262 0.000599415 0.000440304 0.000310928 0.000211287 0.000141381 0.000101211 7.74894e-05 5.6931e-05 3.95354e-05 2.53027e-05 1.42327e-05 6.32566e-06 1.58142e-06 0 0 -3.84358e-06 -1.53743e-05 -3.45922e-05 -6.14973e-05 -9.60895e-05 -0.000138369 -0.000188335 -0.000245989 -0.000303318 -0.000352308 -0.000392961 -0.000425276 -0.000449253 -0.000464893 -0.000472195 -0.000471159 -0.000457431 -0.000426658 -0.000378839 -0.000313975 -0.000232065 -0.00013311 -1.71092e-05 0.000115937 0.000255007 0.000389081 0.000518157 0.000642237 0.000761319 0.000875405 0.000984493 0.00108858 0.00117723 0.00123997 0.00127682 0.00128776 0.00127281 0.00123196 0.00116521 0.00107256 0.000958704 0.000828344 0.000681477 0.000518104 0.000338224 0.000141838 -7.10551e-05 -0.000300455 -0.000527135 -0.000731871 -0.000914661 -0.00107551 -0.00121441 -0.00133136 -0.00142637 -0.00149943 -0.00153296 -0.00150934 -0.00142859 -0.0012907 -0.00109567 -0.000843501 -0.000534196 -0.000167754 0.000252512 0.000723286 0.00124457 0.00181636 0.00243866 0.00311147 0.00383478 0.00460861 0.00540261 0.00618646 0.00696015 0.00772368 0.00847706 0.00922029 0.00995336 0.0106763 0.0113548 0.0119547 0.012476 0.0129186 0.0132826 0.013568 0.0137748 0.0139029 0.0139499 0.013913 0.0137924 0.013588 0.0132997 0.0129277 0.0124719 0.0119323 0.0113403 0.0107272 0.0100931 0.00943786 0.00876156 0.0080642 0.00734576 0.00660626 0.00587739 0.00519088 0.00454672 0.00394491 0.00338545 0.00286835 0.00239359 0.00196119 0.00157319 0.00123166 0.000936587 0.000687975 0.000485824 0.000330135 0.000220908 0.000158142 0.000121077 8.89546e-05 6.17741e-05 3.95354e-05 2.22387e-05 9.88385e-06 2.47096e-06 0 0 -5.53476e-06 -2.2139e-05 -4.98128e-05 -8.85561e-05 -0.000138369 -0.000199251 -0.000271203 -0.000354224 -0.000436777 -0.000507324 -0.000565864 -0.000612398 -0.000646925 -0.000669446 -0.00067996 -0.000678468 -0.0006587 -0.000614387 -0.000545528 -0.000452124 -0.000334174 -0.000191678 -2.46372e-05 0.000166949 0.000367211 0.000560277 0.000746147 0.000924821 0.0010963 0.00126058 0.00141767 0.00156756 0.00169521 0.00178556 0.00183862 0.00185438 0.00183285 0.00177402 0.0016779 0.00154448 0.00138053 0.00119282 0.000981328 0.00074607 0.000487043 0.000204247 -0.000102319 -0.000432655 -0.000759075 -0.00105389 -0.00131711 -0.00154873 -0.00174874 -0.00191716 -0.00205397 -0.00215918 -0.00220746 -0.00217345 -0.00205717 -0.0018586 -0.00157776 -0.00121464 -0.000769242 -0.000241565 0.000363617 0.00104153 0.00179218 0.00261556 0.00351167 0.00448051 0.00552209 0.0066364 0.00777976 0.0089085 0.0100226 0.0111221 0.012207 0.0132772 0.0143328 0.0153738 0.0163509 0.0172148 0.0179654 0.0186028 0.019127 0.019538 0.0198357 0.0200202 0.0200878 0.0200348 0.019861 0.0195667 0.0191516 0.0186159 0.0179596 0.0171826 0.0163301 0.0154472 0.014534 0.0135905 0.0126167 0.0116124 0.0105779 0.00951301 0.00846345 0.00747487 0.00654728 0.00568067 0.00487505 0.00413042 0.00344677 0.00282412 0.0022654 0.00177359 0.00134868 0.000990684 0.000699587 0.000475395 0.000318107 0.000227724 0.000174351 0.000128095 8.89546e-05 5.6931e-05 3.20237e-05 1.42327e-05 3.55819e-06 0 0 -7.53342e-06 -3.01337e-05 -6.78008e-05 -0.000120535 -0.000188335 -0.000271203 -0.000369138 -0.000482139 -0.000594503 -0.000690524 -0.000770204 -0.000833541 -0.000880537 -0.00091119 -0.000925501 -0.000923471 -0.000896564 -0.000836249 -0.000742524 -0.00061539 -0.000454847 -0.000260895 -3.3534e-05 0.000227237 0.000499815 0.000762599 0.00101559 0.00125878 0.00149219 0.00171579 0.00192961 0.00213363 0.00230737 0.00243035 0.00250256 0.00252402 0.00249471 0.00241464 0.00228381 0.00210221 0.00187906 0.00162355 0.0013357 0.00101548 0.00066292 0.000278002 -0.000139268 -0.000588891 -0.00103319 -0.00143447 -0.00179273 -0.00210799 -0.00238023 -0.00260946 -0.00279568 -0.00293889 -0.00300459 -0.00295831 -0.00280003 -0.00252976 -0.00214751 -0.00165326 -0.00104702 -0.000328797 0.000494923 0.00141764 0.00243935 0.00356006 0.00477977 0.00609848 0.00751618 0.00903287 0.0105891 0.0121255 0.0136419 0.0151384 0.016615 0.0180718 0.0195086 0.0209255 0.0222554 0.0234312 0.0244529 0.0253205 0.026034 0.0265933 0.0269986 0.0272498 0.0273418 0.0272695 0.0270331 0.0266324 0.0260675 0.0253384 0.024445 0.0233874 0.022227 0.0210254 0.0197825 0.0184982 0.0171727 0.0158058 0.0143977 0.0129483 0.0115197 0.0101741 0.00891157 0.00773203 0.00663549 0.00562196 0.00469144 0.00384393 0.00308346 0.00241405 0.00183571 0.00134843 0.000952216 0.000647065 0.000432979 0.000309958 0.000237311 0.000174351 0.000121077 7.74894e-05 4.35878e-05 1.93723e-05 4.84309e-06 0 0 -9.83957e-06 -3.93583e-05 -8.85561e-05 -0.000157433 -0.000245989 -0.000354224 -0.000482139 -0.000629732 -0.000776493 -0.000901909 -0.00100598 -0.00108871 -0.00115009 -0.00119013 -0.00120882 -0.00120617 -0.00117102 -0.00109224 -0.000969828 -0.000803775 -0.000594087 -0.000340761 -4.37995e-05 0.000296799 0.000652819 0.000996047 0.00132648 0.00164413 0.00194898 0.00224104 0.0025203 0.00278678 0.0030137 0.00317433 0.00326865 0.00329668 0.0032584 0.00315381 0.00298293 0.00274575 0.00245428 0.00212056 0.00174458 0.00132635 0.000865855 0.000363105 -0.000181901 -0.000769164 -0.00134947 -0.00187359 -0.00234153 -0.00275329 -0.00310888 -0.00340828 -0.0036515 -0.00383855 -0.00392437 -0.00386391 -0.00365718 -0.00330418 -0.00280491 -0.00215936 -0.00136754 -0.00042945 0.00064643 0.00185161 0.0031861 0.00464988 0.00624297 0.00796536 0.00981705 0.011798 0.0138307 0.0158373 0.017818 0.0197726 0.0217013 0.0236039 0.0254806 0.0273312 0.0290683 0.030604 0.0319385 0.0330716 0.0340035 0.0347341 0.0352635 0.0355915 0.0357117 0.0356174 0.0353085 0.0347852 0.0340473 0.033095 0.0319282 0.0305468 0.0290312 0.0274617 0.0258383 0.0241609 0.0224296 0.0206443 0.0188052 0.016912 0.0150461 0.0132887 0.0116396 0.010099 0.00866676 0.00734297 0.0061276 0.00502065 0.00402738 0.00315305 0.00239766 0.00176122 0.00124371 0.000845146 0.000565524 0.000404842 0.000309958 0.000227724 0.000158142 0.000101211 5.6931e-05 2.53027e-05 6.32566e-06 0 0 -1.19925e-05 -4.79702e-05 -0.000107933 -0.000191881 -0.000299814 -0.000431732 -0.000587635 -0.000767523 -0.000945251 -0.00109467 -0.00121579 -0.00130861 -0.00137312 -0.00140932 -0.00141722 -0.00139682 -0.0013345 -0.00121667 -0.00104332 -0.000814457 -0.000530075 -0.000190176 0.000205239 0.00065617 0.00112635 0.00157951 0.00201566 0.00243478 0.00283689 0.00322198 0.00359005 0.0039411 0.00424088 0.00445513 0.00458386 0.00462706 0.00458474 0.0044569 0.00424352 0.00394463 0.00357569 0.00315219 0.00267414 0.00214153 0.00155436 0.000912638 0.000216358 -0.00053448 -0.00127686 -0.00194777 -0.00254722 -0.0030752 -0.0035317 -0.00391674 -0.00423031 -0.00447242 -0.00458555 -0.00451222 -0.00425242 -0.00380616 -0.00317343 -0.00235424 -0.00134858 -0.000156447 0.00121128 0.00274375 0.00444095 0.00630289 0.00832956 0.010521 0.0128771 0.015398 0.0179847 0.0205383 0.0230587 0.0255461 0.0280003 0.0304214 0.0328094 0.0351642 0.0373744 0.0393283 0.041026 0.0424674 0.0436525 0.0445814 0.045254 0.0456704 0.0458219 0.0457 0.0453047 0.044636 0.0436939 0.0424783 0.0409894 0.039227 0.0372932 0.0352899 0.033217 0.0310747 0.0288629 0.0265815 0.0242307 0.0218103 0.0194238 0.0171745 0.0150624 0.0130875 0.0112498 0.00954934 0.00798605 0.00655997 0.00527851 0.00414907 0.00317166 0.00234628 0.00167292 0.0011516 0.000782298 0.000565027 0.000432599 0.000317828 0.000220714 0.000141257 7.9457e-05 3.53142e-05 8.82855e-06 0 0 -1.35317e-05 -5.41267e-05 -0.000121785 -0.000216507 -0.000338292 -0.000487141 -0.000663053 -0.000866028 -0.00106328 -0.00122202 -0.00134224 -0.00142396 -0.00146716 -0.00147185 -0.00143803 -0.00136569 -0.00123943 -0.00104383 -0.000778891 -0.000444613 -4.09968e-05 0.000431959 0.000974253 0.00158589 0.00222054 0.00283189 0.00341994 0.00398469 0.00452614 0.00504428 0.00553913 0.00601067 0.00641555 0.00671037 0.00689515 0.00696989 0.00693458 0.00678923 0.00653383 0.00616839 0.00571276 0.0051868 0.00459051 0.0039239 0.00318696 0.00237968 0.00150208 0.000554156 -0.000384315 -0.00123354 -0.00199352 -0.00266426 -0.00324575 -0.00373799 -0.00414099 -0.00445475 -0.00460693 -0.0045252 -0.00420956 -0.00366001 -0.00287655 -0.00185918 -0.000607903 0.000877285 0.00258262 0.00449435 0.00661246 0.00893696 0.0114678 0.0142051 0.0171488 0.0202988 0.0235313 0.0267224 0.0298719 0.03298 0.0360466 0.0390717 0.0420553 0.0449975 0.0477586 0.0501992 0.0523192 0.0541187 0.0555976 0.056756 0.0575938 0.0581111 0.0582966 0.0581392 0.057639 0.0567958 0.0556098 0.0540808 0.052209 0.0499942 0.0475634 0.0450434 0.0424341 0.0397356 0.0369478 0.0340708 0.0311046 0.0280492 0.0250338 0.0221877 0.019511 0.0170036 0.0146656 0.0124969 0.0104976 0.00866761 0.0070182 0.0055606 0.00429482 0.00322085 0.00233871 0.00164837 0.00114986 0.00084316 0.000645545 0.000474278 0.00032936 0.00021079 0.000118569 5.26975e-05 1.31744e-05 0 0 -1.4457e-05 -5.7828e-05 -0.000130113 -0.000231312 -0.000361425 -0.000520452 -0.000708393 -0.000925247 -0.00113058 -0.00128394 -0.00138533 -0.00143475 -0.00143221 -0.0013777 -0.00127123 -0.00111278 -0.000885803 -0.00057372 -0.000176534 0.000305755 0.000873148 0.00152564 0.00226324 0.00308595 0.00393538 0.00475317 0.00553933 0.00629384 0.00701672 0.00770795 0.00836755 0.0089955 0.00953771 0.00994005 0.0102025 0.0103252 0.0103079 0.0101508 0.00985386 0.00941704 0.0088655 0.00822439 0.00749371 0.00667346 0.00576364 0.00476424 0.00367528 0.00249674 0.00132817 0.000269116 -0.000680434 -0.00152047 -0.00225101 -0.00287203 -0.00338354 -0.00378555 -0.0039885 -0.00390284 -0.00352859 -0.00286573 -0.00191426 -0.000674195 0.000854474 0.00267175 0.00476045 0.00710341 0.00970063 0.0125521 0.0156578 0.0190178 0.0226321 0.0265006 0.0304707 0.0343897 0.0382576 0.0420745 0.0458402 0.0495549 0.0532185 0.0568311 0.060221 0.0632167 0.0658183 0.0680257 0.0698389 0.071258 0.0722829 0.0729137 0.0731358 0.0729351 0.0723113 0.0712647 0.069795 0.0679024 0.0655869 0.0628484 0.0598419 0.0567222 0.0534894 0.0501435 0.0466845 0.0431123 0.039427 0.0356286 0.031876 0.0283283 0.0249854 0.0218474 0.0189142 0.0161858 0.0136623 0.0113436 0.00924645 0.00738764 0.00576714 0.00438494 0.00324106 0.00233548 0.00166821 0.00123924 0.000948794 0.000697073 0.000484079 0.00030981 0.000174268 7.74526e-05 1.93632e-05 0 0 -1.47685e-05 -5.90738e-05 -0.000132916 -0.000236295 -0.000369212 -0.000531665 -0.000723655 -0.000945182 -0.00114714 -0.00128043 -0.00134505 -0.001341 -0.00126828 -0.00112689 -0.000916828 -0.000638096 -0.000273625 0.000193656 0.000763748 0.00143665 0.00221236 0.00309088 0.00407221 0.00515635 0.00627088 0.00734337 0.00837383 0.00936225 0.0103086 0.011213 0.0120753 0.0128956 0.0136074 0.0141442 0.014506 0.0146929 0.0147047 0.0145417 0.0142036 0.0136906 0.0130339 0.012265 0.0113837 0.0103902 0.00928441 0.00806632 0.00673594 0.00529328 0.00386061 0.00256019 0.00139204 0.00035615 -0.000547481 -0.00131885 -0.00195796 -0.00246481 -0.00273026 -0.00264515 -0.00220951 -0.00142331 -0.000286568 0.00120072 0.00303856 0.00522694 0.00774477 0.0105709 0.0137055 0.0171483 0.0208995 0.0249591 0.029327 0.0340032 0.0388027 0.0435402 0.0482158 0.0528295 0.0573812 0.0618711 0.066299 0.070665 0.0747614 0.0783808 0.0815231 0.0841883 0.0863764 0.0880874 0.0893213 0.0900781 0.0903396 0.0900875 0.0893218 0.0880425 0.0862497 0.0839432 0.0811232 0.0777896 0.0741286 0.0703265 0.0663831 0.0622986 0.0580729 0.053706 0.0491979 0.0445486 0.0399506 0.0355963 0.0314856 0.0276187 0.0239954 0.0206159 0.01748 0.0145878 0.0119633 0.0096302 0.00758862 0.00583855 0.00437998 0.00321291 0.00233734 0.00175327 0.00134235 0.000986215 0.000684872 0.000438318 0.000246554 0.000109579 2.73949e-05 0 0 -1.44661e-05 -5.78644e-05 -0.000130195 -0.000231458 -0.000361653 -0.00052078 -0.000708839 -0.00092583 -0.00111298 -0.0012115 -0.00122141 -0.0011427 -0.00097536 -0.000719404 -0.000374828 5.83695e-05 0.000597106 0.0012583 0.00204195 0.00294807 0.00397664 0.00512766 0.00640115 0.0077971 0.00922703 0.0106025 0.0119234 0.0131899 0.0144019 0.0155594 0.0166624 0.0177109 0.0186245 0.0193227 0.0198056 0.020073 0.0201251 0.0199618 0.0195831 0.018989 0.018218 0.0173085 0.0162606 0.0150741 0.0137493 0.0122859 0.0106841 0.00894377 0.00721298 0.00563969 0.0042239 0.00296562 0.00186483 0.00092154 0.000135752 -0.000492536 -0.000832204 -0.000752131 -0.000252317 0.000667237 0.00200653 0.00376557 0.00594434 0.00854286 0.0115356 0.0148969 0.0186269 0.0227256 0.0271929 0.0320289 0.0372335 0.0428067 0.0485273 0.0541739 0.0597464 0.065245 0.0706695 0.0760201 0.0812966 0.0864992 0.09138 0.0956915 0.0994337 0.102607 0.10521 0.107244 0.108709 0.109604 0.109908 0.109597 0.10867 0.107129 0.104974 0.102203 0.0988179 0.0948178 0.0904237 0.0858561 0.0811151 0.0762007 0.0711129 0.0658518 0.0604172 0.0548092 0.0492574 0.0439916 0.0390116 0.0343176 0.0299095 0.0257872 0.0219509 0.0184004 0.0151687 0.0122883 0.00975927 0.00758167 0.00575547 0.00428067 0.00315726 0.00238525 0.00182621 0.0013417 0.000931738 0.000596312 0.000335426 0.000149078 3.72695e-05 0 0 -1.35499e-05 -5.41996e-05 -0.000121949 -0.000216798 -0.000338748 -0.000487797 -0.000663945 -0.000867194 -0.00102808 -0.00107715 -0.00101441 -0.000839839 -0.000553453 -0.000155249 0.000354774 0.000976615 0.00172639 0.00262021 0.00365809 0.00484001 0.00616598 0.007636 0.00925007 0.0110082 0.0128038 0.0145305 0.0161881 0.0177768 0.0192965 0.0207471 0.0221288 0.0234415 0.0245892 0.0254757 0.0261012 0.0264656 0.0265689 0.0264111 0.0259922 0.0253123 0.0244177 0.023355 0.0221242 0.0207253 0.0191582 0.017423 0.0155197 0.0134482 0.0113853 0.00950761 0.00781515 0.00630792 0.00498592 0.00384914 0.0028976 0.00213127 0.00170566 0.00177623 0.00234298 0.00340592 0.00496504 0.00702035 0.00957184 0.0126195 0.0161329 0.0200814 0.0244651 0.029284 0.034538 0.0402272 0.0463516 0.0529111 0.0596446 0.0662907 0.0728496 0.079321 0.0857052 0.092002 0.0982115 0.104334 0.110077 0.115149 0.11955 0.12328 0.12634 0.128728 0.130446 0.131493 0.131841 0.131462 0.130357 0.128525 0.125967 0.122682 0.118671 0.113933 0.108727 0.103311 0.0976854 0.09185 0.0858047 0.0795497 0.0730849 0.0664103 0.0597966 0.0535143 0.0475635 0.0419441 0.0366562 0.0316998 0.0270748 0.0227814 0.0188626 0.0153618 0.0122791 0.00961431 0.00736753 0.00553875 0.00412797 0.00313518 0.00240037 0.00176354 0.00122468 0.000783794 0.000440884 0.000195948 4.89871e-05 0 0 -1.20199e-05 -4.80795e-05 -0.000108179 -0.000192318 -0.000300497 -0.000432715 -0.000588974 -0.000769272 -0.000892458 -0.000877379 -0.000724037 -0.00043243 -2.55882e-06 0.000565576 0.00127198 0.00211664 0.00311423 0.00427939 0.00561215 0.00711248 0.00878039 0.0106159 0.012619 0.0147896 0.0170013 0.0191274 0.021168 0.023123 0.0249924 0.0267763 0.0284746 0.0300874 0.0315013 0.0326031 0.0333929 0.0338706 0.0340362 0.0338897 0.0334311 0.0326605 0.0316331 0.0304045 0.0289747 0.0273436 0.0255112 0.0234776 0.0212427 0.0188066 0.0163776 0.014164 0.0121658 0.0103831 0.0088158 0.00746396 0.00632757 0.00540662 0.00488333 0.00493992 0.00557638 0.00679273 0.00858895 0.0109651 0.013921 0.0174569 0.0215367 0.0261243 0.0312199 0.0368234 0.0429348 0.0495541 0.0566813 0.0643164 0.0721546 0.0798908 0.0875252 0.0950576 0.102488 0.109817 0.117044 0.124168 0.130852 0.136753 0.141872 0.14621 0.149766 0.15254 0.154532 0.155743 0.156138 0.155684 0.154382 0.15223 0.14923 0.145381 0.140682 0.135135 0.129038 0.122691 0.116094 0.109246 0.102148 0.0947998 0.0872011 0.079352 0.071568 0.0641643 0.0571411 0.0504982 0.0442357 0.0383536 0.0328519 0.0277306 0.0230451 0.0188509 0.0151481 0.0119365 0.00921617 0.00698717 0.00524946 0.00400305 0.00306484 0.00225172 0.00156369 0.00100076 0.000562929 0.000250191 6.25477e-05 0 0 -9.87601e-06 -3.9504e-05 -8.88841e-05 -0.000158016 -0.0002469 -0.000355536 -0.000483924 -0.000632064 -0.000706102 -0.000612182 -0.000350304 7.95304e-05 0.000677323 0.00144307 0.00237678 0.00347844 0.00476062 0.00623584 0.00790413 0.00976547 0.0118199 0.0140673 0.0165078 0.0191414 0.0218194 0.0243932 0.0268629 0.0292284 0.0314897 0.0336468 0.0356997 0.0376485 0.0393609 0.040705 0.0416807 0.0422881 0.042527 0.0423976 0.0418997 0.0410335 0.0398642 0.038457 0.036812 0.0349291 0.0328084 0.0304497 0.0278533 0.0250189 0.0221898 0.0196087 0.0172758 0.0151911 0.0133545 0.011766 0.0104257 0.0093335 0.00870081 0.00873894 0.00944789 0.0108277 0.0128783 0.0155997 0.0189919 0.023055 0.0277469 0.0330257 0.0388914 0.0453439 0.0523833 0.0600095 0.0682226 0.0770226 0.0860572 0.0949741 0.103773 0.112455 0.121018 0.129465 0.137793 0.146004 0.153704 0.160503 0.1664 0.171395 0.175488 0.178679 0.180968 0.182355 0.1828 0.182263 0.180745 0.178244 0.174762 0.170298 0.164852 0.158424 0.151358 0.143997 0.136341 0.12839 0.120143 0.111602 0.102766 0.0936343 0.0845717 0.0759418 0.0677445 0.0599799 0.052648 0.0457487 0.0392821 0.0332481 0.0277162 0.0227555 0.0183662 0.0145481 0.0113014 0.00862591 0.00652174 0.00498887 0.00381961 0.00280624 0.00194878 0.00124722 0.00070156 0.000311805 7.79511e-05 0 0 -6.44261e-06 -2.57704e-05 -5.79835e-05 -0.000103082 -0.000161065 -0.000231934 -0.000315688 -0.000412327 -0.000414348 -0.000214248 0.000187974 0.000792316 0.00159878 0.00260736 0.00381807 0.0052309 0.00685496 0.00869939 0.0107642 0.0130493 0.0155548 0.0182807 0.0212269 0.0243934 0.0276073 0.0306956 0.0336582 0.0364952 0.0392066 0.0417923 0.0442523 0.0465867 0.0486428 0.0502678 0.0514619 0.052225 0.0525571 0.0524581 0.0519282 0.0509673 0.0496514 0.0480564 0.0461824 0.0440294 0.0415974 0.0388864 0.0358963 0.0326273 0.0293597 0.0263742 0.0236707 0.0212493 0.0191099 0.0172525 0.0156772 0.0143839 0.0136154 0.0136142 0.0143803 0.0159138 0.0182147 0.0212829 0.0251184 0.0297214 0.0350432 0.0410355 0.0476982 0.0550314 0.0630351 0.0717092 0.0810537 0.0910687 0.101352 0.111501 0.121515 0.131395 0.141141 0.150753 0.16023 0.169574 0.178336 0.18607 0.192777 0.198457 0.203108 0.206732 0.209329 0.210898 0.211392 0.210765 0.209016 0.206146 0.202154 0.197041 0.190806 0.18345 0.175361 0.166928 0.158151 0.14903 0.139565 0.129757 0.119604 0.109107 0.0986818 0.0887424 0.0792892 0.0703221 0.0618411 0.0538463 0.0463377 0.0393152 0.0328641 0.02707 0.0219326 0.0174522 0.0136285 0.0104617 0.0079518 0.0060987 0.00466932 0.00343052 0.00238231 0.00152468 0.00085763 0.000381169 9.52922e-05 0 0 -1.04397e-06 -4.17587e-06 -9.39571e-06 -1.67035e-05 -2.60992e-05 -3.75828e-05 -5.11544e-05 -6.68139e-05 3.74719e-05 0.000383736 0.000971979 0.0018022 0.0028744 0.00418858 0.00574474 0.00754287 0.00958668 0.0118799 0.0144224 0.0172143 0.0202556 0.0235462 0.0270862 0.0308756 0.0347143 0.0384022 0.0419394 0.0453258 0.0485615 0.0516464 0.0545806 0.057364 0.0598215 0.0617781 0.0632338 0.0641885 0.0646422 0.0645949 0.0640467 0.0629975 0.061535 0.0597466 0.0576323 0.0551922 0.0524263 0.0493346 0.045917 0.0421736 0.0384252 0.0349926 0.0318759 0.029075 0.02659 0.0244208 0.0225674 0.0210299 0.0200843 0.0200064 0.0207964 0.0224542 0.0249798 0.0283732 0.0326345 0.0377635 0.043705 0.0504036 0.0578592 0.066072 0.0750418 0.0847687 0.0952527 0.106494 0.118038 0.129431 0.140672 0.151763 0.162702 0.17349 0.184127 0.194613 0.204446 0.213124 0.220647 0.227015 0.232229 0.236288 0.239191 0.240941 0.24148 0.240756 0.238767 0.235514 0.230997 0.225216 0.218171 0.209861 0.200721 0.191184 0.181249 0.170918 0.16019 0.149064 0.137541 0.125622 0.113773 0.102462 0.0916907 0.0814578 0.0717635 0.0626079 0.053991 0.0459128 0.0384773 0.0317885 0.0258466 0.0206514 0.016203 0.0125014 0.00954663 0.00733859 0.00561861 0.00412796 0.00286664 0.00183465 0.00103199 0.000458662 0.000114665 0 0 6.31991e-06 2.52796e-05 5.68792e-05 0.000101119 0.000157998 0.000227517 0.000309675 0.000404474 0.000649357 0.00118177 0.00200171 0.00310918 0.00450419 0.00618672 0.00815678 0.0104144 0.0129558 0.0157772 0.0188788 0.0222605 0.0259222 0.029864 0.0340859 0.0385879 0.0431402 0.0475129 0.0517062 0.05572 0.0595543 0.0632092 0.0666845 0.0699803 0.0728972 0.0752359 0.0769963 0.0781784 0.0787823 0.0788079 0.0782552 0.0771243 0.075515 0.0735275 0.0711617 0.0684175 0.0652951 0.0617943 0.0579153 0.0536579 0.0493862 0.045464 0.0418914 0.0386683 0.0357948 0.0332708 0.0310964 0.0292715 0.0281075 0.0279158 0.0286962 0.0304488 0.0331737 0.0368707 0.04154 0.0471814 0.0537323 0.06113 0.0693744 0.0784656 0.0884035 0.0991882 0.11082 0.123298 0.136115 0.148764 0.161245 0.173557 0.185701 0.197676 0.209483 0.221122 0.232034 0.241663 0.250009 0.257071 0.262849 0.267344 0.270556 0.272483 0.273064 0.272236 0.269997 0.266349 0.261291 0.254823 0.246945 0.237658 0.227438 0.216764 0.205636 0.194053 0.182016 0.169524 0.156577 0.143177 0.129844 0.117101 0.104949 0.0933869 0.082415 0.0720334 0.0622421 0.053041 0.0445556 0.0369112 0.030108 0.0241459 0.0190249 0.014745 0.0113062 0.00870854 0.00666748 0.00489856 0.00340178 0.00217714 0.00122464 0.000544284 0.000136071 0 0 1.5649e-05 6.25961e-05 0.000140841 0.000250384 0.000391226 0.000563365 0.000766802 0.00100154 0.00142131 0.00217985 0.00327717 0.00471327 0.00648814 0.00860178 0.0110542 0.0138454 0.0169622 0.0203916 0.0241334 0.0281878 0.0325546 0.037234 0.0422259 0.0475303 0.052885 0.0580279 0.0629589 0.067678 0.0721852 0.0764806 0.080564 0.0844357 0.0878699 0.0906412 0.0927495 0.094195 0.0949775 0.0950971 0.0945538 0.0933475 0.0915916 0.0893992 0.0867705 0.0837053 0.0802036 0.0762656 0.0718911 0.0670802 0.0622427 0.0577883 0.0537171 0.0500291 0.0467242 0.0438026 0.041264 0.0391087 0.0376851 0.0373421 0.0380797 0.0398977 0.0427963 0.0467754 0.051835 0.0579751 0.0651252 0.0732148 0.0822438 0.0922122 0.10312 0.114968 0.127754 0.141481 0.155584 0.169501 0.183232 0.196777 0.210137 0.22331 0.236298 0.2491 0.261101 0.271689 0.280864 0.288624 0.29497 0.299903 0.303421 0.305526 0.306145 0.305205 0.302707 0.29865 0.293035 0.285862 0.27713 0.26684 0.255513 0.24367 0.231311 0.218435 0.205044 0.191136 0.176713 0.161773 0.146896 0.132659 0.119064 0.106109 0.0937957 0.0821228 0.0710909 0.0606998 0.051099 0.0424381 0.034717 0.0279356 0.0220941 0.0171925 0.0132306 0.0102086 0.00781593 0.00574231 0.00398772 0.00255214 0.00143558 0.000638035 0.000159509 0 0 2.69434e-05 0.000107773 0.00024249 0.000431094 0.000673584 0.000969961 0.00132023 0.00172438 0.00235333 0.00337799 0.00479836 0.00661445 0.00882625 0.0114338 0.014437 0.0178359 0.021606 0.0257228 0.0301862 0.0349963 0.0401529 0.0456563 0.0515063 0.0577029 0.0639489 0.069947 0.0756973 0.0811996 0.086454 0.0914606 0.0962193 0.10073 0.104739 0.107994 0.110493 0.112238 0.113228 0.113462 0.112942 0.111667 0.109765 0.107362 0.104459 0.101055 0.097152 0.0927484 0.0878446 0.0824405 0.0769948 0.0719656 0.0673532 0.0631575 0.0593784 0.0560161 0.0530704 0.0505414 0.0488171 0.0482856 0.0489468 0.0508009 0.0538476 0.0580872 0.0635195 0.0701445 0.0778836 0.0866578 0.0964673 0.107312 0.119192 0.132107 0.146057 0.161042 0.176444 0.191641 0.206635 0.221425 0.236011 0.250393 0.264572 0.278547 0.291647 0.303202 0.313211 0.321674 0.328591 0.333963 0.337788 0.340068 0.340721 0.339663 0.336895 0.332418 0.32623 0.318333 0.308726 0.297408 0.284945 0.2719 0.258273 0.244064 0.229274 0.213901 0.197947 0.18141 0.164928 0.149137 0.134036 0.119625 0.105906 0.0928762 0.0805374 0.0688892 0.0581077 0.0483691 0.0396734 0.0320206 0.0254107 0.0198438 0.0153198 0.0118386 0.00906396 0.00665923 0.00462447 0.00295966 0.00166481 0.000739915 0.000184979 0 0 4.0203e-05 0.000160812 0.000361827 0.000643247 0.00100507 0.00144731 0.00196994 0.00257299 0.00344541 0.00477617 0.00656528 0.00881273 0.0115185 0.0146827 0.0183052 0.022386 0.0268872 0.031771 0.0370372 0.0426859 0.0487171 0.0551308 0.061927 0.0691056 0.0763318 0.0832704 0.0899214 0.0962849 0.102361 0.108149 0.11365 0.118863 0.123506 0.127294 0.130228 0.132308 0.133533 0.133904 0.133421 0.132083 0.130034 0.127415 0.124226 0.120468 0.11614 0.111243 0.105776 0.099