<?xml version="1.0"?> 
<VTKFile type="StructuredGrid" version="0.1"> 
<StructuredGrid WholeExtent="0 128 0 128 0 0"> 
<Piece Extent="0 128 0 128 0 0"> 
<PointData>
<DataArray type="Float32" Name="u" format="ascii" NumberOfComponents="1"> 
0 0 0 0 0 0 0 0 0 0 0 0 0 0 0 0 0 0 0 0 0 0 0 0 0 0 0 0 0 0 0 0 0 0 0 0 0 0 0 0 0 0 0 0 0 0 0 0 0 0 0 0 0 0 0 0 0 0 0 0 0 0 0 0 0 0 0 0 0 0 0 0 0 0 0 0 0 0 0 0 0 0 0 0 0 0 0 0 0 0 0 0 0 0 0 0 0 0 0 0 0 0 0 0 0 0 0 0 0 0 0 0 0 0 0 0 0 0 0 0 0 0 0 0 0 0 0 0 0 0 -3.54762e-07 -1.41905e-06 -3.19286e-06 -5.6762e-06 -8.86906e-06 -1.27714e-05 -1.73833e-05 -2.27048e-05 -2.85379e-05 -3.46849e-05 -4.11457e-05 -4.79203e-05 -5.50088e-05 -6.24111e-05 -7.01273e-05 -7.81573e-05 -8.60074e-05 -9.31839e-05 -9.96868e-05 -0.000105516 -0.000110672 -0.000115154 -0.000118962 -0.000122097 -0.000124689 -0.000126867 -0.000128631 -0.000129983 -0.000130921 -0.000131445 -0.000131556 -0.000131254 -0.000130905 -0.000130873 -0.000131159 -0.000131764 -0.000132686 -0.000133926 -0.000135485 -0.000137361 -0.000139594 -0.000142222 -0.000145244 -0.000148661 -0.000152472 -0.000156679 -0.00016128 -0.000166276 -0.000171053 -0.000175001 -0.000178118 -0.000180405 -0.000181862 -0.000182488 -0.000182283 -0.000181249 -0.000178592 -0.000173521 -0.000166035 -0.000156135 -0.000143821 -0.000129092 -0.000111949 -9.23917e-05 -7.05272e-05 -4.6463e-05 -2.0199e-05 8.26473e-06 3.89283e-05 7.17916e-05 0.000106855 0.000144117 0.000182083 0.000219253 0.000255629 0.00029121 0.000325997 0.000359988 0.000393185 0.000425587 0.000455581 0.000481553 0.000503503 0.000521431 0.000535337 0.000545222 0.000551084 0.000552925 0.000550892 0.000545136 0.000535655 0.000522451 0.000505523 0.00048487 0.000460494 0.000432394 0.000402347 0.000372131 0.000341744 0.000311188 0.000280463 0.000249568 0.000218503 0.000187268 0.000157251 0.000129836 0.000105026 8.28188e-05 6.32152e-05 4.62151e-05 3.18186e-05 2.00255e-05 1.03613e-05 2.35129e-06 -4.00447e-06 -8.706e-06 -1.17533e-05 -1.31464e-05 -1.28853e-05 -1.09699e-05 -8.39883e-06 -6.17057e-06 -4.28512e-06 -2.74247e-06 -1.54264e-06 -6.85619e-07 -1.71405e-07 0 0 -1.41905e-06 -5.6762e-06 -1.27714e-05 -2.27048e-05 -3.54762e-05 -5.10858e-05 -6.95334e-05 -9.08191e-05 -0.000114152 -0.000138739 -0.000164583 -0.000191681 -0.000220035 -0.000249644 -0.000280509 -0.000312629 -0.00034403 -0.000372736 -0.000398747 -0.000422065 -0.000442687 -0.000460616 -0.000475849 -0.000488389 -0.000498754 -0.000507466 -0.000514525 -0.00051993 -0.000523682 -0.00052578 -0.000526226 -0.000525017 -0.000523618 -0.000523491 -0.000524637 -0.000527054 -0.000530744 -0.000535705 -0.000541939 -0.000549445 -0.000558376 -0.000568887 -0.000580976 -0.000594643 -0.00060989 -0.000626715 -0.000645119 -0.000665102 -0.000684214 -0.000700004 -0.000712473 -0.00072162 -0.000727446 -0.000729951 -0.000729134 -0.000724996 -0.000714368 -0.000694083 -0.00066414 -0.00062454 -0.000575283 -0.000516368 -0.000447796 -0.000369567 -0.000282109 -0.000185852 -8.07961e-05 3.30589e-05 0.000155713 0.000287166 0.000427418 0.00057647 0.000728331 0.000877014 0.00102252 0.00116484 0.00130399 0.00143995 0.00157274 0.00170235 0.00182233 0.00192621 0.00201401 0.00208573 0.00214135 0.00218089 0.00220434 0.0022117 0.00220357 0.00218054 0.00214262 0.0020898 0.00202209 0.00193948 0.00184198 0.00172958 0.00160939 0.00148852 0.00136698 0.00124475 0.00112185 0.00099827 0.000874011 0.000749073 0.000629002 0.000519346 0.000420104 0.000331275 0.000252861 0.000184861 0.000127274 8.01019e-05 4.14451e-05 9.40517e-06 -1.60179e-05 -3.4824e-05 -4.70132e-05 -5.25856e-05 -5.1541e-05 -4.38796e-05 -3.35953e-05 -2.46823e-05 -1.71405e-05 -1.09699e-05 -6.17057e-06 -2.74247e-06 -6.85619e-07 0 0 -3.19286e-06 -1.27714e-05 -2.87357e-05 -5.10858e-05 -7.98215e-05 -0.000114943 -0.00015645 -0.000204343 -0.000256841 -0.000312164 -0.000370311 -0.000431283 -0.000495079 -0.0005617 -0.000631146 -0.000703416 -0.000774067 -0.000838655 -0.000897182 -0.000949645 -0.000996046 -0.00103638 -0.00107066 -0.00109887 -0.0011222 -0.0011418 -0.00115768 -0.00116984 -0.00117828 -0.00118301 -0.00118401 -0.00118129 -0.00117814 -0.00117786 -0.00118043 -0.00118587 -0.00119417 -0.00120534 -0.00121936 -0.00123625 -0.00125635 -0.00127999 -0.0013072 -0.00133795 -0.00137225 -0.00141011 -0.00145152 -0.00149648 -0.00153948 -0.00157501 -0.00160306 -0.00162365 -0.00163675 -0.00164239 -0.00164055 -0.00163124 -0.00160733 -0.00156169 -0.00149432 -0.00140522 -0.00129439 -0.00116183 -0.00100754 -0.000831525 -0.000634745 -0.000418167 -0.000181791 7.43825e-05 0.000350354 0.000646124 0.000961692 0.00129706 0.00163875 0.00197328 0.00230066 0.00262089 0.00293397 0.0032399 0.00353867 0.00383029 0.00410023 0.00433398 0.00453153 0.00469288 0.00481804 0.004907 0.00495976 0.00497632 0.00495803 0.00490622 0.0048209 0.00470206 0.0045497 0.00436383 0.00414445 0.00389155 0.00362112 0.00334918 0.0030757 0.0028007 0.00252417 0.00224611 0.00196652 0.00168541 0.00141526 0.00116853 0.000945233 0.000745369 0.000568937 0.000415936 0.000286367 0.000180229 9.32515e-05 2.11616e-05 -3.60402e-05 -7.8354e-05 -0.00010578 -0.000118318 -0.000115967 -9.87291e-05 -7.55895e-05 -5.55351e-05 -3.8566e-05 -2.46823e-05 -1.38838e-05 -6.17057e-06 -1.54264e-06 0 0 -5.6762e-06 -2.27048e-05 -5.10858e-05 -9.08191e-05 -0.000141905 -0.000204343 -0.000278134 -0.000363277 -0.000456606 -0.000554958 -0.000658331 -0.000766725 -0.000880141 -0.000998578 -0.00112204 -0.00125052 -0.00137612 -0.00149094 -0.00159499 -0.00168826 -0.00177075 -0.00184246 -0.0019034 -0.00195355 -0.00199502 -0.00202987 -0.0020581 -0.00207972 -0.00209473 -0.00210312 -0.0021049 -0.00210007 -0.00209447 -0.00209397 -0.00209855 -0.00210822 -0.00212297 -0.00214282 -0.00216776 -0.00219778 -0.00223351 -0.00227555 -0.0023239 -0.00237857 -0.00243956 -0.00250686 -0.00258048 -0.00266041 -0.00273686 -0.00280002 -0.00284989 -0.00288648 -0.00290978 -0.0029198 -0.00291654 -0.00289998 -0.00285747 -0.00277633 -0.00265656 -0.00249816 -0.00230113 -0.00206547 -0.00179119 -0.00147827 -0.00112844 -0.000743408 -0.000323185 0.000132236 0.000622852 0.00114866 0.00170967 0.00230588 0.00291333 0.00350805 0.00409007 0.00465937 0.00521595 0.00575981 0.00629096 0.0068094 0.0072893 0.00770485 0.00805605 0.0083429 0.0085654 0.00872355 0.00881735 0.00884679 0.00881427 0.00872217 0.00857048 0.00835922 0.00808836 0.00775793 0.00736791 0.00691831 0.00643755 0.00595409 0.00546791 0.00497901 0.00448741 0.00399308 0.00349604 0.00299629 0.00251601 0.00207738 0.00168041 0.0013251 0.00101144 0.000739442 0.000509097 0.000320408 0.00016578 3.76207e-05 -6.40715e-05 -0.000139296 -0.000188053 -0.000210342 -0.000206164 -0.000175518 -0.000134381 -9.87291e-05 -6.85619e-05 -4.38796e-05 -2.46823e-05 -1.09699e-05 -2.74247e-06 0 0 -8.86906e-06 -3.54762e-05 -7.98215e-05 -0.000141905 -0.000221726 -0.000319286 -0.000434584 -0.00056762 -0.000713448 -0.000867121 -0.00102864 -0.00119801 -0.00137522 -0.00156028 -0.00175318 -0.00195393 -0.00215019 -0.0023296 -0.00249217 -0.0026379 -0.0027668 -0.00287885 -0.00297406 -0.00305243 -0.00311721 -0.00317166 -0.00321578 -0.00324956 -0.00327301 -0.00328613 -0.00328891 -0.00328136 -0.00327261 -0.00327182 -0.00327898 -0.00329409 -0.00331715 -0.00334816 -0.00338712 -0.00343403 -0.00348985 -0.00355554 -0.0036311 -0.00371652 -0.00381181 -0.00391697 -0.004032 -0.00415689 -0.00427634 -0.00437503 -0.00445296 -0.00451013 -0.00454654 -0.00456219 -0.00455709 -0.00453122 -0.0044648 -0.00433802 -0.00415088 -0.00390338 -0.00359552 -0.0032273 -0.00279873 -0.00230979 -0.00176318 -0.00116158 -0.000504976 0.000206618 0.000973206 0.00179479 0.00267137 0.00360294 0.00455207 0.00548134 0.00639073 0.00728026 0.00814992 0.00899971 0.00982963 0.0106397 0.0113895 0.0120388 0.0125876 0.0130358 0.0133834 0.0136305 0.0137771 0.0138231 0.0137723 0.0136284 0.0133914 0.0130613 0.0126381 0.0121218 0.0115124 0.0108099 0.0100587 0.00930326 0.00854361 0.00777971 0.00701157 0.00623919 0.00546257 0.00468171 0.00393126 0.00324591 0.00262565 0.00207047 0.00158038 0.00115538 0.000795464 0.000500637 0.000259032 5.87823e-05 -0.000100112 -0.00021765 -0.000293833 -0.00032866 -0.000322132 -0.000274247 -0.000209971 -0.000154264 -0.000107128 -6.85619e-05 -3.8566e-05 -1.71405e-05 -4.28512e-06 0 0 -1.27714e-05 -5.10858e-05 -0.000114943 -0.000204343 -0.000319286 -0.000459772 -0.000625801 -0.000817372 -0.00102736 -0.00124865 -0.00148124 -0.00172513 -0.00198032 -0.0022468 -0.00252458 -0.00281366 -0.00309627 -0.00335462 -0.00358873 -0.00379858 -0.00398419 -0.00414554 -0.00428264 -0.0043955 -0.00448879 -0.0045672 -0.00463072 -0.00467937 -0.00471314 -0.00473202 -0.00473603 -0.00472515 -0.00471256 -0.00471142 -0.00472173 -0.00474349 -0.00477669 -0.00482135 -0.00487745 -0.00494501 -0.00502539 -0.00511998 -0.00522878 -0.00535179 -0.00548901 -0.00564044 -0.00580607 -0.00598592 -0.00615792 -0.00630004 -0.00641226 -0.00649458 -0.00654702 -0.00656956 -0.00656221 -0.00652496 -0.00642931 -0.00624675 -0.00597726 -0.00562086 -0.00517755 -0.00464732 -0.00403017 -0.0033261 -0.00253898 -0.00167267 -0.000727165 0.00029753 0.00140142 0.0025845 0.00384677 0.00518823 0.00655498 0.00789312 0.00920265 0.0104836 0.0117359 0.0129596 0.0141547 0.0153211 0.0164009 0.0173359 0.0181261 0.0187715 0.0192721 0.019628 0.019839 0.0199053 0.0198321 0.0196249 0.0192836 0.0188082 0.0181988 0.0174553 0.0165778 0.0155662 0.0144845 0.0133967 0.0123028 0.0112028 0.0100967 0.00898443 0.0078661 0.00674166 0.00566102 0.00467411 0.00378093 0.00298148 0.00227575 0.00166374 0.00114547 0.000720917 0.000373006 8.46465e-05 -0.000144161 -0.000313416 -0.000423119 -0.00047327 -0.000463869 -0.000394916 -0.000302358 -0.00022214 -0.000154264 -9.87291e-05 -5.55351e-05 -2.46823e-05 -6.17057e-06 0 0 -1.73833e-05 -6.95334e-05 -0.00015645 -0.000278134 -0.000434584 -0.000625801 -0.000851784 -0.00111253 -0.00139836 -0.00169956 -0.00201614 -0.00234809 -0.00269543 -0.00305814 -0.00343624 -0.00382971 -0.00421436 -0.00456601 -0.00488466 -0.00517029 -0.00542292 -0.00564254 -0.00582915 -0.00598276 -0.00610974 -0.00621646 -0.00630293 -0.00636914 -0.0064151 -0.00644081 -0.00644626 -0.00643146 -0.00641432 -0.00641277 -0.0064268 -0.00645641 -0.00650161 -0.00656239 -0.00663875 -0.0067307 -0.00684011 -0.00696886 -0.00711695 -0.00728438 -0.00747115 -0.00767726 -0.00790271 -0.0081475 -0.00838162 -0.00857505 -0.00872779 -0.00883985 -0.00891122 -0.0089419 -0.00893189 -0.0088812 -0.00875101 -0.00850252 -0.00813572 -0.00765062 -0.00704722 -0.00632551 -0.0054855 -0.00452719 -0.00345583 -0.00227669 -0.000989753 0.000404972 0.00190748 0.00351779 0.00523588 0.00706176 0.00892206 0.0107434 0.0125258 0.0142693 0.0159738 0.0176394 0.0192661 0.0208538 0.0223235 0.0235961 0.0246717 0.0255501 0.0262315 0.0267159 0.0270031 0.0270933 0.0269937 0.0267116 0.0262471 0.0256001 0.0247706 0.0237587 0.0225642 0.0211873 0.019715 0.0182344 0.0167455 0.0152482 0.0137427 0.0122288 0.0107066 0.00917614 0.00770528 0.00636199 0.00514627 0.00405812 0.00309755 0.00226454 0.00155911 0.000981249 0.000507702 0.000115213 -0.000196219 -0.000426594 -0.000575912 -0.000644174 -0.000631378 -0.000537525 -0.000411543 -0.000302358 -0.000209971 -0.000134381 -7.55895e-05 -3.35953e-05 -8.39883e-06 0 0 -2.27048e-05 -9.08191e-05 -0.000204343 -0.000363277 -0.00056762 -0.000817372 -0.00111253 -0.00145311 -0.00182643 -0.00221983 -0.00263332 -0.0030669 -0.00352056 -0.00399431 -0.00448815 -0.00500207 -0.00550448 -0.00596377 -0.00637996 -0.00675303 -0.007083 -0.00736985 -0.00761359 -0.00781422 -0.00798007 -0.00811946 -0.0082324 -0.00831888 -0.00837891 -0.00841249 -0.00841961 -0.00840028 -0.00837789 -0.00837586 -0.00839419 -0.00843287 -0.0084919 -0.00857129 -0.00867103 -0.00879112 -0.00893402 -0.00910219 -0.00929561 -0.00951429 -0.00975824 -0.0100274 -0.0103219 -0.0106416 -0.0109474 -0.0112001 -0.0113996 -0.0115459 -0.0116391 -0.0116792 -0.0116661 -0.0115999 -0.0114299 -0.0111053 -0.0106262 -0.00999265 -0.00920453 -0.0082619 -0.00716474 -0.00591307 -0.00451374 -0.00297363 -0.00129274 0.000528942 0.00249141 0.00459466 0.0068387 0.00922352 0.0116533 0.0140322 0.0163603 0.0186375 0.0208638 0.0230393 0.0251639 0.0272376 0.0291572 0.0308194 0.0322242 0.0333716 0.0342616 0.0348942 0.0352694 0.0353872 0.0352571 0.0348887 0.0342819 0.0334369 0.0323535 0.0310317 0.0294716 0.0276732 0.0257502 0.0238164 0.0218716 0.0199161 0.0179496 0.0159723 0.0139842 0.0119852 0.010064 0.00830954 0.00672166 0.0053004 0.00404577 0.00295777 0.00203639 0.00128163 0.000663122 0.000150483 -0.000256286 -0.000557184 -0.000752212 -0.00084137 -0.000824657 -0.000702073 -0.000537525 -0.000394916 -0.000274247 -0.000175518 -9.87291e-05 -4.38796e-05 -1.09699e-05 0 0 -2.82677e-05 -0.000113071 -0.000254409 -0.000452283 -0.000706692 -0.00101764 -0.00138512 -0.00180913 -0.00227306 -0.00276026 -0.00327076 -0.00380453 -0.00436159 -0.00494194 -0.00554557 -0.00617248 -0.00678311 -0.0073379 -0.00783683 -0.00827993 -0.00866717 -0.00899857 -0.00927412 -0.00949382 -0.00966941 -0.00981263 -0.00992348 -0.010002 -0.010048 -0.0100618 -0.0100431 -0.00999209 -0.00993952 -0.00991623 -0.00992221 -0.00995747 -0.010022 -0.0101158 -0.0102389 -0.0103913 -0.0105757 -0.010795 -0.0110492 -0.0113381 -0.011662 -0.0120207 -0.0124142 -0.0128426 -0.0132545 -0.0135986 -0.0138749 -0.0140834 -0.0142242 -0.0142971 -0.0143022 -0.0142395 -0.0140435 -0.0136486 -0.0130548 -0.0122622 -0.0112707 -0.0100803 -0.0086911 -0.007103 -0.00532485 -0.00336548 -0.00122488 0.00109695 0.00360001 0.0062843 0.00914981 0.0121966 0.0153017 0.0183422 0.0213183 0.0242299 0.027077 0.0298596 0.0325776 0.0352312 0.037688 0.0398157 0.0416144 0.0430841 0.0442248 0.0450364 0.045519 0.0456726 0.045509 0.0450401 0.0442658 0.0431863 0.0418014 0.0401112 0.0381157 0.0358149 0.0333538 0.0308774 0.0283857 0.0258787 0.0233564 0.0208188 0.018266 0.0156978 0.0132279 0.0109696 0.00892302 0.00708813 0.00546493 0.00405342 0.0028536 0.00186547 0.00105132 0.00037345 -0.000168136 -0.00057344 -0.000842464 -0.000975205 -0.000971666 -0.000831845 -0.000636882 -0.000467913 -0.00032494 -0.000207961 -0.000116978 -5.19903e-05 -1.29976e-05 0 0 -3.36039e-05 -0.000134416 -0.000302435 -0.000537663 -0.000840098 -0.00120974 -0.00164659 -0.00215065 -0.00269973 -0.00327165 -0.0038664 -0.00448399 -0.00512441 -0.00578766 -0.00647376 -0.00718269 -0.00786678 -0.00847838 -0.00901748 -0.00948409 -0.00987819 -0.0101998 -0.0104489 -0.0106255 -0.0107474 -0.0108324 -0.0108805 -0.0108917 -0.010866 -0.0108034 -0.0107038 -0.0105674 -0.0104355 -0.0103494 -0.0103092 -0.0103149 -0.0103664 -0.0104638 -0.0106071 -0.0107963 -0.0110339 -0.0113224 -0.011662 -0.0120526 -0.0124941 -0.0129866 -0.0135301 -0.0141246 -0.014702 -0.0151942 -0.0156012 -0.015923 -0.0161596 -0.016311 -0.0163772 -0.0163582 -0.0161692 -0.0157256 -0.0150274 -0.0140745 -0.0128669 -0.0114047 -0.0096878 -0.00771626 -0.00550131 -0.0030542 -0.000374921 0.00253652 0.00568012 0.00905588 0.0126638 0.0165039 0.0204201 0.0242562 0.0280124 0.0316885 0.0352847 0.0388008 0.042237 0.0455931 0.0487016 0.051395 0.0536731 0.0555359 0.0569836 0.058016 0.0586333 0.0588353 0.0586361 0.0580499 0.0570766 0.0557161 0.0539686 0.0518339 0.0493122 0.0464034 0.0432894 0.0401523 0.036992 0.0338085 0.0306019 0.0273722 0.0241193 0.0208432 0.0176873 0.014795 0.0121663 0.00980111 0.00769952 0.0058615 0.00428704 0.00297616 0.00188434 0.000967111 0.000224458 -0.000343617 -0.000737112 -0.000956028 -0.00100037 -0.000870124 -0.000666189 -0.000489445 -0.000339892 -0.000217531 -0.000122361 -5.43828e-05 -1.35957e-05 0 0 -3.87135e-05 -0.000154854 -0.000348422 -0.000619417 -0.000967838 -0.00139369 -0.00189696 -0.00247767 -0.00310645 -0.00375398 -0.00442025 -0.00510525 -0.005809 -0.00653149 -0.00727272 -0.00803269 -0.00875549 -0.00938523 -0.00992191 -0.0103655 -0.0107161 -0.0109735 -0.011138 -0.0112093 -0.0112141 -0.0111788 -0.0111035 -0.0109882 -0.0108328 -0.0106373 -0.0104018 -0.0101262 -0.00986573 -0.00967535 -0.00955512 -0.00950502 -0.00952507 -0.00961525 -0.00977557 -0.010006 -0.0103084 -0.0106844 -0.0111341 -0.0116575 -0.0122546 -0.0129253 -0.0136697 -0.0144878 -0.01529 -0.0159869 -0.0165785 -0.0170647 -0.0174455 -0.0177211 -0.0178912 -0.017956 -0.0178072 -0.0173365 -0.016544 -0.0154295 -0.0139932 -0.012235 -0.0101548 -0.00775285 -0.00504311 -0.00203979 0.00125713 0.00484763 0.00873173 0.0129094 0.0173807 0.0221455 0.0270085 0.0317742 0.0364424 0.0410133 0.0454869 0.0498631 0.0541419 0.0583234 0.0621982 0.0655571 0.0684 0.070727 0.072538 0.073833 0.0746121 0.0748753 0.0746386 0.0739182 0.0727141 0.0710264 0.068855 0.0661998 0.0630611 0.0594386 0.055557 0.051641 0.0476905 0.0437056 0.0396862 0.0356324 0.031544 0.0274213 0.0234424 0.0197858 0.0164514 0.0134393 0.0107495 0.00838199 0.00633671 0.0046137 0.0031622 0.00193147 0.000921495 0.000132287 -0.000436158 -0.000783839 -0.000910756 -0.00081691 -0.000625447 -0.000459512 -0.000319106 -0.000204228 -0.000114878 -5.10569e-05 -1.27642e-05 0 0 -4.35965e-05 -0.000174386 -0.000392369 -0.000697545 -0.00108991 -0.00156948 -0.00213623 -0.00279018 -0.00349322 -0.00420726 -0.0049323 -0.00566834 -0.00641538 -0.00717341 -0.00794245 -0.00872248 -0.00944923 -0.0100584 -0.0105501 -0.0109242 -0.0111808 -0.0113198 -0.0113413 -0.0112452 -0.0110694 -0.0108519 -0.0105925 -0.0102913 -0.00994834 -0.00956355 -0.00913696 -0.00866856 -0.0082303 -0.00789411 -0.00766 -0.00752797 -0.00749801 -0.00757012 -0.00774431 -0.00802058 -0.00839934 -0.008881 -0.00946557 -0.0101531 -0.0109434 -0.0118367 -0.0128329 -0.0139321 -0.0150185 -0.0159767 -0.0168067 -0.0175084 -0.0180819 -0.0185272 -0.0188442 -0.019033 -0.0189574 -0.0184813 -0.0176046 -0.0163273 -0.0146495 -0.0125711 -0.0100922 -0.00721276 -0.00395026 -0.000322251 0.00367127 0.0080303 0.0127548 0.0178449 0.0233004 0.0291215 0.035067 0.040896 0.0466084 0.0522043 0.0576836 0.0630463 0.0682925 0.0734221 0.0781778 0.0823022 0.0857954 0.0886573 0.090888 0.0924874 0.0934556 0.0937925 0.0935162 0.0926449 0.0911785 0.0891171 0.0864605 0.0832089 0.0793623 0.0749205 0.0701567 0.0653436 0.0604814 0.0555699 0.0506092 0.0455994 0.0405403 0.0354321 0.0304931 0.0259419 0.0217785 0.0180028 0.014615 0.0116149 0.00900261 0.0067781 0.00488489 0.00326651 0.00192298 0.00085427 6.03999e-05 -0.000458636 -0.000702837 -0.000672203 -0.000514656 -0.000378114 -0.000262579 -0.000168051 -9.45286e-05 -4.20127e-05 -1.05032e-05 0 0 -4.82529e-05 -0.000193012 -0.000434276 -0.000772046 -0.00120632 -0.0017371 -0.00236439 -0.00308819 -0.00386004 -0.0046315 -0.00540257 -0.00617325 -0.00694354 -0.00771344 -0.00848294 -0.00925206 -0.00994801 -0.010498 -0.0109021 -0.0111602 -0.0112723 -0.0112386 -0.0110588 -0.0107332 -0.0103134 -0.0098515 -0.00934742 -0.00880116 -0.00821273 -0.00758212 -0.00690934 -0.00619439 -0.00552919 -0.00500567 -0.00462384 -0.00438369 -0.00428523 -0.00432844 -0.00451334 -0.00483992 -0.00530669 -0.00591215 -0.0066563 -0.00753914 -0.00856067 -0.00972089 -0.0110198 -0.0124574 -0.0138874 -0.0151635 -0.0162858 -0.0172542 -0.0180688 -0.0187294 -0.0192362 -0.0195892 -0.0196198 -0.0191598 -0.0182092 -0.0167679 -0.0148359 -0.0124133 -0.00949996 -0.00609601 -0.00222276 0.00209841 0.0068675 0.0120845 0.0177495 0.0238623 0.0304231 0.0374318 0.0445956 0.0516219 0.0585105 0.0652614 0.0718748 0.0783505 0.0846886 0.0908891 0.0966402 0.10163 0.105859 0.109327 0.112034 0.113979 0.115164 0.115587 0.115269 0.11423 0.11247 0.109988 0.106785 0.102861 0.0982159 0.0928493 0.0870884 0.0812601 0.0753644 0.0694014 0.063371 0.0572732 0.0511081 0.0448756 0.0388394 0.0332634 0.0281474 0.0234916 0.0192959 0.0155602 0.0122847 0.00946935 0.00705241 0.00497226 0.0032289 0.00182233 0.00075256 1.95799e-05 -0.000376608 -0.000436003 -0.000333815 -0.000245252 -0.000170314 -0.000109001 -6.1313e-05 -2.72502e-05 -6.81255e-06 0 0 -5.26826e-05 -0.000210731 -0.000474144 -0.000842922 -0.00131707 -0.00189657 -0.00258145 -0.00337169 -0.0042069 -0.00502668 -0.00583104 -0.00661997 -0.00739348 -0.00815156 -0.00889421 -0.00962144 -0.0102518 -0.010704 -0.0109778 -0.0110734 -0.0109908 -0.0107298 -0.0102907 -0.00967321 -0.00894607 -0.00817776 -0.00736831 -0.00651769 -0.00562593 -0.00469301 -0.00371894 -0.00270371 -0.00176239 -0.00101003 -0.000446634 -7.21964e-05 0.000113279 0.000109794 -8.26536e-05 -0.000464062 -0.00103046 -0.00177788 -0.00270632 -0.00381579 -0.00510627 -0.00657777 -0.0082303 -0.0100638 -0.0118968 -0.0135475 -0.0150159 -0.0163021 -0.0174061 -0.0183278 -0.0190672 -0.0196244 -0.0197944 -0.0193722 -0.0183578 -0.0167512 -0.0145523 -0.0117613 -0.00837804 -0.00440258 0.000139399 0.0052222 0.0108458 0.0170103 0.0237156 0.0309617 0.0387486 0.0470764 0.0555943 0.0639516 0.0721484 0.0801847 0.0880605 0.0957757 0.10333 0.110724 0.117586 0.123541 0.128591 0.132736 0.135975 0.138308 0.139736 0.140259 0.139897 0.138674 0.136588 0.13364 0.129829 0.125157 0.119622 0.113225 0.106352 0.0993904 0.0923398 0.0852002 0.0779715 0.0706539 0.0632474 0.0557518 0.0484813 0.0417502 0.0355582 0.0299056 0.0247922 0.020218 0.0161831 0.0126875 0.00966476 0.00704869 0.00483927 0.00303648 0.00164032 0.000650808 6.79304e-05 -0.000108311 -8.29253e-05 -6.09247e-05 -4.23088e-05 -2.70776e-05 -1.52312e-05 -6.76941e-06 -1.69235e-06 0 0 -5.68857e-05 -0.000227543 -0.000511972 -0.000910172 -0.00142214 -0.00204789 -0.0027874 -0.00364069 -0.00453381 -0.00539282 -0.00621772 -0.00700851 -0.0077652 -0.00848778 -0.00917625 -0.00983061 -0.0103607 -0.0106762 -0.0107773 -0.0106639 -0.010336 -0.00979363 -0.00903674 -0.00806537 -0.00696738 -0.00583064 -0.00465516 -0.00344092 -0.00218795 -0.000896226 0.000434243 0.00180346 0.00307009 0.00409281 0.00487162 0.00540652 0.00569751 0.00574459 0.00554775 0.00510701 0.00442936 0.00352181 0.00238436 0.00101701 -0.000580238 -0.00240739 -0.00446443 -0.00675138 -0.0090466 -0.0111284 -0.0129969 -0.0146521 -0.0160938 -0.0173222 -0.0183372 -0.0191389 -0.0194813 -0.0191184 -0.0180504 -0.0162772 -0.0137988 -0.0106152 -0.00672646 -0.00213248 0.00313621 0.00904912 0.0156063 0.0228076 0.0306532 0.039143 0.048277 0.0580553 0.068063 0.0778853 0.0875224 0.0969742 0.106241 0.115322 0.124218 0.132928 0.141014 0.148035 0.153992 0.158884 0.162712 0.165475 0.167174 0.167808 0.167401 0.165976 0.163533 0.160072 0.155592 0.150095 0.14358 0.136047 0.127948 0.119735 0.111407 0.102966 0.0944108 0.0857415 0.0769581 0.0680607 0.0594189 0.0514023 0.044011 0.0372448 0.0311039 0.0255882 0.0206977 0.0164324 0.0127219 0.00949582 0.00675408 0.0044967 0.00272369 0.00143505 0.000630778 0.000310875 0.000238014 0.000174867 0.000121436 7.77188e-05 4.37168e-05 1.94297e-05 4.85743e-06 0 0 -6.08622e-05 -0.000243449 -0.00054776 -0.000973796 -0.00152156 -0.00219104 -0.00298225 -0.00389518 -0.00484076 -0.0057299 -0.0065626 -0.00733887 -0.0080587 -0.0087221 -0.00932905 -0.00987958 -0.0102746 -0.0104149 -0.0103006 -0.00993169 -0.00930813 -0.00842993 -0.00729709 -0.00590962 -0.00437735 -0.00281013 -0.00120797 0.000429151 0.00210122 0.00380824 0.00555021 0.00732713 0.00896826 0.0103029 0.0113309 0.0120525 0.0124675 0.0125759 0.0123779 0.0118733 0.0110728 0.00998692 0.00861575 0.00695925 0.00501742 0.00279027 0.000277788 -0.00252002 -0.00533688 -0.0079065 -0.0102289 -0.0123041 -0.014132 -0.0157127 -0.0170462 -0.0181325 -0.0186803 -0.0183985 -0.0172871 -0.015346 -0.0125754 -0.00897512 -0.00454522 0.000714293 0.00676767 0.0135792 0.0211488 0.0294765 0.0385623 0.0484062 0.0590083 0.0703685 0.0820017 0.093423 0.104632 0.11563 0.126415 0.136989 0.147351 0.1575 0.166925 0.175112 0.182061 0.187771 0.192244 0.195479 0.197475 0.198234 0.197779 0.196136 0.193304 0.189284 0.184075 0.177677 0.170091 0.161316 0.151876 0.142293 0.132567 0.122699 0.112689 0.102536 0.0922404 0.0818024 0.0716521 0.0622199 0.0535056 0.0455093 0.0382311 0.0316708 0.0258285 0.0207042 0.0162239 0.0123136 0.00897333 0.006203 0.00400266 0.0023723 0.00131194 0.000821554 0.000629002 0.000462124 0.00032092 0.000205389 0.000115531 5.13471e-05 1.28368e-05 0 0 -6.36354e-05 -0.000254541 -0.000572718 -0.00101817 -0.00159088 -0.00229087 -0.00311813 -0.00407266 -0.00504836 -0.00593912 -0.00674494 -0.00746582 -0.00810176 -0.00865277 -0.00911883 -0.00949996 -0.00968882 -0.00957806 -0.0091677 -0.00845773 -0.00744815 -0.00613897 -0.00453017 -0.00262177 -0.000549477 0.00155099 0.00367962 0.00583643 0.00802141 0.0102346 0.0124759 0.0147454 0.0168387 0.0185516 0.0198841 0.020836 0.0214076 0.0215986 0.0214092 0.0208393 0.0199039 0.0186178 0.016981 0.0149936 0.0126555 0.00996666 0.00692719 0.00353704 0.000112759 -0.00302911 -0.00588857 -0.00846563 -0.0107603 -0.0127725 -0.0145023 -0.0159498 -0.0167734 -0.0166317 -0.0155249 -0.0134528 -0.0104155 -0.00641294 -0.00144517 0.00448783 0.0113444 0.019083 0.0277036 0.0372062 0.0475907 0.0588573 0.0710058 0.0840363 0.0973879 0.1105 0.123372 0.136005 0.148398 0.160551 0.172464 0.184138 0.194982 0.204404 0.212404 0.218983 0.224141 0.227878 0.230193 0.231087 0.230585 0.228713 0.225472 0.220861 0.214879 0.207528 0.198807 0.188717 0.177853 0.166814 0.1556 0.14421 0.132644 0.120903 0.108986 0.0968942 0.0851217 0.074164 0.0640212 0.0546931 0.0461799 0.0384816 0.031598 0.0255293 0.0201993 0.0155319 0.0115271 0.00818485 0.00550524 0.00348823 0.00213383 0.00144202 0.00110405 0.000811137 0.000563289 0.000360505 0.000202784 9.01263e-05 2.25316e-05 0 0 -6.42285e-05 -0.000256914 -0.000578057 -0.00102766 -0.00160571 -0.00231223 -0.0031472 -0.00411062 -0.00507721 -0.00592166 -0.00664396 -0.00724413 -0.00772216 -0.00807805 -0.00831179 -0.0084234 -0.00829878 -0.00782385 -0.0069986 -0.00582304 -0.00429716 -0.00242096 -0.000194456 0.00238237 0.00514276 0.00791996 0.010714 0.0135248 0.0163525 0.0191969 0.0220582 0.0249363 0.0275882 0.0297707 0.0314839 0.0327277 0.0335022 0.0338074 0.0336432 0.0330098 0.0319269 0.0304148 0.0284734 0.0261027 0.0233026 0.0200732 0.0164146 0.0123266 0.00818269 0.00435625 0.000847298 -0.00234419 -0.0052182 -0.00777473 -0.0100138 -0.0119354 -0.0131424 -0.0132376 -0.012221 -0.0100927 -0.0068526 -0.00250075 0.00296287 0.00953824 0.0171772 0.0258314 0.035501 0.046186 0.0578862 0.0706018 0.0843328 0.0990791 0.114199 0.129051 0.143636 0.157952 0.172001 0.185782 0.199295 0.21254 0.224846 0.235543 0.244629 0.252106 0.257973 0.26223 0.264878 0.265915 0.265369 0.263266 0.259604 0.254385 0.247609 0.239275 0.229383 0.217934 0.205598 0.193049 0.180285 0.167307 0.154115 0.140709 0.127089 0.113254 0.0997685 0.0871962 0.0755368 0.0647903 0.0549568 0.0460362 0.0380286 0.0309339 0.0246764 0.0191802 0.0144453 0.0104717 0.00725944 0.0048085 0.00311887 0.00219057 0.00167716 0.0012322 0.000855692 0.000547643 0.000308049 0.000136911 3.42277e-05 0 0 -6.26416e-05 -0.000250567 -0.000563775 -0.00100227 -0.00156604 -0.0022551 -0.00306944 -0.00400906 -0.00492731 -0.00567752 -0.00625968 -0.00667381 -0.00691989 -0.00699793 -0.00690793 -0.0066499 -0.00610446 -0.00515226 -0.00379331 -0.00202761 0.000144858 0.00272408 0.00571006 0.00910279 0.0126993 0.0162968 0.0198951 0.0234943 0.0270944 0.0306954 0.0342972 0.0378999 0.0412165 0.04396 0.0461303 0.0477274 0.0487514 0.0492023 0.04908 0.0483845 0.0471419 0.045378 0.0430929 0.0402865 0.0369589 0.03311 0.02874 0.0238486 0.0188729 0.0142496 0.00997871 0.00606026 0.00249422 -0.000719383 -0.00358056 -0.00608932 -0.00778725 -0.00821596 -0.00737544 -0.0052657 -0.00188673 0.00276146 0.00867888 0.0158655 0.0242659 0.0338244 0.044541 0.0564159 0.0694488 0.08364 0.0989893 0.115497 0.132435 0.149077 0.165423 0.181472 0.197225 0.212681 0.227841 0.242705 0.256518 0.268529 0.278735 0.287139 0.293739 0.298536 0.30153 0.30272 0.302132 0.299793 0.295702 0.289858 0.282263 0.272916 0.261818 0.248967 0.235111 0.220997 0.206624 0.191992 0.177102 0.161954 0.146547 0.130881 0.115593 0.101316 0.0880524 0.0758009 0.0645617 0.0543348 0.0451203 0.0369182 0.0296553 0.0232586 0.017728 0.0130636 0.00926525 0.00633309 0.00426708 0.0030672 0.00234833 0.0017253 0.00119813 0.000766801 0.000431325 0.0001917 4.79251e-05 0 0 -5.88747e-05 -0.000235499 -0.000529873 -0.000941996 -0.00147187 -0.00211949 -0.00288486 -0.00376798 -0.00459866 -0.00520669 -0.00559209 -0.00575484 -0.00569495 -0.00541242 -0.00490725 -0.00417944 -0.00310584 -0.00156331 0.000448157 0.00292856 0.00587789 0.00929616 0.0131834 0.0175395 0.0221203 0.0266815 0.031223 0.0357449 0.0402472 0.0447298 0.0491928 0.0536362 0.0577239 0.0611196 0.0638234 0.0658352 0.0671552 0.0677833 0.0677194 0.0669636 0.0655487 0.0635073 0.0608394 0.0575451 0.0536243 0.049077 0.0439033 0.0381032 0.0321834 0.0266509 0.0215057 0.0167477 0.012377 0.00839354 0.00479735 0.00158842 -0.000708064 -0.00156694 -0.000988203 0.00102815 0.00448211 0.00937368 0.0157029 0.0234697 0.0326105 0.0430618 0.0548236 0.0678958 0.0822785 0.0979717 0.114975 0.13329 0.152096 0.170578 0.188733 0.206564 0.224069 0.241249 0.258104 0.274633 0.289998 0.303362 0.314723 0.324082 0.33144 0.336795 0.340149 0.3415 0.340874 0.338295 0.333764 0.32728 0.318843 0.308453 0.296111 0.281817 0.266391 0.250657 0.234615 0.218264 0.201605 0.184637 0.167361 0.149776 0.132594 0.116524 0.101568 0.0877247 0.0749945 0.0633773 0.0528732 0.0434821 0.0351361 0.0277671 0.0213752 0.0159604 0.0115227 0.00806203 0.00557844 0.00407192 0.00311756 0.00229045 0.00159059 0.00101798 0.000572614 0.000254495 6.36237e-05 0 0 -5.29278e-05 -0.000211711 -0.000476351 -0.000846845 -0.0013232 -0.0019054 -0.00259346 -0.00338738 -0.00409126 -0.00450919 -0.00464118 -0.00448724 -0.00404735 -0.00332152 -0.00230975 -0.00101204 0.000697063 0.00294301 0.00572581 0.00904546 0.012902 0.0172953 0.0222255 0.0276925 0.0334056 0.039074 0.0446977 0.0502766 0.0558108 0.0613003 0.0667451 0.0721452 0.0771101 0.0812494 0.0845631 0.0870511 0.0887135 0.0895504 0.0895615 0.0887471 0.0871474 0.0848027 0.081713 0.0778784 0.0732988 0.0679742 0.0619047 0.0550902 0.0481142 0.0415602 0.0354282 0.0297181 0.0244301 0.019564 0.0151199 0.0110979 0.00809522 0.00670951 0.00694072 0.00878886 0.0122539 0.0173359 0.0240348 0.0323507 0.0422111 0.0535438 0.0663487 0.0806259 0.0963753 0.113597 0.132291 0.152457 0.173182 0.193552 0.213568 0.233229 0.252535 0.271486 0.290083 0.308324 0.325286 0.340042 0.352592 0.362936 0.371075 0.377008 0.380735 0.382256 0.381594 0.378772 0.373791 0.366649 0.357347 0.345886 0.332264 0.316483 0.299439 0.282031 0.264259 0.246123 0.227623 0.208759 0.189531 0.169939 0.150772 0.13282 0