<?xml version="1.0"?> 
<VTKFile type="StructuredGrid" version="0.1"> 
<StructuredGrid WholeExtent="0 128 0 128 0 0"> 
<Piece Extent="0 128 0 128 0 0"> 
<PointData>
<DataArray type="Float32" Name="u" format="ascii" NumberOfComponents="1"> 
0 0 0 0 0 0 0 0 0 0 0 0 0 0 0 0 0 0 0 0 0 0 0 0 0 0 0 0 0 0 0 0 0 0 0 0 0 0 0 0 0 0 0 0 0 0 0 0 0 0 0 0 0 0 0 0 0 0 0 0 0 0 0 0 0 0 0 0 0 0 0 0 0 0 0 0 0 0 0 0 0 0 0 0 0 0 0 0 0 0 0 0 0 0 0 0 0 0 0 0 0 0 0 0 0 0 0 0 0 0 0 0 0 0 0 0 0 0 0 0 0 0 0 0 0 0 0 0 0 0 -1.42332e-07 -5.69328e-07 -1.28099e-06 -2.27731e-06 -3.5583e-06 -5.12395e-06 -6.97427e-06 -9.10925e-06 -1.12131e-05 -1.297e-05 -1.43799e-05 -1.54429e-05 -1.6159e-05 -1.65281e-05 -1.65503e-05 -1.62255e-05 -1.53997e-05 -1.39188e-05 -1.17829e-05 -8.99193e-06 -5.54588e-06 -1.44476e-06 3.31142e-06 8.72267e-06 1.43515e-05 1.97605e-05 2.49497e-05 2.9919e-05 3.46684e-05 3.9198e-05 4.35078e-05 4.75976e-05 5.10659e-05 5.35107e-05 5.4932e-05 5.53298e-05 5.47043e-05 5.30552e-05 5.03827e-05 4.66868e-05 4.216e-05 3.69952e-05 3.11921e-05 2.4751e-05 1.76717e-05 9.95423e-06 1.59864e-06 -7.39508e-06 -1.62739e-05 -2.42848e-05 -3.14277e-05 -3.77026e-05 -4.31096e-05 -4.76487e-05 -5.13198e-05 -5.41229e-05 -5.5375e-05 -5.4393e-05 -5.11769e-05 -4.57268e-05 -3.80425e-05 -2.81242e-05 -1.59717e-05 -1.58518e-06 1.49036e-05 3.33627e-05 5.37923e-05 7.61922e-05 0.000100562 0.000126903 0.000155214 0.000185496 0.000216567 0.000247248 0.000277539 0.00030744 0.00033695 0.00036607 0.0003948 0.00042314 0.000449753 0.000473302 0.000493789 0.000511213 0.000525574 0.000536872 0.000545107 0.000550279 0.000552274 0.000550977 0.000546388 0.000538507 0.000527335 0.00051287 0.000495114 0.000474066 0.000450939 0.000426946 0.000402087 0.000376361 0.000349769 0.00032231 0.000293985 0.000264794 0.000235987 0.000208815 0.000183278 0.000159376 0.000137108 0.000116476 9.74782e-05 8.01155e-05 6.44955e-05 5.07258e-05 3.88067e-05 2.87379e-05 2.05196e-05 1.41517e-05 9.63424e-06 6.96722e-06 5.33428e-06 3.91906e-06 2.72157e-06 1.7418e-06 9.79765e-07 4.35451e-07 1.08863e-07 0 0 -5.69328e-07 -2.27731e-06 -5.12395e-06 -9.10925e-06 -1.42332e-05 -2.04958e-05 -2.78971e-05 -3.6437e-05 -4.48524e-05 -5.18799e-05 -5.75197e-05 -6.17717e-05 -6.46359e-05 -6.61124e-05 -6.6201e-05 -6.49019e-05 -6.15988e-05 -5.56753e-05 -4.71317e-05 -3.59677e-05 -2.21835e-05 -5.77904e-06 1.32457e-05 3.48907e-05 5.74061e-05 7.90421e-05 9.97987e-05 0.000119676 0.000138674 0.000156792 0.000174031 0.000190391 0.000204263 0.000214043 0.000219728 0.000221319 0.000218817 0.000212221 0.000201531 0.000186747 0.00016864 0.000147981 0.000124769 9.90039e-05 7.06867e-05 3.98169e-05 6.39457e-06 -2.95803e-05 -6.50956e-05 -9.71391e-05 -0.000125711 -0.000150811 -0.000172438 -0.000190595 -0.000205279 -0.000216492 -0.0002215 -0.000217572 -0.000204708 -0.000182907 -0.00015217 -0.000112497 -6.38869e-05 -6.3407e-06 5.96144e-05 0.000133451 0.000215169 0.000304769 0.00040225 0.000507612 0.000620857 0.000741982 0.000866268 0.000988993 0.00111016 0.00122976 0.0013478 0.00146428 0.0015792 0.00169256 0.00179901 0.00189321 0.00197516 0.00204485 0.0021023 0.00214749 0.00218043 0.00220112 0.0022091 0.00220391 0.00218555 0.00215403 0.00210934 0.00205148 0.00198046 0.00189627 0.00180376 0.00170778 0.00160835 0.00150544 0.00139907 0.00128924 0.00117594 0.00105918 0.000943948 0.00083526 0.000733112 0.000637503 0.000548433 0.000465903 0.000389913 0.000320462 0.000257982 0.000202903 0.000155227 0.000114952 8.20783e-05 5.66068e-05 3.8537e-05 2.78689e-05 2.13371e-05 1.56762e-05 1.08863e-05 6.96722e-06 3.91906e-06 1.7418e-06 4.35451e-07 0 0 -1.28099e-06 -5.12395e-06 -1.15289e-05 -2.04958e-05 -3.20247e-05 -4.61156e-05 -6.27684e-05 -8.19832e-05 -0.000100918 -0.00011673 -0.000129419 -0.000138986 -0.000145431 -0.000148753 -0.000148952 -0.000146029 -0.000138597 -0.00012527 -0.000106046 -8.09274e-05 -4.99129e-05 -1.30028e-05 2.98028e-05 7.85041e-05 0.000129164 0.000177845 0.000224547 0.000269271 0.000312016 0.000352782 0.00039157 0.000428379 0.000459593 0.000481596 0.000494388 0.000497969 0.000492338 0.000477497 0.000453445 0.000420181 0.00037944 0.000332956 0.000280729 0.000222759 0.000159045 8.9588e-05 1.43878e-05 -6.65557e-05 -0.000146465 -0.000218563 -0.000282849 -0.000339324 -0.000387987 -0.000428838 -0.000461878 -0.000487106 -0.000498375 -0.000489537 -0.000460592 -0.000411541 -0.000342383 -0.000253117 -0.000143745 -1.42666e-05 0.000134132 0.000300265 0.00048413 0.00068573 0.000905062 0.00114213 0.00139693 0.00166946 0.0019491 0.00222523 0.00249785 0.00276696 0.00303255 0.00329463 0.0035532 0.00380826 0.00404777 0.00425972 0.0044441 0.00460092 0.00473017 0.00483185 0.00490597 0.00495251 0.00497047 0.00495879 0.00491749 0.00484656 0.00474601 0.00461583 0.00445603 0.0042666 0.00405846 0.00384252 0.00361878 0.00338725 0.00314792 0.00290079 0.00264587 0.00238315 0.00212388 0.00187934 0.0016495 0.00143438 0.00123397 0.00104828 0.000877304 0.00072104 0.000580459 0.000456533 0.00034926 0.000258641 0.000184676 0.000127365 8.67082e-05 6.2705e-05 4.80085e-05 3.52715e-05 2.44941e-05 1.56762e-05 8.81789e-06 3.91906e-06 9.79765e-07 0 0 -2.27731e-06 -9.10925e-06 -2.04958e-05 -3.6437e-05 -5.69328e-05 -8.19832e-05 -0.000111588 -0.000145748 -0.000179409 -0.00020752 -0.000230079 -0.000247087 -0.000258544 -0.00026445 -0.000264804 -0.000259608 -0.000246395 -0.000222701 -0.000188527 -0.000143871 -8.8734e-05 -2.31161e-05 5.29828e-05 0.000139563 0.000229624 0.000316169 0.000399195 0.000478704 0.000554695 0.000627168 0.000696124 0.000761562 0.000817054 0.00085617 0.000878912 0.000885278 0.000875268 0.000848884 0.000806124 0.000746989 0.000674561 0.000591923 0.000499074 0.000396016 0.000282747 0.000159268 2.55783e-05 -0.000118321 -0.000260382 -0.000388556 -0.000502843 -0.000603242 -0.000689754 -0.000762379 -0.000821116 -0.000865966 -0.000886 -0.000870288 -0.000818831 -0.000731628 -0.00060868 -0.000449987 -0.000255547 -2.53628e-05 0.000238458 0.000533804 0.000860676 0.00121907 0.001609 0.00203045 0.00248343 0.00296793 0.00346507 0.00395597 0.00444063 0.00491904 0.0053912 0.00585712 0.0063168 0.00677023 0.00719604 0.00757284 0.00790063 0.00817941 0.00840919 0.00858996 0.00872172 0.00880447 0.00883638 0.00881563 0.00874221 0.00861611 0.00843735 0.00820592 0.00792183 0.00758506 0.00721503 0.00683114 0.00643339 0.00602177 0.0055963 0.00515696 0.00470376 0.0042367 0.00377579 0.00334104 0.00293245 0.00255001 0.00219373 0.00186361 0.00155965 0.00128185 0.00103193 0.000811613 0.000620906 0.000459806 0.000328313 0.000226427 0.000154148 0.000111475 8.53484e-05 6.2705e-05 4.35451e-05 2.78689e-05 1.56762e-05 6.96722e-06 1.7418e-06 0 0 -3.5583e-06 -1.42332e-05 -3.20247e-05 -5.69328e-05 -8.89575e-05 -0.000128099 -0.000174357 -0.000227731 -0.000280327 -0.00032425 -0.000359498 -0.000386073 -0.000403975 -0.000413202 -0.000413756 -0.000405637 -0.000384992 -0.000347971 -0.000294573 -0.000224798 -0.000138647 -3.6119e-05 8.27856e-05 0.000218067 0.000358788 0.000494013 0.000623742 0.000747975 0.000866711 0.00097995 0.00108769 0.00118994 0.00127665 0.00133777 0.0013733 0.00138325 0.00136761 0.00132638 0.00125957 0.00116717 0.001054 0.000924879 0.000779803 0.000618774 0.000441792 0.000248856 3.99661e-05 -0.000184877 -0.000406848 -0.000607119 -0.000785692 -0.000942566 -0.00107774 -0.00119122 -0.00128299 -0.00135307 -0.00138437 -0.00135983 -0.00127942 -0.00114317 -0.000951063 -0.000703104 -0.000399293 -3.96294e-05 0.00037259 0.000834069 0.00134481 0.0019048 0.00251406 0.00317258 0.00388035 0.00463739 0.00541418 0.0061812 0.00693848 0.00768599 0.00842375 0.00915176 0.00987 0.0105785 0.0112438 0.0118326 0.0123447 0.0127803 0.0131394 0.0134218 0.0136277 0.013757 0.0138068 0.0137744 0.0136597 0.0134627 0.0131834 0.0128218 0.0123779 0.0118517 0.0112735 0.0106737 0.0100522 0.00940902 0.00874421 0.00805775 0.00734963 0.00661985 0.00589968 0.00522038 0.00458195 0.00398439 0.00342771 0.0029119 0.00243696 0.00200289 0.00161239 0.00126815 0.000970166 0.000718448 0.00051299 0.000353792 0.000240856 0.00017418 0.000133357 9.79765e-05 6.80392e-05 4.35451e-05 2.44941e-05 1.08863e-05 2.72157e-06 0 0 -5.12395e-06 -2.04958e-05 -4.61156e-05 -8.19832e-05 -0.000128099 -0.000184462 -0.000251074 -0.000327933 -0.000403671 -0.000466919 -0.000517677 -0.000555946 -0.000581724 -0.000595011 -0.000595809 -0.000584117 -0.000554389 -0.000501078 -0.000424185 -0.000323709 -0.000199652 -5.20113e-05 0.000119211 0.000314016 0.000516655 0.000711379 0.000898189 0.00107708 0.00124806 0.00141113 0.00156628 0.00171352 0.00183837 0.00192638 0.00197755 0.00199187 0.00196935 0.00190999 0.00181378 0.00168072 0.00151776 0.00133183 0.00112292 0.000891035 0.00063618 0.000358352 5.75511e-05 -0.000266223 -0.00058586 -0.000874252 -0.0011314 -0.00135729 -0.00155195 -0.00171535 -0.00184751 -0.00194842 -0.0019935 -0.00195815 -0.00184237 -0.00164616 -0.00136953 -0.00101247 -0.000574982 -5.70663e-05 0.000536529 0.00120106 0.00193652 0.00274292 0.00362025 0.00456851 0.00558771 0.00667784 0.00779641 0.00890093 0.00999141 0.0110678 0.0121302 0.0131785 0.0142128 0.015233 0.0161911 0.0170389 0.0177764 0.0184037 0.0189207 0.0193274 0.0196239 0.0198101 0.0198819 0.0198352 0.01967 0.0193863 0.018984 0.0184633 0.0178241 0.0170664 0.0162338 0.0153701 0.0144751 0.013549 0.0125917 0.0116032 0.0105835 0.00953258 0.00849553 0.00751734 0.006598 0.00573752 0.0049359 0.00419313 0.00350922 0.00288416 0.00232184 0.00182613 0.00139704 0.00103456 0.000738705 0.000509461 0.000346833 0.00025082 0.000192034 0.000141086 9.79765e-05 6.2705e-05 3.52715e-05 1.56762e-05 3.91906e-06 0 0 -6.97427e-06 -2.78971e-05 -6.27684e-05 -0.000111588 -0.000174357 -0.000251074 -0.000341739 -0.000446353 -0.000549441 -0.000635529 -0.000704617 -0.000756704 -0.00079179 -0.000809877 -0.000810963 -0.000795048 -0.000754585 -0.000682023 -0.000577363 -0.000440605 -0.000271748 -7.07932e-05 0.00016226 0.000427411 0.000703225 0.000968266 0.00122253 0.00146603 0.00169875 0.0019207 0.00213188 0.00233228 0.00250223 0.00262202 0.00269167 0.00271116 0.00268051 0.00259971 0.00246875 0.00228765 0.00206584 0.00181276 0.00152841 0.0012128 0.000865912 0.000487757 7.83335e-05 -0.000362359 -0.000797421 -0.00118995 -0.00153996 -0.00184743 -0.00211237 -0.00233478 -0.00251467 -0.00265202 -0.00271337 -0.00266526 -0.00250767 -0.00224061 -0.00186408 -0.00137808 -0.000782614 -7.76736e-05 0.000730276 0.00163477 0.00263582 0.00373342 0.00492756 0.00621825 0.00760549 0.00908928 0.0106118 0.0121152 0.0135994 0.0150645 0.0165106 0.0179374 0.0193452 0.0207338 0.0220379 0.0231918 0.0241957 0.0250495 0.0257531 0.0263067 0.0267103 0.0269637 0.0270614 0.0269979 0.026773 0.0263868 0.0258394 0.0251306 0.0242606 0.0232293 0.022096 0.0209204 0.0197022 0.0184417 0.0171387 0.0157932 0.0144053 0.0129749 0.0115634 0.0102319 0.00898062 0.00780941 0.00671831 0.00570731 0.00477643 0.00392566 0.00316028 0.00248557 0.00190153 0.00140816 0.00100546 0.000693433 0.000472078 0.000341394 0.00026138 0.000192034 0.000133357 8.53484e-05 4.80085e-05 2.13371e-05 5.33428e-06 0 0 -9.10925e-06 -3.6437e-05 -8.19832e-05 -0.000145748 -0.000227731 -0.000327933 -0.000446353 -0.000582992 -0.000717638 -0.000830079 -0.000920316 -0.000988348 -0.00103418 -0.0010578 -0.00105922 -0.00103843 -0.00098558 -0.000890805 -0.000754107 -0.000575483 -0.000354936 -9.24646e-05 0.000211931 0.000558251 0.000918498 0.00126467 0.00159678 0.00191481 0.00221878 0.00250867 0.0027845 0.00304625 0.00326822 0.00342468 0.00351565 0.00354111 0.00350107 0.00339553 0.00322449 0.00298795 0.00269824 0.00236769 0.0019963 0.00158406 0.00113099 0.000637071 0.000102313 -0.000473285 -0.00104153 -0.00155422 -0.00201137 -0.00241297 -0.00275902 -0.00304951 -0.00328446 -0.00346386 -0.003544 -0.00348115 -0.00327532 -0.00292651 -0.00243472 -0.00179995 -0.00102219 -0.000101451 0.00095383 0.00213522 0.00344271 0.0048763 0.006436 0.0081218 0.0099337 0.0118717 0.0138603 0.0158239 0.0177625 0.0196761 0.0215648 0.0234285 0.0252672 0.0270809 0.0287842 0.0302914 0.0316025 0.0327177 0.0336368 0.0343598 0.0348869 0.0352179 0.0353455 0.0352625 0.0349688 0.0344645 0.0337494 0.0328237 0.0316873 0.0303402 0.0288601 0.0273246 0.0257335 0.0240871 0.0223852 0.0206278 0.0188151 0.0169468 0.0151032 0.0133642 0.0117298 0.0102 0.00877493 0.00745445 0.00623861 0.00512739 0.00412771 0.00324645 0.00248363 0.00183923 0.00131325 0.000905708 0.000616591 0.000445902 0.000341394 0.00025082 0.00017418 0.000111475 6.2705e-05 2.78689e-05 6.96722e-06 0 0 -1.10726e-05 -4.42905e-05 -9.96537e-05 -0.000177162 -0.000276816 -0.000398615 -0.000542559 -0.000708648 -0.000871129 -0.00100425 -0.001108 -0.00118239 -0.00122742 -0.00124309 -0.00122939 -0.00118633 -0.00110192 -0.000964172 -0.000773092 -0.000528677 -0.000230928 0.000120157 0.000524577 0.000982332 0.00145745 0.00191394 0.00235183 0.00277109 0.00317174 0.00355377 0.00391719 0.00426199 0.00455525 0.00476406 0.0048884 0.00492829 0.00488372 0.00475469 0.00454121 0.00424326 0.00387673 0.00345747 0.00298549 0.00246079 0.00188336 0.00125321 0.000570337 -0.000165258 -0.000891885 -0.00154785 -0.00213315 -0.00264779 -0.00309177 -0.00346509 -0.00376775 -0.00399975 -0.00410528 -0.00402856 -0.00376959 -0.00332836 -0.00270487 -0.00189913 -0.000911134 0.00025912 0.00160082 0.00310318 0.00476618 0.00658982 0.00857412 0.0107191 0.0130246 0.0154909 0.0180215 0.0205203 0.0229873 0.0254225 0.0278258 0.0301973 0.0325369 0.0348447 0.0370118 0.0389294 0.0405973 0.0420156 0.0431843 0.0441035 0.044773 0.045193 0.0453539 0.0452462 0.04487 0.0442253 0.043312 0.0421302 0.0406799 0.038961 0.0370721 0.0351119 0.0330802 0.0309772 0.0288028 0.026557 0.0242397 0.0218511 0.019493 0.0172673 0.015174 0.0132132 0.0113847 0.00968862 0.00812496 0.0066937 0.00540433 0.00426632 0.00327966 0.00244436 0.00176042 0.00122784 0.000846616 0.00061675 0.000472199 0.000346922 0.000240918 0.000154187 8.67305e-05 3.85469e-05 9.63672e-06 0 0 -1.24081e-05 -4.96326e-05 -0.000111673 -0.00019853 -0.000310204 -0.000446693 -0.000607999 -0.000794121 -0.000972784 -0.00111171 -0.0012109 -0.00127035 -0.00129007 -0.00127005 -0.00121029 -0.0011108 -0.000958138 -0.00073887 -0.000452996 -0.000100518 0.000318566 0.000804255 0.00135655 0.00197545 0.00261504 0.00322942 0.00381857 0.00438251 0.00492123 0.00543473 0.00592302 0.00638608 0.00678225 0.00706984 0.00724885 0.00731928 0.00728113 0.00713441 0.0068791 0.00651521 0.00606306 0.00554297 0.00495492 0.00429893 0.00357498 0.00278309 0.00192325 0.000995465 7.78145e-05 -0.000751611 -0.00149281 -0.00214579 -0.00271054 -0.00318707 -0.00357538 -0.00387546 -0.00401713 -0.00393022 -0.00361473 -0.00307064 -0.00229797 -0.00129671 -6.68718e-05 0.00139156 0.00306489 0.00493945 0.00701524 0.00929225 0.0117705 0.0144499 0.0173306 0.0204125 0.0235751 0.0266978 0.0297805 0.0328233 0.0358263 0.0387893 0.0417124 0.0445956 0.0473028 0.0496976 0.0517803 0.0535506 0.0550087 0.0561545 0.0569881 0.0575094 0.0577061 0.0575661 0.0570893 0.0562756 0.0551252 0.053638 0.0518139 0.0496531 0.0472781 0.0448116 0.0422535 0.039604 0.0368629 0.0340304 0.0311063 0.0280907 0.025111 0.0222948 0.0196419 0.0171525 0.0148265 0.0126639 0.0106647 0.00882894 0.00717034 0.00570268 0.00442596 0.00334016 0.00244531 0.00174138 0.0012284 0.000906343 0.000693919 0.000509818 0.00035404 0.000226586 0.000127454 5.66464e-05 1.41616e-05 0 0 -1.31158e-05 -5.24632e-05 -0.000118042 -0.000209853 -0.000327895 -0.000472169 -0.000642674 -0.000839411 -0.0010226 -0.00115247 -0.00122901 -0.00125223 -0.00122212 -0.00113869 -0.00100193 -0.000811853 -0.000554243 -0.000214898 0.000206181 0.000708995 0.00129354 0.00195983 0.00270785 0.0035376 0.00439128 0.00521109 0.00599702 0.00674907 0.00746725 0.00815156 0.00880198 0.00941854 0.00994922 0.010342 0.010597 0.0107141 0.0106933 0.0105347 0.0102382 0.00980381 0.00925725 0.00862418 0.00790459 0.00709848 0.00620586 0.00522672 0.00416106 0.00300888 0.00186757 0.00083449 -9.03516e-05 -0.000906956 -0.00161532 -0.00221545 -0.00270735 -0.003091 -0.00327955 -0.00318613 -0.00281073 -0.00215336 -0.00121401 7.30444e-06 0.0015106 0.00329586 0.00534603 0.00764404 0.0101899 0.0129836 0.0160251 0.0193144 0.0228516 0.0266367 0.030521 0.0343561 0.0381421 0.0418788 0.0455663 0.0492046 0.0527938 0.0563337 0.059657 0.0625962 0.0651515 0.0673227 0.0691098 0.0705129 0.071532 0.072167 0.0724023 0.0722222 0.0716265 0.0706155 0.0691889 0.0673469 0.0650895 0.0624166 0.059478 0.0564236 0.0532535 0.0499675 0.0465657 0.0430481 0.0394146 0.0356654 0.0319571 0.0284464 0.0251334 0.022018 0.0191003 0.0163803 0.0138579 0.0115331 0.00942575 0.00755555 0.00592251 0.00452663 0.0033679 0.00244634 0.00176193 0.00131468 0.00100655 0.000739508 0.000513547 0.00032867 0.000184877 8.21676e-05 2.05419e-05 0 0 -1.31956e-05 -5.27824e-05 -0.00011876 -0.000211129 -0.00032989 -0.000475041 -0.000646584 -0.000844518 -0.00102058 -0.00112652 -0.00116233 -0.00112802 -0.00102357 -0.000849004 -0.000604307 -0.000289482 0.000109769 0.000607743 0.00120444 0.00189986 0.00269401 0.00358688 0.00457847 0.00566879 0.00678617 0.00785896 0.00888717 0.00987078 0.0108098 0.0117042 0.0125541 0.0133593 0.0140561 0.0145806 0.0149328 0.0151127 0.0151202 0.0149555 0.0146184 0.014109 0.0134593 0.0127011 0.0118345 0.0108595 0.00977599 0.00858409 0.00728376 0.005875 0.00447738 0.00321045 0.00207423 0.00106871 0.000193888 -0.000550233 -0.00116365 -0.00164637 -0.00189254 -0.00179628 -0.0013576 -0.000576512 0.000546998 0.00201293 0.00382127 0.00597204 0.00844425 0.0112169 0.0142901 0.0176638 0.0213379 0.0253126 0.0295877 0.0341633 0.0388592 0.0434955 0.048072 0.0525888 0.0570459 0.0614433 0.0657809 0.0700588 0.0740745 0.0776251 0.0807109 0.0833318 0.0854877 0.0871787 0.0884048 0.089166 0.0894425 0.0892144 0.0884818 0.0872448 0.0855032 0.0832571 0.0805065 0.0772514 0.0736719 0.0699481 0.06608 0.0620676 0.057911 0.0536101 0.0491649 0.0445754 0.0400313 0.0357224 0.0316485 0.0278098 0.0242062 0.0208378 0.0177044 0.0148062 0.0121705 0.00982492 0.00776932 0.00600375 0.00452821 0.0033427 0.00244722 0.00184176 0.0014101 0.00103599 0.000719439 0.000460441 0.000258998 0.00011511 2.87776e-05 0 0 -1.26475e-05 -5.05901e-05 -0.000113828 -0.00020236 -0.000316188 -0.000455311 -0.000619729 -0.000809441 -0.000966729 -0.00103387 -0.00101087 -0.000897724 -0.000694432 -0.000400996 -1.74146e-05 0.000456312 0.0010339 0.00172905 0.00254178 0.00347208 0.00451996 0.0056854 0.00696842 0.00836901 0.0097997 0.011173 0.012489 0.0137476 0.0149489 0.0160928 0.0171793 0.0182085 0.019103 0.0197857 0.0202563 0.0205151 0.0205619 0.0203969 0.0200198 0.0194309 0.0186692 0.0177738 0.0167446 0.0155818 0.0142854 0.0128552 0.0112913 0.00959381 0.00790724 0.00637628 0.00500094 0.00378121 0.00271709 0.00180859 0.0010557 0.000458422 0.000143913 0.000239323 0.000744652 0.0016599 0.00298507 0.00472015 0.00686515 0.00942007 0.0123595 0.0156582 0.019316 0.0233329 0.027709 0.0324443 0.0375387 0.0429923 0.0485898 0.0541158 0.0595703 0.0649534 0.070265 0.0755052 0.0806739 0.0857711 0.0905552 0.0947843 0.0984586 0.101578 0.104142 0.106152 0.107607 0.108506 0.108826 0.108543 0.107655 0.106164 0.104068 0.101368 0.098065 0.0941575 0.0898597 0.0853849 0.0807331 0.0759045 0.0708989 0.0657164 0.0603569 0.0548205 0.0493336 0.0441225 0.0391873 0.0345278 0.0301442 0.0260364 0.0222044 0.0186482 0.0154047 0.0125108 0.00996639 0.00777154 0.00592624 0.00443048 0.00328426 0.00248759 0.00190456 0.00139927 0.000971716 0.000621898 0.000349818 0.000155475 3.88686e-05 0 0 -1.14716e-05 -4.58863e-05 -0.000103244 -0.000183545 -0.00028679 -0.000412977 -0.000562108 -0.000734182 -0.000861038 -0.000874518 -0.00077462 -0.000561345 -0.000234693 0.000205337 0.000758743 0.00142553 0.00221814 0.00314903 0.0042182 0.00542566 0.00677139 0.0082554 0.00987769 0.0116383 0.0134319 0.0151533 0.0168026 0.0183796 0.0198845 0.0213172 0.0226777 0.023966 0.0250899 0.0259571 0.0265676 0.0269213 0.0270184 0.0268588 0.0264425 0.0257694 0.0248869 0.0238421 0.022635 0.0212657 0.019734 0.0180401 0.0161838 0.0141653 0.0121572 0.010332 0.00868976 0.00723053 0.00595428 0.00486101 0.00395071 0.00322339 0.0028298 0.00292068 0.00349604 0.00455587 0.00610019 0.00812898 0.0106422 0.01364 0.0170919 0.0209677 0.0252674 0.0299909 0.0351383 0.0407096 0.0467048 0.0531239 0.0597127 0.066217 0.072637 0.0789725 0.0852237 0.0913904 0.0974727 0.103471 0.109099 0.114074 0.118395 0.122061 0.125074 0.127432 0.129137 0.130188 0.130554 0.130207 0.129146 0.127372 0.124883 0.121681 0.117765 0.113135 0.108041 0.102734 0.0972129 0.091478 0.0855293 0.0793669 0.0729908 0.0664009 0.0598641 0.053647 0.0477496 0.042172 0.0369142 0.0319761 0.0273577 0.0230591 0.0191283 0.0156132 0.0125137 0.00982999 0.00756197 0.00570966 0.00427306 0.00325217 0.00248994 0.00182934 0.00127038 0.000813041 0.000457336 0.00020326 5.08151e-05 0 0 -9.66779e-06 -3.86712e-05 -8.70101e-05 -0.000154685 -0.000241695 -0.00034804 -0.000473722 -0.000618738 -0.000703511 -0.000648459 -0.000453582 -0.000118882 0.000355644 0.000969993 0.00172417 0.00261817 0.0036625 0.00486768 0.00623371 0.00776059 0.00944831 0.0112969 0.0133063 0.0154766 0.0176827 0.0197998 0.0218278 0.0237668 0.0256167 0.0273775 0.0290492 0.0306319 0.0320167 0.0330949 0.0338665 0.0343314 0.0344896 0.0343413 0.0338862 0.0331246 0.0321125 0.0309062 0.0295056 0.0279109 0.0261219 0.0241387 0.0219612 0.0195895 0.0172271 0.0150775 0.0131407 0.0114167 0.00990546 0.00860702 0.00752138 0.00664852 0.00616511 0.00624779 0.00689656 0.00811141 0.00989236 0.0122394 0.0151525 0.0186318 0.0226413 0.0271455 0.0321444 0.0376378 0.0436259 0.0501086 0.057086 0.0645579 0.0722279 0.0797993 0.0872721 0.0946463 0.101922 0.109099 0.116177 0.123157 0.129706 0.135494 0.140519 0.144781 0.148282 0.15102 0.152997 0.154211 0.154626 0.154208 0.152956 0.15087 0.147949 0.144195 0.139606 0.134184 0.128217 0.121996 0.115519 0.108788 0.101802 0.0945618 0.0870666 0.0793166 0.0716226 0.0642957 0.0573356 0.0507424 0.0445162 0.0386569 0.0331645 0.028039 0.0233413 0.019132 0.0154113 0.0121791 0.00943543 0.00718026 0.00541361 0.00413548 0.00316623 0.00232621 0.00161542 0.00103387 0.000581552 0.000258468 6.46169e-05 0 0 -7.23613e-06 -2.89445e-05 -6.51251e-05 -0.000115778 -0.000180903 -0.000260501 -0.00035457 -0.000463112 -0.000494147 -0.000355695 -4.77577e-05 0.000429666 0.00107658 0.00189297 0.00287886 0.00403423 0.00536698 0.006885 0.0085883 0.0104769 0.0125507 0.0148098 0.0172542 0.0198839 0.0225522 0.0251125 0.0275648 0.0299091 0.0321453 0.0342736 0.0362939 0.0382061 0.0398835 0.0411991 0.042153 0.0427452 0.0429756 0.0428443 0.0423512 0.0414964 0.0403459 0.038966 0.0373565 0.0355175 0.033449 0.031151 0.0286235 0.0258664 0.0231172 0.0206129 0.0183538 0.0163397 0.0145706 0.0130466 0.0117677 0.0107338 0.0101499 0.0102207 0.0109462 0.0123265 0.0143616 0.0170514 0.020396 0.0243954 0.0290078 0.0341917 0.039947 0.0462736 0.0531717 0.0606412 0.0686821 0.0772944 0.0861355 0.0948625 0.103476 0.111975 0.12036 0.128631 0.136788 0.144831 0.152377 0.159044 0.164831 0.169739 0.173767 0.176916 0.179185 0.180575 0.181042 0.180545 0.179083 0.176657 0.173266 0.16891 0.163589 0.157304 0.150387 0.143169 0.135652 0.127835 0.119718 0.111301 0.102584 0.0935674 0.0846093 0.0760686 0.0679452 0.0602391 0.0529503 0.0460788 0.0396246 0.0335878 0.0280436 0.0230674 0.0186592 0.0148189 0.0115466 0.00884227 0.00670592 0.00513755 0.00393343 0.00288987 0.00200685 0.00128439 0.000722467 0.000321097 8.02742e-05 0 0 -3.52473e-06 -1.40989e-05 -3.17225e-05 -5.63956e-05 -8.81182e-05 -0.00012689 -0.000172712 -0.000225583 -0.000180206 6.87157e-05 0.000521182 0.00117719 0.00203675 0.00309985 0.00436649 0.00583668 0.00751437 0.00940352 0.0115041 0.0138162 0.0163397 0.0190746 0.022021 0.0251789 0.0283776 0.0314466 0.0343858 0.0371953 0.039875 0.042425 0.0448452 0.0471357 0.0491498 0.0507409 0.051909 0.0526541 0.0529762 0.0528753 0.0523515 0.0514046 0.0501116 0.0485495 0.0467181 0.0446175 0.0422478 0.0396088 0.0367006 0.0335232 0.0303505 0.0274562 0.0248405 0.0225032 0.0204445 0.0186642 0.0171625 0.0159392 0.0152297 0.0152689 0.016057 0.017594 0.0198798 0.0229144 0.0266979 0.0312303 0.0364634 0.0423492 0.0488876 0.0560787 0.0639225 0.072419 0.0815681 0.0913699 0.101433 0.111366 0.121169 0.130841 0.140384 0.149796 0.159078 0.16823 0.176815 0.184399 0.19098 0.19656 0.201137 0.204712 0.207285 0.208855 0.209374 0.20879 0.207105 0.204317 0.200428 0.195436 0.189343 0.182148 0.174227 0.165956 0.157337 0.148368 0.13905 0.129383 0.119367 0.109001 0.0986956 0.0888587 0.0794907 0.0705915 0.0621612 0.0541998 0.0467073 0.0396836 0.0332209 0.027411 0.0222541 0.0177501 0.013899 0.0107009 0.00815567 0.00626337 0.00479539 0.00352314 0.00244663 0.00156584 0.000880786 0.000391461 9.78651e-05 0 0 2.11829e-06 8.47314e-06 1.90646e-05 3.38926e-05 5.29572e-05 7.62583e-05 0.000103796 0.00013557 0.000291054 0.000689718 0.00133156 0.00221659 0.0033448 0.00471619 0.00633076 0.00818851 0.0102875 0.0126258 0.0152033 0.0180201 0.0210763 0.0243717 0.0279064 0.0316803 0.0354964 0.0391574 0.0426634 0.0460143 0.0492102 0.052251 0.0551368 0.0578675 0.060275 0.0621911 0.0636158 0.0645492 0.0649912 0.0649418 0.0644011 0.063369 0.061934 0.0601846 0.0581209 0.0557429 0.0530505 0.0500437 0.0467226 0.0430871 0.0394503 0.0361254 0.0331124 0.0304111 0.0280218 0.0259442 0.0241785 0.0227247 0.0218501 0.0218222 0.0226411 0.0243066 0.0268188 0.0301778 0.0343834 0.0394358 0.0452799 0.0518609 0.0591788 0.0672335 0.076025 0.0855534 0.0958186 0.106821 0.118118 0.129268 0.140272 0.15113 0.16184 0.172404 0.182822 0.193092 0.202727 0.211234 0.218616 0.224871 0.23 0.234002 0.236878 0.238627 0.239193 0.238515 0.236596 0.233435 0.229031 0.223385 0.216496 0.208366 0.199413 0.190057 0.180299 0.170138 0.159574 0.148607 0.137238 0.125466 0.113753 0.102559 0.0918844 0.0817294 0.072094 0.062978 0.0543816 0.0463046 0.0388586 0.0321547 0.0261931 0.0209736 0.0164964 0.0127614 0.00976856 0.00751796 0.00575594 0.00422885 0.0029367 0.00187949 0.00105721 0.000469873 0.000117468 0 0 9.69291e-06 3.87716e-05 8.72362e-05 0.000155087 0.000242323 0.000348945 0.000474953 0.000620346 0.000919631 0.00150731 0.00238339 0.00354786 0.00500073 0.00674199 0.00877165 0.0110897 0.0136863 0.0165517 0.0196859 0.0230888 0.0267605 0.0307009 0.0349101 0.0393881 0.0439085 0.0482449 0.0523975 0.0563661 0.0601509 0.0637517 0.0671686 0.0704016 0.0732591 0.0755498 0.0772737 0.0784306 0.0790207 0.0790438 0.0785001 0.0773895 0.075813 0.0738715 0.071565 0.0688936 0.0658571 0.0624557 0.0586894 0.054558 0.0504167 0.0466205 0.0431694 0.0400634 0.0373024 0.0348866 0.0328158 0.0310902 0.0300112 0.0298806 0.0306983 0.0324644 0.0351787 0.0388415 0.0434525 0.0490119 0.0554575 0.062727 0.0708204 0.0797378 0.0894792 0.100045 0.111434 0.123647 0.13619 0.14857 0.160787 0.17284 0.18473 0.196456 0.208019 0.219419 0.23011 0.23955 0.247737 0.254672 0.260355 0.264786 0.267965 0.269891 0.270499 0.269721 0.267558 0.264009 0.259075 0.252755 0.24505 0.235959 0.225946 0.215472 0.204538 0.193143 0.181288 0.168973 0.156198 0.142962 0.129781 0.117169 0.105126 0.0936527 0.0827484 0.0724133 0.0626474 0.0534508 0.0449567 0.0372984 0.030476 0.0244894 0.0193386 0.0150237 0.0115446 0.00890133 0.00681508 0.005007 0.00347708 0.00222533 0.00125175 0.000556333 0.000139083 0 0 1.91992e-05 7.67966e-05 0.000172792 0.000307186 0.000479979 0.000691169 0.000940758 0.00122875 0.00170553 0.0025215 0.00367665 0.005171 0.00700454 0.00917726 0.0116892 0.0145403 0.0177109 0.0211814 0.0249519 0.0290222 0.0333923 0.0380624 0.0430324 0.0483022 0.0536138 0.0587091 0.0635881 0.0682507 0.072697 0.076927 0.0809406 0.0847379 0.0881023 0.0908171 0.0928825 0.0942983 0.0950645 0.0951813 0.0946485 0.0934663 0.0917487 0.08961 0.0870504 0.0840696 0.0806678 0.0768449 0.072601 0.067936 0.0632496 0.0589415 0.0550116 0.0514599 0.0482865 0.0454913 0.0430744 0.0410357 0.039713 0.039444 0.0402288 0.0420673 0.0449595 0.0489055 0.0539052 0.0599587 0.066996 0.0749473 0.0838126 0.0935919 0.104285 0.115892 0.128413 0.141849 0.15565 0.169272 0.182713 0.195973 0.209053 0.221952 0.23467 0.247209 0.258967 0.269345 0.278344 0.285964 0.292204 0.297064 0.300545 0.302647 0.303293 0.302407 0.299989 0.29604 0.29056 0.283547 0.275003 0.264927 0.253825 0.2422 0.230053 0.217385 0.204194 0.190481 0.176246 0.161489 0.14678 0.132689 0.119216 0.106361 0.0941246 0.0825057 0.0715049 0.0611221 0.0515152 0.0428421 0.0351028 0.0282974 0.0224257 0.0174878 0.0134837 0.0104135 0.00797281 0.00585757 0.00406776 0.00260337 0.00146439 0.000650842 0.00016271 0 0 3.0637e-05 0.000122548 0.000275733 0.000490192 0.000765925 0.00110293 0.00150121 0.00196077 0.00264874 0.00373227 0.00521136 0.00708601 0.00935623 0.012022 0.0150833 0.0185402 0.0223612 0.0265149 0.0310012 0.0358202 0.0409718 0.0464561 0.0522731 0.0584227 0.0646125 0.07055 0.0762352 0.0816681 0.0868487 0.0917769 0.0964529 0.100877 0.104804 0.107993 0.110442 0.112152 0.113123 0.113354 0.112846 0.111599 0.109741 0.1074 0.104577 0.101271 0.0974824 0.0932112 0.0884575 0.0832211 0.0779491 0.0730883 0.0686389 0.0646008 0.0609739 0.0577584 0.0549541 0.0525612 0.0509554 0.0505124 0.0512324 0.0531153 0.0561612 0.0603699 0.0657415 0.0722761 0.0798956 0.088522 0.0981553 0.108796 0.120443 0.133097 0.146758 0.161426 0.176498 0.191372 0.206049 0.220527 0.234808 0.248891 0.262775 0.276462 0.289296 0.300621 0.310437 0.318745 0.325545 0.330837 0.33462 0.336894 0.337574 0.336573 0.333891 0.329529 0.323485 0.315761 0.306356 0.29527 0.28305 0.270242 0.256846 0.242862 0.22829 0.21313 0.197383 0.181047 0.16475 0.14912 0.134155 0.119856 0.106223 0.0932553 0.080954 0.0693186 0.0585342 0.0487859 0.0400737 0.0323976 0.0257576 0.0201538 0.015586 0.0120544 0.00922913 0.00678059 0.00470874 0.00301359 0.00169515 0.000753399 0.00018835 0 0 4.40065e-05 0.000176026 0.000396058 0.000704103 0.00110016 0.00158423 0.00215632 0.00281641 0.00374927 0.00513964 0.00698751 0.0092929 0.0120558 0.0152762 0.0189541 0.0230895 0.0276372 0.032552 0.0378339 0.0434829 0.0494989 0.0558821 0.0626323 0.0697496 0.0769045 0.0837676 0.0903388 0.0966182 0.102606 0.108302 0.113705 0.118817 0.123365 0.127077 0.129953 0.131992 0.133196 0.133563 0.133094 0.131788 0.12979 0.127242 0.124145 0.120498 0.116301 0.111555 0.106259 0.100413 0.0945151 0.0890611 0.0840514 0.079486 0.0753648 0.0716879 0.0684552 0.0