<?xml version="1.0"?> 
<VTKFile type="StructuredGrid" version="0.1"> 
<StructuredGrid WholeExtent="0 128 0 128 0 0"> 
<Piece Extent="0 128 0 128 0 0"> 
<PointData>
<DataArray type="Float32" Name="u" format="ascii" NumberOfComponents="1"> 
0 0 0 0 0 0 0 0 0 0 0 0 0 0 0 0 0 0 0 0 0 0 0 0 0 0 0 0 0 0 0 0 0 0 0 0 0 0 0 0 0 0 0 0 0 0 0 0 0 0 0 0 0 0 0 0 0 0 0 0 0 0 0 0 0 0 0 0 0 0 0 0 0 0 0 0 0 0 0 0 0 0 0 0 0 0 0 0 0 0 0 0 0 0 0 0 0 0 0 0 0 0 0 0 0 0 0 0 0 0 0 0 0 0 0 0 0 0 0 0 0 0 0 0 0 0 0 0 0 0 -2.66456e-08 -1.06582e-07 -2.3981e-07 -4.26329e-07 -6.66139e-07 -9.5924e-07 -1.30563e-06 -1.70532e-06 -2.04676e-06 -2.21845e-06 -2.22037e-06 -2.05252e-06 -1.71492e-06 -1.20755e-06 -5.30413e-07 3.16485e-07 1.82038e-06 4.46851e-06 8.26087e-06 1.31975e-05 1.92783e-05 2.65033e-05 3.48726e-05 4.43861e-05 5.3884e-05 6.22063e-05 6.9353e-05 7.53241e-05 8.01197e-05 8.37397e-05 8.61841e-05 8.74529e-05 8.81041e-05 8.86953e-05 8.92267e-05 8.96982e-05 9.01098e-05 9.04615e-05 9.07534e-05 9.09853e-05 9.10949e-05 9.10196e-05 9.07593e-05 9.03141e-05 8.9684e-05 8.8869e-05 8.78691e-05 8.66843e-05 8.49408e-05 8.2265e-05 7.86567e-05 7.41162e-05 6.86432e-05 6.22378e-05 5.49001e-05 4.663e-05 3.83108e-05 3.08256e-05 2.41745e-05 1.83574e-05 1.33744e-05 9.22552e-06 5.91066e-06 3.42986e-06 -2.1743e-07 -7.03175e-06 -1.70131e-05 -3.01615e-05 -4.64769e-05 -6.59594e-05 -8.86089e-05 -0.000114425 -0.000140176 -0.000162629 -0.000181783 -0.000197639 -0.000210197 -0.000219456 -0.000225417 -0.000228079 -0.000229026 -0.00022984 -0.00023052 -0.000231067 -0.00023148 -0.000231761 -0.000231908 -0.000231921 -0.000231821 -0.000231625 -0.000231334 -0.000230948 -0.000230466 -0.00022989 -0.000229218 -0.000228451 -0.000225946 -0.00022006 -0.000210794 -0.000198147 -0.000182119 -0.000162711 -0.000139922 -0.000113753 -8.75511e-05 -6.46652e-05 -4.50953e-05 -2.88414e-05 -1.59034e-05 -6.28138e-06 2.46858e-08 3.01479e-06 4.19846e-06 5.08527e-06 5.67519e-06 5.96823e-06 5.9644e-06 5.66369e-06 5.0661e-06 4.17163e-06 3.1939e-06 2.34654e-06 1.62954e-06 1.04291e-06 5.86635e-07 2.60727e-07 6.51817e-08 0 0 -1.06582e-07 -4.26329e-07 -9.5924e-07 -1.70532e-06 -2.66456e-06 -3.83696e-06 -5.22253e-06 -6.82127e-06 -8.18705e-06 -8.87379e-06 -8.88147e-06 -8.2101e-06 -6.85967e-06 -4.83019e-06 -2.12165e-06 1.26594e-06 7.28152e-06 1.7874e-05 3.30435e-05 5.27898e-05 7.71131e-05 0.000106013 0.00013949 0.000177545 0.000215536 0.000248825 0.000277412 0.000301296 0.000320479 0.000334959 0.000344736 0.000349812 0.000352416 0.000354781 0.000356907 0.000358793 0.000360439 0.000361846 0.000363013 0.000363941 0.00036438 0.000364078 0.000363037 0.000361257 0.000358736 0.000355476 0.000351476 0.000346737 0.000339763 0.00032906 0.000314627 0.000296465 0.000274573 0.000248951 0.0002196 0.00018652 0.000153243 0.000123302 9.6698e-05 7.34297e-05 5.34978e-05 3.69021e-05 2.36426e-05 1.37194e-05 -8.6972e-07 -2.8127e-05 -6.80524e-05 -0.000120646 -0.000185908 -0.000263838 -0.000354435 -0.000457702 -0.000560705 -0.000650515 -0.000727132 -0.000790556 -0.000840786 -0.000877824 -0.000901667 -0.000912318 -0.000916105 -0.000919359 -0.00092208 -0.000924268 -0.000925922 -0.000927043 -0.000927631 -0.000927685 -0.000927283 -0.000926499 -0.000925335 -0.00092379 -0.000921865 -0.000919558 -0.000916871 -0.000913803 -0.000903783 -0.000880241 -0.000843176 -0.000792588 -0.000728478 -0.000650845 -0.00055969 -0.000455012 -0.000350204 -0.000258661 -0.000180381 -0.000115366 -6.36136e-05 -2.51255e-05 9.87431e-08 1.20591e-05 1.67939e-05 2.03411e-05 2.27008e-05 2.38729e-05 2.38576e-05 2.26547e-05 2.02644e-05 1.66865e-05 1.27756e-05 9.38617e-06 6.51817e-06 4.17163e-06 2.34654e-06 1.04291e-06 2.60727e-07 0 0 -2.3981e-07 -9.5924e-07 -2.15829e-06 -3.83696e-06 -5.99525e-06 -8.63316e-06 -1.17507e-05 -1.53478e-05 -1.84209e-05 -1.9966e-05 -1.99833e-05 -1.84727e-05 -1.54343e-05 -1.08679e-05 -4.77371e-06 2.84837e-06 1.63834e-05 4.02166e-05 7.43478e-05 0.000118777 0.000173504 0.00023853 0.000313854 0.000399475 0.000484956 0.000559856 0.000624177 0.000677917 0.000721077 0.000753657 0.000775657 0.000787076 0.000792937 0.000798258 0.00080304 0.000807284 0.000810988 0.000814154 0.00081678 0.000818868 0.000819854 0.000819176 0.000816834 0.000812827 0.000807156 0.000799821 0.000790822 0.000780159 0.000764467 0.000740385 0.000707911 0.000667045 0.000617789 0.000560141 0.000494101 0.00041967 0.000344797 0.00027743 0.00021757 0.000165217 0.00012037 8.30297e-05 5.31959e-05 3.08687e-05 -1.95687e-06 -6.32858e-05 -0.000153118 -0.000271453 -0.000418292 -0.000593634 -0.00079748 -0.00102983 -0.00126159 -0.00146366 -0.00163605 -0.00177875 -0.00189177 -0.0019751 -0.00202875 -0.00205272 -0.00206124 -0.00206856 -0.00207468 -0.0020796 -0.00208332 -0.00208585 -0.00208717 -0.00208729 -0.00208639 -0.00208462 -0.002082 -0.00207853 -0.0020742 -0.00206901 -0.00206296 -0.00205606 -0.00203351 -0.00198054 -0.00189715 -0.00178332 -0.00163908 -0.0014644 -0.0012593 -0.00102378 -0.00078796 -0.000581987 -0.000405858 -0.000259572 -0.000143131 -5.65324e-05 2.22172e-07 2.71331e-05 3.77862e-05 4.57674e-05 5.10767e-05 5.37141e-05 5.36796e-05 5.09732e-05 4.55949e-05 3.75447e-05 2.87451e-05 2.11189e-05 1.46659e-05 9.38617e-06 5.27972e-06 2.34654e-06 5.86635e-07 0 0 -4.26329e-07 -1.70532e-06 -3.83696e-06 -6.82127e-06 -1.06582e-05 -1.53478e-05 -2.08901e-05 -2.72851e-05 -3.27482e-05 -3.54952e-05 -3.55259e-05 -3.28404e-05 -2.74387e-05 -1.93207e-05 -8.4866e-06 5.06376e-06 2.91261e-05 7.14961e-05 0.000132174 0.000211159 0.000308452 0.000424053 0.000557962 0.000710178 0.000862144 0.0009953 0.00110965 0.00120519 0.00128191 0.00133983 0.00137895 0.00139925 0.00140966 0.00141912 0.00142763 0.00143517 0.00144176 0.00144738 0.00145205 0.00145577 0.00145752 0.00145631 0.00145215 0.00144503 0.00143494 0.0014219 0.00140591 0.00138695 0.00135905 0.00131624 0.00125851 0.00118586 0.00109829 0.000995805 0.000878402 0.000746081 0.000612973 0.00049321 0.000386792 0.000293719 0.000213991 0.000147608 9.45705e-05 5.48777e-05 -3.47888e-06 -0.000112508 -0.00027221 -0.000482584 -0.000743631 -0.00105535 -0.00141774 -0.00183081 -0.00224282 -0.00260206 -0.00290853 -0.00316222 -0.00336315 -0.00351129 -0.00360667 -0.00364927 -0.00366442 -0.00367744 -0.00368832 -0.00369707 -0.00370369 -0.00370817 -0.00371052 -0.00371074 -0.00370913 -0.003706 -0.00370134 -0.00369516 -0.00368746 -0.00367823 -0.00366748 -0.00365521 -0.00361513 -0.00352096 -0.0033727 -0.00317035 -0.00291391 -0.00260338 -0.00223876 -0.00182005 -0.00140082 -0.00103464 -0.000721525 -0.000461462 -0.000254454 -0.000100502 3.94972e-07 4.82366e-05 6.71754e-05 8.13642e-05 9.0803e-05 9.54917e-05 9.54304e-05 9.0619e-05 8.10576e-05 6.67461e-05 5.11025e-05 3.75447e-05 2.60727e-05 1.66865e-05 9.38617e-06 4.17163e-06 1.04291e-06 0 0 -6.66139e-07 -2.66456e-06 -5.99525e-06 -1.06582e-05 -1.66535e-05 -2.3981e-05 -3.26408e-05 -4.26329e-05 -5.11691e-05 -5.54612e-05 -5.55092e-05 -5.13131e-05 -4.28729e-05 -3.01887e-05 -1.32603e-05 7.91213e-06 4.55095e-05 0.000111713 0.000206522 0.000329936 0.000481957 0.000662583 0.000871815 0.00110965 0.0013471 0.00155516 0.00173382 0.0018831 0.00200299 0.00209349 0.0021546 0.00218632 0.0022026 0.00221738 0.00223067 0.00224245 0.00225274 0.00226154 0.00226883 0.00227463 0.00227737 0.00227549 0.00226898 0.00225785 0.0022421 0.00222173 0.00219673 0.00216711 0.00212352 0.00205662 0.00196642 0.0018529 0.00171608 0.00155595 0.0013725 0.00116575 0.00095777 0.00077064 0.000604362 0.000458936 0.000334361 0.000230638 0.000147766 8.57464e-05 -5.43575e-06 -0.000175794 -0.000425328 -0.000754037 -0.00116192 -0.00164898 -0.00221522 -0.00286063 -0.00350441 -0.00406572 -0.00454458 -0.00494098 -0.00525492 -0.0054864 -0.00563542 -0.00570199 -0.00572566 -0.005746 -0.005763 -0.00577667 -0.00578701 -0.00579402 -0.00579769 -0.00579803 -0.00579552 -0.00579062 -0.00578335 -0.00577369 -0.00576165 -0.00574724 -0.00573044 -0.00571127 -0.00564864 -0.0055015 -0.00526985 -0.00495368 -0.00455299 -0.00406778 -0.00349806 -0.00284382 -0.00218878 -0.00161663 -0.00112738 -0.000721035 -0.000397585 -0.000157034 6.17144e-07 7.53696e-05 0.000104962 0.000127132 0.00014188 0.000149206 0.00014911 0.000141592 0.000126652 0.000104291 7.98476e-05 5.86635e-05 4.07386e-05 2.60727e-05 1.46659e-05 6.51817e-06 1.62954e-06 0 0 -9.5924e-07 -3.83696e-06 -8.63316e-06 -1.53478e-05 -2.3981e-05 -3.45327e-05 -4.70028e-05 -6.13914e-05 -7.36835e-05 -7.98641e-05 -7.99332e-05 -7.38909e-05 -6.1737e-05 -4.34717e-05 -1.90949e-05 1.13935e-05 6.55337e-05 0.000160866 0.000297391 0.000475108 0.000694018 0.00095412 0.00125541 0.0015979 0.00193982 0.00223943 0.00249671 0.00271167 0.00288431 0.00301463 0.00310263 0.00314831 0.00317175 0.00319303 0.00321216 0.00322913 0.00324395 0.00325661 0.00326712 0.00327547 0.00327942 0.0032767 0.00326733 0.00325131 0.00322863 0.00319929 0.00316329 0.00312063 0.00305787 0.00296154 0.00283164 0.00266818 0.00247115 0.00224056 0.0019764 0.00167868 0.00137919 0.00110972 0.000870282 0.000660868 0.00048148 0.000332119 0.000212784 0.000123475 -7.82748e-06 -0.000253143 -0.000612472 -0.00108581 -0.00167317 -0.00237454 -0.00318992 -0.00411931 -0.00504635 -0.00585464 -0.00654419 -0.007115 -0.00756708 -0.00790041 -0.00811501 -0.00821086 -0.00824495 -0.00827423 -0.00829872 -0.00831841 -0.0083333 -0.00834339 -0.00834868 -0.00834917 -0.00834555 -0.0083385 -0.00832802 -0.00831411 -0.00829678 -0.00827602 -0.00825184 -0.00822423 -0.00813405 -0.00792217 -0.00758858 -0.00713329 -0.0065563 -0.00585761 -0.00503721 -0.00409511 -0.00315184 -0.00232795 -0.00162343 -0.00103829 -0.000572522 -0.00022613 8.88688e-07 0.000108532 0.000151145 0.00018307 0.000204307 0.000214856 0.000214718 0.000203893 0.00018238 0.000150179 0.000114981 8.44755e-05 5.86635e-05 3.75447e-05 2.11189e-05 9.38617e-06 2.34654e-06 0 0 -1.30563e-06 -5.22253e-06 -1.17507e-05 -2.08901e-05 -3.26408e-05 -4.70028e-05 -6.3976e-05 -8.35605e-05 -0.000100291 -0.000108704 -0.000108798 -0.000100574 -8.40309e-05 -5.91698e-05 -2.59902e-05 1.55078e-05 8.91986e-05 0.000218957 0.000404782 0.000646675 0.000944636 0.00129866 0.00170876 0.00217492 0.00264031 0.00304811 0.00339829 0.00369088 0.00392586 0.00410324 0.00422302 0.00428519 0.0043171 0.00434607 0.00437211 0.00439521 0.00441538 0.00443261 0.00444691 0.00445828 0.00446365 0.00445996 0.00444721 0.00442539 0.00439452 0.00435458 0.00430559 0.00424753 0.0041621 0.00403098 0.00385418 0.00363169 0.00336352 0.00304965 0.00269011 0.00228487 0.00187723 0.00151045 0.00118455 0.000899514 0.000655348 0.00045205 0.000289622 0.000168063 -1.06541e-05 -0.000344556 -0.000833642 -0.00147791 -0.00227737 -0.00323201 -0.00434183 -0.00560684 -0.00686864 -0.00796881 -0.00890737 -0.00968431 -0.0102996 -0.0107533 -0.0110454 -0.0111759 -0.0112223 -0.0112622 -0.0112955 -0.0113223 -0.0113425 -0.0113563 -0.0113635 -0.0113641 -0.0113592 -0.0113496 -0.0113354 -0.0113164 -0.0112928 -0.0112646 -0.0112317 -0.0111941 -0.0110713 -0.0107829 -0.0103289 -0.0097092 -0.00892385 -0.00797285 -0.0068562 -0.00557389 -0.00429 -0.0031686 -0.00220967 -0.00141323 -0.000779267 -0.000307787 1.2096e-06 0.000147724 0.000205725 0.000249178 0.000278084 0.000292443 0.000292256 0.000277521 0.000248239 0.00020441 0.000156501 0.000114981 7.98476e-05 5.11025e-05 2.87451e-05 1.27756e-05 3.1939e-06 0 0 -1.70532e-06 -6.82127e-06 -1.53478e-05 -2.72851e-05 -4.26329e-05 -6.13914e-05 -8.35605e-05 -0.00010914 -0.000130993 -0.000141981 -0.000142104 -0.000131362 -0.000109755 -7.7283e-05 -3.39464e-05 2.0255e-05 0.000116504 0.000285984 0.000528695 0.000844637 0.00123381 0.00169621 0.00223185 0.00284071 0.00344857 0.0039812 0.00443859 0.00482074 0.00512766 0.00535934 0.00551578 0.00559699 0.00563866 0.0056765 0.00571051 0.00574068 0.00576703 0.00578954 0.00580821 0.00582306 0.00583007 0.00582525 0.0058086 0.0057801 0.00573978 0.00568762 0.00562362 0.00554779 0.00543621 0.00526496 0.00503403 0.00474343 0.00439316 0.00398322 0.00351361 0.00298432 0.00245189 0.00197284 0.00154717 0.00117488 0.000855965 0.000590433 0.000378282 0.000219511 -1.39155e-05 -0.000450032 -0.00108884 -0.00193034 -0.00297452 -0.0042214 -0.00567097 -0.00732323 -0.00897128 -0.0104082 -0.0116341 -0.0126489 -0.0134526 -0.0140452 -0.0144267 -0.0145971 -0.0146577 -0.0147097 -0.0147533 -0.0147883 -0.0148148 -0.0148327 -0.0148421 -0.014843 -0.0148365 -0.014824 -0.0148054 -0.0147806 -0.0147498 -0.0147129 -0.0146699 -0.0146208 -0.0144605 -0.0140839 -0.0134908 -0.0126814 -0.0116556 -0.0104135 -0.00895504 -0.00728019 -0.00560327 -0.00413858 -0.0028861 -0.00184585 -0.00101782 -0.000402008 1.57989e-06 0.000192946 0.000268702 0.000325457 0.000363212 0.000381967 0.000381722 0.000362476 0.00032423 0.000266984 0.00020441 0.000150179 0.000104291 6.67461e-05 3.75447e-05 1.66865e-05 4.17163e-06 0 0 -2.0184e-06 -8.0736e-06 -1.81656e-05 -3.22944e-05 -5.046e-05 -7.26624e-05 -9.89015e-05 -0.000129178 -0.000154991 -0.000167845 -0.000167737 -0.000154668 -0.000128639 -8.96491e-05 -3.76981e-05 2.72136e-05 0.000141743 0.000342545 0.000629621 0.00100297 0.00146259 0.00200849 0.00264066 0.0033591 0.00407636 0.00470497 0.00524494 0.00569627 0.00605895 0.00633298 0.00651838 0.00661512 0.00666523 0.00671071 0.00675157 0.00678779 0.00681938 0.00684634 0.00686867 0.00688638 0.00689467 0.00688879 0.00686873 0.00683448 0.00678606 0.00672345 0.00664666 0.00655569 0.00642269 0.0062198 0.00594702 0.00560436 0.00519181 0.00470937 0.00415704 0.00353482 0.00290812 0.00234235 0.0018375 0.00139357 0.00101056 0.00068848 0.000427321 0.000227086 -6.16503e-05 -0.00058831 -0.00135289 -0.0023554 -0.00359583 -0.00507419 -0.00679047 -0.00874468 -0.0106938 -0.0123949 -0.013848 -0.0150531 -0.0160101 -0.0167191 -0.0171801 -0.017393 -0.0174761 -0.0175476 -0.0176075 -0.0176557 -0.0176924 -0.0177174 -0.0177309 -0.0177327 -0.0177243 -0.0177072 -0.0176814 -0.0176468 -0.0176035 -0.0175514 -0.0174905 -0.017421 -0.0172199 -0.0167646 -0.0160551 -0.0150913 -0.0138733 -0.012401 -0.0106745 -0.00869372 -0.00671047 -0.00497648 -0.00349174 -0.00225625 -0.00127002 -0.000533041 -4.53135e-05 0.000193161 0.000294826 0.000372126 0.000425062 0.000453634 0.000457841 0.000437684 0.000393162 0.000324275 0.000248273 0.000182405 0.00012667 8.10688e-05 4.56012e-05 2.02672e-05 5.0668e-06 0 0 -2.10499e-06 -8.41995e-06 -1.89449e-05 -3.36798e-05 -5.26247e-05 -7.57796e-05 -0.000103144 -0.000134719 -0.000161491 -0.000174446 -0.000173586 -0.000158909 -0.000130415 -8.81058e-05 -3.19801e-05 3.79618e-05 0.000159205 0.000369234 0.00066805 0.00105565 0.00153204 0.00209721 0.00275117 0.00349392 0.00423543 0.0048857 0.00544471 0.00591248 0.00628899 0.00657426 0.00676827 0.00687104 0.00692563 0.00697511 0.00701949 0.00705876 0.00709292 0.00712199 0.00714594 0.00716479 0.00717344 0.00716678 0.00714482 0.00710756 0.007055 0.00698713 0.00690397 0.0068055 0.00666403 0.00645186 0.00616899 0.00581542 0.00539115 0.00489619 0.00433052 0.00369416 0.00305087 0.00246445 0.0019349 0.0014622 0.00104637 0.000687403 0.000385297 0.000140055 -0.000197897 -0.000778129 -0.00160064 -0.00266544 -0.00397251 -0.00552186 -0.0073135 -0.00934742 -0.0113758 -0.0131509 -0.0146727 -0.0159412 -0.0169564 -0.0177183 -0.0182268 -0.0184821 -0.0186024 -0.0187062 -0.0187933 -0.0188639 -0.0189179 -0.0189553 -0.0189761 -0.0189803 -0.0189695 -0.0189449 -0.0189067 -0.0188549 -0.0187894 -0.0187102 -0.0186174 -0.0185109 -0.0182678 -0.017765 -0.0170024 -0.0159802 -0.0146982 -0.0131566 -0.0113553 -0.00929422 -0.00723045 -0.00542091 -0.00386561 -0.00256455 -0.00151772 -0.000725135 -0.000186784 9.73302e-05 0.000238847 0.000349406 0.000429008 0.000477652 0.000495339 0.000482069 0.000437841 0.000362656 0.000277658 0.000203994 0.000141662 9.06639e-05 5.09985e-05 2.2666e-05 5.6665e-06 0 0 -1.96508e-06 -7.86033e-06 -1.76858e-05 -3.14413e-05 -4.91271e-05 -7.0743e-05 -9.62891e-05 -0.000125765 -0.000150491 -0.000161786 -0.000159649 -0.000144082 -0.000115083 -7.26533e-05 -1.67923e-05 5.24997e-05 0.000168892 0.000366052 0.000643982 0.00100268 0.00144215 0.00196238 0.00256339 0.00324516 0.00392579 0.00452337 0.00503789 0.00546937 0.00581779 0.00608315 0.00626547 0.00636473 0.00641984 0.00646968 0.00651427 0.0065536 0.00658766 0.00661647 0.00664002 0.00665831 0.00666637 0.00665923 0.00663689 0.00659935 0.00654661 0.00647867 0.00639554 0.0062972 0.00616021 0.00596112 0.00569992 0.00537661 0.0049912 0.00454368 0.00403406 0.00346233 0.00288014 0.00233916 0.00183937 0.00138078 0.000963392 0.000587202 0.000252211 -4.1582e-05 -0.000422655 -0.00101949 -0.00183208 -0.00286043 -0.00410455 -0.00556442 -0.00724005 -0.00913144 -0.0110173 -0.0126762 -0.0141082 -0.0153132 -0.0162914 -0.0170427 -0.017567 -0.0178645 -0.0180368 -0.0181856 -0.0183109 -0.0184128 -0.0184913 -0.0185463 -0.0185779 -0.018586 -0.0185719 -0.0185371 -0.0184814 -0.0184049 -0.0183076 -0.0181895 -0.0180505 -0.0178908 -0.0176042 -0.0170849 -0.0163329 -0.0153481 -0.0141306 -0.0126804 -0.0109974 -0.00908169 -0.00716319 -0.00547186 -0.00400771 -0.00277073 -0.00176092 -0.00097829 -0.00042283 -9.45446e-05 0.000100765 0.000257296 0.000375048 0.000454021 0.000494216 0.000495631 0.000458268 0.000382126 0.000292565 0.000214946 0.000149268 9.55315e-05 5.37365e-05 2.38829e-05 5.97072e-06 0 0 -1.59869e-06 -6.39474e-06 -1.43882e-05 -2.5579e-05 -3.99671e-05 -5.75527e-05 -7.83356e-05 -0.000102316 -0.000121992 -0.000129863 -0.000125928 -0.000110188 -8.26425e-05 -4.32914e-05 7.86516e-06 7.08272e-05 0.000170803 0.000332999 0.000557417 0.000844056 0.00119292 0.001604 0.0020773 0.00261283 0.00314743 0.00361799 0.00402449 0.00436694 0.00464533 0.00485968 0.00500997 0.0050962 0.00514786 0.00519443 0.00523591 0.0052723 0.00530359 0.00532979 0.0053509 0.00536692 0.00537346 0.00536612 0.00534491 0.00530984 0.00526089 0.00519807 0.00512137 0.00503081 0.00491126 0.00474759 0.00453982 0.00428794 0.00399195 0.00365186 0.00326765 0.00283933 0.00239593 0.00196646 0.00155092 0.0011493 0.000761626 0.000387878 2.8061e-05 -0.000317824 -0.000735925 -0.00131239 -0.00204721 -0.0029404 -0.00399195 -0.00520186 -0.00657013 -0.00809676 -0.00961815 -0.0109707 -0.0121544 -0.0131692 -0.0140152 -0.0146924 -0.0152007 -0.0155401 -0.015779 -0.0159857 -0.0161602 -0.0163025 -0.0164126 -0.0164904 -0.0165361 -0.0165495 -0.0165317 -0.0164837 -0.0164054 -0.0162969 -0.0161582 -0.0159892 -0.0157899 -0.0155604 -0.0152291 -0.0147245 -0.0140465 -0.0131951 -0.0121704 -0.0109723 -0.00960091 -0.00805613 -0.0065087 -0.00512934 -0.00391804 -0.0028748 -0.00199962 -0.00129251 -0.000753454 -0.000382464 -0.00011942 9.57962e-05 0.000263183 0.000382741 0.000454471 0.000478371 0.000454443 0.000382686 0.000292994 0.000215261 0.000149487 9.56714e-05 5.38152e-05 2.39179e-05 5.97946e-06 0 0 -1.00579e-06 -4.02318e-06 -9.05215e-06 -1.60927e-05 -2.51449e-05 -3.62086e-05 -4.9284e-05 -6.43709e-05 -7.5994e-05 -7.86778e-05 -7.24223e-05 -5.72275e-05 -3.30935e-05 -2.0176e-08 4.19924e-05 9.29443e-05 0.000164938 0.000270075 0.000408356 0.000579781 0.000784349 0.00102206 0.00129292 0.00159692 0.00190036 0.00216956 0.0024045 0.00260519 0.00277164 0.00290382 0.00300176 0.00306545 0.00310971 0.00314937 0.00318442 0.00321487 0.00324072 0.00326196 0.0032786 0.00329064 0.00329471 0.00328747 0.00326891 0.00323903 0.00319783 0.00314531 0.00308148 0.00300632 0.00291715 0.00281128 0.0026887 0.00254941 0.00239341 0.00222071 0.0020313 0.00182518 0.00159824 0.00134635 0.00106953 0.000767772 0.000441071 8.94298e-05 -0.000287151 -0.000688672 -0.00113771 -0.00165683 -0.00224603 -0.00290533 -0.00363471 -0.00443417 -0.00530373 -0.00624337 -0.00717849 -0.00803449 -0.00881137 -0.00950913 -0.0101278 -0.0106673 -0.0111277 -0.011509 -0.0118292 -0.0121067 -0.0123412 -0.0125329 -0.0126817 -0.0127877 -0.0128508 -0.012871 -0.0128489 -0.0127848 -0.0126788 -0.0125309 -0.012341 -0.0121092 -0.0118355 -0.0115199 -0.0111425 -0.0106836 -0.0101432 -0.00952114 -0.00881757 -0.00803244 -0.00716577 -0.00621754 -0.00526699 -0.00439334 -0.0035966 -0.00287675 -0.00223382 -0.00166778 -0.00117865 -0.000766428 -0.000421707 -0.000135093 9.3413e-05 0.000263812 0.000376104 0.000430288 0.000426365 0.000364335 0.000278944 0.000204939 0.000142318 9.10838e-05 5.12346e-05 2.2771e-05 5.69274e-06 0 0 -1.86411e-07 -7.45643e-07 -1.6777e-06 -2.98257e-06 -4.66027e-06 -6.71078e-06 -9.13412e-06 -1.19303e-05 -1.24966e-05 -8.2303e-06 8.68524e-07 1.47999e-05 3.35639e-05 5.71604e-05 8.55894e-05 0.000118851 0.000151297 0.000177279 0.000196798 0.000209853 0.000216444 0.000216571 0.000210234 0.000197434 0.000184578 0.000178076 0.000177927 0.00018413 0.000196687 0.000215598 0.000240861 0.000272477 0.000305374 0.000334478 0.000359789 0.000381307 0.000399032 0.000412965 0.000423104 0.000429451 0.000430131 0.000423269 0.000408867 0.000386923 0.000357437 0.000320411 0.000275843 0.000223734 0.000177903 0.000152172 0.000146539 0.000161005 0.00019557 0.000250234 0.000324996 0.000419858 0.000487061 0.00047885 0.000395224 0.000236184 1.72839e-06 -0.000308142 -0.000693427 -0.00115413 -0.001628 -0.00205281 -0.00242855 -0.00275522 -0.00303283 -0.00326137 -0.00344085 -0.00357126 -0.00369827 -0.00386756 -0.00407912 -0.00433296 -0.00462907 -0.00496746 -0.00534812 -0.00577106 -0.00618742 -0.00654838 -0.00685393 -0.00710406 -0.00729879 -0.00743811 -0.00752201 -0.00755051 -0.00752337 -0.00744037 -0.0073015 -0.00710677 -0.00685618 -0.00654973 -0.00618742 -0.00576924 -0.00534447 -0.00496237 -0.00462295 -0.00432619 -0.00407212 -0.00386071 -0.00369198 -0.00356592 -0.00343804 -0.00326386 -0.00304338 -0.0027766 -0.00246351 -0.00210412 -0.00169843 -0.00124644 -0.000806097 -0.000435373 -0.000134262 9.72339e-05 0.000259116 0.000351383 0.000374036 0.000327074 0.000250416 0.000183979 0.000127763 8.17686e-05 4.59948e-05 2.04422e-05 5.11054e-06 0 0 8.59467e-07 3.43787e-06 7.7352e-06 1.37515e-05 2.14867e-05 3.09408e-05 4.21139e-05 5.50059e-05 6.85e-05 8.14794e-05 9.39442e-05 0.000105894 0.00011733 0.00012825 0.000138656 0.000148547 0.000129881 5.46126e-05 -7.72569e-05 -0.000265728 -0.0005108 -0.000812473 -0.00117075 -0.00158562 -0.00199992 -0.00235646 -0.00265523 -0.00289625 -0.00307951 -0.003205 -0.00327274 -0.00328272 -0.00326514 -0.00325023 -0.00323798 -0.00322839 -0.00322146 -0.00321719 -0.00321558 -0.00321663 -0.00322029 -0.00322648 -0.00323521 -0.00324648 -0.00326029 -0.00327664 -0.00329552 -0.00331695 -0.00330649 -0.00322973 -0.00308665 -0.00287726 -0.00260157 -0.00225956 -0.00185125 -0.00137663 -0.000937595 -0.000636057 -0.000472012 -0.000445461 -0.000556402 -0.000804837 -0.00119076 -0.00171419 -0.00220681 -0.00250033 -0.00259475 -0.00249009 -0.00218632 -0.00168346 -0.000981498 -8.04429e-05 0.000822492 0.00153009 0.00204235 0.00235928 0.00248086 0.00240712 0.00213803 0.00167361 0.00114644 0.000689125 0.000301659 -1.59575e-05 -0.000263724 -0.00044164 -0.000549707 -0.000587923 -0.000555186 -0.000450391 -0.000273539 -2.46295e-05 0.000296338 0.000689363 0.00115444 0.00169158 0.00216509 0.00243928 0.00251416 0.00238971 0.00206594 0.00154286 0.000820458 -0.000101263 -0.00102187 -0.00174091 -0.0022584 -0.00257433 -0.00268871 -0.00260152 -0.00231279 -0.00182249 -0.00127259 -0.000805042 -0.000419842 -0.000116993 0.000103506 0.000241655 0.000297454 0.000270903 0.00020741 0.000152383 0.000105822 6.77258e-05 3.80958e-05 1.69315e-05 4.23286e-06 0 0 2.13184e-06 8.52735e-06 1.91865e-05 3.41094e-05 5.3296e-05 7.67462e-05 0.00010446 0.000136438 0.000166996 0.000190451 0.000206805 0.000216055 0.000218204 0.000213249 0.000201193 0.000182033 0.000100688 -9.79254e-05 -0.000413808 -0.00084696 -0.00139738 -0.00206507 -0.00285003 -0.00375226 -0.00465313 -0.00543404 -0.00609498 -0.00663595 -0.00705695 -0.00735798 -0.00753904 -0.00760013 -0.00760184 -0.00760476 -0.00760889 -0.00761422 -0.00762076 -0.0076285 -0.00763746 -0.00764762 -0.00765654 -0.00766177 -0.00766332 -0.00766118 -0.00765535 -0.00764583 -0.00763263 -0.00761573 -0.00753603 -0.00733441 -0.00701087 -0.0065654 -0.005998 -0.00530868 -0.00449744 -0.00356427 -0.00267573 -0.00199837 -0.00153218 -0.00127716 -0.00123332 -0.00140066 -0.00177917 -0.00236885 -0.00287412 -0.00299939 -0.00274465 -0.00210991 -0.00109517 0.000299579 0.00207433 0.00422909 0.00638381 0.00815847 0.00955306 0.0105676 0.011202 0.0114564 0.0113308 0.010825 0.0101723 0.00960585 0.00912554 0.00873141 0.00842346 0.00820169 0.00806611 0.00801671 0.00805566 0.00818512 0.00840508 0.00871556 0.00911655 0.00960805 0.0101901 0.0108626 0.0113862 0.0115213 0.0112682 0.0106266 0.00959662 0.00817827 0.00637154 0.00417642 0.00198154 0.000175518 -0.00124165 -0.00226995 -0.0029094 -0.00315999 -0.00302172 -0.00249459 -0.00182119 -0.0012441 -0.000763328 -0.00037887 -9.07257e-05 0.000101104 0.00019662 0.000195822 0.000149926 0.00011015 7.64928e-05 4.89554e-05 2.75374e-05 1.22389e-05 3.05971e-06 0 0 3.35204e-06 1.34082e-05 3.01684e-05 5.36326e-05 8.3801e-05 0.000120673 0.00016425 0.000214531 0.000260781 0.000292268 0.000308991 0.000310949 0.000298144 0.000270575 0.000228242 0.000171144 2.32058e-05 -0.000291652 -0.000773428 -0.00142212 -0.00223774 -0.00322027 -0.00436972 -0.00568609 -0.0070003 -0.00814325 -0.00911495 -0.0099154 -0.0105446 -0.0110025 -0.0112892 -0.0114047 -0.0114341 -0.0114627 -0.0114906 -0.0115176 -0.0115439 -0.0115694 -0.011594 -0.0116179 -0.0116348 -0.0116384 -0.0116287 -0.0116058 -0.0115695 -0.01152 -0.0114572 -0.0113811 -0.0112181 -0.0108945 -0.0104103 -0.0097655 -0.0089601 -0.00799411 -0.00686751 -0.00558032 -0.00434216 -0.00336264 -0.00264176 -0.00217953 -0.00197595 -0.00203101 -0.00234471 -0.00291706 -0.00329471 -0.00302428 -0.00210579 -0.000539226 0.0016754 0.0045381 0.00804886 0.0122077 0.0163633 0.0198643 0.0227107 0.0249026 0.0264399 0.0273226 0.0275508 0.0271244 0.0264173 0.0258033 0.0252824 0.0248547 0.0245201 0.0242786 0.0241302 0.024075 0.0241159 0.024256 0.0244952 0.0248336 0.0252711 0.0258078 0.0264436 0.0271786 0.0276299 0.0274146 0.0265328 0.0249843 0.0227693 0.0198877 0.0163395 0.0121247 0.00790844 0.00435574 0.00146663 -0.000758906 -0.00232086 -0.00321925 -0.00345405 -0.00302527 -0.00231238 -0.00169482 -0.00117259 -0.000745706 -0.000414153 -0.000177936 -3.70554e-05 8.49001e-06 6.50017e-06 4.77563e-06 3.31641e-06 2.1225e-06 1.19391e-06 5.30626e-07 1.32656e-07 0 0 4.24141e-06 1.69656e-05 3.81727e-05 6.78626e-05 0.000106035 0.000152691 0.000207829 0.00027145 0.000327647 0.000360511 0.000370042 0.000356242 0.000319109 0.000258643 0.000174846 6.77158e-05 -0.000143082 -0.000537883 -0.00111669 -0.0018795 -0.00282631 -0.00395712 -0.00527194 -0.00677076 -0.00826664 -0.00957265 -0.0106888 -0.011615 -0.0123514 -0.0128979 -0.0132545 -0.0134212 -0.0134913 -0.0135577 -0.0136207 -0.01368 -0.0137359 -0.0137881 -0.0138369 -0.0138821 -0.0139113 -0.0139122 -0.0138847 -0.0138288 -0.0137446 -0.0136319 -0.013491 -0.0133216 -0.0130601 -0.0126426 -0.0120691 -0.0113397 -0.0104542 -0.00941282 -0.00821541 -0.00686202 -0.00555168 -0.00448343 -0.00365726 -0.00307319 -0.0027312 -0.0026313 -0.00277349 -0.00315777 -0.00313331 -0.00204929 9.43034e-05 0.00329746 0.00756017 0.0128825 0.0192643 0.0267057 0.0341384 0.0404942 0.045773 0.0499749 0.0530998 0.0551478 0.0561189 0.0560129 0.0554083 0.054883 0.0544371 0.0540706 0.0537835 0.0535758 0.0534475 0.0533986 0.0534323 0.053552 0.0537576 0.0540492 0.0544266 0.0548901 0.0554394 0.0560747 0.0562076 0.0552499 0.0532017 0.0500628 0.0458333 0.0405132 0.0341025 0.0266012 0.0190951 0.0126701 0.00732618 0.00306335 -0.000118387 -0.00221904 -0.00323861 -0.00317709 -0.00260666 -0.00209947 -0.00165552 -0.00127481 -0.000957352 -0.000703135 -0.000512161 -0.000384431 -0.00029433 -0.000216243 -0.000150169 -9.61079e-05 -5.40607e-05 -2.4027e-05 -6.00674e-06 0 0 4.79995e-06 1.91998e-05 4.31996e-05 7.67992e-05 0.000119999 0.000172798 0.000235198 0.000307197 0.000367592 0.00039518 0.00038996 0.000351933 0.000281098 0.000177455 4.10052e-05 -0.000128253 -0.000398175 -0.00083662 -0.00144359 -0.00221908 -0.00316309 -0.00427562 -0.00555668 -0.00700626 -0.00845217 -0.00972224 -0.0108165 -0.0117348 -0.0124773 -0.013044 -0.0134348 -0.0136498 -0.0137733 -0.0138898 -0.0139991 -0.0141014 -0.0141967 -0.0142848 -0.0143659 -0.01444 -0.014486 -0.014483 -0.0144311 -0.0143303 -0.0141805 -0.0139817 -0.013734 -0.0134373 -0.0130621 -0.0125788 -0.0119874 -0.011288 -0.0104804 -0.00956482 -0.00854112 -0.00740935 -0.00630429 -0.00536074 -0.00457868 -0.00395813 -0.00349909 -0.00320154 -0.0030655 -0.00309097 -0.00238994 -7.44081e-05 0.00385561 0.00940013 0.0165591 0.0253327 0.0357207 0.0477232 0.0597093 0.0700482 0.07874 0.0857845 0.0911819 0.094932 0.0970349 0.0974906 0.0971453 0.0968449 0.0965895 0.0963791 0.0962137 0.0960933 0.0960178 0.0959874 0.0960049 0.0960732 0.0961924 0.0963624 0.0965832 0.0968549 0.0971774 0.0975507 0.0971192 0.0950273 0.0912749 0.085862 0.0787887 0.0700548 0.0596605 0.0476058 0.0355415 0.0251185 0.016337 0.00919683 0.00369804 -0.000159372 -0.0023754 -0.00295005 -0.00270403 -0.00245804 -0.0022121 -0.00196619 -0.00172032 -0.00147449 -0.0012287 -0.000982943 -0.000752566 -0.000552905 -0.000383962 -0.000245736 -0.000138226 -6.14339e-05 -1.53585e-05 0 0 5.02766e-06 2.01106e-05 4.52489e-05 8.04425e-05 0.000125691 0.000180996 0.000246355 0.00032177 0.000380618 0.000396276 0.000368744 0.000298023 0.000184111 2.70105e-05 -0.00017328 -0.00041676 -0.000742074 -0.00118786 -0.00175413 -0.00244087 -0.00324808 -0.00417578 -0.00522394 -0.00639259 -0.00755689 -0.00859202 -0.009498 -0.0102748 -0.0109225 -0.0114409 -0.0118303 -0.0120904 -0.0122803 -0.0124589 -0.012626 -0.0127819 -0.0129264 -0.0130595 -0.0131812 -0.0132917 -0.0133589 -0.013351 -0.0132682 -0.0131102 -0.0128773 -0.0125692 -0.0121862 -0.011728 -0.0112239 -0.0107029 -0.0101651 -0.0096103 -0.00903865 -0.0084501 -0.00784466 -0.00722233 -0.0066 -0.00599456 -0.00540602 -0.00483436 -0.0042796 -0.00374173 -0.00322075 -0.00271666 -0.00106458 0.00290035 0.00917815 0.0177688 0.0286723 0.0418887 0.0574179 0.07526 0.0930759 0.108526 0.121612 0.132331 0.140686 0.146675 0.150299 0.151558 0.151628 0.151689 0.15174 0.15178 0.151811 0.151831 0.151841 0.151841 0.151834 0.15182 0.151799 0.151773 0.151741 0.151702 0.151658 0.151607 0.150365 0.146747 0.140752 0.132382 0.121635 0.108513 0.0930137 0.0751386 0.0572476 0.0417011 0.0284991 0.0176415 0.00912841 0.00295976 -0.000864419 -0.00234414 -0.00260448 -0.00277055 -0.00284234 -0.00281984 -0.00270306 -0.