<?xml version="1.0"?> 
<VTKFile type="StructuredGrid" version="0.1"> 
<StructuredGrid WholeExtent="0 64 0 64 0 0"> 
<Piece Extent="0 64 0 64 0 0"> 
<PointData>
<DataArray type="Float32" Name="u" format="ascii" NumberOfComponents="1"> 
0.619262 0.533554 0.447845 0.362136 0.276428 0.277081 0.277735 0.278389 0.279042 0.273371 0.2677 0.262028 0.256357 0.243626 0.230895 0.218164 0.205433 0.267954 0.330476 0.392997 0.455519 0.490515 0.525511 0.560507 0.595503 0.605642 0.615782 0.625921 0.63606 0.607198 0.578337 0.549475 0.520613 0.457024 0.393435 0.329846 0.266256 0.344984 0.423712 0.50244 0.581167 0.505101 0.429035 0.352969 0.276903 0.278079 0.279254 0.28043 0.281605 0.276227 0.270848 0.26547 0.260091 0.26664 0.273188 0.279737 0.286286 0.290197 0.294108 0.298018 0.301929 0.306282 0.310635 0.314988 0.319341 0.562481 0.498175 0.433869 0.369563 0.305258 0.302018 0.298779 0.29554 0.2923 0.289309 0.286318 0.283327 0.280336 0.294965 0.309595 0.324224 0.338854 0.378603 0.418352 0.458101 0.49785 0.518543 0.539237 0.55993 0.580624 0.574242 0.56786 0.561479 0.555097 0.534489 0.51388 0.493272 0.472664 0.419895 0.367126 0.314356 0.261587 0.352146 0.442705 0.533264 0.623823 0.558968 0.494113 0.429259 0.364404 0.359676 0.354948 0.35022 0.345492 0.332252 0.319012 0.305772 0.292532 0.291902 0.291271 0.290641 0.290011 0.310119 0.330227 0.350334 0.370442 0.387524 0.404606 0.421688 0.43877 0.505699 0.462796 0.419893 0.376991 0.334088 0.326955 0.319823 0.312691 0.305558 0.305247 0.304936 0.304625 0.304314 0.346304 0.388294 0.430285 0.472275 0.489251 0.506228 0.523205 0.540181 0.546572 0.552963 0.559354 0.565744 0.542842 0.519939 0.497037 0.474134 0.461779 0.449424 0.437069 0.424714 0.382765 0.340816 0.298867 0.256918 0.359308 0.461698 0.564088 0.666478 0.612835 0.559191 0.505548 0.451905 0.441273 0.430642 0.42001 0.409379 0.388278 0.367176 0.346075 0.324973 0.317164 0.309355 0.301545 0.293736 0.330041 0.366346 0.40265 0.438955 0.468766 0.498577 0.528388 0.558199 0.448917 0.427418 0.405918 0.384418 0.362918 0.351892 0.340867 0.329842 0.318816 0.321185 0.323554 0.325923 0.328292 0.397643 0.466994 0.536345 0.605696 0.5999 0.594104 0.588308 0.582513 0.574601 0.566689 0.558777 0.550865 0.511442 0.472018 0.432595 0.393171 0.38907 0.384968 0.380866 0.376764 0.345636 0.314507 0.283378 0.25225 0.366471 0.480692 0.594913 0.709134 0.666701 0.624269 0.581837 0.539405 0.52287 0.506336 0.489801 0.473266 0.444303 0.41534 0.386377 0.357414 0.342426 0.327438 0.312449 0.297461 0.349963 0.402465 0.454966 0.507468 0.550008 0.592547 0.635087 0.677627 0.392136 0.392039 0.391942 0.391845 0.391748 0.37683 0.361911 0.346993 0.332075 0.337123 0.342172 0.347221 0.35227 0.448982 0.545694 0.642405 0.739117 0.710549 0.68198 0.653412 0.624844 0.602629 0.580415 0.5582 0.535986 0.480041 0.424097 0.368153 0.312208 0.31636 0.320511 0.324663 0.328815 0.308506 0.288198 0.267889 0.247581 0.373633 0.499685 0.625737 0.751789 0.720568 0.689347 0.658127 0.626906 0.604468 0.582029 0.559591 0.537153 0.500328 0.463504 0.426679 0.389855 0.367688 0.345521 0.323353 0.301186 0.369885 0.438583 0.507282 0.575981 0.631249 0.686518 0.741787 0.797056 0.369926 0.373168 0.37641 0.379652 0.382894 0.376936 0.370977 0.365019 0.35906 0.350689 0.342317 0.333946 0.325575 0.42109 0.516606 0.612121 0.707637 0.675598 0.643559 0.61152 0.579482 0.584685 0.589889 0.595092 0.600295 0.536464 0.472633 0.408802 0.344971 0.356316 0.36766 0.379004 0.390349 0.357553 0.324758 0.291962 0.259167 0.362254 0.465342 0.56843 0.671518 0.639808 0.608099 0.576389 0.544679 0.550338 0.555997 0.561656 0.567315 0.543953 0.520591 0.497229 0.473867 0.437643 0.401419 0.365195 0.32897 0.393097 0.457224 0.521351 0.585478 0.612213 0.638948 0.665683 0.692418 0.347717 0.354298 0.360879 0.36746 0.374041 0.377042 0.380043 0.383044 0.386046 0.364254 0.342462 0.320671 0.298879 0.393199 0.487518 0.581837 0.676156 0.640647 0.605138 0.569629 0.53412 0.566741 0.599362 0.631984 0.664605 0.592887 0.52117 0.449452 0.377734 0.396272 0.414809 0.433346 0.451883 0.4066 0.361318 0.316035 0.270753 0.350876 0.431 0.511123 0.591247 0.559048 0.52685 0.494651 0.462453 0.496209 0.529966 0.563722 0.597478 0.587578 0.577678 0.567778 0.557878 0.507598 0.457317 0.407036 0.356755 0.41631 0.475865 0.535419 0.594974 0.593176 0.591377 0.589579 0.587781 0.325508 0.335428 0.345347 0.355267 0.365187 0.377148 0.389109 0.40107 0.413031 0.377819 0.342608 0.307396 0.272184 0.365307 0.45843 0.551553 0.644676 0.605696 0.566717 0.527737 0.488757 0.548797 0.608836 0.668875 0.728915 0.64931 0.569706 0.490102 0.410497 0.436227 0.461957 0.487687 0.513417 0.455648 0.397878 0.340108 0.282339 0.339498 0.396657 0.453816 0.510976 0.478288 0.445601 0.412914 0.380227 0.44208 0.503934 0.565788 0.627641 0.631204 0.634766 0.638328 0.64189 0.577552 0.513215 0.448877 0.384539 0.439522 0.494505 0.549488 0.604471 0.574139 0.543807 0.513475 0.483143 0.303299 0.316557 0.329816 0.343075 0.356334 0.377254 0.398175 0.419096 0.440017 0.391385 0.342753 0.29412 0.245488 0.337415 0.429342 0.521269 0.613196 0.570746 0.528295 0.485845 0.443395 0.530853 0.61831 0.705767 0.793224 0.705733 0.618242 0.530751 0.443261 0.476183 0.509106 0.542029 0.574951 0.504695 0.434438 0.364181 0.293925 0.32812 0.362314 0.396509 0.430704 0.397528 0.364352 0.331176 0.298 0.387951 0.477902 0.567853 0.657804 0.674829 0.691853 0.708878 0.725902 0.647507 0.569113 0.490718 0.412323 0.462734 0.513146 0.563557 0.613968 0.555102 0.496237 0.437371 0.378506 0.357544 0.378891 0.400238 0.421586 0.442933 0.449764 0.456596 0.463427 0.470259 0.423911 0.377564 0.331216 0.284868 0.352453 0.420038 0.487623 0.555209 0.529149 0.503089 0.477029 0.450969 0.515434 0.579899 0.644364 0.708829 0.640836 0.572843 0.50485 0.436858 0.469035 0.501212 0.533389 0.565567 0.519813 0.47406 0.428307 0.382554 0.396214 0.409874 0.423533 0.437193 0.4125 0.387807 0.363114 0.33842 0.394414 0.450408 0.506402 0.562396 0.57138 0.580364 0.589348 0.598332 0.54955 0.500767 0.451985 0.403202 0.442029 0.480857 0.519684 0.558511 0.527066 0.49562 0.464175 0.432729 0.41179 0.441225 0.470661 0.500097 0.529532 0.522274 0.515017 0.507759 0.500501 0.456438 0.412375 0.368311 0.324248 0.367492 0.410735 0.453978 0.497221 0.487552 0.477882 0.468212 0.458542 0.500015 0.541488 0.582961 0.624433 0.575939 0.527444 0.478949 0.430455 0.461886 0.493318 0.52475 0.556182 0.534932 0.513683 0.492433 0.471183 0.464308 0.457433 0.450558 0.443682 0.427472 0.411261 0.395051 0.37884 0.400877 0.422914 0.444951 0.466987 0.467931 0.468875 0.469819 0.470762 0.451592 0.432422 0.413252 0.394081 0.421325 0.448568 0.475811 0.503054 0.499029 0.495004 0.490979 0.486953 0.466035 0.503559 0.541083 0.578608 0.616132 0.594785 0.573437 0.55209 0.530743 0.488964 0.447186 0.405407 0.363628 0.38253 0.401431 0.420333 0.439234 0.445955 0.452675 0.459396 0.466116 0.484596 0.503077 0.521557 0.540038 0.511041 0.482045 0.453048 0.424052 0.454738 0.485424 0.516111 0.546797 0.550051 0.553305 0.556559 0.559813 0.532402 0.504992 0.477582 0.450171 0.442444 0.434716 0.426988 0.41926 0.40734 0.39542 0.383499 0.371579 0.364482 0.357386 0.350289 0.343193 0.353634 0.364076 0.374518 0.38496 0.40062 0.416279 0.431938 0.447598 0.470993 0.494387 0.517782 0.541177 0.52028 0.565893 0.611506 0.657119 0.702731 0.667295 0.631858 0.596421 0.560985 0.521491 0.481997 0.442502 0.403008 0.397568 0.392128 0.386688 0.381247 0.404358 0.427468 0.450579 0.47369 0.469178 0.464666 0.460154 0.455642 0.446144 0.436645 0.427147 0.417649 0.44759 0.477531 0.507471 0.537412 0.56517 0.592927 0.620684 0.648442 0.600497 0.552551 0.504606 0.45666 0.457415 0.45817 0.458925 0.459681 0.413803 0.367925 0.322048 0.27617 0.261034 0.245897 0.23076 0.215623 0.255677 0.295731 0.335785 0.375839 0.379915 0.38399 0.388065 0.392141 0.442956 0.493771 0.544586 0.595401 0.584454 0.617918 0.651383 0.684847 0.718311 0.673719 0.629128 0.584536 0.539944 0.502138 0.464332 0.426525 0.388719 0.404355 0.41999 0.435626 0.451261 0.468422 0.485583 0.502744 0.519905 0.515817 0.51173 0.507642 0.503554 0.496545 0.489536 0.482527 0.475518 0.473949 0.472381 0.470812 0.469244 0.511746 0.554248 0.59675 0.639252 0.595069 0.550887 0.506705 0.462522 0.45363 0.444738 0.435846 0.426953 0.388264 0.349576 0.310887 0.272198 0.288157 0.304115 0.320074 0.336033 0.341646 0.347258 0.352871 0.358484 0.361098 0.363713 0.366327 0.368942 0.42602 0.483098 0.540177 0.597255 0.648628 0.669943 0.691259 0.712575 0.733891 0.680144 0.626397 0.57265 0.518904 0.482785 0.446667 0.410548 0.37443 0.411141 0.447852 0.484564 0.521275 0.532486 0.543698 0.554909 0.56612 0.562457 0.558794 0.55513 0.551467 0.546947 0.542426 0.537906 0.533386 0.500308 0.467231 0.434153 0.401075 0.458322 0.515568 0.572815 0.630061 0.589642 0.549223 0.508804 0.468385 0.449845 0.431305 0.412766 0.394226 0.362726 0.331226 0.299726 0.268226 0.31528 0.362334 0.409389 0.456443 0.427614 0.398786 0.369957 0.341128 0.342282 0.343436 0.344589 0.345743 0.409084 0.472426 0.535767 0.599109 0.712801 0.721969 0.731136 0.740304 0.749471 0.686569 0.623667 0.560765 0.497863 0.463432 0.429002 0.394571 0.36014 0.417927 0.475715 0.533502 0.591289 0.59655 0.601812 0.607074 0.612336 0.609097 0.605857 0.602618 0.599379 0.597348 0.595317 0.593286 0.591255 0.526668 0.462081 0.397494 0.332907 0.404898 0.476889 0.54888 0.620871 0.584215 0.547559 0.510903 0.474247 0.44606 0.417873 0.389686 0.361499 0.337187 0.312876 0.288565 0.264253 0.342403 0.420553 0.498703 0.576853 0.513583 0.450313 0.387043 0.323773 0.323465 0.323158 0.322851 0.322544 0.392149 0.461753 0.531358 0.600963 0.776975 0.773994 0.771013 0.768032 0.765051 0.692994 0.620937 0.54888 0.476822 0.44408 0.411337 0.378594 0.345851 0.424714 0.503577 0.58244 0.661302 0.660615 0.659927 0.659239 0.658551 0.655736 0.652921 0.650106 0.647291 0.647749 0.648207 0.648666 0.649124 0.553027 0.456931 0.360835 0.264738 0.351474 0.438209 0.524945 0.61168 0.578787 0.545895 0.513002 0.480109 0.442274 0.40444 0.366606 0.328772 0.311649 0.294526 0.277404 0.260281 0.369526 0.478772 0.588017 0.697263 0.599552 0.50184 0.404129 0.306417 0.304649 0.302881 0.301113 0.299345 0.375213 0.451081 0.526948 0.602816 0.76756 0.751142 0.734725 0.718307 0.70189 0.654845 0.6078 0.560756 0.513711 0.468473 0.423235 0.377997 0.332759 0.422036 0.511312 0.600588 0.689865 0.673808 0.657751 0.641694 0.625637 0.628757 0.631876 0.634995 0.638114 0.61423 0.590346 0.566462 0.542578 0.49961 0.456642 0.413675 0.370707 0.433476 0.496246 0.559015 0.621785 0.573443 0.525101 0.476759 0.428417 0.415291 0.402166 0.389041 0.375916 0.35557 0.335224 0.314878 0.294532 0.384776 0.47502 0.565264 0.655508 0.576668 0.497827 0.418986 0.340145 0.339424 0.338703 0.337982 0.337261 0.385355 0.433449 0.481543 0.529638 0.758145 0.728291 0.698437 0.668583 0.638728 0.616696 0.594664 0.572632 0.5506 0.492867 0.435134 0.377401 0.319668 0.419357 0.519047 0.618737 0.718427 0.687001 0.655576 0.62415 0.592724 0.601777 0.61083 0.619883 0.628936 0.58071 0.532484 0.484258 0.436031 0.446193 0.456354 0.466515 0.476676 0.515479 0.554283 0.593086 0.631889 0.568098 0.504307 0.440516 0.376724 0.388308 0.399892 0.411476 0.42306 0.399491 0.375922 0.352352 0.328783 0.400026 0.471268 0.542511 0.613754 0.553784 0.493813 0.433843 0.373873 0.374199 0.374525 0.374851 0.375177 0.395497 0.415818 0.436138 0.456459 0.748731 0.70544 0.662149 0.618858 0.575567 0.578548 0.581528 0.584509 0.587489 0.517261 0.447033 0.376804 0.306576 0.416679 0.526783 0.636886 0.74699 0.700195 0.6534 0.606605 0.55981 0.574797 0.589784 0.604772 0.619759 0.54719 0.474622 0.402054 0.329485 0.392775 0.456065 0.519355 0.582645 0.597482 0.612319 0.627157 0.641994 0.562753 0.483513 0.404273 0.325032 0.361325 0.397618 0.433912 0.470205 0.443412 0.416619 0.389827 0.363034 0.415275 0.467517 0.519758 0.571999 0.5309 0.4898 0.4487 0.407601 0.408974 0.410347 0.41172 0.413093 0.40564 0.398187 0.390733 0.38328 0.739316 0.682588 0.625861 0.569133 0.512406 0.540399 0.568392 0.596385 0.624378 0.541655 0.458931 0.376208 0.293484 0.414001 0.534518 0.655035 0.775552 0.713388 0.651224 0.589061 0.526897 0.547818 0.568739 0.58966 0.610581 0.513671 0.41676 0.31985 0.222939 0.339358 0.455776 0.572195 0.688614 0.679485 0.670356 0.661227 0.652098 0.557409 0.462719 0.368029 0.27334 0.334342 0.395344 0.456347 0.517349 0.487333 0.457317 0.427301 0.397285 0.430525 0.463765 0.497005 0.530245 0.508016 0.485787 0.463558 0.441329 0.443749 0.446169 0.448589 0.451009 0.415782 0.380555 0.345329 0.310102 0.643116 0.591748 0.54038 0.489012 0.437644 0.492653 0.547662 0.602671 0.65768 0.585469 0.513258 0.441048 0.368837 0.469731 0.570624 0.671518 0.772412 0.696818 0.621224 0.54563 0.470035 0.514264 0.558492 0.60272 0.646949 0.569503 0.492057 0.414612 0.337166 0.416296 0.495426 0.574555 0.653685 0.641664 0.629644 0.617623 0.605602 0.527713 0.449824 0.371935 0.294047 0.358419 0.422792 0.487165 0.551537 0.509314 0.467091 0.424868 0.382645 0.401378 0.420111 0.438845 0.457578 0.467396 0.477214 0.487032 0.49685 0.495033 0.493215 0.491397 0.48958 0.464861 0.440142 0.415423 0.390704 0.546917 0.500908 0.4549 0.408892 0.362883 0.444908 0.526932 0.608957 0.690981 0.629283 0.567585 0.505888 0.44419 0.52546 0.606731 0.688001 0.769272 0.680247 0.591223 0.502199 0.413174 0.48071 0.548245 0.615781 0.683316 0.625335 0.567354 0.509373 0.451393 0.493234 0.535075 0.576916 0.618757 0.603844 0.588931 0.574019 0.559106 0.498018 0.43693 0.375841 0.314753 0.382496 0.45024 0.517983 0.585726 0.531296 0.476865 0.422435 0.368005 0.372231 0.376458 0.380684 0.384911 0.426776 0.468641 0.510506 0.552371 0.546316 0.540261 0.534206 0.528151 0.513939 0.499728 0.485517 0.471306 0.450717 0.410068 0.36942 0.328771 0.288122 0.397162 0.506202 0.615242 0.724282 0.673097 0.621913 0.570728 0.519543 0.58119 0.642837 0.704484 0.766131 0.663677 0.561222 0.458768 0.356313 0.447156 0.537998 0.628841 0.719684 0.681168 0.642652 0.604135 0.565619 0.570171 0.574724 0.579276 0.583828 0.566024 0.548219 0.530414 0.51261 0.468322 0.424035 0.379747 0.33546 0.406574 0.477687 0.548801 0.619914 0.553277 0.48664 0.420002 0.353365 0.343085 0.332804 0.322524 0.312244 0.386156 0.460068 0.533981 0.607893 0.5976 0.587307 0.577014 0.566721 0.563018 0.559315 0.555612 0.551909 0.354517 0.319228 0.283939 0.24865 0.213361 0.349417 0.485472 0.621528 0.757584 0.716912 0.67624 0.635568 0.594896 0.63692 0.678943 0.720967 0.762991 0.647106 0.531221 0.415337 0.299452 0.413602 0.527752 0.641901 0.756051 0.737 0.717949 0.698897 0.679846 0.647109 0.614373 0.581636 0.5489 0.528203 0.507507 0.48681 0.466113 0.438627 0.41114 0.383653 0.356167 0.430651 0.505135 0.579619 0.654103 0.575258 0.496414 0.417569 0.338725 0.313938 0.289151 0.264364 0.239577 0.345536 0.451496 0.557455 0.663414 0.648884 0.634353 0.619823 0.605292 0.612097 0.618901 0.625706 0.632511 0.41273 0.377902 0.343075 0.308248 0.273421 0.374386 0.475352 0.576317 0.677283 0.662805 0.648328 0.63385 0.619373 0.632104 0.644835 0.657566 0.670297 0.602109 0.533922 0.465734 0.397546 0.482199 0.566852 0.651505 0.736159 0.72425 0.712342 0.700434 0.688526 0.650916 0.613307 0.575697 0.538088 0.527463 0.516839 0.506214 0.495589 0.486849 0.478109 0.469368 0.460628 0.497395 0.534162 0.57093 0.607697 0.534101 0.460505 0.386909 0.313313 0.325111 0.336908 0.348706 0.360503 0.431104 0.501704 0.572304 0.642904 0.62159 0.600276 0.578963 0.557649 0.586989 0.616328 0.645667 0.675007 0.470942 0.436577 0.402211 0.367846 0.333481 0.399356 0.465231 0.531106 0.596982 0.608699 0.620416 0.632133 0.64385 0.627288 0.610726 0.594164 0.577603 0.557112 0.536622 0.516131 0.495641 0.550797 0.605953 0.661109 0.716266 0.711501 0.706736 0.701971 0.697206 0.654723 0.612241 0.569758 0.527276 0.526723 0.526171 0.525618 0.525066 0.535071 0.545077 0.555083 0.565089 0.564139 0.56319 0.562241 0.561291 0.492944 0.424597 0.356249 0.287902 0.336284 0.384666 0.433048 0.48143 0.516671 0.551912 0.587152 0.622393 0.594296 0.5662 0.538103 0.510006 0.56188 0.613755 0.665629 0.717503 0.529154 0.495251 0.461347 0.427444 0.393541 0.424326 0.455111 0.485896 0.51668 0.554592 0.592503 0.630415 0.668326 0.622472 0.576617 0.530763 0.484909 0.512115 0.539322 0.566529 0.593735 0.619395 0.645054 0.670714 0.696373 0.698751 0.701129 0.703507 0.705886 0.65853 0.611175 0.563819 0.516464 0.525983 0.535503 0.545022 0.554542 0.583294 0.612046 0.640798 0.66955 0.630884 0.592218 0.553552 0.514886 0.451787 0.388688 0.325589 0.26249 0.347457 0.432423 0.51739 0.602356 0.602238 0.60212 0.602001 0.601883 0.567003 0.532123 0.497243 0.462363 0.536772 0.611181 0.68559 0.759999 0.587367 0.553925 0.520484 0.487042 0.4536 0.449295 0.44499 0.440685 0.436379 0.500485 0.564591 0.628697 0.692803 0.617656 0.542509 0.467362 0.392214 0.467118 0.542022 0.616926 0.69183 0.687992 0.684155 0.680318 0.67648 0.686002 0.695523 0.705044 0.714566 0.662337 0.610109 0.55788 0.505651 0.525243 0.544835 0.564426 0.584018 0.631516 0.679014 0.726513 0.774011 0.697628 0.621246 0.544863 0.46848 0.41063 0.35278 0.294929 0.237079 0.35863 0.480181 0.601732 0.723283 0.687805 0.652328 0.61685 0.581372 0.539709 0.498046 0.456383 0.41472 0.511664 0.608608 0.705551 0.802495 0.524455 0.51553 0.506605 0.497679 0.488754 0.483731 0.478708 0.473685 0.468663 0.508541 0.54842 0.588299 0.628178 0.562586 0.496994 0.431402 0.36581 0.417579 0.469348 0.521116 0.572885 0.584923 0.596961 0.608999 0.621037 0.61925 0.617463 0.615676 0.613889 0.595122 0.576355 0.557588 0.538821 0.540127 0.541432 0.542738 0.544044 0.597417 0.65079 0.704164 0.757537 0.696207 0.634877 0.573546 0.512216 0.462681 0.413146 0.363611 0.314076 0.39039 0.466704 0.543018 0.619332 0.62213 0.624927 0.627724 0.630521 0.573191 0.51586 0.45853 0.4012 0.498793 0.596386 0.69398 0.791573 0.461543 0.477135 0.492726 0.508317 0.523908 0.518167 0.512427 0.506686 0.500946 0.516597 0.532249 0.547901 0.563553 0.507516 0.451479 0.395443 0.339406 0.368039 0.396673 0.425307 0.45394 0.481854 0.509767 0.537681 0.565594 0.552499 0.539403 0.526308 0.513213 0.527907 0.542602 0.557296 0.571991 0.55501 0.53803 0.52105 0.50407 0.563318 0.622566 0.681814 0.741063 0.694785 0.648508 0.60223 0.555952 0.514732 0.473512 0.432292 0.391072 0.42215 0.453227 0.484304 0.515382 0.556454 0.597526 0.638598 0.679671 0.606673 0.533675 0.460677 0.387679 0.485922 0.584165 0.682408 0.780651 0.398632 0.438739 0.478847 0.518954 0.559061 0.552603 0.546145 0.539687 0.533229 0.524653 0.516078 0.507503 0.498927 0.452446 0.405964 0.359483 0.313001 0.3185 0.323999 0.329497 0.334996 0.378785 0.422573 0.466362 0.510151 0.485747 0.461344 0.43694 0.412536 0.460692 0.508848 0.557004 0.60516 0.569894 0.534628 0.499362 0.464095 0.529219 0.594342 0.659465 0.724589 0.693364 0.662139 0.630914 0.599689 0.566784 0.533879 0.500974 0.468069 0.453909 0.43975 0.425591 0.411431 0.490778 0.570125 0.649473 0.72882 0.640154 0.551489 0.462823 0.374158 0.473051 0.571944 0.670836 0.769729 0.33572 0.400344 0.464968 0.529591 0.594215 0.587039 0.579863 0.572688 0.565512 0.532709 0.499907 0.467104 0.434302 0.397376 0.36045 0.323523 0.286597 0.268961 0.251324 0.233688 0.216051 0.275715 0.33538 0.395044 0.454708 0.418996 0.383284 0.347572 0.31186 0.393477 0.475095 0.556713 0.63833 0.584778 0.531226 0.477673 0.424121 0.495119 0.566118 0.637116 0.708114 0.691942 0.67577 0.659597 0.643425 0.618835 0.594245 0.569655 0.545065 0.485669 0.426273 0.366877 0.307481 0.425103 0.542725 0.660347 0.777969 0.673636 0.569303 0.46497 0.360637 0.460179 0.559722 0.659265 0.758808 0.33566 0.389793 0.443927 0.49806 0.552193 0.53603 0.519866 0.503702 0.487538 0.483755 0.479971 0.476187 0.472404 0.4274 0.382396 0.337392 0.292388 0.274054 0.25572 0.237386 0.219052 0.289344 0.359637 0.429929 0.500222 0.459284 0.418346 0.377409 0.336471 0.409481 0.482492 0.555502 0.628512 0.577923 0.527334 0.476745 0.426156 0.488576 0.550997 0.613417 0.675838 0.640892 0.605947 0.571001 0.536056 0.551098 0.566141 0.581184 0.596226 0.547534 0.498843 0.450151 0.401459 0.487617 0.573775 0.659933 0.74609 0.670366 0.594643 0.518919 0.443195 0.501691 0.560187 0.618684 0.67718 0.3356 0.379243 0.422886 0.466529 0.510172 0.48502 0.459868 0.434716 0.409565 0.4348 0.460035 0.48527 0.510505 0.457424 0.404342 0.35126 0.298178 0.279147 0.260115 0.241084 0.222053 0.302973 0.383894 0.464814 0.545735 0.499572 0.453408 0.407245 0.361082 0.425485 0.489888 0.554291 0.618694 0.571069 0.523443 0.475817 0.428191 0.482033 0.535876 0.589718 0.643561 0.589842 0.536124 0.482406 0.428687 0.483362 0.538037 0.592712 0.647387 0.6094 0.571412 0.533425 0.495438 0.550131 0.604825 0.659518 0.714212 0.667097 0.619982 0.572867 0.525753 0.543203 0.560652 0.578102 0.595552 0.335539 0.368692 0.401845 0.434997 0.46815 0.43401 0.399871 0.365731 0.331591 0.385845 0.440099 0.494353 0.548607 0.487447 0.426288 0.365128 0.303968 0.28424 0.264511 0.244782 0.225054 0.316602 0.408151 0.4997 0.591248 0.53986 0.488471 0.437082 0.385693 0.441489 0.497285 0.553081 0.608877 0.564214 0.519551 0.474889 0.430226 0.475491 0.520755 0.566019 0.611284 0.538792 0.466301 0.39381 0.321318 0.415626 0.509933 0.60424 0.698548 0.671265 0.643982 0.616699 0.589417 0.612646 0.635875 0.659104 0.682333 0.663828 0.645322 0.626816 0.608311 0.584714 0.561117 0.537521 0.513924 0.335479 0.358141 0.380804 0.403466 0.426128 0.383001 0.339873 0.296745 0.253618 0.33689 0.420163 0.503436 0.586709 0.517471 0.448234 0.378996 0.309759 0.289333 0.268907 0.248481 0.228055 0.330231 0.432408 0.534585 0.636762 0.580147 0.523533 0.466919 0.410304 0.457493 0.504681 0.55187 0.599059 0.557359 0.51566 0.473961 0.432261 0.468948 0.505634 0.54232 0.579007 0.487742 0.396478 0.305214 0.21395 0.347889 0.481829 0.615769 0.749709 0.73313 0.716552 0.699974 0.683395 0.67516 0.666925 0.65869 0.650455 0.660558 0.670662 0.680765 0.690869 0.626226 0.561582 0.496939 0.432296 0.39472 0.410182 0.425644 0.441106 0.456568 0.4225 0.388432 0.354364 0.320296 0.373149 0.426001 0.478853 0.531706 0.478781 0.425856 0.372931 0.320006 0.312334 0.304662 0.29699 0.289318 0.357515 0.425713 0.49391 0.562108 0.541372 0.520636 0.499901 0.479165 0.521399 0.563634 0.605868 0.648102 0.580812 0.513521 0.446231 0.37894 0.425503 0.472066 0.518629 0.565192 0.479846 0.3945 0.309154 0.223808 0.351197 0.478586 0.605975 0.733363 0.727975 0.722588 0.7172 0.711812 0.670898 0.629984 0.589071 0.548157 0.588595 0.629033 0.669472 0.70991 0.62674 0.543571 0.460402 0.377232 0.453961 0.462223 0.470485 0.478747 0.487008 0.462 0.436991 0.411983 0.386974 0.409407 0.431839 0.454271 0.476703 0.440091 0.403479 0.366866 0.330254 0.335336 0.340418 0.345499 0.350581 0.384799 0.419017 0.453235 0.487454 0.502597 0.51774 0.532883 0.548026 0.585306 0.622586 0.659865 0.697145 0.604264 0.511382 0.418501 0.32562 0.382059 0.438499 0.494938 0.551378 0.47195 0.392522 0.313094 0.233667 0.354504 0.475342 0.59618 0.717018 0.722821 0.728623 0.734426 0.740228 0.666636 0.593044 0.519451 0.445859 0.516632 0.587405 0.658178 0.728951 0.627255 0.52556 0.423864 0.322169 0.513202 0.514264 0.515325 0.516387 0.517448 0.501499 0.485551 0.469602 0.453653 0.445665 0.437676 0.429688 0.4217 0.401401 0.381101 0.360801 0.340502 0.358337 0.376173 0.394009 0.411844 0.412083 0.412322 0.412561 0.4128 0.463821 0.514843 0.565865 0.616887 0.649212 0.681538 0.713863 0.746189 0.627716 0.509244 0.390771 0.272299 0.338615 0.404931 0.471248 0.537564 0.464054 0.390544 0.317035 0.243525 0.357812 0.472099 0.586386 0.700673 0.717666 0.734659 0.751652 0.768645 0.662374 0.556103 0.449832 0.343562 0.444669 0.545777 0.646884 0.747992 0.62777 0.507548 0.387326 0.267105 0.572443 0.566305 0.560166 0.554027 0.547888 0.540999 0.53411 0.52722 0.520331 0.481923 0.443514 0.405106 0.366697 0.36271 0.358723 0.354736 0.350749 0.381339 0.411928 0.442518 0.473108 0.439367 0.405626 0.371886 0.338145 0.425046 0.511947 0.598847 0.685748 0.713119 0.74049 0.767861 0.795232 0.651168 0.507105 0.363042 0.218978 0.295171 0.371364 0.447557 0.52375 0.456158 0.388567 0.320975 0.253384 0.361119 0.468855 0.576591 0.684327 0.712511 0.740694 0.768878 0.797061 0.658112 0.519162 0.380213 0.241264 0.372706 0.504148 0.635591 0.767033 0.628285 0.489537 0.350789 0.212041 0.582464 0.581665 0.580866 0.580067 0.579268 0.564687 0.550107 0.535526 0.520946 0.505373 0.4898 0.474227 0.458653 0.456176 0.453699 0.451222 0.448745 0.461401 0.474058 0.486714 0.49937 0.455679 0.411989 0.368298 0.324608 0.392794 0.460981 0.529167 0.597354 0.616539 0.635724 0.654909 0.674094 0.56076 0.447427 0.334093 0.22076 0.280358 0.339956 0.399553 0.459151 0.42765 0.396149 0.364647 0.333146 0.426124 0.519101 0.612079 0.705056 0.704149 0.703241 0.702333 0.701426 0.599334 0.497242 0.395149 0.293057 0.413236 0.533415 0.653594 0.773773 0.668305 0.562836 0.457368 0.351899 0.592484 0.597024 0.601565 0.606106 0.610647 0.588375 0.566104 0.543832 0.521561 0.528823 0.536085 0.543347 0.550609 0.549642 0.548675 0.547708 0.546741 0.541464 0.536187 0.53091 0.525633 0.471992 0.418351 0.364711 0.31107 0.360543 0.410015 0.459487 0.50896 0.519958 0.530957 0.541956 0.552955 0.470352 0.387749 0.305145 0.222542 0.265545 0.308547 0.35155 0.394552 0.399141 0.40373 0.40832 0.412909 0.491128 0.569347 0.647566 0.725785 0.695787 0.665788 0.635789 0.605791 0.540556 0.475321 0.410086 0.34485 0.453766 0.562682 0.671598 0.780514 0.708325 0.636136 0.563947 0.491757 0.602504 0.612384 0.622265 0.632145 0.642026 0.612063 0.582101 0.552138 0.522176 0.552273 0.582371 0.612468 0.642566 0.643108 0.643651 0.644194 0.644737 0.621527 0.598316 0.575106 0.551895 0.488304 0.424714 0.361123 0.297533 0.328291 0.359049 0.389807 0.420566 0.423378 0.426191 0.429004 0.431817 0.379944 0.32807 0.276197 0.224324 0.250731 0.277139 0.303546 0.329954 0.370633 0.411312 0.451992 0.492671 0.556132 0.619593 0.683053 0.746514 0.687424 0.628335 0.569245 0.510156 0.481778 0.4534 0.425022 0.396644 0.494296 0.591949 0.689602 0.787254 0.748345 0.709435 0.670525 0.631616 0.612524 0.627744 0.642965 0.658185 0.673405 0.635752 0.598098 0.560444 0.52279 0.575723 0.628656 0.681589 0.734522 0.736574 0.738627 0.74068 0.742733 0.701589 0.660445 0.619301 0.578158 0.504617 0.431076 0.357536 0.283995 0.296039 0.308083 0.320127 0.332172 0.326798 0.321425 0.316052 0.310679 0.289535 0.268392 0.247249 0.226106 0.235918 0.245731 0.255543 0.265355 0.342125 0.418894 0.495664 0.572434 0.621136 0.669838 0.718541 0.767243 0.679062 0.590882 0.502701 0.414521 0.423 0.431479 0.439958 0.448437 0.534826 0.621216 0.707605 0.793995 0.788365 0.782734 0.777104 0.771474 0.611441 0.634638 0.657835 0.681032 0.704229 0.667635 0.631041 0.594447 0.557853 0.581353 0.604853 0.628353 0.651853 0.66566 0.679467 0.693273 0.70708 0.660469 0.613857 0.567246 0.520634 0.467413 0.414191 0.36097 0.307748 0.331272 0.354795 0.378318 0.401841 0.392073 0.382305 0.372537 0.362769 0.342532 0.322296 0.302059 0.281823 0.296379 0.310935 0.32549 0.340046 0.403194 0.466341 0.529489 0.592637 0.622873 0.65311 0.683347 0.713583 0.646252 0.57892 0.511589 0.444257 0.451815 0.459373 0.46693 0.474488 0.536573 0.598657 0.660742 0.722827 0.702452 0.682078 0.661704 0.64133 0.610359 0.641532 0.672706 0.703879 0.735052 0.699518 0.663984 0.628449 0.592915 0.586982 0.581049 0.575116 0.569184 0.594745 0.620306 0.645867 0.671428 0.619349 0.567269 0.51519 0.463111 0.430209 0.397306 0.364404 0.331502 0.366504 0.401506 0.436508 0.471511 0.457348 0.443185 0.429022 0.414859 0.395529 0.3762 0.35687 0.33754 0.356839 0.376138 0.395438 0.414737 0.464263 0.513788 0.563314 0.61284 0.624611 0.636382 0.648153 0.659923 0.613441 0.566959 0.520476 0.473994 0.48063 0.487267 0.493903 0.500539 0.538319 0.576099 0.613878 0.651658 0.61654 0.581422 0.546304 0.511186 0.609276 0.648426 0.687576 0.726726 0.765876 0.731401 0.696927 0.662452 0.627977 0.592611 0.557246 0.52188 0.486515 0.52383 0.561145 0.59846 0.635775 0.578228 0.520682 0.463135 0.405588 0.393004 0.380421 0.367838 0.355255 0.401736 0.448218 0.494699 0.54118 0.522623 0.504065 0.485507 0.466949 0.448526 0.430103 0.41168 0.393257 0.4173 0.441342 0.465385 0.489428 0.525331 0.561235 0.597139 0.633043 0.626348 0.619653 0.612958 0.606264 0.58063 0.554997 0.529364 0.503731 0.509446 0.515161 0.520875 0.52659 0.540065 0.55354 0.567015 0.58049 0.530628 0.480766 0.430905 0.381043 0.608194 0.65532 0.702447 0.749573 0.7967 0.763285 0.729869 0.696454 0.663039 0.598241 0.533442 0.468644 0.403846 0.452915 0.501984 0.551054 0.600123 0.537108 0.474094 0.411079 0.348064 0.3558 0.363536 0.371272 0.379009 0.436969 0.494929 0.55289 0.61085 0.587897 0.564945 0.541992 0.51904 0.501523 0.484007 0.466491 0.448975 0.47776 0.506546 0.535332 0.564118 0.5864 0.608682 0.630964 0.653246 0.628086 0.602925 0.577764 0.552604 0.54782 0.543036 0.538252 0.533468 0.538261 0.543055 0.547848 0.552642 0.541812 0.530982 0.520152 0.509322 0.444716 0.38011 0.315505 0.250899 0.614654 0.660461 0.706268 0.752075 0.797882 0.74864 0.699397 0.650155 0.600913 0.575548 0.550184 0.524819 0.499455 0.51272 0.525985 0.53925 0.552516 0.5256 0.498684 0.471769 0.444853 0.434387 0.423922 0.413456 0.40299 0.444907 0.486823 0.528739 0.570655 0.546069 0.521483 0.496897 0.47231 0.455704 0.439098 0.422492 0.405886 0.434379 0.462872 0.491364 0.519857 0.552284 0.584711 0.617137 0.649564 0.632832 0.616101 0.599369 0.582637 0.575692 0.568748 0.561803 0.554859 0.532692 0.510525 0.488359 0.466192 0.48945 0.512708 0.535966 0.559223 0.513802 0.46838 0.422958 0.377536 0.621115 0.665602 0.71009 0.754577 0.799064 0.733995 0.668926 0.603856 0.538787 0.552856 0.566925 0.580994 0.595064 0.572525 0.549986 0.527447 0.504908 0.514092 0.523275 0.532458 0.541641 0.512974 0.484307 0.45564 0.426972 0.452844 0.478717 0.504589 0.530461 0.504241 0.478021 0.451801 0.425581 0.409885 0.39419 0.378494 0.362798 0.390998 0.419197 0.447397 0.475596 0.518167 0.560739 0.60331 0.645882 0.637579 0.629276 0.620973 0.61267 0.603565 0.59446 0.585355 0.576249 0.527123 0.477996 0.42887 0.379743 0.437089 0.494434 0.55178 0.609125 0.582887 0.556649 0.530411 0.504173 0.627575 0.670743 0.713911 0.757079 0.800247 0.71935 0.638454 0.557557 0.47666 0.530163 0.583666 0.63717 0.690673 0.63233 0.573987 0.515644 0.457301 0.502583 0.547866 0.593148 0.63843 0.591561 0.544692 0.497823 0.450954 0.460782 0.47061 0.480438 0.490266 0.462413 0.434559 0.406705 0.378852 0.364066 0