<?xml version="1.0"?> 
<VTKFile type="StructuredGrid" version="0.1"> 
<StructuredGrid WholeExtent="0 128 0 128 0 0"> 
<Piece Extent="0 128 0 128 0 0"> 
<PointData>
<DataArray type="Float32" Name="u" format="ascii" NumberOfComponents="1"> 
0 0 0 0 0 0 0 0 0 0 0 0 0 0 0 0 0 0 0 0 0 0 0 0 0 0 0 0 0 0 0 0 0 0 0 0 0 0 0 0 0 0 0 0 0 0 0 0 0 0 0 0 0 0 0 0 0 0 0 0 0 0 0 0 0 0 0 0 0 0 0 0 0 0 0 0 0 0 0 0 0 0 0 0 0 0 0 0 0 0 0 0 0 0 0 0 0 0 0 0 0 0 0 0 0 0 0 0 0 0 0 0 0 0 0 0 0 0 0 0 0 0 0 0 0 0 0 0 0 0 -1.81748e-07 -7.26991e-07 -1.63573e-06 -2.90796e-06 -4.54369e-06 -6.54292e-06 -8.90564e-06 -1.16319e-05 -1.43922e-05 -1.68572e-05 -1.9027e-05 -2.09015e-05 -2.24808e-05 -2.37648e-05 -2.47535e-05 -2.54469e-05 -2.56211e-05 -2.50519e-05 -2.37393e-05 -2.16834e-05 -1.88842e-05 -1.53416e-05 -1.10557e-05 -6.02649e-06 -6.98269e-07 4.48456e-06 9.52201e-06 1.44141e-05 1.91607e-05 2.3762e-05 2.82179e-05 3.25283e-05 3.62387e-05 3.88943e-05 4.0495e-05 4.10409e-05 4.0532e-05 3.89683e-05 3.63497e-05 3.26763e-05 2.81216e-05 2.2859e-05 1.68886e-05 1.02103e-05 2.82418e-06 -5.26979e-06 -1.40716e-05 -2.35813e-05 -3.29964e-05 -4.15145e-05 -4.91356e-05 -5.58598e-05 -6.16869e-05 -6.66171e-05 -7.06503e-05 -7.37864e-05 -7.52745e-05 -7.43632e-05 -7.10526e-05 -6.53427e-05 -5.72335e-05 -4.6725e-05 -3.38171e-05 -1.851e-05 -9.36906e-07 1.87687e-05 4.06069e-05 6.45776e-05 9.06808e-05 0.000118917 0.000149285 0.000181786 0.000215129 0.000248026 0.000280475 0.000312477 0.000344032 0.00037514 0.0004058 0.000436014 0.000464335 0.000489316 0.00051096 0.000529264 0.00054423 0.000555857 0.000564145 0.000569094 0.000570631 0.00056868 0.000563243 0.000554319 0.000541908 0.00052601 0.000506625 0.000483753 0.000458749 0.000432966 0.000406405 0.000379066 0.000350948 0.000322052 0.000292378 0.000261925 0.000232002 0.000203916 0.000177667 0.000153254 0.000130679 0.000109941 9.10395e-05 7.39751e-05 5.8765e-05 4.54263e-05 3.39592e-05 2.43635e-05 1.66393e-05 1.07867e-05 6.80547e-06 4.69578e-06 3.59521e-06 2.64138e-06 1.83429e-06 1.17395e-06 6.60344e-07 2.93486e-07 7.33716e-08 0 0 -7.26991e-07 -2.90796e-06 -6.54292e-06 -1.16319e-05 -1.81748e-05 -2.61717e-05 -3.56225e-05 -4.65274e-05 -5.75687e-05 -6.7429e-05 -7.61081e-05 -8.36062e-05 -8.99232e-05 -9.50591e-05 -9.9014e-05 -0.000101788 -0.000102484 -0.000100207 -9.49573e-05 -8.67338e-05 -7.55369e-05 -6.13666e-05 -4.4223e-05 -2.4106e-05 -2.79307e-06 1.79383e-05 3.8088e-05 5.76562e-05 7.66429e-05 9.50479e-05 0.000112871 0.000130113 0.000144955 0.000155577 0.00016198 0.000164164 0.000162128 0.000155873 0.000145399 0.000130705 0.000112486 9.1436e-05 6.75543e-05 4.08412e-05 1.12967e-05 -2.10792e-05 -5.62865e-05 -9.43252e-05 -0.000131986 -0.000166058 -0.000196543 -0.000223439 -0.000246748 -0.000266468 -0.000282601 -0.000295146 -0.000301098 -0.000297453 -0.00028421 -0.000261371 -0.000228934 -0.0001869 -0.000135269 -7.40399e-05 -3.74762e-06 7.50748e-05 0.000162427 0.00025831 0.000362723 0.000475666 0.000597139 0.000727143 0.000860517 0.000992103 0.0011219 0.00124991 0.00137613 0.00150056 0.0016232 0.00174406 0.00185734 0.00195727 0.00204384 0.00211706 0.00217692 0.00222343 0.00225658 0.00227638 0.00228252 0.00227472 0.00225297 0.00221728 0.00216763 0.00210404 0.0020265 0.00193501 0.00183499 0.00173186 0.00162562 0.00151626 0.00140379 0.00128821 0.00116951 0.0010477 0.000928009 0.000815664 0.000710667 0.000613018 0.000522717 0.000439763 0.000364158 0.000295901 0.00023506 0.000181705 0.000135837 9.7454e-05 6.65574e-05 4.31466e-05 2.72219e-05 1.87831e-05 1.43808e-05 1.05655e-05 7.33716e-06 4.69578e-06 2.64138e-06 1.17395e-06 2.93486e-07 0 0 -1.63573e-06 -6.54292e-06 -1.47216e-05 -2.61717e-05 -4.08932e-05 -5.88862e-05 -8.01507e-05 -0.000104687 -0.00012953 -0.000151715 -0.000171243 -0.000188114 -0.000202327 -0.000213883 -0.000222781 -0.000229022 -0.00023059 -0.000225467 -0.000213654 -0.000195151 -0.000169958 -0.000138075 -9.95017e-05 -5.42384e-05 -6.28442e-06 4.03611e-05 8.5698e-05 0.000129727 0.000172446 0.000213858 0.000253961 0.000292755 0.000326149 0.000350049 0.000364455 0.000369368 0.000364788 0.000350714 0.000327147 0.000294087 0.000253094 0.000205731 0.000151997 9.18928e-05 2.54176e-05 -4.74281e-05 -0.000126645 -0.000212232 -0.000296968 -0.000373631 -0.000442221 -0.000502738 -0.000555182 -0.000599554 -0.000635852 -0.000664078 -0.00067747 -0.000669269 -0.000639474 -0.000588084 -0.000515101 -0.000420525 -0.000304354 -0.00016659 -8.43215e-06 0.000168918 0.000365462 0.000581198 0.000816127 0.00107025 0.00134356 0.00163607 0.00193616 0.00223223 0.00252427 0.00281229 0.00309629 0.00337626 0.0036522 0.00392413 0.00417901 0.00440385 0.00459864 0.00476338 0.00489807 0.00500271 0.0050773 0.00512185 0.00513568 0.00511812 0.00506919 0.00498887 0.00487717 0.00473409 0.00455962 0.00435378 0.00412874 0.00389669 0.00365765 0.00341159 0.00315853 0.00289847 0.0026314 0.00235733 0.00208802 0.00183524 0.001599 0.00137929 0.00117611 0.000989468 0.000819356 0.000665776 0.000528885 0.000408837 0.000305633 0.000219272 0.000149754 9.70799e-05 6.12493e-05 4.2262e-05 3.23569e-05 2.37724e-05 1.65086e-05 1.05655e-05 5.9431e-06 2.64138e-06 6.60344e-07 0 0 -2.90796e-06 -1.16319e-05 -2.61717e-05 -4.65274e-05 -7.26991e-05 -0.000104687 -0.00014249 -0.00018611 -0.000230275 -0.000269716 -0.000304432 -0.000334425 -0.000359693 -0.000380236 -0.000396056 -0.000407151 -0.000409937 -0.00040083 -0.000379829 -0.000346935 -0.000302147 -0.000245466 -0.000176892 -9.64239e-05 -1.11723e-05 7.1753e-05 0.000152352 0.000230625 0.000306571 0.000380192 0.000451486 0.000520454 0.00057982 0.000622309 0.00064792 0.000656655 0.000648512 0.000623492 0.000581595 0.000522821 0.000449945 0.000365744 0.000270217 0.000163365 4.51869e-05 -8.43167e-05 -0.000225146 -0.000377301 -0.000527942 -0.000664232 -0.00078617 -0.000893756 -0.000986991 -0.00106587 -0.0011304 -0.00118058 -0.00120439 -0.00118981 -0.00113684 -0.00104548 -0.000915736 -0.0007476 -0.000541074 -0.00029616 -1.49905e-05 0.000300299 0.00064971 0.00103324 0.00145089 0.00190266 0.00238856 0.00290857 0.00344207 0.00396841 0.0044876 0.00499963 0.00550451 0.00600224 0.00649281 0.00697622 0.00742935 0.00782906 0.00817535 0.00846822 0.00870767 0.0088937 0.00902631 0.00910551 0.00913009 0.00909889 0.00901189 0.0088691 0.00867053 0.00841616 0.008106 0.00774005 0.00733998 0.00692746 0.00650248 0.00606505 0.00561517 0.00515283 0.00467805 0.00419081 0.00371204 0.00326266 0.00284267 0.00245207 0.00209087 0.00175905 0.00145663 0.0011836 0.00094024 0.000726821 0.000543347 0.000389816 0.000266229 0.000172587 0.000108888 7.51325e-05 5.75233e-05 4.2262e-05 2.93486e-05 1.87831e-05 1.05655e-05 4.69578e-06 1.17395e-06 0 0 -4.54369e-06 -1.81748e-05 -4.08932e-05 -7.26991e-05 -0.000113592 -0.000163573 -0.000222641 -0.000290796 -0.000359804 -0.000421431 -0.000475676 -0.000522539 -0.00056202 -0.000594119 -0.000618837 -0.000636173 -0.000640527 -0.000626297 -0.000593483 -0.000542086 -0.000472105 -0.000383541 -0.000276394 -0.000150662 -1.74567e-05 0.000112114 0.00023805 0.000360351 0.000479018 0.00059405 0.000705447 0.000813209 0.000905968 0.000972357 0.00101238 0.00102602 0.0010133 0.000974207 0.000908742 0.000816908 0.00070304 0.000571475 0.000422215 0.000255258 7.06046e-05 -0.000131745 -0.00035179 -0.000589532 -0.00082491 -0.00103786 -0.00122839 -0.00139649 -0.00154217 -0.00166543 -0.00176626 -0.00184466 -0.00188186 -0.00185908 -0.00177632 -0.00163357 -0.00143084 -0.00116812 -0.000845428 -0.00046275 -2.34226e-05 0.000469218 0.00101517 0.00161444 0.00226702 0.00297291 0.00373212 0.00454464 0.00537823 0.00620064 0.00701187 0.00781193 0.0086008 0.0093785 0.010145 0.0109004 0.0116084 0.0122329 0.012774 0.0132316 0.0136057 0.0138964 0.0141036 0.0142274 0.0142658 0.014217 0.0140811 0.013858 0.0135477 0.0131502 0.0126656 0.0120938 0.0114687 0.0108242 0.0101601 0.00947664 0.0087737 0.0080513 0.00730945 0.00654813 0.00580006 0.0050979 0.00444167 0.00383136 0.00326698 0.00274852 0.00227599 0.00184938 0.00146912 0.00113566 0.000848979 0.000609088 0.000415983 0.000269666 0.000170137 0.000117395 8.98802e-05 6.60344e-05 4.58572e-05 2.93486e-05 1.65086e-05 7.33716e-06 1.83429e-06 0 0 -6.54292e-06 -2.61717e-05 -5.88862e-05 -0.000104687 -0.000163573 -0.000235545 -0.000320603 -0.000418747 -0.000518118 -0.000606861 -0.000684973 -0.000752456 -0.000809309 -0.000855532 -0.000891126 -0.00091609 -0.000922359 -0.000901867 -0.000854616 -0.000780604 -0.000679832 -0.000552299 -0.000398007 -0.000216954 -2.51377e-05 0.000161444 0.000342792 0.000518906 0.000689786 0.000855431 0.00101584 0.00117102 0.00130459 0.00140019 0.00145782 0.00147747 0.00145915 0.00140286 0.00130859 0.00117635 0.00101238 0.000822924 0.000607989 0.000367571 0.000101671 -0.000189712 -0.000506578 -0.000848926 -0.00118787 -0.00149452 -0.00176888 -0.00201095 -0.00222073 -0.00239822 -0.00254341 -0.00265631 -0.00270988 -0.00267708 -0.00255789 -0.00235234 -0.00206041 -0.0016821 -0.00121742 -0.000666359 -3.37286e-05 0.000675674 0.00146185 0.00232479 0.00326451 0.004281 0.00537425 0.00654429 0.00774465 0.00892892 0.0100971 0.0112492 0.0123852 0.013505 0.0146088 0.0156965 0.016716 0.0176154 0.0183945 0.0190535 0.0195923 0.0200108 0.0203092 0.0204874 0.0205427 0.0204725 0.0202768 0.0199555 0.0195087 0.0189364 0.0182385 0.0174151 0.016515 0.0155868 0.0146306 0.0136464 0.0126341 0.0115939 0.0105256 0.00942931 0.00835208 0.00734098 0.006396 0.00551716 0.00470445 0.00395787 0.00327742 0.0026631 0.00211554 0.00163535 0.00122253 0.000877086 0.000599016 0.00038832 0.000244997 0.000169048 0.000129427 9.50896e-05 6.60344e-05 4.2262e-05 2.37724e-05 1.05655e-05 2.64138e-06 0 0 -8.90564e-06 -3.56225e-05 -8.01507e-05 -0.00014249 -0.000222641 -0.000320603 -0.000436376 -0.000569961 -0.000705217 -0.000826005 -0.000932324 -0.00102418 -0.00110156 -0.00116447 -0.00121292 -0.0012469 -0.00125543 -0.00122754 -0.00116323 -0.00106249 -0.000925327 -0.000751741 -0.000541731 -0.000295298 -3.42152e-05 0.000219744 0.000466578 0.000706289 0.000938875 0.00116434 0.00138268 0.00159389 0.0017757 0.00190582 0.00198426 0.00201101 0.00198607 0.00190944 0.00178114 0.00160114 0.00137796 0.00112009 0.000827541 0.000500305 0.000138385 -0.00025822 -0.000689509 -0.00115548 -0.00161682 -0.00203421 -0.00240765 -0.00273713 -0.00302266 -0.00326424 -0.00346186 -0.00361554 -0.00368845 -0.0036438 -0.00348158 -0.00320179 -0.00280444 -0.00228952 -0.00165704 -0.000906989 -4.59084e-05 0.000919667 0.00198974 0.0031643 0.00444336 0.00582691 0.00731496 0.0089075 0.0105413 0.0121533 0.0137433 0.0153114 0.0168576 0.0183819 0.0198842 0.0213647 0.0227524 0.0239765 0.025037 0.0259339 0.0266673 0.027237 0.0276431 0.0278856 0.0279609 0.0278653 0.0275989 0.0271616 0.0265535 0.0257745 0.0248246 0.0237039 0.0224787 0.0212153 0.0199138 0.0185742 0.0171965 0.0157806 0.0143265 0.0128343 0.0113681 0.00999188 0.00870567 0.00750947 0.00640328 0.0053871 0.00446094 0.00362478 0.00287948 0.00222589 0.001664 0.00119381 0.000815328 0.000528546 0.000333468 0.000230093 0.000176165 0.000129427 8.98802e-05 5.75233e-05 3.23569e-05 1.43808e-05 3.59521e-06 0 0 -1.16319e-05 -4.65274e-05 -0.000104687 -0.00018611 -0.000290796 -0.000418747 -0.000569961 -0.000744438 -0.000921099 -0.00107886 -0.00121773 -0.0013377 -0.00143877 -0.00152095 -0.00158422 -0.0016286 -0.00163975 -0.00160332 -0.00151932 -0.00138774 -0.00120859 -0.000981865 -0.000707567 -0.000385695 -4.46892e-05 0.000287012 0.000609408 0.0009225 0.00122629 0.00152077 0.00180594 0.00208181 0.00231928 0.00248923 0.00259168 0.00262662 0.00259405 0.00249397 0.00232638 0.00209128 0.00179978 0.00146298 0.00108087 0.00065346 0.000180748 -0.000337267 -0.000900583 -0.0015092 -0.00211177 -0.00265693 -0.00314468 -0.00357503 -0.00394796 -0.00426349 -0.00452162 -0.00472233 -0.00481757 -0.00475924 -0.00454737 -0.00418193 -0.00366294 -0.0029904 -0.0021643 -0.00118464 -5.9962e-05 0.0012012 0.00259884 0.00413296 0.00580357 0.00761066 0.00955423 0.0116343 0.0137683 0.0158736 0.0179504 0.0199985 0.022018 0.0240089 0.0259712 0.0279049 0.0297174 0.0313163 0.0327014 0.0338729 0.0348307 0.0355748 0.0361053 0.036422 0.0365204 0.0363955 0.0360476 0.0354764 0.0346821 0.0336646 0.032424 0.0309602 0.0293599 0.0277098 0.0260099 0.0242602 0.0224607 0.0206113 0.0187122 0.0167632 0.0148481 0.0130506 0.0113707 0.00980829 0.00836347 0.00703622 0.00582653 0.00473441 0.00376096 0.00290729 0.00217339 0.00155926 0.00106492 0.000690346 0.00043555 0.00030053 0.000230093 0.000169048 0.000117395 7.51325e-05 4.2262e-05 1.87831e-05 4.69578e-06 0 0 -1.42528e-05 -5.70112e-05 -0.000128275 -0.000228045 -0.00035632 -0.000513101 -0.000698387 -0.000912179 -0.00112758 -0.00131771 -0.00148256 -0.00162212 -0.00173641 -0.00182541 -0.00188914 -0.00192759 -0.00192312 -0.00185812 -0.00173256 -0.00154647 -0.00129983 -0.00099265 -0.000624925 -0.000196657 0.000255558 0.000695123 0.00112204 0.0015363 0.00193792 0.00232688 0.0027032 0.00306686 0.00338061 0.00360716 0.00374653 0.0037987 0.00376368 0.00364148 0.00343208 0.0031355 0.00276606 0.00233809 0.0018516 0.00130659 0.00070306 4.10052e-05 -0.000679573 -0.00145867 -0.00223051 -0.00292931 -0.00355506 -0.00410777 -0.00458744 -0.00499407 -0.00532765 -0.00558818 -0.0057143 -0.00564461 -0.00537912 -0.00491782 -0.00426072 -0.00340782 -0.00235912 -0.00111461 0.000314768 0.00191808 0.00369533 0.00564651 0.00777163 0.0100707 0.0125437 0.0151906 0.0179063 0.0205855 0.0232284 0.0258348 0.0284048 0.0309384 0.0334356 0.0358963 0.0382029 0.0402374 0.0419999 0.0434904 0.0447089 0.0456553 0.0463297 0.0467322 0.0468564 0.0466961 0.0462514 0.0455222 0.0445086 0.0432105 0.041628 0.039761 0.0377196 0.0356139 0.0334439 0.0312096 0.028911 0.026548 0.0241207 0.0216291 0.0191797 0.0168791 0.0147274 0.0127244 0.0108702 0.00916479 0.0076082 0.00620039 0.00494356 0.00383985 0.00288928 0.00209184 0.00144753 0.00095635 0.000618304 0.000433391 0.000331815 0.000243782 0.000169293 0.000108348 6.09456e-05 2.70869e-05 6.77173e-06 0 0 -1.62997e-05 -6.51989e-05 -0.000146698 -0.000260796 -0.000407493 -0.00058679 -0.000798687 -0.00104318 -0.00128649 -0.00149482 -0.00166817 -0.00180654 -0.00190993 -0.00197835 -0.00201178 -0.00201024 -0.00195337 -0.00182084 -0.00161265 -0.00132879 -0.000969263 -0.000534072 -2.32154e-05 0.000563306 0.00117864 0.00177595 0.00235522 0.00291646 0.00345967 0.00398485 0.00449199 0.0049811 0.00540495 0.00571633 0.00591522 0.00600163 0.00597557 0.00583702 0.005586 0.0052225 0.00476499 0.00423194 0.00362337 0.00293926 0.00217962 0.00134445 0.000433751 -0.000552483 -0.00153086 -0.00241799 -0.00321387 -0.00391851 -0.0045319 -0.00505404 -0.00548493 -0.00582457 -0.00599571 -0.00592108 -0.00560069 -0.00503452 -0.00422259 -0.0031649 -0.00186143 -0.000312201 0.00146894 0.00346813 0.00568538 0.00812068 0.010774 0.0136454 0.0167349 0.0200424 0.0234362 0.0267844 0.0300872 0.0333444 0.0365561 0.0397224 0.0428431 0.0459182 0.0488006 0.0513427 0.0535447 0.0554064 0.056928 0.0581094 0.0589506 0.0594516 0.0596041 0.0593999 0.058839 0.0579213 0.0566469 0.0550158 0.0530279 0.0506833 0.0481188 0.0454714 0.042741 0.0399277 0.0370315 0.0340523 0.0309902 0.0278451 0.0247504 0.0218394 0.0191121 0.0165685 0.0142086 0.0120324 0.0100399 0.00823115 0.00661087 0.00518391 0.00395026 0.00290992 0.0020629 0.00140919 0.000948791 0.000681708 0.000521933 0.000383461 0.000266292 0.000170427 9.58652e-05 4.26067e-05 1.06517e-05 0 0 -1.77726e-05 -7.10906e-05 -0.000159954 -0.000284362 -0.000444316 -0.000639815 -0.00087086 -0.00113745 -0.00139781 -0.00161019 -0.00177457 -0.00189095 -0.00195934 -0.00197974 -0.00195214 -0.00187656 -0.0017305 -0.00149151 -0.00115957 -0.000734697 -0.000216883 0.00039387 0.00109756 0.00189419 0.00272457 0.00352949 0.00430896 0.00506298 0.00579154 0.00649466 0.00717232 0.00782452 0.00839231 0.00881673 0.00909776 0.00923542 0.0092297 0.00908061 0.00878813 0.00835228 0.00779657 0.00714454 0.00639617 0.00555147 0.00461044 0.00357308 0.00243939 0.00120937 -1.28107e-05 -0.00112297 -0.00212111 -0.00300722 -0.00378132 -0.0044434 -0.00499346 -0.0054315 -0.00566181 -0.00558867 -0.00521208 -0.00453204 -0.00354855 -0.00226162 -0.000671242 0.00122259 0.00340255 0.00585136 0.00856899 0.0115555 0.0148108 0.0183349 0.0221279 0.0261897 0.0303579 0.0344703 0.0385268 0.0425273 0.046472 0.0503608 0.0541936 0.0579706 0.0615105 0.0646322 0.0673357 0.069621 0.0714881 0.072937 0.0739678 0.0745803 0.0747637 0.0745071 0.0738105 0.0726738 0.0710971 0.0690804 0.0666237 0.063727 0.0605574 0.0572821 0.0539012 0.0504145 0.0468222 0.0431242 0.0393205 0.0354112 0.0315601 0.0279313 0.0245249 0.0213406 0.0183787 0.0156391 0.0131217 0.0108267 0.0087629 0.00693945 0.00535633 0.00401352 0.00291103 0.00204886 0.00142701 0.00104548 0.000800447 0.000588083 0.000408391 0.00026137 0.000147021 6.53426e-05 1.63356e-05 0 0 -1.86715e-05 -7.46861e-05 -0.000168044 -0.000298745 -0.000466788 -0.000672175 -0.000914905 -0.00119498 -0.00146156 -0.00166382 -0.00180175 -0.00187536 -0.00188464 -0.0018296 -0.00171023 -0.00152654 -0.0012545 -0.000870098 -0.000373329 0.000235806 0.000957307 0.00179117 0.00273741 0.00379601 0.00489333 0.00595575 0.00698326 0.00797585 0.00893354 0.00985631 0.0107442 0.0115971 0.0123427 0.0129084 0.0132942 0.0135001 0.0135261 0.0133722 0.0130385 0.0125248 0.0118608 0.0110759 0.01017 0.00914321 0.00799551 0.00672688 0.00533734 0.00382688 0.00232364 0.000955755 -0.000276766 -0.00137393 -0.00233573 -0.00316217 -0.00385325 -0.00440897 -0.00471258 -0.00464736 -0.00421328 -0.00341037 -0.0022386 -0.000697997 0.00121146 0.00348975 0.00611561 0.00906775 0.0123462 0.0159509 0.0198818 0.0241391 0.0287226 0.0336324 0.0386716 0.0436432 0.0485472 0.0533836 0.0581524 0.0628536 0.0674873 0.0720534 0.0763326 0.0801058 0.083373 0.0861341 0.0883892 0.0901383 0.0913813 0.0921183 0.0923351 0.0920176 0.0911658 0.0897797 0.0878592 0.0854045 0.0824155 0.0788922 0.0750355 0.0710462 0.0669244 0.0626701 0.0582832 0.0537638 0.0491119 0.0443274 0.0396089 0.035155 0.0309657 0.0270408 0.0233805 0.0199848 0.0168536 0.013987 0.0113996 0.00910649 0.00710748 0.00540263 0.00399192 0.00287537 0.00205296 0.00152471 0.00116736 0.00085765 0.00059559 0.000381178 0.000214413 9.52945e-05 2.38236e-05 0 0 -1.89964e-05 -7.59856e-05 -0.000170968 -0.000303942 -0.00047491 -0.00068387 -0.000930824 -0.00121577 -0.00147773 -0.00165571 -0.00174972 -0.00175976 -0.00168583 -0.00152792 -0.00128604 -0.000960189 -0.000525379 4.33761e-05 0.000746076 0.00158272 0.00255331 0.00365784 0.00489632 0.00626874 0.00768494 0.00905473 0.0103781 0.0116551 0.0128857 0.0140698 0.0152076 0.0162989 0.0172561 0.0179912 0.0185044 0.0187956 0.0188647 0.0187119 0.018337 0.0177402 0.0169577 0.0160259 0.0149449 0.0137145 0.0123348 0.0108059 0.0091276 0.00730005 0.00547848 0.00381818 0.00231915 0.000981387 -0.000195106 -0.00121033 -0.00206428 -0.00275697 -0.00314804 -0.00309715 -0.00260431 -0.0016695 -0.000292742 0.00152598 0.00378666 0.0064893 0.00960811 0.0131173 0.0170169 0.0213069 0.0259873 0.031058 0.0365192 0.0423707 0.0483771 0.054303 0.0601484 0.0659131 0.0715973 0.077201 0.0827241 0.0881666 0.093267 0.0977636 0.101657 0.104946 0.107631 0.109713 0.111191 0.112066 0.112318 0.111931 0.110905 0.109239 0.106933 0.103988 0.100403 0.0961789 0.091553 0.0867636 0.0818107 0.0766943 0.0714144 0.065971 0.0603641 0.0545937 0.0488969 0.0435104 0.0384345 0.033669 0.0292141 0.0250696 0.0212355 0.017712 0.0145211 0.011685 0.00920373 0.00707725 0.00530558 0.00388871 0.00282665 0.0021194 0.00162266 0.00119216 0.00082789 0.00052985 0.00029804 0.000132462 3.31156e-05 0 0 -1.87472e-05 -7.4989e-05 -0.000168725 -0.000299956 -0.000468681 -0.000674901 -0.000918615 -0.00119982 -0.00144631 -0.00158586 -0.00161848 -0.00154416 -0.0013629 -0.0010747 -0.000679572 -0.000177505 0.000456869 0.00124892 0.00219864 0.00330604 0.00457112 0.00599387 0.0075743 0.00931241 0.0110994 0.0128264 0.0144935 0.0161007 0.0176479 0.0191352 0.0205625 0.0219299 0.0231325 0.0240654 0.0247285 0.0251219 0.0252456 0.0250996 0.0246838 0.0239983 0.0230873 0.0219947 0.0207208 0.0192653 0.0176284 0.01581 0.0138102 0.0116289 0.00945172 0.0074643 0.00566664 0.00405872 0.00264054 0.00141211 0.000373427 -0.00047551 -0.00096818 -0.000938061 -0.000385153 0.000690544 0.00228903 0.0044103 0.00705437 0.0102212 0.01388 0.018 0.0225812 0.0276235 0.033127 0.0390916 0.0455175 0.0524044 0.0594746 0.0664499 0.0733304 0.080116 0.0868068 0.0934028 0.099904 0.10631 0.112314 0.117606 0.122186 0.126056 0.129214 0.131662 0.133397 0.134422 0.134713 0.134248 0.133028 0.131051 0.128319 0.124831 0.120587 0.115587 0.11011 0.104434 0.0985601 0.0924872 0.0862159 0.0797459 0.0730773 0.0662102 0.0594238 0.0529976 0.0469314 0.0412253 0.0358793 0.0308934 0.0262676 0.0220018 0.0181273 0.014675 0.0116451 0.00903738 0.00685199 0.00508889 0.00374807 0.00282954 0.00216637 0.00159162 0.00110529 0.000707385 0.000397904 0.000176846 4.42116e-05 0 0 -1.79241e-05 -7.16963e-05 -0.000161317 -0.000286785 -0.000448102 -0.000645266 -0.000878279 -0.00114714 -0.00136732 -0.00145428 -0.00140802 -0.00122855 -0.000915857 -0.000469951 0.000109173 0.000821513 0.00169224 0.00274653 0.00398437 0.00540578 0.00701074 0.00879927 0.0107714 0.012927 0.0151367 0.0172708 0.0193295 0.0213126 0.0232202 0.0250524 0.026809 0.0284901 0.0299719 0.0311307 0.0319664 0.0324791 0.0326687 0.0325353 0.0320788 0.0312993 0.0302495 0.0289823 0.0274977 0.0257957 0.0238762 0.0217394 0.0193851 0.0168134 0.0142434 0.0118941 0.0097657 0.00785806 0.00617121 0.00470515 0.00345989 0.00243541 0.001827 0.00182992 0.00244418 0.00366978 0.00550671 0.00795498 0.0110146 0.0146855 0.0189314 0.0237159 0.0290391 0.0349008 0.0413011 0.04824 0.0557175 0.0637337 0.0719639 0.0800837 0.0880932 0.0959922 0.103781 0.111459 0.119027 0.126484 0.133472 0.139632 0.144963 0.149465 0.153138 0.155984 0.158 0.159188 0.15952 0.158969 0.157535 0.155217 0.152017 0.147933 0.142967 0.137117 0.130706 0.124058 0.117173 0.110049 0.102688 0.0950884 0.0872515 0.0791768 0.0711899 0.0636164 0.0564563 0.0497096 0.0433762 0.0374562 0.0319496 0.0268564 0.0222182 0.0180765 0.0144315 0.011283 0.00863117 0.0064759 0.00481722 0.00365514 0.00279847 0.00205602 0.00142779 0.000913785 0.000514004 0.000228446 5.71116e-05 0 0 -1.65269e-05 -6.61075e-05 -0.000148742 -0.00026443 -0.000413172 -0.000594967 -0.000809817 -0.00105772 -0.00124074 -0.00126095 -0.00111835 -0.000812934 -0.000344704 0.000286339 0.00108019 0.00203686 0.00318074 0.00453621 0.00610327 0.00788193 0.00987218 0.012074 0.0144875 0.0171125 0.0197968 0.0223879 0.024886 0.0272909 0.0296027 0.0318214 0.033947 0.0359795 0.0377744 0.0391873 0.0402182 0.0408671 0.0411341 0.041019 0.040522 0.039643 0.0384444 0.0369886 0.0352757 0.0333056 0.0310783 0.0285939 0.0258523 0.0228535 0.0198534 0.0171077 0.0146163 0.0123794 0.0103969 0.0086688 0.00719509 0.0059758 0.0052375 0.0052068 0.0058837 0.0072682 0.0093603 0.01216 0.0156673 0.0198822 0.0247623 0.030265 0.0363905 0.0431386 0.0505095 0.0585031 0.0671194 0.0763584 0.0858451 0.0952045 0.104437 0.113542 0.122519 0.13137 0.140093 0.148689 0.156743 0.163842 0.169985 0.175172 0.179403 0.182679 0.184999 0.186363 0.186738 0.186093 0.184425 0.181737 0.178026 0.173295 0.167542 0.160768 0.153342 0.145636 0.137648 0.129379 0.120829 0.111999 0.102887 0.0934935 0.0841951 0.075367 0.0670093 0.0591219 0.0517048 0.0447581 0.0382818 0.0322758 0.0267938 0.0218895 0.017563 0.0138142 0.0106431 0.00804974 0.00603411 0.0045962 0.00351896 0.00258536 0.00179539 0.00114905 0.00064634 0.000287262 7.18156e-05 0 0 -1.38239e-05 -5.52955e-05 -0.000124415 -0.000221182 -0.000345597 -0.000497659 -0.00067737 -0.000884728 -0.00100738 -0.000932983 -0.000661529 -0.000193021 0.000472541 0.00133516 0.00239483 0.00365155 0.00512763 0.00684536 0.00880474 0.0110058 0.0134484 0.0161328 0.0190588 0.0222264 0.025458 0.028576 0.0315803 0.034471 0.037248 0.0399114 0.0424611 0.0448972 0.0470526 0.0487603 0.0500204 0.0508327 0.0511974 0.0511144 0.0505837 0.0496053 0.0482521 0.0465971 0.0446402 0.0423814 0.0398207 0.0369581 0.0337937 0.0303274 0.0268548 0.0236714 0.0207773 0.0181724 0.0158568 0.0138305 0.0120934 0.0106456 0.00974734 0.00965899 0.0103805 0.011912 0.0142533 0.0174045 0.0213656 0.0261366 0.0316685 0.0379122 0.0448677 0.0525351 0.0609143 0.0700053 0.0798081 0.0903228 0.101121 0.111774 0.122282 0.132646 0.142864 0.152938 0.162866 0.17265 0.181817 0.189895 0.196885 0.202786 0.207598 0.211322 0.213957 0.215503 0.215922 0.215174 0.213259 0.210178 0.20593 0.200515 0.193934 0.186185 0.17769 0.168865 0.159712 0.150231 0.14042 0.130281 0.119813 0.109017 0.0983208 0.0881531 0.078514 0.0694036 0.0608219 0.0527688 0.0452443 0.0382485 0.0318492 0.0261145 0.0210444 0.0166387 0.0128976 0.00982094 0.00740884 0.00566126 0.0043344 0.00318446 0.00221143 0.00141532 0.000796115 0.000353829 8.84572e-05 0 0 -9.08329e-06 -3.63332e-05 -8.17496e-05 -0.000145333 -0.000227082 -0.000326999 -0.000445081 -0.000581331 -0.000608029 -0.00039746 5.03783e-05 0.000735484 0.00165786 0.0028175 0.00421441 0.00584859 0.0077382 0.00990141 0.0123382 0.0150486 0.0180326 0.0212902 0.0248213 0.0286261 0.0324987 0.0362332 0.0398298 0.0432883 0.0466089 0.0497915 0.052836 0.0557425 0.0583195 0.0603751 0.0619094 0.0629225 0.0634143 0.0633849 0.0628341 0.0617621 0.0602531 0.0583913 0.0561768 0.0536095 0.0506895 0.0474168 0.0437913 0.039813 0.0358204 0.0321518 0.0288073 0.0257867 0.0230902 0.0207177 0.0186692 0.0169447 0.0158406 0.0156529 0.0163818 0.0180272 0.0205892 0.0240676 0.0284627 0.0337742 0.0399462 0.0469226 0.0547032 0.0632882 0.0726774 0.082871 0.093869 0.105671 0.117794 0.129754 0.141551 0.153186 0.164657 0.175965 0.187111 0.198094 0.208383 0.21745 0.225293 0.231914 0.237311 0.241485 0.244436 0.246164 0.246623 0.245766 0.243595 0.240109 0.235308 0.229192 0.221761 0.213015 0.203421 0.193446 0.183091 0.172355 0.161238 0.149741 0.137863 0.125605 0.113449 0.101878 0.0908944 0.0804962 0.070684 0.0614578 0.0528175 0.0447632 0.0373797 0.0307521 0.0248804 0.0197644 0.0154043 0.0118 0.00895153 0.00685889 0.00525134 0.00385813 0.00267925 0.00171472 0.000964532 0.000428681 0.00010717 0 0 -2.30513e-06 -9.22053e-06 -2.07462e-05 -3.68821e-05 -5.76283e-05 -8.29847e-05 -0.000112951 -0.000147528 -4.2683e-05 0.000345617 0.00101737 0.00197258 0.00321125 0.00473337 0.00653894 0.00862797 0.0110124 0.0137043 0.0167037 0.0200104 0.0236246 0.0275462 0.0317752 0.0363116 0.0409187 0.0453596 0.0496344 0.0537429 0.0576853 0.0614615 0.0650716 0.0685155 0.0715749 0.0740315 0.0758854 0.0771365 0.0777849 0.0778305 0.0772733 0.0761134 0.0744472 0.0723712 0.0698855 0.06699 0.0636847 0.0599697 0.055845 0.0513104 0.0467504 0.042549 0.0387063 0.0352223 0.032097 0.0293304 0.0269225 0.0248733 0.0235171 0.0231885 0.0238875 0.0256139 0.0283679 0.0321494 0.0369584 0.042795 0.0495954 0.057296 0.0658968 0.0753978 0.085799 0.0971003 0.109302 0.122404 0.135865 0.149145 0.162244 0.175161 0.187898 0.200453 0.212827 0.22502 0.236443 0.246506 0.255211 0.262556 0.268542 0.273169 0.276437 0.278345 0.278841 0.277871 0.275434 0.271531 0.266162 0.259326 0.251024 0.241256 0.230536 0.219379 0.207784 0.195753 0.183284 0.170379 0.157036 0.143256 0.129578 0.116543 0.10415 0.0923996 0.0812913 0.0708252 0.0610014 0.0518198 0.0433852 0.0358023 0.029071 0.0231913 0.0181633 0.0139869 0.0106622 0.00818909 0.00626977 0.00460636 0.00319886 0.00204727 0.00115159 0.000511818 0.000127954 0 0 6.51061e-06 2.60424e-05 5.85955e-05 0.00010417 0.000162765 0.000234382 0.00031902 0.000416679 0.000688656 0.00129625 0.00223945 0.00351827 0.00513271 0.00708276 0.00936842 0.0119897 0.0149504 0.0182542 0.0219011 0.0258912 0.0302244 0.0349008 0.0399203 0.045283 0.0507182 0.0559552 0.060994 0.0658347 0.0704773 0.0749217 0.0791679 0.083216 0.0868189 0.0897297 0.0919483 0.0934747 0.0943091 0.0944512 0.0939012 0.0926591 0.0908344 0.0885368 0.0857663 0.0825228 0.0788064 0.0746171 0.0699548 0.0648196 0.0596446 0.0548629 0.0504744 0.0464792 0.0428773 0.0396686 0.0368532 0.0344311 0.0327771 0.0322659 0.0328976 0.0346721 0.0375895 0.0416498 0.0468529 0.0531989 0.060616 0.0690326 0.0784486 0.088864 0.100279 0.112693 0.126107 0.14052 0.155333 0.169946 0.184359 0.198573 0.212586 0.2264 0.240014 0.253429 0.265995 0.277064 0.286636 0.294712 0.301291 0.306373 0.309959 0.312047 0.312577 0.311486 0.308775 0.304443 0.29849 0.290917 0.281723 0.270908 0.259034 0.246662 0.233792 0.220424 0.206558 0.192193 0.177331 0.161971 0.14671 0.132147 0.118282 0.105114 0.0926436 0.080871 0.0697959 0.0594184 0.0498657 0.041265 0.0336162 0.0269194 0.0211746 0.0163817 0.0125408 0.00965185 0.00738969 0.00542916 0.00377025 0.00241296 0.00135729 0.00060324 0.00015081 0 0 1.73639e-05 6.94557e-05 0.000156275 0.000277823 0.000434098 0.000625102 0.000850833 0.00111129 0.00158599 0.00245443 0.00371662 0.00537256 0.00742224 0.00986567 0.0127029 0.0159338 0.019552 0.0235509 0.0279306 0.032691 0.0378322 0.0433541 0.0492568 0.0555402 0.061897 0.0680199 0.0739088 0.0795638 0.0849848 0.0901718 0.0951249 0.0998441 0.104051 0.107469 0.110098 0.111937 0.112987 0.113247 0.112718 0.111399 0.109415 0.106888 0.103819 0.100208 0.0960545 0.0913588 0.0861208 0.0803406 0.0745032 0.0690935 0.0641115 0.0595574 0.055431 0.0517324 0.0484615 0.0456184 0.0436204 0.042885 0.0434121 0.0452018 0.048254 0.0525688 0.0581461 0.064986 0.0730081 0.0821323 0.0923585 0.103687 0.116117 0.129649 0.144284 0.16002 0.176198 0.192158 0.207898 0.22342 0.238723 0.253808 0.268673 0.28332 0.29704 0.309123 0.319571 0.328383 0.335558 0.341098 0.345002 0.34727 0.347831 0.346614 0.343619 0.338845 0.332294 0.323965 0.313858 0.301972 0.288916 0.275297 0.261114 0.246368 0.231058 0.215185 0.198749 0.181749 0.164844 0.14869 0.133289 0.118639 0.104741 0.0915952 0.0792012 0.067559 0.0568213 0.0471403 0.0385161 0.0309487 0.0244381 0.0189843 0.0145874 0.0112472 0.00861111 0.00632653 0.00439343 0.00281179 0.00158163 0.000702948 0.000175737 0 0 3.02548e-05 0.000121019 0.000272294 0.000484077 0.000756371 0.00108917 0.00148249 0.00193631 0.00264931 0.00382017 0.00544888 0.00753544 0.0100798 0.0130821 0.0165422 0.0204602 0.0248172 0.0295945 0.034792 0.0404097 0.0464477 0.052906 0.0597845 0.0670832 0.0744553 0.0815538 0.0883787 0.0949301 0.101208 0.107212 0.112943 0.1184 0.123273 0.127251 0.130335 0.132524 0.133818 0.134218 0.133723 0.132334 0.13018