<?xml version="1.0"?> 
<VTKFile type="StructuredGrid" version="0.1"> 
<StructuredGrid WholeExtent="0 128 0 128 0 0"> 
<Piece Extent="0 128 0 128 0 0"> 
<PointData>
<DataArray type="Float32" Name="u" format="ascii" NumberOfComponents="1"> 
0 0 0 0 0 0 0 0 0 0 0 0 0 0 0 0 0 0 0 0 0 0 0 0 0 0 0 0 0 0 0 0 0 0 0 0 0 0 0 0 0 0 0 0 0 0 0 0 0 0 0 0 0 0 0 0 0 0 0 0 0 0 0 0 0 0 0 0 0 0 0 0 0 0 0 0 0 0 0 0 0 0 0 0 0 0 0 0 0 0 0 0 0 0 0 0 0 0 0 0 0 0 0 0 0 0 0 0 0 0 0 0 0 0 0 0 0 0 0 0 0 0 0 0 0 0 0 0 0 0 -3.35313e-07 -1.34125e-06 -3.01781e-06 -5.365e-06 -8.38281e-06 -1.20713e-05 -1.64303e-05 -2.146e-05 -2.71842e-05 -3.36268e-05 -4.07877e-05 -4.8667e-05 -5.72647e-05 -6.65807e-05 -7.66152e-05 -8.7368e-05 -9.84706e-05 -0.000109555 -0.00012062 -0.000131666 -0.000142694 -0.000153703 -0.000164694 -0.000175665 -0.00018635 -0.00019648 -0.000206056 -0.000215076 -0.000223542 -0.000231453 -0.000238809 -0.00024561 -0.00025174 -0.000257082 -0.000261637 -0.000265405 -0.000268384 -0.000270577 -0.000271981 -0.000272599 -0.000272677 -0.000272463 -0.000271958 -0.000271163 -0.000270075 -0.000268697 -0.000267027 -0.000265066 -0.000262735 -0.000259955 -0.000256725 -0.000253047 -0.000248919 -0.000244342 -0.000239315 -0.00023384 -0.000227312 -0.000219129 -0.000209292 -0.0001978 -0.000184652 -0.00016985 -0.000153393 -0.000135281 -0.00011564 -9.45963e-05 -7.2149e-05 -4.82985e-05 -2.30447e-05 3.6122e-06 3.16723e-05 6.11356e-05 9.08055e-05 0.000119485 0.000147175 0.000173875 0.000199585 0.000224305 0.000248035 0.000270774 0.000291557 0.000309417 0.000324353 0.000336365 0.000345454 0.00035162 0.000354862 0.00035518 0.000352722 0.000347635 0.000339919 0.000329573 0.000316599 0.000300995 0.000282762 0.000261899 0.000239635 0.000217194 0.000194577 0.000171785 0.000148817 0.000125672 0.000102352 7.88565e-05 5.6478e-05 3.65105e-05 1.89537e-05 3.80782e-06 -8.92721e-06 -1.92514e-05 -2.71647e-05 -3.26672e-05 -3.63062e-05 -3.8629e-05 -3.96358e-05 -3.93264e-05 -3.77009e-05 -3.47593e-05 -3.05016e-05 -2.49277e-05 -1.90853e-05 -1.40218e-05 -9.73738e-06 -6.23192e-06 -3.50546e-06 -1.55798e-06 -3.89495e-07 0 0 -1.34125e-06 -5.365e-06 -1.20713e-05 -2.146e-05 -3.35313e-05 -4.8285e-05 -6.57213e-05 -8.584e-05 -0.000108737 -0.000134507 -0.000163151 -0.000194668 -0.000229059 -0.000266323 -0.000306461 -0.000349472 -0.000393883 -0.000438218 -0.000482479 -0.000526665 -0.000570777 -0.000614813 -0.000658775 -0.000702662 -0.000745401 -0.000785922 -0.000824223 -0.000860305 -0.000894167 -0.000925811 -0.000955235 -0.000982439 -0.00100696 -0.00102833 -0.00104655 -0.00106162 -0.00107354 -0.00108231 -0.00108793 -0.00109039 -0.00109071 -0.00108985 -0.00108783 -0.00108465 -0.0010803 -0.00107479 -0.00106811 -0.00106027 -0.00105094 -0.00103982 -0.0010269 -0.00101219 -0.000995675 -0.000977366 -0.000957261 -0.000935358 -0.000909248 -0.000876518 -0.000837168 -0.000791199 -0.00073861 -0.000679401 -0.000613573 -0.000541126 -0.000462562 -0.000378385 -0.000288596 -0.000193194 -9.21789e-05 1.44488e-05 0.000126689 0.000244543 0.000363222 0.000477942 0.000588701 0.000695501 0.00079834 0.000897219 0.000992139 0.0010831 0.00116623 0.00123767 0.00129741 0.00134546 0.00138182 0.00140648 0.00141945 0.00142072 0.00141089 0.00139054 0.00135967 0.00131829 0.00126639 0.00120398 0.00113105 0.0010476 0.000958538 0.000868776 0.00077831 0.00068714 0.000595267 0.00050269 0.00040941 0.000315426 0.000225912 0.000146042 7.58148e-05 1.52313e-05 -3.57088e-05 -7.70056e-05 -0.000108659 -0.000130669 -0.000145225 -0.000154516 -0.000158543 -0.000157306 -0.000150804 -0.000139037 -0.000122006 -9.97108e-05 -7.6341e-05 -5.60873e-05 -3.89495e-05 -2.49277e-05 -1.40218e-05 -6.23192e-06 -1.55798e-06 0 0 -3.01781e-06 -1.20713e-05 -2.71603e-05 -4.8285e-05 -7.54453e-05 -0.000108641 -0.000147873 -0.00019314 -0.000244658 -0.000302641 -0.000367089 -0.000438003 -0.000515382 -0.000599227 -0.000689537 -0.000786312 -0.000886236 -0.000985991 -0.00108558 -0.001185 -0.00128425 -0.00138333 -0.00148224 -0.00158099 -0.00167715 -0.00176832 -0.0018545 -0.00193569 -0.00201188 -0.00208307 -0.00214928 -0.00221049 -0.00226566 -0.00231374 -0.00235473 -0.00238864 -0.00241546 -0.00243519 -0.00244783 -0.00245339 -0.00245409 -0.00245217 -0.00244763 -0.00244046 -0.00243068 -0.00241827 -0.00240325 -0.0023856 -0.00236462 -0.00233959 -0.00231053 -0.00227742 -0.00224027 -0.00219907 -0.00215384 -0.00210456 -0.00204581 -0.00197216 -0.00188363 -0.0017802 -0.00166187 -0.00152865 -0.00138054 -0.00121753 -0.00104076 -0.000851367 -0.000649341 -0.000434686 -0.000207403 3.25098e-05 0.000285051 0.000550221 0.00081725 0.00107537 0.00132458 0.00156488 0.00179627 0.00201874 0.00223231 0.00243697 0.00262402 0.00278475 0.00291918 0.00302729 0.00310909 0.00316458 0.00319376 0.00319662 0.0031745 0.00312872 0.00305927 0.00296616 0.00284939 0.00270895 0.00254485 0.00235709 0.00215671 0.00195475 0.0017512 0.00154606 0.00133935 0.00113105 0.000921172 0.000709708 0.000508302 0.000328594 0.000170583 3.42704e-05 -8.03449e-05 -0.000173263 -0.000244482 -0.000294005 -0.000326756 -0.000347661 -0.000356722 -0.000353938 -0.000339308 -0.000312834 -0.000274514 -0.000224349 -0.000171767 -0.000126196 -8.76364e-05 -5.60873e-05 -3.15491e-05 -1.40218e-05 -3.50546e-06 0 0 -5.365e-06 -2.146e-05 -4.8285e-05 -8.584e-05 -0.000134125 -0.00019314 -0.000262885 -0.00034336 -0.000434947 -0.000538028 -0.000652603 -0.000778672 -0.000916235 -0.00106529 -0.00122584 -0.00139789 -0.00157553 -0.00175287 -0.00192992 -0.00210666 -0.00228311 -0.00245925 -0.0026351 -0.00281065 -0.00298161 -0.00314369 -0.00329689 -0.00344122 -0.00357667 -0.00370324 -0.00382094 -0.00392976 -0.00402784 -0.00411332 -0.0041862 -0.00424647 -0.00429415 -0.00432923 -0.0043517 -0.00436158 -0.00436282 -0.00435941 -0.00435134 -0.0043386 -0.00432121 -0.00429915 -0.00427244 -0.00424106 -0.00420377 -0.00415928 -0.00410761 -0.00404875 -0.0039827 -0.00390946 -0.00382904 -0.00374143 -0.00363699 -0.00350607 -0.00334867 -0.00316479 -0.00295444 -0.0027176 -0.00245429 -0.0021645 -0.00185025 -0.00151354 -0.00115438 -0.000772775 -0.000368716 5.77952e-05 0.000506757 0.00097817 0.00145289 0.00191177 0.0023548 0.002782 0.00319336 0.00358888 0.00396855 0.00433239 0.00466492 0.00495067 0.00518965 0.00538185 0.00552727 0.00562592 0.00567779 0.00568288 0.00564356 0.00556216 0.0054387 0.00527317 0.00506558 0.00481591 0.00452419 0.00419039 0.00383415 0.0034751 0.00311324 0.00274856 0.00238107 0.00201076 0.00163764 0.0012617 0.000903649 0.000584167 0.000303259 6.09252e-05 -0.000142835 -0.000308022 -0.000434635 -0.000522675 -0.000580899 -0.000618065 -0.000634173 -0.000629223 -0.000603215 -0.000556149 -0.000488025 -0.000398843 -0.000305364 -0.000224349 -0.000155798 -9.97108e-05 -5.60873e-05 -2.49277e-05 -6.23192e-06 0 0 -8.38281e-06 -3.35313e-05 -7.54453e-05 -0.000134125 -0.00020957 -0.000301781 -0.000410758 -0.0005365 -0.000679605 -0.000840669 -0.00101969 -0.00121667 -0.00143162 -0.00166452 -0.00191538 -0.0021842 -0.00246177 -0.00273886 -0.0030155 -0.00329166 -0.00356735 -0.00384258 -0.00411734 -0.00439164 -0.00465876 -0.00491201 -0.00515139 -0.00537691 -0.00558855 -0.00578632 -0.00597022 -0.00614025 -0.0062935 -0.00642706 -0.00654093 -0.00663511 -0.00670961 -0.00676442 -0.00679954 -0.00681497 -0.00681691 -0.00681158 -0.00679896 -0.00677906 -0.00675189 -0.00671743 -0.00667568 -0.00662666 -0.00656838 -0.00649887 -0.00641814 -0.00632617 -0.00622297 -0.00610854 -0.00598288 -0.00584599 -0.0056828 -0.00547823 -0.0052323 -0.00494499 -0.00461631 -0.00424626 -0.00383483 -0.00338204 -0.00289101 -0.00236491 -0.00180372 -0.00120746 -0.000576118 9.0305e-05 0.000791808 0.00152839 0.00227014 0.00298714 0.00367938 0.00434688 0.00498963 0.00560762 0.00620087 0.00676936 0.00728894 0.00773542 0.00810882 0.00840914 0.00863636 0.0087905 0.00887154 0.0088795 0.00881805 0.00869088 0.00849797 0.00823933 0.00791496 0.00752487 0.00706904 0.00654748 0.00599086 0.00542985 0.00486443 0.00429462 0.00372042 0.00314181 0.00255881 0.00197141 0.00141195 0.000912761 0.000473843 9.51956e-05 -0.00022318 -0.000481285 -0.000679118 -0.00081668 -0.000907654 -0.000965726 -0.000990895 -0.00098316 -0.000942523 -0.000868982 -0.000762539 -0.000623192 -0.000477132 -0.000350546 -0.000243434 -0.000155798 -8.76364e-05 -3.89495e-05 -9.73738e-06 0 0 -1.20713e-05 -4.8285e-05 -0.000108641 -0.00019314 -0.000301781 -0.000434565 -0.000591491 -0.00077256 -0.000978631 -0.00121056 -0.00146836 -0.00175201 -0.00206153 -0.00239691 -0.00275815 -0.00314525 -0.00354494 -0.00394396 -0.00434231 -0.00473999 -0.00513699 -0.00553332 -0.00592897 -0.00632395 -0.00670861 -0.0070733 -0.00741801 -0.00774274 -0.00804751 -0.0083323 -0.00859711 -0.00884195 -0.00906263 -0.00925496 -0.00941894 -0.00955456 -0.00966184 -0.00974076 -0.00979133 -0.00981355 -0.00981636 -0.00980867 -0.00979051 -0.00976185 -0.00972272 -0.00967309 -0.00961299 -0.00954239 -0.00945847 -0.00935838 -0.00924212 -0.00910968 -0.00896107 -0.0087963 -0.00861535 -0.00841822 -0.00818323 -0.00788866 -0.00753451 -0.00712079 -0.00664749 -0.00611461 -0.00552216 -0.00487013 -0.00416306 -0.00340547 -0.00259736 -0.00173874 -0.00082961 0.000130039 0.0011402 0.00220088 0.003269 0.00430148 0.00529831 0.00625951 0.00718506 0.00807497 0.00892925 0.00974788 0.0104961 0.011139 0.0116767 0.0121092 0.0124364 0.0126583 0.012775 0.0127865 0.012698 0.0125149 0.0122371 0.0118646 0.0113975 0.0108358 0.0101794 0.00942838 0.00862684 0.00781898 0.00700479 0.00618426 0.0053574 0.00452421 0.00368469 0.00283883 0.00203321 0.00131438 0.000682334 0.000137082 -0.00032138 -0.00069305 -0.00097793 -0.00117602 -0.00130702 -0.00139065 -0.00142689 -0.00141575 -0.00135723 -0.00125133 -0.00109806 -0.000897397 -0.000687069 -0.000504786 -0.000350546 -0.000224349 -0.000126196 -5.60873e-05 -1.40218e-05 0 0 -1.64303e-05 -6.57213e-05 -0.000147873 -0.000262885 -0.000410758 -0.000591491 -0.000805085 -0.00105154 -0.00133203 -0.00164771 -0.0019986 -0.00238468 -0.00280597 -0.00326246 -0.00375414 -0.00428103 -0.00482506 -0.00536817 -0.00591037 -0.00645165 -0.00699201 -0.00753146 -0.00806999 -0.0086076 -0.00913117 -0.00962754 -0.0100967 -0.0105387 -0.0109536 -0.0113412 -0.0117016 -0.0120349 -0.0123353 -0.012597 -0.0128202 -0.0130048 -0.0131508 -0.0132583 -0.0133271 -0.0133573 -0.0133612 -0.0133507 -0.013326 -0.013287 -0.0132337 -0.0131662 -0.0130843 -0.0129883 -0.012874 -0.0127378 -0.0125795 -0.0123993 -0.012197 -0.0119727 -0.0117264 -0.0114581 -0.0111383 -0.0107373 -0.0102553 -0.00969218 -0.00904797 -0.00832266 -0.00751627 -0.00662879 -0.00566638 -0.00463522 -0.0035353 -0.00236662 -0.00112919 0.000176998 0.00155194 0.00299565 0.00444947 0.00585479 0.00721159 0.00851988 0.00977967 0.0109909 0.0121537 0.0132679 0.0142863 0.0151614 0.0158933 0.0164819 0.0169273 0.0172294 0.0173882 0.0174038 0.0172834 0.0170341 0.016656 0.0161491 0.0155133 0.0147487 0.0138553 0.0128331 0.0117421 0.0106425 0.00953429 0.00841746 0.00729202 0.00615795 0.00501527 0.00386397 0.00276742 0.00178901 0.000928732 0.000186583 -0.000437433 -0.000943318 -0.00133107 -0.00160069 -0.001779 -0.00189282 -0.00194215 -0.00192699 -0.00184734 -0.00170321 -0.00149458 -0.00122146 -0.000935178 -0.000687069 -0.000477132 -0.000305364 -0.000171767 -7.6341e-05 -1.90853e-05 0 0 -2.146e-05 -8.584e-05 -0.00019314 -0.00034336 -0.0005365 -0.00077256 -0.00105154 -0.00137344 -0.00173979 -0.00215211 -0.00261041 -0.00311469 -0.00366494 -0.00426117 -0.00490337 -0.00559155 -0.00630212 -0.00701149 -0.00771967 -0.00842665 -0.00913243 -0.00983701 -0.0105404 -0.0112426 -0.0119264 -0.0125747 -0.0131876 -0.0137649 -0.0143067 -0.014813 -0.0152838 -0.015719 -0.0161113 -0.0164533 -0.0167448 -0.0169859 -0.0171766 -0.0173169 -0.0174068 -0.0174463 -0.0174513 -0.0174376 -0.0174053 -0.0173544 -0.0172848 -0.0171966 -0.0170898 -0.0169643 -0.0168151 -0.0166371 -0.0164304 -0.016195 -0.0159308 -0.0156379 -0.0153162 -0.0149657 -0.014548 -0.0140243 -0.0133947 -0.0126592 -0.0118178 -0.0108704 -0.00981717 -0.00865801 -0.00740099 -0.00605416 -0.00461754 -0.0030911 -0.00147486 0.000231181 0.00202703 0.00391268 0.00581156 0.00764707 0.00941922 0.011128 0.0127734 0.0143555 0.0158742 0.0173296 0.0186597 0.0198027 0.0207586 0.0215274 0.0221091 0.0225037 0.0227112 0.0227315 0.0225742 0.0222486 0.0217548 0.0210927 0.0202623 0.0192637 0.0180967 0.0167616 0.0153366 0.0139004 0.012453 0.0109942 0.00952427 0.00804304 0.00655056 0.00504682 0.00361459 0.00233667 0.00121304 0.000243701 -0.000571342 -0.00123209 -0.00173854 -0.0020907 -0.0023236 -0.00247226 -0.00253669 -0.00251689 -0.00241286 -0.00222459 -0.0019521 -0.00159537 -0.00122146 -0.000897397 -0.000623192 -0.000398843 -0.000224349 -9.97108e-05 -2.49277e-05 0 0 -2.68433e-05 -0.000107373 -0.00024159 -0.000429493 -0.000671083 -0.00096636 -0.00131532 -0.00171797 -0.00217524 -0.00268805 -0.00325642 -0.00388033 -0.00455979 -0.00529479 -0.00608535 -0.00693145 -0.00780343 -0.0086716 -0.00953596 -0.0103965 -0.0112533 -0.0121063 -0.0129554 -0.0138008 -0.0146223 -0.0154001 -0.016134 -0.0168242 -0.0174706 -0.0180732 -0.018632 -0.019147 -0.0196106 -0.020015 -0.0203605 -0.0206468 -0.0208741 -0.0210422 -0.0211513 -0.0212014 -0.0212121 -0.0212032 -0.0211748 -0.0211269 -0.0210594 -0.0209723 -0.0208657 -0.0207395 -0.0205849 -0.020393 -0.0201638 -0.0198973 -0.0195935 -0.0192525 -0.0188741 -0.0184585 -0.0179545 -0.017311 -0.0165281 -0.0156057 -0.0145438 -0.0133425 -0.0120018 -0.0105215 -0.00891223 -0.00718417 -0.00533738 -0.00337185 -0.00128758 0.000915425 0.00323717 0.00567765 0.00813712 0.0105158 0.0128137 0.0150308 0.0171672 0.0192228 0.0211976 0.0230916 0.0248237 0.0263129 0.0275591 0.0285624 0.0293227 0.02984 0.0301144 0.0301458 0.0299461 0.0295271 0.0288889 0.0280314 0.0269547 0.0256587 0.0241434 0.0224089 0.0205567 0.0186884 0.0168041 0.0149036 0.0129871 0.0110545 0.00910588 0.00714114 0.00526706 0.00359038 0.00211109 0.000829199 -0.000255294 -0.00114239 -0.00183209 -0.00232439 -0.00266293 -0.00289135 -0.00300966 -0.00301784 -0.00291591 -0.00270386 -0.00238169 -0.0019494 -0.00149251 -0.00109654 -0.000761483 -0.000487349 -0.000274134 -0.000121837 -3.04593e-05 0 0 -3.22633e-05 -0.000129053 -0.00029037 -0.000516213 -0.000806582 -0.00116148 -0.0015809 -0.00206485 -0.0026117 -0.00321983 -0.00388923 -0.00461991 -0.00541186 -0.00626509 -0.00717959 -0.00815537 -0.00915628 -0.0101462 -0.011125 -0.0120929 -0.0130497 -0.0139955 -0.0149302 -0.015854 -0.0167468 -0.0175887 -0.0183797 -0.0191198 -0.019809 -0.0204474 -0.0210348 -0.0215713 -0.0220525 -0.0224737 -0.0228351 -0.0231366 -0.0233781 -0.0235598 -0.0236815 -0.0237434 -0.0237688 -0.0237813 -0.0237807 -0.0237672 -0.0237406 -0.0237011 -0.0236486 -0.0235831 -0.0234868 -0.023342 -0.0231487 -0.0229068 -0.0226164 -0.0222774 -0.0218899 -0.0214539 -0.0209 -0.020159 -0.0192308 -0.0181156 -0.0168131 -0.0153236 -0.0136469 -0.0117831 -0.00974544 -0.00754711 -0.00518815 -0.00266855 1.16899e-05 0.00285257 0.00585408 0.00901623 0.012208 0.0152985 0.0182876 0.0211753 0.0239617 0.0266468 0.0292305 0.0317129 0.0339861 0.0359423 0.0375815 0.0389037 0.039909 0.0405973 0.0409686 0.0410229 0.0407746 0.0402383 0.0394139 0.0383013 0.0369007 0.0352119 0.0332351 0.0309701 0.0285486 0.0261022 0.0236309 0.0211347 0.0186136 0.0160676 0.0134966 0.0109007 0.00841716 0.00618316 0.00419872 0.00246384 0.000978521 -0.000257243 -0.00124345 -0.0019801 -0.00251913 -0.00291251 -0.00316021 -0.00326226 -0.00321864 -0.00302935 -0.0026944 -0.00221379 -0.00169493 -0.00124526 -0.000864761 -0.000553447 -0.000311314 -0.000138362 -3.45904e-05 0 0 -3.77199e-05 -0.00015088 -0.000339479 -0.000603518 -0.000942998 -0.00135792 -0.00184828 -0.00241407 -0.00304917 -0.00374743 -0.00450884 -0.00533342 -0.00622115 -0.00717205 -0.0081861 -0.00926331 -0.0103607 -0.0114352 -0.0124868 -0.0135156 -0.0145216 -0.0155047 -0.0164649 -0.0174023 -0.0182998 -0.0191406 -0.0199245 -0.0206516 -0.0213219 -0.0219355 -0.0224922 -0.0229921 -0.0234372 -0.0238294 -0.0241687 -0.0244552 -0.0246888 -0.0248695 -0.0249974 -0.0250724 -0.0251215 -0.0251716 -0.0252229 -0.0252752 -0.0253285 -0.025383 -0.0254385 -0.025495 -0.0255209 -0.0254842 -0.0253851 -0.0252234 -0.0249993 -0.0247126 -0.0243635 -0.0239519 -0.0233845 -0.0225682 -0.021503 -0.0201888 -0.0186257 -0.0168137 -0.0147527 -0.0124428 -0.00990063 -0.00714299 -0.00416984 -0.000981197 0.00242295 0.00604261 0.00987776 0.0139284 0.0180243 0.0219951 0.0258408 0.0295615 0.0331571 0.0366276 0.039973 0.0431934 0.0461466 0.0486907 0.0508256 0.0525514 0.053868 0.0547754 0.0552736 0.0553627 0.0550598 0.0543821 0.0533296 0.0519023 0.0501003 0.0479234 0.0453717 0.0424452 0.0393124 0.0361419 0.0329336 0.0296875 0.0264037 0.0230821 0.0197227 0.0163255 0.0130649 0.010115 0.00747594 0.00514763 0.0031301 0.00142335 2.73695e-05 -0.00105783 -0.00189221 -0.00253572 -0.00298836 -0.00325013 -0.00332104 -0.00320107 -0.00289024 -0.00238854 -0.00182873 -0.00134355 -0.000933024 -0.000597135 -0.000335889 -0.000149284 -3.7321e-05 0 0 -4.32132e-05 -0.000172853 -0.000388918 -0.000691411 -0.00108033 -0.00155567 -0.00211744 -0.00276564 -0.00348765 -0.00427086 -0.00511527 -0.00602087 -0.00698767 -0.00801568 -0.00910488 -0.0102553 -0.0114166 -0.0125387 -0.0136214 -0.0146649 -0.015669 -0.0166338 -0.0175594 -0.0184456 -0.0192814 -0.0200557 -0.0207685 -0.0214197 -0.0220094 -0.0225375 -0.0230041 -0.0234092 -0.0237645 -0.0240819 -0.0243613 -0.0246026 -0.024806 -0.0249714 -0.0250989 -0.0251883 -0.0252701 -0.0253744 -0.0255014 -0.025651 -0.0258232 -0.0260179 -0.0262353 -0.0264753 -0.026687 -0.0268196 -0.026873 -0.0268472 -0.0267423 -0.0265582 -0.0262949 -0.0259525 -0.0254081 -0.0245388 -0.0233446 -0.0218255 -0.0199816 -0.0178127 -0.0153191 -0.0125005 -0.00937781 -0.0059718 -0.00228246 0.00169021 0.00594621 0.0104855 0.0153082 0.0204142 0.0255859 0.0306056 0.0354734 0.0401893 0.0447532 0.0491651 0.0534251 0.0575332 0.0613055 0.0645583 0.0672916 0.0695054 0.0711997 0.0723744 0.0730297 0.0731654 0.0728017 0.0719586 0.0706363 0.0688345 0.0665534 0.063793 0.0605533 0.0568342 0.0528481 0.0488073 0.044712 0.040562 0.0363573 0.032098 0.0277841 0.0234156 0.0192103 0.015386 0.0119427 0.00888057 0.00619945 0.00389938 0.00198037 0.000442411 -0.000782157 -0.00176099 -0.0024941 -0.00298147 -0.00322312 -0.00321903 -0.00296921 -0.00247366 -0.0018939 -0.00139143 -0.000966273 -0.000618415 -0.000347858 -0.000154604 -3.86509e-05 0 0 -4.87431e-05 -0.000194972 -0.000438688 -0.000779889 -0.00121858 -0.00175475 -0.00238841 -0.00311956 -0.00392714 -0.00479012 -0.00570849 -0.00668226 -0.00771142 -0.00879597 -0.00993592 -0.0111313 -0.0123241 -0.0134566 -0.0145287 -0.0155405 -0.0164919 -0.017383 -0.0182137 -0.018984 -0.0196916 -0.0203341 -0.0209116 -0.021424 -0.0218713 -0.0222535 -0.0225707 -0.0228228 -0.0230347 -0.0232313 -0.0234128 -0.023579 -0.0237299 -0.0238656 -0.023986 -0.0240912 -0.0242146 -0.0243896 -0.0246163 -0.0248946 -0.0252245 -0.025606 -0.0260392 -0.026524 -0.0269853 -0.0273481 -0.0276124 -0.0277781 -0.0278454 -0.027814 -0.0276842 -0.0274558 -0.0269706 -0.0260706 -0.0247555 -0.0230256 -0.0208807 -0.0183208 -0.015346 -0.0119562 -0.00817696 -0.00403355 0.000473995 0.00534566 0.0105815 0.0161814 0.0221454 0.0284736 0.0348929 0.0411301 0.0471854 0.0530587 0.0587501 0.0642594 0.0695868 0.0747322 0.0794626 0.083545 0.0869794 0.0897657 0.091904 0.0933943 0.0942366 0.0944308 0.0940002 0.0929678 0.0913337 0.0890978 0.0862602 0.0828209 0.0787798 0.074137 0.0691556 0.0640986 0.0589661 0.0537581 0.0484746 0.0431155 0.037681 0.0321709 0.0268533 0.021996 0.0175991 0.0136627 0.0101866 0.00717086 0.00461555 0.00252063 0.000811026 -0.000588325 -0.00167742 -0.00245627 -0.00292487 -0.00308321 -0.0029313 -0.00246914 -0.00189044 -0.00138889 -0.000964509 -0.000617286 -0.000347223 -0.000154321 -3.85804e-05 0 0 -5.43096e-05 -0.000217238 -0.000488786 -0.000868954 -0.00135774 -0.00195515 -0.00266117 -0.00347581 -0.00436764 -0.00530521 -0.00628853 -0.00731758 -0.00839239 -0.00951294 -0.0106792 -0.0118913 -0.0130832 -0.014189 -0.0152088 -0.0161426 -0.0169904 -0.0177521 -0.0184278 -0.0190174 -0.0195304 -0.0199758 -0.0203539 -0.0206645 -0.0209077 -0.0210835 -0.0211918 -0.0212327 -0.0212475 -0.0212777 -0.0213233 -0.0213841 -0.0214604 -0.0215519 -0.0216588 -0.0217811 -0.0219551 -0.0222172 -0.0225675 -0.0230059 -0.0235325 -0.0241471 -0.02485 -0.025641 -0.0264157 -0.0270698 -0.0276033 -0.0280162 -0.0283085 -0.0284802 -0.0285312 -0.0284617 -0.0280722 -0.0271636 -0.0257359 -0.023789 -0.021323 -0.0183378 -0.0148335 -0.0108101 -0.00629809 -0.00132822 0.00409953 0.00998517 0.0163287 0.0231301 0.0303894 0.0381066 0.0459452 0.0535685 0.0609768 0.0681699 0.0751478 0.0819105 0.0884581 0.0947905 0.100618 0.105651 0.109889 0.113332 0.115981 0.117835 0.118894 0.119159 0.118655 0.11741 0.115422 0.112692 0.109221 0.105007 0.100051 0.0943537 0.0882349 0.0820157 0.075696 0.0692759 0.0627554 0.0561345 0.0494132 0.0425915 0.0359939 0.0299451 0.0244451 0.0194939 0.0150914 0.0112378 0.00793292 0.00517682 0.00288734 0.000982284 -0.00053834 -0.00167453 -0.00242629 -0.00279362 -0.00277652 -0.00237499 -0.00181835 -0.00133593 -0.000927731 -0.000593748 -0.000333983 -0.000148437 -3.71092e-05 0 0 -5.99128e-05 -0.000239651 -0.000539215 -0.000958605 -0.00149782 -0.00215686 -0.00293573 -0.00383442 -0.00480915 -0.00581613 -0.00685536 -0.00792685 -0.00903058 -0.0101666 -0.0113348 -0.0125353 -0.0136937 -0.0147359 -0.0156617 -0.0164712 -0.0171643 -0.0177412 -0.0182017 -0.0185459 -0.0187977 -0.0189808 -0.0190954 -0.0191413 -0.0191186 -0.0190274 -0.0188675 -0.018639 -0.0184031 -0.018221 -0.0180927 -0.0180182 -0.0179974 -0.0180305 -0.0181173 -0.0182579 -0.0184915 -0.0188572 -0.019355 -0.019985 -0.0207471 -0.0216414 -0.0226678 -0.0238263 -0.0249782 -0.0259847 -0.0268458 -0.0275615 -0.0281318 -0.0285567 -0.0288361 -0.0289702 -0.0287128 -0.027818 -0.0262857 -0.0241159 -0.0213086 -0.0178639 -0.0137816 -0.00906194 -0.0037412 0.00214416 0.00859414 0.0156087 0.0231879 0.0313317 0.0400402 0.0493132 0.0587428 0.0679209 0.0768475 0.0855226 0.0939462 0.102118 0.110039 0.117708 0.124772 0.130876 0.13602 0.140205 0.143431 0.145697 0.147003 0.14735 0.146767 0.145284 0.142901 0.139618 0.135435 0.130351 0.124368 0.117484 0.110086 0.102559 0.0949017 0.0871155 0.0791999 0.071155 0.0629808 0.0546773 0.0466322 0.0392333 0.0324807 0.0263743 0.0209141 0.0161002 0.0119325 0.008411 0.00544678 0.00295083 0.000923154 -0.000636255 -0.0017274 -0.00235027 -0.00250487 -0.0021912 -0.00167764 -0.00123255 -0.000855939 -0.000547801 -0.000308138 -0.00013695 -3.42375e-05 0 0 -6.55526e-05 -0.000262211 -0.000589974 -0.00104884 -0.00163882 -0.00235989 -0.00321208 -0.00419537 -0.00525167 -0.00632288 -0.00740901 -0.00851005 -0.009626 -0.0107569 -0.0119026 -0.0130633 -0.0141559 -0.0150972 -0.0158873 -0.0165262 -0.0170138 -0.0173503 -0.0175355 -0.0175695 -0.0174936 -0.0173491 -0.017136 -0.0168543 -0.0165041 -0.0160852 -0.0155978 -0.0150417 -0.0145014 -0.0140612 -0.0137211 -0.0134811 -0.0133411 -0.0133012 -0.0133614 -0.0135217 -0.0138238 -0.0143096 -0.0149789 -0.0158319 -0.0168685 -0.0180887 -0.0194926 -0.02108 -0.0226728 -0.0240928 -0.0253398 -0.0264139 -0.0273151 -0.0280434 -0.0285988 -0.0289814 -0.0288925 -0.0280336 -0.0264049 -0.0240061 -0.0208375 -0.0168989 -0.0121904 -0.00671188 -0.000506283 0.00638362 0.0139578 0.0222163 0.0311591 0.0407863 0.0510977 0.0620934 0.0732858 0.0841872 0.0947976 0.105117 0.115145 0.124883 0.134329 0.143485 0.151924 0.15922 0.165373 0.170385 0.174253 0.176979 0.178563 0.179004 0.178336 0.176591 0.173771 0.169875 0.164902 0.158854 0.151729 0.143529 0.134709 0.125727 0.116583 0.107277 0.097808 0.088177 0.0783838 0.0684283 0.0587681 0.0498606 0.0417058 0.0343038 0.0276545 0.021758 0.0166142 0.0122231 0.00848935 0.00531732 0.00270706 0.000658561 -0.000828172 -0.00175314 -0.00211634 -0.00191778 -0.0014683 -0.00107875 -0.000749133 -0.000479445 -0.000269688 -0.000119861 -2.99653e-05 0 0 -7.02375e-05 -0.00028095 -0.000632137 -0.0011238 -0.00175594 -0.00252855 -0.00344164 -0.0044952 -0.00561408 -0.00672314 -0.00782236 -0.00891176 -0.00999132 -0.0110611 -0.012121 -0.013171 -0.0141196 -0.014875 -0.0154373 -0.0158063 -0.0159823 -0.015965 -0.0157546 -0.015351 -0.0148181 -0.0142197 -0.0135559 -0.0128266 -0.0120318 -0.0111716 -0.0102458 -0.00925466 -0.00831093 -0.00752756 -0.00690454 -0.00644189 -0.0061396 -0.00599767 -0.00601609 -0.00619488 -0.006578 -0.00720941 -0.00808913 -0.00921714 -0.0105935 -0.0122181 -0.014091 -0.0162122 -0.0183568 -0.0203 -0.0220418 -0.0235821 -0.024921 -0.0260584 -0.0269944 -0.0277289 -0.0279038 -0.0271608 -0.0255 -0.0229213 -0.0194247 -0.0150102 -0.00967793 -0.00342775 0.00369055 0.0116272 0.0203822 0.0299556 0.0403474 0.0515576 0.0635861 0.0764329 0.0895228 0.10228 0.114705 0.126798 0.138558 0.149985 0.16108 0.171843 0.18177 0.190356 0.197603 0.20351 0.208077 0.211304 0.213192 0.213739 0.212984 0.210961 0.207673 0.203117 0.197295 0.190207 0.181852 0.17223 0.161875 0.15132 0.140564 0.129608 0.118452 0.107096 0.0955389 0.083782 0.0723579 0.0617999 0.052108 0.0432821 0.0353224 0.0282287 0.022001 0.0166395 0.012043 0.0081106 0.00484233 0.00223818 0.000298135 -0.000977801 -0.00158963 -0.00153735 -0.00117703 -0.000864757 -0.000600526 -0.000384336 -0.000216189 -9.60841e-05 -2.4021e-05 0 0 -7.29756e-05 -0.000291903 -0.000656781 -0.00116761 -0.00182439 -0.00262712 -0.00357581 -0.00467044 -0.00581528 -0.00691458 -0.00796833 -0.00897655 -0.00993922 -0.0108564 -0.0117279 -0.012554 -0.013235 -0.0136714 -0.0138632 -0.0138104 -0.013513 -0.012971 -0.0121845 -0.0111534 -0.00997126 -0.00873184 -0.00743511 -0.00608105 -0.00466968 -0.00320099 -0.00167498 -9.16513e-05 0.00139996 0.00265081 0.00366091 0.00443025 0.00495883 0.00524666 0.00529373 0.00510005 0.00462004 0.00380814 0.00266434 0.00118866 -0.000618919 -0.00275839 -0.00522975 -0.008033 -0.0108875 -0.0135126 -0.0159084 -0.0180748 -0.0200118 -0.0217195 -0.0231978 -0.0244467 -0.0250396 -0.0245499 -0.0229777 -0.0203228 -0.0165853 -0.0117653 -0.00586267 0.00112256 0.00913319 0.018112 0.0280591 0.0389743 0.0508578 0.0637094 0.0775293 0.0923174 0.107402 0.122112 0.136448 0.150409 0.163995 0.177206 0.190043 0.202505 0.214006 0.223959 0.232364 0.239222 0.244532 0.248294 0.250509 0.251175 0.250334 0.248025 0.244247 0.239 0.232285 0.224102 0.214451 0.203331 0.191354 0.179133 0.166668 0.153959 0.141004 0.127806 0.114363 0.100676 0.087358 0.0750244 0.0636747 0.053309 0.0439273 0.0355296 0.0281159 0.0216861 0.0161356 0.0113595 0.00735794 0.00413087 0.00167828 1.91113e-07 -0.000903412 -0.00103253 -0.000790527 -0.000580796 -0.00040333 -0.000258131 -0.000145199 -6.45329e-05 -1.61332e-05 0 0 -7.37671e-05 -0.000295069 -0.000663904 -0.00118027 -0.00184418 -0.00265562 -0.00361459 -0.0047211 -0.00585526 -0.0068972 -0.00784692 -0.00870443 -0.0094697 -0.0101428 -0.0107236 -0.0112122 -0.011502 -0.0114862 -0.011165 -0.0105383 -0.00960612 -0.00836842 -0.00682524 -0.00497657 -0.00295308 -0.000885454 0.00122632 0.00338223 0.00558229 0.00782649 0.0101148 0.0124473 0.0146312 0.0164739 0.0179753 0.0191354 0.0199542 0.0204318 0.0205681 0.0203631 0.0197703 0.0187431 0.0172815 0.0153855 0.0130551 0.0102903 0.00709116 0.00345759 -0.000264838 -0.00373058 -0.00693963 -0.00989199 -0.0125877 -0.0150267 -0.017209 -0.0191346 -0.0202998 -0.0202009 -0.0188378 -0.0162107 -0.0123194 -0.00716406 -0.000744555 0.00693907 0.0158217 0.0258381 0.0369883 0.0492724 0.0626902 0.0772419 0.0929275 0.109747 0.126924 0.143684 0.160026 0.17595 0.191457 0.206546 0.221217 0.23547 0.248632 0.260027 0.269657 0.27752 0.283617 0.287948 0.290513 0.291312 0.290387 0.287781 0.283493 0.277523 0.269872 0.26054 0.249526 0.236831 0.223147 0.209169 0.194896 0.180328 0.165465 0.150308 0.134856 0.119109 0.103768 0.0895339 0.076406 0.0643845 0.0534694 0.0436609 0.0349587 0.0273631 0.0207671 0.015064 0.0102539 0.00633662 0.00331227 0.00118084 -5.76957e-05 -0.00040332 -0.000308792 -0.000226867 -0.000157547 -0.00010083 -5.67168e-05 -2.52075e-05 -6.30187e-06 0 0 -7.2612e-05 -0.000290448 -0.000653508 -0.00116179 -0.0018153 -0.00261403 -0.00355799 -0.00464717 -0.00573402 -0.00667101 -0.00745813 -0.00809539 -0.00858277 -0.00892028 -0.00910793 -0.00914571 -0.00892062 -0.00831966 -0.00734283 -0.00599013 -0.00426156 -0.00215713 0.000323179 0.00317935 0.00623643 0.00931945 0.0124284 0.0155633 0.0187241 0.0219109 0.0251236 0.0283622 0.0313829 0.0339416 0.0360385 0.0376735 0.0388465 0.0395577 0.0398069 0.0395943 0.0388728 0.0375955 0.0357623 0.0333734 0.0304287 0.0269281 0.0228717 0.0182596 0.0135112 0.00904617 0.00486456 0.000966343 -0.00264849 -0.00597993 -0.00902799 -0.0117927 -0.0136844 -0.0141137 -0.0130806 -0.010585 -0.00662697 -0.0012065 0.0056764 0.0140218 0.0237559 0.0348053 0.0471699 0.0608498 0.0758448 0.0921551 0.109781 0.128721 0.148089 0.166995 0.185439 0.203422 0.220944 0.238004 0.254602 0.270739 0.285648 0.298561 0.30948 0.318404 0.325333 0.330267 0.333205 0.334149 0.333143 0.33023 0.325412 0.318687 0.310057 0.29952 0.287078 0.27273 0.257253 0.241425 0.225246 0.208716 0.191834 0.174602 0.157018 0.139083 0.121589 0.105329 0.0903018 0.0765084 0.0639487 0.0526224 0.0425296 0.0336704 0.0259376 0.0192242 0.0135301 0.00885544 0.00520011 0.00256413 0.000947522 0.000350273 0.000268177 0.000197028 0.000136825 8.75681e-05 4.92571e-05 2.1892e-05 5.47301e-06 0 0 -6.95102e-05 -0.000278041 -0.000625592 -0.00111216 -0.00173775 -0.00250237 -0.003406 -0.00444865 -0.00545157 -0.00623601 -0.00680196 -0.00714943 -0.00727842 -0.00718892 -0.00688093 -0.00635447 -0.00549089 -0.0041716 -0.00239657 -0.000165826 0.00252065 0.00566285 0.00926077 0.0133144 0.0175973 0.0218829 0.0261711 0.0304621 0.0347558 0.0390522 0.0433513 0.0476531 0.0516549 0.0550541 0.0578506 0.0600445 0.0616358 0.0626243 0.0630103 0.0627936 0.0619275 0.0603652 0.0581069 0.0551524 0.0515017 0.0471549 0.042112 0.0363729 0.0304405 0.0248176 0.0195042 0.0145002 0.00980571 0.0054207 0.00134516 -0.0024209 -0.00519344 -0.00628841 -0.00570582 -0.00344566 0.000492061 0.00610735 0.0134002 0.0223706 0.032936 0.0450138 0.058604 0.0737065 0.0903215 0.108449 0.128088 0.149241 0.170896 0.192045 0.212688 0.232825 0.252456 0.27158 0.290199 0.308312 0.325054 0.339562 0.351835 0.361874 0.369679 0.375249 0.378585 0.379687 0.378601 0.375372 0.370003 0.362491 0.352838 0.341043 0.327107 0.311029 0.293673 0.275