<?xml version="1.0"?> 
<VTKFile type="StructuredGrid" version="0.1"> 
<StructuredGrid WholeExtent="0 128 0 128 0 0"> 
<Piece Extent="0 128 0 128 0 0"> 
<PointData>
<DataArray type="Float32" Name="u" format="ascii" NumberOfComponents="1"> 
0 0 0 0 0 0 0 0 0 0 0 0 0 0 0 0 0 0 0 0 0 0 0 0 0 0 0 0 0 0 0 0 0 0 0 0 0 0 0 0 0 0 0 0 0 0 0 0 0 0 0 0 0 0 0 0 0 0 0 0 0 0 0 0 0 0 0 0 0 0 0 0 0 0 0 0 0 0 0 0 0 0 0 0 0 0 0 0 0 0 0 0 0 0 0 0 0 0 0 0 0 0 0 0 0 0 0 0 0 0 0 0 0 0 0 0 0 0 0 0 0 0 0 0 0 0 0 0 0 0 -1.53386e-07 -6.13546e-07 -1.38048e-06 -2.45418e-06 -3.83466e-06 -5.52191e-06 -7.51594e-06 -9.81673e-06 -1.21039e-05 -1.40572e-05 -1.56765e-05 -1.69619e-05 -1.79133e-05 -1.85307e-05 -1.88142e-05 -1.87638e-05 -1.82059e-05 -1.6967e-05 -1.50471e-05 -1.24462e-05 -9.16426e-06 -5.20136e-06 -5.5746e-07 4.76743e-06 1.03326e-05 1.56972e-05 2.08613e-05 2.58248e-05 3.05878e-05 3.51503e-05 3.95123e-05 4.36738e-05 4.72172e-05 4.9725e-05 5.11971e-05 5.16337e-05 5.10346e-05 4.93999e-05 4.67296e-05 4.30237e-05 3.84702e-05 3.3257e-05 2.73843e-05 2.0852e-05 1.36601e-05 5.80859e-06 -2.70251e-06 -1.18732e-05 -2.09349e-05 -2.91192e-05 -3.64259e-05 -4.2855e-05 -4.84067e-05 -5.30808e-05 -5.68775e-05 -5.97966e-05 -6.11349e-05 -6.01894e-05 -5.69598e-05 -5.14463e-05 -4.36489e-05 -3.35675e-05 -2.12022e-05 -6.5529e-06 1.02478e-05 2.90673e-05 4.99056e-05 7.27627e-05 9.76387e-05 0.000124533 0.000153447 0.000184379 0.000216118 0.000247452 0.000278379 0.000308901 0.000339017 0.000368727 0.000398032 0.000426931 0.000454056 0.000478038 0.000498878 0.000516575 0.00053113 0.000542543 0.000550813 0.00055594 0.000557822 0.000556353 0.000551535 0.000543368 0.00053185 0.000516983 0.000498765 0.000477199 0.000453535 0.000429028 0.000403677 0.000377483 0.000350446 0.000322564 0.00029384 0.000264271 0.000235127 0.000207675 0.000181916 0.000157848 0.000135473 0.00011479 9.57997e-05 7.85012e-05 6.2978e-05 4.9313e-05 3.75063e-05 2.75577e-05 1.94674e-05 1.32354e-05 8.86153e-06 6.34593e-06 4.8586e-06 3.56959e-06 2.47888e-06 1.58648e-06 8.92397e-07 3.96621e-07 9.91552e-08 0 0 -6.13546e-07 -2.45418e-06 -5.52191e-06 -9.81673e-06 -1.53386e-05 -2.20877e-05 -3.00637e-05 -3.92669e-05 -4.84158e-05 -5.62288e-05 -6.2706e-05 -6.78475e-05 -7.16531e-05 -7.41229e-05 -7.5257e-05 -7.50552e-05 -7.28235e-05 -6.78679e-05 -6.01883e-05 -4.97846e-05 -3.6657e-05 -2.08054e-05 -2.22984e-06 1.90697e-05 4.13303e-05 6.27887e-05 8.3445e-05 0.000103299 0.000122351 0.000140601 0.000158049 0.000174695 0.000188869 0.0001989 0.000204788 0.000206535 0.000204138 0.0001976 0.000186918 0.000172095 0.000153881 0.000133028 0.000109537 8.3408e-05 5.46404e-05 2.32344e-05 -1.081e-05 -4.74928e-05 -8.37398e-05 -0.000116477 -0.000145703 -0.00017142 -0.000193627 -0.000212323 -0.00022751 -0.000239186 -0.00024454 -0.000240757 -0.000227839 -0.000205785 -0.000174596 -0.00013427 -8.48088e-05 -2.62116e-05 4.09911e-05 0.000116269 0.000199622 0.000291051 0.000390555 0.000498134 0.000613788 0.000737518 0.000864473 0.000989806 0.00111352 0.0012356 0.00135607 0.00147491 0.00159213 0.00170772 0.00181622 0.00191215 0.00199551 0.0020663 0.00212452 0.00217017 0.00220325 0.00222376 0.00223129 0.00222541 0.00220614 0.00217347 0.0021274 0.00206793 0.00199506 0.00190879 0.00181414 0.00171611 0.00161471 0.00150993 0.00140178 0.00129026 0.00117536 0.00105708 0.000940508 0.000830701 0.000727663 0.000631394 0.000541893 0.000459161 0.000383199 0.000314005 0.000251912 0.000197252 0.000150025 0.000110231 7.78697e-05 5.29414e-05 3.54461e-05 2.53837e-05 1.94344e-05 1.42783e-05 9.91552e-06 6.34593e-06 3.56959e-06 1.58648e-06 3.96621e-07 0 0 -1.38048e-06 -5.52191e-06 -1.24243e-05 -2.20877e-05 -3.4512e-05 -4.96972e-05 -6.76434e-05 -8.83506e-05 -0.000108935 -0.000126515 -0.000141089 -0.000152657 -0.000161219 -0.000166777 -0.000169328 -0.000168874 -0.000163853 -0.000152703 -0.000135424 -0.000112015 -8.24783e-05 -4.68122e-05 -5.01714e-06 4.29069e-05 9.29931e-05 0.000141275 0.000187751 0.000232423 0.000275291 0.000316353 0.000355611 0.000393064 0.000424955 0.000447525 0.000460774 0.000464703 0.000459311 0.000444599 0.000420566 0.000387213 0.000346231 0.000299313 0.000246459 0.000187668 0.000122941 5.22773e-05 -2.43226e-05 -0.000106859 -0.000188415 -0.000262072 -0.000327833 -0.000385695 -0.00043566 -0.000477728 -0.000511897 -0.000538169 -0.000550215 -0.000541704 -0.000512638 -0.000463017 -0.00039284 -0.000302108 -0.00019082 -5.89761e-05 9.223e-05 0.000261605 0.00044915 0.000654864 0.000878748 0.0011208 0.00138102 0.00165941 0.00194507 0.00222706 0.00250541 0.00278011 0.00305115 0.00331855 0.00358229 0.00384238 0.0040865 0.00430234 0.0044899 0.00464918 0.00478017 0.00488289 0.00495732 0.00500346 0.0050204 0.00500718 0.00496382 0.00489031 0.00478665 0.00465284 0.00448889 0.00429479 0.00408182 0.00386125 0.0036331 0.00339735 0.00315401 0.00290308 0.00264456 0.00237844 0.00211614 0.00186908 0.00163724 0.00142064 0.00121926 0.00103311 0.000862197 0.000706511 0.000566802 0.000443817 0.000337556 0.00024802 0.000175207 0.000119118 7.97538e-05 5.71134e-05 4.37274e-05 3.21263e-05 2.23099e-05 1.42783e-05 8.03157e-06 3.56959e-06 8.92397e-07 0 0 -2.45418e-06 -9.81673e-06 -2.20877e-05 -3.92669e-05 -6.13546e-05 -8.83506e-05 -0.000120255 -0.000157068 -0.000193663 -0.000224915 -0.000250824 -0.00027139 -0.000286612 -0.000296492 -0.000301028 -0.000300221 -0.000291294 -0.000271472 -0.000240753 -0.000199139 -0.000146628 -8.32217e-05 -8.91937e-06 7.62789e-05 0.000165321 0.000251155 0.00033378 0.000413197 0.000489405 0.000562406 0.000632197 0.000698781 0.000755475 0.000795599 0.000819154 0.000826139 0.000816553 0.000790398 0.000747674 0.000688379 0.000615522 0.000532113 0.000438149 0.000333632 0.000218562 9.29374e-05 -4.32402e-05 -0.000189971 -0.000334959 -0.000465907 -0.000582814 -0.000685681 -0.000774507 -0.000849294 -0.00091004 -0.000956745 -0.000978159 -0.00096303 -0.000911357 -0.000823142 -0.000698383 -0.00053708 -0.000339235 -0.000104846 0.000163964 0.000465076 0.000798489 0.0011642 0.00156222 0.00199253 0.00245515 0.00295007 0.00345789 0.00395923 0.00445407 0.00494241 0.00542427 0.00589964 0.00636851 0.00683089 0.00726489 0.00764861 0.00798205 0.00826521 0.00849809 0.00868069 0.00881301 0.00889505 0.00892515 0.00890166 0.00882457 0.00869388 0.0085096 0.00827172 0.00798025 0.00763518 0.00725656 0.00686445 0.00645884 0.00603973 0.00560713 0.00516103 0.00470143 0.00422834 0.00376203 0.00332281 0.00291065 0.00252557 0.00216757 0.00183665 0.00153279 0.00125602 0.00100765 0.000789008 0.0006001 0.000440924 0.000311479 0.000211766 0.000141784 0.000101535 7.77377e-05 5.71134e-05 3.96621e-05 2.53837e-05 1.42783e-05 6.34593e-06 1.58648e-06 0 0 -3.83466e-06 -1.53386e-05 -3.4512e-05 -6.13546e-05 -9.58665e-05 -0.000138048 -0.000187898 -0.000245418 -0.000302599 -0.00035143 -0.000391913 -0.000424047 -0.000447832 -0.000463268 -0.000470356 -0.000469095 -0.000455147 -0.000424174 -0.000376177 -0.000311154 -0.000229106 -0.000130034 -1.39365e-05 0.000119186 0.000258314 0.000392429 0.000521531 0.00064562 0.000764696 0.000878759 0.000987808 0.00109184 0.00118043 0.00124312 0.00127993 0.00129084 0.00127586 0.001235 0.00116824 0.00107559 0.000961754 0.000831426 0.000684608 0.0005213 0.000341502 0.000145215 -6.75628e-05 -0.00029683 -0.000523374 -0.000727979 -0.000910647 -0.00107138 -0.00121017 -0.00132702 -0.00142194 -0.00149491 -0.00152837 -0.00150473 -0.001424 -0.00128616 -0.00109122 -0.000839188 -0.000530055 -0.000163822 0.000256194 0.000726682 0.00124764 0.00181907 0.00244097 0.00311334 0.00383617 0.00460948 0.00540296 0.00618629 0.00695948 0.00772252 0.00847542 0.00921818 0.0099508 0.0106733 0.0113514 0.011951 0.012472 0.0129144 0.0132783 0.0135636 0.0137703 0.0138985 0.0139455 0.0139088 0.0137884 0.0135842 0.0132962 0.0129246 0.0124691 0.01193 0.0113384 0.0107257 0.0100919 0.00943708 0.00876114 0.00806411 0.00734599 0.00660678 0.00587818 0.00519188 0.00454789 0.00394621 0.00338683 0.00286976 0.00239499 0.00196253 0.00157445 0.00123283 0.000937656 0.000688943 0.000486686 0.000330884 0.000221538 0.000158648 0.000121465 8.92397e-05 6.1972e-05 3.96621e-05 2.23099e-05 9.91552e-06 2.47888e-06 0 0 -5.52191e-06 -2.20877e-05 -4.96972e-05 -8.83506e-05 -0.000138048 -0.000198789 -0.000270574 -0.000353402 -0.000435742 -0.000506059 -0.000564354 -0.000610627 -0.000644878 -0.000667106 -0.000677313 -0.000675497 -0.000655412 -0.000610811 -0.000541694 -0.000448062 -0.000329913 -0.000187249 -2.00686e-05 0.000171628 0.000371972 0.000565098 0.000751005 0.000929693 0.00110116 0.00126541 0.00142244 0.00157226 0.00169982 0.0017901 0.0018431 0.00185881 0.00183725 0.0017784 0.00168227 0.00154885 0.00138493 0.00119725 0.000985835 0.000750672 0.000491763 0.000209109 -9.72904e-05 -0.000427436 -0.000753658 -0.00104829 -0.00131133 -0.00154278 -0.00174264 -0.00191091 -0.00204759 -0.00215268 -0.00220086 -0.00216682 -0.00205055 -0.00185207 -0.00157136 -0.00120843 -0.000763279 -0.000235904 0.00036892 0.00104642 0.0017966 0.00261946 0.00351499 0.0044832 0.00552409 0.00663766 0.00778026 0.00890826 0.0100216 0.0111204 0.0122046 0.0132742 0.0143292 0.0153695 0.016346 0.0172094 0.0179596 0.0185967 0.0191207 0.0195315 0.0198293 0.0200139 0.0200816 0.0200287 0.0198553 0.0195612 0.0191466 0.0186114 0.0179556 0.0171791 0.0163273 0.015445 0.0145324 0.0135894 0.012616 0.0116123 0.0105782 0.00951376 0.00846458 0.00747631 0.00654897 0.00568254 0.00487704 0.00413245 0.00344879 0.00282604 0.00226721 0.00177527 0.00135023 0.000992078 0.000700827 0.000476473 0.000319015 0.000228454 0.00017491 0.000128505 8.92397e-05 5.71134e-05 3.21263e-05 1.42783e-05 3.56959e-06 0 0 -7.51594e-06 -3.00637e-05 -6.76434e-05 -0.000120255 -0.000187898 -0.000270574 -0.000368281 -0.00048102 -0.000593093 -0.000688803 -0.000768149 -0.000831132 -0.000877751 -0.000908006 -0.000921898 -0.000919426 -0.000892088 -0.000831382 -0.000737306 -0.000609862 -0.000449049 -0.000254867 -2.73156e-05 0.000233604 0.000506296 0.000769161 0.0010222 0.00126542 0.0014988 0.00172237 0.0019361 0.00214002 0.00231364 0.00243652 0.00250866 0.00253005 0.00250069 0.0024206 0.00228975 0.00210816 0.00188504 0.00162959 0.00134183 0.00102175 0.000669345 0.000284621 -0.000132423 -0.000581787 -0.00102581 -0.00142684 -0.00178487 -0.0020999 -0.00237193 -0.00260096 -0.002787 -0.00293003 -0.00299561 -0.00294928 -0.00279103 -0.00252087 -0.0021388 -0.00164481 -0.00103891 -0.000321092 0.000502141 0.0014243 0.00244537 0.00356537 0.00478429 0.00610214 0.0075189 0.00903459 0.0105898 0.0121251 0.0136406 0.0151361 0.0166118 0.0180676 0.0195036 0.0209196 0.0222487 0.0234239 0.024445 0.0253122 0.0260254 0.0265846 0.0269898 0.0272411 0.0273333 0.0272613 0.0270252 0.026625 0.0260606 0.0253321 0.0244395 0.0233827 0.0222232 0.0210224 0.0197802 0.0184967 0.0171718 0.0158057 0.0143981 0.0129493 0.0115212 0.0101761 0.00891387 0.00773457 0.00663819 0.00562473 0.00469418 0.00384656 0.00308592 0.00241634 0.00183781 0.00135033 0.000953904 0.000648533 0.000434215 0.000310951 0.000238072 0.00017491 0.000121465 7.77377e-05 4.37274e-05 1.94344e-05 4.8586e-06 0 0 -9.81673e-06 -3.92669e-05 -8.83506e-05 -0.000157068 -0.000245418 -0.000353402 -0.00048102 -0.000628271 -0.000774652 -0.000899661 -0.0010033 -0.00108556 -0.00114645 -0.00118597 -0.00120411 -0.00120088 -0.00116518 -0.00108589 -0.000963012 -0.000796554 -0.000586512 -0.000332887 -3.56775e-05 0.000305116 0.000661284 0.00100462 0.00133512 0.00165279 0.00195762 0.00224962 0.00252879 0.00279512 0.0030219 0.0031824 0.00327662 0.00330455 0.00326621 0.00316159 0.00299069 0.00275352 0.00246209 0.00212845 0.0017526 0.00133453 0.000874246 0.00037175 -0.000172961 -0.000759885 -0.00133984 -0.00186363 -0.00233126 -0.00274272 -0.00309803 -0.00339717 -0.00364016 -0.00382698 -0.00391264 -0.00385212 -0.00364543 -0.00329257 -0.00279353 -0.00214832 -0.00135694 -0.000419385 0.000655858 0.00186031 0.00319396 0.00465681 0.00624887 0.00797014 0.00982061 0.0118003 0.0138316 0.0158369 0.0178163 0.0197697 0.0216971 0.0235986 0.025474 0.0273236 0.0290596 0.0305944 0.0319282 0.0330608 0.0339923 0.0347227 0.035252 0.0355802 0.0357006 0.0356066 0.0352983 0.0347755 0.0340384 0.0330869 0.031921 0.0305407 0.0290262 0.0274578 0.0258354 0.0241589 0.0224285 0.0206441 0.0188057 0.0169134 0.0150481 0.0132912 0.0116426 0.0101023 0.00867029 0.00734658 0.00613118 0.00502408 0.00403059 0.00315603 0.0024004 0.00176369 0.00124592 0.000847063 0.000567138 0.00040614 0.000310951 0.000228454 0.000158648 0.000101535 5.71134e-05 2.53837e-05 6.34593e-06 0 0 -1.19638e-05 -4.78551e-05 -0.000107674 -0.00019142 -0.000299094 -0.000430696 -0.000586225 -0.000765681 -0.000942932 -0.00109184 -0.00121242 -0.00130465 -0.00136854 -0.0014041 -0.00141131 -0.00139019 -0.00132717 -0.0012087 -0.00103478 -0.000805413 -0.000520596 -0.00018033 0.000215386 0.000666551 0.00113691 0.00159019 0.00202641 0.00244555 0.00284763 0.00323263 0.00360056 0.00395143 0.00425101 0.0044651 0.00459369 0.00463678 0.00459438 0.00446649 0.0042531 0.00395421 0.00358533 0.00316194 0.00268406 0.00215167 0.00156478 0.000923388 0.000227496 -0.000522898 -0.00126482 -0.0019353 -0.00253433 -0.00306192 -0.00351806 -0.00390276 -0.00421601 -0.00445782 -0.00457074 -0.00449732 -0.00423756 -0.00379146 -0.00315903 -0.00234025 -0.00133514 -0.000143691 0.00122323 0.00275477 0.00445092 0.00631168 0.00833705 0.010527 0.0128816 0.0154008 0.0179858 0.0205377 0.0230565 0.0255422 0.0279949 0.0304145 0.032801 0.0351544 0.0373633 0.0393161 0.0410129 0.0424536 0.0436382 0.0445668 0.0452394 0.0456559 0.0458077 0.0456863 0.0452916 0.0446236 0.0436824 0.0424679 0.0409802 0.0392192 0.0372867 0.0352847 0.0332132 0.0310721 0.0288614 0.0265811 0.0242313 0.0218119 0.0194263 0.0171777 0.0150661 0.0130917 0.0112542 0.00955385 0.00799054 0.00656427 0.00528254 0.00415282 0.0031751 0.0023494 0.0016757 0.00115401 0.000784332 0.000566662 0.000433851 0.000318747 0.000221352 0.000141666 7.96869e-05 3.54164e-05 8.8541e-06 0 0 -1.34965e-05 -5.39861e-05 -0.000121469 -0.000215944 -0.000337413 -0.000485874 -0.000661329 -0.000863777 -0.00106044 -0.00121856 -0.00133812 -0.00141913 -0.00146159 -0.0014655 -0.00143085 -0.00135765 -0.00123055 -0.00103419 -0.00076858 -0.000433713 -2.95917e-05 0.000443785 0.000986415 0.0015983 0.00223313 0.0028446 0.00343271 0.00399745 0.00453883 0.00505684 0.0055515 0.00602279 0.00642739 0.006722 0.0069066 0.00698119 0.00694579 0.00680038 0.00654496 0.00617955 0.005724 0.0051982 0.00460214 0.00393583 0.00319926 0.00239243 0.00151535 0.000568008 -0.000369852 -0.0012185 -0.00197793 -0.00264814 -0.00322914 -0.00372093 -0.0041235 -0.00443685 -0.00458873 -0.00450685 -0.00419123 -0.00364186 -0.00285875 -0.00184188 -0.000591273 0.000893086 0.00259743 0.00450801 0.00662482 0.00894786 0.0114771 0.0142126 0.0171544 0.0203023 0.0235327 0.0267216 0.0298691 0.0329752 0.0360398 0.039063 0.0420448 0.0449852 0.0477447 0.0501839 0.0523028 0.0541014 0.0555797 0.0567377 0.0575754 0.0580928 0.0582787 0.0581219 0.0576224 0.0567801 0.0555952 0.0540675 0.0521972 0.0499841 0.047555 0.0450367 0.042429 0.039732 0.0369456 0.03407 0.0311051 0.0280509 0.0250366 0.0221914 0.0195154 0.0170086 0.0146709 0.0125024 0.010503 0.00867281 0.00702308 0.00556515 0.004299 0.00322465 0.00234209 0.00165132 0.00115235 0.00084516 0.000647076 0.000475403 0.000330141 0.00021129 0.000118851 5.28225e-05 1.32056e-05 0 0 -1.4415e-05 -5.76598e-05 -0.000129735 -0.000230639 -0.000360374 -0.000518939 -0.000706333 -0.000922558 -0.00112719 -0.00127981 -0.00138042 -0.00142902 -0.0014256 -0.00137017 -0.00126273 -0.00110328 -0.000875324 -0.000562367 -0.00016441 0.000318546 0.000886501 0.00153946 0.00227741 0.00310036 0.00394996 0.00476785 0.00555402 0.00630848 0.00703123 0.00772226 0.00838158 0.00900919 0.00955104 0.00995309 0.0102153 0.0103378 0.0103204 0.0101633 0.00986629 0.00942952 0.00887811 0.00823722 0.00750685 0.006687 0.00577768 0.00477887 0.00369059 0.00251283 0.00134507 0.000286776 -0.000662044 -0.00150139 -0.00223127 -0.00285168 -0.00336261 -0.00376407 -0.0039666 -0.00388073 -0.00350645 -0.00284377 -0.0018927 -0.000653216 0.000874664 0.00269095 0.00477846 0.00712003 0.00971567 0.0125654 0.0156691 0.0190269 0.0226388 0.0265048 0.0304722 0.0343886 0.0382541 0.0420685 0.0458318 0.0495442 0.0532055 0.0568158 0.0602037 0.0631977 0.0657979 0.0680042 0.0698167 0.0712353 0.0722601 0.072891 0.0731136 0.0729135 0.0722906 0.0712451 0.0697768 0.0678858 0.0655721 0.0628356 0.0598312 0.0567136 0.0534827 0.0501386 0.0466814 0.0431109 0.0394272 0.0356302 0.031879 0.0283324 0.0249904 0.021853 0.0189203 0.0161921 0.0136686 0.0113497 0.00925223 0.00739303 0.00577211 0.00438947 0.00324509 0.002339 0.00167118 0.00124163 0.000950625 0.000698419 0.000485013 0.000310408 0.000174605 7.76021e-05 1.94005e-05 0 0 -1.47191e-05 -5.88765e-05 -0.000132472 -0.000235506 -0.000367978 -0.000529888 -0.000721237 -0.000942023 -0.00114317 -0.0012756 -0.00133931 -0.0013343 -0.00126057 -0.00111812 -0.000906959 -0.000627075 -0.000261491 0.000206777 0.000777729 0.00145136 0.00222768 0.00310669 0.00408837 0.00517274 0.00628739 0.00735993 0.00839034 0.00937864 0.0103248 0.0112289 0.0120908 0.0129107 0.013622 0.0141584 0.0145199 0.0147066 0.0147183 0.0145551 0.0142171 0.0137041 0.0130476 0.012279 0.0113982 0.0104052 0.00930004 0.00808272 0.00675323 0.00531157 0.00387994 0.00258052 0.00141332 0.000378327 -0.000524448 -0.00129501 -0.00193335 -0.00243949 -0.00270436 -0.00261894 -0.00218321 -0.00139719 -0.000260869 0.00122575 0.00306267 0.00524989 0.00776631 0.0105908 0.0137235 0.0171642 0.020913 0.02497 0.029335 0.0340081 0.0388044 0.0435388 0.0482114 0.0528221 0.057371 0.061858 0.0662831 0.0706464 0.0747404 0.0783577 0.0814983 0.0841622 0.0863493 0.0880597 0.0892934 0.0900504 0.0903124 0.090061 0.0892964 0.0880185 0.0862272 0.0839227 0.0811048 0.0777736 0.0741152 0.0703154 0.0663744 0.0622921 0.0580685 0.0537036 0.0491975 0.04455 0.0399537 0.0356007 0.0314912 0.0276251 0.0240024 0.0206232 0.0174873 0.0145949 0.01197 0.00963646 0.00759442 0.00584383 0.00438471 0.00321704 0.00234083 0.00175608 0.0013445 0.000987796 0.000685969 0.00043902 0.000246949 0.000109755 2.74388e-05 0 0 -1.4409e-05 -5.76359e-05 -0.000129681 -0.000230544 -0.000360224 -0.000518723 -0.00070604 -0.000922174 -0.00110838 -0.00120592 -0.00121478 -0.00113498 -0.000966498 -0.000709347 -0.000363526 7.09676e-05 0.00061095 0.00127324 0.00205784 0.00296474 0.00399395 0.00514547 0.0064193 0.00781543 0.00924543 0.0106208 0.0119417 0.0132079 0.0144196 0.0155767 0.0166792 0.0177272 0.0186402 0.0193379 0.0198203 0.0200875 0.0201394 0.019976 0.0195973 0.0190034 0.0182326 0.0173235 0.0162761 0.0150904 0.0137663 0.012304 0.0107033 0.00896423 0.00723476 0.00566274 0.00424816 0.00299102 0.00189132 0.000949076 0.000164272 -0.000463088 -0.000802006 -0.000721482 -0.000221519 0.000697886 0.00203673 0.00379502 0.00597274 0.00856991 0.011561 0.0149204 0.0186482 0.0227443 0.0272088 0.0320417 0.0372429 0.0428125 0.0485293 0.0541721 0.0597411 0.0652361 0.0706572 0.0760043 0.0812776 0.0864769 0.0913548 0.0956638 0.0994039 0.102575 0.105177 0.107211 0.108675 0.109571 0.109875 0.109565 0.10864 0.1071 0.104946 0.102178 0.0987954 0.0947982 0.090407 0.0858423 0.0811041 0.0761924 0.0711071 0.0658484 0.0604161 0.0548103 0.0492605 0.0439963 0.0390177 0.0343247 0.0299173 0.0257954 0.0219592 0.0184085 0.0151763 0.0122954 0.00976593 0.00758776 0.00576093 0.00428544 0.0031613 0.00238851 0.0018287 0.00134353 0.00093301 0.000597126 0.000335884 0.000149282 3.73204e-05 0 0 -1.34845e-05 -5.39382e-05 -0.000121361 -0.000215753 -0.000337114 -0.000485444 -0.000660743 -0.000863011 -0.00102283 -0.00107077 -0.00100685 -0.000831052 -0.000543384 -0.000143845 0.000367565 0.000990847 0.001742 0.00263702 0.00367591 0.00485868 0.00618531 0.00765582 0.00927019 0.0110284 0.0128241 0.0145506 0.016208 0.0177964 0.0193156 0.0207657 0.0221468 0.0234587 0.0246056 0.0254916 0.0261166 0.0264806 0.0265837 0.0264259 0.026007 0.0253273 0.024433 0.0233708 0.0221407 0.0207426 0.0191766 0.0174426 0.0155407 0.0134708 0.0114095 0.00953342 0.00784247 0.00633668 0.00501605 0.00388058 0.00293027 0.00216512 0.00174046 0.00181163 0.00237863 0.00344145 0.00500011 0.00705458 0.00960489 0.012651 0.0161625 0.0201088 0.0244899 0.0293058 0.0345565 0.0402421 0.0463625 0.0529177 0.0596468 0.0662885 0.0728431 0.0793104 0.0856905 0.0919833 0.0981889 0.104307 0.110047 0.115116 0.119515 0.123243 0.126301 0.128689 0.130406 0.131453 0.131802 0.131424 0.13032 0.12849 0.125934 0.122652 0.118644 0.113909 0.108707 0.103294 0.0976717 0.0918394 0.0857972 0.079545 0.0730829 0.0664109 0.0597995 0.0535192 0.04757 0.0419518 0.0366648 0.0317089 0.0270841 0.0227904 0.0188712 0.01537 0.0122866 0.00962124 0.00737376 0.00554421 0.00413259 0.0031389 0.00240322 0.00176563 0.00122613 0.000784726 0.000441408 0.000196182 4.90454e-05 0 0 -1.19458e-05 -4.77833e-05 -0.000107512 -0.000191133 -0.000298645 -0.000430049 -0.000585345 -0.000764532 -0.000886506 -0.000870163 -0.000715503 -0.000422524 8.77117e-06 0.000578384 0.00128631 0.00213256 0.00313166 0.00429812 0.00563196 0.00713317 0.00880176 0.0106377 0.012641 0.0148118 0.0170233 0.0191492 0.0211894 0.0231439 0.0250128 0.026796 0.0284935 0.0301053 0.0315184 0.0326195 0.0334087 0.0338859 0.0340513 0.0339047 0.0334462 0.0326758 0.0316489 0.0304209 0.0289919 0.0273619 0.0255308 0.0234987 0.0212655 0.0188313 0.0164043 0.0141926 0.0121963 0.0104153 0.00884972 0.0074995 0.00636464 0.00544514 0.00492305 0.00498041 0.00561724 0.00683352 0.00862925 0.0110044 0.0139591 0.0174932 0.0215708 0.0261559 0.0312485 0.0368486 0.0429562 0.0495713 0.0566939 0.064324 0.0721569 0.0798881 0.0875175 0.0950451 0.102471 0.109795 0.117017 0.124138 0.130817 0.136714 0.141831 0.146166 0.149721 0.152494 0.154486 0.155696 0.156092 0.15564 0.154339 0.152189 0.149191 0.145345 0.14065 0.135107 0.129014 0.122671 0.116077 0.109233 0.102139 0.0947935 0.087198 0.0793519 0.0715706 0.0641693 0.057148 0.0505066 0.0442452 0.0383637 0.0328622 0.0277407 0.0230548 0.0188601 0.0151566 0.0119443 0.0092232 0.00699335 0.00525471 0.00400728 0.00306807 0.00225409 0.00156534 0.00100182 0.000563524 0.000250455 6.26137e-05 0 0 -9.79279e-06 -3.91712e-05 -8.81351e-05 -0.000156685 -0.00024482 -0.000352541 -0.000479847 -0.000626739 -0.000699418 -0.000604087 -0.000340746 9.06054e-05 0.000689967 0.00145734 0.00239272 0.00349611 0.00477992 0.00625654 0.00792598 0.00978823 0.0118433 0.0140912 0.0165319 0.0191654 0.0218432 0.0244166 0.0268858 0.0292506 0.0315112 0.0336674 0.0357194 0.037667 0.0393784 0.0407216 0.0416966 0.0423034 0.0425421 0.0424126 0.0419148 0.0410489 0.0398801 0.0384737 0.0368297 0.0349481 0.0328289 0.0304721 0.0278777 0.0250457 0.0222189 0.0196402 0.0173095 0.0152269 0.0133924 0.0118058 0.0104674 0.00937696 0.00874574 0.00878485 0.0094943 0.0108741 0.0129242 0.0156446 0.0190354 0.0230965 0.0277859 0.0330618 0.038924 0.0453727 0.0524077 0.0600291 0.0682369 0.0770311 0.0860597 0.0949708 0.103764 0.11244 0.120998 0.129439 0.137762 0.145968 0.153664 0.160459 0.166352 0.171344 0.175435 0.178625 0.180914 0.182301 0.182746 0.182211 0.180694 0.178196 0.174717 0.170256 0.164814 0.158391 0.15133 0.143973 0.136321 0.128374 0.120132 0.111594 0.102761 0.0936334 0.084574 0.0759468 0.0677517 0.0599889 0.0526582 0.0457597 0.0392934 0.0332593 0.0277269 0.0227657 0.0183757 0.0145569 0.0113093 0.00863284 0.00652764 0.00499363 0.00382325 0.00280892 0.00195064 0.00124841 0.000702229 0.000312102 7.80254e-05 0 0 -6.35051e-06 -2.5402e-05 -5.71546e-05 -0.000101608 -0.000158763 -0.000228618 -0.000311175 -0.000406433 -0.000406955 -0.000205306 0.000198515 0.000804507 0.00161267 0.00262301 0.00383551 0.00525019 0.006876 0.00872188 0.0107878 0.0130739 0.01558 0.0183062 0.0212525 0.0244189 0.0276324 0.0307201 0.0336821 0.0365183 0.0392286 0.0418133 0.0442721 0.0466051 0.0486599 0.0502839 0.0514772 0.0522397 0.0525714 0.0524724 0.0519426 0.050982 0.0496667 0.0480727 0.0462 0.0440486 0.0416184 0.0389095 0.0359219 0.0326556 0.0293909 0.0264081 0.0237073 0.0212884 0.0191515 0.0172965 0.0157234 0.0144322 0.0136655 0.0136655 0.0144323 0.0159659 0.0182662 0.0213334 0.0251674 0.0297681 0.0350872 0.0410762 0.0477351 0.0550639 0.0630626 0.0717312 0.0810698 0.0910782 0.101355 0.111497 0.121505 0.131379 0.141118 0.150724 0.160195 0.169532 0.178289 0.186019 0.192722 0.198399 0.203048 0.206671 0.209267 0.210836 0.211331 0.210705 0.208958 0.206091 0.202102 0.196993 0.190762 0.183411 0.175327 0.166899 0.158127 0.149011 0.139551 0.129747 0.119598 0.109105 0.0986836 0.0887473 0.0792966 0.0703315 0.0618521 0.0538582 0.04635 0.0393273 0.0328758 0.0270811 0.0219431 0.0174618 0.0136372 0.0104694 0.00795834 0.00610398 0.00467336 0.00343349 0.00238437 0.00152599 0.000858372 0.000381499 9.53747e-05 0 0 -9.44004e-07 -3.77602e-06 -8.49604e-06 -1.51041e-05 -2.36001e-05 -3.39842e-05 -4.62562e-05 -6.04163e-05 4.5491e-05 0.000393421 0.000983374 0.00181535 0.00288935 0.00420537 0.00576341 0.00756348 0.00960908 0.0119037 0.0144474 0.0172402 0.020282 0.0235729 0.0271128 0.0309018 0.0347398 0.038427 0.0419632 0.0453486 0.0485831 0.0516667 0.0545994 0.0573812 0.0598372 0.0617925 0.0632472 0.0642011 0.0646545 0.0646071 0.0640591 0.0630103 0.0615486 0.0597613 0.0576485 0.0552103 0.0524466 0.0493574 0.0459427 0.0422026 0.0384575 0.0350282 0.0319146 0.0291168 0.0266346 0.0244682 0.0226176 0.0210826 0.0201391 0.0200628 0.0208536 0.0225116 0.0250368 0.0284292 0.0326887 0.0378154 0.0437538 0.0504488 0.0579002 0.0661081 0.0750724 0.0847932 0.0952704 0.106504 0.11804 0.129426 0.14066 0.151744 0.162676 0.173457 0.184087 0.194566 0.204393 0.213066 0.220585 0.22695 0.232161 0.236218 0.239121 0.24087 0.241411 0.240688 0.238701 0.235451 0.230938 0.225161 0.21812 0.209816 0.200682 0.191151 0.181222 0.170896 0.160172 0.149051 0.137533 0.125618 0.113773 0.102467 0.091698 0.0814674 0.0717749 0.0626204 0.0540041 0.0459258 0.0384898 0.0318005 0.0258579 0.0206619 0.0162125 0.0125098 0.00955376 0.00734435 0.00562302 0.0041312 0.00286889 0.00183609 0.0010328 0.000459022 0.000114756 0 0 6.42673e-06 2.57069e-05 5.78405e-05 0.000102828 0.000160668 0.000231362 0.00031491 0.00041131 0.00065792 0.00119209 0.00201383 0.00312313 0.00452 0.00620443 0.00817642 0.010436 0.0129792 0.0158021 0.0189048 0.0222872 0.0259493 0.0298912 0.0341128 0.0386141 0.0431655 0.0475372 0.0517293 0.0557417 0.0595745 0.0632277 0.0667012 0.0699951 0.0729102 0.0752473 0.0770066 0.0781879 0.0787913 0.0788168 0.0782643 0.0771339 0.0755256 0.0735394 0.0711753 0.0684334 0.0653135 0.0618157 0.0579401 0.0536865 0.0494188 0.0455004 0.0419315 0.038712 0.0358419 0.0333212 0.0311499 0.0293281 0.0281667 0.0279768 0.0287584 0.0305114 0.0332359 0.0369319 0.0415993 0.0472382 0.0537859 0.0611796 0.0694194 0.0785052 0.088437 0.0992149 0.110839 0.123309 0.136118 0.148758 0.161231 0.173535 0.185671 0.197639 0.209438 0.22107 0.231975 0.241599 0.249939 0.256998 0.262773 0.267266 0.270476 0.272404 0.272986 0.272159 0.269923 0.266278 0.261224 0.254761 0.246888 0.237607 0.227394 0.216726 0.205604 0.194027 0.181995 0.169509 0.156567 0.143172 0.129844 0.117105 0.104956 0.0933965 0.0824266 0.0720464 0.0622557 0.0530546 0.0445688 0.036924 0.0301201 0.0241571 0.0190351 0.014754 0.0113139 0.00871475 0.00667223 0.00490205 0.0034042 0.00217869 0.00122551 0.000544672 0.000136168 0 0 1.57617e-05 6.30467e-05 0.000141855 0.000252187 0.000394042 0.000567421 0.000772322 0.00100875 0.00143033 0.00219071 0.00328989 0.00472786 0.00650462 0.00862018 0.0110745 0.0138677 0.0169863 0.020417 0.0241599 0.0282148 0.0325819 0.0372611 0.0422524 0.0475558 0.0529093 0.0580507 0.0629801 0.0676975 0.0722029 0.0764963 0.0805776 0.0844469 0.0878789 0.0906485 0.0927555 0.0942 0.0949819 0.0951014 0.0945583 0.0933527 0.0915979 0.0894071 0.0867804 0.0837177 0.0802191 0.0762846 0.071914 0.0671076 0.0622746 0.0578247 0.0537578 0.050074 0.0467731 0.0438553 0.0413205 0.0391687 0.0377483 0.0374075 0.0381465 0.0399652 0.0428635 0.0468416 0.0518993 0.0580368 0.0651834 0.0732687 0.0822926 0.0922553 0.103157 0.114996 0.127775 0.141492 0.155586 0.169494 0.183216 0.196753 0.210104 0.223269 0.236248 0.249042 0.261036 0.271618 0.280786 0.288542 0.294886 0.299816 0.303333 0.305438 0.306058 0.30512 0.302624 0.298571 0.29296 0.285792 0.277066 0.266783 0.255463 0.243626 0.231274 0.218405 0.205019 0.191118 0.1767 0.161766 0.146894 0.132662 0.11907 0.106119 0.0938073 0.082136 0.0711049 0.0607139 0.0511129 0.0424514 0.0347296 0.0279475 0.0221049 0.017202 0.0132388 0.0102152 0.00782099 0.00574604 0.0039903 0.00255379 0.00143651 0.000638448 0.000159612 0 0 2.70609e-05 0.000108243 0.000243548 0.000432974 0.000676522 0.000974191 0.00132598 0.0017319 0.00236273 0.00338928 0.00481154 0.00662952 0.00884322 0.0114526 0.0144578 0.0178586 0.0216304 0.0257484 0.0302127 0.0350231 0.0401797 0.0456826 0.0515317 0.0577269 0.0639713 0.0699676 0.0757159 0.0812161 0.0864683 0.0914724 0.0962286 0.100737 0.104743 0.107996 0.110494 0.112237 0.113226 0.113461 0.112941 0.111667 0.109765 0.107364 0.104464 0.101063 0.0971635 0.0927638 0.0878646 0.0824656 0.0770252 0.0720012 0.0673937 0.0632028 0.0594284 0.0560706 0.0531292 0.0506044 0.0488838 0.048355 0.049018 0.0508729 0.0539196 0.0581582 0.0635886 0.0702109 0.0779463 0.0867159 0.0965199 0.107358 0.119231 0.132138 0.146079 0.161055 0.176446 0.191633 0.206617 0.221398 0.235974 0.250348 0.264517 0.278483 0.291575 0.303123 0.313126 0.321584 0.328498 0.333867 0.337692 0.339972 0.340625 0.339569 0.336804 0.33233 0.326147 0.318255 0.308654 0.297344 0.284889 0.271851 0.258231 0.244029 0.229246 0.21388 0.197931 0.181401 0.164925 0.149138 0.134041 0.119634 0.105917 0.0928894 0.0805517 0.0689037 0.0581219 0.0483829 0.0396866 0.0320329 0.025422 0.0198539 0.0153284 0.0118456 0.0090693 0.00666316 0.0046272 0.00296141 0.00166579 0.000740351 0.000185088 0 0 4.03243e-05 0.000161297 0.000362918 0.000645188 0.00100811 0.00145167 0.00197589 0.00258075 0.00345511 0.00478778 0.00657879 0.00882813 0.0115358 0.0147018 0.0183261 0.0224087 0.0269116 0.0317964 0.0370632 0.042712 0.0487429 0.0551557 0.0619506 0.0691275 0.0763515 0.0832878 0.0899365 0.0962974 0.102371 0.108156 0.113654 0.118864 0.123504 0.127289 0.130222 0.1323 0.133524 0.133895 0.133413 0.132076 0.130028 0.127411 0.124225 0.12047 0.116147 0.111254 0.1057