<?xml version="1.0"?> 
<VTKFile type="StructuredGrid" version="0.1"> 
<StructuredGrid WholeExtent="0 128 0 128 0 0"> 
<Piece Extent="0 128 0 128 0 0"> 
<PointData>
<DataArray type="Float32" Name="u" format="ascii" NumberOfComponents="1"> 
0 0 0 0 0 0 0 0 0 0 0 0 0 0 0 0 0 0 0 0 0 0 0 0 0 0 0 0 0 0 0 0 0 0 0 0 0 0 0 0 0 0 0 0 0 0 0 0 0 0 0 0 0 0 0 0 0 0 0 0 0 0 0 0 0 0 0 0 0 0 0 0 0 0 0 0 0 0 0 0 0 0 0 0 0 0 0 0 0 0 0 0 0 0 0 0 0 0 0 0 0 0 0 0 0 0 0 0 0 0 0 0 0 0 0 0 0 0 0 0 0 0 0 0 0 0 0 0 0 0 -2.81266e-07 -1.12506e-06 -2.53139e-06 -4.50025e-06 -7.03164e-06 -1.01256e-05 -1.3782e-05 -1.8001e-05 -2.24623e-05 -2.68459e-05 -3.11516e-05 -3.53796e-05 -3.95297e-05 -4.3602e-05 -4.75966e-05 -5.15133e-05 -5.49528e-05 -5.75156e-05 -5.92017e-05 -6.00111e-05 -5.99438e-05 -5.89999e-05 -5.71792e-05 -5.44819e-05 -5.1291e-05 -4.79899e-05 -4.45783e-05 -4.10565e-05 -3.74243e-05 -3.36817e-05 -2.98288e-05 -2.58656e-05 -2.23156e-05 -1.97025e-05 -1.80262e-05 -1.72868e-05 -1.74842e-05 -1.86185e-05 -2.06896e-05 -2.36976e-05 -2.75496e-05 -3.21531e-05 -3.75078e-05 -4.3614e-05 -5.04715e-05 -5.80803e-05 -6.64406e-05 -7.55521e-05 -8.45817e-05 -9.26959e-05 -9.98947e-05 -0.000106178 -0.000111546 -0.000115999 -0.000119536 -0.000122158 -0.000123003 -0.000121207 -0.000116771 -0.000109695 -9.9979e-05 -8.7623e-05 -7.26269e-05 -5.49908e-05 -3.48384e-05 -1.22936e-05 1.26435e-05 3.9973e-05 6.96949e-05 0.000101809 0.000136316 0.000173215 0.000211003 0.000248178 0.00028474 0.000320688 0.000356023 0.000390744 0.000424852 0.000458346 0.000489568 0.000516859 0.000540218 0.000559645 0.000575141 0.000586705 0.000594338 0.00059804 0.000597856 0.000593833 0.00058597 0.000574269 0.000558729 0.000539349 0.00051613 0.000489072 0.000459853 0.000430152 0.000399968 0.000369302 0.000338153 0.000306522 0.000274408 0.000241811 0.000210133 0.000180773 0.000153733 0.000129011 0.000106609 8.65249e-05 6.876e-05 5.3314e-05 3.99502e-05 2.84322e-05 1.87599e-05 1.09333e-05 4.9524e-06 8.17187e-07 -1.47233e-06 -1.91614e-06 -1.46705e-06 -1.07783e-06 -7.48493e-07 -4.79035e-07 -2.69457e-07 -1.19759e-07 -2.99397e-08 0 0 -1.12506e-06 -4.50025e-06 -1.01256e-05 -1.8001e-05 -2.81266e-05 -4.05022e-05 -5.51281e-05 -7.2004e-05 -8.98494e-05 -0.000107384 -0.000124607 -0.000141518 -0.000158119 -0.000174408 -0.000190386 -0.000206053 -0.000219811 -0.000230062 -0.000236807 -0.000240044 -0.000239775 -0.000235999 -0.000228717 -0.000217928 -0.000205164 -0.000191959 -0.000178313 -0.000164226 -0.000149697 -0.000134727 -0.000119315 -0.000103462 -8.92624e-05 -7.88099e-05 -7.21047e-05 -6.9147e-05 -6.99367e-05 -7.44738e-05 -8.27583e-05 -9.47902e-05 -0.000110199 -0.000128612 -0.000150031 -0.000174456 -0.000201886 -0.000232321 -0.000265762 -0.000302208 -0.000338327 -0.000370783 -0.000399579 -0.000424713 -0.000446185 -0.000463996 -0.000478145 -0.000488633 -0.00049201 -0.000484827 -0.000467084 -0.00043878 -0.000399916 -0.000350492 -0.000290508 -0.000219963 -0.000139354 -4.91746e-05 5.0574e-05 0.000159892 0.00027878 0.000407237 0.000545263 0.00069286 0.000844014 0.000992714 0.00113896 0.00128275 0.00142409 0.00156298 0.00169941 0.00183339 0.00195827 0.00206743 0.00216087 0.00223858 0.00230056 0.00234682 0.00237735 0.00239216 0.00239142 0.00237533 0.00234388 0.00229708 0.00223491 0.0021574 0.00206452 0.00195629 0.00183941 0.00172061 0.00159987 0.00147721 0.00135261 0.00122609 0.00109763 0.000967245 0.000840532 0.000723094 0.000614932 0.000516046 0.000426435 0.0003461 0.00027504 0.000213256 0.000159801 0.000113729 7.50397e-05 4.37333e-05 1.98096e-05 3.26875e-06 -5.88931e-06 -7.66457e-06 -5.86818e-06 -4.31132e-06 -2.99397e-06 -1.91614e-06 -1.07783e-06 -4.79035e-07 -1.19759e-07 0 0 -2.53139e-06 -1.01256e-05 -2.27825e-05 -4.05022e-05 -6.32848e-05 -9.113e-05 -0.000124038 -0.000162009 -0.000202161 -0.000241613 -0.000280365 -0.000318416 -0.000355767 -0.000392418 -0.000428369 -0.00046362 -0.000494575 -0.00051764 -0.000532815 -0.0005401 -0.000539494 -0.000530999 -0.000514613 -0.000490337 -0.000461619 -0.000431909 -0.000401205 -0.000369508 -0.000336818 -0.000303135 -0.000268459 -0.00023279 -0.00020084 -0.000177322 -0.000162236 -0.000155581 -0.000157358 -0.000167566 -0.000186206 -0.000213278 -0.000247947 -0.000289378 -0.000337571 -0.000392526 -0.000454243 -0.000522723 -0.000597965 -0.000679969 -0.000761235 -0.000834263 -0.000899052 -0.000955603 -0.00100392 -0.00104399 -0.00107583 -0.00109942 -0.00110702 -0.00109086 -0.00105094 -0.000987255 -0.000899811 -0.000788607 -0.000653642 -0.000494917 -0.000313546 -0.000110643 0.000113791 0.000359757 0.000627254 0.000916283 0.00122684 0.00155893 0.00189903 0.00223361 0.00256266 0.00288619 0.00320421 0.0035167 0.00382367 0.00412512 0.00440611 0.00465173 0.00486196 0.00503681 0.00517627 0.00528035 0.00534904 0.00538236 0.0053807 0.00534449 0.00527373 0.00516842 0.00502856 0.00485414 0.00464517 0.00440165 0.00413868 0.00387137 0.00359971 0.00332372 0.00304338 0.00275869 0.00246967 0.0021763 0.0018912 0.00162696 0.0013836 0.0011611 0.000959478 0.000778724 0.00061884 0.000479826 0.000359552 0.00025589 0.000168839 9.83998e-05 4.45716e-05 7.35468e-06 -1.32509e-05 -1.72453e-05 -1.32034e-05 -9.70047e-06 -6.73644e-06 -4.31132e-06 -2.42512e-06 -1.07783e-06 -2.69457e-07 0 0 -4.50025e-06 -1.8001e-05 -4.05022e-05 -7.2004e-05 -0.000112506 -0.000162009 -0.000220512 -0.000288016 -0.000359398 -0.000429534 -0.000498426 -0.000566073 -0.000632475 -0.000697633 -0.000761545 -0.000824213 -0.000879244 -0.000920249 -0.000947227 -0.000960177 -0.000959101 -0.000943998 -0.000914867 -0.00087171 -0.000820657 -0.000767838 -0.000713253 -0.000656904 -0.000598788 -0.000538907 -0.000477261 -0.000413849 -0.00035705 -0.000315239 -0.000288419 -0.000276588 -0.000279747 -0.000297895 -0.000331033 -0.000379161 -0.000440794 -0.000514449 -0.000600126 -0.000697824 -0.000807544 -0.000929286 -0.00106305 -0.00120883 -0.00135331 -0.00148313 -0.00159832 -0.00169885 -0.00178474 -0.00185598 -0.00191258 -0.00195453 -0.00196804 -0.00193931 -0.00186833 -0.00175512 -0.00159966 -0.00140197 -0.00116203 -0.000879852 -0.000557414 -0.000196698 0.000202296 0.000639568 0.00111512 0.00162895 0.00218105 0.00277144 0.00337605 0.00397086 0.00455584 0.00513101 0.00569637 0.00625191 0.00679763 0.00733354 0.00783309 0.00826974 0.00864348 0.00895432 0.00920226 0.00938729 0.00950941 0.00956863 0.00956569 0.00950132 0.00937553 0.00918831 0.00893966 0.00862958 0.00825808 0.00782516 0.00735766 0.00688243 0.00639949 0.00590883 0.00541045 0.00490435 0.00439052 0.00386898 0.00336213 0.00289238 0.00245973 0.00206418 0.00170574 0.0013844 0.00110016 0.000853023 0.000639204 0.000454916 0.000300159 0.000174933 7.92384e-05 1.3075e-05 -2.35572e-05 -3.06583e-05 -2.34727e-05 -1.72453e-05 -1.19759e-05 -7.66457e-06 -4.31132e-06 -1.91614e-06 -4.79035e-07 0 0 -7.03164e-06 -2.81266e-05 -6.32848e-05 -0.000112506 -0.000175791 -0.000253139 -0.00034455 -0.000450025 -0.000561559 -0.000671147 -0.000778791 -0.000884489 -0.000988243 -0.00109005 -0.00118991 -0.00128783 -0.00137382 -0.00143789 -0.00148004 -0.00150028 -0.0014986 -0.001475 -0.00142948 -0.00136205 -0.00128228 -0.00119975 -0.00111446 -0.00102641 -0.000935607 -0.000842043 -0.00074572 -0.000646639 -0.00055789 -0.000492562 -0.000450655 -0.000432169 -0.000437104 -0.000465461 -0.000517239 -0.000592439 -0.000688741 -0.000803827 -0.000937696 -0.00109035 -0.00126179 -0.00145201 -0.00166101 -0.0018888 -0.00211454 -0.0023174 -0.00249737 -0.00265445 -0.00278866 -0.00289997 -0.00298841 -0.00305396 -0.00307506 -0.00303017 -0.00291927 -0.00274238 -0.00249948 -0.00219058 -0.00181567 -0.00137477 -0.00087096 -0.000307341 0.000316087 0.000999325 0.00174237 0.00254523 0.0034079 0.00433037 0.00527508 0.00620446 0.0071185 0.00801721 0.00890057 0.00976861 0.0106213 0.0114587 0.0122392 0.0129215 0.0135054 0.0139911 0.0143785 0.0146676 0.0148585 0.014951 0.0149464 0.0148458 0.0146493 0.0143567 0.0139682 0.0134837 0.0129033 0.0122268 0.0114963 0.0107538 0.00999921 0.00923255 0.00845383 0.00766304 0.00686019 0.00604528 0.00525332 0.00451934 0.00384332 0.00322528 0.00266522 0.00216312 0.001719 0.00133285 0.000998756 0.000710806 0.000468998 0.000273333 0.00012381 2.04297e-05 -3.68082e-05 -4.79035e-05 -3.66762e-05 -2.69457e-05 -1.87123e-05 -1.19759e-05 -6.73644e-06 -2.99397e-06 -7.48493e-07 0 0 -1.01256e-05 -4.05022e-05 -9.113e-05 -0.000162009 -0.000253139 -0.00036452 -0.000496152 -0.000648036 -0.000808644 -0.000966452 -0.00112146 -0.00127366 -0.00142307 -0.00156967 -0.00171348 -0.00185448 -0.0019783 -0.00207056 -0.00213126 -0.0021604 -0.00215798 -0.00212399 -0.00205845 -0.00196135 -0.00184648 -0.00172764 -0.00160482 -0.00147803 -0.00134727 -0.00121254 -0.00107384 -0.000931161 -0.000803361 -0.000709289 -0.000648943 -0.000622323 -0.00062943 -0.000670264 -0.000744825 -0.000853112 -0.000991787 -0.00115751 -0.00135028 -0.0015701 -0.00181697 -0.00209089 -0.00239186 -0.00271988 -0.00304494 -0.00333705 -0.00359621 -0.00382241 -0.00401566 -0.00417596 -0.00430331 -0.0043977 -0.00442809 -0.00436344 -0.00420375 -0.00394902 -0.00359925 -0.00315443 -0.00261457 -0.00197967 -0.00125418 -0.000442571 0.000455166 0.00143903 0.00250902 0.00366513 0.00490737 0.00623574 0.00759612 0.00893442 0.0102506 0.0115448 0.0128168 0.0140668 0.0152947 0.0165005 0.0176245 0.0186069 0.0194478 0.0201472 0.0207051 0.0211214 0.0213962 0.0215294 0.0215228 0.021378 0.0210949 0.0206737 0.0201142 0.0194166 0.0185807 0.0176066 0.0165547 0.0154855 0.0143989 0.0132949 0.0121735 0.0110348 0.00987868 0.0087052 0.00756478 0.00650785 0.00553439 0.00464441 0.00383791 0.0031149 0.00247536 0.0019193 0.00143821 0.00102356 0.000675357 0.000393599 0.000178286 2.94187e-05 -5.30038e-05 -6.89811e-05 -5.28137e-05 -3.88019e-05 -2.69457e-05 -1.72453e-05 -9.70047e-06 -4.31132e-06 -1.07783e-06 0 0 -1.3782e-05 -5.51281e-05 -0.000124038 -0.000220512 -0.00034455 -0.000496152 -0.000675319 -0.000882049 -0.00110065 -0.00131545 -0.00152643 -0.0017336 -0.00193696 -0.0021365 -0.00233223 -0.00252415 -0.00269269 -0.00281826 -0.00290088 -0.00294054 -0.00293725 -0.00289099 -0.00280178 -0.00266961 -0.00251326 -0.0023515 -0.00218434 -0.00201177 -0.00183379 -0.0016504 -0.00146161 -0.00126741 -0.00109346 -0.000965421 -0.000883283 -0.000847051 -0.000856725 -0.000912304 -0.00101379 -0.00116118 -0.00134993 -0.0015755 -0.00183788 -0.00213709 -0.0024731 -0.00284594 -0.00325559 -0.00370205 -0.0041445 -0.0045421 -0.00489484 -0.00520273 -0.00546577 -0.00568395 -0.00585728 -0.00598576 -0.00602713 -0.00593913 -0.00572178 -0.00537506 -0.00489897 -0.00429353 -0.00355872 -0.00269455 -0.00170708 -0.000602388 0.000619531 0.00195868 0.00341505 0.00498865 0.00667948 0.00848753 0.0103392 0.0121607 0.0139523 0.0157137 0.0174451 0.0191465 0.0208177 0.022459 0.0239888 0.0253261 0.0264707 0.0274226 0.0281819 0.0287486 0.0291226 0.0293039 0.0292949 0.0290978 0.0287126 0.0281392 0.0273777 0.0264281 0.0252904 0.0239645 0.0225328 0.0210775 0.0195984 0.0180958 0.0165695 0.0150196 0.013446 0.0118487 0.0102965 0.0088579 0.00753292 0.00632156 0.00522383 0.00423972 0.00336924 0.00261238 0.00195756 0.00139318 0.000919236 0.000535732 0.000242668 4.00421e-05 -7.2144e-05 -9.38909e-05 -7.18853e-05 -5.28137e-05 -3.66762e-05 -2.34727e-05 -1.32034e-05 -5.86818e-06 -1.46705e-06 0 0 -1.8001e-05 -7.2004e-05 -0.000162009 -0.000288016 -0.000450025 -0.000648036 -0.000882049 -0.00115206 -0.00143759 -0.00171814 -0.0019937 -0.00226429 -0.0025299 -0.00279053 -0.00304618 -0.00329685 -0.00351698 -0.003681 -0.00378891 -0.00384071 -0.0038364 -0.00377599 -0.00365947 -0.00348684 -0.00328263 -0.00307135 -0.00285301 -0.00262761 -0.00239515 -0.00215563 -0.00190904 -0.0016554 -0.0014282 -0.00126096 -0.00115368 -0.00110635 -0.00111899 -0.00119158 -0.00132413 -0.00151664 -0.00176318 -0.0020578 -0.0024005 -0.0027913 -0.00323018 -0.00371714 -0.0042522 -0.00483534 -0.00541323 -0.00593254 -0.00639326 -0.0067954 -0.00713896 -0.00742393 -0.00765032 -0.00781813 -0.00787216 -0.00775723 -0.00747334 -0.00702048 -0.00639866 -0.00560787 -0.00464812 -0.00351941 -0.00222966 -0.000786793 0.000809184 0.00255827 0.00446047 0.00651579 0.00872421 0.0110858 0.0135042 0.0158834 0.0182234 0.020524 0.0227855 0.0250076 0.0271905 0.0293342 0.0313324 0.033079 0.0345739 0.0358173 0.036809 0.0375491 0.0380376 0.0382745 0.0382628 0.0380053 0.0375021 0.0367532 0.0357586 0.0345183 0.0330323 0.0313006 0.0294306 0.0275297 0.025598 0.0236353 0.0216418 0.0196174 0.0175621 0.0154759 0.0134485 0.0115695 0.00983891 0.00825673 0.00682296 0.00553759 0.00440064 0.00341209 0.00255682 0.00181966 0.00120064 0.000699732 0.000316954 5.22999e-05 -9.4229e-05 -0.000122633 -9.38909e-05 -6.89811e-05 -4.79035e-05 -3.06583e-05 -1.72453e-05 -7.66457e-06 -1.91614e-06 0 0 -2.23051e-05 -8.92205e-05 -0.000200746 -0.000356882 -0.000557628 -0.000802984 -0.00109295 -0.00142753 -0.00178043 -0.00212536 -0.00246232 -0.00279131 -0.00311233 -0.00342539 -0.00373048 -0.0040276 -0.00428491 -0.00447059 -0.00458462 -0.00462701 -0.00459776 -0.00449688 -0.00432435 -0.00408018 -0.00379622 -0.00350433 -0.00320451 -0.00289676 -0.00258107 -0.00225746 -0.00192591 -0.00158643 -0.00128213 -0.00105613 -0.000908413 -0.000838993 -0.000847867 -0.000935034 -0.0011005 -0.00134425 -0.00165847 -0.00203534 -0.00247485 -0.002977 -0.0035418 -0.00416925 -0.00485933 -0.00561207 -0.00635882 -0.00703097 -0.00762852 -0.00815146 -0.00859981 -0.00897355 -0.00927269 -0.00949723 -0.0095765 -0.00943985 -0.00908726 -0.00851875 -0.00773431 -0.00673394 -0.00551764 -0.00408541 -0.00244742 -0.000613845 0.00141532 0.00364007 0.00606041 0.00867634 0.0114879 0.014495 0.0175749 0.0206051 0.0235854 0.0265159 0.0293965 0.0322273 0.0350083 0.0377395 0.0402855 0.042511 0.044416 0.0460006 0.0472647 0.0482083 0.0488315 0.0491342 0.0491199 0.0487922 0.0481511 0.0471965 0.0459285 0.044347 0.0424521 0.0402437 0.0378584 0.0354326 0.0329664 0.0304596 0.0279124 0.0253247 0.0226965 0.0200279 0.017433 0.0150262 0.0128074 0.0107766 0.00893393 0.00727926 0.00581263 0.00453403 0.00342509 0.00246741 0.001661 0.00100584 0.000501954 0.000149328 -5.20338e-05 -0.000102132 -7.81951e-05 -5.74495e-05 -3.98955e-05 -2.55331e-05 -1.43624e-05 -6.38328e-06 -1.59582e-06 0 0 -2.6217e-05 -0.000104868 -0.000235953 -0.000419472 -0.000655425 -0.000943812 -0.00128463 -0.00167789 -0.00209014 -0.00248794 -0.0028713 -0.00324021 -0.00359468 -0.0039347 -0.00426028 -0.00457141 -0.00483023 -0.00499886 -0.00507731 -0.00506557 -0.00496365 -0.00477154 -0.00448924 -0.00411676 -0.00369568 -0.0032676 -0.0028325 -0.00239038 -0.00194126 -0.00148513 -0.00102199 -0.000551832 -0.000129831 0.000188851 0.000404215 0.00051626 0.000524987 0.000430395 0.000232485 -6.87438e-05 -0.000462768 -0.000939066 -0.00149764 -0.00213848 -0.0028616 -0.00366699 -0.00455465 -0.00552459 -0.00648898 -0.00736 -0.00813766 -0.00882195 -0.00941288 -0.00991044 -0.0103146 -0.0106255 -0.0107534 -0.0106091 -0.0101924 -0.00950332 -0.00854193 -0.00730819 -0.00580212 -0.0040237 -0.00198588 0.000298397 0.00282913 0.00560633 0.00862999 0.0119001 0.0154167 0.0191797 0.023035 0.0268284 0.0305599 0.0342294 0.037837 0.0413827 0.0448664 0.0482883 0.0514785 0.0542676 0.0566554 0.0586419 0.0602273 0.0614114 0.0621942 0.0625759 0.06256 0.0621503 0.0613469 0.0601496 0.0585586 0.0565738 0.0541951 0.0514227 0.0484265 0.0453764 0.0422725 0.0391148 0.0359033 0.032638 0.0293188 0.0259458 0.0226623 0.0196115 0.0167934 0.014208 0.0118554 0.00973547 0.00784828 0.00619381 0.00475151 0.00350082 0.00244176 0.00157431 0.000898478 0.000414263 0.000121666 2.06861e-05 1.58378e-05 1.16359e-05 8.08049e-06 5.17151e-06 2.90898e-06 1.29288e-06 3.2322e-07 0 0 -2.97366e-05 -0.000118947 -0.00026763 -0.000475786 -0.000743416 -0.00107052 -0.0014571 -0.00190315 -0.00236673 -0.0028059 -0.00322066 -0.00361101 -0.00397695 -0.00431847 -0.00463559 -0.0049283 -0.00515293 -0.00526582 -0.00526697 -0.00515638 -0.00493405 -0.00459997 -0.00415415 -0.0035966 -0.00298102 -0.00236114 -0.00173697 -0.00110849 -0.000475719 0.000161354 0.000802726 0.0014484 0.0020287 0.00247397 0.00278421 0.00295941 0.00299958 0.00290471 0.00267481 0.00230987 0.00182393 0.00123102 0.000531133 -0.000275726 -0.00118956 -0.00221037 -0.00333815 -0.0045729 -0.0058037 -0.00691963 -0.00792068 -0.00880686 -0.00957817 -0.0102346 -0.0107762 -0.0112028 -0.011403 -0.0112649 -0.0107887 -0.00997418 -0.00882151 -0.00733064 -0.00550156 -0.00333428 -0.00084504 0.00194993 0.00505063 0.00845706 0.0121692 0.0161871 0.0205107 0.02514 0.0298845 0.0345534 0.0391467 0.0436646 0.0481069 0.0524736 0.0567649 0.0609806 0.0649116 0.0683487 0.0712919 0.0737412 0.0756967 0.0771582 0.0781259 0.0785996 0.078583 0.0780797 0.0770896 0.0756127 0.0736491 0.0711987 0.0682615 0.0648376 0.0611348 0.0573611 0.0535165 0.049601 0.0456145 0.0415572 0.0374289 0.0332297 0.0291363 0.0253254 0.0217969 0.0185509 0.0155873 0.0129062 0.0105076 0.00839142 0.00653607 0.0049199 0.00354292 0.00240513 0.00150653 0.000847105 0.000426871 0.000245822 0.000188208 0.000138275 9.60244e-05 6.14556e-05 3.45688e-05 1.53639e-05 3.84097e-06 0 0 -3.2864e-05 -0.000131456 -0.000295776 -0.000525825 -0.000821601 -0.00118311 -0.00161034 -0.0021033 -0.00261019 -0.00307922 -0.00351039 -0.00390369 -0.00425912 -0.0045767 -0.00485641 -0.00509826 -0.00525301 -0.00527147 -0.00515361 -0.00489944 -0.00450897 -0.00398218 -0.00331909 -0.00251968 -0.00165223 -0.000784976 8.20718e-05 0.000948917 0.00181556 0.002682 0.00354823 0.00441426 0.00519347 0.00579924 0.00623156 0.00649045 0.0065759 0.00648791 0.00622647 0.0057916 0.00520163 0.00447492 0.00361146 0.00261126 0.00147431 0.000200619 -0.00120982 -0.002757 -0.00430299 -0.00570986 -0.00697759 -0.0081062 -0.00909568 -0.00994602 -0.0106572 -0.0112293 -0.0115251 -0.0114074 -0.0108761 -0.00993135 -0.00857307 -0.00680128 -0.00461598 -0.00201716 0.000975104 0.00434076 0.0080798 0.0121922 0.0166781 0.0215373 0.0267699 0.0323759 0.0381232 0.0437799 0.049346 0.0548214 0.0602061 0.0655002 0.0707037 0.0758164 0.0805847 0.0847544 0.0883257 0.0912986 0.093673 0.0954489 0.0966264 0.0972054 0.097189 0.0965802 0.0953791 0.0935857 0.0911999 0.0882217 0.0846512 0.0804883 0.0759834 0.0713867 0.0666982 0.061918 0.0570461 0.0520823 0.0470269 0.0418796 0.0368551 0.0321679 0.0278179 0.0238052 0.0201297 0.0167915 0.0137906 0.0111269 0.00877877 0.00672465 0.00496449 0.00349831 0.0023261 0.00144785 0.00086358 0.000573277 0.000438915 0.000322468 0.000223936 0.000143319 8.0617e-05 3.58298e-05 8.95745e-06 0 0 -3.55992e-05 -0.000142397 -0.000320393 -0.000569587 -0.00088998 -0.00128157 -0.00174436 -0.00227835 -0.00282053 -0.00330791 -0.00374049 -0.00411826 -0.00444122 -0.00470938 -0.00492273 -0.00508128 -0.00513048 -0.00501579 -0.00473722 -0.00429476 -0.0036884 -0.00291816 -0.00198404 -0.00088602 0.000290692 0.00146091 0.00262462 0.00378184 0.00493257 0.00607679 0.00721452 0.00834575 0.00936447 0.0101646 0.0107463 0.0111094 0.011254 0.01118 0.0108875 0.0103764 0.00967033 0.00879263 0.00774335 0.00652248 0.00513002 0.00356597 0.00183033 -7.68975e-05 -0.00198685 -0.00373068 -0.00530838 -0.00671996 -0.0079654 -0.00904472 -0.00995791 -0.010705 -0.0111198 -0.0110364 -0.0104548 -0.00937481 -0.00779659 -0.00572011 -0.00314536 -7.23323e-05 0.00347455 0.00747088 0.0119167 0.0168119 0.0221566 0.0279507 0.0341943 0.0408873 0.0477514 0.0545082 0.0611577 0.0676999 0.0741348 0.0804624 0.0866827 0.0927958 0.0984977 0.103485 0.107757 0.111314 0.114156 0.116283 0.117696 0.118393 0.118378 0.117652 0.116216 0.114069 0.111211 0.107643 0.103364 0.0983749 0.0929722 0.0874531 0.0818177 0.076066 0.0701979 0.0642134 0.0581126 0.0518955 0.0458187 0.040139 0.0348565 0.029971 0.0254826 0.0213914 0.0176972 0.0144001 0.0114796 0.00891505 0.00670646 0.00485384 0.00335719 0.00221651 0.00143179 0.00100305 0.000767959 0.000564215 0.000391816 0.000250762 0.000141054 6.26905e-05 1.56726e-05 0 0 -3.79421e-05 -0.000151768 -0.000341479 -0.000607074 -0.000948553 -0.00136592 -0.00185916 -0.00242829 -0.00299775 -0.00349197 -0.00391096 -0.00425471 -0.00452323 -0.00471651 -0.00483456 -0.00487737 -0.00478533 -0.00449881 -0.00401781 -0.00334232 -0.00247236 -0.00140792 -0.000149005 0.00130439 0.00284774 0.00437651 0.00589069 0.00739029 0.00887531 0.0103457 0.0118016 0.0132429 0.0145417 0.0155702 0.0163284 0.0168162 0.0170337 0.0169809 0.0166578 0.0160644 0.01523 0.0141842 0.0129268 0.0114579 0.00977755 0.00788568 0.0057823 0.00346742 0.00114472 -0.000982108 -0.00291306 -0.00464814 -0.00618735 -0.00753069 -0.00867815 -0.00962974 -0.0101872 -0.0101521 -0.00952458 -0.00830457 -0.00649209 -0.00408713 -0.0010897 0.0025002 0.0066533 0.0113403 0.0165612 0.022316 0.0286047 0.0354273 0.0427838 0.0506742 0.0587688 0.066738 0.0745818 0.0823 0.0898929 0.0973602 0.104702 0.111919 0.118651 0.12454 0.129585 0.133787 0.137146 0.139662 0.141334 0.142163 0.14215 0.141295 0.139599 0.137061 0.133682 0.129462 0.1244 0.118497 0.112101 0.105561 0.098875 0.0920449 0.08507 0.0779505 0.0706862 0.0632773 0.056027 0.0492388 0.0429125 0.0370482 0.031646 0.0267057 0.0222275 0.0182112 0.0146386 0.0114911 0.00876884 0.00647173 0.00459981 0.00315307 0.00213151 0.00153514 0.00117534 0.000863515 0.000599663 0.000383785 0.000215879 9.59461e-05 2.39865e-05 0 0 -3.98928e-05 -0.000159571 -0.000359035 -0.000638284 -0.000997319 -0.00143614 -0.00195475 -0.00255314 -0.00314185 -0.0036314 -0.0040218 -0.00431306 -0.00450515 -0.0045981 -0.0045919 -0.00448654 -0.00421756 -0.0037205 -0.00299537 -0.00204214 -0.000860842 0.000548542 0.00218601 0.00405156 0.00601892 0.00796182 0.00988027 0.0117743 0.0136438 0.0154889 0.0173095 0.0191056 0.0207252 0.0220159 0.0229778 0.0236109 0.0239153 0.0238908 0.0235375 0.0228554 0.0218807 0.0206495 0.0191618 0.0174176 0.0154169 0.0131598 0.0106461 0.00787594 0.00509172 0.00253587 0.000208379 -0.00189075 -0.00376152 -0.00540392 -0.00681797 -0.00800365 -0.00872709 -0.0087544 -0.00808558 -0.00672063 -0.00465955 -0.00190235 0.00155099 0.00570045 0.0105113 0.015949 0.0220134 0.0287046 0.0360225 0.0439671 0.0525385 0.0617367 0.0711757 0.0804695 0.0896183 0.0986219 0.10748 0.116194 0.124762 0.133185 0.141044 0.147919 0.153811 0.158719 0.162643 0.165584 0.167541 0.168515 0.168504 0.167509 0.165529 0.162564 0.158614 0.15368 0.14776 0.140856 0.133371 0.125709 0.11787 0.109855 0.101662 0.0932935 0.0847477 0.0760251 0.0674801 0.0594671 0.0519861 0.045037 0.0386198 0.0327347 0.0273814 0.0225602 0.0182557 0.0144529 0.0111516 0.00835198 0.00605395 0.00425754 0.00296274 0.00216955 0.00166106 0.00122037 0.000847479 0.000542386 0.000305092 0.000135597 3.38992e-05 0 0 -4.14512e-05 -0.000165805 -0.000373061 -0.000663219 -0.00103628 -0.00149224 -0.00203111 -0.00265288 -0.00325282 -0.0037262 -0.00407302 -0.00429329 -0.004387 -0.00435414 -0.00419474 -0.00390877 -0.00342718 -0.00268089 -0.0016699 -0.000394218 0.00114616 0.00295123 0.005021 0.00735547 0.00980422 0.0122169 0.0145934 0.0169337 0.019238 0.0215061 0.0237381 0.025934 0.0279149 0.0295017 0.0306946 0.0314936 0.0318985 0.0319095 0.0315266 0.0307496 0.0296224 0.0281887 0.0264484 0.0244015 0.0220481 0.0193882 0.0164217 0.0131487 0.00985416 0.00682325 0.00405593 0.00155222 -0.000687905 -0.00266443 -0.00437736 -0.00582669 -0.00673961 -0.0068433 -0.00613775 -0.00462298 -0.00229898 0.000834248 0.00477671 0.0095284 0.0150487 0.021297 0.0282733 0.0359776 0.0444099 0.0535702 0.0634585 0.0740747 0.0849719 0.0957027 0.106267 0.116665 0.126897 0.136963 0.146862 0.156595 0.165677 0.173623 0.180433 0.186108 0.190647 0.19405 0.196317 0.197449 0.197442 0.196294 0.194006 0.190577 0.186006 0.180295 0.173443 0.16545 0.15678 0.147898 0.138803 0.129495 0.119975 0.110242 0.100297 0.0901389 0.080178 0.0708241 0.0620771 0.0539372 0.0464042 0.0394781 0.0331591 0.027447 0.022331 0.0178003 0.0138548 0.0104946 0.00771962 0.00552992 0.00392547 0.00290627 0.00222511 0.00163478 0.00113526 0.000726568 0.000408694 0.000181642 4.54105e-05 0 0 -4.17167e-05 -0.000166867 -0.00037545 -0.000667467 -0.00104292 -0.0015018 -0.00204412 -0.00266987 -0.00325771 -0.00368629 -0.00395563 -0.00406571 -0.00401654 -0.00380812 -0.00344045 -0.00291352 -0.00215479 -0.00109169 0.000275784 0.00194762 0.00392382 0.00620439 0.00878933 0.0116786 0.0146947 0.0176599 0.0205743 0.0234379 0.0262506 0.0290124 0.0317234 0.0343836 0.0367845 0.0387176 0.040183 0.0411806 0.0417104 0.0417725 0.0413668 0.0404934 0.0392043 0.0375517 0.0355357 0.0331561 0.030413 0.0273064 0.0238364 0.0200028 0.0161376 0.0125725 0.0093076 0.00634288 0.00367834 0.00131398 -0.000750212 -0.00251423 -0.00366296 -0.00388132 -0.0031693 -0.00152689 0.00104589 0.00454906 0.00898261 0.0143465 0.0205937 0.027677 0.0355964 0.0443519 0.0539436 0.0643713 0.0756352 0.0877352 0.100159 0.112394 0.124441 0.1363 0.14797 0.159452 0.170745 0.181849 0.192212 0.20128 0.209053 0.215531 0.220714 0.224602 0.227195 0.228492 0.22849 0.227182 0.224569 0.220651 0.215428 0.2089 0.201066 0.191928 0.18201 0.171839 0.161416 0.150739 0.13981 0.128628 0.117193 0.105505 0.0940326 0.0832446 0.0731408 0.0637212 0.0549858 0.0469346 0.0395677 0.032885 0.0268819 0.0215539 0.0169009 0.0129229 0.00961997 0.00699206 0.00503918 0.00376133 0.00287977 0.00211575 0.00146927 0.000940332 0.000528937 0.000235083 5.87708e-05 0 0 -3.97885e-05 -0.000159154 -0.000358096 -0.000636616 -0.000994712 -0.00143239 -0.00194964 -0.00254646 -0.00308356 -0.00342162 -0.00356065 -0.00350064 -0.0032416 -0.00278352 -0.0021264 -0.00127025 -0.000141013 0.00133536 0.00315888 0.00532954 0.00784733 0.0107123 0.0139243 0.0174836 0.0211814 0.0248094 0.0283675 0.0318557 0.0352741 0.0386226 0.0419012 0.04511 0.0480077 0.0503534 0.0521469 0.0533884 0.0540777 0.054215 0.0538002 0.0528332 0.0513756 0.0494888 0.0471729 0.0444278 0.0412535 0.03765 0.0336173 0.0291555 0.0246474 0.020476 0.0166414 0.0131434 0.00998208 0.00715748 0.00466958 0.00251837 0.0010646 0.000669018 0.00133161 0.00305239 0.00583135 0.0096685 0.0145638 0.0205173 0.0274747 0.0353817 0.0442383 0.0540444 0.0648002 0.0765055 0.0891604 0.102765 0.116739 0.130502 0.144054 0.157395 0.170525 0.183444 0.196153 0.20865 0.220314 0.230521 0.239271 0.246565 0.252402 0.256782 0.259706 0.261173 0.261175 0.259704 0.256759 0.252341 0.24645 0.239085 0.230248 0.219936 0.208739 0.197244 0.185451 0.173359 0.160969 0.148281 0.135294 0.122009 0.108956 0.0966636 0.085132 0.0743613 0.0643516 0.0551027 0.0466148 0.0388877 0.0319261 0.0257343 0.0203124 0.0156603 0.0117782 0.00866582 0.00632334 0.00475073 0.00363728 0.00267229 0.00185575 0.00118768 0.000668072 0.000296921 7.42302e-05 0 0 -3.56667e-05 -0.000142667 -0.000321 -0.000570667 -0.000891667 -0.001284 -0.00174767 -0.00228267 -0.00273038 -0.00293218 -0.00288808 -0.00259807 -0.00206215 -0.00128033 -0.000252594 0.00102105 0.00261415 0.00460026 0.00697939 0.00975153 0.0129167 0.0164749 0.020426 0.0247702 0.0292643 0.0336652 0.0379729 0.0421873 0.0463086 0.0503366 0.0542714 0.0581131 0.0615846 0.0644091 0.0665866 0.0681171 0.0690006 0.0692371 0.0688266 0.0677691 0.0661363 0.064 0.06136 0.0582165 0.0545695 0.0504188 0.0457646 0.0406068 0.0353838 0.0305339 0.0260572 0.0219537 0.0182233 0.0148661 0.011882 0.00927111 0.0074431 0.00680772 0.00736498 0.00911487 0.0120574 0.0161926 0.0215204 0.0280408 0.0356918 0.0444111 0.0541989 0.0650551 0.0769797 0.0899727 0.104034 0.119164 0.134711 0.150025 0.165104 0.17995 0.194562 0.208941 0.223085 0.236996 0.24998 0.261343 0.271086 0.279208 0.28571 0.29059 0.293851 0.295491 0.295497 0.293859 0.290575 0.285646 0.279071 0.270852 0.260987 0.249476 0.236969 0.224113 0.210908 0.197354 0.183452 0.169201 0.154601 0.139653 0.124948 0.111081 0.0980508 0.0858576 0.0745015 0.0639823 0.0543002 0.0454552 0.0374635 0.0303415 0.0240893 0.0187069 0.0141942 0.0105512 0.00777797 0.00587448 0.00449765 0.00330439 0.00229472 0.00146862 0.000826099 0.000367155 9.17887e-05 0 0 -2.93512e-05 -0.000117405 -0.000264161 -0.000469619 -0.00073378 -0.00105664 -0.00143821 -0.00187848 -0.00219816 -0.00221798 -0.00193792 -0.001358 -0.000478212 0.000701448 0.00218098 0.00396037 0.0061107 0.00870301 0.0117373 0.0152136 0.0191319 0.0234922 0.0282944 0.0335387 0.0389435 0.0442274 0.0493905 0.0544327 0.0593541 0.0641545 0.0688342 0.0733929 0.077515 0.0808847 0.0835019 0.0853666 0.0864789 0.0868387 0.0864461 0.0853011 0.0834864 0.0810851 0.0780971 0.0745224 0.070361 0.0656129 0.0602781 0.0543566 0.0483466 0.0427461 0.0375552 0.0327738 0.028402 0.0244398 0.0208871 0.017744 0.0154725 0.0145348 0.0149308 0.0166605 0.019724 0.0241213 0.0298522 0.0369169 0.0452448 0.0547653 0.0654783 0.0773839 0.0904822 0.104773 0.120256 0.136932 0.154076 0.170963 0.187593 0.203966 0.220082 0.235941 0.251543 0.266889 0.281212 0.293749 0.304499 0.313462 0.320638 0.326027 0.32963 0.331445 0.331457 0.329648 0.326017 0.320565 0.313292 0.304198 0.293283 0.280547 0.266698 0.252444 0.237787 0.222725 0.207259 0.191388 0.175113 0.158434 0.142009 0.126497 0.111897 0.0982101 0.0854355 0.0735735 0.0626241 0.0525873 0.0434941 0.0353756 0.0282317 0.0220625 0.016868 0.0126482 0.00940305 0.00713257 0.00546087 0.00401207 0.00278616 0.00178314 0.00100302 0.000445786 0.000111446 0 0 -2.08421e-05 -8.33683e-05 -0.000187579 -0.000333473 -0.000521052 -0.000750314 -0.00102126 -0.00133389 -0.00148691 -0.001279 -0.000710177 0.000219566 0.00151023 0.00316181 0.00517431 0.00754772 0.0103486 0.0136436 0.0174327 0.0217158 0.0264929 0.0317642 0.0375295 0.0437888 0.0502188 0.056496 0.0626203 0.0685918 0.0744105 0.0800763 0.0855894 0.0909495 0.0957991 0.0997802 0.102893 0.105137 0.106513 0.10702 0.106659 0.105429 0.103426 0.100744 0.0973841 0.0933454 0.0886281 0.0832323 0.077158 0.0704051 0.0635359 0.0571126 0.0511353 0.0456038 0.0405182 0.0358786 0.0316848 0.027937 0.0251529 0.0238502 0.0240291 0.0256894 0.0288312 0.0334546 0.0395594 0.0471457 0.0561338 0.0664441 0.0780764 0.0910309 0.105308 0.120906 0.137827 0.15607 0.174834 0.193317 0.21152 0.229442 0.247084 0.264446 0.281527 0.298327 0.31401 0.327737 0.339509 0.349325 0.357186 0.363092 0.367042 0.369037 0.369054 0.36707 0.363085 0.3571 0.349113 0.339126 0.327137 0.313148 0.297927 0.28224 0.266088 0.249471 0.232389 0.214843 0.196831 0.178354 0.160139 0.142911 0.126671 0.111419 0.0971537 0.0838763 0.0715864 0.0602841 0.0500179 0.0408364 0.0327395 0.0257273 0.0197997 0.0149568 0.0111986 0.00852501 0.00652696 0.00479532 0.0033300