<?xml version="1.0"?> 
<VTKFile type="StructuredGrid" version="0.1"> 
<StructuredGrid WholeExtent="0 128 0 128 0 0"> 
<Piece Extent="0 128 0 128 0 0"> 
<PointData>
<DataArray type="Float32" Name="u" format="ascii" NumberOfComponents="1"> 
0 0 0 0 0 0 0 0 0 0 0 0 0 0 0 0 0 0 0 0 0 0 0 0 0 0 0 0 0 0 0 0 0 0 0 0 0 0 0 0 0 0 0 0 0 0 0 0 0 0 0 0 0 0 0 0 0 0 0 0 0 0 0 0 0 0 0 0 0 0 0 0 0 0 0 0 0 0 0 0 0 0 0 0 0 0 0 0 0 0 0 0 0 0 0 0 0 0 0 0 0 0 0 0 0 0 0 0 0 0 0 0 0 0 0 0 0 0 0 0 0 0 0 0 0 0 0 0 0 0 -1.28421e-07 -5.13684e-07 -1.15579e-06 -2.05474e-06 -3.21052e-06 -4.62315e-06 -6.29263e-06 -8.21894e-06 -1.00929e-05 -1.16051e-05 -1.27558e-05 -1.35448e-05 -1.39721e-05 -1.40379e-05 -1.3742e-05 -1.30844e-05 -1.19354e-05 -1.01651e-05 -7.77349e-06 -4.76059e-06 -1.12639e-06 3.1291e-06 8.00589e-06 1.3504e-05 1.91916e-05 2.46369e-05 2.98399e-05 3.48006e-05 3.9519e-05 4.39952e-05 4.8229e-05 5.22206e-05 5.55888e-05 5.79525e-05 5.93118e-05 5.96666e-05 5.9017e-05 5.73629e-05 5.47044e-05 5.10414e-05 4.65716e-05 4.14926e-05 3.58044e-05 2.9507e-05 2.26003e-05 1.50845e-05 6.95945e-06 -1.77481e-06 -1.03866e-05 -1.81443e-05 -2.50479e-05 -3.10973e-05 -3.62926e-05 -4.06339e-05 -4.4121e-05 -4.6754e-05 -4.78763e-05 -4.68315e-05 -4.36196e-05 -3.82405e-05 -3.06942e-05 -2.09808e-05 -9.10023e-06 4.94749e-06 2.10317e-05 3.90218e-05 5.89176e-05 8.07194e-05 0.000104427 0.00013004 0.00015756 0.000186985 0.000217177 0.000246998 0.000276447 0.000305525 0.000334232 0.000362567 0.00039053 0.000418122 0.000444049 0.000467015 0.000487021 0.000504067 0.000518152 0.000529278 0.000537443 0.000542648 0.000544765 0.000543669 0.000539357 0.000531831 0.00052109 0.000507135 0.000489965 0.00046958 0.000447142 0.000423811 0.000399588 0.000374473 0.000348465 0.000321564 0.000293771 0.000265085 0.000236734 0.000209945 0.000184717 0.000161052 0.000138948 0.000118406 9.9426e-05 8.20078e-05 6.62895e-05 5.24093e-05 4.03673e-05 3.01634e-05 2.17976e-05 1.527e-05 1.05805e-05 7.72914e-06 5.91762e-06 4.34764e-06 3.0192e-06 1.93229e-06 1.08691e-06 4.83071e-07 1.20768e-07 0 0 -5.13684e-07 -2.05474e-06 -4.62315e-06 -8.21894e-06 -1.28421e-05 -1.84926e-05 -2.51705e-05 -3.28758e-05 -4.03714e-05 -4.64205e-05 -5.10231e-05 -5.41791e-05 -5.58886e-05 -5.61515e-05 -5.49679e-05 -5.23377e-05 -4.77416e-05 -4.06604e-05 -3.1094e-05 -1.90424e-05 -4.50557e-06 1.25164e-05 3.20236e-05 5.40159e-05 7.67663e-05 9.85474e-05 0.000119359 0.000139202 0.000158076 0.000175981 0.000192916 0.000208882 0.000222355 0.00023181 0.000237247 0.000238666 0.000236068 0.000229452 0.000218818 0.000204166 0.000186286 0.00016597 0.000143218 0.000118028 9.04013e-05 6.0338e-05 2.78378e-05 -7.09922e-06 -4.15464e-05 -7.25771e-05 -0.000100191 -0.000124389 -0.000145171 -0.000162535 -0.000176484 -0.000187016 -0.000191505 -0.000187326 -0.000174478 -0.000152962 -0.000122777 -8.39232e-05 -3.64009e-05 1.979e-05 8.41268e-05 0.000156087 0.000235671 0.000322877 0.000417708 0.000520161 0.000630238 0.000747939 0.000868708 0.000987991 0.00110579 0.0012221 0.00133693 0.00145027 0.00156212 0.00167249 0.00177619 0.00186806 0.00194808 0.00201627 0.00207261 0.00211711 0.00214977 0.00217059 0.00217906 0.00217467 0.00215743 0.00212732 0.00208436 0.00202854 0.00195986 0.00187832 0.00178857 0.00169525 0.00159835 0.00149789 0.00139386 0.00128626 0.00117508 0.00106034 0.000946936 0.000839779 0.000738869 0.000644207 0.000555792 0.000473625 0.000397704 0.000328031 0.000265158 0.000209637 0.000161469 0.000120653 8.71904e-05 6.10799e-05 4.2322e-05 3.09166e-05 2.36705e-05 1.73906e-05 1.20768e-05 7.72914e-06 4.34764e-06 1.93229e-06 4.83071e-07 0 0 -1.15579e-06 -4.62315e-06 -1.04021e-05 -1.84926e-05 -2.88947e-05 -4.16084e-05 -5.66336e-05 -7.39705e-05 -9.08357e-05 -0.000104446 -0.000114802 -0.000121903 -0.000125749 -0.000126341 -0.000123678 -0.00011776 -0.000107419 -9.14859e-05 -6.99614e-05 -4.28453e-05 -1.01375e-05 2.81619e-05 7.2053e-05 0.000121536 0.000172724 0.000221732 0.000268559 0.000313205 0.000355671 0.000395956 0.000434061 0.000469985 0.000500299 0.000521572 0.000533806 0.000536999 0.000531153 0.000516266 0.00049234 0.000459373 0.000419145 0.000373433 0.000322239 0.000265563 0.000203403 0.00013576 6.2635e-05 -1.59733e-05 -9.34794e-05 -0.000163299 -0.000225431 -0.000279876 -0.000326634 -0.000365705 -0.000397089 -0.000420786 -0.000430887 -0.000421484 -0.000392576 -0.000344164 -0.000276248 -0.000188827 -8.1902e-05 4.45274e-05 0.000189285 0.000351196 0.000530259 0.000726474 0.000939842 0.00117036 0.00141804 0.00168286 0.00195459 0.00222298 0.00248802 0.00274973 0.00300808 0.0032631 0.00351477 0.0037631 0.00399644 0.00420313 0.00438319 0.0045366 0.00466337 0.0047635 0.00483699 0.00488383 0.00490289 0.00489302 0.00485421 0.00478648 0.00468981 0.00456421 0.00440968 0.00422622 0.00402428 0.0038143 0.00359629 0.00337025 0.00313618 0.00289407 0.00264394 0.00238577 0.00213061 0.0018895 0.00166246 0.00144947 0.00125053 0.00106566 0.000894834 0.00073807 0.000596605 0.000471684 0.000363305 0.00027147 0.000196178 0.00013743 9.52244e-05 6.95623e-05 5.32586e-05 3.91288e-05 2.71728e-05 1.73906e-05 9.78219e-06 4.34764e-06 1.08691e-06 0 0 -2.05474e-06 -8.21894e-06 -1.84926e-05 -3.28758e-05 -5.13684e-05 -7.39705e-05 -0.000100682 -0.000131503 -0.000161486 -0.000185682 -0.000204092 -0.000216716 -0.000223554 -0.000224606 -0.000219871 -0.000209351 -0.000190966 -0.000162642 -0.000124376 -7.61694e-05 -1.80223e-05 5.00656e-05 0.000128094 0.000216064 0.000307065 0.00039419 0.000477438 0.000556809 0.000632304 0.000703923 0.000771664 0.000835529 0.00088942 0.00092724 0.000948988 0.000954666 0.000944272 0.000917807 0.00087527 0.000816663 0.000745146 0.000663882 0.00057287 0.000472111 0.000361605 0.000241352 0.000111351 -2.83969e-05 -0.000166186 -0.000290309 -0.000400766 -0.000497557 -0.000580682 -0.000650142 -0.000705935 -0.000748063 -0.000766021 -0.000749304 -0.000697913 -0.000611847 -0.000491107 -0.000335693 -0.000145604 7.91599e-05 0.000336507 0.000624348 0.000942682 0.00129151 0.00167083 0.00208065 0.00252095 0.00299175 0.00347483 0.00395196 0.00442315 0.0048884 0.0053477 0.00580107 0.00624848 0.00668996 0.00710478 0.00747224 0.00779233 0.00806507 0.00829044 0.00846844 0.00859909 0.00868237 0.00871625 0.0086987 0.00862971 0.00850929 0.00833744 0.00811415 0.00783944 0.00751328 0.00715427 0.00678098 0.00639341 0.00599156 0.00557543 0.00514502 0.00470033 0.00424136 0.00378774 0.00335912 0.00295548 0.00257683 0.00222317 0.0018945 0.00159082 0.00131212 0.00106063 0.000838549 0.000645876 0.000482614 0.000348762 0.00024432 0.000169288 0.000123666 9.4682e-05 6.95623e-05 4.83071e-05 3.09166e-05 1.73906e-05 7.72914e-06 1.93229e-06 0 0 -3.21052e-06 -1.28421e-05 -2.88947e-05 -5.13684e-05 -8.02631e-05 -0.000115579 -0.000157316 -0.000205474 -0.000252321 -0.000290128 -0.000318894 -0.00033862 -0.000349304 -0.000350947 -0.000343549 -0.00032711 -0.000298385 -0.000254127 -0.000194337 -0.000119015 -2.81598e-05 7.82275e-05 0.000200147 0.000337599 0.000479789 0.000615922 0.000745997 0.000870015 0.000987975 0.00109988 0.00120573 0.00130551 0.00138972 0.00144881 0.00148279 0.00149167 0.00147542 0.00143407 0.00136761 0.00127604 0.00116429 0.00103732 0.00089511 0.000737674 0.000565008 0.000377112 0.000173986 -4.43701e-05 -0.000259665 -0.000453607 -0.000626196 -0.000777433 -0.000907316 -0.00101585 -0.00110302 -0.00116885 -0.00119691 -0.00117079 -0.00109049 -0.000956012 -0.000767355 -0.00052452 -0.000227506 0.000123687 0.000525793 0.000975544 0.00147294 0.00201798 0.00261067 0.00325101 0.00393899 0.00467462 0.00542942 0.00617494 0.00691118 0.00763813 0.00835579 0.00906416 0.00976325 0.0104531 0.0111012 0.0116754 0.0121755 0.0126017 0.0129538 0.0132319 0.0134361 0.0135662 0.0136191 0.0135917 0.0134839 0.0132958 0.0130273 0.0126784 0.0122491 0.0117395 0.0111786 0.0105953 0.00998971 0.00936182 0.00871161 0.0080391 0.00734427 0.00662713 0.00591835 0.00524862 0.00461793 0.0040263 0.0034737 0.00296015 0.00248565 0.00205019 0.00165724 0.00131023 0.00100918 0.000754084 0.00054494 0.00038175 0.000264512 0.000193229 0.000147941 0.000108691 7.54799e-05 4.83071e-05 2.71728e-05 1.20768e-05 3.0192e-06 0 0 -4.62315e-06 -1.84926e-05 -4.16084e-05 -7.39705e-05 -0.000115579 -0.000166434 -0.000226535 -0.000295882 -0.000363343 -0.000417785 -0.000459208 -0.000487612 -0.000502997 -0.000505364 -0.000494711 -0.000471039 -0.000429675 -0.000365943 -0.000279846 -0.000171381 -4.05501e-05 0.000112648 0.000288212 0.000486143 0.000690896 0.000886927 0.00107424 0.00125282 0.00142268 0.00158383 0.00173624 0.00187994 0.0020012 0.00208629 0.00213522 0.002148 0.00212461 0.00206507 0.00196936 0.00183749 0.00167658 0.00149373 0.00128896 0.00106225 0.000813612 0.000543042 0.00025054 -6.3893e-05 -0.000373918 -0.000653194 -0.000901723 -0.0011195 -0.00130654 -0.00146282 -0.00158835 -0.00168314 -0.00172355 -0.00168593 -0.0015703 -0.00137666 -0.00110499 -0.000755309 -0.000327608 0.00017811 0.000757142 0.00140478 0.00212104 0.0029059 0.00375937 0.00468145 0.00567214 0.00673145 0.00781837 0.00889192 0.0099521 0.0109989 0.0120323 0.0130524 0.0140591 0.0150524 0.0159858 0.0168125 0.0175327 0.0181464 0.0186535 0.019054 0.0193479 0.0195353 0.0196116 0.0195721 0.0194168 0.0191459 0.0187592 0.0182568 0.0176387 0.0169049 0.0160971 0.0152572 0.0143852 0.013481 0.0125447 0.0115763 0.0105757 0.00954306 0.00852242 0.00755801 0.00664983 0.00579786 0.00500213 0.00426262 0.00357934 0.00295228 0.00238642 0.00188673 0.00145322 0.00108588 0.000784714 0.000549719 0.000380898 0.000278249 0.000213034 0.000156515 0.000108691 6.95623e-05 3.91288e-05 1.73906e-05 4.34764e-06 0 0 -6.29263e-06 -2.51705e-05 -5.66336e-05 -0.000100682 -0.000157316 -0.000226535 -0.000308339 -0.000402728 -0.00049455 -0.000568652 -0.000625033 -0.000663694 -0.000684635 -0.000687856 -0.000673356 -0.000641137 -0.000584835 -0.00049809 -0.000380901 -0.000233269 -5.51932e-05 0.000153326 0.000392289 0.000661695 0.000940387 0.00120721 0.00146215 0.00170523 0.00193643 0.00215576 0.00236322 0.00255881 0.00272385 0.00283967 0.00290628 0.00292366 0.00289183 0.00281078 0.00268052 0.00250103 0.00228201 0.00203314 0.00175441 0.00144584 0.00110742 0.00073914 0.000341013 -8.69655e-05 -0.000508944 -0.00088907 -0.00122734 -0.00152377 -0.00177834 -0.00199106 -0.00216193 -0.00229094 -0.00234594 -0.00229474 -0.00213736 -0.00187378 -0.00150402 -0.00102806 -0.000445911 0.000242427 0.00103055 0.00191207 0.00288696 0.00395525 0.00511692 0.00637198 0.00772042 0.00916225 0.0106417 0.0121029 0.0135459 0.0149707 0.0163773 0.0177658 0.019136 0.020488 0.0217584 0.0228837 0.023864 0.0246993 0.0253895 0.0259346 0.0263347 0.0265897 0.0266935 0.0266398 0.0264285 0.0260597 0.0255334 0.0248496 0.0240083 0.0230094 0.02191 0.0207668 0.0195798 0.0183492 0.0170748 0.0157566 0.0143948 0.0129892 0.0116 0.0102873 0.00905115 0.00789154 0.00680845 0.0058019 0.00487188 0.00401838 0.00324818 0.00256806 0.001978 0.001478 0.00106808 0.000748229 0.000518444 0.000378728 0.000289964 0.000213034 0.000147941 9.4682e-05 5.32586e-05 2.36705e-05 5.91762e-06 0 0 -8.21894e-06 -3.28758e-05 -7.39705e-05 -0.000131503 -0.000205474 -0.000295882 -0.000402728 -0.000526012 -0.000645943 -0.000742729 -0.00081637 -0.000866866 -0.000894217 -0.000898424 -0.000879486 -0.000837403 -0.000763866 -0.000650566 -0.000497503 -0.000304678 -7.20891e-05 0.000200262 0.000512377 0.000864254 0.00122826 0.00157676 0.00190975 0.00222724 0.00252922 0.00281569 0.00308666 0.00334212 0.00355768 0.00370896 0.00379595 0.00381866 0.00377709 0.00367123 0.00350108 0.00326665 0.00298058 0.00265553 0.00229148 0.00188845 0.00144642 0.000965407 0.000445405 -0.000113588 -0.000664743 -0.00116123 -0.00160306 -0.00199023 -0.00232273 -0.00260057 -0.00282374 -0.00299225 -0.00306408 -0.00299722 -0.00279165 -0.00244739 -0.00196443 -0.00134277 -0.000582415 0.00031664 0.00134603 0.00249739 0.00377073 0.00516604 0.00668332 0.00832258 0.0100838 0.011967 0.0138993 0.0158079 0.0176926 0.0195536 0.0213908 0.0232043 0.0249939 0.0267598 0.0284191 0.029889 0.0311693 0.0322603 0.0331617 0.0338738 0.0343963 0.0347295 0.034865 0.0347948 0.0345188 0.0340372 0.0333498 0.0324566 0.0313577 0.0300531 0.0286171 0.0271239 0.0255737 0.0239663 0.0223017 0.0205801 0.0188013 0.0169654 0.015151 0.0134365 0.0118219 0.0103073 0.00889268 0.00757799 0.00636327 0.0052485 0.00424252 0.00335419 0.0025835 0.00193046 0.00139505 0.000977279 0.000677152 0.000494665 0.000378728 0.000278249 0.000193229 0.000123666 6.95623e-05 3.09166e-05 7.72914e-06 0 0 -9.95223e-06 -3.98089e-05 -8.95701e-05 -0.000159236 -0.000248806 -0.00035828 -0.000487659 -0.000636943 -0.000780921 -0.000894382 -0.000977328 -0.00102976 -0.00105167 -0.00104307 -0.00100395 -0.000934319 -0.000824135 -0.000663368 -0.000452016 -0.000190081 0.000122439 0.000485542 0.00089923 0.0013635 0.00184286 0.00230181 0.00274036 0.0031585 0.00355623 0.00393355 0.00429046 0.00462697 0.00491185 0.00511387 0.00523304 0.00526935 0.00522281 0.00509342 0.00488117 0.00458607 0.00422437 0.00381235 0.00334999 0.0028373 0.00227429 0.00166094 0.000997266 0.00028326 -0.000421146 -0.00105602 -0.00162137 -0.00211719 -0.00254348 -0.00290024 -0.00318747 -0.00340517 -0.00349971 -0.00341748 -0.00315846 -0.00272267 -0.00211009 -0.00132073 -0.000354598 0.000788319 0.00209731 0.00356167 0.00518141 0.00695651 0.00888699 0.0109728 0.0132141 0.0156106 0.0180698 0.0204986 0.022897 0.0252652 0.0276031 0.0299106 0.0321878 0.0344348 0.0365459 0.0384158 0.0400444 0.0414319 0.042578 0.043483 0.0441467 0.0445691 0.0447398 0.0446483 0.0442945 0.0436784 0.0428001 0.0416596 0.0402567 0.0385917 0.0367587 0.0348523 0.0328724 0.030819 0.0286921 0.0264917 0.0242178 0.0218704 0.0195495 0.0173551 0.0152872 0.0133458 0.0115309 0.00984246 0.00828051 0.00684504 0.005548 0.00440128 0.00340491 0.00255887 0.00186317 0.0013178 0.000922777 0.000678087 0.00051916 0.000381424 0.000264878 0.000169522 9.53559e-05 4.23804e-05 1.05951e-05 0 0 -1.10426e-05 -4.41705e-05 -9.93837e-05 -0.000176682 -0.000276066 -0.000397535 -0.000541089 -0.000706728 -0.000862882 -0.000977979 -0.00105202 -0.001085 -0.00107693 -0.0010278 -0.00093761 -0.000806366 -0.000623011 -0.00037649 -6.68029e-05 0.000306049 0.000742067 0.00124125 0.0018036 0.00242912 0.00307253 0.0036886 0.0042773 0.00483865 0.00537264 0.00587928 0.00635856 0.00681048 0.00719551 0.00747412 0.00764632 0.00771209 0.00767144 0.00752438 0.00727089 0.00691099 0.00646544 0.00595504 0.00537978 0.00473966 0.00403468 0.00326484 0.00243015 0.0015306 0.000642014 -0.000159773 -0.000874765 -0.00150296 -0.00204436 -0.00249896 -0.00286677 -0.00314778 -0.00327456 -0.00317965 -0.00286307 -0.0023248 -0.00156486 -0.000583242 0.000620057 0.00204504 0.00367814 0.00550582 0.00752808 0.00974491 0.0121563 0.0147623 0.0175629 0.020558 0.0236314 0.0266667 0.029664 0.0326232 0.0355444 0.0384275 0.0412726 0.0440796 0.0467167 0.0490518 0.0510851 0.0528165 0.0542461 0.0553737 0.0561995 0.0567234 0.0569319 0.0568114 0.056362 0.0555837 0.0544764 0.0530401 0.0512749 0.0491807 0.0468751 0.0444754 0.0419817 0.0393939 0.0367121 0.0339363 0.0310665 0.0281025 0.0251697 0.0223929 0.0197722 0.0173077 0.0149992 0.0128469 0.0108506 0.00901044 0.00734314 0.00586545 0.00457737 0.00347888 0.00257001 0.00185074 0.00132108 0.000981019 0.000751092 0.000551823 0.00038321 0.000245255 0.000137956 6.13137e-05 1.53284e-05 0 0 -1.14901e-05 -4.59606e-05 -0.000103411 -0.000183842 -0.000287254 -0.000413645 -0.000563017 -0.000735369 -0.000891828 -0.000993519 -0.00104044 -0.0010326 -0.000969986 -0.000852606 -0.000680459 -0.000453544 -0.000160492 0.000210068 0.000658137 0.00118371 0.0017868 0.00246739 0.00322549 0.0040611 0.00491728 0.00573711 0.00652058 0.0072677 0.00797847 0.00865288 0.00929093 0.00989264 0.0104087 0.0107897 0.0110358 0.0111469 0.011123 0.0109641 0.0106703 0.0102414 0.0097038 0.00908361 0.00838084 0.00759551 0.0067276 0.00577711 0.00474406 0.00362842 0.00252474 0.00152752 0.000636755 -0.000147542 -0.000825375 -0.00139675 -0.00186165 -0.0022201 -0.00238861 -0.00228374 -0.00190547 -0.0012538 -0.000328744 0.000869708 0.00234155 0.00408679 0.00608852 0.00832984 0.0108107 0.0135312 0.0164913 0.019691 0.0231302 0.0268091 0.0305842 0.0343124 0.0379935 0.0416277 0.0452149 0.048755 0.0522482 0.0556944 0.0589314 0.0617971 0.0642914 0.0664143 0.0681658 0.069546 0.0705548 0.0711923 0.0714412 0.0712842 0.0707214 0.0697528 0.0683784 0.0665982 0.0644122 0.0618203 0.0589662 0.0559933 0.0529016 0.0496912 0.046362 0.0429141 0.0393474 0.0356619 0.0320114 0.0285498 0.0252769 0.0221929 0.0192976 0.0165912 0.0140735 0.0117447 0.00962797 0.0077467 0.00610088 0.0046905 0.00351557 0.00257609 0.00187205 0.00140346 0.00107453 0.000789447 0.000548227 0.000350865 0.000197362 8.77163e-05 2.19291e-05 0 0 -1.12948e-05 -4.51791e-05 -0.000101653 -0.000180716 -0.000282369 -0.000406612 -0.000553443 -0.000722865 -0.000867757 -0.000941001 -0.000942597 -0.000872545 -0.000730844 -0.000517495 -0.000232498 0.000124146 0.000563421 0.00109631 0.0017228 0.00244291 0.00325663 0.00416395 0.00516489 0.00625944 0.0073771 0.00844735 0.0094702 0.0104457 0.0113737 0.0122544 0.0130876 0.0138734 0.0145513 0.0150607 0.0154015 0.0155737 0.0155774 0.0154126 0.0150792 0.0145773 0.0139394 0.013198 0.0123532 0.0114048 0.010353 0.00919775 0.00793898 0.00657674 0.00522703 0.00400584 0.00291319 0.00194907 0.00111348 0.000406415 -0.000172115 -0.000622115 -0.000841887 -0.000729735 -0.000285659 0.000490341 0.00159827 0.00303811 0.00480989 0.00691359 0.00932845 0.0120337 0.0150294 0.0183155 0.021892 0.0257589 0.0299162 0.0343639 0.0389283 0.0434355 0.0478856 0.0522786 0.0566144 0.0608931 0.0651147 0.0692792 0.0731902 0.0766516 0.0796632 0.0822251 0.0843373 0.0859999 0.0872127 0.0879758 0.0882676 0.0880666 0.0873727 0.086186 0.0845064 0.0823339 0.0796686 0.0765105 0.073032 0.0694059 0.0656322 0.0617108 0.0576417 0.0534249 0.0490605 0.0445484 0.0400748 0.0358258 0.0318013 0.0280014 0.0244261 0.0210754 0.0179493 0.0150478 0.0124025 0.010045 0.00797544 0.00619372 0.00469985 0.00349384 0.0025757 0.00194541 0.00148946 0.0010943 0.000759928 0.000486354 0.000273574 0.000121588 3.03971e-05 0 0 -1.04565e-05 -4.1826e-05 -9.41085e-05 -0.000167304 -0.000261412 -0.000376434 -0.000512368 -0.000669216 -0.00079067 -0.000820427 -0.000758484 -0.000604843 -0.000359504 -2.24654e-05 0.000406271 0.000926706 0.00154873 0.00228222 0.00312719 0.00408364 0.00515156 0.00633095 0.00762182 0.00902416 0.010452 0.0118193 0.0131262 0.0143725 0.0155583 0.0166837 0.0177485 0.0187529 0.0196235 0.0202869 0.0207433 0.0209926 0.0210348 0.0208699 0.0204979 0.0199188 0.0191724 0.0182984 0.0172968 0.0161677 0.014911 0.0135267 0.0120149 0.0103755 0.00874888 0.00727521 0.00595454 0.00478687 0.00377219 0.00291052 0.00220184 0.00164617 0.00136562 0.00148235 0.00199635 0.00290762 0.00421617 0.00592198 0.00802506 0.0105254 0.0133979 0.0166175 0.020184 0.0240977 0.0283583 0.032966 0.0379207 0.0432225 0.0486635 0.0540361 0.0593402 0.0645758 0.069743 0.0748418 0.079872 0.0848339 0.089493 0.0936152 0.0972006 0.100249 0.102761 0.104735 0.106173 0.107074 0.107411 0.107159 0.106316 0.104883 0.10286 0.100247 0.0970442 0.0932511 0.0890726 0.0847133 0.0801733 0.0754526 0.0705511 0.0654689 0.0602059 0.0547621 0.0493598 0.0442208 0.0393454 0.0347333 0.0303848 0.0262996 0.022478 0.0189197 0.0156667 0.0127604 0.0102011 0.00798853 0.00612285 0.00460401 0.00343202 0.00260688 0.00199589 0.00146637 0.00101831 0.00065172 0.000366592 0.00016293 4.07325e-05 0 0 -8.97534e-06 -3.59014e-05 -8.0778e-05 -0.000143605 -0.000224383 -0.000323112 -0.000439792 -0.000574422 -0.000660568 -0.000631795 -0.000488103 -0.000229493 0.000144036 0.000632484 0.00123585 0.00195414 0.00279543 0.00376782 0.00487131 0.0061059 0.00747159 0.00896837 0.0105963 0.0123552 0.0141419 0.015853 0.0174885 0.0190482 0.0205324 0.0219409 0.0232738 0.024531 0.0256251 0.0264686 0.0270614 0.0274035 0.027495 0.0273359 0.0269261 0.0262657 0.0254026 0.0243846 0.0232117 0.021884 0.0204015 0.0187641 0.0169719 0.0150248 0.0130903 0.0113356 0.0097608 0.00836586 0.00715078 0.00611557 0.00526022 0.00458475 0.00423392 0.00435253 0.00494057 0.00599805 0.00752496 0.0095213 0.0119871 0.0149223 0.0182969 0.0220811 0.0262747 0.0308778 0.0358903 0.0413123 0.0471438 0.0533847 0.0597899 0.0661141 0.0723573 0.0785195 0.0846008 0.090601 0.0965202 0.102358 0.10784 0.112688 0.116904 0.120486 0.123436 0.125752 0.127436 0.128487 0.128872 0.12856 0.127551 0.125844 0.12344 0.120338 0.116539 0.112042 0.107088 0.101915 0.0965251 0.0909167 0.0850903 0.0790459 0.0727835 0.0663031 0.0598663 0.053735 0.0479091 0.0423886 0.0371735 0.0322638 0.0276594 0.0233605 0.0194205 0.0158929 0.0127777 0.010075 0.00778457 0.00590659 0.00444102 0.00338785 0.00259383 0.00190567 0.00132338 0.000846963 0.000476417 0.000211741 5.29352e-05 0 0 -6.85129e-06 -2.74052e-05 -6.16616e-05 -0.000109621 -0.000171282 -0.000246646 -0.000335713 -0.000438483 -0.000477449 -0.000375106 -0.000131455 0.000253505 0.000779774 0.00144735 0.00225624 0.00320643 0.00430352 0.0055531 0.00695516 0.0085097 0.0102167 0.0120762 0.0140882 0.0162527 0.018447 0.0205485 0.0225571 0.0244729 0.0262959 0.028026 0.0296633 0.0312078 0.0325562 0.0336055 0.0343556 0.0348065 0.0349582 0.0348107 0.034364 0.0336182 0.03263 0.0314566 0.0300979 0.0285538 0.0268245 0.0249099 0.0228099 0.0205246 0.0182513 0.0161871 0.014332 0.012686 0.0112492 0.0100216 0.00900303 0.00819363 0.007763 0.00788079 0.008547 0.00976161 0.0115246 0.0138361 0.0166959 0.0201042 0.0240255 0.0284246 0.0333013 0.0386558 0.044488 0.0507978 0.0575855 0.0648508 0.0723076 0.0796697 0.086937 0.0941097 0.101188 0.108171 0.115059 0.121853 0.128231 0.13387 0.138772 0.142936 0.146362 0.149051 0.151001 0.152214 0.15265 0.152272 0.151078 0.149069 0.146245 0.142607 0.138153 0.132884 0.127078 0.121012 0.114687 0.108103 0.101259 0.094156 0.0867933 0.0791712 0.0715945 0.0643683 0.0574925 0.0509672 0.0447923 0.0389678 0.0334938 0.0283702 0.0236641 0.0194425 0.0157055 0.012453 0.00968501 0.00740158 0.00560269 0.00428834 0.00328326 0.00241219 0.00167513 0.00107208 0.000603048 0.000268021 6.70053e-05 0 0 -4.08435e-06 -1.63374e-05 -3.67592e-05 -6.53496e-05 -0.000102109 -0.000147037 -0.000200133 -0.000261399 -0.000241314 -5.03606e-05 0.000311461 0.000844152 0.00154771 0.00242214 0.00346744 0.0046836 0.00607301 0.00763806 0.00937873 0.011295 0.013387 0.0156545 0.0180977 0.0207165 0.0233671 0.0259056 0.0283321 0.0306464 0.0328487 0.034939 0.0369171 0.0387832 0.0404169 0.0416978 0.042626 0.0432015 0.0434243 0.0432943 0.0428116 0.0419761 0.0408548 0.0395146 0.0379553 0.0361772 0.03418 0.031964 0.0295289 0.0268749 0.0242318 0.0218295 0.0196681 0.0177474 0.0160675 0.0146285 0.0134302 0.0124728 0.0119529 0.0120671 0.0128156 0.0141983 0.0162152 0.0188663 0.0221516 0.0260711 0.0305836 0.0356479 0.0412639 0.0474317 0.0541513 0.0614226 0.0692457 0.0776205 0.0862164 0.0947027 0.103079 0.111346 0.119504 0.127551 0.135489 0.143318 0.150665 0.157161 0.162806 0.167599 0.171541 0.174631 0.176869 0.178256 0.178746 0.178292 0.176897 0.174558 0.171277 0.167053 0.161886 0.155776 0.149043 0.142004 0.13466 0.127012 0.119058 0.110799 0.102235 0.0933665 0.0845443 0.0761207 0.0680956 0.0604691 0.0532412 0.0464118 0.039981 0.0339487 0.0283973 0.0234092 0.0189843 0.0151226 0.0118242 0.00908898 0.00691704 0.00530833 0.00406419 0.00298594 0.00207357 0.00132708 0.000746485 0.000331771 8.29427e-05 0 0 -5.25209e-08 -2.10084e-07 -4.72688e-07 -8.40334e-07 -1.31302e-06 -1.89075e-06 -2.57352e-06 -3.36134e-06 9.81635e-05 0.000404419 0.000915405 0.00163112 0.00255157 0.00367674 0.00500665 0.00654129 0.00827852 0.0102162 0.0123543 0.0146929 0.0172319 0.0199713 0.0229112 0.0260516 0.0292251 0.0322646 0.03517 0.0379413 0.0405786 0.0430818 0.045451 0.0476861 0.049648 0.0511978 0.0523353 0.0530606 0.0533738 0.0532747 0.0527634 0.0518398 0.0505818 0.0490669 0.0472953 0.0452668 0.0429814 0.0404393 0.0376403 0.0345845 0.0315371 0.0287633 0.0262632 0.0240367 0.0220838 0.0204045 0.0189989 0.0178669 0.0172343 0.0173269 0.0181447 0.0196877 0.021956 0.0249494 0.028668 0.0331119 0.0382334 0.043985 0.0503668 0.0573786 0.0650206 0.0732926 0.0821948 0.091727 0.101512 0.111171 0.120705 0.130114 0.139397 0.148555 0.157588 0.166495 0.174854 0.182243 0.188662 0.19411 0.198587 0.202094 0.20463 0.206196 0.206738 0.206203 0.204591 0.201902 0.198135 0.193292 0.187372 0.180374 0.172661 0.164593 0.15617 0.147393 0.13826 0.128773 0.118931 0.108734 0.0985841 0.0888817 0.079627 0.0708201 0.0624611 0.0545498 0.0470862 0.0400705 0.0336023 0.0277816 0.0226081 0.0180821 0.0142034 0.0109721 0.00838815 0.00645157 0.00493948 0.00362901 0.00252014 0.00161289 0.000907252 0.000403223 0.000100806 0 0 5.86621e-06 2.34648e-05 5.27959e-05 9.38594e-05 0.000146655 0.000211184 0.000287444 0.000375438 0.00059131 0.00105121 0.00175513 0.00270309 0.00389506 0.00533107 0.0070111 0.00893516 0.0110947 0.013481 0.0160942 0.0189342 0.0220011 0.0252948 0.0288154 0.0325628 0.0363439 0.0399655 0.0434275 0.0467301 0.0498732 0.0528567 0.0556807 0.0583453 0.0606908 0.0625577 0.0639461 0.0648559 0.0652871 0.0652399 0.064714 0.0637096 0.0623159 0.0606224 0.0586288 0.0563354 0.053742 0.0508487 0.0476555 0.0441623 0.0406723 0.0374887 0.0346114 0.0320405 0.029776 0.0278177 0.0261659 0.0248204 0.0240379 0.0240753 0.0249324 0.0266094 0.0291062 0.0324227 0.0365591 0.0415152 0.0472369 0.0536698 0.060814 0.0686694 0.077236 0.0865139 0.096503 0.107203 0.118189 0.129033 0.139735 0.150297 0.160717 0.170995 0.181133 0.191129 0.200509 0.208797 0.215995 0.222102 0.227117 0.231042 0.233875 0.235617 0.236207 0.235582 0.233744 0.23069 0.226423 0.220941 0.214245 0.206334 0.197612 0.188482 0.178943 0.168995 0.158639 0.147875 0.136702 0.12512 0.113582 0.102541 0.0919952 0.0819459 0.0723928 0.0633357 0.0547749 0.0467101 0.0392614 0.0325484 0.0265712 0.0213298 0.0168241 0.0130542 0.0100201 0.00772177 0.00591198 0.0043435 0.00301632 0.00193044 0.00108587 0.000482611 0.000120653 0 0 1.36718e-05 5.46874e-05 0.000123047 0.000218749 0.000341796 0.000492186 0.00066992 0.000874998 0.00123813 0.00189001 0.00283065 0.00406005 0.0055782 0.00738511 0.00948078 0.0118652 0.0145214 0.0174325 0.0205983 0.024019 0.0276946 0.031625 0.0358102 0.0402502 0.0447234 0.0490083 0.0531047 0.0570127 0.0607323 0.0642635 0.0676063 0.0707607 0.073545 0.0757775 0.0774583 0.0785873 0.0791645 0.0791899 0.0786635 0.0775854 0.0760572 0.0741808 0.0719561 0.0693831 0.0664618 0.0631922 0.0595744 0.0556082 0.0516374 0.0480056 0.0447128 0.041759 0.0391441 0.0368682 0.0349313 0.0333333 0.0323638 0.0323124 0.0331789 0.0349634 0.0376658 0.0412863 0.0458247 0.0512812 0.0575942 0.0647023 0.0726057 0.0813041 0.0907978 0.101087 0.11217 0.12405 0.136247 0.148288 0.16017 0.171895 0.183462 0.194872 0.206124 0.217219 0.227627 0.236823 0.244806 0.251575 0.257131 0.261474 0.264604 0.266521 0.267153 0.266431 0.264355 0.260924 0.256139 0.249999 0.242504 0.233655 0.223896 0.21367 0.202978 0.19182 0.180195 0.168104 0.155547 0.142524 0.129539 0.117098 0.1052 0.0938465 0.0830363 0.0727697 0.0630468 0.0538676 0.0453744 0.0377097 0.0308734 0.0248656 0.0196862 0.0153353 0.0118129 0.00911894 0.00698169 0.0051294 0.00356209 0.00227974 0.00128235 0.000569934 0.000142483 0 0 2.33644e-05 9.34575e-05 0.000210279 0.00037383 0.000584109 0.000841118 0.00114485 0.00149532 0.00203861 0.00292082 0.00414195 0.00570201 0.00760098 0.00983887 0.0124157 0.0153314 0.0185588 0.0220706 0.0258668 0.0299474 0.0343124 0.0389618 0.0438955 0.0491137 0.0543637 0.059393 0.0642015 0.0687892 0.0731561 0.0773023 0.0812278 0.0849325 0.0882108 0.0908574 0.092872 0.0942548 0.0950057 0.0951247 0.0946119 0.0934672 0.0918057 0.0897422 0.0872769 0.0844098 0.0811407 0.0774698 0.073397 0.0689223 0.0644325 0.0603142 0.0565673 0.053192 0.0501882 0.0475558 0.045295 0.0434057 0.042212 0.0420381 0.042884 0.0447496 0.047635 0.0515401 0.056465 0.0624097 0.0693052 0.0770825 0.0857417 0.0952828 0.105706 0.11701 0.129197 0.142266 0.155688 0.168936 0.18201 0.194909 0.207634 0.220185 0.232562 0.244764 0.256211 0.266321 0.275094 0.28253 0.288629 0.293392 0.296817 0.298905 0.299576 0.29875 0.296425 0.292603 0.287283 0.280466 0.272151 0.262338 0.251512 0.240158 0.228276 0.215866 0.202928 0.189462 0.175468 0.160945 0.146454 0.132553 0.119242 0.106522 0.0943917 0.0828518 0.0719022 0.0615429 0.0519414 0.0432654 0.0355147 0.0286896 0.0227898 0.0178155 0.0137666 0.0106431 0.00814861 0.00598673 0.00415745 0.00266077 0.00149668 0.000665192 0.000166298 0 0 3.49438e-05 0.000139775 0.000314494 0.000559101 0.000873595 0.00125798 0.00171225 0.0022364 0.00299276 0.00414364 0.00568904 0.00762896 0.00996339 0.0126924 0.0158158 0.0193338 0.0232068 0.0273954 0.0318995 0.0367192 0.0418544 0.0473052 0.0530716 0.0591534 0.0652648 0.0711196 0.0767178 0.0820595 0.0871446 0.0919731 0.0965451 0.100861 0.104688 0.107797 0.110187 0.111858 0.112811 0.113044 0.112559 0.111355 0.109561 0.107307 0.104591 0.101415 0.0977788 0.0936815 0.0891234 0.0841046 0.0790575 0.0744143 0.070175 0.0663396 0.0629082 0.0598807 0.0572572 0.0550376 0.0535825 0.0532525 0.0540477 0.0559681 0.0590136 0.0631842 0.0684799 0.0749008 0.0823699 0.0908104 0.100222 0.110605 0.12196 0.134286 0.147583 0.161851 0.17651 0.190977 0.205253 0.219338 0.233232 0.246935 0.260446 0.273766 0.28626 0.297291 0.30686 0.314967 0.321612 0.326794 0.330514 0.332771 0.333476 0.332537 0.329954 0.325727 0.319857 0.312342 0.303184 0.292382 0.280461 0.267946 0.254837 0.241135 0.226838 0.211947 0.196463 0.180385 0.164327 0.148906 0.134121 0.119972 0.106459 0.0935818 0.0813409 0.0697359 0.0589624 0.0492155 0.0404953 0.0328017 0.0261348 0.0204946 0.0158811 0.0122942 0.00941273 0.00691548 0.00480241 0.00307354 0.00172887 0.000768386 0.000192097 0 0 4.84101e-05 0.000193641 0.000435691 0.000774562 0.00121025 0.00174277 0.0023721 0.00309825 0.00410059 0.00555848 0.00747192 0.00984091 0.0126655 0.0159455 0.0196812 0.0238724 0.0284655 0.0334069 0.0386966 0.0443346 0.0503208 0.0566553 0.0633382 0.0703693 0.0774266 0.0841881 0.0906538 0.0968237 0.102698 0.108276 0.113558 0.118545 0.122977 0.126597 0.129404 0.131398 0.13258 0.132949 0.132505 0.131249 0.129324 0.126874 0.1239 0.1204 0.116376 0.111827 0.106754 0.101155 0.0955124 0.0903059 0.0855357 0.0812018 0.0773042 0.0738428 0.0708177 