<?xml version="1.0"?> 
<VTKFile type="StructuredGrid" version="0.1"> 
<StructuredGrid WholeExtent="0 128 0 128 0 0"> 
<Piece Extent="0 128 0 128 0 0"> 
<PointData>
<DataArray type="Float32" Name="u" format="ascii" NumberOfComponents="1"> 
0 0 0 0 0 0 0 0 0 0 0 0 0 0 0 0 0 0 0 0 0 0 0 0 0 0 0 0 0 0 0 0 0 0 0 0 0 0 0 0 0 0 0 0 0 0 0 0 0 0 0 0 0 0 0 0 0 0 0 0 0 0 0 0 0 0 0 0 0 0 0 0 0 0 0 0 0 0 0 0 0 0 0 0 0 0 0 0 0 0 0 0 0 0 0 0 0 0 0 0 0 0 0 0 0 0 0 0 0 0 0 0 0 0 0 0 0 0 0 0 0 0 0 0 0 0 0 0 0 0 -8.49654e-08 -3.39861e-07 -7.64688e-07 -1.35945e-06 -2.12413e-06 -3.05875e-06 -4.1633e-06 -5.43778e-06 -6.60045e-06 -7.36955e-06 -7.74509e-06 -7.72707e-06 -7.31548e-06 -6.51034e-06 -5.31163e-06 -3.71936e-06 -1.67646e-06 8.7414e-07 3.93244e-06 7.49844e-06 1.15721e-05 1.61535e-05 2.12426e-05 2.68394e-05 3.25424e-05 3.79499e-05 4.30621e-05 4.78789e-05 5.24004e-05 5.66264e-05 6.05571e-05 6.41923e-05 6.72225e-05 6.9338e-05 7.05387e-05 7.08246e-05 7.01958e-05 6.86522e-05 6.61939e-05 6.28208e-05 5.87381e-05 5.41512e-05 4.906e-05 4.34645e-05 3.73648e-05 3.07607e-05 2.36523e-05 1.60397e-05 8.57174e-06 1.89755e-06 -3.9829e-06 -9.06961e-06 -1.33626e-05 -1.68618e-05 -1.95673e-05 -2.14791e-05 -2.20341e-05 -2.06693e-05 -1.73847e-05 -1.21804e-05 -5.05635e-06 3.98751e-06 1.49511e-05 2.78345e-05 4.25131e-05 5.88622e-05 7.68818e-05 9.6572e-05 0.000117933 0.000140964 0.000165666 0.000192038 0.000219087 0.000245817 0.000272229 0.000298324 0.0003241 0.000349558 0.000374698 0.000399519 0.000422877 0.000443624 0.000461762 0.00047729 0.000490207 0.000500514 0.000508212 0.000513299 0.000515616 0.000515004 0.000511462 0.00050499 0.000495588 0.000483256 0.000467994 0.000449803 0.000429671 0.00040859 0.00038656 0.000363579 0.000339649 0.00031477 0.00028894 0.000262161 0.000235569 0.0002103 0.000186354 0.000163732 0.000142433 0.000122457 0.000103805 8.64758e-05 7.06954e-05 5.66889e-05 4.44564e-05 3.39979e-05 2.53133e-05 1.84026e-05 1.32659e-05 9.90314e-06 7.58209e-06 5.57052e-06 3.86841e-06 2.47579e-06 1.39263e-06 6.18946e-07 1.54737e-07 0 0 -3.39861e-07 -1.35945e-06 -3.05875e-06 -5.43778e-06 -8.49654e-06 -1.2235e-05 -1.66532e-05 -2.17511e-05 -2.64018e-05 -2.94782e-05 -3.09804e-05 -3.09083e-05 -2.92619e-05 -2.60414e-05 -2.12465e-05 -1.48774e-05 -6.70584e-06 3.49656e-06 1.57298e-05 2.99937e-05 4.62885e-05 6.46141e-05 8.49705e-05 0.000107358 0.00013017 0.0001518 0.000172249 0.000191516 0.000209601 0.000226506 0.000242228 0.000256769 0.00026889 0.000277352 0.000282155 0.000283298 0.000280783 0.000274609 0.000264775 0.000251283 0.000234953 0.000216605 0.00019624 0.000173858 0.000149459 0.000123043 9.46093e-05 6.41587e-05 3.4287e-05 7.59022e-06 -1.59316e-05 -3.62784e-05 -5.34503e-05 -6.74472e-05 -7.82692e-05 -8.59162e-05 -8.81362e-05 -8.26771e-05 -6.9539e-05 -4.87217e-05 -2.02254e-05 1.595e-05 5.98045e-05 0.000111338 0.000170052 0.000235449 0.000307527 0.000386288 0.000471731 0.000563856 0.000662663 0.000768152 0.000876347 0.000983268 0.00108892 0.00119329 0.0012964 0.00139823 0.00149879 0.00159808 0.00169151 0.0017745 0.00184705 0.00190916 0.00196083 0.00200206 0.00203285 0.0020532 0.00206247 0.00206002 0.00204585 0.00201996 0.00198235 0.00193302 0.00187198 0.00179921 0.00171869 0.00163436 0.00154624 0.00145432 0.0013586 0.00125908 0.00115576 0.00104864 0.000942275 0.0008412 0.000745417 0.000654928 0.000569732 0.000489829 0.000415219 0.000345903 0.000282782 0.000226756 0.000177826 0.000135992 0.000101253 7.36104e-05 5.30636e-05 3.96126e-05 3.03284e-05 2.22821e-05 1.54737e-05 9.90314e-06 5.57052e-06 2.47579e-06 6.18946e-07 0 0 -7.64688e-07 -3.05875e-06 -6.88219e-06 -1.2235e-05 -1.91172e-05 -2.75288e-05 -3.74697e-05 -4.894e-05 -5.9404e-05 -6.63259e-05 -6.97058e-05 -6.95436e-05 -6.58394e-05 -5.8593e-05 -4.78047e-05 -3.34742e-05 -1.50881e-05 7.86726e-06 3.53919e-05 6.74859e-05 0.000104149 0.000145382 0.000191184 0.000241555 0.000292881 0.00034155 0.000387559 0.00043091 0.000471603 0.000509638 0.000545014 0.000577731 0.000605003 0.000624042 0.000634848 0.000637421 0.000631762 0.00061787 0.000595745 0.000565387 0.000528643 0.000487361 0.00044154 0.000391181 0.000336283 0.000276846 0.000212871 0.000144357 7.71457e-05 1.7078e-05 -3.58461e-05 -8.16265e-05 -0.000120263 -0.000151756 -0.000176106 -0.000193312 -0.000198307 -0.000186024 -0.000156463 -0.000109624 -4.55071e-05 3.58875e-05 0.00013456 0.000250511 0.000382618 0.00052976 0.000691936 0.000869148 0.00106139 0.00126868 0.00149099 0.00172834 0.00197178 0.00221235 0.00245006 0.00268491 0.0029169 0.00314602 0.00337228 0.00359567 0.00380589 0.00399262 0.00415586 0.00429561 0.00441186 0.00450463 0.00457391 0.00461969 0.00464055 0.00463504 0.00460316 0.00454491 0.00446029 0.0043493 0.00421195 0.00404822 0.00386704 0.00367731 0.00347904 0.00327221 0.00305684 0.00283293 0.00260046 0.00235945 0.00212012 0.0018927 0.00167719 0.00147359 0.0012819 0.00110211 0.000934244 0.000778282 0.000636259 0.0005102 0.000400108 0.000305981 0.000227819 0.000165623 0.000119393 8.91283e-05 6.82388e-05 5.01346e-05 3.48157e-05 2.22821e-05 1.25337e-05 5.57052e-06 1.39263e-06 0 0 -1.35945e-06 -5.43778e-06 -1.2235e-05 -2.17511e-05 -3.39861e-05 -4.894e-05 -6.66128e-05 -8.70045e-05 -0.000105607 -0.000117913 -0.000123921 -0.000123633 -0.000117048 -0.000104165 -8.49861e-05 -5.95098e-05 -2.68234e-05 1.39862e-05 6.2919e-05 0.000119975 0.000185154 0.000258456 0.000339882 0.000429431 0.000520678 0.000607199 0.000688994 0.000766063 0.000838406 0.000906022 0.000968913 0.00102708 0.00107556 0.00110941 0.00112862 0.00113319 0.00112313 0.00109844 0.0010591 0.00100513 0.00093981 0.00086642 0.000784961 0.000695433 0.000597836 0.000492171 0.000378437 0.000256635 0.000137148 3.03609e-05 -6.37263e-05 -0.000145114 -0.000213801 -0.000269789 -0.000313077 -0.000343665 -0.000352545 -0.000330709 -0.000278156 -0.000194887 -8.09016e-05 6.38001e-05 0.000239218 0.000445352 0.000680209 0.000941795 0.00123011 0.00154515 0.00188692 0.00225542 0.00265065 0.00307261 0.00350539 0.00393307 0.00435567 0.00477318 0.0051856 0.00559292 0.00599516 0.00639231 0.00676603 0.00709799 0.00738819 0.00763663 0.00784331 0.00800823 0.00813139 0.00821279 0.00824986 0.00824006 0.00818339 0.00807983 0.0079294 0.00773209 0.00748791 0.00719684 0.00687474 0.00653745 0.00618496 0.00581727 0.00543439 0.00503631 0.00462304 0.00419458 0.0037691 0.0033648 0.00298167 0.00261971 0.00227893 0.00195932 0.00166088 0.00138361 0.00113113 0.000907023 0.000711303 0.000543966 0.000405012 0.000294442 0.000212254 0.00015845 0.000121313 8.91283e-05 6.18946e-05 3.96126e-05 2.22821e-05 9.90314e-06 2.47579e-06 0 0 -2.12413e-06 -8.49654e-06 -1.91172e-05 -3.39861e-05 -5.31033e-05 -7.64688e-05 -0.000104083 -0.000135945 -0.000165011 -0.000184239 -0.000193627 -0.000193177 -0.000182887 -0.000162758 -0.000132791 -9.2984e-05 -4.19115e-05 2.18535e-05 9.8311e-05 0.000187461 0.000289303 0.000403838 0.000531066 0.000670986 0.000813559 0.000948749 0.00107655 0.00119697 0.00131001 0.00141566 0.00151393 0.00160481 0.00168056 0.00173345 0.00176347 0.00177062 0.00175489 0.00171631 0.00165485 0.00157052 0.00146845 0.00135378 0.0012265 0.00108661 0.000934119 0.000769017 0.000591308 0.000400992 0.000214294 4.74389e-05 -9.95724e-05 -0.00022674 -0.000334064 -0.000421545 -0.000489183 -0.000536976 -0.000550851 -0.000516732 -0.000434619 -0.000304511 -0.000126409 9.96876e-05 0.000373778 0.000695863 0.00106283 0.00147155 0.00192205 0.0024143 0.00294832 0.0035241 0.00414164 0.00480095 0.00547717 0.00614543 0.00680574 0.00745809 0.00810249 0.00873894 0.00936744 0.00998798 0.0105719 0.0110906 0.0115441 0.0119322 0.0122552 0.0125129 0.0127053 0.0128325 0.0128904 0.0128751 0.0127865 0.0126247 0.0123897 0.0120814 0.0116999 0.0112451 0.0107418 0.0102148 0.00966399 0.00908949 0.00849123 0.00786924 0.00722351 0.00655403 0.00588922 0.0052575 0.00465886 0.0040933 0.00356082 0.00306143 0.00259512 0.0021619 0.00176739 0.00141722 0.00111141 0.000849947 0.000632832 0.000460065 0.000331648 0.000247579 0.000189552 0.000139263 9.67104e-05 6.18946e-05 3.48157e-05 1.54737e-05 3.86841e-06 0 0 -3.05875e-06 -1.2235e-05 -2.75288e-05 -4.894e-05 -7.64688e-05 -0.000110115 -0.000149879 -0.00019576 -0.000237616 -0.000265304 -0.000278823 -0.000278174 -0.000263357 -0.000234372 -0.000191219 -0.000133897 -6.03526e-05 3.1469e-05 0.000141568 0.000269944 0.000416597 0.000581527 0.000764735 0.000966219 0.00117153 0.0013662 0.00155024 0.00172364 0.00188641 0.00203855 0.00218005 0.00231092 0.00242001 0.00249617 0.00253939 0.00254969 0.00252705 0.00247148 0.00238298 0.00226155 0.00211457 0.00194944 0.00176616 0.00156472 0.00134513 0.00110738 0.000851484 0.000577428 0.000308583 6.8312e-05 -0.000143384 -0.000326506 -0.000481053 -0.000607025 -0.000704423 -0.000773246 -0.000793226 -0.000744094 -0.000625851 -0.000438496 -0.000182029 0.00014355 0.000538241 0.00100204 0.00153047 0.00211904 0.00276774 0.00347659 0.00424558 0.0050747 0.00596397 0.00691337 0.00788712 0.00884942 0.00980026 0.0107397 0.0116676 0.0125841 0.0134891 0.0143827 0.0152236 0.0159705 0.0166234 0.0171824 0.0176475 0.0180185 0.0182956 0.0184788 0.0185622 0.0185401 0.0184126 0.0181796 0.0178412 0.0173972 0.0168478 0.0161929 0.0154682 0.0147093 0.0139162 0.0130889 0.0122274 0.0113317 0.0104018 0.0094378 0.00848048 0.0075708 0.00670875 0.00589435 0.00512758 0.00440846 0.00373697 0.00311313 0.00254503 0.0020408 0.00160043 0.00122392 0.000911278 0.000662494 0.000477572 0.000356513 0.000272955 0.000200539 0.000139263 8.91283e-05 5.01346e-05 2.22821e-05 5.57052e-06 0 0 -4.1633e-06 -1.66532e-05 -3.74697e-05 -6.66128e-05 -0.000104083 -0.000149879 -0.000204002 -0.000266451 -0.000323422 -0.000361108 -0.000379509 -0.000378626 -0.000358459 -0.000319007 -0.00026027 -0.000182249 -8.21466e-05 4.28328e-05 0.000192689 0.000367423 0.000567035 0.000791523 0.00104089 0.00131513 0.00159458 0.00185955 0.00211004 0.00234607 0.00256762 0.00277469 0.0029673 0.00314542 0.0032939 0.00339756 0.0034564 0.00347041 0.00343959 0.00336396 0.0032435 0.00307822 0.00287817 0.00265341 0.00240394 0.00212976 0.00183087 0.00150727 0.00115896 0.000785944 0.000420015 9.29802e-05 -0.000195162 -0.000444411 -0.000654766 -0.000826229 -0.000958798 -0.00105247 -0.00107967 -0.00101279 -0.000851852 -0.000596841 -0.000247761 0.000195388 0.000732605 0.00136389 0.00208314 0.00288425 0.00376721 0.00473203 0.0057787 0.00690723 0.00811762 0.00940987 0.0107352 0.012045 0.0133392 0.0146179 0.0158809 0.0171283 0.0183602 0.0195764 0.020721 0.0217376 0.0226263 0.0233872 0.0240201 0.0245252 0.0249024 0.0251517 0.0252652 0.0252352 0.0250616 0.0247445 0.0242838 0.0236795 0.0229317 0.0220403 0.0210539 0.0200209 0.0189414 0.0178154 0.0166428 0.0154237 0.0141581 0.0128459 0.0115429 0.0103047 0.00913136 0.00802286 0.00697921 0.0060004 0.00508644 0.00423731 0.00346407 0.00277776 0.00217837 0.0016659 0.00124035 0.000901728 0.000650029 0.000485254 0.000371523 0.000272955 0.000189552 0.000121313 6.82388e-05 3.03284e-05 7.58209e-06 0 0 -5.43778e-06 -2.17511e-05 -4.894e-05 -8.70045e-05 -0.000135945 -0.00019576 -0.000266451 -0.000348018 -0.000422429 -0.000471651 -0.000495686 -0.000494532 -0.000468191 -0.000416662 -0.000339944 -0.000238039 -0.000107293 5.59449e-05 0.000251676 0.0004799 0.000740617 0.00103383 0.00135953 0.00171772 0.00208271 0.0024288 0.00275598 0.00306425 0.00335362 0.00362409 0.00387565 0.00410831 0.00430224 0.00443763 0.00451448 0.00453277 0.00449253 0.00439374 0.00423641 0.00402053 0.00375924 0.00346568 0.00313984 0.00278173 0.00239134 0.00196868 0.00151375 0.00102654 0.000548592 0.000121443 -0.000254905 -0.000580455 -0.000855205 -0.00107916 -0.00125231 -0.00137466 -0.00141018 -0.00132283 -0.00111262 -0.000779548 -0.000323606 0.0002552 0.000956872 0.00178141 0.00272084 0.00376718 0.00492044 0.00618061 0.00754769 0.00902169 0.0106026 0.0122904 0.0140215 0.0157323 0.0174227 0.0190927 0.0207424 0.0223717 0.0239806 0.0255692 0.0270641 0.028392 0.0295528 0.0305465 0.0313732 0.0320329 0.0325256 0.0328511 0.0329995 0.0329603 0.0327336 0.0323193 0.0317176 0.0309284 0.0299516 0.0287874 0.027499 0.0261498 0.0247398 0.0232691 0.0217376 0.0201453 0.0184922 0.0167783 0.0150764 0.0134592 0.0119267 0.0104788 0.00911571 0.00783726 0.00664351 0.00553445 0.00452451 0.00362809 0.00284521 0.00217586 0.00162005 0.00117777 0.000849018 0.000633801 0.000485254 0.000356513 0.000247579 0.00015845 8.91283e-05 3.96126e-05 9.90314e-06 0 0 -6.46261e-06 -2.58504e-05 -5.81635e-05 -0.000103402 -0.000161565 -0.000232654 -0.000316668 -0.000413607 -0.000500522 -0.000554465 -0.000575435 -0.000563432 -0.000518457 -0.000440509 -0.000329588 -0.000185695 -4.64171e-06 0.000217758 0.000481506 0.0007866 0.00113304 0.00152083 0.00194996 0.00242045 0.0028993 0.00335354 0.00378318 0.00418821 0.00456863 0.00492444 0.00525565 0.00556224 0.00581885 0.00600007 0.00610592 0.00613639 0.00609148 0.00597119 0.00577552 0.00550447 0.00517489 0.00480363 0.00439069 0.00393606 0.00343975 0.00290176 0.00232209 0.00170074 0.00109084 0.000545543 6.48487e-05 -0.000351245 -0.000702739 -0.000989631 -0.00121192 -0.00136961 -0.00141671 -0.00130724 -0.00104118 -0.000618547 -3.93335e-05 0.000696458 0.00158883 0.00263778 0.0038331 0.00516458 0.00663223 0.00823604 0.00997602 0.0118522 0.0138645 0.0160129 0.0182165 0.020394 0.0225455 0.024671 0.0267704 0.0288439 0.0308913 0.0329127 0.0348147 0.0365038 0.0379802 0.0392438 0.0402945 0.0411324 0.0417576 0.0421699 0.0423563 0.0423036 0.0420118 0.0414809 0.0407109 0.0397019 0.0384537 0.0369665 0.0353208 0.033597 0.0317952 0.0299153 0.0279575 0.0259216 0.0238077 0.0216157 0.0194384 0.0173682 0.0154052 0.0135494 0.0118008 0.0101594 0.00862518 0.00719813 0.00589721 0.00474134 0.00373052 0.00286475 0.00214403 0.00156836 0.00113774 0.000852174 0.000652446 0.000479348 0.000332881 0.000213044 0.000119837 5.32609e-05 1.33152e-05 0 0 -6.81819e-06 -2.72727e-05 -6.13637e-05 -0.000109091 -0.000170455 -0.000245455 -0.000334091 -0.000436364 -0.000523589 -0.00056708 -0.000566839 -0.000522866 -0.000435159 -0.00030372 -0.000128548 9.03573e-05 0.00035696 0.000675227 0.00104516 0.00146675 0.00194001 0.00246493 0.00304151 0.00366975 0.0043077 0.00491338 0.0054868 0.00602795 0.00653683 0.00701345 0.0074578 0.00786989 0.00821755 0.00846859 0.00862302 0.00868084 0.00864205 0.00850666 0.00827465 0.00794603 0.00754223 0.00708465 0.00657331 0.0060082 0.00538931 0.00471666 0.00399024 0.00321006 0.00244329 0.00175712 0.00115156 0.00062661 0.000182263 -0.000181478 -0.000464614 -0.000667145 -0.00073123 -0.000599029 -0.000270542 0.00025423 0.000975288 0.00189263 0.00300626 0.00431618 0.00580946 0.0074732 0.0093074 0.0113121 0.0134872 0.0158327 0.0183488 0.0210352 0.0237905 0.026513 0.0292026 0.0318594 0.0344834 0.0370746 0.0396329 0.0421585 0.0445343 0.0466435 0.0484861 0.0500622 0.0513717 0.0524145 0.0531908 0.0537006 0.053927 0.0538533 0.0534796 0.0528058 0.0518321 0.0505582 0.0489843 0.0471104 0.0450367 0.0428637 0.0405913 0.0382195 0.0357484 0.0331779 0.030508 0.0277388 0.024986 0.0223656 0.0198775 0.0175218 0.0152983 0.0132072 0.0112484 0.00942196 0.00775308 0.00626705 0.00496385 0.00384348 0.00290595 0.00215126 0.00157941 0.00119039 0.000911395 0.000669597 0.000464998 0.000297598 0.000167399 7.43996e-05 1.85999e-05 0 0 -6.50452e-06 -2.60181e-05 -5.85407e-05 -0.000104072 -0.000162613 -0.000234163 -0.000318722 -0.000416289 -0.000491628 -0.000509498 -0.000469899 -0.000372833 -0.000218298 -6.29418e-06 0.000263177 0.000590117 0.000977512 0.00142835 0.00194263 0.00252035 0.00316151 0.00386611 0.00463416 0.00546565 0.00630792 0.00710831 0.00786683 0.00858347 0.00925823 0.00989112 0.0104821 0.0110313 0.0114983 0.0118432 0.0120658 0.0121661 0.0121443 0.0120002 0.0117338 0.0113452 0.0108612 0.0103087 0.0096877 0.00899813 0.00824002 0.00741338 0.00651821 0.0055545 0.00460593 0.00375618 0.00300524 0.00235311 0.0017998 0.0013453 0.000989617 0.000732746 0.000646275 0.000801791 0.00119929 0.00183878 0.00272026 0.00384372 0.00520917 0.0068166 0.00864993 0.010693 0.0129459 0.0154086 0.0180811 0.0209634 0.0240554 0.0273573 0.0307437 0.0340892 0.0373941 0.0406581 0.0438814 0.0470639 0.0502056 0.0533065 0.0562229 0.0588109 0.0610705 0.0630018 0.0646047 0.0658792 0.0668254 0.0674431 0.0677115 0.0676095 0.0671371 0.0662942 0.065081 0.0634974 0.0615433 0.0592188 0.0566468 0.0539499 0.0511282 0.0481817 0.0451104 0.0419142 0.0385933 0.0351475 0.0317194 0.0284515 0.0253436 0.0223958 0.0196082 0.0169806 0.0145132 0.0122059 0.0100921 0.0082052 0.00654518 0.00511205 0.00390582 0.00292647 0.00217402 0.00164846 0.0012621 0.000927259 0.00064393 0.000412115 0.000231815 0.000103029 2.57572e-05 0 0 -5.52162e-06 -2.20865e-05 -4.96945e-05 -8.83459e-05 -0.00013804 -0.000198778 -0.000270559 -0.000353383 -0.00040464 -0.000381717 -0.000284614 -0.000113333 0.000132128 0.000451768 0.000845587 0.00131359 0.00185701 0.00247713 0.00317392 0.0039474 0.00479756 0.0057244 0.00672792 0.00780813 0.00889995 0.00993834 0.0109233 0.0118548 0.0127328 0.0135574 0.0143286 0.0150463 0.0156612 0.0161238 0.0164342 0.0165923 0.0165981 0.0164517 0.016153 0.015702 0.0151319 0.0144759 0.0137339 0.0129059 0.0119919 0.0109919 0.00990598 0.00873407 0.00757878 0.00654271 0.00562587 0.00482826 0.00414987 0.00359071 0.00315077 0.00283006 0.0027158 0.00289522 0.00336833 0.00413511 0.00519558 0.00654972 0.00819755 0.0101391 0.0123545 0.0148241 0.0175479 0.0205258 0.0237579 0.0272441 0.0309846 0.0349792 0.0390759 0.0431228 0.0471198 0.0510669 0.0549642 0.0588116 0.0626092 0.0663569 0.0698806 0.0730061 0.0757334 0.0780626 0.0799936 0.0815265 0.0826611 0.0833976 0.08371 0.0835722 0.0829842 0.0819461 0.0804578 0.0785193 0.0761307 0.073292 0.0701509 0.0668556 0.0634058 0.0598018 0.0560433 0.0521306 0.0480634 0.0438419 0.0396386 0.0356257 0.0318034 0.0281716 0.0247304 0.0214798 0.0184196 0.01555 0.0129143 0.0105558 0.00847454 0.00667047 0.00514362 0.00389399 0.00292157 0.00222637 0.00170457 0.00125233 0.000869676 0.000556593 0.000313084 0.000139148 3.47871e-05 0 0 -3.86947e-06 -1.54779e-05 -3.48252e-05 -6.19115e-05 -9.67367e-05 -0.000139301 -0.000189604 -0.000247646 -0.000262625 -0.000183738 -1.09851e-05 0.000255633 0.000616117 0.00107047 0.00161868 0.00226076 0.00299547 0.00382156 0.00473903 0.0057479 0.00684814 0.00803977 0.00932279 0.0106972 0.0120838 0.0134035 0.0146561 0.0158419 0.0169606 0.0180124 0.0189973 0.0199151 0.0207062 0.0213106 0.0217282 0.0219592 0.0220036 0.0218612 0.0215322 0.0210164 0.0203543 0.0195861 0.0187118 0.0177314 0.0166449 0.0154523 0.0141536 0.0127488 0.0113618 0.0101167 0.00901347 0.00805206 0.00723248 0.00655475 0.00601885 0.0056248 0.00547735 0.00568126 0.00623655 0.00714321 0.00840124 0.0100106 0.0119714 0.0142836 0.0169232 0.0198664 0.0231131 0.0266635 0.0305175 0.034675 0.0391361 0.0439008 0.0487872 0.0536136 0.0583798 0.063086 0.067732 0.072318 0.0768438 0.0813096 0.0855073 0.089229 0.0924748 0.0952446 0.0975384 0.0993563 0.100698 0.101564 0.101922 0.101741 0.101021 0.0997613 0.0979624 0.0956241 0.0927466 0.0893297 0.0855492 0.0815808 0.0774243 0.0730798 0.0685474 0.0638269 0.0589185 0.053822 0.0487434 0.0438884 0.039257 0.0348492 0.030665 0.0267045 0.0229676 0.0194543 0.0162197 0.0133189 0.0107519 0.00851873 0.00661937 0.00505381 0.00382207 0.00292413 0.00223879 0.00164482 0.00114224 0.000731032 0.000411206 0.000182758 4.56895e-05 0 0 -1.54807e-06 -6.19229e-06 -1.39327e-05 -2.47692e-05 -3.87018e-05 -5.57306e-05 -7.58556e-05 -9.90766e-05 -6.55821e-05 8.44398e-05 0.000350989 0.000734066 0.00123367 0.0018498 0.00258246 0.00343165 0.00439287 0.00546164 0.00663797 0.00792184 0.00931327 0.0108122 0.0124188 0.0141328 0.0158595 0.0175037 0.0190654 0.0205447 0.0219416 0.0232561 0.0244881 0.0256376 0.0266332 0.0274033 0.027948 0.0282671 0.0283607 0.0282288 0.0278714 0.0272885 0.0265284 0.0256394 0.0246215 0.0234747 0.022199 0.0207944 0.019261 0.0175986 0.0159551 0.0144782 0.013168 0.0120245 0.0110476 0.0102374 0.00959385 0.00911695 0.00893091 0.00915992 0.00980398 0.0108631 0.0123373 0.0142265 0.0165307 0.0192501 0.0223559 0.0258199 0.0296418 0.0338218 0.0383598 0.0432559 0.0485101 0.0541222 0.0598777 0.0655616 0.0711741 0.0767152 0.0821847 0.0875828 0.0929094 0.0981646 0.103103 0.10748 0.111295 0.114548 0.117239 0.119369 0.120936 0.121942 0.122349 0.122117 0.121247 0.11974 0.117595 0.114812 0.111391 0.107332 0.102842 0.0981255 0.0931835 0.0880158 0.0826224 0.0770032 0.0711584 0.0650878 0.0590339 0.0532395 0.0477043 0.0424285 0.037412 0.0326549 0.0281571 0.0239187 0.0200082 0.0164944 0.0133773 0.0106568 0.00833305 0.00640594 0.0048755 0.00374173 0.00286477 0.00210473 0.00146161 0.000935434 0.000526181 0.000233858 5.84646e-05 0 0 1.44256e-06 5.77026e-06 1.29831e-05 2.3081e-05 3.60641e-05 5.19323e-05 7.06857e-05 9.23242e-05 0.000186487 0.000422815 0.000801308 0.00132196 0.00198479 0.00278977 0.00373692 0.00482624 0.00604922 0.00739739 0.00887072 0.0104692 0.0121929 0.0140418 0.0160158 0.0181151 0.020227 0.022239 0.0241511 0.0259634 0.0276758 0.0292884 0.030801 0.0322139 0.0334424 0.0344022 0.0350933 0.0355157 0.0356694 0.0355544 0.0351706 0.0345181 0.0336541 0.0326358 0.031463 0.0301358 0.0286543 0.0270184 0.0252282 0.0232835 0.0213585 0.0196272 0.0180895 0.0167456 0.0155953 0.0146387 0.0138758 0.0133065 0.0130765 0.0133312 0.0140706 0.0152947 0.0170036 0.0191972 0.0218756 0.0250386 0.0286528 0.0326846 0.0371338 0.0420007 0.047285 0.052987 0.0591064 0.0656434 0.0723472 0.078967 0.0855028 0.0919546 0.0983224 0.104606 0.110806 0.116922 0.122668 0.127758 0.132193 0.135972 0.139096 0.141564 0.143376 0.144533 0.144989 0.144699 0.143663 0.141882 0.139355 0.136082 0.132064 0.127299 0.122028 0.11649 0.110683 0.10461 0.0982685 0.0916596 0.0847832 0.0776392 0.0705102 0.063679 0.0571454 0.0509096 0.0449714 0.039331 0.0339882 0.0289432 0.0242799 0.0200824 0.0163507 0.0130848 0.0102847 0.00795038 0.00608188 0.00467918 0.0035825 0.00263204 0.00182781 0.0011698 0.00065801 0.000292449 7.31123e-05 0 0 5.10245e-06 2.04098e-05 4.5922e-05 8.16391e-05 0.000127561 0.000183688 0.00025002 0.000326557 0.000493584 0.000831389 0.00133997 0.00201933 0.00286947 0.00389038 0.00508207 0.00644454 0.00796453 0.00962878 0.0114373 0.0133901 0.0154871 0.0177285 0.020114 0.0226439 0.0251862 0.0276094 0.0299132 0.0320978 0.0341632 0.0361093 0.0379362 0.0396438 0.0411336 0.0423072 0.0431643 0.0437052 0.0439297 0.043838 0.0434299 0.0427054 0.0417316 0.0405752 0.0392362 0.0377148 0.0360108 0.0341242 0.0320552 0.0298036 0.0275722 0.0255636 0.023778 0.0222153 0.0208755 0.0197586 0.0188646 0.0181935 0.0179141 0.0181951 0.0190364 0.0204382 0.0224003 0.0249229 0.0280059 0.0316492 0.0358138 0.0404605 0.0455893 0.0512001 0.0572931 0.0638681 0.0709252 0.0784644 0.0861958 0.0938296 0.101366 0.108804 0.116145 0.123388 0.130534 0.137581 0.144202 0.150065 0.15517 0.159518 0.163108 0.165941 0.168017 0.169335 0.169843 0.169487 0.168269 0.166188 0.163243 0.159435 0.154765 0.149231 0.143109 0.136673 0.129924 0.122862 0.115486 0.107796 0.0997928 0.0914762 0.0831722 0.0752069 0.0675803 0.0602924 0.0533432 0.0467327 0.0404609 0.0345278 0.0290347 0.0240828 0.0196721 0.0158026 0.0124742 0.00968712 0.0074412 0.00573648 0.00439199 0.00322677 0.00224081 0.00143412 0.000806693 0.00035853 8.96325e-05 0 0 9.95284e-06 3.98113e-05 8.95755e-05 0.000159245 0.000248821 0.000358302 0.000487689 0.000636982 0.000897899 0.00136216 0.00202977 0.00290072 0.00397501 0.00525265 0.00673363 0.00841796 0.0102864 0.0123196 0.0145176 0.0168804 0.019408 0.0221004 0.0249576 0.0279796 0.0310135 0.0339062 0.0366577 0.0392682 0.0417375 0.0440657 0.0462527 0.0482986 0.0500893 0.0515109 0.0525634 0.0532466 0.0535608 0.0535057 0.0530816 0.0522882 0.0512032 0.0499038 0.0483901 0.0466621 0.0447197 0.0425631 0.0401921 0.0376068 0.035041 0.0327283 0.0306688 0.0288625 0.0273094 0.0260095 0.0249627 0.0241691 0.0238224 0.0241163 0.0250508 0.026626 0.0288417 0.031698 0.0351949 0.0393324 0.0440654 0.0493488 0.0551825 0.0615665 0.0685009 0.0759857 0.0840208 0.0926063 0.101411 0.110103 0.118684 0.127152 0.135509 0.143753 0.151886 0.159906 0.167438 0.174106 0.17991 0.184849 0.188925 0.192136 0.194483 0.195966 0.196524 0.196095 0.194679 0.192277 0.188888 0.184513 0.179151 0.172802 0.165778 0.158391 0.150641 0.142527 0.134051 0.12521 0.116007 0.10644 0.0968822 0.0877049 0.0789083 0.0704925 0.0624574 0.0548031 0.0475295 0.0406366 0.034245 0.0284752 0.0233271 0.0188008 0.0148963 0.0116135 0.00895255 0.00691333 0.00529302 0.00388875 0.00270052 0.00172833 0.000972187 0.000432083 0.000108021 0 0 1.6515e-05 6.606e-05 0.000148635 0.00026424 0.000412875 0.00059454 0.000809235 0.00105696 0.00144162 0.00206713 0.00293348 0.00404068 0.00538872 0.0069776 0.00880733 0.0108779 0.0131623 0.0156334 0.0182914 0.0211361 0.0241675 0.0273858 0.0307908 0.0343826 0.0379847 0.0414207 0.0446907 0.0477946 0.0507324 0.0535041 0.0561097 0.0585493 0.0606918 0.0624062 0.0636927 0.0645511 0.0649815 0.0649838 0.0645581 0.0637044 0.0625114 0.0610677 0.0593733 0.0574282 0.0552325 0.0527862 0.0500891 0.0471414 0.0442101 0.0415621 0.0391974 0.0371161 0.0353182 0.0338036 0.0325723 0.0316245 0.0311802 0.0314598 0.0324633 0.0341906 0.0366419 0.039817 0.043716 0.0483388 0.0536342 0.0595505 0.0660879 0.0732462 0.0810257 0.0894261 0.0984476 0.10809 0.11798 0.127742 0.137379 0.146888 0.15627 0.165526 0.174655 0.183657 0.19211 0.19959 0.206097 0.211632 0.216194 0.219783 0.2224 0.224044 0.224646 0.224134 0.222509 0.21977 0.215919 0.210955 0.204877 0.197686 0.18973 0.181358 0.172569 0.163363 0.15374 0.143701 0.133245 0.122372 0.111502 0.101055 0.0910289 0.0814255 0.0722442 0.0634851 0.0551482 0.0472335 0.039883 0.033239 0.0273014 0.0220702 0.0175454 0.013727 0.010615 0.00820944 0.00628535 0.00461781 0.00320681 0.00205236 0.00115445 0.00051309 0.000128272 0 0 2.47889e-05 9.91558e-05 0.0002231 0.000396623 0.000619724 0.000892402 0.00121466 0.00158649 0.00212475 0.0029463 0.00405111 0.00543921 0.00711059 0.00906524 0.0113032 0.0138244 0.0165923 0.0195704 0.0227587 0.0261572 0.0297658 0.0335846 0.0376136 0.0418527 0.0460999 0.050153 0.054012 0.057677 0.0611478 0.0644246 0.0675073 0.0703959 0.072941 0.0749931 0.0765523 0.0776186 0.0781919 0.0782722 0.0778596 0.0769541 0.0756563 0.0740669 0.0721859 0.0700133 0.0675492 0.0647935 0.0617462 0.0584073 0.0550793 0.0520648 0.0493637 0.046976 0.0449017 0.0431409 0.0416935 0.0405595 0.0399874 0.0402254 0.0412737 0.0431322 0.045801 0.0492799 0.0535691 0.0586685 0.0645201 0.0710657 0.0783055 0.0862393 0.0948673 0.104189 0.114205 0.124916 0.135902 0.146747 0.157449 0.16801 0.17843 0.188707 0.198842 0.208836 0.218218 0.226516 0.233732 0.239865 0.244915 0.248883 0.251767 0.253569 0.254208 0.253604 0.251757 0.248668 0.244336 0.238762 0.231944 0.223884 0.214966 0.205574 0.195708 0.185368 0.174555 0.163268 0.151507 0.139273 0.127033 0.115256 0.103942 0.0930914 0.0827036 0.0727789 0.0633172 0.0543184 0.0459488 0.0383743 0.0315949 0.0256106 0.0204215 0.0160275 0.0124286 0.00962481 0.00736899 0.00541395 0.00375969 0.0024062 0.00135349 0.00060155 0.000150388 0 0 3.47747e-05 0.000139099 0.000312972 0.000556395 0.000869366 0.00125189 0.00170396 0.00222558 0.0029473 0.00399966 0.00538267 0.00709632 0.00914062 0.0115156 0.0142212 0.0172574 0.0205765 0.0241305 0.0279196 0.0319437 0.0362028 0.0406969 0.045426 0.0503901 0.0553592 0.0601031 0.0646218 0.0689154 0.0729839 0.0768272 0.0804454 0.0838385 0.086837 0.0892716 0.0911423 0.0924491 0.093192 0.0933709 0.092986 0.0920371 0.0906378 0.0889014 0.0868279 0.0844174 0.0816697 0.0785851 0.0751633 0.0714045 0.0676488 0.0642366 0.0611677 0.0584422 0.0560602 0.0540215 0.0523262 0.0509743 0.050244 0.0504133 0.0514822 0.0534507 0.0563189 0.0600868 0.0647542 0.0703214 0.0767231 0.0838944 0.0918353 0.100546 0.110026 0.120275 0.131295 0.143083 0.155178 0.167116 0.178897 0.19052 0.201986 0.213296 0.224448 0.235442 0.245761 0.254885 0.262814 0.269549 0.275089 0.279434 0.282584 0.28454 0.28521 0.284506 0.282426 0.27897 0.27414 0.267934 0.260352 0.251395 0.241484 0.231038 0.220058 0.208543 0.196494 0.183911 0.170793 0.157141 0.143474 0.130309 0.117648 0.10549 0.0938356 0.0826843 0.0720363 0.0618915 0.0524423 0.043881 0.0362076 0.0294222 0.0235246 0.018515 0.0143932 0.0111594 0.00854394 0.00627718 0.00435915 0.00278986 0.0015693 0.000697465 0.000174366 0 0 4.64722e-05 0.000185889 0.000418249 0.000743554 0.0011618 0.001673 0.00227714 0.00297422 0.00390925 0.00522722 0.00692814 0.00901201 0.0114788 0.0143286 0.0175613 0.0211769 0.0251147 0.0293138 0.0337741 0.0384956 0.0434785 0.0487226 0.054228 0.0599947 0.0657624 0.0712708 0.07652 0.0815099 0.0862406 0.090712 0.0949241 0.098877 0.10238 0.105242 0.107463 0.109043 0.109982 0.11028 0.109937 0.108954 0.107456 0.105571 0.103299 0.10064 0.0975941 0.0941609 0.0903405 0.086133 0.0819185 0.0780774 0.0746094 0.0715148 0.0687934 0.0664453 0.0644705 0.0628689 0.06195 0.0620233 0.0630886 0.0651461 0.0681958 0.0722375 0.0772714 0.0832975 0.0902433 0.0980366 0.106677 0.116165 0.126501 0.137684 0.149715 0.162593 0.175808 0.188851 0.20172 0.214417 0.226941 0.239292 0.25147 0.263476 0.27474 0.284697 0.293344 0.300684 0.306715 0.311438 0.314852 0.316958 0.317654 0.316839 0.314513 0.310676 0.305329 0.29847 0.290101 0.28022 0.269285 0.257751 0.245619 0.232888 0.219558 0.20563 0.191103 0.175978 0.160824 0.146214 0.132146 0.118622 0.10564 0.0932014 0.0813056 0.0699526 0.0593635 0.0497592 0.0411396 0.0335048 0.0268548 0.0211895 0.016509 0.0128133 0.0098102 0.00720749 0.0050052 0.00320333 0.00180187 0.000800832 0.000200208 0 0 5.98814e-05 0.000239526 0.000538933 0.000958103 0.00149704 0.00215573 0.00293419 0.00383241 0.0050106 0.00662898 0.00868753 0.0111863 0.0141252 0.0175043 0.0213236 0.025583 0.0302071 0.0351201 0.0403221 0.045813 0.0515929 0.0576618 0.0640197 0.0706666 0.0773097 0.0836564 0.0897066 0.0954604 0.100918 0.106079 0.110943 0.115511 0.119569 0.122903 0.125513 0.127399 0.128561 0.128999 0.128713 0.127703 0.126111 0.124076 0.1216 0.118682 0.115322 0.111521 0.107278 0.102593 0.0978884 0.0935872 0.0896889 0.0861937 0.0831015 0.0804124 0.0781263 0.0762432 0.0751055 0.0750555 0.0760931 0.0782185 0.0814315 0.0857322 0.0911207 0.0975968 0.105081 0.113492 0.122832 0.133099 0.144293 0.156416 0.169466 0.183444 0.197792 0.21195 0.22592 0.239701 0.253293 0