<?xml version="1.0"?> 
<VTKFile type="StructuredGrid" version="0.1"> 
<StructuredGrid WholeExtent="0 64 0 64 0 0"> 
<Piece Extent="0 64 0 64 0 0"> 
<PointData>
<DataArray type="Float32" Name="u" format="ascii" NumberOfComponents="1"> 
0.631314 0.545253 0.459193 0.373132 0.287071 0.28712 0.287168 0.287216 0.287264 0.281583 0.275901 0.27022 0.264539 0.251363 0.238188 0.225013 0.211837 0.276332 0.340826 0.40532 0.469814 0.505905 0.541995 0.578086 0.614176 0.624634 0.635092 0.64555 0.656008 0.626241 0.596474 0.566707 0.53694 0.471357 0.405773 0.34019 0.274606 0.355803 0.437 0.518198 0.599395 0.520942 0.442489 0.364035 0.285582 0.286801 0.288019 0.289238 0.290457 0.284886 0.279315 0.273745 0.268174 0.275016 0.281857 0.288698 0.29554 0.299247 0.302954 0.306661 0.310368 0.316076 0.321784 0.327492 0.3332 0.575087 0.510653 0.446219 0.381785 0.317351 0.313464 0.309578 0.305691 0.301804 0.298864 0.295925 0.292985 0.290046 0.305275 0.320503 0.335732 0.350961 0.391944 0.432927 0.47391 0.514893 0.536209 0.557524 0.578839 0.600155 0.593472 0.58679 0.580107 0.573425 0.552163 0.530902 0.50964 0.488378 0.433883 0.379388 0.324893 0.270398 0.364077 0.457757 0.551436 0.645116 0.578127 0.511138 0.44415 0.377161 0.37225 0.367338 0.362427 0.357516 0.343761 0.330007 0.316252 0.302498 0.301907 0.301317 0.300726 0.300135 0.32064 0.341144 0.361649 0.382153 0.401247 0.420341 0.439435 0.458528 0.518861 0.476053 0.433246 0.390438 0.347631 0.339809 0.331987 0.324166 0.316344 0.316146 0.315948 0.315751 0.315553 0.359186 0.402819 0.446452 0.490085 0.507557 0.525029 0.542501 0.559972 0.566513 0.573053 0.579593 0.586133 0.56231 0.538488 0.514665 0.490842 0.478085 0.465329 0.452573 0.439817 0.39641 0.353003 0.309596 0.26619 0.372351 0.478513 0.584675 0.690837 0.635313 0.579788 0.524264 0.46874 0.457698 0.446657 0.435616 0.424575 0.402637 0.380698 0.35876 0.336822 0.328799 0.320776 0.312754 0.304731 0.342033 0.379334 0.416636 0.453938 0.486418 0.518897 0.551377 0.583857 0.462635 0.441454 0.420273 0.399092 0.377911 0.366154 0.354397 0.34264 0.330884 0.333428 0.335972 0.338516 0.34106 0.413097 0.485134 0.557171 0.629208 0.623169 0.61713 0.611091 0.605051 0.596817 0.588582 0.580347 0.572112 0.531149 0.490185 0.449222 0.408258 0.404007 0.399757 0.395506 0.391255 0.358936 0.326618 0.2943 0.261981 0.380625 0.49927 0.617914 0.736558 0.692498 0.648438 0.604378 0.560318 0.543147 0.525976 0.508805 0.491634 0.461512 0.43139 0.401268 0.371146 0.355691 0.340236 0.324781 0.309326 0.363425 0.417525 0.471624 0.525723 0.571589 0.617454 0.663319 0.709185 0.406408 0.406854 0.407299 0.407745 0.40819 0.392499 0.376807 0.361115 0.345424 0.350709 0.355995 0.361281 0.366567 0.467008 0.56745 0.667891 0.768332 0.738782 0.709231 0.679681 0.65013 0.627121 0.604111 0.581101 0.558091 0.499987 0.441883 0.383779 0.325675 0.329929 0.334184 0.338438 0.342693 0.321463 0.300233 0.279003 0.257773 0.3889 0.520026 0.651152 0.782279 0.749683 0.717088 0.684493 0.651897 0.628596 0.605295 0.581994 0.558693 0.520387 0.482081 0.443776 0.40547 0.382583 0.359696 0.336809 0.313922 0.384818 0.455715 0.526612 0.597508 0.656759 0.716011 0.775262 0.834513 0.382876 0.386864 0.390852 0.39484 0.398828 0.39244 0.386052 0.379664 0.373276 0.364624 0.355971 0.347319 0.338667 0.437873 0.537079 0.636285 0.735492 0.702295 0.669099 0.635902 0.602706 0.60816 0.613614 0.619068 0.624522 0.558217 0.491913 0.425608 0.359304 0.37105 0.382796 0.394542 0.406289 0.372126 0.337964 0.303801 0.269639 0.376855 0.484071 0.591287 0.698503 0.665449 0.632395 0.599342 0.566288 0.572177 0.578067 0.583956 0.589846 0.565535 0.541224 0.516912 0.492601 0.45509 0.417578 0.380066 0.342554 0.408757 0.474959 0.541161 0.607363 0.636749 0.666135 0.695521 0.724907 0.359345 0.366875 0.374405 0.381935 0.389466 0.392381 0.395297 0.398213 0.401129 0.378538 0.355948 0.333357 0.310766 0.408737 0.506709 0.60468 0.702651 0.665809 0.628966 0.592124 0.555281 0.589199 0.623117 0.657035 0.690953 0.616448 0.541942 0.467437 0.392932 0.41217 0.431408 0.450646 0.469884 0.422789 0.375694 0.328599 0.281504 0.36481 0.448115 0.531421 0.614727 0.581215 0.547703 0.514191 0.480678 0.515758 0.550838 0.585919 0.620999 0.610682 0.600366 0.590049 0.579733 0.527596 0.47546 0.423324 0.371187 0.432695 0.494203 0.555711 0.617218 0.616739 0.616259 0.61578 0.6153 0.335813 0.346886 0.357958 0.369031 0.380103 0.392323 0.404543 0.416762 0.428982 0.392453 0.355924 0.319394 0.282865 0.379602 0.476338 0.573074 0.669811 0.629322 0.588834 0.548345 0.507856 0.570238 0.63262 0.695002 0.757384 0.674678 0.591972 0.509267 0.426561 0.453291 0.480021 0.50675 0.53348 0.473453 0.413425 0.353397 0.293369 0.352765 0.41216 0.471555 0.530951 0.49698 0.46301 0.429039 0.395069 0.45934 0.52361 0.587881 0.652151 0.655829 0.659508 0.663186 0.666864 0.600103 0.533342 0.466581 0.39982 0.456633 0.513447 0.57026 0.627073 0.596728 0.566383 0.536038 0.505693 0.312281 0.326896 0.341511 0.356126 0.370741 0.392264 0.413788 0.435311 0.456835 0.406367 0.3559 0.305432 0.254964 0.350466 0.445967 0.541469 0.63697 0.592836 0.548701 0.504566 0.460431 0.551277 0.642123 0.732969 0.823815 0.732908 0.642002 0.551096 0.46019 0.494411 0.528633 0.562855 0.597076 0.524116 0.451155 0.378195 0.305235 0.34072 0.376205 0.41169 0.447175 0.412746 0.378317 0.343888 0.30946 0.402921 0.496382 0.589843 0.683304 0.700977 0.71865 0.736322 0.753995 0.672609 0.591224 0.509838 0.428453 0.480572 0.532691 0.584809 0.636928 0.576718 0.516508 0.456297 0.396087 0.368396 0.391511 0.414627 0.437742 0.460858 0.467713 0.474568 0.481423 0.488279 0.440192 0.392105 0.344018 0.29593 0.366137 0.436344 0.50655 0.576757 0.549663 0.522568 0.495474 0.46838 0.535343 0.602306 0.669269 0.736233 0.665586 0.59494 0.524294 0.453647 0.487089 0.520532 0.553974 0.587416 0.539903 0.49239 0.444877 0.397365 0.411528 0.425691 0.439854 0.454018 0.428389 0.40276 0.377131 0.351503 0.409684 0.467865 0.526047 0.584228 0.593544 0.602859 0.612175 0.621491 0.570881 0.520272 0.469663 0.419054 0.459105 0.499157 0.539208 0.579259 0.54766 0.516062 0.484463 0.452864 0.42451 0.456126 0.487743 0.519359 0.550975 0.543162 0.535349 0.527536 0.519722 0.474016 0.428309 0.382603 0.336897 0.381808 0.42672 0.471632 0.516544 0.50649 0.496436 0.486382 0.476328 0.519409 0.562489 0.60557 0.648651 0.598264 0.547878 0.497492 0.447105 0.479768 0.51243 0.545093 0.577755 0.55569 0.533625 0.51156 0.489494 0.482336 0.475177 0.468019 0.46086 0.444032 0.427203 0.410374 0.393545 0.416447 0.439349 0.46225 0.485152 0.48611 0.487069 0.488028 0.488986 0.469153 0.44932 0.429487 0.409654 0.437638 0.465622 0.493606 0.52159 0.518603 0.515616 0.512628 0.509641 0.480624 0.520741 0.560858 0.600975 0.641092 0.618611 0.596129 0.573648 0.551166 0.50784 0.464514 0.421189 0.377863 0.39748 0.417096 0.436713 0.45633 0.463317 0.470303 0.47729 0.484276 0.503474 0.522673 0.541871 0.561069 0.530942 0.500816 0.470689 0.440563 0.472446 0.504329 0.536212 0.568095 0.571477 0.57486 0.578242 0.581624 0.553144 0.524664 0.496183 0.467703 0.459674 0.451646 0.443617 0.435588 0.42321 0.410832 0.398454 0.386075 0.378677 0.371279 0.36388 0.356482 0.367425 0.378369 0.389312 0.400255 0.416172 0.432088 0.448005 0.463922 0.489546 0.51517 0.540794 0.566417 0.536739 0.585356 0.633974 0.682592 0.731209 0.694059 0.65691 0.61976 0.58261 0.541665 0.500719 0.459774 0.418829 0.413151 0.407473 0.401795 0.396117 0.420144 0.444171 0.468197 0.492224 0.48754 0.482856 0.478171 0.473487 0.46362 0.453754 0.443887 0.434021 0.465124 0.496228 0.527331 0.558435 0.587265 0.616094 0.644924 0.673754 0.623952 0.57415 0.524348 0.474546 0.475317 0.476089 0.47686 0.477631 0.429973 0.382315 0.334657 0.286999 0.271244 0.255488 0.239733 0.223978 0.265697 0.307417 0.349136 0.390856 0.394705 0.398554 0.402404 0.406253 0.460488 0.514724 0.568959 0.623194 0.60288 0.63904 0.675199 0.711359 0.747519 0.700814 0.654109 0.607405 0.5607 0.52152 0.48234 0.44316 0.40398 0.420197 0.436414 0.452631 0.468847 0.486691 0.504534 0.522377 0.540221 0.535975 0.53173 0.527484 0.523239 0.515958 0.508677 0.501396 0.494115 0.492483 0.49085 0.489218 0.487585 0.531737 0.575889 0.620041 0.664193 0.618297 0.572401 0.526505 0.48061 0.471361 0.462113 0.452864 0.443616 0.403426 0.363237 0.323048 0.282859 0.299411 0.315964 0.332516 0.349068 0.355004 0.36094 0.366876 0.372812 0.375142 0.377471 0.3798 0.382129 0.442879 0.503629 0.564379 0.625128 0.669021 0.692723 0.716425 0.740127 0.763828 0.707569 0.651309 0.59505 0.53879 0.501376 0.463961 0.426546 0.389132 0.427243 0.465355 0.503466 0.541578 0.553237 0.564897 0.576557 0.588217 0.58441 0.580604 0.576797 0.572991 0.568296 0.5636 0.558905 0.55421 0.519841 0.485473 0.451104 0.416735 0.47621 0.535684 0.595158 0.654632 0.612643 0.570653 0.528663 0.486673 0.467405 0.448137 0.428868 0.4096 0.37688 0.344159 0.311439 0.278719 0.327579 0.376439 0.425299 0.474159 0.444311 0.414464 0.384616 0.354769 0.355578 0.356387 0.357197 0.358006 0.42527 0.492534 0.559798 0.627062 0.735162 0.746406 0.75765 0.768894 0.780138 0.714324 0.648509 0.582695 0.51688 0.481231 0.445582 0.409933 0.374283 0.43429 0.494296 0.554302 0.614308 0.619784 0.625261 0.630737 0.636213 0.632845 0.629478 0.62611 0.622743 0.620633 0.618524 0.616414 0.614305 0.5472 0.480095 0.412991 0.345886 0.420682 0.495479 0.570275 0.645071 0.606988 0.568904 0.53082 0.492737 0.463449 0.434161 0.404872 0.375584 0.350333 0.325081 0.29983 0.274579 0.355746 0.436914 0.518082 0.59925 0.533618 0.467987 0.402356 0.336725 0.336014 0.335304 0.334593 0.333883 0.407661 0.481439 0.555218 0.628996 0.801304 0.80009 0.798876 0.797662 0.796448 0.721078 0.645709 0.57034 0.49497 0.461087 0.427203 0.393319 0.359435 0.441336 0.523237 0.605138 0.687039 0.686331 0.685624 0.684917 0.684209 0.68128 0.678352 0.675423 0.672494 0.672971 0.673447 0.673923 0.6744 0.574559 0.474718 0.374877 0.275036 0.365155 0.455273 0.545392 0.63551 0.601333 0.567155 0.532978 0.4988 0.459492 0.420184 0.380877 0.341569 0.323786 0.306003 0.288221 0.270438 0.383914 0.497389 0.610865 0.72434 0.622926 0.521511 0.420096 0.318681 0.316451 0.31422 0.31199 0.309759 0.390052 0.470345 0.550637 0.63093 0.791606 0.776406 0.761207 0.746007 0.730808 0.681432 0.632057 0.582681 0.533306 0.486438 0.43957 0.392703 0.345835 0.438555 0.531276 0.623997 0.716717 0.700043 0.683368 0.666693 0.650018 0.653255 0.656492 0.65973 0.662967 0.638152 0.613338 0.588523 0.563709 0.519067 0.474425 0.429783 0.385142 0.450359 0.515577 0.580794 0.646012 0.595784 0.545556 0.495328 0.4451 0.431464 0.417828 0.404191 0.390555 0.369422 0.34829 0.327157 0.306025 0.399762 0.493499 0.587235 0.680972 0.599151 0.51733 0.435508 0.353687 0.352592 0.351497 0.350403 0.349308 0.400566 0.451824 0.503082 0.55434 0.781908 0.752723 0.723538 0.694353 0.665168 0.641786 0.618405 0.595023 0.571642 0.51179 0.451938 0.392086 0.332234 0.435775 0.539315 0.642856 0.746396 0.713754 0.681112 0.648469 0.615827 0.62523 0.634633 0.644036 0.653439 0.603334 0.553228 0.503123 0.453018 0.463575 0.474132 0.48469 0.495247 0.535564 0.575881 0.616197 0.656514 0.590235 0.523957 0.457679 0.3914 0.403436 0.415471 0.427506 0.439541 0.415058 0.390576 0.366094 0.341612 0.41561 0.489608 0.563606 0.637604 0.575376 0.513148 0.45092 0.388692 0.388734 0.388775 0.388816 0.388857 0.41108 0.433303 0.455526 0.477749 0.77221 0.729039 0.685869 0.642698 0.599528 0.60214 0.604753 0.607365 0.609977 0.537142 0.464306 0.39147 0.318634 0.432994 0.547354 0.661714 0.776075 0.727465 0.678856 0.630246 0.581636 0.597205 0.612774 0.628343 0.643911 0.568515 0.493119 0.417723 0.342327 0.408083 0.47384 0.539596 0.605353 0.620768 0.636184 0.6516 0.667015 0.584687 0.502358 0.420029 0.3377 0.375407 0.413114 0.45082 0.488527 0.460695 0.432862 0.40503 0.377198 0.431458 0.485717 0.539977 0.594236 0.551602 0.508967 0.466333 0.423698 0.424875 0.426052 0.427229 0.428405 0.421594 0.414782 0.40797 0.401159 0.762512 0.705356 0.6482 0.591044 0.533888 0.562494 0.5911 0.619707 0.648313 0.562493 0.476673 0.390854 0.305034 0.430214 0.555393 0.680573 0.805753 0.741176 0.676599 0.612022 0.547446 0.56918 0.590915 0.612649 0.634383 0.533697 0.43301 0.332323 0.231636 0.352591 0.473547 0.594503 0.715458 0.705973 0.696488 0.687002 0.677517 0.579138 0.480759 0.38238 0.284 0.347379 0.410757 0.474135 0.537513 0.506331 0.475149 0.443967 0.412785 0.447306 0.481827 0.516348 0.550869 0.527827 0.504786 0.481745 0.458704 0.461016 0.463329 0.465641 0.467954 0.432108 0.396261 0.360415 0.324568 0.663292 0.611473 0.559654 0.507835 0.456016 0.512753 0.56949 0.626227 0.682964 0.60805 0.533136 0.458223 0.383309 0.488105 0.592901 0.697697 0.802494 0.723962 0.64543 0.566898 0.488366 0.534316 0.580266 0.626216 0.672167 0.591703 0.51124 0.430776 0.350312 0.432526 0.51474 0.596953 0.679167 0.666677 0.654187 0.641698 0.629208 0.548284 0.46736 0.386436 0.305513 0.372392 0.439272 0.506152 0.573032 0.529168 0.485304 0.44144 0.397576 0.417021 0.436466 0.455912 0.475357 0.485626 0.495895 0.506164 0.516432 0.51429 0.512147 0.510004 0.507861 0.483128 0.458396 0.433663 0.40893 0.564072 0.51759 0.471108 0.424626 0.378144 0.463011 0.547879 0.632747 0.717615 0.653607 0.589599 0.525591 0.461584 0.545996 0.630409 0.714821 0.799234 0.706747 0.61426 0.521773 0.429286 0.499452 0.569618 0.639784 0.70995 0.64971 0.589469 0.529229 0.468989 0.512461 0.555932 0.599404 0.642875 0.627381 0.611887 0.596393 0.580898 0.51743 0.453961 0.390493 0.327025 0.397406 0.467788 0.53817 0.608551 0.552005 0.49546 0.438914 0.382368 0.386737 0.391106 0.395475 0.399845 0.443424 0.487003 0.530582 0.574161 0.567563 0.560965 0.554367 0.547768 0.534149 0.52053 0.506911 0.493291 0.464852 0.423707 0.382562 0.341417 0.300272 0.41327 0.526269 0.639267 0.752266 0.699164 0.646062 0.59296 0.539859 0.603888 0.667917 0.731945 0.795974 0.689532 0.58309 0.476648 0.370206 0.464588 0.558969 0.653351 0.747733 0.707716 0.667699 0.627682 0.587665 0.592395 0.597125 0.601854 0.606584 0.588085 0.569586 0.551088 0.532589 0.486576 0.440563 0.39455 0.348537 0.42242 0.496304 0.570187 0.64407 0.574843 0.505615 0.436387 0.367159 0.356453 0.345746 0.335039 0.324333 0.401222 0.478111 0.555001 0.63189 0.620837 0.609783 0.598729 0.587676 0.58517 0.582664 0.580159 0.577653 0.365633 0.329824 0.294016 0.258208 0.2224 0.363529 0.504658 0.645787 0.786916 0.744721 0.702525 0.660329 0.618134 0.661779 0.705424 0.74907 0.792715 0.672318 0.55192 0.431523 0.311126 0.429723 0.548321 0.666919 0.785517 0.765723 0.745929 0.726136 0.706342 0.67233 0.638317 0.604305 0.570292 0.548789 0.527286 0.505783 0.484279 0.455722 0.427164 0.398607 0.370049 0.447434 0.524819 0.602204 0.67959 0.59768 0.51577 0.433861 0.351951 0.326168 0.300386 0.274603 0.248821 0.35902 0.46922 0.579419 0.689619 0.67411 0.658601 0.643092 0.627583 0.636191 0.644799 0.653407 0.662015 0.425671 0.390483 0.355295 0.320107 0.284919 0.389553 0.494187 0.59882 0.703454 0.688484 0.673514 0.658544 0.643573 0.656781 0.66999 0.683198 0.696406 0.625565 0.554725 0.483885 0.413044 0.500996 0.588947 0.676898 0.764849 0.752477 0.740105 0.727733 0.715361 0.676285 0.63721 0.598135 0.559059 0.548021 0.536982 0.525943 0.514905 0.505824 0.496743 0.487663 0.478582 0.51678 0.554979 0.593177 0.631375 0.554919 0.478463 0.402007 0.325551 0.337777 0.350003 0.362229 0.374454 0.447924 0.521394 0.594863 0.668333 0.645749 0.623164 0.60058 0.577996 0.61012 0.642245 0.674369 0.706493 0.48571 0.451142 0.416575 0.382007 0.347439 0.415577 0.483715 0.551854 0.619992 0.632247 0.644502 0.656758 0.669013 0.651784 0.634555 0.617326 0.600097 0.578813 0.55753 0.536247 0.514963 0.572268 0.629572 0.686877 0.744181 0.739231 0.73428 0.72933 0.72438 0.680241 0.636103 0.591965 0.547826 0.547252 0.546678 0.546104 0.54553 0.555926 0.566322 0.576719 0.587115 0.586127 0.585138 0.584149 0.583161 0.512158 0.441156 0.370153 0.299151 0.349385 0.39962 0.449854 0.500088 0.536828 0.573567 0.610307 0.647046 0.617387 0.587728 0.558069 0.528409 0.58405 0.63969 0.695331 0.750971 0.545749 0.511801 0.477854 0.443906 0.409959 0.441602 0.473244 0.504887 0.536529 0.57601 0.615491 0.654972 0.694453 0.646786 0.59912 0.551454 0.503788 0.532061 0.560335 0.588608 0.616882 0.64354 0.670198 0.696855 0.723513 0.725985 0.728456 0.730927 0.733399 0.684197 0.634996 0.585795 0.536593 0.546484 0.556374 0.566265 0.576155 0.606028 0.635902 0.665775 0.695648 0.655473 0.615297 0.575122 0.534946 0.469397 0.403849 0.3383 0.272751 0.360994 0.449236 0.537479 0.625722 0.625731 0.625741 0.625751 0.62576 0.589026 0.552291 0.515557 0.478822 0.557979 0.637136 0.716293 0.79545 0.605788 0.57246 0.539133 0.505806 0.472479 0.467626 0.462773 0.45792 0.453067 0.519773 0.58648 0.653186 0.719892 0.641789 0.563685 0.485582 0.407478 0.485309 0.56314 0.64097 0.718801 0.714812 0.710823 0.706834 0.702845 0.712738 0.722631 0.732524 0.742417 0.688153 0.633889 0.579624 0.52536 0.545715 0.56607 0.586425 0.60678 0.656131 0.705481 0.754831 0.804181 0.724819 0.645456 0.566094 0.486731 0.426636 0.366541 0.306446 0.246351 0.372602 0.498853 0.625104 0.751355 0.714635 0.677915 0.641194 0.604474 0.560664 0.516855 0.473045 0.429236 0.531909 0.634582 0.737255 0.839928 0.540903 0.532896 0.524889 0.516881 0.508874 0.503316 0.497758 0.4922 0.486643 0.528167 0.569691 0.611215 0.652739 0.584566 0.516393 0.44822 0.380047 0.433841 0.487634 0.541427 0.59522 0.607725 0.620231 0.632736 0.645242 0.643385 0.641529 0.639673 0.637817 0.618318 0.59882 0.579321 0.559823 0.561179 0.562535 0.563892 0.565248 0.620702 0.676157 0.731611 0.787065 0.723342 0.659619 0.595895 0.532172 0.480716 0.42926 0.377804 0.326348 0.4056 0.484852 0.564103 0.643355 0.646399 0.649444 0.652488 0.655533 0.595452 0.535371 0.475291 0.41521 0.518532 0.621853 0.725175 0.828497 0.476018 0.493331 0.510644 0.527957 0.54527 0.539007 0.532744 0.526481 0.520218 0.53656 0.552902 0.569244 0.585585 0.527343 0.469101 0.410859 0.352616 0.382372 0.412127 0.441883 0.471638 0.500638 0.529638 0.558638 0.587638 0.574032 0.560427 0.546822 0.533216 0.548483 0.563751 0.579018 0.594285 0.576643 0.559 0.541358 0.523716 0.585274 0.646832 0.708391 0.769949 0.721865 0.673781 0.625697 0.577613 0.534796 0.491979 0.449162 0.406346 0.438598 0.47085 0.503102 0.535354 0.578164 0.620973 0.663782 0.706592 0.63024 0.553888 0.477536 0.401185 0.505155 0.609125 0.713095 0.817066 0.411134 0.453766 0.496399 0.539032 0.581665 0.574697 0.567729 0.560762 0.553794 0.544954 0.536113 0.527273 0.518432 0.47012 0.421809 0.373497 0.325185 0.330903 0.336621 0.342339 0.348057 0.393551 0.439045 0.48454 0.530034 0.504679 0.479325 0.45397 0.428616 0.478649 0.528682 0.578714 0.628747 0.592106 0.555465 0.518824 0.482183 0.549846 0.617508 0.68517 0.752832 0.720388 0.687943 0.655499 0.623054 0.588876 0.554698 0.520521 0.486343 0.471595 0.456848 0.442101 0.427354 0.509928 0.592502 0.675076 0.75765 0.665027 0.572405 0.479782 0.387159 0.491778 0.596397 0.701015 0.805634 0.346249 0.414202 0.482155 0.550107 0.61806 0.610388 0.602715 0.595042 0.58737 0.553347 0.519324 0.485301 0.451279 0.412898 0.374517 0.336136 0.297754 0.279435 0.261115 0.242795 0.224475 0.286464 0.348453 0.410441 0.47243 0.435326 0.398222 0.361119 0.324015 0.408814 0.493612 0.578411 0.66321 0.60757 0.551931 0.496291 0.440651 0.514417 0.588184 0.66195 0.735716 0.718911 0.702106 0.6853 0.668495 0.642956 0.617417 0.591879 0.56634 0.504593 0.442846 0.3811 0.319353 0.441692 0.564031 0.68637 0.808709 0.699815 0.590921 0.482027 0.373133 0.478401 0.583668 0.688936 0.794203 0.346186 0.40324 0.460294 0.517347 0.574401 0.55739 0.540379 0.523368 0.506357 0.502484 0.498611 0.494738 0.490865 0.444092 0.397318 0.350544 0.30377 0.284726 0.265682 0.246637 0.227593 0.300624 0.373655 0.446686 0.519717 0.477184 0.434651 0.392118 0.349585 0.425441 0.501297 0.577153 0.653009 0.600448 0.547887 0.495326 0.442765 0.507619 0.572473 0.637327 0.702181 0.665871 0.629561 0.593252 0.556942 0.572579 0.588217 0.603854 0.619491 0.56887 0.518249 0.467628 0.417007 0.506641 0.596275 0.685909 0.775543 0.696426 0.61731 0.538193 0.459077 0.5215 0.583922 0.646345 0.708768 0.346124 0.392278 0.438432 0.484587 0.530741 0.504392 0.478043 0.451693 0.425344 0.451621 0.477898 0.504175 0.530452 0.475285 0.420119 0.364953 0.309786 0.290018 0.270249 0.25048 0.230711 0.314784 0.398858 0.482931 0.567004 0.519042 0.47108 0.423118 0.375156 0.442069 0.508982 0.575895 0.642809 0.593326 0.543844 0.494362 0.44488 0.500821 0.556763 0.612704 0.668645 0.612831 0.557017 0.501203 0.445389 0.502203 0.559016 0.61583 0.672643 0.633147 0.593652 0.554156 0.51466 0.571589 0.628518 0.685448 0.742377 0.693038 0.643699 0.594359 0.54502 0.564598 0.584176 0.603754 0.623332 0.346062 0.381317 0.416571 0.451826 0.487081 0.451394 0.415706 0.380019 0.344332 0.400758 0.457185 0.513612 0.570038 0.506479 0.44292 0.379361 0.315802 0.295309 0.274816 0.254322 0.233829 0.328944 0.42406 0.519176 0.614292 0.5609 0.507509 0.454117 0.400726 0.458696 0.516667 0.574637 0.632608 0.586204 0.539801 0.493397 0.446994 0.494023 0.541052 0.588081 0.63511 0.559792 0.484473 0.409155 0.333836 0.431826 0.529815 0.627805 0.725795 0.697424 0.669054 0.640684 0.612314 0.636538 0.660762 0.684986 0.70921 0.689649 0.670087 0.650525 0.630964 0.607697 0.58443 0.561163 0.537896 0.346 0.370355 0.39471 0.419066 0.443421 0.398396 0.35337 0.308345 0.263319 0.349895 0.436472 0.523048 0.609625 0.537673 0.465722 0.39377 0.321818 0.3006 0.279382 0.258164 0.236946 0.343105 0.449263 0.555421 0.661579 0.602758 0.543938 0.485117 0.426296 0.475324 0.524352 0.57338 0.622407 0.579083 0.535758 0.492433 0.449108 0.487225 0.525341 0.563458 0.601575 0.506752 0.411929 0.317106 0.222283 0.361449 0.500615 0.63978 0.778946 0.761701 0.744457 0.727212 0.709967 0.701486 0.693006 0.684525 0.676044 0.68626 0.696476 0.706692 0.716907 0.650796 0.584684 0.518573 0.452461 0.407099 0.424116 0.441134 0.458151 0.475169 0.439518 0.403867 0.368215 0.332564 0.387545 0.442526 0.497507 0.552488 0.497482 0.442476 0.38747 0.332464 0.324497 0.316531 0.308565 0.300599 0.371453 0.442307 0.513161 0.584015 0.562472 0.540928 0.519385 0.497841 0.541722 0.585602 0.629482 0.673363 0.603449 0.533536 0.463623 0.39371 0.442088 0.490466 0.538844 0.587223 0.498549 0.409875 0.321201 0.232527 0.364886 0.497245 0.629603 0.761962 0.756346 0.750731 0.745115 0.7395 0.697057 0.654615 0.612172 0.56973 0.611498 0.653267 0.695035 0.736804 0.65131 0.565816 0.480323 0.394829 0.468198 0.477878 0.487557 0.497237 0.506917 0.48064 0.454363 0.428086 0.401809 0.425195 0.44858 0.471965 0.49535 0.45729 0.41923 0.381169 0.343109 0.348394 0.35368 0.358965 0.364251 0.399801 0.435351 0.470902 0.506452 0.522186 0.537919 0.553653 0.569386 0.608119 0.646852 0.685585 0.724318 0.627816 0.531315 0.434813 0.338312 0.396951 0.455591 0.514231 0.57287 0.490346 0.407821 0.325296 0.242771 0.368323 0.493875 0.619426 0.744978 0.750991 0.757005 0.763019 0.769032 0.692628 0.616224 0.539819 0.463415 0.536737 0.610058 0.683379 0.756701 0.651825 0.546949 0.442073 0.337197 0.529298 0.531639 0.533981 0.536323 0.538664 0.521762 0.50486 0.487957 0.471055 0.462844 0.454634 0.446424 0.438213 0.417098 0.395984 0.374869 0.353754 0.372291 0.390828 0.409366 0.427903 0.428149 0.428396 0.428642 0.428889 0.481899 0.53491 0.587921 0.640932 0.674517 0.708102 0.741688 0.775273 0.652183 0.529093 0.406003 0.282913 0.351815 0.420716 0.489617 0.558518 0.482142 0.405767 0.329391 0.253015 0.37176 0.490504 0.609249 0.727994 0.745637 0.763279 0.780922 0.798565 0.688199 0.577833 0.467467 0.357101 0.461975 0.566849 0.671723 0.776597 0.652339 0.528081 0.403823 0.279565 0.590397 0.585401 0.580405 0.575408 0.570412 0.562884 0.555356 0.547828 0.5403 0.500494 0.460688 0.420882 0.381076 0.376907 0.372738 0.368569 0.3644 0.396188 0.427977 0.459766 0.491555 0.456497 0.42144 0.386383 0.351325 0.441613 0.531901 0.622189 0.712477 0.740914 0.769352 0.79779 0.826228 0.67655 0.526872 0.377193 0.227515 0.306678 0.385841 0.465003 0.544166 0.473939 0.403712 0.333486 0.263259 0.375197 0.487134 0.599072 0.71101 0.740282 0.769553 0.798825 0.828097 0.683769 0.539442 0.395114 0.250786 0.387213 0.52364 0.660067 0.796494 0.652854 0.509213 0.365573 0.221933 0.60073 0.601306 0.601882 0.602458 0.603033 0.587508 0.571982 0.556457 0.540932 0.524852 0.508773 0.492694 0.476615 0.474014 0.471414 0.468813 0.466212 0.479369 0.492526 0.505683 0.518839 0.473444 0.428049 0.382653 0.337258 0.408102 0.478947 0.549792 0.620636 0.640569 0.660502 0.680434 0.700367 0.582616 0.464865 0.347115 0.229364 0.291285 0.353206 0.415127 0.477047 0.444317 0.411587 0.378857 0.346127 0.442733 0.539338 0.635944 0.73255 0.731591 0.730631 0.729672 0.728713 0.622703 0.516693 0.410683 0.304673 0.429307 0.553941 0.678575 0.803209 0.694485 0.585761 0.477037 0.368314 0.611063 0.617211 0.623359 0.629507 0.635654 0.612132 0.588609 0.565086 0.541563 0.549211 0.556859 0.564506 0.572154 0.571122 0.570089 0.569057 0.568025 0.56255 0.557074 0.551599 0.546124 0.49039 0.434657 0.378923 0.32319 0.374591 0.425993 0.477395 0.528796 0.540223 0.551651 0.563078 0.574505 0.488682 0.402859 0.317036 0.231213 0.275892 0.320571 0.36525 0.409929 0.414695 0.419462 0.424228 0.428994 0.510268 0.591543 0.672817 0.754091 0.7229 0.691709 0.660519 0.629328 0.561636 0.493944 0.426251 0.358559 0.4714 0.584241 0.697082 0.809923 0.736116 0.662309 0.588502 0.514695 0.621396 0.633116 0.644836 0.656556 0.668276 0.636755 0.605235 0.573715 0.542195 0.57357 0.604944 0.636318 0.667693 0.668229 0.668765 0.669301 0.669838 0.64573 0.621623 0.597516 0.573409 0.507337 0.441265 0.375194 0.309122 0.341081 0.373039 0.404997 0.436956 0.439878 0.4428 0.445722 0.448644 0.394748 0.340853 0.286957 0.233061 0.260499 0.287936 0.315373 0.34281 0.385073 0.427336 0.469599 0.511862 0.577804 0.643747 0.709689 0.775631 0.714209 0.652787 0.591365 0.529943 0.500569 0.471195 0.44182 0.412446 0.513494 0.614542 0.71559 0.816638 0.777747 0.738857 0.699967 0.661076 0.631729 0.649021 0.666313 0.683605 0.700897 0.661379 0.621862 0.582344 0.542827 0.597928 0.653029 0.70813 0.763232 0.765336 0.767441 0.769546 0.77165 0.728911 0.686172 0.643432 0.600693 0.524283 0.447874 0.371464 0.295054 0.30757 0.320085 0.3326 0.345116 0.339532 0.333949 0.328366 0.322783 0.300815 0.278846 0.256878 0.23491 0.245105 0.255301 0.265496 0.275692 0.355451 0.435211 0.51497 0.59473 0.64534 0.695951 0.746561 0.797171 0.705518 0.613865 0.522212 0.430559 0.439502 0.448446 0.457389 0.466332 0.555587 0.644842 0.734097 0.823352 0.819378 0.815405 0.811431 0.807457 0.630618 0.656195 0.681771 0.707348 0.732925 0.69451 0.656094 0.617678 0.579262 0.603784 0.628306 0.652828 0.67735 0.691667 0.705984 0.7203 0.734617 0.686196 0.637775 0.589355 0.540934 0.485636 0.430338 0.375041 0.319743 0.344183 0.368624 0.393064 0.417504 0.407355 0.397207 0.387058 0.376909 0.355884 0.334859 0.313833 0.292808 0.307932 0.323056 0.338179 0.353303 0.41891 0.484516 0.550123 0.61573 0.647153 0.678576 0.709999 0.741422 0.671436 0.601451 0.531465 0.461479 0.469443 0.477408 0.485372 0.493336 0.557423 0.621509 0.685596 0.749682 0.730073 0.710464 0.690855 0.671246 0.629506 0.663368 0.69723 0.731092 0.764954 0.72764 0.690326 0.653012 0.615697 0.60964 0.603583 0.597526 0.591469 0.617998 0.644526 0.671055 0.697584 0.643481 0.589379 0.535277 0.481175 0.446989 0.412803 0.378617 0.344431 0.380797 0.417162 0.453528 0.489893 0.475178 0.460464 0.445749 0.431035 0.410953 0.390871 0.370789 0.350707 0.370759 0.39081 0.410862 0.430914 0.482368 0.533822 0.585276 0.63673 0.648966 0.661201 0.673437 0.685673 0.637355 0.589036 0.540718 0.492399 0.499384 0.50637 0.513355 0.52034 0.559258 0.598176 0.637094 0.676012 0.640768 0.605524 0.57028 0.535035 0.628394 0.670541 0.712688 0.754835 0.796983 0.76077 0.724558 0.688345 0.652133 0.615496 0.57886 0.542224 0.505588 0.544329 0.583069 0.62181 0.66055 0.600767 0.540983 0.481199 0.421416 0.408342 0.395268 0.382194 0.36912 0.41741 0.465701 0.513991 0.562282 0.543001 0.523721 0.504441 0.485161 0.466022 0.446883 0.427744 0.408605 0.433585 0.458565 0.483545 0.508525 0.545826 0.583127 0.620429 0.65773 0.650778 0.643827 0.636875 0.629924 0.603273 0.576622 0.54997 0.523319 0.529326 0.535332 0.541338 0.547345 0.561094 0.574843 0.588593 0.602342 0.551463 0.500583 0.449704 0.398824 0.627282 0.677714 0.728147 0.778579 0.829011 0.7939 0.75879 0.723679 0.688568 0.621353 0.554137 0.486922 0.419707 0.470659 0.521612 0.572564 0.623517 0.558052 0.492587 0.427121 0.361656 0.369694 0.377732 0.38577 0.393808 0.454024 0.514239 0.574455 0.63467 0.610824 0.586979 0.563133 0.539287 0.521091 0.502895 0.4847 0.466504 0.496412 0.52632 0.556228 0.586136 0.609284 0.632433 0.655581 0.67873 0.652591 0.626452 0.600313 0.574175 0.569191 0.564207 0.559223 0.554239 0.559267 0.564294 0.569321 0.574349 0.56293 0.55151 0.540091 0.528672 0.462157 0.395643 0.329128 0.262613 0.633928 0.683004 0.732079 0.781155 0.830231 0.778672 0.727113 0.675554 0.623995 0.597747 0.5715 0.545253 0.519006 0.53276 0.546514 0.560267 0.574021 0.546065 0.518108 0.490151 0.462194 0.451318 0.440442 0.429566 0.41869 0.462242 0.505793 0.549344 0.592896 0.567351 0.541806 0.516261 0.490716 0.473462 0.456208 0.438954 0.4217 0.451304 0.480908 0.510511 0.540115 0.573804 0.607494 0.641183 0.674873 0.657494 0.640115 0.622736 0.605357 0.598124 0.590891 0.583659 0.576426 0.553461 0.530496 0.50753 0.484565 0.508484 0.532403 0.556322 0.580241 0.533967 0.487693 0.441419 0.395144 0.640574 0.688293 0.736012 0.783732 0.831451 0.763444 0.695436 0.627429 0.559421 0.574142 0.588863 0.603584 0.618305 0.59486 0.571415 0.547971 0.524526 0.534078 0.543629 0.553181 0.562732 0.532942 0.503152 0.473362 0.443572 0.470459 0.497347 0.524234 0.551121 0.523877 0.496633 0.469389 0.442145 0.425833 0.409521 0.393209 0.376897 0.406196 0.435495 0.464794 0.494094 0.538324 0.582555 0.626786 0.671016 0.662397 0.653777 0.645158 0.636539 0.627057 0.617576 0.608094 0.598613 0.547655 0.496697 0.445739 0.394782 0.454039 0.513296 0.572553 0.63181 0.605777 0.579743 0.553709 0.527676 0.647219 0.693582 0.739945 0.786308 0.832671 0.748215 0.663759 0.579304 0.494848 0.550537 0.606226 0.661915 0.717604 0.65696 0.596317 0.535674 0.475031 0.522091 0.56915 0.61621 0.66327 0.614566 0.565862 0.517158 0.468454 0.478677 0.4889 0.499124 0.509347 0.480404 0.45146 0.422517 0.393574 0.378204 0.362834 0.347464 0.332094 0.361088 0