<?xml version="1.0"?> 
<VTKFile type="StructuredGrid" version="0.1"> 
<StructuredGrid WholeExtent="0 128 0 128 0 0"> 
<Piece Extent="0 128 0 128 0 0"> 
<PointData>
<DataArray type="Float32" Name="u" format="ascii" NumberOfComponents="1"> 
0 0 0 0 0 0 0 0 0 0 0 0 0 0 0 0 0 0 0 0 0 0 0 0 0 0 0 0 0 0 0 0 0 0 0 0 0 0 0 0 0 0 0 0 0 0 0 0 0 0 0 0 0 0 0 0 0 0 0 0 0 0 0 0 0 0 0 0 0 0 0 0 0 0 0 0 0 0 0 0 0 0 0 0 0 0 0 0 0 0 0 0 0 0 0 0 0 0 0 0 0 0 0 0 0 0 0 0 0 0 0 0 0 0 0 0 0 0 0 0 0 0 0 0 0 0 0 0 0 0 -8.60836e-08 -3.44334e-07 -7.74753e-07 -1.37734e-06 -2.15209e-06 -3.09901e-06 -4.2181e-06 -5.50935e-06 -6.69015e-06 -7.47787e-06 -7.87252e-06 -7.87409e-06 -7.48259e-06 -6.698e-06 -5.52034e-06 -3.94961e-06 -1.92694e-06 6.06537e-07 3.65081e-06 7.20588e-06 1.12718e-05 1.58484e-05 2.09359e-05 2.65342e-05 3.22406e-05 3.76527e-05 4.27703e-05 4.75934e-05 5.21221e-05 5.63564e-05 6.02963e-05 6.39417e-05 6.69811e-05 6.91026e-05 7.03064e-05 7.05924e-05 6.99606e-05 6.8411e-05 6.59437e-05 6.25586e-05 5.84609e-05 5.38559e-05 4.87436e-05 4.3124e-05 3.69971e-05 3.03628e-05 2.32213e-05 1.55724e-05 8.06769e-06 1.35873e-06 -4.55449e-06 -9.67199e-06 -1.39938e-05 -1.75198e-05 -2.02501e-05 -2.21847e-05 -2.27579e-05 -2.1404e-05 -1.8123e-05 -1.29148e-05 -5.77962e-06 3.2827e-06 1.42721e-05 2.71886e-05 4.19074e-05 5.83037e-05 7.63775e-05 9.61287e-05 0.000117557 0.000140663 0.000165447 0.000191908 0.000219048 0.000245869 0.00027237 0.000298553 0.000324415 0.000349959 0.000375183 0.000400087 0.000423522 0.000444337 0.000462533 0.000478108 0.000491064 0.000501399 0.000509115 0.000514211 0.000516528 0.000515907 0.000512347 0.000505849 0.000496412 0.000484037 0.000468724 0.000450473 0.000430277 0.000409133 0.00038704 0.000363998 0.000340008 0.000315068 0.00028918 0.000262342 0.000235695 0.000210378 0.000186391 0.000163733 0.000142406 0.000122407 0.000103739 8.64006e-05 7.0615e-05 5.66058e-05 4.43729e-05 3.39163e-05 2.5236e-05 1.8332e-05 1.32043e-05 9.85291e-06 7.54363e-06 5.54226e-06 3.84879e-06 2.46323e-06 1.38557e-06 6.15807e-07 1.53952e-07 0 0 -3.44334e-07 -1.37734e-06 -3.09901e-06 -5.50935e-06 -8.60836e-06 -1.2396e-05 -1.68724e-05 -2.20374e-05 -2.67606e-05 -2.99115e-05 -3.14901e-05 -3.14964e-05 -2.99303e-05 -2.6792e-05 -2.20814e-05 -1.57984e-05 -7.70775e-06 2.42615e-06 1.46032e-05 2.88235e-05 4.5087e-05 6.33937e-05 8.37436e-05 0.000106137 0.000128963 0.000150611 0.000171081 0.000190374 0.000208489 0.000225426 0.000241185 0.000255767 0.000267924 0.00027641 0.000281226 0.000282369 0.000279842 0.000273644 0.000263775 0.000250234 0.000233844 0.000215424 0.000194974 0.000172496 0.000147988 0.000121451 9.2885e-05 6.22895e-05 3.22707e-05 5.43493e-06 -1.8218e-05 -3.8688e-05 -5.59751e-05 -7.00792e-05 -8.10005e-05 -8.87389e-05 -9.10316e-05 -8.56159e-05 -7.24919e-05 -5.16594e-05 -2.31185e-05 1.31308e-05 5.70885e-05 0.000108755 0.00016763 0.000233215 0.00030551 0.000384515 0.000470229 0.000562654 0.000661788 0.000767633 0.000876193 0.000983476 0.00108948 0.00119421 0.00129766 0.00139983 0.00150073 0.00160035 0.00169409 0.00177735 0.00185013 0.00191243 0.00196425 0.0020056 0.00203646 0.00205685 0.00206611 0.00206363 0.00204939 0.0020234 0.00198565 0.00193615 0.0018749 0.00180189 0.00172111 0.00163653 0.00154816 0.00145599 0.00136003 0.00126027 0.00115672 0.00104937 0.000942782 0.000841513 0.000745564 0.000654934 0.000569622 0.00048963 0.000414957 0.000345602 0.00028246 0.000226423 0.000177492 0.000135665 0.000100944 7.33279e-05 5.28172e-05 3.94116e-05 3.01745e-05 2.2169e-05 1.53952e-05 9.85291e-06 5.54226e-06 2.46323e-06 6.15807e-07 0 0 -7.74753e-07 -3.09901e-06 -6.97277e-06 -1.2396e-05 -1.93688e-05 -2.78911e-05 -3.79629e-05 -4.95842e-05 -6.02114e-05 -6.73009e-05 -7.08527e-05 -7.08668e-05 -6.73433e-05 -6.0282e-05 -4.96831e-05 -3.55465e-05 -1.73424e-05 5.45883e-06 3.28573e-05 6.4853e-05 0.000101446 0.000142636 0.000188423 0.000238808 0.000290166 0.000338874 0.000384932 0.000428341 0.000469099 0.000507208 0.000542667 0.000575476 0.00060283 0.000621923 0.000632757 0.000635331 0.000629645 0.000615699 0.000593493 0.000563027 0.000526148 0.000484703 0.000438693 0.000388116 0.000332974 0.000273265 0.000208991 0.000140151 7.26092e-05 1.22286e-05 -4.09904e-05 -8.70479e-05 -0.000125944 -0.000157678 -0.000182251 -0.000199663 -0.000204821 -0.000192636 -0.000163107 -0.000116234 -5.20166e-05 2.95443e-05 0.000128449 0.000244698 0.000377167 0.000524733 0.000687397 0.000865158 0.00105802 0.00126597 0.00148902 0.00172717 0.00197143 0.00221282 0.00245133 0.00268697 0.00291974 0.00314963 0.00337664 0.00360078 0.0038117 0.00399904 0.00416279 0.00430297 0.00441957 0.0045126 0.00458204 0.0046279 0.00464875 0.00464316 0.00461112 0.00455264 0.00446771 0.00435634 0.00421852 0.00405425 0.0038725 0.0036822 0.00348336 0.00327599 0.00306007 0.00283561 0.00260262 0.00236108 0.00212126 0.00189341 0.00167752 0.0014736 0.00128165 0.00110167 0.000933652 0.000777605 0.000635535 0.000509452 0.000399356 0.000305247 0.000227124 0.000164988 0.000118839 8.86762e-05 6.78927e-05 4.98803e-05 3.46391e-05 2.2169e-05 1.24701e-05 5.54226e-06 1.38557e-06 0 0 -1.37734e-06 -5.50935e-06 -1.2396e-05 -2.20374e-05 -3.44334e-05 -4.95842e-05 -6.74896e-05 -8.81496e-05 -0.000107042 -0.000119646 -0.00012596 -0.000125985 -0.000119721 -0.000107168 -8.83255e-05 -6.31938e-05 -3.0831e-05 9.7046e-06 5.8413e-05 0.000115294 0.000180348 0.000253575 0.000334975 0.000424547 0.00051585 0.000602443 0.000684324 0.000761495 0.000833954 0.000901703 0.000964741 0.00102307 0.0010717 0.00110564 0.0011249 0.00112948 0.00111937 0.00109458 0.0010551 0.00100094 0.000935374 0.000861695 0.000779898 0.000689984 0.000591953 0.000485805 0.00037154 0.000249158 0.000129083 2.17397e-05 -7.28719e-05 -0.000154752 -0.0002239 -0.000280317 -0.000324002 -0.000354956 -0.000364126 -0.000342464 -0.000289967 -0.000206637 -9.2474e-05 5.25232e-05 0.000228354 0.000435018 0.000670519 0.000932859 0.00122204 0.00153806 0.00188092 0.00225062 0.00264715 0.00307053 0.00350477 0.0039339 0.00435793 0.00477684 0.00519064 0.00559934 0.00600292 0.0064014 0.00677636 0.0071094 0.00740052 0.00764973 0.00785702 0.00802239 0.00814585 0.00822738 0.00826445 0.00825451 0.00819755 0.00809358 0.0079426 0.0077446 0.00749959 0.00720756 0.00688444 0.00654613 0.00619264 0.00582397 0.00544012 0.00504109 0.00462687 0.00419748 0.00377113 0.00336605 0.00298226 0.00261973 0.00227849 0.00195852 0.00165983 0.00138241 0.00112984 0.000905693 0.000709966 0.00054266 0.000403776 0.000293312 0.000211269 0.000157647 0.000120698 8.86762e-05 6.15807e-05 3.94116e-05 2.2169e-05 9.85291e-06 2.46323e-06 0 0 -2.15209e-06 -8.60836e-06 -1.93688e-05 -3.44334e-05 -5.38023e-05 -7.74753e-05 -0.000105452 -0.000137734 -0.000167254 -0.000186947 -0.000196813 -0.000196852 -0.000187065 -0.00016745 -0.000138009 -9.87402e-05 -4.81734e-05 1.51634e-05 9.12703e-05 0.000180147 0.000281794 0.000396211 0.000523398 0.000663355 0.000806016 0.000941317 0.00106926 0.00118984 0.00130305 0.00140891 0.00150741 0.00159854 0.00167453 0.00172757 0.00175766 0.00176481 0.00174901 0.00171028 0.00164859 0.00156396 0.00146152 0.0013464 0.00121859 0.0010781 0.000924927 0.00075907 0.000580531 0.000389309 0.000201692 3.39683e-05 -0.000113862 -0.0002418 -0.000349844 -0.000437995 -0.000506253 -0.000554618 -0.000568948 -0.0005351 -0.000453074 -0.000322871 -0.000144491 8.20674e-05 0.000356803 0.000679716 0.00104769 0.00145759 0.00190944 0.00240322 0.00293893 0.00351659 0.00413618 0.0047977 0.00547621 0.00614673 0.00680926 0.00746381 0.00811038 0.00874896 0.00937956 0.0100022 0.0105881 0.0111084 0.0115633 0.0119527 0.0122766 0.012535 0.0127279 0.0128553 0.0129132 0.0128977 0.0128087 0.0126462 0.0124103 0.0121009 0.0117181 0.0112618 0.0107569 0.0102283 0.00967601 0.00909996 0.00850019 0.0078767 0.00722949 0.00655856 0.00589239 0.00525946 0.00465978 0.00409334 0.00356014 0.00306019 0.00259348 0.00216001 0.00176538 0.00141515 0.00110932 0.000847907 0.000630899 0.000458299 0.000330107 0.000246323 0.000188591 0.000138557 9.62198e-05 6.15807e-05 3.46391e-05 1.53952e-05 3.84879e-06 0 0 -3.09901e-06 -1.2396e-05 -2.78911e-05 -4.95842e-05 -7.74753e-05 -0.000111564 -0.000151852 -0.000198337 -0.000240845 -0.000269203 -0.000283411 -0.000283467 -0.000269373 -0.000241128 -0.000198732 -0.000142186 -6.93697e-05 2.18353e-05 0.000131429 0.000259412 0.000405783 0.000570544 0.000753693 0.000955231 0.00116066 0.0013555 0.00153973 0.00171336 0.0018764 0.00202883 0.00217067 0.0023019 0.00241132 0.00248769 0.00253103 0.00254133 0.00251858 0.0024628 0.00237397 0.00225211 0.00210459 0.00193881 0.00175477 0.00155246 0.00133189 0.00109306 0.000835965 0.000560605 0.000290437 4.89144e-05 -0.000163962 -0.000348192 -0.000503776 -0.000630713 -0.000729005 -0.00079865 -0.000819285 -0.000770543 -0.000652427 -0.000464934 -0.000208066 0.000118177 0.000513796 0.000978791 0.00150867 0.00209893 0.00274959 0.00346063 0.00423206 0.00506388 0.00595609 0.00690869 0.00788574 0.00885129 0.00980534 0.0107479 0.0116789 0.0125985 0.0135066 0.0144031 0.0152468 0.0159961 0.0166512 0.0172119 0.0176783 0.0180504 0.0183282 0.0185116 0.018595 0.0185726 0.0184445 0.0182106 0.0178708 0.0174253 0.0168741 0.016217 0.01549 0.0147288 0.0139334 0.0131039 0.0122403 0.0113425 0.0104105 0.00944433 0.00848504 0.00757362 0.00671008 0.0058944 0.0051266 0.00440667 0.00373461 0.00311042 0.00254214 0.00203781 0.00159742 0.00122099 0.000908495 0.000659951 0.000475354 0.000354705 0.000271571 0.000199521 0.000138557 8.86762e-05 4.98803e-05 2.2169e-05 5.54226e-06 0 0 -4.2181e-06 -1.68724e-05 -3.79629e-05 -6.74896e-05 -0.000105452 -0.000151852 -0.000206687 -0.000269958 -0.000327817 -0.000366416 -0.000385754 -0.000385831 -0.000366647 -0.000328202 -0.000270497 -0.000193531 -9.44199e-05 2.97203e-05 0.00017889 0.000353088 0.000552316 0.000776573 0.00102586 0.00130017 0.00157979 0.00184498 0.00209574 0.00233208 0.00255399 0.00276147 0.00295452 0.00313315 0.00328207 0.00338603 0.00344501 0.00345903 0.00342807 0.00335214 0.00323124 0.00306537 0.00286458 0.00263894 0.00238844 0.00211308 0.00181286 0.00148778 0.00113784 0.000763046 0.000395317 6.65779e-05 -0.00022317 -0.000473928 -0.000685695 -0.000858471 -0.000992256 -0.00108705 -0.00111514 -0.0010488 -0.000888025 -0.000632827 -0.000283202 0.000160852 0.000699334 0.00133224 0.00205346 0.00285688 0.0037425 0.0047103 0.00576031 0.00689251 0.00810691 0.0094035 0.0107334 0.0120476 0.0133462 0.0146291 0.0158963 0.017148 0.0183839 0.0196043 0.0207526 0.0217725 0.0226641 0.0234273 0.0240621 0.0245686 0.0249467 0.0251964 0.0253099 0.0252794 0.025105 0.0247866 0.0243242 0.0237178 0.0229675 0.0220732 0.0210836 0.0200475 0.018965 0.0178359 0.0166604 0.0154383 0.0141698 0.0128548 0.0115491 0.0103085 0.00913316 0.00802294 0.00697787 0.00599797 0.00508322 0.00423363 0.00346014 0.00277368 0.00217427 0.0016619 0.00123656 0.000898267 0.00064701 0.000482792 0.000369638 0.000271571 0.000188591 0.000120698 6.78927e-05 3.01745e-05 7.54363e-06 0 0 -5.50935e-06 -2.20374e-05 -4.95842e-05 -8.81496e-05 -0.000137734 -0.000198337 -0.000269958 -0.000352599 -0.00042817 -0.000478584 -0.000503841 -0.000503942 -0.000478886 -0.000428672 -0.000353302 -0.000252775 -0.000123324 3.88184e-05 0.000233652 0.000461177 0.000721393 0.0010143 0.0013399 0.00169819 0.0020634 0.00240977 0.0027373 0.00304598 0.00333582 0.00360681 0.00385896 0.00409227 0.00428679 0.00442257 0.00449961 0.00451791 0.00447748 0.00437831 0.0042204 0.00400375 0.0037415 0.00344678 0.00311959 0.00275994 0.00236781 0.00194322 0.00148616 0.000996631 0.000516332 8.69589e-05 -0.000291488 -0.000619008 -0.000895601 -0.00112127 -0.00129601 -0.00141982 -0.00145651 -0.00136985 -0.00115987 -0.00082655 -0.000369896 0.000210093 0.000913416 0.00174007 0.00268208 0.00373144 0.00488816 0.00615223 0.00752367 0.00900246 0.0105886 0.0122821 0.0140191 0.0157356 0.0174317 0.0191074 0.0207626 0.0223973 0.0240117 0.0256056 0.0271054 0.0284376 0.0296021 0.0305989 0.0314281 0.0320896 0.0325834 0.0329095 0.0330578 0.033018 0.0327902 0.0323743 0.0317704 0.0309784 0.0299983 0.0288302 0.0275377 0.0261845 0.0247706 0.0232959 0.0217605 0.0201644 0.0185075 0.0167899 0.0150845 0.0134642 0.011929 0.0104789 0.00911396 0.00783408 0.00663931 0.00552964 0.00451936 0.00362277 0.00283987 0.00217064 0.0016151 0.00117325 0.000845074 0.000630586 0.000482792 0.000354705 0.000246323 0.000157647 8.86762e-05 3.94116e-05 9.85291e-06 0 0 -6.55214e-06 -2.62085e-05 -5.89692e-05 -0.000104834 -0.000163803 -0.000235877 -0.000321055 -0.000419337 -0.000507702 -0.000563131 -0.000585622 -0.000575177 -0.000531794 -0.000455474 -0.000346218 -0.000204024 -2.45618e-05 0.000196499 0.000459159 0.000763417 0.00110927 0.00149673 0.00192579 0.00239644 0.00287563 0.00333028 0.0037604 0.00416598 0.00454703 0.00490355 0.00523553 0.00554298 0.00580035 0.00598209 0.0060882 0.00611868 0.00607353 0.00595275 0.00575634 0.0054843 0.00515349 0.00478074 0.00436605 0.00390944 0.0034109 0.00287042 0.00228801 0.00166368 0.00105075 0.000502591 1.91939e-05 -0.000399441 -0.000753313 -0.00104242 -0.00126677 -0.00142635 -0.00147496 -0.0013664 -0.00110066 -0.000677745 -9.76519e-05 0.000639618 0.00153406 0.00258569 0.00378426 0.00511957 0.0065916 0.00820036 0.00994586 0.0118281 0.013847 0.0160027 0.0182137 0.0203986 0.0225573 0.0246899 0.0267964 0.0288768 0.0309311 0.0329592 0.0348675 0.0365622 0.0380432 0.0393107 0.0403645 0.0412048 0.0418314 0.0422445 0.0424308 0.0423774 0.0420842 0.0415512 0.0407785 0.0397659 0.0385136 0.0370215 0.0353706 0.0336417 0.0318348 0.02995 0.0279872 0.0259464 0.0238277 0.021631 0.0194492 0.0173751 0.0154087 0.01355 0.011799 0.0101558 0.00862019 0.00719234 0.00589097 0.00473484 0.00372395 0.00285831 0.00213791 0.00156276 0.00113285 0.000848179 0.000649387 0.000477101 0.00033132 0.000212045 0.000119275 5.30112e-05 1.32528e-05 0 0 -6.92581e-06 -2.77033e-05 -6.23323e-05 -0.000110813 -0.000173145 -0.000249329 -0.000339365 -0.000443252 -0.000532215 -0.00057748 -0.000579045 -0.000536911 -0.000451077 -0.000321545 -0.000148313 6.86179e-05 0.000333387 0.000650131 0.00101885 0.00143955 0.00191222 0.00243687 0.0030135 0.0036421 0.0042806 0.00488692 0.00546105 0.006003 0.00651277 0.00699036 0.00743576 0.00784898 0.00819764 0.00844937 0.00860416 0.00866202 0.00862294 0.00848693 0.00825398 0.0079241 0.0075187 0.00705922 0.00654565 0.00597799 0.00535625 0.00468042 0.0039505 0.00316649 0.00239585 0.00170601 0.00109698 0.000568763 0.000121353 -0.000245248 -0.000531041 -0.000736025 -0.000802086 -0.000671112 -0.000343101 0.000181945 0.000904028 0.00182315 0.0029393 0.00425249 0.00574978 0.00741824 0.00925786 0.0112686 0.0134506 0.0158037 0.018328 0.0210234 0.023788 0.0265196 0.0292182 0.0318839 0.0345167 0.0371165 0.0396834 0.0422173 0.044601 0.0467171 0.0485656 0.0501465 0.0514599 0.0525057 0.0532839 0.0537946 0.054021 0.0539465 0.0535711 0.0528947 0.0519175 0.0506393 0.0490603 0.0471803 0.0451002 0.0429208 0.0406421 0.0382642 0.0357869 0.0332103 0.0305344 0.0277593 0.0250009 0.0223755 0.0198831 0.0175237 0.0152972 0.0132037 0.0112432 0.00941565 0.00774611 0.00625965 0.00495628 0.00383599 0.00289878 0.00214466 0.00157362 0.00118566 0.000907774 0.000666936 0.00046315 0.000296416 0.000166734 7.4104e-05 1.8526e-05 0 0 -6.63038e-06 -2.65215e-05 -5.96735e-05 -0.000106086 -0.00016576 -0.000238694 -0.000324889 -0.000424345 -0.000501709 -0.00052163 -0.000484108 -0.000389143 -0.000236735 -2.68833e-05 0.000240412 0.00056515 0.000950521 0.00139972 0.00191273 0.00248957 0.00313024 0.00383473 0.00460304 0.00543517 0.00627832 0.00707968 0.00783925 0.00855704 0.00923303 0.00986723 0.0104596 0.0110103 0.0114787 0.0118244 0.0120475 0.0121479 0.0121257 0.0119808 0.0117133 0.0113231 0.0108371 0.0102822 0.00965837 0.00896559 0.00820386 0.0073732 0.00647361 0.00550508 0.00455161 0.00369721 0.00294188 0.0022856 0.0017284 0.00127025 0.000911171 0.000651155 0.000562128 0.000716013 0.00111281 0.00175252 0.00263514 0.00376068 0.00512913 0.00674049 0.00857864 0.0106274 0.0128869 0.0153571 0.0180379 0.0209293 0.0240314 0.0273442 0.0307419 0.0340986 0.0374145 0.0406894 0.0439234 0.0471164 0.0502686 0.0533798 0.0563059 0.0589023 0.0611691 0.0631064 0.0647141 0.0659923 0.0669408 0.0675598 0.0678283 0.0677253 0.0672508 0.0664049 0.0651875 0.0635986 0.0616383 0.0593065 0.0567266 0.054022 0.0511926 0.0482385 0.0451597 0.0419561 0.0386278 0.0351747 0.0317397 0.0284656 0.0253524 0.0224001 0.0196086 0.016978 0.0145083 0.0121995 0.0100848 0.00819721 0.00653685 0.00510369 0.00389772 0.00291896 0.0021674 0.00164304 0.00125795 0.000924211 0.000641813 0.00041076 0.000231053 0.00010269 2.56725e-05 0 0 -5.66585e-06 -2.26634e-05 -5.09926e-05 -9.06536e-05 -0.000141646 -0.000203971 -0.000277627 -0.000362614 -0.000416183 -0.000395583 -0.000300814 -0.000131875 0.000111233 0.00042851 0.000819956 0.00128557 0.00182684 0.00244525 0.0031408 0.00391349 0.00476332 0.00569029 0.0066944 0.00777565 0.00886879 0.00990858 0.010895 0.0118281 0.0127078 0.0135342 0.0143072 0.0150268 0.0156434 0.0161072 0.0164182 0.0165764 0.0165819 0.0164345 0.0161343 0.0156814 0.0151088 0.0144498 0.0137042 0.0128722 0.0119537 0.0109488 0.00985735 0.00867944 0.00751806 0.0064762 0.00555388 0.00475108 0.00406782 0.00350408 0.00305987 0.00273519 0.00261768 0.00279497 0.00326707 0.00403398 0.00509569 0.00645221 0.00810354 0.0100497 0.0122708 0.0147472 0.0174788 0.0204656 0.0237077 0.0272049 0.0309574 0.0349652 0.0390755 0.0431358 0.047146 0.0511062 0.0550164 0.0588766 0.0626868 0.0664469 0.0699822 0.0731178 0.0758539 0.0781904 0.0801272 0.0816645 0.0828021 0.0835402 0.0838527 0.0837138 0.0831234 0.0820817 0.0805884 0.0786438 0.0762477 0.0734002 0.0702499 0.0669452 0.0634863 0.0598731 0.0561056 0.0521838 0.0481077 0.0438774 0.0396656 0.0356453 0.0318165 0.0281791 0.0247331 0.0214786 0.0184156 0.015544 0.012907 0.0105475 0.00846566 0.0066614 0.00513473 0.00388566 0.00291419 0.00222031 0.00169993 0.00124892 0.000867309 0.000555078 0.000312231 0.000138769 3.46924e-05 0 0 -4.03221e-06 -1.61288e-05 -3.62898e-05 -6.45153e-05 -0.000100805 -0.000145159 -0.000197578 -0.000258061 -0.000275638 -0.000199337 -2.916e-05 0.000234895 0.000592826 0.00104464 0.00159032 0.00222988 0.00296235 0.00378674 0.00470306 0.0057113 0.00681147 0.00800357 0.00928759 0.0106635 0.012052 0.0133736 0.0146283 0.0158162 0.0169371 0.0179912 0.0189784 0.0198987 0.0206919 0.0212978 0.0217163 0.0219475 0.0219914 0.0218479 0.0215171 0.0209989 0.0203337 0.0195618 0.0186832 0.0176979 0.0166059 0.0154072 0.0141017 0.0126896 0.0112952 0.010043 0.00893299 0.0079652 0.00713961 0.00645623 0.00591505 0.00551608 0.00536456 0.00556577 0.00611969 0.00702633 0.00828568 0.00989775 0.0118625 0.0141801 0.0168263 0.0197775 0.0230335 0.0265943 0.03046 0.0346306 0.0391059 0.0438862 0.0487887 0.053631 0.0584129 0.0631346 0.0677959 0.072397 0.0769378 0.0814183 0.0856299 0.0893637 0.0926199 0.0953984 0.0976993 0.0995224 0.100868 0.101736 0.102094 0.101912 0.101189 0.099925 0.0981204 0.0957748 0.0928885 0.0894614 0.0856699 0.0816904 0.0775231 0.0731678 0.0686245 0.0638934 0.0589743 0.0538672 0.0487786 0.0439146 0.0392753 0.0348607 0.0306708 0.0267056 0.022965 0.0194491 0.0162127 0.0133106 0.0107427 0.00850912 0.0066098 0.00504475 0.00381398 0.00291747 0.00223369 0.00164108 0.00113964 0.000729368 0.00041027 0.000182342 4.55855e-05 0 0 -1.72946e-06 -6.91782e-06 -1.55651e-05 -2.76713e-05 -4.32364e-05 -6.22604e-05 -8.47433e-05 -0.000110685 -8.00729e-05 6.71062e-05 0.000330852 0.000711165 0.00120805 0.00182149 0.00255151 0.00339809 0.00435704 0.00542418 0.0065995 0.007883 0.00927469 0.0107746 0.0123826 0.0140988 0.015828 0.0174748 0.0190392 0.0205212 0.0219209 0.0232383 0.0244732 0.0256258 0.0266241 0.0273961 0.0279418 0.0282612 0.0283542 0.028221 0.0278615 0.0272756 0.0265118 0.0256184 0.0245953 0.0234426 0.0221603 0.0207483 0.0192067 0.0175355 0.015883 0.0143975 0.0130792 0.011928 0.0109438 0.0101267 0.00947672 0.00899382 0.00880279 0.0090284 0.00967065 0.0107296 0.0122051 0.0140973 0.0164061 0.0191316 0.0222452 0.0257183 0.029551 0.0337432 0.0382949 0.0432062 0.048477 0.0541073 0.0598816 0.0655842 0.0712151 0.0767743 0.0822618 0.0876777 0.0930218 0.0982943 0.103249 0.10764 0.111467 0.114731 0.11743 0.119566 0.121138 0.122146 0.122553 0.12232 0.121447 0.119935 0.117783 0.114992 0.111561 0.10749 0.102987 0.0982577 0.093303 0.0881226 0.0827166 0.0770848 0.0712274 0.0651443 0.0590786 0.0532736 0.047729 0.0424451 0.0374216 0.0326588 0.0281565 0.0239148 0.020002 0.0164864 0.013368 0.0106469 0.00832294 0.00639624 0.00486677 0.00373453 0.00285925 0.00210067 0.0014588 0.000933632 0.000525168 0.000233408 5.8352e-05 0 0 1.2424e-06 4.96961e-06 1.11816e-05 1.98784e-05 3.106e-05 4.47265e-05 6.08777e-05 7.95137e-05 0.000170511 0.000403748 0.000779223 0.00129694 0.00195689 0.00275908 0.00370351 0.00479018 0.00601092 0.00735757 0.00883013 0.0104286 0.012153 0.0140033 0.0159794 0.0180815 0.0201967 0.0222121 0.0241276 0.0259433 0.0276593 0.0292754 0.0307918 0.0322083 0.0334401 0.0344022 0.0350946 0.0355174 0.0356705 0.0355538 0.0351676 0.0345116 0.0336432 0.0326195 0.0314406 0.0301064 0.028617 0.0269723 0.0251723 0.0232172 0.0212814 0.0195399 0.0179925 0.0166393 0.0154803 0.0145155 0.0137449 0.0131684 0.0129323 0.0131829 0.01392 0.0151437 0.016854 0.0190508 0.0217343 0.0249044 0.0285274 0.0325697 0.0370313 0.0419122 0.0472123 0.0529318 0.0590706 0.0656286 0.0723542 0.0789955 0.0855527 0.0920255 0.0984142 0.104719 0.110939 0.117075 0.12284 0.127947 0.132396 0.136187 0.13932 0.141795 0.143613 0.144772 0.145229 0.144938 0.143899 0.142112 0.139577 0.136295 0.132264 0.127486 0.1222 0.116647 0.110826 0.104738 0.0983817 0.0917582 0.0848671 0.0777086 0.0705658 0.0637221 0.0571775 0.050932 0.0449856 0.0393383 0.0339902 0.0289411 0.0242748 0.0200749 0.0163415 0.0130746 0.0102741 0.00794013 0.00607257 0.00467147 0.0035766 0.0026277 0.00182479 0.00116787 0.000656926 0.000291967 7.29918e-05 0 0 4.88337e-06 1.95335e-05 4.39503e-05 7.81338e-05 0.000122084 0.000175801 0.000239285 0.000312535 0.000476115 0.000810588 0.00131595 0.00199221 0.00283936 0.0038574 0.00504634 0.00640616 0.00792399 0.00958692 0.0113949 0.0133481 0.0154463 0.0176897 0.0200781 0.0226117 0.0251582 0.0275855 0.0298936 0.0320825 0.0341521 0.0361026 0.0379339 0.039646 0.0411398 0.042316 0.0431748 0.0437162 0.04394 0.0438464 0.0434354 0.0427068 0.0417278 0.0405651 0.039219 0.0376892 0.0359759 0.034079 0.0319986 0.0297346 0.0274906 0.02547 0.023673 0.0220994 0.0207493 0.0196227 0.0187195 0.0180399 0.0177532 0.0180292 0.0188676 0.0202687 0.0222323 0.0247584 0.0278471 0.0314983 0.0356729 0.0403316 0.0454744 0.0511013 0.0572123 0.0638074 0.0708867 0.07845 0.0862064 0.0938649 0.101426 0.108888 0.116253 0.12352 0.130689 0.13776 0.144402 0.150283 0.155405 0.159767 0.163369 0.16621 0.168292 0.169613 0.170122 0.169765 0.168543 0.166455 0.163502 0.159683 0.154999 0.14945 0.143311 0.136858 0.130092 0.123013 0.11562 0.107913 0.0998934 0.09156 0.08324 0.0752602 0.0676208 0.0603216 0.0533628 0.0467442 0.0404659 0.034528 0.0290311 0.0240762 0.0196633 0.0157924 0.0124634 0.00967641 0.00743138 0.00572831 0.00438574 0.00322218 0.00223762 0.00143208 0.000805544 0.00035802 8.95049e-05 0 0 9.71748e-06 3.88699e-05 8.74573e-05 0.00015548 0.000242937 0.000349829 0.000476157 0.000621919 0.000879154 0.0013399 0.00200416 0.00287193 0.0039432 0.005218 0.0066963 0.00837811 0.0102446 0.0122767 0.0144747 0.0168384 0.0193678 0.022063 0.024924 0.0279507 0.0309897 0.0338876 0.0366444 0.0392601 0.0417347 0.0440681 0.0462605 0.0483117 0.0501071 0.051532 0.0525864 0.0532703 0.0535837 0.0535266 0.0530989 0.0523008 0.0512097 0.0499031 0.048381 0.0466433 0.0446901 0.0425215 0.0401373 0.0375376 0.034957 0.0326303 0.0305575 0.0287385 0.0271733 0.025862 0.0248045 0.0240008 0.0236456 0.0239335 0.0248645 0.0264385 0.0286555 0.0315157 0.0350189 0.0391652 0.0439093 0.0492061 0.0550556 0.0614577 0.0684125 0.07592 0.0839801 0.0925929 0.101426 0.110146 0.118755 0.127251 0.135634 0.143905 0.152064 0.160111 0.167667 0.174357 0.18018 0.185135 0.189223 0.192444 0.194798 0.196285 0.196844 0.196413 0.194994 0.192584 0.189186 0.184798 0.179421 0.173054 0.166012 0.158606 0.150836 0.142704 0.134208 0.125348 0.116126 0.10654 0.0969636 0.0877698 0.0789585 0.0705297 0.0624834 0.0548196 0.0475384 0.0406396 0.0342435 0.02847 0.0233192 0.018791 0.0148855 0.0116026 0.00894239 0.00690485 0.00528653 0.00388398 0.00269721 0.00172621 0.000970995 0.000431553 0.000107888 0 0 1.62688e-05 6.50752e-05 0.000146419 0.000260301 0.00040672 0.000585677 0.000797171 0.0010412 0.00142204 0.00204396 0.00290695 0.00401103 0.00535618 0.0069424 0.00876971 0.0108381 0.0131209 0.0155916 0.0182501 0.0210965 0.0241306 0.0273527 0.0307625 0.0343602 0.0379688 0.0414112 0.0446876 0.0477978 0.050742 0.0535201 0.056132 0.0585779 0.0607259 0.0624443 0.0637332 0.0645924 0.065022 0.065022 0.0645924 0.0637332 0.0625332 0.0610812 0.059377 0.0574209 0.0552127 0.0527525 0.0500402 0.0470758 0.0441275 0.0414633 0.0390832 0.0369871 0.0351752 0.0336474 0.0324036 0.031444 0.0309897 0.0312621 0.0322612 0.0339869 0.0364393 0.0396184 0.0435241 0.0481565 0.0534641 0.0593953 0.0659501 0.0731285 0.0809306 0.0893563 0.0984056 0.108079 0.118 0.127794 0.137461 0.147001 0.156414 0.1657 0.174858 0.18389 0.19237 0.199874 0.206403 0.211955 0.216531 0.220132 0.222757 0.224405 0.225008 0.224494 0.222865 0.220119 0.216257 0.211279 0.205185 0.197974 0.189997 0.181604 0.172793 0.163566 0.153922 0.143861 0.133384 0.122489 0.111599 0.101132 0.0910901 0.0814719 0.0722778 0.0635079 0.055162 0.0472403 0.0398844 0.0332359 0.0272949 0.0220612 0.017535 0.0137162 0.0106048 0.0082009 0.00627881 0.00461301 0.00320348 0.00205022 0.00115325 0.000512556 0.000128139 0 0 2.45373e-05 9.81492e-05 0.000220836 0.000392597 0.000613433 0.000883343 0.00120233 0.00157039 0.00210478 0.00292277 0.00402434 0.00540951 0.00707827 0.00903063 0.0112666 0.0137861 0.0165531 0.0195315 0.0227212 0.0261223 0.0297347 0.0335585 0.0375936 0.0418401 0.0460952 0.0501562 0.054023 0.0576956 0.0611741 0.0644585 0.0675487 0.0704447 0.0729963 0.0750531 0.0766152 0.0776825 0.078255 0.0783328 0.0779158 0.077004 0.0756982 0.0740993 0.0722072 0.070022 0.0675436 0.064772 0.0617073 0.0583493 0.055002 0.0519688 0.0492499 0.0468453 0.0447549 0.0429788 0.0415169 0.0403693 0.0397855 0.040015 0.0410579 0.0429141 0.0455836 0.0490666 0.0533628 0.0584725 0.0643373 0.0708991 0.0781579 0.0861137 0.0947666 0.104116 0.114163 0.124907 0.135929 0.146808 0.157545 0.16814 0.178592 0.188903 0.199071 0.209097 0.218509 0.226835 0.234074 0.240227 0.245293 0.249273 0.252166 0.253973 0.254613 0.254008 0.252157 0.249059 0.244716 0.239126 0.23229 0.224209 0.215267 0.205852 0.195963 0.1856 0.174763 0.163452 0.151667 0.139409 0.127146 0.115348 0.104016 0.0931483 0.0827461 0.0728089 0.0633369 0.0543301 0.0459539 0.038374 0.0315904 0.0256031 0.020412 0.0160172 0.0124187 0.00961646 0.0073626 0.00540926 0.00375643 0.00240411 0.00135231 0.000601029 0.000150257 0 0 3.4523e-05 0.000138092 0.000310707 0.000552368 0.000863076 0.00124283 0.00169163 0.00220947 0.00292737 0.00397632 0.00535632 0.00706738 0.0091095 0.0114827 0.0141869 0.0172222 0.0205411 0.0240964 0.027888 0.0319159 0.0361801 0.0406806 0.0454174 0.0503905 0.0553692 0.0601225 0.0646506 0.0689535 0.073031 0.0768833 0.0805104 0.0839121 0.0869182 0.0893583 0.0912325 0.0925406 0.0932827 0.0934588 0.093069 0.0921131 0.0907048 0.0889576 0.0868715 0.0844466 0.0816828 0.0785801 0.0751386 0.0713581 0.0675804 0.064147 0.0610579 0.058313 0.0559125 0.0538563 0.0521444 0.0507768 0.0500329 0.0501921 0.0512545 0.0532199 0.0560885 0.0598602 0.064535 0.0701129 0.0765288 0.0837175 0.091679 0.100413 0.10992 0.1202 0.131253 0.143079 0.155212 0.167188 0.179006 0.190666 0.202169 0.213515 0.224703 0.235733 0.246085 0.255239 0.263194 0.26995 0.275507 0.279866 0.283026 0.284988 0.28566 0.284954 0.282869 0.279405 0.274562 0.268339 0.260738 0.251758 0.241822 0.231351 0.220345 0.208804 0.19673 0.18412 0.170976 0.157298 0.143605 0.130417 0.117735 0.105559 0.0938881 0.0827228 0.0720631 0.0619088 0.052452 0.0438843 0.0362059 0.0294166 0.0235165 0.0185057 0.014384 0.0111515 0.00853788 0.00627273 0.00435606 0.00278788 0.00156818 0.00069697 0.000174243 0 0 4.62259e-05 0.000184904 0.000416033 0.000739615 0.00115565 0.00166413 0.00226507 0.00295846 0.00388981 0.00520462 0.0069029 0.00898464 0.0114498 0.0142985 0.0175307 0.0211463 0.0250849 0.0292863 0.0337504 0.0384772 0.0434667 0.0487189 0.0542338 0.0600113 0.0657905 0.0713103 0.0765706 0.0815714 0.0863128 0.0907947 0.0950171 0.0989801 0.102492 0.10536 0.107585 0.109167 0.110105 0.1104 0.110052 0.109061 0.107553 0.105656 0.10337 0.100695 0.0976304 0.0941768 0.0903341 0.0861022 0.0818628 0.0779977 0.0745069 0.0713903 0.068648 0.0662799 0.064286 0.0626665 0.061732 0.0617935 0.062851 0.0649044 0.0679539 0.0719993 0.0770406 0.083078 0.0900388 0.0978506 0.106513 0.116027 0.126392 0.137608 0.149675 0.162593 0.17585 0.188933 0.201844 0.214581 0.227145 0.239535 0.251753 0.263797 0.275098 0.285086 0.293762 0.301125 0.307175 0.311913 0.315338 0.31745 0.318149 0.317333 0.315002 0.311156 0.305795 0.298919 0.290528 0.280623 0.269661 0.2581 0.24594 0.233181 0.219823 0.205866 0.191311 0.176156 0.160975 0.146339 0.132249 0.118704 0.105704 0.0932495 0.0813404 0.0699766 0.0593786 0.0497668 0.0411412 0.0335018 0.0268486 0.0211815 0.0165007 0.0128061 0.00980467 0.00720343 0.00500238 0.00320152 0.00180086 0.000800381 0.000200095 0 0 5.9646e-05 0.000238584 0.000536814 0.000954337 0.00149115 0.00214726 0.00292266 0.00381735 0.0049921 0.00660767 0.00866406 0.0111613 0.0140993 0.0174782 0.0212979 0.0255584 0.0301846 0.0351013 0.0403085 0.0458063 0.0515946 0.0576734 0.0640427 0.0707026 0.0773594 0.0837194 0.0897828 0.0955494 0.101019 0.106192 0.111069 0.115649 0.119717 0.123058 0.125673 0.127561 0.128722 0.129157 0.128865 0.127846 0.126243 0.124195 0.121702 0.118766 0.115386 0.111562 0.107294 0.102582 0.0978492 0.0935211 0.089597 0.0860771 0.0829612 0.0802495 0.0779418 0.0760383 0.0748828 0.0748192 0.0758474 0.0779676 0.0811798 0.0854838 0.0908797 0.0973675 0.104867 0.113298 0.122661 0.132956 0.144182 0.15634 0.169429 0.18345 0.197843 0.212046 0.226059 0.239884 0.253519 0.266965 0.280221 0.293288 0.305547 0.