<?xml version="1.0"?> 
<VTKFile type="StructuredGrid" version="0.1"> 
<StructuredGrid WholeExtent="0 128 0 128 0 0"> 
<Piece Extent="0 128 0 128 0 0"> 
<PointData>
<DataArray type="Float32" Name="u" format="ascii" NumberOfComponents="1"> 
0 0 0 0 0 0 0 0 0 0 0 0 0 0 0 0 0 0 0 0 0 0 0 0 0 0 0 0 0 0 0 0 0 0 0 0 0 0 0 0 0 0 0 0 0 0 0 0 0 0 0 0 0 0 0 0 0 0 0 0 0 0 0 0 0 0 0 0 0 0 0 0 0 0 0 0 0 0 0 0 0 0 0 0 0 0 0 0 0 0 0 0 0 0 0 0 0 0 0 0 0 0 0 0 0 0 0 0 0 0 0 0 0 0 0 0 0 0 0 0 0 0 0 0 0 0 0 0 0 0 1.41274e-07 5.65097e-07 1.27147e-06 2.26039e-06 3.53186e-06 5.08587e-06 6.92244e-06 9.04155e-06 1.09669e-05 1.22221e-05 1.28073e-05 1.27224e-05 1.19674e-05 1.05422e-05 8.44703e-06 5.68173e-06 2.29694e-06 -1.65676e-06 -6.17935e-06 -1.12709e-05 -1.69312e-05 -2.31605e-05 -2.99587e-05 -3.73258e-05 -4.4783e-05 -5.18512e-05 -5.85307e-05 -6.48212e-05 -7.0723e-05 -7.62359e-05 -8.13599e-05 -8.60951e-05 -9.03301e-05 -9.39538e-05 -9.69661e-05 -9.93669e-05 -0.000101156 -0.000102335 -0.000102901 -0.000102857 -0.000102125 -0.000100633 -9.83784e-05 -9.53626e-05 -9.15852e-05 -8.70462e-05 -8.17457e-05 -7.56837e-05 -6.96069e-05 -6.42625e-05 -5.96503e-05 -5.57705e-05 -5.26228e-05 -5.02075e-05 -4.85244e-05 -4.75736e-05 -4.78755e-05 -4.99503e-05 -5.37981e-05 -5.94188e-05 -6.68126e-05 -7.59793e-05 -8.69189e-05 -9.96316e-05 -0.000113608 -0.000128338 -0.000143822 -0.00016006 -0.000177052 -0.000194798 -0.000213298 -0.000232552 -0.000252268 -0.000272157 -0.000292218 -0.000312451 -0.000332855 -0.000353432 -0.000374181 -0.000395101 -0.000414774 -0.000431779 -0.000446116 -0.000457785 -0.000466786 -0.000473119 -0.000476784 -0.000477781 -0.000476204 -0.000472147 -0.00046561 -0.000456592 -0.000445095 -0.000431116 -0.000414658 -0.00039572 -0.000375686 -0.000355944 -0.000336493 -0.000317332 -0.000298463 -0.000279885 -0.000261597 -0.000243601 -0.000225866 -0.000208365 -0.000191096 -0.00017406 -0.000157257 -0.000140687 -0.00012435 -0.000108246 -9.29111e-05 -7.88828e-05 -6.61609e-05 -5.47454e-05 -4.46363e-05 -3.58335e-05 -2.83371e-05 -2.21472e-05 -1.69564e-05 -1.24578e-05 -8.65124e-06 -5.53679e-06 -3.11444e-06 -1.3842e-06 -3.46049e-07 0 0 5.65097e-07 2.26039e-06 5.08587e-06 9.04155e-06 1.41274e-05 2.03435e-05 2.76898e-05 3.61662e-05 4.38676e-05 4.88886e-05 5.12292e-05 5.08895e-05 4.78694e-05 4.2169e-05 3.37881e-05 2.27269e-05 9.18775e-06 -6.62703e-06 -2.47174e-05 -4.50834e-05 -6.7725e-05 -9.26422e-05 -0.000119835 -0.000149303 -0.000179132 -0.000207405 -0.000234123 -0.000259285 -0.000282892 -0.000304943 -0.00032544 -0.00034438 -0.00036132 -0.000375815 -0.000387864 -0.000397468 -0.000404626 -0.000409338 -0.000411605 -0.000411426 -0.000408502 -0.000402531 -0.000393514 -0.00038145 -0.000366341 -0.000348185 -0.000326983 -0.000302735 -0.000278428 -0.00025705 -0.000238601 -0.000223082 -0.000210491 -0.00020083 -0.000194098 -0.000190295 -0.000191502 -0.000199801 -0.000215192 -0.000237675 -0.00026725 -0.000303917 -0.000347676 -0.000398526 -0.000454431 -0.000513351 -0.000575287 -0.000640239 -0.000708207 -0.000779191 -0.000853191 -0.000930206 -0.00100907 -0.00108863 -0.00116887 -0.0012498 -0.00133142 -0.00141373 -0.00149672 -0.00158041 -0.0016591 -0.00172712 -0.00178446 -0.00183114 -0.00186714 -0.00189248 -0.00190714 -0.00191112 -0.00190482 -0.00188859 -0.00186244 -0.00182637 -0.00178038 -0.00172447 -0.00165863 -0.00158288 -0.00150275 -0.00142378 -0.00134597 -0.00126933 -0.00119385 -0.00111954 -0.00104639 -0.000974404 -0.000903466 -0.000833459 -0.000764384 -0.000696241 -0.000629029 -0.000562749 -0.0004974 -0.000432983 -0.000371644 -0.000315531 -0.000264644 -0.000218982 -0.000178545 -0.000143334 -0.000113349 -8.85887e-05 -6.78257e-05 -4.98311e-05 -3.46049e-05 -2.21472e-05 -1.24578e-05 -5.53679e-06 -1.3842e-06 0 0 1.27147e-06 5.08587e-06 1.14432e-05 2.03435e-05 3.17867e-05 4.57729e-05 6.2302e-05 8.1374e-05 9.87021e-05 0.000109999 0.000115266 0.000114501 0.000107706 9.48801e-05 7.60233e-05 5.11356e-05 2.06724e-05 -1.49108e-05 -5.56142e-05 -0.000101438 -0.000152381 -0.000208445 -0.000269629 -0.000335933 -0.000403047 -0.000466661 -0.000526776 -0.000583391 -0.000636507 -0.000686123 -0.000732239 -0.000774856 -0.000812971 -0.000845584 -0.000872695 -0.000894302 -0.000910408 -0.000921011 -0.000926111 -0.000925709 -0.000919129 -0.000905694 -0.000885406 -0.000858263 -0.000824267 -0.000783416 -0.000735712 -0.000681153 -0.000626463 -0.000578363 -0.000536853 -0.000501934 -0.000473606 -0.000451868 -0.00043672 -0.000428163 -0.000430879 -0.000449553 -0.000484183 -0.000534769 -0.000601313 -0.000683813 -0.00078227 -0.000896684 -0.00102247 -0.00115504 -0.0012944 -0.00144054 -0.00159347 -0.00175318 -0.00191968 -0.00209296 -0.00227042 -0.00244941 -0.00262996 -0.00281206 -0.0029957 -0.00318089 -0.00336763 -0.00355591 -0.00373297 -0.00388601 -0.00401504 -0.00412006 -0.00420107 -0.00425807 -0.00429106 -0.00430003 -0.00428584 -0.00424933 -0.00419049 -0.00410933 -0.00400585 -0.00388005 -0.00373192 -0.00356148 -0.00338118 -0.0032035 -0.00302843 -0.00285599 -0.00268617 -0.00251896 -0.00235438 -0.00219241 -0.0020328 -0.00187528 -0.00171986 -0.00156654 -0.00141532 -0.00126618 -0.00111915 -0.000974211 -0.0008362 -0.000709945 -0.000595448 -0.000492708 -0.000401726 -0.000322502 -0.000255034 -0.000199324 -0.000152608 -0.00011212 -7.78611e-05 -4.98311e-05 -2.803e-05 -1.24578e-05 -3.11444e-06 0 0 2.26039e-06 9.04155e-06 2.03435e-05 3.61662e-05 5.65097e-05 8.1374e-05 0.000110759 0.000144665 0.00017547 0.000195554 0.000204917 0.000203558 0.000191478 0.000168676 0.000135152 9.09077e-05 3.6751e-05 -2.65081e-05 -9.88697e-05 -0.000180334 -0.0002709 -0.000370569 -0.00047934 -0.000597214 -0.000716528 -0.00082962 -0.000936491 -0.00103714 -0.00113157 -0.00121977 -0.00130176 -0.00137752 -0.00144528 -0.00150326 -0.00155146 -0.00158987 -0.0016185 -0.00163735 -0.00164642 -0.0016457 -0.00163401 -0.00161012 -0.00157405 -0.0015258 -0.00146536 -0.00139274 -0.00130793 -0.00121094 -0.00111371 -0.0010282 -0.000954406 -0.000892327 -0.000841966 -0.00080332 -0.000776391 -0.000761178 -0.000766008 -0.000799205 -0.000860769 -0.000950701 -0.001069 -0.00121567 -0.0013907 -0.00159411 -0.00181772 -0.0020534 -0.00230115 -0.00256096 -0.00283283 -0.00311676 -0.00341276 -0.00372082 -0.00403629 -0.00435452 -0.00467549 -0.00499921 -0.00532569 -0.00565491 -0.00598689 -0.00632162 -0.00663639 -0.00690846 -0.00713785 -0.00732455 -0.00746857 -0.0075699 -0.00762854 -0.0076445 -0.00761927 -0.00755436 -0.00744976 -0.00730548 -0.00712151 -0.00689786 -0.00663453 -0.00633151 -0.00601098 -0.0056951 -0.00538388 -0.00507732 -0.00477541 -0.00447816 -0.00418556 -0.00389761 -0.00361386 -0.00333384 -0.00305754 -0.00278496 -0.00251612 -0.00225099 -0.0019896 -0.00173193 -0.00148658 -0.00126212 -0.00105857 -0.000875926 -0.00071418 -0.000573336 -0.000453394 -0.000354355 -0.000271303 -0.000199324 -0.00013842 -8.85887e-05 -4.98311e-05 -2.21472e-05 -5.53679e-06 0 0 3.53186e-06 1.41274e-05 3.17867e-05 5.65097e-05 8.82964e-05 0.000127147 0.000173061 0.000226039 0.000274172 0.000305554 0.000320183 0.000318059 0.000299184 0.000263556 0.000211176 0.000142043 5.74235e-05 -4.14189e-05 -0.000154484 -0.000281771 -0.000423281 -0.000579014 -0.000748969 -0.000933146 -0.00111957 -0.00129628 -0.00146327 -0.00162053 -0.00176807 -0.0019059 -0.002034 -0.00215238 -0.00225825 -0.00234884 -0.00242415 -0.00248417 -0.00252891 -0.00255836 -0.00257253 -0.00257141 -0.00255314 -0.00251582 -0.00245946 -0.00238406 -0.00228963 -0.00217616 -0.00204364 -0.00189209 -0.00174017 -0.00160656 -0.00149126 -0.00139426 -0.00131557 -0.00125519 -0.00121311 -0.00118934 -0.00119689 -0.00124876 -0.00134495 -0.00148547 -0.00167031 -0.00189948 -0.00217297 -0.00249079 -0.00284019 -0.00320845 -0.00359555 -0.0040015 -0.0044263 -0.00486994 -0.00533244 -0.00581379 -0.00630671 -0.00680393 -0.00730545 -0.00781127 -0.00832139 -0.0088358 -0.00935452 -0.00987754 -0.0103694 -0.0107945 -0.0111529 -0.0114446 -0.0116696 -0.011828 -0.0119196 -0.0119445 -0.0119051 -0.0118037 -0.0116402 -0.0114148 -0.0111274 -0.0107779 -0.0103665 -0.00989299 -0.00939216 -0.0088986 -0.00841232 -0.00793331 -0.00746158 -0.00699712 -0.00653993 -0.00609002 -0.00564666 -0.00520912 -0.0047774 -0.00435151 -0.00393143 -0.00351718 -0.00310875 -0.00270614 -0.00232278 -0.00197207 -0.00165402 -0.00136863 -0.00111591 -0.000895838 -0.000708429 -0.000553679 -0.000423911 -0.000311444 -0.000216281 -0.00013842 -7.78611e-05 -3.46049e-05 -8.65124e-06 0 0 5.08587e-06 2.03435e-05 4.57729e-05 8.1374e-05 0.000127147 0.000183091 0.000249208 0.000325496 0.000394808 0.000439997 0.000461063 0.000458006 0.000430825 0.000379521 0.000304093 0.000204542 8.26898e-05 -5.96433e-05 -0.000222457 -0.000405751 -0.000609525 -0.00083378 -0.00107851 -0.00134373 -0.00161219 -0.00186664 -0.0021071 -0.00233356 -0.00254603 -0.00274449 -0.00292896 -0.00309942 -0.00325188 -0.00338234 -0.00349078 -0.00357721 -0.00364163 -0.00368404 -0.00370444 -0.00370284 -0.00367651 -0.00362278 -0.00354162 -0.00343305 -0.00329707 -0.00313366 -0.00294285 -0.00272461 -0.00250585 -0.00231345 -0.00214741 -0.00200774 -0.00189442 -0.00180747 -0.00174688 -0.00171265 -0.00172352 -0.00179821 -0.00193673 -0.00213908 -0.00240525 -0.00273525 -0.00312908 -0.00358674 -0.00408988 -0.00462016 -0.00517759 -0.00576216 -0.00637387 -0.00701272 -0.00767872 -0.00837186 -0.00908166 -0.00979766 -0.0105198 -0.0112482 -0.0119828 -0.0127236 -0.0134705 -0.0142237 -0.0149319 -0.015544 -0.0160602 -0.0164802 -0.0168043 -0.0170323 -0.0171642 -0.0172001 -0.0171434 -0.0169973 -0.016762 -0.0164373 -0.0160234 -0.0155202 -0.0149277 -0.0142459 -0.0135247 -0.012814 -0.0121137 -0.011424 -0.0107447 -0.0100758 -0.0094175 -0.00876963 -0.00813119 -0.00750113 -0.00687946 -0.00626617 -0.00566126 -0.00506474 -0.0044766 -0.00389685 -0.0033448 -0.00283978 -0.00238179 -0.00197083 -0.00160691 -0.00129001 -0.00102014 -0.000797298 -0.000610431 -0.00044848 -0.000311444 -0.000199324 -0.00011212 -4.98311e-05 -1.24578e-05 0 0 6.92244e-06 2.76898e-05 6.2302e-05 0.000110759 0.000173061 0.000249208 0.0003392 0.000443036 0.000537378 0.000598885 0.000627558 0.000623396 0.0005864 0.00051657 0.000413905 0.000278405 0.00011255 -8.11811e-05 -0.000302788 -0.000552272 -0.000829631 -0.00113487 -0.00146798 -0.00182897 -0.00219437 -0.00254071 -0.002868 -0.00317624 -0.00346543 -0.00373556 -0.00398663 -0.00421866 -0.00442618 -0.00460374 -0.00475134 -0.00486898 -0.00495667 -0.00501439 -0.00504216 -0.00503997 -0.00500414 -0.004931 -0.00482054 -0.00467277 -0.00448767 -0.00426527 -0.00400554 -0.0037085 -0.00341074 -0.00314886 -0.00292287 -0.00273275 -0.00257852 -0.00246017 -0.0023777 -0.00233111 -0.0023459 -0.00244756 -0.00263611 -0.00291152 -0.00327382 -0.00372298 -0.00425903 -0.00488195 -0.00556678 -0.00628855 -0.00704727 -0.00784293 -0.00867554 -0.00954509 -0.0104516 -0.011395 -0.0123612 -0.0133357 -0.0143187 -0.0153101 -0.0163099 -0.0173182 -0.0183349 -0.01936 -0.0203239 -0.0211572 -0.0218597 -0.0224314 -0.0228725 -0.0231828 -0.0233624 -0.0234113 -0.023334 -0.0231352 -0.0228149 -0.022373 -0.0218096 -0.0211247 -0.0203182 -0.0193903 -0.0184086 -0.0174413 -0.0164881 -0.0155493 -0.0146247 -0.0137144 -0.0128183 -0.0119364 -0.0110675 -0.0102099 -0.00936371 -0.00852895 -0.00770561 -0.00689367 -0.00609315 -0.00530404 -0.00455264 -0.00386526 -0.00324188 -0.00268252 -0.00218718 -0.00175584 -0.00138852 -0.00108521 -0.000830865 -0.000610431 -0.000423911 -0.000271303 -0.000152608 -6.78257e-05 -1.69564e-05 0 0 9.04155e-06 3.61662e-05 8.1374e-05 0.000144665 0.000226039 0.000325496 0.000443036 0.00057866 0.000701881 0.000782218 0.000819668 0.000814232 0.000765911 0.000674703 0.00054061 0.000363631 0.000147004 -0.000106032 -0.000395479 -0.000721334 -0.0010836 -0.00148227 -0.00191736 -0.00238885 -0.00286611 -0.00331848 -0.00374596 -0.00414856 -0.00452627 -0.00487909 -0.00520703 -0.00551008 -0.00578113 -0.00601304 -0.00620583 -0.00635948 -0.00647401 -0.00654941 -0.00658568 -0.00658282 -0.00653603 -0.00644049 -0.00629622 -0.00610321 -0.00586145 -0.00557096 -0.00523173 -0.00484375 -0.00445484 -0.0041128 -0.00381762 -0.00356931 -0.00336786 -0.00321328 -0.00310556 -0.00304471 -0.00306403 -0.00319682 -0.00344308 -0.0038028 -0.004276 -0.00486267 -0.00556281 -0.00637642 -0.00727089 -0.00821362 -0.0092046 -0.0102438 -0.0113313 -0.0124671 -0.0136511 -0.0148833 -0.0161452 -0.0174181 -0.018702 -0.0199968 -0.0213027 -0.0226197 -0.0239476 -0.0252865 -0.0265455 -0.0276338 -0.0285514 -0.0292982 -0.0298743 -0.0302796 -0.0305142 -0.030578 -0.0304771 -0.0302174 -0.029799 -0.0292219 -0.0284861 -0.0275915 -0.0265381 -0.025326 -0.0240439 -0.0227804 -0.0215355 -0.0203093 -0.0191016 -0.0179126 -0.0167422 -0.0155905 -0.0144554 -0.0133353 -0.0122301 -0.0111399 -0.0100645 -0.00900398 -0.0079584 -0.00692773 -0.00594631 -0.0050485 -0.0042343 -0.0035037 -0.00285672 -0.00229334 -0.00181358 -0.00141742 -0.00108521 -0.000797298 -0.000553679 -0.000354355 -0.000199324 -8.85887e-05 -2.21472e-05 0 0 1.07204e-05 4.28814e-05 9.64832e-05 0.000171526 0.000268009 0.000385933 0.000525297 0.000686102 0.000830721 0.000921523 0.000958511 0.000941684 0.000871041 0.000746583 0.000568311 0.000336223 5.47958e-05 -0.000271493 -0.000642645 -0.00105866 -0.00151954 -0.00202527 -0.00257588 -0.00317134 -0.00377419 -0.00434697 -0.00488967 -0.00540228 -0.00588482 -0.00633727 -0.00675965 -0.00715195 -0.00750369 -0.0078044 -0.00805407 -0.00825272 -0.00840033 -0.00849691 -0.00854246 -0.00853698 -0.00847528 -0.0083522 -0.00816772 -0.00792185 -0.00761459 -0.00724594 -0.00681589 -0.00632445 -0.00583226 -0.00539993 -0.00502748 -0.0047149 -0.00446219 -0.00426935 -0.00413639 -0.00406329 -0.004085 -0.00423641 -0.00451755 -0.00492839 -0.00546896 -0.00613924 -0.00693923 -0.00786895 -0.00888851 -0.00995805 -0.0110776 -0.0122471 -0.0134666 -0.014736 -0.0160555 -0.0174249 -0.0188314 -0.0202621 -0.0217169 -0.023196 -0.0246992 -0.0262266 -0.0277782 -0.029354 -0.030841 -0.0321263 -0.0332099 -0.0340917 -0.0347718 -0.0352501 -0.0355267 -0.0356016 -0.0354822 -0.0351758 -0.0346824 -0.034002 -0.0331346 -0.0320803 -0.030839 -0.0294108 -0.0279053 -0.0264325 -0.0249922 -0.0235845 -0.0222094 -0.0208669 -0.019557 -0.0182797 -0.0170225 -0.0157728 -0.0145307 -0.0132962 -0.0120692 -0.0108498 -0.00963799 -0.00843374 -0.00727994 -0.00621944 -0.00525225 -0.00437838 -0.00359781 -0.00291055 -0.00231659 -0.00181595 -0.00139034 -0.00102147 -0.000709356 -0.000453988 -0.000255368 -0.000113497 -2.83742e-05 0 0 1.1236e-05 4.49439e-05 0.000101124 0.000179775 0.000280899 0.000404495 0.000550562 0.000719102 0.000866297 0.000948332 0.000965207 0.000916923 0.000803478 0.000624873 0.000381107 7.21822e-05 -0.000295331 -0.00071486 -0.00118641 -0.00170997 -0.00228554 -0.00291314 -0.00359274 -0.00432437 -0.00506539 -0.0057732 -0.00644779 -0.00708916 -0.00769732 -0.00827226 -0.00881399 -0.00932249 -0.0097808 -0.0101719 -0.0104959 -0.0107527 -0.0109423 -0.0110647 -0.01112 -0.011108 -0.011025 -0.0108671 -0.0106341 -0.0103262 -0.00994327 -0.00948538 -0.00895251 -0.00834467 -0.00773706 -0.00720492 -0.00674823 -0.006367 -0.00606123 -0.00583092 -0.00567607 -0.00559668 -0.00561588 -0.00575679 -0.00601942 -0.00640376 -0.00690982 -0.0075376 -0.0082871 -0.00915831 -0.0101059 -0.0110845 -0.0120942 -0.0131349 -0.0142066 -0.0153093 -0.0164431 -0.017608 -0.0188174 -0.0200851 -0.0214109 -0.022795 -0.0242373 -0.0257378 -0.0272965 -0.0289134 -0.0304547 -0.0317868 -0.0329095 -0.0338229 -0.0345271 -0.0350219 -0.0353074 -0.0353836 -0.0352589 -0.034942 -0.0344328 -0.0337312 -0.0328374 -0.0317512 -0.0304728 -0.029002 -0.0274676 -0.0259985 -0.0245945 -0.0232557 -0.0219821 -0.0207736 -0.0196303 -0.0185522 -0.0174958 -0.0164174 -0.0153172 -0.0141951 -0.0130511 -0.0118853 -0.0106976 -0.00948793 -0.00830767 -0.00720802 -0.00618898 -0.00525054 -0.0043927 -0.00361548 -0.00291886 -0.00230284 -0.00176311 -0.00129535 -0.000899548 -0.000575711 -0.000323837 -0.000143928 -3.59819e-05 0 0 1.05884e-05 4.23536e-05 9.52955e-05 0.000169414 0.00026471 0.000381182 0.000518831 0.000677657 0.000808611 0.000862644 0.000839757 0.000739949 0.00056322 0.000309571 -2.09995e-05 -0.00042849 -0.000903376 -0.00143613 -0.00202676 -0.00267526 -0.00338162 -0.00414586 -0.00496797 -0.00584794 -0.00673971 -0.00759717 -0.00842034 -0.00920921 -0.00996379 -0.0106841 -0.01137 -0.0120217 -0.0126125 -0.0131157 -0.0135313 -0.0138594 -0.0140999 -0.0142528 -0.0143182 -0.014296 -0.0141853 -0.0139851 -0.0136954 -0.0133162 -0.0128475 -0.0122893 -0.0116416 -0.0109044 -0.0101693 -0.00952776 -0.00897988 -0.00852563 -0.008165 -0.007898 -0.00772462 -0.00764487 -0.00765667 -0.00775794 -0.00794869 -0.00822891 -0.0085986 -0.00905776 -0.0096064 -0.0102445 -0.0109231 -0.011593 -0.0122544 -0.0129072 -0.0135514 -0.0141871 -0.0148141 -0.0154326 -0.0161033 -0.0168871 -0.017784 -0.0187939 -0.019917 -0.0211531 -0.0225023 -0.0239646 -0.0253867 -0.0266153 -0.0276504 -0.028492 -0.0291402 -0.0295949 -0.029856 -0.0299238 -0.0298074 -0.0295162 -0.0290503 -0.0284097 -0.0275943 -0.0266042 -0.0254393 -0.0240996 -0.0227308 -0.0214784 -0.0203424 -0.0193227 -0.0184195 -0.0176326 -0.0169621 -0.016408 -0.0158754 -0.0152693 -0.0145898 -0.0138368 -0.0130103 -0.0121104 -0.0111371 -0.0100903 -0.00902951 -0.00801424 -0.00704446 -0.00612019 -0.00524141 -0.00440814 -0.00362037 -0.00287809 -0.00220354 -0.00161893 -0.00112425 -0.000719523 -0.000404732 -0.000179881 -4.49702e-05 0 0 8.77763e-06 3.51105e-05 7.89987e-05 0.000140442 0.000219441 0.000315995 0.000430104 0.000561769 0.000657662 0.000664459 0.000582159 0.000410762 0.000150268 -0.000199323 -0.00063801 -0.00116579 -0.00176934 -0.00243531 -0.00316371 -0.00395453 -0.00480777 -0.00572344 -0.00670154 -0.00774206 -0.00879713 -0.00981888 -0.0108073 -0.0117624 -0.0126842 -0.0135727 -0.0144278 -0.0152496 -0.0159987 -0.0166356 -0.0171603 -0.0175728 -0.0178731 -0.0180612 -0.0181372 -0.0181009 -0.0179561 -0.0177063 -0.0173516 -0.0168919 -0.0163273 -0.0156577 -0.0148832 -0.0140037 -0.0131289 -0.0123685 -0.0117224 -0.0111908 -0.0107735 -0.0104706 -0.010282 -0.0102079 -0.0102074 -0.0102399 -0.0103054 -0.0104038 -0.0105353 -0.0106997 -0.0108971 -0.0111275 -0.01134 -0.0114836 -0.0115583 -0.0115641 -0.0115011 -0.0113692 -0.0111684 -0.0108987 -0.010689 -0.0106681 -0.010836 -0.0111927 -0.0117382 -0.0124725 -0.0133956 -0.0145076 -0.0156368 -0.0166117 -0.0174324 -0.0180989 -0.0186111 -0.0189691 -0.0191728 -0.0192223 -0.0191275 -0.0188984 -0.018535 -0.0180373 -0.0174054 -0.0166391 -0.0157386 -0.0147038 -0.0136949 -0.0128723 -0.0122358 -0.0117856 -0.0115217 -0.0114439 -0.0115524 -0.0118471 -0.0121613 -0.0123284 -0.0123483 -0.0122211 -0.0119467 -0.0115252 -0.0109566 -0.0102408 -0.00944546 -0.00863809 -0.00781872 -0.00698733 -0.00614393 -0.00528853 -0.00442112 -0.0035417 -0.00271161 -0.00199221 -0.00138348 -0.000885425 -0.000498051 -0.000221356 -5.5339e-05 0 0 5.80369e-06 2.32148e-05 5.22332e-05 9.28591e-05 0.000145092 0.000208933 0.000284381 0.000371436 0.000413451 0.000353777 0.000192414 -7.06375e-05 -0.000435378 -0.000901807 -0.00146992 -0.00213973 -0.00289322 -0.00371239 -0.00459725 -0.00554778 -0.00656399 -0.00764589 -0.00879346 -0.0100067 -0.0112377 -0.0124383 -0.0136087 -0.0147488 -0.0158586 -0.0169381 -0.0179873 -0.0190062 -0.0199395 -0.0207317 -0.0213828 -0.0218929 -0.0222619 -0.0224899 -0.0225768 -0.0225227 -0.0223374 -0.0220307 -0.0216027 -0.0210533 -0.0203826 -0.0195906 -0.0186772 -0.0176424 -0.0166159 -0.015727 -0.0149759 -0.0143624 -0.0138867 -0.0135486 -0.0133483 -0.0132857 -0.013268 -0.0132026 -0.0130894 -0.0129285 -0.0127199 -0.0124635 -0.0121593 -0.0118074 -0.0113567 -0.0107562 -0.0100058 -0.00910559 -0.00805554 -0.00685564 -0.00550591 -0.00400633 -0.00257452 -0.00142809 -0.000567031 8.64768e-06 0.00029895 0.000303876 2.34253e-05 -0.000542402 -0.00120511 -0.00177621 -0.00225571 -0.00264359 -0.00293986 -0.00314453 -0.00325758 -0.00327902 -0.0032192 -0.00308844 -0.00288675 -0.00261413 -0.00227057 -0.00185609 -0.00137067 -0.000814318 -0.000359839 -0.000180035 -0.000274906 -0.000644452 -0.00128867 -0.00220757 -0.00340114 -0.00486939 -0.00635349 -0.00759464 -0.00859284 -0.00934809 -0.00986038 -0.0101297 -0.0101561 -0.00993952 -0.00955551 -0.00907958 -0.00851173 -0.00785196 -0.00710027 -0.00625665 -0.00532112 -0.00429366 -0.00328734 -0.00241519 -0.00167721 -0.00107342 -0.000603796 -0.000268354 -6.70885e-05 0 0 1.66656e-06 6.66626e-06 1.49991e-05 2.6665e-05 4.16641e-05 5.99963e-05 8.16616e-05 0.00010666 7.5977e-05 -6.94023e-05 -0.000329478 -0.00070425 -0.00119372 -0.00179788 -0.00251674 -0.0033503 -0.00427502 -0.00526738 -0.00632738 -0.00745502 -0.00865029 -0.0099132 -0.0112437 -0.0126419 -0.0140613 -0.0154555 -0.0168245 -0.0181683 -0.0194869 -0.0207803 -0.0220485 -0.0232915 -0.0244348 -0.025404 -0.026199 -0.0268198 -0.0272664 -0.0275389 -0.0276373 -0.0275614 -0.0273292 -0.0269582 -0.0264486 -0.0258004 -0.0250135 -0.0240879 -0.0230236 -0.0218207 -0.0206303 -0.0196035 -0.0187402 -0.0180406 -0.0175046 -0.0171322 -0.0169234 -0.0168783 -0.0168385 -0.0166461 -0.0163009 -0.015803 -0.0151524 -0.014349 -0.0133929 -0.0122841 -0.0109732 -0.00941083 -0.00759696 -0.00553162 -0.0032148 -0.000646502 0.00217327 0.00524453 0.00824012 0.0108329 0.0130229 0.0148101 0.0161945 0.0171761 0.0177549 0.0179309 0.0179083 0.0178913 0.0178798 0.0178739 0.0178736 0.0178788 0.0178896 0.0179059 0.0179174 0.0179135 0.0178944 0.0178599 0.0178101 0.0177449 0.0176644 0.0175687 0.0172743 0.0165983 0.0155404 0.0141009 0.0122795 0.0100764 0.00749161 0.00452502 0.001548 -0.00106813 -0.00332338 -0.00521775 -0.00675124 -0.00792384 -0.00873556 -0.0091864 -0.00935967 -0.00933871 -0.00912351 -0.00871408 -0.00811041 -0.00731251 -0.00632036 -0.00513399 -0.00393071 -0.00288787 -0.00200546 -0.0012835 -0.000721967 -0.000320874 -8.02185e-05 0 0 -3.63375e-06 -1.4535e-05 -3.27037e-05 -5.814e-05 -9.08437e-05 -0.000130815 -0.000178054 -0.00023256 -0.000354759 -0.000605079 -0.000983517 -0.00149007 -0.00212475 -0.00288755 -0.00377846 -0.0047975 -0.00591474 -0.00710028 -0.00835411 -0.00967623 -0.0110667 -0.0125254 -0.0140524 -0.0156477 -0.0172681 -0.0188705 -0.0204548 -0.022021 -0.0235692 -0.0250994 -0.0266115 -0.0281055 -0.0294847 -0.0306525 -0.0316087 -0.0323534 -0.0328866 -0.0332082 -0.0333184 -0.033217 -0.0329314 -0.0324889 -0.0318895 -0.0311332 -0.0302199 -0.0291497 -0.0279226 -0.0265385 -0.0251721 -0.0239977 -0.0230155 -0.0222253 -0.0216273 -0.0212213 -0.0210074 -0.0209857 -0.020919 -0.0205704 -0.0199398 -0.0190273 -0.0178328 -0.0163564 -0.014598 -0.0125577 -0.0101895 -0.00744752 -0.00433175 -0.000842206 0.00302113 0.00725826 0.0118692 0.0168539 0.0217549 0.0261149 0.0299339 0.0332117 0.0359485 0.0381442 0.0397989 0.0409125 0.0417036 0.0423908 0.0429742 0.0434536 0.0438292 0.0441009 0.0442687 0.0443326 0.0442823 0.0441076 0.0438084 0.0433847 0.0428365 0.0421639 0.0413668 0.0404452 0.0392076 0.0374626 0.0352102 0.0324503 0.0291829 0.0254081 0.0211259 0.0163362 0.0115432 0.00725117 0.00346007 0.000169907 -0.00261933 -0.00490763 -0.006695 -0.00798144 -0.00885794 -0.00941548 -0.00965406 -0.00957369 -0.00917437 -0.00845609 -0.00741886 -0.00606267 -0.00464173 -0.00341025 -0.00236823 -0.00151567 -0.000852562 -0.000378917 -9.47292e-05 0 0 -1.00972e-05 -4.0389e-05 -9.08752e-05 -0.000161556 -0.000252431 -0.000363501 -0.000494765 -0.000646224 -0.000878759 -0.00125325 -0.0017697 -0.00242811 -0.00322848 -0.00417081 -0.00525509 -0.00648133 -0.00781238 -0.00921108 -0.0106774 -0.0122114 -0.0138131 -0.0154824 -0.0172194 -0.019024 -0.020858 -0.0226831 -0.0244994 -0.0263069 -0.0281055 -0.0298952 -0.0316761 -0.0334481 -0.0350892 -0.0364771 -0.037612 -0.0384937 -0.0391223 -0.0394978 -0.0396202 -0.0394895 -0.0391442 -0.0386228 -0.0379253 -0.0370516 -0.0360019 -0.034776 -0.033374 -0.0317959 -0.0302413 -0.0289099 -0.0278016 -0.0269165 -0.0262546 -0.0258159 -0.0256003 -0.0256079 -0.0255094 -0.0249754 -0.0240061 -0.0226013 -0.0207611 -0.0184855 -0.0157745 -0.0126281 -0.00900554 -0.00486625 -0.000210183 0.00496265 0.0106523 0.0168586 0.0235818 0.0308217 0.0379699 0.0444179 0.0501658 0.0552134 0.0595609 0.0632082 0.0661553 0.0684022 0.0701806 0.0717223 0.0730273 0.0740955 0.074927 0.0755217 0.0758797 0.076001 0.0758756 0.0754937 0.0748553 0.0739603 0.0728088 0.0714008 0.0697363 0.0678152 0.06544 0.0624131 0.0587343 0.0544038 0.0494215 0.0437875 0.0375016 0.030564 0.0236321 0.0173633 0.0117575 0.00681489 0.00253536 -0.00108108 -0.00403442 -0.00632466 -0.00805031 -0.00930988 -0.0101034 -0.0104308 -0.0102921 -0.0096874 -0.00861659 -0.0070797 -0.0054204 -0.00398233 -0.00276551 -0.00176993 -0.000995583 -0.000442482 -0.00011062 0 0 -1.78137e-05 -7.12549e-05 -0.000160323 -0.000285019 -0.000445343 -0.000641294 -0.000872872 -0.00114008 -0.0014975 -0.00199972 -0.00264675 -0.00343858 -0.00437522 -0.00545665 -0.00668289 -0.00805394 -0.00952504 -0.0110514 -0.0126331 -0.0142702 -0.0159625 -0.0177101 -0.019513 -0.0213713 -0.0232625 -0.0251644 -0.027077 -0.0290004 -0.0309344 -0.0328791 -0.0348345 -0.0368005 -0.0386292 -0.0401724 -0.0414301 -0.0424023 -0.0430889 -0.0434901 -0.0436058 -0.0434359 -0.0430318 -0.0424447 -0.0416745 -0.0407212 -0.0395849 -0.0382656 -0.0367632 -0.0350777 -0.0334326 -0.0320511 -0.0309333 -0.0300791 -0.0294886 -0.0291618 -0.0290986 -0.029299 -0.0293197 -0.0287172 -0.0274914 -0.0256424 -0.0231702 -0.0200748 -0.0163561 -0.0120142 -0.00701504 -0.00132437 0.00505775 0.0121313 0.0198964 0.0283528 0.0375008 0.0473402 0.0570856 0.0659516 0.0739383 0.0810455 0.0872734 0.0926219 0.097091 0.100681 0.103633 0.106191 0.108353 0.11012 0.111493 0.11247 0.113052 0.113239 0.113023 0.112395 0.111354 0.109901 0.108036 0.10576 0.103071 0.0999694 0.0962547 0.0917252 0.0863807 0.0802213 0.0732471 0.0654579 0.0568538 0.0474348 0.0380318 0.0294756 0.0217663 0.0149038 0.00888808 0.00371926 -0.000602732 -0.00407788 -0.00681165 -0.00890951 -0.0103714 -0.0111975 -0.0113876 -0.0109418 -0.00986004 -0.0081424 -0.00623403 -0.0045801 -0.00318063 -0.0020356 -0.00114503 -0.0005089 -0.000127225 0 0 -2.6873e-05 -0.000107492 -0.000241857 -0.000429967 -0.000671824 -0.000967426 -0.00131677 -0.00171987 -0.00221246 -0.00283029 -0.00357337 -0.0044417 -0.00543527 -0.00655409 -0.00779815 -0.00916745 -0.0106098 -0.012073 -0.0135571 -0.015062 -0.0165877 -0.0181343 -0.0197017 -0.02129 -0.0229132 -0.0245852 -0.0263061 -0.0280759 -0.0298946 -0.0317621 -0.0336785 -0.0356438 -0.0374859 -0.0390327 -0.0402843 -0.0412406 -0.0419016 -0.0422674 -0.0423379 -0.0421132 -0.0416585 -0.0410394 -0.0402557 -0.0393074 -0.0381946 -0.0369173 -0.0354755 -0.0338692 -0.0323407 -0.0311327 -0.0302451 -0.0296779 -0.0294311 -0.0295047 -0.0298987 -0.0306132 -0.0310601 -0.0306515 -0.0293875 -0.0272679 -0.024293 -0.0204625 -0.0157766 -0.0102352 -0.00381167 0.00352075 0.011762 0.0209122 0.0309712 0.0419391 0.0538158 0.0666014 0.0793025 0.0909257 0.101471 0.110938 0.119328 0.126639 0.132873 0.138029 0.142355 0.1461 0.149265 0.151849 0.153852 0.155274 0.156116 0.156376 0.15605 0.155133 0.153623 0.151522 0.148829 0.145544 0.141667 0.137198 0.131935 0.125675 0.118417 0.110163 0.100911 0.0906628 0.0794173 0.0671747 0.0549594 0.0437957 0.0336835 0.024623 0.0166141 0.00965683 0.00375113 -0.00110296 -0.00501685 -0.00810196 -0.0103583 -0.0117858 -0.0123846 -0.0121545 -0.0110957 -0.00920806 -0.00704992 -0.00517953 -0.0035969 -0.00230201 -0.00129488 -0.000575503 -0.000143876 0 0 -3.7275e-05 -0.0001491 -0.000335475 -0.0005964 -0.000931874 -0.0013419 -0.00182647 -0.0023856 -0.00302364 -0.00374496 -0.00454957 -0.00543747 -0.00640864 -0.00746311 -0.00860085 -0.00982188 -0.0110667 -0.0122758 -0.0134492 -0.0145868 -0.0156888 -0.016755 -0.0177855 -0.0187803 -0.01981 -0.0209455 -0.0221867 -0.0235335 -0.0249861 -0.0265443 -0.0282082 -0.0299779 -0.0316592 -0.033058 -0.0341746 -0.0350087 -0.0355604 -0.0358297 -0.0358167 -0.0355212 -0.0350243 -0.0344068 -0.0336688 -0.0328102 -0.031831 -0.0307313 -0.029511 -0.0281701 -0.0269657 -0.0261547 -0.0257371 -0.0257129 -0.0260821 -0.0268448 -0.0280009 -0.0295503 -0.0307305 -0.0307784 -0.0296942 -0.0274779 -0.0241294 -0.0196487 -0.0140359 -0.00729096 0.000604581 0.00966913 0.0199027 0.0313052 0.0438768 0.0576173 0.0725269 0.0886055 0.104621 0.11934 0.132764 0.144892 0.155724 0.16526 0.173501 0.180446 0.186346 0.191452 0.195763 0.199281 0.202005 0.203934 0.20507 0.205411 0.204958 0.203709 0.201664 0.198823 0.195186 0.190754 0.185525 0.179501 0.17248 0.164261 0.154844 0.144228 0.132414 0.119402 0.105192 0.0897837 0.0744148 0.0603234 0.0475094 0.0359727 0.0257135 0.0167316 0.00902717 0.00260011 -0.0026659 -0.00688723 -0.0100639 -0.0121958 -0.0132831 -0.0133256 -0.0123235 -0.0102767 -0.00786808 -0.00578063 -0.00401432 -0.00256917 -0.00144516 -0.000642292 -0.000160573 0 0 -4.90198e-05 -0.000196079 -0.000441178 -0.000784316 -0.00122549 -0.00176471 -0.00240197 -0.00313726 -0.00393104 -0.00474374 -0.00557535 -0.00642588 -0.00729534 -0.00818371 -0.009091 -0.0100172 -0.0108957 -0.0116598 -0.0123095 -0.0128447 -0.0132656 -0.0135721 -0.0137643 -0.013842 -0.013953 -0.0142453 -0.0147187 -0.0153732 -0.0162089 -0.0172257 -0.0184237 -0.0198028 -0.021149 -0.0222484 -0.0231009 -0.0237065 -0.0240652 -0.0241771 -0.0240421 -0.0236601 -0.0231292 -0.0225471 -0.0219139 -0.0212296 -0.0204941 -0.0197074 -0.0188696 -0.0179807 -0.0173075 -0.017117 -0.0174092 -0.0181841 -0.0194417 -0.0211819 -0.0234049 -0.0261105 -0.0283309 -0.029098 -0.0284118 -0.0262723 -0.0226795 -0.0176334 -0.0111341 -0.00318149 0.0062337 0.0171208 0.0294797 0.0433105 0.0586131 0.0753876 0.093634 0.113352 0.13304 0.151195 0.167817 0.182906 0.196462 0.208485 0.218975 0.227932 0.235606 0.242244 0.247848 0.252417 0.255951 0.258451 0.259915 0.260345 0.259745 0.258122 0.255474 0.251803 0.247108 0.241389 0.234646 0.226879 0.217891 0.207485 0.19566 0.182417 0.167756 0.151676 0.134178 0.115262 0.0963982 0.0790589 0.0632437 0.0489528 0.0361861 0.0249437 0.0152254 0.00703133 0.000241192 -0.00526532 -0.00948821 -0.0124275 -0.0140831 -0.0144551 -0.0135435 -0.0113482 -0.0086885 -0.00638339 -0.00443291 -0.00283706 -0.00159585 -0.000709265 -0.000177316 0 0 -6.21073e-05 -0.000248429 -0.000558966 -0.000993717 -0.00155268 -0.00223586 -0.00304326 -0.00397487 -0.00493466 -0.0058266 -0.0066507 -0.00740695 -0.00809535 -0.0087159 -0.00926861 -0.00975346 -0.0100968 -0.010225 -0.0101379 -0.00