<?xml version="1.0"?> 
<VTKFile type="StructuredGrid" version="0.1"> 
<StructuredGrid WholeExtent="0 128 0 128 0 0"> 
<Piece Extent="0 128 0 128 0 0"> 
<PointData>
<DataArray type="Float32" Name="u" format="ascii" NumberOfComponents="1"> 
0 0 0 0 0 0 0 0 0 0 0 0 0 0 0 0 0 0 0 0 0 0 0 0 0 0 0 0 0 0 0 0 0 0 0 0 0 0 0 0 0 0 0 0 0 0 0 0 0 0 0 0 0 0 0 0 0 0 0 0 0 0 0 0 0 0 0 0 0 0 0 0 0 0 0 0 0 0 0 0 0 0 0 0 0 0 0 0 0 0 0 0 0 0 0 0 0 0 0 0 0 0 0 0 0 0 0 0 0 0 0 0 0 0 0 0 0 0 0 0 0 0 0 0 0 0 0 0 0 0 -1.38518e-07 -5.54071e-07 -1.24666e-06 -2.21629e-06 -3.46295e-06 -4.98664e-06 -6.78738e-06 -8.86514e-06 -1.1541e-05 -1.51361e-05 -1.96503e-05 -2.50837e-05 -3.14363e-05 -3.8708e-05 -4.68989e-05 -5.6009e-05 -6.59556e-05 -7.66561e-05 -8.81104e-05 -0.000100319 -0.000113281 -0.000126997 -0.000141466 -0.00015669 -0.000172085 -0.000187067 -0.000201637 -0.000215794 -0.00022954 -0.000242873 -0.000255793 -0.000268302 -0.000279719 -0.000289366 -0.000297242 -0.000303348 -0.000307684 -0.000310249 -0.000311043 -0.000310068 -0.000307748 -0.000304512 -0.000300359 -0.000295288 -0.000289301 -0.000282397 -0.000274576 -0.000265837 -0.000256876 -0.000248386 -0.000240367 -0.000232818 -0.000225741 -0.000219134 -0.000212998 -0.000207334 -0.00020172 -0.000195739 -0.000189389 -0.000182672 -0.000175586 -0.000168132 -0.00016031 -0.00015212 -0.000143652 -0.000134997 -0.000126155 -0.000117126 -0.00010791 -9.85076e-05 -8.89177e-05 -7.91408e-05 -6.98223e-05 -6.16075e-05 -5.44966e-05 -4.84894e-05 -4.3586e-05 -3.97864e-05 -3.70905e-05 -3.54985e-05 -3.45628e-05 -3.38362e-05 -3.33187e-05 -3.30102e-05 -3.29108e-05 -3.30204e-05 -3.33391e-05 -3.38668e-05 -3.45937e-05 -3.55098e-05 -3.6615e-05 -3.79095e-05 -3.93931e-05 -4.10659e-05 -4.29279e-05 -4.49792e-05 -4.74533e-05 -5.05839e-05 -5.43711e-05 -5.88148e-05 -6.39151e-05 -6.96719e-05 -7.60853e-05 -8.31552e-05 -8.98256e-05 -9.50405e-05 -9.87997e-05 -0.000101103 -0.000101951 -0.000101344 -9.92808e-05 -9.57621e-05 -9.11656e-05 -8.58691e-05 -7.98724e-05 -7.31757e-05 -6.57789e-05 -5.76821e-05 -4.88851e-05 -3.93881e-05 -3.01565e-05 -2.21558e-05 -1.5386e-05 -9.84703e-06 -5.53896e-06 -2.46176e-06 -6.1544e-07 0 0 -5.54071e-07 -2.21629e-06 -4.98664e-06 -8.86514e-06 -1.38518e-05 -1.99466e-05 -2.71495e-05 -3.54606e-05 -4.61641e-05 -6.05443e-05 -7.86011e-05 -0.000100335 -0.000125745 -0.000154832 -0.000187596 -0.000224036 -0.000263822 -0.000306624 -0.000352442 -0.000401275 -0.000453123 -0.000507987 -0.000565866 -0.00062676 -0.000688338 -0.000748267 -0.000806546 -0.000863177 -0.000918158 -0.000971491 -0.00102317 -0.00107321 -0.00111888 -0.00115746 -0.00118897 -0.00121339 -0.00123073 -0.001241 -0.00124417 -0.00124027 -0.00123099 -0.00121805 -0.00120143 -0.00118115 -0.0011572 -0.00112959 -0.0010983 -0.00106335 -0.0010275 -0.000993544 -0.000961466 -0.000931273 -0.000902963 -0.000876536 -0.000851994 -0.000829335 -0.000806881 -0.000782956 -0.000757557 -0.000730686 -0.000702343 -0.000672527 -0.000641239 -0.000608478 -0.000574607 -0.000539988 -0.000504621 -0.000468505 -0.000431642 -0.00039403 -0.000355671 -0.000316563 -0.000279289 -0.00024643 -0.000217986 -0.000193958 -0.000174344 -0.000159145 -0.000148362 -0.000141994 -0.000138251 -0.000135345 -0.000133275 -0.000132041 -0.000131643 -0.000132082 -0.000133356 -0.000135467 -0.000138375 -0.000142039 -0.00014646 -0.000151638 -0.000157572 -0.000164264 -0.000171712 -0.000179917 -0.000189813 -0.000202336 -0.000217484 -0.000235259 -0.00025566 -0.000278688 -0.000304341 -0.000332621 -0.000359303 -0.000380162 -0.000395199 -0.000404413 -0.000407806 -0.000405376 -0.000397123 -0.000383049 -0.000364663 -0.000343476 -0.00031949 -0.000292703 -0.000263116 -0.000230728 -0.000195541 -0.000157553 -0.000120626 -8.86233e-05 -6.1544e-05 -3.93881e-05 -2.21558e-05 -9.84703e-06 -2.46176e-06 0 0 -1.24666e-06 -4.98664e-06 -1.12199e-05 -1.99466e-05 -3.11665e-05 -4.48798e-05 -6.10864e-05 -7.97863e-05 -0.000103869 -0.000136225 -0.000176853 -0.000225753 -0.000282926 -0.000348372 -0.00042209 -0.000504081 -0.000593601 -0.000689905 -0.000792994 -0.000902868 -0.00101953 -0.00114297 -0.0012732 -0.00141021 -0.00154876 -0.0016836 -0.00181473 -0.00194215 -0.00206586 -0.00218585 -0.00230214 -0.00241472 -0.00251747 -0.00260429 -0.00267518 -0.00273013 -0.00276915 -0.00279224 -0.00279939 -0.00279061 -0.00276973 -0.00274061 -0.00270323 -0.00265759 -0.00260371 -0.00254157 -0.00247118 -0.00239254 -0.00231189 -0.00223547 -0.0021633 -0.00209536 -0.00203167 -0.00197221 -0.00191699 -0.001866 -0.00181548 -0.00176165 -0.0017045 -0.00164404 -0.00158027 -0.00151319 -0.00144279 -0.00136908 -0.00129287 -0.00121497 -0.0011354 -0.00105414 -0.000971194 -0.000886568 -0.000800259 -0.000712267 -0.0006284 -0.000554468 -0.000490469 -0.000436405 -0.000392274 -0.000358077 -0.000333815 -0.000319486 -0.000311065 -0.000304526 -0.000299868 -0.000297092 -0.000296197 -0.000297184 -0.000300052 -0.000304801 -0.000311343 -0.000319588 -0.000329535 -0.000341185 -0.000354538 -0.000369593 -0.000386352 -0.000404812 -0.000427079 -0.000455255 -0.00048934 -0.000529333 -0.000575236 -0.000627047 -0.000684768 -0.000748397 -0.000808431 -0.000855364 -0.000889197 -0.00090993 -0.000917563 -0.000912095 -0.000893527 -0.000861859 -0.000820491 -0.000772822 -0.000718852 -0.000658581 -0.00059201 -0.000519139 -0.000439966 -0.000354493 -0.000271409 -0.000199402 -0.000138474 -8.86233e-05 -4.98506e-05 -2.21558e-05 -5.53896e-06 0 0 -2.21629e-06 -8.86514e-06 -1.99466e-05 -3.54606e-05 -5.54071e-05 -7.97863e-05 -0.000108598 -0.000141842 -0.000184656 -0.000242177 -0.000314405 -0.000401339 -0.00050298 -0.000619328 -0.000750383 -0.000896144 -0.00105529 -0.0012265 -0.00140977 -0.0016051 -0.00181249 -0.00203195 -0.00226346 -0.00250704 -0.00275335 -0.00299307 -0.00322619 -0.00345271 -0.00367263 -0.00388596 -0.0040927 -0.00429283 -0.00447551 -0.00462986 -0.00475588 -0.00485357 -0.00492294 -0.00496398 -0.0049767 -0.00496108 -0.00492397 -0.00487219 -0.00480574 -0.00472461 -0.00462882 -0.00451835 -0.00439321 -0.0042534 -0.00411002 -0.00397417 -0.00384587 -0.00372509 -0.00361185 -0.00350615 -0.00340797 -0.00331734 -0.00322753 -0.00313182 -0.00303023 -0.00292275 -0.00280937 -0.00269011 -0.00256496 -0.00243391 -0.00229843 -0.00215995 -0.00201848 -0.00187402 -0.00172657 -0.00157612 -0.00142268 -0.00126625 -0.00111716 -0.000985721 -0.000871945 -0.00077583 -0.000697376 -0.000636582 -0.000593448 -0.000567975 -0.000553005 -0.000541379 -0.000533099 -0.000528163 -0.000526572 -0.000528326 -0.000533425 -0.000541869 -0.000553499 -0.000568156 -0.00058584 -0.000606551 -0.000630289 -0.000657055 -0.000686847 -0.000719667 -0.000759252 -0.000809342 -0.000869937 -0.000941037 -0.00102264 -0.00111475 -0.00121736 -0.00133048 -0.00143721 -0.00152065 -0.0015808 -0.00161765 -0.00163122 -0.0016215 -0.00158849 -0.00153219 -0.00145865 -0.0013739 -0.00127796 -0.00117081 -0.00105246 -0.000922913 -0.000782162 -0.00063021 -0.000482505 -0.000354493 -0.000246176 -0.000157553 -8.86233e-05 -3.93881e-05 -9.84703e-06 0 0 -3.46295e-06 -1.38518e-05 -3.11665e-05 -5.54071e-05 -8.65737e-05 -0.000124666 -0.000169684 -0.000221629 -0.000288525 -0.000378402 -0.000491257 -0.000627092 -0.000785906 -0.0009677 -0.00117247 -0.00140023 -0.00164889 -0.0019164 -0.00220276 -0.00250797 -0.00283202 -0.00317492 -0.00353666 -0.00391725 -0.00430211 -0.00467667 -0.00504091 -0.00539486 -0.00573849 -0.00607182 -0.00639484 -0.00670755 -0.00699298 -0.00723415 -0.00743106 -0.00758371 -0.00769209 -0.00775622 -0.00777609 -0.00775169 -0.00769371 -0.0076128 -0.00750896 -0.00738221 -0.00723252 -0.00705992 -0.00686439 -0.00664593 -0.0064219 -0.00620965 -0.00600916 -0.00582045 -0.00564352 -0.00547835 -0.00532496 -0.00518334 -0.00504301 -0.00489347 -0.00473473 -0.00456679 -0.00438964 -0.00420329 -0.00400774 -0.00380299 -0.00359129 -0.00337492 -0.00315388 -0.00292816 -0.00269776 -0.00246269 -0.00222294 -0.00197852 -0.00174556 -0.00154019 -0.00136241 -0.00121223 -0.00108965 -0.000994659 -0.000927263 -0.000887461 -0.00086407 -0.000845905 -0.000832967 -0.000825255 -0.000822769 -0.00082551 -0.000833477 -0.000846671 -0.000864842 -0.000887744 -0.000915375 -0.000947736 -0.000984827 -0.00102665 -0.0010732 -0.00112448 -0.00118633 -0.0012646 -0.00135928 -0.00147037 -0.00159788 -0.0017418 -0.00190213 -0.00207888 -0.00224564 -0.00237601 -0.00246999 -0.00252758 -0.00254879 -0.0025336 -0.00248202 -0.00239405 -0.00227914 -0.00214673 -0.00199681 -0.00182939 -0.00164447 -0.00144205 -0.00122213 -0.000984703 -0.000753913 -0.000553896 -0.00038465 -0.000246176 -0.000138474 -6.1544e-05 -1.5386e-05 0 0 -4.98664e-06 -1.99466e-05 -4.48798e-05 -7.97863e-05 -0.000124666 -0.000179519 -0.000244346 -0.000319145 -0.000415477 -0.000544898 -0.00070741 -0.000903013 -0.00113171 -0.00139349 -0.00168836 -0.00201632 -0.0023744 -0.00275962 -0.00317198 -0.00361147 -0.00407811 -0.00457188 -0.00509279 -0.00564084 -0.00619504 -0.0067344 -0.00725892 -0.00776859 -0.00826342 -0.00874342 -0.00920856 -0.00965887 -0.0100699 -0.0104172 -0.0107007 -0.0109205 -0.0110766 -0.011169 -0.0111976 -0.0111624 -0.0110789 -0.0109624 -0.0108129 -0.0106304 -0.0104148 -0.0101663 -0.00988472 -0.00957014 -0.00924754 -0.00894189 -0.0086532 -0.00838145 -0.00812666 -0.00788883 -0.00766794 -0.00746401 -0.00726193 -0.0070466 -0.00681801 -0.00657618 -0.00632109 -0.00605274 -0.00577115 -0.0054763 -0.00517146 -0.00485989 -0.00454158 -0.00421655 -0.00388478 -0.00354627 -0.00320104 -0.00284907 -0.0025136 -0.00221787 -0.00196188 -0.00174562 -0.0015691 -0.00143231 -0.00133526 -0.00127794 -0.00124426 -0.0012181 -0.00119947 -0.00118837 -0.00118479 -0.00118873 -0.00120021 -0.00121921 -0.00124537 -0.00127835 -0.00131814 -0.00136474 -0.00141815 -0.00147837 -0.00154541 -0.00161925 -0.00170832 -0.00182102 -0.00195736 -0.00211733 -0.00230094 -0.00250819 -0.00273907 -0.00299359 -0.00323372 -0.00342146 -0.00355679 -0.00363972 -0.00367025 -0.00364838 -0.00357411 -0.00344744 -0.00328196 -0.00309129 -0.00287541 -0.00263433 -0.00236804 -0.00207655 -0.00175986 -0.00141797 -0.00108564 -0.00079761 -0.000553896 -0.000354493 -0.000199402 -8.86233e-05 -2.21558e-05 0 0 -6.78738e-06 -2.71495e-05 -6.10864e-05 -0.000108598 -0.000169684 -0.000244346 -0.000332581 -0.000434392 -0.00056551 -0.000741667 -0.000962864 -0.0012291 -0.00154038 -0.00189669 -0.00229805 -0.00274444 -0.00323183 -0.00375615 -0.00431741 -0.00491561 -0.00555075 -0.00622283 -0.00693185 -0.00767781 -0.00843214 -0.00916627 -0.00988019 -0.0105739 -0.0112474 -0.0119008 -0.0125339 -0.0131468 -0.0137062 -0.0141789 -0.0145649 -0.0148641 -0.0150765 -0.0152022 -0.0152411 -0.0151933 -0.0150797 -0.0149211 -0.0147176 -0.0144691 -0.0141757 -0.0138374 -0.0134542 -0.013026 -0.0125869 -0.0121709 -0.011778 -0.0114081 -0.0110613 -0.0107376 -0.0104369 -0.0101594 -0.0098843 -0.00959121 -0.00928008 -0.00895091 -0.0086037 -0.00823846 -0.00785518 -0.00745386 -0.00703893 -0.00661485 -0.0061816 -0.00573919 -0.00528761 -0.00482687 -0.00435697 -0.0038779 -0.00342129 -0.00301877 -0.00267033 -0.00237598 -0.00213571 -0.00194953 -0.00181744 -0.00173942 -0.00169358 -0.00165797 -0.00163262 -0.0016175 -0.00161263 -0.001618 -0.00163362 -0.00165947 -0.00169509 -0.00173998 -0.00179414 -0.00185756 -0.00193026 -0.00201223 -0.00210347 -0.00220398 -0.00232521 -0.00247861 -0.00266418 -0.00288193 -0.00313184 -0.00341392 -0.00372818 -0.00407461 -0.00440146 -0.00465698 -0.00484118 -0.00495406 -0.00499562 -0.00496585 -0.00486476 -0.00469234 -0.00446712 -0.00420758 -0.00391375 -0.00358561 -0.00322317 -0.00282642 -0.00239537 -0.00193002 -0.00147767 -0.00108564 -0.000753913 -0.000482505 -0.000271409 -0.000120626 -3.01565e-05 0 0 -8.86514e-06 -3.54606e-05 -7.97863e-05 -0.000141842 -0.000221629 -0.000319145 -0.000434392 -0.000567369 -0.000738625 -0.000968708 -0.00125762 -0.00160536 -0.00201192 -0.00247731 -0.00300153 -0.00358458 -0.00422116 -0.00490599 -0.00563907 -0.00642039 -0.00724996 -0.00812778 -0.00905385 -0.0100282 -0.0110134 -0.0119723 -0.0129047 -0.0138108 -0.0146905 -0.0155439 -0.0163708 -0.0171713 -0.017902 -0.0185194 -0.0190235 -0.0194143 -0.0196918 -0.0198559 -0.0199068 -0.0198443 -0.0196959 -0.0194888 -0.0192229 -0.0188984 -0.0185153 -0.0180734 -0.0175728 -0.0170136 -0.0164401 -0.0158967 -0.0153835 -0.0149004 -0.0144474 -0.0140246 -0.0136319 -0.0132694 -0.0129101 -0.0125273 -0.0121209 -0.011691 -0.0112375 -0.0107604 -0.0102598 -0.00973565 -0.00919371 -0.0086398 -0.00807393 -0.00749608 -0.00690627 -0.00630449 -0.00569073 -0.00506501 -0.00446863 -0.00394288 -0.00348778 -0.00310332 -0.0027895 -0.00254633 -0.00237379 -0.0022719 -0.00221202 -0.00216552 -0.0021324 -0.00211265 -0.00210629 -0.00211331 -0.0021337 -0.00216748 -0.002214 -0.00227262 -0.00234336 -0.00242621 -0.00252116 -0.00262822 -0.00274739 -0.00287867 -0.00303701 -0.00323737 -0.00347975 -0.00376415 -0.00409057 -0.004459 -0.00486946 -0.00532193 -0.00574884 -0.00608259 -0.00632318 -0.00647061 -0.00652489 -0.00648601 -0.00635397 -0.00612878 -0.0058346 -0.00549562 -0.00511183 -0.00468324 -0.00420985 -0.00369165 -0.00312865 -0.00252084 -0.00193002 -0.00141797 -0.000984703 -0.00063021 -0.000354493 -0.000157553 -3.93881e-05 0 0 -1.14939e-05 -4.59756e-05 -0.000103445 -0.000183902 -0.000287347 -0.00041378 -0.000563201 -0.000735609 -0.000955366 -0.00124683 -0.00161001 -0.00204489 -0.00255148 -0.00312978 -0.00377979 -0.00450151 -0.00528812 -0.00613279 -0.00703552 -0.00799631 -0.00901516 -0.0100921 -0.0112271 -0.0124201 -0.0136261 -0.0147999 -0.0159416 -0.0170512 -0.0181286 -0.0191738 -0.0201869 -0.0211678 -0.0220631 -0.0228192 -0.0234362 -0.023914 -0.0242526 -0.0244521 -0.0245125 -0.0244336 -0.0242501 -0.0239963 -0.0236723 -0.0232781 -0.0228136 -0.0222789 -0.0216739 -0.0209987 -0.0203067 -0.0196514 -0.0190327 -0.0184507 -0.0179053 -0.0173966 -0.0169245 -0.0164891 -0.0160526 -0.0155772 -0.0150629 -0.0145096 -0.0139175 -0.0132865 -0.0126166 -0.0119079 -0.011168 -0.0104051 -0.00961891 -0.00880959 -0.00797711 -0.00712147 -0.00624265 -0.00534067 -0.00447326 -0.00369814 -0.00301532 -0.00242479 -0.00192655 -0.00152062 -0.00120697 -0.000985624 -0.000824586 -0.000691875 -0.000587491 -0.000511433 -0.000463702 -0.000444298 -0.00045322 -0.000490469 -0.000554919 -0.000645444 -0.000762045 -0.000904721 -0.00107347 -0.0012683 -0.0014892 -0.00173618 -0.00202428 -0.00236855 -0.002769 -0.00322562 -0.00373842 -0.00430738 -0.00493252 -0.00561384 -0.00626167 -0.00678638 -0.00718795 -0.00746639 -0.0076217 -0.00765388 -0.00756293 -0.00734885 -0.00704163 -0.00667127 -0.00623777 -0.00574112 -0.00518134 -0.00455841 -0.00387234 -0.00312313 -0.00239115 -0.00175676 -0.00121997 -0.000780782 -0.00043919 -0.000195196 -4.87989e-05 0 0 -1.49476e-05 -5.97903e-05 -0.000134528 -0.000239161 -0.000373689 -0.000538113 -0.000732431 -0.000956645 -0.00123628 -0.00159685 -0.00203836 -0.00256082 -0.00316421 -0.00384854 -0.00461382 -0.00546004 -0.00637842 -0.00736018 -0.00840533 -0.00951386 -0.0106858 -0.0119211 -0.0132198 -0.0145818 -0.0159575 -0.0172969 -0.0186 -0.0198668 -0.0210974 -0.0222918 -0.0234499 -0.0245717 -0.0255954 -0.026459 -0.0271625 -0.027706 -0.0280894 -0.0283128 -0.0283761 -0.0282794 -0.0280648 -0.0277747 -0.027409 -0.0269678 -0.026451 -0.0258587 -0.0251908 -0.0244473 -0.0236867 -0.0229672 -0.0222888 -0.0216515 -0.0210554 -0.0205004 -0.0199865 -0.0195138 -0.019025 -0.0184632 -0.0178282 -0.0171202 -0.016339 -0.0154846 -0.0145572 -0.0135567 -0.0124942 -0.0113809 -0.0102169 -0.00900209 -0.00773651 -0.00642017 -0.00505305 -0.00363516 -0.00225285 -0.000992475 0.000145966 0.00116247 0.00205705 0.00282968 0.00348039 0.00400916 0.00444372 0.00481181 0.00511342 0.00534855 0.0055172 0.00561938 0.00565507 0.00562429 0.00552931 0.00537241 0.00515358 0.00487284 0.00453017 0.00412557 0.00365906 0.00313063 0.00253242 0.00185658 0.00110312 0.000272031 -0.000636684 -0.00162302 -0.00268699 -0.00382858 -0.00492575 -0.00585645 -0.00662067 -0.00721842 -0.00764969 -0.0079145 -0.00801282 -0.00794468 -0.00774542 -0.00745041 -0.00705965 -0.00657314 -0.00599087 -0.00531286 -0.00453909 -0.00366957 -0.00280952 -0.00206414 -0.00143343 -0.000917394 -0.000516034 -0.000229348 -5.73371e-05 0 0 -1.92262e-05 -7.69047e-05 -0.000173036 -0.000307619 -0.000480654 -0.000692142 -0.000942083 -0.00123048 -0.00158136 -0.00201876 -0.00254268 -0.00315313 -0.0038501 -0.00463359 -0.00550361 -0.00646015 -0.00749205 -0.00858817 -0.00974851 -0.0109731 -0.0122618 -0.0136148 -0.015032 -0.0165134 -0.0180075 -0.019463 -0.0208797 -0.0222578 -0.0235971 -0.0248977 -0.0261597 -0.0273829 -0.0284988 -0.0294386 -0.0302025 -0.0307903 -0.0312021 -0.0314379 -0.0314977 -0.0313815 -0.03114 -0.0308238 -0.030433 -0.0299676 -0.0294275 -0.0288128 -0.0281234 -0.0273594 -0.0265799 -0.025844 -0.0251516 -0.0245028 -0.0238976 -0.0233359 -0.0228178 -0.0223433 -0.0218274 -0.0211853 -0.020417 -0.0195225 -0.0185017 -0.0173547 -0.0160815 -0.0146821 -0.0131721 -0.0115674 -0.00986787 -0.00807356 -0.00618447 -0.00420058 -0.00212192 5.15382e-05 0.00219261 0.00417412 0.00599607 0.00765846 0.00916129 0.0105046 0.0116883 0.0127124 0.0135929 0.0143455 0.0149703 0.0154673 0.0158364 0.0160777 0.0161912 0.0161768 0.0160387 0.0157809 0.0154035 0.0149065 0.0142898 0.0135534 0.0126974 0.0117217 0.0106331 0.00943803 0.00813661 0.00672881 0.00521463 0.00359407 0.00186714 3.38297e-05 -0.00174108 -0.0032928 -0.00462134 -0.00572669 -0.00660886 -0.00726785 -0.00770365 -0.00791626 -0.00794597 -0.00783304 -0.00757748 -0.00717929 -0.00663846 -0.005955 -0.00512891 -0.00416018 -0.00318514 -0.0023401 -0.00162507 -0.00104004 -0.000585025 -0.000260011 -6.50028e-05 0 0 -2.43297e-05 -9.73189e-05 -0.000218967 -0.000389275 -0.000608243 -0.00087587 -0.00119216 -0.0015571 -0.0019906 -0.00251256 -0.00312297 -0.00382184 -0.00460916 -0.00548493 -0.00644916 -0.00750184 -0.00862903 -0.00981676 -0.011065 -0.0123739 -0.0137433 -0.0151732 -0.0166637 -0.0182147 -0.0197763 -0.0212983 -0.0227809 -0.024224 -0.0256276 -0.0269917 -0.0283163 -0.0296014 -0.0307733 -0.0317582 -0.032556 -0.0331669 -0.0335907 -0.0338275 -0.0338773 -0.0337401 -0.0334756 -0.0331437 -0.0327443 -0.0322774 -0.031743 -0.0311412 -0.0304718 -0.029735 -0.0289865 -0.0282819 -0.0276212 -0.0270046 -0.0264319 -0.0259032 -0.0254184 -0.0249777 -0.0244597 -0.0237436 -0.0228293 -0.0217167 -0.0204059 -0.0188968 -0.0171896 -0.0152841 -0.0132019 -0.0109645 -0.00857185 -0.00602402 -0.00332097 -0.000462721 0.00255074 0.00571941 0.00886311 0.0118016 0.014535 0.0170632 0.0193862 0.021504 0.0234167 0.0251242 0.026623 0.0279093 0.0289833 0.0298448 0.030494 0.0309307 0.0311551 0.0311671 0.0309732 0.0305801 0.0299878 0.0291962 0.0282053 0.0270152 0.0256258 0.0240372 0.0222777 0.0203758 0.0183315 0.0161447 0.0138155 0.0113439 0.00872987 0.0059734 0.00329235 0.000904563 -0.00118996 -0.00299122 -0.00449921 -0.00571394 -0.00663541 -0.00726361 -0.00764328 -0.00781917 -0.00779126 -0.00755957 -0.0071241 -0.00648483 -0.00564178 -0.00459494 -0.003518 -0.00258465 -0.0017949 -0.00114873 -0.000646163 -0.000287184 -7.17959e-05 0 0 -3.02582e-05 -0.000121033 -0.000272324 -0.000484131 -0.000756454 -0.00108929 -0.00148265 -0.00193652 -0.00246402 -0.00307826 -0.00377923 -0.00456694 -0.00544138 -0.00640256 -0.00745047 -0.00858513 -0.00978934 -0.0110459 -0.0123549 -0.0137163 -0.0151301 -0.0165963 -0.0181149 -0.0196858 -0.0212637 -0.0228029 -0.0243035 -0.0257655 -0.0271889 -0.0285737 -0.0299198 -0.0312273 -0.032419 -0.0334177 -0.0342232 -0.0348357 -0.0352552 -0.0354815 -0.0355148 -0.0353551 -0.0350718 -0.0347344 -0.0343429 -0.0338973 -0.0333976 -0.0328439 -0.032236 -0.0315741 -0.0309063 -0.0302808 -0.0296977 -0.0291569 -0.0286584 -0.0282022 -0.0277884 -0.0274169 -0.026922 -0.026138 -0.0250649 -0.0237027 -0.0220514 -0.0201109 -0.0178814 -0.0153627 -0.0125834 -0.00957216 -0.00632883 -0.00285345 0.000853964 0.00479342 0.00896492 0.0133685 0.0177587 0.0218901 0.0257627 0.0293766 0.0327317 0.0358281 0.0386657 0.0412445 0.0435339 0.0455031 0.0471522 0.0484811 0.0494898 0.0501784 0.0505468 0.0505951 0.0503329 0.04977 0.0489063 0.0477419 0.0462768 0.0445109 0.0424443 0.0400769 0.0374663 0.0346699 0.0316877 0.0285197 0.025166 0.0216265 0.0179012 0.0139901 0.0101745 0.00673564 0.00367347 0.000988009 -0.00132074 -0.00325277 -0.0048081 -0.0059867 -0.00683735 -0.00740878 -0.00770099 -0.007714 -0.00744778 -0.00690235 -0.00607771 -0.00497386 -0.00380811 -0.00279779 -0.00194291 -0.00124346 -0.000699448 -0.000310866 -7.77165e-05 0 0 -3.70116e-05 -0.000148046 -0.000333104 -0.000592185 -0.000925289 -0.00133242 -0.00181357 -0.00236874 -0.00300161 -0.00371585 -0.00451145 -0.00538842 -0.00634676 -0.00738647 -0.00850755 -0.00970999 -0.010973 -0.0122757 -0.0136182 -0.0150004 -0.0164224 -0.0178841 -0.0193856 -0.0209268 -0.0224698 -0.0239767 -0.0254476 -0.0268823 -0.028281 -0.0296436 -0.0309702 -0.0322606 -0.0334359 -0.0344171 -0.035204 -0.0357969 -0.0361955 -0.0364 -0.0364104 -0.0362265 -0.0359284 -0.0355958 -0.0352287 -0.0348272 -0.0343913 -0.0339208 -0.033416 -0.0328766 -0.0323394 -0.0318408 -0.0313809 -0.0309596 -0.030577 -0.030233 -0.0299277 -0.029661 -0.0292142 -0.0283686 -0.027124 -0.0254806 -0.0234382 -0.020997 -0.0181569 -0.0149179 -0.0113168 -0.00739045 -0.0031388 0.00143813 0.00634035 0.0115678 0.0171206 0.0229987 0.0288792 0.0344394 0.0396793 0.0445988 0.0491979 0.0534768 0.0574352 0.0610733 0.0643257 0.067127 0.0694771 0.0713761 0.072824 0.0738208 0.0743664 0.0744609 0.0741178 0.0733505 0.0721592 0.0705438 0.0685042 0.0660406 0.0631528 0.059841 0.0561988 0.0523203 0.0482053 0.0438539 0.0392661 0.0344418 0.0293811 0.024084 0.0189055 0.0142004 0.00996895 0.00621099 0.00292656 0.000115654 -0.00222172 -0.00408556 -0.00552818 -0.00660188 -0.00730667 -0.00764255 -0.00760952 -0.00720757 -0.00643671 -0.00529693 -0.00405546 -0.00297952 -0.00206911 -0.00132423 -0.000744881 -0.000331058 -8.27645e-05 0 0 -4.45899e-05 -0.00017836 -0.000401309 -0.000713438 -0.00111475 -0.00160524 -0.0021849 -0.00285375 -0.00360337 -0.00442533 -0.00531964 -0.0062863 -0.00732531 -0.00843668 -0.00962039 -0.0108764 -0.01218 -0.0135061 -0.0148548 -0.0162262 -0.0176201 -0.0190366 -0.0204758 -0.0219375 -0.0233946 -0.0248197 -0.026213 -0.0275745 -0.028904 -0.0302016 -0.0314673 -0.0327012 -0.0338239 -0.0347564 -0.0354985 -0.0360503 -0.0364118 -0.036583 -0.0365638 -0.0363544 -0.0360455 -0.035728 -0.0354019 -0.0350672 -0.034724 -0.0343721 -0.0340117 -0.0336427 -0.0332858 -0.0329619 -0.0326709 -0.0324128 -0.0321877 -0.0319955 -0.0318363 -0.03171 -0.0313364 -0.0304352 -0.0290065 -0.0270503 -0.0245664 -0.0215551 -0.0180162 -0.0139497 -0.00940199 -0.00441935 0.000998222 0.00685073 0.0131382 0.0198606 0.0270179 0.0346101 0.0422249 0.0494497 0.0562847 0.0627297 0.0687848 0.07445 0.0797253 0.0846106 0.0889984 0.0927809 0.0959581 0.0985299 0.100496 0.101858 0.102614 0.102764 0.102328 0.101322 0.0997464 0.0976017 0.0948876 0.0916042 0.0877514 0.0833293 0.0784754 0.073327 0.0678843 0.0621472 0.0561157 0.0497899 0.0431697 0.0362551 0.0294852 0.023299 0.0176965 0.0126777 0.00824267 0.00439134 0.00112373 -0.00156017 -0.00371577 -0.00539848 -0.0066083 -0.00734524 -0.0076093 -0.00740047 -0.00671876 -0.00556416 -0.00426006 -0.00312984 -0.0021735 -0.00139104 -0.00078246 -0.00034776 -8.694e-05 0 0 -5.29931e-05 -0.000211973 -0.000476938 -0.00084789 -0.00132483 -0.00190775 -0.00259666 -0.00339156 -0.00426929 -0.0052067 -0.0062038 -0.00726057 -0.00837703 -0.00955317 -0.010789 -0.0120845 -0.0134103 -0.0147371 -0.0160648 -0.0173936 -0.0187232 -0.0200539 -0.0213854 -0.022718 -0.024038 -0.025332 -0.0265999 -0.0278419 -0.0290577 -0.0302476 -0.0314114 -0.0325491 -0.0335831 -0.0344356 -0.0351066 -0.035596 -0.0359039 -0.0360304 -0.0359753 -0.0357387 -0.0354231 -0.035131 -0.0348624 -0.0346173 -0.0343957 -0.0341977 -0.0340232 -0.0338722 -0.0337455 -0.033644 -0.0335677 -0.0335166 -0.0334906 -0.0334898 -0.0335143 -0.0335639 -0.0332885 -0.032338 -0.0307125 -0.0284118 -0.025436 -0.0217851 -0.0174592 -0.0124581 -0.00683898 -0.000658863 0.00608225 0.0133844 0.0212474 0.0296715 0.0386566 0.0482027 0.0577956 0.0669209 0.0755789 0.0837693 0.0914923 0.0987478 0.105536 0.111856 0.117552 0.122465 0.126595 0.129942 0.132507 0.134289 0.135289 0.135506 0.134963 0.133684 0.131668 0.128916 0.125427 0.121202 0.11624 0.110542 0.104296 0.09769 0.0907246 0.0833996 0.0757149 0.0676707 0.0592668 0.0505033 0.0419136 0.0340312 0.0268561 0.0203882 0.0146276 0.00957429 0.00522824 0.00158946 -0.00140011 -0.00379856 -0.00560588 -0.00682207 -0.00744714 -0.00748107 -0.00692387 -0.00577555 -0.00442191 -0.00324875 -0.00225607 -0.00144389 -0.000812187 -0.000360972 -9.0243e-05 0 0 -6.12962e-05 -0.000245185 -0.000551666 -0.00098074 -0.00153241 -0.00220666 -0.00300352 -0.00392296 -0.00492248 -0.00595955 -0.00703418 -0.00814636 -0.00929609 -0.0104834 -0.0117082 -0.0129706 -0.0142368 -0.0154728 -0.0166787 -0.0178545 -0.0190001 -0.0201157 -0.0212012 -0.0222565 -0.0232891 -0.0243062 -0.0253078 -0.026294 -0.0272648 -0.02822 -0.0291599 -0.0300842 -0.0309218 -0.0316013 -0.0321227 -0.0324859 -0.0326911 -0.0327381 -0.0326271 -0.0323579 -0.0320452 -0.0318034 -0.0316327 -0.0315329 -0.0315041 -0.0315463 -0.0316594 -0.0318436 -0.0320723 -0.0323191 -0.032584 -0.032867 -0.0331681 -0.0334874 -0.0338247 -0.0341802 -0.0341222 -0.0332191 -0.031471 -0.0288778 -0.0254395 -0.0211562 -0.0160278 -0.0100543 -0.00330432 0.00415372 0.0123198 0.0211939 0.0307761 0.0410663 0.0520645 0.0637708 0.0755556 0.0867894 0.0974721 0.107604 0.117184 0.126214 0.134693 0.14262 0.149782 0.155962 0.161161 0.165379 0.168616 0.170872 0.172147 0.172441 0.171782 0.1702 0.167695 0.164266 0.159914 0.154639 0.14844 0.141318 0.133518 0.125285 0.11662 0.107522 0.0979912 0.088028 0.0776322 0.0668037 0.0561802 0.0463991 0.0374605 0.0293644 0.0221108 0.0156997 0.010131 0.00540483 0.00146126 -0.0017596 -0.00425772 -0.00603312 -0.0070858 -0.00741575 -0.00702297 -0.00590747 -0.0045229 -0.00332295 -0.0023076 -0.00147687 -0.000830737 -0.000369217 -9.23041e-05 0 0 -6.85741e-05 -0.000274296 -0.000617167 -0.00109719 -0.00171435 -0.00246867 -0.00336013 -0.00438874 -0.00548601 -0.00658344 -0.00768103 -0.00877878 -0.0098767 -0.0109748 -0.012073 -0.0131714 -0.0142321 -0.0152173 -0.0161268 -0.0169608 -0.0177193 -0.0184021 -0.0190095 -0.0195412 -0.0200366 -0.020535 -0.0210362 -0.0215404 -0.0220475 -0.0225575 -0.0230704 -0.0235863 -0.0240483 -0.0244 -0.0246412 -0.0247719 -0.0247923 -0.0247021 -0.0245016 -0.0241906 -0.0238959 -0.0237441 -0.0237352 -0.0238694 -0.0241464 -0.0245664 -0.0251294 -0.0258353 -0.0266199 -0.027419 -0.0282325 -0.0290604 -0.0299028 -0.0307596 -0.0316309 -0.0325166 -0.0328891 -0.0322206 -0.0305111 -0.0277607 -0.0239694 -0.0191371 -0.0132638 -0.00634959 0.00152543 0.0102811 0.0199174 0.0304344 0.041832 0.0541103 0.0672692 0.0813088 0.0954694 0.108991 0.121875 0.134119 0.145725 0.156692 0.167021 0.176711 0.185482 0.193055 0.19943 0.204606 0.208583 0.211362 0.212943 0.213325 0.212543 0.210634 0.207598 0.203433 0.19814 0.19172 0.184172 0.175496 0.165999 0.155988 0.145463 0.134425 0.122872 0.110806 0.0982256 0.0851315 0.0722743 0.0604047 0.0495228 0.0396285 0.0307218 0.0228027 0.0158713 0.00992744 0.00491082 0.000760963 -0.00252214 -0.00493848 -0.00648807 -0.00717089 -0.00698696 -0.00593627 -0.00454496 -0.00333915 -0.00231886 -0.00148407 -0.000834788 -0.000371017 -9.27543e-05 0 0 -7.48267e-05 -0.000299307 -0.00067344 -0.00119723 -0.00187067 -0.00269376 -0.00366651 -0.00478891 -0.00595989 -0.00707837 -0.00814435 -0.00915784 -0.0101188 -0.0110273 -0.0118833 -0.0126868 -0.0133964 -0.0139705 -0.0144093 -0.0147126 -0.0148806 -0.0149132 -0.0148103 -0.0145721 -0.0142807 -0.0140184 -0.0137851 -0.013581 -0.0134059 -0.0132599 -0.013143 -0.0130552 -0.0129627 -0.0128317 -0.0126621 -0.0124541 -0.0122075 -0.0119224 -0.0115989 -0.0112368 -0.0109752 -0.0109529 -0.0111701 -0.0116268 -0.0123228 -0.0132582 -0.0144331 -0.0158474 -0.0173885 -0.0189437 -0.0205132 -0.0220968 -0.0236946 -0.0253066 -0.0269328 -0.0285731 -0.0295892 -0.0293425 -0.027833 -0.0250607 -0.0210257 -0.0157279 -0.00916728 -0.00134391 0.00765027 0.0177233 0.0288751 0.0411058 0.0544152 0.0688035 0.0842707 0.100817 0.117537 0.133527 0.148786 0.163316 0.177114 0.190183 0.202521 0.214129 0.224654 0.233745 0.241401 0.247622 0.252408 0.255759 0.257676 0.258158 0.257247 0.254987 0.251377 0.246416 0.240106 0.232446 0.223436 0.213075 0.201739 0.189798 0.177255 0.164108 0.150358 0.136004 0.121047 0.105487 0.090196 0.076048 0.0630428 0.0511802 0.0404604 0.0308833 0.0224489 0.0151573 0.00894858 0.00376311 -0.00039913 -0.00353815 -0.00565394 -0.00674651 -0.00681586 -0.00586197 -0.00448807 -0.00329736 -0.00228983 -0.00146549 -0.00082434 -0.000366373 -9.15934e-05 0 0 -8.00541e-05 -0.000320216 -0.000720487 -0.00128087 -0.00200135 -0.00288195 -0.00392265 -0.00512346 -0.00634412 -0.00744435 -0.00842416 -0.00928354 -0.0100225 -0.010641 -0.0111392 -0.0115169 -0.0117295 -0.0117326 -0.0115261 -0.0111099 -0.0104841 -0.00964874 -0.00860374 -0.00734913 -0.00602123 -0.00475638 -0.00355457 -0.0024158 -0.00134007 -0.00032738 0.000622265 0.00150887 0.00233511 0.00310366 0.00381453 0.00446771 0.0050632 0.00560101 0.00608113 0.00650357 0.00671697 0.00657 0.00606264 0.00519491 0.0039668 0.00237831 0.000429435 -0.00187981 -0.00437792 -0.00689334 -0.0094261 -0.0119762 -0.0145436 -0.0171283 -0.0197304 -0.0223498 -0.0242226 -0.0245848 -0.0234366 -0.0207778 -0.0166084 -0.0109286 -0.00373818 0.00496274 0.0150702 0.0264802 0.0391928 0.053208 0.0685257 0.0851461 0.103069 0.122294 0.141758 0.160396 0.178207 0.195193 0.211352 0.226686 0.241193 0.254874 0.267298 0.278031 0.287074 0.294427 0.300091 0.304064 0.306347 0.306941 0.305894 0.303258 0.299032 0.293216 0.285811 0.276816 0.266231 0.254057 0.240737 0.226717 0.211995 0.196572 0.180448 0.163623 0.146096 0.127869 0.109945 0.093329 0.0780205 0.0640198 0.0513268 0.0399416 0.0298641 0.0210943 0.0135745 0.00724686 0.0021113 -0.00183213 -0.00458343 -0.0061426 -0.00650965 -0.00568457 -0.00435225 -0.00319757 -0.00222054 -0.00142114 -0.000799393 -0.000355286 -8.88214e-05 0 0 -8.42562e-05 -0.000337025 -0.000758306 -0.0013481 -0.00210641 -0.00303322 -0.00412855 -0.0053924 -0.00663869 -0.00768137 -0.00852043 -0.00915588 -0.00958771 -0.00981593 -0.00984054 -0.00966153 -0.00923161 -0.00850348 -0.00747715 -0.00615261 -0.00452986 -0.0026089 -0.000389738 0.002