<?xml version="1.0"?> 
<VTKFile type="StructuredGrid" version="0.1"> 
<StructuredGrid WholeExtent="0 128 0 128 0 0"> 
<Piece Extent="0 128 0 128 0 0"> 
<PointData>
<DataArray type="Float32" Name="u" format="ascii" NumberOfComponents="1"> 
0 0 0 0 0 0 0 0 0 0 0 0 0 0 0 0 0 0 0 0 0 0 0 0 0 0 0 0 0 0 0 0 0 0 0 0 0 0 0 0 0 0 0 0 0 0 0 0 0 0 0 0 0 0 0 0 0 0 0 0 0 0 0 0 0 0 0 0 0 0 0 0 0 0 0 0 0 0 0 0 0 0 0 0 0 0 0 0 0 0 0 0 0 0 0 0 0 0 0 0 0 0 0 0 0 0 0 0 0 0 0 0 0 0 0 0 0 0 0 0 0 0 0 0 0 0 0 0 0 0 -9.70617e-08 -3.88247e-07 -8.73555e-07 -1.55299e-06 -2.42654e-06 -3.49422e-06 -4.75602e-06 -6.21195e-06 -7.57134e-06 -8.54353e-06 -9.12853e-06 -9.32634e-06 -9.13695e-06 -8.56036e-06 -7.59658e-06 -6.24561e-06 -4.4307e-06 -2.07513e-06 8.21117e-07 4.25803e-06 8.23561e-06 1.27539e-05 1.78128e-05 2.34124e-05 2.91404e-05 3.45847e-05 3.97453e-05 4.46222e-05 4.92154e-05 5.35248e-05 5.75504e-05 6.12924e-05 6.44199e-05 6.66024e-05 6.78397e-05 6.8132e-05 6.74791e-05 6.58812e-05 6.33381e-05 5.985e-05 5.56213e-05 5.08566e-05 4.5556e-05 3.97194e-05 3.33468e-05 2.64383e-05 1.89938e-05 1.10133e-05 3.17174e-06 -3.85606e-06 -1.00701e-05 -1.54703e-05 -2.00567e-05 -2.38294e-05 -2.67883e-05 -2.89333e-05 -2.96736e-05 -2.84181e-05 -2.51668e-05 -1.99197e-05 -1.26767e-05 -3.43799e-06 7.79657e-06 2.10269e-05 3.61264e-05 5.29684e-05 7.15529e-05 9.18798e-05 0.000113949 0.000137761 0.000163316 0.000190612 0.000218615 0.000246285 0.000273623 0.000300629 0.000327304 0.000353646 0.000379656 0.000405335 0.000429491 0.000450933 0.000469662 0.000485678 0.00049898 0.000509569 0.000517445 0.000522607 0.000524904 0.000524182 0.000520443 0.000513686 0.000503912 0.000491119 0.000475309 0.00045648 0.000435674 0.000413929 0.000391245 0.000367623 0.000343063 0.000317563 0.000291125 0.000263749 0.000236599 0.000210841 0.000186475 0.000163501 0.000141918 0.000121728 0.000102929 8.55225e-05 6.97102e-05 5.56949e-05 4.34765e-05 3.30552e-05 2.44308e-05 1.76034e-05 1.2573e-05 9.33964e-06 7.15066e-06 5.25355e-06 3.6483e-06 2.33491e-06 1.31339e-06 5.83727e-07 1.45932e-07 0 0 -3.88247e-07 -1.55299e-06 -3.49422e-06 -6.21195e-06 -9.70617e-06 -1.39769e-05 -1.90241e-05 -2.48478e-05 -3.02853e-05 -3.41741e-05 -3.65141e-05 -3.73053e-05 -3.65478e-05 -3.42414e-05 -3.03863e-05 -2.49824e-05 -1.77228e-05 -8.30051e-06 3.28447e-06 1.70321e-05 3.29424e-05 5.10154e-05 7.12511e-05 9.36495e-05 0.000116562 0.000138339 0.000158981 0.000178489 0.000196861 0.000214099 0.000230202 0.00024517 0.00025768 0.000266409 0.000271359 0.000272528 0.000269916 0.000263525 0.000253352 0.0002394 0.000222485 0.000203426 0.000182224 0.000158878 0.000133387 0.000105753 7.59752e-05 4.40532e-05 1.26869e-05 -1.54242e-05 -4.02803e-05 -6.18811e-05 -8.02269e-05 -9.53175e-05 -0.000107153 -0.000115733 -0.000118695 -0.000113673 -0.000100667 -7.96787e-05 -5.0707e-05 -1.3752e-05 3.11863e-05 8.41077e-05 0.000144506 0.000211874 0.000286212 0.000367519 0.000455797 0.000551045 0.000653262 0.00076245 0.000874458 0.000985139 0.00109449 0.00120252 0.00130921 0.00141458 0.00151863 0.00162134 0.00171796 0.00180373 0.00187865 0.00194271 0.00199592 0.00203828 0.00206978 0.00209043 0.00209961 0.00209673 0.00208177 0.00205475 0.00201565 0.00196448 0.00190123 0.00182592 0.0017427 0.00165572 0.00156498 0.00147049 0.00137225 0.00127025 0.0011645 0.001055 0.000946396 0.000843364 0.0007459 0.000654003 0.000567674 0.000486912 0.000411717 0.00034209 0.000278841 0.00022278 0.000173906 0.000132221 9.77233e-05 7.04137e-05 5.02922e-05 3.73586e-05 2.86026e-05 2.10142e-05 1.45932e-05 9.33964e-06 5.25355e-06 2.33491e-06 5.83727e-07 0 0 -8.73555e-07 -3.49422e-06 -7.862e-06 -1.39769e-05 -2.18389e-05 -3.1448e-05 -4.28042e-05 -5.59075e-05 -6.8142e-05 -7.68918e-05 -8.21568e-05 -8.3937e-05 -8.22325e-05 -7.70433e-05 -6.83692e-05 -5.62105e-05 -3.98763e-05 -1.86761e-05 7.39005e-06 3.83223e-05 7.41205e-05 0.000114785 0.000160315 0.000210711 0.000262264 0.000311263 0.000357708 0.0004016 0.000442938 0.000481723 0.000517954 0.000551632 0.000579779 0.000599421 0.000610557 0.000613188 0.000607312 0.00059293 0.000570043 0.00053865 0.000500591 0.00045771 0.000410004 0.000357475 0.000300122 0.000237945 0.000170944 9.91198e-05 2.85456e-05 -3.47045e-05 -9.06306e-05 -0.000139233 -0.000180511 -0.000214464 -0.000241094 -0.0002604 -0.000267063 -0.000255763 -0.000226501 -0.000179277 -0.000114091 -3.09419e-05 7.01691e-05 0.000189242 0.000325138 0.000476716 0.000643976 0.000826919 0.00102554 0.00123985 0.00146984 0.00171551 0.00196753 0.00221656 0.00246261 0.00270566 0.00294573 0.00318281 0.00341691 0.00364801 0.00386542 0.0040584 0.00422696 0.0043711 0.00449082 0.00458612 0.004657 0.00470346 0.00472413 0.00471764 0.00468399 0.00462318 0.00453521 0.00442007 0.00427778 0.00410832 0.00392107 0.00372536 0.00352121 0.00330861 0.00308756 0.00285807 0.00262013 0.00237374 0.00212939 0.00189757 0.00167827 0.00147151 0.00127727 0.00109555 0.000926364 0.000769703 0.000627392 0.000501254 0.000391289 0.000297497 0.000219877 0.000158431 0.000113157 8.40568e-05 6.4356e-05 4.72819e-05 3.28347e-05 2.10142e-05 1.18205e-05 5.25355e-06 1.31339e-06 0 0 -1.55299e-06 -6.21195e-06 -1.39769e-05 -2.48478e-05 -3.88247e-05 -5.59075e-05 -7.60964e-05 -9.93912e-05 -0.000121141 -0.000136696 -0.000146056 -0.000149221 -0.000146191 -0.000136966 -0.000121545 -9.99297e-05 -7.08912e-05 -3.3202e-05 1.31379e-05 6.81285e-05 0.00013177 0.000204062 0.000285004 0.000374598 0.000466247 0.000553356 0.000635926 0.000713955 0.000787446 0.000856396 0.000920807 0.000980678 0.00103072 0.00106564 0.00108544 0.00109011 0.00107967 0.0010541 0.00101341 0.000957599 0.00088994 0.000813706 0.000728896 0.00063551 0.000533549 0.000423013 0.000303901 0.000176213 5.07478e-05 -6.16969e-05 -0.000161121 -0.000247525 -0.000320908 -0.00038127 -0.000428612 -0.000462934 -0.000474778 -0.00045469 -0.000402669 -0.000318715 -0.000202828 -5.50078e-05 0.000124745 0.000336431 0.000578023 0.000847495 0.00114485 0.00147008 0.00182319 0.00220418 0.00261305 0.0030498 0.00349783 0.00394056 0.00437797 0.00481007 0.00523686 0.00565833 0.0060745 0.00648536 0.00687185 0.00721493 0.0075146 0.00777085 0.00798368 0.00815311 0.00827912 0.00836171 0.00839846 0.00838692 0.00832709 0.00821898 0.00806259 0.00785791 0.00760494 0.00730369 0.00697078 0.00662286 0.00625993 0.00588197 0.005489 0.00508101 0.00465801 0.00421998 0.00378558 0.00337346 0.0029836 0.00261601 0.00227069 0.00194765 0.00164687 0.00136836 0.00111536 0.000891118 0.000695625 0.000528883 0.000390893 0.000281655 0.000201169 0.000149434 0.000114411 8.40568e-05 5.83727e-05 3.73586e-05 2.10142e-05 9.33964e-06 2.33491e-06 0 0 -2.42654e-06 -9.70617e-06 -2.18389e-05 -3.88247e-05 -6.06635e-05 -8.73555e-05 -0.000118901 -0.000155299 -0.000189283 -0.000213588 -0.000228213 -0.000233158 -0.000228424 -0.000214009 -0.000189915 -0.00015614 -0.000110768 -5.18782e-05 2.05279e-05 0.000106451 0.00020589 0.000318847 0.000445319 0.000585309 0.000728511 0.000864619 0.000993634 0.00111556 0.00123038 0.00133812 0.00143876 0.00153231 0.0016105 0.00166506 0.00169599 0.0017033 0.00168698 0.00164703 0.00158345 0.00149625 0.00139053 0.00127142 0.0011389 0.000992985 0.000833671 0.000660957 0.000474845 0.000275333 7.92934e-05 -9.64014e-05 -0.000251752 -0.000386757 -0.000501418 -0.000595735 -0.000669706 -0.000723334 -0.000741841 -0.000710453 -0.00062917 -0.000497992 -0.000316918 -8.59498e-05 0.000194914 0.000525673 0.000903161 0.00132421 0.00178882 0.002297 0.00284873 0.00344403 0.00408289 0.00476531 0.00546536 0.00615712 0.00684057 0.00751573 0.00818259 0.00884115 0.00949141 0.0101334 0.0107373 0.0112733 0.0117416 0.0121419 0.0124745 0.0127392 0.0129361 0.0130652 0.0131226 0.0131046 0.0130111 0.0128422 0.0125978 0.012278 0.0118827 0.011412 0.0108919 0.0103482 0.00978114 0.00919058 0.00857656 0.00793908 0.00727813 0.00659372 0.00591498 0.00527103 0.00466187 0.00408752 0.00354796 0.0030432 0.00257323 0.00213806 0.00174276 0.00139237 0.00108691 0.00082638 0.00061077 0.000440086 0.000314326 0.000233491 0.000178767 0.000131339 9.12074e-05 5.83727e-05 3.28347e-05 1.45932e-05 3.6483e-06 0 0 -3.49422e-06 -1.39769e-05 -3.1448e-05 -5.59075e-05 -8.73555e-05 -0.000125792 -0.000171217 -0.00022363 -0.000272568 -0.000307567 -0.000328627 -0.000335748 -0.00032893 -0.000308173 -0.000273477 -0.000224842 -0.000159505 -7.47046e-05 2.95602e-05 0.000153289 0.000296482 0.000459139 0.00064126 0.000842845 0.00104906 0.00124505 0.00143083 0.0016064 0.00177175 0.00192689 0.00207182 0.00220653 0.00231912 0.00239769 0.00244223 0.00245275 0.00242925 0.00237172 0.00228017 0.0021546 0.00200237 0.00183084 0.00164002 0.0014299 0.00120049 0.000951779 0.000683776 0.000396479 0.000114182 -0.000138818 -0.000362522 -0.00055693 -0.000722042 -0.000857858 -0.000964377 -0.0010416 -0.00106825 -0.00102305 -0.000906005 -0.000717108 -0.000456363 -0.000123768 0.000280676 0.000756969 0.00130055 0.00190686 0.0025759 0.00330767 0.00410217 0.0049594 0.00587936 0.00686205 0.00787012 0.00886625 0.00985043 0.0108227 0.0117829 0.0127313 0.0136676 0.0145921 0.0154617 0.0162336 0.0169078 0.0174844 0.0179633 0.0183445 0.018628 0.0188139 0.0188965 0.0188706 0.018736 0.0184927 0.0181408 0.0176803 0.0171111 0.0164333 0.0156843 0.0149014 0.0140848 0.0132344 0.0123503 0.0114323 0.0104805 0.00949496 0.00851757 0.00759028 0.0067131 0.00588603 0.00510906 0.0043822 0.00370545 0.00307881 0.00250957 0.00200502 0.00156516 0.00118999 0.000879509 0.000633724 0.00045263 0.000336227 0.000257424 0.000189128 0.000131339 8.40568e-05 4.72819e-05 2.10142e-05 5.25355e-06 0 0 -4.75602e-06 -1.90241e-05 -4.28042e-05 -7.60964e-05 -0.000118901 -0.000171217 -0.000233045 -0.000304385 -0.000370995 -0.000418633 -0.000447298 -0.00045699 -0.00044771 -0.000419458 -0.000372233 -0.000306035 -0.000217104 -0.000101681 4.02347e-05 0.000208643 0.000403545 0.000624939 0.000872826 0.00114721 0.00142788 0.00169465 0.00194752 0.00218649 0.00241155 0.00262271 0.00281997 0.00300333 0.00315658 0.00326352 0.00332415 0.00333847 0.00330648 0.00322818 0.00310357 0.00293265 0.00272544 0.00249197 0.00223224 0.00194625 0.001634 0.00129548 0.000930696 0.000539652 0.000155415 -0.000188947 -0.000493433 -0.000758044 -0.00098278 -0.00116764 -0.00131262 -0.00141773 -0.00145401 -0.00139249 -0.00123317 -0.000976064 -0.00062116 -0.000168462 0.000382032 0.00103032 0.0017702 0.00259545 0.00350609 0.00450211 0.00558351 0.0067503 0.00800246 0.00934001 0.0107121 0.012068 0.0134075 0.0147308 0.0160379 0.0173287 0.0186032 0.0198614 0.021045 0.0220957 0.0230134 0.0237982 0.02445 0.0249689 0.0253548 0.0256077 0.0257203 0.0256849 0.0255017 0.0251706 0.0246917 0.0240648 0.0232901 0.0223675 0.021348 0.0202825 0.019171 0.0180135 0.0168101 0.0155606 0.0142651 0.0129237 0.0115934 0.0103312 0.00913727 0.00801154 0.006954 0.00596467 0.00504354 0.0041906 0.0034158 0.00272905 0.00213035 0.0016197 0.00119711 0.000862568 0.000616079 0.000457642 0.000350382 0.000257424 0.000178767 0.000114411 6.4356e-05 2.86026e-05 7.15066e-06 0 0 -6.21195e-06 -2.48478e-05 -5.59075e-05 -9.93912e-05 -0.000155299 -0.00022363 -0.000304385 -0.000397565 -0.000484566 -0.000546786 -0.000584226 -0.000596885 -0.000584765 -0.000547863 -0.000486181 -0.000399719 -0.000283565 -0.000132808 5.25515e-05 0.000272514 0.000527079 0.000816247 0.00114002 0.00149839 0.00186499 0.00221342 0.0025437 0.00285582 0.00314978 0.00342558 0.00368323 0.00392271 0.00412288 0.00426255 0.00434174 0.00436045 0.00431866 0.00421639 0.00405364 0.0038304 0.00355976 0.00325482 0.00291558 0.00254204 0.0021342 0.00169205 0.0012156 0.000704852 0.000202991 -0.000246788 -0.000644484 -0.000990098 -0.00128363 -0.00152508 -0.00171445 -0.00185173 -0.00189911 -0.00181876 -0.00161068 -0.00127486 -0.000811311 -0.000220031 0.00049898 0.00134572 0.00231209 0.00338998 0.00457939 0.00588031 0.00729275 0.00881671 0.0104522 0.0121992 0.0139913 0.0157622 0.0175119 0.0192403 0.0209474 0.0226333 0.024298 0.0259414 0.0274874 0.0288597 0.0300584 0.0310834 0.0319347 0.0326124 0.0331165 0.0334468 0.0335938 0.0335477 0.0333084 0.0328759 0.0322503 0.0314316 0.0304198 0.0292148 0.0278831 0.0264915 0.0250397 0.0235279 0.021956 0.020324 0.018632 0.0168799 0.0151423 0.0134938 0.0119344 0.010464 0.00908278 0.00779059 0.00658747 0.00547344 0.00446145 0.00356447 0.0027825 0.00211553 0.00156357 0.00112662 0.000804675 0.000597737 0.000457642 0.000336227 0.000233491 0.000149434 8.40568e-05 3.73586e-05 9.33964e-06 0 0 -7.43198e-06 -2.97279e-05 -6.68878e-05 -0.000118912 -0.000185799 -0.000267551 -0.000364167 -0.000475647 -0.00057831 -0.000648478 -0.00068615 -0.000691326 -0.000664006 -0.000604191 -0.000511879 -0.000387072 -0.000224003 -1.69097e-05 0.00023421 0.000529355 0.000868525 0.00125172 0.00167894 0.00215019 0.0026316 0.00308932 0.00352334 0.00393367 0.0043203 0.00468323 0.00502247 0.00533802 0.00560277 0.00578962 0.00589857 0.00592962 0.00588278 0.00575804 0.0055554 0.00527486 0.00493323 0.00454731 0.0041171 0.0036426 0.0031238 0.00256072 0.00195334 0.00130168 0.000660985 8.65283e-05 -0.000421693 -0.000863678 -0.00123943 -0.00154894 -0.00179222 -0.00196926 -0.00203179 -0.00193154 -0.0016685 -0.00124268 -0.000654081 9.73066e-05 0.00101148 0.00208843 0.0033178 0.00468919 0.00620262 0.00785809 0.00965558 0.0115951 0.0136767 0.0159003 0.0181813 0.0204352 0.022662 0.0248616 0.0270341 0.0291795 0.0312978 0.0333889 0.0353558 0.0371016 0.0386261 0.0399295 0.0410116 0.0418726 0.0425123 0.0429309 0.0431157 0.0430543 0.0427467 0.0421928 0.0413927 0.0403464 0.0390538 0.0375149 0.0358144 0.0340367 0.0321818 0.0302498 0.0282406 0.0261543 0.0239908 0.0217502 0.0195274 0.0174172 0.0154199 0.0135352 0.0117633 0.0101041 0.00855766 0.00712393 0.00582005 0.0046631 0.0036531 0.00279004 0.00207393 0.00150476 0.00108253 0.000807249 0.00061805 0.000454078 0.000315332 0.000201812 0.000113519 5.04531e-05 1.26133e-05 0 0 -7.98609e-06 -3.19444e-05 -7.18748e-05 -0.000127777 -0.000199652 -0.000287499 -0.000391319 -0.00051111 -0.000617261 -0.000680161 -0.000699809 -0.000676205 -0.000609349 -0.000499241 -0.000345882 -0.00014927 9.64632e-05 0.000397189 0.000752908 0.00116362 0.00162932 0.00215002 0.00272571 0.00335639 0.00399896 0.0046103 0.00519041 0.00573929 0.00625695 0.00674339 0.00719859 0.00762257 0.007981 0.00823953 0.00839818 0.00845693 0.0084158 0.00827477 0.00803386 0.00769306 0.00727376 0.00679736 0.00626385 0.00567324 0.00502552 0.00432069 0.00355876 0.00273973 0.00193347 0.00120987 0.000568923 1.06319e-05 -0.000465003 -0.000857982 -0.00116831 -0.00139597 -0.00148027 -0.0013605 -0.00103665 -0.000508732 0.000223265 0.00115934 0.00229948 0.0036437 0.00517887 0.00689185 0.00878265 0.0108513 0.0130977 0.0155219 0.018124 0.0209039 0.0237555 0.0265731 0.0293564 0.0321056 0.0348205 0.0375014 0.040148 0.0427604 0.0452173 0.0473972 0.0493001 0.050926 0.0522749 0.0533468 0.0541417 0.0546596 0.0548846 0.0548005 0.0544075 0.0537056 0.0526946 0.0513747 0.0497459 0.047808 0.0456665 0.0434266 0.0410883 0.0386516 0.0361165 0.0334831 0.0307513 0.0279211 0.0251113 0.0224406 0.0199091 0.0175167 0.0152635 0.0131494 0.0111745 0.00933868 0.00766509 0.00617675 0.00487366 0.00375582 0.00282322 0.00207587 0.00151377 0.00113692 0.000870453 0.000639517 0.000444109 0.00028423 0.000159879 7.10574e-05 1.77643e-05 0 0 -7.87429e-06 -3.14972e-05 -7.08686e-05 -0.000125989 -0.000196857 -0.000283475 -0.00038584 -0.000503955 -0.000601419 -0.000641835 -0.000625203 -0.000551522 -0.000420793 -0.000233016 1.18104e-05 0.000313685 0.000677835 0.00110949 0.00160865 0.00217531 0.00280948 0.00351114 0.00428032 0.00511699 0.00596705 0.00677635 0.0075449 0.0082727 0.00895975 0.00960604 0.0102116 0.0107764 0.0112576 0.0116123 0.0118406 0.0119424 0.0119177 0.0117666 0.011489 0.011085 0.0105814 0.010005 0.00935584 0.00863396 0.00783934 0.00697198 0.00603187 0.00501901 0.00402045 0.00312324 0.00232736 0.00163283 0.00103964 0.000547796 0.000157292 -0.000131869 -0.000244558 -0.000105643 0.000284876 0.000926999 0.00182073 0.00296606 0.00436299 0.00601153 0.0078953 0.00999794 0.0123195 0.0148598 0.0176191 0.0205972 0.0237941 0.02721 0.0307141 0.0341758 0.0375951 0.0409721 0.0443067 0.0475989 0.0508487 0.0540562 0.0570719 0.0597466 0.0620803 0.0640729 0.0657245 0.0670351 0.0680046 0.068633 0.0689003 0.0687863 0.0682909 0.0674142 0.0661561 0.0645168 0.0624961 0.060094 0.0574395 0.0546611 0.0517591 0.0487333 0.0455837 0.0423104 0.0389134 0.0353926 0.0318941 0.0285639 0.025402 0.0224085 0.0195833 0.0169264 0.0144379 0.0121177 0.0099966 0.00810543 0.00644418 0.00501285 0.00381144 0.00283996 0.00209839 0.00158674 0.00121485 0.000892543 0.000619822 0.000396686 0.000223136 9.91715e-05 2.47929e-05 0 0 -7.09658e-06 -2.83863e-05 -6.38692e-05 -0.000113545 -0.000177414 -0.000255477 -0.000347732 -0.000454181 -0.000530784 -0.000533501 -0.000462332 -0.000317278 -9.83382e-05 0.000194487 0.000561198 0.00100179 0.00152011 0.00211999 0.00280143 0.00356442 0.00440898 0.00533509 0.00634277 0.007432 0.00853588 0.00958748 0.0105868 0.0115339 0.0124287 0.0132712 0.0140615 0.0147994 0.0154325 0.0159079 0.0162257 0.0163859 0.0163885 0.0162335 0.0159209 0.0154507 0.014856 0.0141701 0.0133931 0.0125248 0.0115653 0.0105146 0.00937265 0.00813952 0.00692192 0.00582663 0.00485363 0.00400292 0.00327451 0.00266839 0.00218457 0.00182305 0.00167536 0.00183304 0.00229609 0.00306451 0.0041383 0.00551747 0.00720201 0.00919192 0.0114671 0.0140075 0.016813 0.0198838 0.0232197 0.0268208 0.0306872 0.0348186 0.0390569 0.0432434 0.0473781 0.0514612 0.0554925 0.0594721 0.0633999 0.067276 0.0709196 0.0741499 0.0769668 0.0793703 0.0813605 0.0829374 0.0841009 0.0848511 0.085163 0.0850115 0.0843967 0.0833186 0.0817772 0.0797724 0.0773044 0.074373 0.0711333 0.0677404 0.0641942 0.0604948 0.0566421 0.0526362 0.0484771 0.0441646 0.0398757 0.0357871 0.0318987 0.0282106 0.0247228 0.0214352 0.018348 0.0154609 0.0128146 0.0104491 0.00836465 0.00656114 0.0050386 0.00379701 0.00283639 0.00215673 0.00165124 0.00121316 0.000842471 0.000539181 0.00030329 0.000134795 3.36988e-05 0 0 -5.65295e-06 -2.26118e-05 -5.08766e-05 -9.04472e-05 -0.000141324 -0.000203506 -0.000276995 -0.000361789 -0.000405354 -0.000355157 -0.000211196 2.65282e-05 0.000358016 0.000783266 0.00130228 0.00191506 0.0026233 0.00342869 0.00433125 0.00533096 0.00642784 0.00762187 0.00891306 0.0103014 0.0117054 0.0130437 0.0143162 0.0155229 0.0166638 0.0177389 0.0187482 0.0196918 0.0205057 0.0211264 0.0215537 0.0217876 0.0218283 0.0216755 0.0213295 0.02079 0.0200977 0.0192929 0.0183755 0.0173457 0.0162033 0.0149485 0.0135811 0.0121012 0.0106379 0.00932005 0.00814772 0.0071209 0.0062396 0.00550381 0.00491354 0.00446878 0.00427947 0.00445553 0.00499698 0.0059038 0.007176 0.00881357 0.0108165 0.0131849 0.0158943 0.0189205 0.0222634 0.0259232 0.0298997 0.0341929 0.038803 0.0437298 0.0487839 0.0537758 0.0587054 0.0635728 0.068378 0.0731209 0.0778016 0.08242 0.0867604 0.0906069 0.0939595 0.0968181 0.0991829 0.101054 0.102431 0.103314 0.103673 0.103476 0.102725 0.101419 0.0995578 0.0971418 0.0941708 0.0906449 0.0867481 0.0826644 0.0783938 0.0739362 0.0692919 0.0644606 0.0594424 0.0542373 0.0490563 0.0441102 0.0393991 0.034923 0.0306819 0.0266758 0.0229046 0.0193685 0.016119 0.0132078 0.0106351 0.0084007 0.00650468 0.00494704 0.00372777 0.00284686 0.00217963 0.00160136 0.00111206 0.000711716 0.00040034 0.000177929 4.44823e-05 0 0 -3.54341e-06 -1.41736e-05 -3.18907e-05 -5.66945e-05 -8.85852e-05 -0.000127563 -0.000173627 -0.000226778 -0.000225132 -0.000106804 0.000128205 0.000479896 0.000948268 0.00153332 0.00223506 0.00305347 0.00398738 0.00503559 0.00619811 0.00747493 0.00886604 0.0103715 0.0119912 0.0137252 0.0154758 0.017145 0.0187329 0.0202396 0.021665 0.023009 0.0242718 0.0254533 0.0264773 0.0272677 0.0278244 0.0281475 0.0282369 0.0280926 0.0277147 0.0271032 0.0263065 0.0253732 0.0243032 0.0230967 0.0217535 0.0202737 0.0186573 0.0169042 0.0151683 0.0136035 0.0122096 0.0109868 0.00993491 0.00905405 0.00834419 0.00780533 0.00756778 0.00776185 0.00838755 0.00944486 0.0109338 0.0128544 0.0152066 0.0179904 0.0211768 0.0247369 0.0286706 0.0329779 0.0376589 0.0427135 0.0481417 0.0539436 0.0598953 0.0657731 0.0715771 0.0773071 0.0829632 0.0885454 0.0940538 0.0994882 0.104594 0.109118 0.113058 0.116416 0.119192 0.121384 0.122994 0.124021 0.124429 0.124181 0.123276 0.121715 0.119498 0.116625 0.113095 0.10891 0.104284 0.099433 0.0943576 0.0890576 0.0835328 0.0777834 0.0718093 0.0656106 0.0594357 0.0535333 0.0479033 0.0425458 0.0374607 0.0326481 0.028108 0.0238402 0.0199098 0.0163816 0.0132555 0.0105315 0.0082097 0.00629004 0.00477252 0.00365716 0.00280001 0.00205715 0.00142858 0.00091429 0.000514288 0.000228572 5.71431e-05 0 0 -7.67951e-07 -3.0718e-06 -6.91156e-06 -1.22872e-05 -1.91988e-05 -2.76462e-05 -3.76296e-05 -4.91489e-05 9.88409e-06 0.000211557 0.000555871 0.00104283 0.00167242 0.00244465 0.00335953 0.00441704 0.00561238 0.0069407 0.00840201 0.00999631 0.0117236 0.0135839 0.0155772 0.0177034 0.0198468 0.0218914 0.0238371 0.0256841 0.0274323 0.0290817 0.0306323 0.0320841 0.0333473 0.0343319 0.0350379 0.0354654 0.0356144 0.0354848 0.0350767 0.03439 0.0334823 0.032411 0.0311762 0.0297777 0.0282158 0.0264902 0.0246011 0.0225484 0.0205133 0.018677 0.0170394 0.0156005 0.0143604 0.0133191 0.0124765 0.0118327 0.0115403 0.011752 0.0124678 0.0136877 0.0154117 0.0176399 0.0203721 0.0236084 0.0273147 0.0314567 0.0360345 0.0410481 0.0464974 0.0523824 0.0587033 0.0654598 0.0723909 0.0792353 0.085993 0.0926639 0.0992481 0.105746 0.112156 0.118481 0.124421 0.129682 0.134264 0.138165 0.141387 0.143929 0.145791 0.146973 0.147432 0.147124 0.146049 0.144207 0.141598 0.138221 0.134078 0.129168 0.12374 0.118046 0.112086 0.105859 0.0993651 0.0926048 0.0855779 0.0782844 0.071014 0.0640563 0.0574112 0.0510789 0.0450592 0.0393522 0.0339579 0.0288763 0.0241872 0.0199703 0.0162258 0.0129536 0.0101536 0.00782601 0.00597066 0.00458761 0.00351239 0.00258053 0.00179204 0.0011469 0.000645133 0.000286726 7.16814e-05 0 0 2.67342e-06 1.06937e-05 2.40608e-05 4.27747e-05 6.68355e-05 9.62431e-05 0.000130998 0.000171099 0.000299694 0.000599928 0.0010718 0.00171532 0.00253047 0.00351726 0.0046757 0.00600577 0.00749827 0.009144 0.010943 0.0128951 0.0150005 0.0172591 0.019671 0.022236 0.0248186 0.0272828 0.0296288 0.0318564 0.0339658 0.0359569 0.0378297 0.0395842 0.0411156 0.0423189 0.0431942 0.0437415 0.0439608 0.0438521 0.0434154 0.0426506 0.0416252 0.0404064 0.0389943 0.0373889 0.0355901 0.033598 0.0314126 0.0290338 0.0266727 0.0245404 0.0226369 0.0209622 0.0195162 0.018299 0.0173105 0.0165509 0.016197 0.0164259 0.0172377 0.0186323 0.0206098 0.02317 0.0263131 0.030039 0.034308 0.03908 0.0443552 0.0501336 0.0564151 0.0631998 0.0704876 0.0782786 0.0862708 0.0941624 0.101953 0.109643 0.117233 0.124722 0.13211 0.139397 0.146241 0.152301 0.157575 0.162064 0.165768 0.168687 0.170821 0.17217 0.172683 0.172308 0.171045 0.168895 0.165857 0.161932 0.157119 0.151418 0.145118 0.138504 0.131578 0.12434 0.116789 0.108925 0.100748 0.0922589 0.0837912 0.0756792 0.0679229 0.0605222 0.0534773 0.046788 0.0404545 0.0344766 0.0289509 0.0239741 0.0195461 0.0156669 0.0123365 0.00955495 0.00732218 0.00563822 0.00431676 0.0031715 0.00220243 0.00140955 0.000792874 0.000352389 8.80972e-05 0 0 7.33141e-06 2.93256e-05 6.59827e-05 0.000117303 0.000183285 0.000263931 0.000359239 0.00046921 0.000688864 0.00111322 0.00174228 0.00257603 0.00361449 0.00485766 0.00630552 0.00795808 0.00980048 0.0118178 0.0140102 0.0163774 0.0189197 0.0216369 0.024529 0.0275962 0.0306806 0.0336246 0.0364283 0.0390916 0.0416145 0.0439971 0.0462392 0.0483411 0.0501812 0.0516385 0.0527128 0.0534042 0.0537127 0.0536383 0.0531809 0.0523406 0.0511955 0.0498234 0.0482244 0.0463986 0.0443458 0.0420662 0.0395596 0.0368262 0.0341092 0.0316521 0.0294549 0.0275175 0.0258401 0.0244224 0.0232647 0.0223668 0.0219321 0.0221635 0.0230613 0.0246253 0.0268557 0.0297522 0.0333151 0.0375443 0.0423938 0.0478177 0.0538161 0.0603889 0.0675361 0.0752578 0.0835539 0.0924244 0.101524 0.110509 0.119378 0.128132 0.136771 0.145294 0.153701 0.161994 0.169781 0.176672 0.182668 0.187769 0.191974 0.195284 0.197699 0.199218 0.199782 0.199332 0.197868 0.195389 0.191896 0.187388 0.181866 0.17533 0.168105 0.160517 0.152567 0.144254 0.135578 0.12654 0.117139 0.107376 0.0976305 0.0882853 0.0793397 0.0707939 0.0626478 0.0549014 0.0475547 0.0406078 0.0341761 0.0283749 0.0232042 0.0186642 0.0147547 0.0114758 0.00882753 0.0068098 0.00521375 0.00383051 0.00266008 0.00170245 0.000957628 0.000425612 0.000106403 0 0 1.37567e-05 5.50269e-05 0.00012381 0.000220108 0.000343918 0.000495242 0.000674079 0.00088043 0.00122196 0.00180634 0.00263357 0.00370364 0.00501657 0.00657234 0.00837096 0.0104124 0.0126744 0.0151345 0.0177928 0.0206493 0.023704 0.0269568 0.0304077 0.0340569 0.0377223 0.041222 0.0445562 0.0477246 0.0507275 0.0535647 0.0562363 0.0587422 0.0609433 0.0627002 0.0640131 0.0648818 0.0653065 0.065287 0.0648234 0.0639158 0.0626535 0.0611259 0.0593332 0.0572752 0.054952 0.0523636 0.04951 0.0463912 0.0432852 0.04047 0.0379458 0.0357124 0.0337699 0.0321183 0.0307575 0.0296876 0.0291396 0.0293446 0.0303025 0.0320133 0.0344771 0.0376938 0.0416635 0.0463861 0.0518092 0.0578806 0.0646003 0.0719681 0.0799842 0.0886485 0.097961 0.107922 0.118141 0.128231 0.138189 0.148018 0.157716 0.167283 0.17672 0.186027 0.194764 0.202495 0.209218 0.214934 0.219642 0.223343 0.226037 0.227723 0.228333 0.2278 0.226122 0.2233 0.219333 0.214223 0.207968 0.200569 0.19239 0.183794 0.174782 0.165354 0.155509 0.145248 0.13457 0.123476 0.112395 0.101758 0.0915632 0.0818117 0.0725034 0.0636381 0.0552159 0.0472367 0.0398374 0.0331545 0.0271881 0.0219381 0.0174047 0.0135877 0.0104872 0.00810316 0.00620399 0.00455803 0.0031653 0.00202579 0.00113951 0.000506448 0.000126612 0 0 2.19494e-05 8.77974e-05 0.000197544 0.00035119 0.000548734 0.000790177 0.00107552 0.00140476 0.00189899 0.0026793 0.00374568 0.00509815 0.00673669 0.00866131 0.010872 0.0133688 0.01612 0.0190941 0.022291 0.0257108 0.0293534 0.0332188 0.0373071 0.0416182 0.0459437 0.050075 0.0540124 0.0577556 0.0613047 0.0646598 0.0678208 0.0707876 0.0734017 0.0755042 0.0770951 0.0781744 0.0787422 0.0787984 0.078343 0.077376 0.0759991 0.074314 0.0723205 0.0700187 0.0674087 0.0644904 0.0612638 0.0577288 0.0542007 0.0509943 0.0481097 0.0455468 0.0433058 0.0413865 0.0397889 0.0385132 0.0378198 0.0379691 0.0389613 0.0407963 0.0434741 0.0469948 0.0513582 0.0565645 0.0625544 0.0692689 0.0767079 0.0848713 0.0937593 0.103372 0.113709 0.12477 0.136121 0.147327 0.158386 0.1693 0.180067 0.190689 0.201166 0.211496 0.221193 0.229769 0.237225 0.243559 0.248772 0.252864 0.255835 0.257685 0.258336 0.25771 0.255807 0.252627 0.24817 0.242436 0.235425 0.227137 0.217973 0.208336 0.198225 0.187639 0.17658 0.165048 0.153041 0.14056 0.128085 0.116097 0.104593 0.0935758 0.0830441 0.0729981 0.0634378 0.0543633 0.0459349 0.038313 0.0314976 0.0254887 0.0202864 0.0158905 0.0123012 0.00951832 0.00728746 0.00535405 0.00371809 0.00237958 0.00133851 0.000594895 0.000148724 0 0 3.19093e-05 0.000127637 0.000287184 0.000510549 0.000797733 0.00114874 0.00156356 0.0020422 0.00271994 0.00373208 0.00507861 0.00675954 0.00877486 0.0111246 0.0138087 0.0168272 0.0201374 0.0236965 0.0275047 0.0315618 0.0358679 0.040423 0.045227 0.0502801 0.0553447 0.0601837 0.0647969 0.0691844 0.0733462 0.0772823 0.0809927 0.0844774 0.0875565 0.0900503 0.0919588 0.093282 0.0940198 0.0941723 0.0937395 0.0927214 0.0912325 0.0893876 0.0871865 0.0846292 0.0817159 0.0784464 0.0748209 0.0708392 0.0668557 0.0632248 0.0599465 0.0570208 0.0544476 0.052227 0.050359 0.0488436 0.0479724 0.0480371 0.0490377 0.0509743 0.0538467 0.0576551 0.0623994 0.0680795 0.0746293 0.0819824 0.0901388 0.0990986 0.108862 0.119428 0.130798 0.142971 0.155465 0.167797 0.179968 0.191978 0.203826 0.215513 0.227038 0.238402 0.249067 0.258496 0.266688 0.273644 0.279363 0.283847 0.287093 0.289104 0.28979 0.289063 0.286923 0.283371 0.278405 0.272027 0.264236 0.255033 0.244855 0.234142 0.222894 0.211111 0.198793 0.18594 0.172552 0.158628 0.144701 0.131302 0.11843 0.106086 0.0942699 0.0829814 0.0722206 0.0619875 0.0524686 0.0438503 0.0361328 0.0293159 0.0233998 0.0183842 0.0142694 0.0110553 0.00846418 0.00621858 0.00431846 0.00276381 0.00155465 0.000690954 0.000172738 0 0 4.36366e-05 0.000174546 0.000392729 0.000698185 0.00109091 0.00157092 0.00213819 0.00279274 0.00368482 0.0049647 0.00663237 0.00868783 0.0111311 0.0139621 0.017181 0.0207876 0.0247264 0.0289418 0.0334338 0.0382024 0.0432476 0.0485693 0.0541676 0.0600426 0.0659255 0.0715479 0.0769098 0.0820112 0.086852 0.0914324 0.0957521 0.0998114 0.103408 0.106339 0.108604 0.110205 0.111139 0.111409 0.111013 0.109952 0.108354 0.106347 0.103931 0.101107 0.0978736 0.0942318 0.0901814 0.0857222 0.0812503 0.0771616 0.0734563 0.0701342 0.0671954 0.0646399 0.0624677 0.0606788 0.0595976 0.0595486 0.0605318 0.0625472 0.0655949 0.0696748 0.0747869 0.0809312 0.0880339 0.0960212 0.104893 0.11465 0.125291 0.136817 0.149227 0.162522 0.176171 0.189642 0.202936 0.216053 0.228992 0.241753 0.254337 0.266744 0.278386 0.288674 0.297608 0.305189 0.311417 0.316292 0.319813 0.32198 0.322695 0.321859 0.319471 0.315531 0.31004 0.302997 0.294403 0.284257 0.273035 0.261213 0.248791 0.235769 0.222147 0.207925 0.193102 0.17768 0.162242 0.147373 0.133073 0.119343 0.106181 0.093588 0.0815641 0.0701093 0.0594385 0.0497666 0.0410937 0.0334198 0.0267449 0.0210689 0.016392 0.012714 0.00973415 0.00715162 0.0049664 0.0031785 0.0017879 0.000794624 0.000198656 0 0 5.71312e-05 0.000228525 0.000514181 0.000914099 0.00142828 0.00205672 0.00279943 0.0036564 0.00479363 0.00637715 0.00840694 0.010883 0.0138053 0.017174 0.0209889 0.02525 0.0298872 0.03483 0.0400784 0.0456326 0.0514923 0.0576578 0.0641289 0.0709056 0.077686 0.0841678 0.0903511 0.0962358 0.101822 0.10711 0.112099 0.11679 0.120955 0.124369 0.127031 0.128942 0.130101 0.130508 0.130164 0.129067 0.127362 0.125191 0.122554 0.119451 0.115882 0.111847 0.107345 0.102378 0.0973843 0.0928048 0.088639 0.0848872 0.0815493 0.0786252 0.076115 0.0740187 0.0726952 0.0725035 0.0734435 0.0755152 0.0787186 0.0830538 0.0885208 0.0951194 0.102768 0.111385 0.120971 0.131525 0.143048 0.155538 0.168998 0.183426 0.198241 