<?xml version="1.0"?> 
<VTKFile type="StructuredGrid" version="0.1"> 
<StructuredGrid WholeExtent="0 128 0 128 0 0"> 
<Piece Extent="0 128 0 128 0 0"> 
<PointData>
<DataArray type="Float32" Name="u" format="ascii" NumberOfComponents="1"> 
0 0 0 0 0 0 0 0 0 0 0 0 0 0 0 0 0 0 0 0 0 0 0 0 0 0 0 0 0 0 0 0 0 0 0 0 0 0 0 0 0 0 0 0 0 0 0 0 0 0 0 0 0 0 0 0 0 0 0 0 0 0 0 0 0 0 0 0 0 0 0 0 0 0 0 0 0 0 0 0 0 0 0 0 0 0 0 0 0 0 0 0 0 0 0 0 0 0 0 0 0 0 0 0 0 0 0 0 0 0 0 0 0 0 0 0 0 0 0 0 0 0 0 0 0 0 0 0 0 0 -2.03817e-07 -8.15267e-07 -1.83435e-06 -3.26107e-06 -5.09542e-06 -7.3374e-06 -9.98702e-06 -1.30443e-05 -1.61756e-05 -1.90474e-05 -2.16598e-05 -2.40127e-05 -2.61062e-05 -2.79401e-05 -2.95146e-05 -3.08296e-05 -3.16215e-05 -3.16267e-05 -3.08452e-05 -2.92769e-05 -2.69219e-05 -2.37802e-05 -1.98517e-05 -1.51365e-05 -1.00766e-05 -5.1139e-06 -2.48482e-07 4.51969e-06 9.1906e-06 1.37643e-05 1.82407e-05 2.26198e-05 2.64219e-05 2.91671e-05 3.08554e-05 3.14869e-05 3.10614e-05 2.95791e-05 2.70399e-05 2.34438e-05 1.89506e-05 1.37199e-05 7.75171e-06 1.04613e-06 -6.39689e-06 -1.45774e-05 -2.34953e-05 -3.31506e-05 -4.27209e-05 -5.13835e-05 -5.91386e-05 -6.5986e-05 -7.19258e-05 -7.69579e-05 -8.10825e-05 -8.42994e-05 -8.58242e-05 -8.48723e-05 -8.14438e-05 -7.55385e-05 -6.71566e-05 -5.62981e-05 -4.29628e-05 -2.71509e-05 -8.99531e-06 1.1371e-05 3.39479e-05 5.87355e-05 8.57338e-05 0.000114943 0.000146362 0.000179993 0.000214488 0.000248502 0.000282035 0.000315087 0.000347657 0.000379747 0.000411356 0.000442483 0.000471628 0.000497288 0.000519464 0.000538155 0.000553363 0.000565085 0.000573324 0.000578078 0.000579298 0.000576935 0.000570989 0.000561459 0.000548346 0.00053165 0.000511371 0.000487508 0.000461493 0.000434757 0.000407299 0.000379119 0.000350218 0.000320596 0.000290252 0.000259186 0.000228734 0.000200229 0.000173671 0.000149061 0.000126399 0.000105684 8.69174e-05 7.00978e-05 5.51899e-05 4.21578e-05 3.10015e-05 2.17211e-05 1.43164e-05 8.78755e-06 5.13451e-06 3.35729e-06 2.57042e-06 1.88847e-06 1.31144e-06 8.39321e-07 4.72118e-07 2.0983e-07 5.24576e-08 0 0 -8.15267e-07 -3.26107e-06 -7.3374e-06 -1.30443e-05 -2.03817e-05 -2.93496e-05 -3.99481e-05 -5.21771e-05 -6.47024e-05 -7.61898e-05 -8.66393e-05 -9.6051e-05 -0.000104425 -0.000111761 -0.000118058 -0.000123319 -0.000126486 -0.000126507 -0.000123381 -0.000117108 -0.000107688 -9.51206e-05 -7.94068e-05 -6.0546e-05 -4.03063e-05 -2.04556e-05 -9.93928e-07 1.80787e-05 3.67624e-05 5.5057e-05 7.29627e-05 9.04793e-05 0.000105688 0.000116668 0.000123422 0.000125948 0.000124246 0.000118316 0.00010816 9.37752e-05 7.58022e-05 5.48794e-05 3.10069e-05 4.18453e-06 -2.55876e-05 -5.83095e-05 -9.39811e-05 -0.000132603 -0.000170884 -0.000205534 -0.000236554 -0.000263944 -0.000287703 -0.000307832 -0.00032433 -0.000337198 -0.000343297 -0.000339489 -0.000325775 -0.000302154 -0.000268627 -0.000225192 -0.000171851 -0.000108604 -3.59812e-05 4.54838e-05 0.000135792 0.000234942 0.000342935 0.000459771 0.00058545 0.000719971 0.000857951 0.000994007 0.00112814 0.00126035 0.00139063 0.00151899 0.00164542 0.00176993 0.00188651 0.00198915 0.00207786 0.00215262 0.00221345 0.00226034 0.0022933 0.00231231 0.00231719 0.00230774 0.00228395 0.00224584 0.00219338 0.0021266 0.00204548 0.00195003 0.00184597 0.00173903 0.0016292 0.00151648 0.00140087 0.00128238 0.00116101 0.00103674 0.000914935 0.000800915 0.000694685 0.000596246 0.000505597 0.000422738 0.000347669 0.000280391 0.00022076 0.000168631 0.000124006 8.68842e-05 5.72656e-05 3.51502e-05 2.0538e-05 1.34291e-05 1.02817e-05 7.55389e-06 5.24576e-06 3.35729e-06 1.88847e-06 8.39321e-07 2.0983e-07 0 0 -1.83435e-06 -7.3374e-06 -1.65091e-05 -2.93496e-05 -4.58587e-05 -6.60366e-05 -8.98831e-05 -0.000117398 -0.00014558 -0.000171427 -0.000194938 -0.000216115 -0.000234956 -0.000251461 -0.000265632 -0.000277467 -0.000284594 -0.00028464 -0.000277607 -0.000263492 -0.000242297 -0.000214021 -0.000178665 -0.000136229 -9.06892e-05 -4.60251e-05 -2.23634e-06 4.06772e-05 8.27154e-05 0.000123878 0.000164166 0.000203578 0.000237797 0.000262504 0.000277699 0.000283382 0.000279553 0.000266212 0.000243359 0.000210994 0.000170555 0.000123479 6.97654e-05 9.41519e-06 -5.7572e-05 -0.000131196 -0.000211457 -0.000298356 -0.000384488 -0.000462452 -0.000532247 -0.000593874 -0.000647332 -0.000692622 -0.000729742 -0.000758695 -0.000772418 -0.000763851 -0.000732994 -0.000679847 -0.00060441 -0.000506683 -0.000386665 -0.000244358 -8.09578e-05 0.000102339 0.000305531 0.00052862 0.000771604 0.00103449 0.00131726 0.00161993 0.00193039 0.00223652 0.00253831 0.00283578 0.00312892 0.00341772 0.0037022 0.00398235 0.00424465 0.00447559 0.00467518 0.0048434 0.00498026 0.00508577 0.00515991 0.0052027 0.00521368 0.00519241 0.0051389 0.00505313 0.00493512 0.00478485 0.00460234 0.00438757 0.00415344 0.00391281 0.00366569 0.00341207 0.00315196 0.00288536 0.00261227 0.00233268 0.0020586 0.00180206 0.00156304 0.00134155 0.00113759 0.00095116 0.000782256 0.00063088 0.000496709 0.00037942 0.000279014 0.000195489 0.000128848 7.90879e-05 4.62106e-05 3.02156e-05 2.31338e-05 1.69963e-05 1.1803e-05 7.55389e-06 4.24907e-06 1.88847e-06 4.72118e-07 0 0 -3.26107e-06 -1.30443e-05 -2.93496e-05 -5.21771e-05 -8.15267e-05 -0.000117398 -0.000159792 -0.000208708 -0.00025881 -0.000304759 -0.000346557 -0.000384204 -0.000417699 -0.000447042 -0.000472234 -0.000493274 -0.000505945 -0.000506028 -0.000493523 -0.00046843 -0.00043075 -0.000380483 -0.000317627 -0.000242184 -0.000161225 -8.18225e-05 -3.97571e-06 7.2315e-05 0.00014705 0.000220228 0.000291851 0.000361917 0.000422751 0.000466674 0.000493687 0.00050379 0.000496983 0.000473266 0.000432638 0.000375101 0.000303209 0.000219518 0.000124027 1.67381e-05 -0.00010235 -0.000233238 -0.000375924 -0.00053041 -0.000683534 -0.000822137 -0.000946217 -0.00105578 -0.00115081 -0.00123133 -0.00129732 -0.00134879 -0.00137319 -0.00135796 -0.0013031 -0.00120862 -0.00107451 -0.000900769 -0.000687405 -0.000434414 -0.000143925 0.000181935 0.000543166 0.000939768 0.00137174 0.00183908 0.0023418 0.00287988 0.00343181 0.00397603 0.00451256 0.00504139 0.00556252 0.00607595 0.00658169 0.00707973 0.00754604 0.00795661 0.00831142 0.00861049 0.0088538 0.00904137 0.00917318 0.00924925 0.00926877 0.00923096 0.00913582 0.00898334 0.00877354 0.0085064 0.00818193 0.00780013 0.00738389 0.00695611 0.00651678 0.00606591 0.00560349 0.00512953 0.00464403 0.00414698 0.00365974 0.00320366 0.00277874 0.00238498 0.00202239 0.00169095 0.00139068 0.00112156 0.000883038 0.000674525 0.000496024 0.000347537 0.000229062 0.000140601 8.21522e-05 5.37166e-05 4.11268e-05 3.02156e-05 2.0983e-05 1.34291e-05 7.55389e-06 3.35729e-06 8.39321e-07 0 0 -5.09542e-06 -2.03817e-05 -4.58587e-05 -8.15267e-05 -0.000127385 -0.000183435 -0.000249675 -0.000326107 -0.00040439 -0.000476186 -0.000541496 -0.000600318 -0.000652654 -0.000698503 -0.000737865 -0.000770741 -0.000790538 -0.000790668 -0.000771129 -0.000731922 -0.000673047 -0.000594504 -0.000496292 -0.000378413 -0.000251914 -0.000127848 -6.21205e-06 0.000112992 0.000229765 0.000344107 0.000456017 0.000565496 0.000660548 0.000729178 0.000771386 0.000787172 0.000776536 0.000739478 0.000675997 0.000586095 0.000473764 0.000342996 0.000193793 2.61533e-05 -0.000159922 -0.000364434 -0.000587382 -0.000828766 -0.00106802 -0.00128459 -0.00147846 -0.00164965 -0.00179814 -0.00192395 -0.00202706 -0.00210749 -0.00214561 -0.00212181 -0.00203609 -0.00188846 -0.00167892 -0.00140745 -0.00107407 -0.000678772 -0.000224883 0.000284274 0.000848698 0.00146839 0.00214335 0.00287357 0.00365906 0.00449982 0.0053622 0.00621255 0.00705087 0.00787716 0.00869143 0.00949367 0.0102839 0.0110621 0.0117907 0.0124322 0.0129866 0.0134539 0.0138341 0.0141271 0.0143331 0.0144519 0.0144825 0.0144234 0.0142747 0.0140365 0.0137087 0.0132913 0.0127843 0.0121877 0.0115373 0.0108689 0.0101825 0.00947798 0.00875546 0.00801489 0.00725629 0.00647965 0.00571834 0.00500572 0.00434178 0.00372654 0.00315998 0.00264211 0.00217293 0.00175244 0.00137975 0.00105394 0.000775038 0.000543026 0.00035791 0.000219689 0.000128363 8.39321e-05 6.42606e-05 4.72118e-05 3.2786e-05 2.0983e-05 1.1803e-05 5.24576e-06 1.31144e-06 0 0 -7.3374e-06 -2.93496e-05 -6.60366e-05 -0.000117398 -0.000183435 -0.000264146 -0.000359533 -0.000469594 -0.000582321 -0.000685708 -0.000779754 -0.000864459 -0.000939822 -0.00100584 -0.00106253 -0.00110987 -0.00113838 -0.00113856 -0.00111043 -0.00105397 -0.000969188 -0.000856086 -0.000714661 -0.000544914 -0.000362757 -0.000184101 -8.94535e-06 0.000162709 0.000330862 0.000495513 0.000656664 0.000814314 0.000951189 0.00105002 0.0011108 0.00113353 0.00111821 0.00106485 0.000973436 0.000843977 0.00068222 0.000493915 0.000279062 3.76607e-05 -0.000230288 -0.000524785 -0.00084583 -0.00119342 -0.00153795 -0.00184981 -0.00212899 -0.0023755 -0.00258933 -0.00277049 -0.00291897 -0.00303478 -0.00308967 -0.0030554 -0.00293198 -0.00271939 -0.00241764 -0.00202673 -0.00154666 -0.000977432 -0.000323831 0.000409355 0.00122212 0.00211448 0.00308642 0.00413794 0.00526905 0.00647974 0.00772156 0.00894607 0.0101533 0.0113431 0.0125157 0.0136709 0.0148088 0.0159294 0.0169786 0.0179024 0.0187007 0.0193736 0.0199211 0.0203431 0.0206397 0.0208108 0.0208547 0.0207697 0.0205556 0.0202125 0.0197405 0.0191394 0.0184093 0.0175503 0.0166138 0.0156512 0.0146628 0.0136483 0.0126079 0.0115414 0.0104491 0.0093307 0.00823441 0.00720823 0.00625217 0.00536621 0.00455037 0.00380464 0.00312902 0.00252352 0.00198684 0.00151768 0.00111605 0.000781958 0.00051539 0.000316352 0.000184842 0.000120862 9.25352e-05 6.7985e-05 4.72118e-05 3.02156e-05 1.69963e-05 7.55389e-06 1.88847e-06 0 0 -9.98702e-06 -3.99481e-05 -8.98831e-05 -0.000159792 -0.000249675 -0.000359533 -0.000489364 -0.000639169 -0.000792604 -0.000933325 -0.00106133 -0.00117662 -0.0012792 -0.00136907 -0.00144622 -0.00151065 -0.00154946 -0.00154971 -0.00151141 -0.00143457 -0.00131917 -0.00116523 -0.000972733 -0.000741689 -0.000493752 -0.000250581 -1.21756e-05 0.000221465 0.000450339 0.000674449 0.000893793 0.00110837 0.00129467 0.00142919 0.00151192 0.00154286 0.00152201 0.00144938 0.00132495 0.00114875 0.000928577 0.000672273 0.000379834 5.12605e-05 -0.000313448 -0.000714291 -0.00115127 -0.00162438 -0.00209332 -0.00251779 -0.00289779 -0.00323331 -0.00352436 -0.00377094 -0.00397304 -0.00413067 -0.00420539 -0.00415874 -0.00399074 -0.00370139 -0.00329068 -0.00275861 -0.00210518 -0.00133039 -0.00044077 0.000557177 0.00166345 0.00287804 0.00420096 0.0056322 0.00717176 0.00881964 0.0105099 0.0121766 0.0138197 0.0154392 0.0170352 0.0186076 0.0201564 0.0216817 0.0231098 0.0243671 0.0254537 0.0263696 0.0271148 0.0276892 0.0280929 0.0283258 0.0283856 0.0282698 0.0279784 0.0275115 0.026869 0.0260509 0.0250572 0.0238879 0.0226132 0.0213031 0.0199576 0.0185768 0.0171607 0.0157092 0.0142223 0.0127001 0.0112079 0.00981121 0.00850989 0.00730401 0.00619356 0.00517854 0.00425895 0.00343479 0.0027043 0.00206573 0.00151907 0.00106433 0.000701503 0.00043059 0.000251591 0.000164507 0.000125951 9.25352e-05 6.42606e-05 4.11268e-05 2.31338e-05 1.02817e-05 2.57042e-06 0 0 -1.30443e-05 -5.21771e-05 -0.000117398 -0.000208708 -0.000326107 -0.000469594 -0.000639169 -0.000834833 -0.00103524 -0.00121904 -0.00138623 -0.00153682 -0.0016708 -0.00178817 -0.00188894 -0.0019731 -0.00202378 -0.00202411 -0.00197409 -0.00187372 -0.001723 -0.00152193 -0.00127051 -0.000968736 -0.000644901 -0.00032729 -1.59028e-05 0.00028926 0.000588198 0.000880913 0.0011674 0.00144767 0.001691 0.0018667 0.00197475 0.00201516 0.00198793 0.00189306 0.00173055 0.0015004 0.00121284 0.000878071 0.00049611 6.69524e-05 -0.000409401 -0.000932951 -0.0015037 -0.00212164 -0.00273414 -0.00328855 -0.00378487 -0.0042231 -0.00460325 -0.00492531 -0.00518928 -0.00539516 -0.00549275 -0.00543183 -0.0052124 -0.00483447 -0.00429803 -0.00360308 -0.00274962 -0.00173766 -0.0005757 0.000727742 0.00217267 0.00375907 0.00548696 0.00735634 0.00936719 0.0115195 0.0137272 0.0159041 0.0180502 0.0201655 0.0222501 0.0243038 0.0263268 0.0283189 0.0301842 0.0318264 0.0332457 0.0344419 0.0354152 0.0361655 0.0366927 0.036997 0.0370751 0.0369238 0.0365433 0.0359334 0.0350942 0.0340256 0.0327277 0.0312005 0.0295356 0.0278244 0.0260671 0.0242636 0.022414 0.0205181 0.0185761 0.0165879 0.014639 0.0128146 0.011115 0.00953993 0.00808955 0.00676381 0.00556271 0.00448626 0.00353215 0.0026981 0.0019841 0.00139015 0.000916249 0.000562403 0.000328609 0.000214866 0.000164507 0.000120862 8.39321e-05 5.37166e-05 3.02156e-05 1.34291e-05 3.35729e-06 0 0 -1.60362e-05 -6.41449e-05 -0.000144326 -0.00025658 -0.000400906 -0.000577304 -0.000785775 -0.00102632 -0.00127168 -0.0014946 -0.00169508 -0.00187313 -0.00202873 -0.0021619 -0.00227263 -0.00236092 -0.00240594 -0.00238686 -0.00230367 -0.00215639 -0.001945 -0.00166951 -0.00132992 -0.000926234 -0.000494884 -7.2318e-05 0.000341465 0.000746465 0.00114268 0.00153012 0.00190877 0.00227863 0.00260037 0.00283464 0.00298143 0.00304074 0.00301259 0.00289695 0.00269385 0.00240327 0.00203844 0.0016126 0.00112573 0.000577849 -3.10544e-05 -0.000700977 -0.00143192 -0.00222388 -0.00300939 -0.00372098 -0.00435865 -0.0049224 -0.00541223 -0.00582813 -0.00617012 -0.00643819 -0.00656821 -0.00649605 -0.00622172 -0.00574521 -0.00506653 -0.00418568 -0.00310264 -0.00181744 -0.00034096 0.00131588 0.00315309 0.00517066 0.00736859 0.00974689 0.0123055 0.0150446 0.0178542 0.0206247 0.023356 0.0260481 0.0287011 0.031315 0.0338897 0.0364252 0.0387992 0.0408894 0.0426956 0.044218 0.0454565 0.0464111 0.0470819 0.0474687 0.0475675 0.0473739 0.0468881 0.0461099 0.0450393 0.0436765 0.0420213 0.0400738 0.0379502 0.0357669 0.0335239 0.0312211 0.0288585 0.0264362 0.0239542 0.0214124 0.0189196 0.0165846 0.0144074 0.012388 0.0105263 0.00882242 0.00727631 0.00588798 0.0046553 0.00357614 0.00265049 0.00187837 0.00125978 0.000794698 0.00048314 0.000325104 0.000248908 0.000182871 0.000126994 8.1276e-05 4.57177e-05 2.0319e-05 5.07975e-06 0 0 -1.849e-05 -7.39599e-05 -0.00016641 -0.00029584 -0.000462249 -0.000665639 -0.000906009 -0.00118336 -0.00146338 -0.00171177 -0.00192853 -0.00211366 -0.00226715 -0.00238901 -0.00247924 -0.00253783 -0.00254052 -0.00246304 -0.00230537 -0.00206752 -0.0017495 -0.0013513 -0.000872917 -0.000314358 0.000277616 0.000856242 0.00142152 0.00197345 0.00251203 0.00303727 0.00354915 0.00404769 0.00448298 0.00480511 0.00501409 0.00510991 0.00509258 0.0049621 0.00471846 0.00436166 0.00390885 0.00337714 0.00276655 0.00207706 0.00130869 0.000461422 -0.000464732 -0.00146978 -0.00246808 -0.003374 -0.00418755 -0.00490873 -0.00553753 -0.00607395 -0.006518 -0.00686968 -0.0070482 -0.0069728 -0.00664347 -0.00606022 -0.00522304 -0.00413193 -0.0027869 -0.00118794 0.00065111 0.00271643 0.00500801 0.00752586 0.01027 0.0132404 0.016437 0.0198599 0.0233715 0.0268343 0.0302482 0.0336132 0.0369293 0.0401966 0.0434151 0.0465847 0.0495523 0.0521649 0.0544225 0.0563252 0.0578728 0.0590654 0.0599029 0.0603855 0.0605073 0.0602624 0.0596508 0.0586726 0.0573277 0.0556162 0.053538 0.0510932 0.0484263 0.0456821 0.0428605 0.0399615 0.0369852 0.0339315 0.0308004 0.0275919 0.0244422 0.0214873 0.0187273 0.0161621 0.0137918 0.0116164 0.00963576 0.00785002 0.00625865 0.0048612 0.00365764 0.00264798 0.00183223 0.00121038 0.00078243 0.000548384 0.000419856 0.000308466 0.000214212 0.000137096 7.71164e-05 3.4274e-05 8.56849e-06 0 0 -2.04055e-05 -8.16221e-05 -0.00018365 -0.000326488 -0.000510138 -0.000734599 -0.00099987 -0.00130595 -0.00161035 -0.00187055 -0.00208657 -0.0022584 -0.00238605 -0.0024695 -0.00250877 -0.00250385 -0.00242754 -0.00225265 -0.00197918 -0.00160713 -0.0011365 -0.000567284 0.000100512 0.000866891 0.0016726 0.00245839 0.00322426 0.00397022 0.00469625 0.00540237 0.00608857 0.00675485 0.00733883 0.00777812 0.00807274 0.00822267 0.00822793 0.0080885 0.00780438 0.00737559 0.00682405 0.00617171 0.00541855 0.00456459 0.00360982 0.00255425 0.00139786 0.000140671 -0.0011102 -0.00224762 -0.00327158 -0.0041821 -0.00497916 -0.00566277 -0.00623293 -0.00668964 -0.00693274 -0.00686208 -0.00647767 -0.00577949 -0.00476755 -0.00344185 -0.0018024 0.00015082 0.00240051 0.00492939 0.00773745 0.0108247 0.0141911 0.0178368 0.0217616 0.0259656 0.0302792 0.0345329 0.0387268 0.0428607 0.0469347 0.0509488 0.054903 0.0587972 0.0624434 0.0656531 0.0684265 0.0707634 0.072664 0.0741282 0.0751559 0.0757473 0.0758943 0.0755891 0.0748315 0.0736216 0.0719593 0.0698448 0.067278 0.0642588 0.060964 0.0575701 0.0540771 0.0504851 0.046794 0.0430039 0.0391147 0.0351264 0.0312066 0.0275226 0.0240746 0.0208624 0.017886 0.0151456 0.012641 0.0103724 0.00834222 0.00655328 0.00500553 0.00369897 0.00263361 0.00180945 0.00122648 0.000884705 0.000677353 0.000497647 0.000345588 0.000221176 0.000124412 5.52941e-05 1.38235e-05 0 0 -2.17828e-05 -8.71314e-05 -0.000196046 -0.000348526 -0.000544571 -0.000784182 -0.00106736 -0.0013941 -0.00171258 -0.00197094 -0.00216921 -0.00230737 -0.00238542 -0.00240337 -0.00236121 -0.00225895 -0.00206698 -0.0017557 -0.00132511 -0.00077521 -0.000105996 0.000682529 0.00159037 0.00261751 0.00369007 0.00473413 0.00574969 0.00673677 0.00769534 0.00862542 0.00952701 0.0104001 0.0111679 0.0117537 0.0121574 0.012379 0.0124186 0.0122761 0.0119516 0.011445 0.0107841 0.00999629 0.00908175 0.00804044 0.00687235 0.00557749 0.00415586 0.00260746 0.00106424 -0.000341822 -0.00161074 -0.0027425 -0.00373712 -0.00459458 -0.0053149 -0.00589806 -0.00622182 -0.00616389 -0.00572429 -0.00490302 -0.00370006 -0.00211543 -0.000149127 0.00219885 0.00490724 0.00795475 0.0113414 0.0150672 0.0191321 0.0235361 0.0282792 0.0333615 0.0385772 0.0437206 0.0487918 0.0537906 0.0587171 0.0635714 0.0683533 0.073063 0.0774725 0.081354 0.0847074 0.0875328 0.0898302 0.0915995 0.0928409 0.0935541 0.0937287 0.0933541 0.0924301 0.0909568 0.0889342 0.0863623 0.0832411 0.0795706 0.0755631 0.0714307 0.0671736 0.0627917 0.0582849 0.0536534 0.0488971 0.044016 0.0392129 0.0346906 0.0304493 0.0264887 0.022809 0.0194102 0.0162922 0.013455 0.010906 0.00865239 0.00669416 0.00503134 0.00366392 0.00259191 0.00181529 0.00133407 0.0010214 0.000750414 0.000521121 0.000333517 0.000187603 8.33793e-05 2.08448e-05 0 0 -2.2622e-05 -9.04879e-05 -0.000203598 -0.000361951 -0.000565549 -0.000814391 -0.00110848 -0.00144781 -0.00177007 -0.00201294 -0.00217644 -0.00226055 -0.00226527 -0.00219062 -0.00203658 -0.00180315 -0.00145886 -0.000972191 -0.000343159 0.000428241 0.00134201 0.00239814 0.00359664 0.00493751 0.00633002 0.00768346 0.00899781 0.0102731 0.0115093 0.0127064 0.0138645 0.0149834 0.0159702 0.0167318 0.017268 0.017579 0.0176646 0.017525 0.0171602 0.01657 0.0157889 0.0148509 0.0137561 0.0125046 0.0110963 0.00953117 0.00780927 0.00593059 0.00405525 0.00234338 0.000794983 -0.000589945 -0.0018114 -0.00286939 -0.00376391 -0.00449496 -0.00491543 -0.00487823 -0.00438335 -0.0034308 -0.00202058 -0.000152672 0.00217291 0.00495616 0.0081713 0.0117925 0.0158198 0.0202533 0.0250927 0.0303383 0.03599 0.0420478 0.0482656 0.0543974 0.0604432 0.0664029 0.0722767 0.0780644 0.0837662 0.0893819 0.0946396 0.0992674 0.103265 0.106633 0.109371 0.111479 0.112958 0.113806 0.11401 0.113557 0.112447 0.110678 0.108252 0.105169 0.101427 0.0970286 0.0922237 0.0872641 0.08215 0.0768813 0.071458 0.0658801 0.0601476 0.0542605 0.048461 0.0429913 0.0378514 0.0330412 0.0285607 0.0244101 0.0205892 0.017098 0.01395 0.0111585 0.00872355 0.0066451 0.00492316 0.00355775 0.00254885 0.00189647 0.00145199 0.00106677 0.000740811 0.000474119 0.000266692 0.00011853 2.96324e-05 0 0 -2.29229e-05 -9.16915e-05 -0.000206306 -0.000366766 -0.000573072 -0.000825223 -0.00112322 -0.00146706 -0.00178282 -0.00199655 -0.00210826 -0.00211794 -0.0020256 -0.00183124 -0.00153486 -0.00113645 -0.000603156 9.78869e-05 0.000966679 0.00200322 0.00320751 0.00457955 0.00611934 0.00782688 0.00959246 0.0113064 0.0129686 0.0145792 0.0161381 0.0176454 0.019101 0.0205049 0.0217458 0.0227124 0.0234046 0.0238225 0.023966 0.0238352 0.02343 0.0227505 0.0218384 0.0207355 0.0194417 0.0179571 0.0162816 0.0144153 0.0123581 0.0101101 0.00786282 0.00580799 0.00394558 0.00227558 0.000797984 -0.000487196 -0.00157996 -0.00248032 -0.00301359 -0.0030051 -0.00245485 -0.00136285 0.00027091 0.00244643 0.0051637 0.00842274 0.0121927 0.0164427 0.0211728 0.026383 0.0320732 0.0382435 0.0448939 0.0520244 0.0593443 0.0665632 0.073681 0.0806977 0.0876134 0.094428 0.101141 0.107754 0.113945 0.119394 0.1241 0.128065 0.131288 0.133768 0.135506 0.136503 0.13674 0.136199 0.134881 0.132786 0.129914 0.126264 0.121837 0.116633 0.110946 0.10507 0.0990063 0.0927539 0.0863131 0.0796839 0.0728662 0.0658601 0.0589511 0.0524247 0.0462809 0.0405197 0.0351412 0.0301453 0.025532 0.0213013 0.0174742 0.0140717 0.0110937 0.00854023 0.00641133 0.00470698 0.00342718 0.00257192 0.00196913 0.00144671 0.00100466 0.000642981 0.000361677 0.000160745 4.01863e-05 0 0 -2.26856e-05 -9.07423e-05 -0.00020417 -0.000362969 -0.000567139 -0.00081668 -0.00111159 -0.00145188 -0.00175083 -0.00192177 -0.00196467 -0.00187956 -0.00166641 -0.00132525 -0.000856057 -0.000258841 0.000500115 0.00145453 0.0026044 0.00394973 0.00549052 0.00722676 0.00915846 0.0112856 0.0134774 0.0156029 0.0176621 0.0196551 0.0215818 0.0234423 0.0252365 0.0269644 0.0284946 0.0296955 0.0305672 0.0311096 0.0313227 0.0312066 0.0307612 0.0299866 0.0289328 0.0276501 0.0261385 0.0243979 0.0224283 0.0202298 0.0178023 0.0151459 0.012487 0.010052 0.00784105 0.00585406 0.00409104 0.002552 0.00123694 0.000145855 -0.000516282 -0.000544497 6.12107e-05 0.00130084 0.00317439 0.00568187 0.00882327 0.0125986 0.0169714 0.0219053 0.0274003 0.0334563 0.0400734 0.0472516 0.0549909 0.0632912 0.0718134 0.080218 0.0885052 0.096675 0.104727 0.112662 0.120479 0.128179 0.135388 0.141732 0.147212 0.151828 0.155579 0.158465 0.160487 0.161645 0.161916 0.161279 0.159734 0.15728 0.153918 0.149648 0.14447 0.138383 0.131729 0.124849 0.117743 0.11041 0.10285 0.0950649 0.0870529 0.0788147 0.070683 0.0629907 0.0557378 0.0489244 0.0425504 0.0366158 0.0311206 0.0260649 0.0214786 0.0173918 0.0138046 0.0107167 0.00812843 0.0060396 0.00445026 0.00336041 0.00257282 0.00189023 0.00131266 0.000840103 0.000472558 0.000210026 5.25065e-05 0 0 -2.19101e-05 -8.76402e-05 -0.000197191 -0.000350561 -0.000547751 -0.000788762 -0.00107359 -0.00140224 -0.00167411 -0.00178859 -0.00174568 -0.00154539 -0.0011877 -0.000672632 -1.73833e-07 0.000829672 0.00185096 0.00309774 0.00457001 0.00626777 0.00819102 0.0103398 0.012714 0.0153137 0.0179848 0.020573 0.0230783 0.0255008 0.0278404 0.0300971 0.032271 0.034362 0.0362166 0.0376812 0.0387558 0.0394403 0.0397348 0.0396393 0.0391537 0.0382782 0.037072 0.0355948 0.0338464 0.031827 0.0295364 0.0269747 0.0241419 0.021038 0.0179277 0.0150754 0.0124814 0.0101455 0.00806778 0.00624821 0.0046868 0.00338356 0.00257648 0.00250358 0.00316484 0.00456027 0.00668988 0.00955365 0.0131516 0.0174837 0.0225075 0.0281803 0.0345022 0.0414733 0.0490934 0.0573627 0.066281 0.0758484 0.0856728 0.0953619 0.104916 0.114335 0.123618 0.132766 0.14178 0.150657 0.158969 0.166284 0.172601 0.177922 0.182245 0.185571 0.1879 0.189232 0.18954 0.188797 0.187004 0.18416 0.180266 0.175321 0.169326 0.16228 0.154574 0.146601 0.138359 0.129848 0.12107 0.112023 0.102708 0.0931243 0.0836568 0.0746894 0.0662222 0.0582552 0.0507883 0.0438217 0.0373552 0.0313888 0.0259633 0.0211191 0.0168562 0.0131746 0.0100745 0.0075556 0.0056181 0.00426194 0.00326305 0.00239734 0.00166482 0.00106549 0.000599336 0.000266372 6.65929e-05 0 0 -1.98227e-05 -7.92909e-05 -0.000178405 -0.000317164 -0.000495568 -0.000713618 -0.000971313 -0.00126865 -0.00149005 -0.00151992 -0.00135827 -0.00100508 -0.000460362 0.000275883 0.00120366 0.00232296 0.00366689 0.00526854 0.00712791 0.00924501 0.0116198 0.0142524 0.0171426 0.0202906 0.0235163 0.0266395 0.0296602 0.0325786 0.0353944 0.0381079 0.0407189 0.0432275 0.045456 0.0472265 0.0485392 0.0493939 0.0497908 0.0497297 0.0492108 0.048234 0.0468689 0.0451853 0.043183 0.0408622 0.0382228 0.0352648 0.0319883 0.0283931 0.0247855 0.0214715 0.018451 0.0157243 0.0132911 0.0111515 0.00930557 0.00775324 0.00676813 0.00662385 0.00732039 0.00885775 0.0112359 0.0144549 0.0185148 0.0234154 0.0291077 0.0355425 0.0427197 0.0506395 0.0593017 0.0687063 0.0788534 0.089743 0.100927 0.111957 0.122834 0.133556 0.144125 0.15454 0.164801 0.174909 0.184371 0.192698 0.19989 0.205945 0.210865 0.214649 0.217298 0.21881 0.219155 0.2183 0.216244 0.212989 0.208533 0.202878 0.196022 0.187966 0.179153 0.170025 0.160582 0.150825 0.140754 0.130368 0.119667 0.108652 0.0977601 0.0874311 0.0776645 0.0684603 0.0598185 0.0517391 0.0442221 0.0372675 0.0309286 0.0252586 0.0202576 0.0159256 0.0122625 0.00926834 0.00694317 0.00528695 0.00404782 0.00297391 0.00206522 0.00132174 0.000743478 0.000330435 8.26086e-05 0 0 -1.565e-05 -6.25999e-05 -0.00014085 -0.000250399 -0.000391249 -0.000563399 -0.000766848 -0.0010016 -0.00113606 -0.00103867 -0.000709403 -0.000148275 0.000644719 0.00166958 0.0029263 0.00441489 0.00616542 0.00820797 0.0105425 0.0131691 0.0160877 0.0192984 0.022801 0.0265957 0.0304734 0.0342251 0.0378509 0.0413508 0.0447247 0.0479726 0.0510946 0.0540907 0.0567567 0.0588885 0.0604862 0.0615498 0.0620793 0.0620746 0.0615357 0.0604628 0.0589364 0.0570374 0.0547658 0.0521214 0.0491045 0.0457149 0.0419526 0.0378177 0.033661 0.0298332 0.0263344 0.0231646 0.0203238 0.017812 0.0156292 0.0137753 0.0125621 0.012301 0.0129922 0.0146356 0.0172311 0.0207789 0.0252789 0.0307311 0.0370791 0.0442667 0.0522938 0.0611604 0.0708666 0.0814123 0.0927975 0.105022 0.11758 0.129966 0.142179 0.154219 0.166087 0.177781 0.189303 0.200653 0.211278 0.220627 0.228701 0.235498 0.241019 0.245265 0.248234 0.249928 0.250307 0.249333 0.247007 0.243328 0.238296 0.231912 0.224175 0.215085 0.205135 0.194821 0.184141 0.173096 0.161685 0.149908 0.137766 0.125259 0.112881 0.101126 0.0899954 0.0794881 0.0696045 0.0603445 0.0517081 0.0436954 0.036375 0.0298159 0.024018 0.0189812 0.0147056 0.0111912 0.00843793 0.00644587 0.00493512 0.0036258 0.00251792 0.00161147 0.00090645 0.000402867 0.000100717 0 0 -9.39177e-06 -3.75671e-05 -8.4526e-05 -0.000150268 -0.000234794 -0.000338104 -0.000460197 -0.000601074 -0.000612144 -0.000344818 0.000200905 0.00102502 0.00212754 0.00350845 0.00516776 0.00710546 0.00934656 0.011916 0.0148139 0.0180401 0.0215948 0.0254778 0.0296892 0.0342289 0.0388562 0.04333 0.0476505 0.0518175 0.0558311 0.0596913 0.0633981 0.0669514 0.0701187 0.0726672 0.074597 0.075908 0.0766003 0.0766738 0.0761285 0.0749645 0.0732745 0.0711512 0.0685946 0.0656046 0.0621814 0.0583248 0.0540349 0.0493118 0.0445541 0.0401607 0.0361315 0.0324667 0.0291661 0.0262297 0.0236577 0.0214499 0.0199584 0.0195352 0.0201803 0.0218937 0.0246755 0.0285255 0.0334439 0.0394306 0.0464216 0.0543529 0.0632244 0.0730362 0.0837883 0.0954806 0.108113 0.121686 0.135633 0.149388 0.162952 0.176323 0.189503 0.20249 0.215286 0.22789 0.239689 0.25007 0.259034 0.266579 0.272707 0.277417 0.280709 0.282584 0.282995 0.281898 0.279292 0.275178 0.269555 0.262424 0.253784 0.243636 0.232523 0.220989 0.209035 0.196659 0.183862 0.170645 0.157006 0.142947 0.129019 0.115775 0.103215 0.0913385 0.0801462 0.0696377 0.0598131 0.0506724 0.0423027 0.0347909 0.0281372 0.0223415 0.0174038 0.0133241 0.0101024 0.0077387 0.00592494 0.00435302 0.00302293 0.00193467 0.00108825 0.000483669 0.000120917 0 0 -1.04816e-06 -4.19263e-06 -9.43342e-06 -1.67705e-05 -2.6204e-05 -3.77337e-05 -5.13598e-05 -6.70821e-05 8.17087e-05 0.000561622 0.00137266 0.00251482 0.0039881 0.0057925 0.00792803 0.0103947 0.0132103 0.0163927 0.019942 0.023858 0.0281409 0.0327906 0.0378071 0.0431904 0.0486647 0.0539542 0.0590588 0.0639787 0.0687137 0.0732639 0.0776293 0.0818098 0.0855421 0.0885626 0.0908714 0.0924685 0.0933538 0.0935274 0.0929892 0.0917393 0.0898832 0.0875266 0.0846695 0.0813117 0.0774535 0.0730947 0.0682353 0.0628754 0.0574649 0.0524539 0.0478424 0.0436303 0.0398177 0.0364046 0.033391 0.0307768 0.0289569 0.0283262 0.0288846 0.0306322 0.033569 0.0376949 0.0430099 0.0495141 0.0571352 0.0658011 0.0755116 0.0862668 0.0980667 0.110911 0.124801 0.139735 0.155085 0.170224 0.185152 0.199869 0.214374 0.228667 0.242749 0.25662 0.269604 0.281027 0.290889 0.29919 0.305929 0.311107 0.314723 0.316778 0.317219 0.315993 0.313099 0.308538 0.30231 0.294414 0.284851 0.27362 0.261315 0.24853 0.235263 0.221516 0.207287 0.192577 0.177387 0.161715 0.146174 0.131377 0.117323 0.104012 0.0914436 0.0796188 0.0685371 0.0581986 0.0487114 0.0401836 0.0326153 0.0260064 0.020357 0.015667 0.0119365 0.00916543 0.00701729 0.00515556 0.00358025 0.00229136 0.00128889 0.00057284 0.00014321 0 0 9.38089e-06 3.75235e-05 8.4428e-05 0.000150094 0.000234522 0.000337712 0.000459663 0.000600377 0.000945493 0.00168065 0.00280586 0.0043211 0.0062264 0.00852173 0.0112071 0.0142825 0.0177566 0.021638 0.0259268 0.0306228 0.0357261 0.0412368 0.0471547 0.05348 0.0598988 0.0660975 0.072076 0.0778343 0.0833724 0.0886904 0.0937882 0.0986658 0.103027 0.106575 0.10931 0.111231 0.11234 0.112635 0.112118 0.110787 0.108763 0.106164 0.10299 0.0992428 0.0949208 0.0900244 0.0845536 0.0785084 0.0723934 0.0667129 0.0614669 0.0566556 0.0522789 0.0483367 0.0448291 0.0417561 0.0395578 0.0386742 0.0391053 0.0408511 0.0439116 0.0482869 0.0539768 0.0609815 0.06922 0.0786112 0.0891553 0.100852 0.113702 0.127704 0.14286 0.159168 0.175937 0.192474 0.20878 0.224855 0.240699 0.256312 0.271693 0.286843 0.301024 0.313499 0.324267 0.333329 0.340684 0.346333 0.350276 0.352512 0.35298 0.351619 0.348428 0.343409 0.33656 0.327881 0.317374 0.305037 0.291513 0.277443 0.262827 0.247665 0.231958 0.215706 0.198907 0.181563 0.164347 0.147932 0.132319 0.117507 0.103497 0.0902878 0.0778802 0.066274 0.0556013 0.0459941 0.0374523 0.0299761 0.0235654 0.0182201 0.0139403 0.0107261 0.00821215 0.00603342 0.00418987 0.00268152 0.00150835 0.00067038 0.000167595 0 0 2.18954e-05 8.75814e-05 0.000197058 0.000350326 0.000547384 0.000788233 0.00107287 0.0014013 0.00197921 0.00301227 0.0045005 0.00644389 0.00884243 0.0116961 0.015005 0.018769 0.0229856 0.027652 0.0327683 0.0383344 0.0443505 0.0508164 0.0577321 0.0650978 0.0725586 0.07976 0.0867019 0.0933843 0.0998073 0.105971 0.111875 0.1