<?xml version="1.0"?> 
<VTKFile type="StructuredGrid" version="0.1"> 
<StructuredGrid WholeExtent="0 128 0 128 0 0"> 
<Piece Extent="0 128 0 128 0 0"> 
<PointData>
<DataArray type="Float32" Name="u" format="ascii" NumberOfComponents="1"> 
0 0 0 0 0 0 0 0 0 0 0 0 0 0 0 0 0 0 0 0 0 0 0 0 0 0 0 0 0 0 0 0 0 0 0 0 0 0 0 0 0 0 0 0 0 0 0 0 0 0 0 0 0 0 0 0 0 0 0 0 0 0 0 0 0 0 0 0 0 0 0 0 0 0 0 0 0 0 0 0 0 0 0 0 0 0 0 0 0 0 0 0 0 0 0 0 0 0 0 0 0 0 0 0 0 0 0 0 0 0 0 0 0 0 0 0 0 0 0 0 0 0 0 0 0 0 0 0 0 0 -3.05318e-07 -1.22127e-06 -2.74786e-06 -4.88508e-06 -7.63294e-06 -1.09914e-05 -1.49606e-05 -1.95403e-05 -2.48222e-05 -3.08975e-05 -3.77664e-05 -4.54289e-05 -5.38848e-05 -6.31343e-05 -7.31773e-05 -8.40138e-05 -9.53484e-05 -0.000106886 -0.000118625 -0.000130568 -0.000142712 -0.00015506 -0.00016761 -0.000180362 -0.000192945 -0.000204986 -0.000216486 -0.000227444 -0.000237861 -0.000247735 -0.000257068 -0.00026586 -0.000273825 -0.000280681 -0.000286426 -0.000291061 -0.000294586 -0.000297001 -0.000298306 -0.000298501 -0.000297902 -0.000296824 -0.00029527 -0.000293237 -0.000290726 -0.000287738 -0.000284272 -0.000280328 -0.000276016 -0.000271445 -0.000266615 -0.000261526 -0.000256178 -0.000250572 -0.000244706 -0.000238582 -0.000231638 -0.000223314 -0.00021361 -0.000202527 -0.000190063 -0.000176219 -0.000160995 -0.000144391 -0.000126539 -0.000107572 -8.74903e-05 -6.62932e-05 -4.39809e-05 -2.05535e-05 3.98916e-06 2.96469e-05 5.53406e-05 7.9991e-05 0.000103598 0.000126162 0.000147682 0.000168159 0.000187593 0.000205983 0.000222663 0.000236964 0.000248888 0.000258433 0.0002656 0.000270389 0.000272799 0.000272832 0.000270611 0.000266261 0.000259781 0.000251172 0.000240434 0.000227567 0.000212571 0.000195445 0.000177121 0.000158528 0.000139666 0.000120535 0.000101136 8.14681e-05 6.15316e-05 4.13264e-05 2.21129e-05 5.15138e-06 -9.55812e-06 -2.20156e-05 -3.22211e-05 -4.01746e-05 -4.58761e-05 -4.93255e-05 -5.10458e-05 -5.15597e-05 -5.08673e-05 -4.89685e-05 -4.58633e-05 -4.15518e-05 -3.60339e-05 -2.93097e-05 -2.24402e-05 -1.64867e-05 -1.14491e-05 -7.32742e-06 -4.12167e-06 -1.83185e-06 -4.57964e-07 0 0 -1.22127e-06 -4.88508e-06 -1.09914e-05 -1.95403e-05 -3.05318e-05 -4.39657e-05 -5.98423e-05 -7.81613e-05 -9.92887e-05 -0.00012359 -0.000151066 -0.000181715 -0.000215539 -0.000252537 -0.000292709 -0.000336055 -0.000381394 -0.000427542 -0.000474501 -0.00052227 -0.000570849 -0.000620239 -0.000670439 -0.000721449 -0.000771781 -0.000819946 -0.000865945 -0.000909777 -0.000951442 -0.000990941 -0.00102827 -0.00106344 -0.0010953 -0.00112272 -0.0011457 -0.00116424 -0.00117834 -0.001188 -0.00119322 -0.001194 -0.00119161 -0.0011873 -0.00118108 -0.00117295 -0.00116291 -0.00115095 -0.00113709 -0.00112131 -0.00110406 -0.00108578 -0.00106646 -0.0010461 -0.00102471 -0.00100229 -0.000978825 -0.000954327 -0.000926552 -0.000893257 -0.000854442 -0.000810106 -0.000760251 -0.000704875 -0.000643979 -0.000577563 -0.000506156 -0.000430289 -0.000349961 -0.000265173 -0.000175924 -8.22138e-05 1.59566e-05 0.000118588 0.000221363 0.000319964 0.000414392 0.000504647 0.000590728 0.000672636 0.000750371 0.000823933 0.000890651 0.000947857 0.00099555 0.00103373 0.0010624 0.00108155 0.0010912 0.00109133 0.00108244 0.00106504 0.00103912 0.00100469 0.000961738 0.000910269 0.000850284 0.000781781 0.000708483 0.00063411 0.000558663 0.000482141 0.000404544 0.000325873 0.000246126 0.000165306 8.84516e-05 2.06055e-05 -3.82325e-05 -8.80625e-05 -0.000128884 -0.000160698 -0.000183504 -0.000197302 -0.000204183 -0.000206239 -0.000203469 -0.000195874 -0.000183453 -0.000166207 -0.000144136 -0.000117239 -8.97609e-05 -6.59468e-05 -4.57964e-05 -2.93097e-05 -1.64867e-05 -7.32742e-06 -1.83185e-06 0 0 -2.74786e-06 -1.09914e-05 -2.47307e-05 -4.39657e-05 -6.86965e-05 -9.89229e-05 -0.000134645 -0.000175863 -0.0002234 -0.000278078 -0.000339898 -0.00040886 -0.000484963 -0.000568209 -0.000658596 -0.000756124 -0.000858136 -0.00096197 -0.00106763 -0.00117511 -0.00128441 -0.00139554 -0.00150849 -0.00162326 -0.00173651 -0.00184488 -0.00194838 -0.002047 -0.00214074 -0.00222962 -0.00231361 -0.00239274 -0.00246443 -0.00252613 -0.00257783 -0.00261955 -0.00265128 -0.00267301 -0.00268475 -0.00268651 -0.00268111 -0.00267142 -0.00265743 -0.00263913 -0.00261654 -0.00258964 -0.00255845 -0.00252295 -0.00248414 -0.002443 -0.00239953 -0.00235373 -0.0023056 -0.00225514 -0.00220236 -0.00214724 -0.00208474 -0.00200983 -0.00192249 -0.00182274 -0.00171056 -0.00158597 -0.00144895 -0.00129952 -0.00113885 -0.00096815 -0.000787413 -0.000596639 -0.000395828 -0.000184981 3.59025e-05 0.000266822 0.000498066 0.000719919 0.000932382 0.00113546 0.00132914 0.00151343 0.00168834 0.00185385 0.00200397 0.00213268 0.00223999 0.0023259 0.0023904 0.0024335 0.00245519 0.00245549 0.0024355 0.00239635 0.00233803 0.00226055 0.00216391 0.00204811 0.00191314 0.00175901 0.00159409 0.00142675 0.00125699 0.00108482 0.000910224 0.000733213 0.000553784 0.000371938 0.000199016 4.63625e-05 -8.60231e-05 -0.000198141 -0.00028999 -0.000361571 -0.000412884 -0.00044393 -0.000459412 -0.000464037 -0.000457805 -0.000440716 -0.00041277 -0.000373966 -0.000324305 -0.000263787 -0.000201962 -0.00014838 -0.000103042 -6.59468e-05 -3.70951e-05 -1.64867e-05 -4.12167e-06 0 0 -4.88508e-06 -1.95403e-05 -4.39657e-05 -7.81613e-05 -0.000122127 -0.000175863 -0.000239369 -0.000312645 -0.000397155 -0.000494361 -0.000604263 -0.000726862 -0.000862157 -0.00101015 -0.00117084 -0.00134422 -0.00152557 -0.00171017 -0.001898 -0.00208908 -0.0022834 -0.00248096 -0.00268175 -0.00288579 -0.00308712 -0.00327978 -0.00346378 -0.00363911 -0.00380577 -0.00396376 -0.00411309 -0.00425376 -0.0043812 -0.00449089 -0.00458282 -0.00465698 -0.00471338 -0.00475202 -0.0047729 -0.00477601 -0.00476642 -0.00474919 -0.00472431 -0.00469179 -0.00465162 -0.00460381 -0.00454835 -0.00448525 -0.00441625 -0.00434312 -0.00426584 -0.00418442 -0.00409885 -0.00400915 -0.0039153 -0.00381731 -0.00370621 -0.00357303 -0.00341777 -0.00324043 -0.003041 -0.0028195 -0.00257592 -0.00231025 -0.00202462 -0.00172116 -0.00139984 -0.00106069 -0.000703694 -0.000328855 6.38266e-05 0.000474351 0.00088545 0.00127986 0.00165757 0.00201859 0.00236291 0.00269055 0.00300148 0.00329573 0.0035626 0.00379143 0.0039822 0.00413492 0.0042496 0.00432622 0.00436479 0.00436531 0.00432977 0.00426017 0.0041565 0.00401876 0.00384695 0.00364108 0.00340113 0.00312712 0.00283393 0.00253644 0.00223465 0.00192856 0.00161818 0.00130349 0.000984506 0.000661223 0.000353806 8.24222e-05 -0.00015293 -0.00035225 -0.000515538 -0.000642793 -0.000734017 -0.000789208 -0.000816733 -0.000824955 -0.000813876 -0.000783496 -0.000733813 -0.000664829 -0.000576543 -0.000468955 -0.000359044 -0.000263787 -0.000183185 -0.000117239 -6.59468e-05 -2.93097e-05 -7.32742e-06 0 0 -7.63294e-06 -3.05318e-05 -6.86965e-05 -0.000122127 -0.000190824 -0.000274786 -0.000374014 -0.000488508 -0.000620554 -0.000772439 -0.000944161 -0.00113572 -0.00134712 -0.00157836 -0.00182943 -0.00210035 -0.00238371 -0.00267214 -0.00296563 -0.00326419 -0.00356781 -0.00387649 -0.00419024 -0.00450905 -0.00482363 -0.00512466 -0.00541215 -0.0056861 -0.00594651 -0.00619338 -0.00642671 -0.00664649 -0.00684563 -0.00701702 -0.00716065 -0.00727653 -0.00736466 -0.00742503 -0.00745765 -0.00746252 -0.00744754 -0.00742061 -0.00738174 -0.00733092 -0.00726816 -0.00719345 -0.0071068 -0.0070082 -0.0069004 -0.00678612 -0.00666537 -0.00653815 -0.00640446 -0.00626429 -0.00611765 -0.00596455 -0.00579095 -0.00558286 -0.00534026 -0.00506316 -0.00475157 -0.00440547 -0.00402487 -0.00360977 -0.00316348 -0.00268931 -0.00218726 -0.00165733 -0.00109952 -0.000513836 9.97291e-05 0.000741174 0.00138352 0.00199977 0.00258995 0.00315404 0.00369205 0.00420398 0.00468982 0.00514958 0.00556657 0.00592411 0.00622219 0.00646082 0.00664 0.00675972 0.00681999 0.0068208 0.00676527 0.00665652 0.00649453 0.00627931 0.00601086 0.00568918 0.00531427 0.00488613 0.00442802 0.00396319 0.00349164 0.00301338 0.0025284 0.0020367 0.00153829 0.00103316 0.000552822 0.000128785 -0.000238953 -0.00055039 -0.000805528 -0.00100436 -0.0011469 -0.00123314 -0.00127614 -0.00128899 -0.00127168 -0.00122421 -0.00114658 -0.00103879 -0.000900848 -0.000732742 -0.000561006 -0.000412167 -0.000286227 -0.000183185 -0.000103042 -4.57964e-05 -1.14491e-05 0 0 -1.09914e-05 -4.39657e-05 -9.89229e-05 -0.000175863 -0.000274786 -0.000395692 -0.00053858 -0.000703452 -0.000893598 -0.00111231 -0.00135959 -0.00163544 -0.00193985 -0.00227283 -0.00263438 -0.0030245 -0.00343254 -0.00384788 -0.00427051 -0.00470043 -0.00513764 -0.00558215 -0.00603395 -0.00649304 -0.00694603 -0.00737951 -0.0077935 -0.00818799 -0.00856298 -0.00891847 -0.00925446 -0.00957095 -0.00985771 -0.0101045 -0.0103113 -0.0104782 -0.0106051 -0.010692 -0.010739 -0.010746 -0.0107245 -0.0106857 -0.0106297 -0.0105565 -0.0104662 -0.0103586 -0.0102338 -0.0100918 -0.00993657 -0.00977201 -0.00959813 -0.00941493 -0.00922242 -0.00902058 -0.00880942 -0.00858895 -0.00833897 -0.00803931 -0.00768998 -0.00729096 -0.00684226 -0.00634387 -0.00579581 -0.00519806 -0.00455541 -0.0038726 -0.00314965 -0.00238655 -0.00158331 -0.000739924 0.00014361 0.00106729 0.00199226 0.00287968 0.00372953 0.00454182 0.00531656 0.00605373 0.00675334 0.00741539 0.00801586 0.00853071 0.00895995 0.00930358 0.00956159 0.00973399 0.00982078 0.00982195 0.00974199 0.00958538 0.00935212 0.00904221 0.00865564 0.00819242 0.00765255 0.00703603 0.00637635 0.00570699 0.00502797 0.00433927 0.0036409 0.00293285 0.00221514 0.00148775 0.000796064 0.00018545 -0.000344092 -0.000792562 -0.00115996 -0.00144628 -0.00165154 -0.00177572 -0.00183765 -0.00185615 -0.00183122 -0.00176287 -0.00165108 -0.00149586 -0.00129722 -0.00105515 -0.000807848 -0.000593521 -0.000412167 -0.000263787 -0.00014838 -6.59468e-05 -1.64867e-05 0 0 -1.49606e-05 -5.98423e-05 -0.000134645 -0.000239369 -0.000374014 -0.00053858 -0.000733068 -0.000957476 -0.00121629 -0.00151398 -0.00185056 -0.00222601 -0.00264036 -0.00309358 -0.00358569 -0.00411668 -0.00467207 -0.00523739 -0.00581264 -0.00639781 -0.0069929 -0.00759793 -0.00821287 -0.00883775 -0.00945431 -0.0100443 -0.0106078 -0.0111448 -0.0116552 -0.012139 -0.0125963 -0.0130271 -0.0134174 -0.0137534 -0.0140349 -0.014262 -0.0144347 -0.0145531 -0.014617 -0.0146265 -0.0145972 -0.0145444 -0.0144682 -0.0143686 -0.0142456 -0.0140992 -0.0139293 -0.0137361 -0.0135248 -0.0133008 -0.0130641 -0.0128148 -0.0125527 -0.012278 -0.0119906 -0.0116905 -0.0113503 -0.0109424 -0.0104669 -0.0099238 -0.00931307 -0.00863472 -0.00788874 -0.00707514 -0.00620041 -0.00527104 -0.00428702 -0.00324837 -0.00215506 -0.00100712 0.000195469 0.0014527 0.00271169 0.00391956 0.0050763 0.00618192 0.00723642 0.0082398 0.00919205 0.0100932 0.0109105 0.0116112 0.0121955 0.0126632 0.0130144 0.013249 0.0133672 0.0133688 0.0132599 0.0130468 0.0127293 0.0123074 0.0117813 0.0111508 0.010416 0.00957682 0.00867892 0.00776785 0.00684362 0.00590622 0.00495566 0.00399194 0.00301505 0.00202499 0.00108353 0.000252418 -0.000468348 -0.00107877 -0.00157883 -0.00196855 -0.00224793 -0.00241695 -0.00250124 -0.00252643 -0.0024925 -0.00239946 -0.0022473 -0.00203604 -0.00176566 -0.00143617 -0.00109957 -0.000807848 -0.000561006 -0.000359044 -0.000201962 -8.97609e-05 -2.24402e-05 0 0 -1.95403e-05 -7.81613e-05 -0.000175863 -0.000312645 -0.000488508 -0.000703452 -0.000957476 -0.00125058 -0.00158862 -0.00197744 -0.00241705 -0.00290745 -0.00344863 -0.00404059 -0.00468335 -0.00537688 -0.0061023 -0.00684067 -0.00759202 -0.00835632 -0.00913359 -0.00992382 -0.010727 -0.0115432 -0.0123485 -0.0131191 -0.0138551 -0.0145564 -0.0152231 -0.0158551 -0.0164524 -0.017015 -0.0175248 -0.0179636 -0.0183313 -0.0186279 -0.0188535 -0.0190081 -0.0190916 -0.019104 -0.0190657 -0.0189968 -0.0188973 -0.0187672 -0.0186065 -0.0184152 -0.0181934 -0.017941 -0.017665 -0.0173725 -0.0170633 -0.0167377 -0.0163954 -0.0160366 -0.0156612 -0.0152692 -0.0148248 -0.0142921 -0.0136711 -0.0129617 -0.012164 -0.011278 -0.0103037 -0.009241 -0.0080985 -0.00688462 -0.00559938 -0.00424276 -0.00281478 -0.00131542 0.000255306 0.0018974 0.0035418 0.00511942 0.00663027 0.00807435 0.00945165 0.0107622 0.0120059 0.0131829 0.0142504 0.0151657 0.0159288 0.0165397 0.0169984 0.0173049 0.0174592 0.0174612 0.0173191 0.0170407 0.016626 0.016075 0.0153878 0.0145643 0.0136045 0.0125085 0.0113357 0.0101458 0.00893861 0.00771425 0.0064727 0.00521396 0.00393802 0.00264489 0.00141523 0.000329689 -0.00061172 -0.001409 -0.00206215 -0.00257117 -0.00293607 -0.00315683 -0.00326693 -0.00329982 -0.00325551 -0.00313398 -0.00293525 -0.00265932 -0.00230617 -0.00187582 -0.00143617 -0.00105515 -0.000732742 -0.000468955 -0.000263787 -0.000117239 -2.93097e-05 0 0 -2.4516e-05 -9.80642e-05 -0.000220644 -0.000392257 -0.000612901 -0.000882578 -0.00120129 -0.00156903 -0.00199205 -0.00247662 -0.00302273 -0.00363039 -0.00429958 -0.00503032 -0.00582259 -0.00667641 -0.00756792 -0.00847327 -0.00939245 -0.0103255 -0.0112723 -0.012233 -0.0132076 -0.0141959 -0.0151699 -0.0161011 -0.0169896 -0.0178353 -0.0186384 -0.0193987 -0.0201163 -0.0207912 -0.0214022 -0.0219282 -0.0223692 -0.0227251 -0.022996 -0.0231819 -0.0232827 -0.0232986 -0.0232547 -0.0231763 -0.0230634 -0.0229161 -0.0227342 -0.0225179 -0.0222671 -0.0219819 -0.0216683 -0.0213328 -0.0209751 -0.0205955 -0.0201937 -0.01977 -0.0193242 -0.0188563 -0.0183184 -0.0176626 -0.0168888 -0.0159971 -0.0149874 -0.0138597 -0.012614 -0.0112504 -0.00977982 -0.00821311 -0.00655031 -0.00479142 -0.00293645 -0.000985392 0.00106175 0.00320499 0.00535355 0.00741669 0.00939441 0.0112867 0.0130936 0.014815 0.0164511 0.0180017 0.0194096 0.0206176 0.0216256 0.0224338 0.0230419 0.0234501 0.0236584 0.0236668 0.0234853 0.023124 0.022583 0.0218622 0.0209617 0.0198814 0.0186214 0.0171816 0.0156401 0.0140748 0.0124858 0.0108731 0.00923668 0.00757651 0.00589261 0.00418498 0.00255805 0.00111621 -0.000140532 -0.00121217 -0.00209871 -0.00280014 -0.00331648 -0.00364771 -0.00383552 -0.00392158 -0.0039059 -0.00378846 -0.00356927 -0.00324834 -0.00282566 -0.00230123 -0.00176188 -0.00129444 -0.000898916 -0.000575306 -0.00032361 -0.000143827 -3.59566e-05 0 0 -2.9673e-05 -0.000118692 -0.000267057 -0.000474769 -0.000741826 -0.00106823 -0.00145398 -0.00189907 -0.00240805 -0.00298545 -0.00363126 -0.00434548 -0.00512813 -0.00597919 -0.00689866 -0.00788656 -0.00891365 -0.00995072 -0.0109978 -0.0120548 -0.0131218 -0.0141988 -0.0152857 -0.0163827 -0.0174598 -0.0184874 -0.0194654 -0.0203939 -0.0212728 -0.0221022 -0.022882 -0.0236122 -0.024272 -0.0248403 -0.0253172 -0.0257027 -0.0259967 -0.0261993 -0.0263104 -0.0263302 -0.0262888 -0.0262164 -0.0261132 -0.0259792 -0.0258142 -0.0256183 -0.0253916 -0.0251339 -0.0248458 -0.0245274 -0.0241788 -0.0238 -0.023391 -0.0229519 -0.0224825 -0.0219829 -0.0213868 -0.0206281 -0.0197066 -0.0186223 -0.0173754 -0.0159657 -0.0143934 -0.0126583 -0.0107745 -0.00875624 -0.00660341 -0.00431602 -0.00189408 0.000662405 0.00335344 0.00617903 0.0090179 0.0117488 0.0143717 0.0168866 0.0192936 0.0215925 0.0237835 0.0258665 0.027762 0.0293904 0.0307518 0.0318461 0.0326733 0.0332335 0.0335266 0.0335527 0.0333242 0.0328536 0.032141 0.0311863 0.0299895 0.0285506 0.0268697 0.0249467 0.0228852 0.0207891 0.0186582 0.0164926 0.0142923 0.0120572 0.00978736 0.00748282 0.00527889 0.00331091 0.00157889 8.28189e-05 -0.0011773 -0.00220146 -0.00298968 -0.00354194 -0.00390783 -0.00413696 -0.00422932 -0.0041849 -0.00400371 -0.00368576 -0.00323103 -0.00263953 -0.00202089 -0.00148474 -0.00103107 -0.000659883 -0.000371184 -0.000164971 -4.12427e-05 0 0 -3.50113e-05 -0.000140045 -0.000315102 -0.000560181 -0.000875283 -0.00126041 -0.00171555 -0.00224072 -0.00283661 -0.00350391 -0.00424262 -0.00505273 -0.00593426 -0.0068872 -0.00791156 -0.00900732 -0.0101395 -0.011273 -0.0124079 -0.0135443 -0.0146819 -0.015821 -0.0169615 -0.0181033 -0.0192183 -0.0202781 -0.0212827 -0.0222321 -0.0231264 -0.0239654 -0.0247494 -0.0254781 -0.0261341 -0.0266999 -0.0271754 -0.0275606 -0.0278556 -0.0280602 -0.0281747 -0.0281988 -0.0281679 -0.0281173 -0.0280468 -0.0279565 -0.0278464 -0.0277165 -0.0275668 -0.0273973 -0.0271973 -0.0269564 -0.0266744 -0.0263514 -0.0259873 -0.0255822 -0.0251361 -0.024649 -0.02403 -0.0231884 -0.0221243 -0.0208375 -0.0193281 -0.0175962 -0.0156416 -0.0134645 -0.0110826 -0.00851403 -0.00575867 -0.00281655 0.000312329 0.00362797 0.00713037 0.0108195 0.0145349 0.0181157 0.0215621 0.0248741 0.0280516 0.0310946 0.0340032 0.0367774 0.0393075 0.0414841 0.0433072 0.0447766 0.0458926 0.046655 0.0470638 0.0471191 0.0468359 0.0462296 0.0453 0.0440472 0.0424712 0.0405719 0.0383494 0.0358037 0.0330712 0.0302886 0.0274557 0.0245727 0.0216394 0.018656 0.0156223 0.0125384 0.00957777 0.00691381 0.00454655 0.00247597 0.000702071 -0.000775139 -0.00195566 -0.0028395 -0.00348386 -0.00394595 -0.00422576 -0.0043233 -0.00423857 -0.00397157 -0.00352229 -0.00289074 -0.00221322 -0.00162604 -0.0011292 -0.000722686 -0.000406511 -0.000180671 -4.51679e-05 0 0 -4.05309e-05 -0.000162123 -0.000364778 -0.000648494 -0.00101327 -0.00145911 -0.00198601 -0.00259397 -0.00327773 -0.00403201 -0.00485681 -0.00575214 -0.00671799 -0.00775437 -0.00886127 -0.0100387 -0.0112454 -0.0124402 -0.013623 -0.0147939 -0.0159528 -0.0170998 -0.0182348 -0.0193579 -0.0204453 -0.0214731 -0.0224413 -0.0233499 -0.024199 -0.0249885 -0.0257184 -0.0263888 -0.0269887 -0.027507 -0.0279437 -0.0282989 -0.0285726 -0.0287648 -0.0288754 -0.0289045 -0.0288922 -0.0288787 -0.028864 -0.028848 -0.0288308 -0.0288123 -0.0287927 -0.0287718 -0.028723 -0.0286197 -0.0284619 -0.0282495 -0.0279825 -0.0276611 -0.0272851 -0.0268545 -0.0262479 -0.0253437 -0.024142 -0.0226426 -0.0208456 -0.018751 -0.0163588 -0.013669 -0.0107041 -0.00748647 -0.00401611 -0.000293022 0.00368278 0.00791131 0.0123925 0.0171265 0.0219044 0.0265175 0.0309657 0.0352491 0.0393677 0.0433214 0.0471103 0.0507343 0.0540463 0.0568988 0.0592918 0.0612255 0.0626997 0.0637145 0.0642699 0.0643658 0.0640205 0.0632519 0.0620601 0.060445 0.0584068 0.0559453 0.0530606 0.0497527 0.0461981 0.0425733 0.0388784 0.0351134 0.0312782 0.0273729 0.0233974 0.0193517 0.0154547 0.0119249 0.00876244 0.00596727 0.0035394 0.00147883 -0.000214437 -0.00154041 -0.00256361 -0.00334855 -0.00389524 -0.00420367 -0.00427385 -0.00410577 -0.00369944 -0.00305485 -0.00233887 -0.00171836 -0.0011933 -0.000763714 -0.000429589 -0.000190928 -4.77321e-05 0 0 -4.62317e-05 -0.000184927 -0.000416085 -0.000739707 -0.00115579 -0.00166434 -0.00226535 -0.00295883 -0.00373141 -0.00456975 -0.00547385 -0.00644371 -0.00747932 -0.00858068 -0.00974781 -0.0109807 -0.0122314 -0.0134522 -0.0146429 -0.0158037 -0.0169344 -0.0180351 -0.0191058 -0.0201465 -0.0211408 -0.0220724 -0.0229413 -0.0237474 -0.0244907 -0.0251714 -0.0257893 -0.0263444 -0.0268356 -0.0272615 -0.0276222 -0.0279177 -0.0281479 -0.0283129 -0.0284127 -0.0284473 -0.0284616 -0.0285008 -0.0285648 -0.0286537 -0.0287674 -0.0289059 -0.0290693 -0.0292575 -0.0294228 -0.0295174 -0.0295412 -0.0294943 -0.0293767 -0.0291884 -0.0289294 -0.0285996 -0.0280407 -0.027094 -0.0257596 -0.0240375 -0.0219277 -0.0194302 -0.016545 -0.013272 -0.009639 -0.00567357 -0.00137571 0.00325457 0.00821728 0.0135124 0.01914 0.0250999 0.0311266 0.0369541 0.0425824 0.0480117 0.0532418 0.0582728 0.0631046 0.0677373 0.0719782 0.0756343 0.0787058 0.0811926 0.0830947 0.0844121 0.0851449 0.085293 0.0848778 0.0839204 0.0824211 0.0803797 0.0777962 0.0746707 0.0710032 0.0667936 0.0622657 0.0576433 0.0529263 0.0481147 0.0432086 0.0382079 0.0331126 0.0279228 0.0229096 0.0183442 0.0142266 0.0105567 0.0073347 0.00456046 0.002234 0.000355337 -0.00114707 -0.00234477 -0.00323774 -0.003826 -0.00410954 -0.00408837 -0.00376248 -0.00313187 -0.00239784 -0.00176168 -0.00122339 -0.000782967 -0.000440419 -0.000195742 -4.89354e-05 0 0 -5.21138e-05 -0.000208455 -0.000469024 -0.00083382 -0.00130284 -0.0018761 -0.00255357 -0.00333528 -0.00419766 -0.00511714 -0.00609373 -0.00712742 -0.00821823 -0.00936614 -0.0105712 -0.0118333 -0.0130976 -0.014309 -0.0154677 -0.0165736 -0.0176266 -0.0186269 -0.0195744 -0.020469 -0.0213049 -0.0220761 -0.0227826 -0.0234244 -0.0240016 -0.024514 -0.0249618 -0.0253448 -0.0256749 -0.0259635 -0.0262108 -0.0264168 -0.0265814 -0.0267046 -0.0267865 -0.0268271 -0.0268761 -0.0269836 -0.0271494 -0.0273736 -0.0276563 -0.0279973 -0.0283967 -0.0288545 -0.0292967 -0.0296494 -0.0299125 -0.030086 -0.0301699 -0.0301643 -0.030069 -0.0298843 -0.0294082 -0.0284392 -0.0269773 -0.0250224 -0.0225745 -0.0196337 -0.0162 -0.0122734 -0.00788727 -0.00307532 0.00216252 0.00782623 0.0139158 0.0204313 0.0273726 0.0347398 0.0422013 0.0494255 0.0564123 0.0631618 0.0696739 0.0759488 0.0819862 0.0877864 0.0931032 0.0976908 0.101549 0.104678 0.107078 0.108748 0.109689 0.109901 0.109408 0.108235 0.106383 0.103851 0.10064 0.0967483 0.0921773 0.0869265 0.0812742 0.0754985 0.0695993 0.0635766 0.0574305 0.051161 0.044768 0.0382516 0.0319425 0.0261717 0.0209389 0.0162444 0.012088 0.00846972 0.00538965 0.00284774 0.000765745 -0.000934594 -0.00225327 -0.00319029 -0.00374565 -0.00391936 -0.0037114 -0.00312178 -0.00239012 -0.001756 -0.00121945 -0.000780446 -0.000439001 -0.000195111 -4.87779e-05 0 0 -5.81771e-05 -0.000232709 -0.000523594 -0.000930834 -0.00145443 -0.00209438 -0.00285068 -0.00372334 -0.00467646 -0.00567416 -0.00671644 -0.0078033 -0.00893474 -0.0101107 -0.0113313 -0.0125965 -0.0138438 -0.0150108 -0.0160974 -0.0171037 -0.0180296 -0.0188752 -0.0196405 -0.0203255 -0.0209375 -0.0214842 -0.0219654 -0.0223812 -0.0227315 -0.0230165 -0.023236 -0.0233901 -0.0235065 -0.023613 -0.0237096 -0.0237963 -0.0238731 -0.0239399 -0.0239969 -0.0240439 -0.0241357 -0.0243269 -0.0246176 -0.0250078 -0.0254973 -0.0260864 -0.0267748 -0.0275627 -0.0283448 -0.0290158 -0.0295756 -0.0300244 -0.030362 -0.0305886 -0.030704 -0.0307084 -0.0303505 -0.0293793 -0.0277949 -0.0255971 -0.022786 -0.0193617 -0.015324 -0.0106731 -0.00544893 0.000308284 0.00659858 0.0134219 0.0207784 0.0286679 0.0370905 0.0460462 0.0551287 0.0639317 0.0724553 0.0806994 0.0886641 0.0963494 0.103755 0.110882 0.117421 0.123068 0.127821 0.131682 0.134648 0.136722 0.137902 0.138189 0.137611 0.136197 0.133946 0.13086 0.126937 0.122178 0.116583 0.110151 0.103224 0.0961389 0.0888974 0.0814991 0.0739441 0.0662322 0.0583636 0.0503382 0.0425535 0.0354073 0.0288995 0.0230301 0.0177992 0.0132066 0.00925251 0.0059368 0.00317484 0.000881965 -0.000941833 -0.00229655 -0.00318218 -0.00359874 -0.00354621 -0.0030246 -0.00231571 -0.00170134 -0.00118148 -0.00075615 -0.000425334 -0.000189038 -4.72594e-05 0 0 -6.44218e-05 -0.000257687 -0.000579796 -0.00103075 -0.00161054 -0.00231918 -0.00315667 -0.00412299 -0.00516783 -0.00624083 -0.00734199 -0.00847133 -0.00962883 -0.0108145 -0.0120283 -0.0132703 -0.0144701 -0.0155573 -0.0165319 -0.0173939 -0.0181433 -0.0187801 -0.0193043 -0.0197159 -0.0200387 -0.0202966 -0.0204895 -0.0206175 -0.0206806 -0.0206787 -0.0206119 -0.0204802 -0.0203306 -0.02021 -0.0201186 -0.0200562 -0.020023 -0.0200188 -0.0200438 -0.0200978 -0.0202404 -0.020531 -0.0209696 -0.0215561 -0.0222906 -0.0231732 -0.0242037 -0.0253821 -0.026567 -0.0276165 -0.0285307 -0.0293096 -0.0299531 -0.0304614 -0.0308344 -0.031072 -0.0308676 -0.0299144 -0.0282125 -0.0257617 -0.0225623 -0.018614 -0.013917 -0.00847118 -0.00232399 0.00447723 0.0119325 0.0200417 0.028805 0.0382223 0.0482937 0.059019 0.0699086 0.0804728 0.0907115 0.100625 0.110212 0.119475 0.128411 0.137023 0.144933 0.151766 0.157523 0.162203 0.165807 0.168334 0.169784 0.170157 0.169486 0.167804 0.16511 0.161405 0.156688 0.15096 0.14422 0.136468 0.128114 0.119564 0.110821 0.101882 0.0927493 0.0834216 0.0738993 0.0641825 0.0547425 0.0460512 0.0381084 0.0309141 0.0244684 0.0187712 0.0138226 0.00962252 0.00608022 0.00310491 0.000696579 -0.00114477 -0.00241913 -0.00312651 -0.00326691 -0.00284032 -0.00217462 -0.00159768 -0.0011095 -0.00071008 -0.00039942 -0.00017752 -4.438e-05 0 0 -6.9852e-05 -0.000279408 -0.000628668 -0.00111763 -0.0017463 -0.00251467 -0.00342275 -0.00447053 -0.00559012 -0.00671364 -0.00784109 -0.00897246 -0.0101078 -0.011247 -0.0123901 -0.0135372 -0.01461 -0.0155302 -0.0162979 -0.016913 -0.0173756 -0.0176857 -0.0178432 -0.0178482 -0.0177464 -0.0175834 -0.0173592 -0.0170739 -0.0167274 -0.0163198 -0.015851 -0.015321 -0.0148018 -0.0143652 -0.0140112 -0.0137398 -0.013551 -0.0134448 -0.0134212 -0.0134802 -0.0136857 -0.0141017 -0.0147282 -0.0155652 -0.0166127 -0.0178706 -0.019339 -0.0210179 -0.0227218 -0.0242654 -0.0256486 -0.0268714 -0.0279338 -0.0288358 -0.0295775 -0.0301588 -0.0302093 -0.0293587 -0.0276069 -0.024954 -0.0213999 -0.0169447 -0.0115883 -0.00533081 0.00177266 0.0096669 0.0183519 0.0278277 0.0380942 0.0491516 0.0609997 0.0736386 0.0864858 0.098959 0.111058 0.122783 0.134134 0.145112 0.155715 0.165944 0.175348 0.183476 0.190328 0.195904 0.200204 0.203228 0.204977 0.205449 0.204682 0.202712 0.19954 0.195164 0.189587 0.182806 0.174823 0.165637 0.155731 0.145586 0.135204 0.124585 0.113727 0.102631 0.0912978 0.0797265 0.0684695 0.058079 0.0485549 0.0398973 0.0321062 0.0251815 0.0191233 0.0139316 0.00951043 0.00576376 0.00269162 0.000294012 -0.00142907 -0.00247761 -0.00285163 -0.00255112 -0.0019532 -0.001435 -0.00099653 -0.000637779 -0.000358751 -0.000159445 -3.98612e-05 0 0 -7.3472e-05 -0.000293888 -0.000661248 -0.00117555 -0.0018368 -0.00264499 -0.00360013 -0.0047022 -0.00586171 -0.00698911 -0.00808441 -0.00914762 -0.0101787 -0.0111777 -0.0121446 -0.0130795 -0.0138967 -0.0145108 -0.0149218 -0.0151298 -0.0151346 -0.0149364 -0.014535 -0.0139306 -0.0131986 -0.0124146 -0.0115786 -0.0106906 -0.00975059 -0.00875855 -0.00771451 -0.00661845 -0.00557514 -0.00468935 -0.00396107 -0.00339031 -0.00297706 -0.00272132 -0.0026231 -0.00268239 -0.00296713 -0.00354525 -0.00441676 -0.00558166 -0.00703993 -0.0087916 -0.0108366 -0.0131751 -0.0155679 -0.0177763 -0.0198002 -0.0216396 -0.0232945 -0.024765 -0.0260509 -0.0271523 -0.0276254 -0.0270263 -0.025355 -0.0226114 -0.0187956 -0.0139077 -0.00794749 -0.000915097 0.00712609 0.0161127 0.0260446 0.0369219 0.0487447 0.0615127 0.0752262 0.0898851 0.104805 0.119301 0.133373 0.147021 0.160246 0.173047 0.185425 0.197378 0.208376 0.217886 0.225909 0.232444 0.237491 0.241051 0.243123 0.243707 0.242844 0.240575 0.236899 0.231816 0.225326 0.21743 0.208127 0.197417 0.18586 0.174016 0.161884 0.149465 0.136758 0.123763 0.110482 0.0969123 0.0836943 0.0714664 0.0602286 0.0499808 0.0407232 0.0324557 0.0251782 0.0188909 0.013494 0.00888804 0.00507295 0.00204875 -0.000184557 -0.00162698 -0.00227852 -0.00213917 -0.0016378 -0.00120328 -0.000835613 -0.000534792 -0.000300821 -0.000133698 -3.34245e-05 0 0 -7.52817e-05 -0.000301127 -0.000677536 -0.00120451 -0.00188204 -0.00271014 -0.0036888 -0.00481803 -0.00598259 -0.00706724 -0.00807198 -0.00899682 -0.00984175 -0.0106068 -0.0112919 -0.0118971 -0.0123302 -0.0124991 -0.0124037 -0.0120441 -0.0114202 -0.010532 -0.00937963 -0.00796296 -0.00639541 -0.00479035 -0.00314779 -0.00146773 0.000249838 0.00200491 0.00379748 0.00562756 0.00734947 0.00881755 0.0100318 0.0109922 0.0116988 0.0121515 0.0123505 0.0122955 0.0119154 0.0111385 0.00996487 0.00839457 0.00642756 0.00406385 0.00130344 -0.00185368 -0.00510532 -0.00814932 -0.0109857 -0.0136144 -0.0160354 -0.0182488 -0.0202546 -0.0220527 -0.023116 -0.0229173 -0.0214567 -0.0187341 -0.0147495 -0.009503 -0.00299451 0.00477595 0.0137363 0.0238145 0.0350106 0.0473245 0.0607562 0.0753058 0.0909733 0.107759 0.124866 0.141498 0.157656 0.173339 0.188548 0.203282 0.217541 0.231326 0.244018 0.254998 0.264266 0.271823 0.277668 0.281801 0.284222 0.284932 0.283974 0.281392 0.277187 0.271358 0.263906 0.254831 0.244131 0.231809 0.218502 0.204852 0.190859 0.176522 0.161842 0.146818 0.131451 0.11574 0.100417 0.0862135 0.0731294 0.0611647 0.0503195 0.0405937 0.0319872 0.0245002 0.018031 0.0124777 0.00784057 0.00411946 0.0013144 -0.000574613 -0.00154757 -0.00160448 -0.00122843 -0.000902519 -0.000626749 -0.000401119 -0.00022563 -0.00010028 -2.507e-05 0 0 -7.52813e-05 -0.000301125 -0.000677532 -0.0012045 -0.00188203 -0.00271013 -0.00368878 -0.004818 -0.00595276 -0.00694802 -0.00780378 -0.00852005 -0.00909682 -0.0095341 -0.00983189 -0.00999018 -0.0099107 -0.00949519 -0.00874364 -0.00765605 -0.00623242 -0.00447276 -0.00237706 5.46828e-05 0.00266326 0.00528946 0.0079333 0.0105948 0.0132739 0.0159706 0.018685 0.021417 0.023972 0.0261555 0.0279674 0.0294078 0.0304766 0.0311738 0.0314995 0.0314536 0.0309617 0.0299494 0.0284167 0.0263635 0.0237898 0.0206958 0.0170812 0.0129463 0.00866604 0.00461565 0.000795107 -0.00279558 -0.00615642 -0.00928741 -0.0121886 -0.0148598 -0.016681 -0.0170317 -0.0159121 -0.013322 -0.00926155 -0.00373066 0.00327063 0.0117423 0.0216033 0.0327725 0.0452498 0.0590353 0.074129 0.0905309 0.108241 0.127259 0.146668 0.165551 0.183906 0.201736 0.219039 0.235815 0.252064 0.267788 0.282273 0.294811 0.3054 0.314041 0.320734 0.325478 0.328275 0.329123 0.32807 0.325164 0.320405 0.313793 0.305327 0.295009 0.282837 0.268812 0.253657 0.238097 0.22213 0.205758 0.188979 0.171795 0.154205 0.136209 0.118638 0.10232 0.0872574 0.073449 0.060895 0.0495955 0.0395504 0.0307597 0.0231213 0.0165329 0.0109945 0.00650613 0.0030678 0.000679491 -0.000658788 -0.000947041 -0.000725078 -0.00053271 -0.000369938 -0.00023676 -0.000133178 -5.919e-05 -1.47975e-05 0 0 -7.34707e-05 -0.000293883 -0.000661236 -0.00117553 -0.00183677 -0.00264494 -0.00360006 -0.00470212 -0.00577222 -0.00663145 -0.00727982 -0.00771732 -0.00794395 -0.00795972 -0.00776462 -0.00735865 -0.00663804 -0.00549899 -0.00394152 -0.00196561 0.000428728 0.0032415 0.0064727 0.0101223 0.0139774 0.0178248 0.0216647 0.0254969 0.0293215 0.0331386 0.036948 0.0407498 0.0442925 0.0473245 0.0498458 0.0518564 0.0533563 0.0543455 0.054824 0.0547918 0.054172 0.0528876 0.0509386 0.048325 0.0450468 0.0411041 0.0364968 0.0312248 0.0257462 0.0205186 0.0155421 0.0108167 0.00634246 0.00211928 -0.0018528 -0.00557378 -0.00832044 -0.00936956 -0.00872115 -0.00637519 -0.00233169 0.00340934 0.0108479 0.019984 0.0307271 0.0429865 0.0567623 0.0720544 0.0888629 0.107188 0.127029 0.148387 0.170212 0.191459 0.212125 0.232212 0.251719 0.270647 0.288994 0.306763 0.323142 0.337325 0.34931 0.359098 0.36669 0.372083 0.37528 0.37628 0.375133 0.