<?xml version="1.0"?> 
<VTKFile type="StructuredGrid" version="0.1"> 
<StructuredGrid WholeExtent="0 128 0 128 0 0"> 
<Piece Extent="0 128 0 128 0 0"> 
<PointData>
<DataArray type="Float32" Name="u" format="ascii" NumberOfComponents="1"> 
0 0 0 0 0 0 0 0 0 0 0 0 0 0 0 0 0 0 0 0 0 0 0 0 0 0 0 0 0 0 0 0 0 0 0 0 0 0 0 0 0 0 0 0 0 0 0 0 0 0 0 0 0 0 0 0 0 0 0 0 0 0 0 0 0 0 0 0 0 0 0 0 0 0 0 0 0 0 0 0 0 0 0 0 0 0 0 0 0 0 0 0 0 0 0 0 0 0 0 0 0 0 0 0 0 0 0 0 0 0 0 0 0 0 0 0 0 0 0 0 0 0 0 0 0 0 0 0 0 0 -2.91318e-07 -1.16527e-06 -2.62187e-06 -4.66109e-06 -7.28296e-06 -1.04875e-05 -1.42746e-05 -1.86444e-05 -2.32832e-05 -2.78775e-05 -3.24273e-05 -3.69325e-05 -4.13932e-05 -4.58094e-05 -5.0181e-05 -5.45082e-05 -5.83748e-05 -6.1365e-05 -6.34788e-05 -6.47162e-05 -6.50772e-05 -6.45618e-05 -6.31699e-05 -6.09017e-05 -5.81239e-05 -5.52034e-05 -5.21402e-05 -4.89343e-05 -4.55857e-05 -4.20944e-05 -3.84604e-05 -3.46838e-05 -3.12854e-05 -2.87864e-05 -2.71866e-05 -2.64861e-05 -2.6685e-05 -2.77831e-05 -2.97805e-05 -3.26772e-05 -3.63919e-05 -4.08433e-05 -4.60315e-05 -5.19563e-05 -5.86178e-05 -6.60161e-05 -7.4151e-05 -8.30226e-05 -9.18064e-05 -9.96776e-05 -0.000106636 -0.000112683 -0.000117816 -0.000122037 -0.000125346 -0.000127742 -0.00012836 -0.000126335 -0.000121666 -0.000114353 -0.000104396 -9.17958e-05 -7.65518e-05 -5.86642e-05 -3.82546e-05 -1.54448e-05 9.76524e-06 3.73755e-05 6.73859e-05 9.97965e-05 0.000134607 0.000171818 0.000209913 0.000247375 0.000284205 0.000320402 0.000355966 0.000390898 0.000425197 0.000458863 0.000490224 0.000517608 0.000541014 0.000560443 0.000575894 0.000587368 0.000594864 0.000598382 0.000597983 0.000593725 0.000585609 0.000573634 0.000557801 0.000538109 0.000514558 0.000487149 0.000457588 0.00042758 0.000397126 0.000366225 0.000334878 0.000303085 0.000270845 0.000238159 0.000206432 0.000177069 0.00015007 0.000125435 0.000103164 8.32579e-05 6.57155e-05 5.05372e-05 3.74583e-05 2.62141e-05 1.68045e-05 9.22955e-06 3.48924e-06 -4.16415e-07 -2.48743e-06 -2.7238e-06 -2.08541e-06 -1.53214e-06 -1.06398e-06 -6.8095e-07 -3.83035e-07 -1.70238e-07 -4.25594e-08 0 0 -1.16527e-06 -4.66109e-06 -1.04875e-05 -1.86444e-05 -2.91318e-05 -4.19498e-05 -5.70984e-05 -7.45775e-05 -9.31328e-05 -0.00011151 -0.000129709 -0.00014773 -0.000165573 -0.000183238 -0.000200724 -0.000218033 -0.000233499 -0.00024546 -0.000253915 -0.000258865 -0.000260309 -0.000258247 -0.00025268 -0.000243607 -0.000232495 -0.000220813 -0.000208561 -0.000195737 -0.000182343 -0.000168378 -0.000153842 -0.000138735 -0.000125142 -0.000115145 -0.000108746 -0.000105945 -0.00010674 -0.000111132 -0.000119122 -0.000130709 -0.000145568 -0.000163373 -0.000184126 -0.000207825 -0.000234471 -0.000264064 -0.000296604 -0.000332091 -0.000367225 -0.00039871 -0.000426545 -0.00045073 -0.000471265 -0.00048815 -0.000501385 -0.000510969 -0.000513442 -0.00050534 -0.000486663 -0.000457411 -0.000417584 -0.000367183 -0.000306207 -0.000234657 -0.000153018 -6.17791e-05 3.9061e-05 0.000149502 0.000269544 0.000399186 0.000538429 0.000687274 0.000839653 0.000989502 0.00113682 0.00128161 0.00142386 0.00156359 0.00170079 0.00183545 0.0019609 0.00207043 0.00216406 0.00224177 0.00230358 0.00234947 0.00237946 0.00239353 0.00239193 0.0023749 0.00234244 0.00229454 0.0022312 0.00215243 0.00205823 0.0019486 0.00183035 0.00171032 0.0015885 0.0014649 0.00133951 0.00121234 0.00108338 0.000952637 0.000825728 0.000708275 0.00060028 0.00050174 0.000412658 0.000333031 0.000262862 0.000202149 0.000149833 0.000104856 6.7218e-05 3.69182e-05 1.3957e-05 -1.66566e-06 -9.94972e-06 -1.08952e-05 -8.34164e-06 -6.12855e-06 -4.25594e-06 -2.7238e-06 -1.53214e-06 -6.8095e-07 -1.70238e-07 0 0 -2.62187e-06 -1.04875e-05 -2.35968e-05 -4.19498e-05 -6.55466e-05 -9.43872e-05 -0.000128471 -0.000167799 -0.000209549 -0.000250898 -0.000291845 -0.000332393 -0.000372539 -0.000412285 -0.000451629 -0.000490573 -0.000525373 -0.000552285 -0.00057131 -0.000582446 -0.000585695 -0.000581056 -0.000568529 -0.000548115 -0.000523115 -0.00049683 -0.000469261 -0.000440408 -0.000410271 -0.00037885 -0.000346144 -0.000312154 -0.000281569 -0.000259077 -0.000244679 -0.000238375 -0.000240165 -0.000250048 -0.000268025 -0.000294095 -0.000327527 -0.00036759 -0.000414283 -0.000467607 -0.00052756 -0.000594145 -0.000667359 -0.000747204 -0.000826257 -0.000897098 -0.000959727 -0.00101414 -0.00106035 -0.00109834 -0.00112812 -0.00114968 -0.00115524 -0.00113701 -0.00109499 -0.00102917 -0.000939565 -0.000826162 -0.000688966 -0.000527978 -0.000344291 -0.000139003 8.78872e-05 0.000336379 0.000606473 0.000898169 0.00121147 0.00154637 0.00188922 0.00222638 0.00255784 0.00288362 0.00320369 0.00351808 0.00382677 0.00412977 0.00441202 0.00465847 0.00486913 0.00504398 0.00518304 0.00528631 0.00535377 0.00538544 0.00538185 0.00534353 0.00527048 0.00516271 0.00502021 0.00484298 0.00463102 0.00438434 0.00411829 0.00384822 0.00357413 0.00329603 0.0030139 0.00272776 0.00243761 0.00214343 0.00185789 0.00159362 0.00135063 0.00112892 0.00092848 0.000749321 0.000591439 0.000454835 0.000337125 0.000235927 0.00015124 8.30659e-05 3.14032e-05 -3.74774e-06 -2.23869e-05 -2.45142e-05 -1.87687e-05 -1.37892e-05 -9.57586e-06 -6.12855e-06 -3.44731e-06 -1.53214e-06 -3.83035e-07 0 0 -4.66109e-06 -1.86444e-05 -4.19498e-05 -7.45775e-05 -0.000116527 -0.000167799 -0.000228394 -0.00029831 -0.000372531 -0.00044604 -0.000518836 -0.00059092 -0.000662291 -0.00073295 -0.000802897 -0.000872131 -0.000933997 -0.00098184 -0.00101566 -0.00103546 -0.00104124 -0.00103299 -0.00101072 -0.000974427 -0.000929982 -0.000883254 -0.000834243 -0.000782948 -0.000729371 -0.000673511 -0.000615367 -0.000554941 -0.000500567 -0.000460582 -0.000434986 -0.000423778 -0.000426959 -0.000444529 -0.000476488 -0.000522835 -0.000582271 -0.000653494 -0.000736504 -0.000831301 -0.000937885 -0.00105626 -0.00118642 -0.00132836 -0.0014689 -0.00159484 -0.00170618 -0.00180292 -0.00188506 -0.0019526 -0.00200554 -0.00204388 -0.00205377 -0.00202136 -0.00194665 -0.00182964 -0.00167034 -0.00146873 -0.00122483 -0.000938627 -0.000612073 -0.000247116 0.000156244 0.000598007 0.00107817 0.00159674 0.00215372 0.00274909 0.00335861 0.00395801 0.00454728 0.00512643 0.00569546 0.00625436 0.00680314 0.00734181 0.00784358 0.00828172 0.00865622 0.00896708 0.0092143 0.00939788 0.00951782 0.00957412 0.00956773 0.00949961 0.00936974 0.00917815 0.00892481 0.00860974 0.00823293 0.00779439 0.00732141 0.00684128 0.00635401 0.0058596 0.00535805 0.00484936 0.00433352 0.00381055 0.00330291 0.0028331 0.00240112 0.00200696 0.00165063 0.00133213 0.00105145 0.000808595 0.000599333 0.000419425 0.000268872 0.000147673 5.58279e-05 -6.66264e-06 -3.97989e-05 -4.35808e-05 -3.33666e-05 -2.45142e-05 -1.70238e-05 -1.08952e-05 -6.12855e-06 -2.7238e-06 -6.8095e-07 0 0 -7.28296e-06 -2.91318e-05 -6.55466e-05 -0.000116527 -0.000182074 -0.000262187 -0.000356865 -0.000466109 -0.00058208 -0.000696938 -0.000810682 -0.000923313 -0.00103483 -0.00114523 -0.00125453 -0.0013627 -0.00145937 -0.00153413 -0.00158697 -0.00161791 -0.00162693 -0.00161404 -0.00157925 -0.00152254 -0.0014531 -0.00138008 -0.0013035 -0.00122336 -0.00113964 -0.00105236 -0.000961511 -0.000867095 -0.000782136 -0.000719659 -0.000679665 -0.000662153 -0.000667124 -0.000694577 -0.000744513 -0.00081693 -0.000909798 -0.00102108 -0.00115079 -0.00129891 -0.00146545 -0.0016504 -0.00185377 -0.00207557 -0.00229516 -0.00249194 -0.00266591 -0.00281706 -0.00294541 -0.00305094 -0.00313365 -0.00319356 -0.00320901 -0.00315837 -0.00304164 -0.00285882 -0.0026099 -0.00229489 -0.0019138 -0.0014666 -0.000956364 -0.000386119 0.000244131 0.000934387 0.00168465 0.00249491 0.00336518 0.00429546 0.00524783 0.00618439 0.00710512 0.00801005 0.00889915 0.00977244 0.0106299 0.0114716 0.0122556 0.0129402 0.0135253 0.0140111 0.0143973 0.0146842 0.0148716 0.0149596 0.0149496 0.0148431 0.0146402 0.0143409 0.013945 0.0134527 0.012864 0.0121787 0.0114397 0.0106895 0.00992815 0.00915563 0.00837196 0.00757712 0.00677113 0.00595398 0.0051608 0.00442672 0.00375175 0.00313588 0.00257911 0.00208145 0.00164289 0.00126343 0.000936458 0.000655352 0.000420112 0.000230739 8.72311e-05 -1.04104e-05 -6.21858e-05 -6.8095e-05 -5.21353e-05 -3.83035e-05 -2.65996e-05 -1.70238e-05 -9.57586e-06 -4.25594e-06 -1.06398e-06 0 0 -1.04875e-05 -4.19498e-05 -9.43872e-05 -0.000167799 -0.000262187 -0.000377549 -0.000513886 -0.000671198 -0.000838195 -0.00100359 -0.00116738 -0.00132957 -0.00149016 -0.00164914 -0.00180652 -0.00196229 -0.00210149 -0.00220914 -0.00228524 -0.00232978 -0.00234278 -0.00232422 -0.00227412 -0.00219246 -0.00209246 -0.00198732 -0.00187705 -0.00176163 -0.00164108 -0.0015154 -0.00138458 -0.00124862 -0.00112628 -0.00103631 -0.000978718 -0.000953501 -0.000960659 -0.00100019 -0.0010721 -0.00117638 -0.00131011 -0.00147036 -0.00165713 -0.00187043 -0.00211024 -0.00237658 -0.00266944 -0.00298881 -0.00330503 -0.00358839 -0.00383891 -0.00405657 -0.00424139 -0.00439335 -0.00451246 -0.00459873 -0.00462098 -0.00454806 -0.00437996 -0.0041167 -0.00375826 -0.00330465 -0.00275587 -0.00211191 -0.00137716 -0.000556012 0.000351549 0.00134552 0.00242589 0.00359267 0.00484587 0.00618546 0.00755688 0.00890551 0.0102314 0.0115345 0.0128148 0.0140723 0.0153071 0.0165191 0.0176481 0.0186339 0.0194765 0.0201759 0.0207322 0.0211452 0.0214151 0.0215418 0.0215274 0.0213741 0.0210819 0.0206508 0.0200808 0.0193719 0.0185241 0.0175374 0.0164732 0.0153929 0.0142965 0.0131841 0.0120556 0.0109111 0.00975043 0.00857373 0.00743155 0.00637448 0.00540252 0.00451566 0.00371392 0.00299728 0.00236576 0.00181934 0.0013485 0.000943707 0.000604962 0.000332264 0.000125613 -1.49909e-05 -8.95475e-05 -9.80569e-05 -7.50748e-05 -5.5157e-05 -3.83035e-05 -2.45142e-05 -1.37892e-05 -6.12855e-06 -1.53214e-06 0 0 -1.42746e-05 -5.70984e-05 -0.000128471 -0.000228394 -0.000356865 -0.000513886 -0.000699455 -0.000913574 -0.00114088 -0.001366 -0.00158894 -0.00180969 -0.00202827 -0.00224466 -0.00245887 -0.0026709 -0.00286037 -0.00300689 -0.00311046 -0.0031711 -0.00318878 -0.00316353 -0.00309533 -0.00298418 -0.00284807 -0.00270496 -0.00255487 -0.00239778 -0.0022337 -0.00206263 -0.00188456 -0.00169951 -0.00153299 -0.00141053 -0.00133214 -0.00129782 -0.00130756 -0.00136137 -0.00145924 -0.00160118 -0.0017832 -0.00200132 -0.00225554 -0.00254586 -0.00287227 -0.00323479 -0.0036334 -0.00406811 -0.00449851 -0.0048842 -0.00522518 -0.00552145 -0.005773 -0.00597984 -0.00614196 -0.00625938 -0.00628966 -0.00619041 -0.00596162 -0.00560328 -0.00511541 -0.00449799 -0.00375104 -0.00287454 -0.00187447 -0.000756794 0.000478497 0.0018314 0.00330191 0.00489003 0.00659576 0.0084191 0.0102857 0.0121214 0.013926 0.0156997 0.0174423 0.019154 0.0208346 0.0224843 0.024021 0.0253628 0.0265097 0.0274617 0.0282188 0.028781 0.0291483 0.0293207 0.0293012 0.0290925 0.0286948 0.0281081 0.0273322 0.0263673 0.0252134 0.0238703 0.0224218 0.0209514 0.0194592 0.017945 0.016409 0.0148512 0.0132714 0.0116698 0.0101152 0.00867637 0.00735342 0.00614632 0.00505506 0.00407964 0.00322006 0.00247632 0.00183546 0.00128449 0.00082342 0.000452248 0.000170973 -2.04043e-05 -0.000121884 -0.000133466 -0.000102185 -7.50748e-05 -5.21353e-05 -3.33666e-05 -1.87687e-05 -8.34164e-06 -2.08541e-06 0 0 -1.86444e-05 -7.45775e-05 -0.000167799 -0.00029831 -0.000466109 -0.000671198 -0.000913574 -0.00119324 -0.00149013 -0.00178416 -0.00207535 -0.00236368 -0.00264917 -0.0029318 -0.00321159 -0.00348852 -0.00373599 -0.00392736 -0.00406265 -0.00414184 -0.00416494 -0.00413195 -0.00404288 -0.00389771 -0.00371993 -0.00353301 -0.00333697 -0.00313179 -0.00291748 -0.00269404 -0.00246147 -0.00221976 -0.00200227 -0.00184233 -0.00173994 -0.00169511 -0.00170784 -0.00177812 -0.00190595 -0.00209134 -0.00232908 -0.00261397 -0.00294601 -0.0033252 -0.00375154 -0.00422503 -0.00474566 -0.00531345 -0.00587561 -0.00637937 -0.00682473 -0.00721168 -0.00754024 -0.0078104 -0.00802216 -0.00817551 -0.00821507 -0.00808543 -0.0077866 -0.00731857 -0.00668135 -0.00587493 -0.00489932 -0.00375451 -0.00244829 -0.000988465 0.000624976 0.00239203 0.0043127 0.00638698 0.00861487 0.0109964 0.0134344 0.015832 0.0181891 0.0205057 0.0227818 0.0250174 0.0272126 0.0293672 0.0313743 0.0331269 0.0346249 0.0358683 0.0368572 0.0375915 0.0380713 0.0382965 0.0382709 0.0379984 0.037479 0.0367126 0.0356992 0.034439 0.0329317 0.0311776 0.0292856 0.0273651 0.0254161 0.0234384 0.0214322 0.0193974 0.0173341 0.0152422 0.0132116 0.0113324 0.00960447 0.00802784 0.00660252 0.0053285 0.00420579 0.00323438 0.00239733 0.0016777 0.00107549 0.000590691 0.000223312 -2.66506e-05 -0.000159196 -0.000174323 -0.000133466 -9.80569e-05 -6.8095e-05 -4.35808e-05 -2.45142e-05 -1.08952e-05 -2.7238e-06 0 0 -2.31195e-05 -9.2478e-05 -0.000208075 -0.000369912 -0.000577987 -0.000832302 -0.00113286 -0.00147965 -0.0018469 -0.00220884 -0.00256547 -0.00291678 -0.00326278 -0.00360346 -0.00393883 -0.00426889 -0.00456045 -0.00478034 -0.00492857 -0.00500512 -0.00501001 -0.00494323 -0.00480478 -0.00459466 -0.00434343 -0.00408167 -0.00380936 -0.00352652 -0.00323314 -0.00292921 -0.00261475 -0.00228975 -0.00199715 -0.00177989 -0.00163798 -0.00157142 -0.00158021 -0.00166434 -0.00182382 -0.00205865 -0.00236193 -0.00272675 -0.00315312 -0.00364105 -0.00419052 -0.00480154 -0.00547411 -0.00620823 -0.00693594 -0.00758927 -0.00816822 -0.0086728 -0.00910299 -0.00945882 -0.00974026 -0.00994733 -0.010009 -0.00985445 -0.00948354 -0.0088963 -0.00809275 -0.00707288 -0.0058367 -0.00438419 -0.00272537 -0.000870233 0.00118122 0.003429 0.00587309 0.0085135 0.0113502 0.0143833 0.0174888 0.0205429 0.0235457 0.026497 0.029397 0.0322456 0.0350428 0.0377886 0.0403466 0.0425804 0.0444898 0.046075 0.0473359 0.0482725 0.0488848 0.0491728 0.0491412 0.0487945 0.0481327 0.0471558 0.0458638 0.0442567 0.0423345 0.0400973 0.0376837 0.0352325 0.0327438 0.0302176 0.0276537 0.0250523 0.0224134 0.0197369 0.0171374 0.0147298 0.0125138 0.0104896 0.0086572 0.00701649 0.00556754 0.00431032 0.00322418 0.00228844 0.00150311 0.000868177 0.000383648 4.95218e-05 -0.000134202 -0.000167523 -0.000128259 -9.42314e-05 -6.54385e-05 -4.18806e-05 -2.35579e-05 -1.04702e-05 -2.61754e-06 0 0 -2.72227e-05 -0.000108891 -0.000245004 -0.000435562 -0.000680566 -0.000980016 -0.00133391 -0.00174225 -0.00217217 -0.00259081 -0.00299817 -0.00339424 -0.00377903 -0.00415254 -0.00451477 -0.00486572 -0.00516584 -0.00537561 -0.00549501 -0.00552406 -0.00546275 -0.00531108 -0.00506905 -0.00473666 -0.00435399 -0.00396112 -0.00355806 -0.00314481 -0.00272135 -0.0022877 -0.00184386 -0.00138981 -0.000980644 -0.000671419 -0.000462139 -0.000352804 -0.000343413 -0.000433966 -0.000624464 -0.000914906 -0.00129591 -0.00175809 -0.00230144 -0.00292597 -0.00363168 -0.00441856 -0.00528662 -0.00623586 -0.00717913 -0.00802929 -0.00878634 -0.00945029 -0.0100211 -0.0104989 -0.0108835 -0.011175 -0.0112834 -0.0111188 -0.010681 -0.00997021 -0.00898629 -0.00772928 -0.00619918 -0.004396 -0.00233247 -2.1306e-05 0.00253748 0.00534389 0.00839792 0.0116996 0.0152489 0.0190458 0.0229346 0.0267596 0.0305207 0.0342181 0.0378516 0.0414213 0.0449272 0.0483693 0.0515764 0.0543773 0.0567721 0.0587607 0.0603432 0.0615195 0.0622897 0.0626537 0.0626166 0.0621835 0.0613543 0.0601291 0.0585078 0.0564905 0.0540771 0.0512677 0.0482351 0.0451523 0.0420192 0.0388358 0.0356022 0.0323183 0.0289842 0.0255998 0.022309 0.0192557 0.0164397 0.0138611 0.01152 0.00941621 0.00754988 0.00592096 0.00450606 0.00328182 0.00224823 0.00140529 0.000753002 0.000291364 2.03773e-05 -5.99586e-05 -4.59058e-05 -3.37267e-05 -2.34213e-05 -1.49896e-05 -8.43167e-06 -3.74741e-06 -9.36852e-07 0 0 -3.09539e-05 -0.000123815 -0.000278585 -0.000495262 -0.000773847 -0.00111434 -0.00151674 -0.00198105 -0.00246593 -0.00293006 -0.00337344 -0.00379606 -0.00419793 -0.00457905 -0.00493941 -0.00527902 -0.00555217 -0.00571316 -0.00576198 -0.00569865 -0.00552316 -0.0052355 -0.00483568 -0.0043237 -0.00375159 -0.00317138 -0.00258307 -0.00198665 -0.00138213 -0.000769512 -0.00014879 0.000480034 0.00104724 0.00148309 0.00178759 0.00196075 0.00200256 0.00191302 0.00169213 0.00133989 0.000868966 0.000292012 -0.000390971 -0.00117998 -0.00207502 -0.00307609 -0.00418319 -0.00539632 -0.00660517 -0.00769943 -0.0086791 -0.00954417 -0.0102947 -0.0109306 -0.0114519 -0.0118586 -0.0120383 -0.0118784 -0.0113791 -0.0105403 -0.00936195 -0.00784411 -0.00598677 -0.00378993 -0.00126958 0.00155832 0.00469374 0.0081367 0.0118872 0.0159452 0.0203108 0.0249839 0.0297718 0.034482 0.0391144 0.0436689 0.0481457 0.0525446 0.0568658 0.0611092 0.0650635 0.0685177 0.0714717 0.0739255 0.0758792 0.0773327 0.078286 0.0787391 0.0786972 0.0781655 0.0771439 0.0756325 0.0736313 0.0711403 0.0681595 0.0646888 0.0609398 0.0571242 0.053242 0.0492931 0.0452776 0.0411954 0.0370466 0.0328311 0.0287264 0.0249101 0.021382 0.0181423 0.0151908 0.0125277 0.0101528 0.00806628 0.00624298 0.00465783 0.00331085 0.00220203 0.00133137 0.000698876 0.000304542 0.000148369 0.000113595 8.34574e-05 5.79565e-05 3.70922e-05 2.08643e-05 9.27304e-06 2.31826e-06 0 0 -3.43131e-05 -0.000137252 -0.000308818 -0.00054901 -0.000857828 -0.00123527 -0.00168134 -0.00219604 -0.00272818 -0.0032266 -0.00369129 -0.00412224 -0.00451947 -0.00488297 -0.00521274 -0.00550878 -0.00571942 -0.00579299 -0.00572948 -0.00552889 -0.00519123 -0.00471649 -0.00410468 -0.0033558 -0.00253625 -0.00171244 -0.000884375 -5.20537e-05 0.000784524 0.00162536 0.00247045 0.0033198 0.00408649 0.00468363 0.00511121 0.00536924 0.0054577 0.00537661 0.00512595 0.00470574 0.0041327 0.00342355 0.00257829 0.00159692 0.000479446 -0.000774137 -0.00216383 -0.00368963 -0.00521407 -0.00659968 -0.00784647 -0.00895444 -0.00992358 -0.0107539 -0.0114454 -0.011998 -0.0122735 -0.0121334 -0.0115778 -0.0106065 -0.00921974 -0.00741739 -0.00519947 -0.00256599 0.000463303 0.00386864 0.00765001 0.0118074 0.0163409 0.0212504 0.026536 0.0321976 0.0380006 0.0437102 0.0493265 0.0548495 0.0602792 0.0656155 0.0708585 0.0760082 0.0808081 0.0850016 0.0885887 0.0915695 0.0939439 0.0957119 0.0968736 0.0974289 0.0973829 0.0967404 0.0955015 0.0936661 0.0912343 0.0882062 0.0845815 0.0803605 0.0757979 0.0711485 0.0664124 0.0615895 0.0566799 0.0516836 0.0466005 0.0414306 0.0363896 0.031693 0.0273408 0.0233331 0.0196697 0.0163508 0.0133764 0.0107463 0.00843492 0.00641648 0.00469097 0.0032584 0.00211876 0.00127206 0.000718291 0.000457459 0.000350242 0.000257321 0.000178695 0.000114365 6.43302e-05 2.85912e-05 7.1478e-06 0 0 -3.73004e-05 -0.000149202 -0.000335704 -0.000596807 -0.00093251 -0.00134281 -0.00182772 -0.00238723 -0.00295893 -0.00348042 -0.00395171 -0.00437279 -0.00474366 -0.00506432 -0.00533477 -0.00555502 -0.00566761 -0.0056151 -0.00539749 -0.00501478 -0.00446697 -0.00375406 -0.00287605 -0.00183294 -0.000707949 0.000415702 0.00153801 0.00265899 0.00377862 0.00489691 0.00601386 0.00712947 0.00813713 0.00893021 0.00950872 0.00987265 0.010022 0.0099568 0.00967701 0.00918265 0.00849529 0.00763652 0.00660634 0.00540474 0.00403173 0.00248731 0.000771473 -0.00111578 -0.00300583 -0.00473006 -0.00628848 -0.00768109 -0.00890788 -0.00996886 -0.010864 -0.0115934 -0.0119892 -0.0118837 -0.011277 -0.010169 -0.00855966 -0.0064491 -0.00383727 -0.000724159 0.00286617 0.00690965 0.0114063 0.0163561 0.0217591 0.0276152 0.0339245 0.0406869 0.0476207 0.0544442 0.0611572 0.0677599 0.0742521 0.080634 0.0869055 0.0930666 0.0988101 0.103829 0.108123 0.111693 0.114537 0.116657 0.118053 0.118723 0.118674 0.117908 0.116427 0.11423 0.111317 0.107688 0.103343 0.0982829 0.0928093 0.0872251 0.0815303 0.075725 0.0698092 0.0637828 0.0576459 0.0513984 0.0452985 0.0396044 0.0343161 0.0294336 0.0249568 0.0208857 0.0172205 0.013961 0.0110819 0.00855776 0.00638859 0.00457439 0.00311517 0.00201091 0.00126163 0.000867313 0.000664036 0.000487863 0.000338794 0.000216828 0.000121966 5.4207e-05 1.35518e-05 0 0 -3.99157e-05 -0.000159663 -0.000359242 -0.000638652 -0.000997894 -0.00143697 -0.00195587 -0.00255461 -0.00315816 -0.00369153 -0.00415471 -0.00454769 -0.00487048 -0.00512309 -0.0053055 -0.00541772 -0.00539673 -0.0051795 -0.00476603 -0.00415632 -0.00335038 -0.0023482 -0.00114979 0.000244869 0.0017333 0.00321304 0.0046841 0.00614647 0.00760015 0.00904514 0.0104814 0.0119091 0.0131991 0.0142228 0.0149801 0.015471 0.0156955 0.0156536 0.0153453 0.0147706 0.0139567 0.0129309 0.0116932 0.0102435 0.00858184 0.00670825 0.00462271 0.00232523 1.95606e-05 -0.00209056 -0.00400512 -0.00572412 -0.00724757 -0.00857546 -0.0097078 -0.0106446 -0.0111853 -0.0111293 -0.0104767 -0.00922755 -0.00738172 -0.00493926 -0.00190017 0.00173555 0.00593902 0.0106814 0.0159626 0.0217827 0.0281417 0.0350395 0.0424762 0.0504518 0.0586324 0.0666839 0.0746064 0.0824 0.0900645 0.0976 0.105007 0.112284 0.11907 0.125 0.130075 0.134295 0.137659 0.140169 0.141823 0.142622 0.14257 0.141669 0.13992 0.137324 0.133879 0.129586 0.124445 0.118456 0.111974 0.105354 0.0985958 0.0916996 0.0846654 0.0774932 0.0701829 0.0627345 0.0554533 0.0486444 0.0423079 0.0364437 0.0310519 0.0261324 0.0216852 0.0177104 0.0141839 0.0110817 0.00840371 0.00615002 0.00432059 0.00291543 0.00193455 0.00137793 0.00105498 0.000775085 0.000538254 0.000344482 0.000193771 8.61206e-05 2.15301e-05 0 0 -4.21591e-05 -0.000168637 -0.000379432 -0.000674546 -0.00105398 -0.00151773 -0.0020658 -0.00269818 -0.00332589 -0.00385992 -0.00430028 -0.00464695 -0.00489995 -0.00505928 -0.00512492 -0.00509689 -0.00490678 -0.00448618 -0.00383509 -0.00295352 -0.00184146 -0.000498916 0.00107411 0.00287763 0.0047875 0.00667958 0.00855388 0.0104104 0.0122491 0.0140701 0.0158732 0.0176586 0.0192725 0.0205615 0.0215254 0.0221643 0.0224782 0.022467 0.0221308 0.0214696 0.0205171 0.0193068 0.0178388 0.0161131 0.0141298 0.0118887 0.00938989 0.0066334 0.00386209 0.00131883 -0.00099638 -0.00308354 -0.00494265 -0.0065737 -0.00797671 -0.00915166 -0.00986177 -0.00987025 -0.0091771 -0.00778232 -0.0056859 -0.00288786 0.000611821 0.00481313 0.00968185 0.0151838 0.0213189 0.0280872 0.0354887 0.0435234 0.0521913 0.0614923 0.0710354 0.0804294 0.0896742 0.0987698 0.107716 0.116514 0.125162 0.133661 0.141586 0.148514 0.154444 0.159376 0.16331 0.166246 0.168185 0.169126 0.169071 0.168023 0.165982 0.162947 0.15892 0.1539 0.147886 0.14088 0.133292 0.125535 0.117609 0.109513 0.101249 0.0928146 0.0842113 0.0754389 0.0668538 0.0588129 0.0513162 0.0443635 0.0379551 0.0320907 0.0267706 0.0219945 0.017741 0.0139882 0.0107363 0.00798526 0.00573503 0.00398563 0.00273705 0.00198931 0.00152306 0.00111899 0.000777074 0.000497327 0.000279747 0.000124332 3.1083e-05 0 0 -4.40306e-05 -0.000176122 -0.000396275 -0.000704489 -0.00110076 -0.0015851 -0.0021575 -0.00281796 -0.00346211 -0.0039856 -0.00438842 -0.00467058 -0.00483206 -0.00487289 -0.00479304 -0.00459253 -0.00419776 -0.00353514 -0.00260468 -0.00140636 5.97927e-05 0.0017938 0.00379565 0.00606535 0.00845465 0.0108153 0.0131474 0.0154508 0.0177255 0.0199716 0.0221891 0.024378 0.0263573 0.0279462 0.0291446 0.0299525 0.03037 0.030397 0.0300336 0.0292797 0.0281762 0.0267641 0.0250432 0.0230137 0.0206755 0.0180286 0.015073 0.0118087 0.00852176 0.0054981 0.00273773 0.000240661 -0.00199311 -0.00396358 -0.00567075 -0.00711462 -0.0080187 -0.0081065 -0.00737802 -0.00583326 -0.00347222 -0.000294894 0.00369871 0.00850859 0.0140947 0.0204169 0.0274752 0.0352696 0.0438002 0.0530668 0.0630696 0.0738085 0.08483 0.0956807 0.10636 0.116869 0.127208 0.137375 0.147371 0.157197 0.166361 0.174372 0.18123 0.186936 0.19149 0.19489 0.197138 0.198233 0.198177 0.196969 0.194611 0.191102 0.186441 0.18063 0.173668 0.165554 0.156763 0.147768 0.138569 0.129166 0.119559 0.109747 0.0997314 0.0895115 0.0795001 0.0701099 0.0613409 0.053193 0.0456664 0.0387608 0.0324765 0.0268133 0.021753 0.0172774 0.0133864 0.0100801 0.00735849 0.00522149 0.00366914 0.00270145 0.0020683 0.00151957 0.00105525 0.000675363 0.000379892 0.000168841 4.22102e-05 0 0 -4.46157e-05 -0.000178463 -0.000401542 -0.000713852 -0.00111539 -0.00160617 -0.00218617 -0.00285541 -0.00349275 -0.00397706 -0.00430835 -0.00448662 -0.00451186 -0.00438407 -0.00410326 -0.00366943 -0.00300487 -0.0020319 -0.000750506 0.000839301 0.00273753 0.00494417 0.00745923 0.0102827 0.0132391 0.016153 0.0190243 0.0218532 0.0246394 0.0273832 0.0300844 0.0327431 0.0351481 0.0370883 0.0385638 0.0395746 0.0401205 0.0402018 0.0398182 0.0389699 0.0377058 0.0360748 0.034077 0.0317124 0.0289809 0.0258826 0.0224175 0.0185855 0.0147201 0.0111545 0.00788887 0.00492311 0.00225725 -0.000108715 -0.00217478 -0.00394096 -0.00508756 -0.0052949 -0.00456299 -0.00289182 -0.000281392 0.00326829 0.00775722 0.0131854 0.0195063 0.0266734 0.0346867 0.0435461 0.0532517 0.0638035 0.0752014 0.0874456 0.100016 0.112393 0.124576 0.136566 0.148363 0.159966 0.171375 0.182591 0.193053 0.2022 0.210033 0.21655 0.221753 0.225641 0.228214 0.229473 0.229415 0.22804 0.225348 0.221339 0.216012 0.209368 0.201407 0.192129 0.18207 0.171768 0.161223 0.150434 0.139401 0.128125 0.116605 0.104842 0.0933077 0.0824737 0.0723404 0.0629076 0.0541754 0.0461438 0.0388128 0.0321824 0.0262396 0.0209715 0.016378 0.0124593 0.00921516 0.00664574 0.004751 0.00353093 0.00270337 0.00198615 0.00137927 0.000882732 0.000496537 0.000220683 5.51707e-05 0 0 -4.30004e-05 -0.000172002 -0.000387003 -0.000688006 -0.00107501 -0.00154801 -0.00210702 -0.00275202 -0.00334372 -0.00374281 -0.00394927 -0.00396313 -0.00378436 -0.00341299 -0.00284899 -0.00209239 -0.00106332 0.000318037 0.00205169 0.00413764 0.00657589 0.00936643 0.0125093 0.0160044 0.0196453 0.0232254 0.0267447 0.0302032 0.033601 0.0369379 0.0402141 0.0434295 0.0463394 0.0486994 0.0505094 0.0517694 0.0524794 0.0526394 0.0522493 0.0513093 0.0498772 0.0480111 0.0457108 0.0429765 0.039808 0.0362055 0.0321688 0.0276981 0.0231785 0.0189954 0.0151487 0.0116385 0.00846464 0.00562726 0.00312632 0.000961819 -0.000499849 -0.000892281 -0.000215477 0.00153056 0.00434584 0.00823035 0.0131841 0.0192071 0.0262456 0.0342461 0.0432085 0.0531328 0.064019 0.0758671 0.0886771 0.102449 0.116594 0.130522 0.144233 0.157728 0.171007 0.184069 0.196915 0.209544 0.221325 0.231627 0.240449 0.247792 0.253656 0.25804 0.260945 0.26237 0.262312 0.260766 0.257733 0.253212 0.247204 0.239708 0.230725 0.220254 0.208895 0.197249 0.185314 0.173091 0.160581 0.147782 0.134695 0.121321 0.108192 0.0958425 0.0842728 0.0734826 0.063472 0.0542409 0.0457894 0.0381174 0.0312201 0.0250926 0.019735 0.0151472 0.0113292 0.0082811 0.00600279 0.0044943 0.00344095 0.00252804 0.00175559 0.00112357 0.000632011 0.000280894 7.02234e-05 0 0 -3.91845e-05 -0.000156738 -0.00035266 -0.000626952 -0.000979612 -0.00141064 -0.00192004 -0.00250781 -0.00301504 -0.00328283 -0.00331119 -0.00310011 -0.00264959 -0.00195963 -0.00103024 0.000138595 0.00162689 0.00351466 0.00580192 0.00848866 0.0115749 0.0150606 0.0189458 0.0232304 0.0276731 0.0320325 0.0363084 0.0405009 0.0446101 0.0486358 0.0525782 0.0564372 0.0599314 0.0627794 0.0649813 0.066537 0.0674465 0.0677098 0.067327 0.066298 0.0646906 0.0625728 0.0599446 0.0568059 0.0531567 0.0489971 0.044327 0.0391464 0.0338971 0.0290207 0.0245172 0.0203867 0.0166291 0.0132444 0.0102326 0.00759371 0.00574442 0.00510135 0.00566451 0.00743388 0.0104095 0.0145913 0.0199793 0.0265736 0.0343126 0.043135 0.0530406 0.0640296 0.0761019 0.0892575 0.103496 0.118819 0.134563 0.150067 0.165331 0.180355 0.19514 0.209685 0.223989 0.238054 0.251176 0.262651 0.27248 0.280662 0.287198 0.292087 0.29533 0.296926 0.296868 0.295148 0.291766 0.286722 0.280017 0.271649 0.26162 0.249929 0.237238 0.224209 0.210843 0.197139 0.183098 0.168718 0.154001 0.138947 0.124153 0.110216 0.0971381 0.084918 0.073556 0.063052 0.0534061 0.0446183 0.0366945 0.0296409 0.0234574 0.018144 0.0137007 0.0101276 0.00742452 0.00559157 0.00428104 0.00314526 0.00218421 0.00139789 0.000786314 0.000349473 8.73683e-05 0 0 -3.3168e-05 -0.000132672 -0.000298512 -0.000530688 -0.000829201 -0.00119405 -0.00162523 -0.00212275 -0.0025067 -0.00259714 -0.0023941 -0.00189756 -0.00110753 -2.40098e-05 0.00135301 0.00302352 0.00506576 0.00755798 0.0105002 0.0138923 0.0177345 0.0220266 0.0267687 0.0319608 0.0373227 0.0425742 0.0477154 0.0527463 0.0576668 0.062477 0.0671768 0.0717663 0.075924 0.0793284 0.0819795 0.0838773 0.0850219 0.0854131 0.0850511 0.0839358 0.0821459 0.0797601 0.0767783 0.0732006 0.069027 0.0642574 0.0588919 0.0529305 0.0468758 0.0412305 0.0359945 0.0311678 0.0267505 0.0227426 0.019144 0.0159547 0.0136453 0.012686 0.013077 0.0148181 0.0179095 0.0223511 0.0281429 0.035285 0.0437073 0.05334 0.0641832 0.0762367 0.0895006 0.103975 0.11966 0.136555 0.153923 0.171028 0.18787 0.204447 0.220762 0.236812 0.252599 0.268123 0.282606 0.295274 0.306125 0.315161 0.32238 0.327783 0.331369 0.33314 0.333083 0.331185 0.327447 0.321869 0.31445 0.305192 0.294093 0.281154 0.267099 0.252651 0.23781 0.222577 0.206952 0.190934 0.174524 0.157721 0.14119 0.125595 0.110936 0.0972138 0.0844274 0.0725772 0.0616631 0.0516851 0.0426629 0.0346163 0.0275452 0.0214497 0.0163297 0.0121852 0.00901618 0.00682274 0.00522366 0.00383779 0.00266513 0.00170568 0.000959447 0.000426421 0.000106605 0 0 -2.4951e-05 -9.98041e-05 -0.000224559 -0.000399217 -0.000623776 -0.000898237 -0.0012226 -0.00159687 -0.00181869 -0.00168574 -0.001198 -0.000355489 0.000841807 0.00239388 0.00430074 0.00656238 0.00925329 0.012448 0.0161465 0.0203487 0.0250547 0.0302645 0.0359781 0.0421955 0.0485939 0.0548507 0.0609658 0.0669393 0.0727711 0.0784613 0.0840099 0.0894168 0.0943172 0.0983462 0.101504 0.10379 0.105206 0.105749 0.105422 0.104223 0.102243 0.0995728 0.096212 0.0921607 0.0874189 0.0819866 0.0758637 0.0690504 0.0621147 0.0556247 0.0495804 0.0439818 0.038829 0.0341219 0.0298605 0.0260449 0.0232027 0.0218617 0.0220219 0.0236833 0.026846 0.0315098 0.0376749 0.0453412 0.0544296 0.0648612 0.076636 0.0897539 0.104215 0.120019 0.137167 0.155657 0.174676 0.193406 0.211849 0.230004 0.247872 0.265452 0.282744 0.299749 0.315616 0.329494 0.341385 0.351287 0.359201 0.365126 0.369063 0.371013 0.370956 0.368877 0.364776 0.358652 0.350505 0.340336 0.328144 0.313929 0.298477 0.282572 0.266215 0.249406 0.232144 0.214429 0.196262 0.177643 0.159304 0.141979 0.125668 0.11037 0.0960864 0.0828164 0.0705602 0.0593178 0.0491253 0.0400188 0.0319985 0.0250642 0.019216 0.0144539 0.0107