<?xml version="1.0"?> 
<VTKFile type="StructuredGrid" version="0.1"> 
<StructuredGrid WholeExtent="0 128 0 128 0 0"> 
<Piece Extent="0 128 0 128 0 0"> 
<PointData>
<DataArray type="Float32" Name="u" format="ascii" NumberOfComponents="1"> 
0 0 0 0 0 0 0 0 0 0 0 0 0 0 0 0 0 0 0 0 0 0 0 0 0 0 0 0 0 0 0 0 0 0 0 0 0 0 0 0 0 0 0 0 0 0 0 0 0 0 0 0 0 0 0 0 0 0 0 0 0 0 0 0 0 0 0 0 0 0 0 0 0 0 0 0 0 0 0 0 0 0 0 0 0 0 0 0 0 0 0 0 0 0 0 0 0 0 0 0 0 0 0 0 0 0 0 0 0 0 0 0 0 0 0 0 0 0 0 0 0 0 0 0 0 0 0 0 0 0 -1.00074e-07 -4.00294e-07 -9.00662e-07 -1.60118e-06 -2.50184e-06 -3.60265e-06 -4.9036e-06 -6.40471e-06 -7.81325e-06 -8.83654e-06 -9.47456e-06 -9.72732e-06 -9.59481e-06 -9.07705e-06 -8.17402e-06 -6.88573e-06 -5.13046e-06 -2.82649e-06 2.61734e-08 3.42754e-06 7.3776e-06 1.18764e-05 1.69238e-05 2.252e-05 2.82503e-05 3.37002e-05 3.88697e-05 4.37588e-05 4.83675e-05 5.26958e-05 5.67438e-05 6.05113e-05 6.36627e-05 6.58621e-05 6.71097e-05 6.74053e-05 6.6749e-05 6.51407e-05 6.25806e-05 5.90685e-05 5.48087e-05 5.00054e-05 4.46585e-05 3.87681e-05 3.23342e-05 2.53568e-05 1.78358e-05 9.77136e-06 1.84428e-06 -5.26449e-06 -1.15549e-05 -1.70271e-05 -2.16809e-05 -2.55163e-05 -2.85335e-05 -3.07323e-05 -3.15151e-05 -3.02842e-05 -2.70396e-05 -2.17812e-05 -1.4509e-05 -5.22316e-06 6.07644e-06 1.93898e-05 3.45897e-05 5.15491e-05 7.0268e-05 9.07464e-05 0.000112984 0.000136982 0.000162738 0.000190255 0.000218483 0.000246376 0.000273933 0.000301154 0.000328041 0.000354591 0.000380806 0.000406686 0.000431028 0.000452633 0.000471499 0.000487627 0.000501017 0.000511668 0.000519581 0.000524756 0.000527043 0.000526291 0.0005225 0.000515671 0.000505804 0.000492898 0.000476954 0.000457971 0.000437002 0.000415097 0.000392257 0.000368482 0.000343772 0.000318127 0.000291547 0.000264031 0.000236753 0.000210882 0.000186421 0.000163368 0.000141724 0.000121488 0.000102661 8.52428e-05 6.94297e-05 5.54186e-05 4.32094e-05 3.28023e-05 2.4197e-05 1.73938e-05 1.23925e-05 9.19324e-06 7.03857e-06 5.1712e-06 3.59111e-06 2.29831e-06 1.2928e-06 5.74577e-07 1.43644e-07 0 0 -4.00294e-07 -1.60118e-06 -3.60265e-06 -6.40471e-06 -1.00074e-05 -1.44106e-05 -1.96144e-05 -2.56188e-05 -3.1253e-05 -3.53461e-05 -3.78982e-05 -3.89093e-05 -3.83793e-05 -3.63082e-05 -3.26961e-05 -2.75429e-05 -2.05218e-05 -1.1306e-05 1.04694e-07 1.37101e-05 2.95104e-05 4.75054e-05 6.76953e-05 9.00799e-05 0.000113001 0.000134801 0.000155479 0.000175035 0.00019347 0.000210783 0.000226975 0.000242045 0.000254651 0.000263448 0.000268439 0.000269621 0.000266996 0.000260563 0.000250322 0.000236274 0.000219235 0.000200021 0.000178634 0.000155073 0.000129337 0.000101427 7.13434e-05 3.90855e-05 7.37711e-06 -2.1058e-05 -4.62197e-05 -6.81082e-05 -8.67234e-05 -0.000102065 -0.000114134 -0.000122929 -0.000126061 -0.000121137 -0.000108158 -8.71246e-05 -5.80361e-05 -2.08927e-05 2.43058e-05 7.75591e-05 0.000138359 0.000206197 0.000281072 0.000362986 0.000451937 0.000547926 0.000650954 0.000761019 0.000873932 0.000985503 0.00109573 0.00120462 0.00131216 0.00141836 0.00152323 0.00162674 0.00172411 0.00181053 0.001886 0.00195051 0.00200407 0.00204667 0.00207832 0.00209902 0.00210817 0.00210516 0.00209 0.00206269 0.00202322 0.00197159 0.00190782 0.00183188 0.00174801 0.00166039 0.00156903 0.00147393 0.00137509 0.00127251 0.00116619 0.00105612 0.00094701 0.00084353 0.000745684 0.000653472 0.000566895 0.000485953 0.000410645 0.000340971 0.000277719 0.000221674 0.000172838 0.000131209 9.67882e-05 6.95752e-05 4.95701e-05 3.6773e-05 2.81543e-05 2.06848e-05 1.43644e-05 9.19324e-06 5.1712e-06 2.29831e-06 5.74577e-07 0 0 -9.00662e-07 -3.60265e-06 -8.10596e-06 -1.44106e-05 -2.25165e-05 -3.24238e-05 -4.41324e-05 -5.76424e-05 -7.03193e-05 -7.95288e-05 -8.5271e-05 -8.75458e-05 -8.63533e-05 -8.16934e-05 -7.35662e-05 -6.19716e-05 -4.61741e-05 -2.54384e-05 2.35561e-07 3.08478e-05 6.63984e-05 0.000106887 0.000152314 0.00020268 0.000254252 0.000303302 0.000349827 0.000393829 0.000435308 0.000474263 0.000510694 0.000544602 0.000572964 0.000592759 0.000603987 0.000606647 0.000600741 0.000586266 0.000563225 0.000531616 0.000493278 0.000450048 0.000401927 0.000348913 0.000291008 0.000228211 0.000160523 8.79423e-05 1.65985e-05 -4.73804e-05 -0.000103994 -0.000153244 -0.000195128 -0.000229647 -0.000256801 -0.000276591 -0.000283636 -0.000272558 -0.000243356 -0.00019603 -0.000130581 -4.70085e-05 5.46879e-05 0.000174508 0.000311307 0.000463942 0.000632412 0.000816718 0.00101686 0.00123283 0.00146465 0.00171229 0.00196635 0.00221738 0.0024654 0.00271039 0.00295237 0.00319132 0.00342726 0.00366017 0.00387926 0.0040737 0.00424349 0.00438864 0.00450915 0.00460501 0.00467623 0.0047228 0.00474338 0.00473662 0.0047025 0.00464104 0.00455224 0.00443608 0.00429259 0.00412174 0.00393301 0.00373587 0.00353031 0.00331634 0.00309395 0.00286314 0.00262392 0.00237628 0.00213077 0.00189794 0.00167779 0.00147031 0.00127551 0.00109339 0.000923951 0.000767186 0.000624868 0.000498767 0.000388885 0.00029522 0.000217773 0.000156544 0.000111533 8.27391e-05 6.33472e-05 4.65408e-05 3.232e-05 2.06848e-05 1.16352e-05 5.1712e-06 1.2928e-06 0 0 -1.60118e-06 -6.40471e-06 -1.44106e-05 -2.56188e-05 -4.00294e-05 -5.76424e-05 -7.84577e-05 -0.000102475 -0.000125012 -0.000141385 -0.000151593 -0.000155637 -0.000153517 -0.000145233 -0.000130784 -0.000110172 -8.20874e-05 -4.52239e-05 4.18775e-07 5.48406e-05 0.000118042 0.000190022 0.000270781 0.000360319 0.000452004 0.000539203 0.000621915 0.000700141 0.00077388 0.000843134 0.0009079 0.000968181 0.0010186 0.00105379 0.00107375 0.00107848 0.00106798 0.00104225 0.00100129 0.000945096 0.000876939 0.000800086 0.000714536 0.00062029 0.000517348 0.000405709 0.000285374 0.000156342 2.95084e-05 -8.42318e-05 -0.000184879 -0.000272433 -0.000346894 -0.000408261 -0.000456536 -0.000491717 -0.000504242 -0.000484548 -0.000432633 -0.000348499 -0.000232144 -8.35706e-05 9.7223e-05 0.000310236 0.000553435 0.000824786 0.00112429 0.00145194 0.00180775 0.00219171 0.00260381 0.00304407 0.00349573 0.00394201 0.00438293 0.00481847 0.00524865 0.00567346 0.0060929 0.00650697 0.00689645 0.00724213 0.00754398 0.00780203 0.00801626 0.00818669 0.0083133 0.0083961 0.00843268 0.00842065 0.00836 0.00825074 0.00809287 0.00788637 0.00763126 0.00732754 0.00699203 0.00664155 0.00627611 0.00589572 0.00550035 0.00509003 0.00466475 0.0042245 0.00378804 0.00337412 0.00298274 0.00261389 0.00226758 0.00194381 0.00164258 0.00136389 0.00111088 0.000886698 0.000691351 0.000524836 0.000387153 0.000278301 0.000198281 0.000147092 0.000112617 8.27391e-05 5.74577e-05 3.6773e-05 2.06848e-05 9.19324e-06 2.29831e-06 0 0 -2.50184e-06 -1.00074e-05 -2.25165e-05 -4.00294e-05 -6.2546e-05 -9.00662e-05 -0.00012259 -0.000160118 -0.000195331 -0.000220913 -0.000236864 -0.000243183 -0.00023987 -0.000226926 -0.00020435 -0.000172143 -0.000128261 -7.06623e-05 6.54336e-07 8.56884e-05 0.00018444 0.000296909 0.000423095 0.000562999 0.000706257 0.000842505 0.000971742 0.00109397 0.00120919 0.0013174 0.00141859 0.00151278 0.00159157 0.00164655 0.00167774 0.00168513 0.00166872 0.00162852 0.00156451 0.00147671 0.00137022 0.00125013 0.00111646 0.000969204 0.000808356 0.00063392 0.000445896 0.000244284 4.61069e-05 -0.000131612 -0.000288873 -0.000425676 -0.000542021 -0.000637908 -0.000713337 -0.000768308 -0.000787879 -0.000757105 -0.000675989 -0.000544529 -0.000362726 -0.000130579 0.000151911 0.000484744 0.000864743 0.00128873 0.0017567 0.00226866 0.00282461 0.00342454 0.00406846 0.00475637 0.00546207 0.00615939 0.00684832 0.00752886 0.00820102 0.00886478 0.00952016 0.0101671 0.0107757 0.0113158 0.0117875 0.0121907 0.0125254 0.0127917 0.0129895 0.0131189 0.0131761 0.0131573 0.0130625 0.0128918 0.0126451 0.0123225 0.0119238 0.0114493 0.010925 0.0103774 0.00980643 0.00921206 0.0085943 0.00795317 0.00728867 0.00660078 0.00591881 0.00527206 0.00466052 0.0040842 0.0035431 0.00303721 0.00256653 0.00213107 0.00173574 0.00138546 0.00108024 0.000820056 0.000604926 0.000434845 0.000309813 0.000229831 0.000175964 0.00012928 8.97777e-05 5.74577e-05 3.232e-05 1.43644e-05 3.59111e-06 0 0 -3.60265e-06 -1.44106e-05 -3.24238e-05 -5.76424e-05 -9.00662e-05 -0.000129695 -0.00017653 -0.000230569 -0.000281277 -0.000318115 -0.000341084 -0.000350183 -0.000345413 -0.000326774 -0.000294265 -0.000247886 -0.000184697 -0.000101754 9.42244e-07 0.000123391 0.000265594 0.000427549 0.000609257 0.000810719 0.00101701 0.00121321 0.00139931 0.00157532 0.00174123 0.00189705 0.00204278 0.00217841 0.00229186 0.00237104 0.00241595 0.00242659 0.00240296 0.00234507 0.0022529 0.00212647 0.00197311 0.00180019 0.00160771 0.00139565 0.00116403 0.000912845 0.000642091 0.000351769 6.6394e-05 -0.000189522 -0.000415978 -0.000612974 -0.000780511 -0.000918588 -0.00102721 -0.00110636 -0.00113455 -0.00109023 -0.000973424 -0.000784122 -0.000522325 -0.000188034 0.000218752 0.000698032 0.00124523 0.00185577 0.00252965 0.00326687 0.00406743 0.00493134 0.00585858 0.00684917 0.00786539 0.00886952 0.00986158 0.0108416 0.0118095 0.0127653 0.013709 0.0146407 0.015517 0.0162948 0.016974 0.0175546 0.0180366 0.01842 0.0187049 0.0188912 0.0189735 0.0189465 0.01881 0.0185642 0.0182089 0.0177443 0.0171703 0.016487 0.0157321 0.0149435 0.0141213 0.0132654 0.0123758 0.0114526 0.0104957 0.00950512 0.00852309 0.00759177 0.00671115 0.00588125 0.00510206 0.00437358 0.0036958 0.00306874 0.00249947 0.00199507 0.00155554 0.00118088 0.000871094 0.000626177 0.000446131 0.000330957 0.000253389 0.000186163 0.00012928 8.27391e-05 4.65408e-05 2.06848e-05 5.1712e-06 0 0 -4.9036e-06 -1.96144e-05 -4.41324e-05 -7.84577e-05 -0.00012259 -0.00017653 -0.000240277 -0.000313831 -0.000382849 -0.00043299 -0.000464253 -0.000476638 -0.000470146 -0.000444775 -0.000400527 -0.000337401 -0.000251393 -0.000138498 1.2825e-06 0.000167949 0.000361502 0.000581941 0.000829267 0.00110348 0.00138426 0.00165131 0.00190461 0.00214418 0.00237001 0.0025821 0.00278044 0.00296505 0.00311947 0.00322724 0.00328837 0.00330286 0.0032707 0.0031919 0.00306645 0.00289436 0.00268563 0.00245026 0.00218827 0.00189964 0.00158438 0.00124248 0.000873957 0.000478797 9.03696e-05 -0.00025796 -0.000566192 -0.000834326 -0.00106236 -0.0012503 -0.00139814 -0.00150588 -0.00154424 -0.00148393 -0.00132494 -0.00106728 -0.000710943 -0.000255935 0.000297745 0.000950099 0.0016949 0.00252591 0.00344313 0.00444657 0.00553623 0.0067121 0.00797418 0.00932248 0.0107057 0.0120724 0.0134227 0.0147566 0.016074 0.017375 0.0186595 0.0199276 0.0211204 0.022179 0.0231034 0.0238937 0.0245498 0.0250717 0.0254595 0.025713 0.0258251 0.0257882 0.0256025 0.0252679 0.0247844 0.024152 0.0233707 0.0224406 0.0214131 0.0203398 0.0192206 0.0180556 0.0168448 0.0155882 0.0142858 0.0129375 0.0116009 0.0103332 0.00913463 0.00800504 0.00694447 0.00595292 0.0050304 0.0041769 0.00340206 0.00271551 0.00211726 0.00160731 0.00118566 0.000852296 0.000607234 0.000450469 0.00034489 0.000253389 0.000175964 0.000112617 6.33472e-05 2.81543e-05 7.03857e-06 0 0 -6.40471e-06 -2.56188e-05 -5.76424e-05 -0.000102475 -0.000160118 -0.000230569 -0.000313831 -0.000409901 -0.000500048 -0.000565538 -0.000606372 -0.000622548 -0.000614068 -0.000580931 -0.000523137 -0.000440687 -0.000328349 -0.000180895 1.6751e-06 0.000219362 0.000472166 0.000760087 0.00108312 0.00144128 0.00180802 0.00215681 0.00248766 0.00280056 0.00309552 0.00337253 0.0036316 0.00387272 0.00407441 0.00421518 0.00429502 0.00431394 0.00427193 0.00416901 0.00400516 0.00378038 0.00350776 0.00320034 0.00285815 0.00248116 0.00206939 0.00162284 0.00114149 0.000625367 0.000118034 -0.000336927 -0.000739516 -0.00108973 -0.00138757 -0.00163305 -0.00182614 -0.00196687 -0.00201697 -0.00193819 -0.00173053 -0.00139399 -0.000928578 -0.000334283 0.000388892 0.00124095 0.00221374 0.00329914 0.00449715 0.00580777 0.00723099 0.00876682 0.0104153 0.0121763 0.0139829 0.015768 0.0175317 0.0192739 0.0209946 0.0226938 0.0243716 0.0260279 0.0275858 0.0289685 0.0301759 0.0312081 0.0320651 0.0327467 0.0332532 0.0335844 0.0337307 0.0336826 0.03344 0.033003 0.0323715 0.0315455 0.0305251 0.0293102 0.0279681 0.0265662 0.0251045 0.0235829 0.0220014 0.0203601 0.018659 0.016898 0.0151522 0.0134965 0.0119309 0.0104556 0.00907033 0.00777525 0.00657032 0.00545554 0.0044435 0.00354679 0.0027654 0.00209934 0.00154861 0.0011132 0.000793122 0.000588367 0.000450469 0.000330957 0.000229831 0.000147092 8.27391e-05 3.6773e-05 9.19324e-06 0 0 -7.67363e-06 -3.06945e-05 -6.90626e-05 -0.000122778 -0.000191841 -0.000276251 -0.000376008 -0.000491112 -0.000597716 -0.000671971 -0.000713878 -0.000723436 -0.000700645 -0.000645506 -0.000558018 -0.000438182 -0.000279832 -7.68046e-05 0.000170901 0.000463286 0.000800348 0.00118209 0.00160851 0.0020796 0.00256132 0.00301961 0.00345446 0.00386589 0.00425387 0.00461843 0.00495955 0.00527724 0.00554398 0.00573226 0.00584207 0.00587341 0.00582629 0.00570071 0.00549666 0.00521414 0.00486994 0.00448082 0.00404679 0.00356785 0.00304399 0.00247522 0.00186154 0.00120295 0.000555197 -2.5946e-05 -0.000540482 -0.000988413 -0.00136974 -0.00168445 -0.00193257 -0.00211407 -0.00218015 -0.00208198 -0.00181957 -0.0013929 -0.000801993 -4.68352e-05 0.00087257 0.00195622 0.00319371 0.00457461 0.00609894 0.00776668 0.00957785 0.0115324 0.0136304 0.0158719 0.0181713 0.0204433 0.0226879 0.024905 0.0270948 0.0292571 0.031392 0.0334994 0.0354816 0.0372405 0.0387762 0.0400887 0.041178 0.0420441 0.0426869 0.0431066 0.0432907 0.0432268 0.042915 0.0423553 0.0415477 0.0404922 0.0391887 0.0376374 0.0359236 0.0341329 0.0322654 0.0303209 0.0282996 0.0262014 0.0240264 0.0217744 0.019541 0.0174218 0.0154166 0.0135255 0.0117485 0.0100855 0.0085367 0.00710195 0.00579791 0.00464123 0.0036319 0.00276992 0.0020553 0.00148803 0.00106811 0.000795547 0.000609091 0.000447495 0.000310761 0.000198887 0.000111874 4.97217e-05 1.24304e-05 0 0 -8.27803e-06 -3.31121e-05 -7.45023e-05 -0.000132448 -0.000206951 -0.000298009 -0.000405623 -0.000529794 -0.000640695 -0.0007085 -0.000733209 -0.000714824 -0.000653342 -0.000548765 -0.000401093 -0.000210325 2.98935e-05 0.000325916 0.000677743 0.00108537 0.00154881 0.00206805 0.00264309 0.00327394 0.00391723 0.0045296 0.00511105 0.00566157 0.00618117 0.00666985 0.0071276 0.00755444 0.00791549 0.00817592 0.00833571 0.00839488 0.00835341 0.00821132 0.00796859 0.00762523 0.00720261 0.00672209 0.00618366 0.00558733 0.0049331 0.00422097 0.00345093 0.002623 0.00180767 0.00107546 0.000426376 -0.00013959 -0.000622434 -0.00102216 -0.00133876 -0.00157224 -0.00166121 -0.00154426 -0.00122141 -0.000692633 4.2051e-05 0.000982648 0.00212916 0.00348158 0.00502674 0.00675145 0.00865572 0.0107395 0.0130029 0.0154459 0.0180683 0.0208704 0.023745 0.026585 0.0293905 0.0321615 0.0348979 0.0375998 0.0402672 0.0429001 0.045376 0.0475723 0.0494892 0.0511265 0.0524844 0.0535628 0.0543616 0.054881 0.0551051 0.0550181 0.0546201 0.053911 0.0528908 0.0515596 0.0499173 0.0479639 0.045806 0.04355 0.0411959 0.0387438 0.0361936 0.0335453 0.030799 0.0279546 0.0251316 0.0224494 0.0199081 0.0175075 0.0152477 0.0131288 0.0111507 0.00931339 0.00763938 0.00615114 0.00484867 0.00373198 0.00280105 0.0020559 0.00149651 0.0011229 0.000859722 0.000631633 0.000438634 0.000280726 0.000157908 7.01814e-05 1.75454e-05 0 0 -8.21792e-06 -3.28717e-05 -7.39613e-05 -0.000131487 -0.000205448 -0.000295845 -0.000402678 -0.000525947 -0.000628985 -0.000675125 -0.000664367 -0.000596712 -0.000472159 -0.000290709 -5.23603e-05 0.000242886 0.000600828 0.00102727 0.0015222 0.00208563 0.00271755 0.00341797 0.00418689 0.0050243 0.00587575 0.00668678 0.0074574 0.00818761 0.00887741 0.00952679 0.0101358 0.0107043 0.0111889 0.0115462 0.011776 0.0118783 0.0118533 0.0117008 0.011421 0.0110137 0.0105058 0.00992413 0.00926875 0.00853961 0.00773671 0.00686007 0.00590967 0.00488552 0.00387545 0.0029673 0.00216106 0.00145674 0.000854332 0.000353843 -4.473e-05 -0.000341387 -0.000460149 -0.000325036 6.39525e-05 0.000706816 0.00160355 0.00275417 0.00415866 0.00581702 0.00771283 0.00982965 0.0121675 0.0147263 0.0175062 0.0205071 0.023729 0.0271719 0.0307039 0.0341932 0.0376396 0.0410432 0.0444041 0.0477222 0.0509974 0.0542299 0.0572689 0.0599639 0.0623147 0.0643215 0.0659842 0.0673027 0.0682772 0.0689076 0.069174 0.0690565 0.0685551 0.0676698 0.0664007 0.0647476 0.0627106 0.0602898 0.0576152 0.0548173 0.0518961 0.0488514 0.0456833 0.0423918 0.0389769 0.0354387 0.0319239 0.0285795 0.0254053 0.0224016 0.0195681 0.016905 0.0144123 0.0120899 0.00996791 0.00807653 0.00641573 0.00498551 0.00378587 0.00281681 0.00207833 0.00157043 0.00120236 0.000883369 0.000613451 0.000392609 0.000220842 9.81521e-05 2.4538e-05 0 0 -7.49329e-06 -2.99732e-05 -6.74396e-05 -0.000119893 -0.000187332 -0.000269759 -0.000367171 -0.000479571 -0.000562586 -0.000571846 -0.000507351 -0.000369101 -0.000157096 0.000128664 0.000488179 0.000921449 0.00143297 0.00202725 0.00270427 0.00346405 0.00430657 0.00523185 0.00623988 0.00733066 0.00843686 0.00949116 0.0104935 0.011444 0.0123426 0.0131892 0.013984 0.0147268 0.0153643 0.015843 0.0161628 0.0163238 0.0163259 0.0161692 0.0158537 0.0153794 0.0147794 0.014087 0.0133021 0.0124247 0.0114548 0.0103925 0.00923775 0.00799051 0.00675854 0.00564956 0.00466357 0.00380057 0.00306056 0.00244355 0.00194953 0.0015785 0.00142303 0.0015757 0.00203651 0.00280544 0.00388252 0.00526772 0.00696106 0.00896254 0.011252 0.0138092 0.0166343 0.0197271 0.0230877 0.0267161 0.0306124 0.0347764 0.0390482 0.0432678 0.0474352 0.0515503 0.0556133 0.059624 0.0635825 0.0674888 0.0711605 0.0744152 0.0772529 0.0796736 0.0816773 0.083264 0.0844337 0.0851864 0.0854974 0.085342 0.0847202 0.083632 0.0820773 0.0800563 0.0775688 0.0746149 0.0713514 0.0679351 0.0643658 0.0606437 0.0567687 0.0527409 0.0485601 0.0442266 0.0399179 0.0358118 0.0319085 0.0282077 0.0247097 0.0214142 0.0183215 0.0154314 0.0127835 0.0104174 0.00833307 0.00653052 0.00500976 0.00377077 0.00281357 0.00213814 0.00163701 0.0012027 0.000835212 0.000534535 0.000300676 0.000133634 3.34085e-05 0 0 -6.10415e-06 -2.44166e-05 -5.49374e-05 -9.76664e-05 -0.000152604 -0.000219749 -0.000299103 -0.000390666 -0.000441498 -0.000398663 -0.000262161 -3.1991e-05 0.000291847 0.000709352 0.00122052 0.00182536 0.00252632 0.00332586 0.00422396 0.00522063 0.00631588 0.00750969 0.00880208 0.010193 0.0116006 0.0129427 0.0142195 0.0154308 0.0165767 0.0176572 0.0186724 0.0196221 0.0204416 0.0210664 0.0214962 0.0217312 0.0217713 0.0216166 0.021267 0.0207225 0.0200236 0.0192106 0.0182836 0.0172425 0.0160875 0.0148183 0.0134352 0.011938 0.0104569 0.00912224 0.0079339 0.0068919 0.00599626 0.00524696 0.00464401 0.00418742 0.00398834 0.00415795 0.00469626 0.00560325 0.00687894 0.00852331 0.0105364 0.0129181 0.0156442 0.0186901 0.022056 0.0257418 0.0297474 0.034073 0.0387185 0.0436838 0.0487778 0.0538089 0.0587772 0.0636827 0.0685255 0.0733054 0.0780226 0.0826769 0.0870507 0.0909264 0.0943038 0.0971829 0.0995639 0.101447 0.102831 0.103717 0.104075 0.103875 0.103115 0.101797 0.0999208 0.0974856 0.0944919 0.0909395 0.0870145 0.0829031 0.0786052 0.0741208 0.0694499 0.0645925 0.0595486 0.0543183 0.0491135 0.0441466 0.0394174 0.034926 0.0306723 0.0266564 0.0228783 0.0193379 0.0160862 0.0131737 0.0106007 0.00836702 0.00647271 0.00491778 0.00370222 0.00282602 0.00216368 0.00158964 0.00110392 0.000706506 0.00039741 0.000176627 4.41566e-05 0 0 -4.0505e-06 -1.6202e-05 -3.64545e-05 -6.48079e-05 -0.000101262 -0.000145818 -0.000198474 -0.000259232 -0.000265722 -0.000155577 7.12031e-05 0.000414619 0.000874669 0.00145136 0.00214468 0.00295463 0.00388089 0.00492309 0.00608126 0.00735538 0.00874546 0.0102515 0.0118735 0.0136114 0.0153669 0.0170415 0.0186351 0.0201479 0.0215798 0.0229307 0.0242008 0.02539 0.0264209 0.0272163 0.0277762 0.0281006 0.0281895 0.0280428 0.0276606 0.0270429 0.0262382 0.025295 0.0242133 0.0229932 0.0216346 0.0201375 0.0185019 0.0167279 0.0149706 0.0133854 0.0119721 0.0107307 0.00966142 0.00876408 0.00803873 0.00748536 0.00723577 0.00742171 0.0080432 0.00910024 0.0105928 0.0125209 0.0148846 0.0176838 0.0208895 0.0244724 0.0284328 0.0327704 0.0374854 0.0425777 0.0480473 0.0538943 0.0598926 0.0658164 0.0716657 0.0774405 0.0831407 0.0887663 0.0943175 0.0997941 0.10494 0.109497 0.113467 0.116849 0.119644 0.121851 0.12347 0.124501 0.124908 0.124654 0.12374 0.122166 0.119931 0.117036 0.11348 0.109263 0.104605 0.0997215 0.0946142 0.0892826 0.0837268 0.0779467 0.0719424 0.0657138 0.0595109 0.0535837 0.0479321 0.0425563 0.0374561 0.0326316 0.0280827 0.0238095 0.0198759 0.0163456 0.0132186 0.010495 0.00817473 0.00625783 0.00474428 0.00363408 0.00278235 0.00204417 0.00141956 0.000908521 0.000511043 0.00022713 5.67826e-05 0 0 -1.33232e-06 -5.3293e-06 -1.19909e-05 -2.13172e-05 -3.33081e-05 -4.79637e-05 -6.52839e-05 -8.52687e-05 -3.52569e-05 0.000157413 0.000492741 0.000970728 0.00159137 0.00235467 0.00326064 0.00430925 0.00549666 0.00681896 0.00827618 0.0098683 0.0115953 0.0134573 0.0154541 0.0175858 0.0197358 0.0217874 0.0237406 0.0255954 0.0273518 0.0290098 0.0305694 0.0320305 0.0333021 0.0342929 0.0350028 0.035432 0.0355804 0.0354479 0.0350347 0.0343406 0.0334233 0.0323402 0.0310913 0.0296766 0.0280962 0.02635 0.0244381 0.0223603 0.0202997 0.0184389 0.016778 0.0153171 0.014056 0.0129949 0.0121337 0.0114723 0.0111653 0.011367 0.0120773 0.0132964 0.0150242 0.0172606 0.0200057 0.0232596 0.0269878 0.0311561 0.0357645 0.040813 0.0463015 0.0522301 0.0585989 0.0654077 0.0723928 0.0792904 0.0861007 0.0928235 0.0994589 0.106007 0.112467 0.11884 0.124827 0.130128 0.134743 0.138673 0.141917 0.144476 0.146349 0.147536 0.147995 0.147681 0.146596 0.144738 0.142108 0.138706 0.134532 0.129586 0.124121 0.11839 0.112393 0.106129 0.0995994 0.0928035 0.0857414 0.0784131 0.0711099 0.0641231 0.0574527 0.0510987 0.045061 0.0393397 0.0339347 0.0288462 0.0241526 0.0199329 0.0161868 0.0129144 0.0101158 0.00779093 0.00593976 0.00456232 0.00349303 0.0025663 0.00178216 0.00114058 0.000641576 0.000285145 7.12862e-05 0 0 2.05036e-06 8.20145e-06 1.84533e-05 3.28058e-05 5.12591e-05 7.38131e-05 0.000100468 0.000131223 0.000249897 0.000540307 0.00100245 0.00163634 0.00244195 0.00341931 0.0045684 0.00588923 0.00737363 0.00901346 0.0108087 0.0127594 0.0148655 0.017127 0.0195439 0.0221163 0.0247074 0.0271806 0.0295359 0.0317733 0.0338927 0.0358943 0.037778 0.0395438 0.0410852 0.042296 0.0431761 0.0437254 0.043944 0.043832 0.0433892 0.0426157 0.0415789 0.0403462 0.0389175 0.0372929 0.0354724 0.0334559 0.0312435 0.0288352 0.026444 0.0242829 0.0223518 0.0206509 0.0191801 0.0179394 0.0169288 0.0161483 0.015777 0.0159938 0.0167987 0.0181917 0.020173 0.0227423 0.0258998 0.0296454 0.0339392 0.0387411 0.0440512 0.0498695 0.0561959 0.0630304 0.0703732 0.078224 0.0862782 0.0942309 0.102082 0.109832 0.11748 0.125027 0.132472 0.139816 0.146713 0.152818 0.158132 0.162654 0.166384 0.169322 0.171469 0.172824 0.173336 0.172955 0.171681 0.169513 0.166452 0.162498 0.15765 0.151909 0.145565 0.138909 0.131941 0.12466 0.117068 0.109163 0.100946 0.0924163 0.0839107 0.075765 0.0679791 0.0605531 0.053487 0.0467808 0.0404344 0.0344478 0.0289165 0.0239356 0.0195053 0.0156254 0.012296 0.00951707 0.00728866 0.00561073 0.00429571 0.00315604 0.00219169 0.00140268 0.000789009 0.000350671 8.76677e-05 0 0 6.6554e-06 2.66216e-05 5.98986e-05 0.000106486 0.000166385 0.000239594 0.000326115 0.000425946 0.000634883 0.00104872 0.00166746 0.00249111 0.00351965 0.0047531 0.00619145 0.0078347 0.00966913 0.011681 0.0138704 0.0162372 0.0187814 0.0215031 0.0244023 0.0274789 0.0305742 0.0335296 0.0363449 0.0390202 0.0415555 0.0439507 0.046206 0.0483212 0.0501734 0.0516395 0.0527195 0.0534135 0.0537213 0.053643 0.0531786 0.0523282 0.0511697 0.0497813 0.048163 0.0463147 0.0442366 0.0419285 0.0393905 0.0366226 0.0338704 0.0313796 0.0291502 0.0271822 0.0254756 0.0240304 0.0228466 0.0219242 0.0214687 0.0216855 0.0225747 0.0241362 0.0263702 0.0292765 0.0328551 0.0371061 0.0419834 0.0474408 0.0534784 0.0600962 0.0672941 0.0750721 0.0834303 0.0923687 0.101539 0.110593 0.119531 0.128352 0.137057 0.145646 0.154119 0.162475 0.170322 0.177266 0.183307 0.188445 0.19268 0.196012 0.198441 0.199967 0.200532 0.200075 0.198598 0.1961 0.19258 0.18804 0.182479 0.175897 0.168623 0.160988 0.152989 0.144629 0.135906 0.126822 0.117374 0.107565 0.0977768 0.0883929 0.0794134 0.0708383 0.0626676 0.0549013 0.0475394 0.040582 0.0341429 0.0283364 0.0231625 0.018621 0.0147121 0.0114357 0.00879177 0.00678041 0.00519125 0.00381398 0.0026486 0.0016951 0.000953495 0.000423776 0.000105944 0 0 1.30406e-05 5.21625e-05 0.000117366 0.00020865 0.000326016 0.000469463 0.000638991 0.0008346 0.00116484 0.00173828 0.0025549 0.0036147 0.0049177 0.00646388 0.00825325 0.0102858 0.0125404 0.0149961 0.0176526 0.0205102 0.0235687 0.0268282 0.0302886 0.03395 0.0376292 0.0411431 0.0444917 0.0476749 0.0506928 0.0535454 0.0562326 0.0587545 0.0609698 0.0627373 0.064057 0.0649288 0.0653529 0.0653291 0.0648575 0.063938 0.0626603 0.0611139 0.0592988 0.0572149 0.0548624 0.0522411 0.0493511 0.0461924 0.0430456 0.0401914 0.0376298 0.0353608 0.0333844 0.0317006 0.0303093 0.0292107 0.0286382 0.0288256 0.0297728 0.0314799 0.0339468 0.0371735 0.04116 0.0459064 0.0513601 0.0574684 0.0642315 0.0716492 0.0797216 0.0884487 0.0978305 0.107867 0.118165 0.128332 0.138367 0.148271 0.158044 0.167685 0.177195 0.186573 0.195378 0.203167 0.20994 0.215698 0.22044 0.224166 0.226876 0.228571 0.229182 0.228641 0.226949 0.224106 0.220111 0.214964 0.208666 0.201217 0.192983 0.184334 0.175269 0.165787 0.15589 0.145576 0.134847 0.123701 0.112572 0.101891 0.0916575 0.0818728 0.0725362 0.0636479 0.0552078 0.0472159 0.0398075 0.0331178 0.0271468 0.0218945 0.017361 0.0135461 0.0104499 0.00807245 0.00618047 0.00454076 0.0031533 0.00201811 0.00113519 0.000504528 0.000126132 0 0 2.12061e-05 8.48242e-05 0.000190854 0.000339297 0.000530151 0.000763418 0.0010391 0.00135719 0.00183978 0.00260897 0.00366475 0.00500713 0.0066361 0.00855166 0.0107538 0.0132426 0.0159876 0.0189586 0.0221555 0.0255784 0.0292273 0.0331021 0.0372028 0.0415296 0.0458723 0.0500212 0.0539763 0.0577375 0.0613048 0.0646782 0.0678578 0.0708435 0.0734744 0.0755893 0.0771884 0.0782715 0.0788388 0.0788902 0.0784257 0.0774453 0.0760509 0.0743441 0.0723249 0.0699935 0.0673498 0.0643937 0.0611254 0.0575447 0.0539697 0.0507184 0.0477908 0.0451868 0.0429065 0.0409499 0.039317 0.0380078 0.0372857 0.0374141 0.0383931 0.0402226 0.0429027 0.0464334 0.0508146 0.0560464 0.0620693 0.068824 0.0763104 0.0845286 0.0934785 0.10316 0.113574 0.124719 0.136157 0.147447 0.158591 0.169589 0.180439 0.191143 0.201699 0.212109 0.221881 0.230522 0.238033 0.244413 0.249664 0.253784 0.256774 0.258634 0.259286 0.258653 0.256735 0.253531 0.249043 0.24327 0.236211 0.227868 0.218645 0.208949 0.198779 0.188135 0.177018 0.165427 0.153363 0.140825 0.128296 0.116258 0.104712 0.0936565 0.0830928 0.0730204 0.0634394 0.0543497 0.0459102 0.0382798 0.0314584 0.025446 0.0202427 0.0158484 0.0122631 0.00948686 0.00726338 0.00533636 0.00370581 0.00237172 0.00133409 0.000592929 0.000148232 0 0 3.11517e-05 0.000124607 0.000280365 0.000498427 0.000778791 0.00112146 0.00152643 0.00199371 0.00265969 0.0036608 0.00499703 0.00666837 0.00867484 0.0110164 0.0136931 0.016705 0.0200106 0.0235686 0.027379 0.0314419 0.0357572 0.0403249 0.045145 0.0502176 0.0553035 0.0601639 0.0647986 0.0692078 0.0733913 0.0773493 0.0810816 0.0845883 0.0876871 0.0901955 0.0921137 0.0934416 0.0941792 0.0943264 0.0938834 0.0928501 0.0913413 0.0894717 0.0872415 0.0846505 0.0816988 0.0783864 0.0747133 0.0706795 0.0666427 0.0629605 0.059633 0.0566602 0.054042 0.0517785 0.0498697 0.0483156 0.047411 0.047451 0.0484355 0.0503645 0.0532381 0.0570562 0.0618188 0.067526 0.074111 0.0815075 0.0897153 0.0987344 0.108565 0.119207 0.13066 0.142924 0.155513 0.16794 0.180203 0.192305 0.204243 0.216019 0.227633 0.239084 0.24983 0.25933 0.267584 0.274591 0.280352 0.284867 0.288135 0.290156 0.290844 0.29011 0.287954 0.284377 0.279378 0.272957 0.265115 0.255851 0.245609 0.234832 0.22352 0.211673 0.199291 0.186374 0.172923 0.158936 0.144949 0.131495 0.118576 0.10619 0.0943374 0.083019 0.0722343 0.0619834 0.0524511 0.0438224 0.0360971 0.0292754 0.0233572 0.0183425 0.0142313 0.0110236 0.00843997 0.00620079 0.00430611 0.00275591 0.0015502 0.000688977 0.000172244 0 0 4.28775e-05 0.00017151 0.000385897 0.000686039 0.00107194 0.00154359 0.002101 0.00274416 0.00362458 0.00489377 0.00655173 0.00859845 0.0110339 0.0138582 0.0170712 0.020673 0.0246094 0.0288261 0.0333232 0.0381006 0.0431584 0.0484966 0.0541151 0.060014 0.0659229 0.0715711 0.0769588 0.0820859 0.0869525 0.0915585 0.095904 0.0999889 0.103608 0.106556 0.108833 0.110439 0.111374 0.111638 0.111231 0.110152 0.108532 0.106497 0.104048 0.101186 0.0979094 0.0942191 0.0901149 0.0855968 0.0810644 0.0769177 0.0731565 0.0697809 0.0667908 0.0641863 0.0619673 0.060134 0.0590142 0.0589363 0.0599 0.0619056 0.0649528 0.0690419 0.0741726 0.0803452 0.0874853 0.0955189 0.104446 0.114267 0.124981 0.136588 0.149089 0.162484 0.176235 0.189809 0.203203 0.216419 0.229457 0.242316 0.254996 0.267497 0.279227 0.289593 0.298595 0.306232 0.312505 0.317414 0.320958 0.323138 0.323856 0.323012 0.320607 0.316641 0.311114 0.304026 0.295376 0.285166 0.273874 0.261983 0.249492 0.2364 0.222709 0.208417 0.193526 0.178034 0.162531 0.147602 0.133249 0.119472 0.10627 0.0936435 0.0815925 0.0701169 0.0594301 0.0497455 0.041063 0.0333827 0.0267045 0.0210284 0.0163545 0.0126828 0.00971024 0.00713406 0.00495421 0.00317069 0.00178351 0.000792673 0.000198168 0 0 5.63834e-05 0.000225534 0.000507451 0.000902135 0.00140959 0.0020298 0.00276279 0.00360854 0.00473444 0.00630788 0.00832885 0.0107973 0.0137134 0.0170769 0.0208881 0.0251467 0.029784 0.0347311 0.0399879 0.0455546 0.051431 0.0576172 0.0641132 0.070919 0.0777303 0.0842429 0.0904567 0.0963719 0.101988 0.107306 0.112325 0.117045 0.121237 0.124671 0.127346 0.129264 0.130423 0.130824 0.130467 0.129352 0.127622 0.12542 0.122746 0.1196 0.115982 0.111892 0.10733 0.102296 0.0972351 0.09259 0.0883613 0.0845489 0.0811529 0.0781732 0.0756099 0.073463 0.0720954 0.0718699 0.0727867 0.0748457 0.078047 0.0823904 0.0878761 0.094504 0.102192 0.110858 0.120503 0.131125 0.142726 0.155304 0.168861 0.183396 0.198