<?xml version="1.0"?> 
<VTKFile type="StructuredGrid" version="0.1"> 
<StructuredGrid WholeExtent="0 128 0 128 0 0"> 
<Piece Extent="0 128 0 128 0 0"> 
<PointData>
<DataArray type="Float32" Name="u" format="ascii" NumberOfComponents="1"> 
0 0 0 0 0 0 0 0 0 0 0 0 0 0 0 0 0 0 0 0 0 0 0 0 0 0 0 0 0 0 0 0 0 0 0 0 0 0 0 0 0 0 0 0 0 0 0 0 0 0 0 0 0 0 0 0 0 0 0 0 0 0 0 0 0 0 0 0 0 0 0 0 0 0 0 0 0 0 0 0 0 0 0 0 0 0 0 0 0 0 0 0 0 0 0 0 0 0 0 0 0 0 0 0 0 0 0 0 0 0 0 0 0 0 0 0 0 0 0 0 0 0 0 0 0 0 0 0 0 0 -1.0838e-07 -4.33521e-07 -9.75423e-07 -1.73408e-06 -2.70951e-06 -3.90169e-06 -5.31064e-06 -6.93634e-06 -8.48077e-06 -9.64589e-06 -1.04317e-05 -1.08382e-05 -1.08654e-05 -1.05133e-05 -9.7819e-06 -8.67118e-06 -7.08555e-06 -4.9294e-06 -2.20275e-06 1.09441e-06 4.96209e-06 9.40027e-06 1.4409e-05 1.99882e-05 2.57174e-05 3.11763e-05 3.63646e-05 4.12826e-05 4.59302e-05 5.03073e-05 5.4414e-05 5.82503e-05 6.14666e-05 6.37136e-05 6.49911e-05 6.52992e-05 6.4638e-05 6.30073e-05 6.04072e-05 5.68377e-05 5.25016e-05 4.76018e-05 4.21382e-05 3.61109e-05 2.95198e-05 2.2365e-05 1.46464e-05 6.36401e-06 -1.78521e-06 -9.10439e-06 -1.55935e-05 -2.12527e-05 -2.60818e-05 -3.00808e-05 -3.32499e-05 -3.55889e-05 -3.64822e-05 -3.53141e-05 -3.20846e-05 -2.67937e-05 -1.94415e-05 -1.00278e-05 1.44724e-06 1.49837e-05 3.04532e-05 4.77275e-05 6.68065e-05 8.76903e-05 0.000110379 0.000134872 0.00016117 0.000189273 0.000218105 0.000246592 0.000274733 0.000302528 0.000329978 0.000357082 0.00038384 0.000410253 0.00043509 0.000457122 0.000476348 0.000492769 0.000506385 0.000517195 0.0005252 0.000530399 0.00053265 0.000531807 0.00052787 0.000520841 0.000510718 0.000497502 0.000481193 0.00046179 0.000440379 0.000418043 0.000394783 0.000370599 0.00034549 0.000319457 0.000292499 0.000264617 0.000237 0.000210837 0.000186128 0.000162874 0.000141074 0.000120728 0.000101836 8.4399e-05 6.8596e-05 5.46074e-05 4.24333e-05 3.20736e-05 2.35283e-05 1.67975e-05 1.18811e-05 8.77908e-06 6.72148e-06 4.93823e-06 3.42933e-06 2.19477e-06 1.23456e-06 5.48693e-07 1.37173e-07 0 0 -4.33521e-07 -1.73408e-06 -3.90169e-06 -6.93634e-06 -1.0838e-05 -1.56068e-05 -2.12425e-05 -2.77454e-05 -3.39231e-05 -3.85836e-05 -4.17268e-05 -4.33529e-05 -4.34617e-05 -4.20533e-05 -3.91276e-05 -3.46847e-05 -2.83422e-05 -1.97176e-05 -8.81101e-06 4.37765e-06 1.98483e-05 3.76011e-05 5.76359e-05 7.99527e-05 0.00010287 0.000124705 0.000145459 0.00016513 0.000183721 0.000201229 0.000217656 0.000233001 0.000245866 0.000254854 0.000259964 0.000261197 0.000258552 0.000252029 0.000241629 0.000227351 0.000210007 0.000190407 0.000168553 0.000144444 0.000118079 8.94598e-05 5.85854e-05 2.5456e-05 -7.14083e-06 -3.64176e-05 -6.23742e-05 -8.50107e-05 -0.000104327 -0.000120323 -0.000133 -0.000142356 -0.000145929 -0.000141256 -0.000128338 -0.000107175 -7.77659e-05 -4.01113e-05 5.78896e-06 5.99347e-05 0.000121813 0.00019091 0.000267226 0.000350761 0.000441515 0.000539488 0.000644681 0.000757092 0.000872421 0.000986368 0.00109893 0.00121011 0.00131991 0.00142833 0.00153536 0.00164101 0.00174036 0.00182849 0.00190539 0.00197108 0.00202554 0.00206878 0.0021008 0.0021216 0.0021306 0.00212723 0.00211148 0.00208336 0.00204287 0.00199001 0.00192477 0.00184716 0.00176152 0.00167217 0.00157913 0.0014824 0.00138196 0.00127783 0.00117 0.00105847 0.000947999 0.000843348 0.000744513 0.000651496 0.000564295 0.000482912 0.000407345 0.000337596 0.000274384 0.00021843 0.000169733 0.000128294 9.41133e-05 6.71899e-05 4.75243e-05 3.51163e-05 2.68859e-05 1.97529e-05 1.37173e-05 8.77908e-06 4.93823e-06 2.19477e-06 5.48693e-07 0 0 -9.75423e-07 -3.90169e-06 -8.77881e-06 -1.56068e-05 -2.43856e-05 -3.51152e-05 -4.77957e-05 -6.24271e-05 -7.63269e-05 -8.68131e-05 -9.38854e-05 -9.7544e-05 -9.77888e-05 -9.46198e-05 -8.80371e-05 -7.80406e-05 -6.37699e-05 -4.43646e-05 -1.98248e-05 9.84971e-06 4.46588e-05 8.46025e-05 0.000129681 0.000179894 0.000231457 0.000280586 0.000327282 0.000371544 0.000413372 0.000452766 0.000489726 0.000524252 0.000553199 0.000573422 0.00058492 0.000587693 0.000581742 0.000567065 0.000543665 0.000511539 0.000472515 0.000428416 0.000379244 0.000324998 0.000265678 0.000201285 0.000131817 5.72761e-05 -1.60669e-05 -8.19395e-05 -0.000140342 -0.000191274 -0.000234736 -0.000270728 -0.000299249 -0.0003203 -0.00032834 -0.000317827 -0.000288762 -0.000241144 -0.000174973 -9.02503e-05 1.30252e-05 0.000134853 0.000274079 0.000429547 0.000601259 0.000789213 0.000993409 0.00121385 0.00145053 0.00170346 0.00196295 0.00221933 0.0024726 0.00272275 0.0029698 0.00321374 0.00345456 0.00369228 0.00391581 0.0041141 0.00428713 0.00443492 0.00455746 0.00465476 0.0047268 0.0047736 0.00479385 0.00478626 0.00475083 0.00468757 0.00459646 0.00447752 0.00433074 0.00415611 0.00396341 0.00376239 0.00355305 0.00333539 0.00310941 0.00287511 0.00263249 0.00238155 0.002133 0.00189753 0.00167515 0.00146587 0.00126966 0.00108655 0.000916527 0.000759591 0.000617364 0.000491467 0.0003819 0.000288662 0.000211755 0.000151177 0.00010693 7.90117e-05 6.04934e-05 4.44441e-05 3.0864e-05 1.97529e-05 1.1111e-05 4.93823e-06 1.23456e-06 0 0 -1.73408e-06 -6.93634e-06 -1.56068e-05 -2.77454e-05 -4.33521e-05 -6.24271e-05 -8.49702e-05 -0.000110981 -0.000135692 -0.000154334 -0.000166907 -0.000173412 -0.000173847 -0.000168213 -0.00015651 -0.000138739 -0.000113369 -7.88705e-05 -3.5244e-05 1.75106e-05 7.93934e-05 0.000150404 0.000230544 0.000319811 0.000411479 0.00049882 0.000581834 0.000660522 0.000734883 0.000804917 0.000870624 0.000932004 0.000983466 0.00101942 0.00103986 0.00104479 0.00103421 0.00100812 0.000966515 0.000909403 0.000840026 0.000761629 0.000674212 0.000577774 0.000472317 0.000357839 0.000234342 0.000101824 -2.85633e-05 -0.00014567 -0.000249497 -0.000340043 -0.000417308 -0.000481293 -0.000531998 -0.000569422 -0.000583715 -0.000565026 -0.000513354 -0.0004287 -0.000311064 -0.000160445 2.31558e-05 0.000239739 0.000487251 0.00076364 0.0010689 0.00140304 0.00176606 0.00215795 0.00257872 0.00302837 0.00348968 0.00394547 0.00439573 0.00484045 0.00527965 0.00571331 0.00614145 0.00656405 0.00696144 0.00731395 0.00762157 0.00788431 0.00810216 0.00827512 0.0084032 0.00848639 0.00852239 0.00850891 0.00844592 0.00833345 0.00817149 0.00796003 0.00769909 0.00738865 0.00704607 0.00668869 0.00631653 0.00592958 0.00552784 0.00511131 0.00467998 0.00423387 0.003792 0.00337339 0.00297805 0.00260598 0.00225718 0.00193165 0.00162938 0.00135038 0.00109754 0.000873719 0.000678933 0.000513178 0.000376453 0.00026876 0.000190097 0.000140465 0.000107544 7.90117e-05 5.48693e-05 3.51163e-05 1.97529e-05 8.77908e-06 2.19477e-06 0 0 -2.70951e-06 -1.0838e-05 -2.43856e-05 -4.33521e-05 -6.77377e-05 -9.75423e-05 -0.000132766 -0.000173408 -0.000212019 -0.000241147 -0.000260793 -0.000270955 -0.000271636 -0.000262833 -0.000244547 -0.000216779 -0.000177139 -0.000123235 -5.50688e-05 2.73603e-05 0.000124052 0.000235007 0.000360224 0.000499704 0.000642936 0.000779406 0.000909116 0.00103207 0.00114825 0.00125768 0.00136035 0.00145626 0.00153667 0.00159284 0.00162478 0.00163248 0.00161595 0.00157518 0.00151018 0.00142094 0.00131254 0.00119005 0.00105346 0.000902772 0.000737995 0.000559124 0.000366159 0.0001591 -4.46302e-05 -0.00022761 -0.000389839 -0.000531317 -0.000652044 -0.000752021 -0.000831247 -0.000889722 -0.000912055 -0.000882853 -0.000802115 -0.000669844 -0.000486037 -0.000250695 3.6181e-05 0.000374592 0.00076133 0.00119319 0.00167016 0.00219226 0.00275947 0.0033718 0.00402925 0.00473182 0.00545263 0.0061648 0.00686832 0.00756321 0.00824945 0.00892705 0.00959601 0.0102563 0.0108773 0.011428 0.0119087 0.0123192 0.0126596 0.0129299 0.01313 0.01326 0.0133162 0.0132952 0.0131968 0.013021 0.012768 0.0124376 0.0120298 0.0115448 0.0110095 0.0104511 0.00986958 0.00926497 0.00863725 0.00798642 0.00731248 0.00661542 0.005925 0.00527092 0.00465321 0.00407185 0.00352684 0.0030182 0.00254591 0.00210997 0.0017149 0.00136519 0.00106083 0.00080184 0.000588208 0.000419937 0.000297027 0.000219477 0.000168037 0.000123456 8.57332e-05 5.48693e-05 3.0864e-05 1.37173e-05 3.42933e-06 0 0 -3.90169e-06 -1.56068e-05 -3.51152e-05 -6.24271e-05 -9.75423e-05 -0.000140461 -0.000191183 -0.000249708 -0.000305308 -0.000347252 -0.000375542 -0.000390176 -0.000391155 -0.000378479 -0.000352148 -0.000312162 -0.00025508 -0.000177459 -7.92991e-05 3.93988e-05 0.000178635 0.00033841 0.000518723 0.000719574 0.000925827 0.00112235 0.00130913 0.00148617 0.00165349 0.00181106 0.0019589 0.00209701 0.0022128 0.00229369 0.00233968 0.00235077 0.00232697 0.00226826 0.00217466 0.00204616 0.00189006 0.00171366 0.00151698 0.00129999 0.00106271 0.000805138 0.000527269 0.000229104 -6.42675e-05 -0.000327758 -0.000561368 -0.000765096 -0.000938944 -0.00108291 -0.001197 -0.0012812 -0.00131336 -0.00127131 -0.00115505 -0.000964575 -0.000699893 -0.000361001 5.21006e-05 0.000539413 0.00109632 0.00171819 0.00240503 0.00315685 0.00397364 0.0048554 0.00580213 0.00681383 0.00785179 0.00887731 0.00989039 0.010891 0.0118792 0.012855 0.0138183 0.0147691 0.0156632 0.0164564 0.0171485 0.0177397 0.0182299 0.018619 0.0189072 0.0190944 0.0191754 0.019145 0.0190033 0.0187503 0.0183858 0.0179101 0.0173229 0.0166245 0.0158536 0.0150496 0.0142122 0.0133416 0.0124376 0.0115004 0.01053 0.00952621 0.00853199 0.00759013 0.00670062 0.00586346 0.00507866 0.00434621 0.00366611 0.00303836 0.00246946 0.00196587 0.0015276 0.00115465 0.00084702 0.000604709 0.000427718 0.000316047 0.000241973 0.000177776 0.000123456 7.90117e-05 4.44441e-05 1.97529e-05 4.93823e-06 0 0 -5.31064e-06 -2.12425e-05 -4.77957e-05 -8.49702e-05 -0.000132766 -0.000191183 -0.000260221 -0.000339881 -0.000415558 -0.000472649 -0.000511154 -0.000531073 -0.000532406 -0.000515152 -0.000479313 -0.000424888 -0.000347192 -0.000241541 -0.000107935 5.36262e-05 0.000243142 0.000460613 0.000706039 0.000979421 0.00126015 0.00152764 0.00178187 0.00202285 0.00225058 0.00246506 0.00266629 0.00285426 0.00301186 0.00312196 0.00318456 0.00319966 0.00316726 0.00308736 0.00295995 0.00278505 0.00257258 0.00233249 0.00206477 0.00176943 0.00144647 0.00109588 0.000717672 0.000311836 -8.74752e-05 -0.000446115 -0.000764084 -0.00104138 -0.00127801 -0.00147396 -0.00162924 -0.00174386 -0.00178763 -0.00173039 -0.00157215 -0.00131289 -0.000952632 -0.000491363 7.09147e-05 0.000734201 0.00149221 0.00233865 0.00327352 0.00429682 0.00540856 0.00660873 0.00789734 0.00927438 0.0106872 0.012083 0.0134619 0.0148239 0.0161689 0.017497 0.0188082 0.0201024 0.0213194 0.022399 0.0233411 0.0241457 0.0248129 0.0253426 0.0257348 0.0259896 0.0260998 0.0260585 0.0258656 0.0255212 0.0250252 0.0243776 0.0235784 0.0226277 0.0215786 0.0204841 0.0193444 0.0181593 0.016929 0.0156534 0.0143325 0.0129662 0.011613 0.010331 0.00912029 0.00798082 0.00691262 0.00591567 0.00498998 0.00413555 0.0033612 0.00267576 0.00207923 0.00157161 0.00115289 0.000823077 0.000582172 0.000430175 0.000329353 0.000241973 0.000168037 0.000107544 6.04934e-05 2.68859e-05 6.72148e-06 0 0 -6.93634e-06 -2.77454e-05 -6.24271e-05 -0.000110981 -0.000173408 -0.000249708 -0.000339881 -0.000443926 -0.000542769 -0.000617337 -0.000667629 -0.000693646 -0.000695387 -0.000672852 -0.000626042 -0.000554955 -0.000453475 -0.000315482 -0.000140976 7.00424e-05 0.000317574 0.000601617 0.000922174 0.00127924 0.00164592 0.00199528 0.00232734 0.00264209 0.00293953 0.00321967 0.0034825 0.00372802 0.00393386 0.00407767 0.00415943 0.00417915 0.00413683 0.00403247 0.00386606 0.00363761 0.0033601 0.00304652 0.00269685 0.0023111 0.00188927 0.00143136 0.000937367 0.000407296 -0.000114253 -0.000582681 -0.000997987 -0.00136017 -0.00166923 -0.00192517 -0.00212799 -0.00227769 -0.00233486 -0.0022601 -0.00205342 -0.0017148 -0.00124425 -0.00064178 9.26233e-05 0.000958956 0.001949 0.00305456 0.00427562 0.00561218 0.00706424 0.00863182 0.0103149 0.0121135 0.0139587 0.0157819 0.0175829 0.0193618 0.0211186 0.0228532 0.0245658 0.0262562 0.0278458 0.0292558 0.0304863 0.0315372 0.0324086 0.0331005 0.0336128 0.0339456 0.0340896 0.0340356 0.0337837 0.0333338 0.032686 0.0318401 0.0307963 0.0295546 0.0281843 0.0267548 0.0252661 0.0237183 0.0221114 0.0204452 0.0187199 0.0169355 0.015168 0.0134936 0.0119122 0.0104239 0.00902872 0.00772659 0.00651752 0.00540154 0.00439014 0.00349488 0.00271573 0.00205271 0.00150581 0.00107504 0.000760388 0.000561861 0.000430175 0.000316047 0.000219477 0.000140465 7.90117e-05 3.51163e-05 8.77908e-06 0 0 -8.3406e-06 -3.33624e-05 -7.50654e-05 -0.00013345 -0.000208515 -0.000300261 -0.000408689 -0.000533798 -0.000651302 -0.000736915 -0.000790638 -0.000812469 -0.000802409 -0.000760458 -0.000686617 -0.000580884 -0.00043598 -0.000244624 -6.81707e-06 0.000277442 0.000608152 0.000985314 0.00140893 0.00187899 0.00236096 0.00282029 0.00325697 0.003671 0.00406239 0.00443114 0.00477724 0.0051007 0.00537287 0.00556513 0.00567746 0.00570987 0.00566236 0.00553492 0.00532757 0.00504029 0.00468977 0.00429266 0.00384897 0.00335871 0.00282186 0.00223844 0.00160843 0.000931846 0.000265752 -0.00033278 -0.00086375 -0.00132716 -0.00172301 -0.00205129 -0.00231201 -0.00250518 -0.00258049 -0.00248766 -0.00222669 -0.00179759 -0.00120035 -0.000434964 0.000498557 0.00160022 0.0028595 0.0042659 0.00581942 0.00752005 0.0093678 0.0113627 0.0135046 0.0157937 0.0181423 0.0204625 0.0227546 0.0250184 0.027254 0.0294613 0.0316404 0.0337913 0.0358137 0.0376075 0.0391725 0.0405089 0.0416167 0.0424958 0.0431462 0.0435679 0.0437491 0.043678 0.0433545 0.0427786 0.0419503 0.0408696 0.0395366 0.0379512 0.0362015 0.0343759 0.0324742 0.0304965 0.0284427 0.026313 0.0241071 0.0218253 0.0195643 0.0174211 0.0153957 0.0134881 0.0116982 0.0100261 0.00847182 0.0070353 0.00573186 0.0045768 0.00357012 0.00271181 0.00200189 0.00144034 0.00102718 0.000762391 0.000583705 0.000428845 0.000297809 0.000190598 0.000107211 4.76494e-05 1.19124e-05 0 0 -9.0852e-06 -3.63408e-05 -8.17668e-05 -0.000145363 -0.00022713 -0.000327067 -0.000445175 -0.000581453 -0.000705516 -0.000786981 -0.000825847 -0.000822114 -0.000775782 -0.000686851 -0.000555321 -0.000381192 -0.000156757 0.00012569 0.000466148 0.000864619 0.0013211 0.0018356 0.0024081 0.00303862 0.00368315 0.00429767 0.00488219 0.0054367 0.00596122 0.00645573 0.00692024 0.00735474 0.00772298 0.00798867 0.00815183 0.00821245 0.00817053 0.00802607 0.00777907 0.00742953 0.0069987 0.00650784 0.00595693 0.00534599 0.00467501 0.00394399 0.00315294 0.00230185 0.0014629 0.000708264 3.79536e-05 -0.000548036 -0.00104971 -0.00146705 -0.00180008 -0.00204879 -0.00214993 -0.00204028 -0.00171982 -0.00118856 -0.000446492 0.000506375 0.00167004 0.00304452 0.00461649 0.00637265 0.00831302 0.0104376 0.0127463 0.0152393 0.0179164 0.0207778 0.0237134 0.0266136 0.0294782 0.0323073 0.0351009 0.037859 0.0405815 0.0432685 0.0457947 0.0480345 0.0499881 0.0516555 0.0530366 0.0541314 0.0549399 0.0554622 0.0556831 0.0555873 0.0551749 0.0544459 0.0534002 0.052038 0.0503591 0.0483636 0.0461613 0.0438618 0.0414654 0.0389718 0.0363812 0.0336935 0.0309088 0.028027 0.0251693 0.022457 0.0198901 0.0174685 0.0151923 0.0130614 0.011076 0.00923584 0.00756195 0.00607514 0.00477541 0.00366277 0.00273721 0.00199874 0.00144735 0.00108305 0.00082921 0.000609215 0.000423066 0.000270762 0.000152304 6.76906e-05 1.69226e-05 0 0 -9.17014e-06 -3.66806e-05 -8.25313e-05 -0.000146722 -0.000229254 -0.000330125 -0.000449337 -0.000586889 -0.000705412 -0.000767534 -0.000773258 -0.000722581 -0.000615505 -0.000452029 -0.000232154 4.41215e-05 0.000384193 0.000795459 0.00127792 0.00183157 0.00245642 0.00315246 0.0039197 0.00475813 0.00561247 0.00642742 0.00720299 0.00793919 0.008636 0.00929343 0.00991148 0.0104901 0.0109842 0.0113483 0.0115825 0.0116869 0.0116613 0.0115059 0.0112206 0.0108053 0.0102869 0.00969204 0.00902072 0.00827295 0.00744872 0.00654803 0.00557089 0.0045173 0.00347718 0.00254045 0.00170712 0.000977197 0.000350667 -0.000172464 -0.000592196 -0.000908531 -0.00104321 -0.000917959 -0.000532791 0.000112297 0.00101731 0.00218224 0.00360709 0.00529186 0.00721996 0.00937481 0.0117564 0.0143647 0.0171998 0.0202617 0.0235502 0.0270656 0.0306723 0.034235 0.0377537 0.0412285 0.0446593 0.0480462 0.051389 0.0546879 0.0577886 0.060537 0.0629331 0.0649768 0.0666682 0.0680073 0.068994 0.0696284 0.0698913 0.0697635 0.069245 0.0683358 0.0670359 0.0653452 0.0632639 0.0607919 0.0580634 0.0552126 0.0522396 0.0491443 0.0459268 0.0425869 0.0391249 0.0355405 0.031983 0.0286012 0.0253953 0.0223652 0.019511 0.0168325 0.0143299 0.0120031 0.00988039 0.00798988 0.00633161 0.00490558 0.00371179 0.00275023 0.00202091 0.00152384 0.00116669 0.000857158 0.000595249 0.000380959 0.000214289 9.52398e-05 2.38099e-05 0 0 -8.59543e-06 -3.43817e-05 -7.73589e-05 -0.000137527 -0.000214886 -0.000309436 -0.000421176 -0.000550108 -0.000650988 -0.000678575 -0.00063287 -0.000513871 -0.000321579 -5.59939e-05 0.000282884 0.000695055 0.00118687 0.00176469 0.0024285 0.00317831 0.00401411 0.00493592 0.00594372 0.00703752 0.00814892 0.00920955 0.0102194 0.0111785 0.0120867 0.0129442 0.013751 0.0145069 0.0151565 0.015644 0.0159696 0.0161332 0.0161348 0.0159744 0.015652 0.0151677 0.0145544 0.0138453 0.0130403 0.0121396 0.011143 0.0100506 0.00886229 0.0075782 0.00630859 0.00516378 0.00414376 0.00324854 0.00247811 0.00183248 0.00131164 0.0009156 0.000739702 0.000879298 0.00133439 0.00210497 0.00319105 0.00459262 0.00630968 0.00834224 0.0106699 0.0132724 0.0161496 0.0193016 0.0227283 0.0264298 0.0304061 0.0346571 0.0390187 0.0433268 0.0475812 0.051782 0.0559293 0.0600229 0.064063 0.0680494 0.0717956 0.075115 0.0780074 0.080473 0.0825117 0.0841236 0.0853085 0.0860666 0.0863739 0.0862067 0.0855648 0.0844483 0.0828571 0.0807914 0.078251 0.0752361 0.071908 0.0684283 0.0647969 0.061014 0.0570794 0.0529932 0.0487554 0.0443659 0.0400053 0.0358538 0.0319114 0.0281782 0.0246542 0.0213394 0.0182337 0.0153372 0.0126872 0.010321 0.00823872 0.00644024 0.00492561 0.00369481 0.00274786 0.00208475 0.00159614 0.00117267 0.000814356 0.000521188 0.000293168 0.000130297 3.25742e-05 0 0 -7.36107e-06 -2.94443e-05 -6.62496e-05 -0.000117777 -0.000184027 -0.000264998 -0.000360692 -0.000471108 -0.000542246 -0.000520104 -0.000404683 -0.000195983 0.000105996 0.000501255 0.000989793 0.00157161 0.00225128 0.00303337 0.00391788 0.00490482 0.00599417 0.00718595 0.00848016 0.00987678 0.0112925 0.012644 0.0139314 0.0151545 0.0163134 0.0174082 0.0184387 0.019405 0.0202398 0.0208758 0.021313 0.0215514 0.0215909 0.0214316 0.0210735 0.0205166 0.0198011 0.0189676 0.0180158 0.0169459 0.0157578 0.0144515 0.0130271 0.0114846 0.00995715 0.00857825 0.00734787 0.00626599 0.00533263 0.00454778 0.00391144 0.0034236 0.00319879 0.00335149 0.00388172 0.00478947 0.00607474 0.00773753 0.00977784 0.0121957 0.0149664 0.0180654 0.0214926 0.0252481 0.0293318 0.0337438 0.038484 0.0435525 0.0487529 0.0538889 0.0589606 0.0639678 0.0689107 0.0737892 0.0786033 0.083353 0.0878156 0.0917683 0.0952111 0.098144 0.100567 0.10248 0.103883 0.104777 0.105131 0.104917 0.104134 0.102783 0.100864 0.0983764 0.0953205 0.0916961 0.087695 0.0835087 0.0791373 0.0745808 0.0698391 0.0649123 0.0598003 0.0545032 0.0492362 0.0442146 0.0394384 0.0349076 0.0306221 0.026582 0.0227874 0.019238 0.0159824 0.0130686 0.0104967 0.00826676 0.00637867 0.00483249 0.00362819 0.0027658 0.00211756 0.00155576 0.00108039 0.000691449 0.00038894 0.000172862 4.32156e-05 0 0 -5.46705e-06 -2.18682e-05 -4.92034e-05 -8.74727e-05 -0.000136676 -0.000196814 -0.000267885 -0.000349891 -0.000379185 -0.00029212 -8.86978e-05 0.000231083 0.000667221 0.00121972 0.00188857 0.00267379 0.00357741 0.00460151 0.00574607 0.0070111 0.0083966 0.00990258 0.011529 0.0132759 0.0150432 0.0167309 0.018339 0.0198674 0.0213161 0.0226852 0.0239747 0.0251845 0.0262343 0.0270437 0.0276128 0.0279414 0.0280296 0.0278775 0.0274849 0.026852 0.0260272 0.0250589 0.0239471 0.0226919 0.0212932 0.019751 0.0180654 0.0162364 0.0144228 0.0127839 0.0113194 0.0100296 0.00891422 0.00797343 0.00720718 0.00661548 0.00633405 0.00649863 0.0071092 0.00816578 0.00966837 0.011617 0.0140115 0.0168521 0.0201093 0.0237537 0.0277854 0.0322042 0.0370102 0.0422035 0.0477839 0.0537516 0.0598747 0.0659215 0.0718919 0.0777859 0.0836037 0.089345 0.0950101 0.100599 0.105849 0.110497 0.114544 0.11799 0.120834 0.123077 0.124719 0.125759 0.126162 0.125894 0.124953 0.123341 0.121057 0.1181 0.114472 0.110172 0.105424 0.100454 0.0952608 0.0898448 0.0842059 0.0783442 0.0722597 0.0659524 0.0596759 0.0536838 0.0479763 0.0425532 0.0374146 0.0325605 0.0279908 0.0237057 0.0197659 0.0162326 0.0131057 0.0103851 0.00807099 0.00616325 0.00466191 0.00356697 0.00273096 0.00200642 0.00139335 0.000891742 0.000501605 0.000222936 5.57339e-05 0 0 -2.91337e-06 -1.16535e-05 -2.62203e-05 -4.66139e-05 -7.28342e-05 -0.000104881 -0.000142755 -0.000186456 -0.000161805 5.37599e-06 0.000315086 0.000767326 0.0013621 0.00209939 0.00297922 0.00400158 0.00516527 0.0064691 0.00791307 0.00949717 0.0112214 0.0130858 0.0150903 0.0172349 0.0194011 0.0214702 0.0234421 0.025317 0.0270947 0.0287754 0.0303589 0.0318453 0.0331399 0.0341477 0.0348688 0.0353033 0.035451 0.0353121 0.0348864 0.034174 0.0332325 0.0321192 0.0308342 0.0293775 0.0277491 0.025949 0.0239772 0.0218336 0.0197057 0.0177806 0.0160585 0.0145392 0.0132229 0.0121094 0.0111989 0.0104912 0.0101455 0.0103207 0.0110168 0.0122339 0.0139719 0.0162309 0.0190108 0.0223116 0.0260988 0.0303375 0.0350279 0.04017 0.0457637 0.051809 0.0583059 0.0652545 0.0723842 0.0794244 0.0863751 0.0932364 0.100008 0.10669 0.113283 0.119787 0.125895 0.131301 0.136006 0.14001 0.143313 0.145914 0.147814 0.149013 0.149468 0.149138 0.148022 0.146121 0.143435 0.139963 0.135706 0.130664 0.125096 0.119264 0.113167 0.106806 0.10018 0.093289 0.0861336 0.0787134 0.0713242 0.0642614 0.057525 0.0511151 0.0450317 0.0392747 0.0338441 0.02874 0.0240378 0.019813 0.0160655 0.0127953 0.0100026 0.00768711 0.00584901 0.00448827 0.00343633 0.00252465 0.00175323 0.00112207 0.000631163 0.000280517 7.01292e-05 0 0 2.99967e-07 1.19987e-06 2.6997e-06 4.79946e-06 7.49916e-06 1.07988e-05 1.46984e-05 1.91979e-05 0.000109894 0.000372385 0.000806669 0.00141275 0.00219062 0.00314028 0.00426174 0.005555 0.00701486 0.00863615 0.0104189 0.012363 0.0144686 0.0167356 0.019164 0.0217538 0.0243661 0.0268618 0.0292409 0.0315034 0.0336493 0.0356786 0.0375914 0.0393875 0.0409565 0.0421878 0.0430813 0.043637 0.043855 0.0437353 0.0432778 0.0424826 0.041417 0.0401486 0.0386772 0.0370028 0.0351256 0.0330454 0.0307623 0.0282763 0.0258056 0.0235685 0.021565 0.019795 0.0182586 0.0169558 0.0158865 0.0150508 0.0146331 0.0148177 0.0156046 0.0169939 0.0189855 0.0215794 0.0247756 0.0285742 0.0329347 0.0378167 0.0432203 0.0491454 0.0555921 0.0625602 0.0700499 0.0780612 0.0862813 0.0943977 0.10241 0.110319 0.118124 0.125825 0.133423 0.140917 0.147954 0.154181 0.159598 0.164206 0.168004 0.170992 0.17317 0.174539 0.175048 0.174649 0.173341 0.171124 0.167999 0.163965 0.159022 0.153171 0.146711 0.139939 0.132857 0.125464 0.117761 0.109747 0.101422 0.0927863 0.0841811 0.0759472 0.0680846 0.0605933 0.0534733 0.0467246 0.0403473 0.0343412 0.0287981 0.0238098 0.0193762 0.0154974 0.0121734 0.00940406 0.0071895 0.0055297 0.00423368 0.00311046 0.00216004 0.00138243 0.000777614 0.000345606 8.64016e-05 0 0 4.75012e-06 1.90005e-05 4.27511e-05 7.60019e-05 0.000118753 0.000171004 0.000232756 0.000304008 0.000482616 0.000866437 0.00145547 0.00224972 0.00324917 0.00445385 0.00586373 0.00747882 0.00928867 0.0112828 0.0134612 0.0158239 0.0183708 0.0211021 0.0240176 0.0271174 0.0302399 0.0332238 0.0360689 0.0387753 0.041343 0.0437719 0.0460622 0.0482137 0.0500986 0.0515891 0.0526852 0.053387 0.0536942 0.0536071 0.0531256 0.0522497 0.0510575 0.0496273 0.0479589 0.0460525 0.043908 0.0415255 0.0389048 0.0360461 0.033201 0.0306213 0.028307 0.0262579 0.0244743 0.022956 0.021703 0.0207154 0.0202048 0.0203828 0.0212494 0.0228047 0.0250486 0.0279811 0.0316022 0.0359119 0.0408637 0.046411 0.0525537 0.0592919 0.0666255 0.0745546 0.0830792 0.0921993 0.101558 0.110797 0.119918 0.12892 0.137803 0.146567 0.155213 0.16374 0.171745 0.178828 0.184987 0.190223 0.194535 0.197925 0.200391 0.201934 0.202496 0.202019 0.200505 0.197952 0.194361 0.189731 0.184063 0.177357 0.169952 0.162186 0.154059 0.145571 0.136723 0.127514 0.117944 0.108014 0.0981115 0.0886266 0.0795589 0.0709084 0.0626751 0.054859 0.0474602 0.0404785 0.0340242 0.0282073 0.0230279 0.018486 0.0145816 0.0113146 0.00868514 0.00669313 0.00512442 0.00376488 0.0026145 0.00167328 0.000941221 0.00041832 0.00010458 0 0 1.10143e-05 4.4057e-05 9.91284e-05 0.000176228 0.000275357 0.000396513 0.000539699 0.000704913 0.00100306 0.00154506 0.00233091 0.0033606 0.00463414 0.00615153 0.00791277 0.00991785 0.0121492 0.0145891 0.0172377 0.020095 0.0231608 0.0264353 0.0299185 0.0336103 0.0373243 0.0408742 0.0442599 0.0474815 0.0505389 0.0534322 0.0561613 0.0587263 0.0609804 0.062777 0.0641159 0.0649973 0.0654212 0.0653874 0.0648961 0.0639472 0.0626305 0.0610356 0.0591625 0.0570113 0.0545818 0.0518743 0.0488885 0.0456247 0.0423702 0.0394128 0.0367524 0.034389 0.0323227 0.0305535 0.0290812 0.027906 0.0272685 0.0274092 0.0283282 0.0300254 0.0325009 0.0357547 0.0397867 0.044597 0.0501324 0.0563399 0.0632193 0.0707707 0.0789942 0.0878896 0.097457 0.107696 0.118205 0.128579 0.138819 0.148925 0.158897 0.168734 0.178438 0.188007 0.19699 0.204934 0.211841 0.217708 0.222538 0.226328 0.229081 0.230795 0.231404 0.230843 0.22911 0.226207 0.222133 0.216887 0.210471 0.202884 0.194504 0.18571 0.176501 0.166877 0.156839 0.146387 0.13552 0.124238 0.11298 0.102185 0.0918516 0.0819808 0.0725724 0.0636264 0.0551427 0.0471214 0.0396934 0.0329899 0.0270107 0.0217559 0.0172254 0.0134194 0.0103377 0.00798041 0.00611 0.00448898 0.00311735 0.0019951 0.00112224 0.000498775 0.000124694 0 0 1.90924e-05 7.63696e-05 0.000171832 0.000305478 0.00047731 0.000687326 0.000935527 0.00122191 0.00167124 0.00240827 0.00343299 0.00474541 0.00634553 0.00823335 0.0104089 0.0128721 0.0155964 0.0185552 0.0217485 0.0251763 0.0288386 0.0327354 0.0368667 0.0412325 0.0456191 0.0498129 0.0538138 0.0576218 0.061237 0.0646593 0.0678888 0.0709254 0.073602 0.0757513 0.0773734 0.0784682 0.0790358 0.0790762 0.0785894 0.0775753 0.076136 0.0743735 0.0722879 0.069879 0.067147 0.0640918 0.0607135 0.0570119 0.0533131 0.0499429 0.0469013 0.0441883 0.041804 0.0397483 0.0380212 0.0366227 0.0358241 0.0358969 0.0368408 0.038656 0.0413425 0.0449002 0.0493292 0.0546294 0.0607408 0.0676034 0.0752171 0.083582 0.0926979 0.102565 0.113183 0.124553 0.136223 0.147743 0.159114 0.170334 0.181405 0.192326 0.203097 0.213718 0.223687 0.2325 0.240159 0.246662 0.25201 0.256203 0.25924 0.261123 0.261774 0.261119 0.259158 0.25589 0.251315 0.245434 0.238246 0.229752 0.220368 0.210512 0.200184 0.189384 0.178111 0.166366 0.154149 0.141459 0.128787 0.116621 0.104963 0.0938107 0.0831654 0.0730268 0.063395 0.0542699 0.0458059 0.0381575 0.0313244 0.0253069 0.0201049 0.0157183 0.0121472 0.00939155 0.0071904 0.00528275 0.00366857 0.00234789 0.00132069 0.000586972 0.000146743 0 0 2.89845e-05 0.000115938 0.000260861 0.000463752 0.000724613 0.00104344 0.00142024 0.00185501 0.00248714 0.00345604 0.00476171 0.00640413 0.00838333 0.0106993 0.013352 0.0163415 0.0196303 0.023181 0.0269935 0.0310679 0.0354042 0.0400023 0.0448623 0.0499841 0.0551245 0.06004 0.0647306 0.0691964 0.0734374 0.0774534 0.0812447 0.084811 0.0879632 0.0905121 0.0924575 0.0937996 0.0945382 0.0946735 0.0942053 0.0931338 0.091574 0.0896411 0.0873351 0.0846559 0.0816036 0.0781782 0.0743796 0.0702079 0.0660297 0.0622116 0.0587537 0.0556558 0.052918 0.0505404 0.0485228 0.0468654 0.0458718 0.0458458 0.0467874 0.0486966 0.0515733 0.0554177 0.0602296 0.0660092 0.0726889 0.0802016 0.0885472 0.0977256 0.107737 0.118581 0.130258 0.142768 0.155612 0.168289 0.180801 0.193147 0.205328 0.217342 0.229191 0.240873 0.251837 0.261526 0.269942 0.277084 0.282953 0.287548 0.290869 0.292917 0.293605 0.292848 0.290646 0.286999 0.281907 0.27537 0.267388 0.25796 0.247543 0.236593 0.225108 0.21309 0.200537 0.187451 0.173831 0.159678 0.145532 0.131937 0.118892 0.106398 0.0944539 0.0830602 0.0722169 0.061924 0.0523617 0.0437101 0.0359693 0.0291392 0.0232199 0.0182113 0.0141136 0.0109265 0.00836564 0.00614618 0.00426818 0.00273164 0.00153655 0.000682909 0.000170727 0 0 4.06906e-05 0.000162762 0.000366215 0.00065105 0.00101727 0.00146486 0.00199384 0.0026042 0.00345077 0.00468839 0.00631706 0.00833678 0.0107475 0.0135494 0.0167422 0.0203261 0.0242509 0.0284665 0.0329727 0.0377697 0.0428575 0.048236 0.0539052 0.0598651 0.0658404 0.0715555 0.0770104 0.0822053 0.0871399 0.0918145 0.0962289 0.100383 0.104064 0.107059 0.109368 0.110991 0.111928 0.112179 0.111744 0.110623 0.108945 0.106838 0.104304 0.101342 0.0979515 0.0941332 0.0898869 0.0852126 0.0805201 0.076219 0.0723095 0.0687914 0.0656648 0.0629298 0.0605862 0.0586341 0.0574114 0.057256 0.0581678 0.060147 0.0631934 0.0673071 0.072488 0.0787363 0.0859767 0.0941345 0.103209 0.113202 0.124111 0.135938 0.148682 0.162343 0.176371 0.190218 0.203882 0.217365 0.230665 0.243783 0.256719 0.269473 0.281439 0.292011 0.30119 0.308975 0.315366 0.320363 0.323967 0.326177 0.326897 0.32603 0.323577 0.319537 0.31391 0.306697 0.297896 0.28751 0.27603 0.263951 0.251273 0.237995 0.224118 0.209642 0.194567 0.178893 0.163215 0.148131 0.13364 0.119742 0.106438 0.0937266 0.0816086 0.0700837 0.0593606 0.0496477 0.0409451 0.0332527 0.0265705 0.0208986 0.0162369 0.0125854 0.0096357 0.00707929 0.00491617 0.00314635 0.00176982 0.000786588 0.000196647 0 0 5.42107e-05 0.000216843 0.000487896 0.000867371 0.00135527 0.00195158 0.00265632 0.00346948 0.00456213 0.00610532 0.00809906 0.0105433 0.0134382 0.0167835 0.0205795 0.0248259 0.0294582 0.0344116 0.0396862 0.0452818 0.0511986 0.0574364 0.0639954 0.0708755 0.0777668 0.0843593 0.0906532 0.0966483 0.102345 0.107742 0.112841 0.117642 0.121905 0.125393 0.128106 0.130044 0.131206 0.131593 0.131205 0.130042 0.128248 0.125965 0.123195 0.119937 0.116191 0.111957 0.107235 0.102026 0.0967842 0.0919651 0.0875688 0.0835952 0.0800445 0.0769165 0.0742113 0.0719289 0.070443 0.0701274 0.0709822 0.0730073 0.0762027 0.0805684 0.0861044 0.0928107 0.100604 0.109402 0.119204 0.13001 0.14182 0.15