<?xml version="1.0"?> 
<VTKFile type="StructuredGrid" version="0.1"> 
<StructuredGrid WholeExtent="0 128 0 128 0 0"> 
<Piece Extent="0 128 0 128 0 0"> 
<PointData>
<DataArray type="Float32" Name="u" format="ascii" NumberOfComponents="1"> 
0 0 0 0 0 0 0 0 0 0 0 0 0 0 0 0 0 0 0 0 0 0 0 0 0 0 0 0 0 0 0 0 0 0 0 0 0 0 0 0 0 0 0 0 0 0 0 0 0 0 0 0 0 0 0 0 0 0 0 0 0 0 0 0 0 0 0 0 0 0 0 0 0 0 0 0 0 0 0 0 0 0 0 0 0 0 0 0 0 0 0 0 0 0 0 0 0 0 0 0 0 0 0 0 0 0 0 0 0 0 0 0 0 0 0 0 0 0 0 0 0 0 0 0 0 0 0 0 0 0 -1.18563e-07 -4.74253e-07 -1.06707e-06 -1.89701e-06 -2.96408e-06 -4.26828e-06 -5.8096e-06 -7.58805e-06 -9.29963e-06 -1.06403e-05 -1.16102e-05 -1.22091e-05 -1.24372e-05 -1.22944e-05 -1.17807e-05 -1.08962e-05 -9.52787e-06 -7.56294e-06 -5.00138e-06 -1.84319e-06 1.91164e-06 6.26309e-06 1.12112e-05 1.67559e-05 2.24705e-05 2.79284e-05 3.31294e-05 3.80737e-05 4.27611e-05 4.71918e-05 5.13656e-05 5.52827e-05 5.85771e-05 6.08832e-05 6.22008e-05 6.25301e-05 6.18709e-05 6.02234e-05 5.75874e-05 5.39631e-05 4.95508e-05 4.45511e-05 3.8964e-05 3.27895e-05 2.60276e-05 1.86783e-05 1.07415e-05 2.21732e-06 -6.17909e-06 -1.37326e-05 -2.04431e-05 -2.63107e-05 -3.13354e-05 -3.55171e-05 -3.88559e-05 -4.13517e-05 -4.23678e-05 -4.12672e-05 -3.805e-05 -3.27162e-05 -2.52657e-05 -1.56987e-05 -4.01498e-06 9.78534e-06 2.55727e-05 4.32175e-05 6.27197e-05 8.40793e-05 0.000107296 0.000132371 0.000159303 0.000188092 0.000217631 0.000246811 0.000275633 0.000304096 0.0003322 0.000359946 0.000387334 0.000414363 0.00043977 0.000462292 0.000481929 0.00049868 0.000512547 0.000523528 0.000531624 0.000536835 0.000539025 0.000538058 0.000533935 0.000526656 0.000516219 0.000502626 0.000485877 0.000465971 0.000444032 0.000421184 0.000397427 0.00037276 0.000347185 0.0003207 0.000293306 0.000265003 0.000237 0.000210506 0.000185522 0.000162047 0.000140081 0.000119625 0.000100678 8.32397e-05 6.74703e-05 5.35283e-05 4.14139e-05 3.11268e-05 2.26673e-05 1.60352e-05 1.12307e-05 8.25353e-06 6.31911e-06 4.64261e-06 3.22404e-06 2.06338e-06 1.16065e-06 5.15846e-07 1.28961e-07 0 0 -4.74253e-07 -1.89701e-06 -4.26828e-06 -7.58805e-06 -1.18563e-05 -1.70731e-05 -2.32384e-05 -3.03522e-05 -3.71985e-05 -4.25613e-05 -4.64406e-05 -4.88364e-05 -4.97487e-05 -4.91776e-05 -4.71229e-05 -4.35847e-05 -3.81115e-05 -3.02518e-05 -2.00055e-05 -7.37274e-06 7.64655e-06 2.50524e-05 4.48447e-05 6.70236e-05 8.98821e-05 0.000111713 0.000132518 0.000152295 0.000171044 0.000188767 0.000205462 0.000221131 0.000234308 0.000243533 0.000248803 0.00025012 0.000247484 0.000240894 0.00023035 0.000215852 0.000198203 0.000178205 0.000155856 0.000131158 0.00010411 7.47131e-05 4.2966e-05 8.86929e-06 -2.47164e-05 -5.49303e-05 -8.17724e-05 -0.000105243 -0.000125341 -0.000142068 -0.000155423 -0.000165407 -0.000169471 -0.000165069 -0.0001522 -0.000130865 -0.000101063 -6.27947e-05 -1.60599e-05 3.91414e-05 0.000102291 0.00017287 0.000250879 0.000336317 0.000429185 0.000529483 0.000637211 0.000752368 0.000870523 0.000987244 0.00110253 0.00121638 0.0013288 0.00143979 0.00154934 0.00165745 0.00175908 0.00184917 0.00192771 0.00199472 0.00205019 0.00209411 0.0021265 0.00214734 0.0021561 0.00215223 0.00213574 0.00210662 0.00206488 0.00201051 0.00194351 0.00186388 0.00177613 0.00168474 0.00158971 0.00149104 0.00138874 0.0012828 0.00117322 0.00106001 0.000948 0.000842025 0.000742087 0.000648187 0.000560324 0.000478499 0.00040271 0.000332959 0.000269881 0.000214113 0.000165655 0.000124507 9.06692e-05 6.4141e-05 4.49226e-05 3.30141e-05 2.52764e-05 1.85705e-05 1.28961e-05 8.25353e-06 4.64261e-06 2.06338e-06 5.15846e-07 0 0 -1.06707e-06 -4.26828e-06 -9.60363e-06 -1.70731e-05 -2.66767e-05 -3.84145e-05 -5.22864e-05 -6.82925e-05 -8.36967e-05 -9.5763e-05 -0.000104491 -0.000109882 -0.000111935 -0.000110649 -0.000106026 -9.80655e-05 -8.57508e-05 -6.80665e-05 -4.50124e-05 -1.65887e-05 1.72047e-05 5.63678e-05 0.000100901 0.000150803 0.000202235 0.000251355 0.000298165 0.000342663 0.00038485 0.000424726 0.00046229 0.000497544 0.000527194 0.000547949 0.000559808 0.000562771 0.000556838 0.000542011 0.000518287 0.000485668 0.000445957 0.00040096 0.000350676 0.000295106 0.000234248 0.000168104 9.66735e-05 1.99559e-05 -5.56118e-05 -0.000123593 -0.000183988 -0.000236796 -0.000282018 -0.000319654 -0.000349703 -0.000372165 -0.00038131 -0.000371405 -0.00034245 -0.000294446 -0.000227392 -0.000141288 -3.61348e-05 8.80681e-05 0.000230154 0.000388957 0.000564477 0.000756714 0.000965667 0.00119134 0.00143372 0.00169283 0.00195868 0.0022213 0.00248069 0.00273686 0.0029898 0.00323952 0.00348601 0.00372927 0.00395793 0.00416063 0.00433736 0.00448812 0.00461292 0.00471175 0.00478462 0.00483151 0.00485122 0.00484253 0.00480542 0.0047399 0.00464597 0.00452364 0.00437289 0.00419374 0.00399629 0.00379065 0.00357684 0.00335484 0.00312466 0.0028863 0.00263975 0.00238503 0.002133 0.00189456 0.0016697 0.00145842 0.00126073 0.00107662 0.000906098 0.000749157 0.000607233 0.000481755 0.000372725 0.000280142 0.000204006 0.000144317 0.000101076 7.42818e-05 5.6872e-05 4.17835e-05 2.90163e-05 1.85705e-05 1.04459e-05 4.64261e-06 1.16065e-06 0 0 -1.89701e-06 -7.58805e-06 -1.70731e-05 -3.03522e-05 -4.74253e-05 -6.82925e-05 -9.29536e-05 -0.000121409 -0.000148794 -0.000170245 -0.000185763 -0.000195346 -0.000198995 -0.00019671 -0.000188491 -0.000174339 -0.000152446 -0.000121007 -8.0022e-05 -2.9491e-05 3.05862e-05 0.000100209 0.000179379 0.000268094 0.000359528 0.000446854 0.000530071 0.000609178 0.000684178 0.000755068 0.00082185 0.000884523 0.000937234 0.000974131 0.000995213 0.00100048 0.000989935 0.000963574 0.000921399 0.000863409 0.000792813 0.000712818 0.000623425 0.000524633 0.000416442 0.000298852 0.000171864 3.54772e-05 -9.88655e-05 -0.000219721 -0.00032709 -0.000420971 -0.000501366 -0.000568273 -0.000621694 -0.000661627 -0.000677884 -0.000660275 -0.0006088 -0.000523459 -0.000404252 -0.000251179 -6.42397e-05 0.000156565 0.000409163 0.000691479 0.00100351 0.00134527 0.00171674 0.00211793 0.00254884 0.00300947 0.00348209 0.00394898 0.00441012 0.00486553 0.00531521 0.00575914 0.00619734 0.00662981 0.00703632 0.00739667 0.00771086 0.00797888 0.00820074 0.00837645 0.00850598 0.00858936 0.0086244 0.00860893 0.00854296 0.00842649 0.00825951 0.00804202 0.00777403 0.00745553 0.00710451 0.00673894 0.00635882 0.00596416 0.00555495 0.0051312 0.00469289 0.00424005 0.003792 0.0033681 0.00296835 0.00259275 0.0022413 0.00191399 0.00161084 0.00133184 0.00107952 0.000856453 0.000662622 0.00049803 0.000362677 0.000256564 0.00017969 0.000132057 0.000101106 7.42818e-05 5.15846e-05 3.30141e-05 1.85705e-05 8.25353e-06 2.06338e-06 0 0 -2.96408e-06 -1.18563e-05 -2.66767e-05 -4.74253e-05 -7.41021e-05 -0.000106707 -0.00014524 -0.000189701 -0.000232491 -0.000266008 -0.000290254 -0.000305228 -0.00031093 -0.00030736 -0.000294518 -0.000272404 -0.000238197 -0.000189073 -0.000125034 -4.60796e-05 4.7791e-05 0.000156577 0.000280279 0.000418897 0.000561763 0.000698209 0.000828235 0.000951841 0.00106903 0.00117979 0.00128414 0.00138207 0.00146443 0.00152208 0.00155502 0.00156325 0.00154677 0.00150558 0.00143969 0.00134908 0.00123877 0.00111378 0.000974101 0.000819738 0.00065069 0.000466957 0.000268538 5.54331e-05 -0.000154477 -0.000343314 -0.000511078 -0.000657768 -0.000783384 -0.000887927 -0.000971397 -0.00103379 -0.00105919 -0.00103168 -0.00095125 -0.000817905 -0.000631644 -0.000392467 -0.000100374 0.000244634 0.000639317 0.00108044 0.00156799 0.00210198 0.00268241 0.00330927 0.00398257 0.0047023 0.00544077 0.00617028 0.00689082 0.0076024 0.00830501 0.00899866 0.00968335 0.0103591 0.0109942 0.0115573 0.0120482 0.012467 0.0128137 0.0130882 0.0132906 0.0134209 0.0134756 0.0134515 0.0133484 0.0131664 0.0129055 0.0125657 0.0121469 0.0116493 0.0111008 0.0105296 0.00993566 0.009319 0.00867961 0.00801749 0.00733265 0.00662507 0.005925 0.00526266 0.00463805 0.00405117 0.00350203 0.00299062 0.00251694 0.00208099 0.00168676 0.00133821 0.00103535 0.000778171 0.000566683 0.000400881 0.000280766 0.000206338 0.000157978 0.000116065 8.06009e-05 5.15846e-05 2.90163e-05 1.28961e-05 3.22404e-06 0 0 -4.26828e-06 -1.70731e-05 -3.84145e-05 -6.82925e-05 -0.000106707 -0.000153658 -0.000209146 -0.00027317 -0.000334787 -0.000383052 -0.000417966 -0.000439528 -0.000447739 -0.000442598 -0.000424106 -0.000392262 -0.000343003 -0.000272266 -0.00018005 -6.63547e-05 6.8819e-05 0.000225471 0.000403602 0.000603212 0.000808939 0.00100542 0.00119266 0.00137065 0.0015394 0.0016989 0.00184916 0.00199018 0.00210878 0.00219179 0.00223923 0.00225108 0.00222735 0.00216804 0.00207315 0.00194267 0.00178383 0.00160384 0.00140271 0.00118042 0.000936994 0.000672417 0.000386694 7.98237e-05 -0.000222447 -0.000494373 -0.000735952 -0.000947185 -0.00112807 -0.00127862 -0.00139881 -0.00148866 -0.00152524 -0.00148562 -0.0013698 -0.00117778 -0.000909567 -0.000565152 -0.000144539 0.000352272 0.000920617 0.00155583 0.00225791 0.00302685 0.00386267 0.00476535 0.0057349 0.00677131 0.00783471 0.0088852 0.00992278 0.0109475 0.0119592 0.0129581 0.013944 0.0149171 0.0158317 0.0166425 0.0173494 0.0179525 0.0184517 0.018847 0.0191385 0.0193261 0.0194049 0.0193701 0.0192217 0.0189596 0.0185839 0.0180945 0.0174916 0.0167749 0.0159851 0.0151626 0.0143074 0.0134194 0.0124986 0.0115452 0.010559 0.0095401 0.008532 0.00757822 0.00667879 0.00583369 0.00504292 0.00430649 0.00362439 0.00299663 0.00242893 0.00192702 0.0014909 0.00112057 0.000816023 0.000577269 0.000404304 0.000297127 0.000227488 0.000167134 0.000116065 7.42818e-05 4.17835e-05 1.85705e-05 4.64261e-06 0 0 -5.8096e-06 -2.32384e-05 -5.22864e-05 -9.29536e-05 -0.00014524 -0.000209146 -0.000284671 -0.000371815 -0.000455682 -0.000521376 -0.000568898 -0.000598246 -0.000609422 -0.000602425 -0.000577255 -0.000533912 -0.000466866 -0.000370584 -0.000245068 -9.03161e-05 9.36703e-05 0.000306892 0.000549348 0.000821039 0.00110106 0.00136849 0.00162334 0.00186561 0.00209529 0.0023124 0.00251691 0.00270885 0.00287028 0.00298328 0.00304784 0.00306397 0.00303168 0.00295095 0.00282178 0.00264419 0.00242799 0.00218301 0.00190924 0.00160669 0.00127535 0.000915235 0.000526334 0.000108649 -0.000302776 -0.000672896 -0.00100171 -0.00128922 -0.00153543 -0.00174034 -0.00190394 -0.00202623 -0.00207602 -0.00202209 -0.00186445 -0.00160309 -0.00123802 -0.000769235 -0.000196734 0.000479482 0.00125306 0.00211766 0.00307326 0.00411989 0.00525752 0.00648617 0.00780583 0.00921651 0.0106639 0.0120937 0.013506 0.0149007 0.0162778 0.0176374 0.0189794 0.0203038 0.0215487 0.0226523 0.0236145 0.0244353 0.0251148 0.0256529 0.0260496 0.0263049 0.0264122 0.0263649 0.0261628 0.0258061 0.0252947 0.0246287 0.023808 0.0228326 0.0217576 0.020638 0.0194739 0.0182652 0.017012 0.0157143 0.014372 0.0129851 0.011613 0.0103148 0.00909057 0.00794029 0.00686397 0.00586161 0.0049332 0.00407875 0.00330604 0.00262289 0.00202928 0.00152522 0.0011107 0.000785727 0.000550302 0.000404423 0.000309637 0.000227488 0.000157978 0.000101106 5.6872e-05 2.52764e-05 6.31911e-06 0 0 -7.58805e-06 -3.03522e-05 -6.82925e-05 -0.000121409 -0.000189701 -0.00027317 -0.000371815 -0.000485635 -0.000595176 -0.000680981 -0.00074305 -0.000781383 -0.00079598 -0.000786841 -0.000753966 -0.000697355 -0.000609784 -0.000484028 -0.000320088 -0.000117964 0.000122345 0.000400838 0.000717515 0.00107238 0.00143811 0.00178742 0.00212028 0.00243671 0.00273671 0.00302027 0.0032874 0.00353809 0.00374894 0.00389652 0.00398085 0.00400193 0.00395974 0.0038543 0.0036856 0.00345364 0.00317125 0.00285127 0.0024937 0.00209853 0.00166577 0.00119541 0.000687456 0.000141909 -0.000395462 -0.000878885 -0.00130836 -0.00168389 -0.00200546 -0.00227309 -0.00248678 -0.00264651 -0.00271154 -0.0026411 -0.0024352 -0.00209384 -0.00161701 -0.00100472 -0.000256959 0.000626262 0.00163665 0.00276592 0.00401406 0.00538107 0.00686697 0.00847173 0.0101954 0.0120379 0.0139284 0.0157959 0.0176405 0.0194621 0.0212608 0.0230366 0.0247894 0.0265192 0.0281453 0.0295867 0.0308434 0.0319155 0.032803 0.0335058 0.0340239 0.0343574 0.0344976 0.0344357 0.0341719 0.033706 0.033038 0.0321681 0.0310961 0.0298221 0.028418 0.0269558 0.0254353 0.0238566 0.0222198 0.0205248 0.0187716 0.0169602 0.015168 0.0134724 0.0118734 0.010371 0.00896519 0.00765598 0.00644336 0.00532734 0.0043181 0.00342581 0.00265049 0.00199212 0.00145071 0.00102626 0.000718762 0.000528226 0.000404423 0.000297127 0.000206338 0.000132057 7.42818e-05 3.30141e-05 8.25353e-06 0 0 -9.1591e-06 -3.66364e-05 -8.24319e-05 -0.000146546 -0.000228977 -0.000329727 -0.000448796 -0.000586182 -0.000717109 -0.000816799 -0.000885252 -0.000922469 -0.000928448 -0.00090319 -0.000846695 -0.000758964 -0.000631325 -0.00045511 -0.000230319 4.30481e-05 0.000364992 0.000735512 0.00115461 0.00162228 0.00210346 0.00256308 0.00300113 0.00341763 0.00381256 0.00418592 0.00453773 0.00486797 0.00514668 0.00534387 0.00545956 0.00549375 0.00544642 0.00531759 0.00510724 0.00481539 0.00445852 0.00405312 0.00359919 0.00309672 0.00254573 0.0019462 0.00129814 0.000601555 -8.49915e-05 -0.000702921 -0.00125224 -0.00173293 -0.00214501 -0.00248848 -0.00276333 -0.00296956 -0.00305516 -0.00296811 -0.00270841 -0.00227606 -0.00167106 -0.000893402 5.6901e-05 0.00117985 0.00246484 0.00390124 0.00548906 0.0072283 0.00911895 0.011161 0.0133545 0.0156994 0.0181054 0.0204821 0.0228295 0.0251476 0.0274365 0.0296961 0.0319264 0.0341274 0.0361963 0.0380299 0.0396285 0.0409919 0.0421201 0.0430132 0.0436712 0.044094 0.0442704 0.0441894 0.0438508 0.0432546 0.042401 0.0412898 0.0399211 0.0382948 0.0365024 0.0346351 0.032693 0.0306761 0.0285844 0.0264179 0.0241765 0.0218604 0.0195679 0.0173977 0.0153497 0.0134239 0.0116204 0.00993912 0.00838007 0.00694325 0.00564228 0.00449077 0.00348871 0.0026361 0.00193295 0.00137926 0.000975015 0.00072023 0.000551426 0.000405129 0.00028134 0.000180058 0.000101282 4.50144e-05 1.12536e-05 0 0 -1.00782e-05 -4.03128e-05 -9.07038e-05 -0.000161251 -0.000251955 -0.000362815 -0.000493832 -0.000645005 -0.00078532 -0.000883763 -0.000940335 -0.000955034 -0.000927861 -0.000858817 -0.000747901 -0.000595112 -0.000391058 -0.000126343 0.000199031 0.000585066 0.00103176 0.00153912 0.00210713 0.00273581 0.00338045 0.00399636 0.00458355 0.005142 0.00567173 0.00617274 0.00664501 0.00708856 0.00746543 0.00773766 0.00790527 0.00796824 0.00792659 0.0077803 0.00752938 0.00717383 0.0067347 0.00623302 0.0056688 0.00504203 0.00435272 0.00360087 0.00278648 0.00190954 0.00104415 0.00026441 -0.000429684 -0.00103813 -0.00156093 -0.00199809 -0.0023496 -0.00261546 -0.00273027 -0.00262859 -0.00231044 -0.0017758 -0.00102469 -5.71062e-05 0.00112696 0.0025275 0.00413108 0.00592427 0.00790705 0.0100794 0.0124414 0.014993 0.0177342 0.020665 0.0236721 0.0266425 0.0295762 0.032473 0.035333 0.0381563 0.0409427 0.0436924 0.0462766 0.0485664 0.0505619 0.0522631 0.05367 0.0547826 0.0556009 0.0561249 0.0563402 0.0562324 0.0558016 0.0550477 0.0539708 0.0525709 0.0508478 0.0488018 0.0465463 0.0441953 0.0417486 0.0392063 0.0365684 0.0338348 0.0310057 0.0280809 0.0251837 0.0224373 0.0198419 0.0173972 0.0151035 0.0129606 0.0109685 0.00912732 0.00745579 0.00597272 0.00467812 0.00357199 0.00265433 0.00192513 0.00138439 0.00103213 0.000790224 0.000580572 0.000403175 0.000258032 0.000145143 6.4508e-05 1.6127e-05 0 0 -1.03454e-05 -4.13814e-05 -9.31083e-05 -0.000165526 -0.000258634 -0.000372433 -0.000506923 -0.000662103 -0.000799808 -0.000881873 -0.000908296 -0.000879079 -0.000794221 -0.000653722 -0.000457582 -0.000205801 0.000111018 0.000502273 0.000967963 0.00150809 0.00212265 0.00281165 0.00357508 0.00441295 0.00526907 0.00608726 0.00686752 0.00760985 0.00831425 0.00898072 0.00960925 0.0101999 0.0107052 0.0110779 0.011318 0.0114254 0.0114002 0.0112424 0.010952 0.010529 0.00999979 0.00939097 0.00870253 0.00793446 0.00708675 0.00615942 0.00515245 0.00406586 0.00299196 0.00202311 0.00115929 0.000400515 -0.000253225 -0.000801927 -0.00124559 -0.00158422 -0.00173685 -0.00162254 -0.00124128 -0.000593074 0.000322076 0.00150417 0.00295322 0.00466921 0.00663538 0.00883498 0.011268 0.0139345 0.0168344 0.0199677 0.0233344 0.0269346 0.0306287 0.0342774 0.0378805 0.0414382 0.0449505 0.0484172 0.0518384 0.0552142 0.0583862 0.061196 0.0636437 0.0657293 0.0674527 0.068814 0.0698131 0.0704501 0.0707068 0.0705649 0.0700243 0.0690852 0.0677476 0.0660113 0.0638764 0.061343 0.0585499 0.0556363 0.052602 0.0494472 0.0461717 0.0427756 0.0392589 0.0356216 0.0320153 0.0285914 0.0253499 0.0222909 0.0194144 0.0167203 0.0142087 0.0118795 0.00975861 0.00787168 0.00621874 0.00479979 0.00361483 0.00266387 0.0019469 0.00146392 0.00112082 0.000823456 0.000571844 0.00036598 0.000205864 9.14951e-05 2.28738e-05 0 0 -9.96058e-06 -3.98423e-05 -8.96453e-05 -0.000159369 -0.000249015 -0.000358581 -0.000488069 -0.000637477 -0.000760575 -0.000811128 -0.000789138 -0.000694604 -0.000527526 -0.000287905 2.42609e-05 0.00040897 0.000874903 0.00143074 0.00207648 0.00281212 0.00363766 0.00455311 0.00555846 0.00665371 0.00776933 0.00883578 0.00985306 0.0108212 0.0117401 0.0126099 0.0134305 0.0142019 0.014866 0.0153646 0.0156977 0.0158653 0.0158674 0.015704 0.0153751 0.0148808 0.0142538 0.013527 0.0127004 0.011774 0.0107478 0.00962185 0.00839608 0.00707052 0.00575845 0.00457318 0.0035147 0.00258301 0.00177812 0.00110001 0.0005487 0.000124181 -7.49144e-05 5.00452e-05 0.00049906 0.00127213 0.00236926 0.00379044 0.00553567 0.00760496 0.00997773 0.0126334 0.015572 0.0187934 0.0222978 0.026085 0.0301552 0.0345082 0.0389751 0.0433865 0.0477426 0.0520434 0.0562888 0.0604788 0.0646135 0.0686928 0.0725251 0.0759188 0.0788739 0.0813903 0.0834681 0.0851073 0.0863079 0.0870698 0.0873703 0.0871867 0.086519 0.0853671 0.0837312 0.0816111 0.0790068 0.0759185 0.0725132 0.0689581 0.0652533 0.0613987 0.0573943 0.0532402 0.0489364 0.0444827 0.0400627 0.0358598 0.0318738 0.028105 0.0245531 0.0212184 0.0181006 0.0151999 0.0125508 0.0101876 0.00811055 0.00631949 0.00481447 0.00359548 0.00266253 0.00201561 0.0015432 0.00113378 0.000787348 0.000503902 0.000283445 0.000125976 3.14939e-05 0 0 -8.92387e-06 -3.56955e-05 -8.03148e-05 -0.000142782 -0.000223097 -0.000321259 -0.000437269 -0.000571127 -0.000667619 -0.00067153 -0.00058286 -0.000401609 -0.000127777 0.000238635 0.000697628 0.0012492 0.0019006 0.00265905 0.00352457 0.00449715 0.0055768 0.0067635 0.00805727 0.0094581 0.0108812 0.0122419 0.0135402 0.0147759 0.0159493 0.0170602 0.0181086 0.0190946 0.0199477 0.0205977 0.0210444 0.0212878 0.021328 0.021165 0.0207988 0.0202293 0.0194967 0.018641 0.0176624 0.0165607 0.0153359 0.0139882 0.0125173 0.0109235 0.00934361 0.00791462 0.00663653 0.00550935 0.00453309 0.00370773 0.00303327 0.00250973 0.00225554 0.00238916 0.00291058 0.00381981 0.00511684 0.00680168 0.00887433 0.0113348 0.0141581 0.0173195 0.0208189 0.0246563 0.0288317 0.0333451 0.0381965 0.043386 0.0487112 0.05397 0.0591624 0.0642884 0.069348 0.0743411 0.0792679 0.0841282 0.0886934 0.0927348 0.0962525 0.0992463 0.101716 0.103663 0.105085 0.105984 0.106331 0.106098 0.105286 0.103893 0.101922 0.0993702 0.0962391 0.0925283 0.0884361 0.0841608 0.0797024 0.0750609 0.0702363 0.0652287 0.0600379 0.0546641 0.049326 0.0442425 0.0394136 0.0348394 0.0305197 0.0264547 0.0226443 0.0190885 0.0158322 0.0129206 0.0103536 0.0081311 0.00625324 0.00471997 0.00353129 0.00268719 0.00205738 0.00151155 0.00104968 0.000671798 0.000377886 0.00016795 4.19874e-05 0 0 -7.23521e-06 -2.89408e-05 -6.51169e-05 -0.000115763 -0.00018088 -0.000260468 -0.000354525 -0.000463053 -0.000520941 -0.000463077 -0.000289461 -9.3471e-08 0.000405026 0.000925896 0.00156252 0.00231489 0.0031881 0.00418722 0.00531225 0.00656319 0.00794005 0.00944282 0.0110715 0.0128261 0.0146048 0.0163057 0.0179288 0.0194742 0.0209418 0.0223316 0.0236437 0.024878 0.0259505 0.0267772 0.027358 0.027693 0.0277822 0.0276254 0.0272229 0.0265745 0.0257285 0.0247332 0.0235885 0.0222944 0.0208511 0.0192583 0.0175163 0.0156248 0.0137474 0.0120474 0.0105248 0.00917955 0.00801169 0.00702121 0.00620813 0.00557243 0.00525452 0.0053948 0.00599329 0.00704996 0.00856484 0.0105379 0.0129692 0.0158586 0.0191766 0.0228933 0.0270088 0.031523 0.0364361 0.0417479 0.0474584 0.0535678 0.0598372 0.0660279 0.0721399 0.0781734 0.0841281 0.0900042 0.0958016 0.10152 0.106891 0.111644 0.115779 0.119297 0.122197 0.12448 0.126145 0.127192 0.127588 0.127299 0.126324 0.124664 0.122319 0.119289 0.115573 0.111172 0.106319 0.101244 0.0959493 0.0904338 0.0846977 0.0787409 0.0725636 0.0661657 0.0598051 0.0537396 0.0479693 0.0424942 0.0373142 0.0324293 0.0278397 0.0235451 0.019603 0.0160706 0.0129478 0.0102346 0.00793114 0.00603733 0.00455317 0.00347867 0.00266336 0.00195675 0.00135886 0.000869667 0.000489188 0.000217417 5.43542e-05 0 0 -4.89461e-06 -1.95784e-05 -4.40515e-05 -7.83138e-05 -0.000122365 -0.000176206 -0.000239836 -0.000313255 -0.000320541 -0.00018577 9.10581e-05 0.000509942 0.00107088 0.00177388 0.00261893 0.00360604 0.00473741 0.00601523 0.00743951 0.00901024 0.0107274 0.0125911 0.0146012 0.0167577 0.0189399 0.021027 0.023019 0.0249159 0.0267176 0.0284243 0.0300358 0.0315522 0.0328744 0.0339032 0.0346387 0.0350809 0.0352298 0.0350853 0.0346475 0.0339164 0.0329492 0.0318033 0.0304787 0.0289753 0.0272932 0.0254324 0.0233928 0.0211745 0.0189699 0.0169716 0.0151795 0.0135936 0.0122139 0.0110405 0.0100733 0.00931227 0.00892201 0.00906698 0.00974717 0.0109626 0.0127132 0.0149991 0.0178202 0.0211766 0.0250331 0.0293548 0.0341417 0.0393937 0.0451109 0.0512933 0.0579409 0.0650536 0.0723529 0.0795601 0.0866752 0.0936982 0.100629 0.107468 0.114215 0.120869 0.127118 0.132646 0.137455 0.141543 0.144911 0.147559 0.149487 0.150695 0.151142 0.150789 0.149634 0.147679 0.144923 0.141367 0.137009 0.131851 0.126161 0.120209 0.113994 0.107517 0.100778 0.093777 0.0865135 0.0789877 0.0715001 0.0643511 0.0575409 0.0510693 0.0449365 0.0391423 0.0336868 0.02857 0.0238631 0.0196375 0.0158932 0.01263 0.00984818 0.00754755 0.00572817 0.00439004 0.00336113 0.0024694 0.00171486 0.00109751 0.00061735 0.000274378 6.85944e-05 0 0 -1.90207e-06 -7.60829e-06 -1.71186e-05 -3.04332e-05 -4.75518e-05 -6.84746e-05 -9.32015e-05 -0.000121733 -6.64181e-05 0.000160392 0.000558697 0.0011285 0.00186979 0.00278259 0.00386687 0.00512266 0.00654853 0.00814309 0.00990635 0.0118383 0.0139389 0.0162083 0.0186463 0.021253 0.0238868 0.026406 0.0288108 0.0311011 0.0332768 0.0353381 0.0372848 0.039117 0.0407192 0.0419756 0.0428864 0.0434515 0.0436709 0.0435446 0.0430726 0.042255 0.0411589 0.0398516 0.0383331 0.0366034 0.0346625 0.0325103 0.030147 0.0275725 0.0250111 0.0226871 0.0206006 0.0187515 0.0171398 0.0157655 0.0146287 0.0137293 0.013258 0.0134057 0.0141722 0.0155577 0.0175621 0.0201853 0.0234275 0.0272885 0.0317277 0.036704 0.0422175 0.0482683 0.0548563 0.0619815 0.0696439 0.0778435 0.0862584 0.0945666 0.102768 0.110863 0.118851 0.126732 0.134507 0.142175 0.149374 0.155742 0.161278 0.165984 0.169858 0.1729 0.175112 0.176492 0.176993 0.176568 0.175217 0.172939 0.169735 0.165604 0.160547 0.154563 0.147963 0.141054 0.133837 0.126312 0.118478 0.110337 0.101888 0.0931299 0.0844109 0.076077 0.0681284 0.0605649 0.0533866 0.0465935 0.0401857 0.034163 0.0286126 0.0236215 0.0191898 0.0153174 0.0120043 0.00925065 0.00705631 0.00542131 0.00415069 0.00304949 0.0021177 0.00135533 0.000762371 0.000338832 8.47079e-05 0 0 2.34265e-06 9.37058e-06 2.10838e-05 3.74823e-05 5.85661e-05 8.43352e-05 0.00011479 0.000149929 0.000289994 0.000635225 0.00118562 0.00194118 0.00290191 0.00406781 0.00543886 0.00701509 0.00879017 0.0107578 0.0129179 0.0152707 0.0178159 0.0205537 0.023484 0.0266069 0.0297577 0.0327719 0.0356496 0.0383906 0.040995 0.0434628 0.045794 0.0479886 0.0499129 0.0514335 0.0525502 0.0532631 0.0535722 0.0534775 0.052979 0.0520766 0.0508485 0.0493726 0.0476489 0.0456775 0.0434584 0.0409915 0.0382769 0.0353145 0.0323631 0.0296814 0.0272696 0.0251275 0.0232551 0.0216525 0.0203197 0.0192567 0.0186823 0.0188156 0.0196565 0.021205 0.0234611 0.0264249 0.0300963 0.0344754 0.0395149 0.0451679 0.0514344 0.0583142 0.0658075 0.0739142 0.0826344 0.0919679 0.101547 0.111004 0.12034 0.129553 0.138644 0.147613 0.15646 0.165185 0.173375 0.180617 0.186912 0.192259 0.196659 0.200111 0.202616 0.204173 0.204727 0.204223 0.20266 0.200039 0.196359 0.191621 0.185824 0.178969 0.171405 0.163484 0.155204 0.146567 0.137571 0.128218 0.118506 0.108436 0.098404 0.0888045 0.0796378 0.0709039 0.0626028 0.0547344 0.0472988 0.0402961 0.0338311 0.028009 0.0228296 0.0182931 0.0143994 0.0111486 0.00854051 0.00657528 0.0050342 0.0036986 0.00256847 0.00164382 0.000924649 0.000410955 0.000102739 0 0 8.43978e-06 3.37591e-05 7.5958e-05 0.000135037 0.000210995 0.000303832 0.000413549 0.000540146 0.000797265 0.00129855 0.002044 0.00303361 0.00426739 0.00574533 0.00746744 0.00943371 0.011631 0.0140463 0.0166795 0.0195306 0.0225997 0.0258867 0.0293916 0.0331145 0.0368653 0.040454 0.0438806 0.0471452 0.0502477 0.0531881 0.0559664 0.0585827 0.0608836 0.0627158 0.0640794 0.0649744 0.0654007 0.0653584 0.0648474 0.0638678 0.0625091 0.0608611 0.0589237 0.0566969 0.0541808 0.0513752 0.0482803 0.0448959 0.0415179 0.0384419 0.0356678 0.0331958 0.0310258 0.0291577 0.0275917 0.0263277 0.0256145 0.0257012 0.0265878 0.0282741 0.0307603 0.0340463 0.0381322 0.0430179 0.0486496 0.0549737 0.0619901 0.0696989 0.0781 0.0871934 0.0969792 0.107457 0.118213 0.12883 0.13931 0.149653 0.159857 0.169924 0.179853 0.189644 0.198834 0.206958 0.214017 0.22001 0.224938 0.228801 0.231597 0.233329 0.233931 0.233339 0.231554 0.228575 0.224403 0.219038 0.212479 0.204726 0.196171 0.187203 0.177824 0.168033 0.15783 0.147216 0.136189 0.124751 0.113346 0.102421 0.0919754 0.0820094 0.072523 0.0635162 0.054989 0.0469412 0.0394986 0.0327865 0.0268049 0.0215538 0.0170332 0.0132432 0.0101837 0.00785477 0.00601381 0.00441831 0.00306827 0.00196369 0.00110458 0.000490923 0.000122731 0 0 1.63893e-05 6.55573e-05 0.000147504 0.000262229 0.000409733 0.000590016 0.000803077 0.00104892 0.00145539 0.00215036 0.00313382 0.00440578 0.00596622 0.00781516 0.00995259 0.0123785 0.0150711 0.0180086 0.021191 0.0246182 0.0282903 0.0322072 0.0363691 0.0407758 0.0452095 0.0494522 0.0535041 0.057365 0.061035 0.064514 0.0678022 0.0708994 0.0736311 0.0758226 0.077474 0.0785852 0.0791562 0.0791871 0.0786778 0.0776284 0.0761409 0.0743172 0.0721574 0.0696615 0.0668296 0.0636615 0.0601572 0.0563169 0.0524756 0.0489685 0.0457954 0.0429565 0.0404518 0.0382811 0.0364446 0.0349423 0.0340547 0.0340627 0.0349662 0.0367651 0.0394596 0.0430496 0.047535 0.052916 0.0591317 0.0661213 0.0738848 0.0824223 0.0917337 0.101819 0.112678 0.124312 0.136255 0.148045 0.15968 0.171163 0.182491 0.193666 0.204687 0.215555 0.225753 0.234766 0.242594 0.249237 0.254695 0.258968 0.262056 0.263959 0.264603 0.263917 0.261898 0.258549 0.253867 0.247855 0.24051 0.231834 0.222258 0.212212 0.201696 0.190711 0.179256 0.167331 0.154937 0.142073 0.129237 0.116926 0.105141 0.0938815 0.0831475 0.072939 0.063256 0.0540985 0.045615 0.037954 0.0311154 0.0250994 0.0199058 0.0155346 0.011986 0.00925979 0.00708952 0.00520863 0.0036171 0.00231495 0.00130216 0.000578737 0.000144684 0 0 2.61913e-05 0.000104765 0.000235722 0.000419061 0.000654783 0.000942887 0.00128337 0.00167624 0.00226438 0.00319066 0.0044551 0.00605768 0.00799841 0.0102773 0.0128943 0.0158495 0.0191104 0.0226447 0.0264524 0.0305333 0.0348877 0.0395154 0.0444164 0.0495908 0.0547903 0.0597667 0.0645199 0.0690499 0.0733568 0.0774406 0.0813012 0.0849387 0.0881555 0.0907538 0.0927338 0.0940955 0.0948388 0.0949637 0.0944703 0.0933585 0.0917436 0.0897408 0.08735 0.0845714 0.0814048 0.0778503 0.0739078 0.0695775 0.0652362 0.0612612 0.0576523 0.0544096 0.0515331 0.0490227 0.0468785 0.0451005 0.0440029 0.0439 0.0447917 0.046678 0.049559 0.0534346 0.0583049 0.0641698 0.0709611 0.0786107 0.0871185 0.0964845 0.106709 0.117791 0.129732 0.142531 0.155674 0.168647 0.18145 0.194083 0.206546 0.218839 0.230962 0.242915 0.25413 0.264039 0.272642 0.279938 0.285928 0.290613 0.293991 0.296063 0.296745 0.295955 0.293693 0.289958 0.284751 0.278071 0.269919 0.260295 0.249668 0.23851 0.226821 0.2146 0.201848 0.188564 0.174749 0.160403 0.146076 0.13232 0.119135 0.10652 0.0944761 0.0830027 0.0720999 0.0617678 0.0521803 0.0435115 0.0357614 0.0289298 0.023017 0.0180228 0.0139472 0.0107903 0.00826134 0.00606955 0.00421497 0.00269758 0.00151739 0.000674395 0.000168599 0 0 3.78457e-05 0.000151383 0.000340611 0.000605531 0.000946143 0.00136245 0.00185444 0.00242212 0.00322422 0.00441946 0.00600782 0.00798933 0.010364 0.0131317 0.0162926 0.0198467 0.023749 0.0279547 0.0324637 0.0372761 0.0423919 0.0478111 0.0535336 0.0595595 0.0656078 0.0713973 0.076928 0.0822 0.0872133 0.0919678 0.0964636 0.100701 0.104457 0.10751 0.109859 0.111505 0.112448 0.112688 0.112225 0.111058 0.109317 0.107132 0.104502 0.101426 0.0979064 0.0939416 0.089532 0.0846775 0.0797997 0.0753201 0.0712385 0.067555 0.0642697 0.0613825 0.0588934 0.0568024 0.0554591 0.0552131 0.0560643 0.0580127 0.0610585 0.0652015 0.0704417 0.0767792 0.084138 0.0924419 0.101691 0.111885 0.123025 0.13511 0.14814 0.162115 0.17647 0.190638 0.204619 0.218414 0.232022 0.245443 0.258678 0.271726 0.283967 0.294778 0.304161 0.312115 0.31864 0.323735 0.327403 0.329641 0.330356 0.329455 0.326938 0.322805 0.317055 0.309688 0.300706 0.290106 0.278401 0.266098 0.253198 0.2397 0.225606 0.210915 0.195627 0.179741 0.163865 0.148603 0.133957 0.119925 0.106509 0.0937073 0.0815208 0.0699492 0.0591946 0.0494591 0.0407426 0.0330452 0.0263669 0.0207077 0.0160675 0.0124464 0.00952925 0.00700108 0.00486186 0.00311159 0.00175027 0.000777898 0.000194474 0 0 5.13525e-05 0.00020541 0.000462173 0.00082164 0.00128381 0.00184869 0.00251627 0.00328656 0.00433493 0.00583674 0.007792 0.0102007 0.0130629 0.0163785 0.0201475 0.0243701 0.0289868 0.0339384 0.039225 0.0448465 0.0508029 0.0570943 0.0637207 0.070682 0.0776618 0.084344 0.0907285 0.0968152 0.102604 0.108096 0.113289 0.118185 0.122535 0.12609 0.12885 0.130815 0.131985 0.132361 0.131941 0.130727 0.128862 0.126491 0.123612 0.120227 0.116334 0.111935 0.10703 0.101617 0.0961661 0.0911451 0.086554 0.0823928 0.0786617 0.0753604 0.0724892 0.0700479 0.0684232 0.0680019 0.068784 0.0707694 0.0739581 0.0783501 0.0839456 0.