<?xml version="1.0"?> 
<VTKFile type="StructuredGrid" version="0.1"> 
<StructuredGrid WholeExtent="0 128 0 128 0 0"> 
<Piece Extent="0 128 0 128 0 0"> 
<PointData>
<DataArray type="Float32" Name="u" format="ascii" NumberOfComponents="1"> 
0 0 0 0 0 0 0 0 0 0 0 0 0 0 0 0 0 0 0 0 0 0 0 0 0 0 0 0 0 0 0 0 0 0 0 0 0 0 0 0 0 0 0 0 0 0 0 0 0 0 0 0 0 0 0 0 0 0 0 0 0 0 0 0 0 0 0 0 0 0 0 0 0 0 0 0 0 0 0 0 0 0 0 0 0 0 0 0 0 0 0 0 0 0 0 0 0 0 0 0 0 0 0 0 0 0 0 0 0 0 0 0 0 0 0 0 0 0 0 0 0 0 0 0 0 0 0 0 0 0 -3.51145e-07 -1.40458e-06 -3.16031e-06 -5.61832e-06 -8.77863e-06 -1.26412e-05 -1.72061e-05 -2.24733e-05 -2.84132e-05 -3.49963e-05 -4.22225e-05 -5.00919e-05 -5.86045e-05 -6.77602e-05 -7.75591e-05 -8.80011e-05 -9.86682e-05 -0.000109142 -0.000119423 -0.000129511 -0.000139406 -0.000149108 -0.000158617 -0.000167933 -0.000176878 -0.000185274 -0.000193122 -0.000200421 -0.000207172 -0.000213374 -0.000219027 -0.000224132 -0.000228703 -0.000232755 -0.000236287 -0.000239299 -0.000241792 -0.000243766 -0.00024522 -0.000246154 -0.000246763 -0.000247239 -0.000247583 -0.000247795 -0.000247874 -0.000247821 -0.000247636 -0.000247319 -0.000246648 -0.000245401 -0.000243578 -0.000241179 -0.000238205 -0.000234655 -0.00023053 -0.000225829 -0.00021991 -0.000212131 -0.000202493 -0.000190995 -0.000177637 -0.000162419 -0.000145342 -0.000126405 -0.000105727 -8.34283e-05 -5.95082e-05 -3.39669e-05 -6.80442e-06 2.19793e-05 5.23843e-05 8.44105e-05 0.000116775 0.000148195 0.000178671 0.000208201 0.000236788 0.00026443 0.000291127 0.00031688 0.000340514 0.000360857 0.000377909 0.000391669 0.000402138 0.000409315 0.0004132 0.000413794 0.000411255 0.000405743 0.000397257 0.000385797 0.000371363 0.000353956 0.000333575 0.00031022 0.000285314 0.000260278 0.000235115 0.000209822 0.0001844 0.00015885 0.000133171 0.000107363 8.27423e-05 6.06265e-05 4.10151e-05 2.39082e-05 9.30568e-06 -2.79236e-06 -1.2386e-05 -1.94751e-05 -2.46127e-05 -2.83516e-05 -3.06917e-05 -3.16331e-05 -3.11758e-05 -2.93197e-05 -2.60649e-05 -2.14114e-05 -1.63931e-05 -1.20439e-05 -8.36384e-06 -5.35286e-06 -3.01098e-06 -1.33822e-06 -3.34554e-07 0 0 -1.40458e-06 -5.61832e-06 -1.26412e-05 -2.24733e-05 -3.51145e-05 -5.05649e-05 -6.88245e-05 -8.98932e-05 -0.000113653 -0.000139985 -0.00016889 -0.000200368 -0.000234418 -0.000271041 -0.000310236 -0.000352004 -0.000394673 -0.000436569 -0.000477693 -0.000518045 -0.000557625 -0.000596432 -0.000634467 -0.00067173 -0.00070751 -0.000741096 -0.000772487 -0.000801684 -0.000828687 -0.000853495 -0.000876109 -0.000896529 -0.000914813 -0.000931019 -0.000945147 -0.000957197 -0.000967169 -0.000975062 -0.000980878 -0.000984616 -0.00098705 -0.000988955 -0.000990332 -0.000991179 -0.000991496 -0.000991285 -0.000990545 -0.000989276 -0.00098659 -0.000981602 -0.000974311 -0.000964718 -0.000952821 -0.000938622 -0.00092212 -0.000903315 -0.000879639 -0.000848525 -0.000809971 -0.000763979 -0.000710547 -0.000649677 -0.000581367 -0.000505619 -0.000422908 -0.000333713 -0.000238033 -0.000135868 -2.72177e-05 8.79173e-05 0.000209537 0.000337642 0.0004671 0.00059278 0.000714682 0.000832806 0.000947151 0.00105772 0.00116451 0.00126752 0.00136206 0.00144343 0.00151164 0.00156668 0.00160855 0.00163726 0.0016528 0.00165518 0.00164502 0.00162297 0.00158903 0.00154319 0.00148545 0.00141582 0.0013343 0.00124088 0.00114125 0.00104111 0.000940458 0.000839287 0.000737601 0.000635399 0.000532682 0.00042945 0.000330969 0.000242506 0.00016406 9.56327e-05 3.72227e-05 -1.11695e-05 -4.95439e-05 -7.79005e-05 -9.84508e-05 -0.000113406 -0.000122767 -0.000126532 -0.000124703 -0.000117279 -0.00010426 -8.56458e-05 -6.55725e-05 -4.81757e-05 -3.34554e-05 -2.14114e-05 -1.20439e-05 -5.35286e-06 -1.33822e-06 0 0 -3.16031e-06 -1.26412e-05 -2.84428e-05 -5.05649e-05 -7.90077e-05 -0.000113771 -0.000154855 -0.00020226 -0.000255719 -0.000314966 -0.000380002 -0.000450827 -0.00052744 -0.000609842 -0.000698032 -0.00079201 -0.000888014 -0.000982281 -0.00107481 -0.0011656 -0.00125466 -0.00134197 -0.00142755 -0.00151139 -0.0015919 -0.00166747 -0.0017381 -0.00180379 -0.00186455 -0.00192036 -0.00197125 -0.00201719 -0.00205833 -0.00209479 -0.00212658 -0.00215369 -0.00217613 -0.00219389 -0.00220698 -0.00221539 -0.00222086 -0.00222515 -0.00222825 -0.00223015 -0.00223087 -0.00223039 -0.00222873 -0.00222587 -0.00221983 -0.00220861 -0.0021922 -0.00217061 -0.00214385 -0.0021119 -0.00207477 -0.00203246 -0.00197919 -0.00190918 -0.00182244 -0.00171895 -0.00159873 -0.00146177 -0.00130808 -0.00113764 -0.000951544 -0.000750855 -0.000535574 -0.000305702 -6.12398e-05 0.000197814 0.000471459 0.000759695 0.00105098 0.00133376 0.00160804 0.00187381 0.00213109 0.00237987 0.00262014 0.00285192 0.00306463 0.00324772 0.00340118 0.00352502 0.00361924 0.00368383 0.0037188 0.00372415 0.0037013 0.00365169 0.00357531 0.00347217 0.00334227 0.0031856 0.00300217 0.00279198 0.00256782 0.00234251 0.00211603 0.0018884 0.0016596 0.00142965 0.00119854 0.000966263 0.000744681 0.000545638 0.000369136 0.000215174 8.37511e-05 -2.51313e-05 -0.000111474 -0.000175276 -0.000221514 -0.000255164 -0.000276225 -0.000284698 -0.000280582 -0.000263877 -0.000234584 -0.000192703 -0.000147538 -0.000108395 -7.52746e-05 -4.81757e-05 -2.70989e-05 -1.20439e-05 -3.01098e-06 0 0 -5.61832e-06 -2.24733e-05 -5.05649e-05 -8.98932e-05 -0.000140458 -0.00020226 -0.000275298 -0.000359573 -0.000454611 -0.00055994 -0.00067556 -0.00080147 -0.000937671 -0.00108416 -0.00124095 -0.00140802 -0.00157869 -0.00174628 -0.00191077 -0.00207218 -0.0022305 -0.00238573 -0.00253787 -0.00268692 -0.00283004 -0.00296438 -0.00308995 -0.00320674 -0.00331475 -0.00341398 -0.00350444 -0.00358612 -0.00365925 -0.00372408 -0.00378059 -0.00382879 -0.00386867 -0.00390025 -0.00392351 -0.00393846 -0.0039482 -0.00395582 -0.00396133 -0.00396471 -0.00396599 -0.00396514 -0.00396218 -0.0039571 -0.00394636 -0.00392641 -0.00389725 -0.00385887 -0.00381128 -0.00375449 -0.00368848 -0.00361326 -0.00351856 -0.0033941 -0.00323988 -0.00305591 -0.00284219 -0.00259871 -0.00232547 -0.00202247 -0.00169163 -0.00133485 -0.000952132 -0.000543471 -0.000108871 0.000351669 0.000838149 0.00135057 0.0018684 0.00237112 0.00285873 0.00333122 0.00378861 0.00423087 0.00465803 0.00507007 0.00544823 0.00577372 0.00604654 0.0062667 0.0064342 0.00654903 0.0066112 0.00662071 0.00658009 0.00649189 0.00635611 0.00617275 0.00594181 0.00566329 0.0053372 0.00496352 0.00456502 0.00416445 0.00376183 0.00335715 0.0029504 0.0025416 0.00213073 0.0017178 0.00132388 0.000970023 0.000656242 0.000382531 0.000148891 -4.46778e-05 -0.000198175 -0.000311602 -0.000393803 -0.000453625 -0.000491067 -0.000506129 -0.000498812 -0.000469115 -0.000417039 -0.000342583 -0.00026229 -0.000192703 -0.000133822 -8.56458e-05 -4.81757e-05 -2.14114e-05 -5.35286e-06 0 0 -8.77863e-06 -3.51145e-05 -7.90077e-05 -0.000140458 -0.000219466 -0.000316031 -0.000430153 -0.000561832 -0.00071033 -0.000874907 -0.00105556 -0.0012523 -0.00146511 -0.001694 -0.00193898 -0.00220003 -0.00246671 -0.00272856 -0.00298558 -0.00323778 -0.00348515 -0.0037277 -0.00396542 -0.00419831 -0.00442194 -0.00463185 -0.00482804 -0.00501052 -0.00517929 -0.00533435 -0.00547568 -0.00560331 -0.00571758 -0.00581887 -0.00590717 -0.00598248 -0.0060448 -0.00609414 -0.00613049 -0.00615385 -0.00616906 -0.00618097 -0.00618957 -0.00619487 -0.00619685 -0.00619553 -0.00619091 -0.00618297 -0.00616619 -0.00613501 -0.00608945 -0.00602949 -0.00595513 -0.00586639 -0.00576325 -0.00564572 -0.00549775 -0.00530328 -0.00506232 -0.00477487 -0.00444092 -0.00406048 -0.00363354 -0.00316012 -0.00264318 -0.00208571 -0.00148771 -0.000849174 -0.000170111 0.000549483 0.00130961 0.00211026 0.00291938 0.00370488 0.00446676 0.00520504 0.0059197 0.00661074 0.00727817 0.00792199 0.00851285 0.00902143 0.00944772 0.00979172 0.0100534 0.0102329 0.01033 0.0103449 0.0102814 0.0101436 0.00993142 0.00964492 0.00928408 0.0088489 0.00833937 0.00775549 0.00713284 0.00650696 0.00587786 0.00524554 0.00461001 0.00397125 0.00332926 0.00268406 0.00206856 0.00151566 0.00102538 0.000597704 0.000232642 -6.98091e-05 -0.000309649 -0.000486878 -0.000615318 -0.000708789 -0.000767292 -0.000790827 -0.000779394 -0.000732993 -0.000651623 -0.000535286 -0.000409828 -0.000301098 -0.000209096 -0.000133822 -7.52746e-05 -3.34554e-05 -8.36384e-06 0 0 -1.26412e-05 -5.05649e-05 -0.000113771 -0.00020226 -0.000316031 -0.000455084 -0.00061942 -0.000809038 -0.00102288 -0.00125987 -0.00152001 -0.00180331 -0.00210976 -0.00243937 -0.00279213 -0.00316804 -0.00355206 -0.00392912 -0.00429924 -0.00466241 -0.00501862 -0.00536789 -0.00571021 -0.00604557 -0.00636759 -0.00666986 -0.00695238 -0.00721516 -0.00745818 -0.00768146 -0.00788499 -0.00806876 -0.00823332 -0.00837917 -0.00850632 -0.00861477 -0.00870452 -0.00877556 -0.0088279 -0.00886154 -0.00888345 -0.0089006 -0.00891298 -0.00892061 -0.00892347 -0.00892157 -0.00891491 -0.00890348 -0.00887931 -0.00883442 -0.0087688 -0.00868246 -0.00857539 -0.0084476 -0.00829908 -0.00812984 -0.00791675 -0.00763672 -0.00728974 -0.00687581 -0.00639492 -0.00584709 -0.0052323 -0.00455057 -0.00380618 -0.00300342 -0.0021423 -0.00122281 -0.000244959 0.000791256 0.00188584 0.00303878 0.0042039 0.00533502 0.00643214 0.00749525 0.00852436 0.00951947 0.0104806 0.0114077 0.0122585 0.0129909 0.0136047 0.0141001 0.014477 0.0147353 0.0148752 0.0148966 0.0148052 0.0146067 0.0143012 0.0138887 0.0133691 0.0127424 0.0120087 0.0111679 0.0102713 0.00937002 0.00846412 0.00755358 0.00663841 0.00571859 0.00479414 0.00386505 0.00297872 0.00218255 0.00147654 0.000860694 0.000335005 -0.000100525 -0.000445895 -0.000701105 -0.000886057 -0.00102066 -0.0011049 -0.00113879 -0.00112233 -0.00105551 -0.000938338 -0.000770812 -0.000590153 -0.000433582 -0.000301098 -0.000192703 -0.000108395 -4.81757e-05 -1.20439e-05 0 0 -1.72061e-05 -6.88245e-05 -0.000154855 -0.000275298 -0.000430153 -0.00061942 -0.0008431 -0.00110119 -0.00139225 -0.00171482 -0.0020689 -0.0024545 -0.00287162 -0.00332025 -0.00380039 -0.00431205 -0.00483474 -0.00534797 -0.00585174 -0.00634605 -0.0068309 -0.00730629 -0.00777222 -0.0082287 -0.008667 -0.00907842 -0.00946297 -0.00982063 -0.0101514 -0.0104553 -0.0107323 -0.0109825 -0.0112065 -0.011405 -0.011578 -0.0117257 -0.0118478 -0.0119445 -0.0120158 -0.0120615 -0.0120914 -0.0121147 -0.0121316 -0.0121419 -0.0121458 -0.0121432 -0.0121342 -0.0121186 -0.0120857 -0.0120246 -0.0119353 -0.0118178 -0.0116721 -0.0114981 -0.011296 -0.0110656 -0.0107756 -0.0103944 -0.00992215 -0.00935874 -0.0087042 -0.00795854 -0.00712175 -0.00619383 -0.00518063 -0.00408799 -0.0029159 -0.00166438 -0.000333417 0.00107699 0.00256683 0.00413612 0.00572198 0.00726156 0.00875486 0.0102019 0.0116026 0.0129571 0.0142652 0.0155271 0.0166852 0.017682 0.0185175 0.0191918 0.0197047 0.0200564 0.0202468 0.0202759 0.0201515 0.0198814 0.0194656 0.0189041 0.0181968 0.0173438 0.0163452 0.0152008 0.0139804 0.0127536 0.0115206 0.0102813 0.00903561 0.00778364 0.00652536 0.00526076 0.00405437 0.0029707 0.00200974 0.0011715 0.000455978 -0.000136826 -0.000606912 -0.000954281 -0.00120602 -0.00138923 -0.00150389 -0.00155002 -0.00152761 -0.00143667 -0.00127718 -0.00104916 -0.000803264 -0.000590153 -0.000409828 -0.00026229 -0.000147538 -6.55725e-05 -1.63931e-05 0 0 -2.24733e-05 -8.98932e-05 -0.00020226 -0.000359573 -0.000561832 -0.000809038 -0.00110119 -0.00143829 -0.00181844 -0.00223976 -0.00270224 -0.00320588 -0.00375069 -0.00433665 -0.00496378 -0.00563207 -0.00631477 -0.00698511 -0.00764309 -0.00828872 -0.00892199 -0.00954291 -0.0101515 -0.0107477 -0.0113202 -0.0118575 -0.0123598 -0.0128269 -0.013259 -0.0136559 -0.0140178 -0.0143445 -0.014637 -0.0148963 -0.0151224 -0.0153151 -0.0154747 -0.015601 -0.0156941 -0.0157539 -0.0157928 -0.0158233 -0.0158453 -0.0158589 -0.0158639 -0.0158606 -0.0158487 -0.0158284 -0.0157854 -0.0157056 -0.015589 -0.0154355 -0.0152451 -0.015018 -0.0147539 -0.014453 -0.0140742 -0.0135764 -0.0129595 -0.0122237 -0.0113688 -0.0103948 -0.00930187 -0.0080899 -0.00676653 -0.00533941 -0.00380853 -0.00217388 -0.000435483 0.00140668 0.0033526 0.00540227 0.00747361 0.00948449 0.0114349 0.0133249 0.0151544 0.0169235 0.0186321 0.0202803 0.0217929 0.0230949 0.0241862 0.0250668 0.0257368 0.0261961 0.0264448 0.0264828 0.0263203 0.0259676 0.0254244 0.024691 0.0237673 0.0226532 0.0213488 0.0198541 0.0182601 0.0166578 0.0150473 0.0134286 0.0118016 0.0101664 0.00852292 0.0068712 0.00529551 0.00388009 0.00262497 0.00153012 0.000595564 -0.000178711 -0.000792702 -0.00124641 -0.00157521 -0.0018145 -0.00196427 -0.00202452 -0.00199525 -0.00187646 -0.00166816 -0.00137033 -0.00104916 -0.000770812 -0.000535286 -0.000342583 -0.000192703 -8.56458e-05 -2.14114e-05 0 0 -2.80651e-05 -0.000112261 -0.000252586 -0.000449042 -0.000701628 -0.00101034 -0.00137519 -0.00179617 -0.00226999 -0.00279336 -0.00336628 -0.00398875 -0.00466078 -0.00538236 -0.00615349 -0.00697417 -0.00781078 -0.00862971 -0.00943095 -0.0102145 -0.0109804 -0.0117286 -0.0124591 -0.0131719 -0.0138542 -0.0144933 -0.015089 -0.0156415 -0.0161506 -0.0166165 -0.0170391 -0.0174184 -0.0177573 -0.0180586 -0.0183223 -0.0185484 -0.0187369 -0.0188878 -0.0190012 -0.0190769 -0.0191304 -0.0191771 -0.0192168 -0.0192496 -0.0192756 -0.0192946 -0.0193068 -0.0193121 -0.0192902 -0.0192209 -0.0191042 -0.0189401 -0.0187285 -0.0184696 -0.0181632 -0.0178094 -0.0173542 -0.0167435 -0.0159773 -0.0150556 -0.0139784 -0.0127457 -0.0113576 -0.00981394 -0.00812461 -0.0062994 -0.00433831 -0.00224133 -8.47769e-06 0.00236026 0.00486488 0.00750538 0.0101754 0.0127684 0.0152846 0.0177239 0.0200862 0.0223716 0.0245802 0.0267118 0.028669 0.0303542 0.0317675 0.0329089 0.0337783 0.0343757 0.0347013 0.0347549 0.0345492 0.0340972 0.0333987 0.0324537 0.0312623 0.0298245 0.0281402 0.0262095 0.0241494 0.0220772 0.0199928 0.0178962 0.0157874 0.0136664 0.0115333 0.00938792 0.00733877 0.00549422 0.00385426 0.0024189 0.00118812 0.000161937 -0.000659654 -0.00127665 -0.00173313 -0.00207315 -0.00229672 -0.00240383 -0.00239449 -0.00226869 -0.00202644 -0.00166773 -0.00127686 -0.000938099 -0.000651458 -0.000416933 -0.000234525 -0.000104233 -2.60583e-05 0 0 -3.3604e-05 -0.000134416 -0.000302436 -0.000537664 -0.0008401 -0.00120974 -0.0016466 -0.00215066 -0.00271539 -0.00333426 -0.00400727 -0.00473442 -0.00551571 -0.00635114 -0.00724071 -0.00818442 -0.00914144 -0.010071 -0.010973 -0.0118475 -0.0126946 -0.0135141 -0.0143061 -0.0150707 -0.0157963 -0.0164717 -0.0170968 -0.0176716 -0.0181961 -0.0186704 -0.0190943 -0.019468 -0.0197996 -0.0200972 -0.0203608 -0.0205904 -0.0207861 -0.0209477 -0.0210754 -0.0211692 -0.0212469 -0.0213267 -0.0214086 -0.0214925 -0.0215785 -0.0216666 -0.0217567 -0.0218489 -0.0219117 -0.0219139 -0.0218554 -0.0217361 -0.0215562 -0.0213155 -0.0210142 -0.0206521 -0.0201571 -0.0194566 -0.0185508 -0.0174396 -0.016123 -0.0146011 -0.0128738 -0.0109411 -0.00881558 -0.00650967 -0.00402339 -0.00135674 0.00149028 0.00451767 0.00772543 0.0111136 0.0145438 0.0178781 0.0211162 0.0242583 0.0273043 0.0302543 0.0331082 0.0358661 0.0384007 0.0405848 0.0424184 0.0439016 0.0450343 0.0458165 0.0462483 0.0463295 0.0460758 0.0455023 0.0446092 0.0433964 0.041864 0.0400119 0.0378402 0.0353487 0.0326876 0.0300065 0.0273055 0.0245847 0.021844 0.0190833 0.0163028 0.0135025 0.0108208 0.00839656 0.00622967 0.00432015 0.00266801 0.00127324 0.000135842 -0.000744181 -0.00141927 -0.00194185 -0.00231193 -0.0025295 -0.00259457 -0.00250714 -0.0022672 -0.00187476 -0.00143537 -0.00105455 -0.00073233 -0.000468691 -0.000263639 -0.000117173 -2.92932e-05 0 0 -3.90899e-05 -0.00015636 -0.000351809 -0.000625438 -0.000977248 -0.00140724 -0.00191541 -0.00250175 -0.00315465 -0.00386248 -0.00462523 -0.0054429 -0.00631549 -0.00724301 -0.00822545 -0.00926282 -0.0103068 -0.0113089 -0.0122692 -0.0131878 -0.0140645 -0.0148995 -0.0156927 -0.016444 -0.0171465 -0.0177928 -0.0183831 -0.0189173 -0.0193954 -0.0198175 -0.0201834 -0.0204933 -0.020764 -0.0210122 -0.021238 -0.0214413 -0.0216223 -0.0217808 -0.0219169 -0.0220306 -0.0221422 -0.0222723 -0.0224207 -0.0225876 -0.0227728 -0.0229764 -0.0231984 -0.0234388 -0.0236501 -0.0237846 -0.0238425 -0.0238236 -0.023728 -0.0235558 -0.0233068 -0.0229811 -0.0224827 -0.0217157 -0.02068 -0.0193756 -0.0178026 -0.0159609 -0.0138505 -0.0114714 -0.00883943 -0.00597021 -0.00286377 0.000479898 0.00406079 0.0078789 0.0119342 0.0162268 0.020579 0.0248133 0.0289297 0.0329283 0.0368089 0.0405715 0.0442163 0.0477432 0.050988 0.0537866 0.0561389 0.058045 0.0595049 0.0605184 0.0610858 0.0612069 0.0608999 0.0601829 0.059056 0.0575191 0.0555722 0.0532154 0.0504486 0.0472718 0.0438744 0.0404456 0.0369855 0.0334941 0.0299713 0.0264171 0.0228317 0.0192148 0.0157417 0.0125871 0.00975119 0.0072339 0.00503523 0.00315519 0.00159379 0.000351005 -0.000633628 -0.0014206 -0.0020099 -0.00240153 -0.00259551 -0.00259181 -0.00239045 -0.00199143 -0.00152469 -0.00112018 -0.000777902 -0.000497857 -0.000280045 -0.000124464 -3.11161e-05 0 0 -4.45228e-05 -0.000178091 -0.000400706 -0.000712365 -0.00111307 -0.00160282 -0.00218162 -0.00284946 -0.00358778 -0.004378 -0.00522013 -0.00611417 -0.00706011 -0.00805796 -0.00910772 -0.0102094 -0.0113067 -0.0123435 -0.0133196 -0.0142352 -0.0150903 -0.0158847 -0.0166186 -0.0172919 -0.0179046 -0.0184566 -0.0189479 -0.0193786 -0.0197485 -0.0200578 -0.0203064 -0.0204943 -0.0206504 -0.0208035 -0.0209538 -0.0211011 -0.0212455 -0.021387 -0.0215256 -0.0216612 -0.0218164 -0.0220137 -0.0222532 -0.0225347 -0.0228583 -0.0232241 -0.023632 -0.0240819 -0.0245052 -0.0248331 -0.0250655 -0.0252026 -0.0252442 -0.0251903 -0.0250411 -0.0247964 -0.0243313 -0.0235208 -0.022365 -0.0208637 -0.0190171 -0.0168251 -0.0142877 -0.0114049 -0.00819618 -0.00468103 -0.000859449 0.00326858 0.00770305 0.012444 0.0174913 0.0228451 0.0282809 0.0335743 0.0387252 0.0437337 0.0485997 0.0533233 0.0579045 0.0623432 0.0664311 0.0699597 0.072929 0.0753391 0.07719 0.0784815 0.0792138 0.0793869 0.0790216 0.078139 0.076739 0.0748217 0.072387 0.0694349 0.0659655 0.0619787 0.05771 0.0533946 0.0490328 0.0446244 0.0401694 0.0356678 0.0311197 0.026525 0.0221013 0.0180659 0.0144188 0.0111601 0.00828978 0.0058078 0.00371418 0.00200891 0.000623788 -0.000509392 -0.00139063 -0.00201993 -0.00239729 -0.00252271 -0.00239619 -0.00201773 -0.00154482 -0.00113497 -0.000788174 -0.000504431 -0.000283743 -0.000126108 -3.1527e-05 0 0 -4.99028e-05 -0.000199611 -0.000449125 -0.000798445 -0.00124757 -0.0017965 -0.00244524 -0.00319378 -0.00401477 -0.00488084 -0.005792 -0.00674825 -0.00774958 -0.008796 -0.0098875 -0.0110241 -0.0121413 -0.0131747 -0.0141242 -0.0149899 -0.0157718 -0.0164699 -0.0170841 -0.0176144 -0.0180708 -0.0184631 -0.0187914 -0.0190555 -0.0192555 -0.0193914 -0.0194632 -0.0194709 -0.0194588 -0.0194713 -0.0195082 -0.0195697 -0.0196558 -0.0197663 -0.0199014 -0.020061 -0.0202694 -0.0205511 -0.0209059 -0.021334 -0.0218352 -0.0224097 -0.0230573 -0.0237781 -0.0244771 -0.0250593 -0.0255245 -0.025873 -0.0261045 -0.0262192 -0.026217 -0.0260979 -0.0257027 -0.0248719 -0.0236057 -0.0219039 -0.0197665 -0.0171937 -0.0141853 -0.0107415 -0.00688581 -0.00264213 0.00198957 0.0070093 0.0124171 0.0182128 0.0243967 0.0309685 0.0376495 0.0441609 0.0505026 0.0566746 0.0626769 0.0685096 0.0741726 0.079666 0.0847298 0.089104 0.0927887 0.0957839 0.0980896 0.0997058 0.100632 0.10087 0.100441 0.0993706 0.0976584 0.0953043 0.0923083 0.0886705 0.0843909 0.0794694 0.0741943 0.0688535 0.0634473 0.0579755 0.0524382 0.0468354 0.041167 0.0354331 0.0298997 0.0248328 0.0202326 0.0160988 0.0124317 0.00923106 0.00649701 0.00422952 0.00235298 0.000791762 -0.000454127 -0.00138469 -0.00199992 -0.00229983 -0.00228441 -0.00195366 -0.00149577 -0.00109893 -0.000763147 -0.000488414 -0.000274733 -0.000122103 -3.05259e-05 0 0 -5.52298e-05 -0.000220919 -0.000497068 -0.000883677 -0.00138075 -0.00198827 -0.00270626 -0.00353471 -0.00443562 -0.00537099 -0.00634082 -0.00734512 -0.00838389 -0.00945711 -0.0105648 -0.011707 -0.0128106 -0.0138026 -0.014683 -0.0154519 -0.0161091 -0.0166548 -0.017089 -0.0174115 -0.0176451 -0.0178124 -0.0179133 -0.0179479 -0.0179162 -0.0178182 -0.0176539 -0.0174232 -0.0171893 -0.0170154 -0.0169013 -0.0168472 -0.016853 -0.0169187 -0.0170444 -0.0172299 -0.0175013 -0.0178843 -0.018379 -0.0189854 -0.0197034 -0.0205331 -0.0214745 -0.0225275 -0.0235658 -0.0244632 -0.0252195 -0.0258348 -0.0263091 -0.0266423 -0.0268346 -0.0268858 -0.026597 -0.0257691 -0.0244021 -0.022496 -0.0200509 -0.0170668 -0.0135435 -0.00948118 -0.00490833 0.000146493 0.00568329 0.0117021 0.0182028 0.0251856 0.0326503 0.040597 0.0486848 0.0565731 0.0642619 0.071751 0.0790405 0.0861305 0.0930208 0.0997116 0.105884 0.11122 0.115718 0.119379 0.122204 0.124191 0.125342 0.125655 0.125158 0.123878 0.121814 0.118967 0.115336 0.110922 0.105725 0.099744 0.0933273 0.0868223 0.0802291 0.0735476 0.0667778 0.0599198 0.0529735 0.0459389 0.0391369 0.032888 0.0271924 0.02205 0.0174609 0.013425 0.0099423 0.00701286 0.00455395 0.00248287 0.000799615 -0.000495809 -0.0014034 -0.00192317 -0.00205511 -0.00179922 -0.00137753 -0.00101206 -0.00070282 -0.000449805 -0.000253015 -0.000112451 -2.81128e-05 0 0 -6.05038e-05 -0.000242015 -0.000544535 -0.000968061 -0.0015126 -0.00217814 -0.00296469 -0.00387225 -0.00485033 -0.00584845 -0.0068666 -0.0079048 -0.00896304 -0.0100413 -0.0111396 -0.012258 -0.0133144 -0.0142271 -0.014996 -0.015621 -0.0161023 -0.0164397 -0.0166333 -0.0166831 -0.0166274 -0.0165043 -0.0163138 -0.016056 -0.0157308 -0.0153383 -0.0148784 -0.0143511 -0.0138419 -0.0134358 -0.0131331 -0.0129335 -0.0128373 -0.0128443 -0.0129546 -0.0131681 -0.013512 -0.0140135 -0.0146724 -0.0154889 -0.0164629 -0.0175944 -0.0188834 -0.02033 -0.0217713 -0.0230448 -0.0241504 -0.0250881 -0.0258579 -0.0264598 -0.0268938 -0.0271599 -0.0270141 -0.0262122 -0.0247542 -0.0226403 -0.0198703 -0.0164442 -0.0123622 -0.00762403 -0.00226374 0.00368484 0.0102217 0.0173469 0.0250603 0.0333621 0.0422521 0.0517305 0.0613869 0.0708111 0.0800031 0.0889629 0.0976905 0.106186 0.114449 0.12248 0.129894 0.136306 0.141717 0.146126 0.149533 0.151938 0.153341 0.153743 0.153173 0.15166 0.149206 0.145809 0.141471 0.13619 0.129967 0.122802 0.115109 0.107301 0.0993782 0.0913406 0.0831882 0.0749211 0.0665393 0.0580426 0.0498128 0.0422314 0.0352984 0.0290137 0.0233774 0.0183895 0.01405 0.0103589 0.00722669 0.00456392 0.0023706 0.000646709 -0.000607734 -0.00139274 -0.0017083 -0.00155441 -0.0011901 -0.000874358 -0.000607193 -0.000388603 -0.000218589 -9.71509e-05 -2.42877e-05 0 0 -6.57249e-05 -0.0002629 -0.000591524 -0.0010516 -0.00164312 -0.0023661 -0.00322052 -0.00420639 -0.0052589 -0.00631321 -0.00736934 -0.00842728 -0.00948703 -0.0105486 -0.011612 -0.0126772 -0.013653 -0.0144483 -0.0150631 -0.0154974 -0.0157512 -0.0158244 -0.0157171 -0.0154293 -0.0150177 -0.0145389 -0.0139928 -0.0133796 -0.0126992 -0.0119516 -0.0111368 -0.0102548 -0.00941643 -0.00873265 -0.00820341 -0.00782873 -0.00760858 -0.00754299 -0.00763194 -0.00787544 -0.00830159 -0.00893849 -0.00978614 -0.0108445 -0.0121137 -0.0135936 -0.0152842 -0.0171856 -0.0190936 -0.0208042 -0.0223172 -0.0236328 -0.0247509 -0.0256715 -0.0263947 -0.0269203 -0.026954 -0.0262013 -0.0246621 -0.0223366 -0.0192246 -0.0153261 -0.0106413 -0.00517002 0.00104796 0.00797291 0.0156048 0.0239437 0.0329896 0.0427425 0.0532023 0.0643691 0.0757556 0.0868747 0.0977262 0.10831 0.118627 0.128676 0.138457 0.147971 0.15676 0.164364 0.170785 0.176022 0.180076 0.182945 0.184631 0.185133 0.184485 0.182718 0.179834 0.175832 0.170712 0.164474 0.157118 0.148645 0.13954 0.130289 0.120894 0.111354 0.101669 0.0918393 0.0818643 0.0717442 0.0619276 0.052863 0.0445504 0.0369899 0.0301813 0.0241248 0.0188202 0.0142677 0.0103712 0.00703493 0.00425881 0.00204287 0.000387086 -0.000708525 -0.00124397 -0.00121924 -0.000933482 -0.000685823 -0.000476266 -0.00030481 -0.000171456 -7.62026e-05 -1.90506e-05 0 0 -6.99052e-05 -0.000279621 -0.000629147 -0.00111848 -0.00174763 -0.00251659 -0.00342536 -0.00447393 -0.00558066 -0.00666388 -0.0077236 -0.0087598 -0.0097725 -0.0107617 -0.0117274 -0.0126695 -0.0134881 -0.0140829 -0.0144539 -0.0146011 -0.0145246 -0.0142244 -0.0137004 -0.0129526 -0.0120609 -0.0111052 -0.0100855 -0.00900181 -0.00785409 -0.00664235 -0.00536659 -0.00402682 -0.0027647 -0.00172188 -0.000898366 -0.000294159 9.07423e-05 0.000256338 0.000202628 -7.03875e-05 -0.000591305 -0.00138872 -0.00246263 -0.00381305 -0.00543996 -0.00734337 -0.00952327 -0.0119797 -0.0144602 -0.0167126 -0.0187367 -0.0205326 -0.0221002 -0.0234397 -0.0245509 -0.025434 -0.0257373 -0.0251094 -0.0235503 -0.02106 -0.0176385 -0.0132858 -0.00800191 -0.0017868 0.00531337 0.0132525 0.0220305 0.0316475 0.0421035 0.0533983 0.0655322 0.0785049 0.0917449 0.10468 0.117312 0.129638 0.14166 0.153378 0.164791 0.1759 0.186167 0.195056 0.202565 0.208695 0.213447 0.216819 0.218813 0.219428 0.2187 0.216664 0.213321 0.208671 0.202714 0.19545 0.186879 0.177 0.166378 0.155575 0.144593 0.13343 0.122087 0.110564 0.0988607 0.0869774 0.0754348 0.064754 0.0549349 0.0459776 0.037882 0.0306481 0.0242759 0.0187655 0.0140156 0.00992485 0.00649331 0.00372098 0.00160784 0.000153918 -0.000640806 -0.000776326 -0.000594375 -0.000436683 -0.000303252 -0.000194082 -0.000109171 -4.85204e-05 -1.21301e-05 0 0 -7.2057e-05 -0.000288228 -0.000648513 -0.00115291 -0.00180142 -0.00259405 -0.00353079 -0.00461165 -0.00573495 -0.00679905 -0.00780394 -0.00874961 -0.00963607 -0.0104633 -0.0112314 -0.0119402 -0.0124816 -0.0127475 -0.0127378 -0.0124524 -0.0118915 -0.011055 -0.00994294 -0.00855527 -0.00700181 -0.00539238 -0.00372696 -0.00200555 -0.000228162 0.00160521 0.00349457 0.00543991 0.00726171 0.00878045 0.00999613 0.0109088 0.0115183 0.0118248 0.0118283 0.0115287 0.0108976 0.00990655 0.00855564 0.00684482 0.0047741 0.00234347 -0.00044706 -0.0035975 -0.00679863 -0.00974123 -0.0124253 -0.0148508 -0.0170179 -0.0189264 -0.0205763 -0.0219678 -0.0226843 -0.0223094 -0.0208432 -0.0182857 -0.0146368 -0.00989656 -0.00406499 0.00285794 0.0108191 0.0197653 0.0296967 0.0406132 0.0525147 0.0654014 0.0792732 0.0941301 0.109309 0.124145 0.138639 0.152792 0.166602 0.180071 0.193197 0.205981 0.217803 0.228042 0.236697 0.243769 0.249258 0.253164 0.255487 0.256227 0.255422 0.25311 0.249291 0.243966 0.237134 0.228795 0.21895 0.207599 0.195383 0.182946 0.170287 0.157408 0.144307 0.130985 0.117441 0.103676 0.0902883 0.0778757 0.0664382 0.0559759 0.0464889 0.037977 0.0304403 0.0238789 0.0181879 0.0132626 0.00910312 0.00570935 0.00308133 0.00121905 0.000122507 -0.000208291 -0.000159473 -0.000117164 -8.13638e-05 -5.20728e-05 -2.9291e-05 -1.30182e-05 -3.25455e-06 0 0 -7.21802e-05 -0.000288721 -0.000649622 -0.00115488 -0.00180451 -0.00259849 -0.00353683 -0.00461953 -0.00572177 -0.00671871 -0.00761036 -0.0083967 -0.00907776 -0.00965351 -0.010124 -0.0104891 -0.0106337 -0.0104422 -0.00991472 -0.00905125 -0.00785179 -0.00631633 -0.00444488 -0.00223743 0.000159568 0.00259967 0.00508287 0.00760918 0.0101786 0.0127911 0.0154467 0.0181454 0.0206628 0.0227743 0.0244801 0.02578 0.0266741 0.0271625 0.027245 0.0269217 0.026165 0.0249473 0.0232687 0.0211291 0.0185285 0.0154669 0.0119444 0.00796093 0.00389115 0.000109792 -0.00338316 -0.00658769 -0.00950382 -0.0121315 -0.0144708 -0.0165217 -0.017795 -0.0178014 -0.0165409 -0.0140136 -0.0102194 -0.0051584 0.00116948 0.00876422 0.0175651 0.0275115 0.0386033 0.0508407 0.0642234 0.0787517 0.0944255 0.111245 0.128447 0.145268 0.16171 0.177771 0.193452 0.208753 0.223674 0.238215 0.251667 0.263323 0.273182 0.281245 0.287511 0.291981 0.294654 0.295531 0.294651 0.292055 0.287743 0.281715 0.27397 0.26451 0.253333 0.24044 0.226555 0.212401 0.197979 0.183288 0.168329 0.153101 0.137605 0.121841 0.106488 0.0922279 0.0790602 0.0669849 0.056002 0.0461115 0.0373134 0.0296077 0.0228881 0.0170483 0.0120882 0.008008 0.00480754 0.00248686 0.00104597 0.000484863 0.000371223 0.000272735 0.0001894 0.000121216 6.81838e-05 3.03039e-05 7.57598e-06 0 0 -7.02749e-05 -0.0002811 -0.000632474 -0.0011244 -0.00175687 -0.0025299 -0.00344347 -0.0044976 -0.00554111 -0.00642287 -0.00714286 -0.00770108 -0.00809755 -0.00833225 -0.00840518 -0.00831635 -0.00794415 -0.00716696 -0.00598478 -0.00439761 -0.00240545 -8.3105e-06 0.00279382 0.00600094 0.00942324 0.0128709 0.016344 0.0198424 0.0233661 0.0269153 0.0304898 0.0340897 0.0374385 0.0402598 0.0425535 0.0443196 0.0455582 0.0462693 0.0464527 0.0461087 0.045211 0.0437336 0.0416765 0.0390397 0.0358232 0.0320271 0.0276512 0.0226956 0.0176091 0.0128405 0.00838977 0.00425691 0.000441914 -0.00305521 -0.00623446 -0.00909583 -0.0110694 -0.0115853 -0.0106434 -0.00824375 -0.0043864 0.000928674 0.00770148 0.015932 0.0255514 0.0364909 0.0487504 0.06233 0.0772296 0.0934492 0.110989 0.129849 0.149159 0.16805 0.186523 0.204576 0.22221 0.239426 0.256223 0.2726 0.287759 0.300899 0.312019 0.321121 0.328204 0.333268 0.336313 0.337339 0.336388 0.3335 0.328677 0.321918 0.313224 0.302593 0.290027 0.275524 0.259893 0.24394 0.227666 0.21107 0.194153 0.176914 0.159353 0.14147 0.124034 0.107811 0.092801 0.0790045 0.0664213 0.0550515 0.0448951 0.035952 0.0281162 0.0212818 0.0154487 0.0106169 0.00678648 0.00395737 0.00212959 0.00130314 0.000997714 0.000733014 0.000509038 0.000325784 0.000183254 8.1446e-05 2.03615e-05 0 0 -6.63411e-05 -0.000265364 -0.00059707 -0.00106146 -0.00165853 -0.00238828 -0.00325071 -0.00424583 -0.00519298 -0.00591152 -0.00640144 -0.00666275 -0.00669544 -0.00649952 -0.00607499 -0.00542184 -0.0044131 -0.0029218 -0.000947934 0.0015085 0.00444749 0.00786904 0.0117732 0.0161598 0.0207892 0.0254214 0.0300563 0.034694 0.0393345 0.0439778 0.0486239 0.0532728 0.0575889 0.0612368 0.0642163 0.0665276 0.0681705 0.0691452 0.0694516 0.0690897 0.0680355 0.0662654 0.0637791 0.0605767 0.0566583 0.0520238 0.0466732 0.0406065 0.0343553 0.0284509 0.0228935 0.017683 0.0128193 0.00830261 0.0041328 0.000309891 -0.00250758 -0.00366107 -0.0031506 -0.000976147 0.00286227 0.00836466 0.015531 0.0243614 0.0347781 0.0467036 0.060138 0.0750811 0.0915331 0.109494 0.128964 0.149942 0.171446 0.192491 0.213078 0.233207 0.252877 0.272089 0.290843 0.309138 0.326079 0.340769 0.353209 0.363399 0.371338 0.377027 0.380465 0.381652 0.380632 0.377446 0.372094 0.364577 0.354894 0.343045 0.329031 0.312851 0.295398 0.277565 0.25935 0.240755 0.221779