<?xml version="1.0"?> 
<VTKFile type="StructuredGrid" version="0.1"> 
<StructuredGrid WholeExtent="0 128 0 128 0 0"> 
<Piece Extent="0 128 0 128 0 0"> 
<PointData>
<DataArray type="Float32" Name="u" format="ascii" NumberOfComponents="1"> 
0 0 0 0 0 0 0 0 0 0 0 0 0 0 0 0 0 0 0 0 0 0 0 0 0 0 0 0 0 0 0 0 0 0 0 0 0 0 0 0 0 0 0 0 0 0 0 0 0 0 0 0 0 0 0 0 0 0 0 0 0 0 0 0 0 0 0 0 0 0 0 0 0 0 0 0 0 0 0 0 0 0 0 0 0 0 0 0 0 0 0 0 0 0 0 0 0 0 0 0 0 0 0 0 0 0 0 0 0 0 0 0 0 0 0 0 0 0 0 0 0 0 0 0 0 0 0 0 0 0 -2.12988e-07 -8.5195e-07 -1.91689e-06 -3.4078e-06 -5.32469e-06 -7.66755e-06 -1.04364e-05 -1.36312e-05 -1.69175e-05 -1.99609e-05 -2.27613e-05 -2.53188e-05 -2.76333e-05 -2.97049e-05 -3.15335e-05 -3.31192e-05 -3.41818e-05 -3.44413e-05 -3.38977e-05 -3.2551e-05 -3.04012e-05 -2.74483e-05 -2.36923e-05 -1.91332e-05 -1.42105e-05 -9.36365e-06 -4.59275e-06 1.02234e-07 4.7213e-06 9.26446e-06 1.37317e-05 1.8123e-05 2.19494e-05 2.47218e-05 2.64402e-05 2.71045e-05 2.67149e-05 2.52713e-05 2.27737e-05 1.92221e-05 1.47699e-05 9.57036e-06 3.62359e-06 -3.07044e-06 -1.05117e-05 -1.87003e-05 -2.76361e-05 -3.73192e-05 -4.69205e-05 -5.56108e-05 -6.33901e-05 -7.02585e-05 -7.6216e-05 -8.12625e-05 -8.53981e-05 -8.86227e-05 -9.01391e-05 -8.915e-05 -8.56555e-05 -7.96556e-05 -7.11502e-05 -6.01393e-05 -4.6623e-05 -3.06013e-05 -1.22066e-05 8.42836e-06 3.13037e-05 5.64193e-05 8.37753e-05 0.000113372 0.000145208 0.000179285 0.000214234 0.000248688 0.000282646 0.000316108 0.000349075 0.000381546 0.000413522 0.000445001 0.000474462 0.000500379 0.000522754 0.000541585 0.000556873 0.000568619 0.000576821 0.00058148 0.000582557 0.000580014 0.00057385 0.000564065 0.00055066 0.000533634 0.000512987 0.00048872 0.000462294 0.000435172 0.000407353 0.000378838 0.000349626 0.000319718 0.000289113 0.000257812 0.000227159 0.000198499 0.000171832 0.000147158 0.000124477 0.00010379 8.50948e-05 6.83929e-05 5.36256e-05 4.07345e-05 2.97194e-05 2.05805e-05 1.33176e-05 7.93091e-06 4.4203e-06 2.78579e-06 2.13287e-06 1.56701e-06 1.0882e-06 6.96449e-07 3.91752e-07 1.74112e-07 4.3528e-08 0 0 -8.5195e-07 -3.4078e-06 -7.66755e-06 -1.36312e-05 -2.12988e-05 -3.06702e-05 -4.17456e-05 -5.45248e-05 -6.76701e-05 -7.98436e-05 -9.10453e-05 -0.000101275 -0.000110533 -0.00011882 -0.000126134 -0.000132477 -0.000136727 -0.000137765 -0.000135591 -0.000130204 -0.000121605 -0.000109793 -9.47693e-05 -7.65327e-05 -5.68418e-05 -3.74546e-05 -1.8371e-05 4.08935e-07 1.88852e-05 3.70578e-05 5.49268e-05 7.24921e-05 8.77976e-05 9.88871e-05 0.000105761 0.000108418 0.00010686 0.000101085 9.10948e-05 7.68884e-05 5.90795e-05 3.82814e-05 1.44944e-05 -1.22818e-05 -4.2047e-05 -7.48012e-05 -0.000110545 -0.000149277 -0.000187682 -0.000222443 -0.000253561 -0.000281034 -0.000304864 -0.00032505 -0.000341592 -0.000354491 -0.000360556 -0.0003566 -0.000342622 -0.000318622 -0.000284601 -0.000240557 -0.000186492 -0.000122405 -4.88265e-05 3.37134e-05 0.000125215 0.000225677 0.000335101 0.000453486 0.000580833 0.000717141 0.000856938 0.000994752 0.00113058 0.00126443 0.0013963 0.00152618 0.00165409 0.00178001 0.00189785 0.00200152 0.00209101 0.00216634 0.00222749 0.00227447 0.00230728 0.00232592 0.00233023 0.00232006 0.0022954 0.00225626 0.00220264 0.00213454 0.00205195 0.00195488 0.00184918 0.00174069 0.00162941 0.00151535 0.0013985 0.00127887 0.00115645 0.00103125 0.000908636 0.000793996 0.000687329 0.000588633 0.00049791 0.000415158 0.000340379 0.000273572 0.000214503 0.000162938 0.000118878 8.23219e-05 5.32706e-05 3.17237e-05 1.76812e-05 1.11432e-05 8.5315e-06 6.26804e-06 4.3528e-06 2.78579e-06 1.56701e-06 6.96449e-07 1.74112e-07 0 0 -1.91689e-06 -7.66755e-06 -1.7252e-05 -3.06702e-05 -4.79222e-05 -6.9008e-05 -9.39275e-05 -0.000122681 -0.000152258 -0.000179648 -0.000204852 -0.000227869 -0.0002487 -0.000267344 -0.000283801 -0.000298072 -0.000307636 -0.000309972 -0.00030508 -0.000292959 -0.000273611 -0.000247035 -0.000213231 -0.000172199 -0.000127894 -8.42728e-05 -4.13348e-05 9.20104e-07 4.24917e-05 8.33801e-05 0.000123585 0.000163107 0.000197545 0.000222496 0.000237961 0.000243941 0.000240434 0.000227442 0.000204963 0.000172999 0.000132929 8.61332e-05 3.26123e-05 -2.7634e-05 -9.46057e-05 -0.000168303 -0.000248725 -0.000335873 -0.000422284 -0.000500497 -0.000570511 -0.000632327 -0.000685944 -0.000731363 -0.000768583 -0.000797604 -0.000811252 -0.00080235 -0.0007709 -0.0007169 -0.000640352 -0.000541254 -0.000419607 -0.000275411 -0.00010986 7.58552e-05 0.000281733 0.000507774 0.000753977 0.00102034 0.00130687 0.00161357 0.00192811 0.00223819 0.00254381 0.00284498 0.00314168 0.00343392 0.00372169 0.00400501 0.00427016 0.00450341 0.00470478 0.00487426 0.00501186 0.00511757 0.00519139 0.00523332 0.00524302 0.00522013 0.00516465 0.00507659 0.00495594 0.00480271 0.00461689 0.00439848 0.00416065 0.00391655 0.00366618 0.00340954 0.00314663 0.00287746 0.00260202 0.00232031 0.00204443 0.00178649 0.00154649 0.00132442 0.0011203 0.000934106 0.000765853 0.000615536 0.000482631 0.00036661 0.000267475 0.000185224 0.000119859 7.13782e-05 3.97827e-05 2.50722e-05 1.91959e-05 1.41031e-05 9.79381e-06 6.26804e-06 3.52577e-06 1.56701e-06 3.91752e-07 0 0 -3.4078e-06 -1.36312e-05 -3.06702e-05 -5.45248e-05 -8.5195e-05 -0.000122681 -0.000166982 -0.000218099 -0.00027068 -0.000319374 -0.000364181 -0.000405101 -0.000442133 -0.000475278 -0.000504536 -0.000529907 -0.000546909 -0.000551061 -0.000542364 -0.000520817 -0.00048642 -0.000439173 -0.000379077 -0.000306131 -0.000227367 -0.000149818 -7.3484e-05 1.63574e-06 7.55409e-05 0.000148231 0.000219707 0.000289968 0.00035119 0.000395548 0.000423043 0.000433673 0.000427439 0.000404341 0.000364379 0.000307554 0.000236318 0.000153126 5.79775e-05 -4.91271e-05 -0.000168188 -0.000299205 -0.000442178 -0.000597108 -0.000750728 -0.000889773 -0.00101424 -0.00112414 -0.00121946 -0.0013002 -0.00136637 -0.00141796 -0.00144223 -0.0014264 -0.00137049 -0.00127449 -0.0011384 -0.000962229 -0.000745968 -0.00048962 -0.000195306 0.000134854 0.000500859 0.000902709 0.0013404 0.00181395 0.00232333 0.00286856 0.00342775 0.00397901 0.00452234 0.00505774 0.0055852 0.00610474 0.00661635 0.00712002 0.00759139 0.00800607 0.00836406 0.00866536 0.00890997 0.0090979 0.00922913 0.00930368 0.00932092 0.00928022 0.0091816 0.00902504 0.00881056 0.00853814 0.0082078 0.00781952 0.00739671 0.00696275 0.00651765 0.0060614 0.00559401 0.00511548 0.00462581 0.00412499 0.00363454 0.00317598 0.00274931 0.00235453 0.00199164 0.00166063 0.00136152 0.00109429 0.00085801 0.000651752 0.000475511 0.000329288 0.000213082 0.000126895 7.07248e-05 4.45727e-05 3.4126e-05 2.50722e-05 1.74112e-05 1.11432e-05 6.26804e-06 2.78579e-06 6.96449e-07 0 0 -5.32469e-06 -2.12988e-05 -4.79222e-05 -8.5195e-05 -0.000133117 -0.000191689 -0.00026091 -0.00034078 -0.000422938 -0.000499022 -0.000569033 -0.00063297 -0.000690833 -0.000742622 -0.000788337 -0.000827979 -0.000854545 -0.000861033 -0.000847443 -0.000813776 -0.000760031 -0.000686208 -0.000592308 -0.00047833 -0.000355261 -0.000234091 -0.000114819 2.55584e-06 0.000118033 0.000231612 0.000343293 0.000453076 0.000548735 0.000618045 0.000661004 0.000677614 0.000667873 0.000631783 0.000569343 0.000480553 0.000369247 0.000239259 9.05898e-05 -7.6761e-05 -0.000262793 -0.000467508 -0.000690903 -0.000932981 -0.00117301 -0.00139027 -0.00158475 -0.00175646 -0.0019054 -0.00203156 -0.00213495 -0.00221557 -0.00225348 -0.00222875 -0.00214139 -0.00199139 -0.00177875 -0.00150348 -0.00116558 -0.000765032 -0.000305165 0.000210709 0.000782592 0.00141048 0.00209438 0.00283429 0.0036302 0.00448213 0.00535586 0.0062172 0.00706615 0.00790271 0.00872688 0.00953866 0.010338 0.011125 0.0118615 0.0125095 0.0130688 0.0135396 0.0139218 0.0142155 0.0144205 0.014537 0.0145639 0.0145003 0.0143462 0.0141016 0.0137665 0.0133408 0.0128247 0.012218 0.0115574 0.0108793 0.0101838 0.00947094 0.00874065 0.00799294 0.00722782 0.00644529 0.00567897 0.00496248 0.0042958 0.00367896 0.00311194 0.00259474 0.00212737 0.00170982 0.00134064 0.00101836 0.000742986 0.000514512 0.000332941 0.000198273 0.000110507 6.96449e-05 5.33219e-05 3.91752e-05 2.7205e-05 1.74112e-05 9.79381e-06 4.3528e-06 1.0882e-06 0 0 -7.66755e-06 -3.06702e-05 -6.9008e-05 -0.000122681 -0.000191689 -0.000276032 -0.00037571 -0.000490723 -0.000609031 -0.000718592 -0.000819408 -0.000911476 -0.000994799 -0.00106938 -0.00113521 -0.00119229 -0.00123054 -0.00123989 -0.00122032 -0.00117184 -0.00109444 -0.00098814 -0.000852923 -0.000688795 -0.000511577 -0.000337091 -0.000165339 3.68041e-06 0.000169967 0.000333521 0.000494341 0.000652429 0.000790179 0.000889984 0.000951846 0.000975764 0.000961737 0.000909767 0.000819853 0.000691996 0.000531715 0.000344533 0.000130449 -0.000110536 -0.000378423 -0.000673211 -0.000994901 -0.00134349 -0.00168914 -0.00200199 -0.00228204 -0.00252931 -0.00274378 -0.00292545 -0.00307433 -0.00319042 -0.00324501 -0.0032094 -0.0030836 -0.0028676 -0.00256141 -0.00216502 -0.00167843 -0.00110165 -0.000439438 0.000303421 0.00112693 0.00203109 0.00301591 0.00408138 0.00522749 0.00645427 0.00771244 0.00895277 0.0101753 0.0113799 0.0125667 0.0137357 0.0148868 0.0160201 0.0170806 0.0180137 0.0188191 0.0194971 0.0200474 0.0204703 0.0207655 0.0209333 0.0209721 0.0208805 0.0206586 0.0203064 0.0198238 0.0192108 0.0184675 0.0175939 0.0166426 0.0156662 0.0146647 0.0136382 0.0125865 0.0115098 0.0104081 0.00928122 0.00817772 0.00714597 0.00618596 0.0052977 0.00448119 0.00373643 0.00306341 0.00246215 0.00193052 0.00146644 0.0010699 0.000740897 0.000479435 0.000285513 0.000159131 0.000100289 7.67835e-05 5.64123e-05 3.91752e-05 2.50722e-05 1.41031e-05 6.26804e-06 1.56701e-06 0 0 -1.04364e-05 -4.17456e-05 -9.39275e-05 -0.000166982 -0.00026091 -0.00037571 -0.000511383 -0.000667929 -0.000828959 -0.000978084 -0.0011153 -0.00124062 -0.00135403 -0.00145554 -0.00154514 -0.00162284 -0.00167491 -0.00168762 -0.00166099 -0.001595 -0.00148966 -0.00134497 -0.00116092 -0.000937526 -0.000696313 -0.000458819 -0.000225045 5.00945e-06 0.000231344 0.000453959 0.000672853 0.000888029 0.00107552 0.00121137 0.00129557 0.00132812 0.00130903 0.00123829 0.00111591 0.000941883 0.000723723 0.000468948 0.000177556 -0.000150452 -0.000515075 -0.000916315 -0.00135417 -0.00182864 -0.0022991 -0.00272493 -0.00310612 -0.00344267 -0.00373458 -0.00398186 -0.00418451 -0.00434251 -0.00441681 -0.00436835 -0.00419712 -0.00390312 -0.00348636 -0.00294683 -0.00228453 -0.00149946 -0.000598124 0.00041299 0.00153388 0.00276455 0.00410499 0.00555521 0.0071152 0.00878497 0.0104975 0.0121857 0.0138497 0.0154893 0.0171047 0.0186958 0.0202626 0.0218051 0.0232486 0.0245186 0.0256149 0.0265377 0.0272868 0.0278623 0.0282642 0.0284925 0.0285453 0.0284207 0.0281186 0.0276392 0.0269823 0.0261481 0.0251364 0.0239473 0.0226524 0.0213234 0.0199603 0.018563 0.0171317 0.0156662 0.0141665 0.0126328 0.0111308 0.00972645 0.00841978 0.00721076 0.0060994 0.00508569 0.00416964 0.00335125 0.00262766 0.00199599 0.00145625 0.00100844 0.000652564 0.000388615 0.000216595 0.000136504 0.000104511 7.67835e-05 5.33219e-05 3.4126e-05 1.91959e-05 8.5315e-06 2.13287e-06 0 0 -1.36312e-05 -5.45248e-05 -0.000122681 -0.000218099 -0.00034078 -0.000490723 -0.000667929 -0.000872397 -0.00108272 -0.0012775 -0.00145672 -0.0016204 -0.00176853 -0.00190111 -0.00201814 -0.00211963 -0.00218763 -0.00220424 -0.00216946 -0.00208327 -0.00194568 -0.00175669 -0.00151631 -0.00122452 -0.000909469 -0.000599273 -0.000293936 6.54296e-06 0.000302163 0.000592925 0.000878829 0.00115987 0.00140476 0.00158219 0.00169217 0.00173469 0.00170976 0.00161736 0.00145752 0.00123021 0.000945271 0.000612503 0.00023191 -0.000196508 -0.000672751 -0.00119682 -0.00176871 -0.00238843 -0.00300291 -0.00355909 -0.00405697 -0.00449655 -0.00487782 -0.0052008 -0.00546548 -0.00567185 -0.0057689 -0.0057056 -0.00548195 -0.00509796 -0.00455361 -0.00384892 -0.00298387 -0.00195848 -0.000781224 0.000539415 0.00200343 0.00361084 0.00536162 0.00725578 0.00929332 0.0114742 0.013711 0.015916 0.0180893 0.0202309 0.0223408 0.024419 0.0264654 0.0284801 0.0303656 0.0320243 0.0334562 0.0346614 0.0356399 0.0363916 0.0369165 0.0372147 0.0372837 0.0371209 0.0367264 0.0361002 0.0352422 0.0341526 0.0328312 0.0312781 0.0295868 0.027851 0.0260706 0.0242456 0.0223761 0.0204619 0.0185032 0.0165 0.0145382 0.0127039 0.0109973 0.00941813 0.00796656 0.00664253 0.00544606 0.00437715 0.00343204 0.00260701 0.00190204 0.00131715 0.000852329 0.000507578 0.000282899 0.000178291 0.000136504 0.000100289 6.96449e-05 4.45727e-05 2.50722e-05 1.11432e-05 2.78579e-06 0 0 -1.67778e-05 -6.71113e-05 -0.000151 -0.000268445 -0.000419445 -0.000604001 -0.000822113 -0.00107378 -0.00133166 -0.00156842 -0.00178405 -0.00197856 -0.00215194 -0.00230419 -0.00243532 -0.00254533 -0.00261204 -0.00261331 -0.00254913 -0.0024195 -0.00222442 -0.00196389 -0.00163791 -0.00124649 -0.00082587 -0.000412319 -5.83617e-06 0.00039358 0.000785928 0.00117121 0.00154942 0.00192057 0.00224453 0.00248121 0.00263059 0.00269268 0.00266747 0.00255498 0.00235519 0.00206811 0.00170645 0.00128294 0.000797559 0.000250321 -0.000358776 -0.00102973 -0.00176255 -0.00255723 -0.00334574 -0.00406005 -0.00470017 -0.00526609 -0.00575781 -0.00617534 -0.00651867 -0.0067878 -0.00691755 -0.00684276 -0.00656341 -0.0060795 -0.00539104 -0.00449802 -0.00340046 -0.00209833 -0.000602527 0.00107609 0.00293752 0.00498176 0.00720881 0.00961868 0.0122114 0.0149868 0.0178336 0.02064 0.023406 0.0261318 0.0288172 0.0314622 0.034067 0.0366314 0.0390313 0.0411426 0.0429652 0.0444991 0.0457444 0.046701 0.047369 0.0477483 0.0478356 0.0476275 0.047124 0.0463251 0.0452308 0.0438412 0.0421561 0.0401757 0.0380187 0.0358039 0.0335315 0.0312013 0.0288134 0.0263677 0.0238643 0.0213032 0.018794 0.0164462 0.0142599 0.0122351 0.0103717 0.00866985 0.00712944 0.00575049 0.00452907 0.0034612 0.0025469 0.00178616 0.00117899 0.000725374 0.000425322 0.000278833 0.000213481 0.000156843 0.000108919 6.97082e-05 3.92109e-05 1.74271e-05 4.35676e-06 0 0 -1.94021e-05 -7.76082e-05 -0.000174618 -0.000310433 -0.000485051 -0.000698474 -0.000950701 -0.00124173 -0.00153712 -0.00180244 -0.00203767 -0.00224282 -0.00241789 -0.00256288 -0.00267779 -0.00276262 -0.00279146 -0.0027384 -0.00260343 -0.00238657 -0.00208781 -0.00170715 -0.00124458 -0.000700118 -0.000120336 0.00044818 0.00100543 0.00155142 0.00208614 0.0026096 0.00312179 0.00362271 0.00406147 0.00438715 0.00459976 0.00469929 0.00468575 0.00455914 0.00431945 0.00396669 0.00351736 0.00298798 0.00237855 0.00168906 0.000919524 6.99317e-05 -0.000859714 -0.00186941 -0.00287277 -0.0037834 -0.00460129 -0.00532644 -0.00595886 -0.00649855 -0.0069455 -0.00729971 -0.00747907 -0.00740142 -0.00706678 -0.00647515 -0.00562651 -0.00452089 -0.00315827 -0.00153865 0.000324173 0.00241641 0.00473806 0.00728912 0.0100696 0.0130795 0.0163188 0.0197875 0.0233458 0.0268537 0.0303114 0.0337188 0.0370759 0.0403826 0.0436391 0.0468453 0.0498458 0.0524854 0.0547639 0.0566815 0.058238 0.0594336 0.0602681 0.0607417 0.0608495 0.0605868 0.0599535 0.0589498 0.0575755 0.0558306 0.0537153 0.0512294 0.0485208 0.0457373 0.0428789 0.0399456 0.0369373 0.0338541 0.0306961 0.0274631 0.0242924 0.0213211 0.0185493 0.0159769 0.013604 0.0114305 0.00945652 0.00768196 0.00610413 0.00472029 0.00353046 0.00253463 0.0017328 0.00112497 0.000711142 0.000491313 0.000376162 0.000276364 0.000191919 0.000122828 6.90909e-05 3.07071e-05 7.67677e-06 0 0 -2.15039e-05 -8.60157e-05 -0.000193535 -0.000344063 -0.000537598 -0.000774141 -0.00105369 -0.00137625 -0.00169911 -0.00197955 -0.00221757 -0.00241319 -0.00256639 -0.00267717 -0.00274554 -0.0027715 -0.00272587 -0.00257949 -0.00233236 -0.00198448 -0.00153584 -0.00098645 -0.000336308 0.000414586 0.00120713 0.00198222 0.00273987 0.00348006 0.0042028 0.00490809 0.00559592 0.00626631 0.00685557 0.00730003 0.00759968 0.00775454 0.00776459 0.00762985 0.0073503 0.00692595 0.006378 0.00572764 0.00497488 0.00411972 0.00316215 0.00210218 0.0009398 -0.000324981 -0.00158401 -0.00272912 -0.00376032 -0.0046776 -0.00548097 -0.00617043 -0.00674597 -0.0072076 -0.00745343 -0.00738159 -0.00699208 -0.0062849 -0.00526004 -0.00391751 -0.0022573 -0.000279428 0.00199888 0.00456037 0.00740505 0.0105329 0.013944 0.0176382 0.0216156 0.0258762 0.0302476 0.0345573 0.0388055 0.042992 0.0471169 0.0511801 0.0551818 0.0591218 0.0628091 0.0660526 0.0688524 0.0712085 0.0731207 0.0745892 0.0756139 0.0761949 0.0763254 0.0759988 0.0752151 0.0739742 0.0722762 0.070121 0.0675087 0.0644393 0.0610933 0.0576511 0.0541128 0.0504784 0.0467479 0.0429212 0.0389984 0.0349795 0.0310333 0.0273285 0.0238653 0.0206436 0.0176633 0.0149246 0.0124273 0.0101715 0.00815721 0.00638427 0.00485272 0.00356255 0.00251377 0.00170637 0.00114036 0.000815732 0.000624545 0.000458849 0.000318645 0.000203933 0.000114712 5.09833e-05 1.27458e-05 0 0 -2.30834e-05 -9.23336e-05 -0.000207751 -0.000369334 -0.000577085 -0.000831003 -0.00113109 -0.00147734 -0.00181761 -0.00209975 -0.00232377 -0.00248966 -0.00259743 -0.00264707 -0.00263858 -0.00257197 -0.00241529 -0.0021366 -0.00173591 -0.00121322 -0.000568515 0.000198192 0.00108691 0.00209762 0.00315653 0.00418981 0.00519747 0.0061795 0.0071359 0.00806668 0.00897183 0.00985136 0.0106268 0.0112198 0.0116304 0.0118584 0.011904 0.0117671 0.0114477 0.0109459 0.0102884 0.00950192 0.00858656 0.00754229 0.0063691 0.005067 0.00363599 0.00207607 0.000520553 -0.000897225 -0.00217727 -0.00331958 -0.00432415 -0.00519098 -0.00592009 -0.00651145 -0.00684066 -0.00678327 -0.00633931 -0.00550875 -0.00429161 -0.00268788 -0.00069757 0.00167933 0.00442159 0.00750797 0.0109385 0.0147131 0.0188319 0.0232948 0.0281018 0.033253 0.038539 0.0437508 0.0488882 0.0539514 0.0589402 0.0638547 0.0686949 0.0734608 0.0779211 0.0818444 0.0852307 0.0880801 0.0903925 0.092168 0.0934064 0.0941079 0.0942634 0.0938636 0.0929086 0.0913984 0.0893329 0.0867123 0.0835364 0.0798054 0.075736 0.0715453 0.0672333 0.0627998 0.058245 0.0535689 0.0487714 0.0438525 0.0390168 0.0344686 0.030208 0.0262351 0.0225497 0.019152 0.0160418 0.0132192 0.0106883 0.00845315 0.00651368 0.00486992 0.00352189 0.00246957 0.00171297 0.00125209 0.000958631 0.0007043 0.000489098 0.000313022 0.000176075 7.82556e-05 1.95639e-05 0 0 -2.41405e-05 -9.65621e-05 -0.000217265 -0.000386248 -0.000603513 -0.000869059 -0.00118289 -0.00154499 -0.00189263 -0.00216306 -0.00235626 -0.00247225 -0.00251102 -0.00247257 -0.00235691 -0.00216403 -0.00185971 -0.00140973 -0.000814091 -7.27931e-05 0.000814165 0.00184678 0.00302506 0.004349 0.00572787 0.00707095 0.00837824 0.00964974 0.0108855 0.0120854 0.0132495 0.0143779 0.0153753 0.0161466 0.0166918 0.0170109 0.017104 0.0169709 0.0166118 0.0160265 0.0152485 0.0143108 0.0132136 0.0119568 0.0105404 0.00896441 0.00722886 0.00533373 0.00344091 0.00171229 0.000147866 -0.00125236 -0.00248839 -0.00356021 -0.00446784 -0.00521127 -0.00564074 -0.00560646 -0.00510846 -0.00414671 -0.00272123 -0.000832015 0.00152094 0.00433762 0.0075923 0.0112592 0.0153384 0.0198298 0.0247334 0.0300493 0.0357774 0.0419178 0.0482201 0.0544341 0.0605597 0.0665969 0.0725459 0.0784064 0.0841786 0.0898625 0.0951819 0.0998606 0.103899 0.107296 0.110053 0.11217 0.113646 0.114481 0.114663 0.114181 0.113034 0.111222 0.108746 0.105604 0.101798 0.0973276 0.0924491 0.0874199 0.0822402 0.0769098 0.0714288 0.0657972 0.0600149 0.0540821 0.0482428 0.0427412 0.0375775 0.0327515 0.0282632 0.0241127 0.0203 0.0168251 0.0136975 0.0109269 0.00851333 0.00645675 0.00475716 0.00341457 0.00242898 0.00180039 0.00137842 0.00101272 0.000703276 0.000450096 0.000253179 0.000112524 2.8131e-05 0 0 -2.46753e-05 -9.8701e-05 -0.000222077 -0.000394804 -0.000616881 -0.000888309 -0.00120909 -0.00157922 -0.00192418 -0.00216945 -0.00231504 -0.00236094 -0.00230715 -0.00215368 -0.00190052 -0.00154768 -0.00105913 -0.00039887 0.000433105 0.0014368 0.0026122 0.00395932 0.00547815 0.0071687 0.00892114 0.0106256 0.0122822 0.0138908 0.0154515 0.0169642 0.018429 0.0198458 0.0211008 0.0220802 0.022784 0.0232121 0.0233645 0.0232413 0.0228424 0.0221678 0.0212583 0.0201543 0.0188559 0.0173632 0.015676 0.0137944 0.0117184 0.00944801 0.00717707 0.00509942 0.00321508 0.00152405 2.63151e-05 -0.00127811 -0.00238924 -0.00330706 -0.00385367 -0.00385116 -0.00329953 -0.00219878 -0.0005489 0.0016501 0.00439822 0.00769546 0.011511 0.0158141 0.0206047 0.0258829 0.0316485 0.0379017 0.0446424 0.0518707 0.0592908 0.0666072 0.0738198 0.0809287 0.0879338 0.0948352 0.101633 0.108327 0.114591 0.120101 0.124857 0.128857 0.132103 0.134595 0.136331 0.137313 0.137525 0.136951 0.135591 0.133446 0.130515 0.126798 0.122295 0.117006 0.111232 0.105275 0.0991336 0.0928084 0.0862992 0.0796061 0.0727291 0.0656682 0.0587114 0.0521465 0.0459736 0.0401927 0.0348038 0.0298069 0.0252019 0.020989 0.0171847 0.0138056 0.0108517 0.00832302 0.00621959 0.00454138 0.00328839 0.00246062 0.00188391 0.0013841 0.00096118 0.000615155 0.000346025 0.000153789 3.84472e-05 0 0 -2.46876e-05 -9.87505e-05 -0.000222189 -0.000395002 -0.000617191 -0.000888754 -0.00120969 -0.00158001 -0.00191224 -0.00211894 -0.00220011 -0.00215574 -0.00198583 -0.0016904 -0.00126942 -0.000722916 -1.35553e-05 0.000895975 0.00200568 0.00331555 0.00482559 0.0065358 0.00844619 0.0105567 0.0127363 0.0148539 0.0169093 0.0189026 0.0208339 0.0227031 0.0245102 0.0262552 0.0278036 0.0290208 0.0299069 0.0304618 0.0306856 0.0305781 0.0301396 0.0293698 0.0283178 0.0270324 0.0255136 0.0237615 0.0217759 0.019557 0.0171046 0.0144189 0.011729 0.00926418 0.00702439 0.00500964 0.00321995 0.00165531 0.000315719 -0.000798822 -0.00147947 -0.00151737 -0.000912529 0.000335055 0.00222538 0.00475845 0.00793427 0.0117528 0.0161777 0.0211726 0.0267375 0.0328724 0.0395772 0.046852 0.0546969 0.0631116 0.0717512 0.0802702 0.0886687 0.0969467 0.105104 0.113141 0.121058 0.128853 0.13615 0.142567 0.148104 0.152763 0.156542 0.159443 0.161464 0.162606 0.162849 0.162174 0.160581 0.158069 0.15464 0.150291 0.145025 0.13884 0.132086 0.12511 0.117914 0.110496 0.102856 0.0949957 0.0869139 0.0786109 0.0704225 0.0626843 0.0553964 0.0485588 0.0421714 0.0362343 0.0307476 0.0257111 0.0211499 0.0170891 0.0135287 0.0104688 0.00790917 0.00584998 0.00429119 0.00323279 0.00247511 0.00181845 0.00126281 0.000808198 0.000454612 0.00020205 5.05124e-05 0 0 -2.41776e-05 -9.67104e-05 -0.000217598 -0.000386842 -0.00060444 -0.000870394 -0.0011847 -0.00154737 -0.00185683 -0.00201153 -0.00201147 -0.00185664 -0.00154706 -0.00108272 -0.000463611 0.000310256 0.00127702 0.00247481 0.00390362 0.00556347 0.00745434 0.00957624 0.0119292 0.0145131 0.0171735 0.0197556 0.0222596 0.0246853 0.0270328 0.0293021 0.0314932 0.0336061 0.0354835 0.0369684 0.0380606 0.0387602 0.0390672 0.0389816 0.0385034 0.0376325 0.0364271 0.0349452 0.0331867 0.0311517 0.0288402 0.0262521 0.0233875 0.0202464 0.0170968 0.0142065 0.0115758 0.00920443 0.00709253 0.00524006 0.00364704 0.00231345 0.00148188 0.00139491 0.00205255 0.00345478 0.00560162 0.00849305 0.0121291 0.0165097 0.0215925 0.0273348 0.0337368 0.0407983 0.0485195 0.0569003 0.0659407 0.0756406 0.0856011 0.095423 0.105106 0.114651 0.124057 0.133324 0.142453 0.151443 0.159857 0.167256 0.173642 0.179013 0.183371 0.186714 0.189043 0.190358 0.190635 0.18985 0.188002 0.185093 0.181121 0.176086 0.16999 0.162831 0.15501 0.146926 0.13858 0.129971 0.1211 0.111966 0.102569 0.0929102 0.0833762 0.0743547 0.0658459 0.0578497 0.0503661 0.0433952 0.0369369 0.0309912 0.0255931 0.0207776 0.0165445 0.0128939 0.00982591 0.00734039 0.00543739 0.0041169 0.00315201 0.00231576 0.00160817 0.00102923 0.00057894 0.000257307 6.43266e-05 0 0 -2.23549e-05 -8.94195e-05 -0.000201194 -0.000357678 -0.000558872 -0.000804775 -0.00109539 -0.00143071 -0.00169398 -0.00176842 -0.00165405 -0.00135085 -0.00085883 -0.000177989 0.000691675 0.00175016 0.00303514 0.00458427 0.00639757 0.00847503 0.0108166 0.0134224 0.0162924 0.0194265 0.022644 0.0257642 0.028787 0.0317125 0.0345407 0.0372716 0.0399051 0.0424413 0.0446981 0.0464936 0.0478278 0.0487007 0.0491122 0.0490624 0.0485513 0.0475788 0.0462131 0.0445222 0.0425062 0.0401651 0.0374988 0.0345074 0.0311909 0.0275492 0.0238924 0.0205308 0.0174643 0.0146929 0.0122166 0.0100354 0.00814934 0.00655837 0.00554146 0.00537758 0.00606672 0.0076089 0.0100041 0.0132523 0.0173536 0.0223079 0.028066 0.0345789 0.0418466 0.0498689 0.058646 0.0681779 0.0784644 0.0895057 0.100846 0.112028 0.123053 0.13392 0.144629 0.155181 0.165575 0.175812 0.185393 0.193818 0.201088 0.207204 0.212164 0.215969 0.218619 0.220114 0.220424 0.219522 0.217405 0.214075 0.209532 0.203775 0.196805 0.188621 0.179676 0.170423 0.160862 0.150992 0.140814 0.130328 0.119534 0.108431 0.0974628 0.0870709 0.0772555 0.0680166 0.0593543 0.0512684 0.0437591 0.0368263 0.030517 0.0248782 0.0199098 0.0156118 0.0119842 0.00902708 0.00674039 0.00512414 0.00392317 0.00288233 0.00200162 0.00128104 0.000720582 0.000320259 8.00647e-05 0 0 -1.84291e-05 -7.37162e-05 -0.000165862 -0.000294865 -0.000460726 -0.000663446 -0.000903024 -0.00117946 -0.00135974 -0.00131085 -0.00103278 -0.000525546 0.000210862 0.00117644 0.00237119 0.00379512 0.00548335 0.00747103 0.00975815 0.0123447 0.0152307 0.0184162 0.0219011 0.0256855 0.0295593 0.0333127 0.0369457 0.0404582 0.0438503 0.0471219 0.0502731 0.0533038 0.056005 0.0581675 0.0597914 0.0608767 0.0614234 0.0614314 0.0609008 0.0598316 0.0583027 0.0563934 0.0541035 0.051433 0.048382 0.0449504 0.0411383 0.0369457 0.0327281 0.0288413 0.0252851 0.0220596 0.0191648 0.0166007 0.0143673 0.0124645 0.0112103 0.0109225 0.011601 0.0132459 0.0158571 0.0194347 0.0239787 0.029489 0.0359093 0.0431833 0.0513111 0.0602924 0.0701275 0.0808163 0.0923587 0.104755 0.117489 0.130047 0.142428 0.154632 0.166659 0.178509 0.190182 0.201679 0.212438 0.2219 0.230063 0.236929 0.242498 0.246768 0.249741 0.251416 0.251759 0.250733 0.248339 0.244578 0.239448 0.232951 0.225086 0.215852 0.205756 0.195301 0.184487 0.173315 0.161784 0.149894 0.137646 0.125039 0.112573 0.100746 0.0895586 0.0790107 0.0691021 0.0598331 0.0512034 0.0432132 0.0359243 0.0293983 0.0236354 0.0186354 0.0143985 0.0109245 0.00821361 0.00626569 0.00479717 0.00352445 0.00244753 0.00156642 0.000881112 0.000391605 9.79014e-05 0 0 -1.24002e-05 -4.96007e-05 -0.000111601 -0.000198403 -0.000310004 -0.000446406 -0.000607608 -0.000793611 -0.000854108 -0.000638794 -0.000147668 0.000619268 0.00166202 0.00298057 0.00457494 0.00644512 0.00862165 0.0111351 0.0139854 0.0171725 0.0206966 0.0245575 0.0287554 0.0332901 0.0379195 0.0424013 0.0467356 0.0509223 0.0549614 0.058853 0.0625971 0.0661936 0.069404 0.07199 0.0739514 0.0752883 0.0760007 0.0760886 0.075552 0.0743908 0.0726961 0.0705586 0.0679783 0.0649553 0.0614896 0.0575812 0.05323 0.0484361 0.0436039 0.0391379 0.035038 0.0313044 0.027937 0.0249358 0.0223008 0.020032 0.0184885 0.0180297 0.0186554 0.0203658 0.0231607 0.0270402 0.0320044 0.0380531 0.0451223 0.053148 0.0621302 0.0720688 0.082964 0.0948155 0.107624 0.121388 0.135533 0.149481 0.163232 0.176787 0.190146 0.203308 0.216274 0.229043 0.240993 0.251501 0.260567 0.268191 0.274372 0.279112 0.28241 0.284265 0.284637 0.283484 0.280805 0.2766 0.27087 0.263614 0.254833 0.244526 0.233249 0.221559 0.209456 0.196939 0.184008 0.170664 0.156906 0.142734 0.128706 0.11538 0.102755 0.0908318 0.0796098 0.0690891 0.0592698 0.0501519 0.0418148 0.0343379 0.0277213 0.0219649 0.0170687 0.0130328 0.00985704 0.00754154 0.00577399 0.00424212 0.00294592 0.00188539 0.00106053 0.000471347 0.000117837 0 0 -4.26819e-06 -1.70728e-05 -3.84137e-05 -6.82911e-05 -0.000106705 -0.000153655 -0.000209141 -0.000273164 -0.000177086 0.000247733 0.00100129 0.00208359 0.00349463 0.00523441 0.00730293 0.00970018 0.01245 0.0155764 0.0190792 0.0229585 0.0272142 0.0318465 0.0368552 0.0422404 0.0477244 0.0530299 0.0581566 0.0631048 0.0678742 0.072465 0.0768772 0.0811107 0.0848954 0.087961 0.0903078 0.0919355 0.0928442 0.093034 0.0925048 0.0912566 0.0893931 0.0870178 0.0841309 0.0807322 0.0768218 0.0723996 0.0674658 0.0620202 0.0565196 0.0514206 0.0467232 0.0424275 0.0385334 0.0350408 0.0319499 0.0292606 0.027376 0.0266992 0.02723 0.0289686 0.0319149 0.0360689 0.0414306 0.0480001 0.055705 0.064473 0.074304 0.0851981 0.0971553 0.110176 0.124259 0.139405 0.154975 0.170329 0.185466 0.200386 0.21509 0.229578 0.243849 0.257904 0.271057 0.282622 0.292599 0.300987 0.307788 0.313 0.316625 0.318662 0.319061 0.317774 0.314801 0.310142 0.303796 0.295764 0.286046 0.274641 0.262157 0.249199 0.235769 0.221865 0.207487 0.192637 0.177313 0.161516 0.145863 0.130973 0.116846 0.10348 0.0908771 0.0790365 0.0679582 0.0576423 0.0481886 0.0396971 0.0321676 0.0256002 0.0199949 0.0153518 0.0116707 0.00895171 0.00685365 0.00503534 0.00349676 0.00223793 0.00125883 0.000559482 0.00013987 0 0 5.96685e-06 2.38674e-05 5.37017e-05 9.54697e-05 0.000149171 0.000214807 0.000292376 0.000381879 0.000671327 0.00134873 0.0024141 0.00386742 0.0057087 0.00793794 0.0105551 0.0135603 0.0169685 0.020795 0.0250397 0.0297026 0.0347837 0.040283 0.0462005 0.0525363 0.0589742 0.0651985 0.0712089 0.0770057 0.0825886 0.0879579 0.0931133 0.0980551 0.102479 0.106081 0.10886 0.110818 0.111954 0.112268 0.111759 0.110429 0.108394 0.105771 0.102561 0.0987635 0.0943784 0.0894058 0.0838458 0.0776982 0.0714754 0.0656896 0.0603407 0.0554287 0.0509538 0.0469157 0.0433147 0.0401506 0.0378728 0.0369309 0.0373247 0.0390542 0.0421195 0.0465206 0.0522575 0.0593301 0.0676574 0.0771582 0.0878325 0.0996803 0.112702 0.126897 0.142265 0.158807 0.175817 0.192591 0.209128 0.225428 0.241492 0.257319 0.272909 0.288263 0.302631 0.315263 0.326159 0.335319 0.342744 0.348433 0.352387 0.354604 0.355029 0.353604 0.350329 0.345203 0.338227 0.329401 0.318725 0.306198 0.292478 0.27822 0.263425 0.248092 0.232222 0.215813 0.198868 0.181385 0.164044 0.147525 0.131829 0.116956 0.102904 0.0896753 0.0772687 0.0656845 0.0550458 0.0454757 0.0369742 0.0295414 0.0231771 0.0178815 0.0136545 0.0104962 0.00803615 0.00590411 0.00410007 0.00262405 0.00147603 0.000656012 0.000164003 0 0 1.8305e-05 7.32199e-05 0.000164745 0.00029288 0.000457625 0.000658979 0.000896944 0.00117152 0.00169113 0.00266421 0.00409075 0.00597076 0.00830424 0.0110912 0.0143316 0.0180255 0.0221771 0.0267909 0.0318668 0.0374048 0.0434049 0.0498671 0.0567914 0.0641778 0.