<?xml version="1.0"?> 
<VTKFile type="StructuredGrid" version="0.1"> 
<StructuredGrid WholeExtent="0 128 0 128 0 0"> 
<Piece Extent="0 128 0 128 0 0"> 
<PointData>
<DataArray type="Float32" Name="u" format="ascii" NumberOfComponents="1"> 
0 0 0 0 0 0 0 0 0 0 0 0 0 0 0 0 0 0 0 0 0 0 0 0 0 0 0 0 0 0 0 0 0 0 0 0 0 0 0 0 0 0 0 0 0 0 0 0 0 0 0 0 0 0 0 0 0 0 0 0 0 0 0 0 0 0 0 0 0 0 0 0 0 0 0 0 0 0 0 0 0 0 0 0 0 0 0 0 0 0 0 0 0 0 0 0 0 0 0 0 0 0 0 0 0 0 0 0 0 0 0 0 0 0 0 0 0 0 0 0 0 0 0 0 0 0 0 0 0 0 -1.09819e-07 -4.39276e-07 -9.8837e-07 -1.7571e-06 -2.74547e-06 -3.95348e-06 -5.38113e-06 -7.02841e-06 -8.59642e-06 -9.78624e-06 -1.05979e-05 -1.10313e-05 -1.10866e-05 -1.07636e-05 -1.00625e-05 -8.98318e-06 -7.42766e-06 -5.29788e-06 -2.59387e-06 6.84381e-07 4.53688e-06 8.96361e-06 1.39646e-05 1.95398e-05 2.52679e-05 3.07273e-05 3.59182e-05 4.08404e-05 4.54941e-05 4.98792e-05 5.39957e-05 5.78436e-05 6.10711e-05 6.33264e-05 6.46094e-05 6.49201e-05 6.42586e-05 6.26249e-05 6.00189e-05 5.64407e-05 5.20927e-05 4.71776e-05 4.16953e-05 3.56459e-05 2.90293e-05 2.18455e-05 1.40945e-05 5.77636e-06 -2.40939e-06 -9.7632e-06 -1.62851e-05 -2.1975e-05 -2.6833e-05 -3.0859e-05 -3.40531e-05 -3.64152e-05 -3.73267e-05 -3.61687e-05 -3.29414e-05 -2.76447e-05 -2.02786e-05 -1.08431e-05 6.61867e-07 1.42362e-05 2.97514e-05 4.7079e-05 6.62189e-05 8.71712e-05 0.000109936 0.000134513 0.000160902 0.000189104 0.000218039 0.000246625 0.000274865 0.000302757 0.000330301 0.000357498 0.000384348 0.00041085 0.00043577 0.000457873 0.000477159 0.000493629 0.000507281 0.000518117 0.000526136 0.000531339 0.000533581 0.000532721 0.000528759 0.000521695 0.000511528 0.000498258 0.000481886 0.000462412 0.000440926 0.000418516 0.000395185 0.000370931 0.000345755 0.000319656 0.000292636 0.000264692 0.000237019 0.000210807 0.000186058 0.000162771 0.000140946 0.000120583 0.000101682 8.4243e-05 6.84434e-05 5.44603e-05 4.22935e-05 3.19432e-05 2.34093e-05 1.66917e-05 1.17906e-05 8.70595e-06 6.66549e-06 4.8971e-06 3.40076e-06 2.17649e-06 1.22427e-06 5.44122e-07 1.3603e-07 0 0 -4.39276e-07 -1.7571e-06 -3.95348e-06 -7.02841e-06 -1.09819e-05 -1.58139e-05 -2.15245e-05 -2.81136e-05 -3.43857e-05 -3.91449e-05 -4.23915e-05 -4.41252e-05 -4.43462e-05 -4.30545e-05 -4.025e-05 -3.59327e-05 -2.97106e-05 -2.11915e-05 -1.03755e-05 2.73752e-06 1.81475e-05 3.58544e-05 5.58584e-05 7.81592e-05 0.000101071 0.000122909 0.000143673 0.000163362 0.000181977 0.000199517 0.000215983 0.000231375 0.000244285 0.000253306 0.000258438 0.000259681 0.000257035 0.0002505 0.000240076 0.000225763 0.000208371 0.00018871 0.000166781 0.000142584 0.000116117 8.73819e-05 5.6378e-05 2.31054e-05 -9.63757e-06 -3.90528e-05 -6.51402e-05 -8.78999e-05 -0.000107332 -0.000123436 -0.000136212 -0.000145661 -0.000149307 -0.000144675 -0.000131766 -0.000110579 -8.11143e-05 -4.33722e-05 2.64747e-06 5.69447e-05 0.000119006 0.000188316 0.000264876 0.000348685 0.000439744 0.000538052 0.00064361 0.000756417 0.000872154 0.000986502 0.00109946 0.00121103 0.0013212 0.00142999 0.00153739 0.0016434 0.00174308 0.00183149 0.00190864 0.00197451 0.00202913 0.00207247 0.00210455 0.00212535 0.00213432 0.00213089 0.00211504 0.00208678 0.00204611 0.00199303 0.00192755 0.00184965 0.0017637 0.00167407 0.00158074 0.00148372 0.00138302 0.00127863 0.00117054 0.00105877 0.000948075 0.000843229 0.000744232 0.000651083 0.000563783 0.000482331 0.000406727 0.000336972 0.000273774 0.000217841 0.000169174 0.000127773 9.3637e-05 6.6767e-05 4.71626e-05 3.48238e-05 2.6662e-05 1.95884e-05 1.3603e-05 8.70595e-06 4.8971e-06 2.17649e-06 5.44122e-07 0 0 -9.8837e-07 -3.95348e-06 -8.89533e-06 -1.58139e-05 -2.47093e-05 -3.55813e-05 -4.84301e-05 -6.32557e-05 -7.73678e-05 -8.80761e-05 -9.53808e-05 -9.92818e-05 -9.9779e-05 -9.68726e-05 -9.05625e-05 -8.08487e-05 -6.68489e-05 -4.7681e-05 -2.33449e-05 6.15943e-06 4.08319e-05 8.06725e-05 0.000125681 0.000175858 0.000227411 0.000276546 0.000323264 0.000367564 0.000409447 0.000448913 0.000485962 0.000520593 0.00054964 0.000569937 0.000581484 0.000584281 0.000578328 0.000563624 0.00054017 0.000507966 0.000468835 0.000424599 0.000375258 0.000320813 0.000261263 0.000196609 0.00012685 5.19872e-05 -2.16845e-05 -8.78688e-05 -0.000146566 -0.000197775 -0.000241497 -0.000277731 -0.000306478 -0.000327737 -0.00033594 -0.000325519 -0.000296473 -0.000248802 -0.000182507 -9.75875e-05 5.9568e-06 0.000128126 0.000267762 0.000423711 0.00059597 0.000784541 0.000989423 0.00121062 0.00144812 0.00170194 0.00196235 0.00221963 0.00247378 0.00272481 0.00297271 0.00321748 0.00345913 0.00369765 0.00392193 0.00412085 0.00429443 0.00444266 0.00456553 0.00466305 0.00473523 0.00478205 0.00480223 0.00479449 0.00475883 0.00469525 0.00460375 0.00448432 0.00433698 0.00416171 0.00396833 0.00376665 0.00355667 0.00333838 0.0031118 0.00287691 0.00263372 0.00238223 0.00213317 0.00189727 0.00167452 0.00146494 0.00126851 0.00108524 0.000915137 0.000758187 0.000615991 0.000490142 0.000380642 0.000287489 0.000210683 0.000150226 0.000106116 7.83535e-05 5.99894e-05 4.40739e-05 3.06069e-05 1.95884e-05 1.10185e-05 4.8971e-06 1.22427e-06 0 0 -1.7571e-06 -7.02841e-06 -1.58139e-05 -2.81136e-05 -4.39276e-05 -6.32557e-05 -8.6098e-05 -0.000112455 -0.000137543 -0.00015658 -0.000169566 -0.000176501 -0.000177385 -0.000172218 -0.000161 -0.000143731 -0.000118842 -8.47662e-05 -4.1502e-05 1.09501e-05 7.259e-05 0.000143418 0.000223433 0.000312637 0.000404286 0.000491637 0.000574691 0.000653447 0.000727906 0.000798068 0.000863932 0.000925498 0.000977138 0.00101322 0.00103375 0.00103872 0.00102814 0.001002 0.000960303 0.000903051 0.000833484 0.000754842 0.000667125 0.000570334 0.000464468 0.000349527 0.000225512 9.24217e-05 -3.85503e-05 -0.000156211 -0.000260561 -0.0003516 -0.000429327 -0.000493744 -0.000544849 -0.000582643 -0.000597227 -0.0005787 -0.000527063 -0.000442315 -0.000324457 -0.000173489 1.05899e-05 0.000227779 0.000476022 0.000753263 0.0010595 0.00139474 0.00175898 0.00215221 0.00257444 0.00302567 0.00348862 0.00394601 0.00439784 0.00484411 0.00528482 0.00571997 0.00614956 0.0065736 0.00697231 0.00732596 0.00763455 0.00789806 0.0081165 0.00828988 0.00841818 0.00850142 0.0085373 0.00852354 0.00846015 0.00834712 0.00818444 0.00797213 0.00771018 0.0073986 0.00705481 0.00669626 0.00632296 0.0059349 0.00553208 0.0051145 0.00468217 0.00423508 0.0037923 0.00337292 0.00297693 0.00260433 0.00225513 0.00192932 0.00162691 0.00134789 0.0010951 0.000871364 0.000676696 0.000511091 0.000374548 0.000267068 0.00018865 0.000139295 0.000106648 7.83535e-05 5.44122e-05 3.48238e-05 1.95884e-05 8.70595e-06 2.17649e-06 0 0 -2.74547e-06 -1.09819e-05 -2.47093e-05 -4.39276e-05 -6.86368e-05 -9.8837e-05 -0.000134528 -0.00017571 -0.00021491 -0.000244656 -0.000264947 -0.000275783 -0.000277164 -0.000269091 -0.000251562 -0.00022458 -0.000185691 -0.000132447 -6.48468e-05 1.71095e-05 0.000113422 0.00022409 0.000349115 0.000488495 0.000631696 0.000768183 0.000897954 0.00102101 0.00113735 0.00124698 0.00134989 0.00144609 0.00152678 0.00158316 0.00161523 0.001623 0.00160647 0.00156562 0.00150047 0.00141102 0.00130232 0.00117944 0.00104238 0.000891147 0.000725731 0.000546137 0.000352362 0.000144409 -6.02348e-05 -0.00024408 -0.000407127 -0.000549374 -0.000670824 -0.000771475 -0.000851327 -0.00091038 -0.000933167 -0.000904219 -0.000823535 -0.000691117 -0.000506964 -0.000271076 1.65467e-05 0.000355905 0.000743785 0.00117697 0.00165547 0.00217928 0.0027484 0.00336283 0.00402256 0.00472761 0.00545096 0.00616564 0.00687162 0.00756892 0.00825753 0.00893745 0.00960869 0.0102712 0.0108942 0.0114468 0.011929 0.0123407 0.012682 0.0129529 0.0131534 0.0132835 0.0133395 0.013318 0.013219 0.0130424 0.0127882 0.0124565 0.0120472 0.0115603 0.0110231 0.0104629 0.00987963 0.00927328 0.00864388 0.00799141 0.00731589 0.00661731 0.00592547 0.00527018 0.00465145 0.00406927 0.00352364 0.00301457 0.00254205 0.00210608 0.00171109 0.00136151 0.00105734 0.00079858 0.000585232 0.000417294 0.000294766 0.000217649 0.000166637 0.000122427 8.5019e-05 5.44122e-05 3.06069e-05 1.3603e-05 3.40076e-06 0 0 -3.95348e-06 -1.58139e-05 -3.55813e-05 -6.32557e-05 -9.8837e-05 -0.000142325 -0.000193721 -0.000253023 -0.000309471 -0.000352305 -0.000381523 -0.000397127 -0.000399116 -0.00038749 -0.00036225 -0.000323395 -0.000267396 -0.000190724 -9.33794e-05 2.46377e-05 0.000163328 0.00032269 0.000502725 0.000703433 0.000909643 0.00110618 0.00129305 0.00147026 0.00163779 0.00179565 0.00194385 0.00208237 0.00219856 0.00227975 0.00232594 0.00233712 0.00231331 0.0022545 0.00216068 0.00203186 0.00187534 0.00169839 0.00150103 0.00128325 0.00104505 0.000786437 0.000507402 0.000207949 -8.67382e-05 -0.000351475 -0.000586262 -0.000791099 -0.000965986 -0.00111092 -0.00122591 -0.00131095 -0.00134376 -0.00130207 -0.00118589 -0.000995209 -0.000730029 -0.00039035 2.38272e-05 0.000512503 0.00107105 0.00169484 0.00238388 0.00313816 0.00395769 0.00484247 0.00579249 0.00680775 0.00784939 0.00887851 0.00989513 0.0108992 0.0118908 0.0128699 0.0138365 0.0147906 0.0156877 0.0164834 0.0171777 0.0177706 0.0182621 0.0186522 0.0189409 0.0191282 0.0192089 0.019178 0.0190353 0.018781 0.018415 0.0179373 0.0173479 0.0166468 0.0158733 0.0150666 0.0142267 0.0133535 0.0124472 0.0115076 0.0105349 0.00952892 0.00853267 0.00758906 0.00669809 0.00585975 0.00507405 0.00434098 0.00366055 0.00303275 0.00246396 0.00196057 0.00152257 0.00114995 0.000842733 0.000600903 0.000424463 0.000313414 0.000239958 0.000176295 0.000122427 7.83535e-05 4.40739e-05 1.95884e-05 4.8971e-06 0 0 -5.38113e-06 -2.15245e-05 -4.84301e-05 -8.6098e-05 -0.000134528 -0.000193721 -0.000263675 -0.000344392 -0.000421224 -0.000479526 -0.000519295 -0.000540534 -0.000543241 -0.000527418 -0.000493062 -0.000440176 -0.000363955 -0.000259596 -0.0001271 3.35347e-05 0.000222307 0.000439217 0.000684265 0.000957451 0.00123812 0.00150564 0.00175999 0.00200118 0.00222921 0.00244408 0.00264579 0.00283434 0.00299249 0.00310299 0.00316586 0.00318109 0.00314867 0.00306862 0.00294093 0.00276559 0.00255254 0.0023117 0.00204307 0.00174665 0.00142243 0.00107043 0.00069063 0.000283042 -0.00011806 -0.000478397 -0.000797968 -0.00107677 -0.00131481 -0.00151209 -0.0016686 -0.00178435 -0.00182901 -0.00177227 -0.00161413 -0.00135459 -0.00099365 -0.000531309 3.24315e-05 0.000697573 0.00145782 0.00230687 0.00324473 0.00427139 0.00538686 0.00659114 0.00788422 0.00926611 0.0106839 0.0120846 0.0134684 0.0148351 0.0161848 0.0175174 0.018833 0.0201316 0.0213527 0.0224358 0.0233808 0.0241878 0.0248568 0.0253877 0.0257807 0.0260356 0.0261455 0.0261034 0.0259092 0.025563 0.0250649 0.0244147 0.0236124 0.0226582 0.0216054 0.0205073 0.0193641 0.0181756 0.016942 0.0156632 0.0143391 0.0129699 0.0116139 0.0103296 0.00911685 0.00797577 0.00690634 0.00590855 0.00498241 0.00412791 0.00335373 0.00266855 0.00207238 0.00156522 0.00114705 0.000817896 0.000577741 0.000426591 0.000326609 0.000239958 0.000166637 0.000106648 5.99894e-05 2.6662e-05 6.66549e-06 0 0 -7.02841e-06 -2.81136e-05 -6.32557e-05 -0.000112455 -0.00017571 -0.000253023 -0.000344392 -0.000449818 -0.000550171 -0.000626319 -0.000678263 -0.000706004 -0.00070954 -0.000688872 -0.000644 -0.000574924 -0.00047537 -0.000339065 -0.000166008 4.38004e-05 0.00029036 0.000573671 0.000893734 0.00125055 0.00161714 0.00196655 0.00229876 0.00261379 0.00291162 0.00319227 0.00345573 0.00370199 0.00390855 0.00405289 0.004135 0.00415489 0.00411255 0.00400799 0.00384121 0.0036122 0.00333394 0.00301937 0.0026685 0.00228134 0.00185787 0.00139811 0.000902048 0.000369687 -0.000154201 -0.000624845 -0.00104224 -0.0014064 -0.00171731 -0.00197497 -0.0021794 -0.00233057 -0.00238891 -0.0023148 -0.00210825 -0.00176926 -0.00129783 -0.000693955 4.23595e-05 0.000911116 0.00190409 0.00301305 0.00423801 0.00557896 0.0070359 0.00860883 0.0102978 0.0121027 0.0139545 0.015784 0.0175913 0.0193764 0.0211393 0.0228799 0.0245982 0.0262944 0.0278893 0.0293039 0.0305382 0.0315922 0.032466 0.0331595 0.0336727 0.0340057 0.0341492 0.0340942 0.0338406 0.0333885 0.0327378 0.0318885 0.0308407 0.0295944 0.0282192 0.0267851 0.0252918 0.0237396 0.0221283 0.020458 0.0187287 0.0169403 0.0151692 0.0134917 0.0119077 0.0104173 0.00902053 0.0077173 0.00650764 0.00539155 0.00438038 0.00348546 0.00270679 0.00204436 0.00149819 0.00106827 0.000754601 0.000557181 0.000426591 0.000313414 0.000217649 0.000139295 7.83535e-05 3.48238e-05 8.70595e-06 0 0 -8.45617e-06 -3.38247e-05 -7.61056e-05 -0.000135299 -0.000211404 -0.000304422 -0.000414353 -0.000541195 -0.000660592 -0.000748184 -0.000803971 -0.000827954 -0.000820132 -0.000780506 -0.000709076 -0.00060584 -0.000463325 -0.000274055 -3.80305e-05 0.000244749 0.000574284 0.000950574 0.00137362 0.00184342 0.00232535 0.00278478 0.00322171 0.00363614 0.00402807 0.0043975 0.00474444 0.00506887 0.00534198 0.00553493 0.00564771 0.00568035 0.00563282 0.00550513 0.00529729 0.00500928 0.00465777 0.0042594 0.00381416 0.00332206 0.00278311 0.00219729 0.0015646 0.000885062 0.000215947 -0.000385449 -0.000919126 -0.00138509 -0.00178333 -0.00211385 -0.00237666 -0.00257174 -0.00264857 -0.00255661 -0.00229586 -0.00186631 -0.00126798 -0.000500846 0.000435076 0.00153979 0.00280277 0.00421349 0.00577194 0.00747813 0.00933206 0.0113337 0.0134831 0.0157803 0.0181371 0.0204655 0.0227656 0.0250373 0.0272805 0.0294954 0.031682 0.0338401 0.0358693 0.0376688 0.0392388 0.0405792 0.0416899 0.0425711 0.0432227 0.0436447 0.0438253 0.0437528 0.0434272 0.0428485 0.0420166 0.0409316 0.0395935 0.0380023 0.0362465 0.0344149 0.0325074 0.0305241 0.0284649 0.0263298 0.0241188 0.021832 0.0195664 0.0174192 0.0153905 0.0134801 0.0116882 0.0100147 0.00845962 0.00702295 0.00571975 0.00456509 0.00355897 0.0027014 0.00199237 0.00143188 0.00101993 0.000756529 0.000579218 0.000425548 0.000295519 0.000189132 0.000106387 4.72831e-05 1.18208e-05 0 0 -9.22526e-06 -3.6901e-05 -8.30273e-05 -0.000147604 -0.000230632 -0.000332109 -0.000452038 -0.000590417 -0.000716769 -0.000800617 -0.000841962 -0.000840803 -0.00079714 -0.000710973 -0.000582303 -0.000411128 -0.000189507 9.05043e-05 0.000428906 0.000825697 0.00128088 0.00179445 0.00236641 0.00299676 0.00364139 0.00425619 0.00484116 0.00539629 0.00592159 0.00641706 0.0068827 0.00731851 0.00768798 0.00795459 0.00811836 0.00817927 0.00813734 0.00799255 0.00774491 0.00739442 0.00696231 0.0064698 0.00591689 0.00530358 0.00462987 0.00389576 0.00310125 0.00224634 0.00140349 0.000645163 -2.86514e-05 -0.000617948 -0.00112273 -0.00154299 -0.00187874 -0.00212996 -0.00223312 -0.00212466 -0.00180456 -0.00127285 -0.000529507 0.000425458 0.00159205 0.00297026 0.00454678 0.00630827 0.00825474 0.0103862 0.0127026 0.015204 0.0178904 0.0207617 0.0237077 0.026618 0.0294926 0.0323315 0.0351347 0.0379022 0.040634 0.0433301 0.0458647 0.0481118 0.0500715 0.0517438 0.0531287 0.0542262 0.0550363 0.0555589 0.0557791 0.0556817 0.0552667 0.0545343 0.0534842 0.0521166 0.0504314 0.0484287 0.0462188 0.043912 0.0415083 0.0390078 0.0364103 0.033716 0.0309248 0.0280368 0.0251733 0.022456 0.0198849 0.0174599 0.015181 0.0130483 0.0110618 0.00922135 0.00754765 0.00606125 0.00476213 0.00365032 0.00272579 0.00198856 0.00143863 0.00107598 0.000823801 0.000605241 0.000420306 0.000268996 0.00015131 6.7249e-05 1.68123e-05 0 0 -9.33567e-06 -3.73427e-05 -8.4021e-05 -0.000149371 -0.000233392 -0.000336084 -0.000457448 -0.000597483 -0.000718703 -0.000783621 -0.000792237 -0.000744551 -0.000640563 -0.000480273 -0.000263681 9.21282e-06 0.000346086 0.000754615 0.0012348 0.00178664 0.00241014 0.00310529 0.0038721 0.00471057 0.00556527 0.00638078 0.00715711 0.00789425 0.00859219 0.00925095 0.00987053 0.0104509 0.0109466 0.0113119 0.0115469 0.0116517 0.0116261 0.0114702 0.0111841 0.0107676 0.0102476 0.00965057 0.00897668 0.00822587 0.00739816 0.00649353 0.00551198 0.00445353 0.00340844 0.00246699 0.00162918 0.000895014 0.000264489 -0.000262395 -0.000685638 -0.00100524 -0.00114255 -0.00101893 -0.000634361 1.11405e-05 0.00091758 0.00208496 0.00351327 0.00520253 0.0071361 0.00929739 0.0116864 0.0143031 0.0171475 0.0202196 0.0235195 0.027047 0.0306664 0.0342415 0.0377724 0.0412592 0.0447018 0.0481002 0.0514544 0.0547644 0.0578755 0.0606328 0.0630364 0.0650863 0.0667824 0.0681248 0.0691134 0.0697484 0.0700105 0.0698808 0.0693592 0.0684458 0.0671406 0.0654435 0.0633545 0.0608738 0.0581361 0.0552763 0.0522945 0.0491906 0.0459647 0.0426168 0.0391468 0.0355547 0.03199 0.0286021 0.025391 0.0223566 0.019499 0.0168181 0.0143141 0.0119868 0.00986409 0.00797393 0.00631628 0.00489112 0.00369847 0.00273833 0.00201068 0.00151555 0.00116034 0.000852495 0.00059201 0.000378887 0.000213124 9.47217e-05 2.36804e-05 0 0 -8.78741e-06 -3.51496e-05 -7.90866e-05 -0.000140598 -0.000219685 -0.000316347 -0.000430583 -0.000562394 -0.000666393 -0.000697193 -0.000654794 -0.000539197 -0.0003504 -8.84049e-05 0.000246789 0.000655183 0.00114345 0.00171828 0.00237965 0.00312759 0.00396207 0.00488311 0.0058907 0.00698485 0.00809699 0.00915856 0.0101696 0.01113 0.0120399 0.0128992 0.0137079 0.0144661 0.0151177 0.0156068 0.0159334 0.0160975 0.0160991 0.0159382 0.0156148 0.0151289 0.0145135 0.0138017 0.0129935 0.012089 0.011088 0.00999059 0.00879681 0.00750662 0.00623078 0.00508003 0.00405437 0.0031538 0.00237832 0.00172794 0.00120264 0.000802433 0.000623139 0.000760577 0.00121475 0.00198565 0.00307329 0.00447765 0.00619875 0.00823659 0.0105708 0.0131809 0.0160669 0.0192289 0.0226668 0.0263807 0.0303705 0.0346362 0.039013 0.0433359 0.0476051 0.0518203 0.0559817 0.0600893 0.0641431 0.068143 0.0719017 0.0752318 0.0781334 0.0806065 0.0826509 0.0842669 0.0854542 0.086213 0.0865195 0.0863501 0.0857046 0.0845832 0.0829857 0.0809123 0.0783628 0.0753374 0.0719983 0.0685078 0.0648659 0.0610726 0.057128 0.053032 0.0487846 0.0443858 0.0400165 0.0358574 0.0319087 0.0281702 0.024642 0.0213241 0.0182165 0.0153192 0.0126691 0.0103032 0.0082214 0.00642381 0.0049104 0.00368117 0.00273611 0.00207522 0.00158884 0.00116731 0.000810631 0.000518804 0.000291827 0.000129701 3.24252e-05 0 0 -7.58046e-06 -3.03219e-05 -6.82242e-05 -0.000121287 -0.000189512 -0.000272897 -0.000371443 -0.00048515 -0.00055984 -0.000541335 -0.000429636 -0.000224742 7.3347e-05 0.00046463 0.000949108 0.00152678 0.00220259 0.00298149 0.00386347 0.00484853 0.00593667 0.0071279 0.00842221 0.0098196 0.0112365 0.0125895 0.0138785 0.0151036 0.0162646 0.0173617 0.0183948 0.019364 0.0202014 0.0208394 0.0212779 0.0215169 0.0215564 0.0213965 0.0210371 0.0204782 0.0197602 0.0189232 0.0179675 0.0168928 0.0156993 0.014387 0.0129557 0.0114056 0.00987052 0.00848429 0.00724692 0.00615841 0.00521878 0.004428 0.0037861 0.00329305 0.00306395 0.00321385 0.00374276 0.00465068 0.00593761 0.00760354 0.00964849 0.0120724 0.0148507 0.0179587 0.0213963 0.0251635 0.0292605 0.0336871 0.0384433 0.0435292 0.0487476 0.0539014 0.0589905 0.0640149 0.0689746 0.0738697 0.0787001 0.0834658 0.0879433 0.0919089 0.0953626 0.0983044 0.100734 0.102652 0.104059 0.104953 0.105306 0.10509 0.104303 0.102946 0.10102 0.0985229 0.0954563 0.0918196 0.0878055 0.0836065 0.0792226 0.0746539 0.0699002 0.0649617 0.0598383 0.0545301 0.0492527 0.044222 0.0394381 0.0349008 0.0306102 0.0265663 0.0227691 0.0192186 0.0159626 0.0130489 0.0104775 0.00824839 0.00636159 0.00481709 0.00361489 0.00275499 0.00210929 0.00154968 0.00107617 0.000688748 0.000387421 0.000172187 4.30467e-05 0 0 -5.71484e-06 -2.28594e-05 -5.14336e-05 -9.14375e-05 -0.000142871 -0.000205734 -0.000280027 -0.00036575 -0.000399043 -0.000316046 -0.00011676 0.000198815 0.000630679 0.00117883 0.00184328 0.00262401 0.00352351 0.00454425 0.00568624 0.00694947 0.00833394 0.00983966 0.0114666 0.0132148 0.0149839 0.0166737 0.018284 0.0198149 0.0212665 0.0226386 0.0239313 0.0251447 0.0261977 0.0270096 0.0275802 0.0279097 0.0279979 0.027845 0.0274509 0.0268156 0.0259875 0.0250151 0.0238985 0.0226375 0.0212322 0.0196826 0.0179887 0.0161505 0.0143277 0.0126798 0.0112068 0.00990885 0.00878585 0.00783781 0.00706473 0.00646662 0.00617988 0.0063409 0.00694968 0.00800623 0.00951055 0.0114626 0.0138625 0.0167101 0.019976 0.0236308 0.0276745 0.0321071 0.0369285 0.0421388 0.047738 0.0537261 0.0598703 0.0659378 0.0719287 0.0778429 0.0836804 0.0894412 0.0951254 0.100733 0.106 0.110664 0.114724 0.11818 0.121033 0.123281 0.124927 0.125968 0.126371 0.126099 0.125154 0.123535 0.121242 0.118276 0.114635 0.11032 0.105558 0.100572 0.0953646 0.0899342 0.0842814 0.0784059 0.072308 0.0659875 0.0596987 0.0536959 0.0479791 0.0425483 0.0374035 0.0325447 0.0279719 0.0236851 0.0197447 0.0162112 0.0130846 0.0103649 0.00805203 0.00614609 0.00464704 0.00355487 0.0027217 0.00199962 0.00138862 0.000888718 0.000499904 0.00022218 5.55449e-05 0 0 -3.19055e-06 -1.27622e-05 -2.87149e-05 -5.10488e-05 -7.97637e-05 -0.00011486 -0.000156337 -0.000204195 -0.000184002 -2.13269e-05 0.000283831 0.000731472 0.0013216 0.0020542 0.00292929 0.00394686 0.0051062 0.00640656 0.00784797 0.0094304 0.0111539 0.0130184 0.0150239 0.0171705 0.0193392 0.021411 0.023386 0.0252641 0.0270454 0.0287298 0.0303174 0.0318081 0.0331066 0.0341174 0.0348405 0.035276 0.0354237 0.0352838 0.0348563 0.034141 0.0331956 0.0320774 0.0307865 0.0293229 0.0276866 0.0258776 0.0238958 0.0217413 0.0196022 0.0176664 0.0159341 0.0144051 0.0130795 0.0119573 0.0110385 0.0103231 0.00997092 0.0101417 0.0108355 0.0120523 0.0137921 0.0160549 0.0188407 0.0221495 0.0259466 0.0301973 0.0349016 0.0400595 0.0456709 0.051736 0.0582546 0.0652269 0.072381 0.0794452 0.0864197 0.0933043 0.100099 0.106804 0.113419 0.119944 0.126073 0.131497 0.136217 0.140234 0.143546 0.146154 0.148058 0.149258 0.149713 0.149379 0.148258 0.14635 0.143654 0.14017 0.135899 0.13084 0.125255 0.119406 0.113292 0.106914 0.100271 0.0933646 0.0861935 0.078758 0.0713544 0.064279 0.0575318 0.0511128 0.0450219 0.0392593 0.0338248 0.0287185 0.0240153 0.01979 0.0160426 0.0127732 0.00998171 0.00766816 0.00583254 0.00447486 0.00342607 0.00251711 0.00174799 0.00111872 0.000629277 0.000279679 6.99197e-05 0 0 -7.57402e-09 -3.02961e-08 -6.81662e-08 -1.21184e-07 -1.89351e-07 -2.72665e-07 -3.71127e-07 -4.84737e-07 8.52816e-05 0.000342823 0.00077214 0.00137323 0.0021461 0.00309074 0.00420716 0.00549535 0.00695066 0.00856843 0.0103487 0.0122913 0.0143965 0.0166641 0.0190941 0.0216867 0.0243023 0.0268015 0.0291845 0.0314511 0.0336014 0.0356353 0.037553 0.0393543 0.040928 0.0421628 0.0430587 0.0436157 0.0438338 0.0437129 0.0432532 0.0424545 0.0413843 0.04011 0.0386317 0.0369492 0.0350625 0.0329718 0.030677 0.0281781 0.0256941 0.0234443 0.0214287 0.0196472 0.0180998 0.0167866 0.0157075 0.0148626 0.0144371 0.0146163 0.0154002 0.0167889 0.0187823 0.0213804 0.0245832 0.0283908 0.0327626 0.0376582 0.0430776 0.0490208 0.0554877 0.0624785 0.0699931 0.0780315 0.0862796 0.0944236 0.102463 0.110399 0.118231 0.125958 0.133581 0.1411 0.14816 0.154408 0.159843 0.164465 0.168274 0.17127 0.173453 0.174824 0.175332 0.174929 0.173615 0.17139 0.168254 0.164206 0.159248 0.153378 0.146897 0.140106 0.133004 0.125593 0.11787 0.109838 0.101495 0.0928417 0.0842199 0.0759714 0.0680962 0.0605942 0.0534655 0.04671 0.0403279 0.034319 0.0287744 0.0237853 0.0193517 0.0154734 0.0121507 0.00938332 0.00717142 0.00551496 0.00422239 0.00310216 0.00215428 0.00137874 0.000775541 0.000344685 8.61712e-05 0 0 4.41454e-06 1.76582e-05 3.97309e-05 7.06326e-05 0.000110363 0.000158923 0.000216312 0.000282531 0.00045578 0.000834262 0.00141798 0.00220692 0.00320111 0.00440052 0.00580517 0.00741505 0.00922027 0.0112109 0.0133871 0.0157487 0.0182957 0.0210282 0.0239461 0.0270495 0.0301764 0.0331648 0.0360148 0.0387263 0.0412993 0.0437339 0.0460301 0.0481877 0.0500783 0.0515731 0.052672 0.0533752 0.0536826 0.0535942 0.05311 0.0522301 0.0510325 0.0495954 0.0479189 0.0460029 0.0438474 0.0414525 0.0388181 0.0359443 0.0330837 0.0304892 0.0281606 0.026098 0.0243015 0.0227709 0.0215064 0.0205078 0.019988 0.0201595 0.0210224 0.0225766 0.0248222 0.0277592 0.0313875 0.0357072 0.0406716 0.0462341 0.0523946 0.0591531 0.0665098 0.0744645 0.0830172 0.092168 0.101558 0.110829 0.119981 0.129013 0.137926 0.14672 0.155395 0.16395 0.171983 0.179088 0.185267 0.190519 0.194845 0.198243 0.200715 0.202261 0.202822 0.202342 0.20082 0.198258 0.194654 0.190009 0.184323 0.177596 0.170168 0.16238 0.154231 0.145722 0.136852 0.127622 0.118032 0.108081 0.0981602 0.0886585 0.0795763 0.0709134 0.06267 0.054846 0.0474414 0.0404562 0.0339999 0.0281818 0.023002 0.0184605 0.0145573 0.0112923 0.00866558 0.00667716 0.0051122 0.0037559 0.00260826 0.00166929 0.000938975 0.000417322 0.000104331 0 0 1.06563e-05 4.2625e-05 9.59063e-05 0.0001705 0.000266406 0.000383625 0.000522157 0.000682001 0.000974462 0.00151085 0.00229115 0.00331539 0.00458354 0.00609562 0.00785162 0.00985154 0.0120784 0.0145152 0.017162 0.0200187 0.0230854 0.0263621 0.0298487 0.0335452 0.0372648 0.0408205 0.0442123 0.0474402 0.0505042 0.0534043 0.0561405 0.0587129 0.0609736 0.0627752 0.0641176 0.0650008 0.0654248 0.0653897 0.0648953 0.0639417 0.0626187 0.0610158 0.0591333 0.0569709 0.0545288 0.0518069 0.0488052 0.0455237 0.0422513 0.0392766 0.0365997 0.0342206 0.0321392 0.0303556 0.0288697 0.0276817 0.0270332 0.0271661 0.0280803 0.029776 0.032253 0.0355113 0.0395511 0.0443722 0.0499215 0.0561457 0.0630448 0.0706189 0.0788679 0.0877918 0.0973907 0.107664 0.118208 0.128618 0.138892 0.149032 0.159038 0.168908 0.178644 0.188246 0.197259 0.205229 0.212157 0.218044 0.222887 0.226689 0.229448 0.231165 0.231774 0.231208 0.229468 0.226554 0.222466 0.217204 0.210768 0.203157 0.194752 0.185933 0.1767 0.167052 0.15699 0.146514 0.135624 0.124319 0.11304 0.102226 0.0918762 0.0819914 0.0725713 0.0636161 0.0551256 0.0471 0.0396694 0.032964 0.026984 0.0217293 0.0171999 0.0133958 0.010317 0.00796346 0.00609703 0.00447945 0.00311073 0.00199087 0.00111986 0.000497716 0.000124429 0 0 1.87176e-05 7.48703e-05 0.000168458 0.000299481 0.00046794 0.000673833 0.000917162 0.00119793 0.00164133 0.00237258 0.00339167 0.00469861 0.0062934 0.00817603 0.0103465 0.0128048 0.0155251 0.0184813 0.0216734 0.0251016 0.0287657 0.0326658 0.0368018 0.0411738 0.0455675 0.0497686 0.053777 0.0575928 0.061216 0.0646465 0.0678844 0.0709297 0.0736141 0.0757694 0.0773955 0.0784925 0.0790605 0.0790992 0.0786089 0.0775895 0.0761429 0.0743714 0.0722748 0.0698531 0.0671065 0.0640348 0.0606381 0.0569163 0.0531968 0.0498067 0.046746 0.0440147 0.0416129 0.0395406 0.0377976 0.0363841 0.0355727 0.0356361 0.0365741 0.038387 0.0410746 0.0446369 0.049074 0.0543858 0.0605122 0.067393 0.0750283 0.083418 0.0925621 0.102461 0.113114 0.124521 0.13623 0.147789 0.159198 0.170456 0.181564 0.192522 0.203329 0.213986 0.223988 0.23283 0.240513 0.247037 0.252401 0.256606 0.259651 0.261537 0.262188 0.261528 0.259559 0.25628 0.25169 0.24579 0.23858 0.23006 0.220649 0.210766 0.200411 0.189584 0.178285 0.166514 0.154271 0.141556 0.12886 0.116673 0.104996 0.0938281 0.0831695 0.0730204 0.0633806 0.0542503 0.0457829 0.0381321 0.0312977 0.0252799 0.0200786 0.0156938 0.0121256 0.00937387 0.00717687 0.0052728 0.00366167 0.00234347 0.0013182 0.000585867 0.000146467 0 0 2.85985e-05 0.000114394 0.000257387 0.000457576 0.000714963 0.00102955 0.00140133 0.0018303 0.00245638 0.00341946 0.00471953 0.00635661 0.00833069 0.0106418 0.0132898 0.0162749 0.0195602 0.0231091 0.0269214 0.0309972 0.0353365 0.0399393 0.0448055 0.0499353 0.0550845 0.060009 0.0647089 0.0691841 0.0734346 0.0774605 0.0812617 0.0848382 0.0879996 0.0905554 0.0925057 0.0938503 0.0945894 0.094723 0.0942509 0.0931733 0.0916052 0.0896619 0.0873434 0.0846496 0.0815806 0.0781363 0.0743168 0.0701221 0.0659202 0.0620793 0.0585995 0.0554806 0.0527227 0.0503259 0.04829 0.0466152 0.0456066 0.0455694 0.0465038 0.0484097 0.051287 0.0551359 0.0599562 0.065748 0.0724438 0.0799761 0.088345 0.0975504 0.107592 0.118471 0.130186 0.142737 0.155624 0.168344 0.180898 0.193285 0.205506 0.217561 0.229449 0.241171 0.252171 0.261892 0.270335 0.2775 0.283386 0.287994 0.291324 0.293376 0.294064 0.293303 0.291093 0.287433 0.282325 0.275768 0.267761 0.258306 0.247859 0.236878 0.225365 0.213317 0.200736 0.187621 0.173973 0.159792 0.14562 0.132001 0.118936 0.106423 0.0944645 0.0830588 0.0722064 0.0619072 0.0523405 0.0436858 0.0359431 0.0291123 0.0231934 0.0181864 0.0140914 0.0109084 0.00835173 0.00613596 0.00426109 0.0027271 0.00153399 0.000681774 0.000170443 0 0 4.0299e-05 0.000161196 0.000362691 0.000644785 0.00100748 0.00145077 0.00197465 0.00257914 0.00341962 0.00465148 0.00627474 0.00828937 0.0106954 0.0134928 0.0166816 0.0202618 0.0241839 0.0283986 0.0329058 0.0377055 0.0427978 0.0481826 0.0538599 0.0598297 0.0658158 0.0715419 0.077008 0.082214 0.0871601 0.0918462 0.0962723 0.100438 0.10413 0.107133 0.109448 0.111074 0.112012 0.112261 0.111821 0.110693 0.109006 0.106888 0.104339 0.10136 0.0979511 0.0941115 0.0898415 0.085141 0.0804216 0.0760946 0.0721602 0.0686182 0.0654686 0.0627115 0.060347 0.0583748 0.0571347 0.0569662 0.0578693 0.059844 0.0628903 0.0670082 0.0721977 0.0784587 0.0857162 0.093895 0.102995 0.113016 0.123959 0.135823 0.148608 0.162314 0.176389 0.190282 0.203992 0.217519 0.230864 0.244026 0.257005 0.269801 0.281807 0.292414 0.301622 0.309432 0.315843 0.320855 0.324468 0.326683 0.327402 0.326531 0.324069 0.320016 0.314372 0.307137 0.298311 0.287894 0.276382 0.264271 0.251561 0.238252 0.224344 0.209837 0.194731 0.179025 0.163319 0.148209 0.133695 0.119778 0.106456 0.0937315 0.0816029 0.0700706 0.0593422 0.0496254 0.0409201 0.0332264 0.0265442 0.0208736 0.0162145 0.012567 0.00962161 0.00706894 0.00490898 0.00314175 0.00176723 0.000785437 0.000196359 0 0 5.38192e-05 0.000215277 0.000484373 0.000861107 0.00134548 0.00193749 0.00263714 0.00344443 0.00453104 0.00606865 0.00805728 0.0104969 0.0133875 0.0167292 0.0205218 0.0247655 0.0293962 0.0343499 0.0396268 0.0452267 0.0511496 0.0573957 0.0639648 0.070857 0.0777613 0.0843671 0.0906742 0.0966827 0.102393 0.107804 0.112916 0.11773 0.122006 0.125503 0.128223 0.130164 0.131328 0.131713 0.13132 0.130149 0.128344 0.126048 0.123262 0.119985 0.116218 0.11196 0.107212 0.101973 0.0967009 0.0918526 0.087428 0.0834274 0.0798505 0.0766975 0.0739684 0.0716631 0.0701572 0.0698265 0.0706707 0.0726901 0.0758845 0.080254 0.0857985 0.0925181 0.10033 0.10915 0.118978 0.129815 0.