<?xml version="1.0"?> 
<VTKFile type="StructuredGrid" version="0.1"> 
<StructuredGrid WholeExtent="0 128 0 128 0 0"> 
<Piece Extent="0 128 0 128 0 0"> 
<PointData>
<DataArray type="Float32" Name="u" format="ascii" NumberOfComponents="1"> 
0 0 0 0 0 0 0 0 0 0 0 0 0 0 0 0 0 0 0 0 0 0 0 0 0 0 0 0 0 0 0 0 0 0 0 0 0 0 0 0 0 0 0 0 0 0 0 0 0 0 0 0 0 0 0 0 0 0 0 0 0 0 0 0 0 0 0 0 0 0 0 0 0 0 0 0 0 0 0 0 0 0 0 0 0 0 0 0 0 0 0 0 0 0 0 0 0 0 0 0 0 0 0 0 0 0 0 0 0 0 0 0 0 0 0 0 0 0 0 0 0 0 0 0 0 0 0 0 0 0 4.1405e-08 1.6562e-07 3.72645e-07 6.6248e-07 1.03512e-06 1.49058e-06 2.02884e-06 2.64992e-06 2.85762e-06 2.15575e-06 5.44329e-07 -1.97666e-06 -5.40721e-06 -9.74732e-06 -1.4997e-05 -2.11562e-05 -2.81712e-05 -3.59883e-05 -4.46073e-05 -5.40283e-05 -6.42514e-05 -7.52764e-05 -8.71034e-05 -9.97325e-05 -0.000112587 -0.000125091 -0.000137245 -0.000149047 -0.000160499 -0.000171601 -0.000182352 -0.000192752 -0.000202234 -0.000210233 -0.000216747 -0.000221776 -0.000225321 -0.000227382 -0.000227959 -0.000227051 -0.000224895 -0.000221724 -0.00021754 -0.000212343 -0.000206131 -0.000198906 -0.000190667 -0.000181414 -0.000172094 -0.000163652 -0.000156088 -0.000149402 -0.000143594 -0.000138665 -0.000134614 -0.00013144 -0.000129051 -0.000127353 -0.000126345 -0.000126028 -0.0001264 -0.000127464 -0.000129218 -0.000131662 -0.000134665 -0.000138096 -0.000141955 -0.000146242 -0.000150957 -0.000156099 -0.000161669 -0.000167667 -0.000174294 -0.000181752 -0.000190041 -0.000199161 -0.000209111 -0.000219892 -0.000231504 -0.000243947 -0.000255998 -0.000266436 -0.00027526 -0.00028247 -0.000288067 -0.00029205 -0.00029442 -0.000295175 -0.000294404 -0.000292191 -0.000288536 -0.00028344 -0.000276903 -0.000268925 -0.000259505 -0.000248643 -0.000237422 -0.000226922 -0.000217143 -0.000208085 -0.000199748 -0.000192133 -0.000185239 -0.000179066 -0.000172969 -0.000166305 -0.000159072 -0.000151272 -0.000142904 -0.000133968 -0.000124464 -0.000114392 -0.000104113 -9.39886e-05 -8.40185e-05 -7.42029e-05 -6.45416e-05 -5.50347e-05 -4.56821e-05 -3.64839e-05 -2.7933e-05 -2.05222e-05 -1.42515e-05 -9.12099e-06 -5.13055e-06 -2.28025e-06 -5.70062e-07 0 0 1.6562e-07 6.6248e-07 1.49058e-06 2.64992e-06 4.1405e-06 5.96232e-06 8.11538e-06 1.05997e-05 1.14305e-05 8.62302e-06 2.17732e-06 -7.90663e-06 -2.16288e-05 -3.89893e-05 -5.9988e-05 -8.46249e-05 -0.000112685 -0.000143953 -0.000178429 -0.000216113 -0.000257005 -0.000301106 -0.000348414 -0.00039893 -0.000450349 -0.000500365 -0.000548979 -0.00059619 -0.000641998 -0.000686404 -0.000729407 -0.000771007 -0.000808937 -0.00084093 -0.000866986 -0.000887105 -0.000901286 -0.00090953 -0.000911836 -0.000908206 -0.000899579 -0.000886898 -0.000870161 -0.00084937 -0.000824524 -0.000795624 -0.000762668 -0.000725658 -0.000688376 -0.000654608 -0.000624352 -0.000597608 -0.000574378 -0.00055466 -0.000538454 -0.000525761 -0.000516206 -0.000509412 -0.00050538 -0.00050411 -0.000505602 -0.000509855 -0.00051687 -0.000526648 -0.000538661 -0.000552386 -0.000567822 -0.000584969 -0.000603827 -0.000624396 -0.000646676 -0.000670668 -0.000697177 -0.000727009 -0.000760164 -0.000796642 -0.000836444 -0.000879568 -0.000926016 -0.000975788 -0.00102399 -0.00106574 -0.00110104 -0.00112988 -0.00115227 -0.0011682 -0.00117768 -0.0011807 -0.00117761 -0.00116876 -0.00115414 -0.00113376 -0.00110761 -0.0010757 -0.00103802 -0.000994573 -0.000949688 -0.000907687 -0.000868571 -0.00083234 -0.000798993 -0.000768531 -0.000740954 -0.000716262 -0.000691876 -0.000665219 -0.00063629 -0.000605089 -0.000571616 -0.000535871 -0.000497855 -0.000457567 -0.000416452 -0.000375954 -0.000336074 -0.000296812 -0.000258166 -0.000220139 -0.000182728 -0.000145936 -0.000111732 -8.20889e-05 -5.70062e-05 -3.64839e-05 -2.05222e-05 -9.12099e-06 -2.28025e-06 0 0 3.72645e-07 1.49058e-06 3.3538e-06 5.96232e-06 9.31612e-06 1.34152e-05 1.82596e-05 2.38493e-05 2.57186e-05 1.94018e-05 4.89896e-06 -1.77899e-05 -4.86649e-05 -8.77259e-05 -0.000134973 -0.000190406 -0.000253541 -0.000323894 -0.000401466 -0.000486255 -0.000578262 -0.000677488 -0.000783931 -0.000897592 -0.00101328 -0.00112582 -0.0012352 -0.00134143 -0.0014445 -0.00154441 -0.00164116 -0.00173477 -0.00182011 -0.00189209 -0.00195072 -0.00199599 -0.00202789 -0.00204644 -0.00205163 -0.00204346 -0.00202405 -0.00199552 -0.00195786 -0.00191108 -0.00185518 -0.00179015 -0.001716 -0.00163273 -0.00154885 -0.00147287 -0.00140479 -0.00134462 -0.00129235 -0.00124798 -0.00121152 -0.00118296 -0.00116146 -0.00114618 -0.00113711 -0.00113425 -0.0011376 -0.00114717 -0.00116296 -0.00118496 -0.00121199 -0.00124287 -0.0012776 -0.00131618 -0.00135861 -0.00140489 -0.00145502 -0.001509 -0.00156865 -0.00163577 -0.00171037 -0.00179244 -0.001882 -0.00197903 -0.00208354 -0.00219552 -0.00230398 -0.00239792 -0.00247734 -0.00254223 -0.0025926 -0.00262845 -0.00264978 -0.00265658 -0.00264963 -0.00262972 -0.00259683 -0.00255096 -0.00249213 -0.00242032 -0.00233554 -0.00223779 -0.0021368 -0.0020423 -0.00195428 -0.00187276 -0.00179773 -0.0017292 -0.00166715 -0.00161159 -0.00155672 -0.00149674 -0.00143165 -0.00136145 -0.00128614 -0.00120571 -0.00112017 -0.00102953 -0.000937017 -0.000845897 -0.000756167 -0.000667826 -0.000580874 -0.000495312 -0.000411139 -0.000328356 -0.000251397 -0.0001847 -0.000128264 -8.20889e-05 -4.6175e-05 -2.05222e-05 -5.13055e-06 0 0 6.6248e-07 2.64992e-06 5.96232e-06 1.05997e-05 1.6562e-05 2.38493e-05 3.24615e-05 4.23987e-05 4.57219e-05 3.44921e-05 8.70927e-06 -3.16265e-05 -8.65153e-05 -0.000155957 -0.000239952 -0.0003385 -0.00045074 -0.000575812 -0.000713717 -0.000864453 -0.00102802 -0.00120442 -0.00139366 -0.00159572 -0.0018014 -0.00200146 -0.00219591 -0.00238476 -0.00256799 -0.00274561 -0.00291763 -0.00308403 -0.00323575 -0.00336372 -0.00346794 -0.00354842 -0.00360514 -0.00363812 -0.00364735 -0.00363282 -0.00359832 -0.00354759 -0.00348064 -0.00339748 -0.0032981 -0.00318249 -0.00305067 -0.00290263 -0.00275351 -0.00261843 -0.00249741 -0.00239043 -0.00229751 -0.00221864 -0.00215382 -0.00210305 -0.00206482 -0.00203765 -0.00202152 -0.00201644 -0.00202241 -0.00203942 -0.00206748 -0.00210659 -0.00215464 -0.00220954 -0.00227129 -0.00233987 -0.00241531 -0.00249758 -0.00258671 -0.00268267 -0.00278871 -0.00290803 -0.00304066 -0.00318657 -0.00334577 -0.00351827 -0.00370407 -0.00390315 -0.00409597 -0.00426298 -0.00440416 -0.00451953 -0.00460907 -0.0046728 -0.00471072 -0.00472281 -0.00471046 -0.00467505 -0.00461658 -0.00453505 -0.00443045 -0.00430279 -0.00415207 -0.00397829 -0.00379875 -0.00363075 -0.00347428 -0.00332936 -0.00319597 -0.00307413 -0.00296382 -0.00286505 -0.00276751 -0.00266088 -0.00254516 -0.00242035 -0.00228646 -0.00214349 -0.00199142 -0.00183027 -0.00166581 -0.00150382 -0.0013443 -0.00118725 -0.00103267 -0.000880555 -0.000730914 -0.000583743 -0.000446928 -0.000328356 -0.000228025 -0.000145936 -8.20889e-05 -3.64839e-05 -9.12099e-06 0 0 1.03512e-06 4.1405e-06 9.31612e-06 1.6562e-05 2.58781e-05 3.72645e-05 5.07211e-05 6.6248e-05 7.14405e-05 5.38939e-05 1.36082e-05 -4.94165e-05 -0.00013518 -0.000243683 -0.000374925 -0.000528906 -0.000704281 -0.000899707 -0.00111518 -0.00135071 -0.00160628 -0.00188191 -0.00217759 -0.00249331 -0.00281468 -0.00312728 -0.00343112 -0.00372618 -0.00401249 -0.00429002 -0.00455879 -0.00481879 -0.00505586 -0.00525582 -0.00541866 -0.0055444 -0.00563304 -0.00568456 -0.00569898 -0.00567629 -0.00562237 -0.00554311 -0.00543851 -0.00530856 -0.00515328 -0.00497265 -0.00476668 -0.00453536 -0.00430235 -0.0040913 -0.0039022 -0.00373505 -0.00358986 -0.00346662 -0.00336534 -0.00328601 -0.00322629 -0.00318383 -0.00315863 -0.00315069 -0.00316001 -0.0031866 -0.00323044 -0.00329155 -0.00336663 -0.00345241 -0.00354888 -0.00365605 -0.00377392 -0.00390247 -0.00404173 -0.00419167 -0.00435735 -0.0045438 -0.00475102 -0.00497901 -0.00522777 -0.0054973 -0.0057876 -0.00609867 -0.00639996 -0.0066609 -0.0068815 -0.00706176 -0.00720168 -0.00730126 -0.00736049 -0.00737939 -0.00736009 -0.00730477 -0.0072134 -0.00708601 -0.00692258 -0.00672311 -0.00648762 -0.00621608 -0.00593555 -0.00567304 -0.00542857 -0.00520212 -0.00499371 -0.00480332 -0.00463097 -0.00447664 -0.00432423 -0.00415762 -0.00397681 -0.0037818 -0.0035726 -0.0033492 -0.00311159 -0.00285979 -0.00260282 -0.00234971 -0.00210046 -0.00185507 -0.00161354 -0.00137587 -0.00114205 -0.000912099 -0.000698326 -0.000513055 -0.000356289 -0.000228025 -0.000128264 -5.70062e-05 -1.42515e-05 0 0 1.49058e-06 5.96232e-06 1.34152e-05 2.38493e-05 3.72645e-05 5.36609e-05 7.30384e-05 9.53971e-05 0.000102874 7.76072e-05 1.95958e-05 -7.11597e-05 -0.000194659 -0.000350904 -0.000539892 -0.000761624 -0.00101416 -0.00129558 -0.00160586 -0.00194502 -0.00231305 -0.00270995 -0.00313572 -0.00359037 -0.00405314 -0.00450329 -0.00494081 -0.00536571 -0.00577798 -0.00617763 -0.00656466 -0.00693906 -0.00728044 -0.00756837 -0.00780288 -0.00798394 -0.00811157 -0.00818577 -0.00820653 -0.00817385 -0.00809621 -0.00798208 -0.00783145 -0.00764433 -0.00742072 -0.00716061 -0.00686401 -0.00653092 -0.00619539 -0.00589147 -0.00561916 -0.00537847 -0.0051694 -0.00499194 -0.00484609 -0.00473185 -0.00464585 -0.00458471 -0.00454842 -0.00453699 -0.00455042 -0.0045887 -0.00465183 -0.00473983 -0.00484795 -0.00497147 -0.00511039 -0.00526472 -0.00543444 -0.00561956 -0.00582009 -0.00603601 -0.00627459 -0.00654308 -0.00684147 -0.00716978 -0.00752799 -0.00791612 -0.00833415 -0.00878209 -0.00921594 -0.0095917 -0.00990936 -0.0101689 -0.0103704 -0.0105138 -0.0105991 -0.0106263 -0.0105985 -0.0105189 -0.0103873 -0.0102039 -0.00996851 -0.00968128 -0.00934217 -0.00895116 -0.00854719 -0.00816918 -0.00781714 -0.00749106 -0.00719094 -0.00691678 -0.00666859 -0.00644636 -0.00622689 -0.00598697 -0.00572661 -0.0054458 -0.00514454 -0.00482284 -0.0044807 -0.0041181 -0.00374807 -0.00338359 -0.00302467 -0.0026713 -0.0023235 -0.00198125 -0.00164456 -0.00131342 -0.00100559 -0.0007388 -0.000513055 -0.000328356 -0.0001847 -8.20889e-05 -2.05222e-05 0 0 2.02884e-06 8.11538e-06 1.82596e-05 3.24615e-05 5.07211e-05 7.30384e-05 9.94134e-05 0.000129846 0.000140023 0.000105632 2.66721e-05 -9.68563e-05 -0.000264953 -0.000477619 -0.000734853 -0.00103666 -0.00138039 -0.00176343 -0.00218576 -0.00264739 -0.00314832 -0.00368854 -0.00426807 -0.00488689 -0.00551677 -0.00612947 -0.00672499 -0.00730332 -0.00786447 -0.00840844 -0.00893523 -0.00944483 -0.00990948 -0.0103014 -0.0106206 -0.010867 -0.0110408 -0.0111417 -0.01117 -0.0111255 -0.0110198 -0.0108645 -0.0106595 -0.0104048 -0.0101004 -0.00974639 -0.00934268 -0.00888931 -0.00843261 -0.00801894 -0.00764831 -0.0073207 -0.00703613 -0.00679458 -0.00659606 -0.00644058 -0.00632352 -0.0062403 -0.00619091 -0.00617535 -0.00619362 -0.00624573 -0.00633166 -0.00645143 -0.0065986 -0.00676673 -0.00695581 -0.00716586 -0.00739688 -0.00764885 -0.00792179 -0.00821568 -0.00854041 -0.00890586 -0.00931201 -0.00975887 -0.0102464 -0.0107747 -0.0113437 -0.0119534 -0.0125439 -0.0130554 -0.0134877 -0.0138411 -0.0141153 -0.0143105 -0.0144266 -0.0144636 -0.0144258 -0.0143173 -0.0141383 -0.0138886 -0.0135683 -0.0131773 -0.0127157 -0.0121835 -0.0116337 -0.0111192 -0.01064 -0.0101962 -0.00978767 -0.00941451 -0.00907669 -0.00877421 -0.00847549 -0.00814893 -0.00779455 -0.00741234 -0.0070023 -0.00656442 -0.00609873 -0.0056052 -0.00510154 -0.00460544 -0.00411691 -0.00363594 -0.00316254 -0.0026967 -0.00223842 -0.00178771 -0.00136872 -0.00100559 -0.000698326 -0.000446928 -0.000251397 -0.000111732 -2.7933e-05 0 0 2.64992e-06 1.05997e-05 2.38493e-05 4.23987e-05 6.6248e-05 9.53971e-05 0.000129846 0.000169595 0.000182888 0.000137968 3.48371e-05 -0.000126506 -0.000346061 -0.000623828 -0.000959808 -0.001354 -0.00180296 -0.00230325 -0.00285487 -0.00345781 -0.00411209 -0.00481769 -0.00557462 -0.00638288 -0.00720558 -0.00800584 -0.00878366 -0.00953903 -0.010272 -0.0109825 -0.0116705 -0.0123361 -0.012943 -0.0134549 -0.0138718 -0.0141937 -0.0144206 -0.0145525 -0.0145894 -0.0145313 -0.0143933 -0.0141904 -0.0139226 -0.0135899 -0.0131924 -0.01273 -0.0122027 -0.0116105 -0.011014 -0.0104737 -0.00998963 -0.00956173 -0.00919004 -0.00887455 -0.00861527 -0.00841218 -0.00825929 -0.00815059 -0.00808608 -0.00806576 -0.00808963 -0.00815768 -0.00826993 -0.00842636 -0.00861858 -0.00883817 -0.00908514 -0.0093595 -0.00966123 -0.00999033 -0.0103468 -0.0107307 -0.0111548 -0.0116321 -0.0121626 -0.0127463 -0.0133831 -0.0140731 -0.0148163 -0.0156126 -0.0163839 -0.0170519 -0.0176166 -0.0180781 -0.0184363 -0.0186912 -0.0188429 -0.0188912 -0.0188418 -0.0187002 -0.0184663 -0.0181402 -0.0177218 -0.0172112 -0.0166083 -0.0159132 -0.015195 -0.014523 -0.0138971 -0.0133174 -0.0127839 -0.0122965 -0.0118553 -0.0114602 -0.01107 -0.0106435 -0.0101806 -0.00968142 -0.00914585 -0.00857394 -0.00796568 -0.00732107 -0.00666323 -0.00601527 -0.00537719 -0.00474898 -0.00413066 -0.00352222 -0.00292366 -0.00233497 -0.00178771 -0.00131342 -0.000912099 -0.000583743 -0.000328356 -0.000145936 -3.64839e-05 0 0 2.68076e-06 1.07231e-05 2.41269e-05 4.28922e-05 6.70191e-05 9.65075e-05 0.000131357 0.000171569 0.000178667 0.000114178 -2.18984e-05 -0.000229563 -0.000508814 -0.000859654 -0.00128208 -0.00177609 -0.00233719 -0.00296087 -0.00364712 -0.00439596 -0.00520737 -0.00608136 -0.00701793 -0.00801708 -0.00903404 -0.010024 -0.0109871 -0.0119231 -0.0128322 -0.0137144 -0.0145696 -0.0153978 -0.0161533 -0.0167902 -0.0173086 -0.0177085 -0.0179898 -0.0181526 -0.0181969 -0.0181226 -0.0179494 -0.0176966 -0.0173644 -0.0169526 -0.0164614 -0.0158907 -0.0152406 -0.0145109 -0.0137766 -0.0131125 -0.0125185 -0.0119948 -0.0115412 -0.0111577 -0.0108445 -0.0106014 -0.0104155 -0.0102737 -0.0101759 -0.0101223 -0.0101127 -0.0101472 -0.0102258 -0.0103485 -0.0105057 -0.0106878 -0.0108948 -0.0111267 -0.0113835 -0.0116653 -0.0119719 -0.0123035 -0.0126842 -0.0131383 -0.0136657 -0.0142665 -0.0149407 -0.0156883 -0.0165092 -0.0174034 -0.018276 -0.019032 -0.0196712 -0.0201938 -0.0205996 -0.0208888 -0.0210613 -0.0211171 -0.0210627 -0.0209048 -0.0206432 -0.0202781 -0.0198094 -0.0192371 -0.0185611 -0.0177816 -0.0169822 -0.0162465 -0.0155745 -0.0149662 -0.0144217 -0.0139409 -0.0135238 -0.0131705 -0.0128219 -0.0124192 -0.0119623 -0.0114512 -0.010886 -0.0102666 -0.00959308 -0.00886537 -0.00811208 -0.0073618 -0.00661451 -0.00587023 -0.00512894 -0.00439066 -0.00365538 -0.00292311 -0.002238 -0.00164425 -0.00114184 -0.000730776 -0.000411062 -0.000182694 -4.56735e-05 0 0 1.44834e-06 5.79334e-06 1.3035e-05 2.31734e-05 3.62084e-05 5.21401e-05 7.09685e-05 9.26935e-05 7.45627e-05 -2.61762e-05 -0.000209523 -0.000475479 -0.000824043 -0.00125521 -0.00176899 -0.00236538 -0.00303841 -0.0037821 -0.00459646 -0.00548148 -0.00643717 -0.00746353 -0.00856055 -0.00972824 -0.0109166 -0.0120757 -0.0132055 -0.0143059 -0.0153771 -0.016419 -0.0174316 -0.0184148 -0.0193126 -0.0200688 -0.0206833 -0.0211561 -0.0214873 -0.0216769 -0.0217248 -0.021631 -0.021421 -0.0211201 -0.0207284 -0.0202458 -0.0196723 -0.019008 -0.0182528 -0.0174068 -0.0165573 -0.0157919 -0.0151104 -0.0145129 -0.0139995 -0.01357 -0.0132246 -0.0129631 -0.0127545 -0.0125676 -0.0124024 -0.0122589 -0.012137 -0.0120369 -0.0119584 -0.0119017 -0.0118576 -0.0118175 -0.0117811 -0.0117486 -0.0117198 -0.011695 -0.0116739 -0.0116566 -0.011695 -0.0118407 -0.0120938 -0.0124542 -0.012922 -0.0134972 -0.0141797 -0.0149696 -0.0157606 -0.0164462 -0.0170266 -0.0175016 -0.0178714 -0.0181359 -0.018295 -0.0183489 -0.0183044 -0.0181684 -0.0179408 -0.0176218 -0.0172112 -0.0167091 -0.0161155 -0.0154304 -0.0147462 -0.0141554 -0.0136579 -0.0132538 -0.0129431 -0.0127257 -0.0126018 -0.0125711 -0.0125425 -0.0124244 -0.0122169 -0.0119199 -0.0115335 -0.0110577 -0.0104924 -0.00983773 -0.00912702 -0.00839374 -0.00763788 -0.00685946 -0.00605846 -0.00523488 -0.00438874 -0.00352002 -0.00269501 -0.00198001 -0.00137501 -0.000880005 -0.000495003 -0.000220001 -5.50003e-05 0 0 -1.04736e-06 -4.18945e-06 -9.42627e-06 -1.67578e-05 -2.61841e-05 -3.77051e-05 -5.13208e-05 -6.70312e-05 -0.000129426 -0.000283095 -0.000528038 -0.000864255 -0.00129175 -0.00181051 -0.00242055 -0.00312186 -0.00390661 -0.00476694 -0.00570287 -0.00671439 -0.0078015 -0.00896419 -0.0102025 -0.0115164 -0.0128533 -0.0141608 -0.0154388 -0.0166874 -0.0179065 -0.0190962 -0.0202564 -0.0213872 -0.0224211 -0.0232906 -0.0239958 -0.0245366 -0.0249131 -0.0251252 -0.025173 -0.0250565 -0.0248082 -0.024461 -0.0240147 -0.0234694 -0.0228252 -0.0220819 -0.0212395 -0.0202982 -0.0193562 -0.0185119 -0.0177653 -0.0171163 -0.016565 -0.0161114 -0.0157555 -0.0154972 -0.0152763 -0.0150324 -0.0147655 -0.0144756 -0.0141627 -0.0138267 -0.0134678 -0.0130859 -0.0126745 -0.0122273 -0.0117441 -0.0112251 -0.0106702 -0.0100794 -0.00945266 -0.00879008 -0.00818714 -0.00773937 -0.00744676 -0.00730932 -0.00732704 -0.00749993 -0.00782799 -0.00831122 -0.00883748 -0.00929466 -0.00968275 -0.0100017 -0.0102517 -0.0104325 -0.0105442 -0.0105869 -0.010567 -0.010491 -0.0103591 -0.0101712 -0.00992728 -0.00962734 -0.0092714 -0.00885946 -0.00848705 -0.00824971 -0.00814745 -0.00818026 -0.00834815 -0.00865112 -0.00908915 -0.00966227 -0.0102318 -0.0106592 -0.0109445 -0.0110875 -0.0110884 -0.0109472 -0.0106637 -0.0102381 -0.00970805 -0.0091111 -0.00844731 -0.00771668 -0.0069192 -0.00605488 -0.00512372 -0.00412571 -0.00315875 -0.00232071 -0.00161161 -0.00103143 -0.000580178 -0.000257857 -6.44642e-05 0 0 -4.80633e-06 -1.92253e-05 -4.3257e-05 -7.69013e-05 -0.000120158 -0.000173028 -0.00023551 -0.000307605 -0.000433299 -0.000656578 -0.000977442 -0.00139589 -0.00191192 -0.00252554 -0.00323675 -0.00404554 -0.00494179 -0.0059154 -0.00696636 -0.00809468 -0.00930034 -0.0105834 -0.0119437 -0.0133814 -0.0148441 -0.0162794 -0.0176872 -0.0190676 -0.0204206 -0.0217461 -0.0230442 -0.0243149 -0.0254786 -0.0264556 -0.0272461 -0.0278499 -0.0282671 -0.0284976 -0.0285416 -0.0283989 -0.028111 -0.0277191 -0.0272233 -0.0266235 -0.0259199 -0.0251122 -0.0242006 -0.0231851 -0.0221732 -0.0212726 -0.0204831 -0.0198048 -0.0192378 -0.0187819 -0.0184372 -0.0182038 -0.0179809 -0.0176681 -0.0172652 -0.0167724 -0.0161896 -0.0155168 -0.014754 -0.0139012 -0.0129563 -0.0119172 -0.0107838 -0.00955627 -0.00823449 -0.00681849 -0.00530827 -0.00370383 -0.00216067 -0.000834275 0.000275342 0.00116819 0.00184426 0.00230356 0.00254608 0.00257184 0.00249324 0.00242272 0.00236027 0.0023059 0.00225961 0.00222139 0.00219125 0.00216918 0.00214969 0.00212726 0.0021019 0.00207361 0.0020424 0.00200825 0.00197117 0.00193116 0.00179526 0.00147051 0.000956909 0.000254462 -0.000636834 -0.00171698 -0.00298597 -0.00444381 -0.0058899 -0.00712364 -0.00814502 -0.00895405 -0.00955073 -0.00993505 -0.010107 -0.0100666 -0.00985516 -0.00951388 -0.00904279 -0.00844189 -0.00771118 -0.00685066 -0.00586033 -0.00474018 -0.0036292 -0.00266635 -0.00185163 -0.00118505 -0.000666588 -0.000296262 -7.40654e-05 0 0 -9.82858e-06 -3.93143e-05 -8.84572e-05 -0.000157257 -0.000245714 -0.000353829 -0.0004816 -0.000629029 -0.000837057 -0.00114663 -0.00155774 -0.00207039 -0.00268458 -0.00340031 -0.00421759 -0.0051364 -0.00614396 -0.00722747 -0.00838693 -0.00962234 -0.0109337 -0.012321 -0.0137843 -0.0153235 -0.0168891 -0.0184314 -0.0199505 -0.0214465 -0.0229192 -0.0243687 -0.0257949 -0.027198 -0.0284852 -0.0295639 -0.0304342 -0.031096 -0.0315493 -0.0317942 -0.0318305 -0.0316585 -0.0313293 -0.0308946 -0.0303542 -0.0297081 -0.0289564 -0.0280991 -0.0271361 -0.0260675 -0.0250084 -0.0240739 -0.0232639 -0.0225785 -0.0220177 -0.0215815 -0.0212698 -0.0210827 -0.0208683 -0.0204746 -0.0199016 -0.0191494 -0.0182178 -0.017107 -0.0158169 -0.0143476 -0.012703 -0.0108872 -0.00890023 -0.00674211 -0.00441282 -0.00191234 0.0007593 0.00360212 0.00638443 0.00887457 0.0110725 0.0129783 0.0145919 0.0159133 0.0169425 0.0176795 0.0182316 0.0187059 0.0191025 0.0194213 0.0196624 0.0198257 0.0199113 0.0199192 0.0198455 0.0196865 0.0194422 0.0191127 0.0186978 0.0181977 0.0176122 0.0169415 0.0161007 0.0150053 0.0136552 0.0120504 0.0101909 0.00807666 0.00570778 0.00308421 0.000483294 -0.00181762 -0.00381854 -0.00551946 -0.00692039 -0.00802131 -0.00882224 -0.00932316 -0.00956835 -0.00960207 -0.00942432 -0.00903509 -0.00843438 -0.00762221 -0.00659856 -0.00536344 -0.00410638 -0.00301693 -0.00209509 -0.00134086 -0.000754233 -0.000335215 -8.38037e-05 0 0 -1.61141e-05 -6.44564e-05 -0.000145027 -0.000257825 -0.000402852 -0.000580107 -0.00078959 -0.0010313 -0.0013407 -0.00175324 -0.00226892 -0.00288774 -0.00360971 -0.00443482 -0.00536307 -0.00639446 -0.00751312 -0.00870316 -0.00996458 -0.0112974 -0.0127016 -0.0141772 -0.0157241 -0.0173425 -0.0189881 -0.0206169 -0.0222289 -0.023824 -0.0254024 -0.0269638 -0.0285085 -0.0300363 -0.0314408 -0.0326154 -0.0335601 -0.0342749 -0.0347598 -0.0350147 -0.0350398 -0.034835 -0.0344632 -0.0339873 -0.0334073 -0.0327231 -0.0319349 -0.0310425 -0.0300461 -0.0289455 -0.0278617 -0.0269158 -0.0261077 -0.0254374 -0.0249049 -0.0245101 -0.0242532 -0.0241341 -0.0239385 -0.023452 -0.0226746 -0.0216064 -0.0202474 -0.0185974 -0.0166566 -0.014425 -0.0119145 -0.00913729 -0.00609333 -0.00278261 0.000794854 0.00463907 0.00875004 0.0131278 0.0174482 0.0213872 0.0249448 0.028121 0.0309158 0.0333292 0.0353612 0.0370118 0.0383776 0.0395549 0.0405439 0.0413445 0.0419567 0.0423806 0.042616 0.0426631 0.0425205 0.0421867 0.0416619 0.040946 0.040039 0.0389409 0.0376517 0.0361715 0.0344293 0.0323546 0.0299473 0.0272074 0.0241349 0.0207298 0.0169921 0.0129218 0.00888776 0.00525881 0.00203497 -0.000783778 -0.00319742 -0.00520597 -0.00680941 -0.00800776 -0.00884764 -0.00937568 -0.0095919 -0.00949628 -0.00908882 -0.00836954 -0.00733842 -0.00599547 -0.00459028 -0.00337245 -0.00234198 -0.00149887 -0.000843113 -0.000374717 -9.36792e-05 0 0 -2.36629e-05 -9.46515e-05 -0.000212966 -0.000378606 -0.000591572 -0.000851864 -0.00115948 -0.00151442 -0.00194422 -0.00247641 -0.00311099 -0.00384796 -0.00468731 -0.00562906 -0.00667319 -0.00781971 -0.00904925 -0.0103425 -0.0116993 -0.0131198 -0.014604 -0.0161518 -0.0177633 -0.0194384 -0.0211413 -0.0228359 -0.0245222 -0.0262003 -0.0278701 -0.0295317 -0.031185 -0.0328301 -0.0343456 -0.0356101 -0.0366238 -0.0373866 -0.0378985 -0.0381594 -0.0381695 -0.0379286 -0.0375127 -0.0369973 -0.0363827 -0.0356686 -0.0348552 -0.0339425 -0.0329304 -0.0318189 -0.0307332 -0.0297984 -0.0290145 -0.0283814 -0.0278992 -0.0275679 -0.0273875 -0.0273579 -0.0271915 -0.0266002 -0.0255843 -0.0241436 -0.0222782 -0.019988 -0.0172731 -0.0141334 -0.0105909 -0.00666751 -0.00236312 0.00232223 0.00738852 0.0128358 0.018664 0.0248731 0.0310305 0.0367035 0.0418921 0.0465962 0.050816 0.0545513 0.0578023 0.0605688 0.0629312 0.0649697 0.0666845 0.0680754 0.0691426 0.0698859 0.0703054 0.070401 0.0701746 0.0696279 0.0687609 0.0675736 0.0660659 0.064238 0.0620897 0.0596211 0.0567811 0.0535185 0.0498334 0.0457256 0.0411953 0.0362425 0.030867 0.025069 0.0193235 0.0141057 0.00941551 0.00525301 0.00161816 -0.00148902 -0.00406855 -0.00612042 -0.00769301 -0.00883471 -0.00954553 -0.00982546 -0.0096745 -0.00909265 -0.00807991 -0.00663628 -0.0050809 -0.00373291 -0.0025923 -0.00165907 -0.000933227 -0.000414768 -0.000103692 0 0 -3.24749e-05 -0.0001299 -0.000292274 -0.000519599 -0.000811873 -0.0011691 -0.00159127 -0.0020784 -0.00264763 -0.00331615 -0.00408395 -0.00495103 -0.00591739 -0.00698303 -0.00814795 -0.00941215 -0.0107524 -0.0121454 -0.0135911 -0.0150896 -0.0166409 -0.018245 -0.0199018 -0.0216114 -0.0233486 -0.0250883 -0.0268305 -0.0285752 -0.0303225 -0.0320722 -0.0338244 -0.0355791 -0.0371994 -0.0385481 -0.0396254 -0.0404311 -0.0409654 -0.0412282 -0.0412195 -0.0409393 -0.0404777 -0.0399247 -0.0392803 -0.0385446 -0.0377175 -0.036799 -0.0357891 -0.0346879 -0.0336229 -0.0327216 -0.0319842 -0.0314106 -0.0310008 -0.0307548 -0.0306726 -0.0307542 -0.0306272 -0.0299194 -0.0286306 -0.0267609 -0.0243103 -0.0212788 -0.0176663 -0.013473 -0.00873229 -0.00347783 0.0022904 0.00857241 0.0153682 0.0226777 0.030501 0.0388381 0.0471315 0.0548236 0.0619145 0.0684041 0.0742925 0.0795797 0.0842656 0.0883504 0.0918924 0.0949504 0.0975243 0.0996142 0.10122 0.102342 0.102979 0.103133 0.102808 0.10201 0.100739 0.0989954 0.0967786 0.0940889 0.0909262 0.0872905 0.0831561 0.078497 0.0733133 0.067605 0.0613721 0.0546146 0.0473325 0.0395257 0.0317905 0.024723 0.0183231 0.0125909 0.00752637 0.00312953 -0.000599641 -0.00366113 -0.00610447 -0.00797916 -0.00928521 -0.0100226 -0.0101914 -0.00979153 -0.00882302 -0.00728588 -0.00557825 -0.0040983 -0.00284605 -0.00182147 -0.00102458 -0.000455367 -0.000113842 0 0 -4.19787e-05 -0.000167915 -0.000377808 -0.00067166 -0.00104947 -0.00151123 -0.00205696 -0.00268664 -0.00340099 -0.00420072 -0.00508583 -0.00605632 -0.00711218 -0.00825343 -0.00948006 -0.0107921 -0.0121624 -0.0135641 -0.014997 -0.0164613 -0.0179569 -0.0194838 -0.021042 -0.0226315 -0.0242468 -0.0258827 -0.0275391 -0.0292159 -0.0309133 -0.0326311 -0.0343694 -0.0361282 -0.0377574 -0.0391071 -0.0401771 -0.0409675 -0.0414783 -0.0417095 -0.0416611 -0.0413331 -0.040831 -0.0402602 -0.0396209 -0.0389129 -0.0381363 -0.0372911 -0.0363773 -0.0353949 -0.0344686 -0.0337231 -0.0331585 -0.0327747 -0.0325718 -0.0325496 -0.0327083 -0.0330479 -0.0330951 -0.032377 -0.0308934 -0.0286444 -0.02563 -0.0218502 -0.017305 -0.0119943 -0.00596457 0.000737963 0.00811329 0.0161614 0.0248823 0.034276 0.0443425 0.0550817 0.0657924 0.0757732 0.085024 0.0935449 0.101336 0.108397 0.114728 0.120329 0.125231 0.129464 0.133028 0.135924 0.13815 0.139708 0.140598 0.140818 0.14038 0.139294 0.13756 0.135178 0.132149 0.128471 0.124146 0.119172 0.113556 0.1073 0.100405 0.0928722 0.0847001 0.0758892 0.0664394 0.0563508 0.0463547 0.0371824 0.0288339 0.0213093 0.0146084 0.00873134 0.0036781 -0.000551331 -0.00400666 -0.00673758 -0.00874411 -0.0100262 -0.010584 -0.0104173 -0.0095262 -0.00791072 -0.00605665 -0.00444978 -0.00309013 -0.00197768 -0.00111245 -0.00049442 -0.000123605 0 0 -5.16027e-05 -0.000206411 -0.000464424 -0.000825643 -0.00129007 -0.0018577 -0.00252853 -0.00330257 -0.00415434 -0.00505836 -0.00601463 -0.00702315 -0.00808392 -0.00919695 -0.0103622 -0.0115797 -0.0128193 -0.0140508 -0.0152741 -0.0164893 -0.0176964 -0.0188954 -0.0200862 -0.0212689 -0.0224729 -0.0237277 -0.0250332 -0.0263895 -0.0277965 -0.0292542 -0.0307627 -0.0323219 -0.033775 -0.0349647 -0.0358913 -0.0365547 -0.0369549 -0.0370918 -0.0369655 -0.036576 -0.0360452 -0.0354948 -0.0349249 -0.0343355 -0.0337266 -0.0330981 -0.0324501 -0.0317826 -0.0312085 -0.0308406 -0.0306789 -0.0307235 -0.0309743 -0.0314313 -0.0320946 -0.0329641 -0.0334446 -0.0329408 -0.0314527 -0.0289804 -0.0255237 -0.0210828 -0.0156577 -0.00924824 -0.00191387 0.00628607 0.0153516 0.0252827 0.0360794 0.0477416 0.0602695 0.0736629 0.0870548 0.0995781 0.111233 0.122019 0.131937 0.140986 0.149166 0.156478 0.162917 0.168478 0.173161 0.176967 0.179896 0.181947 0.18312 0.183415 0.18285 0.181441 0.179187 0.17609 0.172148 0.167363 0.161733 0.155259 0.147981 0.139937 0.131128 0.121554 0.111214 0.100109 0.0882387 0.075603 0.063082 0.0515558 0.0410243 0.0314875 0.0229454 0.0153981 0.00884547 0.00328757 -0.00132423 -0.00503854 -0.00785538 -0.00977472 -0.0107966 -0.010921 -0.0101479 -0.00847729 -0.00649043 -0.00476848 -0.00331144 -0.00211932 -0.00119212 -0.000529831 -0.000132458 0 0 -6.13469e-05 -0.000245388 -0.000552122 -0.00098155 -0.00153367 -0.00220849 -0.003006 -0.0039262 -0.0049077 -0.00588909 -0.00687037 -0.00785154 -0.00883261 -0.00981357 -0.0107944 -0.0117752 -0.0127231 -0.0136055 -0.0144224 -0.0151737 -0.0158595 -0.0164798 -0.0170345 -0.0175237 -0.0180268 -0.0186232 -0.0193129 -0.0200958 -0.020972 -0.0219415 -0.0230043 -0.0241604 -0.0252519 -0.0261212 -0.0267681 -0.0271927 -0.0273951 -0.0273751 -0.0271328 -0.0266682 -0.0261204 -0.0256285 -0.0251925 -0.0248124 -0.0244882 -0.0242199 -0.0240075 -0.023851 -0.0238425 -0.024074 -0.0245454 -0.0252569 -0.0262084 -0.0273998 -0.0288313 -0.0305027 -0.0316755 -0.0316107 -0.0303084 -0.0277687 -0.0239914 -0.0189767 -0.0127244 -0.00523472 0.00341982 0.0131665 0.0240053 0.0359363 0.0489594 0.0630746 0.078282 0.0945815 0.110919 0.126238 0.140541 0.153826 0.166095 0.177346 0.18758 0.196797 0.204949 0.211992 0.217924 0.222745 0.226456 0.229056 0.230546 0.230925 0.230218 0.22845 0.225621 0.22173 0.216777 0.210764 0.203688 0.195552 0.186432 0.176409 0.165481 0.15365 0.140914 0.127274 0.11273 0.0972823 0.0819725 0.0678431 0.0548942 0.0431256 0.0325375 0.0231298 0.0149025 0.00785556 0.00194282 -0.00288204 -0.00661901 -0.0092681 -0.0108293 -0.0113026 -0.010688 -0.00898559 -0.00687959 -0.0050544 -0.00351 -0.0022464 -0.0012636 -0.000561599 -0.0001404 0 0 -7.12113e-05 -0.000284845 -0.000640901 -0.00113938 -0.00178028 -0.00256361 -0.00348935 -0.00455752 -0.00566105 -0.00669289 -0.00765304 -0.00854149 -0.00935825 -0.0101033 -0.0107767 -0.0113784 -0.0118737 -0.0122282 -0.0124418 -0.0125144 -0.0124461 -0.012237 -0.0118869 -0.0113959 -0.0109086 -0.0105693 -0.0103781 -0.010335 -0.0104399 -0.010693 -0.0110942 -0.0116435 -0.0121883 -0.0125763 -0.0128074 -0.0128816 -0.0127989 -0.0125594 -0.0121629 -0.0116095 -0.0110566 -0.0106613 -0.0104236 -0.0103436 -0.0104212 -0.0106565 -0.0110495 -0.0116001 -0.0123706 -0.0134233 -0.0147581 -0.016375 -0.018274 -0.0204552 -0.0229185 -0.0256639 -0.0277879 -0.0283868 -0.0274606 -0.0250094 -0.0210331 -0.0155317 -0.00850528 4.62239e-05 0.0100365 0.0213792 0.0340745 0.0481222 0.0635223 0.080275 0.0983801 0.117838 0.137384 0.155754 0.172948 0.188967 0.20381 0.217478 0.229969 0.241285 0.251329 0.260006 0.267315 0.273257 0.277831 0.281037 0.282876 0.283347 0.282485 0.280323 0.27686 0.272098 0.266036 0.258674 0.250011 0.240049 0.22891 0.216715 0.203465 0.18916 0.1738 0.157385 0.139914 0.121389 0.103026 0.0860444 0.0704436 0.0562236 0.0433845 0.0319264 0.0218491 0.0131527 0.00579449 -0.000268071 -0.00503502 -0.00850636 -0.0106821 -0.0115622 -0.0111467 -0.00943562 -0.00722414 -0.00530753 -0.00368579 -0.0023589 -0.00132688 -0.000589726 -0.000147432 0 0 -8.11958e-05 -0.000324783 -0.000730762 -0.00129913 -0.0020299 -0.00292305 -0.0039786 -0.00519653 -0.00641441 -0.00746978 -0.00836264 -0.00909299 -0.00966083 -0.0100662 -0.010309 -0.0103893 -0.0102712 -0.00991889 -0.0093323 -0.00851146 -0.00745636 -0.006167 -0.00464338 -0.00288551 -0.0011181 0.000434135 0.00177119 0.00289306 0.00379975 0.00449126 0.00496759 0.00522873 0.00541577 0.00