<?xml version="1.0"?> 
<VTKFile type="StructuredGrid" version="0.1"> 
<StructuredGrid WholeExtent="0 128 0 128 0 0"> 
<Piece Extent="0 128 0 128 0 0"> 
<PointData>
<DataArray type="Float32" Name="u" format="ascii" NumberOfComponents="1"> 
0 0 0 0 0 0 0 0 0 0 0 0 0 0 0 0 0 0 0 0 0 0 0 0 0 0 0 0 0 0 0 0 0 0 0 0 0 0 0 0 0 0 0 0 0 0 0 0 0 0 0 0 0 0 0 0 0 0 0 0 0 0 0 0 0 0 0 0 0 0 0 0 0 0 0 0 0 0 0 0 0 0 0 0 0 0 0 0 0 0 0 0 0 0 0 0 0 0 0 0 0 0 0 0 0 0 0 0 0 0 0 0 0 0 0 0 0 0 0 0 0 0 0 0 0 0 0 0 0 0 -3.61095e-07 -1.44438e-06 -3.24986e-06 -5.77752e-06 -9.02738e-06 -1.29994e-05 -1.76937e-05 -2.31101e-05 -2.91527e-05 -3.57256e-05 -4.28287e-05 -5.04621e-05 -5.86257e-05 -6.73195e-05 -7.65436e-05 -8.62979e-05 -9.61181e-05 -0.00010554 -0.000114563 -0.000123187 -0.000131414 -0.000139241 -0.00014667 -0.000153701 -0.000160273 -0.000166328 -0.000171866 -0.000176886 -0.000181388 -0.000185373 -0.00018884 -0.00019179 -0.000194389 -0.000196803 -0.000199032 -0.000201077 -0.000202936 -0.000204611 -0.000206101 -0.000207406 -0.000208655 -0.000209978 -0.000211374 -0.000212844 -0.000214387 -0.000216003 -0.000217693 -0.000219456 -0.000220905 -0.000221654 -0.000221702 -0.000221049 -0.000219695 -0.000217641 -0.000214886 -0.000211431 -0.000206576 -0.000199626 -0.000190579 -0.000179436 -0.000166197 -0.000150862 -0.00013343 -0.000113903 -9.23905e-05 -6.90059e-05 -4.37489e-05 -1.66194e-05 1.23826e-05 4.32571e-05 7.6004e-05 0.000110623 0.000145735 0.000179961 0.000213299 0.00024575 0.000277314 0.000307992 0.000337782 0.000366686 0.000393315 0.000416285 0.000435593 0.000451242 0.000463229 0.000471557 0.000476223 0.00047723 0.00047474 0.000468918 0.000459765 0.000447281 0.000431464 0.000412316 0.000389836 0.000364025 0.000336493 0.000308852 0.000281102 0.000253244 0.000225276 0.0001972 0.000169015 0.00014072 0.000113662 8.91837e-05 6.72859e-05 4.79684e-05 3.12313e-05 1.70746e-05 5.49825e-06 -3.49775e-06 -1.04538e-05 -1.59104e-05 -1.98675e-05 -2.23251e-05 -2.32832e-05 -2.27418e-05 -2.07009e-05 -1.71605e-05 -1.31385e-05 -9.6528e-06 -6.70333e-06 -4.29013e-06 -2.4132e-06 -1.07253e-06 -2.68133e-07 0 0 -1.44438e-06 -5.77752e-06 -1.29994e-05 -2.31101e-05 -3.61095e-05 -5.19977e-05 -7.07747e-05 -9.24404e-05 -0.000116611 -0.000142902 -0.000171315 -0.000201848 -0.000234503 -0.000269278 -0.000306174 -0.000345192 -0.000384472 -0.000422159 -0.000458251 -0.00049275 -0.000525654 -0.000556964 -0.00058668 -0.000614802 -0.000641092 -0.000665312 -0.000687462 -0.000707542 -0.000725552 -0.000741492 -0.000755362 -0.000767161 -0.000777557 -0.000787213 -0.000796129 -0.000804307 -0.000811745 -0.000818444 -0.000824403 -0.000829623 -0.000834621 -0.000839912 -0.000845496 -0.000851374 -0.000857546 -0.000864011 -0.00087077 -0.000877823 -0.00088362 -0.000886615 -0.000886807 -0.000884196 -0.000878782 -0.000870565 -0.000859545 -0.000845722 -0.000826305 -0.000798504 -0.000762317 -0.000717746 -0.000664789 -0.000603448 -0.000533722 -0.000455611 -0.000369562 -0.000276024 -0.000174996 -6.64774e-05 4.95305e-05 0.000173028 0.000304016 0.000442493 0.000582942 0.000719842 0.000853195 0.000983 0.00110926 0.00123197 0.00135113 0.00146674 0.00157326 0.00166514 0.00174237 0.00180497 0.00185292 0.00188623 0.00190489 0.00190892 0.00189896 0.00187567 0.00183906 0.00178912 0.00172586 0.00164926 0.00155934 0.0014561 0.00134597 0.00123541 0.00112441 0.00101298 0.000901105 0.0007888 0.000676058 0.000562881 0.000454647 0.000356735 0.000269143 0.000191874 0.000124925 6.82985e-05 2.1993e-05 -1.3991e-05 -4.18153e-05 -6.36417e-05 -7.947e-05 -8.93004e-05 -9.31328e-05 -9.09672e-05 -8.28037e-05 -6.86421e-05 -5.25541e-05 -3.86112e-05 -2.68133e-05 -1.71605e-05 -9.6528e-06 -4.29013e-06 -1.07253e-06 0 0 -3.24986e-06 -1.29994e-05 -2.92487e-05 -5.19977e-05 -8.12464e-05 -0.000116995 -0.000159243 -0.000207991 -0.000262375 -0.000321531 -0.000385459 -0.000454159 -0.000527631 -0.000605876 -0.000688892 -0.000776681 -0.000865063 -0.000949858 -0.00103107 -0.00110869 -0.00118272 -0.00125317 -0.00132003 -0.00138331 -0.00144246 -0.00149695 -0.00154679 -0.00159197 -0.00163249 -0.00166836 -0.00169956 -0.00172611 -0.0017495 -0.00177123 -0.00179129 -0.00180969 -0.00182643 -0.0018415 -0.00185491 -0.00186665 -0.0018779 -0.0018898 -0.00190237 -0.00191559 -0.00192948 -0.00194403 -0.00195923 -0.0019751 -0.00198815 -0.00199488 -0.00199532 -0.00198944 -0.00197726 -0.00195877 -0.00193398 -0.00190287 -0.00185919 -0.00179663 -0.00171521 -0.00161493 -0.00149578 -0.00135776 -0.00120087 -0.00102512 -0.000831515 -0.000621053 -0.00039374 -0.000149574 0.000111444 0.000389314 0.000684036 0.00099561 0.00131162 0.00161965 0.00191969 0.00221175 0.00249583 0.00277193 0.00304004 0.00330017 0.00353984 0.00374656 0.00392034 0.00406117 0.00416906 0.00424401 0.00428601 0.00429507 0.00427266 0.00422027 0.00413789 0.00402552 0.00388318 0.00371084 0.00350852 0.00327622 0.00302843 0.00277967 0.00252992 0.00227919 0.00202749 0.0017748 0.00152113 0.00126648 0.00102296 0.000802653 0.000605573 0.000431716 0.000281082 0.000153672 4.94843e-05 -3.14798e-05 -9.40845e-05 -0.000143194 -0.000178808 -0.000200926 -0.000209549 -0.000204676 -0.000186308 -0.000154445 -0.000118247 -8.68752e-05 -6.033e-05 -3.86112e-05 -2.17188e-05 -9.6528e-06 -2.4132e-06 0 0 -5.77752e-06 -2.31101e-05 -5.19977e-05 -9.24404e-05 -0.000144438 -0.000207991 -0.000283099 -0.000369762 -0.000466444 -0.00057161 -0.00068526 -0.000807394 -0.000938011 -0.00107711 -0.0012247 -0.00138077 -0.00153789 -0.00168864 -0.00183301 -0.001971 -0.00210262 -0.00222786 -0.00234672 -0.00245921 -0.00256437 -0.00266125 -0.00274985 -0.00283017 -0.00290221 -0.00296597 -0.00302145 -0.00306865 -0.00311023 -0.00314885 -0.00318452 -0.00321723 -0.00324698 -0.00327377 -0.00329761 -0.00331849 -0.00333848 -0.00335965 -0.00338199 -0.0034055 -0.00343018 -0.00345605 -0.00348308 -0.00351129 -0.00353448 -0.00354646 -0.00354723 -0.00353678 -0.00351513 -0.00348226 -0.00343818 -0.00338289 -0.00330522 -0.00319402 -0.00304927 -0.00287098 -0.00265916 -0.00241379 -0.00213489 -0.00182244 -0.00147825 -0.00110409 -0.000699982 -0.00026591 0.000198122 0.000692113 0.00121606 0.00176997 0.00233177 0.00287937 0.00341278 0.003932 0.00443703 0.00492787 0.00540451 0.00586697 0.00629305 0.00666055 0.00696949 0.00721987 0.00741167 0.00754491 0.00761958 0.00763568 0.00759584 0.0075027 0.00735625 0.00715649 0.00690342 0.00659705 0.00623738 0.00582439 0.00538388 0.00494163 0.00449764 0.0040519 0.00360442 0.0031552 0.00270423 0.00225153 0.00181859 0.00142694 0.00107657 0.000767495 0.000499701 0.000273194 8.7972e-05 -5.59641e-05 -0.000167261 -0.000254567 -0.00031788 -0.000357202 -0.000372531 -0.000363869 -0.000331215 -0.000274568 -0.000210216 -0.000154445 -0.000107253 -6.86421e-05 -3.86112e-05 -1.71605e-05 -4.29013e-06 0 0 -9.02738e-06 -3.61095e-05 -8.12464e-05 -0.000144438 -0.000225685 -0.000324986 -0.000442342 -0.000577752 -0.000728818 -0.00089314 -0.00107072 -0.00126155 -0.00146564 -0.00168299 -0.00191359 -0.00215745 -0.00240295 -0.00263849 -0.00286407 -0.00307969 -0.00328534 -0.00348103 -0.00366675 -0.00384252 -0.00400683 -0.0041582 -0.00429664 -0.00442214 -0.0045347 -0.00463432 -0.00472101 -0.00479476 -0.00485973 -0.00492008 -0.00497581 -0.00502692 -0.0050734 -0.00511527 -0.00515252 -0.00518515 -0.00521638 -0.00524945 -0.00528435 -0.00532109 -0.00535966 -0.00540007 -0.00544231 -0.00548639 -0.00552263 -0.00554134 -0.00554254 -0.00552622 -0.00549239 -0.00544103 -0.00537216 -0.00528576 -0.00516441 -0.00499065 -0.00476448 -0.00448591 -0.00415493 -0.00377155 -0.00333576 -0.00284757 -0.00230976 -0.00172515 -0.00109372 -0.000415484 0.000309566 0.00108143 0.0019001 0.00276558 0.00364339 0.00449902 0.00533247 0.00614375 0.00693286 0.00769979 0.00844455 0.00916714 0.00983288 0.0104071 0.0108898 0.011281 0.0115807 0.0117889 0.0119056 0.0119307 0.0118685 0.011723 0.0114941 0.011182 0.0107866 0.0103079 0.0097459 0.00910061 0.00841232 0.0077213 0.00702756 0.00633109 0.00563191 0.00493 0.00422536 0.00351801 0.00284155 0.00222959 0.00168215 0.00119921 0.000780783 0.000426865 0.000137456 -8.74438e-05 -0.000261346 -0.00039776 -0.000496688 -0.000558127 -0.00058208 -0.000568545 -0.000517523 -0.000429013 -0.000328463 -0.00024132 -0.000167583 -0.000107253 -6.033e-05 -2.68133e-05 -6.70333e-06 0 0 -1.29994e-05 -5.19977e-05 -0.000116995 -0.000207991 -0.000324986 -0.000467979 -0.000636972 -0.000831963 -0.0010495 -0.00128612 -0.00154183 -0.00181664 -0.00211053 -0.0024235 -0.00275557 -0.00310673 -0.00346025 -0.00379943 -0.00412426 -0.00443475 -0.00473089 -0.00501268 -0.00528012 -0.00553322 -0.00576983 -0.00598781 -0.00618716 -0.00636788 -0.00652997 -0.00667343 -0.00679825 -0.00690445 -0.00699801 -0.00708491 -0.00716516 -0.00723876 -0.0073057 -0.00736599 -0.00741963 -0.00746661 -0.00751159 -0.00755921 -0.00760947 -0.00766237 -0.00771792 -0.0077761 -0.00783693 -0.0079004 -0.00795258 -0.00797954 -0.00798126 -0.00795776 -0.00790904 -0.00783508 -0.0077359 -0.0076115 -0.00743675 -0.00718653 -0.00686086 -0.00645971 -0.0059831 -0.00543103 -0.0048035 -0.0041005 -0.00332606 -0.00248421 -0.00157496 -0.000598297 0.000445774 0.00155725 0.00273614 0.00398244 0.00524648 0.00647858 0.00767876 0.008847 0.00998332 0.0110877 0.0121602 0.0132007 0.0141594 0.0149862 0.0156814 0.0162447 0.0166763 0.016976 0.017144 0.0171803 0.0170906 0.0168811 0.0165516 0.0161021 0.0155327 0.0148434 0.0140341 0.0131049 0.0121137 0.0111187 0.0101197 0.00911678 0.00810995 0.0070992 0.00608452 0.00506593 0.00409183 0.00321061 0.00242229 0.00172686 0.00112433 0.000614686 0.000197937 -0.000125919 -0.000376338 -0.000572775 -0.00071523 -0.000803704 -0.000838195 -0.000818705 -0.000745233 -0.000617779 -0.000472987 -0.000347501 -0.00024132 -0.000154445 -8.68752e-05 -3.86112e-05 -9.6528e-06 0 0 -1.76937e-05 -7.07747e-05 -0.000159243 -0.000283099 -0.000442342 -0.000636972 -0.00086699 -0.00113239 -0.00142848 -0.00175056 -0.00209861 -0.00247264 -0.00287266 -0.00329866 -0.00375064 -0.0042286 -0.00470979 -0.00517145 -0.00561358 -0.00603619 -0.00643926 -0.00682281 -0.00718683 -0.00753133 -0.00785338 -0.00815008 -0.00842141 -0.00866739 -0.00888801 -0.00908327 -0.00925318 -0.00939773 -0.00952507 -0.00964335 -0.00975258 -0.00985276 -0.00994387 -0.0100259 -0.0100989 -0.0101629 -0.0102241 -0.0102889 -0.0103573 -0.0104293 -0.0105049 -0.0105841 -0.0106669 -0.0107533 -0.0108243 -0.010861 -0.0108634 -0.0108314 -0.0107651 -0.0106644 -0.0105294 -0.0103601 -0.0101222 -0.00978167 -0.00933839 -0.00879239 -0.00814367 -0.00739224 -0.00653809 -0.00558123 -0.00452714 -0.00338129 -0.00214369 -0.000814349 0.000606748 0.0021196 0.00372419 0.00542054 0.00714104 0.00881807 0.0104516 0.0120418 0.0135884 0.0150916 0.0165513 0.0179676 0.0192725 0.0203979 0.0213441 0.0221108 0.0226982 0.0231063 0.0233349 0.0233843 0.0232623 0.022977 0.0225285 0.0219167 0.0211417 0.0202035 0.019102 0.0178372 0.0164881 0.0151337 0.013774 0.0124089 0.0110385 0.00966279 0.00828171 0.0068953 0.00556943 0.00437 0.00329701 0.00235045 0.00153034 0.000836656 0.000269414 -0.00017139 -0.000512238 -0.00077961 -0.000973508 -0.00109393 -0.00114088 -0.00111435 -0.00101434 -0.000840866 -0.000643788 -0.000472987 -0.000328463 -0.000210216 -0.000118247 -5.25541e-05 -1.31385e-05 0 0 -2.31101e-05 -9.24404e-05 -0.000207991 -0.000369762 -0.000577752 -0.000831963 -0.00113239 -0.00147905 -0.00186578 -0.00228644 -0.00274104 -0.00322957 -0.00375204 -0.00430845 -0.00489879 -0.00552307 -0.00615156 -0.00675454 -0.00733202 -0.007884 -0.00841047 -0.00891143 -0.00938689 -0.00983684 -0.0102575 -0.010645 -0.0109994 -0.0113207 -0.0116088 -0.0118639 -0.0120858 -0.0122746 -0.0124409 -0.0125954 -0.0127381 -0.0128689 -0.0129879 -0.0130951 -0.0131904 -0.013274 -0.0133539 -0.0134386 -0.0135279 -0.013622 -0.0137207 -0.0138242 -0.0139323 -0.0140452 -0.0141379 -0.0141858 -0.0141889 -0.0141471 -0.0140605 -0.013929 -0.0137527 -0.0135316 -0.0132209 -0.0127761 -0.0121971 -0.0114839 -0.0106366 -0.00965517 -0.00853955 -0.00728977 -0.00591299 -0.00441638 -0.00279993 -0.00106364 0.000792488 0.00276845 0.00486425 0.00707989 0.00932707 0.0115175 0.0136511 0.015728 0.0177481 0.0197115 0.0216181 0.0234679 0.0251722 0.0266422 0.027878 0.0288795 0.0296467 0.0301796 0.0304783 0.0305427 0.0303834 0.0300108 0.029425 0.028626 0.0276137 0.0263882 0.0249495 0.0232976 0.0215355 0.0197665 0.0179906 0.0162076 0.0144177 0.0126208 0.0108169 0.0090061 0.00727436 0.00570775 0.0043063 0.00306998 0.00199881 0.00109278 0.000351888 -0.000223856 -0.000669045 -0.00101827 -0.00127152 -0.00142881 -0.00149012 -0.00145548 -0.00132486 -0.00109827 -0.000840866 -0.000617779 -0.000429013 -0.000274568 -0.000154445 -6.86421e-05 -1.71605e-05 0 0 -2.88193e-05 -0.000115277 -0.000259374 -0.000461109 -0.000720483 -0.0010375 -0.00141215 -0.00184444 -0.00232582 -0.00284775 -0.00341023 -0.00401326 -0.00465683 -0.00534095 -0.00606562 -0.00683083 -0.00759931 -0.00833376 -0.00903418 -0.00970058 -0.0103329 -0.0109313 -0.0114956 -0.0120259 -0.0125188 -0.0129709 -0.0133822 -0.0137527 -0.0140825 -0.0143715 -0.0146197 -0.0148271 -0.0150087 -0.0151795 -0.0153395 -0.0154886 -0.015627 -0.0157545 -0.0158712 -0.0159771 -0.0160823 -0.0161969 -0.016321 -0.0164545 -0.0165974 -0.0167498 -0.0169117 -0.017083 -0.0172302 -0.0173201 -0.0173526 -0.0173276 -0.0172452 -0.0171054 -0.0169082 -0.0166535 -0.0162831 -0.0157388 -0.0150204 -0.014128 -0.0130617 -0.0118213 -0.0104069 -0.00881855 -0.00706537 -0.00515657 -0.00309216 -0.000872127 0.00150352 0.00403478 0.00672166 0.00956415 0.0124484 0.0152606 0.0180007 0.0206686 0.0232645 0.0257884 0.0282401 0.0306197 0.0328128 0.034705 0.0362963 0.0375867 0.0385762 0.0392647 0.0396523 0.039739 0.0395379 0.0390622 0.0383119 0.0372869 0.0359874 0.0344132 0.0325644 0.0304409 0.0281749 0.0258985 0.0236115 0.0213141 0.0190061 0.0166877 0.0143588 0.0120194 0.00977989 0.00775074 0.00593192 0.00432344 0.00292529 0.00173747 0.000759979 -7.17673e-06 -0.000607048 -0.00108269 -0.00143409 -0.00166125 -0.00176418 -0.00174288 -0.00159734 -0.00132757 -0.00101642 -0.000746756 -0.000518581 -0.000331892 -0.000186689 -8.29729e-05 -2.07432e-05 0 0 -3.4392e-05 -0.000137568 -0.000309528 -0.000550272 -0.000859801 -0.00123811 -0.00168521 -0.00220109 -0.00277307 -0.00338847 -0.00404728 -0.00474951 -0.00549516 -0.00628422 -0.0071167 -0.00799259 -0.00886678 -0.00969413 -0.0104746 -0.0112083 -0.0118952 -0.0125352 -0.0131283 -0.0136746 -0.0141739 -0.014626 -0.0150309 -0.0153886 -0.0156991 -0.0159624 -0.0161785 -0.0163473 -0.0164917 -0.0166341 -0.0167747 -0.0169134 -0.0170502 -0.0171851 -0.0173182 -0.0174494 -0.0175903 -0.0177525 -0.0179361 -0.018141 -0.0183672 -0.0186147 -0.0188836 -0.0191738 -0.0194383 -0.01963 -0.0197491 -0.0197954 -0.019769 -0.0196699 -0.0194981 -0.0192536 -0.0188595 -0.0182389 -0.0173919 -0.0163184 -0.0150185 -0.0134921 -0.0117393 -0.00976002 -0.007566 -0.00516896 -0.00256888 0.000234228 0.00324037 0.00644955 0.00986175 0.013477 0.0171489 0.0207311 0.0242237 0.0276266 0.0309398 0.0341633 0.0372971 0.0403413 0.0431487 0.0455724 0.0476124 0.0492687 0.0505412 0.05143 0.0519351 0.0520565 0.0518099 0.0512111 0.0502601 0.0489569 0.0473015 0.0452939 0.0429342 0.0402222 0.0373254 0.034411 0.0314791 0.0285296 0.0255626 0.022578 0.0195758 0.0165561 0.0136593 0.0110258 0.00865566 0.00654883 0.00470533 0.00312515 0.00180831 0.00075479 -8.65355e-05 -0.000766807 -0.00128603 -0.00164419 -0.0018413 -0.00187736 -0.00175236 -0.00146631 -0.00112264 -0.000824799 -0.000572777 -0.000366577 -0.0002062 -9.16443e-05 -2.29111e-05 0 0 -3.98282e-05 -0.000159313 -0.000358453 -0.00063725 -0.000995704 -0.00143381 -0.00195158 -0.002549 -0.00320752 -0.00390859 -0.00465219 -0.00543834 -0.00626703 -0.00713826 -0.00805204 -0.00900835 -0.00995397 -0.0108357 -0.0116534 -0.0124072 -0.0130971 -0.013723 -0.014285 -0.0147831 -0.015223 -0.0156105 -0.0159456 -0.0162283 -0.0164587 -0.0166366 -0.0167622 -0.0168353 -0.0168898 -0.0169592 -0.0170437 -0.0171431 -0.0172576 -0.017387 -0.0175315 -0.0176909 -0.017878 -0.0181055 -0.0183733 -0.0186814 -0.01903 -0.0194188 -0.019848 -0.0203176 -0.0207619 -0.0211156 -0.0213785 -0.0215506 -0.021632 -0.0216227 -0.0215226 -0.0213318 -0.0209498 -0.0202764 -0.0193115 -0.018055 -0.0165071 -0.0146676 -0.0125366 -0.0101142 -0.0074149 -0.00445354 -0.0012301 0.00225543 0.00600304 0.0100127 0.0142845 0.0188184 0.0234286 0.0279292 0.0323203 0.0366018 0.0407738 0.0448362 0.0487892 0.0526325 0.0561798 0.0592444 0.0618262 0.0639254 0.0655419 0.0666757 0.0673268 0.0674952 0.0671992 0.0664574 0.0652696 0.0636358 0.0615562 0.0590305 0.056059 0.0526415 0.0489869 0.0453042 0.0415933 0.0378543 0.0340871 0.0302917 0.0264681 0.0226164 0.0189126 0.015533 0.0124775 0.00974615 0.00733892 0.00525583 0.00349687 0.00206204 0.000892494 -7.0633e-05 -0.000827336 -0.00137762 -0.00172147 -0.00185891 -0.00178992 -0.0015145 -0.00115954 -0.000851907 -0.000591602 -0.000378625 -0.000212977 -9.46563e-05 -2.36641e-05 0 0 -4.51277e-05 -0.000180511 -0.00040615 -0.000722044 -0.00112819 -0.0016246 -0.00221126 -0.00288817 -0.00362918 -0.00440811 -0.00522497 -0.00607975 -0.00697245 -0.00790308 -0.00887163 -0.00987811 -0.0108609 -0.0117583 -0.0125705 -0.0132973 -0.0139387 -0.0144949 -0.0149657 -0.0153512 -0.0156659 -0.0159242 -0.0161262 -0.0162718 -0.0163611 -0.0163941 -0.0163707 -0.016291 -0.016203 -0.0161548 -0.0161465 -0.0161779 -0.0162491 -0.0163602 -0.016511 -0.0167016 -0.0169454 -0.0172557 -0.0176326 -0.0180759 -0.0185858 -0.0191621 -0.019805 -0.0205144 -0.0212013 -0.0217768 -0.0222407 -0.0225931 -0.0228341 -0.0229636 -0.0229816 -0.0228881 -0.0225543 -0.0218513 -0.0207792 -0.0193379 -0.0175274 -0.0153478 -0.012799 -0.00988099 -0.00661204 -0.00301032 0.000924183 0.00519147 0.00979153 0.0147244 0.01999 0.0255884 0.0312874 0.0368547 0.0422903 0.0475943 0.0527666 0.0578072 0.0627162 0.0674935 0.0719061 0.0757209 0.0789378 0.0815569 0.0835782 0.0850016 0.0858273 0.0860551 0.085706 0.0848011 0.0833404 0.0813237 0.0787513 0.0756229 0.0719387 0.0676987 0.0631595 0.058578 0.0539542 0.0492881 0.0445796 0.0398287 0.0350356 0.0302001 0.0255398 0.0212723 0.0173975 0.0139154 0.0108261 0.0081295 0.00582567 0.00391458 0.00233004 0.00100584 -5.80194e-05 -0.000861532 -0.0014047 -0.00168753 -0.00171001 -0.00147214 -0.00112711 -0.00082808 -0.000575056 -0.000368036 -0.00020702 -9.20089e-05 -2.30022e-05 0 0 -5.02907e-05 -0.000201163 -0.000452617 -0.000804652 -0.00125727 -0.00181047 -0.00246425 -0.00321861 -0.00403804 -0.00488704 -0.0057656 -0.00667372 -0.00761141 -0.00857867 -0.00957548 -0.0106019 -0.0115875 -0.0124622 -0.0132258 -0.0138785 -0.0144201 -0.0148508 -0.0151704 -0.015379 -0.0155026 -0.0155672 -0.0155727 -0.0155192 -0.0154066 -0.0152349 -0.0150042 -0.0147144 -0.0144314 -0.014221 -0.014083 -0.0140177 -0.0140248 -0.0141045 -0.0142568 -0.0144816 -0.0147925 -0.0152033 -0.0157139 -0.0163244 -0.0170346 -0.0178447 -0.0187546 -0.0197643 -0.0207564 -0.0216136 -0.0223358 -0.0229231 -0.0233754 -0.0236927 -0.0238751 -0.0239226 -0.0236728 -0.0229636 -0.021795 -0.020167 -0.0180795 -0.0155326 -0.0125263 -0.00906049 -0.00515745 -0.000839294 0.00389397 0.00904235 0.0146058 0.0205844 0.0269782 0.033787 0.0407253 0.0475076 0.0541339 0.0606041 0.0669182 0.0730763 0.0790783 0.0849243 0.0903276 0.0950019 0.0989471 0.102163 0.10465 0.106408 0.107437 0.107736 0.10733 0.106242 0.104472 0.102021 0.0988869 0.0950711 0.0905735 0.0853938 0.0798432 0.0742325 0.0685617 0.0628309 0.0570401 0.0511892 0.0452783 0.0393073 0.0335409 0.0282436 0.0234155 0.0190566 0.0151668 0.0117462 0.00879471 0.00631241 0.0042261 0.0024626 0.00102192 -9.59387e-05 -0.000890986 -0.00136322 -0.00151263 -0.00133923 -0.00102535 -0.000753319 -0.000523138 -0.000334808 -0.00018833 -8.37021e-05 -2.09255e-05 0 0 -5.53172e-05 -0.000221269 -0.000497855 -0.000885075 -0.00138293 -0.00199142 -0.00271054 -0.0035403 -0.00443411 -0.00534537 -0.00627409 -0.00722028 -0.00818392 -0.00916502 -0.0101636 -0.0111796 -0.0121339 -0.0129472 -0.0136195 -0.0141509 -0.0145412 -0.0147906 -0.0148991 -0.0148666 -0.0147333 -0.0145395 -0.0142851 -0.0139703 -0.0135949 -0.013159 -0.0126626 -0.0121056 -0.011575 -0.0111576 -0.0108534 -0.0106624 -0.0105847 -0.0106201 -0.0107688 -0.0110307 -0.0114193 -0.0119482 -0.0126174 -0.0134268 -0.0143765 -0.0154664 -0.0166966 -0.0180671 -0.0194271 -0.020626 -0.0216637 -0.0225403 -0.0232557 -0.02381 -0.0242032 -0.0244351 -0.0243054 -0.0236134 -0.022359 -0.0205424 -0.0181634 -0.0152221 -0.0117186 -0.00765268 -0.00305111 0.00205954 0.00767927 0.0138081 0.020446 0.0275929 0.035249 0.0434141 0.0517424 0.059888 0.0678509 0.0756311 0.0832286 0.0906433 0.0978754 0.104925 0.111444 0.117088 0.121854 0.125744 0.128758 0.130894 0.132155 0.132538 0.132072 0.130781 0.128666 0.125727 0.121963 0.117375 0.111963 0.105727 0.0990378 0.0922675 0.0854159 0.0784829 0.0714686 0.0643731 0.0571962 0.049938 0.0429158 0.0364471 0.0305317 0.0251697 0.0203611 0.0161058 0.012404 0.00925553 0.00658068 0.00429967 0.0024125 0.000919165 -0.000180328 -0.000885982 -0.0011978 -0.00111577 -0.000854264 -0.000627623 -0.000435849 -0.000278943 -0.000156906 -6.97358e-05 -1.7434e-05 0 0 -6.02071e-05 -0.000240828 -0.000541864 -0.000963314 -0.00150518 -0.00216746 -0.00295015 -0.00385325 -0.00481737 -0.00578311 -0.00675045 -0.00771941 -0.00868998 -0.00966216 -0.010636 -0.0116114 -0.0125 -0.0132133 -0.0137515 -0.0141144 -0.0143021 -0.0143145 -0.0141518 -0.0138138 -0.0133578 -0.012841 -0.0122635 -0.0116252 -0.0109262 -0.0101664 -0.00934582 -0.0084645 -0.0076337 -0.00696472 -0.00645756 -0.00611223 -0.00592871 -0.00590701 -0.00604713 -0.00634907 -0.00682585 -0.00749047 -0.00834293 -0.00938325 -0.0106114 -0.0120274 -0.0136313 -0.015423 -0.0172136 -0.0188141 -0.0202245 -0.0214449 -0.0224753 -0.0233155 -0.0239657 -0.0244259 -0.0244521 -0.0238005 -0.0224711 -0.020464 -0.017779 -0.0144163 -0.0103758 -0.00565755 -0.000293031 0.00568617 0.0122801 0.0194886 0.0273119 0.0357499 0.0448025 0.0544699 0.0643387 0.0739959 0.0834415 0.0926755 0.101698 0.110508 0.119107 0.127495 0.135256 0.141978 0.147659 0.1523 0.155901 0.158461 0.159982 0.160462 0.159931 0.158417 0.155921 0.152441 0.14798 0.142535 0.136108 0.128698 0.120744 0.112683 0.104517 0.096244 0.0878652 0.0793803 0.0707893 0.0620922 0.0536647 0.0458826 0.038746 0.0322547 0.0264089 0.0212085 0.0166535 0.0127439 0.00939377 0.00651703 0.0041137 0.00218378 0.000727274 -0.000255818 -0.000765497 -0.000801763 -0.00061385 -0.000450992 -0.000313189 -0.000200441 -0.000112748 -5.01102e-05 -1.25275e-05 0 0 -6.49604e-05 -0.000259842 -0.000584644 -0.00103937 -0.00162401 -0.00233858 -0.00318306 -0.00415747 -0.00518785 -0.00620025 -0.00719467 -0.00817111 -0.00912957 -0.0100701 -0.0109926 -0.0118971 -0.0126858 -0.0132606 -0.0136217 -0.0137691 -0.0137026 -0.0134224 -0.0129284 -0.0122207 -0.0113761 -0.0104718 -0.00950779 -0.00848398 -0.00740041 -0.00625707 -0.00505398 -0.00379112 -0.00260756 -0.00164236 -0.000895514 -0.000367026 -5.68943e-05 3.48803e-05 -9.17018e-05 -0.000436641 -0.00101204 -0.00183002 -0.00289056 -0.00419368 -0.00573936 -0.00752762 -0.00955845 -0.0118318 -0.0141157 -0.0161778 -0.0180182 -0.0196369 -0.0210339 -0.0222092 -0.0231628 -0.0238947 -0.0241128 -0.023525 -0.0221314 -0.0199318 -0.0169265 -0.0131152 -0.00849808 -0.0030751 0.00311679 0.0100406 0.0176964 0.0260841 0.0352037 0.0450552 0.0556387 0.0669542 0.0785141 0.0898313 0.100906 0.111737 0.122326 0.132672 0.142775 0.152635 0.161764 0.169672 0.176361 0.18183 0.186079 0.189108 0.190918 0.191507 0.190907 0.189151 0.186237 0.182165 0.176937 0.170551 0.163007 0.154307 0.14496 0.135479 0.125864 0.116114 0.10623 0.096211 0.0860576 0.0757698 0.0657874 0.0565502 0.0480583 0.0403117 0.0333103 0.0270541 0.0215433 0.0167776 0.0126654 0.00911468 0.00612552 0.0036979 0.00183182 0.000527274 -0.000215733 -0.000397202 -0.000304107 -0.000223426 -0.000155157 -9.93004e-05 -5.58565e-05 -2.48251e-05 -6.20627e-06 0 0 -6.85933e-05 -0.000274373 -0.000617339 -0.00109749 -0.00171483 -0.00246936 -0.00336107 -0.00438997 -0.00546532 -0.00649637 -0.00748313 -0.00842559 -0.00932376 -0.0101776 -0.0109872 -0.0117525 -0.0123666 -0.0127224 -0.01282 -0.0126595 -0.0122407 -0.0115637 -0.0106286 -0.00943519 -0.00808482 -0.00667866 -0.00521672 -0.00369899 -0.00212547 -0.000496169 0.00118892 0.00292981 0.00455477 0.00589214 0.00694189 0.00770403 0.00817856 0.00836548 0.00826479 0.00787649 0.00718995 0.00619453 0.00489023 0.00327706 0.001355 -0.000875931 -0.00341574 -0.00626443 -0.00914027 -0.0117615 -0.0141282 -0.0162403 -0.0180978 -0.0197008 -0.0210491 -0.0221429 -0.0226359 -0.0221817 -0.0207805 -0.0184323 -0.015137 -0.0108946 -0.00570508 0.000431467 0.00747213 0.0153739 0.0241369 0.0337611 0.0442463 0.0555928 0.0678004 0.0808691 0.0942308 0.107317 0.120128 0.132663 0.144923 0.156908 0.168617 0.180051 0.190642 0.199821 0.207588 0.213944 0.218888 0.222421 0.224543 0.225252 0.224584 0.222572 0.219215 0.214514 0.208469 0.201079 0.192345 0.182266 0.171432 0.16043 0.149261 0.137924 0.126419 0.114747 0.102907 0.0908998 0.079234 0.0684185 0.0584534 0.0493387 0.0410743 0.0336603 0.0270967 0.0213834 0.0164241 0.0121221 0.00847753 0.00549035 0.00316056 0.00148818 0.000473185 0.00011559 8.84983e-05 6.50192e-05 4.51522e-05 2.88974e-05 1.62548e-05 7.22435e-06 1.80609e-06 0 0 -7.01216e-05 -0.000280487 -0.000631095 -0.00112195 -0.00175304 -0.00252438 -0.00343596 -0.00448779 -0.00556957 -0.00657105 -0.0074922 -0.00833305 -0.00909357 -0.00977378 -0.0103737 -0.0108933 -0.0112176 -0.0112319 -0.010936 -0.0103301 -0.00941405 -0.00818789 -0.00665163 -0.00480526 -0.00278028 -0.000708196 0.001411 0.00357729 0.0057907 0.00805121 0.0103588 0.0127136 0.0149047 0.0167214 0.0181638 0.0192318 0.0199254 0.0202447 0.0201897 0.0197602 0.018948 0.0177446 0.0161499 0.0141641 0.011787 0.00901876 0.00585928 0.00230858 -0.00129412 -0.00460964 -0.00763797 -0.0103791 -0.0128331 -0.0149998 -0.0168794 -0.0184718 -0.0193696 -0.0191655 -0.0178595 -0.0154517 -0.0119419 -0.00733017 -0.00161657 0.00519893 0.0130667 0.0219372 0.0318105 0.0426864 0.0545649 0.0674462 0.0813302 0.0962169 0.111451 0.126376 0.140993 0.155302 0.169302 0.182993 0.196376 0.209451 0.221566 0.232071 0.240965 0.248249 0.253922 0.257985 0.260437 0.261279 0.260545 0.258272 0.254458 0.249104 0.242211 0.233777 0.223803 0.212289 0.199902 0.187309 0.174509 0.161502 0.148289 0.134869 0.121243 0.107411 0.0939543 0.0814559 0.0699157 0.0593338 0.0497101 0.0410446 0.0333373 0.0265883 0.0206984 0.0155688 0.0111993 0.00758993 0.00474077 0.00265177 0.00132295 0.00075429 0.000577503 0.000424288 0.000294645 0.000188573 0.000106072 4.71431e-05 1.17858e-05 0 0 -6.95456e-05 -0.000278182 -0.00062591 -0.00111273 -0.00173864 -0.00250364 -0.00340773 -0.00445092 -0.00550062 -0.00642429 -0.0072219 -0.00789348 -0.00843901 -0.0088585 -0.00915195 -0.00931935 -0.00923898 -0.00878914 -0.0079698 -0.00678099 -0.00522269 -0.0032949 -0.000997629 0.00166913 0.00453748 0.00743956 0.0103754 0.0133449 0.0163481 0.0193851 0.0224557 0.0255601 0.0284421 0.0308454 0.0327702 0.0342163 0.0351838 0.0356727 0.0356829 0.0352146 0.0342622 0.0328202 0.0308886 0.0284675 0.0255567 0.0221565 0.0182666 0.0138872 0.00942275 0.00527785 0.00145249 -0.00205334 -0.00523963 -0.00810638 -0.0106536 -0.0128813 -0.014314 -0.0144764 -0.0133683 -0.01099 -0.00734119 -0.00242206 0.00376744 0.0112273 0.0199006 0.0297305 0.040717 0.05286 0.0661595 0.0806156 0.0962283 0.112997 0.130174 0.147009 0.163501 0.179652 0.19546 0.210927 0.226052 0.240834 0.254538 0.266424 0.276493 0.284746 0.291181 0.2958 0.298601 0.299586 0.29879 0.296249 0.291965 0.285935 0.278162 0.268644 0.257382 0.244375 0.230371 0.216115 0.201608 0.18685 0.17184 0.156579 0.141067 0.125303 0.109948 0.0956624 0.0824453 0.070297 0.0592175 0.0492069 0.0402651 0.0323921 0.0254884 0.0194547 0.0142907 0.00999664 0.00657243 0.00401806 0.00233355 0.0015189 0.00116291 0.000854381 0.00059332 0.000379725 0.000213595 9.49312e-05 2.37328e-05 0 0 -6.6865e-05 -0.00026746 -0.000601785 -0.00106984 -0.00167162 -0.00240714 -0.00327638 -0.00427936 -0.00525846 -0.00605608 -0.00667223 -0.00710689 -0.00736008 -0.00743179 -0.00732202 -0.00703077 -0.00643062 -0.00539412 -0.00392129 -0.00201212 0.000333393 0.00311524 0.00633343 0.00998796 0.0138685 0.0177646 0.0216764 0.0256038 0.0295468 0.0335054 0.0374797 0.0414695 0.0451671 0.0482642 0.050761 0.0526574 0.0539535 0.0546492 0.0547446 0.0542396 0.0531324 0.0514212 0.0491062 0.0461871 0.0426641 0.0385372 0.0338063 0.0284714 0.0230104 0.017901 0.0131432 0.008737 0.00468246 0.000979536 -0.00237176 -0.00537144 -0.00746907 -0.00811423 -0.00730693 -0.00504716 -0.00133493 0.00382978 0.0104469 0.0185166 0.0279738 0.0387538 0.0508565 0.0642819 0.07903 0.0951009 0.112494 0.131211 0.150401 0.169214 0.187652 0.205714 0.2234 0.240709 0.257643 0.274201 0.289556 0.302879 0.314172 0.323434 0.330665 0.335866 0.339035 0.340174 0.339318 0.336506 0.331735 0.325008 0.316323 0.305681 0.293081 0.278524 0.262838 0.246849 0.230559 0.213966 0.197072 0.179875 0.162377 0.144577 0.127216 0.111038 0.0960421 0.0822283 0.0695967 0.0581473 0.04788 0.0387949 0.0307941 0.0237798 0.0177519 0.0127105 0.00865554 0.00558704 0.003505 0.00240942 0.00184471 0.0013553 0.000941179 0.000602355 0.000338825 0.000150589 3.76472e-05 0 0 -6.208e-05 -0.00024832 -0.00055872 -0.00099328 -0.001552 -0.00223488 -0.00304192 -0.00397312 -0.00484309 -0.00546644 -0.00584317 -0.00597328 -0.00585678 -0.00549365 -0.0048839 -0.00402754 -0.00279253 -0.00104685 0.00120949 0.0039765 0.00725419 0.0110425 0.0153416 0.0201512 0.0252127 0.0302669 0.035314 0.0403539 0.0453867 0.0504122 0.0554306 0.0604418 0.0650796 0.0689778 0.0721364 0.0745553 0.0762347 0.0771745 0.0773746 0.0768351 0.0755587 0.0735478 0.0708027 0.0673231 0.0631092 0.0581609 0.0524782 0.0460612 0.0394687 0.0332597 0.0274341 0.0219919 0.0169332 0.0122579 0.00796613 0.00405776 0.0011652 -7.91554e-05 0.00032468 0.00237671 0.00607693 0.0114253 0.018422 0.0270668 0.0372863 0.049007 0.0622289 0.0769521 0.0931765 0.110902 0.130129 0.150857 0.17213 0.192993 0.213446 0.233488 0.253119 0.272341 0.291151 0.309551 0.32662 0.341437 0.354002 0.364314 0.372374 0.378183 0.381739 0.383042 0.382131 0.37904 0.37377 0.366322 0.356694 0.344887 0.330902 0.314737 0.297304 0.279512 0.261361 0.242852 0.223985 0.204759 0.185174 0.165231 0.145758 0.127583 0.110706 0