<?xml version="1.0"?> 
<VTKFile type="StructuredGrid" version="0.1"> 
<StructuredGrid WholeExtent="0 128 0 128 0 0"> 
<Piece Extent="0 128 0 128 0 0"> 
<PointData>
<DataArray type="Float32" Name="u" format="ascii" NumberOfComponents="1"> 
0 0 0 0 0 0 0 0 0 0 0 0 0 0 0 0 0 0 0 0 0 0 0 0 0 0 0 0 0 0 0 0 0 0 0 0 0 0 0 0 0 0 0 0 0 0 0 0 0 0 0 0 0 0 0 0 0 0 0 0 0 0 0 0 0 0 0 0 0 0 0 0 0 0 0 0 0 0 0 0 0 0 0 0 0 0 0 0 0 0 0 0 0 0 0 0 0 0 0 0 0 0 0 0 0 0 0 0 0 0 0 0 0 0 0 0 0 0 0 0 0 0 0 0 0 0 0 0 0 0 -2.70486e-07 -1.08194e-06 -2.43437e-06 -4.32777e-06 -6.76214e-06 -9.73749e-06 -1.32538e-05 -1.73111e-05 -2.15837e-05 -2.57462e-05 -2.97984e-05 -3.37403e-05 -3.75721e-05 -4.12936e-05 -4.49049e-05 -4.84059e-05 -5.14155e-05 -5.35522e-05 -5.48161e-05 -5.52072e-05 -5.47255e-05 -5.3371e-05 -5.11437e-05 -4.80435e-05 -4.44684e-05 -4.08159e-05 -3.70861e-05 -3.3279e-05 -2.93946e-05 -2.5433e-05 -2.1394e-05 -1.72777e-05 -1.36077e-05 -1.09074e-05 -9.17681e-06 -8.41602e-06 -8.62497e-06 -9.80366e-06 -1.19521e-05 -1.50703e-05 -1.90541e-05 -2.37994e-05 -2.93061e-05 -3.55743e-05 -4.26039e-05 -5.0395e-05 -5.89476e-05 -6.82617e-05 -7.74978e-05 -8.58166e-05 -9.32182e-05 -9.97026e-05 -0.00010527 -0.000109919 -0.000113652 -0.000116467 -0.000117509 -0.00011592 -0.0001117 -0.000104851 -9.53703e-05 -8.32597e-05 -6.85187e-05 -5.11472e-05 -3.12713e-05 -9.0166e-06 1.56167e-05 4.26287e-05 7.20194e-05 0.000103789 0.000137937 0.000174463 0.000211883 0.000248708 0.000284941 0.000320579 0.000355624 0.000390076 0.000423934 0.000457199 0.000488228 0.000515379 0.000538652 0.000558047 0.000573565 0.000585204 0.000592966 0.00059685 0.000596889 0.000593113 0.000585524 0.000574122 0.000558906 0.000539876 0.000517033 0.000490376 0.000461552 0.000432209 0.000402345 0.000371962 0.000341059 0.000309637 0.000277694 0.000245232 0.000213645 0.000184327 0.000157278 0.000132498 0.000109989 8.97479e-05 7.17766e-05 5.60747e-05 4.2435e-05 3.06506e-05 2.07213e-05 1.26473e-05 6.42839e-06 2.0647e-06 -4.43805e-07 -1.09712e-06 -8.39982e-07 -6.1713e-07 -4.28562e-07 -2.7428e-07 -1.54282e-07 -6.857e-08 -1.71425e-08 0 0 -1.08194e-06 -4.32777e-06 -9.73749e-06 -1.73111e-05 -2.70486e-05 -3.89499e-05 -5.30152e-05 -6.92443e-05 -8.6335e-05 -0.000102985 -0.000119193 -0.000134961 -0.000150288 -0.000165174 -0.00017962 -0.000193624 -0.000205662 -0.000214209 -0.000219264 -0.000220829 -0.000218902 -0.000213484 -0.000204575 -0.000192174 -0.000177873 -0.000163263 -0.000148344 -0.000133116 -0.000117579 -0.000101732 -8.55759e-05 -6.91108e-05 -5.44306e-05 -4.36295e-05 -3.67073e-05 -3.36641e-05 -3.44999e-05 -3.92147e-05 -4.78085e-05 -6.02812e-05 -7.62165e-05 -9.51975e-05 -0.000117224 -0.000142297 -0.000170416 -0.00020158 -0.00023579 -0.000273047 -0.000309991 -0.000343267 -0.000372873 -0.00039881 -0.000421079 -0.000439678 -0.000454608 -0.000465869 -0.000470035 -0.000463679 -0.000446801 -0.000419402 -0.000381481 -0.000333039 -0.000274075 -0.000204589 -0.000125085 -3.60664e-05 6.24669e-05 0.000170515 0.000288077 0.000415155 0.000551747 0.000697853 0.00084753 0.000994833 0.00113976 0.00128232 0.0014225 0.0015603 0.00169574 0.00182879 0.00195291 0.00206151 0.00215461 0.00223219 0.00229426 0.00234082 0.00237187 0.0023874 0.00238755 0.00237245 0.0023421 0.00229649 0.00223562 0.0021595 0.00206813 0.0019615 0.00184621 0.00172883 0.00160938 0.00148785 0.00136424 0.00123855 0.00111078 0.000980928 0.000854579 0.000737306 0.000629111 0.000529994 0.000439954 0.000358991 0.000287106 0.000224299 0.00016974 0.000122602 8.28854e-05 5.05891e-05 2.57136e-05 8.25879e-06 -1.77522e-06 -4.38848e-06 -3.35993e-06 -2.46852e-06 -1.71425e-06 -1.09712e-06 -6.1713e-07 -2.7428e-07 -6.857e-08 0 0 -2.43437e-06 -9.73749e-06 -2.19093e-05 -3.89499e-05 -6.08593e-05 -8.76374e-05 -0.000119284 -0.0001558 -0.000194254 -0.000231716 -0.000268185 -0.000303663 -0.000338149 -0.000371642 -0.000404144 -0.000435653 -0.000462739 -0.00048197 -0.000493345 -0.000496865 -0.00049253 -0.000480339 -0.000460293 -0.000432392 -0.000400215 -0.000367343 -0.000333775 -0.000299511 -0.000264552 -0.000228897 -0.000192546 -0.000155499 -0.000122469 -9.81663e-05 -8.25913e-05 -7.57441e-05 -7.76247e-05 -8.8233e-05 -0.000107569 -0.000135633 -0.000171487 -0.000214194 -0.000263755 -0.000320169 -0.000383435 -0.000453555 -0.000530529 -0.000614355 -0.00069748 -0.00077235 -0.000838964 -0.000897323 -0.000947427 -0.000989275 -0.00102287 -0.00104821 -0.00105758 -0.00104328 -0.0010053 -0.000943655 -0.000858333 -0.000749338 -0.000616668 -0.000460325 -0.000281441 -8.11494e-05 0.000140551 0.000383658 0.000648174 0.000934098 0.00124143 0.00157017 0.00190694 0.00223837 0.00256446 0.00288521 0.00320062 0.00351068 0.00381541 0.00411479 0.00439405 0.00463841 0.00484787 0.00502242 0.00516208 0.00526684 0.0053367 0.00537165 0.005372 0.00533802 0.00526972 0.0051671 0.00503015 0.00485888 0.00465329 0.00441338 0.00415397 0.00388988 0.00362111 0.00334766 0.00306953 0.00278673 0.00249925 0.00220709 0.0019228 0.00165894 0.0014155 0.00119249 0.000989897 0.000807731 0.000645989 0.000504672 0.000381915 0.000275855 0.000186492 0.000113825 5.78555e-05 1.85823e-05 -3.99424e-06 -9.87407e-06 -7.55984e-06 -5.55417e-06 -3.85706e-06 -2.46852e-06 -1.38854e-06 -6.1713e-07 -1.54282e-07 0 0 -4.32777e-06 -1.73111e-05 -3.89499e-05 -6.92443e-05 -0.000108194 -0.0001558 -0.000212061 -0.000276977 -0.00034534 -0.000411939 -0.000476774 -0.000539845 -0.000601153 -0.000660697 -0.000718478 -0.000774495 -0.000822647 -0.000856835 -0.000877058 -0.000883315 -0.000875608 -0.000853936 -0.000818299 -0.000768697 -0.000711494 -0.000653054 -0.000593377 -0.000532464 -0.000470314 -0.000406927 -0.000342304 -0.000276443 -0.000217723 -0.000174518 -0.000146829 -0.000134656 -0.000137999 -0.000156859 -0.000191234 -0.000241125 -0.000304866 -0.00038079 -0.000468898 -0.000569189 -0.000681663 -0.000806321 -0.000943162 -0.00109219 -0.00123996 -0.00137307 -0.00149149 -0.00159524 -0.00168431 -0.00175871 -0.00181843 -0.00186348 -0.00188014 -0.00185472 -0.00178721 -0.00167761 -0.00152593 -0.00133216 -0.0010963 -0.000818356 -0.00050034 -0.000144266 0.000249868 0.000682059 0.00115231 0.00166062 0.00220699 0.00279141 0.00339012 0.00397933 0.00455905 0.00512927 0.00568999 0.00624122 0.00678294 0.00731518 0.00781164 0.00824606 0.00861843 0.00892875 0.00917704 0.00936327 0.00948746 0.0095496 0.00955022 0.00948981 0.00936839 0.00918595 0.00894249 0.00863801 0.00827252 0.00784601 0.00738483 0.00691534 0.00643752 0.0059514 0.00545695 0.00495419 0.00444311 0.00392371 0.00341831 0.00294923 0.00251645 0.00211998 0.00175982 0.00143597 0.00114843 0.000897195 0.000678961 0.00049041 0.000331541 0.000202356 0.000102854 3.30352e-05 -7.10088e-06 -1.75539e-05 -1.34397e-05 -9.87407e-06 -6.857e-06 -4.38848e-06 -2.46852e-06 -1.09712e-06 -2.7428e-07 0 0 -6.76214e-06 -2.70486e-05 -6.08593e-05 -0.000108194 -0.000169054 -0.000243437 -0.000331345 -0.000432777 -0.000539594 -0.000643654 -0.000744959 -0.000843509 -0.000939302 -0.00103234 -0.00112262 -0.00121015 -0.00128539 -0.0013388 -0.0013704 -0.00138018 -0.00136814 -0.00133427 -0.00127859 -0.00120109 -0.00111171 -0.0010204 -0.000927152 -0.000831975 -0.000734866 -0.000635824 -0.00053485 -0.000431943 -0.000340192 -0.000272684 -0.00022942 -0.0002104 -0.000215624 -0.000245092 -0.000298803 -0.000376758 -0.000476353 -0.000594984 -0.000732653 -0.000889357 -0.0010651 -0.00125988 -0.00147369 -0.00170654 -0.00193744 -0.00214542 -0.00233046 -0.00249256 -0.00263174 -0.00274799 -0.0028413 -0.00291168 -0.00293772 -0.00289799 -0.00279251 -0.00262126 -0.00238426 -0.00208149 -0.00171297 -0.00127868 -0.000781781 -0.000225415 0.000390418 0.00106572 0.00180048 0.00259472 0.00344842 0.00436158 0.00529706 0.00621771 0.00712351 0.00801448 0.00889061 0.0097519 0.0105984 0.01143 0.0122057 0.0128845 0.0134663 0.0139512 0.0143391 0.0146301 0.0148242 0.0149213 0.0149222 0.0148278 0.0146381 0.014353 0.0139726 0.0134969 0.0129258 0.0122594 0.0115388 0.0108052 0.0100586 0.00929906 0.00852649 0.00774092 0.00694236 0.0061308 0.00534112 0.00460816 0.00393195 0.00331246 0.00274971 0.0022437 0.00179441 0.00140187 0.00106088 0.000766265 0.000518034 0.000316182 0.00016071 5.16175e-05 -1.10951e-05 -2.7428e-05 -2.09996e-05 -1.54282e-05 -1.07141e-05 -6.857e-06 -3.85706e-06 -1.71425e-06 -4.28562e-07 0 0 -9.73749e-06 -3.89499e-05 -8.76374e-05 -0.0001558 -0.000243437 -0.00035055 -0.000477137 -0.000623199 -0.000777015 -0.000926862 -0.00107274 -0.00121465 -0.00135259 -0.00148657 -0.00161658 -0.00174261 -0.00185096 -0.00192788 -0.00197338 -0.00198746 -0.00197012 -0.00192136 -0.00184117 -0.00172957 -0.00160086 -0.00146937 -0.0013351 -0.00119804 -0.00105821 -0.000915586 -0.000770183 -0.000621998 -0.000489876 -0.000392665 -0.000330365 -0.000302977 -0.000310499 -0.000352932 -0.000430276 -0.000542531 -0.000685948 -0.000856778 -0.00105502 -0.00128067 -0.00153374 -0.00181422 -0.00212211 -0.00245742 -0.00278992 -0.0030894 -0.00335586 -0.00358929 -0.00378971 -0.0039571 -0.00409147 -0.00419282 -0.00423031 -0.00417311 -0.00402121 -0.00377462 -0.00343333 -0.00299735 -0.00246667 -0.0018413 -0.00112577 -0.000324598 0.000562202 0.00153463 0.0025927 0.00373639 0.00496572 0.00628068 0.00762777 0.0089535 0.0102579 0.0115409 0.0128025 0.0140427 0.0152616 0.0164592 0.0175762 0.0185536 0.0193915 0.0200897 0.0206483 0.0210674 0.0213468 0.0214866 0.021488 0.0213521 0.0210789 0.0206684 0.0201206 0.0194355 0.0186132 0.0176535 0.0166159 0.0155595 0.0144844 0.0133906 0.0122781 0.0111469 0.009997 0.00882836 0.00769121 0.00663576 0.005662 0.00476995 0.00395959 0.00323092 0.00258396 0.00201869 0.00152766 0.00110342 0.000745968 0.000455302 0.000231422 7.43291e-05 -1.5977e-05 -3.94963e-05 -3.02394e-05 -2.22167e-05 -1.54282e-05 -9.87407e-06 -5.55417e-06 -2.46852e-06 -6.1713e-07 0 0 -1.32538e-05 -5.30152e-05 -0.000119284 -0.000212061 -0.000331345 -0.000477137 -0.000649436 -0.000848243 -0.0010576 -0.00126156 -0.00146012 -0.00165328 -0.00184103 -0.00202339 -0.00220034 -0.00237189 -0.00251936 -0.00262406 -0.00268599 -0.00270515 -0.00268155 -0.00261518 -0.00250604 -0.00235413 -0.00217895 -0.00199998 -0.00181722 -0.00163067 -0.00144034 -0.00124621 -0.00104831 -0.000846608 -0.000666775 -0.000534461 -0.000449664 -0.000412385 -0.000422623 -0.00048038 -0.000585654 -0.000738445 -0.000933652 -0.00116617 -0.001436 -0.00174314 -0.00208759 -0.00246936 -0.00288843 -0.00334482 -0.00379739 -0.00420502 -0.00456769 -0.00488543 -0.00515821 -0.00538605 -0.00556895 -0.0057069 -0.00575793 -0.00568007 -0.00547332 -0.00513768 -0.00467315 -0.00407973 -0.00335742 -0.00250621 -0.00153229 -0.000441813 0.000765219 0.00208881 0.00352895 0.00508565 0.0067589 0.0085487 0.0103822 0.0121867 0.0139621 0.0157084 0.0174256 0.0191137 0.0207728 0.0224027 0.0239231 0.0252536 0.0263939 0.0273443 0.0281047 0.028675 0.0290553 0.0292457 0.0292475 0.0290625 0.0286907 0.028132 0.0273864 0.0264539 0.0253346 0.0240284 0.022616 0.0211782 0.0197149 0.0182262 0.0167119 0.0151722 0.013607 0.0120164 0.0104686 0.009032 0.00770662 0.00649243 0.00538944 0.00439765 0.00351705 0.00274766 0.00207932 0.00150188 0.00101535 0.000619716 0.000314991 0.00010117 -2.17464e-05 -5.37589e-05 -4.11591e-05 -3.02394e-05 -2.09996e-05 -1.34397e-05 -7.55984e-06 -3.35993e-06 -8.39982e-07 0 0 -1.73111e-05 -6.92443e-05 -0.0001558 -0.000276977 -0.000432777 -0.000623199 -0.000848243 -0.00110791 -0.00138136 -0.00164776 -0.0019071 -0.00215938 -0.00240461 -0.00264279 -0.00287391 -0.00309798 -0.00329059 -0.00342734 -0.00350823 -0.00353326 -0.00350243 -0.00341574 -0.00327319 -0.00307479 -0.00284597 -0.00261222 -0.00237351 -0.00212986 -0.00188126 -0.00162771 -0.00136921 -0.00110577 -0.00087089 -0.000698071 -0.000587316 -0.000538625 -0.000551998 -0.000627435 -0.000764935 -0.0009645 -0.00121946 -0.00152316 -0.00187559 -0.00227675 -0.00272665 -0.00322528 -0.00377265 -0.00436875 -0.00495986 -0.00549227 -0.00596597 -0.00638097 -0.00673726 -0.00703485 -0.00727373 -0.00745391 -0.00752056 -0.00741886 -0.00714882 -0.00671044 -0.0061037 -0.00532862 -0.0043852 -0.00327342 -0.00200136 -0.000577062 0.00099947 0.00272824 0.00460924 0.00664248 0.00882795 0.0111657 0.0135605 0.0159173 0.0182362 0.0205171 0.02276 0.0249649 0.0271318 0.0292607 0.0312466 0.0329842 0.0344737 0.035715 0.0367081 0.0374531 0.0379498 0.0381984 0.0382009 0.0379592 0.0374736 0.0367438 0.03577 0.0345521 0.0330901 0.031384 0.0295393 0.0276613 0.0257501 0.0238056 0.0218278 0.0198168 0.0177724 0.0156949 0.0136733 0.0117969 0.0100658 0.0084799 0.00703926 0.00574386 0.0045937 0.00358878 0.00271584 0.00196164 0.00132617 0.000809425 0.000411417 0.000132141 -2.84035e-05 -7.02156e-05 -5.37589e-05 -3.94963e-05 -2.7428e-05 -1.75539e-05 -9.87407e-06 -4.38848e-06 -1.09712e-06 0 0 -2.1432e-05 -8.57278e-05 -0.000192888 -0.000342911 -0.000535799 -0.000771551 -0.00105017 -0.00137165 -0.00170928 -0.00203636 -0.00235289 -0.00265886 -0.00295427 -0.00323914 -0.00351345 -0.0037772 -0.00400004 -0.0041516 -0.00423188 -0.00424088 -0.00417861 -0.00404505 -0.00384022 -0.00356411 -0.00324972 -0.00293007 -0.00260515 -0.00227495 -0.00193949 -0.00159877 -0.00125277 -0.000901503 -0.000588034 -0.000355431 -0.000203692 -0.000132817 -0.000142807 -0.000233661 -0.000405379 -0.000657962 -0.000982664 -0.00137074 -0.00182219 -0.00233701 -0.00291521 -0.00355677 -0.00426172 -0.00503003 -0.00579266 -0.00648054 -0.00709367 -0.00763205 -0.00809569 -0.00848457 -0.00879871 -0.0090381 -0.00913259 -0.00901202 -0.0086764 -0.00812572 -0.00735999 -0.0063792 -0.00518336 -0.00377247 -0.00215685 -0.000346852 0.00165753 0.00385631 0.00624946 0.00883701 0.0116189 0.0145952 0.0176446 0.0206458 0.0235987 0.0265035 0.0293599 0.0321682 0.0349282 0.0376401 0.0401697 0.0423833 0.0442809 0.0458624 0.0471279 0.0480773 0.0487107 0.049028 0.0490316 0.048724 0.048105 0.0471748 0.0459332 0.0443804 0.0425162 0.0403408 0.0379879 0.0355916 0.0331518 0.0306686 0.0281418 0.0255716 0.0229578 0.0203006 0.0177136 0.0153107 0.0130917 0.0110567 0.00920569 0.00753868 0.00605565 0.00475661 0.00362556 0.00264651 0.00181946 0.00114442 0.000621366 0.000250315 3.12638e-05 -3.57886e-05 -2.74007e-05 -2.01311e-05 -1.39799e-05 -8.94715e-06 -5.03277e-06 -2.23679e-06 -5.59197e-07 0 0 -2.5139e-05 -0.000100556 -0.000226251 -0.000402224 -0.000628476 -0.000905005 -0.00123181 -0.0016089 -0.00200236 -0.0023783 -0.00273671 -0.00307759 -0.00340095 -0.00370679 -0.0039951 -0.00426588 -0.0044831 -0.00461071 -0.00464872 -0.00459712 -0.00445592 -0.00422511 -0.0039047 -0.00349468 -0.00303798 -0.00257752 -0.0021133 -0.00164532 -0.00117358 -0.000698081 -0.000218822 0.000264197 0.000695978 0.00102153 0.00124084 0.00135392 0.00136077 0.00126138 0.00105576 0.0007439 0.000337465 -0.000151897 -0.000724185 -0.0013794 -0.00211754 -0.0029386 -0.0038426 -0.00482952 -0.00581113 -0.00669923 -0.00749379 -0.00819483 -0.00880234 -0.00931633 -0.00973679 -0.0100637 -0.0102084 -0.0100821 -0.00968471 -0.00901636 -0.008077 -0.00686663 -0.00538526 -0.00363289 -0.00162265 0.00063231 0.00313199 0.00587639 0.00886551 0.0120994 0.0155779 0.0193012 0.0231169 0.0268726 0.0305683 0.0342041 0.0377799 0.0412958 0.0447517 0.0481477 0.0513159 0.0540885 0.0564656 0.0584471 0.060033 0.0612234 0.0620182 0.0624175 0.0624234 0.0620385 0.0612626 0.0600957 0.058538 0.0565892 0.0542496 0.051519 0.0485642 0.0455518 0.042482 0.0393547 0.0361699 0.0329276 0.0296278 0.0262704 0.0229982 0.0199536 0.0171365 0.0145471 0.0121853 0.0100512 0.00814463 0.0064657 0.00499679 0.00372032 0.00263628 0.00174467 0.0010455 0.000538769 0.000224467 0.0001026 7.85533e-05 5.77127e-05 4.00782e-05 2.56501e-05 1.44282e-05 6.41252e-06 1.60313e-06 0 0 -2.84323e-05 -0.000113729 -0.000255891 -0.000454917 -0.000710808 -0.00102356 -0.00139318 -0.00181967 -0.0022606 -0.00267356 -0.00305856 -0.00341559 -0.00374465 -0.00404574 -0.00431886 -0.00456401 -0.00473976 -0.00480467 -0.00475874 -0.00460197 -0.00433437 -0.00395592 -0.00346663 -0.0028665 -0.00221075 -0.00155457 -0.000897971 -0.000240953 0.000416486 0.00107434 0.00173262 0.00239132 0.00298115 0.0034328 0.00374628 0.00392159 0.00395872 0.00385768 0.00361847 0.00324109 0.00274092 0.00213337 0.00141842 0.000596079 -0.000333653 -0.00137078 -0.00251529 -0.0037672 -0.00501528 -0.00614833 -0.00716633 -0.0080693 -0.00885723 -0.00953012 -0.010088 -0.0105308 -0.010748 -0.010629 -0.0101738 -0.00938234 -0.00825473 -0.00679092 -0.0049909 -0.00285469 -0.000398752 0.00236042 0.00542284 0.00878849 0.0124574 0.0164295 0.0207049 0.0252835 0.0299772 0.0345976 0.0391449 0.043619 0.04802 0.0523477 0.0566023 0.0607837 0.0646851 0.0680998 0.0710278 0.0734691 0.0754236 0.0768914 0.0778725 0.0783668 0.0783763 0.0779028 0.0769463 0.0755067 0.0735842 0.0711787 0.0682902 0.0649186 0.0612679 0.0575419 0.0537406 0.049864 0.0459121 0.0418848 0.0377822 0.0336043 0.0295269 0.0257255 0.0222003 0.0189512 0.0159782 0.0132814 0.0108607 0.00871605 0.00682953 0.00518305 0.00377661 0.0026102 0.00168383 0.000997501 0.000551208 0.000344951 0.000264103 0.000194035 0.000134746 8.62378e-05 4.85087e-05 2.15594e-05 5.38986e-06 0 0 -3.13118e-05 -0.000125247 -0.000281806 -0.000500988 -0.000782794 -0.00112722 -0.00153428 -0.00200395 -0.002484 -0.00292216 -0.00331844 -0.00367284 -0.00398536 -0.00425599 -0.00448474 -0.0046716 -0.00477003 -0.00473349 -0.00456195 -0.00425544 -0.00381395 -0.00323747 -0.00252602 -0.00167958 -0.000768022 0.000138784 0.00104084 0.00193815 0.0028307 0.00371851 0.00460157 0.00547988 0.00626747 0.00687839 0.00731262 0.00757018 0.00765105 0.00755525 0.00728277 0.0068336 0.00622771 0.00548505 0.00460562 0.00358942 0.00243645 0.00114671 -0.000279798 -0.00184308 -0.0034051 -0.00482784 -0.00611129 -0.00725546 -0.00826034 -0.00912593 -0.00985224 -0.0104393 -0.0107513 -0.0106528 -0.0101435 -0.00922368 -0.00789318 -0.00615205 -0.00400028 -0.00143786 0.00151484 0.00483749 0.00853008 0.0125926 0.0170251 0.0218275 0.0269999 0.0325422 0.0382255 0.043821 0.0493285 0.0547482 0.06008 0.0653239 0.0704799 0.075548 0.0802774 0.0844173 0.0879676 0.0909284 0.0932996 0.0950813 0.0962735 0.0968761 0.0968903 0.0963169 0.0951561 0.0934078 0.091072 0.0881487 0.084638 0.0805397 0.0760993 0.0715619 0.0669277 0.0621964 0.0573683 0.0524432 0.0474213 0.0423023 0.0372997 0.0326266 0.028283 0.0242689 0.0205843 0.0172293 0.0142037 0.0115077 0.00912379 0.00703472 0.00524045 0.003741 0.00253635 0.00162651 0.00101148 0.000691264 0.000529249 0.000388836 0.000270025 0.000172816 9.7209e-05 4.3204e-05 1.0801e-05 0 0 -3.37774e-05 -0.00013511 -0.000303997 -0.000540439 -0.000844436 -0.00121599 -0.00165509 -0.00216176 -0.00267256 -0.0031241 -0.00351636 -0.00384936 -0.00412308 -0.00433754 -0.00449273 -0.00458865 -0.00457391 -0.00439715 -0.00405835 -0.00355753 -0.00289467 -0.00206978 -0.00108285 6.60991e-05 0.00129019 0.00250254 0.00370313 0.00489198 0.00606907 0.00723442 0.00838802 0.00952986 0.010555 0.0113583 0.0119399 0.0122997 0.0124378 0.0123541 0.0120486 0.0115214 0.0107978 0.00990316 0.00883743 0.00760063 0.00619278 0.00461386 0.00286388 0.000942842 -0.000980595 -0.00273777 -0.00432867 -0.00575331 -0.00701168 -0.00810378 -0.00902962 -0.00978919 -0.0102185 -0.0101534 -0.00959405 -0.00854037 -0.00699236 -0.00495003 -0.00241338 0.000617585 0.00411813 0.0080635 0.0124537 0.0172887 0.0225686 0.0282933 0.0344628 0.0410772 0.0478619 0.0545426 0.0611191 0.0675916 0.07396 0.0802243 0.0863845 0.0924406 0.0980927 0.103041 0.107285 0.110825 0.113661 0.115793 0.117221 0.117945 0.117965 0.117281 0.115892 0.113799 0.111001 0.107499 0.103293 0.0983823 0.0930582 0.0876119 0.0820431 0.0763521 0.0705387 0.0646029 0.0585448 0.0523644 0.0463167 0.0406568 0.0353846 0.0305002 0.0260037 0.0218948 0.0181738 0.0148406 0.0118796 0.00927531 0.00702781 0.00513706 0.00360306 0.0024258 0.0016053 0.00114154 0.00087399 0.000642115 0.000445913 0.000285385 0.000160529 7.13461e-05 1.78365e-05 0 0 -3.58293e-05 -0.000143317 -0.000322464 -0.000573269 -0.000895733 -0.00128986 -0.00175564 -0.00229308 -0.00282628 -0.00327936 -0.00365231 -0.00394513 -0.00415783 -0.00429039 -0.00434283 -0.00431514 -0.0041514 -0.00379566 -0.00324794 -0.00250822 -0.00157652 -0.000452828 0.000862854 0.00237052 0.0039639 0.00553669 0.00708891 0.00862054 0.0101316 0.0116221 0.013092 0.0145413 0.0158436 0.0168725 0.017628 0.0181102 0.0183189 0.0182542 0.0179161 0.0173046 0.0164513 0.0153877 0.0141138 0.0126297 0.0109353 0.00903067 0.00691575 0.00459056 0.00225824 0.000121893 -0.00181847 -0.00356285 -0.00511124 -0.00646366 -0.00762009 -0.00858054 -0.00914937 -0.00913096 -0.00852531 -0.00733241 -0.00555226 -0.00318487 -0.000230228 0.00331166 0.00741111 0.0120385 0.0171937 0.0228769 0.029088 0.0358269 0.0430938 0.0508886 0.0588864 0.0667625 0.0745168 0.0821493 0.08966 0.097049 0.104316 0.111462 0.118131 0.12397 0.12898 0.133159 0.136508 0.139027 0.140716 0.141574 0.141601 0.140795 0.139154 0.13668 0.133372 0.12923 0.124255 0.118446 0.112145 0.105692 0.099087 0.0923308 0.0854231 0.0783638 0.0711529 0.0637905 0.0565778 0.049816 0.0435052 0.0376452 0.0322362 0.0272781 0.0227709 0.0187147 0.0150968 0.0119048 0.00913868 0.00679839 0.00488395 0.00339537 0.00233265 0.00169577 0.00129833 0.000953873 0.000662412 0.000423944 0.000238468 0.000105986 2.64965e-05 0 0 -3.74674e-05 -0.00014987 -0.000337207 -0.000599478 -0.000936685 -0.00134883 -0.0018359 -0.00239791 -0.00294516 -0.00338795 -0.00372629 -0.00396017 -0.00408959 -0.00411455 -0.00403505 -0.0038511 -0.00350249 -0.00292903 -0.00213071 -0.00110754 0.000140491 0.00161337 0.00331111 0.0052337 0.0072531 0.00924125 0.0111982 0.0131238 0.0150183 0.0168815 0.0187134 0.0205141 0.0221334 0.0234211 0.0243771 0.0250015 0.0252943 0.0252555 0.0248851 0.0241831 0.0231881 0.0219386 0.0204348 0.0186767 0.0166641 0.0143971 0.0118758 0.00910009 0.0063114 0.00375114 0.00141931 -0.000684079 -0.00255904 -0.00420557 -0.00562366 -0.00681332 -0.00754406 -0.00758539 -0.0069373 -0.0055998 -0.00357288 -0.00085655 0.00254919 0.00664435 0.0113938 0.0167624 0.0227502 0.0293571 0.0365831 0.0444284 0.0528928 0.0619763 0.071299 0.0804807 0.0895214 0.0984212 0.10718 0.115798 0.124275 0.132611 0.140392 0.147206 0.153052 0.15793 0.16184 0.164782 0.166757 0.167764 0.167799 0.166858 0.164942 0.162051 0.158184 0.153342 0.147525 0.140732 0.133359 0.125801 0.118059 0.110133 0.102022 0.0937259 0.0852456 0.0765808 0.0680831 0.0601044 0.0526447 0.0457038 0.039282 0.0333791 0.0279951 0.0231301 0.0187756 0.0149233 0.0115731 0.00872499 0.00637904 0.00453522 0.00319353 0.00235397 0.00180226 0.00132411 0.000919521 0.000588493 0.000331027 0.000147123 3.67808e-05 0 0 -3.86917e-05 -0.000154767 -0.000348225 -0.000619067 -0.000967292 -0.0013929 -0.00189589 -0.00247627 -0.0030292 -0.00344988 -0.0037383 -0.00389446 -0.00391836 -0.00381 -0.00356939 -0.00319651 -0.00262719 -0.00179724 -0.000706667 0.000644536 0.00225637 0.00412883 0.00626191 0.00865562 0.0111578 0.0136162 0.0160309 0.0184019 0.0207291 0.0230126 0.0252524 0.0274484 0.0294243 0.0310039 0.0321871 0.0329738 0.0333642 0.0333582 0.0329557 0.0321569 0.0310082 0.029556 0.0278004 0.0257415 0.0233791 0.0207133 0.017744 0.0144714 0.0111789 0.00814997 0.00538468 0.002883 0.000644938 -0.00132951 -0.00304033 -0.00448754 -0.00540253 -0.00551669 -0.00483002 -0.00334254 -0.00105422 0.00203492 0.00592488 0.0106157 0.0160662 0.0222353 0.029123 0.0367293 0.0450542 0.0540976 0.0638597 0.0743404 0.0850996 0.0956972 0.106133 0.116407 0.12652 0.136471 0.146261 0.155888 0.164877 0.172748 0.179502 0.185138 0.189658 0.19306 0.195345 0.196512 0.196557 0.195471 0.193257 0.189912 0.185438 0.179835 0.173101 0.165239 0.156701 0.147941 0.13896 0.129758 0.120334 0.110689 0.100823 0.0907351 0.0808325 0.0715219 0.0628031 0.0546761 0.047141 0.0401977 0.0338463 0.0280868 0.0229159 0.0183307 0.014331 0.0109169 0.00808832 0.00584535 0.00418795 0.00311613 0.00238579 0.00175282 0.00121724 0.000779033 0.000438206 0.000194758 4.86896e-05 0 0 -3.86169e-05 -0.000154468 -0.000347552 -0.00061787 -0.000965422 -0.00139021 -0.00189223 -0.00247148 -0.00300672 -0.00337668 -0.00358138 -0.00362081 -0.00349497 -0.00320386 -0.00274748 -0.00212583 -0.00127189 -0.00011865 0.0013339 0.00308576 0.00513692 0.00748739 0.0101372 0.0130863 0.0161554 0.0191652 0.0221157 0.025007 0.027839 0.0306118 0.0333252 0.0359794 0.0383692 0.0402894 0.0417401 0.0427212 0.0432327 0.0432747 0.0428471 0.04195 0.0406385 0.038968 0.0369385 0.0345498 0.0318021 0.0286953 0.0252294 0.0214044 0.01755 0.0139957 0.0107416 0.00778761 0.00513375 0.00278003 0.000726442 -0.001027 -0.00217037 -0.00239373 -0.00169708 -8.04143e-05 0.00245626 0.00591295 0.0102896 0.0155864 0.0217554 0.0287491 0.0365674 0.0452104 0.0546781 0.0649704 0.0760873 0.0880289 0.100291 0.11237 0.124266 0.135979 0.147508 0.158855 0.170018 0.180998 0.191249 0.200227 0.207931 0.214362 0.21952 0.223403 0.226014 0.22735 0.227404 0.226166 0.223637 0.219816 0.214703 0.208298 0.200601 0.191613 0.181847 0.171819 0.161529 0.150975 0.140159 0.129081 0.11774 0.106136 0.0947346 0.0839999 0.073932 0.0645311 0.0557969 0.0477297 0.0403293 0.0335957 0.0275331 0.0221457 0.0174333 0.013396 0.0100337 0.00734661 0.00533457 0.00399762 0.00306068 0.00224866 0.00156157 0.000999405 0.000562165 0.000249851 6.24628e-05 0 0 -3.63578e-05 -0.000145431 -0.00032722 -0.000581725 -0.000908945 -0.00130888 -0.00178153 -0.0023269 -0.00280601 -0.0030799 -0.00314857 -0.003012 -0.00267022 -0.00212321 -0.00137097 -0.000413516 0.000817001 0.00238841 0.00430071 0.00655389 0.00914797 0.0120829 0.0153588 0.0189756 0.0227232 0.0263918 0.0299813 0.0334917 0.036923 0.0402753 0.0435484 0.0467425 0.0496206 0.0519458 0.0537181 0.0549376 0.0556041 0.0557177 0.0552785 0.0542863 0.0528062 0.0509029 0.0485767 0.0458273 0.0426548 0.0390593 0.0350407 0.030599 0.0261141 0.0219658 0.0181541 0.014679 0.0115404 0.00873852 0.0062732 0.00414447 0.00270679 0.00231462 0.00296795 0.00466678 0.00741112 0.011201 0.0160363 0.0219172 0.0287886 0.0365959 0.0453388 0.0550176 0.065632 0.0771822 0.0896682 0.10309 0.116877 0.130459 0.143836 0.157007 0.169974 0.182735 0.195291 0.207642 0.219174 0.229275 0.237943 0.24518 0.250984 0.255357 0.258297 0.259805 0.259869 0.258475 0.255623 0.251314 0.245547 0.238322 0.22964 0.2195 0.208477 0.197145 0.185504 0.173554 0.161296 0.148728 0.135852 0.122667 0.109698 0.0974698 0.0859832 0.0752377 0.0652335 0.0559704 0.0474486 0.0396679 0.0326426 0.0263869 0.0209008 0.0161842 0.0122373 0.00905986 0.00665204 0.0050138 0.00383869 0.00282026 0.00195852 0.00125345 0.000705066 0.000313363 7.83406e-05 0 0 -3.19144e-05 -0.000127658 -0.00028723 -0.000510631 -0.000797861 -0.00114892 -0.00156381 -0.00204252 -0.00242709 -0.00255954 -0.00243985 -0.00206805 -0.00144412 -0.000568058 0.000560125 0.00194043 0.00363949 0.00572393 0.00819375 0.0110489 0.0142895 0.0179155 0.0219268 0.0263235 0.0308613 0.035296 0.0396275 0.0438559 0.0479811 0.0520031 0.055922 0.0597377 0.0631786 0.0659732 0.0681213 0.069623 0.0704783 0.0706872 0.0702497 0.0691658 0.067511 0.0653607 0.0627151 0.059574 0.0559374 0.0518055 0.0471781 0.0420552 0.0368712 0.0320602 0.0276221 0.0235571 0.019865 0.016546 0.0135999 0.0110269 0.00922897 0.00860836 0.00916506 0.0108991 0.0138104 0.017899 0.0231649 0.0296081 0.0371659 0.0457756 0.0554372 0.0661506 0.077916 0.0907332 0.104602 0.119523 0.134857 0.149963 0.164841 0.179492 0.193915 0.208112 0.22208 0.235822 0.248653 0.259891 0.269537 0.277591 0.284052 0.28892 0.292195 0.293878 0.293951 0.292397 0.289216 0.284407 0.277971 0.269908 0.260218 0.2489 0.236589 0.223918 0.210886 0.197495 0.183743 0.169631 0.155159 0.140327 0.125722 0.111932 0.0989565 0.0867962 0.0754507 0.0649201 0.0552043 0.0463034 0.0382444 0.0310544 0.0247335 0.0192817 0.0146989 0.0109851 0.00814036 0.00616467 0.00471983 0.00346763 0.00240808 0.00154117 0.000866907 0.000385292 9.6323e-05 0 0 -2.52868e-05 -0.000101147 -0.000227581 -0.000404589 -0.00063217 -0.000910324 -0.00123905 -0.00161835 -0.00186996 -0.00181559 -0.00145525 -0.000788939 0.000183343 0.0014616 0.00304582 0.00493601 0.00719558 0.00988792 0.013013 0.0165709 0.0205616 0.024985 0.0298412 0.0351301 0.0405698 0.0458779 0.0510545 0.0560996 0.0610132 0.0657953 0.0704459 0.074965 0.0790433 0.0823715 0.0849496 0.0867776 0.0878555 0.0881833 0.087761 0.0865886 0.0847531 0.0823414 0.0793537 0.0757898 0.0716498 0.0669337 0.0616414 0.055773 0.0498213 0.0442788 0.0391457 0.034422 0.0301075 0.0262024 0.0227067 0.0196202 0.0173962 0.0164875 0.0168942 0.0186164 0.021654 0.0260069 0.0316753 0.0386591 0.0468871 0.0562882 0.0668624 0.0786097 0.09153 0.105623 0.12089 0.137329 0.15423 0.170881 0.187282 0.203433 0.219334 0.234985 0.250386 0.265536 0.279684 0.292077 0.302714 0.311596 0.318722 0.324093 0.327708 0.329569 0.329651 0.327933 0.324414 0.319095 0.311975 0.303055 0.292334 0.279813 0.266184 0.252138 0.237675 0.222796 0.207501 0.191789 0.175661 0.159116 0.142807 0.127385 0.112852 0.0992064 0.0864486 0.0745786 0.0635964 0.0535021 0.0443384 0.0361483 0.0289316 0.0226883 0.0174186 0.0131223 0.00979954 0.00745024 0.00570409 0.00419076 0.00291025 0.00186256 0.00104769 0.00046564 0.00011641 0 0 -1.64748e-05 -6.58993e-05 -0.000148273 -0.000263597 -0.000411871 -0.000593094 -0.000807266 -0.00105439 -0.0011346 -0.000848058 -0.000194749 0.000825322 0.00221216 0.00396575 0.00608611 0.00857323 0.0114853 0.0148804 0.0187585 0.0231198 0.0279641 0.0332915 0.0391019 0.0453954 0.0518484 0.0581373 0.0642621 0.0702228 0.0760193 0.0816518 0.0871201 0.0924243 0.0972145 0.101141 0.104203 0.106401 0.107736 0.108206 0.107812 0.106555 0.104532 0.101845 0.0984925 0.0944748 0.0897919 0.0844439 0.0784307 0.0717524 0.0649643 0.0586218 0.0527249 0.0472736 0.0422679 0.0377078 0.0335934 0.0299245 0.0272084 0.025952 0.0261555 0.0278188 0.030942 0.0355249 0.0415677 0.0490703 0.0579524 0.0681339 0.0796146 0.0923946 0.106474 0.121853 0.138531 0.156508 0.174998 0.193215 0.21116 0.228831 0.246229 0.263355 0.280207 0.296786 0.312268 0.325831 0.337472 0.347194 0.354995 0.360876 0.364836 0.366877 0.366968 0.365082 0.361218 0.355377 0.347559 0.337763 0.32599 0.312239 0.297261 0.281805 0.265871 0.24946 0.23257 0.215203 0.197358 0.179035 0.160953 0.143831 0.12767 0.112468 0.098227 0.0849459 0.0726249 0.0612641 0.0509248 0.0416683 0.0334948 0.0264042 0.0203964 0.0154715 0.0116296 0.0088705 0.00679148 0.00498966 0.00346504 0.00221763 0.0012