<?xml version="1.0"?> 
<VTKFile type="StructuredGrid" version="0.1"> 
<StructuredGrid WholeExtent="0 128 0 128 0 0"> 
<Piece Extent="0 128 0 128 0 0"> 
<PointData>
<DataArray type="Float32" Name="u" format="ascii" NumberOfComponents="1"> 
0 0 0 0 0 0 0 0 0 0 0 0 0 0 0 0 0 0 0 0 0 0 0 0 0 0 0 0 0 0 0 0 0 0 0 0 0 0 0 0 0 0 0 0 0 0 0 0 0 0 0 0 0 0 0 0 0 0 0 0 0 0 0 0 0 0 0 0 0 0 0 0 0 0 0 0 0 0 0 0 0 0 0 0 0 0 0 0 0 0 0 0 0 0 0 0 0 0 0 0 0 0 0 0 0 0 0 0 0 0 0 0 0 0 0 0 0 0 0 0 0 0 0 0 0 0 0 0 0 0 -1.82973e-07 -7.3189e-07 -1.64675e-06 -2.92756e-06 -4.57431e-06 -6.58701e-06 -8.96566e-06 -1.17102e-05 -1.44911e-05 -1.69785e-05 -1.91725e-05 -2.10731e-05 -2.26803e-05 -2.39941e-05 -2.50144e-05 -2.57413e-05 -2.59486e-05 -2.541e-05 -2.41255e-05 -2.20951e-05 -1.93188e-05 -1.57967e-05 -1.15287e-05 -6.51479e-06 -1.19938e-06 3.97319e-06 9.00293e-06 1.38898e-05 1.86339e-05 2.32351e-05 2.76935e-05 3.2009e-05 3.57256e-05 3.83868e-05 3.99928e-05 4.05436e-05 4.00391e-05 3.84793e-05 3.58643e-05 3.21941e-05 2.76414e-05 2.2379e-05 1.64069e-05 9.72513e-06 2.33365e-06 -5.76751e-06 -1.45784e-05 -2.40989e-05 -3.35255e-05 -4.20543e-05 -4.96855e-05 -5.64191e-05 -6.22549e-05 -6.71931e-05 -7.12336e-05 -7.43764e-05 -7.58684e-05 -7.49565e-05 -7.16407e-05 -6.59211e-05 -5.77975e-05 -4.72701e-05 -3.43387e-05 -1.90035e-05 -1.39773e-06 1.83451e-05 4.02251e-05 6.42422e-05 9.03964e-05 0.000118688 0.000149116 0.000181682 0.000215091 0.000248052 0.000280564 0.000312626 0.00034424 0.000375405 0.00040612 0.000436387 0.000464756 0.000489777 0.000511452 0.00052978 0.000544761 0.000556395 0.000564681 0.000569621 0.000571141 0.000569169 0.000563704 0.000554746 0.000542297 0.000526354 0.000506919 0.000483992 0.000458931 0.000433094 0.000406482 0.000379095 0.000350933 0.000321995 0.000292282 0.000261794 0.00023184 0.000203729 0.000177461 0.000153036 0.000130454 0.000109716 9.08202e-05 7.3768e-05 5.85733e-05 4.52505e-05 3.37996e-05 2.42205e-05 1.65132e-05 1.06779e-05 6.71439e-06 4.62277e-06 3.5393e-06 2.60031e-06 1.80577e-06 1.15569e-06 6.50076e-07 2.88923e-07 7.22307e-08 0 0 -7.3189e-07 -2.92756e-06 -6.58701e-06 -1.17102e-05 -1.82973e-05 -2.6348e-05 -3.58626e-05 -4.6841e-05 -5.79644e-05 -6.79141e-05 -7.66902e-05 -8.42925e-05 -9.07212e-05 -9.59762e-05 -0.000100058 -0.000102965 -0.000103794 -0.00010164 -9.65018e-05 -8.83803e-05 -7.72753e-05 -6.31868e-05 -4.61147e-05 -2.60592e-05 -4.79752e-06 1.58928e-05 3.60117e-05 5.55593e-05 7.45356e-05 9.29405e-05 0.000110774 0.000128036 0.000142902 0.000153547 0.000159971 0.000162174 0.000160156 0.000153917 0.000143457 0.000128776 0.000110566 8.9516e-05 6.56276e-05 3.89005e-05 9.33461e-06 -2.30701e-05 -5.83135e-05 -9.63957e-05 -0.000134102 -0.000168217 -0.000198742 -0.000225676 -0.00024902 -0.000268772 -0.000284934 -0.000297505 -0.000303474 -0.000299826 -0.000286563 -0.000263684 -0.00023119 -0.00018908 -0.000137355 -7.60139e-05 -5.59094e-06 7.33805e-05 0.0001609 0.000256969 0.000361586 0.000474751 0.000596465 0.000726727 0.000860365 0.000992208 0.00112225 0.00125051 0.00137696 0.00150162 0.00162448 0.00174555 0.00185902 0.00195911 0.00204581 0.00211912 0.00217904 0.00222558 0.00225873 0.00227848 0.00228456 0.00227668 0.00225482 0.00221899 0.00216919 0.00210542 0.00202768 0.00193597 0.00183572 0.00173238 0.00162593 0.00151638 0.00140373 0.00128798 0.00116913 0.00104718 0.000927359 0.000814914 0.000709842 0.000612143 0.000521816 0.000438862 0.000363281 0.000295072 0.000234293 0.000181002 0.000135198 9.68818e-05 6.6053e-05 4.27115e-05 2.68576e-05 1.84911e-05 1.41572e-05 1.04012e-05 7.22307e-06 4.62277e-06 2.60031e-06 1.15569e-06 2.88923e-07 0 0 -1.64675e-06 -6.58701e-06 -1.48208e-05 -2.6348e-05 -4.11688e-05 -5.92831e-05 -8.06909e-05 -0.000105392 -0.00013042 -0.000152807 -0.000172553 -0.000189658 -0.000204123 -0.000215947 -0.00022513 -0.000231672 -0.000233537 -0.00022869 -0.000217129 -0.000198856 -0.000173869 -0.00014217 -0.000103758 -5.86331e-05 -1.07944e-05 3.57587e-05 8.10264e-05 0.000125008 0.000167705 0.000209116 0.000249242 0.000288081 0.00032153 0.000345481 0.000359935 0.000364892 0.000360352 0.000346314 0.000322779 0.000289747 0.000248773 0.000201411 0.000147662 8.75261e-05 2.10029e-05 -5.19076e-05 -0.000131205 -0.00021689 -0.000301729 -0.000378489 -0.00044717 -0.000507772 -0.000560294 -0.000604738 -0.000641102 -0.000669387 -0.000682815 -0.000674609 -0.000644767 -0.00059329 -0.000520178 -0.000425431 -0.000309048 -0.000171031 -1.25796e-05 0.000165106 0.000362026 0.00057818 0.000813568 0.00106819 0.00134205 0.00163514 0.00193582 0.00223247 0.00252507 0.00281364 0.00309816 0.00337864 0.00365508 0.00392748 0.0041828 0.004408 0.00460307 0.00476802 0.00490285 0.00500755 0.00508213 0.00512659 0.00514027 0.00512252 0.00507334 0.00499272 0.00488067 0.00473719 0.00456227 0.00435593 0.00413038 0.00389785 0.00365834 0.00341186 0.0031584 0.00289796 0.00263054 0.00235615 0.00208656 0.00183356 0.00159715 0.00137732 0.00117409 0.00098744 0.000817382 0.000663912 0.00052716 0.000407255 0.000304196 0.000217984 0.000148619 9.61009e-05 6.04295e-05 4.16049e-05 3.18537e-05 2.34027e-05 1.62519e-05 1.04012e-05 5.85069e-06 2.60031e-06 6.50076e-07 0 0 -2.92756e-06 -1.17102e-05 -2.6348e-05 -4.6841e-05 -7.3189e-05 -0.000105392 -0.00014345 -0.000187364 -0.000231858 -0.000271656 -0.000306761 -0.00033717 -0.000362885 -0.000383905 -0.00040023 -0.000411861 -0.000415177 -0.000406559 -0.000386007 -0.000353521 -0.000309101 -0.000252747 -0.000184459 -0.000104237 -1.91901e-05 6.35711e-05 0.000144047 0.000222237 0.000298142 0.000371762 0.000443096 0.000512145 0.000571609 0.000614189 0.000639885 0.000648697 0.000640625 0.000615669 0.00057383 0.000515106 0.000442262 0.000358064 0.000262511 0.000155602 3.73384e-05 -9.22802e-05 -0.000233254 -0.000385583 -0.000536407 -0.000672869 -0.000794969 -0.000902705 -0.000996078 -0.00107509 -0.00113974 -0.00119002 -0.00121389 -0.0011993 -0.00114625 -0.00105474 -0.00092476 -0.000756321 -0.00054942 -0.000304056 -2.23638e-05 0.000293522 0.000643602 0.00102788 0.00144634 0.001899 0.00238586 0.00290691 0.00344146 0.00396883 0.00448902 0.00500202 0.00550784 0.00600647 0.00649793 0.00698219 0.00743609 0.00783644 0.00818324 0.00847648 0.00871617 0.00890231 0.0090349 0.00911394 0.00913826 0.0091067 0.00901926 0.00887594 0.00867675 0.00842167 0.00811071 0.00774387 0.00734289 0.00692951 0.00650372 0.00606552 0.00561492 0.00515192 0.00467652 0.0041887 0.00370943 0.00325966 0.00283937 0.00244857 0.00208727 0.00175545 0.00145312 0.00118029 0.000937173 0.000724008 0.000540793 0.000387527 0.000264212 0.000170846 0.00010743 7.39642e-05 5.66289e-05 4.16049e-05 2.88923e-05 1.84911e-05 1.04012e-05 4.62277e-06 1.15569e-06 0 0 -4.57431e-06 -1.82973e-05 -4.11688e-05 -7.3189e-05 -0.000114358 -0.000164675 -0.000224141 -0.000292756 -0.000362277 -0.000424463 -0.000479313 -0.000526828 -0.000567008 -0.000599851 -0.00062536 -0.000643533 -0.000648714 -0.000635249 -0.000603136 -0.000552377 -0.000482971 -0.000394917 -0.000288217 -0.00016287 -2.99845e-05 9.93299e-05 0.000225073 0.000347246 0.000465847 0.000580878 0.000692338 0.000800226 0.000893139 0.00095967 0.00099982 0.00101359 0.00100098 0.000961983 0.000896609 0.000804853 0.000691035 0.000559475 0.000410173 0.000243128 5.83413e-05 -0.000144188 -0.000364459 -0.000602473 -0.000838137 -0.00105136 -0.00124214 -0.00141048 -0.00155637 -0.00167983 -0.00178084 -0.00185941 -0.00189671 -0.00187391 -0.00179102 -0.00164803 -0.00144494 -0.00118175 -0.000858468 -0.000475087 -3.49434e-05 0.000458628 0.00100563 0.00160605 0.00225991 0.00296719 0.0037279 0.00454204 0.00537728 0.0062013 0.00701409 0.00781566 0.008606 0.00938512 0.010153 0.0109097 0.0116189 0.0122444 0.0127863 0.0132445 0.013619 0.0139099 0.014117 0.0142405 0.0142785 0.0142292 0.0140926 0.0138687 0.0135574 0.0131589 0.012673 0.0120998 0.0114733 0.0108274 0.0101621 0.00947738 0.00877332 0.00804988 0.00730705 0.00654485 0.00579599 0.00509321 0.00443651 0.00382589 0.00326135 0.00274289 0.00227051 0.0018442 0.00146433 0.00113126 0.000844989 0.000605512 0.000412831 0.000266947 0.00016786 0.000115569 8.84826e-05 6.50076e-05 4.51442e-05 2.88923e-05 1.62519e-05 7.22307e-06 1.80577e-06 0 0 -6.58701e-06 -2.6348e-05 -5.92831e-05 -0.000105392 -0.000164675 -0.000237132 -0.000322764 -0.000421569 -0.000521679 -0.000611227 -0.000690211 -0.000758633 -0.000816491 -0.000863786 -0.000900518 -0.000926687 -0.000934148 -0.000914758 -0.000868516 -0.000795423 -0.000695478 -0.000568681 -0.000415033 -0.000234533 -4.31777e-05 0.000143035 0.000324106 0.000500034 0.00067082 0.000836464 0.000996966 0.00115233 0.00128612 0.00138193 0.00143974 0.00145957 0.00144141 0.00138526 0.00129112 0.00115899 0.00099509 0.000805644 0.000590649 0.000350105 8.40115e-05 -0.00020763 -0.000524821 -0.000867561 -0.00120692 -0.00151396 -0.00178868 -0.00203109 -0.00224118 -0.00241895 -0.00256441 -0.00267755 -0.00273126 -0.00269843 -0.00257907 -0.00237316 -0.00208071 -0.00170172 -0.00123619 -0.000684125 -5.03185e-05 0.000660425 0.0014481 0.00231272 0.00325427 0.00427276 0.00536818 0.00654054 0.00774329 0.00892987 0.0101003 0.0112545 0.0123926 0.0135146 0.0146203 0.0157099 0.0167312 0.017632 0.0184123 0.0190721 0.0196114 0.0200302 0.0203285 0.0205064 0.0205611 0.0204901 0.0202933 0.0199709 0.0195227 0.0189488 0.0182491 0.0174237 0.0165215 0.0155914 0.0146334 0.0136474 0.0126336 0.0115918 0.0105222 0.00942458 0.00834623 0.00733423 0.00638858 0.00550929 0.00469635 0.00394976 0.00326953 0.00265565 0.00210864 0.00162902 0.00121678 0.000871937 0.000594477 0.000384404 0.000241718 0.00016642 0.000127415 9.3611e-05 6.50076e-05 4.16049e-05 2.34027e-05 1.04012e-05 2.60031e-06 0 0 -8.96566e-06 -3.58626e-05 -8.06909e-05 -0.00014345 -0.000224141 -0.000322764 -0.000439317 -0.000573802 -0.000710064 -0.000831948 -0.000939454 -0.00103258 -0.00111133 -0.00117571 -0.00122571 -0.00126132 -0.00127148 -0.00124509 -0.00118215 -0.00108266 -0.000946623 -0.000774038 -0.000564906 -0.000319225 -5.87696e-05 0.000194687 0.000441144 0.000680602 0.000913061 0.00113852 0.00135698 0.00156844 0.00175055 0.00188095 0.00195965 0.00198664 0.00196191 0.00188549 0.00175735 0.00157751 0.00135443 0.00109657 0.000803938 0.000476531 0.000114349 -0.000282608 -0.00071434 -0.00118085 -0.00164275 -0.00206066 -0.00243459 -0.00276453 -0.00305049 -0.00329246 -0.00349044 -0.00364444 -0.00371755 -0.00367287 -0.0035104 -0.00323013 -0.00283208 -0.00231623 -0.0016826 -0.000931171 -6.8489e-05 0.000898911 0.00197103 0.00314787 0.00442942 0.0058157 0.00730669 0.00890241 0.0105395 0.0121545 0.0137476 0.0153187 0.0168678 0.0183948 0.0198999 0.021383 0.022773 0.0239991 0.0250612 0.0259592 0.0266933 0.0272633 0.0276694 0.0279114 0.0279859 0.0278893 0.0276215 0.0271826 0.0265725 0.0257914 0.024839 0.0237156 0.0224876 0.0212216 0.0199176 0.0185757 0.0171957 0.0157778 0.0143218 0.0128279 0.0113601 0.0099827 0.00869557 0.00749875 0.00639225 0.00537606 0.00445019 0.00361463 0.00287009 0.00221727 0.00165618 0.0011868 0.000809149 0.000523216 0.000329005 0.000226515 0.000173426 0.000127415 8.84826e-05 5.66289e-05 3.18537e-05 1.41572e-05 3.5393e-06 0 0 -1.17102e-05 -4.6841e-05 -0.000105392 -0.000187364 -0.000292756 -0.000421569 -0.000573802 -0.000749456 -0.00092743 -0.00108663 -0.00122704 -0.00134868 -0.00145154 -0.00153562 -0.00160092 -0.00164744 -0.00166071 -0.00162624 -0.00154403 -0.00141409 -0.00123641 -0.00101099 -0.000737836 -0.000416947 -7.67603e-05 0.000254284 0.000576188 0.000888949 0.00119257 0.00148705 0.00177238 0.00204858 0.00228644 0.00245676 0.00255954 0.00259479 0.0025625 0.00246268 0.00229532 0.00206042 0.00176905 0.00143226 0.00105004 0.000622408 0.000149354 -0.000369121 -0.000933016 -0.00154233 -0.00214563 -0.00269148 -0.00317987 -0.00361082 -0.00398431 -0.00430036 -0.00455895 -0.00476009 -0.00485558 -0.00479722 -0.00458501 -0.00421895 -0.00369904 -0.00302528 -0.00219768 -0.00121622 -8.9455e-05 0.00117409 0.00257441 0.0041115 0.00578537 0.00759602 0.00954344 0.0116276 0.0137658 0.0158753 0.0179561 0.0200081 0.0220314 0.0240259 0.0259917 0.0279288 0.0297444 0.0313458 0.0327329 0.0339059 0.0348647 0.0356092 0.0361396 0.0364558 0.036553 0.0364268 0.036077 0.0355038 0.034707 0.0336867 0.0324428 0.0309755 0.0293716 0.027718 0.0260149 0.0242621 0.0224597 0.0206077 0.0187061 0.0167548 0.0148377 0.0130386 0.0113575 0.00979429 0.00834906 0.0070218 0.00581249 0.00472115 0.00374869 0.00289603 0.00216317 0.00155011 0.00105685 0.000683384 0.000429721 0.000295857 0.000226515 0.00016642 0.000115569 7.39642e-05 4.16049e-05 1.84911e-05 4.62277e-06 0 0 -1.43517e-05 -5.7407e-05 -0.000129166 -0.000229628 -0.000358794 -0.000516663 -0.000703235 -0.000918511 -0.00113557 -0.0013275 -0.0014943 -0.00163596 -0.00175249 -0.00184388 -0.00191015 -0.00195128 -0.00194946 -0.0018869 -0.00176359 -0.00157952 -0.0013347 -0.00102913 -0.000662815 -0.000235744 0.00021548 0.000654259 0.00108059 0.00149448 0.00189592 0.00228492 0.00266148 0.00302558 0.00333985 0.00356689 0.0037067 0.00375928 0.00372463 0.00360275 0.00339363 0.00309729 0.00272799 0.00230001 0.00181336 0.00126803 0.000664022 1.33818e-06 -0.000720022 -0.00150006 -0.00227289 -0.00297261 -0.00359924 -0.00415276 -0.00463319 -0.00504052 -0.00537474 -0.00563587 -0.00576236 -0.00569266 -0.00542679 -0.00496474 -0.0043065 -0.00345209 -0.0024015 -0.00115472 0.000277296 0.00188363 0.00366427 0.00561922 0.00774849 0.0100521 0.0125299 0.0151821 0.0179032 0.0205877 0.0232357 0.025847 0.0284218 0.0309601 0.0334617 0.0359268 0.0382373 0.0402751 0.0420402 0.0435326 0.0447523 0.0456993 0.0463737 0.0467753 0.0468982 0.0467361 0.0462892 0.0455573 0.0445406 0.0432389 0.0416523 0.0397808 0.0377348 0.0356248 0.0334506 0.0312124 0.0289101 0.0265437 0.0241133 0.0216187 0.0191668 0.0168642 0.0147109 0.0127068 0.0108521 0.00914669 0.00759055 0.00618372 0.00492811 0.00382567 0.0028764 0.00208029 0.00143734 0.000947559 0.000610941 0.000427487 0.000327295 0.000240462 0.000166987 0.000106872 6.01154e-05 2.6718e-05 6.67949e-06 0 0 -1.64211e-05 -6.56844e-05 -0.00014779 -0.000262738 -0.000410528 -0.00059116 -0.000804634 -0.00105095 -0.00129629 -0.00150681 -0.00168254 -0.00182345 -0.00192956 -0.00200087 -0.00203736 -0.00203905 -0.00198538 -0.00185577 -0.00165024 -0.00136878 -0.00101139 -0.000578077 -6.88335e-05 0.000516338 0.00113058 0.00172704 0.00230571 0.0028666 0.00340971 0.00393503 0.00444256 0.00493231 0.0053569 0.00566893 0.00586842 0.00595536 0.00592976 0.00579161 0.00554091 0.00517766 0.00472027 0.00418715 0.00357829 0.00289369 0.00213335 0.00129728 0.000385465 -0.000602083 -0.00158184 -0.00247028 -0.00326739 -0.00397319 -0.00458767 -0.00511082 -0.00554266 -0.00588318 -0.00605491 -0.0059804 -0.00565964 -0.00509263 -0.00427937 -0.00321986 -0.00191411 -0.000362112 0.00142228 0.0034252 0.00564665 0.00808663 0.0107451 0.0136222 0.0167178 0.0200319 0.0234324 0.0267872 0.0300964 0.0333598 0.0365775 0.0397496 0.0428759 0.0459566 0.0488439 0.0513902 0.0535954 0.0554596 0.0569828 0.058165 0.0590061 0.0595062 0.0596571 0.0594508 0.0588871 0.0579661 0.0566878 0.0550522 0.0530592 0.050709 0.0481388 0.0454859 0.0427504 0.0399322 0.0370314 0.034048 0.0309819 0.0278331 0.0247352 0.0218216 0.0190923 0.0165474 0.0141868 0.0120105 0.0100185 0.00821084 0.00659203 0.00516659 0.0039345 0.00289577 0.0020504 0.00139839 0.000939741 0.00067445 0.000516375 0.000379378 0.000263457 0.000168612 9.48445e-05 4.21531e-05 1.05383e-05 0 0 -1.79184e-05 -7.16734e-05 -0.000161265 -0.000286694 -0.000447959 -0.000645061 -0.000877999 -0.00114677 -0.00140957 -0.00162457 -0.00179176 -0.00191116 -0.00198276 -0.00200656 -0.00198257 -0.00191077 -0.00176845 -0.00153285 -0.00120399 -0.000781868 -0.000266476 0.000342183 0.00104411 0.0018393 0.00266854 0.00347263 0.00425155 0.00500531 0.00573392 0.00643736 0.00711564 0.00776876 0.00833756 0.00876287 0.0090447 0.00918304 0.0091779 0.00902927 0.00873715 0.00830155 0.00774591 0.00709367 0.00634483 0.00549938 0.00455734 0.00351869 0.00238345 0.0011516 -7.24913e-05 -0.00118447 -0.00218434 -0.0030721 -0.00384774 -0.00451128 -0.0050627 -0.00550201 -0.00573324 -0.00566042 -0.00528354 -0.00460262 -0.00361764 -0.00232861 -0.000735526 0.00116161 0.00334549 0.0057988 0.00852155 0.0115137 0.0147753 0.0183064 0.0221069 0.0261768 0.0303534 0.0344738 0.0385382 0.0425464 0.0464985 0.0503945 0.0542343 0.0580181 0.0615641 0.064691 0.0673986 0.069687 0.0715562 0.0730061 0.0740368 0.0746483 0.0748299 0.0745707 0.0738707 0.0727301 0.0711487 0.0691265 0.0666637 0.0637601 0.0605835 0.0573015 0.0539143 0.0504217 0.0468237 0.0431204 0.0393118 0.0353979 0.0315428 0.0279108 0.0245018 0.0213159 0.018353 0.0156131 0.0130963 0.0108025 0.00874045 0.00691877 0.00533747 0.00399656 0.00289603 0.00203588 0.00141612 0.00103674 0.000793757 0.000583168 0.000404978 0.000259186 0.000145792 6.47965e-05 1.61991e-05 0 0 -1.88435e-05 -7.53739e-05 -0.000169591 -0.000301496 -0.000471087 -0.000678365 -0.00092333 -0.00120598 -0.00147542 -0.00168075 -0.00182198 -0.00189909 -0.00191209 -0.00186098 -0.00174577 -0.00156644 -0.00129867 -0.000918144 -0.000424846 0.000181218 0.000900048 0.00173165 0.00267601 0.00373314 0.00482937 0.00589102 0.0069181 0.00791061 0.00886855 0.00979192 0.0106807 0.0115349 0.0122818 0.0128487 0.0132355 0.0134423 0.013469 0.0133157 0.0129824 0.012469 0.0118049 0.0110196 0.010113 0.00908511 0.00793598 0.00666559 0.00527392 0.00376099 0.00225516 0.000884805 -0.000350075 -0.00144948 -0.00241341 -0.00324187 -0.00393486 -0.00449237 -0.00479734 -0.00473273 -0.00429852 -0.00349471 -0.00232131 -0.000778322 0.00113426 0.00341644 0.00604693 0.00900444 0.012289 0.0159005 0.0198391 0.0241047 0.0286973 0.033617 0.0386662 0.0436476 0.0485611 0.0534068 0.0581847 0.0628947 0.0675369 0.0721113 0.0763981 0.0801776 0.0834498 0.0862148 0.0884724 0.0902228 0.0914659 0.0922018 0.0924164 0.0920958 0.0912401 0.0898492 0.0879232 0.085462 0.0824656 0.0789341 0.0750689 0.0710716 0.0669422 0.0626806 0.0582869 0.0537611 0.0491032 0.0443132 0.0395898 0.0351319 0.0309394 0.0270123 0.0233508 0.0199546 0.016824 0.0139587 0.0113734 0.00908222 0.00708531 0.00538265 0.00397422 0.00286003 0.00204008 0.00151437 0.00115944 0.000851833 0.000591551 0.000378593 0.000212958 9.46481e-05 2.3662e-05 0 0 -1.91965e-05 -7.67858e-05 -0.000172768 -0.000307143 -0.000479912 -0.000691073 -0.000940627 -0.00122857 -0.00149385 -0.00167538 -0.00177317 -0.00178723 -0.00171754 -0.00156412 -0.00132695 -0.00100605 -0.00057606 -1.16424e-05 0.000687203 0.00152048 0.00248818 0.00359031 0.00482687 0.00619786 0.00761305 0.00898222 0.0103054 0.0115825 0.0128136 0.0139987 0.0151378 0.0162308 0.0171897 0.0179264 0.0184409 0.0187332 0.0188032 0.018651 0.0182765 0.0176799 0.0168972 0.0159649 0.0148827 0.0136509 0.0122693 0.010738 0.00905689 0.00722608 0.00540111 0.00373755 0.0022354 0.000894652 -0.000284686 -0.00130262 -0.00215914 -0.00285425 -0.00324722 -0.00319732 -0.00270455 -0.00176891 -0.000390392 0.001431 0.00369526 0.00640239 0.0095266 0.0130421 0.0169489 0.021247 0.0259364 0.0310171 0.0364891 0.0423523 0.0483708 0.0543084 0.0601652 0.0659411 0.0716362 0.0772504 0.0827837 0.0882362 0.0933457 0.0978499 0.101749 0.105043 0.107732 0.109815 0.111293 0.112166 0.112417 0.112026 0.110995 0.109324 0.107011 0.104059 0.100465 0.0962309 0.091595 0.0867961 0.0818341 0.0767091 0.0714211 0.0659701 0.060356 0.0545789 0.048876 0.0434847 0.038405 0.0336368 0.0291801 0.025035 0.0212015 0.0176795 0.0144908 0.0116569 0.00917803 0.00705404 0.00528498 0.00387084 0.00281162 0.00210733 0.00161342 0.00118537 0.000823175 0.000526832 0.000296343 0.000131708 3.2927e-05 0 0 -1.89773e-05 -7.59093e-05 -0.000170796 -0.000303637 -0.000474433 -0.000683184 -0.000929889 -0.00121455 -0.00146484 -0.00160845 -0.00164536 -0.00157559 -0.00139912 -0.00111597 -0.000726131 -0.000229602 0.000399398 0.00118665 0.00213215 0.00323591 0.00449792 0.00591818 0.00749669 0.00923346 0.0110196 0.0127462 0.0144134 0.016021 0.0175691 0.0190577 0.0204868 0.0218564 0.0230613 0.0239961 0.0246609 0.0250556 0.0251803 0.025035 0.0246197 0.0239343 0.0230229 0.0219295 0.0206541 0.0191967 0.0175573 0.0157358 0.0137324 0.0115469 0.00936537 0.00737377 0.00557208 0.0039603 0.00253844 0.0013065 0.000264465 -0.000587654 -0.00108287 -0.0010542 -0.000501647 0.000574796 0.00217513 0.00429934 0.00694745 0.0101194 0.0137845 0.0179118 0.0225014 0.0275532 0.0330672 0.0390435 0.0454821 0.0523829 0.0594672 0.0664564 0.0733504 0.0801492 0.0868529 0.0934614 0.0999747 0.106393 0.112407 0.117708 0.122296 0.126171 0.129334 0.131783 0.133519 0.134542 0.134831 0.134362 0.133136 0.131153 0.128413 0.124916 0.120662 0.115651 0.110162 0.104475 0.0985901 0.0925072 0.0862262 0.0797472 0.0730701 0.066195 0.0594015 0.0529694 0.0468986 0.0411892 0.0358411 0.0308543 0.0262289 0.0219649 0.0180927 0.0146429 0.0116156 0.00901074 0.0068283 0.0050683 0.00373074 0.00281562 0.00215571 0.00158379 0.00109985 0.000703905 0.000395946 0.000175976 4.39941e-05 0 0 -1.81861e-05 -7.27442e-05 -0.000163675 -0.000290977 -0.000454651 -0.000654698 -0.000891117 -0.00116391 -0.00138841 -0.00147995 -0.00143853 -0.00126416 -0.00095683 -0.000516543 5.67003e-05 0.000762901 0.0016277 0.00267673 0.00391001 0.00532752 0.00692927 0.00871525 0.0106855 0.0128399 0.015049 0.017183 0.0192421 0.0212261 0.023135 0.024969 0.0267279 0.0284118 0.0298964 0.0310576 0.0318954 0.0324096 0.0326005 0.0324679 0.0320118 0.0312323 0.030182 0.0289136 0.0274271 0.0257225 0.0237999 0.0216591 0.0193003 0.0167234 0.0141479 0.0117935 0.00965997 0.00774748 0.00605598 0.00458547 0.00333595 0.00230742 0.0016957 0.00169663 0.00231019 0.0035364 0.00537524 0.00782672 0.0108908 0.0145676 0.0188206 0.0236135 0.0289463 0.034819 0.0412316 0.0481841 0.0556764 0.0637087 0.0719555 0.0800915 0.0881167 0.0960312 0.103835 0.111528 0.11911 0.126581 0.133582 0.139752 0.145091 0.1496 0.153279 0.156126 0.158143 0.15933 0.159659 0.159103 0.157663 0.155338 0.152129 0.148035 0.143056 0.137193 0.130769 0.124108 0.11721 0.110075 0.102702 0.0950925 0.0872456 0.0791616 0.0711663 0.0635859 0.0564203 0.0496696 0.0433336 0.0374125 0.0319062 0.0268147 0.0221791 0.0180402 0.0143981 0.0112527 0.00860419 0.00645243 0.00479744 0.00363924 0.00278629 0.00204707 0.00142158 0.00090981 0.000511768 0.000227453 5.68632e-05 0 0 -1.68227e-05 -6.72907e-05 -0.000151404 -0.000269163 -0.000420567 -0.000605616 -0.000824311 -0.00107665 -0.00126454 -0.00128989 -0.00115269 -0.000852948 -0.000390663 0.000234167 0.00102154 0.00197146 0.00310884 0.00445861 0.00602076 0.0077953 0.00978222 0.0119815 0.0143932 0.0170173 0.0197013 0.0222927 0.0247915 0.0271977 0.0295114 0.0317324 0.0338609 0.0358968 0.0376952 0.0391111 0.0401444 0.0407953 0.0410636 0.0409495 0.0404529 0.0395737 0.0383743 0.036917 0.0352017 0.0332284 0.0309972 0.0285079 0.0257608 0.0227556 0.0197488 0.0169966 0.0144991 0.0122562 0.0102679 0.00853429 0.00705531 0.00583096 0.0050885 0.00505517 0.00573097 0.0071159 0.00920995 0.0120131 0.0155254 0.0197469 0.024635 0.0301473 0.0362838 0.0430446 0.0504295 0.0584387 0.0670721 0.0763297 0.0858355 0.0952137 0.104464 0.113587 0.122582 0.13145 0.140189 0.148801 0.15687 0.163982 0.170135 0.175329 0.179566 0.182845 0.185166 0.186528 0.1869 0.186249 0.184575 0.181878 0.178158 0.173415 0.167648 0.160859 0.153418 0.145696 0.137694 0.129412 0.120849 0.112006 0.102883 0.0934786 0.0841704 0.0753343 0.0669701 0.0590779 0.0516578 0.0447096 0.0382334 0.0322292 0.02675 0.0218487 0.0175254 0.01378 0.0106126 0.00802321 0.00601172 0.0045782 0.00350518 0.00257524 0.00178836 0.00114455 0.000643809 0.000286137 7.15343e-05 0 0 -1.4153e-05 -5.6612e-05 -0.000127377 -0.000226448 -0.000353825 -0.000509508 -0.000693497 -0.000905791 -0.00103385 -0.000965121 -0.00069961 -0.000237317 0.00042176 0.00127762 0.00233026 0.00357969 0.00504879 0.00676045 0.00871467 0.0109114 0.0133508 0.0160327 0.0189572 0.0221242 0.025356 0.0284747 0.0314803 0.0343729 0.0371524 0.0398188 0.0423722 0.0448125 0.0469721 0.0486833 0.0499463 0.050761 0.0511273 0.0510453 0.050515 0.0495363 0.0481821 0.0465251 0.0445652 0.0423024 0.0397369 0.0368685 0.0336972 0.0302232 0.0267424 0.0235512 0.0206496 0.0180374 0.0157148 0.0136817 0.0119381 0.0104841 0.00958067 0.00948891 0.0102088 0.0117404 0.0140836 0.0172385 0.0212051 0.0259834 0.0315242 0.0377787 0.0447467 0.0524283 0.0608234 0.0699322 0.0797545 0.0902903 0.10111 0.111785 0.122314 0.132698 0.142936 0.153029 0.162977 0.172779 0.181963 0.190055 0.197056 0.202966 0.207785 0.211512 0.214149 0.215693 0.216108 0.215355 0.213432 0.210341 0.206082 0.200654 0.194057 0.186292 0.177779 0.168938 0.159768 0.150271 0.140446 0.130293 0.119812 0.109003 0.0982956 0.0881186 0.0784721 0.069356 0.0607705 0.0527155 0.0451911 0.0381971 0.0318008 0.0260693 0.0210026 0.0166007 0.0128636 0.00979132 0.00738383 0.00564114 0.004319 0.00317314 0.00220357 0.00141029 0.000793286 0.000352571 8.81429e-05 0 0 -9.44287e-06 -3.77715e-05 -8.49859e-05 -0.000151086 -0.000236072 -0.000339943 -0.000462701 -0.000604344 -0.000636926 -0.000432501 8.93136e-06 0.000687371 0.00160282 0.00275527 0.00414473 0.0057712 0.00765349 0.00981042 0.012242 0.0149482 0.017929 0.0211845 0.0247146 0.0285193 0.0323926 0.0361286 0.0397272 0.0431884 0.0465123 0.0496988 0.0527478 0.0556595 0.0582415 0.0603015 0.0618393 0.0628551 0.0633489 0.0633205 0.0627701 0.0616977 0.0601873 0.058323 0.0561048 0.0535327 0.0506068 0.047327 0.0436933 0.0397057 0.0357033 0.0320253 0.0286716 0.0256422 0.0229371 0.0205564 0.0185 0.016768 0.0156573 0.0154653 0.0161918 0.0178369 0.0204006 0.0238829 0.0282838 0.0336032 0.039785 0.0467732 0.0545677 0.0631686 0.0725757 0.0827892 0.0938089 0.105635 0.117783 0.129767 0.141587 0.153245 0.164739 0.176069 0.187236 0.198239 0.208548 0.217631 0.225488 0.232118 0.237523 0.241701 0.244654 0.24638 0.246835 0.245972 0.243793 0.240296 0.235482 0.229352 0.221904 0.213138 0.203525 0.193531 0.183158 0.172405 0.161271 0.149758 0.137865 0.125593 0.113424 0.101843 0.0908503 0.0804457 0.0706291 0.0614005 0.0527599 0.0447074 0.037327 0.0307028 0.0248347 0.0197228 0.015367 0.0117674 0.00892401 0.00683674 0.00523438 0.00384567 0.0026706 0.00170919 0.000961417 0.000427297 0.000106824 0 0 -2.69232e-06 -1.07693e-05 -2.42308e-05 -4.30771e-05 -6.73079e-05 -9.69234e-05 -0.000131923 -0.000172308 -7.3777e-05 0.000307971 0.000972935 0.00192112 0.00315251 0.00466713 0.00646496 0.00854601 0.010923 0.0136085 0.0166027 0.0199055 0.0235168 0.0274368 0.0316654 0.0362026 0.0408113 0.0452545 0.0495322 0.0536444 0.0575911 0.0613723 0.0649879 0.0684381 0.0715036 0.0739654 0.0758234 0.0770778 0.0777284 0.0777753 0.0772184 0.0760578 0.0743898 0.0723108 0.0698206 0.0669193 0.0636069 0.0598834 0.0557488 0.0512032 0.0466315 0.0424188 0.0385652 0.0350706 0.031935 0.0291585 0.026741 0.0246825 0.0233185 0.0229844 0.02368 0.0254056 0.028161 0.0319462 0.0367613 0.0426063 0.0494174 0.0571309 0.065747 0.0752654 0.0856864 0.0970097 0.109236 0.122364 0.135852 0.149159 0.162284 0.175228 0.187989 0.200569 0.212967 0.225183 0.236627 0.246709 0.255428 0.262785 0.26878 0.273412 0.276681 0.278588 0.27908 0.278103 0.275657 0.271742 0.266359 0.259507 0.251187 0.241397 0.230655 0.219477 0.207863 0.195812 0.183325 0.170402 0.157042 0.143247 0.129555 0.116508 0.104105 0.0923468 0.0812333 0.0707644 0.06094 0.0517602 0.0433286 0.0357492 0.0290217 0.0231463 0.0181229 0.0139516 0.0106323 0.008165 0.00625133 0.00459281 0.00318945 0.00204125 0.0011482 0.000510312 0.000127578 0 0 6.09868e-06 2.43947e-05 5.48881e-05 9.75789e-05 0.000152467 0.000219553 0.000298835 0.000390316 0.0006556 0.0012563 0.0021924 0.00346392 0.00507085 0.00701318 0.00929093 0.0119041 0.0148572 0.0181548 0.0217968 0.0257833 0.0301143 0.0347898 0.0398097 0.0451741 0.050612 0.0558524 0.0608954 0.0657408 0.0703888 0.0748394 0.0790925 0.083148 0.0867582 0.0896751 0.0918987 0.0934289 0.0942659 0.0944095 0.0938598 0.0926167 0.0907898 0.0884884 0.0857125 0.0824621 0.0787372 0.0745378 0.069864 0.0647156 0.0595269 0.0547317 0.0503303 0.0463225 0.0427083 0.0394878 0.036661 0.0342278 0.0325642 0.0320461 0.0326734 0.0344463 0.0373647 0.0414285 0.0466379 0.0529927 0.0604213 0.0688518 0.0782844 0.0887189 0.100155 0.112594 0.126034 0.140477 0.15532 0.169963 0.184405 0.198647 0.212688 0.226529 0.24017 0.25361 0.2662 0.277289 0.286878 0.294967 0.301555 0.306643 0.310231 0.312318 0.312843 0.311746 0.309024 0.30468 0.298712 0.291121 0.281907 0.271069 0.259171 0.246776 0.233884 0.220494 0.206608 0.192224 0.177343 0.161965 0.146689 0.132112 0.118236 0.10506 0.0925834 0.0808073 0.0697312 0.0593553 0.0498056 0.0412084 0.0335636 0.0268712 0.0211312 0.0163437 0.0125086 0.0096259 0.00736983 0.00541457 0.00376012 0.00240648 0.00135364 0.000601619 0.000150405 0 0 1.69301e-05 6.77205e-05 0.000152371 0.000270882 0.000423253 0.000609484 0.000829576 0.00108353 0.0015512 0.00241247 0.00366733 0.00531578 0.00735781 0.00979344 0.0126227 0.0158455 0.0194562 0.0234491 0.0278243 0.0325817 0.0377214 0.0432433 0.0491474 0.0554338 0.0617946 0.0679222 0.0738166 0.0794777 0.0849055 0.0901001 0.0950614 0.0997895 0.104005 0.107431 0.110065 0.111909 0.112961 0.113223 0.112694 0.111374 0.109387 0.106856 0.103781 0.100161 0.0959977 0.0912902 0.0860387 0.0802431 0.0743895 0.0689641 0.063967 0.059398 0.0552572 0.0515445 0.0482601 0.0454038 0.0433944 0.0426504 0.043172 0.0449591 0.0480117 0.0523298 0.0579134 0.0647624 0.0727967 0.0819359 0.09218 0.103529 0.115983 0.129542 0.144205 0.159974 0.176185 0.192177 0.207949 0.223502 0.238836 0.25395 0.268845 0.28352 0.297266 0.309372 0.319838 0.328664 0.33585 0.341396 0.345303 0.34757 0.348126 0.346901 0.343895 0.339109 0.332541 0.324193 0.314064 0.302153 0.289071 0.275427 0.26122 0.246451 0.231119 0.215225 0.198768 0.181749 0.164826 0.148657 0.133243 0.118584 0.104679 0.0915291 0.0791337 0.0674929 0.056758 0.0470806 0.0384604 0.0308975 0.024392 0.0189438 0.014553 0.0112195 0.0085899 0.00631095 0.0043826 0.00280487 0.00157774 0.000701216 0.000175304 0 0 2.9802e-05 0.000119208 0.000268218 0.000476832 0.00074505 0.00107287 0.0014603 0.00190733 0.00261304 0.0037765 0.00539772 0.00747669 0.0100134 0.0130079 0.0164601 0.0203701 0.0247199 0.0294916 0.0346853 0.0403007 0.0463381 0.0527974 0.0596786 0.0669817 0.0743593 0.081464 0.0882959 0.0948549 0.101141 0.107154 0.112895 0.118362 0.123245 0.127232 0.130323 0.13251