<?xml version="1.0"?> 
<VTKFile type="StructuredGrid" version="0.1"> 
<StructuredGrid WholeExtent="0 128 0 128 0 0"> 
<Piece Extent="0 128 0 128 0 0"> 
<PointData>
<DataArray type="Float32" Name="u" format="ascii" NumberOfComponents="1"> 
0 0 0 0 0 0 0 0 0 0 0 0 0 0 0 0 0 0 0 0 0 0 0 0 0 0 0 0 0 0 0 0 0 0 0 0 0 0 0 0 0 0 0 0 0 0 0 0 0 0 0 0 0 0 0 0 0 0 0 0 0 0 0 0 0 0 0 0 0 0 0 0 0 0 0 0 0 0 0 0 0 0 0 0 0 0 0 0 0 0 0 0 0 0 0 0 0 0 0 0 0 0 0 0 0 0 0 0 0 0 0 0 0 0 0 0 0 0 0 0 0 0 0 0 0 0 0 0 0 0 -3.43723e-07 -1.37489e-06 -3.09351e-06 -5.49956e-06 -8.59307e-06 -1.2374e-05 -1.68424e-05 -2.19983e-05 -2.784e-05 -3.43661e-05 -4.15765e-05 -4.94712e-05 -5.80503e-05 -6.73137e-05 -7.72615e-05 -8.78936e-05 -9.88167e-05 -0.000109638 -0.000120356 -0.000130972 -0.000141486 -0.000151898 -0.000162208 -0.000172415 -0.000182294 -0.000191619 -0.000200391 -0.000208608 -0.000216272 -0.000223382 -0.000229938 -0.000235941 -0.000241336 -0.00024607 -0.000250144 -0.000253557 -0.00025631 -0.000258401 -0.000259833 -0.000260603 -0.000260935 -0.00026105 -0.000260949 -0.000260631 -0.000260097 -0.000259346 -0.000258378 -0.000257194 -0.000255646 -0.000253585 -0.000251012 -0.000247927 -0.000244329 -0.000240219 -0.000235597 -0.000230463 -0.000224195 -0.000216174 -0.000206399 -0.00019487 -0.000181587 -0.00016655 -0.000149759 -0.000131214 -0.000111038 -8.93539e-05 -6.61613e-05 -4.14601e-05 -1.52506e-05 1.24673e-05 4.16937e-05 7.24284e-05 0.000103433 0.000133469 0.000162537 0.000190636 0.000217766 0.000243928 0.000269121 0.000293346 0.000315533 0.000334614 0.000350589 0.000363458 0.00037322 0.000379877 0.000383427 0.00038387 0.000381361 0.000376053 0.000367946 0.000357039 0.000343333 0.000326828 0.000307524 0.00028542 0.000261842 0.000238113 0.000214234 0.000190205 0.000166026 0.000141696 0.000117217 9.25867e-05 6.91111e-05 4.80944e-05 2.95367e-05 1.3438e-05 -2.01673e-07 -1.13824e-05 -2.01041e-05 -2.63669e-05 -3.07223e-05 -3.3722e-05 -3.53659e-05 -3.56542e-05 -3.45867e-05 -3.21635e-05 -2.83846e-05 -2.325e-05 -1.78008e-05 -1.30781e-05 -9.08202e-06 -5.81249e-06 -3.26953e-06 -1.45312e-06 -3.63281e-07 0 0 -1.37489e-06 -5.49956e-06 -1.2374e-05 -2.19983e-05 -3.43723e-05 -4.94961e-05 -6.73697e-05 -8.7993e-05 -0.00011136 -0.000137464 -0.000166306 -0.000197885 -0.000232201 -0.000269255 -0.000309046 -0.000351574 -0.000395267 -0.00043855 -0.000481425 -0.00052389 -0.000565946 -0.000607593 -0.000648831 -0.00068966 -0.000729176 -0.000766477 -0.000801563 -0.000834434 -0.000865089 -0.000893529 -0.000919754 -0.000943763 -0.000965343 -0.000984281 -0.00100058 -0.00101423 -0.00102524 -0.00103361 -0.00103933 -0.00104241 -0.00104374 -0.0010442 -0.0010438 -0.00104252 -0.00104039 -0.00103738 -0.00103351 -0.00102878 -0.00102258 -0.00101434 -0.00100405 -0.000991706 -0.000977316 -0.000960877 -0.000942388 -0.000921851 -0.000896781 -0.000864696 -0.000825595 -0.000779478 -0.000726346 -0.000666198 -0.000599035 -0.000524856 -0.000444153 -0.000357416 -0.000264645 -0.000165841 -6.10025e-05 4.98692e-05 0.000166775 0.000289714 0.000413733 0.000533877 0.000650147 0.000762543 0.000871065 0.000975712 0.00107649 0.00117338 0.00126213 0.00133846 0.00140236 0.00145383 0.00149288 0.00151951 0.00153371 0.00153548 0.00152545 0.00150421 0.00147178 0.00142816 0.00137333 0.00130731 0.00123009 0.00114168 0.00104737 0.000952453 0.000856938 0.000760821 0.000664104 0.000566786 0.000468867 0.000370347 0.000276444 0.000192378 0.000118147 5.37521e-05 -8.06693e-07 -4.55296e-05 -8.04165e-05 -0.000105468 -0.000122889 -0.000134888 -0.000141464 -0.000142617 -0.000138347 -0.000128654 -0.000113538 -9.29999e-05 -7.1203e-05 -5.23124e-05 -3.63281e-05 -2.325e-05 -1.30781e-05 -5.81249e-06 -1.45312e-06 0 0 -3.09351e-06 -1.2374e-05 -2.78415e-05 -4.94961e-05 -7.73376e-05 -0.000111366 -0.000151582 -0.000197984 -0.00025056 -0.000309295 -0.000374188 -0.000445241 -0.000522453 -0.000605824 -0.000695353 -0.000791042 -0.00088935 -0.000986738 -0.00108321 -0.00117875 -0.00127338 -0.00136708 -0.00145987 -0.00155173 -0.00164065 -0.00172457 -0.00180352 -0.00187748 -0.00194645 -0.00201044 -0.00206945 -0.00212347 -0.00217202 -0.00221463 -0.0022513 -0.00228201 -0.00230679 -0.00232561 -0.00233849 -0.00234543 -0.00234841 -0.00234945 -0.00234854 -0.00234568 -0.00234087 -0.00233411 -0.00232541 -0.00231475 -0.00230081 -0.00228226 -0.00225911 -0.00223134 -0.00219896 -0.00216197 -0.00212037 -0.00207416 -0.00201776 -0.00194556 -0.00185759 -0.00175383 -0.00163428 -0.00149895 -0.00134783 -0.00118093 -0.000999344 -0.000804185 -0.000595451 -0.000373141 -0.000137256 0.000112206 0.000375243 0.000651856 0.000930898 0.00120122 0.00146283 0.00171572 0.0019599 0.00219535 0.00242209 0.00264011 0.0028398 0.00301153 0.0031553 0.00327112 0.00335898 0.00341889 0.00345084 0.00345483 0.00343225 0.00338448 0.00331151 0.00321335 0.00309 0.00294145 0.00276771 0.00256878 0.00235658 0.00214302 0.00192811 0.00171185 0.00149423 0.00127527 0.00105495 0.00083328 0.000622 0.00043285 0.000265831 0.000120942 -1.81506e-06 -0.000102442 -0.000180937 -0.000237302 -0.000276501 -0.000303498 -0.000318293 -0.000320888 -0.00031128 -0.000289472 -0.000255461 -0.00020925 -0.000160207 -0.000117703 -8.17382e-05 -5.23124e-05 -2.94257e-05 -1.30781e-05 -3.26953e-06 0 0 -5.49956e-06 -2.19983e-05 -4.94961e-05 -8.7993e-05 -0.000137489 -0.000197984 -0.000269479 -0.000351972 -0.00044544 -0.000549857 -0.000665224 -0.00079154 -0.000928805 -0.00107702 -0.00123618 -0.0014063 -0.00158107 -0.0017542 -0.0019257 -0.00209556 -0.00226378 -0.00243037 -0.00259532 -0.00275864 -0.0029167 -0.00306591 -0.00320625 -0.00333774 -0.00346036 -0.00357412 -0.00367901 -0.00377505 -0.00386137 -0.00393712 -0.0040023 -0.00405691 -0.00410095 -0.00413442 -0.00415732 -0.00416965 -0.00417496 -0.0041768 -0.00417519 -0.0041701 -0.00416155 -0.00414953 -0.00413405 -0.00411511 -0.00409033 -0.00405736 -0.00401619 -0.00396682 -0.00390926 -0.00384351 -0.00376955 -0.0036874 -0.00358712 -0.00345878 -0.00330238 -0.00311791 -0.00290538 -0.00266479 -0.00239614 -0.00209943 -0.00177661 -0.00142966 -0.00105858 -0.000663362 -0.00024401 0.000199477 0.000667099 0.00115885 0.00165493 0.00213551 0.00260059 0.00305017 0.00348426 0.00390285 0.00430594 0.00469354 0.00504853 0.00535383 0.00560943 0.00581533 0.00597153 0.00607802 0.00613482 0.00614193 0.00610178 0.00601685 0.00588713 0.00571263 0.00549333 0.00522925 0.00492038 0.00456672 0.00418947 0.00380981 0.00342775 0.00304329 0.00265642 0.00226714 0.00187547 0.00148139 0.00110578 0.00076951 0.000472588 0.000215009 -3.22677e-06 -0.000182118 -0.000321666 -0.00042187 -0.000491557 -0.000539552 -0.000565855 -0.000570467 -0.000553387 -0.000514616 -0.000454154 -0.000371999 -0.000284812 -0.00020925 -0.000145312 -9.29999e-05 -5.23124e-05 -2.325e-05 -5.81249e-06 0 0 -8.59307e-06 -3.43723e-05 -7.73376e-05 -0.000137489 -0.000214827 -0.000309351 -0.00042106 -0.000549956 -0.000696 -0.000859152 -0.00103941 -0.00123678 -0.00145126 -0.00168284 -0.00193154 -0.00219734 -0.00247042 -0.00274094 -0.0030089 -0.00327431 -0.00353716 -0.00379746 -0.00405519 -0.00431037 -0.00455735 -0.00479048 -0.00500977 -0.00521521 -0.00540681 -0.00558456 -0.00574846 -0.00589852 -0.00603339 -0.00615175 -0.0062536 -0.00633893 -0.00640774 -0.00646003 -0.00649581 -0.00651508 -0.00652337 -0.00652626 -0.00652373 -0.00651578 -0.00650242 -0.00648365 -0.00645946 -0.00642986 -0.00639114 -0.00633962 -0.0062753 -0.00619816 -0.00610822 -0.00600548 -0.00588993 -0.00576157 -0.00560488 -0.00540435 -0.00515997 -0.00487174 -0.00453966 -0.00416374 -0.00374397 -0.00328035 -0.00277596 -0.00223385 -0.00165403 -0.0010365 -0.000381266 0.000311683 0.00104234 0.00181071 0.00258583 0.00333673 0.00406342 0.00476589 0.00544415 0.0060982 0.00672803 0.00733365 0.00788833 0.00836536 0.00876473 0.00908645 0.00933051 0.00949691 0.00958566 0.00959676 0.00953403 0.00940133 0.00919864 0.00892598 0.00858333 0.0081707 0.00768809 0.0071355 0.00654604 0.00595283 0.00535586 0.00475513 0.00415065 0.00354241 0.00293042 0.00231467 0.00172778 0.00120236 0.000738418 0.000335951 -5.04183e-06 -0.00028456 -0.000502603 -0.000659172 -0.000768057 -0.000843049 -0.000884148 -0.000891355 -0.000864668 -0.000804088 -0.000709615 -0.000581249 -0.000445019 -0.000326953 -0.00022705 -0.000145312 -8.17382e-05 -3.63281e-05 -9.08202e-06 0 0 -1.2374e-05 -4.94961e-05 -0.000111366 -0.000197984 -0.000309351 -0.000445465 -0.000606327 -0.000791937 -0.00100224 -0.00123718 -0.00149675 -0.00178096 -0.00208981 -0.00242329 -0.00278141 -0.00316417 -0.0035574 -0.00394695 -0.00433282 -0.00471501 -0.00509351 -0.00546834 -0.00583948 -0.00620694 -0.00656259 -0.0068983 -0.00721407 -0.00750991 -0.0077858 -0.00804176 -0.00827778 -0.00849387 -0.00868809 -0.00885853 -0.00900518 -0.00912805 -0.00922714 -0.00930245 -0.00935397 -0.00938171 -0.00939366 -0.00939781 -0.00939417 -0.00938272 -0.00936349 -0.00933645 -0.00930162 -0.00925899 -0.00920325 -0.00912906 -0.00903643 -0.00892536 -0.00879584 -0.00864789 -0.00848149 -0.00829666 -0.00807103 -0.00778226 -0.00743035 -0.0070153 -0.00653711 -0.00599579 -0.00539132 -0.00472371 -0.00399738 -0.00321674 -0.00238181 -0.00149257 -0.000549023 0.000448823 0.00150097 0.00260742 0.00372359 0.00480489 0.00585132 0.00686289 0.00783958 0.00878141 0.00968837 0.0105605 0.0113592 0.0120461 0.0126212 0.0130845 0.0134359 0.0136756 0.0138034 0.0138193 0.013729 0.0135379 0.013246 0.0128534 0.01236 0.0117658 0.0110709 0.0102751 0.0094263 0.00857208 0.00771244 0.00684739 0.00597694 0.00510107 0.0042198 0.00333312 0.002488 0.0017314 0.00106332 0.000483769 -7.26024e-06 -0.000409766 -0.000723749 -0.000949208 -0.001106 -0.00121399 -0.00127317 -0.00128355 -0.00124512 -0.00115789 -0.00102185 -0.000836999 -0.000640827 -0.000470812 -0.000326953 -0.00020925 -0.000117703 -5.23124e-05 -1.30781e-05 0 0 -1.68424e-05 -6.73697e-05 -0.000151582 -0.000269479 -0.00042106 -0.000606327 -0.000825278 -0.00107791 -0.00136416 -0.00168394 -0.00203725 -0.00242409 -0.00284446 -0.00329837 -0.00378581 -0.00430679 -0.00484202 -0.00537224 -0.00589745 -0.00641765 -0.00693284 -0.00744301 -0.00794818 -0.00844833 -0.00893241 -0.00938935 -0.00981915 -0.0102218 -0.0105973 -0.0109457 -0.011267 -0.0115611 -0.0118255 -0.0120574 -0.0122571 -0.0124243 -0.0125592 -0.0126617 -0.0127318 -0.0127695 -0.0127858 -0.0127915 -0.0127865 -0.0127709 -0.0127447 -0.0127079 -0.0126605 -0.0126025 -0.0125266 -0.0124257 -0.0122996 -0.0121484 -0.0119721 -0.0117707 -0.0115443 -0.0112927 -0.0109856 -0.0105925 -0.0101135 -0.00954861 -0.00889774 -0.00816093 -0.00733818 -0.00642949 -0.00544087 -0.00437834 -0.0032419 -0.00203155 -0.000747281 0.000610898 0.00204299 0.00354899 0.00506822 0.00653999 0.0079643 0.00934115 0.0106705 0.0119525 0.0131869 0.014374 0.0154611 0.0163961 0.0171789 0.0178094 0.0182878 0.018614 0.0187879 0.0188096 0.0186867 0.0184266 0.0180293 0.0174949 0.0168233 0.0160146 0.0150687 0.0139856 0.0128302 0.0116675 0.0104975 0.00932006 0.00813528 0.00694313 0.00574362 0.00453675 0.00338644 0.00235663 0.0014473 0.000658464 -9.88199e-06 -0.000557737 -0.000985103 -0.00129198 -0.00150539 -0.00165238 -0.00173293 -0.00174705 -0.00169475 -0.00157601 -0.00139085 -0.00113925 -0.000872237 -0.000640827 -0.000445019 -0.000284812 -0.000160207 -7.1203e-05 -1.78008e-05 0 0 -2.19983e-05 -8.7993e-05 -0.000197984 -0.000351972 -0.000549956 -0.000791937 -0.00107791 -0.00140789 -0.00178176 -0.00219943 -0.00266089 -0.00316616 -0.00371522 -0.00430808 -0.00494474 -0.00562519 -0.00632427 -0.0070168 -0.00770279 -0.00838224 -0.00905513 -0.00972149 -0.0103813 -0.0110346 -0.0116668 -0.0122636 -0.012825 -0.0133509 -0.0138414 -0.0142965 -0.0147161 -0.0151002 -0.0154455 -0.0157485 -0.0160092 -0.0162277 -0.0164038 -0.0165377 -0.0166293 -0.0166786 -0.0166998 -0.0167072 -0.0167007 -0.0166804 -0.0166462 -0.0165981 -0.0165362 -0.0164604 -0.0163613 -0.0162294 -0.0160648 -0.0158673 -0.0156371 -0.015374 -0.0150782 -0.0147496 -0.0143485 -0.0138351 -0.0132095 -0.0124716 -0.0116215 -0.0106592 -0.00958456 -0.0083977 -0.00710645 -0.00571865 -0.00423432 -0.00265345 -0.00097604 0.000797908 0.00266839 0.00463542 0.00661972 0.00854203 0.0104024 0.0122007 0.013937 0.0156114 0.0172238 0.0187741 0.0201941 0.0214153 0.0224377 0.0232613 0.0238861 0.0243121 0.0245393 0.0245677 0.0244071 0.0240674 0.0235485 0.0228505 0.0219733 0.020917 0.0196815 0.0182669 0.0167579 0.0152392 0.013711 0.0121731 0.0106257 0.00906858 0.00750187 0.00592555 0.00442311 0.00307804 0.00189035 0.000860034 -1.29071e-05 -0.000728473 -0.00128666 -0.00168748 -0.00196623 -0.00215821 -0.00226342 -0.00228187 -0.00221355 -0.00205846 -0.00181661 -0.001488 -0.00113925 -0.000836999 -0.000581249 -0.000371999 -0.00020925 -9.29999e-05 -2.325e-05 0 0 -2.74935e-05 -0.000109974 -0.000247441 -0.000439896 -0.000687337 -0.000989765 -0.00134718 -0.00175958 -0.00222589 -0.00274504 -0.00331702 -0.00394184 -0.00461949 -0.00534997 -0.00613329 -0.00696945 -0.00782679 -0.00867367 -0.00951009 -0.0103361 -0.0111516 -0.0119566 -0.0127512 -0.0135353 -0.0142924 -0.0150057 -0.0156753 -0.0163012 -0.0168834 -0.0174218 -0.0179166 -0.0183676 -0.0187724 -0.0191282 -0.0194351 -0.0196932 -0.0199023 -0.0200626 -0.0201739 -0.0202364 -0.0202676 -0.0202852 -0.0202892 -0.0202796 -0.0202564 -0.0202196 -0.0201692 -0.0201051 -0.0200132 -0.0198788 -0.0197022 -0.0194832 -0.0192218 -0.0189182 -0.0185722 -0.0181838 -0.0177007 -0.0170704 -0.0162928 -0.0153681 -0.0142962 -0.013077 -0.0117107 -0.0101971 -0.00854648 -0.00676882 -0.00486414 -0.00283245 -0.000673747 0.00161197 0.00402469 0.00656443 0.00912821 0.011613 0.0140189 0.0163458 0.0185938 0.0207629 0.022853 0.0248641 0.0267071 0.0282928 0.0296211 0.030692 0.0315056 0.0320618 0.0323607 0.0324022 0.0321986 0.0317624 0.0310936 0.030192 0.0290578 0.0276908 0.0260912 0.0242589 0.0223033 0.0203337 0.0183502 0.0163527 0.0143413 0.0123158 0.0102765 0.00822314 0.00626338 0.00450472 0.00294716 0.00159072 0.000435376 -0.00051886 -0.00127199 -0.00182402 -0.00221891 -0.00250066 -0.00266925 -0.0027247 -0.00266699 -0.00249613 -0.00221212 -0.00181495 -0.00138957 -0.00102091 -0.000708966 -0.000453738 -0.000255228 -0.000113435 -2.83587e-05 0 0 -3.298e-05 -0.00013192 -0.00029682 -0.00052768 -0.000824499 -0.00118728 -0.00161602 -0.00211072 -0.00266742 -0.00328217 -0.00395496 -0.0046858 -0.00547469 -0.00632162 -0.0072266 -0.00818963 -0.00917221 -0.0101359 -0.0110806 -0.0120064 -0.0129133 -0.0138012 -0.0146702 -0.0155203 -0.0163356 -0.0171 -0.0178136 -0.0184765 -0.0190885 -0.0196497 -0.0201602 -0.0206198 -0.0210302 -0.0213931 -0.0217083 -0.021976 -0.022196 -0.0223684 -0.0224932 -0.0225705 -0.022621 -0.0226655 -0.0227042 -0.022737 -0.0227639 -0.0227848 -0.0227999 -0.0228091 -0.022788 -0.0227123 -0.022582 -0.0223972 -0.0221577 -0.0218636 -0.0215149 -0.0211116 -0.020583 -0.0198585 -0.018938 -0.0178216 -0.0165093 -0.015001 -0.0132968 -0.0113966 -0.00931337 -0.00705998 -0.00463644 -0.00204272 0.000721153 0.00365519 0.0067594 0.0100338 0.0133438 0.016555 0.0196674 0.022681 0.0255957 0.0284117 0.0311288 0.0337471 0.0361491 0.0382175 0.0399523 0.0413535 0.042421 0.0431549 0.0435551 0.0436217 0.0433696 0.0428139 0.0419544 0.0407913 0.0393244 0.0375538 0.0354796 0.0331016 0.0305607 0.0279976 0.0254124 0.0228049 0.0201752 0.0175234 0.0148494 0.0121531 0.00957262 0.00724572 0.00517243 0.00335275 0.00178668 0.000474216 -0.000584638 -0.00138988 -0.00199386 -0.00244891 -0.00275504 -0.00291225 -0.00292053 -0.00277988 -0.00249032 -0.00205182 -0.00157093 -0.00115415 -0.000801493 -0.000512956 -0.000288537 -0.000128239 -3.20597e-05 0 0 -3.84578e-05 -0.000153831 -0.00034612 -0.000615324 -0.000961444 -0.00138448 -0.00188443 -0.0024613 -0.00310634 -0.00381081 -0.00457472 -0.00539805 -0.00628082 -0.00722302 -0.00822466 -0.00928572 -0.0103605 -0.0114034 -0.0124143 -0.0133933 -0.0143403 -0.0152553 -0.0161384 -0.0169896 -0.0177964 -0.0185466 -0.01924 -0.0198767 -0.0204568 -0.0209801 -0.0214468 -0.0218567 -0.0222191 -0.0225431 -0.0228287 -0.023076 -0.0232848 -0.0234552 -0.0235872 -0.0236808 -0.0237599 -0.0238482 -0.0239458 -0.0240526 -0.0241686 -0.0242939 -0.0244284 -0.0245722 -0.0246859 -0.0247299 -0.0247044 -0.0246092 -0.0244445 -0.0242102 -0.0239064 -0.0235329 -0.0229954 -0.0221995 -0.0211451 -0.0198322 -0.0182609 -0.0164311 -0.0143428 -0.0119961 -0.00940711 -0.00659216 -0.00355121 -0.000284272 0.00320866 0.00692758 0.0108725 0.0150434 0.0192665 0.023368 0.0273479 0.0312061 0.0349427 0.0385577 0.0420511 0.0454229 0.0485201 0.0511896 0.0534315 0.0552457 0.0566323 0.0575913 0.0581226 0.0582263 0.0579201 0.0572217 0.0561311 0.0546483 0.0527732 0.050506 0.0478466 0.044795 0.0415301 0.0382309 0.0348974 0.0315296 0.0281276 0.0246912 0.0212205 0.0177155 0.0143509 0.0113011 0.00856616 0.00614614 0.004041 0.00225076 0.000775394 -0.00038508 -0.00129107 -0.00200297 -0.00252079 -0.00284452 -0.00297417 -0.00290973 -0.00265121 -0.0021986 -0.00168331 -0.00123671 -0.000858829 -0.000549651 -0.000309179 -0.000137413 -3.43532e-05 0 0 -4.39269e-05 -0.000175707 -0.000395342 -0.00070283 -0.00109817 -0.00158137 -0.00215242 -0.00281132 -0.00354265 -0.00433097 -0.00517628 -0.00607859 -0.00703789 -0.00805418 -0.00912746 -0.0102577 -0.0113918 -0.0124762 -0.0135112 -0.0144966 -0.0154325 -0.0163189 -0.0171558 -0.0179431 -0.0186749 -0.0193454 -0.0199544 -0.020502 -0.0209882 -0.021413 -0.0217764 -0.0220784 -0.022339 -0.0225783 -0.0227964 -0.0229932 -0.0231687 -0.0233229 -0.0234559 -0.0235675 -0.0236845 -0.0238332 -0.0240139 -0.0242263 -0.0244706 -0.0247468 -0.0250548 -0.0253946 -0.0257067 -0.0259316 -0.0260691 -0.0261194 -0.0260824 -0.0259582 -0.0257466 -0.0254478 -0.024938 -0.0240934 -0.022914 -0.0213999 -0.019551 -0.0173673 -0.0148488 -0.0119956 -0.0088277 -0.00536533 -0.00160846 0.00244291 0.00678877 0.0114291 0.016364 0.0215934 0.0268963 0.0320519 0.0370602 0.0419212 0.0466348 0.0512011 0.0556201 0.0598917 0.06382 0.0672089 0.0700585 0.0723687 0.0741396 0.0753711 0.0760632 0.076216 0.0758501 0.0749859 0.0736236 0.071763 0.0694043 0.0665474 0.0631922 0.0593389 0.0552114 0.0510335 0.0468054 0.042527 0.0381983 0.0338192 0.0293899 0.0249103 0.0205981 0.0166707 0.0131283 0.00997087 0.00719835 0.00481076 0.00280811 0.00119039 -0.000110538 -0.00116283 -0.0019665 -0.00252152 -0.00282792 -0.00288568 -0.0026948 -0.0022553 -0.00172671 -0.0012686 -0.000880975 -0.000563824 -0.000317151 -0.000140956 -3.5239e-05 0 0 -4.93873e-05 -0.000197549 -0.000444485 -0.000790196 -0.00123468 -0.00177794 -0.00241998 -0.00316078 -0.00397635 -0.00484264 -0.00575965 -0.0067274 -0.00774588 -0.00881508 -0.00993502 -0.0111057 -0.0122659 -0.0133544 -0.0143713 -0.0153165 -0.0161901 -0.016992 -0.0177223 -0.0183808 -0.0189711 -0.0194965 -0.0199569 -0.0203524 -0.0206829 -0.0209485 -0.0211491 -0.0212848 -0.0213899 -0.0214987 -0.0216113 -0.0217277 -0.0218477 -0.0219716 -0.0220991 -0.0222305 -0.0223946 -0.0226206 -0.0229085 -0.0232583 -0.0236699 -0.0241435 -0.0246789 -0.0252762 -0.0258506 -0.0263173 -0.0266764 -0.0269277 -0.0270714 -0.0271074 -0.0270357 -0.0268563 -0.0264107 -0.0255402 -0.0242448 -0.0225246 -0.0203795 -0.0178096 -0.0148148 -0.0113951 -0.00757514 -0.00337951 0.00119181 0.00613881 0.0114615 0.0171599 0.0232339 0.0296837 0.0362333 0.0426069 0.0488045 0.0548262 0.060672 0.0663417 0.0718355 0.0771534 0.0820488 0.0862755 0.0898334 0.0927224 0.0949427 0.0964942 0.0973769 0.0975908 0.0971595 0.0961065 0.0944319 0.0921355 0.0892175 0.0856779 0.0815165 0.0767336 0.0716046 0.0664056 0.0611363 0.0557969 0.0503873 0.0449076 0.0393576 0.0337376 0.0283143 0.0233547 0.018859 0.014827 0.0112587 0.00815422 0.0055135 0.00333653 0.00154773 7.1503e-05 -0.00109216 -0.00194325 -0.00248177 -0.00270771 -0.00262109 -0.0022219 -0.00170114 -0.00124982 -0.000867931 -0.000555476 -0.000312455 -0.000138869 -3.47172e-05 0 0 -5.48389e-05 -0.000219356 -0.00049355 -0.000877423 -0.00137097 -0.0019742 -0.00268711 -0.00350969 -0.00440744 -0.00534582 -0.00632484 -0.0073445 -0.0084048 -0.00950574 -0.0106473 -0.0118295 -0.0129829 -0.0140379 -0.0149946 -0.0158529 -0.0166129 -0.0172746 -0.0178379 -0.0183028 -0.018685 -0.0189998 -0.0192474 -0.0194277 -0.0195407 -0.0195864 -0.0195648 -0.019476 -0.0193718 -0.0193043 -0.0192735 -0.0192794 -0.0193219 -0.0194012 -0.0195171 -0.0196697 -0.0198903 -0.0202103 -0.0206297 -0.0211484 -0.0217665 -0.022484 -0.0233008 -0.024217 -0.0251175 -0.0258872 -0.026526 -0.0270341 -0.0274114 -0.0276579 -0.0277735 -0.0277584 -0.0274135 -0.0265399 -0.0251375 -0.0232064 -0.0207466 -0.017758 -0.0142407 -0.0101946 -0.00564943 -0.000634687 0.0048496 0.0108034 0.0172268 0.0241197 0.0314822 0.0393142 0.0472773 0.0550328 0.0625808 0.0699213 0.0770542 0.0839797 0.0906976 0.097208 0.103207 0.108389 0.112756 0.116307 0.119042 0.120961 0.122064 0.122351 0.121848 0.120583 0.118556 0.115766 0.112213 0.107898 0.10282 0.0969788 0.0907099 0.084347 0.0778901 0.0713394 0.0646947 0.0579561 0.0511236 0.0441972 0.0374994 0.0313531 0.025758 0.0207144 0.0162221 0.0122812 0.00889157 0.00605334 0.00368374 0.00170004 0.000102226 -0.00110969 -0.00193572 -0.00237584 -0.00243008 -0.00209842 -0.0016066 -0.00118036 -0.000819696 -0.000524605 -0.000295091 -0.000131151 -3.27878e-05 0 0 -6.02819e-05 -0.000241128 -0.000542537 -0.000964511 -0.00150705 -0.00217015 -0.00295381 -0.00385804 -0.00483592 -0.00584051 -0.00687184 -0.00792988 -0.00901466 -0.0101262 -0.0112644 -0.0124293 -0.0135428 -0.0145268 -0.0153811 -0.0161059 -0.0167011 -0.0171667 -0.0175027 -0.0177091 -0.0178165 -0.0178555 -0.017826 -0.0177281 -0.0175617 -0.0173269 -0.0170236 -0.0166519 -0.0162847 -0.015995 -0.0157829 -0.0156483 -0.0155913 -0.0156117 -0.0157097 -0.0158852 -0.0161717 -0.0166024 -0.0171775 -0.0178968 -0.0187604 -0.0197683 -0.0209205 -0.022217 -0.0235074 -0.0246411 -0.0256182 -0.0264386 -0.0271024 -0.0276096 -0.0279602 -0.0281541 -0.0279465 -0.0270925 -0.0255921 -0.0234453 -0.0206521 -0.0172125 -0.0131265 -0.00839418 -0.00305057 0.00286913 0.00936492 0.0164368 0.0240848 0.0323088 0.0411089 0.0504852 0.0600284 0.0693297 0.078389 0.0872063 0.0957816 0.104115 0.112206 0.120056 0.127293 0.133551 0.138827 0.143122 0.146437 0.148771 0.150124 0.150496 0.149917 0.148417 0.145996 0.142654 0.138391 0.133206 0.127101 0.120075 0.112527 0.104858 0.0970669 0.0891545 0.0811205 0.072965 0.0646879 0.0562892 0.0481536 0.0406657 0.0338256 0.0276332 0.0220885 0.0171915 0.0129423 0.00934082 0.00629749 0.00372277 0.00161665 -2.08615e-05 -0.00118977 -0.00189007 -0.00212176 -0.00188485 -0.00144309 -0.00106023 -0.000736271 -0.000471213 -0.000265058 -0.000117803 -2.94508e-05 0 0 -6.57162e-05 -0.000262865 -0.000591446 -0.00105146 -0.0016429 -0.00236578 -0.00322009 -0.00420584 -0.00526179 -0.00632672 -0.00740065 -0.00848355 -0.00957544 -0.0106763 -0.0117862 -0.012905 -0.0139457 -0.0148209 -0.0155308 -0.0160753 -0.0164545 -0.0166682 -0.0167166 -0.0165996 -0.0163657 -0.0160634 -0.0156926 -0.0152534 -0.0147458 -0.0141698 -0.0135254 -0.0128125 -0.0121286 -0.0115709 -0.0111396 -0.0108345 -0.0106557 -0.0106032 -0.010677 -0.0108771 -0.0112386 -0.0117968 -0.0125517 -0.0135033 -0.0146515 -0.0159965 -0.017538 -0.0192763 -0.0210203 -0.0225791 -0.0239528 -0.0251412 -0.0261445 -0.0269626 -0.0275955 -0.0280433 -0.0280095 -0.0271979 -0.0256085 -0.0232412 -0.0200961 -0.0161732 -0.0114724 -0.00599376 0.00022144 0.00713194 0.0147378 0.0230389 0.0320353 0.041727 0.0521141 0.0631964 0.0744867 0.0854976 0.0962291 0.106681 0.116854 0.126747 0.136361 0.145696 0.154309 0.161759 0.168045 0.173168 0.177128 0.179924 0.181556 0.182026 0.181365 0.179607 0.176752 0.1728 0.167751 0.161604 0.154361 0.146021 0.137056 0.127938 0.118667 0.109242 0.0996647 0.0899341 0.0800504 0.0700136 0.0602767 0.0512927 0.0430616 0.0355833 0.0288579 0.0228854 0.0176657 0.013199 0.00938898 0.0061397 0.00345112 0.00132325 -0.000243923 -0.00125039 -0.00169614 -0.0015812 -0.0012106 -0.000889424 -0.000617655 -0.000395299 -0.000222356 -9.88248e-05 -2.47062e-05 0 0 -7.0152e-05 -0.000280608 -0.000631368 -0.00112243 -0.0017538 -0.00252547 -0.00343745 -0.00448973 -0.00560416 -0.00670257 -0.00778498 -0.00885138 -0.00990177 -0.0109361 -0.0119545 -0.0129569 -0.0138472 -0.0145296 -0.015004 -0.0152705 -0.0153289 -0.0151794 -0.0148219 -0.0142565 -0.0135543 -0.0127869 -0.0119541 -0.0110559 -0.0100924 -0.00906361 -0.00796946 -0.00680996 -0.0057122 -0.00480323 -0.00408306 -0.00355168 -0.00320909 -0.0030553 -0.00309031 -0.00331411 -0.00376327 -0.00447436 -0.00544739 -0.00668235 -0.00817924 -0.00993806 -0.0119588 -0.0142415 -0.0165477 -0.0186391 -0.0205157 -0.0221775 -0.0236244 -0.0248566 -0.0258739 -0.0266763 -0.0269093 -0.026218 -0.0246025 -0.0220628 -0.0185988 -0.0142106 -0.0088982 -0.00266155 0.0044514 0.0123927 0.0211624 0.0307605 0.0411869 0.0524417 0.0645249 0.0774365 0.090603 0.103451 0.11598 0.128191 0.140083 0.151657 0.162911 0.173848 0.183945 0.192682 0.20006 0.206078 0.210736 0.214034 0.215972 0.216551 0.215806 0.213774 0.210455 0.205849 0.199956 0.192776 0.184309 0.174555 0.164062 0.15338 0.142509 0.131447 0.120196 0.108756 0.0971259 0.0853062 0.0738239 0.0632062 0.0534529 0.0445642 0.0365399 0.0293801 0.0230848 0.017654 0.0129861 0.00897967 0.00563457 0.00295086 0.00092854 -0.000432397 -0.00113195 -0.00117011 -0.000895867 -0.000658188 -0.000457075 -0.000292528 -0.000164547 -7.3132e-05 -1.8283e-05 0 0 -7.25996e-05 -0.000290398 -0.000653396 -0.00116159 -0.00181499 -0.00261358 -0.00355738 -0.00464637 -0.00578212 -0.00686618 -0.00789856 -0.00887924 -0.00980824 -0.0106856 -0.0115112 -0.0122851 -0.0129034 -0.013262 -0.0133611 -0.0132005 -0.0127802 -0.0121004 -0.0111609 -0.00996179 -0.00860422 -0.00718932 -0.00571711 -0.00418758 -0.00260073 -0.000956558 0.000744928 0.00250373 0.00415575 0.00553686 0.00664708 0.00748641 0.00805484 0.00835237 0.008379 0.00813474 0.00758227 0.00668429 0.0054408 0.00385179 0.00191727 -0.000362758 -0.0029883 -0.00595936 -0.00898119 -0.0117591 -0.014293 -0.016583 -0.018629 -0.0204311 -0.0219893 -0.0233034 -0.0239523 -0.0235144 -0.0219898 -0.0193784 -0.0156804 -0.0108955 -0.00502401 0.00193426 0.00992412 0.0188904 0.0288332 0.0397525 0.0516482 0.0645203 0.0783689 0.093194 0.108328 0.123104 0.137521 0.15158 0.16528 0.178621 0.191605 0.20423 0.215892 0.225989 0.234519 0.241484 0.246882 0.250715 0.252982 0.253682 0.252856 0.250542 0.24674 0.24145 0.234672 0.226407 0.216653 0.205412 0.193311 0.180978 0.168412 0.155615 0.142585 0.129323 0.115829 0.102103 0.0887503 0.0763783 0.0649866 0.0545752 0.045144 0.0366931 0.0292225 0.0227322 0.0171169 0.0122715 0.00819596 0.00489023 0.00235434 0.0005883 -0.0004079 -0.000634257 -0.000485603 -0.00035677 -0.000247757 -0.000158564 -8.91924e-05 -3.96411e-05 -9.91027e-06 0 0 -7.30589e-05 -0.000292236 -0.00065753 -0.00116894 -0.00182647 -0.00263012 -0.00357989 -0.00467577 -0.00579569 -0.00681756 -0.00774138 -0.00856714 -0.00929486 -0.00992453 -0.0104561 -0.0108897 -0.0111141 -0.0110181 -0.0106019 -0.00986527 -0.00880835 -0.00743109 -0.00573351 -0.00371561 -0.00151536 0.000729258 0.00301824 0.00535158 0.00772928 0.0101513 0.0126178 0.0151286 0.0174753 0.0194493 0.0210508 0.0222797 0.0231361 0.0236198 0.0237309 0.0234695 0.022798 0.0216791 0.0201128 0.0180991 0.015638 0.0127294 0.00937348 0.0055701 0.0016793 -0.00193894 -0.00528462 -0.00835773 -0.0111583 -0.0136863 -0.0159417 -0.0179246 -0.0191385 -0.0190871 -0.0177703 -0.0151882 -0.0113407 -0.00622795 0.000150187 0.00779367 0.0166396 0.0266251 0.0377502 0.0500148 0.063419 0.0779628 0.0936461 0.110469 0.127662 0.144456 0.160851 0.176847 0.192444 0.207642 0.222441 0.236841 0.25015 0.261678 0.271423 0.279386 0.285567 0.289967 0.292584 0.293419 0.292513 0.289908 0.285604 0.279601 0.271898 0.262496 0.251394 0.238593 0.224802 0.210731 0.196378 0.181745 0.166831 0.151635 0.13616 0.120403 0.105056 0.0908091 0.0776625 0.0656162 0.0546702 0.0448244 0.0360788 0.0284335 0.0217814 0.0160153 0.0111353 0.00714134 0.00403348 0.0018117 0.000475999 2.63691e-05 2.01889e-05 1.48326e-05 1.03004e-05 6.59228e-06 3.70816e-06 1.64807e-06 4.12017e-07 0 0 -7.15301e-05 -0.00028612 -0.000643771 -0.00114448 -0.00178825 -0.00257508 -0.00350497 -0.00457792 -0.00564486 -0.00655669 -0.00731344 -0.00791508 -0.00836163 -0.00865308 -0.00878944 -0.0087707 -0.00847938 -0.00779797 -0.00672649 -0.00526493 -0.00341329 -0.00117157 0.00146022 0.0044821 0.00771225 0.0109689 0.014252 0.0175615 0.0208976 0.0242601 0.0276491 0.0310646 0.0342463 0.0369342 0.0391282 0.0408283 0.0420346 0.042747 0.0429654 0.04269 0.0418839 0.0405101 0.0385687 0.0360596 0.0329829 0.0293385 0.0251265 0.0203469 0.0154338 0.0108213 0.00650947 0.00249831 -0.0012122 -0.00462205 -0.00773124 -0.0105398 -0.012468 -0.0129361 -0.0119441 -0.00949209 -0.00558 -0.000207839 0.00662438 0.0149167 0.0245978 0.0355967 0.0479133 0.0615475 0.0764994 0.0927691 0.110356 0.129261 0.148605 0.167508 0.185972 0.203994 0.221577 0.238719 0.255421 0.271683 0.28672 0.29975 0.310771 0.319785 0.326791 0.331789 0.334779 0.335761 0.334779 0.331875 0.327049 0.320302 0.311633 0.301043 0.288531 0.274098 0.258536 0.242639 0.226406 0.209837 0.192933 0.175693 0.158118 0.140207 0.122741 0.106498 0.0914807 0.0776874 0.0651185 0.0537739 0.0436538 0.034758 0.0269794 0.0202109 0.0144525 0.0097042 0.00596596 0.00323781 0.00151975 0.000811766 0.000621508 0.000456618 0.000317096 0.000202941 0.000114155 5.07354e-05 1.26838e-05 0 0 -6.8013e-05 -0.000272052 -0.000612117 -0.00108821 -0.00170032 -0.00244847 -0.00333264 -0.00435283 -0.00532962 -0.00608359 -0.00661474 -0.00692305 -0.00700855 -0.00687121 -0.00651105 -0.00592807 -0.00499923 -0.00360151 -0.00173491 0.000600575 0.00340494 0.00667819 0.0104203 0.0146313 0.0190786 0.0235295 0.0279841 0.0324423 0.0369042 0.0413697 0.0458389 0.0503117 0.054469 0.0579915 0.0608792 0.0631322 0.0647504 0.0657339 0.0660826 0.0657965 0.06484 0.0631773 0.0608084 0.0577333 0.053952 0.0494645 0.0442709 0.038371 0.0322822 0.0265216 0.0210892 0.0159851 0.0112092 0.00676158 0.00264216 -0.00114903 -0.00394064 -0.00506136 -0.00451117 -0.00229009 0.0016019 0.00716479 0.0143986 0.0233033 0.0337988 0.0458052 0.0593225 0.0743505 0.0908895 0.108939 0.1285 0.149571 0.171157 0.19226 0.212882 0.233021 0.252677 0.271852 0.290544 0.308754 0.325601 0.340204 0.352564 0.36268 0.370553 0.376182 0.379567 0.380709 0.379652 0.37644 0.371074 0.363553 0.353878 0.342049 0.328065 0.311926 0.294512 0.276702 0.25