<?xml version="1.0"?> 
<VTKFile type="StructuredGrid" version="0.1"> 
<StructuredGrid WholeExtent="0 128 0 128 0 0"> 
<Piece Extent="0 128 0 128 0 0"> 
<PointData>
<DataArray type="Float32" Name="u" format="ascii" NumberOfComponents="1"> 
0 0 0 0 0 0 0 0 0 0 0 0 0 0 0 0 0 0 0 0 0 0 0 0 0 0 0 0 0 0 0 0 0 0 0 0 0 0 0 0 0 0 0 0 0 0 0 0 0 0 0 0 0 0 0 0 0 0 0 0 0 0 0 0 0 0 0 0 0 0 0 0 0 0 0 0 0 0 0 0 0 0 0 0 0 0 0 0 0 0 0 0 0 0 0 0 0 0 0 0 0 0 0 0 0 0 0 0 0 0 0 0 0 0 0 0 0 0 0 0 0 0 0 0 0 0 0 0 0 0 9.6234e-08 3.84936e-07 8.66106e-07 1.53974e-06 2.40585e-06 3.46442e-06 4.71546e-06 6.15897e-06 7.73177e-06 9.37066e-06 1.10757e-05 1.28467e-05 1.46839e-05 1.65872e-05 1.85566e-05 2.05921e-05 2.25743e-05 2.43839e-05 2.60207e-05 2.74849e-05 2.87764e-05 2.98953e-05 3.08414e-05 3.16149e-05 3.24406e-05 3.35432e-05 3.49227e-05 3.65792e-05 3.85127e-05 4.07232e-05 4.32106e-05 4.59749e-05 4.86522e-05 5.08784e-05 5.26535e-05 5.39776e-05 5.48505e-05 5.52723e-05 5.52431e-05 5.47628e-05 5.40489e-05 5.33191e-05 5.25734e-05 5.18118e-05 5.10342e-05 5.02406e-05 4.94312e-05 4.86058e-05 4.77542e-05 4.68662e-05 4.59418e-05 4.4981e-05 4.39837e-05 4.295e-05 4.18799e-05 4.07734e-05 3.83069e-05 3.31571e-05 2.53239e-05 1.48073e-05 1.60728e-06 -1.42761e-05 -3.28429e-05 -5.40931e-05 -7.7282e-05 -0.000101665 -0.000127242 -0.000154014 -0.000181979 -0.000211139 -0.000241493 -0.000273041 -0.00030457 -0.000334866 -0.000363929 -0.000391759 -0.000418357 -0.000443722 -0.000467853 -0.000490753 -0.000511638 -0.000529727 -0.00054502 -0.000557517 -0.000567219 -0.000574125 -0.000578235 -0.000579549 -0.000578067 -0.00057379 -0.000566717 -0.000556849 -0.000544185 -0.000528726 -0.000510471 -0.000489421 -0.000466455 -0.000442451 -0.00041741 -0.000391331 -0.000364216 -0.000336063 -0.000306873 -0.000276646 -0.000246579 -0.000217871 -0.00019052 -0.000164527 -0.000139892 -0.000116615 -9.46964e-05 -7.41355e-05 -5.55384e-05 -3.95108e-05 -2.60526e-05 -1.51639e-05 -6.84471e-06 -1.09499e-06 2.08524e-06 2.69598e-06 2.06411e-06 1.51649e-06 1.05312e-06 6.73996e-07 3.79123e-07 1.68499e-07 4.21248e-08 0 0 3.84936e-07 1.53974e-06 3.46442e-06 6.15897e-06 9.6234e-06 1.38577e-05 1.88619e-05 2.46359e-05 3.09271e-05 3.74826e-05 4.43026e-05 5.1387e-05 5.87358e-05 6.63489e-05 7.42265e-05 8.23685e-05 9.02973e-05 9.75355e-05 0.000104083 0.00010994 0.000115106 0.000119581 0.000123366 0.00012646 0.000129762 0.000134173 0.000139691 0.000146317 0.000154051 0.000162893 0.000172842 0.0001839 0.000194609 0.000203514 0.000210614 0.00021591 0.000219402 0.000221089 0.000220972 0.000219051 0.000216196 0.000213277 0.000210294 0.000207247 0.000204137 0.000200963 0.000197725 0.000194423 0.000191017 0.000187465 0.000183767 0.000179924 0.000175935 0.0001718 0.00016752 0.000163093 0.000153228 0.000132628 0.000101296 5.92291e-05 6.42911e-06 -5.71045e-05 -0.000131372 -0.000216372 -0.000309128 -0.00040666 -0.00050897 -0.000616055 -0.000727917 -0.000844556 -0.000965972 -0.00109216 -0.00121828 -0.00133946 -0.00145572 -0.00156704 -0.00167343 -0.00177489 -0.00187141 -0.00196301 -0.00204655 -0.00211891 -0.00218008 -0.00223007 -0.00226888 -0.0022965 -0.00231294 -0.00231819 -0.00231227 -0.00229516 -0.00226687 -0.0022274 -0.00217674 -0.0021149 -0.00204189 -0.00195768 -0.00186582 -0.0017698 -0.00166964 -0.00156533 -0.00145686 -0.00134425 -0.00122749 -0.00110658 -0.000986317 -0.000871482 -0.000762079 -0.000658108 -0.000559568 -0.000466461 -0.000378786 -0.000296542 -0.000222154 -0.000158043 -0.00010421 -6.06556e-05 -2.73788e-05 -4.37996e-06 8.34096e-06 1.07839e-05 8.25645e-06 6.06597e-06 4.21248e-06 2.69598e-06 1.51649e-06 6.73996e-07 1.68499e-07 0 0 8.66106e-07 3.46442e-06 7.79495e-06 1.38577e-05 2.16526e-05 3.11798e-05 4.24392e-05 5.54308e-05 6.95859e-05 8.4336e-05 9.96809e-05 0.000115621 0.000132155 0.000149285 0.00016701 0.000185329 0.000203169 0.000219455 0.000234187 0.000247364 0.000258988 0.000269057 0.000277573 0.000284534 0.000291965 0.000301888 0.000314304 0.000329213 0.000346614 0.000366508 0.000388895 0.000413774 0.00043787 0.000457906 0.000473882 0.000485798 0.000493655 0.000497451 0.000497188 0.000492865 0.00048644 0.000479872 0.000473161 0.000466306 0.000459307 0.000452166 0.000444881 0.000437452 0.000429788 0.000421796 0.000413476 0.000404829 0.000395853 0.00038655 0.000376919 0.00036696 0.000344762 0.000298414 0.000227915 0.000133265 1.44655e-05 -0.000128485 -0.000295586 -0.000486838 -0.000695538 -0.000914986 -0.00114518 -0.00138612 -0.00163781 -0.00190025 -0.00217344 -0.00245737 -0.00274113 -0.00301379 -0.00327536 -0.00352583 -0.00376521 -0.00399349 -0.00421068 -0.00441677 -0.00460474 -0.00476754 -0.00490518 -0.00501766 -0.00510497 -0.00516712 -0.00520411 -0.00521594 -0.0052026 -0.00516411 -0.00510046 -0.00501164 -0.00489767 -0.00475854 -0.00459424 -0.00440479 -0.00419809 -0.00398206 -0.00375669 -0.00352198 -0.00327794 -0.00302457 -0.00276186 -0.00248981 -0.00221921 -0.00196083 -0.00171468 -0.00148074 -0.00125903 -0.00104954 -0.000852268 -0.00066722 -0.000499846 -0.000355597 -0.000234473 -0.000136475 -6.16023e-05 -9.85492e-06 1.87671e-05 2.42639e-05 1.8577e-05 1.36484e-05 9.47807e-06 6.06597e-06 3.41211e-06 1.51649e-06 3.79123e-07 0 0 1.53974e-06 6.15897e-06 1.38577e-05 2.46359e-05 3.84936e-05 5.54308e-05 7.54474e-05 9.85436e-05 0.000123708 0.000149931 0.00017721 0.000205548 0.000234943 0.000265396 0.000296906 0.000329474 0.000361189 0.000390142 0.000416332 0.000439759 0.000460423 0.000478324 0.000493463 0.000505839 0.000519049 0.000536691 0.000558763 0.000585268 0.000616203 0.00065157 0.000691369 0.000735599 0.000778435 0.000814055 0.000842457 0.000863641 0.000877608 0.000884358 0.00088389 0.000876204 0.000864783 0.000853106 0.000841175 0.000828988 0.000816547 0.00080385 0.000790899 0.000777692 0.000764067 0.000749859 0.000735069 0.000719695 0.000703739 0.0006872 0.000670078 0.000652374 0.000612911 0.000530514 0.000405182 0.000236916 2.57164e-05 -0.000228418 -0.000525486 -0.000865489 -0.00123651 -0.00162664 -0.00203588 -0.00246422 -0.00291167 -0.00337823 -0.00386389 -0.00436866 -0.00487312 -0.00535785 -0.00582286 -0.00626815 -0.00669371 -0.00709954 -0.00748566 -0.00785204 -0.0081862 -0.00847563 -0.00872032 -0.00892028 -0.0090755 -0.00918599 -0.00925175 -0.00927278 -0.00924907 -0.00918064 -0.00906748 -0.00890959 -0.00870697 -0.00845962 -0.00816754 -0.00783074 -0.00746327 -0.00707921 -0.00667855 -0.0062613 -0.00582745 -0.00537701 -0.00490997 -0.00442634 -0.00394527 -0.00348593 -0.00304832 -0.00263243 -0.00223827 -0.00186584 -0.00151514 -0.00118617 -0.000888614 -0.000632172 -0.000416841 -0.000242622 -0.000109515 -1.75199e-05 3.33638e-05 4.31358e-05 3.30258e-05 2.42639e-05 1.68499e-05 1.07839e-05 6.06597e-06 2.69598e-06 6.73996e-07 0 0 2.40585e-06 9.6234e-06 2.16526e-05 3.84936e-05 6.01462e-05 8.66106e-05 0.000117887 0.000153974 0.000193294 0.000234267 0.000276891 0.000321169 0.000367099 0.000414681 0.000463916 0.000514803 0.000564358 0.000609597 0.000650518 0.000687123 0.000719411 0.000747382 0.000771036 0.000790373 0.000811014 0.000838579 0.000873068 0.000914481 0.000962818 0.00101808 0.00108026 0.00114937 0.00121631 0.00127196 0.00131634 0.00134944 0.00137126 0.00138181 0.00138108 0.00136907 0.00135122 0.00133298 0.00131434 0.00129529 0.00127585 0.00125602 0.00123578 0.00121514 0.00119386 0.00117166 0.00114854 0.00112452 0.00109959 0.00107375 0.001047 0.00101933 0.000957673 0.000828928 0.000633097 0.000370182 4.01819e-05 -0.000356903 -0.000821072 -0.00135233 -0.00193205 -0.00254163 -0.00318106 -0.00385034 -0.00454948 -0.00527848 -0.00603732 -0.00682602 -0.00761424 -0.00837164 -0.00909822 -0.00979398 -0.0104589 -0.011093 -0.0116963 -0.0122688 -0.0127909 -0.0132432 -0.0136255 -0.0139379 -0.0141805 -0.0143531 -0.0144559 -0.0144887 -0.0144517 -0.0143447 -0.0141679 -0.0139212 -0.0136046 -0.0132182 -0.0127618 -0.0122355 -0.0116614 -0.0110613 -0.0104352 -0.00978328 -0.0091054 -0.00840158 -0.00767183 -0.00691615 -0.00616448 -0.00544676 -0.00476299 -0.00411317 -0.0034973 -0.00291538 -0.00236741 -0.00185339 -0.00138846 -0.000987769 -0.000651315 -0.000379098 -0.000171118 -2.73748e-05 5.2131e-05 6.73996e-05 5.16028e-05 3.79123e-05 2.6328e-05 1.68499e-05 9.47807e-06 4.21248e-06 1.05312e-06 0 0 3.46442e-06 1.38577e-05 3.11798e-05 5.54308e-05 8.66106e-05 0.000124719 0.000169757 0.000221723 0.000278344 0.000337344 0.000398724 0.000462483 0.000528622 0.000597141 0.000668039 0.000741316 0.000812676 0.000877819 0.000936746 0.000989457 0.00103595 0.00107623 0.00111029 0.00113814 0.00116786 0.00120755 0.00125722 0.00131685 0.00138646 0.00146603 0.00155558 0.0016551 0.00175148 0.00183162 0.00189553 0.00194319 0.00197462 0.0019898 0.00198875 0.00197146 0.00194576 0.00191949 0.00189264 0.00186522 0.00183723 0.00180866 0.00177952 0.00174981 0.00171915 0.00168718 0.0016539 0.00161931 0.00158341 0.0015462 0.00150768 0.00146784 0.00137905 0.00119366 0.00091166 0.000533062 5.7862e-05 -0.00051394 -0.00118234 -0.00194735 -0.00278215 -0.00365994 -0.00458073 -0.0055445 -0.00655126 -0.00760101 -0.00869375 -0.00982948 -0.0109645 -0.0120552 -0.0131014 -0.0141033 -0.0150608 -0.015974 -0.0168427 -0.0176671 -0.018419 -0.0190702 -0.0196207 -0.0200706 -0.0204199 -0.0206685 -0.0208164 -0.0208638 -0.0208104 -0.0206564 -0.0204018 -0.0200466 -0.0195907 -0.0190341 -0.018377 -0.0176192 -0.0167924 -0.0159282 -0.0150267 -0.0140879 -0.0131118 -0.0120983 -0.0110474 -0.00995926 -0.00887685 -0.00784334 -0.00685871 -0.00592297 -0.00503612 -0.00419815 -0.00340907 -0.00266888 -0.00199938 -0.00142239 -0.000937893 -0.000545901 -0.000246409 -3.94197e-05 7.50686e-05 9.70554e-05 7.43081e-05 5.45937e-05 3.79123e-05 2.42639e-05 1.36484e-05 6.06597e-06 1.51649e-06 0 0 4.71546e-06 1.88619e-05 4.24392e-05 7.54474e-05 0.000117887 0.000169757 0.000231058 0.00030179 0.000378857 0.000459162 0.000542707 0.000629491 0.000719513 0.000812775 0.000909275 0.00100901 0.00110614 0.00119481 0.00127502 0.00134676 0.00141004 0.00146487 0.00151123 0.00154913 0.00158959 0.00164361 0.00171121 0.00179238 0.00188712 0.00199543 0.00211732 0.00225277 0.00238396 0.00249304 0.00258002 0.0026449 0.00268767 0.00270834 0.00270691 0.00268338 0.0026484 0.00261264 0.0025761 0.00253878 0.00250067 0.00246179 0.00242213 0.00238168 0.00233996 0.00229644 0.00225115 0.00220407 0.0021552 0.00210455 0.00205211 0.00199789 0.00187704 0.0016247 0.00124087 0.000725557 7.87565e-05 -0.00069953 -0.0016093 -0.00265056 -0.00378682 -0.00498159 -0.00623488 -0.00754668 -0.00891699 -0.0103458 -0.0118332 -0.013379 -0.0149239 -0.0164084 -0.0178325 -0.0191962 -0.0204995 -0.0217424 -0.0229248 -0.0240469 -0.0250702 -0.0259566 -0.026706 -0.0273183 -0.0277937 -0.0281321 -0.0283335 -0.0283979 -0.0283253 -0.0281157 -0.0277691 -0.0272856 -0.0266651 -0.0259076 -0.0250131 -0.0239816 -0.0228563 -0.0216801 -0.0204531 -0.0191752 -0.0178466 -0.0164671 -0.0150368 -0.0135557 -0.0120824 -0.0106757 -0.00933547 -0.00806182 -0.00685471 -0.00571415 -0.00464012 -0.00363264 -0.00272138 -0.00193603 -0.00127658 -0.000743031 -0.000335391 -5.36546e-05 0.000102177 0.000132103 0.000101142 7.43081e-05 5.16028e-05 3.30258e-05 1.8577e-05 8.25645e-06 2.06411e-06 0 0 6.15897e-06 2.46359e-05 5.54308e-05 9.85436e-05 0.000153974 0.000221723 0.00030179 0.000394174 0.000494833 0.000599722 0.000708842 0.000822192 0.000939772 0.00106158 0.00118762 0.0013179 0.00144476 0.00156057 0.00166533 0.00175903 0.00184169 0.0019133 0.00197385 0.00202336 0.0020762 0.00214676 0.00223505 0.00234107 0.00246481 0.00260628 0.00276548 0.00294239 0.00311374 0.00325622 0.00336983 0.00345456 0.00351043 0.00353743 0.00353556 0.00350482 0.00345913 0.00341242 0.0033647 0.00331595 0.00326619 0.0032154 0.0031636 0.00311077 0.00305627 0.00299944 0.00294027 0.00287878 0.00281496 0.0027488 0.00268031 0.0026095 0.00245164 0.00212205 0.00162073 0.000947666 0.000102866 -0.000913671 -0.00210195 -0.00346196 -0.00494605 -0.00650657 -0.00814351 -0.00985688 -0.0116467 -0.0135129 -0.0154555 -0.0174746 -0.0194925 -0.0214314 -0.0232914 -0.0250726 -0.0267748 -0.0283982 -0.0299426 -0.0314082 -0.0327448 -0.0339025 -0.0348813 -0.0356811 -0.036302 -0.036744 -0.037007 -0.0370911 -0.0369963 -0.0367226 -0.0362699 -0.0356383 -0.0348279 -0.0338385 -0.0326702 -0.031323 -0.0298531 -0.0283168 -0.0267142 -0.0250452 -0.0233098 -0.021508 -0.0196399 -0.0177053 -0.0157811 -0.0139437 -0.0121933 -0.0105297 -0.00895309 -0.00746338 -0.00606057 -0.00474467 -0.00355446 -0.00252869 -0.00166737 -0.00097049 -0.000438061 -7.00794e-05 0.000133455 0.000172543 0.000132103 9.70554e-05 6.73996e-05 4.31358e-05 2.42639e-05 1.07839e-05 2.69598e-06 0 0 7.55857e-06 3.02343e-05 6.80272e-05 0.000120937 0.000188964 0.000272109 0.00037037 0.000483749 0.000606024 0.000730977 0.000858607 0.000988914 0.0011219 0.00125756 0.0013959 0.00153691 0.0016719 0.00179216 0.00189769 0.00198849 0.00206456 0.0021259 0.00217251 0.00220439 0.00224015 0.0022984 0.00237914 0.00248237 0.00260808 0.00275628 0.00292697 0.00312015 0.00330839 0.00346426 0.00358775 0.00367887 0.00373763 0.00376401 0.00375801 0.00371965 0.00366603 0.00361428 0.00356438 0.00351634 0.00347017 0.00342586 0.0033834 0.00334281 0.00330057 0.00325316 0.00320059 0.00314286 0.00307997 0.00301191 0.00293869 0.0028603 0.00267726 0.00229006 0.00169871 0.0009032 -9.64661e-05 -0.00130029 -0.00270827 -0.0043204 -0.00607613 -0.00791489 -0.00983668 -0.0118415 -0.0139294 -0.0161002 -0.0183542 -0.0206911 -0.023028 -0.0252818 -0.0274524 -0.0295399 -0.0315443 -0.0334655 -0.0353037 -0.0370586 -0.0386645 -0.0400553 -0.0412311 -0.0421918 -0.0429374 -0.043468 -0.0437835 -0.0438839 -0.0437695 -0.0434404 -0.0428966 -0.0421382 -0.0411651 -0.0399773 -0.0385748 -0.0369577 -0.0351992 -0.0333724 -0.0314775 -0.0295144 -0.0274831 -0.0253836 -0.0232159 -0.0209801 -0.018757 -0.0166275 -0.0145918 -0.0126497 -0.0108012 -0.00904646 -0.00738536 -0.00581792 -0.00439443 -0.00316514 -0.00213006 -0.00128918 -0.000642515 -0.000190056 6.81952e-05 0.000132239 0.000101246 7.43845e-05 5.16559e-05 3.30598e-05 1.85961e-05 8.26495e-06 2.06624e-06 0 0 8.67788e-06 3.47115e-05 7.81009e-05 0.000138846 0.000216947 0.000312404 0.000425216 0.000555385 0.000692182 0.00082488 0.000953481 0.00107798 0.00119839 0.00131469 0.0014269 0.00153501 0.00163095 0.00170665 0.00176211 0.00179733 0.00181232 0.00180706 0.00178156 0.00173583 0.00169393 0.00167994 0.00169387 0.00173572 0.00180547 0.00190315 0.00202873 0.00218223 0.00233546 0.00246026 0.00255661 0.00262452 0.00266399 0.00267502 0.0026576 0.00261175 0.00255718 0.00251362 0.00248108 0.00245955 0.00244903 0.00244952 0.00246103 0.00248354 0.00250532 0.00251461 0.0025114 0.00249571 0.00246751 0.00242683 0.00237365 0.00230799 0.0021283 0.00173307 0.00112229 0.00029597 -0.000745894 -0.0020033 -0.00347626 -0.00516475 -0.00699334 -0.00888657 -0.0108444 -0.0128669 -0.0149541 -0.0171058 -0.0193222 -0.0216033 -0.0238884 -0.0261172 -0.0282896 -0.0304057 -0.0324653 -0.0344685 -0.0364154 -0.0383059 -0.0400512 -0.0415625 -0.0428399 -0.0438832 -0.0446926 -0.045268 -0.0456094 -0.0457168 -0.045591 -0.0452327 -0.0446419 -0.0438186 -0.0427628 -0.0414745 -0.0399538 -0.0382005 -0.0363108 -0.0343807 -0.0324102 -0.0303993 -0.028348 -0.0262563 -0.0241242 -0.0219517 -0.0197942 -0.0177072 -0.0156907 -0.0137446 -0.0118691 -0.010064 -0.00832944 -0.00666533 -0.00513711 -0.00381014 -0.00268445 -0.00176001 -0.00103685 -0.000514947 -0.000194313 -7.4944e-05 -5.7379e-05 -4.2156e-05 -2.9275e-05 -1.8736e-05 -1.0539e-05 -4.684e-06 -1.171e-06 0 0 9.5169e-06 3.80676e-05 8.56521e-05 0.00015227 0.000237923 0.000342609 0.000466328 0.000609082 0.000753305 0.000881432 0.000993463 0.0010894 0.00116924 0.00123299 0.00128063 0.00131219 0.0013219 0.00130404 0.0012586 0.00118557 0.00108496 0.000956776 0.000801008 0.00061766 0.000437522 0.000291387 0.000179254 0.000101123 5.69949e-05 4.68688e-05 7.0745e-05 0.000128624 0.000194963 0.000244223 0.000276403 0.000291503 0.000289524 0.000270464 0.000234325 0.000181106 0.000132564 0.000110459 0.000114789 0.000145555 0.000202756 0.000286393 0.000396466 0.000532975 0.000670541 0.000783787 0.000872713 0.000937318 0.000977604 0.000993568 0.000985213 0.000952537 0.00080475 0.000451061 -0.00010853 -0.000874024 -0.00184542 -0.00302272 -0.00440592 -0.00599502 -0.00769769 -0.0094216 -0.0111668 -0.0129331 -0.0147208 -0.0165296 -0.0183598 -0.0202111 -0.0220737 -0.0239377 -0.0258031 -0.0276698 -0.0295378 -0.0314072 -0.0332779 -0.03515 -0.0369049 -0.0384241 -0.0397076 -0.0407555 -0.0415676 -0.042144 -0.0424847 -0.0425897 -0.0424607 -0.0420993 -0.0415056 -0.0406795 -0.039621 -0.0383302 -0.036807 -0.0350514 -0.0331881 -0.0313418 -0.0295124 -0.0277 -0.0259046 -0.0241261 -0.0223646 -0.0206201 -0.0188927 -0.0171826 -0.01549 -0.0138146 -0.0121567 -0.0105161 -0.00889281 -0.00728691 -0.00578249 -0.0044637 -0.00333053 -0.00238298 -0.00162106 -0.00104475 -0.000654069 -0.000449006 -0.00034377 -0.000252566 -0.000175393 -0.000112252 -6.31415e-05 -2.80629e-05 -7.01572e-06 0 0 1.00756e-05 4.03025e-05 9.06807e-05 0.00016121 0.000251891 0.000362723 0.000493706 0.000644841 0.000789393 0.000900632 0.000978555 0.00102316 0.00103446 0.00101244 0.000957102 0.000868451 0.000744767 0.00058433 0.00038714 0.000153196 -0.000117501 -0.000424951 -0.000769154 -0.00115011 -0.00152907 -0.00186727 -0.00216472 -0.00242142 -0.00263736 -0.00281255 -0.00294698 -0.00304066 -0.00311311 -0.00318385 -0.00325287 -0.00332018 -0.00338577 -0.00344965 -0.00351182 -0.00357228 -0.00360781 -0.00359521 -0.00353448 -0.00342563 -0.00326864 -0.00306352 -0.00281028 -0.0025089 -0.00220378 -0.00193931 -0.00171548 -0.0015323 -0.00138977 -0.00128788 -0.00122664 -0.00120604 -0.00129338 -0.00155595 -0.00199375 -0.00260678 -0.00339504 -0.00435853 -0.00549725 -0.00681119 -0.00818917 -0.00952 -0.0108037 -0.0120402 -0.0132295 -0.0143717 -0.0154667 -0.0165146 -0.0175839 -0.0187433 -0.0199928 -0.0213323 -0.0227619 -0.0242815 -0.0258912 -0.0275909 -0.0292256 -0.0306401 -0.0318344 -0.0328085 -0.0335624 -0.034096 -0.0344095 -0.0345027 -0.0343787 -0.0340404 -0.0334878 -0.0327209 -0.0317397 -0.0305442 -0.0291344 -0.0275103 -0.025831 -0.0242556 -0.0227841 -0.0214165 -0.0201528 -0.0189931 -0.0179372 -0.0169853 -0.0160525 -0.0150539 -0.0139897 -0.0128597 -0.011664 -0.0104026 -0.00907547 -0.00768264 -0.00633059 -0.00512582 -0.00406832 -0.00315809 -0.00239515 -0.00177947 -0.00131107 -0.000989948 -0.000757929 -0.000556846 -0.000386698 -0.000247487 -0.000139211 -6.18717e-05 -1.54679e-05 0 0 1.03541e-05 4.14163e-05 9.31867e-05 0.000165665 0.000258852 0.000372747 0.00050735 0.000662661 0.000800448 0.00088248 0.000908755 0.000879275 0.000794039 0.000653047 0.0004563 0.000203796 -0.000100463 -0.000452481 -0.000852255 -0.00129979 -0.00179507 -0.00233812 -0.00292892 -0.00356748 -0.00420584 -0.00479603 -0.00533805 -0.0058319 -0.00627758 -0.0066751 -0.00702445 -0.00732563 -0.00758876 -0.00782395 -0.0080312 -0.00821052 -0.0083619 -0.00848533 -0.00858083 -0.0086484 -0.00866394 -0.00860339 -0.00846674 -0.008254 -0.00796516 -0.00760023 -0.0071592 -0.00664208 -0.00611764 -0.00565468 -0.00525318 -0.00491315 -0.0046346 -0.00441751 -0.00426189 -0.00416775 -0.0041661 -0.00428797 -0.00453338 -0.0049023 -0.00539476 -0.00601074 -0.00675024 -0.00761328 -0.00846779 -0.00918175 -0.00975515 -0.010188 -0.0104803 -0.010632 -0.0106432 -0.0105138 -0.010419 -0.010534 -0.0108587 -0.0113932 -0.0121374 -0.0130914 -0.0142552 -0.0156287 -0.0170134 -0.0182105 -0.0192201 -0.0200423 -0.0206769 -0.0211241 -0.0213837 -0.0214558 -0.021345 -0.021056 -0.0205886 -0.0199429 -0.019119 -0.0181167 -0.0169361 -0.0155773 -0.0142395 -0.0131221 -0.0122252 -0.0115487 -0.0110927 -0.0108572 -0.010842 -0.0110474 -0.0112735 -0.011321 -0.0111897 -0.0108797 -0.010391 -0.00972358 -0.00887742 -0.00785253 -0.0067814 -0.00579649 -0.0048978 -0.00408534 -0.00335911 -0.0027191 -0.00216532 -0.00169777 -0.00129985 -0.000954995 -0.000663191 -0.000424442 -0.000238749 -0.000106111 -2.65276e-05 0 0 1.03522e-05 4.14089e-05 9.31701e-05 0.000165636 0.000258806 0.00037268 0.000507259 0.000662543 0.000786469 0.000826976 0.000784065 0.000657734 0.000447985 0.000154817 -0.00022177 -0.000681776 -0.00121379 -0.00180639 -0.00245959 -0.00317338 -0.00394776 -0.00478273 -0.0056783 -0.00663446 -0.00759279 -0.00849488 -0.00934073 -0.0101303 -0.0108637 -0.0115408 -0.0121617 -0.0127263 -0.013232 -0.0136761 -0.0140586 -0.0143795 -0.0146388 -0.0148366 -0.0149727 -0.0150473 -0.0150358 -0.0149141 -0.014682 -0.0143396 -0.0138868 -0.0133237 -0.0126503 -0.0118666 -0.011071 -0.0103623 -0.00974038 -0.00920524 -0.00875689 -0.00839533 -0.00812056 -0.00793258 -0.0078134 -0.007745 -0.0077274 -0.00776059 -0.00784457 -0.00797935 -0.00816491 -0.00840127 -0.00853354 -0.00840686 -0.00802121 -0.00737661 -0.00647305 -0.00531053 -0.00388905 -0.00220862 -0.000578919 0.000690341 0.00159916 0.00214755 0.0023355 0.00216301 0.00163008 0.000736716 -0.00026807 -0.00113526 -0.00186486 -0.00245686 -0.00291128 -0.00322809 -0.00340731 -0.00344894 -0.00335959 -0.00314589 -0.00280784 -0.00234543 -0.00175867 -0.00104755 -0.000212078 0.000747748 0.00158647 0.00205863 0.00216422 0.00190326 0.00127573 0.000281634 -0.00107902 -0.00280624 -0.0045559 -0.00598389 -0.0070902 -0.00787483 -0.00833778 -0.00847906 -0.00829866 -0.00779659 -0.00713491 -0.00647571 -0.00581899 -0.00516473 -0.00451296 -0.00386365 -0.00321682 -0.00257247 -0.00196955 -0.00144701 -0.00100487 -0.000643117 -0.000361753 -0.000160779 -4.01948e-05 0 0 1.00701e-05 4.02804e-05 9.06308e-05 0.000161121 0.000251752 0.000362523 0.000493434 0.000644486 0.000747455 0.000734121 0.000604483 0.000358541 -3.70516e-06 -0.000482255 -0.00107711 -0.00178827 -0.00259521 -0.0034774 -0.00443486 -0.00546758 -0.00657555 -0.00775879 -0.00901728 -0.010351 -0.0116899 -0.0129638 -0.0141728 -0.0153167 -0.0163957 -0.0174096 -0.0183586 -0.0192426 -0.0200428 -0.0207403 -0.0213351 -0.0218272 -0.0222166 -0.0225034 -0.0226875 -0.0227689 -0.0227235 -0.0225273 -0.0221802 -0.0216823 -0.0210336 -0.020234 -0.0192836 -0.0181824 -0.017064 -0.0160622 -0.0151771 -0.0144086 -0.0137566 -0.0132213 -0.0128026 -0.0125005 -0.0122353 -0.011927 -0.0115758 -0.0111816 -0.0107445 -0.0102644 -0.00974125 -0.00917517 -0.00838643 -0.00719532 -0.00560186 -0.00360603 -0.00120785 0.0015927 0.00479561 0.00840087 0.0119363 0.0149296 0.0173808 0.0192899 0.0206569 0.0214818 0.0217646 0.0215053 0.0210102 0.0205856 0.0202314 0.0199478 0.0197346 0.0195919 0.0195196 0.0195179 0.0195776 0.0196898 0.0198544 0.0200715 0.0203411 0.0206632 0.0210377 0.0214647 0.0216468 0.0212866 0.0203842 0.0189395 0.0169525 0.0144233 0.0113518 0.00773805 0.00410045 0.00095741 -0.00169105 -0.00384495 -0.00550427 -0.00666902 -0.0073392 -0.00751481 -0.00739114 -0.00716349 -0.00683187 -0.00639626 -0.00585668 -0.00521311 -0.00446557 -0.00361405 -0.00276701 -0.0020329 -0.00141174 -0.000903512 -0.000508226 -0.000225878 -5.64695e-05 0 0 9.50767e-06 3.80307e-05 8.5569e-05 0.000152123 0.000237692 0.000342276 0.000465876 0.000608491 0.000683408 0.000603914 0.00037001 -1.83052e-05 -0.000561031 -0.00125817 -0.00210972 -0.00311567 -0.00424472 -0.00546552 -0.00677807 -0.00818239 -0.00967846 -0.0112663 -0.0129459 -0.0147172 -0.0164972 -0.0182029 -0.0198341 -0.021391 -0.0228735 -0.0242816 -0.0256153 -0.0268746 -0.0280212 -0.0290165 -0.0298606 -0.0305535 -0.0310952 -0.0314858 -0.0317251 -0.0318132 -0.0317269 -0.031443 -0.0309614 -0.0302823 -0.0294055 -0.0283311 -0.0270591 -0.0255895 -0.0240965 -0.0227544 -0.0215633 -0.0205231 -0.0196338 -0.0188955 -0.0183081 -0.0178716 -0.0174317 -0.0168341 -0.0160787 -0.0151655 -0.0140945 -0.0128658 -0.0114793 -0.00993499 -0.00802645 -0.00554715 -0.00249709 0.00112374 0.00531533 0.0100777 0.0154108 0.0213147 0.0271266 0.0321837 0.0364862 0.0400338 0.0428267 0.0448649 0.0461484 0.0466771 0.0468215 0.046952 0.0470688 0.0471716 0.0472606 0.0473358 0.0473971 0.0474446 0.0474665 0.047451 0.0473982 0.047308 0.0471804 0.0470155 0.0468132 0.0465736 0.0459415 0.0445619 0.0424347 0.03956 0.0359377 0.0315679 0.0264505 0.0205855 0.0146955 0.0095029 0.0050077 0.00120991 -0.00189048 -0.00429346 -0.00599902 -0.00700719 -0.00755007 -0.00785983 -0.00793645 -0.00777993 -0.00739028 -0.00676749 -0.00591157 -0.00482251 -0.00369223 -0.00271266 -0.00188379 -0.00120563 -0.000678165 -0.000301407 -7.53517e-05 0 0 7.56411e-06 3.02564e-05 6.8077e-05 0.000121026 0.000189103 0.000272308 0.000370641 0.000484103 0.000513161 0.000358285 1.94738e-05 -0.000503272 -0.00120995 -0.00210057 -0.00317512 -0.0044336 -0.00583124 -0.00732325 -0.00890964 -0.0105904 -0.0123655 -0.0142351 -0.016199 -0.0182572 -0.020328 -0.0223293 -0.0242612 -0.0261238 -0.0279169 -0.0296406 -0.0312949 -0.0328798 -0.0343325 -0.0355903 -0.0366531 -0.037521 -0.0381939 -0.0386719 -0.038955 -0.0390431 -0.0389148 -0.0385485 -0.0379443 -0.0371022 -0.0360221 -0.0347041 -0.0331482 -0.0313543 -0.029543 -0.0279348 -0.0265295 -0.0253273 -0.0243282 -0.0235321 -0.0229391 -0.022549 -0.0221038 -0.021345 -0.0202728 -0.018887 -0.0171877 -0.0151749 -0.0128485 -0.0102087 -0.00702207 -0.00305535 0.00169146 0.00721835 0.0135253 0.0206124 0.0284796 0.0371268 0.0456629 0.0531966 0.059728 0.0652571 0.0697837 0.073308 0.07583 0.0773496 0.0783072 0.0791434 0.0798579 0.080451 0.0809225 0.0812725 0.0815009 0.0816078 0.0815788 0.0813995 0.0810701 0.0805903 0.0799604 0.0791802 0.0782497 0.077169 0.0755208 0.0728876 0.0692696 0.0646667 0.0590789 0.0525063 0.0449487 0.0364063 0.0278378 0.0202018 0.0134985 0.00772783 0.00288976 -0.00101569 -0.00398853 -0.00602874 -0.007408 -0.00839794 -0.00899858 -0.00920992 -0.00903194 -0.00846466 -0.00750808 -0.00616218 -0.00471792 -0.00346623 -0.0024071 -0.00154055 -0.000866557 -0.000385137 -9.62841e-05 0 0 3.13857e-06 1.25543e-05 2.82471e-05 5.02171e-05 7.84642e-05 0.000112988 0.00015379 0.000200868 0.00015555 -8.08384e-05 -0.000508297 -0.00112683 -0.00193643 -0.0029371 -0.00412884 -0.00551165 -0.0070237 -0.00860315 -0.01025 -0.0119642 -0.0137459 -0.015595 -0.0175114 -0.0194953 -0.0214953 -0.0234604 -0.0253904 -0.0272855 -0.0291455 -0.0309705 -0.0327605 -0.0345156 -0.0361422 -0.0375472 -0.0387305 -0.0396921 -0.040432 -0.0409501 -0.0412466 -0.0413214 -0.0411559 -0.0407313 -0.0400476 -0.0391049 -0.0379031 -0.0364423 -0.0347224 -0.0327435 -0.0307782 -0.0290991 -0.0277063 -0.0265997 -0.0257794 -0.0252453 -0.0249975 -0.0250359 -0.0249524 -0.0243388 -0.023195 -0.0215211 -0.0193171 -0.016583 -0.0133187 -0.00952433 -0.00494175 0.000687065 0.00736213 0.0150834 0.023851 0.0336648 0.0445248 0.0564311 0.0682161 0.0787121 0.0879192 0.0958373 0.102466 0.107807 0.111858 0.11462 0.116609 0.118339 0.11981 0.121022 0.121976 0.122671 0.123107 0.123284 0.123186 0.122797 0.122117 0.121145 0.119882 0.118328 0.116482 0.114346 0.111435 0.107267 0.101843 0.0951617 0.087224 0.0780296 0.0675784 0.0558706 0.0441357 0.0336035 0.0242739 0.0161469 0.00922263 0.00350095 -0.0010181 -0.0043345 -0.00676118 -0.00861106 -0.00988413 -0.0105804 -0.0106999 -0.0102425 -0.00920837 -0.00759742 -0.00581678 -0.00427355 -0.00296774 -0.00189936 -0.00106839 -0.000474839 -0.00011871 0 0 -3.76895e-06 -1.50758e-05 -3.39205e-05 -6.03032e-05 -9.42237e-05 -0.000135682 -0.000184678 -0.000241213 -0.000389425 -0.000713455 -0.0012133 -0.00188897 -0.00274046 -0.00376776 -0.00497088 -0.00634982 -0.00782209 -0.00930519 -0.0107991 -0.0123039 -0.0138195 -0.015346 -0.0168832 -0.0184314 -0.0199993 -0.0215961 -0.0232217 -0.0248761 -0.0265593 -0.0282714 -0.0300122 -0.0317819 -0.0334503 -0.0348873 -0.0360927 -0.0370667 -0.0378093 -0.0383204 -0.0386 -0.0386482 -0.0384502 -0.0379912 -0.0372712 -0.0362903 -0.0350484 -0.0335455 -0.0317817 -0.0297569 -0.0278019 -0.0262475 -0.0250936 -0.0243402 -0.0239874 -0.0240351 -0.0244834 -0.0253323 -0.0259776 -0.0258153 -0.0248454 -0.0230679 -0.0204828 -0.0170901 -0.0128898 -0.00788185 -0.0017855 0.00568009 0.0145149 0.024719 0.0362923 0.0492349 0.0635467 0.0792277 0.0947861 0.10873 0.12106 0.131775 0.140875 0.148361 0.154233 0.15849 0.161727 0.164538 0.166924 0.168885 0.17042 0.17153 0.172214 0.172473 0.172289 0.171644 0.170538 0.168973 0.166946 0.164459 0.161511 0.158103 0.153683 0.1477 0.140154 0.131045 0.120373 0.108138 0.0943396 0.0789784 0.0635894 0.0497079 0.0373338 0.0264672 0.0171081 0.00925647 0.00291227 -0.00192446 -0.00560964 -0.00849918 -0.0105931 -0.0118914 -0.012394 -0.0121011 -0.0110125 -0.00912822 -0.00698879 -0.00513462 -0.00356571 -0.00228205 -0.00128366 -0.000570514 -0.000142628 0 0 -1.31584e-05 -5.26338e-05 -0.000118426 -0.000210535 -0.000328961 -0.000473704 -0.000644764 -0.00084214 -0.00112176 -0.00153957 -0.00209555 -0.0027897 -0.00362204 -0.00459255 -0.00570124 -0.00694811 -0.00822641 -0.00942938 -0.010557 -0.0116094 -0.0125864 -0.0134881 -0.0143144 -0.0150655 -0.0158399 -0.0167364 -0.017755 -0.0188956 -0.0201583 -0.0215431 -0.02305 -0.0246789 -0.0262568 -0.0276104 -0.0287398 -0.029645 -0.030326 -0.0307827 -0.0310152 -0.0310234 -0.0307977 -0.0303283 -0.0296152 -0.0286585 -0.0274581 -0.0260139 -0.0243261 -0.0223946 -0.0206143 -0.0193798 -0.0186914 -0.0185488 -0.0189522 -0.0199016 -0.0213969 -0.0234381 -0.0251794 -0.0257746 -0.025224 -0.0235273 -0.0206848 -0.0166962 -0.0115617 -0.00528128 0.00244669 0.0119237 0.0231498 0.036125 0.0508493 0.0673226 0.085545 0.105517 0.125373 0.143251 0.159149 0.173069 0.185009 0.194971 0.202954 0.208957 0.21366 0.217742 0.221202 0.22404 0.226256 0.227851 0.228824 0.229175 0.228886 0.22794 0.226335 0.224072 0.221152 0.217573 0.213336 0.208442 0.202266 0.194187 0.184204 0.172317 0.158526 0.142831 0.125232 0.10573 0.0861988 0.068515 0.0526783 0.0386887 0.0265462 0.0162509 0.00780258 0.00120139 -0.00395335 -0.00806231 -0.0111255 -0.0131429 -0.0141145 -0.0140403 -0.0129203 -0.0107546 -0.00823397 -0.00604945 -0.00420101 -0.00268864 -0.00151236 -0.000672161 -0.00016804 0 0 -2.50299e-05 -0.00010012 -0.000225269 -0.000400479 -0.000625748 -0.000901077 -0.00122647 -0.00160191 -0.00204147 -0.00255917 -0.00315502 -0.00382902 -0.00458117 -0.00541147 -0.00631992 -0.00730652 -0.00823666 -0.00897573 -0.00952373 -0.00988065 -0.0100465 -0.0100213 -0.00980502 -0.00939766 -0.00901715 -0.00888139 -0.00899037 -0.00934411 -0.0099426 -0.0107858 -0.0118738 -0.0132066 -0.0145617 -0.0157168 -0.0166718 -0.0174269 -0.017982 -0.018337 -0.018492 -0.018447 -0.0181984 -0.0177426 -0.0170796 -0.0162