<?xml version="1.0"?> 
<VTKFile type="StructuredGrid" version="0.1"> 
<StructuredGrid WholeExtent="0 128 0 128 0 0"> 
<Piece Extent="0 128 0 128 0 0"> 
<PointData>
<DataArray type="Float32" Name="u" format="ascii" NumberOfComponents="1"> 
0 0 0 0 0 0 0 0 0 0 0 0 0 0 0 0 0 0 0 0 0 0 0 0 0 0 0 0 0 0 0 0 0 0 0 0 0 0 0 0 0 0 0 0 0 0 0 0 0 0 0 0 0 0 0 0 0 0 0 0 0 0 0 0 0 0 0 0 0 0 0 0 0 0 0 0 0 0 0 0 0 0 0 0 0 0 0 0 0 0 0 0 0 0 0 0 0 0 0 0 0 0 0 0 0 0 0 0 0 0 0 0 0 0 0 0 0 0 0 0 0 0 0 0 0 0 0 0 0 0 -2.15421e-07 -8.61684e-07 -1.93879e-06 -3.44674e-06 -5.38553e-06 -7.75516e-06 -1.05556e-05 -1.3787e-05 -1.76769e-05 -2.24534e-05 -2.81164e-05 -3.46659e-05 -4.21019e-05 -5.04244e-05 -5.96334e-05 -6.97289e-05 -8.05604e-05 -9.19777e-05 -0.000103981 -0.000116569 -0.000129743 -0.000143503 -0.000157849 -0.00017278 -0.000187769 -0.000202289 -0.00021634 -0.000229922 -0.000243035 -0.000255678 -0.000267853 -0.000279558 -0.000290223 -0.000299278 -0.000306723 -0.000312557 -0.000316781 -0.000319395 -0.000320399 -0.000319792 -0.000317991 -0.000315411 -0.000312053 -0.000307916 -0.000303 -0.000297306 -0.000290834 -0.000283582 -0.000276032 -0.000268663 -0.000261475 -0.000254468 -0.000247642 -0.000240997 -0.000234533 -0.00022825 -0.000221662 -0.000214282 -0.000206112 -0.000197151 -0.000187399 -0.000176856 -0.000165522 -0.000153397 -0.000140606 -0.000127273 -0.0001134 -9.89863e-05 -8.40312e-05 -6.85352e-05 -5.24982e-05 -3.59203e-05 -1.96275e-05 -4.44598e-06 9.62423e-06 2.25831e-05 3.44308e-05 4.51671e-05 5.47921e-05 6.33059e-05 7.07093e-05 7.70033e-05 8.21879e-05 8.62631e-05 8.92289e-05 9.10853e-05 9.18324e-05 9.147e-05 9.00585e-05 8.76581e-05 8.42688e-05 7.98906e-05 7.45235e-05 6.81674e-05 6.08225e-05 5.24886e-05 4.34051e-05 3.38114e-05 2.37073e-05 1.30929e-05 1.96818e-06 -9.66683e-06 -2.18122e-05 -3.44678e-05 -4.64708e-05 -5.66584e-05 -6.50306e-05 -7.15873e-05 -7.63285e-05 -7.92543e-05 -8.03646e-05 -7.96595e-05 -7.75755e-05 -7.45493e-05 -7.05807e-05 -6.56699e-05 -5.98169e-05 -5.30215e-05 -4.52839e-05 -3.66041e-05 -2.8025e-05 -2.05898e-05 -1.42985e-05 -9.15101e-06 -5.14745e-06 -2.28775e-06 -5.71938e-07 0 0 -8.61684e-07 -3.44674e-06 -7.75516e-06 -1.3787e-05 -2.15421e-05 -3.10206e-05 -4.22225e-05 -5.51478e-05 -7.07078e-05 -8.98137e-05 -0.000112466 -0.000138664 -0.000168408 -0.000201698 -0.000238534 -0.000278915 -0.000322242 -0.000367911 -0.000415922 -0.000466276 -0.000518973 -0.000574013 -0.000631395 -0.000691119 -0.000751077 -0.000809158 -0.000865362 -0.000919689 -0.000972139 -0.00102271 -0.00107141 -0.00111823 -0.00116089 -0.00119711 -0.00122689 -0.00125023 -0.00126712 -0.00127758 -0.00128159 -0.00127917 -0.00127196 -0.00126164 -0.00124821 -0.00123166 -0.001212 -0.00118923 -0.00116333 -0.00113433 -0.00110413 -0.00107465 -0.0010459 -0.00101787 -0.000990568 -0.000963988 -0.000938131 -0.000912999 -0.000886646 -0.00085713 -0.000824449 -0.000788605 -0.000749596 -0.000707424 -0.000662087 -0.000613587 -0.000562422 -0.000509094 -0.000453601 -0.000395945 -0.000336125 -0.000274141 -0.000209993 -0.000143681 -7.85099e-05 -1.77839e-05 3.84969e-05 9.03326e-05 0.000137723 0.000180668 0.000219169 0.000253223 0.000282837 0.000308013 0.000328751 0.000345052 0.000356916 0.000364341 0.00036733 0.00036588 0.000360234 0.000350633 0.000337075 0.000319562 0.000298094 0.00027267 0.00024329 0.000209954 0.000173621 0.000135245 9.48291e-05 5.23715e-05 7.87271e-06 -3.86673e-05 -8.72486e-05 -0.000137871 -0.000185883 -0.000226634 -0.000260122 -0.000286349 -0.000305314 -0.000317017 -0.000321459 -0.000318638 -0.000310302 -0.000298197 -0.000282323 -0.00026268 -0.000239268 -0.000212086 -0.000181136 -0.000146416 -0.0001121 -8.23591e-05 -5.71938e-05 -3.66041e-05 -2.05898e-05 -9.15101e-06 -2.28775e-06 0 0 -1.93879e-06 -7.75516e-06 -1.74491e-05 -3.10206e-05 -4.84697e-05 -6.97964e-05 -9.50007e-05 -0.000124083 -0.000159092 -0.000202081 -0.000253048 -0.000311993 -0.000378917 -0.000453819 -0.0005367 -0.00062756 -0.000725044 -0.000827799 -0.000935825 -0.00104912 -0.00116769 -0.00129153 -0.00142064 -0.00155502 -0.00168992 -0.0018206 -0.00194706 -0.0020693 -0.00218731 -0.0023011 -0.00241067 -0.00251602 -0.00261201 -0.0026935 -0.0027605 -0.00281301 -0.00285103 -0.00287456 -0.00288359 -0.00287813 -0.00286192 -0.0028387 -0.00280848 -0.00277124 -0.002727 -0.00267576 -0.0026175 -0.00255224 -0.00248429 -0.00241797 -0.00235328 -0.00229021 -0.00222878 -0.00216897 -0.0021108 -0.00205425 -0.00199495 -0.00192854 -0.00185501 -0.00177436 -0.00168659 -0.0015917 -0.0014897 -0.00138057 -0.00126545 -0.00114546 -0.0010206 -0.000890876 -0.000756281 -0.000616817 -0.000472484 -0.000323283 -0.000176647 -4.00138e-05 8.66181e-05 0.000203248 0.000309877 0.000406504 0.000493129 0.000569753 0.000636383 0.000693029 0.000739691 0.000776368 0.00080306 0.000819768 0.000826491 0.00082323 0.000810527 0.000788923 0.000758419 0.000719015 0.000670711 0.000613507 0.000547402 0.000472397 0.000390646 0.000304302 0.000213365 0.000117836 1.77136e-05 -8.70015e-05 -0.000196309 -0.00031021 -0.000418238 -0.000509926 -0.000585275 -0.000644285 -0.000686957 -0.000713289 -0.000723282 -0.000716936 -0.00069818 -0.000670943 -0.000635227 -0.00059103 -0.000538352 -0.000477194 -0.000407555 -0.000329437 -0.000252225 -0.000185308 -0.000128686 -8.23591e-05 -4.6327e-05 -2.05898e-05 -5.14745e-06 0 0 -3.44674e-06 -1.3787e-05 -3.10206e-05 -5.51478e-05 -8.61684e-05 -0.000124083 -0.00016889 -0.000220591 -0.000282831 -0.000359255 -0.000449863 -0.000554654 -0.00067363 -0.00080679 -0.000954134 -0.00111566 -0.00128897 -0.00147164 -0.00166369 -0.00186511 -0.00207589 -0.00229605 -0.00252558 -0.00276448 -0.00300431 -0.00323663 -0.00346145 -0.00367876 -0.00388856 -0.00409085 -0.00428564 -0.00447292 -0.00464357 -0.00478845 -0.00490756 -0.00500091 -0.0050685 -0.00511032 -0.00512638 -0.00511667 -0.00508785 -0.00504658 -0.00499285 -0.00492666 -0.00484801 -0.0047569 -0.00465334 -0.00453732 -0.00441652 -0.00429861 -0.0041836 -0.00407149 -0.00396227 -0.00385595 -0.00375252 -0.00365199 -0.00354658 -0.00342852 -0.0032978 -0.00315442 -0.00299838 -0.00282969 -0.00264835 -0.00245435 -0.00224969 -0.00203637 -0.00181441 -0.00158378 -0.0013445 -0.00109656 -0.000839972 -0.000574725 -0.00031404 -7.11356e-05 0.000153988 0.00036133 0.000550892 0.000722674 0.000876674 0.00101289 0.00113135 0.00123205 0.00131501 0.00138021 0.00142766 0.00145737 0.00146932 0.00146352 0.00144094 0.00140253 0.0013483 0.00127825 0.00119238 0.00109068 0.000973159 0.000839818 0.000694482 0.000540982 0.000379316 0.000209486 3.14908e-05 -0.000154669 -0.000348994 -0.000551484 -0.000743533 -0.000906535 -0.00104049 -0.0011454 -0.00122126 -0.00126807 -0.00128583 -0.00127455 -0.00124121 -0.00119279 -0.00112929 -0.00105072 -0.00095707 -0.000848345 -0.000724543 -0.000585665 -0.0004484 -0.000329437 -0.000228775 -0.000146416 -8.23591e-05 -3.66041e-05 -9.15101e-06 0 0 -5.38553e-06 -2.15421e-05 -4.84697e-05 -8.61684e-05 -0.000134638 -0.000193879 -0.000263891 -0.000344674 -0.000441923 -0.000561336 -0.00070291 -0.000866648 -0.00105255 -0.00126061 -0.00149083 -0.00174322 -0.00201401 -0.00229944 -0.00259951 -0.00291423 -0.00324358 -0.00358758 -0.00394622 -0.0043195 -0.00469423 -0.00505724 -0.00540851 -0.00574806 -0.00607587 -0.00639196 -0.00669631 -0.00698894 -0.00725557 -0.00748195 -0.00766807 -0.00781393 -0.00791953 -0.00798488 -0.00800997 -0.0079948 -0.00794977 -0.00788528 -0.00780132 -0.0076979 -0.00757501 -0.00743266 -0.00727084 -0.00708956 -0.00690081 -0.00671658 -0.00653688 -0.0063617 -0.00619105 -0.00602492 -0.00586332 -0.00570624 -0.00554154 -0.00535706 -0.00515281 -0.00492878 -0.00468498 -0.0044214 -0.00413804 -0.00383492 -0.00351514 -0.00318184 -0.00283501 -0.00247466 -0.00210078 -0.00171338 -0.00131246 -0.000898007 -0.000490687 -0.000111149 0.000240606 0.000564579 0.000860769 0.00112918 0.0013698 0.00158265 0.00176773 0.00192508 0.0020547 0.00215658 0.00223072 0.00227713 0.00229581 0.00228675 0.00225146 0.00219145 0.00210672 0.00199726 0.00186309 0.00170419 0.00152056 0.00131222 0.00108513 0.000845284 0.000592682 0.000327322 4.92045e-05 -0.000241671 -0.000545304 -0.000861694 -0.00116177 -0.00141646 -0.00162576 -0.00178968 -0.00190821 -0.00198136 -0.00200912 -0.00199149 -0.00193939 -0.00186373 -0.00176452 -0.00164175 -0.00149542 -0.00132554 -0.0011321 -0.000915101 -0.000700625 -0.000514745 -0.000357461 -0.000228775 -0.000128686 -5.71938e-05 -1.42985e-05 0 0 -7.75516e-06 -3.10206e-05 -6.97964e-05 -0.000124083 -0.000193879 -0.000279186 -0.000380003 -0.00049633 -0.00063637 -0.000808323 -0.00101219 -0.00124797 -0.00151567 -0.00181528 -0.0021468 -0.00251024 -0.00290018 -0.0033112 -0.0037433 -0.00419649 -0.00467076 -0.00516611 -0.00568255 -0.00622007 -0.00675969 -0.00728242 -0.00778826 -0.0082772 -0.00874926 -0.00920442 -0.00964269 -0.0100641 -0.010448 -0.010774 -0.011042 -0.0112521 -0.0114041 -0.0114982 -0.0115344 -0.0115125 -0.0114477 -0.0113548 -0.0112339 -0.011085 -0.010908 -0.010703 -0.01047 -0.010209 -0.00993717 -0.00967188 -0.00941311 -0.00916085 -0.00891511 -0.00867589 -0.00844318 -0.00821699 -0.00797982 -0.00771417 -0.00742004 -0.00709744 -0.00674637 -0.00636681 -0.00595878 -0.00552228 -0.0050618 -0.00458184 -0.00408241 -0.00356351 -0.00302512 -0.00246727 -0.00188994 -0.00129313 -0.000706589 -0.000160055 0.000346472 0.000812993 0.00123951 0.00162602 0.00197252 0.00227901 0.00254553 0.00277212 0.00295876 0.00310547 0.00321224 0.00327907 0.00330597 0.00329292 0.00324211 0.00315569 0.00303368 0.00287606 0.00268284 0.00245403 0.00218961 0.00188959 0.00156258 0.00121721 0.000853462 0.000471344 7.08544e-05 -0.000348006 -0.000785237 -0.00124084 -0.00167295 -0.0020397 -0.0023411 -0.00257714 -0.00274783 -0.00285315 -0.00289313 -0.00286774 -0.00279272 -0.00268377 -0.00254091 -0.00236412 -0.00215341 -0.00190878 -0.00163022 -0.00131775 -0.0010089 -0.000741232 -0.000514745 -0.000329437 -0.000185308 -8.23591e-05 -2.05898e-05 0 0 -1.05556e-05 -4.22225e-05 -9.50007e-05 -0.00016889 -0.000263891 -0.000380003 -0.000517226 -0.000675561 -0.00086617 -0.00110022 -0.0013777 -0.00169863 -0.00206299 -0.00247079 -0.00292204 -0.00341671 -0.00394746 -0.00450691 -0.00509505 -0.00571189 -0.00635742 -0.00703165 -0.00773458 -0.00846621 -0.00920069 -0.00991218 -0.0106007 -0.0112662 -0.0119087 -0.0125282 -0.0131248 -0.0136983 -0.0142209 -0.0146646 -0.0150294 -0.0153153 -0.0155223 -0.0156504 -0.0156995 -0.0156698 -0.0155816 -0.0154551 -0.0152906 -0.0150879 -0.014847 -0.014568 -0.0142509 -0.0138955 -0.0135256 -0.0131645 -0.0128123 -0.0124689 -0.0121345 -0.0118088 -0.0114921 -0.0111842 -0.0108614 -0.0104998 -0.0100995 -0.00966041 -0.00918255 -0.00866594 -0.00811057 -0.00751644 -0.00688967 -0.0062364 -0.00555662 -0.00485033 -0.00411753 -0.00335823 -0.00257241 -0.00176009 -0.000961747 -0.000217853 0.000471587 0.00110657 0.00168711 0.00221319 0.00268481 0.00310199 0.00346475 0.00377316 0.00402721 0.00422689 0.00437222 0.00446318 0.00449979 0.00448203 0.00441287 0.00429525 0.00412917 0.00391464 0.00365165 0.0033402 0.0029803 0.00257194 0.00212685 0.00165676 0.00116166 0.000641551 9.64407e-05 -0.000473675 -0.0010688 -0.00168892 -0.00227707 -0.00277626 -0.0031865 -0.00350778 -0.0037401 -0.00388346 -0.00393787 -0.00390332 -0.0038012 -0.00365291 -0.00345846 -0.00321783 -0.00293103 -0.00259806 -0.00221891 -0.0017936 -0.00137322 -0.0010089 -0.000700625 -0.0004484 -0.000252225 -0.0001121 -2.8025e-05 0 0 -1.3787e-05 -5.51478e-05 -0.000124083 -0.000220591 -0.000344674 -0.00049633 -0.000675561 -0.000882365 -0.00113132 -0.00143702 -0.00179945 -0.00221862 -0.00269452 -0.00322716 -0.00381654 -0.00446265 -0.00515587 -0.00588657 -0.00665476 -0.00746042 -0.00830357 -0.0091842 -0.0101023 -0.0110579 -0.0120172 -0.0129465 -0.0138458 -0.014715 -0.0155542 -0.0163634 -0.0171426 -0.0178917 -0.0185743 -0.0191538 -0.0196302 -0.0200037 -0.020274 -0.0204413 -0.0205055 -0.0204667 -0.0203514 -0.0201863 -0.0199714 -0.0197066 -0.019392 -0.0190276 -0.0186134 -0.0181493 -0.0176661 -0.0171945 -0.0167344 -0.016286 -0.0158491 -0.0154238 -0.0150101 -0.014608 -0.0141863 -0.0137141 -0.0131912 -0.0126177 -0.0119935 -0.0113188 -0.0105934 -0.00981738 -0.00899875 -0.0081455 -0.00725762 -0.00633512 -0.005378 -0.00438625 -0.00335989 -0.0022989 -0.00125616 -0.000284543 0.000615951 0.00144532 0.00220357 0.00289069 0.0035067 0.00405158 0.00452539 0.00492821 0.00526002 0.00552084 0.00571065 0.00582946 0.00587727 0.00585408 0.00576375 0.00561012 0.0053932 0.005113 0.0047695 0.00436271 0.00389264 0.00335927 0.00277793 0.00216393 0.00151727 0.000837944 0.000125963 -0.000618677 -0.00139598 -0.00220594 -0.00297413 -0.00362614 -0.00416196 -0.00458159 -0.00488502 -0.00507228 -0.00514334 -0.00509821 -0.00496483 -0.00477115 -0.00451717 -0.00420288 -0.00382828 -0.00339338 -0.00289817 -0.00234266 -0.0017936 -0.00131775 -0.000915101 -0.000585665 -0.000329437 -0.000146416 -3.66041e-05 0 0 -1.75104e-05 -7.00417e-05 -0.000157594 -0.000280167 -0.00043776 -0.000630375 -0.00085801 -0.00112067 -0.00143533 -0.001819 -0.00227167 -0.00279334 -0.00338402 -0.00404369 -0.00477236 -0.00557004 -0.00642446 -0.00732336 -0.00826675 -0.00925462 -0.010287 -0.0113638 -0.0124851 -0.0136509 -0.0148206 -0.0159534 -0.0170494 -0.0181086 -0.0191309 -0.0201165 -0.0210652 -0.0219771 -0.0228078 -0.0235128 -0.0240921 -0.0245458 -0.0248739 -0.0250763 -0.025153 -0.0251041 -0.024963 -0.024763 -0.0245043 -0.0241868 -0.0238105 -0.0233754 -0.0228815 -0.0223289 -0.0217534 -0.0211913 -0.0206424 -0.0201067 -0.0195843 -0.0190752 -0.0185794 -0.0180968 -0.0175848 -0.0170009 -0.0163451 -0.0156174 -0.0148177 -0.0139461 -0.0130025 -0.011987 -0.01091 -0.00978212 -0.00860326 -0.00737345 -0.00609268 -0.00476097 -0.0033783 -0.00194467 -0.00053154 0.000789662 0.00201893 0.00315627 0.00420168 0.00515515 0.0060167 0.00678631 0.00746013 0.0080343 0.00850882 0.0088837 0.00915892 0.0093345 0.00941043 0.0093867 0.00926841 0.00906063 0.00876336 0.00837661 0.00790036 0.00733463 0.0066794 0.00593469 0.00512335 0.00426824 0.00336936 0.00242671 0.00144029 0.000410094 -0.000663868 -0.0017816 -0.00284564 -0.00375853 -0.00452027 -0.00513086 -0.00559029 -0.00589857 -0.0060557 -0.00606168 -0.00595126 -0.00575916 -0.0054854 -0.00512998 -0.0046929 -0.00417415 -0.00357373 -0.00289165 -0.00221392 -0.00162655 -0.00112955 -0.000722912 -0.000406638 -0.000180728 -4.5182e-05 0 0 -2.17873e-05 -8.71493e-05 -0.000196086 -0.000348597 -0.000544683 -0.000784344 -0.00106758 -0.00139439 -0.0017817 -0.00224644 -0.00278861 -0.00340821 -0.00410524 -0.00487969 -0.00573158 -0.00666089 -0.0076523 -0.00869045 -0.00977535 -0.010907 -0.0120854 -0.0133105 -0.0145824 -0.0159011 -0.017222 -0.0185007 -0.0197373 -0.0209317 -0.0220839 -0.023194 -0.0242618 -0.0252875 -0.0262212 -0.0270129 -0.0276627 -0.0281706 -0.0285366 -0.0287606 -0.0288428 -0.028783 -0.0286219 -0.0284001 -0.0281174 -0.0277741 -0.0273699 -0.0269051 -0.0263794 -0.025793 -0.0251825 -0.0245845 -0.023999 -0.023426 -0.0228655 -0.0223175 -0.0217821 -0.0212591 -0.0206871 -0.0200045 -0.0192114 -0.0183077 -0.0172934 -0.0161685 -0.0149331 -0.0135871 -0.0121445 -0.0106192 -0.00901137 -0.00732087 -0.00554774 -0.00369197 -0.00175358 0.00026745 0.0022704 0.00415455 0.0059199 0.00756645 0.00909421 0.0105032 0.0117933 0.0129647 0.0140016 0.0148885 0.0156252 0.0162119 0.0166484 0.0169349 0.0170713 0.0170575 0.0169005 0.0166071 0.0161772 0.0156109 0.0149082 0.014069 0.0130934 0.0119813 0.0107707 0.00949921 0.008167 0.00677402 0.00532027 0.00380574 0.00223045 0.000594382 -0.000973099 -0.00234263 -0.00351422 -0.00448787 -0.00526357 -0.00584133 -0.00622114 -0.006403 -0.0064281 -0.00633761 -0.00613153 -0.00580986 -0.0053726 -0.00481975 -0.00415132 -0.00336729 -0.00257808 -0.0018941 -0.00131535 -0.000841822 -0.000473525 -0.000210456 -5.26139e-05 0 0 -2.66177e-05 -0.000106471 -0.000239559 -0.000425883 -0.000665443 -0.000958237 -0.00130427 -0.00170353 -0.00217043 -0.00271934 -0.00335027 -0.00406322 -0.00485819 -0.00573518 -0.00669418 -0.00773521 -0.00883938 -0.00998783 -0.0111806 -0.0124176 -0.0136988 -0.0150244 -0.0163942 -0.0178083 -0.0192215 -0.0205886 -0.0219096 -0.0231844 -0.0244132 -0.0255959 -0.0267325 -0.0278229 -0.0288145 -0.0296541 -0.0303419 -0.0308779 -0.0312621 -0.0314944 -0.0315748 -0.0315034 -0.0313283 -0.0310974 -0.0308107 -0.0304684 -0.0300703 -0.0296165 -0.029107 -0.0285418 -0.0279533 -0.0273742 -0.0268043 -0.0262438 -0.0256927 -0.0251508 -0.0246182 -0.024095 -0.0234932 -0.0227248 -0.0217899 -0.0206885 -0.0194206 -0.0179862 -0.0163852 -0.0146177 -0.0127021 -0.0106569 -0.00848196 -0.00617739 -0.00374316 -0.00117928 0.00151427 0.00433747 0.00714965 0.00981011 0.0123189 0.0146759 0.0168812 0.0189348 0.0208366 0.0225868 0.0241499 0.0254907 0.0266092 0.0275053 0.0281791 0.0286306 0.0288597 0.0288666 0.0286601 0.0282495 0.0276348 0.026816 0.025793 0.0245659 0.0231346 0.0214992 0.0197198 0.0178568 0.0159102 0.0138799 0.0117659 0.00956828 0.00728697 0.00492201 0.00264349 0.00062155 -0.00114383 -0.00265263 -0.00390487 -0.00490054 -0.00563964 -0.00612217 -0.00639538 -0.0065065 -0.00645555 -0.00624252 -0.0058674 -0.00533021 -0.00463093 -0.00376958 -0.00288608 -0.00212039 -0.00147249 -0.000942395 -0.000530097 -0.000235599 -5.88997e-05 0 0 -3.20015e-05 -0.000128006 -0.000288014 -0.000512025 -0.000800038 -0.00115206 -0.00156808 -0.0020481 -0.00260151 -0.00323769 -0.00395664 -0.00475837 -0.00564287 -0.00661014 -0.00766018 -0.00879299 -0.00998572 -0.0112155 -0.0124824 -0.0137863 -0.0151273 -0.0165053 -0.0179205 -0.0193726 -0.0208191 -0.0222169 -0.0235661 -0.0248668 -0.0261188 -0.0273222 -0.0284771 -0.0295834 -0.0305876 -0.0314364 -0.0321298 -0.0326678 -0.0330503 -0.0332774 -0.0333491 -0.0332653 -0.033082 -0.032855 -0.0325842 -0.0322698 -0.0319117 -0.0315098 -0.0310643 -0.030575 -0.0300658 -0.0295602 -0.0290584 -0.0285602 -0.0280657 -0.027575 -0.0270879 -0.0266045 -0.026003 -0.0251618 -0.0240808 -0.02276 -0.0211994 -0.019399 -0.0173588 -0.0150788 -0.0125829 -0.00989498 -0.00701501 -0.003943 -0.000678958 0.00277712 0.00642524 0.0102654 0.0141062 0.0177564 0.0212158 0.0244845 0.0275626 0.0304499 0.0331466 0.0356526 0.037905 0.0398411 0.0414608 0.0427641 0.0437511 0.0444217 0.0447759 0.0448138 0.0445472 0.043988 0.0431362 0.0419918 0.0405548 0.0388252 0.036803 0.0344882 0.0319709 0.0293411 0.026599 0.0237443 0.0207772 0.0176977 0.0145057 0.0112013 0.00800414 0.00513402 0.00259093 0.000374861 -0.00151418 -0.00307621 -0.00431121 -0.00521918 -0.00585308 -0.00626583 -0.00645746 -0.00642794 -0.00617729 -0.0057055 -0.00501258 -0.00409852 -0.00313793 -0.00230542 -0.00160098 -0.00102463 -0.000576354 -0.000256157 -6.40393e-05 0 0 -3.79388e-05 -0.000151755 -0.000341449 -0.000607021 -0.00094847 -0.0013658 -0.001859 -0.00242808 -0.00307495 -0.0038015 -0.00460774 -0.00549366 -0.00645927 -0.00750457 -0.00862956 -0.00983423 -0.0110913 -0.0123735 -0.0136808 -0.0150132 -0.0163708 -0.0177534 -0.0191612 -0.0205941 -0.0220147 -0.0233857 -0.024707 -0.0259787 -0.0272007 -0.028373 -0.0294957 -0.0305688 -0.0315407 -0.0323599 -0.0330264 -0.0335402 -0.0339014 -0.0341098 -0.0341656 -0.0340687 -0.0338831 -0.0336729 -0.0334379 -0.0331783 -0.0328939 -0.0325849 -0.0322512 -0.0318929 -0.03152 -0.0311427 -0.0307611 -0.0303751 -0.0299847 -0.02959 -0.029191 -0.0287875 -0.0282167 -0.0273155 -0.026084 -0.024522 -0.0226297 -0.020407 -0.0178539 -0.0149704 -0.0117869 -0.00833359 -0.00461053 -0.000617709 0.00364488 0.00817723 0.0129793 0.0180512 0.0231401 0.0279933 0.0326107 0.0369924 0.0411384 0.0450487 0.0487232 0.052162 0.0552668 0.0579395 0.0601799 0.0619882 0.0633642 0.0643081 0.0648197 0.0648992 0.0645617 0.0638223 0.0626812 0.0611382 0.0591935 0.0568469 0.0540986 0.0509484 0.0475238 0.0439521 0.0402333 0.0363673 0.0323542 0.028194 0.0238866 0.0194322 0.0151088 0.0111948 0.00769004 0.00459461 0.00190848 -0.000368332 -0.00223584 -0.00369404 -0.0048012 -0.00561561 -0.00613725 -0.00636614 -0.00630227 -0.00594564 -0.00529625 -0.00435411 -0.00333361 -0.00244918 -0.00170082 -0.00108853 -0.000612296 -0.000272132 -6.80329e-05 0 0 -4.44295e-05 -0.000177718 -0.000399866 -0.000710873 -0.00111074 -0.00159946 -0.00217705 -0.00284349 -0.00359075 -0.00441076 -0.00530355 -0.0062691 -0.00730741 -0.00841848 -0.00960232 -0.0108589 -0.0121561 -0.0134618 -0.0147758 -0.0160983 -0.0174293 -0.0187686 -0.0201164 -0.0214726 -0.0228084 -0.0240949 -0.0253322 -0.0265201 -0.0276588 -0.0287482 -0.0297884 -0.0307792 -0.0316736 -0.0324244 -0.0330316 -0.0334952 -0.0338152 -0.0339916 -0.0340244 -0.0339136 -0.0337317 -0.033551 -0.0333718 -0.0331938 -0.0330172 -0.0328419 -0.0326679 -0.0324953 -0.0323159 -0.0321216 -0.0319125 -0.0316885 -0.0314497 -0.031196 -0.0309275 -0.0306441 -0.0301342 -0.0291859 -0.0277994 -0.0259746 -0.0237115 -0.0210101 -0.0178705 -0.0142925 -0.010314 -0.00597271 -0.00126853 0.00379849 0.00922834 0.015021 0.0211766 0.0276949 0.0342513 0.0405209 0.0465036 0.0521996 0.0576087 0.062731 0.0675665 0.0721151 0.0762355 0.079786 0.0827667 0.0851776 0.0870186 0.0882899 0.0889913 0.0891228 0.0887036 0.0877527 0.0862699 0.0842554 0.0817092 0.0786312 0.0750214 0.0708799 0.0663787 0.0616897 0.0568131 0.0517488 0.0464968 0.0410572 0.0354298 0.0296148 0.0239576 0.0188038 0.0141535 0.0100066 0.00636313 0.00322309 0.000586461 -0.00154674 -0.00323975 -0.00455582 -0.00549494 -0.00605712 -0.00624234 -0.00605062 -0.00548196 -0.00453634 -0.00347314 -0.00255169 -0.00177201 -0.00113409 -0.000637923 -0.000283522 -7.08804e-05 0 0 -5.14737e-05 -0.000205895 -0.000463264 -0.00082358 -0.00128684 -0.00185305 -0.00252221 -0.00329432 -0.0041489 -0.00506549 -0.00604408 -0.00708467 -0.00818727 -0.00935187 -0.0105785 -0.0118671 -0.0131802 -0.0144803 -0.0157675 -0.0170416 -0.0183028 -0.0195509 -0.0207861 -0.0220083 -0.0232002 -0.0243447 -0.0254417 -0.0264912 -0.0274933 -0.0284479 -0.029355 -0.0302146 -0.0309864 -0.0316301 -0.0321455 -0.0325328 -0.0327919 -0.0329228 -0.0329255 -0.0328 -0.0326276 -0.0324895 -0.0323858 -0.0323164 -0.0322813 -0.0322806 -0.0323143 -0.0323822 -0.0324535 -0.0324969 -0.0325126 -0.0325005 -0.0324606 -0.032393 -0.0322975 -0.0321743 -0.0317554 -0.0307731 -0.0292272 -0.0271178 -0.0244449 -0.0212085 -0.0174086 -0.0130452 -0.00816438 -0.00281232 0.00301101 0.00930559 0.0160714 0.0233085 0.0310169 0.0391966 0.0474398 0.0553392 0.0628945 0.0701059 0.0769734 0.0834968 0.0896764 0.0955119 0.100811 0.105381 0.109221 0.112332 0.114714 0.116367 0.11729 0.117485 0.116973 0.115779 0.113902 0.111343 0.108102 0.104178 0.0995715 0.0942826 0.0885354 0.082554 0.0763385 0.0698889 0.0632051 0.0562872 0.0491352 0.041749 0.0345504 0.0279612 0.0219813 0.0166109 0.0118498 0.00769805 0.00415569 0.00122271 -0.00116873 -0.00308647 -0.00453052 -0.00550086 -0.00599751 -0.00602045 -0.00556969 -0.00464523 -0.00355651 -0.00261294 -0.00181454 -0.00116131 -0.000653236 -0.000290327 -7.25818e-05 0 0 -5.90714e-05 -0.000236285 -0.000531642 -0.000945142 -0.00147678 -0.00212657 -0.0028945 -0.00378057 -0.00474941 -0.00576567 -0.00682932 -0.00794039 -0.00909886 -0.0103047 -0.011558 -0.0128587 -0.0141635 -0.0154292 -0.0166557 -0.0178431 -0.0189913 -0.0201004 -0.0211703 -0.022201 -0.0231901 -0.0241349 -0.0250355 -0.0258919 -0.026704 -0.0274719 -0.0281956 -0.0288751 -0.0294792 -0.0299768 -0.0303681 -0.0306529 -0.0308313 -0.0309032 -0.0308688 -0.0307279 -0.0305709 -0.0304883 -0.03048 -0.0305461 -0.0306865 -0.0309012 -0.0311903 -0.0315537 -0.0319328 -0.0322687 -0.0325614 -0.032811 -0.0330175 -0.0331808 -0.033301 -0.033378 -0.0330805 -0.0320769 -0.0303672 -0.0279516 -0.0248298 -0.021002 -0.0164682 -0.0112283 -0.00533788 0.00114758 0.00822807 0.0159036 0.0241742 0.0330398 0.0425004 0.0525561 0.0627057 0.0724481 0.0817834 0.0907115 0.0992325 0.107346 0.115053 0.122352 0.128993 0.134723 0.139543 0.143452 0.146451 0.148539 0.149717 0.149985 0.14937 0.147901 0.145579 0.142402 0.138372 0.133487 0.127749 0.121156 0.113994 0.106545 0.0988095 0.0907875 0.0824791 0.0738841 0.0650027 0.0558348 0.0468872 0.0386668 0.0311735 0.0244074 0.0183684 0.0130565 0.00847186 0.00461432 0.00141187 -0.00120757 -0.00324399 -0.00469738 -0.00556776 -0.00585512 -0.00555945 -0.00468077 -0.00358371 -0.00263293 -0.00182843 -0.00117019 -0.000658233 -0.000292548 -7.3137e-05 0 0 -6.62429e-05 -0.000264972 -0.000596186 -0.00105989 -0.00165607 -0.00238475 -0.0032459 -0.00423955 -0.00531145 -0.00640738 -0.00752735 -0.00867135 -0.00983937 -0.0110314 -0.0122475 -0.0134876 -0.0147027 -0.0158437 -0.0169105 -0.0179033 -0.0188219 -0.0196664 -0.0204368 -0.021133 -0.0217737 -0.0223774 -0.0229441 -0.0234738 -0.0239665 -0.0244221 -0.0248408 -0.0252225 -0.0255507 -0.0258092 -0.0259978 -0.0261167 -0.0261657 -0.026145 -0.0260544 -0.0258941 -0.0257635 -0.0257623 -0.0258905 -0.026148 -0.0265349 -0.0270512 -0.0276968 -0.0284719 -0.0292822 -0.030034 -0.030727 -0.0313614 -0.0319372 -0.0324543 -0.0329127 -0.0333125 -0.0332487 -0.0323161 -0.030515 -0.0278451 -0.0243067 -0.0198995 -0.0146237 -0.00847926 -0.00153166 0.00615358 0.0145765 0.023737 0.0336352 0.044271 0.0556444 0.0677555 0.0799982 0.0917661 0.103059 0.113878 0.124222 0.134091 0.143486 0.152406 0.160534 0.16755 0.173456 0.178251 0.181936 0.184509 0.185972 0.186325 0.1856 0.183831 0.181019 0.177163 0.172263 0.16632 0.159333 0.151302 0.142577 0.133506 0.12409 0.114329 0.104222 0.0937697 0.0829721 0.0718291 0.0609409 0.0509076 0.0417292 0.0334057 0.0259371 0.0193234 0.0135646 0.00866076 0.00453635 0.00111594 -0.00160047 -0.00361287 -0.00492127 -0.00552567 -0.00542606 -0.00462245 -0.00353906 -0.00260013 -0.00180564 -0.00115561 -0.000650032 -0.000288903 -7.22258e-05 0 0 -7.20089e-05 -0.000288036 -0.00064808 -0.00115214 -0.00180022 -0.00259232 -0.00352844 -0.00460857 -0.00575418 -0.00688673 -0.00800622 -0.00911264 -0.010206 -0.0112863 -0.0123535 -0.0134077 -0.0143944 -0.0152591 -0.0160019 -0.0166227 -0.0171215 -0.0174985 -0.0177534 -0.0178864 -0.0179468 -0.017984 -0.0179979 -0.0179886 -0.017956 -0.0179002 -0.0178212 -0.0177188 -0.0176 -0.0174715 -0.0173332 -0.0171851 -0.0170273 -0.0168598 -0.0166825 -0.0164954 -0.0164072 -0.0165265 -0.0168532 -0.0173874 -0.018129 -0.0190781 -0.0202346 -0.0215986 -0.0230304 -0.02439 -0.0256776 -0.0268932 -0.0280367 -0.0291082 -0.0301076 -0.031035 -0.0313993 -0.0307095 -0.0289657 -0.0261678 -0.0223158 -0.0174097 -0.0114496 -0.00443535 0.00355719 0.0124523 0.02225 0.0329503 0.0445531 0.0570585 0.0704665 0.0847771 0.0992666 0.113211 0.126612 0.139467 0.151778 0.163545 0.174766 0.185443 0.195184 0.203598 0.210684 0.216443 0.220875 0.223979 0.225756 0.226206 0.225367 0.223279 0.219942 0.215356 0.209521 0.202436 0.194102 0.184519 0.174106 0.163281 0.152044 0.140396 0.128337 0.115866 0.102983 0.0896888 0.0766842 0.0646705 0.0536475 0.0436153 0.034574 0.0265234 0.0194637 0.0133947 0.00823902 0.00391909 0.000434913 -0.00221352 -0.0040262 -0.00500314 -0.00514432 -0.00444976 -0.00340684 -0.00250299 -0.00173819 -0.00111244 -0.000625747 -0.00027811 -6.95274e-05 0 0 -7.63692e-05 -0.000305477 -0.000687323 -0.00122191 -0.00190923 -0.00274929 -0.00374209 -0.00488763 -0.0060776 -0.0072037 -0.00826592 -0.00926427 -0.0101987 -0.0110693 -0.0118761 -0.0126189 -0.0132385 -0.0136754 -0.0139297 -0.0140013 -0.0138903 -0.0135966 -0.0131202 -0.0124612 -0.0117094 -0.0109547 -0.010197 -0.0094363 -0.00867269 -0.00790614 -0.00713664 -0.00636419 -0.00562713 -0.00496379 -0.00437418 -0.00385828 -0.00341611 -0.00304766 -0.00275293 -0.00253193 -0.00250209 -0.00278085 -0.00336821 -0.00426418 -0.00546875 -0.00698193 -0.00880371 -0.0109341 -0.0131771 -0.0153368 -0.0174132 -0.0194063 -0.0213161 -0.0231425 -0.0248856 -0.0265454 -0.0275324 -0.0272571 -0.0257195 -0.0229195 -0.0188573 -0.0135327 -0.00694579 0.000903413 0.00992868 0.0200438 0.0312487 0.0435434 0.056928 0.0714024 0.0869666 0.103621 0.120511 0.136784 0.15244 0.167479 0.181901 0.195706 0.208893 0.221464 0.232945 0.242867 0.251228 0.258028 0.263269 0.266949 0.269069 0.269629 0.268673 0.266247 0.26235 0.256983 0.250145 0.241837 0.232058 0.220808 0.208581 0.195869 0.182672 0.16899 0.154824 0.140172 0.125035 0.109414 0.0941172 0.0799554 0.0669284 0.0550363 0.044279 0.0346566 0.026169 0.0188162 0.0125199 0.0072019 0.00286216 -0.000499329 -0.00288256 -0.00428753 -0.00471424 -0.00416269 -0.00318706 -0.00234152 -0.00162605 -0.00104067 -0.000585379 -0.000260168 -6.50421e-05 0 0 -7.9324e-05 -0.000317296 -0.000713916 -0.00126918 -0.0019831 -0.00285566 -0.00388687 -0.00507673 -0.00628171 -0.00735829 -0.00830647 -0.00912624 -0.0098176 -0.0103806 -0.0108151 -0.0111213 -0.0112351 -0.0110927 -0.0106941 -0.0100392 -0.00912814 -0.00796081 -0.00653724 -0.00485745 -0.00306148 -0.00128939 0.000458802 0.00218311 0.00388354 0.00556007 0.00721272 0.00884148 0.010368 0.0117139 0.0128792 0.0138638 0.0146679 0.0152913 0.0157342 0.0159964 0.0159519 0.0154746 0.0145645 0.0132216 0.0114458 0.0092373 0.00659596 0.0035218 0.000277479 -0.00287438 -0.00593378 -0.00890072 -0.0117752 -0.0145572 -0.0172467 -0.0198438 -0.021648 -0.0219588 -0.0207762 -0.0181003 -0.013931 -0.00826837 -0.00111234 0.00753704 0.0175828 0.028928 0.0415725 0.0555165 0.0707598 0.0873025 0.105145 0.124286 0.143731 0.162484 0.180545 0.197914 0.21459 0.230575 0.245867 0.260467 0.273816 0.285356 0.295086 0.303006 0.309117 0.313419 0.315911 0.316593 0.315517 0.312733 0.308241 0.302042 0.294136 0.284521 0.273199 0.260169 0.246003 0.231271 0.215974 0.200111 0.183683 0.166689 0.149129 0.131004 0.11324 0.0967624 0.081572 0.0676687 0.0550523 0.0437229 0.0336805 0.0249251 0.017379 0.0109643 0.00568126 0.0015297 -0.00149033 -0.00337884 -0.00413581 -0.00376126 -0.00287972 -0.00211571 -0.00146924 -0.000940315 -0.000528927 -0.000235079 -5.87697e-05 0 0 -8.08731e-05 -0.000323492 -0.000727858 -0.00129397 -0.00202183 -0.00291143 -0.00396278 -0.00517588 -0.00636652 -0.00735051 -0.00812785 -0.00869854 -0.00906258 -0.00921997 -0.0091707 -0.00891478 -0.0083842 -0.00751094 -0.00629499 -0.00473637 -0.00283506 -0.000591077 0.00199559 0.00492494 0.007997 0.0110118 0.0139693 0.0168696 0.0197127 0.0224984 0.0252269 0.0278982 0.0303853 0.0325616 0.0344269 0.0359813 0.0372247 0.0381573 0.0387789 0.0390896 0.0389547 0.0382399 0.0369449 0.0350699 0.0326148 0.0295796 0.0259644 0.021769 0.0173334 0.0129973 0.00876068 0.00462353 0.000585871 -0.0033523 -0.00719099 -0.0109302 -0.013746 -0.0148146 -0.014136 -0.0117102 -0.00