<?xml version="1.0"?> 
<VTKFile type="StructuredGrid" version="0.1"> 
<StructuredGrid WholeExtent="0 128 0 128 0 0"> 
<Piece Extent="0 128 0 128 0 0"> 
<PointData>
<DataArray type="Float32" Name="u" format="ascii" NumberOfComponents="1"> 
0 0 0 0 0 0 0 0 0 0 0 0 0 0 0 0 0 0 0 0 0 0 0 0 0 0 0 0 0 0 0 0 0 0 0 0 0 0 0 0 0 0 0 0 0 0 0 0 0 0 0 0 0 0 0 0 0 0 0 0 0 0 0 0 0 0 0 0 0 0 0 0 0 0 0 0 0 0 0 0 0 0 0 0 0 0 0 0 0 0 0 0 0 0 0 0 0 0 0 0 0 0 0 0 0 0 0 0 0 0 0 0 0 0 0 0 0 0 0 0 0 0 0 0 0 0 0 0 0 0 -7.55975e-08 -3.0239e-07 -6.80378e-07 -1.20956e-06 -1.88994e-06 -2.72151e-06 -3.70428e-06 -4.83824e-06 -5.84947e-06 -6.46406e-06 -6.68198e-06 -6.50326e-06 -5.92788e-06 -4.95585e-06 -3.58716e-06 -1.82183e-06 3.82448e-07 3.06794e-06 6.23465e-06 9.88258e-06 1.40117e-05 1.86221e-05 2.37137e-05 2.92865e-05 3.49488e-05 4.0309e-05 4.53671e-05 5.01229e-05 5.45767e-05 5.87283e-05 6.25777e-05 6.6125e-05 6.90775e-05 7.11426e-05 7.23202e-05 7.26104e-05 7.20131e-05 7.05284e-05 6.81563e-05 6.48968e-05 6.09545e-05 5.65342e-05 5.16359e-05 4.62596e-05 4.04052e-05 3.40729e-05 2.72625e-05 1.99742e-05 1.28347e-05 6.47107e-06 8.83246e-07 -3.92876e-06 -7.96495e-06 -1.12253e-05 -1.37099e-05 -1.54186e-05 -1.58116e-05 -1.43492e-05 -1.10313e-05 -5.85779e-06 1.17117e-06 1.00556e-05 2.07956e-05 3.33911e-05 4.77193e-05 6.36574e-05 8.12053e-05 0.000100363 0.000121131 0.000143509 0.000167496 0.000193093 0.000219342 0.000245282 0.000270914 0.000296238 0.000321253 0.000345961 0.00037036 0.000394451 0.000417126 0.000437275 0.000454899 0.000469998 0.000482571 0.00049262 0.000500143 0.00050514 0.000507448 0.000506901 0.000503499 0.000497243 0.000488132 0.000476166 0.000461346 0.00044367 0.00042409 0.000403556 0.000382067 0.000359623 0.000336225 0.000311873 0.000286565 0.000260303 0.000234198 0.000209362 0.000185794 0.000163494 0.000142463 0.0001227 0.000104205 8.69789e-05 7.12629e-05 5.72989e-05 4.50868e-05 3.46267e-05 2.59185e-05 1.89622e-05 1.37579e-05 1.03056e-05 7.8902e-06 5.79688e-06 4.02561e-06 2.57639e-06 1.44922e-06 6.44098e-07 1.61025e-07 0 0 -3.0239e-07 -1.20956e-06 -2.72151e-06 -4.83824e-06 -7.55975e-06 -1.0886e-05 -1.48171e-05 -1.9353e-05 -2.33979e-05 -2.58562e-05 -2.67279e-05 -2.6013e-05 -2.37115e-05 -1.98234e-05 -1.43487e-05 -7.2873e-06 1.52979e-06 1.22718e-05 2.49386e-05 3.95303e-05 5.60469e-05 7.44884e-05 9.48547e-05 0.000117146 0.000139795 0.000161236 0.000181468 0.000200492 0.000218307 0.000234913 0.000250311 0.0002645 0.00027631 0.00028457 0.000289281 0.000290442 0.000288053 0.000282114 0.000272625 0.000259587 0.000243818 0.000226137 0.000206544 0.000185038 0.000161621 0.000136292 0.00010905 7.98967e-05 5.13389e-05 2.58843e-05 3.53298e-06 -1.5715e-05 -3.18598e-05 -4.49012e-05 -5.48394e-05 -6.16743e-05 -6.32466e-05 -5.73968e-05 -4.4125e-05 -2.34312e-05 4.68468e-06 4.02226e-05 8.31825e-05 0.000133564 0.000190877 0.000254629 0.000324821 0.000401453 0.000484524 0.000574034 0.000669984 0.000772374 0.000877367 0.000981127 0.00108366 0.00118495 0.00128501 0.00138384 0.00148144 0.00157781 0.0016685 0.0017491 0.0018196 0.00187999 0.00193029 0.00197048 0.00200057 0.00202056 0.00202979 0.0020276 0.002014 0.00198897 0.00195253 0.00190466 0.00184538 0.00177468 0.00169636 0.00161422 0.00152827 0.00143849 0.0013449 0.00124749 0.00114626 0.00104121 0.000936794 0.000837447 0.000743175 0.000653976 0.00056985 0.000490798 0.00041682 0.000347916 0.000285052 0.000229196 0.000180347 0.000138507 0.000103674 7.5849e-05 5.50317e-05 4.12223e-05 3.15608e-05 2.31875e-05 1.61025e-05 1.03056e-05 5.79688e-06 2.57639e-06 6.44098e-07 0 0 -6.80378e-07 -2.72151e-06 -6.1234e-06 -1.0886e-05 -1.70094e-05 -2.44936e-05 -3.33385e-05 -4.35442e-05 -5.26453e-05 -5.81765e-05 -6.01378e-05 -5.85293e-05 -5.33509e-05 -4.46026e-05 -3.22845e-05 -1.63964e-05 3.44203e-06 2.76115e-05 5.61119e-05 8.89432e-05 0.000126106 0.000167599 0.000213423 0.000263578 0.000314539 0.000362781 0.000408303 0.000451106 0.00049119 0.000528554 0.000563199 0.000595125 0.000621698 0.000640283 0.000650882 0.000653493 0.000648118 0.000634756 0.000613407 0.000584071 0.00054859 0.000508808 0.000464723 0.000416336 0.000363647 0.000306656 0.000245363 0.000179768 0.000115512 5.82396e-05 7.94921e-06 -3.53588e-05 -7.16845e-05 -0.000101028 -0.000123389 -0.000138767 -0.000142305 -0.000129143 -9.92813e-05 -5.27201e-05 1.05405e-05 9.05008e-05 0.000187161 0.00030052 0.000429474 0.000572916 0.000730848 0.000903269 0.00109018 0.00129158 0.00150746 0.00173784 0.00197408 0.00220754 0.00243822 0.00266614 0.00289128 0.00311365 0.00333324 0.00355006 0.00375413 0.00393548 0.00409409 0.00422998 0.00434314 0.00443358 0.00450128 0.00454626 0.00456703 0.00456211 0.00453149 0.00447519 0.00439319 0.00428549 0.00415211 0.00399303 0.00381681 0.003632 0.0034386 0.00323661 0.00302603 0.00280685 0.00257909 0.00234273 0.00210779 0.00188426 0.00167214 0.00147145 0.00128216 0.0011043 0.000937846 0.00078281 0.000641366 0.00051569 0.000405781 0.00031164 0.000233266 0.00017066 0.000123821 9.27501e-05 7.10118e-05 5.21719e-05 3.62305e-05 2.31875e-05 1.3043e-05 5.79688e-06 1.44922e-06 0 0 -1.20956e-06 -4.83824e-06 -1.0886e-05 -1.9353e-05 -3.0239e-05 -4.35442e-05 -5.92685e-05 -7.74119e-05 -9.35916e-05 -0.000103425 -0.000106912 -0.000104052 -9.48461e-05 -7.92936e-05 -5.73946e-05 -2.91492e-05 6.11916e-06 4.9087e-05 9.97544e-05 0.000158121 0.000224188 0.000297954 0.000379419 0.000468584 0.000559181 0.000644944 0.000725873 0.000801967 0.000873227 0.000939652 0.00100124 0.001058 0.00110524 0.00113828 0.00115712 0.00116177 0.00115221 0.00112846 0.0010905 0.00103835 0.000975272 0.000904547 0.000826174 0.000740153 0.000646484 0.000545166 0.000436201 0.000319587 0.000205355 0.000103537 1.41319e-05 -6.28602e-05 -0.000127439 -0.000179605 -0.000219358 -0.000246697 -0.000252986 -0.000229587 -0.0001765 -9.37247e-05 1.87387e-05 0.00016089 0.00033273 0.000534258 0.000763509 0.00101852 0.00129929 0.00160581 0.00193809 0.00229614 0.00267994 0.0030895 0.00350947 0.00392451 0.00433462 0.0047398 0.00514005 0.00553537 0.00592576 0.00631122 0.00667401 0.0069964 0.00727839 0.00751997 0.00772114 0.00788191 0.00800228 0.00808224 0.00811917 0.00811042 0.00805599 0.00795589 0.00781011 0.00761866 0.00738153 0.00709873 0.00678545 0.0064569 0.00611307 0.00575398 0.0053796 0.00498996 0.00458504 0.00416485 0.00374717 0.00334979 0.0029727 0.0026159 0.0022794 0.00196319 0.00166728 0.00139166 0.00114021 0.000916783 0.000721389 0.000554027 0.000414696 0.000303396 0.000220127 0.000164889 0.000126243 9.27501e-05 6.44098e-05 4.12223e-05 2.31875e-05 1.03056e-05 2.57639e-06 0 0 -1.88994e-06 -7.55975e-06 -1.70094e-05 -3.0239e-05 -4.72484e-05 -6.80378e-05 -9.2607e-05 -0.000120956 -0.000146237 -0.000161601 -0.00016705 -0.000162581 -0.000148197 -0.000123896 -8.96791e-05 -4.55456e-05 9.56119e-06 7.66985e-05 0.000155866 0.000247065 0.000350293 0.000465552 0.000592842 0.000732162 0.000873721 0.00100773 0.00113418 0.00125307 0.00136442 0.00146821 0.00156444 0.00165313 0.00172694 0.00177856 0.001808 0.00181526 0.00180033 0.00176321 0.00170391 0.00162242 0.00152386 0.00141336 0.0012909 0.00115649 0.00101013 0.000851823 0.000681564 0.000499355 0.000320868 0.000161777 2.20811e-05 -9.8219e-05 -0.000199124 -0.000280633 -0.000342746 -0.000385465 -0.000395291 -0.00035873 -0.000275781 -0.000146445 2.92793e-05 0.000251391 0.000519891 0.000834778 0.00119298 0.00159143 0.00203013 0.00250908 0.00302827 0.00358771 0.0041874 0.00482734 0.00548354 0.00613205 0.00677285 0.00740594 0.00803133 0.00864902 0.009259 0.00986129 0.0104281 0.0109319 0.0113725 0.0117499 0.0120643 0.0123155 0.0125036 0.0126285 0.0126862 0.0126725 0.0125875 0.0124311 0.0122033 0.0119042 0.0115336 0.0110918 0.0106023 0.0100889 0.00955168 0.00899059 0.00840563 0.00779681 0.00716413 0.00650758 0.00585496 0.00523405 0.00464484 0.00408735 0.00356156 0.00306749 0.00260513 0.00217447 0.00178157 0.00143247 0.00112717 0.000865667 0.000647962 0.000474056 0.000343948 0.000257639 0.000197255 0.000144922 0.00010064 6.44098e-05 3.62305e-05 1.61025e-05 4.02561e-06 0 0 -2.72151e-06 -1.0886e-05 -2.44936e-05 -4.35442e-05 -6.80378e-05 -9.79744e-05 -0.000133354 -0.000174177 -0.000210581 -0.000232706 -0.000240551 -0.000234117 -0.000213404 -0.000178411 -0.000129138 -6.55857e-05 1.37681e-05 0.000110446 0.000224447 0.000355773 0.000504422 0.000670395 0.000853693 0.00105431 0.00125816 0.00145112 0.00163321 0.00180443 0.00196476 0.00211422 0.0022528 0.0023805 0.00248679 0.00256113 0.00260353 0.00261397 0.00259247 0.00253902 0.00245363 0.00233628 0.00219436 0.00203523 0.00185889 0.00166534 0.00145459 0.00122662 0.000981452 0.000719071 0.00046205 0.000232959 3.17968e-05 -0.000141435 -0.000286738 -0.000404111 -0.000493555 -0.000555069 -0.000569219 -0.000516571 -0.000397125 -0.000210881 4.21622e-05 0.000362003 0.000748642 0.00120208 0.00171789 0.00229167 0.00292339 0.00361307 0.00436071 0.00516631 0.00602986 0.00695136 0.0078963 0.00883015 0.0097529 0.0106646 0.0115651 0.0124546 0.013333 0.0142003 0.0150165 0.0157419 0.0163764 0.0169199 0.0173726 0.0177343 0.0180051 0.018185 0.0182681 0.0182484 0.018126 0.0179007 0.0175727 0.017142 0.0166084 0.0159721 0.0152673 0.014528 0.0137544 0.0129464 0.0121041 0.0112274 0.0103163 0.00937092 0.00843114 0.00753703 0.00668857 0.00588578 0.00512865 0.00441719 0.00375138 0.00313124 0.00256547 0.00206276 0.00162313 0.00124656 0.000933066 0.000682641 0.000495286 0.000371001 0.000284047 0.000208688 0.000144922 9.27501e-05 5.21719e-05 2.31875e-05 5.79688e-06 0 0 -3.70428e-06 -1.48171e-05 -3.33385e-05 -5.92685e-05 -9.2607e-05 -0.000133354 -0.00018151 -0.000237074 -0.000286624 -0.000316739 -0.000327417 -0.00031866 -0.000290466 -0.000242837 -0.000175771 -8.92695e-05 1.87399e-05 0.000150329 0.000305498 0.000484246 0.000686575 0.000912483 0.00116197 0.00143504 0.00171249 0.00197514 0.00222299 0.00245602 0.00267426 0.00287769 0.00306631 0.00324013 0.0033848 0.00348599 0.00354369 0.00355791 0.00352864 0.00345589 0.00333966 0.00317994 0.00298677 0.00277018 0.00253016 0.00226672 0.00197986 0.00166957 0.00133586 0.000978735 0.000628901 0.000317082 4.3279e-05 -0.000192509 -0.000390282 -0.00055004 -0.000671783 -0.000755511 -0.000774771 -0.000703111 -0.000540531 -0.000287032 5.73874e-05 0.000492727 0.00101899 0.00163616 0.00233825 0.00311921 0.00397906 0.0049178 0.00593541 0.00703192 0.00820731 0.00946158 0.0107477 0.0120188 0.0132748 0.0145156 0.0157414 0.0169521 0.0181476 0.0193281 0.0204392 0.0214265 0.0222901 0.0230299 0.023646 0.0241384 0.024507 0.0247519 0.024865 0.0248382 0.0246715 0.0243649 0.0239185 0.0233321 0.0226059 0.0217398 0.0207804 0.0197742 0.0187213 0.0176215 0.016475 0.0152818 0.0140417 0.0127549 0.0114757 0.0102587 0.00910389 0.0080112 0.00698067 0.00601228 0.00510605 0.00426197 0.00349188 0.00280765 0.00220925 0.00169671 0.00127001 0.00092915 0.000674139 0.000504973 0.00038662 0.000284047 0.000197255 0.000126243 7.10118e-05 3.15608e-05 7.8902e-06 0 0 -4.83824e-06 -1.9353e-05 -4.35442e-05 -7.74119e-05 -0.000120956 -0.000174177 -0.000237074 -0.000309647 -0.000374366 -0.0004137 -0.000427647 -0.000416208 -0.000379384 -0.000317174 -0.000229578 -0.000116597 2.44766e-05 0.000196348 0.000399018 0.000632485 0.000896751 0.00119181 0.00151768 0.00187434 0.00223672 0.00257978 0.00290349 0.00320787 0.00349291 0.00375861 0.00400497 0.004232 0.00442096 0.00455312 0.00462849 0.00464706 0.00460884 0.00451382 0.00436201 0.00415339 0.00390109 0.00361819 0.0033047 0.00296061 0.00258594 0.00218067 0.0017448 0.00127835 0.000821422 0.000414149 5.65277e-05 -0.000251441 -0.000509757 -0.00071842 -0.000877431 -0.000986789 -0.00101195 -0.000918349 -0.000706 -0.000374899 7.49549e-05 0.000643561 0.00133092 0.00213703 0.00305403 0.00407407 0.00519714 0.00642324 0.00775238 0.00918455 0.0107197 0.012358 0.0140379 0.015698 0.0173385 0.0189592 0.0205602 0.0221415 0.0237031 0.0252449 0.0266961 0.0279856 0.0291135 0.0300799 0.0308846 0.0315277 0.0320091 0.032329 0.0324767 0.0324417 0.032224 0.0318235 0.0312404 0.0304746 0.0295261 0.0283949 0.0271418 0.0258276 0.0244523 0.0230159 0.0215184 0.0199598 0.0183402 0.0166594 0.0149887 0.0133992 0.0118908 0.0104636 0.0091176 0.00785278 0.00666912 0.00556665 0.00456083 0.00366713 0.00288556 0.00221611 0.00165878 0.00121358 0.000880508 0.000659556 0.000504973 0.000371001 0.000257639 0.000164889 9.27501e-05 4.12223e-05 1.03056e-05 0 0 -5.71343e-06 -2.28537e-05 -5.14209e-05 -9.14149e-05 -0.000142836 -0.000205683 -0.000279958 -0.000365659 -0.000440479 -0.000482109 -0.000490548 -0.000465797 -0.000407856 -0.000316724 -0.000192403 -3.48907e-05 0.000158815 0.000391717 0.000663816 0.000975112 0.0013256 0.00171529 0.00214418 0.00261226 0.00308738 0.00353737 0.00396223 0.00436196 0.00473656 0.00508604 0.00541038 0.0057096 0.0059597 0.00613668 0.00624055 0.0062713 0.00622893 0.00611345 0.00592486 0.00566315 0.00534512 0.00498757 0.0045905 0.00415391 0.0036778 0.00316218 0.00260703 0.00201236 0.0014295 0.000909777 0.000453197 5.97559e-05 -0.000270545 -0.000537706 -0.000741728 -0.00088261 -0.000916254 -0.000798562 -0.000529535 -0.000109171 0.000462528 0.00118556 0.00205993 0.00308564 0.00425262 0.00555083 0.00698025 0.00854088 0.0102327 0.0120558 0.0140101 0.0160956 0.0182341 0.0203474 0.0224355 0.0244983 0.026536 0.0285484 0.0305356 0.0324975 0.0343439 0.0359844 0.0374189 0.0386475 0.0396702 0.040487 0.0410978 0.0415027 0.0416882 0.0416407 0.0413602 0.0408467 0.0401003 0.0391209 0.0379085 0.0364632 0.0348621 0.0331827 0.0314249 0.0295887 0.0276741 0.0256811 0.0236097 0.0214599 0.0193223 0.0172875 0.0153554 0.013526 0.0117994 0.0101756 0.00865447 0.00723612 0.00594076 0.00478864 0.00377977 0.00291414 0.00219176 0.00161263 0.00117674 0.000884091 0.000676882 0.000497301 0.000345348 0.000221023 0.000124325 5.52557e-05 1.38139e-05 0 0 -5.91987e-06 -2.36795e-05 -5.32789e-05 -9.4718e-05 -0.000147997 -0.000213115 -0.000290074 -0.000378872 -0.000451635 -0.000480487 -0.000465428 -0.000406458 -0.000303578 -0.000156787 3.39141e-05 0.000268526 0.000549591 0.000879649 0.0012587 0.00168675 0.00216379 0.00268982 0.00326485 0.00388888 0.00452098 0.00512025 0.00568669 0.0062203 0.00672107 0.00718902 0.00762413 0.00802641 0.00836543 0.00861078 0.00876246 0.00882046 0.00878479 0.00865543 0.00843241 0.00811571 0.00772667 0.00728662 0.00679557 0.00625351 0.00566044 0.00501637 0.00432129 0.00357521 0.00284301 0.00218959 0.00161494 0.00111907 0.000701968 0.000363645 0.000104097 -7.66762e-05 -0.000123207 1.99728e-05 0.000352862 0.000875461 0.00158777 0.00248979 0.00358152 0.00486295 0.00632138 0.00794406 0.00973099 0.0116822 0.0137976 0.0160773 0.0185213 0.0211295 0.023804 0.0264465 0.0290572 0.0316361 0.0341831 0.0366982 0.0391815 0.041633 0.0439395 0.0459879 0.0477783 0.0493106 0.0505849 0.0516011 0.0523593 0.0528595 0.0530844 0.0530168 0.0526569 0.0520045 0.0510596 0.0498224 0.0482927 0.0464705 0.0444523 0.0423343 0.0401166 0.0377992 0.035382 0.032865 0.0302483 0.0275318 0.024829 0.0222529 0.0198038 0.0174815 0.0152861 0.0132176 0.011276 0.00946119 0.00780012 0.0063196 0.00501962 0.00390019 0.00296131 0.00220297 0.00162517 0.00122792 0.000940124 0.000690703 0.000479655 0.000306979 0.000172676 7.67448e-05 1.91862e-05 0 0 -5.45757e-06 -2.18303e-05 -4.91182e-05 -8.73212e-05 -0.000136439 -0.000196473 -0.000267421 -0.000349285 -0.000407832 -0.000408833 -0.000352286 -0.000238192 -6.65515e-05 0.000162637 0.000449372 0.000793654 0.0011968 0.00166015 0.00218368 0.0027674 0.00341131 0.00411541 0.0048797 0.00570417 0.00653752 0.00732843 0.00807688 0.00878288 0.00944644 0.0100675 0.0106462 0.0111824 0.0116382 0.0119754 0.0121942 0.0122946 0.0122764 0.0121398 0.0118847 0.0115111 0.0110457 0.0105153 0.00991989 0.00925939 0.00853385 0.00774325 0.0068876 0.00596691 0.00506196 0.00425358 0.00354176 0.00292649 0.00240778 0.00198563 0.00166004 0.00143101 0.0013672 0.00153726 0.00194119 0.002579 0.00345068 0.00455624 0.00589567 0.00746897 0.00926029 0.0112538 0.0134494 0.0158471 0.0184471 0.0212491 0.0242534 0.0274597 0.0307474 0.0339954 0.0372038 0.0403725 0.0435016 0.0465911 0.049641 0.0526512 0.0554827 0.0579961 0.0601916 0.0620691 0.0636286 0.0648701 0.0657937 0.0663992 0.0666653 0.0665702 0.0661141 0.0652968 0.0641185 0.0625791 0.0606786 0.058417 0.0559123 0.0532825 0.0505274 0.0476473 0.044642 0.0415115 0.0382559 0.0348751 0.0315085 0.0282955 0.025236 0.0223301 0.0195777 0.0169789 0.0145336 0.0122419 0.0101389 0.00826002 0.00660513 0.00517426 0.00396742 0.0029846 0.0022258 0.00169103 0.0012947 0.000951206 0.00066056 0.000422758 0.000237802 0.00010569 2.64224e-05 0 0 -4.32653e-06 -1.73061e-05 -3.89388e-05 -6.92245e-05 -0.000108163 -0.000155755 -0.000212 -0.000276898 -0.000309073 -0.000267148 -0.000151123 3.90006e-05 0.000303224 0.000641547 0.00105397 0.00154049 0.00210046 0.00273321 0.00343874 0.00421705 0.00506815 0.00599204 0.00698871 0.00805816 0.00913702 0.0101619 0.0111328 0.0120497 0.0129127 0.0137216 0.0144766 0.0151776 0.0157779 0.0162306 0.0165359 0.0166936 0.0167038 0.0165665 0.0162816 0.0158493 0.0153023 0.0146737 0.0139635 0.0131716 0.012298 0.0113428 0.010306 0.00918745 0.00808636 0.00710176 0.00623365 0.00548203 0.0048469 0.00432826 0.00392611 0.00364045 0.00355496 0.00375329 0.00423545 0.00500144 0.00605126 0.00738491 0.00900239 0.0109037 0.0130694 0.0154799 0.0181354 0.0210358 0.024181 0.0275712 0.0312063 0.0350862 0.0390644 0.042994 0.046875 0.0507076 0.0544916 0.058227 0.061914 0.0655523 0.0689736 0.0720091 0.0746589 0.076923 0.0788013 0.080294 0.0814008 0.082122 0.0824308 0.0823007 0.0817317 0.0807237 0.0792768 0.077391 0.0750663 0.0723026 0.0692421 0.066027 0.0626574 0.059133 0.0554541 0.0516206 0.0476325 0.0434897 0.039361 0.0354151 0.031652 0.0280717 0.0246741 0.0214594 0.0184274 0.0155782 0.0129572 0.0106099 0.00853627 0.00673634 0.00521009 0.00395753 0.00297864 0.00227344 0.0017406 0.00127881 0.000888063 0.00056836 0.000319703 0.00014209 3.55225e-05 0 0 -2.52675e-06 -1.0107e-05 -2.27407e-05 -4.04279e-05 -6.31686e-05 -9.09628e-05 -0.000123811 -0.000161712 -0.000155356 -5.54315e-05 0.000138061 0.000425121 0.000805749 0.00127995 0.00184771 0.00250904 0.00326055 0.00409883 0.00502389 0.00603572 0.00713433 0.00831972 0.00959189 0.0109508 0.0123195 0.0136207 0.0148544 0.0160208 0.0171197 0.0181513 0.0191154 0.020012 0.0207846 0.0213764 0.0217874 0.0220175 0.0220669 0.0219355 0.0216233 0.0211302 0.0204964 0.0197618 0.0189263 0.0179901 0.016953 0.0158151 0.0145764 0.0132368 0.0119162 0.0107341 0.00969061 0.00878568 0.00801931 0.00739152 0.0069023 0.00655165 0.00644007 0.00666807 0.00723564 0.00814278 0.00938951 0.0109758 0.0129017 0.0151671 0.0177486 0.0206226 0.0237891 0.0272481 0.0309995 0.0350435 0.03938 0.044009 0.0487549 0.0534423 0.0580711 0.0626413 0.0671529 0.0716059 0.0760004 0.0803363 0.0844122 0.0880268 0.0911802 0.0938723 0.0961031 0.0978726 0.0991808 0.100028 0.100381 0.100208 0.0995098 0.0982852 0.0965347 0.0942582 0.0914557 0.0881272 0.0844417 0.0805681 0.0765064 0.0722565 0.0678185 0.0631923 0.0583781 0.0533757 0.0483865 0.0436119 0.0390518 0.0347063 0.0305754 0.0266591 0.0229573 0.01947 0.0162549 0.0133692 0.0108131 0.00858644 0.00668933 0.00512175 0.00388368 0.00297514 0.00227784 0.00167352 0.00116216 0.000743785 0.000418379 0.000185946 4.64866e-05 0 0 -5.82155e-08 -2.32862e-07 -5.23939e-07 -9.31447e-07 -1.45539e-06 -2.09576e-06 -2.85256e-06 -3.72579e-06 5.3319e-05 0.000226316 0.000515266 0.000920168 0.00144102 0.00207783 0.00283059 0.0036993 0.00467707 0.00575702 0.00693912 0.0082234 0.00960985 0.0110985 0.0126892 0.0143822 0.0160848 0.0177047 0.0192418 0.0206961 0.0220677 0.0233564 0.0245624 0.0256857 0.0266583 0.0274127 0.0279487 0.0282664 0.0283658 0.0282469 0.0279096 0.027354 0.026628 0.0257795 0.0248084 0.0237148 0.0224987 0.02116 0.0196988 0.0181151 0.0165515 0.0151507 0.0139126 0.0128374 0.011925 0.0111754 0.0105886 0.0101646 0.0100225 0.0102816 0.0109418 0.012003 0.0134654 0.0153289 0.0175935 0.0202592 0.023298 0.0266817 0.0304104 0.034484 0.0389026 0.0436661 0.0487746 0.054228 0.0598191 0.0653403 0.0707919 0.0761736 0.0814856 0.0867278 0.0919003 0.097003 0.101798 0.106049 0.109755 0.112917 0.115534 0.117606 0.119134 0.120117 0.120516 0.120293 0.119448 0.117981 0.115892 0.113181 0.109847 0.105891 0.101511 0.0969057 0.0920745 0.0870176 0.081735 0.0762267 0.0704927 0.064533 0.0585849 0.0528857 0.0474354 0.0422341 0.0372816 0.032578 0.0281233 0.0239176 0.020032 0.016538 0.0134355 0.0107245 0.00840514 0.00647727 0.00494093 0.00379613 0.00290641 0.00213532 0.00148286 0.000949032 0.000533831 0.000237258 5.93145e-05 0 0 3.07906e-06 1.23162e-05 2.77115e-05 4.92649e-05 7.69765e-05 0.000110846 0.000150874 0.00019706 0.000316951 0.000578095 0.000980493 0.00152414 0.00220905 0.0030352 0.00400261 0.00511127 0.00635004 0.00770777 0.00918445 0.0107801 0.0124947 0.0143282 0.0162808 0.0183522 0.0204332 0.0224141 0.0242949 0.0260757 0.0277565 0.0293372 0.0308179 0.0321985 0.0333991 0.0343395 0.0350199 0.0354403 0.0356005 0.0355006 0.0351407 0.0345207 0.0336972 0.0327269 0.0316098 0.0303459 0.0289352 0.0273776 0.0256733 0.0238221 0.0219922 0.0203514 0.0188998 0.0176373 0.0165641 0.01568 0.014985 0.0144793 0.0143024 0.0145939 0.0153538 0.0165822 0.018279 0.0204443 0.023078 0.0261801 0.0297176 0.0336573 0.0379993 0.0427436 0.0478901 0.053439 0.05939 0.0657434 0.0722568 0.0786881 0.0850374 0.0913046 0.0974897 0.103593 0.109614 0.115553 0.121132 0.126077 0.130385 0.134057 0.137094 0.139494 0.141259 0.142388 0.142836 0.142555 0.141547 0.139812 0.137349 0.134158 0.13024 0.125594 0.12045 0.11504 0.109362 0.103416 0.0972036 0.0907236 0.0839763 0.0769617 0.0699563 0.0632367 0.0568029 0.0506548 0.0447926 0.0392162 0.0339255 0.0289207 0.0242886 0.0201162 0.0164036 0.0131507 0.0103575 0.00802408 0.00615038 0.00473641 0.00362631 0.00266423 0.00185016 0.0011841 0.000666058 0.000296026 7.40064e-05 0 0 6.88508e-06 2.75403e-05 6.19657e-05 0.000110161 0.000172127 0.000247863 0.000337369 0.000440645 0.000635541 0.000999906 0.00153374 0.00223704 0.00310982 0.00415206 0.00536377 0.00674495 0.00827944 0.00995108 0.0117599 0.0137058 0.0157889 0.0180091 0.0203665 0.022861 0.0253644 0.0277487 0.0300137 0.0321595 0.0341861 0.0360935 0.0378816 0.0395505 0.0410068 0.0421569 0.043001 0.043539 0.0437709 0.0436967 0.0433164 0.0426301 0.0417038 0.0406039 0.0393304 0.0378832 0.0362624 0.0344679 0.0324998 0.0303581 0.0282383 0.0263363 0.0246519 0.0231853 0.0219364 0.0209051 0.0200916 0.0194958 0.0192795 0.0196049 0.0204718 0.0218802 0.0238303 0.0263218 0.0293549 0.0329296 0.0370073 0.0415494 0.0465559 0.0520269 0.0579622 0.0643621 0.0712263 0.078555 0.0860681 0.0934857 0.100808 0.108034 0.115165 0.122201 0.129141 0.135985 0.142414 0.148108 0.153068 0.157293 0.160783 0.163538 0.165558 0.166843 0.16734 0.166995 0.165807 0.163777 0.160905 0.157191 0.152634 0.147236 0.14126 0.13497 0.128368 0.121453 0.114224 0.106683 0.0988289 0.0906617 0.0825006 0.0746647 0.0671541 0.0599687 0.0531085 0.0465735 0.0403638 0.0344794 0.0290246 0.0241039 0.0197173 0.0158648 0.0125464 0.00976219 0.00751203 0.00579598 0.00443755 0.00326024 0.00226406 0.001449 0.00081506 0.000362249 9.05622e-05 0 0 1.18573e-05 4.7429e-05 0.000106715 0.000189716 0.000296431 0.000426861 0.000581006 0.000758864 0.00104935 0.00154139 0.00223497 0.00313011 0.00422678 0.00552501 0.00702478 0.0087261 0.0106066 0.0126438 0.0148377 0.0171884 0.0196958 0.0223599 0.0251808 0.0281585 0.0311441 0.0339888 0.0366927 0.0392558 0.0416781 0.0439595 0.0461 0.0480998 0.0498506 0.0512442 0.0522807 0.05296 0.0532822 0.0532473 0.0528552 0.052106 0.0510762 0.0498425 0.0484048 0.0467631 0.0449175 0.0428679 0.0406143 0.0381567 0.0357208 0.0335321 0.0315907 0.0298965 0.0284496 0.0272499 0.0262974 0.0255922 0.0253202 0.0256672 0.0266332 0.0282183 0.0304225 0.0332456 0.0366879 0.0407492 0.0453851 0.0505511 0.0562474 0.0624738 0.0692304 0.0765173 0.0843342 0.0926814 0.101239 0.109686 0.118024 0.126253 0.134371 0.14238 0.150279 0.158068 0.165384 0.17186 0.177498 0.182297 0.186258 0.18938 0.191663 0.193108 0.193652 0.193233 0.191851 0.189507 0.186199 0.181928 0.176694 0.170498 0.163638 0.156417 0.148833 0.140886 0.132577 0.123905 0.114871 0.105475 0.0960799 0.0870508 0.0783874 0.0700897 0.0621576 0.0545913 0.0473907 0.0405557 0.0342105 0.0284787 0.0233606 0.0188561 0.0149651 0.0116877 0.00902393 0.00697371 0.00533925 0.00392271 0.0027241 0.00174343 0.000980678 0.000435857 0.000108964 0 0 1.8493e-05 7.39721e-05 0.000166437 0.000295888 0.000462325 0.000665749 0.000906158 0.00118355 0.00159866 0.00225219 0.00314416 0.00427456 0.00564339 0.00725065 0.00909634 0.0111805 0.0134727 0.0159426 0.0185903 0.0214157 0.0244189 0.0275998 0.0309585 0.0344949 0.0380374 0.0414146 0.0446264 0.0476728 0.0505537 0.0532693 0.0558195 0.0582044 0.0602995 0.0619805 0.0632475 0.0641005 0.0645395 0.0645644 0.0641753 0.0633722 0.0622426 0.0608744 0.0592674 0.0574218 0.0553374 0.0530143 0.0504525 0.047652 0.0448704 0.0423656 0.0401374 0.038186 0.0365112 0.0351131 0.0339917 0.033147 0.0327904 0.0331333 0.0341756 0.0359175 0.0383589 0.0414998 0.0453401 0.04988 0.0550687 0.0608557 0.067241 0.0742245 0.0818063 0.0899863 0.0987646 0.108141 0.117755 0.127244 0.136609 0.14585 0.154967 0.163959 0.172827 0.181571 0.189781 0.197046 0.203368 0.208745 0.213178 0.216666 0.219211 0.220811 0.221396 0.220894 0.219305 0.21663 0.212867 0.208019 0.202083 0.195061 0.187287 0.179099 0.170494 0.161475 0.15204 0.14219 0.131924 0.121242 0.110556 0.100276 0.0904011 0.0809319 0.0718684 0.0632106 0.0549584 0.0471118 0.0398166 0.0332185 0.0273175 0.0221135 0.0176066 0.0137968 0.0106841 0.00826846 0.00633054 0.00465101 0.00322987 0.00206711 0.00116275 0.000516779 0.000129195 0 0 2.67924e-05 0.000107169 0.000241131 0.000428678 0.000669809 0.000964525 0.00131283 0.00171471 0.00228345 0.00313231 0.00426129 0.0056704 0.00735963 0.00932898 0.0115784 0.014108 0.0168778 0.0198477 0.0230177 0.0263879 0.0299582 0.0337287 0.0376993 0.0418701 0.0460445 0.050026 0.0538147 0.0574104 0.0608132 0.0640231 0.0670401 0.0698642 0.0723535 0.074366 0.0759017 0.0769606 0.0775428 0.0776481 0.0772767 0.0764285 0.075203 0.0736996 0.0719184 0.0698592 0.0675222 0.0649073 0.0620145 0.0588439 0.0556873 0.0528368 0.0502922 0.0480537 0.0461213 0.0444948 0.0431744 0.04216 0.0416901 0.0420031 0.043099 0.0449778 0.0476395 0.0510842 0.0553117 0.0603221 0.0660583 0.0724632 0.0795367 0.0872789 0.0956898 0.104769 0.114518 0.124934 0.135616 0.146159 0.156562 0.166826 0.176952 0.186938 0.196785 0.206493 0.215606 0.223667 0.230677 0.236635 0.241541 0.245396 0.248199 0.249951 0.25057 0.249976 0.248168 0.245146 0.240911 0.235463 0.228801 0.220925 0.212206 0.203016 0.193354 0.18322 0.172614 0.161536 0.149986 0.137965 0.12593 0.11434 0.103195 0.0924955 0.0822409 0.0724314 0.063067 0.0541476 0.0458431 0.0383232 0.0315879 0.0256372 0.0204711 0.0160895 0.0124926 0.00968022 0.00741142 0.00544513 0.00378134 0.00242006 0.00136128 0.000605014 0.000151254 0 0 3.67553e-05 0.000147021 0.000330798 0.000588085 0.000918882 0.00132319 0.00180101 0.00235234 0.00310373 0.00418175 0.00558638 0.00731763 0.0093755 0.01176 0.0144711 0.0175088 0.0208219 0.0243589 0.0281198 0.0321048 0.0363137 0.0407466 0.0454034 0.0502842 0.0551654 0.0598232 0.0642576 0.0684686 0.0724564 0.0762207 0.0797617 0.0830793 0.0860126 0.0884005 0.0902431 0.0915402 0.092292 0.0924984 0.0921595 0.0912751 0.0899574 0.0883182 0.0863575 0.0840754 0.0814718 0.0785468 0.0753003 0.0717324 0.0681713 0.0649456 0.0620551 0.0594998 0.0572798 0.0553951 0.0538456 0.0526314 0.0520194 0.0522768 0.0534034 0.0553993 0.0582644 0.0619988 0.0666025 0.0720755 0.0783538 0.0853735 0.0931346 0.101637 0.110881 0.120866 0.131593 0.143061 0.154823 0.16643 0.177883 0.189182 0.200326 0.211317 0.222153 0.232835 0.242859 0.251723 0.259426 0.265968 0.271349 0.27557 0.27863 0.280529 0.281176 0.28048 0.27844 0.275057 0.27033 0.26426 0.256847 0.24809 0.238395 0.228169 0.217411 0.206121 0.194299 0.181945 0.169059 0.155642 0.1422 0.129243 0.11677 0.10478 0.093275 0.0822537 0.0717164 0.0616631 0.0522899 0.0437928 0.0361719 0.029427 0.0235583 0.0185658 0.0144493 0.011209 0.0085819 0.00630507 0.00437852 0.00280225 0.00157627 0.000700563 0.000175141 0 0 4.83818e-05 0.000193527 0.000435436 0.000774109 0.00120954 0.00174174 0.00237071 0.00309643 0.0040595 0.0054005 0.00711941 0.00921625 0.011691 0.0145437 0.0177743 0.0213828 0.0253049 0.0294762 0.0338967 0.0385664 0.0434853 0.0486534 0.0540707 0.0597372 0.0654 0.0708059 0.0759551 0.0808476 0.0854833 0.0898622 0.0939844 0.0978498 0.101277 0.104084 0.106272 0.107839 0.108787 0.109115 0.108824 0.107912 0.106506 0.10473 0.102585 0.10007 0.0971864 0.0939329 0.0903099 0.0863175 0.0823226 0.078692 0.0754259 0.0725241 0.0699868 0.0678138 0.0660052 0.064561 0.0637783 0.0639542 0.0650887 0.0671818 0.0702335 0.0742438 0.0792127 0.0851402 0.0919553 0.0995867 0.108035 0.117299 0.12738 0.138277 0.149991 0.162521 0.175374 0.188058 0.200572 0.212916 0.225091 0.237095 0.24893 0.260596 0.27154 0.281213 0.289614 0.296744 0.302602 0.307188 0.310502 0.312545 0.313213 0.312405 0.310121 0.306361 0.301124 0.294411 0.286222 0.276556 0.265854 0.254557 0.242665 0.230177 0.217094 0.203416 0.189143 0.174274 0.159368 0.144985 0.131125 0.117786 0.104971 0.0926775 0.0809067 0.0696583 0.059157 0.0496274 0.0410694 0.0334831 0.0268685 0.0212256 0.0165544 0.0128548 0.00984197 0.00723084 0.00502141 0.00321371 0.00180771 0.000803426 0.000200857 0 0 6.16719e-05 0.000246687 0.000555047 0.00098675 0.0015418 0.00222019 0.00302192 0.003947 0.00515077 0.00678857 0.0088604 0.0113663 0.0143062 0.0176801 0.0214881 0.0257301 0.030327 0.0351998 0.0403484 0.0457729 0.0514732 0.0574493 0.0637013 0.0702291 0.0767483 0.0829744 0.0889074 0.0945472 0.0998939 0.104948 0.109708 0.114175 0.118146 0.121417 0.123988 0.125858 0.127028 0.127499 0.127269 0.126339 0.124848 0.122935 0.120601 0.117844 0.114666 0.111065 0.107043 0.102599 0.098141 0.0940762 0.0904048 0.0871268 0.0842422 0.081751 0.0796533 0.0779489 0.0769667 0.0770354 0.078155 0.0803255 0.0835468 0.0878191 0.0931422 0.0995162 0.106863 0.115103 0.124237 0.134265 0.145186 0.157002 0.169711 0.183314 0.197271 0.211043 0.224629 0.23803 0.251244 0.264274 0.277118 0.289776 0.301649 0.312138 0.321242 0.328962 0.335298 0.