<?xml version="1.0"?> 
<VTKFile type="StructuredGrid" version="0.1"> 
<StructuredGrid WholeExtent="0 128 0 128 0 0"> 
<Piece Extent="0 128 0 128 0 0"> 
<PointData>
<DataArray type="Float32" Name="u" format="ascii" NumberOfComponents="1"> 
0 0 0 0 0 0 0 0 0 0 0 0 0 0 0 0 0 0 0 0 0 0 0 0 0 0 0 0 0 0 0 0 0 0 0 0 0 0 0 0 0 0 0 0 0 0 0 0 0 0 0 0 0 0 0 0 0 0 0 0 0 0 0 0 0 0 0 0 0 0 0 0 0 0 0 0 0 0 0 0 0 0 0 0 0 0 0 0 0 0 0 0 0 0 0 0 0 0 0 0 0 0 0 0 0 0 0 0 0 0 0 0 0 0 0 0 0 0 0 0 0 0 0 0 0 0 0 0 0 0 -3.61125e-07 -1.4445e-06 -3.25013e-06 -5.778e-06 -9.02813e-06 -1.30005e-05 -1.76951e-05 -2.3112e-05 -2.91e-05 -3.5508e-05 -4.2336e-05 -4.9584e-05 -5.7252e-05 -6.534e-05 -7.3848e-05 -8.2776e-05 -9.16367e-05 -9.99428e-05 -0.000107694 -0.000114892 -0.000121534 -0.000127622 -0.000133155 -0.000138134 -0.000142601 -0.000146597 -0.000150122 -0.000153177 -0.000155762 -0.000157876 -0.00015952 -0.000160693 -0.000161676 -0.000162747 -0.000163908 -0.000165158 -0.000166497 -0.000167925 -0.000169443 -0.000171049 -0.000172823 -0.000174845 -0.000177114 -0.000179631 -0.000182394 -0.000185405 -0.000188663 -0.000192169 -0.000195409 -0.000197869 -0.00019955 -0.000200452 -0.000200575 -0.000199918 -0.000198482 -0.000196267 -0.000192524 -0.000186506 -0.000178211 -0.000167641 -0.000154795 -0.000139673 -0.000122275 -0.000102601 -8.07591e-05 -5.68575e-05 -3.08961e-05 -2.8749e-06 2.72062e-05 5.9347e-05 9.35478e-05 0.000129808 0.00016668 0.000202713 0.000237907 0.000272264 0.000305782 0.000338462 0.000370304 0.000401307 0.000429947 0.000454699 0.000475562 0.000492536 0.000505622 0.00051482 0.000520129 0.00052155 0.000519242 0.000513366 0.000503922 0.00049091 0.00047433 0.000454182 0.000430466 0.000403181 0.000374049 0.00034479 0.000315403 0.00028589 0.000256248 0.00022648 0.000196584 0.000166561 0.000137779 0.000111605 8.80386e-05 6.70808e-05 4.87313e-05 3.29901e-05 1.98571e-05 9.33229e-06 9.03175e-07 -5.94289e-06 -1.12059e-05 -1.48859e-05 -1.69828e-05 -1.74966e-05 -1.64274e-05 -1.37751e-05 -1.05466e-05 -7.74852e-06 -5.38091e-06 -3.44378e-06 -1.93713e-06 -8.60946e-07 -2.15237e-07 0 0 -1.4445e-06 -5.778e-06 -1.30005e-05 -2.3112e-05 -3.61125e-05 -5.2002e-05 -7.07805e-05 -9.2448e-05 -0.0001164 -0.000142032 -0.000169344 -0.000198336 -0.000229008 -0.00026136 -0.000295392 -0.000331104 -0.000366547 -0.000399771 -0.000430778 -0.000459566 -0.000486136 -0.000510488 -0.000532622 -0.000552537 -0.000570403 -0.000586387 -0.000600489 -0.000612709 -0.000623048 -0.000631504 -0.000638079 -0.000642772 -0.000646703 -0.00065099 -0.000655633 -0.000660633 -0.000665989 -0.000671701 -0.00067777 -0.000684195 -0.000691293 -0.000699381 -0.000708457 -0.000718522 -0.000729577 -0.000741621 -0.000754654 -0.000768676 -0.000781634 -0.000791476 -0.0007982 -0.000801808 -0.000802298 -0.000799672 -0.000793928 -0.000785068 -0.000770097 -0.000746023 -0.000712845 -0.000670564 -0.000619179 -0.000558691 -0.000489099 -0.000410403 -0.000323036 -0.00022743 -0.000123585 -1.14996e-05 0.000108825 0.000237388 0.000374191 0.000519233 0.000666719 0.000810851 0.00095163 0.00108906 0.00122313 0.00135385 0.00148122 0.00160523 0.00171979 0.00181879 0.00190225 0.00197015 0.00202249 0.00205928 0.00208052 0.0020862 0.00207697 0.00205346 0.00201569 0.00196364 0.00189732 0.00181673 0.00172186 0.00161273 0.0014962 0.00137916 0.00126161 0.00114356 0.00102499 0.00090592 0.000786337 0.000666245 0.000551115 0.000446418 0.000352154 0.000268323 0.000194925 0.00013196 7.94282e-05 3.73292e-05 3.6127e-06 -2.37715e-05 -4.48236e-05 -5.95434e-05 -6.7931e-05 -6.99864e-05 -6.57096e-05 -5.51006e-05 -4.21864e-05 -3.09941e-05 -2.15237e-05 -1.37751e-05 -7.74852e-06 -3.44378e-06 -8.60946e-07 0 0 -3.25013e-06 -1.30005e-05 -2.92511e-05 -5.2002e-05 -8.12532e-05 -0.000117005 -0.000159256 -0.000208008 -0.0002619 -0.000319572 -0.000381024 -0.000446256 -0.000515268 -0.00058806 -0.000664632 -0.000744984 -0.00082473 -0.000899485 -0.00096925 -0.00103402 -0.00109381 -0.0011486 -0.0011984 -0.00124321 -0.00128341 -0.00131937 -0.0013511 -0.0013786 -0.00140186 -0.00142088 -0.00143568 -0.00144624 -0.00145508 -0.00146473 -0.00147517 -0.00148642 -0.00149847 -0.00151133 -0.00152498 -0.00153944 -0.00155541 -0.00157361 -0.00159403 -0.00161668 -0.00164155 -0.00166865 -0.00169797 -0.00172952 -0.00175868 -0.00178082 -0.00179595 -0.00180407 -0.00180517 -0.00179926 -0.00178634 -0.0017664 -0.00173272 -0.00167855 -0.0016039 -0.00150877 -0.00139315 -0.00125705 -0.00110047 -0.000923408 -0.000726832 -0.000511718 -0.000278065 -2.58741e-05 0.000244855 0.000534123 0.00084193 0.00116827 0.00150012 0.00182441 0.00214117 0.00245038 0.00275204 0.00304616 0.00333273 0.00361176 0.00386952 0.00409229 0.00428006 0.00443283 0.0045506 0.00463338 0.00468116 0.00469395 0.00467318 0.0046203 0.0045353 0.00441819 0.00426897 0.00408764 0.00387419 0.00362863 0.00336644 0.00310311 0.00283863 0.00257301 0.00230624 0.00203832 0.00176926 0.00149905 0.00124001 0.00100444 0.000792347 0.000603728 0.000438582 0.000296911 0.000178714 8.39906e-05 8.12857e-06 -5.3486e-05 -0.000100853 -0.000133973 -0.000152845 -0.000157469 -0.000147847 -0.000123976 -9.49193e-05 -6.97366e-05 -4.84282e-05 -3.09941e-05 -1.74342e-05 -7.74852e-06 -1.93713e-06 0 0 -5.778e-06 -2.3112e-05 -5.2002e-05 -9.2448e-05 -0.00014445 -0.000208008 -0.000283122 -0.000369792 -0.0004656 -0.000568128 -0.000677376 -0.000793344 -0.000916032 -0.00104544 -0.00118157 -0.00132442 -0.00146619 -0.00159909 -0.00172311 -0.00183826 -0.00194454 -0.00204195 -0.00213049 -0.00221015 -0.00228161 -0.00234555 -0.00240196 -0.00245084 -0.00249219 -0.00252602 -0.00255232 -0.00257109 -0.00258681 -0.00260396 -0.00262253 -0.00264253 -0.00266395 -0.0026868 -0.00271108 -0.00273678 -0.00276517 -0.00279752 -0.00283383 -0.00287409 -0.00291831 -0.00296648 -0.00301862 -0.0030747 -0.00312654 -0.0031659 -0.0031928 -0.00320723 -0.00320919 -0.00319869 -0.00317571 -0.00314027 -0.00308039 -0.00298409 -0.00285138 -0.00268226 -0.00247672 -0.00223476 -0.0019564 -0.00164161 -0.00129215 -0.000909721 -0.000494338 -4.59985e-05 0.000435299 0.000949553 0.00149676 0.00207693 0.00266687 0.0032434 0.00380652 0.00435622 0.00489252 0.00541539 0.00592486 0.00642092 0.00687916 0.00727518 0.00760899 0.00788058 0.00808996 0.00823712 0.00832206 0.00834479 0.00830787 0.00821386 0.00806276 0.00785456 0.00758928 0.00726691 0.00688745 0.0064509 0.00598479 0.00551664 0.00504646 0.00457423 0.00409998 0.00362368 0.00314535 0.00266498 0.00220446 0.00178567 0.00140862 0.00107329 0.000779701 0.000527841 0.000317713 0.000149317 1.44508e-05 -9.50862e-05 -0.000179294 -0.000238174 -0.000271724 -0.000279946 -0.000262838 -0.000220402 -0.000168745 -0.000123976 -8.60946e-05 -5.51006e-05 -3.09941e-05 -1.37751e-05 -3.44378e-06 0 0 -9.02813e-06 -3.61125e-05 -8.12532e-05 -0.00014445 -0.000225703 -0.000325013 -0.000442378 -0.0005778 -0.0007275 -0.0008877 -0.0010584 -0.0012396 -0.0014313 -0.0016335 -0.0018462 -0.0020694 -0.00229092 -0.00249857 -0.00269236 -0.00287229 -0.00303835 -0.00319055 -0.00332889 -0.00345336 -0.00356502 -0.00366492 -0.00375306 -0.00382943 -0.00389405 -0.0039469 -0.003988 -0.00401733 -0.00404189 -0.00406869 -0.00409771 -0.00412895 -0.00416243 -0.00419813 -0.00423606 -0.00427622 -0.00432058 -0.00437113 -0.00442786 -0.00449077 -0.00455986 -0.00463513 -0.00471659 -0.00480423 -0.00488521 -0.00494672 -0.00498875 -0.0050113 -0.00501436 -0.00499795 -0.00496205 -0.00490667 -0.00481311 -0.00466264 -0.00445528 -0.00419103 -0.00386987 -0.00349182 -0.00305687 -0.00256502 -0.00201898 -0.00142144 -0.000772403 -7.18726e-05 0.000680154 0.00148368 0.00233869 0.00324521 0.00416699 0.00506782 0.00594769 0.0068066 0.00764455 0.00846155 0.0092576 0.0100327 0.0107487 0.0113675 0.011889 0.0123134 0.0126406 0.0128705 0.0130032 0.0130387 0.012981 0.0128342 0.0125981 0.0122728 0.0118583 0.0113546 0.0107616 0.0100795 0.00935123 0.00861975 0.00788509 0.00714724 0.00640621 0.005662 0.00491461 0.00416403 0.00344447 0.00279012 0.00220096 0.00167702 0.00121828 0.000824752 0.000496426 0.000233307 2.25794e-05 -0.000148572 -0.000280147 -0.000372146 -0.000424569 -0.000437415 -0.000410685 -0.000344378 -0.000263665 -0.000193713 -0.000134523 -8.60946e-05 -4.84282e-05 -2.15237e-05 -5.38091e-06 0 0 -1.30005e-05 -5.2002e-05 -0.000117005 -0.000208008 -0.000325013 -0.000468018 -0.000637025 -0.000832032 -0.0010476 -0.00127829 -0.0015241 -0.00178502 -0.00206107 -0.00235224 -0.00265853 -0.00297993 -0.00329892 -0.00359794 -0.003877 -0.00413609 -0.00437523 -0.00459439 -0.0047936 -0.00497284 -0.00513363 -0.00527748 -0.0054044 -0.00551438 -0.00560743 -0.00568354 -0.00574271 -0.00578495 -0.00582033 -0.00585891 -0.0059007 -0.00594569 -0.0059939 -0.00604531 -0.00609993 -0.00615776 -0.00622164 -0.00629442 -0.00637611 -0.0064667 -0.00656619 -0.00667459 -0.00679189 -0.00691808 -0.00703471 -0.00712328 -0.0071838 -0.00721627 -0.00722068 -0.00719704 -0.00714535 -0.00706561 -0.00693088 -0.00671421 -0.00641561 -0.00603508 -0.00557261 -0.00502822 -0.00440189 -0.00369363 -0.00290733 -0.00204687 -0.00111226 -0.000103497 0.000979422 0.00213649 0.00336772 0.0046731 0.00600047 0.00729766 0.00856467 0.0098015 0.0110082 0.0121846 0.0133309 0.0144471 0.0154781 0.0163692 0.0171202 0.0177313 0.0182024 0.0185335 0.0187246 0.0187758 0.0186927 0.0184812 0.0181412 0.0176728 0.0170759 0.0163506 0.0154968 0.0145145 0.0134658 0.0124124 0.0113545 0.010292 0.00922495 0.00815328 0.00707704 0.00599621 0.00496004 0.00401777 0.00316939 0.00241491 0.00175433 0.00118764 0.000714854 0.000335962 3.25143e-05 -0.000213944 -0.000403412 -0.000535891 -0.000611379 -0.000629878 -0.000591386 -0.000495905 -0.000379677 -0.000278947 -0.000193713 -0.000123976 -6.97366e-05 -3.09941e-05 -7.74852e-06 0 0 -1.76951e-05 -7.07805e-05 -0.000159256 -0.000283122 -0.000442378 -0.000637025 -0.000867061 -0.00113249 -0.0014259 -0.00173989 -0.00207446 -0.00242962 -0.00280535 -0.00320166 -0.00361855 -0.00405602 -0.0044902 -0.0048972 -0.00527703 -0.00562968 -0.00595517 -0.00625348 -0.00652462 -0.00676858 -0.00698744 -0.00718324 -0.00735599 -0.00750569 -0.00763233 -0.00773593 -0.00781647 -0.00787396 -0.00792211 -0.00797462 -0.0080315 -0.00809275 -0.00815836 -0.00822834 -0.00830268 -0.00838139 -0.00846834 -0.00856741 -0.0086786 -0.0088019 -0.00893732 -0.00908486 -0.00924451 -0.00941628 -0.00957502 -0.00969558 -0.00977795 -0.00982214 -0.00982815 -0.00979598 -0.00972562 -0.00961708 -0.00943369 -0.00913878 -0.00873236 -0.00821441 -0.00758495 -0.00684396 -0.00599146 -0.00502744 -0.0039572 -0.00278602 -0.00151391 -0.00014087 0.0013331 0.00290801 0.00458384 0.00636061 0.0081673 0.00993292 0.0116575 0.0133409 0.0149833 0.0165846 0.0181449 0.0196641 0.0210674 0.0222802 0.0233025 0.0241343 0.0247755 0.0252262 0.0254863 0.0255559 0.0254429 0.0251549 0.0246922 0.0240546 0.0232422 0.0222549 0.0210928 0.0197559 0.0183284 0.0168947 0.0154548 0.0140086 0.0125562 0.0110975 0.00963263 0.00816151 0.00675116 0.00546863 0.00431389 0.00328696 0.00238784 0.00161651 0.000972996 0.000457282 4.42556e-05 -0.000291201 -0.000549089 -0.000729407 -0.000832155 -0.000857333 -0.000804942 -0.000674982 -0.000516783 -0.000379677 -0.000263665 -0.000168745 -9.49193e-05 -4.21864e-05 -1.05466e-05 0 0 -2.3112e-05 -9.2448e-05 -0.000208008 -0.000369792 -0.0005778 -0.000832032 -0.00113249 -0.00147917 -0.0018624 -0.00227251 -0.0027095 -0.00317338 -0.00366413 -0.00418176 -0.00472627 -0.00529766 -0.00586475 -0.00639634 -0.00689244 -0.00735306 -0.00777818 -0.00816781 -0.00852195 -0.0088406 -0.00912645 -0.00938219 -0.00960782 -0.00980335 -0.00996876 -0.0101041 -0.0102093 -0.0102844 -0.0103472 -0.0104158 -0.0104901 -0.0105701 -0.0106558 -0.0107472 -0.0108443 -0.0109471 -0.0110607 -0.0111901 -0.0113353 -0.0114964 -0.0116732 -0.0118659 -0.0120745 -0.0122988 -0.0125061 -0.0126636 -0.0127712 -0.0128289 -0.0128368 -0.0127947 -0.0127029 -0.0125611 -0.0123216 -0.0119364 -0.0114055 -0.010729 -0.00990687 -0.00893906 -0.00782558 -0.00656646 -0.00516858 -0.00363888 -0.00197735 -0.000183994 0.00174119 0.00379821 0.00598706 0.00830773 0.0106675 0.0129736 0.0152261 0.0174249 0.0195701 0.0216616 0.0236994 0.0256837 0.0275166 0.0291007 0.030436 0.0315223 0.0323598 0.0329485 0.0332883 0.0333792 0.0332315 0.0328554 0.032251 0.0314183 0.0303571 0.0290677 0.0275498 0.0258036 0.0239392 0.0220666 0.0201858 0.0182969 0.0163999 0.0144947 0.0125814 0.0106599 0.00881785 0.00714269 0.00563447 0.00429317 0.00311881 0.00211136 0.00127085 0.000597267 5.78032e-05 -0.000380345 -0.000717177 -0.000952694 -0.0010869 -0.00111978 -0.00105135 -0.000881609 -0.000674982 -0.000495905 -0.000344378 -0.000220402 -0.000123976 -5.51006e-05 -1.37751e-05 0 0 -2.87957e-05 -0.000115183 -0.000259161 -0.000460731 -0.000719893 -0.00103665 -0.00141099 -0.00184293 -0.00231953 -0.0028279 -0.00336801 -0.00393988 -0.00454351 -0.00517888 -0.00584602 -0.0065449 -0.00723646 -0.0078816 -0.00848033 -0.00903264 -0.00953854 -0.00999802 -0.0104111 -0.0107777 -0.0111027 -0.0113907 -0.0116417 -0.0118557 -0.0120327 -0.0121727 -0.0122758 -0.0123419 -0.012395 -0.0124591 -0.0125343 -0.0126206 -0.0127178 -0.0128261 -0.0129455 -0.0130759 -0.0132234 -0.0133941 -0.0135881 -0.0138053 -0.0140456 -0.0143092 -0.014596 -0.014906 -0.0151957 -0.0154218 -0.0155841 -0.0156828 -0.0157177 -0.0156889 -0.0155965 -0.0154403 -0.0151582 -0.0146881 -0.0140299 -0.0131837 -0.0121494 -0.010927 -0.00951661 -0.00791814 -0.00614048 -0.00419253 -0.00207427 0.000214284 0.00267314 0.00530231 0.00810177 0.0110715 0.0140924 0.0170452 0.01993 0.0227467 0.0254953 0.0281758 0.0307883 0.0333327 0.0356837 0.0377159 0.0394295 0.0408243 0.0419004 0.0426578 0.0430964 0.0432163 0.0430303 0.0425511 0.0417788 0.0407132 0.0393545 0.0377027 0.0357577 0.0335195 0.0311288 0.0287262 0.0263116 0.0238852 0.0214468 0.0189965 0.0165343 0.0140603 0.0116864 0.00952475 0.00757545 0.00583844 0.00431373 0.00300132 0.00190121 0.0010134 0.000297099 -0.000288473 -0.000743318 -0.00106744 -0.00126082 -0.00132349 -0.00125542 -0.00105663 -0.000808981 -0.000594353 -0.000412745 -0.000264157 -0.000148588 -6.60392e-05 -1.65098e-05 0 0 -3.42908e-05 -0.000137163 -0.000308617 -0.000548653 -0.00085727 -0.00123447 -0.00168025 -0.00219461 -0.00275973 -0.00335779 -0.00398878 -0.00465271 -0.00534958 -0.00607938 -0.00684212 -0.0076378 -0.00841922 -0.00913921 -0.00979775 -0.0103949 -0.0109305 -0.0114047 -0.0118175 -0.0121689 -0.0124682 -0.012725 -0.0129392 -0.0131109 -0.0132401 -0.0133267 -0.0133707 -0.0133722 -0.0133646 -0.0133811 -0.0134218 -0.0134868 -0.0135759 -0.0136893 -0.0138269 -0.0139886 -0.0141812 -0.0144113 -0.0146788 -0.0149838 -0.0153262 -0.015706 -0.0161233 -0.0165781 -0.0170114 -0.0173645 -0.0176373 -0.0178299 -0.0179421 -0.0179741 -0.0179259 -0.0177973 -0.0175074 -0.0169751 -0.0162003 -0.0151831 -0.0139235 -0.0124214 -0.0106769 -0.00868995 -0.0064719 -0.00403403 -0.00137636 0.00150111 0.0045984 0.00791549 0.0114524 0.0152091 0.0190335 0.0227733 0.0264287 0.0299995 0.0334858 0.0368877 0.040205 0.0434379 0.0464265 0.0490113 0.0511921 0.0529691 0.0543422 0.0553115 0.0558768 0.0560382 0.0558111 0.0552105 0.0542365 0.052889 0.0511682 0.049074 0.0466064 0.0437654 0.0407281 0.0376716 0.0345961 0.0315014 0.0283875 0.0252546 0.0221025 0.0189313 0.0158829 0.0130996 0.0105811 0.00832765 0.00633911 0.00461552 0.00315687 0.00196316 0.000986086 0.000177314 -0.000463151 -0.00093531 -0.00123916 -0.00137471 -0.00134195 -0.00114088 -0.000873487 -0.000641745 -0.000445656 -0.00028522 -0.000160436 -7.1305e-05 -1.78263e-05 0 0 -3.95973e-05 -0.000158389 -0.000356375 -0.000633556 -0.000989932 -0.0014255 -0.00194027 -0.00253423 -0.003183 -0.00386219 -0.00457182 -0.00531187 -0.00608235 -0.00688325 -0.00771459 -0.00857635 -0.00941304 -0.0101692 -0.0108447 -0.0114397 -0.0119541 -0.012388 -0.0127412 -0.013014 -0.013223 -0.0133852 -0.0135006 -0.0135692 -0.013591 -0.0135659 -0.0134941 -0.0133754 -0.013256 -0.0131817 -0.0131527 -0.0131688 -0.0132301 -0.0133367 -0.0134884 -0.0136853 -0.0139342 -0.0142415 -0.0146074 -0.0150319 -0.0155149 -0.0160564 -0.0166565 -0.0173151 -0.0179533 -0.0184918 -0.0189308 -0.0192702 -0.0195101 -0.0196503 -0.019691 -0.0196322 -0.0193691 -0.0187973 -0.0179167 -0.0167273 -0.0152291 -0.0134222 -0.0113064 -0.0088819 -0.00616282 -0.00316339 0.000116381 0.0036765 0.00751695 0.0116378 0.0160389 0.0207204 0.0254906 0.0301578 0.0347221 0.0391834 0.0435418 0.0477972 0.0519497 0.0559993 0.0597451 0.0629867 0.0657239 0.0679568 0.0696853 0.0709095 0.0716294 0.0718449 0.0715737 0.0708334 0.0696241 0.0679457 0.0657982 0.0631816 0.0600959 0.0565412 0.052737 0.048903 0.0450392 0.0411456 0.0372221 0.0332689 0.0292858 0.025273 0.0214076 0.0178671 0.0146515 0.0117608 0.00919494 0.00695395 0.00503782 0.00344656 0.00212476 0.00101702 0.000123324 -0.000556318 -0.00102191 -0.00127345 -0.00131093 -0.00113437 -0.0008685 -0.000638081 -0.000443112 -0.000283592 -0.00015952 -7.08979e-05 -1.77245e-05 0 0 -4.47151e-05 -0.000178861 -0.000402436 -0.000715442 -0.00111788 -0.00160975 -0.00219104 -0.00286177 -0.00358932 -0.00434111 -0.00511711 -0.00591735 -0.00674181 -0.0075905 -0.00846341 -0.00936055 -0.0102179 -0.0109715 -0.0116212 -0.0121672 -0.0126093 -0.0129477 -0.0131823 -0.013313 -0.013367 -0.0133712 -0.0133257 -0.0132304 -0.0130853 -0.0128905 -0.0126459 -0.0123515 -0.0120693 -0.011861 -0.0117268 -0.0116666 -0.0116805 -0.0117683 -0.0119302 -0.012166 -0.0124822 -0.0128848 -0.0133739 -0.0139496 -0.0146117 -0.0153603 -0.0161955 -0.0171171 -0.0180212 -0.0188037 -0.0194645 -0.0200038 -0.0204215 -0.0207176 -0.020892 -0.0209449 -0.0207434 -0.0201548 -0.0191791 -0.0178163 -0.0160664 -0.0139293 -0.0114052 -0.00849399 -0.00521325 -0.0015806 0.00240396 0.00674043 0.0114288 0.0164691 0.0218613 0.0276054 0.0334638 0.0391988 0.0448103 0.0502984 0.0556632 0.0609045 0.0660223 0.0710168 0.0756395 0.0796422 0.0830247 0.0857872 0.0879296 0.0894519 0.0903541 0.0906363 0.0903183 0.0894201 0.0879417 0.0858832 0.0832444 0.0800255 0.0762263 0.071847 0.0671556 0.0624203 0.057641 0.0528178 0.0479506 0.0430395 0.0380844 0.0330854 0.0282604 0.0238275 0.0197867 0.0161379 0.0128812 0.0100166 0.00754407 0.00546359 0.00371313 0.00223064 0.00101611 6.9539e-05 -0.000609064 -0.0010197 -0.00116238 -0.00103709 -0.00079402 -0.000583361 -0.000405112 -0.000259272 -0.00014584 -6.48179e-05 -1.62045e-05 0 0 -4.96444e-05 -0.000198578 -0.0004468 -0.000794311 -0.00124111 -0.0017872 -0.00243258 -0.00317724 -0.00397872 -0.00479453 -0.00562467 -0.00646915 -0.00732796 -0.00820111 -0.00908859 -0.0099904 -0.0108338 -0.0115461 -0.0121273 -0.0125773 -0.0128962 -0.0130839 -0.0131406 -0.0130661 -0.0129003 -0.0126832 -0.0124146 -0.0120946 -0.0117232 -0.0113003 -0.0108261 -0.0103004 -0.00980439 -0.00941902 -0.00914431 -0.00898026 -0.00892688 -0.00898416 -0.00915209 -0.0094307 -0.00982528 -0.0103412 -0.0109784 -0.0117369 -0.0126167 -0.0136178 -0.0147403 -0.015984 -0.0172152 -0.0183001 -0.0192386 -0.0200307 -0.0206764 -0.0211758 -0.0215288 -0.0217354 -0.0216302 -0.0210475 -0.0199875 -0.01845 -0.0164352 -0.0139429 -0.0109733 -0.0075262 -0.00362319 0.000714331 0.00548637 0.0106929 0.016334 0.0224096 0.0289196 0.0358642 0.0429531 0.0498962 0.0566933 0.0633445 0.0698499 0.0762093 0.0824229 0.0884906 0.0941097 0.0989778 0.103095 0.10646 0.109075 0.110939 0.112051 0.112412 0.112045 0.11097 0.109189 0.106701 0.103507 0.0996056 0.0949976 0.0896828 0.0839839 0.0782235 0.0724015 0.0665179 0.0605729 0.0545663 0.0484981 0.0423684 0.0364412 0.0309806 0.0259865 0.021459 0.017398 0.0138035 0.0106756 0.00801425 0.00575119 0.00381817 0.0022152 0.000942262 -6.27722e-07 -0.000613475 -0.000896279 -0.00084904 -0.000650047 -0.000477585 -0.000331656 -0.00021226 -0.000119396 -5.3065e-05 -1.32663e-05 0 0 -5.43851e-05 -0.00021754 -0.000489466 -0.000870161 -0.00135963 -0.00195786 -0.00266487 -0.00348064 -0.00435118 -0.00522246 -0.0060945 -0.00696728 -0.00784081 -0.0087151 -0.00959013 -0.0104659 -0.0112608 -0.0118931 -0.0123628 -0.01267 -0.0128146 -0.0127967 -0.0126162 -0.0122731 -0.0118229 -0.0113209 -0.0107672 -0.0101617 -0.00950446 -0.00879545 -0.0080347 -0.00722218 -0.00646136 -0.00585567 -0.00540511 -0.00510969 -0.0049694 -0.00498424 -0.00515422 -0.00547933 -0.00596349 -0.00661063 -0.00742074 -0.00839382 -0.00952987 -0.0108289 -0.0122909 -0.0139159 -0.0155354 -0.016981 -0.0182528 -0.0193508 -0.0202748 -0.021025 -0.0216013 -0.0220038 -0.0220295 -0.0214755 -0.0203419 -0.0186285 -0.0163356 -0.0134629 -0.0100106 -0.00597856 -0.00139265 0.00372141 0.00936361 0.015534 0.0222324 0.0294591 0.0372139 0.0454968 0.0539586 0.06225 0.070371 0.0783217 0.086102 0.0937119 0.101151 0.108421 0.115156 0.120993 0.125934 0.129977 0.133122 0.13537 0.13672 0.137173 0.136753 0.135484 0.133367 0.130401 0.126586 0.121922 0.11641 0.110049 0.103222 0.0963125 0.0893206 0.0822461 0.075089 0.0678493 0.0605271 0.0531222 0.0459502 0.0393265 0.0332511 0.027724 0.0227452 0.0183146 0.0144324 0.0110985 0.00823894 0.00577962 0.00372059 0.00206185 0.000803399 -5.47648e-05 -0.00051264 -0.000570228 -0.000436581 -0.000320753 -0.000222745 -0.000142557 -8.01883e-05 -3.56392e-05 -8.90981e-06 0 0 -5.89371e-05 -0.000235748 -0.000530434 -0.000942994 -0.00147343 -0.00212174 -0.00288792 -0.00377197 -0.0047067 -0.00562491 -0.00652659 -0.00741174 -0.00828036 -0.00913246 -0.00996803 -0.0107871 -0.0114988 -0.0120124 -0.012328 -0.0124454 -0.0123647 -0.012086 -0.0116091 -0.0109342 -0.0101348 -0.00928456 -0.00838358 -0.0074318 -0.00642924 -0.00537588 -0.00427173 -0.00311679 -0.00204017 -0.00117099 -0.000509234 -5.49108e-05 0.00019198 0.000231439 6.34669e-05 -0.000311937 -0.000896803 -0.00169316 -0.00270101 -0.00392035 -0.00535119 -0.00699351 -0.00884733 -0.0109126 -0.0129817 -0.0148466 -0.0165074 -0.0179641 -0.0192167 -0.0202653 -0.0211097 -0.02175 -0.0219413 -0.0214388 -0.0202423 -0.0183518 -0.0157675 -0.0124893 -0.00851712 -0.00385104 0.00147839 0.00744063 0.0140357 0.0212635 0.0291242 0.0376177 0.046744 0.0565031 0.0664801 0.0762603 0.0858436 0.09523 0.104419 0.113412 0.122208 0.130807 0.138778 0.145689 0.151542 0.156336 0.16007 0.162745 0.164362 0.164919 0.164443 0.162962 0.160474 0.156981 0.152481 0.146975 0.140463 0.132944 0.124869 0.116687 0.108398 0.100002 0.091499 0.0828887 0.0741712 0.0653466 0.0567872 0.0488651 0.0415803 0.0349329 0.0289228 0.02355 0.0188146 0.0147165 0.0111764 0.00811499 0.0055323 0.00342831 0.00180302 0.000656428 -1.14605e-05 -0.000200649 -0.000153622 -0.000112865 -7.83784e-05 -5.01622e-05 -2.82162e-05 -1.25405e-05 -3.13513e-06 0 0 -6.33005e-05 -0.000253202 -0.000569705 -0.00101281 -0.00158251 -0.00227882 -0.00310173 -0.00405123 -0.0050453 -0.00600186 -0.00692094 -0.00780251 -0.0086466 -0.00945319 -0.0102223 -0.0109539 -0.0115479 -0.0119041 -0.0120226 -0.0119034 -0.0115464 -0.0109518 -0.0101193 -0.00904916 -0.00783586 -0.00657405 -0.00526372 -0.00390486 -0.00249749 -0.0010416 0.000462816 0.00201575 0.00345916 0.00463502 0.00554332 0.00618407 0.00655725 0.00666289 0.00650096 0.00607148 0.00537479 0.00441123 0.0031808 0.0016835 -8.0659e-05 -0.00211169 -0.00440959 -0.00697436 -0.00955403 -0.0118966 -0.0140022 -0.0158707 -0.0175021 -0.0188965 -0.0200538 -0.0209741 -0.0213657 -0.0209373 -0.0196887 -0.0176199 -0.0147311 -0.0110221 -0.00649293 -0.00114366 0.00498992 0.011872 0.0195026 0.0278817 0.0370093 0.0468854 0.05751 0.0688831 0.0805178 0.091927 0.103111 0.114069 0.124802 0.13531 0.145592 0.155649 0.164975 0.173065 0.179919 0.185537 0.189919 0.193065 0.194975 0.195649 0.195116 0.193403 0.190512 0.186441 0.181192 0.174764 0.167156 0.15837 0.148927 0.139348 0.129635 0.119786 0.109803 0.0996842 0.0894305 0.0790418 0.0689523 0.0595965 0.0509743 0.0430858 0.0359309 0.0295096 0.023822 0.018868 0.0145635 0.0108243 0.00765031 0.00504163 0.00299823 0.0015201 0.000607261 0.000259697 0.00019883 0.000146079 0.000101444 6.49242e-05 3.65199e-05 1.62311e-05 4.05776e-06 0 0 -6.64944e-05 -0.000265978 -0.000598449 -0.00106391 -0.00166236 -0.0023938 -0.00325822 -0.00425564 -0.00528711 -0.00625368 -0.00715536 -0.00799216 -0.00876406 -0.00947107 -0.0101132 -0.0106904 -0.0110939 -0.0112146 -0.0110527 -0.010608 -0.00988065 -0.0088706 -0.00757785 -0.0060024 -0.00426397 -0.00248225 -0.000657256 0.00121102 0.00312258 0.00507742 0.00707554 0.00911694 0.0110101 0.0125637 0.0137775 0.0146517 0.0151862 0.015381 0.0152361 0.0147516 0.0139307 0.0127769 0.0112901 0.00947038 0.00731765 0.00483196 0.0020133 -0.00113833 -0.00432079 -0.00723194 -0.00987179 -0.0122403 -0.0143376 -0.0161635 -0.0177182 -0.0190015 -0.01967 -0.01938 -0.0181316 -0.0159248 -0.0127595 -0.00863583 -0.0035537 0.00248685 0.00944417 0.0172766 0.0259841 0.0355668 0.0460245 0.0573574 0.0695654 0.0826485 0.0960415 0.109179 0.122062 0.13469 0.147062 0.15918 0.171042 0.182649 0.193416 0.20276 0.210681 0.217177 0.22225 0.2259 0.228125 0.228927 0.228336 0.226381 0.223063 0.218382 0.212337 0.204929 0.196158 0.186024 0.175124 0.164056 0.152821 0.141418 0.129848 0.11811 0.106204 0.094131 0.0823912 0.0714859 0.0614152 0.0521791 0.0437775 0.0362105 0.0294781 0.0235802 0.0184291 0.0139373 0.0101046 0.0069311 0.00441678 0.00256163 0.00136565 0.000828851 0.000634589 0.000466229 0.00032377 0.000207213 0.000116557 5.18032e-05 1.29508e-05 0 0 -6.75376e-05 -0.000270151 -0.000607839 -0.0010806 -0.00168844 -0.00243136 -0.00330934 -0.00432241 -0.00535229 -0.00628071 -0.00710769 -0.00783321 -0.00845728 -0.00897991 -0.00940108 -0.0097208 -0.00982269 -0.00959038 -0.00902386 -0.00812313 -0.0068882 -0.00531906 -0.00341571 -0.00117816 0.0012432 0.00369797 0.00618616 0.00870776 0.0112628 0.0138512 0.016473 0.0191283 0.0215862 0.0236162 0.0252183 0.0263924 0.0271385 0.0274567 0.0273469 0.0268091 0.0258505 0.0244783 0.0226924 0.0204929 0.0178797 0.0148528 0.0114123 0.00755812 0.00364981 4.68711e-05 -0.00325069 -0.00624287 -0.00892967 -0.0113111 -0.0133871 -0.0151578 -0.0162213 -0.0161759 -0.0150216 -0.0127584 -0.00938623 -0.00490515 0.000684848 0.00738377 0.0151434 0.0239155 0.0337001 0.0444973 0.0563069 0.069129 0.0829636 0.0978107 0.113021 0.127947 0.142587 0.156942 0.171011 0.184795 0.198294 0.211507 0.22377 0.234414 0.243441 0.250851 0.256643 0.260818 0.263376 0.264315 0.263669 0.261468 0.257711 0.2524 0.245533 0.237111 0.227135 0.215603 0.203191 0.190572 0.177748 0.164718 0.151482 0.13804 0.124392 0.110538 0.0970496 0.0844987 0.0728853 0.0622094 0.0524708 0.0436697 0.035806 0.0288798 0.0228021 0.0174838 0.0129252 0.00912602 0.00608643 0.00380636 0.00228584 0.00152486 0.00116747 0.000857733 0.000595648 0.000381215 0.000214433 9.53036e-05 2.38259e-05 0 0 -6.64303e-05 -0.000265721 -0.000597873 -0.00106289 -0.00166076 -0.00239149 -0.00325509 -0.00425154 -0.00524084 -0.00608296 -0.00677791 -0.00732567 -0.00772627 -0.00797968 -0.00808592 -0.00804499 -0.00773433 -0.00703141 -0.00593624 -0.0044488 -0.0025691 -0.000297136 0.00236709 0.00542357 0.00868564 0.0119666 0.0152665 0.0185853 0.0219231 0.0252797 0.0286553 0.0320497 0.0351875 0.0377928 0.0398657 0.0414062 0.0424142 0.0428899 0.0428331 0.042244 0.0411342 0.0395154 0.0373877 0.034751 0.0316054 0.0279509 0.0237874 0.019115 0.0143578 0.00993979 0.00586112 0.00212172 -0.00127839 -0.00433922 -0.00706077 -0.00944304 -0.0110199 -0.0113251 -0.0103587 -0.00812076 -0.00461119 0.000169968 0.00622273 0.0135471 0.0220876 0.0317887 0.0426506 0.0546731 0.0678563 0.0822001 0.0977046 0.11437 0.131457 0.148229 0.164685 0.180825 0.196649 0.212157 0.227349 0.242225 0.256034 0.268027 0.278201 0.286559 0.293099 0.297821 0.300726 0.301814 0.301116 0.298664 0.294457 0.288496 0.28078 0.271311 0.260086 0.247108 0.233127 0.218897 0.204416 0.189685 0.174705 0.159474 0.143993 0.128262 0.112927 0.0986348 0.0853846 0.0731765 0.0620108 0.0518872 0.042806 0.034767 0.0276823 0.0214639 0.016112 0.0116264 0.00800717 0.00525431 0.00336783 0.00234772 0.00179747 0.00132059 0.000917077 0.000586929 0.000330148 0.000146732 3.66831e-05 0 0 -6.31725e-05 -0.00025269 -0.000568552 -0.00101076 -0.00157931 -0.00227421 -0.00309545 -0.00404304 -0.00495276 -0.00566042 -0.00616602 -0.00646955 -0.00657101 -0.0064704 -0.00616773 -0.00566299 -0.00482879 -0.00353772 -0.0017898 0.000414996 0.00307665 0.00619517 0.00977055 0.0138028 0.0180634 0.0223237 0.0265839 0.0308438 0.0351035 0.039363 0.0436223 0.0478813 0.0518138 0.0550932 0.0577196 0.059693 0.0610134 0.0616807 0.061695 0.0610562 0.0597816 0.0578881 0.0553759 0.0522448 0.0484949 0.0441262 0.0391386 0.0335323 0.027803 0.0224468 0.0174636 0.0128534 0.00861626 0.0047521 0.00126096 -0.00185716 -0.00406554 -0.00482745 -0.00414291 -0.00201189 0.00156559 0.00658953 0.0130599 0.0209768 0.0302767 0.0408963 0.0528355 0.0660943 0.0806727 0.0965708 0.113788 0.132326 0.151349 0.170026 0.188356 0.206339 0.223975 0.241264 0.258206 0.274801 0.290211 0.303597 0.31496 0.3243 0.331616 0.336908 0.340177 0.341423 0.340676 0.337969 0.3333 0.32667 0.318079 0.307526 0.295013 0.280539 0.264934 0.249029 0.232825 0.21632 0.199516 0.182412 0.165008 0.147304 0.130025 0.113894 0.0989129 0.0850806 0.0723974 0.0608631 0.0504779 0.0412417 0.0330698 0.0258776 0.0196651 0.0144322 0.010179 0.00690548 0.00461162 0.00329743 0.00252459 0.0018548 0.00128806 0.000824357 0.000463701 0.000206089 5.15223e-05 0 0 -5.7764e-05 -0.000231056 -0.000519876 -0.000924224 -0.0014441 -0.0020795 -0.00283044 -0.0036969 -0.00448806 -0.0050131 -0.00527203 -0.00526483 -0.00499151 -0.00445206 -0.0036465 -0.00257482 -0.00110607 0.000890695 0.00341547 0.00646825 0.010049 0.0141579 0.0187947 0.0239595 0.0293763 0.0347692 0.0401381 0.0454831 0.050804 0.056101 0.0613741 0.0666231 0.0714653 0.0755176 0.0787802 0.0812529 0.0829359 0.083829 0.0839324 0.0832459 0.0817929 0.0795966 0.076657 0.0729742 0.068548 0.0633786 0.057466 0.05081 0.0439857 0.037568 0.0315568 0.0259523 0.0207543 0.0159629 0.0115781 0.00759983 0.00464164 0.00331698 0.00362583 0.00556821 0.00914411 0.0143535 0.0211965 0.0296729 0.0397108 0.0512381 0.0642548 0.0787608 0.0947562 0.112241 0.131215 0.151679 0.172698 0.193338 0.213601 0.233484 0.25299 0.272117 0.290866 0.309236 0.326299 0.341127 0.353719 0.364075 0.372195 0.37808 0.381729 0.383142 0.38235 0.379383 0.37424 0.366922 0.357428 0.345759 0.331915 0.315896 0.298611 0.28097 0.262975 0.244623 0.225916 0.206854 0.187437 0.167663 0.148341 0.130277 0.11347 0.0979217 0.0836306 0.0705973 0.0588217 0.0483038 0.0389646 0.0307248 0.0