<?xml version="1.0"?> 
<VTKFile type="StructuredGrid" version="0.1"> 
<StructuredGrid WholeExtent="0 128 0 128 0 0"> 
<Piece Extent="0 128 0 128 0 0"> 
<PointData>
<DataArray type="Float32" Name="u" format="ascii" NumberOfComponents="1"> 
0 0 0 0 0 0 0 0 0 0 0 0 0 0 0 0 0 0 0 0 0 0 0 0 0 0 0 0 0 0 0 0 0 0 0 0 0 0 0 0 0 0 0 0 0 0 0 0 0 0 0 0 0 0 0 0 0 0 0 0 0 0 0 0 0 0 0 0 0 0 0 0 0 0 0 0 0 0 0 0 0 0 0 0 0 0 0 0 0 0 0 0 0 0 0 0 0 0 0 0 0 0 0 0 0 0 0 0 0 0 0 0 0 0 0 0 0 0 0 0 0 0 0 0 0 0 0 0 0 0 -1.4691e-07 -5.8764e-07 -1.32219e-06 -2.35056e-06 -3.67275e-06 -5.28876e-06 -7.19859e-06 -9.40224e-06 -1.15819e-05 -1.34199e-05 -1.49162e-05 -1.60708e-05 -1.68837e-05 -1.73549e-05 -1.74844e-05 -1.72722e-05 -1.65562e-05 -1.51742e-05 -1.31264e-05 -1.04126e-05 -7.033e-06 -2.98745e-06 1.72401e-06 7.10137e-06 1.27057e-05 1.8098e-05 2.32783e-05 2.82466e-05 3.30029e-05 3.75472e-05 4.18795e-05 4.59998e-05 4.94997e-05 5.19708e-05 5.34131e-05 5.38265e-05 5.32112e-05 5.15671e-05 4.88942e-05 4.51924e-05 4.06527e-05 3.54658e-05 2.96316e-05 2.31503e-05 1.60218e-05 8.2461e-06 -1.76796e-07 -9.24689e-06 -1.82045e-05 -2.62901e-05 -3.35037e-05 -3.98452e-05 -4.53146e-05 -4.99119e-05 -5.36372e-05 -5.64904e-05 -5.77801e-05 -5.68147e-05 -5.35942e-05 -4.81186e-05 -4.03879e-05 -3.04021e-05 -1.81612e-05 -3.66529e-06 1.29536e-05 3.15631e-05 5.21634e-05 7.47545e-05 9.93363e-05 0.000125909 0.000154472 0.000185026 0.000216377 0.000247331 0.000277889 0.00030805 0.000337815 0.000367183 0.000396154 0.000424729 0.000451557 0.000475289 0.000495925 0.000513465 0.000527909 0.000539257 0.000547508 0.000552664 0.000554613 0.000553246 0.000548563 0.000540564 0.000529249 0.000514618 0.00049667 0.000475407 0.000452057 0.000427849 0.000402785 0.000376863 0.000350085 0.000322449 0.000293956 0.000264607 0.000235658 0.000208367 0.000182736 0.000158763 0.000136449 0.000115793 9.67962e-05 7.94581e-05 6.38763e-05 5.01483e-05 3.82742e-05 2.82539e-05 2.00875e-05 1.3775e-05 9.31633e-06 6.71152e-06 5.13851e-06 3.77523e-06 2.62169e-06 1.67788e-06 9.43808e-07 4.1947e-07 1.04868e-07 0 0 -5.8764e-07 -2.35056e-06 -5.28876e-06 -9.40224e-06 -1.4691e-05 -2.1155e-05 -2.87944e-05 -3.7609e-05 -4.63278e-05 -5.36798e-05 -5.9665e-05 -6.42834e-05 -6.75349e-05 -6.94197e-05 -6.99376e-05 -6.90887e-05 -6.62246e-05 -6.06969e-05 -5.25056e-05 -4.16506e-05 -2.8132e-05 -1.19498e-05 6.89604e-06 2.84055e-05 5.08228e-05 7.2392e-05 9.31132e-05 0.000112986 0.000132012 0.000150189 0.000167518 0.000183999 0.000197999 0.000207883 0.000213652 0.000215306 0.000212845 0.000206268 0.000195577 0.00018077 0.000162611 0.000141863 0.000118527 9.26013e-05 6.40872e-05 3.29844e-05 -7.07185e-07 -3.69876e-05 -7.28182e-05 -0.000105161 -0.000134015 -0.000159381 -0.000181258 -0.000199648 -0.000214549 -0.000225962 -0.00023112 -0.000227259 -0.000214377 -0.000192474 -0.000161551 -0.000121608 -7.2645e-05 -1.46612e-05 5.18142e-05 0.000126253 0.000208654 0.000299018 0.000397345 0.000503635 0.000617888 0.000740104 0.000865508 0.000989325 0.00111156 0.0012322 0.00135126 0.00146873 0.00158462 0.00169892 0.00180623 0.00190116 0.0019837 0.00205386 0.00211164 0.00215703 0.00219003 0.00221066 0.00221845 0.00221299 0.00219425 0.00216226 0.002117 0.00205847 0.00198668 0.00190163 0.00180823 0.0017114 0.00161114 0.00150745 0.00140034 0.0012898 0.00117583 0.00105843 0.00094263 0.000833469 0.000730943 0.000635051 0.000545794 0.000463172 0.000387185 0.000317832 0.000255505 0.000200593 0.000153097 0.000113016 8.03501e-05 5.51e-05 3.72653e-05 2.68461e-05 2.0554e-05 1.51009e-05 1.04868e-05 6.71152e-06 3.77523e-06 1.67788e-06 4.1947e-07 0 0 -1.32219e-06 -5.28876e-06 -1.18997e-05 -2.1155e-05 -3.30547e-05 -4.75988e-05 -6.47873e-05 -8.46201e-05 -0.000104238 -0.00012078 -0.000134246 -0.000144638 -0.000151954 -0.000156194 -0.00015736 -0.00015545 -0.000149005 -0.000136568 -0.000118138 -9.37138e-05 -6.3297e-05 -2.6887e-05 1.55161e-05 6.39124e-05 0.000114351 0.000162882 0.000209505 0.00025422 0.000297026 0.000337925 0.000376916 0.000413998 0.000445497 0.000467737 0.000480718 0.000484439 0.000478901 0.000464104 0.000440047 0.000406732 0.000365874 0.000319192 0.000266685 0.000208353 0.000144196 7.42149e-05 -1.59117e-06 -8.3222e-05 -0.000163841 -0.000236611 -0.000301533 -0.000358606 -0.000407831 -0.000449207 -0.000482735 -0.000508414 -0.000520021 -0.000511332 -0.000482347 -0.000433067 -0.000363491 -0.000273619 -0.000163451 -3.29877e-05 0.000116582 0.000284068 0.000469471 0.00067279 0.000894026 0.00113318 0.00139025 0.00166523 0.00194739 0.00222598 0.002501 0.00277245 0.00304033 0.00330465 0.00356539 0.00382256 0.00406401 0.0042776 0.00446333 0.00462119 0.00475118 0.00485331 0.00492758 0.00497397 0.00499152 0.00497922 0.00493707 0.00486508 0.00476324 0.00463156 0.00447003 0.00427866 0.00406851 0.00385064 0.00362506 0.00339177 0.00315076 0.00290204 0.00264561 0.00238146 0.00212092 0.00187531 0.00164462 0.00142886 0.00122804 0.00104214 0.000871166 0.000715123 0.000574886 0.000451335 0.000344468 0.000254285 0.000180788 0.000123975 8.3847e-05 6.04037e-05 4.62466e-05 3.39771e-05 2.35952e-05 1.51009e-05 8.49427e-06 3.77523e-06 9.43808e-07 0 0 -2.35056e-06 -9.40224e-06 -2.1155e-05 -3.7609e-05 -5.8764e-05 -8.46201e-05 -0.000115177 -0.000150436 -0.000185311 -0.000214719 -0.00023866 -0.000257134 -0.00027014 -0.000277679 -0.00027975 -0.000276355 -0.000264899 -0.000242788 -0.000210022 -0.000166602 -0.000112528 -4.77992e-05 2.75842e-05 0.000113622 0.000203291 0.000289568 0.000372453 0.000451946 0.000528047 0.000600755 0.000670072 0.000735997 0.000791995 0.000831532 0.000854609 0.000861225 0.000851379 0.000825073 0.000782306 0.000723079 0.000650443 0.000567452 0.000474106 0.000370405 0.000256349 0.000131938 -2.82874e-06 -0.00014795 -0.000291273 -0.000420642 -0.000536059 -0.000637522 -0.000725033 -0.000798591 -0.000858195 -0.000903847 -0.000924482 -0.000909035 -0.000857506 -0.000769897 -0.000646206 -0.000486434 -0.00029058 -5.86447e-05 0.000207257 0.00050501 0.000834615 0.00119607 0.00158938 0.00201454 0.00247155 0.00296042 0.00346203 0.0039573 0.00444623 0.00492881 0.00540504 0.00587492 0.00633847 0.00679566 0.00722491 0.00760463 0.00793481 0.00821544 0.00844655 0.00862811 0.00876013 0.00884262 0.00887381 0.00885194 0.00877701 0.00864903 0.00846798 0.00823388 0.00794672 0.00760651 0.0072329 0.00684559 0.00644456 0.00602981 0.00560136 0.00515919 0.0047033 0.00423371 0.00377052 0.00333388 0.00292377 0.0025402 0.00218318 0.00185269 0.00154874 0.00127133 0.00102202 0.000802373 0.000612387 0.000452063 0.000321401 0.0002204 0.000149061 0.000107384 8.22161e-05 6.04037e-05 4.1947e-05 2.68461e-05 1.51009e-05 6.71152e-06 1.67788e-06 0 0 -3.67275e-06 -1.4691e-05 -3.30547e-05 -5.8764e-05 -9.18187e-05 -0.000132219 -0.000179965 -0.000235056 -0.000289549 -0.000335499 -0.000372906 -0.000401771 -0.000422093 -0.000433873 -0.00043711 -0.000431805 -0.000413904 -0.000379356 -0.00032816 -0.000260316 -0.000175825 -7.46862e-05 4.31003e-05 0.000177534 0.000317642 0.00045245 0.000581958 0.000706165 0.000825073 0.00093868 0.00104699 0.00114999 0.00123749 0.00129927 0.00133533 0.00134566 0.00133028 0.00128918 0.00122235 0.00112981 0.00101632 0.000886644 0.000740791 0.000578758 0.000400545 0.000206153 -4.4199e-06 -0.000231172 -0.000455114 -0.000657254 -0.000837592 -0.000996129 -0.00113286 -0.0012478 -0.00134093 -0.00141226 -0.0014445 -0.00142037 -0.00133985 -0.00120296 -0.0010097 -0.000760052 -0.000454031 -9.16324e-05 0.000323839 0.000789078 0.00130409 0.00186886 0.00248341 0.00314772 0.0038618 0.00462565 0.00540942 0.00618328 0.00694723 0.00770126 0.00844537 0.00917957 0.00990385 0.0106182 0.0112889 0.0118822 0.0123981 0.0128366 0.0131977 0.0134814 0.0136877 0.0138166 0.0138653 0.0138312 0.0137141 0.0135141 0.0132312 0.0128654 0.0124168 0.0118852 0.0113014 0.0106962 0.0100696 0.00942159 0.00875212 0.00806123 0.00734891 0.00661517 0.00589144 0.00520918 0.00456839 0.00396907 0.00341121 0.00289483 0.0024199 0.00198645 0.00159691 0.00125371 0.000956854 0.000706348 0.000502188 0.000344375 0.000232908 0.000167788 0.000128463 9.43808e-05 6.55422e-05 4.1947e-05 2.35952e-05 1.04868e-05 2.62169e-06 0 0 -5.28876e-06 -2.1155e-05 -4.75988e-05 -8.46201e-05 -0.000132219 -0.000190395 -0.000259149 -0.000338481 -0.00041695 -0.000483118 -0.000536985 -0.00057855 -0.000607814 -0.000624777 -0.000629439 -0.000621799 -0.000596022 -0.000546272 -0.00047255 -0.000374855 -0.000253188 -0.000107548 6.20644e-05 0.000255649 0.000457405 0.000651528 0.000838019 0.00101688 0.0011881 0.0013517 0.00150766 0.00165599 0.00178199 0.00187095 0.00192287 0.00193776 0.0019156 0.00185641 0.00176019 0.00162693 0.0014635 0.00127677 0.00106674 0.000833411 0.000576785 0.00029686 -6.36466e-06 -0.000332888 -0.000655364 -0.000946445 -0.00120613 -0.00143443 -0.00163132 -0.00179683 -0.00193094 -0.00203366 -0.00208008 -0.00204533 -0.00192939 -0.00173227 -0.00145396 -0.00109448 -0.000653805 -0.000131951 0.000466328 0.00113627 0.00187788 0.00269116 0.00357611 0.00453272 0.00556099 0.00666093 0.00778957 0.00890393 0.010004 0.0110898 0.0121613 0.0132186 0.0142615 0.0152902 0.0162561 0.0171104 0.0178533 0.0184848 0.0190047 0.0194132 0.0197103 0.0198959 0.0199661 0.0199169 0.0197483 0.0194603 0.019053 0.0185262 0.0178801 0.0171146 0.016274 0.0154026 0.0145003 0.0135671 0.0126031 0.0116082 0.0105824 0.00952584 0.00848367 0.00750122 0.00657848 0.00571546 0.00491215 0.00416855 0.00348466 0.00286049 0.00229955 0.00180534 0.00137787 0.00101714 0.000723151 0.0004959 0.000335388 0.000241615 0.000184986 0.000135908 9.43808e-05 6.04037e-05 3.39771e-05 1.51009e-05 3.77523e-06 0 0 -7.19859e-06 -2.87944e-05 -6.47873e-05 -0.000115177 -0.000179965 -0.000259149 -0.000352731 -0.00046071 -0.000567515 -0.000657578 -0.000730896 -0.000787471 -0.000827303 -0.000850391 -0.000856736 -0.000846337 -0.000811252 -0.000743537 -0.000643193 -0.00051022 -0.000344617 -0.000146385 8.44765e-05 0.000347967 0.000622579 0.000886802 0.00114064 0.00138408 0.00161714 0.00183981 0.0020521 0.00225399 0.00242548 0.00254657 0.00261724 0.0026375 0.00260735 0.00252679 0.00239581 0.00221443 0.00199198 0.00173782 0.00145195 0.00113437 0.000785069 0.000404059 -8.66301e-06 -0.000453098 -0.000892023 -0.00128822 -0.00164168 -0.00195241 -0.00222041 -0.00244568 -0.00262822 -0.00276803 -0.00283122 -0.00278392 -0.00262611 -0.00235781 -0.00197901 -0.0014897 -0.000889901 -0.000179599 0.000634724 0.00154659 0.00255601 0.00366297 0.00486748 0.00616953 0.00756913 0.00906627 0.0106025 0.0121192 0.0136166 0.0150945 0.0165529 0.017992 0.0194116 0.0208117 0.0221263 0.0232892 0.0243003 0.0251598 0.0258675 0.0264236 0.0268279 0.0270805 0.027176 0.0271091 0.0268796 0.0264876 0.0259332 0.0252163 0.0243368 0.0232949 0.0221508 0.0209646 0.0197365 0.0184663 0.0171542 0.0158 0.0144039 0.0129657 0.0115472 0.01021 0.00895405 0.00777937 0.00668598 0.00567386 0.00474301 0.00389345 0.00312994 0.00245727 0.00187543 0.00138444 0.000984289 0.000674975 0.0004565 0.000328865 0.000251787 0.000184986 0.000128463 8.22161e-05 4.62466e-05 2.0554e-05 5.13851e-06 0 0 -9.40224e-06 -3.7609e-05 -8.46201e-05 -0.000150436 -0.000235056 -0.000338481 -0.00046071 -0.000601743 -0.000741245 -0.000858877 -0.00095464 -0.00102853 -0.00108056 -0.00111072 -0.001119 -0.00110542 -0.00105959 -0.00097115 -0.000840089 -0.000666409 -0.000450112 -0.000191197 0.000110337 0.000454488 0.000813164 0.00115827 0.00148981 0.00180778 0.00211219 0.00240302 0.00268029 0.00294399 0.00316798 0.00332613 0.00341844 0.0034449 0.00340552 0.00330029 0.00312923 0.00289231 0.00260177 0.00226981 0.00189642 0.00148162 0.0010254 0.000527751 -1.1315e-05 -0.000591801 -0.00116509 -0.00168257 -0.00214424 -0.00255009 -0.00290013 -0.00319436 -0.00343278 -0.00361539 -0.00369793 -0.00363614 -0.00343003 -0.00307959 -0.00258482 -0.00194573 -0.00116232 -0.000234579 0.000829028 0.00202004 0.00333846 0.00478429 0.00635752 0.00805816 0.00988621 0.0118417 0.0138481 0.0158292 0.0177849 0.0197152 0.0216202 0.0234997 0.0253539 0.0271826 0.0288997 0.0304185 0.0317392 0.0328618 0.0337862 0.0345124 0.0350405 0.0353705 0.0354952 0.0354078 0.0351081 0.0345961 0.0338719 0.0329355 0.0317869 0.030426 0.0289316 0.0273824 0.0257782 0.0241193 0.0224054 0.0206367 0.0188132 0.0169348 0.0150821 0.0133355 0.0116951 0.0101608 0.00873271 0.00741075 0.00619496 0.00508532 0.00408808 0.00320949 0.00244955 0.00180825 0.0012856 0.0008816 0.000596245 0.000429537 0.000328865 0.000241615 0.000167788 0.000107384 6.04037e-05 2.68461e-05 6.71152e-06 0 0 -1.14416e-05 -4.57664e-05 -0.000102974 -0.000183066 -0.00028604 -0.000411897 -0.000560638 -0.000732262 -0.000900852 -0.00104049 -0.00115118 -0.00123292 -0.00128571 -0.00130955 -0.00130443 -0.00127037 -0.00119472 -0.00106486 -0.000880771 -0.000642467 -0.000349945 -3.20415e-06 0.000397755 0.000852934 0.00132623 0.00178153 0.00221885 0.00263817 0.00303951 0.00342286 0.00378822 0.0041356 0.00443152 0.00464253 0.00476862 0.00480981 0.00476608 0.00463743 0.00442388 0.00412541 0.00375775 0.00333661 0.00286201 0.00233393 0.00175237 0.00111735 0.000428847 -0.000313125 -0.00104634 -0.00170855 -0.00229976 -0.00281998 -0.0032692 -0.00364742 -0.00395464 -0.00419087 -0.00429961 -0.00422437 -0.00396516 -0.00352198 -0.00289482 -0.00208369 -0.00108859 9.04926e-05 0.00144272 0.00295725 0.0046341 0.00647326 0.00847473 0.0106385 0.0129646 0.015453 0.0180064 0.0205275 0.0230162 0.0254725 0.0278966 0.0302882 0.0326476 0.0349746 0.0371592 0.0390916 0.0407717 0.0421995 0.0433751 0.0442983 0.0449693 0.0453879 0.0455452 0.0454319 0.0450482 0.0443939 0.043469 0.0422737 0.0408078 0.0390714 0.0371644 0.0351868 0.0331385 0.0310196 0.02883 0.0265697 0.0242388 0.0218373 0.0194676 0.0172322 0.0151312 0.0131645 0.0113321 0.00963406 0.00807037 0.00664102 0.00535466 0.00421994 0.00323687 0.00240543 0.00172565 0.0011975 0.000821 0.000596143 0.000456422 0.00033533 0.000232868 0.000149036 8.38326e-05 3.72589e-05 9.31473e-06 0 0 -1.28585e-05 -5.14342e-05 -0.000115727 -0.000205737 -0.000321464 -0.000462908 -0.000630069 -0.000822947 -0.00100905 -0.0011559 -0.00126349 -0.00133181 -0.00136088 -0.00135068 -0.00130123 -0.00121251 -0.00107031 -0.000860397 -0.000582773 -0.000237436 0.000175612 0.000656372 0.00120484 0.00182103 0.00245883 0.00307217 0.00366105 0.00422546 0.0047654 0.00528088 0.00577189 0.00623843 0.00663814 0.00692866 0.00710997 0.00718208 0.007145 0.00699871 0.00674322 0.00637854 0.00592479 0.00540212 0.00481054 0.00415003 0.0034206 0.00262226 0.00175499 0.000818802 -0.000107522 -0.000945196 -0.00169422 -0.0023546 -0.00292632 -0.0034094 -0.00380383 -0.00410961 -0.00425568 -0.004171 -0.00385556 -0.00330937 -0.00253241 -0.0015247 -0.000286231 0.001183 0.00286927 0.00475886 0.00685178 0.00914803 0.0116476 0.0143505 0.0172567 0.0203663 0.0235572 0.0267076 0.0298175 0.0328869 0.0359157 0.038904 0.0418517 0.044759 0.0474881 0.0499016 0.0519996 0.0537819 0.0552486 0.0563997 0.0572352 0.0577551 0.0579475 0.0578006 0.0573145 0.0564891 0.0553244 0.0538204 0.0519771 0.0497946 0.0473971 0.044909 0.0423302 0.0396609 0.0369009 0.0340503 0.0311091 0.0280772 0.0250829 0.0222545 0.0195918 0.017095 0.0147639 0.0125986 0.0105991 0.00876547 0.00711036 0.00564655 0.00437405 0.00329286 0.00240298 0.00170441 0.00119714 0.000881191 0.000674662 0.00049567 0.000344215 0.000220298 0.000123917 5.50744e-05 1.37686e-05 0 0 -1.36531e-05 -5.46124e-05 -0.000122878 -0.000218449 -0.000341327 -0.000491511 -0.000669001 -0.000873798 -0.00106585 -0.0012051 -0.00129155 -0.00132521 -0.00130606 -0.00123412 -0.00110938 -0.000931845 -0.000686358 -0.000357775 5.39058e-05 0.000548684 0.00112656 0.00178753 0.0025316 0.00335877 0.00421098 0.0050302 0.00581641 0.00656963 0.00728984 0.00797706 0.00863128 0.00925249 0.00978786 0.0101845 0.0104425 0.0105617 0.0105423 0.0103841 0.0100873 0.0096517 0.0091029 0.00846634 0.00774202 0.00692994 0.00603009 0.00504248 0.00396711 0.00280398 0.00165135 0.000607485 -0.000327613 -0.00115395 -0.00187151 -0.00248031 -0.00298035 -0.00337161 -0.00356616 -0.00347603 -0.00310123 -0.00244175 -0.00149759 -0.000268758 0.00124475 0.00304293 0.00510868 0.00742487 0.00999151 0.0128086 0.0158761 0.0191941 0.0227626 0.0265814 0.0305006 0.0343697 0.038189 0.0419582 0.0456776 0.049347 0.0529664 0.0565359 0.0598863 0.0628486 0.0654228 0.0676089 0.0694068 0.0708166 0.0718383 0.0724718 0.0727021 0.0725138 0.071907 0.0708817 0.0694379 0.0675756 0.0652948 0.0625955 0.0596296 0.0565489 0.0533534 0.0500432 0.0466182 0.0430784 0.0394239 0.0356546 0.0319282 0.0284024 0.0250771 0.0219523 0.0190281 0.0163044 0.0137813 0.0114587 0.00935517 0.00748931 0.00586109 0.00447052 0.00331759 0.00240231 0.00172467 0.00128468 0.000983584 0.000722633 0.000501829 0.00032117 0.000180658 8.02926e-05 2.00731e-05 0 0 -1.38252e-05 -5.53009e-05 -0.000124427 -0.000221204 -0.000345631 -0.000497708 -0.000677436 -0.000884814 -0.00107124 -0.00118809 -0.00123538 -0.00121311 -0.00112127 -0.000959869 -0.000728901 -0.000428368 -4.28657e-05 0.000443012 0.00102926 0.00171589 0.0025029 0.00339027 0.00437803 0.00546615 0.00658267 0.0076556 0.00868494 0.00967069 0.0106129 0.0115114 0.0123664 0.0131778 0.0138807 0.0144101 0.0147661 0.0149487 0.0149579 0.0147937 0.014456 0.0139449 0.0132921 0.0125293 0.0116565 0.0106736 0.00958083 0.00837802 0.00706522 0.00564241 0.00423028 0.00294949 0.00180006 0.000781975 -0.000104762 -0.00086015 -0.00148419 -0.00197688 -0.00223103 -0.00213946 -0.00170215 -0.000919117 0.000209645 0.00168414 0.00350435 0.0056703 0.00816095 0.0109553 0.0140533 0.017455 0.0211603 0.0251694 0.0294821 0.0340985 0.0388364 0.0435138 0.0481305 0.0526866 0.0571822 0.0616171 0.0659915 0.0703053 0.0743538 0.0779325 0.0810414 0.0836804 0.0858496 0.087549 0.0887786 0.0895383 0.089809 0.0895715 0.0888258 0.0875718 0.0858097 0.0835394 0.0807609 0.0774742 0.0738619 0.0701065 0.066208 0.0621665 0.0579818 0.0536541 0.0491834 0.0445695 0.0400034 0.0356759 0.0315869 0.0277366 0.0241247 0.0207515 0.0176168 0.0147206 0.0120891 0.00974823 0.007698 0.00593842 0.0044695 0.00329122 0.00240359 0.00180661 0.00138319 0.00101622 0.000705708 0.000451653 0.000254055 0.000112913 2.82283e-05 0 0 -1.3375e-05 -5.34998e-05 -0.000120375 -0.000213999 -0.000334374 -0.000481498 -0.000655373 -0.000855997 -0.00102522 -0.00110488 -0.00109498 -0.000995517 -0.000806498 -0.00052792 -0.000159781 0.000297917 0.000860167 0.00154196 0.0023433 0.00326419 0.00430462 0.0054646 0.00674412 0.00814319 0.00957391 0.0109484 0.0122666 0.0135286 0.0147344 0.0158839 0.0169772 0.0180143 0.0189165 0.0196054 0.020081 0.0203431 0.0203919 0.0202273 0.0198494 0.0192581 0.0184923 0.0175909 0.0165538 0.0153811 0.0140728 0.0126289 0.0110493 0.00933409 0.00762926 0.00608083 0.0046888 0.00345316 0.00237392 0.00145108 0.000684637 7.45894e-05 -0.000250302 -0.000161278 0.000341663 0.00125852 0.00258929 0.00433398 0.00649258 0.0090651 0.0120261 0.0153501 0.0190371 0.0230871 0.0275002 0.0322762 0.0374153 0.0429174 0.0485648 0.0541397 0.0596421 0.0650721 0.0704295 0.0757145 0.0809271 0.0860672 0.0908906 0.0951534 0.0988554 0.101997 0.104577 0.106597 0.108056 0.108954 0.109268 0.108974 0.108071 0.106559 0.10444 0.101712 0.0983754 0.0944307 0.0900941 0.0855818 0.0808941 0.0760307 0.0709919 0.0657774 0.0603874 0.0548219 0.0493085 0.044075 0.0391214 0.0344477 0.0300538 0.0259397 0.0221056 0.0185513 0.0153122 0.0124233 0.00988477 0.00769657 0.00585869 0.00437113 0.0032339 0.00244699 0.00187348 0.00137643 0.000955855 0.000611747 0.000344108 0.000152937 3.82342e-05 0 0 -1.23023e-05 -4.92091e-05 -0.000110721 -0.000196836 -0.000307557 -0.000442882 -0.000602812 -0.000787346 -0.000927791 -0.000955453 -0.000870333 -0.00067243 -0.000361744 6.1725e-05 0.000597976 0.00124701 0.00202274 0.00293908 0.00399602 0.00519358 0.00653174 0.00801051 0.00962989 0.0113899 0.0131847 0.0149086 0.0165615 0.0181435 0.0196545 0.0210946 0.0224638 0.023762 0.0248955 0.0257705 0.0263869 0.0267449 0.0268443 0.0266852 0.0262675 0.0255914 0.0247036 0.0236512 0.0224342 0.0210525 0.0195061 0.0177951 0.0159194 0.013879 0.0118483 0.0100015 0.00833861 0.00685962 0.00556455 0.00445339 0.00352614 0.0027828 0.00237603 0.0024585 0.00303021 0.00409116 0.00564135 0.00768077 0.0102094 0.0132273 0.0167041 0.0206093 0.024943 0.0297051 0.0348957 0.0405148 0.0465623 0.0530383 0.0596857 0.0662475 0.0727238 0.0791145 0.0854196 0.0916392 0.0977731 0.103822 0.109497 0.114511 0.118865 0.122557 0.125589 0.12796 0.129671 0.13072 0.13108 0.13072 0.129642 0.127844 0.125328 0.122093 0.118138 0.113465 0.108326 0.102975 0.0974116 0.091636 0.0856483 0.0794483 0.0730361 0.0664118 0.0598436 0.0535998 0.0476805 0.0420856 0.0368152 0.0318693 0.0272478 0.0229508 0.0190243 0.0155145 0.0124214 0.00974495 0.00748516 0.00564204 0.00421559 0.00320581 0.00245445 0.00180327 0.00125227 0.000801452 0.000450817 0.000200363 5.00907e-05 0 0 -1.06072e-05 -4.24288e-05 -9.54648e-05 -0.000169715 -0.00026518 -0.000381859 -0.000519753 -0.000678861 -0.000778959 -0.000739822 -0.000561452 -0.000243847 0.000212992 0.000809065 0.00154437 0.00241891 0.00344485 0.00463436 0.00598742 0.00750405 0.00918425 0.011028 0.0130353 0.0152062 0.017415 0.0195361 0.0215695 0.0235152 0.0253732 0.0271435 0.0288261 0.030421 0.0318176 0.0329053 0.0336841 0.034154 0.034315 0.0341671 0.0337103 0.0329447 0.031926 0.0307103 0.0292975 0.0276876 0.0258806 0.0238765 0.0216754 0.0192772 0.0168874 0.0147115 0.0127495 0.0110014 0.00946711 0.00814676 0.00704031 0.00614774 0.00564797 0.00571989 0.0063635 0.00757881 0.00936582 0.0117245 0.0146549 0.018157 0.0221949 0.0267329 0.0317709 0.0373089 0.0433469 0.0498849 0.0569229 0.064461 0.0721991 0.0798373 0.0873756 0.094814 0.102152 0.109391 0.11653 0.123568 0.130172 0.136006 0.141069 0.145363 0.148886 0.151639 0.153623 0.154836 0.155244 0.154811 0.153539 0.151427 0.148475 0.144682 0.14005 0.134577 0.128558 0.122286 0.11576 0.108982 0.101951 0.0946668 0.0871295 0.0793391 0.0716085 0.0642501 0.0572641 0.0506504 0.0444091 0.0385401 0.0330434 0.027919 0.0232256 0.0190219 0.0153079 0.0120836 0.00934893 0.00710396 0.00534867 0.00408307 0.0031261 0.00229672 0.00159495 0.00102077 0.000574181 0.000255192 6.37979e-05 0 0 -8.28971e-06 -3.31588e-05 -7.46074e-05 -0.000132635 -0.000207243 -0.000298429 -0.000406196 -0.000530541 -0.00057872 -0.000457984 -0.000168334 0.00029023 0.000917708 0.0017141 0.00267941 0.00381363 0.00512651 0.0066278 0.0083175 0.0101956 0.0122621 0.0145171 0.0169604 0.0195922 0.0222649 0.0248311 0.0272907 0.0296439 0.0318905 0.0340306 0.0360641 0.0379912 0.0396827 0.0410098 0.0419724 0.0425705 0.0428041 0.0426732 0.0421778 0.041318 0.0401595 0.038768 0.0371437 0.0352865 0.0331964 0.0308733 0.0283174 0.0255286 0.0227466 0.0202108 0.0179214 0.0158783 0.0140816 0.0125312 0.0112271 0.0101694 0.0095655 0.00962287 0.0103415 0.0117215 0.0137627 0.0164652 0.019829 0.0238541 0.0284987 0.0337209 0.0395208 0.0458984 0.0528537 0.0603867 0.0684973 0.0771856 0.086105 0.094909 0.103597 0.11217 0.120628 0.12897 0.137197 0.145308 0.152917 0.159637 0.165469 0.170413 0.174468 0.177634 0.179912 0.181301 0.18176 0.181247 0.179763 0.177307 0.173879 0.16948 0.164109 0.157767 0.15079 0.143514 0.135941 0.12807 0.1199 0.111433 0.102667 0.093604 0.0846033 0.0760261 0.0678724 0.0601421 0.0528354 0.0459521 0.0394923 0.0334559 0.027916 0.0229455 0.0185443 0.0147124 0.01145 0.00875688 0.00663314 0.00507877 0.00388843 0.00285681 0.00198389 0.00126969 0.000714202 0.000317423 7.93558e-05 0 0 -4.68831e-06 -1.87532e-05 -4.21948e-05 -7.50129e-05 -0.000117208 -0.000168779 -0.000229727 -0.000300052 -0.000273554 -4.40367e-05 0.000388501 0.00102406 0.00186264 0.00290424 0.00414886 0.0055965 0.00725317 0.00912488 0.0112116 0.0135134 0.0160302 0.0187621 0.021709 0.024871 0.0280764 0.0311536 0.0341027 0.0369236 0.0396163 0.0421809 0.0446173 0.0469255 0.0489566 0.0505613 0.0517397 0.0524919 0.0528177 0.0527173 0.0521906 0.0512375 0.0499348 0.0483588 0.0465097 0.0443874 0.041992 0.0393233 0.0363815 0.0331665 0.0299549 0.0270232 0.0243716 0.0219999 0.0199081 0.0180963 0.0165645 0.0153127 0.014579 0.0146017 0.0153807 0.0169161 0.0192079 0.022256 0.0260605 0.0306213 0.0358903 0.0418192 0.0484079 0.0556565 0.063565 0.0721333 0.0813615 0.0912496 0.101402 0.111422 0.121311 0.131067 0.140692 0.150186 0.159547 0.168776 0.177434 0.185079 0.191711 0.197332 0.201939 0.205535 0.208118 0.209688 0.210197 0.209597 0.207886 0.205066 0.201136 0.196095 0.189945 0.182685 0.174697 0.166361 0.157678 0.148648 0.13927 0.129546 0.119474 0.109055 0.0987005 0.0888218 0.0794188 0.0704916 0.0620402 0.0540647 0.0465649 0.0395409 0.0330822 0.0272779 0.0221283 0.0176332 0.0137926 0.0106066 0.00807521 0.00619835 0.00474561 0.00348657 0.00242123 0.00154959 0.000871642 0.000387397 9.68492e-05 0 0 8.58508e-07 3.43403e-06 7.72657e-06 1.37361e-05 2.14627e-05 3.09063e-05 4.20669e-05 5.49445e-05 0.000190056 0.000567919 0.00118853 0.0020519 0.00315802 0.00450689 0.00609851 0.00793288 0.0100103 0.0123311 0.0148952 0.0177026 0.0207534 0.0240475 0.027585 0.0313658 0.0351916 0.0388639 0.0423829 0.0457485 0.0489607 0.0520196 0.054925 0.057677 0.0601047 0.062037 0.0634741 0.0644158 0.0648622 0.0648133 0.064269 0.0632295 0.0617828 0.0600171 0.0579324 0.0555287 0.052806 0.0497643 0.0464036 0.0427239 0.0390415 0.0356725 0.0326171 0.0298751 0.0274467 0.0253317 0.0235303 0.0220423 0.0211388 0.0210905 0.0218974 0.0235597 0.0260772 0.02945 0.0336781 0.0387614 0.0446449 0.0512735 0.058647 0.0667657 0.0756293 0.085238 0.0955918 0.106691 0.118088 0.129336 0.140437 0.151388 0.162192 0.172847 0.183353 0.193711 0.203426 0.212003 0.219442 0.225743 0.230907 0.234933 0.23782 0.239571 0.240126 0.23943 0.237484 0.234286 0.229837 0.224136 0.217185 0.208983 0.199954 0.190525 0.180696 0.170466 0.159836 0.148805 0.137373 0.125541 0.113773 0.102531 0.0918169 0.0816298 0.0719699 0.0628372 0.0542317 0.0461534 0.0387107 0.0320122 0.0260577 0.0208474 0.0163812 0.0126591 0.0096811 0.00744723 0.00570179 0.00418907 0.00290908 0.00186181 0.00104727 0.000465452 0.000116363 0 0 8.35074e-06 3.34029e-05 7.51566e-05 0.000133612 0.000208768 0.000300627 0.000409186 0.000534447 0.000812113 0.00137788 0.00223176 0.00337375 0.00480384 0.00652205 0.00852835 0.0108228 0.0133979 0.0162463 0.0193681 0.0227632 0.0264315 0.0303732 0.0345883 0.0390766 0.0436105 0.0479621 0.0521316 0.0561188 0.0599238 0.0635466 0.0669872 0.0702456 0.073127 0.075437 0.0771753 0.0783422 0.0789374 0.0789611 0.0784133 0.0772939 0.0757035 0.0737428 0.0714117 0.0687103 0.0656385 0.0621963 0.0583838 0.0542009 0.0500063 0.0461586 0.0426579 0.0395041 0.0366973 0.0342374 0.0321244 0.0303584 0.0292448 0.0290893 0.0298918 0.0316522 0.0343707 0.0380473 0.0426818 0.0482743 0.0547625 0.0620838 0.0702383 0.079226 0.0890468 0.0997009 0.111188 0.123508 0.136163 0.148652 0.160975 0.173133 0.185126 0.196953 0.208615 0.220112 0.230893 0.240409 0.248661 0.255648 0.26137 0.265828 0.26902 0.270948 0.271546 0.270748 0.268555 0.264966 0.259983 0.253604 0.245829 0.236659 0.226563 0.216009 0.204996 0.193525 0.181597 0.16921 0.156365 0.143063 0.12982 0.117154 0.105067 0.0935567 0.0826244 0.0722697 0.0624926 0.0532932 0.0448016 0.0371481 0.0303326 0.0243551 0.0192156 0.0149142 0.0114508 0.00882543 0.00675697 0.00496431 0.00344743 0.00220636 0.00124108 0.000551589 0.000137897 0 0 1.77884e-05 7.11535e-05 0.000160095 0.000284614 0.00044471 0.000640382 0.000871631 0.00113846 0.00159261 0.00238586 0.00351819 0.00498961 0.00680012 0.00894972 0.0114384 0.0142662 0.017416 0.0208707 0.0246304 0.0286951 0.0330647 0.0377393 0.0427189 0.0480034 0.0533331 0.0584481 0.0633485 0.0680343 0.0725055 0.076762 0.0808039 0.0846312 0.0880237 0.0907611 0.0928436 0.094271 0.0950434 0.0951609 0.0946233 0.0934307 0.0916969 0.0895359 0.0869477 0.0839321 0.0804894 0.0766193 0.072322 0.0675975 0.0628494 0.0584816 0.0544941 0.0508869 0.04766 0.0448133 0.042347 0.0402609 0.0388972 0.0385981 0.0393636 0.0411937 0.0440885 0.0480477 0.0530716 0.0591601 0.066243 0.0742502 0.0831817 0.0930375 0.103817 0.115522 0.12815 0.141703 0.155627 0.169368 0.182926 0.196302 0.209495 0.222505 0.235333 0.247978 0.259835 0.270299 0.279369 0.287046 0.29333 0.29822 0.301717 0.30382 0.304456 0.303549 0.3011 0.297108 0.291573 0.284497 0.275877 0.265715 0.254523 0.24281 0.230577 0.217825 0.204553 0.190762 0.17645 0.161619 0.146842 0.132691 0.119168 0.106272 0.0940036 0.0823621 0.0713477 0.0609604 0.0513549 0.0426858 0.0349529 0.0281563 0.022296 0.017372 0.0133843 0.0103329 0.00791116 0.00581228 0.0040363 0.00258323 0.00145307 0.000645809 0.000161452 0 0 2.91714e-05 0.000116686 0.000262543 0.000466743 0.000729286 0.00105017 0.0014294 0.00186697 0.00253156 0.00359184 0.00504782 0.00689948 0.00914684 0.0117899 0.0148286 0.0182631 0.0220645 0.0262042 0.0306822 0.0354984 0.0406529 0.0461458 0.0519768 0.0581462 0.0643594 0.0703219 0.0760338 0.0814951 0.0867058 0.0916658 0.0963752 0.100834 0.104795 0.10801 0.110479 0.112202 0.11318 0.113412 0.112899 0.11164 0.109763 0.107396 0.10454 0.101194 0.0973587 0.0930334 0.0882183 0.0829136 0.0775708 0.0726415 0.0681257 0.0640235 0.0603347 0.0570595 0.0541979 0.0517497 0.0500958 0.049617 0.0503131 0.0521842 0.0552303 0.0594515 0.0648476 0.0714187 0.0790865 0.0877727 0.0974772 0.1082 0.119941 0.132701 0.146479 0.161275 0.17648 0.191485 0.20629 0.220895 0.235299 0.249503 0.263507 0.277311 0.290252 0.30167 0.311565 0.319937 0.326785 0.332109 0.33591 0.338188 0.338857 0.337834 0.335118 0.33071 0.324609 0.316816 0.307329 0.296151 0.283833 0.270929 0.25744 0.243366 0.228705 0.213459 0.197628 0.181211 0.164839 0.149142 0.134122 0.119777 0.106108 0.0931144 0.0807968 0.0691551 0.0583706 0.0486251 0.0399186 0.032251 0.0256223 0.0200325 0.0154817 0.0119698 0.00916434 0.00673299 0.00467569 0.00299244 0.00168325 0.00074811 0.000187027 0 0 4.24999e-05 0.00017 0.000382499 0.000679999 0.0010625 0.00153 0.0020825 0.00271999 0.00362895 0.00499584 0.00682064 0.00910337 0.011844 0.0150426 0.0186991 0.0228135 0.0273435 0.0322468 0.0375233 0.0431731 0.0491962 0.0555925 0.0623621 0.069505 0.0766894 0.0835835 0.0901875 0.0965012 0.102525 0.108258 0.113701 0.118854 0.12344 0.127182 0.130081 0.132136 0.133348 0.133716 0.13324 0.131921 0.129902 0.127324 0.124189 0.120497 0.116246 0.111438 0.106073 0.100149 0.0941704 0.0886382 0.0835526 0.0789137 0.0747215