<?xml version="1.0"?> 
<VTKFile type="StructuredGrid" version="0.1"> 
<StructuredGrid WholeExtent="0 128 0 128 0 0"> 
<Piece Extent="0 128 0 128 0 0"> 
<PointData>
<DataArray type="Float32" Name="u" format="ascii" NumberOfComponents="1"> 
0 0 0 0 0 0 0 0 0 0 0 0 0 0 0 0 0 0 0 0 0 0 0 0 0 0 0 0 0 0 0 0 0 0 0 0 0 0 0 0 0 0 0 0 0 0 0 0 0 0 0 0 0 0 0 0 0 0 0 0 0 0 0 0 0 0 0 0 0 0 0 0 0 0 0 0 0 0 0 0 0 0 0 0 0 0 0 0 0 0 0 0 0 0 0 0 0 0 0 0 0 0 0 0 0 0 0 0 0 0 0 0 0 0 0 0 0 0 0 0 0 0 0 0 0 0 0 0 0 0 -2.32123e-07 -9.28491e-07 -2.0891e-06 -3.71396e-06 -5.80307e-06 -8.35642e-06 -1.1374e-05 -1.48559e-05 -1.90077e-05 -2.40353e-05 -2.99386e-05 -3.67177e-05 -4.43725e-05 -5.29031e-05 -6.23094e-05 -7.25915e-05 -8.35781e-05 -9.5098e-05 -0.000107151 -0.000119738 -0.000132858 -0.000146511 -0.000160698 -0.000175417 -0.000190163 -0.000204425 -0.000218204 -0.0002315 -0.000244313 -0.000256643 -0.00026849 -0.000279854 -0.000290202 -0.000299002 -0.000306253 -0.000311955 -0.000316108 -0.000318714 -0.00031977 -0.000319278 -0.000317642 -0.000315269 -0.000312158 -0.000308309 -0.000303722 -0.000298398 -0.000292335 -0.000285535 -0.00027842 -0.000271415 -0.000264517 -0.000257729 -0.000251049 -0.000244479 -0.000238017 -0.000231663 -0.00022492 -0.000217289 -0.000208769 -0.000199361 -0.000189064 -0.000177879 -0.000165805 -0.000152843 -0.000139122 -0.00012477 -0.000109788 -9.4176e-05 -7.79334e-05 -6.10605e-05 -4.35573e-05 -2.54237e-05 -7.52787e-06 9.26234e-06 2.49469e-05 3.95258e-05 5.29991e-05 6.53667e-05 7.66287e-05 8.6785e-05 9.57274e-05 0.000103348 0.000109646 0.000114622 0.000118276 0.000120607 0.000121617 0.000121304 0.000119741 0.000117 0.000113079 0.00010798 0.000101702 9.42453e-05 8.56099e-05 7.57958e-05 6.51569e-05 5.40472e-05 4.24667e-05 3.04153e-05 1.7893e-05 4.8999e-06 -8.56403e-06 -2.24988e-05 -3.57218e-05 -4.70503e-05 -5.64842e-05 -6.40238e-05 -6.96688e-05 -7.34193e-05 -7.52754e-05 -7.5237e-05 -7.37559e-05 -7.12841e-05 -6.78215e-05 -6.33682e-05 -5.79241e-05 -5.14892e-05 -4.40636e-05 -3.56471e-05 -2.72923e-05 -2.00515e-05 -1.39247e-05 -8.91179e-06 -5.01288e-06 -2.22795e-06 -5.56987e-07 0 0 -9.28491e-07 -3.71396e-06 -8.35642e-06 -1.48559e-05 -2.32123e-05 -3.34257e-05 -4.5496e-05 -5.94234e-05 -7.60308e-05 -9.61411e-05 -0.000119754 -0.000146871 -0.00017749 -0.000211612 -0.000249238 -0.000290366 -0.000334312 -0.000380392 -0.000428605 -0.000478952 -0.000531431 -0.000586044 -0.00064279 -0.00070167 -0.00076065 -0.000817698 -0.000872814 -0.000925998 -0.000977251 -0.00102657 -0.00107396 -0.00111942 -0.00116081 -0.00119601 -0.00122501 -0.00124782 -0.00126443 -0.00127485 -0.00127908 -0.00127711 -0.00127057 -0.00126108 -0.00124863 -0.00123324 -0.00121489 -0.00119359 -0.00116934 -0.00114214 -0.00111368 -0.00108566 -0.00105807 -0.00103092 -0.0010042 -0.000977915 -0.000952067 -0.000926654 -0.000899682 -0.000869156 -0.000835076 -0.000797443 -0.000756256 -0.000711516 -0.000663221 -0.000611373 -0.000556488 -0.000499081 -0.000439153 -0.000376704 -0.000311734 -0.000244242 -0.000174229 -0.000101695 -3.01115e-05 3.70494e-05 9.97876e-05 0.000158103 0.000211996 0.000261467 0.000306515 0.00034714 0.00038291 0.000413391 0.000438583 0.000458487 0.000473103 0.00048243 0.000486468 0.000485217 0.000478965 0.000467998 0.000452316 0.000431919 0.000406808 0.000376981 0.00034244 0.000303183 0.000260628 0.000216189 0.000169867 0.000121661 7.1572e-05 1.95996e-05 -3.42561e-05 -8.99953e-05 -0.000142887 -0.000188201 -0.000225937 -0.000256095 -0.000278675 -0.000293677 -0.000301102 -0.000300948 -0.000295024 -0.000285136 -0.000271286 -0.000253473 -0.000231696 -0.000205957 -0.000176254 -0.000142589 -0.000109169 -8.02061e-05 -5.56987e-05 -3.56471e-05 -2.00515e-05 -8.91179e-06 -2.22795e-06 0 0 -2.0891e-06 -8.35642e-06 -1.88019e-05 -3.34257e-05 -5.22276e-05 -7.52077e-05 -0.000102366 -0.000133703 -0.000171069 -0.000216317 -0.000269447 -0.000330459 -0.000399353 -0.000476128 -0.000560785 -0.000653324 -0.000752203 -0.000855882 -0.000964362 -0.00107764 -0.00119572 -0.0013186 -0.00144628 -0.00157876 -0.00171146 -0.00183982 -0.00196383 -0.0020835 -0.00219881 -0.00230978 -0.00241641 -0.00251868 -0.00261182 -0.00269101 -0.00275627 -0.00280759 -0.00284498 -0.00286842 -0.00287793 -0.0028735 -0.00285878 -0.00283742 -0.00280942 -0.00277478 -0.0027335 -0.00268558 -0.00263102 -0.00256982 -0.00250578 -0.00244273 -0.00238066 -0.00231956 -0.00225944 -0.00220031 -0.00214215 -0.00208497 -0.00202428 -0.0019556 -0.00187892 -0.00179425 -0.00170158 -0.00160091 -0.00149225 -0.00137559 -0.0012521 -0.00112293 -0.000988095 -0.000847584 -0.0007014 -0.000549544 -0.000392015 -0.000228814 -6.77508e-05 8.3361e-05 0.000224522 0.000355732 0.000476992 0.0005883 0.000689658 0.000781065 0.000861547 0.000930129 0.000986813 0.0010316 0.00106448 0.00108547 0.00109455 0.00109174 0.00107767 0.001053 0.00101771 0.000971819 0.000915317 0.000848208 0.000770489 0.000682162 0.000586412 0.000486425 0.0003822 0.000273737 0.000161037 4.40991e-05 -7.70763e-05 -0.000202489 -0.000321496 -0.000423452 -0.000508358 -0.000576214 -0.000627019 -0.000660774 -0.000677478 -0.000677133 -0.000663803 -0.000641557 -0.000610394 -0.000570314 -0.000521317 -0.000463403 -0.000396572 -0.000320824 -0.000245631 -0.000180464 -0.000125322 -8.02061e-05 -4.51159e-05 -2.00515e-05 -5.01288e-06 0 0 -3.71396e-06 -1.48559e-05 -3.34257e-05 -5.94234e-05 -9.28491e-05 -0.000133703 -0.000181984 -0.000237694 -0.000304123 -0.000384564 -0.000479018 -0.000587483 -0.00070996 -0.00084645 -0.000996951 -0.00116146 -0.00133725 -0.00152157 -0.00171442 -0.00191581 -0.00212572 -0.00234418 -0.00257116 -0.00280668 -0.0030426 -0.00327079 -0.00349126 -0.00370399 -0.003909 -0.00410628 -0.00429584 -0.00447766 -0.00464323 -0.00478402 -0.00490004 -0.00499128 -0.00505774 -0.00509942 -0.00511632 -0.00510844 -0.00508228 -0.0050443 -0.00499453 -0.00493294 -0.00485956 -0.00477436 -0.00467737 -0.00456856 -0.00445473 -0.00434263 -0.00423228 -0.00412366 -0.00401679 -0.00391166 -0.00380827 -0.00370662 -0.00359873 -0.00347662 -0.00334031 -0.00318977 -0.00302503 -0.00284606 -0.00265289 -0.00244549 -0.00222595 -0.00199632 -0.00175661 -0.00150682 -0.00124693 -0.000976968 -0.000696916 -0.00040678 -0.000120446 0.000148197 0.00039915 0.000632413 0.000847985 0.00104587 0.00122606 0.00138856 0.00153164 0.00165356 0.00175433 0.00183395 0.00189241 0.00192972 0.00194587 0.00194087 0.00191586 0.00187199 0.00180927 0.00172768 0.00162723 0.00150792 0.00136976 0.00121273 0.00104251 0.000864756 0.000679467 0.000486644 0.000286288 7.83985e-05 -0.000137025 -0.000359981 -0.000571548 -0.000752804 -0.000903748 -0.00102438 -0.0011147 -0.00117471 -0.00120441 -0.00120379 -0.00118009 -0.00114055 -0.00108514 -0.00101389 -0.000926785 -0.000823827 -0.000705017 -0.000570354 -0.000436678 -0.000320824 -0.000222795 -0.000142589 -8.02061e-05 -3.56471e-05 -8.91179e-06 0 0 -5.80307e-06 -2.32123e-05 -5.22276e-05 -9.28491e-05 -0.000145077 -0.00020891 -0.00028435 -0.000371396 -0.000475192 -0.000600882 -0.000748465 -0.000917942 -0.00110931 -0.00132258 -0.00155774 -0.00181479 -0.00208945 -0.00237745 -0.00267878 -0.00299345 -0.00332144 -0.00366278 -0.00401744 -0.00438544 -0.00475406 -0.00511061 -0.00545509 -0.00578749 -0.00610782 -0.00641607 -0.00671224 -0.00699634 -0.00725505 -0.00747504 -0.00765631 -0.00779887 -0.00790271 -0.00796784 -0.00799425 -0.00798194 -0.00794106 -0.00788173 -0.00780395 -0.00770773 -0.00759306 -0.00745994 -0.00730838 -0.00713838 -0.00696051 -0.00678536 -0.00661293 -0.00644323 -0.00627624 -0.00611197 -0.00595042 -0.00579159 -0.00562301 -0.00543222 -0.00521923 -0.00498402 -0.0047266 -0.00444697 -0.00414513 -0.00382108 -0.00347805 -0.00311926 -0.00274471 -0.0023544 -0.00194833 -0.00152651 -0.00108893 -0.000635593 -0.000188197 0.000231558 0.000623673 0.000988145 0.00132498 0.00163417 0.00191572 0.00216963 0.00239319 0.00258369 0.00274115 0.00286555 0.00295689 0.00301518 0.00304042 0.00303261 0.00299353 0.00292499 0.00282698 0.0026995 0.00254255 0.00235613 0.00214025 0.0018949 0.00162892 0.00135118 0.00106167 0.000760381 0.000447325 0.000122498 -0.000214101 -0.00056247 -0.000893044 -0.00117626 -0.00141211 -0.00160059 -0.00174172 -0.00183548 -0.00188188 -0.00188092 -0.0018439 -0.0017821 -0.00169554 -0.0015842 -0.0014481 -0.00128723 -0.00110159 -0.000891179 -0.000682309 -0.000501288 -0.000348117 -0.000222795 -0.000125322 -5.56987e-05 -1.39247e-05 0 0 -8.35642e-06 -3.34257e-05 -7.52077e-05 -0.000133703 -0.00020891 -0.000300831 -0.000409464 -0.000534811 -0.000684277 -0.00086527 -0.00107779 -0.00132184 -0.00159741 -0.00190451 -0.00224314 -0.00261329 -0.00300881 -0.00342353 -0.00385745 -0.00431056 -0.00478288 -0.0052744 -0.00578511 -0.00631503 -0.00684585 -0.00735928 -0.00785533 -0.00833399 -0.00879526 -0.00923914 -0.00966563 -0.0100747 -0.0104473 -0.0107641 -0.0110251 -0.0112304 -0.0113799 -0.0114737 -0.0115117 -0.011494 -0.0114351 -0.0113497 -0.0112377 -0.0110991 -0.010934 -0.0107423 -0.0105241 -0.0102793 -0.0100231 -0.00977092 -0.00952262 -0.00927824 -0.00903778 -0.00880123 -0.0085686 -0.00833988 -0.00809714 -0.0078224 -0.00751569 -0.00717699 -0.00680631 -0.00640364 -0.00596899 -0.00550236 -0.00500839 -0.00449173 -0.00395238 -0.00339034 -0.0028056 -0.00219818 -0.00156806 -0.000915254 -0.000271003 0.000333444 0.000898088 0.00142293 0.00190797 0.0023532 0.00275863 0.00312426 0.00344619 0.00372052 0.00394725 0.00412639 0.00425792 0.00434187 0.00437821 0.00436696 0.00431069 0.00421198 0.00407085 0.00388727 0.00366127 0.00339283 0.00308196 0.00272865 0.00234565 0.0019457 0.0015288 0.00109495 0.000644148 0.000176397 -0.000308305 -0.000809957 -0.00128598 -0.00169381 -0.00203343 -0.00230486 -0.00250808 -0.0026431 -0.00270991 -0.00270853 -0.00265521 -0.00256623 -0.00244157 -0.00228125 -0.00208527 -0.00185361 -0.00158629 -0.0012833 -0.000982525 -0.000721855 -0.000501288 -0.000320824 -0.000180464 -8.02061e-05 -2.00515e-05 0 0 -1.1374e-05 -4.5496e-05 -0.000102366 -0.000181984 -0.00028435 -0.000409464 -0.000557327 -0.000727937 -0.000931377 -0.00117773 -0.00146699 -0.00179917 -0.00217425 -0.00259225 -0.00305316 -0.00355698 -0.00409533 -0.0046598 -0.00525041 -0.00586716 -0.00651003 -0.00717904 -0.00787418 -0.00859546 -0.00931796 -0.0100168 -0.010692 -0.0113435 -0.0119713 -0.0125755 -0.013156 -0.0137128 -0.0142199 -0.0146511 -0.0150064 -0.0152858 -0.0154893 -0.015617 -0.0156687 -0.0156446 -0.0155645 -0.0154482 -0.0152957 -0.0151071 -0.0148824 -0.0146215 -0.0143244 -0.0139912 -0.0136426 -0.0132993 -0.0129614 -0.0126287 -0.0123014 -0.0119795 -0.0116628 -0.0113515 -0.0110211 -0.0106472 -0.0102297 -0.00976868 -0.00926414 -0.00871607 -0.00812446 -0.00748932 -0.00681698 -0.00611374 -0.00537963 -0.00461462 -0.00381874 -0.00299196 -0.00213431 -0.00124576 -0.000368866 0.000453855 0.0012224 0.00193677 0.00259696 0.00320297 0.00375481 0.00425247 0.00469064 0.00506404 0.00537265 0.00561647 0.00579551 0.00590976 0.00595923 0.00594391 0.00586732 0.00573298 0.00554087 0.00529101 0.00498339 0.00461802 0.00419489 0.003714 0.00319269 0.00264831 0.00208087 0.00149035 0.000876757 0.000240095 -0.000419638 -0.00110244 -0.00175037 -0.00230546 -0.00276773 -0.00313716 -0.00341377 -0.00359755 -0.00368849 -0.00368661 -0.00361404 -0.00349292 -0.00332325 -0.00310504 -0.00283828 -0.00252297 -0.00215911 -0.00174671 -0.00133733 -0.000982525 -0.000682309 -0.000436678 -0.000245631 -0.000109169 -2.72923e-05 0 0 -1.48559e-05 -5.94234e-05 -0.000133703 -0.000237694 -0.000371396 -0.000534811 -0.000727937 -0.000950774 -0.00121649 -0.00153826 -0.00191607 -0.00234993 -0.00283984 -0.0033858 -0.0039878 -0.00464586 -0.005349 -0.00608628 -0.00685768 -0.00766323 -0.0085029 -0.00937671 -0.0102846 -0.0112267 -0.0121704 -0.0130832 -0.013965 -0.014816 -0.015636 -0.0164251 -0.0171833 -0.0179106 -0.0185729 -0.0191361 -0.0196002 -0.0199651 -0.0202309 -0.0203977 -0.0204653 -0.0204338 -0.0203291 -0.0201772 -0.0199781 -0.0197318 -0.0194382 -0.0190975 -0.0187095 -0.0182742 -0.0178189 -0.0173705 -0.0169291 -0.0164947 -0.0160672 -0.0156466 -0.0152331 -0.0148265 -0.0143949 -0.0139065 -0.0133612 -0.0127591 -0.0121001 -0.0113843 -0.0106115 -0.00978197 -0.00890381 -0.0079853 -0.00702645 -0.00602726 -0.00498774 -0.00390787 -0.00278766 -0.00162712 -0.000481784 0.00059279 0.0015966 0.00252965 0.00339194 0.00418347 0.00490424 0.00555424 0.00612656 0.00661425 0.00701733 0.0073358 0.00756964 0.00771887 0.00778348 0.00776348 0.00766344 0.00748797 0.00723706 0.00691071 0.00650892 0.0060317 0.00547903 0.00485093 0.00417004 0.00345902 0.00271787 0.00194658 0.00114515 0.000313594 -0.000548098 -0.00143992 -0.00228619 -0.00301122 -0.00361499 -0.00409752 -0.0044588 -0.00469884 -0.00481762 -0.00481517 -0.00472038 -0.00456218 -0.00434058 -0.00405556 -0.00370714 -0.00329531 -0.00282007 -0.00228142 -0.00174671 -0.0012833 -0.000891179 -0.000570354 -0.000320824 -0.000142589 -3.56471e-05 0 0 -1.88143e-05 -7.52574e-05 -0.000169329 -0.00030103 -0.000470359 -0.000677316 -0.000921903 -0.00120412 -0.00153921 -0.00194244 -0.00241379 -0.00295328 -0.00356089 -0.00423663 -0.00498051 -0.00579251 -0.00665872 -0.00756522 -0.008512 -0.00949906 -0.0105264 -0.011594 -0.012702 -0.0138502 -0.0149995 -0.0161109 -0.0171844 -0.0182199 -0.0192175 -0.0201772 -0.0210989 -0.0219826 -0.0227871 -0.023471 -0.0240342 -0.0244769 -0.0247991 -0.0250006 -0.0250815 -0.0250418 -0.0249141 -0.024731 -0.0244924 -0.0241983 -0.0238487 -0.0234437 -0.0229832 -0.0224673 -0.0219274 -0.0213949 -0.0208698 -0.0203523 -0.0198421 -0.0193395 -0.0188442 -0.0183565 -0.0178327 -0.0172293 -0.0165464 -0.015784 -0.0149419 -0.0140204 -0.0130193 -0.0119386 -0.0107892 -0.00958183 -0.00831647 -0.00699315 -0.00561185 -0.00417258 -0.00267534 -0.00112013 0.000418432 0.00186571 0.00322171 0.00448643 0.00565987 0.00674203 0.00773291 0.00863251 0.00942824 0.0101075 0.0106702 0.0111165 0.0114463 0.0116596 0.0117564 0.0117367 0.0116066 0.0113719 0.0110326 0.0105889 0.0100406 0.0093878 0.00863047 0.00776861 0.00683424 0.00585941 0.0048441 0.00378832 0.00269206 0.00155533 0.000378129 -0.000839549 -0.00199881 -0.00300077 -0.00384542 -0.00453277 -0.00506282 -0.00543556 -0.005651 -0.00570913 -0.00564593 -0.00549738 -0.00526347 -0.00494419 -0.00453956 -0.00404958 -0.00347423 -0.00281353 -0.00215411 -0.00158261 -0.00109903 -0.000703382 -0.000395652 -0.000175846 -4.39614e-05 0 0 -2.32619e-05 -9.30476e-05 -0.000209357 -0.00037219 -0.000581547 -0.000837428 -0.00113983 -0.00148876 -0.00189913 -0.00238585 -0.00294892 -0.00358834 -0.00430412 -0.00509624 -0.00596473 -0.00690956 -0.0079134 -0.00895892 -0.0100461 -0.011175 -0.0123455 -0.0135577 -0.0148116 -0.0161071 -0.0174017 -0.0186527 -0.0198601 -0.0210239 -0.0221441 -0.0232207 -0.0242537 -0.0252431 -0.026143 -0.0269075 -0.0275364 -0.0280299 -0.0283879 -0.0286105 -0.0286975 -0.0286491 -0.0285047 -0.0283037 -0.0280461 -0.0277319 -0.0273611 -0.0269338 -0.0264498 -0.0259093 -0.0253433 -0.0247826 -0.0242274 -0.0236777 -0.0231334 -0.0225946 -0.0220612 -0.0215333 -0.0209485 -0.0202445 -0.0194214 -0.018479 -0.0174174 -0.0162367 -0.0149368 -0.0135176 -0.0119935 -0.0103788 -0.00867332 -0.00687716 -0.00499031 -0.00301276 -0.000944522 0.00121441 0.00335997 0.00538807 0.00729873 0.00909193 0.0107677 0.012326 0.0137668 0.0150902 0.01627 0.01728 0.0181202 0.0187907 0.0192914 0.0196223 0.0197834 0.0197748 0.0196042 0.0192796 0.0188009 0.0181681 0.0173812 0.0164403 0.0153452 0.0140962 0.0127418 0.0113311 0.00986387 0.00834026 0.00676022 0.00512375 0.00343086 0.00168154 6.43571e-06 -0.00146382 -0.00272922 -0.00378977 -0.00464546 -0.00529631 -0.0057423 -0.00598344 -0.00606241 -0.00602188 -0.00586184 -0.0055823 -0.00518327 -0.00466473 -0.00402669 -0.00326915 -0.00250295 -0.0018389 -0.00127701 -0.000817289 -0.000459725 -0.000204322 -5.10805e-05 0 0 -2.81985e-05 -0.000112794 -0.000253787 -0.000451176 -0.000704963 -0.00101515 -0.00138173 -0.0018047 -0.00229624 -0.00286849 -0.00352145 -0.00425513 -0.00506952 -0.00596463 -0.00694045 -0.00799699 -0.00911303 -0.0102674 -0.01146 -0.0126909 -0.0139601 -0.0152677 -0.0166135 -0.0179976 -0.0193769 -0.0207084 -0.021992 -0.0232278 -0.0244157 -0.0255557 -0.0266479 -0.0276923 -0.0286408 -0.0294456 -0.0301067 -0.030624 -0.0309975 -0.0312273 -0.0313134 -0.0312556 -0.0311008 -0.0308953 -0.0306393 -0.0303326 -0.0299754 -0.0295676 -0.0291093 -0.0286003 -0.0280666 -0.0275338 -0.0270019 -0.026471 -0.0259411 -0.0254121 -0.024884 -0.024357 -0.0237425 -0.0229522 -0.0219861 -0.0208442 -0.0195266 -0.0180332 -0.0163639 -0.0145189 -0.0125168 -0.0103761 -0.00809698 -0.00567931 -0.00312312 -0.000428426 0.00240478 0.0053765 0.00834283 0.0111599 0.0138277 0.0163462 0.0187154 0.0209353 0.023006 0.0249273 0.0266518 0.0281318 0.0293674 0.0303584 0.0311049 0.031607 0.0318645 0.0318776 0.0316564 0.0312111 0.0305417 0.0296482 0.0285307 0.0271891 0.0256234 0.0238336 0.0218928 0.019874 0.0177772 0.0156024 0.0133496 0.0110188 0.00861009 0.00612334 0.00372954 0.00159964 -0.000266379 -0.00186851 -0.00320674 -0.00428109 -0.00509154 -0.00563811 -0.00596981 -0.00613567 -0.0061357 -0.00596989 -0.00563825 -0.00514077 -0.00447745 -0.00364829 -0.00279322 -0.00205217 -0.00142511 -0.000912073 -0.000513041 -0.000228018 -5.70046e-05 0 0 -3.36242e-05 -0.000134497 -0.000302618 -0.000537987 -0.000840605 -0.00121047 -0.00164759 -0.00215195 -0.00273054 -0.00339036 -0.00413139 -0.00495364 -0.0058571 -0.00684179 -0.00790769 -0.00905481 -0.0102576 -0.0114906 -0.0127537 -0.014047 -0.0153704 -0.0167239 -0.0181077 -0.0195216 -0.0209252 -0.022278 -0.0235802 -0.0248316 -0.0260323 -0.0271823 -0.0282815 -0.02933 -0.0302805 -0.0310855 -0.031745 -0.0322592 -0.0326279 -0.0328512 -0.032929 -0.0328614 -0.0327023 -0.0325058 -0.0322719 -0.0320005 -0.0316916 -0.0313453 -0.0309615 -0.0305403 -0.0300974 -0.0296484 -0.0291933 -0.0287322 -0.0282651 -0.0277919 -0.0273127 -0.0268274 -0.0262145 -0.0253522 -0.0242406 -0.0228796 -0.0212694 -0.0194098 -0.0173008 -0.0149426 -0.012359 -0.00957393 -0.00658747 -0.00339959 -1.02874e-05 0.00358043 0.00737257 0.0113661 0.015367 0.0191811 0.0228085 0.0262491 0.0295029 0.03257 0.0354503 0.0381439 0.0405738 0.042663 0.0444116 0.0458196 0.0468869 0.0476136 0.0479997 0.0480452 0.0477631 0.0471664 0.0462552 0.0450294 0.0434891 0.0416342 0.0394649 0.0369809 0.0342871 0.0314882 0.028584 0.0255747 0.0224603 0.0192406 0.0159158 0.0124859 0.00917052 0.0061896 0.0035431 0.00123101 -0.000746648 -0.00238989 -0.00369871 -0.00467312 -0.00536813 -0.00583877 -0.00608505 -0.00610696 -0.00590451 -0.00547769 -0.0048265 -0.00395095 -0.00302494 -0.00222241 -0.00154334 -0.000987737 -0.000555602 -0.000246934 -6.17335e-05 0 0 -3.95389e-05 -0.000158156 -0.00035585 -0.000632623 -0.000988473 -0.0014234 -0.00193741 -0.00253049 -0.00320204 -0.00395146 -0.00477873 -0.00568387 -0.00666686 -0.00772772 -0.00886643 -0.010083 -0.0113471 -0.0126285 -0.0139272 -0.015243 -0.0165762 -0.0179266 -0.0192942 -0.0206791 -0.0220465 -0.0233617 -0.0246246 -0.0258354 -0.026994 -0.0281003 -0.0291544 -0.0301564 -0.0310619 -0.031827 -0.0324515 -0.0329355 -0.033279 -0.033482 -0.0335444 -0.0334664 -0.0333094 -0.0331353 -0.032944 -0.0327354 -0.0325097 -0.0322668 -0.0320066 -0.0317293 -0.0314356 -0.0311264 -0.0308016 -0.0304613 -0.0301054 -0.029734 -0.0293471 -0.0289447 -0.0283645 -0.0274446 -0.0261848 -0.0245852 -0.0226458 -0.0203665 -0.0177475 -0.0147886 -0.0115201 -0.00797213 -0.00414478 -3.80002e-05 0.0043482 0.00901381 0.0139588 0.0191833 0.0244325 0.0294518 0.0342413 0.0388008 0.0431304 0.0472301 0.0511 0.0547399 0.0580358 0.0608735 0.063253 0.0651743 0.0666374 0.0676423 0.068189 0.0682776 0.0679243 0.0671455 0.0659413 0.0643116 0.0622564 0.0597758 0.0568697 0.0535381 0.0499248 0.0461736 0.0422844 0.0382572 0.0340921 0.0297891 0.0253481 0.0207691 0.0163294 0.0123061 0.0086992 0.00550879 0.00273481 0.000377278 -0.00156382 -0.00308848 -0.00425737 -0.00513117 -0.00570989 -0.00599351 -0.00598205 -0.00567549 -0.00507385 -0.00417711 -0.0031981 -0.00234963 -0.00163168 -0.00104428 -0.000587407 -0.00026107 -6.52674e-05 0 0 -4.59427e-05 -0.000183771 -0.000413484 -0.000735083 -0.00114857 -0.00165394 -0.00225119 -0.00294033 -0.00371074 -0.00455179 -0.00546348 -0.00644582 -0.0074988 -0.00862242 -0.00981669 -0.0110816 -0.0123816 -0.0136812 -0.0149804 -0.0162792 -0.0175775 -0.0188755 -0.020173 -0.0214701 -0.0227408 -0.0239592 -0.0251254 -0.0262392 -0.0273007 -0.0283099 -0.0292667 -0.0301713 -0.0309852 -0.0316701 -0.032226 -0.0326529 -0.0329509 -0.0331198 -0.0331597 -0.0330706 -0.032922 -0.0327837 -0.0326555 -0.0325375 -0.0324297 -0.032332 -0.0322446 -0.0321673 -0.0320813 -0.0319678 -0.0318267 -0.0316582 -0.0314621 -0.0312385 -0.0309874 -0.0307088 -0.0301927 -0.0292294 -0.0278188 -0.025961 -0.0236559 -0.0209035 -0.0177038 -0.0140569 -0.0100001 -0.00557075 -0.000768904 0.00440545 0.00995233 0.0158717 0.0221636 0.028828 0.0355393 0.041972 0.0481259 0.0540012 0.0595977 0.0649156 0.0699548 0.0747153 0.0790379 0.0827632 0.0858914 0.0884224 0.0903563 0.0916929 0.0924324 0.0925747 0.09214 0.0911484 0.0896 0.0874947 0.0848326 0.0816137 0.0778379 0.0735052 0.0688059 0.0639303 0.0588783 0.05365 0.0482453 0.0426642 0.0369068 0.030973 0.0252061 0.019949 0.0152019 0.0109648 0.00723765 0.00402042 0.00131314 -0.000884184 -0.00263753 -0.00401287 -0.00501021 -0.00562954 -0.00587086 -0.00573418 -0.00521949 -0.00432679 -0.0033127 -0.00243382 -0.00169015 -0.0010817 -0.000608455 -0.000270425 -6.76062e-05 0 0 -5.28356e-05 -0.000211342 -0.00047552 -0.000845369 -0.00132089 -0.00190208 -0.00258894 -0.00338148 -0.00425663 -0.00519135 -0.00618564 -0.00723949 -0.00835291 -0.0095259 -0.0107585 -0.0120506 -0.0133611 -0.0146487 -0.0159135 -0.0171554 -0.0183745 -0.0195707 -0.0207441 -0.0218946 -0.0230082 -0.0240708 -0.0250823 -0.0260429 -0.0269524 -0.0278109 -0.0286184 -0.0293748 -0.0300503 -0.0306149 -0.0310687 -0.0314115 -0.0316435 -0.0317645 -0.0317747 -0.031674 -0.0315402 -0.031451 -0.0314065 -0.0314067 -0.0314516 -0.0315411 -0.0316753 -0.0318542 -0.0320344 -0.0321726 -0.0322688 -0.032323 -0.0323351 -0.0323053 -0.0322335 -0.0321196 -0.031699 -0.0307066 -0.0291426 -0.0270069 -0.0242996 -0.0210206 -0.0171699 -0.0127475 -0.00779901 -0.00236978 0.00354015 0.00993078 0.0168021 0.0241541 0.0319869 0.0403003 0.0486875 0.0567416 0.0644625 0.0718503 0.078905 0.0856265 0.0920149 0.0980701 0.10358 0.108332 0.112327 0.115564 0.118044 0.119766 0.12073 0.120937 0.12041 0.119175 0.117231 0.114579 0.111218 0.107148 0.102369 0.0968821 0.0909304 0.0847583 0.0783658 0.0717529 0.0649196 0.057866 0.050592 0.0430977 0.0358006 0.0291185 0.0230513 0.0175991 0.0127618 0.00853953 0.00493217 0.00193976 -0.000508616 -0.00248388 -0.00398602 -0.00501505 -0.00557096 -0.00565375 -0.00526343 -0.00439999 -0.00336874 -0.00247499 -0.00171875 -0.0011 -0.000618749 -0.000274999 -6.87498e-05 0 0 -6.02175e-05 -0.00024087 -0.000541957 -0.00096348 -0.00150544 -0.00216783 -0.00295066 -0.00385392 -0.00483971 -0.00587014 -0.0069452 -0.00806488 -0.0092292 -0.0104382 -0.0116917 -0.0129899 -0.0142854 -0.0155309 -0.0167263 -0.0178717 -0.018967 -0.0200123 -0.0210075 -0.0219527 -0.0228487 -0.0236963 -0.0244956 -0.0252465 -0.0259492 -0.0266034 -0.0272094 -0.0277669 -0.0282573 -0.0286614 -0.0289794 -0.0292112 -0.0293568 -0.0294163 -0.0293895 -0.0292766 -0.0291638 -0.0291372 -0.029197 -0.029343 -0.0295754 -0.029894 -0.0302989 -0.0307901 -0.0312949 -0.0317408 -0.0321277 -0.0324556 -0.0327245 -0.0329344 -0.0330854 -0.0331773 -0.0328833 -0.0318762 -0.0301562 -0.0277231 -0.024577 -0.0207178 -0.0161457 -0.0108605 -0.00491687 0.00163077 0.00878238 0.016538 0.0248975 0.0338611 0.0434286 0.0536001 0.063877 0.0737606 0.083251 0.0923482 0.101052 0.109363 0.11728 0.124804 0.131662 0.137581 0.14256 0.146599 0.149699 0.15186 0.153081 0.153363 0.152735 0.151226 0.148835 0.145564 0.141412 0.136379 0.130464 0.123669 0.116298 0.108657 0.100747 0.092566 0.0841153 0.0753945 0.0664038 0.0571431 0.048113 0.0398145 0.0322473 0.0254117 0.0193074 0.0139346 0.00929327 0.00538336 0.00212938 -0.000544179 -0.00263732 -0.00415003 -0.00508233 -0.00543421 -0.00520566 -0.0043967 -0.00336622 -0.00247314 -0.00171746 -0.00109917 -0.000618286 -0.000274794 -6.86984e-05 0 0 -6.71023e-05 -0.000268409 -0.000603921 -0.00107364 -0.00167756 -0.00241568 -0.00328802 -0.00429455 -0.00537873 -0.00648398 -0.0076103 -0.0087577 -0.00992618 -0.0111157 -0.0123264 -0.0135581 -0.0147574 -0.0158708 -0.0168983 -0.01784 -0.0186958 -0.0194657 -0.0201497 -0.0207478 -0.0212821 -0.0217746 -0.0222252 -0.022634 -0.023001 -0.0233262 -0.0236095 -0.0238511 -0.0240484 -0.0241991 -0.0243033 -0.0243608 -0.0243718 -0.0243362 -0.024254 -0.0241252 -0.0240446 -0.0241067 -0.0243117 -0.0246594 -0.02515 -0.0257834 -0.0265596 -0.0274787 -0.0284309 -0.029307 -0.0301067 -0.0308302 -0.0314774 -0.0320483 -0.032543 -0.0329613 -0.0329046 -0.031974 -0.0301695 -0.0274911 -0.0239388 -0.0195126 -0.0142125 -0.00803855 -0.00105481 0.00667452 0.0151494 0.02437 0.0343361 0.0450478 0.0565051 0.068708 0.081055 0.0929448 0.104377 0.115352 0.12587 0.135931 0.145534 0.154681 0.163028 0.170236 0.176304 0.181232 0.18502 0.187668 0.189177 0.189546 0.188809 0.187001 0.184122 0.180172 0.17515 0.169057 0.161894 0.153659 0.144725 0.135465 0.12588 0.115968 0.105731 0.0951675 0.0842781 0.0730628 0.0621133 0.0520213 0.0427868 0.0344099 0.0268906 0.0202288 0.0144245 0.00947779 0.00530936 0.00183994 -0.000930445 -0.00300181 -0.00437414 -0.00504746 -0.00502174 -0.004297 -0.00328989 -0.00241707 -0.00167852 -0.00107425 -0.000604266 -0.000268563 -6.71407e-05 0 0 -7.25041e-05 -0.000290016 -0.000652537 -0.00116007 -0.0018126 -0.00261015 -0.0035527 -0.00464026 -0.0057924 -0.00692867 -0.00804909 -0.00915365 -0.0102424 -0.0113152 -0.0123722 -0.0134133 -0.0143794 -0.0152113 -0.0159089 -0.0164723 -0.0169015 -0.0171965 -0.0173572 -0.0173837 -0.0173286 -0.0172445 -0.0171314 -0.0169892 -0.0168181 -0.0166179 -0.0163888 -0.0161306 -0.015866 -0.0156176 -0.0153853 -0.0151692 -0.0149693 -0.0147855 -0.0146179 -0.0144664 -0.0144341 -0.0146237 -0.0150353 -0.015669 -0.0165246 -0.0176022 -0.0189019 -0.0204236 -0.0220104 -0.0235055 -0.024909 -0.0262208 -0.0274409 -0.0285693 -0.0296061 -0.0305512 -0.030922 -0.0302359 -0.0284928 -0.0256929 -0.0218361 -0.0169224 -0.0109519 -0.00392435 0.00408599 0.0130051 0.022833 0.0335697 0.0452152 0.0577695 0.0712325 0.0856043 0.100169 0.11421 0.127727 0.140721 0.153191 0.165138 0.176561 0.187461 0.197421 0.206025 0.213273 0.219165 0.223701 0.226882 0.228706 0.229174 0.228327 0.226202 0.222801 0.218123 0.212168 0.204937 0.196428 0.186644 0.176026 0.165019 0.153623 0.141839 0.129665 0.117103 0.104151 0.0908106 0.0777712 0.0657233 0.0546667 0.0446015 0.0355276 0.0274451 0.020354 0.0142543 0.00906422 0.00470221 0.00116825 -0.00153768 -0.00341556 -0.00446541 -0.00468722 -0.00408099 -0.00312451 -0.00229556 -0.00159414 -0.00102025 -0.00057389 -0.000255062 -6.37655e-05 0 0 -7.64226e-05 -0.000305691 -0.000687804 -0.00122276 -0.00191057 -0.00275121 -0.00374471 -0.00489105 -0.00608072 -0.00720423 -0.00826157 -0.00925273 -0.0101777 -0.0110366 -0.0118292 -0.0125557 -0.0131515 -0.0135523 -0.013758 -0.0137686 -0.0135842 -0.0132046 -0.01263 -0.0118603 -0.0109881 -0.010106 -0.00921399 -0.0083121 -0.00740031 -0.00647863 -0.00554705 -0.00460558 -0.00371019 -0.00291686 -0.0022256 -0.00163641 -0.00114927 -0.000764206 -0.000481203 -0.000300265 -0.000332292 -0.000688188 -0.00136795 -0.00237158 -0.00369908 -0.00535045 -0.00732568 -0.00962478 -0.0120332 -0.0143365 -0.0165345 -0.0186274 -0.020615 -0.0224975 -0.0242747 -0.0259468 -0.0269352 -0.0266617 -0.0251261 -0.0223285 -0.0182689 -0.0129472 -0.00636359 0.00148208 0.0105055 0.0206225 0.0318331 0.0441372 0.0575349 0.0720261 0.0876109 0.104289 0.121218 0.137555 0.153301 0.168454 0.183015 0.196984 0.210361 0.223145 0.234841 0.244948 0.253467 0.260399 0.265744 0.2695 0.271669 0.27225 0.271288 0.268829 0.264872 0.259418 0.252466 0.244016 0.234069 0.222624 0.210201 0.197319 0.183978 0.170178 0.155918 0.1412 0.126023 0.110386 0.0950869 0.0809204 0.0678868 0.0559862 0.0452184 0.0355836 0.0270817 0.0197127 0.013394 0.00804263 0.00365877 0.00024236 -0.00220659 -0.00368807 -0.0042021 -0.00374866 -0.00287007 -0.00210862 -0.00146432 -0.000937165 -0.000527156 -0.000234291 -5.85728e-05 0 0 -7.8858e-05 -0.000315432 -0.000709722 -0.00126173 -0.00197145 -0.00283889 -0.00386404 -0.00504691 -0.00624371 -0.00731065 -0.00824773 -0.00905494 -0.00973229 -0.0102798 -0.0106974 -0.0109852 -0.0110738 -0.010894 -0.0104457 -0.00972896 -0.00874378 -0.00749015 -0.00596808 -0.00417755 -0.00226056 -0.000359081 0.00152689 0.00339734 0.00525228 0.00709171 0.00891563 0.010724 0.0124191 0.0139031 0.0151759 0.0162376 0.0170882 0.0177277 0.0181561 0.0183733 0.0182607 0.0176998 0.0166904 0.0152327 0.0133265 0.010972 0.00816902 0.00491765 0.0015005 -0.00179982 -0.0049833 -0.00804995 -0.0109998 -0.0138327 -0.0165489 -0.0191482 -0.0209445 -0.0212515 -0.0200692 -0.0173977 -0.013237 -0.007587 -0.000447758 0.00818074 0.0182038 0.0295268 0.0421497 0.0560725 0.0712952 0.0878178 0.10564 0.124763 0.144204 0.162982 0.181098 0.19855 0.21534 0.231468 0.246932 0.261734 0.275287 0.287005 0.296887 0.304935 0.311147 0.315523 0.318065 0.318771 0.317693 0.314881 0.310336 0.304056 0.296043 0.286296 0.274815 0.2616 0.247251 0.232365 0.216943 0.200984 0.18449 0.16746 0.149893 0.13179 0.11406 0.0976128 0.0824474 0.0685641 0.0559631 0.0446443 0.0346077 0.0258533 0.0182986 0.0118612 0.00654111 0.0023383 -0.000747213 -0.00271544 -0.00356637 -0.00330001 -0.00252657 -0.00185626 -0.00128907 -0.000825003 -0.000464064 -0.000206251 -5.15627e-05 0 0 -7.98103e-05 -0.000319241 -0.000718293 -0.00127696 -0.00199526 -0.00287317 -0.0039107 -0.00510786 -0.00628136 -0.00724793 -0.00800757 -0.00856028 -0.00890606 -0.00904491 -0.00897683 -0.00870181 -0.00814617 -0.00723621 -0.00597191 -0.00435329 -0.00238035 -5.30704e-05 0.00262853 0.00566446 0.00885394 0.0119962 0.0150913 0.0181391 0.0211397 0.0240931 0.0269993 0.0298582 0.0325219 0.0348423 0.0368193 0.0384529 0.0397433 0.0406902 0.0412939 0.0415542 0.041345 0.0405403 0.0391399 0.0371439 0.0345523 0.031365 0.0275822 0.0232038 0.0185908 0.0141044 0.00974464 0.00551145 0.00140485 -0.00257516 -0.00642858 -0.0101554 -0.0129496 -0.0140053 -0.0133223 -0.0109007 -0.00674053 -0.000841751 0.00679564 0.0161716 0.0271808 