<?xml version="1.0"?> 
<VTKFile type="StructuredGrid" version="0.1"> 
<StructuredGrid WholeExtent="0 128 0 128 0 0"> 
<Piece Extent="0 128 0 128 0 0"> 
<PointData>
<DataArray type="Float32" Name="u" format="ascii" NumberOfComponents="1"> 
0 0 0 0 0 0 0 0 0 0 0 0 0 0 0 0 0 0 0 0 0 0 0 0 0 0 0 0 0 0 0 0 0 0 0 0 0 0 0 0 0 0 0 0 0 0 0 0 0 0 0 0 0 0 0 0 0 0 0 0 0 0 0 0 0 0 0 0 0 0 0 0 0 0 0 0 0 0 0 0 0 0 0 0 0 0 0 0 0 0 0 0 0 0 0 0 0 0 0 0 0 0 0 0 0 0 0 0 0 0 0 0 0 0 0 0 0 0 0 0 0 0 0 0 0 0 0 0 0 0 5.2576e-10 2.10304e-09 4.73184e-09 8.41217e-09 1.3144e-08 1.89274e-08 2.57623e-08 3.36487e-08 3.14438e-07 1.13998e-06 2.51028e-06 4.42534e-06 6.88515e-06 9.88971e-06 1.3439e-05 1.75331e-05 2.20272e-05 2.67767e-05 3.17816e-05 3.70418e-05 4.25573e-05 4.83282e-05 5.43545e-05 6.06361e-05 6.69542e-05 7.30899e-05 7.90432e-05 8.48142e-05 9.04027e-05 9.58089e-05 0.000101033 0.000106074 0.000110691 0.000114642 0.000117926 0.000120543 0.000122495 0.00012378 0.000124398 0.00012435 0.000123709 0.000122545 0.00012086 0.000118653 0.000115925 0.000112675 0.000108903 0.00010461 0.000100134 9.58149e-05 9.16523e-05 8.76462e-05 8.37967e-05 8.01037e-05 7.65673e-05 7.31874e-05 6.87578e-05 6.20719e-05 5.31299e-05 4.19316e-05 2.84772e-05 1.27665e-05 -5.20028e-06 -2.54233e-05 -4.77477e-05 -7.20187e-05 -9.82363e-05 -0.0001264 -0.000156511 -0.000188569 -0.000222572 -0.000258523 -0.000294207 -0.000327413 -0.00035814 -0.000386388 -0.000412157 -0.000435447 -0.000456258 -0.000474591 -0.00049062 -0.000504522 -0.000516297 -0.000525945 -0.000533465 -0.000538858 -0.000542123 -0.000543261 -0.000542244 -0.000539042 -0.000533656 -0.000526086 -0.000516331 -0.000504393 -0.00049027 -0.000473963 -0.000455354 -0.000434325 -0.000410877 -0.00038501 -0.000356723 -0.000326017 -0.000292891 -0.000257346 -0.000221813 -0.000188723 -0.000158077 -0.000129875 -0.000104116 -8.08004e-05 -5.99287e-05 -4.15005e-05 -2.55831e-05 -1.22433e-05 -1.48132e-06 6.70293e-06 1.23094e-05 1.53382e-05 1.57892e-05 1.36625e-05 1.04603e-05 7.68513e-06 5.3369e-06 3.41561e-06 1.92128e-06 8.53903e-07 2.13476e-07 0 0 2.10304e-09 8.41217e-09 1.89274e-08 3.36487e-08 5.2576e-08 7.57095e-08 1.03049e-07 1.34595e-07 1.25775e-06 4.55993e-06 1.00411e-05 1.77013e-05 2.75406e-05 3.95588e-05 5.37561e-05 7.01324e-05 8.81089e-05 0.000107107 0.000127126 0.000148167 0.000170229 0.000193313 0.000217418 0.000242544 0.000267817 0.00029236 0.000316173 0.000339257 0.000361611 0.000383236 0.000404131 0.000424296 0.000442764 0.000458566 0.000471703 0.000482174 0.000489979 0.000495119 0.000497593 0.000497402 0.000494834 0.00049018 0.00048344 0.000474613 0.000463699 0.000450699 0.000435613 0.00041844 0.000400537 0.00038326 0.000366609 0.000350585 0.000335187 0.000320415 0.000306269 0.00029275 0.000275031 0.000248288 0.000212519 0.000167726 0.000113909 5.10662e-05 -2.08011e-05 -0.000101693 -0.000190991 -0.000288075 -0.000392945 -0.000505602 -0.000626045 -0.000754274 -0.00089029 -0.00103409 -0.00117683 -0.00130965 -0.00143256 -0.00154555 -0.00164863 -0.00174179 -0.00182503 -0.00189836 -0.00196248 -0.00201809 -0.00206519 -0.00210378 -0.00213386 -0.00215543 -0.00216849 -0.00217305 -0.00216897 -0.00215617 -0.00213462 -0.00210434 -0.00206532 -0.00201757 -0.00196108 -0.00189585 -0.00182141 -0.0017373 -0.00164351 -0.00154004 -0.00142689 -0.00130407 -0.00117156 -0.00102938 -0.000887251 -0.000754892 -0.000632308 -0.000519498 -0.000416463 -0.000323202 -0.000239715 -0.000166002 -0.000102332 -4.89732e-05 -5.92526e-06 2.68117e-05 4.92377e-05 6.13528e-05 6.31568e-05 5.46498e-05 4.18413e-05 3.07405e-05 2.13476e-05 1.36625e-05 7.68513e-06 3.41561e-06 8.53903e-07 0 0 4.73184e-09 1.89274e-08 4.25866e-08 7.57095e-08 1.18296e-07 1.70346e-07 2.3186e-07 3.02838e-07 2.82994e-06 1.02598e-05 2.25925e-05 3.9828e-05 6.19663e-05 8.90074e-05 0.000120951 0.000157798 0.000198245 0.00024099 0.000286034 0.000333376 0.000383016 0.000434954 0.00048919 0.000545725 0.000602588 0.000657809 0.000711389 0.000763328 0.000813624 0.00086228 0.000909294 0.000954666 0.000996219 0.00103177 0.00106133 0.00108489 0.00110245 0.00111402 0.00111958 0.00111915 0.00111338 0.00110291 0.00108774 0.00106788 0.00104332 0.00101407 0.000980128 0.000941489 0.000901207 0.000862334 0.000824871 0.000788816 0.00075417 0.000720933 0.000689106 0.000658687 0.00061882 0.000558647 0.000478169 0.000377385 0.000256295 0.000114899 -4.68025e-05 -0.00022881 -0.000429729 -0.000648168 -0.000884127 -0.0011376 -0.0014086 -0.00169712 -0.00200315 -0.00232671 -0.00264787 -0.00294672 -0.00322326 -0.00347749 -0.00370941 -0.00391902 -0.00410632 -0.00427132 -0.00441558 -0.0045407 -0.00464667 -0.0047335 -0.00480118 -0.00484972 -0.00487911 -0.00488935 -0.00488019 -0.00485138 -0.0048029 -0.00473477 -0.00464698 -0.00453953 -0.00441243 -0.00426566 -0.00409818 -0.00390893 -0.0036979 -0.00346509 -0.00321051 -0.00293415 -0.00263602 -0.00231611 -0.00199631 -0.00169851 -0.00142269 -0.00116887 -0.000937042 -0.000727204 -0.000539358 -0.000373505 -0.000230247 -0.00011019 -1.33318e-05 6.03264e-05 0.000110785 0.000138044 0.000142103 0.000122962 9.41429e-05 6.91662e-05 4.80321e-05 3.07405e-05 1.72915e-05 7.68513e-06 1.92128e-06 0 0 8.41217e-09 3.36487e-08 7.57095e-08 1.34595e-07 2.10304e-07 3.02838e-07 4.12196e-07 5.38379e-07 5.03101e-06 1.82397e-05 4.01645e-05 7.08054e-05 0.000110162 0.000158235 0.000215024 0.00028053 0.000352436 0.000428427 0.000508505 0.000592668 0.000680917 0.000773251 0.000869672 0.000970178 0.00107127 0.00116944 0.00126469 0.00135703 0.00144644 0.00153294 0.00161652 0.00169718 0.00177106 0.00183427 0.00188681 0.0019287 0.00195992 0.00198048 0.00199037 0.00198961 0.00197934 0.00196072 0.00193376 0.00189845 0.0018548 0.0018028 0.00174245 0.00167376 0.00160215 0.00153304 0.00146644 0.00140234 0.00134075 0.00128166 0.00122508 0.001171 0.00110012 0.000993151 0.000850078 0.000670906 0.000455635 0.000204265 -8.32045e-05 -0.000406773 -0.000763963 -0.0011523 -0.00157178 -0.00202241 -0.00250418 -0.0030171 -0.00356116 -0.00413637 -0.00470732 -0.00523861 -0.00573023 -0.0061822 -0.0065945 -0.00696715 -0.00730013 -0.00759345 -0.00784992 -0.00807236 -0.00826076 -0.00841512 -0.00853544 -0.00862172 -0.00867397 -0.00869218 -0.0086759 -0.00862467 -0.00853849 -0.00841737 -0.0082613 -0.00807028 -0.00784431 -0.0075834 -0.00728566 -0.0069492 -0.00657404 -0.00616016 -0.00570757 -0.00521627 -0.00468626 -0.00411753 -0.003549 -0.00301957 -0.00252923 -0.00207799 -0.00166585 -0.00129281 -0.000958859 -0.000664009 -0.000409329 -0.000195893 -2.37011e-05 0.000107247 0.000196951 0.000245411 0.000252627 0.000218599 0.000167365 0.000122962 8.53903e-05 5.46498e-05 3.07405e-05 1.36625e-05 3.41561e-06 0 0 1.3144e-08 5.2576e-08 1.18296e-07 2.10304e-07 3.286e-07 4.73184e-07 6.44056e-07 8.41217e-07 7.86096e-06 2.84996e-05 6.27571e-05 0.000110633 0.000172129 0.000247243 0.000335976 0.000438328 0.000550681 0.000669418 0.000794539 0.000926044 0.00106393 0.00120821 0.00135886 0.0015159 0.00167386 0.00182725 0.00197608 0.00212035 0.00226007 0.00239522 0.00252582 0.00265185 0.00276727 0.00286604 0.00294814 0.00301359 0.00306237 0.00309449 0.00310996 0.00310876 0.00309271 0.00306363 0.0030215 0.00296633 0.00289812 0.00281687 0.00272258 0.00261525 0.00250335 0.00239537 0.00229131 0.00219115 0.00209492 0.00200259 0.00191418 0.00182969 0.00171894 0.0015518 0.00132825 0.00104829 0.00071193 0.000319164 -0.000130007 -0.000635582 -0.00119369 -0.00180047 -0.00245591 -0.00316001 -0.00391278 -0.00471421 -0.00556431 -0.00646307 -0.00735518 -0.00818532 -0.00895349 -0.00965969 -0.0103039 -0.0108862 -0.0114065 -0.0118648 -0.0122655 -0.0126131 -0.0129074 -0.0131486 -0.0133366 -0.0134714 -0.0135531 -0.0135815 -0.0135561 -0.013476 -0.0133414 -0.0131521 -0.0129083 -0.0126098 -0.0122567 -0.0118491 -0.0113838 -0.0108581 -0.0102719 -0.00962525 -0.00891808 -0.00815042 -0.00732228 -0.00643365 -0.00554532 -0.00471808 -0.00395193 -0.00324687 -0.00260289 -0.00202001 -0.00149822 -0.00103751 -0.000639576 -0.000306083 -3.70329e-05 0.000167573 0.000307736 0.000383455 0.00039473 0.000341561 0.000261508 0.000192128 0.000133422 8.53903e-05 4.80321e-05 2.13476e-05 5.3369e-06 0 0 1.89274e-08 7.57095e-08 1.70346e-07 3.02838e-07 4.73184e-07 6.81385e-07 9.27441e-07 1.21135e-06 1.13198e-05 4.10394e-05 9.03702e-05 0.000159312 0.000247865 0.00035603 0.000483805 0.000631192 0.00079298 0.000963962 0.00114414 0.0013335 0.00153206 0.00173982 0.00195676 0.0021829 0.00241035 0.00263124 0.00284556 0.00305331 0.0032545 0.00344912 0.00363718 0.00381866 0.00398488 0.0041271 0.00424533 0.00433957 0.00440981 0.00445607 0.00447834 0.00447662 0.00445351 0.00441162 0.00435096 0.00427151 0.00417329 0.00405629 0.00392051 0.00376596 0.00360483 0.00344934 0.00329948 0.00315526 0.00301668 0.00288373 0.00275642 0.00263475 0.00247528 0.00223459 0.00191268 0.00150954 0.00102518 0.000459596 -0.00018721 -0.000915239 -0.00171892 -0.00259267 -0.00353651 -0.00455042 -0.0056344 -0.00678847 -0.00801261 -0.00930683 -0.0105915 -0.0117869 -0.012893 -0.01391 -0.0148376 -0.0156761 -0.0164253 -0.0170853 -0.0176623 -0.0181628 -0.0185867 -0.018934 -0.0192047 -0.0193989 -0.0195164 -0.0195574 -0.0195208 -0.0194055 -0.0192116 -0.0189391 -0.0185879 -0.0181581 -0.0176497 -0.0170627 -0.0163927 -0.0156357 -0.0147916 -0.0138604 -0.012842 -0.0117366 -0.0105441 -0.00926445 -0.00798526 -0.00679403 -0.00569077 -0.00467549 -0.00374817 -0.00290882 -0.00215743 -0.00149402 -0.00092099 -0.000440759 -5.33274e-05 0.000241306 0.00044314 0.000552175 0.000568411 0.000491848 0.000376571 0.000276665 0.000192128 0.000122962 6.91662e-05 3.07405e-05 7.68513e-06 0 0 2.57623e-08 1.03049e-07 2.3186e-07 4.12196e-07 6.44056e-07 9.27441e-07 1.26235e-06 1.64878e-06 1.54075e-05 5.58592e-05 0.000123004 0.000216841 0.000337372 0.000484596 0.000658512 0.000859122 0.00107933 0.00131206 0.0015573 0.00181505 0.00208531 0.00236808 0.00266337 0.00297117 0.00328076 0.00358141 0.00387312 0.00415589 0.00442973 0.00469463 0.0049506 0.00519763 0.00542386 0.00561744 0.00577836 0.00590663 0.00600225 0.00606521 0.00609552 0.00609317 0.00606172 0.00600471 0.00592214 0.005814 0.00568031 0.00552106 0.00533626 0.00512589 0.00490657 0.00469493 0.00449096 0.00429466 0.00410604 0.00392508 0.0037518 0.00358618 0.00336913 0.00304152 0.00260336 0.00205465 0.00139538 0.000625561 -0.000254814 -0.00124574 -0.00233964 -0.00352892 -0.00481358 -0.00619362 -0.00766905 -0.00923986 -0.0109061 -0.0126676 -0.0144162 -0.0160432 -0.0175488 -0.018933 -0.0201957 -0.0213369 -0.0223567 -0.0232549 -0.0240404 -0.0247216 -0.0252986 -0.0257713 -0.0261398 -0.026404 -0.026564 -0.0266198 -0.0265699 -0.0264131 -0.0261491 -0.0257782 -0.0253002 -0.0247152 -0.0240232 -0.0232242 -0.0223123 -0.0212819 -0.020133 -0.0188655 -0.0174794 -0.0159748 -0.0143517 -0.01261 -0.0108688 -0.00924743 -0.00774578 -0.00636386 -0.00510167 -0.00395922 -0.00293651 -0.00203353 -0.00125357 -0.000599922 -7.25845e-05 0.000328444 0.000603162 0.000751571 0.000773671 0.00066946 0.000512556 0.000376571 0.000261508 0.000167365 9.41429e-05 4.18413e-05 1.04603e-05 0 0 3.36487e-08 1.34595e-07 3.02838e-07 5.38379e-07 8.41217e-07 1.21135e-06 1.64878e-06 2.15351e-06 2.0124e-05 7.29589e-05 0.000160658 0.000283222 0.000440649 0.000632941 0.000860098 0.00112212 0.00140974 0.00171371 0.00203402 0.00237067 0.00272367 0.00309301 0.00347869 0.00388071 0.00428507 0.00467775 0.00505877 0.00542811 0.00578577 0.00613177 0.00646609 0.00678874 0.00708422 0.00733706 0.00754725 0.00771478 0.00783967 0.00792191 0.00796149 0.00795843 0.00791735 0.00784288 0.00773503 0.0075938 0.00741919 0.00721119 0.0069698 0.00669504 0.00640859 0.00613216 0.00586575 0.00560936 0.00536299 0.00512664 0.00490031 0.004684 0.0044005 0.0039726 0.00340031 0.00268362 0.00182254 0.000817059 -0.000332818 -0.00162709 -0.00305585 -0.0046092 -0.00628712 -0.00808963 -0.0100167 -0.0120684 -0.0142446 -0.0165455 -0.0188293 -0.0209544 -0.0229209 -0.0247288 -0.026378 -0.0278686 -0.0292005 -0.0303738 -0.0313997 -0.0322894 -0.033043 -0.0336605 -0.0341418 -0.0344869 -0.0346959 -0.0347687 -0.0347036 -0.0344987 -0.034154 -0.0336695 -0.0330452 -0.0322811 -0.0313773 -0.0303336 -0.0291426 -0.0277968 -0.0262962 -0.0246406 -0.0228303 -0.0208651 -0.018745 -0.0164701 -0.014196 -0.0120783 -0.0101169 -0.00831198 -0.00666341 -0.00517123 -0.00383544 -0.00265603 -0.00163732 -0.000783572 -9.48042e-05 0.000428988 0.000787804 0.000981644 0.00101051 0.000874397 0.00066946 0.000491848 0.000341561 0.000218599 0.000122962 5.46498e-05 1.36625e-05 0 0 2.36736e-07 9.46943e-07 2.13062e-06 3.78777e-06 5.91839e-06 8.52248e-06 1.16e-05 1.51511e-05 3.89935e-05 0.000102945 0.000207006 0.000351177 0.000535456 0.000759845 0.00102434 0.00132895 0.00166248 0.00201376 0.00238278 0.00276954 0.00317404 0.00359629 0.00403628 0.00449401 0.00495458 0.0054031 0.00583957 0.00626399 0.00667636 0.00707667 0.00746493 0.00784114 0.00818626 0.00848126 0.00872613 0.00892088 0.0090655 0.00915999 0.00920437 0.00919861 0.00914885 0.00906119 0.00893563 0.00877218 0.00857083 0.00833158 0.00805443 0.00773939 0.00741122 0.00709469 0.00678981 0.00649656 0.00621496 0.00594501 0.00568669 0.00544002 0.00511187 0.00460913 0.00393179 0.00307986 0.00205334 0.000852215 -0.0005235 -0.00207381 -0.00378169 -0.00563013 -0.00761913 -0.00974868 -0.0120188 -0.0144294 -0.0169807 -0.0196724 -0.0223447 -0.0248373 -0.0271503 -0.0292837 -0.0312375 -0.0330117 -0.0346062 -0.0360212 -0.0372639 -0.0383416 -0.0392543 -0.0400021 -0.0405849 -0.0410028 -0.0412557 -0.0413436 -0.0412645 -0.0410161 -0.0405985 -0.0400116 -0.0392556 -0.0383303 -0.0372357 -0.0359719 -0.0345362 -0.0329256 -0.0311402 -0.0291801 -0.0270451 -0.0247354 -0.0222508 -0.0195915 -0.0169334 -0.0144526 -0.0121492 -0.010023 -0.00807418 -0.00630264 -0.00470842 -0.0032915 -0.00206204 -0.0010302 -0.000195987 0.000440608 0.000879583 0.00112094 0.00116467 0.00101079 0.000773883 0.000568567 0.000394838 0.000252696 0.000142142 6.31741e-05 1.57935e-05 0 0 8.29172e-07 3.31669e-06 7.46255e-06 1.32668e-05 2.07293e-05 2.98502e-05 4.06294e-05 5.3067e-05 8.55399e-05 0.000156425 0.000265722 0.000413431 0.000599553 0.000824087 0.00108703 0.00138839 0.00171584 0.00205706 0.00241205 0.00278081 0.00316333 0.00355963 0.0039697 0.00439354 0.00482058 0.00524028 0.00565261 0.0060576 0.00645523 0.0068455 0.00722842 0.00760399 0.00795027 0.00824532 0.00848915 0.00868176 0.00882315 0.00891331 0.00895225 0.00893996 0.00888469 0.00879468 0.00866992 0.00851041 0.00831616 0.00808716 0.00782342 0.00752494 0.00721483 0.00691622 0.00662911 0.00635351 0.0060894 0.0058368 0.00559569 0.00536609 0.00504575 0.00453241 0.00382608 0.00292676 0.00183445 0.000549153 -0.000929138 -0.00260042 -0.00443129 -0.00638835 -0.00847159 -0.010681 -0.0130166 -0.0154784 -0.0180664 -0.0207806 -0.0234762 -0.0260087 -0.028378 -0.0305841 -0.032627 -0.0345067 -0.0362232 -0.0377765 -0.0391565 -0.0403533 -0.0413667 -0.0421968 -0.0428436 -0.0433071 -0.0435872 -0.043684 -0.0435954 -0.043319 -0.0428551 -0.0422034 -0.0413641 -0.0403371 -0.0391225 -0.0377202 -0.0361454 -0.0344135 -0.0325243 -0.030478 -0.0282744 -0.0259136 -0.0233956 -0.0207204 -0.0180476 -0.0155366 -0.0131874 -0.0110002 -0.0089748 -0.00711128 -0.00540964 -0.00386986 -0.00251755 -0.00137831 -0.000452134 0.000260976 0.000761019 0.001048 0.00112191 0.000982752 0.00075242 0.000552798 0.000383888 0.000245688 0.0001382 6.1422e-05 1.53555e-05 0 0 1.81096e-06 7.24384e-06 1.62986e-05 2.89753e-05 4.5274e-05 6.51945e-05 8.8737e-05 0.000115901 0.000159763 0.000233398 0.000336805 0.000469986 0.000632939 0.000825666 0.00104816 0.00130044 0.00156981 0.0018436 0.00212183 0.00240447 0.00269154 0.00298304 0.00327896 0.00357931 0.00388308 0.00418927 0.00449788 0.00480892 0.00512238 0.00543825 0.00575655 0.00607728 0.00637624 0.00662925 0.00683632 0.00699744 0.00711261 0.00718184 0.00720513 0.00718247 0.00712487 0.00704334 0.00693788 0.0068085 0.00665518 0.00647794 0.00627677 0.00605167 0.00581941 0.00559674 0.00538366 0.00518018 0.0049863 0.00480201 0.00462732 0.00446222 0.00420212 0.00374244 0.00308318 0.00222433 0.00116589 -9.21265e-05 -0.00154973 -0.00320692 -0.00500464 -0.00688383 -0.0088445 -0.0108866 -0.0130102 -0.0152153 -0.0175019 -0.0198699 -0.022224 -0.0244686 -0.0266039 -0.0286298 -0.0305464 -0.0323535 -0.0340513 -0.0356396 -0.0370777 -0.0383246 -0.0393802 -0.0402446 -0.0409177 -0.0413997 -0.0416904 -0.0417899 -0.0416962 -0.0414075 -0.0409237 -0.0402447 -0.0393708 -0.0383017 -0.0370375 -0.0355783 -0.0339705 -0.0322606 -0.0304485 -0.0285344 -0.0265182 -0.0243999 -0.0221795 -0.019857 -0.0175385 -0.0153301 -0.0132317 -0.0112435 -0.00936526 -0.00759714 -0.00593909 -0.00439113 -0.00300385 -0.00182789 -0.000863244 -0.00010991 0.000432111 0.00076282 0.000882215 0.000790297 0.000605071 0.000444542 0.00030871 0.000197574 0.000111136 4.93936e-05 1.23484e-05 0 0 3.1821e-06 1.27284e-05 2.86389e-05 5.09135e-05 7.95524e-05 0.000114555 0.000155923 0.000203654 0.000261663 0.000333864 0.000420256 0.00052084 0.000635615 0.000764582 0.00090774 0.00106509 0.00122439 0.0013734 0.00151211 0.00164054 0.00175867 0.00186651 0.00196406 0.00205131 0.00214206 0.00225009 0.00237539 0.00251796 0.00267781 0.00285493 0.00304933 0.00326101 0.00346417 0.00363304 0.00376762 0.00386791 0.0039339 0.00396561 0.00396301 0.00392613 0.00386938 0.00380718 0.00373953 0.00366644 0.0035879 0.00350391 0.00341448 0.0033196 0.00322497 0.00313625 0.00305346 0.0029766 0.00290566 0.00284064 0.00278155 0.00272839 0.002581 0.00223923 0.00170308 0.000972559 4.76563e-05 -0.00107162 -0.00238528 -0.00389332 -0.00550175 -0.0071166 -0.00873786 -0.0103655 -0.0119996 -0.0136401 -0.0152871 -0.0169404 -0.0185878 -0.0202171 -0.0218282 -0.023421 -0.0249957 -0.0265522 -0.0280906 -0.0296107 -0.0310274 -0.0322554 -0.0332947 -0.0341454 -0.0348074 -0.0352806 -0.0355653 -0.0356612 -0.0355671 -0.0352814 -0.0348043 -0.0341357 -0.0332756 -0.032224 -0.0309809 -0.0295463 -0.0280112 -0.0264667 -0.0249128 -0.0233494 -0.0217765 -0.0201942 -0.0186024 -0.0170012 -0.0154062 -0.0138332 -0.012282 -0.0107528 -0.00924557 -0.00776022 -0.00629679 -0.0048553 -0.00352094 -0.00237895 -0.00142932 -0.000672049 -0.00010714 0.000265408 0.000445595 0.000433421 0.000331838 0.000243799 0.000169305 0.000108355 6.09498e-05 2.70888e-05 6.7722e-06 0 0 4.94258e-06 1.97703e-05 4.44832e-05 7.90813e-05 0.000123565 0.000177933 0.000242186 0.000316325 0.00039124 0.000457824 0.000516075 0.000565993 0.00060758 0.000640835 0.000665758 0.000682348 0.000679582 0.000646435 0.000582908 0.000488999 0.00036471 0.00021004 2.49891e-05 -0.000190442 -0.000402461 -0.000577274 -0.000714881 -0.000815282 -0.000878477 -0.000904465 -0.000893248 -0.000844825 -0.00078593 -0.000743299 -0.000716931 -0.000706827 -0.000712986 -0.000735409 -0.000774096 -0.000829046 -0.000881777 -0.000913808 -0.000925138 -0.000915767 -0.000885695 -0.000834922 -0.000763449 -0.000671274 -0.000568505 -0.000465244 -0.000361494 -0.000257253 -0.000152522 -4.73012e-05 5.84103e-05 0.000164612 0.000182375 2.2769e-05 -0.000314205 -0.000828548 -0.00152026 -0.00238934 -0.00343579 -0.0046596 -0.00592261 -0.00708663 -0.00815167 -0.00911772 -0.00998479 -0.0107529 -0.011422 -0.0119921 -0.0125679 -0.0132541 -0.0140507 -0.0149577 -0.0159751 -0.0171029 -0.018341 -0.0196896 -0.0210055 -0.0221458 -0.0231104 -0.0238992 -0.0245125 -0.02495 -0.0252118 -0.025298 -0.0252079 -0.0249409 -0.024497 -0.0238762 -0.0230785 -0.022104 -0.0209525 -0.0196242 -0.0182678 -0.0170321 -0.0159171 -0.0149228 -0.0140493 -0.0132965 -0.0126644 -0.012153 -0.0116507 -0.0110458 -0.0103384 -0.00952834 -0.00861572 -0.00760052 -0.00648273 -0.00526237 -0.00406882 -0.00303148 -0.00215036 -0.00142544 -0.000856734 -0.000444238 -0.000187953 -8.7878e-05 -6.72816e-05 -4.94314e-05 -3.43273e-05 -2.19695e-05 -1.23578e-05 -5.49237e-06 -1.37309e-06 0 0 7.09242e-06 2.83697e-05 6.38317e-05 0.000113479 0.00017731 0.000255327 0.000347528 0.000453915 0.000548494 0.000605276 0.00062426 0.000605447 0.000548835 0.000454426 0.000322218 0.000152213 -6.46116e-05 -0.000337279 -0.000665788 -0.00105014 -0.00149033 -0.00198637 -0.00253824 -0.00314596 -0.0037505 -0.00429281 -0.00477292 -0.00519081 -0.00554648 -0.00583994 -0.00607118 -0.00624021 -0.00637406 -0.00649977 -0.00661734 -0.00672677 -0.00682806 -0.0069212 -0.0070062 -0.00708306 -0.0071286 -0.00711962 -0.00705612 -0.00693812 -0.0067656 -0.00653857 -0.00625702 -0.00592096 -0.005561 -0.00520775 -0.0048612 -0.00452137 -0.00418824 -0.00386182 -0.00354212 -0.00322912 -0.00299375 -0.00290694 -0.00296869 -0.00317899 -0.00353785 -0.00404527 -0.00470125 -0.00550578 -0.00626723 -0.00679395 -0.00708594 -0.0071432 -0.00696572 -0.00655352 -0.0059066 -0.00502494 -0.0041641 -0.00357962 -0.00327151 -0.00323976 -0.00348438 -0.00400536 -0.00480271 -0.00587642 -0.0070122 -0.00799575 -0.00882708 -0.00950617 -0.010033 -0.0104077 -0.0106301 -0.0107003 -0.0106187 -0.0103858 -0.0100017 -0.00946632 -0.00877965 -0.0079417 -0.00695247 -0.00581197 -0.00474004 -0.00395654 -0.00346146 -0.00325481 -0.00333658 -0.00370678 -0.0043654 -0.00531245 -0.00627199 -0.00696809 -0.00740074 -0.00756995 -0.00747572 -0.00711804 -0.00649691 -0.00561235 -0.00464749 -0.00378549 -0.00302636 -0.00237008 -0.00181667 -0.00136612 -0.00101843 -0.000773598 -0.000592286 -0.000435149 -0.000302187 -0.0001934 -0.000108787 -4.83499e-05 -1.20875e-05 0 0 9.6316e-06 3.85264e-05 8.66844e-05 0.000154106 0.00024079 0.000346738 0.000471948 0.000616423 0.000733425 0.000776222 0.000744814 0.000639199 0.000459379 0.000205354 -0.000122878 -0.000525315 -0.00100819 -0.00157775 -0.00223397 -0.00297688 -0.00380646 -0.00472271 -0.00572564 -0.00681525 -0.00790204 -0.00889653 -0.00979872 -0.0106086 -0.0113262 -0.0119515 -0.0124845 -0.0129252 -0.0133002 -0.0136364 -0.0139336 -0.0141919 -0.0144113 -0.0145918 -0.0147333 -0.0148359 -0.0148711 -0.0148102 -0.0146534 -0.0144006 -0.0140518 -0.013607 -0.0130662 -0.0124295 -0.0117525 -0.0110913 -0.0104457 -0.00981575 -0.0092015 -0.00860293 -0.00802002 -0.00745279 -0.00694737 -0.00654989 -0.00626036 -0.00607877 -0.00600512 -0.00603942 -0.00618166 -0.00643185 -0.0065356 -0.00623854 -0.00554065 -0.00444195 -0.00294244 -0.0010421 0.00125905 0.00396102 0.00662353 0.00880632 0.0105094 0.0117327 0.0124764 0.0127403 0.0125244 0.0118289 0.0109526 0.0101947 0.00955512 0.00903385 0.0086309 0.00834627 0.00817998 0.008132 0.00820052 0.00838368 0.0086815 0.00909397 0.00962109 0.0102629 0.0110193 0.0118904 0.0125719 0.0127599 0.0124541 0.0116547 0.0103616 0.00857492 0.00629454 0.0035205 0.000729964 -0.00159991 -0.00346912 -0.00487767 -0.00582555 -0.00631278 -0.00633933 -0.00590523 -0.00525695 -0.00464098 -0.00405732 -0.00350598 -0.00298695 -0.00250024 -0.00204583 -0.00162374 -0.00124318 -0.000913354 -0.000634273 -0.000405935 -0.000228338 -0.000101484 -2.53709e-05 0 0 1.25601e-05 5.02405e-05 0.000113041 0.000200962 0.000314003 0.000452165 0.000615447 0.000803849 0.000946033 0.000970662 0.000877735 0.000667252 0.000339213 -0.000106381 -0.000669531 -0.00135024 -0.00215116 -0.00307496 -0.00412165 -0.00529122 -0.00658367 -0.00799899 -0.0095372 -0.0111983 -0.0128571 -0.0143884 -0.0157923 -0.0170687 -0.0182176 -0.0192391 -0.0201331 -0.0208997 -0.0215644 -0.0221531 -0.0226657 -0.0231023 -0.0234627 -0.0237471 -0.0239554 -0.0240876 -0.0241092 -0.0239857 -0.023717 -0.0233033 -0.0227443 -0.0220403 -0.0211911 -0.0201968 -0.0191431 -0.0181158 -0.0171149 -0.0161404 -0.0151923 -0.0142706 -0.0133753 -0.0125064 -0.0116785 -0.0109061 -0.0101892 -0.00952788 -0.00892207 -0.00837179 -0.00787704 -0.00743781 -0.00672773 -0.0054204 -0.00351582 -0.00101399 0.00208508 0.0057814 0.010075 0.0149658 0.019795 0.0239037 0.027292 0.0299598 0.0319071 0.033134 0.0336404 0.0334263 0.032889 0.0324256 0.0320362 0.0317208 0.0314794 0.0313119 0.0312183 0.0311988 0.0312497 0.0313677 0.0315527 0.0318047 0.0321237 0.0325097 0.0329628 0.0334828 0.0336682 0.0331171 0.0318296 0.0298057 0.0270454 0.0235486 0.0193154 0.0143458 0.00935515 0.00505869 0.00145647 -0.0014515 -0.00366524 -0.00518474 -0.00600999 -0.00614101 -0.00589719 -0.00559794 -0.00524325 -0.00483313 -0.00436758 -0.00384659 -0.00327016 -0.0026383 -0.00201995 -0.00148405 -0.00103059 -0.000659576 -0.000371011 -0.000164894 -4.12235e-05 0 0 1.44424e-05 5.77697e-05 0.000129982 0.000231079 0.00036106 0.000519927 0.000707678 0.000924315 0.00107752 0.00107496 0.000916651 0.000602585 0.000132764 -0.000492813 -0.00127415 -0.00221123 -0.00329809 -0.00452873 -0.00590314 -0.00742134 -0.00908332 -0.0108891 -0.0128386 -0.0149319 -0.0170239 -0.0189693 -0.0207682 -0.0224207 -0.0239265 -0.0252859 -0.0264988 -0.0275651 -0.0285027 -0.0293291 -0.0300445 -0.0306489 -0.0311421 -0.0315243 -0.0317954 -0.0319554 -0.0319636 -0.0317791 -0.031402 -0.0308323 -0.0300699 -0.0291149 -0.0279672 -0.026627 -0.0252201 -0.0238728 -0.0225851 -0.0213569 -0.0201882 -0.0190791 -0.0180295 -0.0170395 -0.0160595 -0.0150402 -0.0139814 -0.0128833 -0.0117458 -0.0105689 -0.00935263 -0.00809697 -0.00639941 -0.00385744 -0.000471049 0.00375976 0.00883498 0.0147546 0.0215187 0.0291271 0.0366526 0.0431678 0.0486726 0.053167 0.0566511 0.0591248 0.0605882 0.0610412 0.0609938 0.060956 0.0609278 0.0609091 0.0609 0.0609005 0.0609106 0.0609302 0.0609539 0.0609761 0.060997 0.0610164 0.0610343 0.0610509 0.061066 0.0610797 0.0605801 0.0590553 0.0565053 0.0529301 0.0483297 0.0427042 0.0360534 0.0283774 0.0206752 0.0139456 0.00818863 0.0034043 -0.000407386 -0.00324644 -0.00511285 -0.00600663 -0.00632896 -0.00648104 -0.00646287 -0.00627445 -0.00591577 -0.00538684 -0.00468766 -0.00381823 -0.00292333 -0.00214775 -0.0014915 -0.000954558 -0.000536939 -0.000238639 -5.96599e-05 0 0 1.38428e-05 5.53713e-05 0.000124586 0.000221485 0.000346071 0.000498342 0.000678299 0.000885942 0.00101907 0.000975487 0.00075519 0.00035818 -0.000215542 -0.000965978 -0.00189313 -0.00299699 -0.00425355 -0.00563881 -0.00715277 -0.00879543 -0.0105668 -0.0124668 -0.0144956 -0.016653 -0.0188107 -0.02084 -0.0227412 -0.0245141 -0.0261587 -0.027675 -0.0290631 -0.0303229 -0.0314509 -0.0324436 -0.0333008 -0.0340227 -0.0346093 -0.0350604 -0.0353762 -0.0355566 -0.0355547 -0.0353236 -0.0348634 -0.0341739 -0.0332553 -0.0321074 -0.0307304 -0.0291242 -0.0274712 -0.025954 -0.0245725 -0.0233268 -0.0222168 -0.0212426 -0.0204041 -0.0197014 -0.0189628 -0.0180167 -0.0168631 -0.015502 -0.0139334 -0.0121573 -0.0101737 -0.00798263 -0.00510645 -0.00106756 0.00413405 0.0104984 0.0180254 0.0267152 0.0365676 0.0475828 0.0584988 0.0680536 0.0762473 0.0830799 0.0885514 0.0926617 0.0954109 0.096799 0.0974642 0.098045 0.0985414 0.0989533 0.0992807 0.0995237 0.0996822 0.0997562 0.0997378 0.0996188 0.0993995 0.0990796 0.0986592 0.0981384 0.0975171 0.0967954 0.0953391 0.0925145 0.0883214 0.0827598 0.0758298 0.0675314 0.0578645 0.0468291 0.0357617 0.0259987 0.0175399 0.0103855 0.00453538 -1.04e-05 -0.00325186 -0.005189 -0.00631298 -0.00711494 -0.00759489 -0.00775283 -0.00758875 -0.00710267 -0.00629457 -0.00516446 -0.00395404 -0.00290501 -0.00201737 -0.00129112 -0.000726252 -0.000322779 -8.06947e-05 0 0 1.07614e-05 4.30456e-05 9.68526e-05 0.000172182 0.000269035 0.00038741 0.000527308 0.000688729 0.000770698 0.000672239 0.000393352 -6.59629e-05 -0.000705705 -0.00152588 -0.00252647 -0.0037075 -0.00501755 -0.00640523 -0.00787054 -0.00941347 -0.011034 -0.0127322 -0.014508 -0.0163615 -0.0182174 -0.0200006 -0.0217111 -0.0233489 -0.024914 -0.0264064 -0.0278261 -0.0291731 -0.0304092 -0.0314964 -0.0324346 -0.0332239 -0.0338641 -0.0343554 -0.0346978 -0.0348911 -0.0348826 -0.0346192 -0.0341011 -0.0333281 -0.0323004 -0.0310178 -0.0294805 -0.0276883 -0.0258963 -0.0243592 -0.0230772 -0.0220502 -0.0212782 -0.0207612 -0.0204992 -0.0204922 -0.0203883 -0.0198357 -0.0188342 -0.0173839 -0.0154848 -0.013137 -0.0103403 -0.0070948 -0.00284885 0.00294925 0.0102995 0.0192019 0.0296564 0.0416631 0.0552219 0.0703328 0.0853334 0.0985613 0.110016 0.119699 0.127608 0.133745 0.138108 0.1407 0.1423 0.143693 0.144877 0.145853 0.146621 0.147181 0.147533 0.147677 0.147601 0.147296 0.14676 0.145994 0.144998 0.143772 0.142316 0.14063 0.137945 0.133495 0.127278 0.119295 0.109546 0.0980302 0.0847487 0.069701 0.0546148 0.0412179 0.0295103 0.0194921 0.0111631 0.00452338 -0.000427028 -0.00368814 -0.00584924 -0.00749964 -0.00863932 -0.00926828 -0.00938653 -0.00899407 -0.00809089 -0.006677 -0.00511208 -0.00375581 -0.0026082 -0.00166925 -0.000938953 -0.000417312 -0.000104328 0 0 5.1981e-06 2.07924e-05 4.67829e-05 8.31696e-05 0.000129952 0.000187132 0.000254707 0.000332678 0.000332398 0.000165217 -0.000168863 -0.000669844 -0.00133772 -0.00217251 -0.00317419 -0.00434277 -0.00559009 -0.00682798 -0.00805645 -0.00927549 -0.0104851 -0.0116853 -0.0128761 -0.0140574 -0.0152441 -0.016451 -0.017678 -0.0189252 -0.0201925 -0.0214801 -0.0227877 -0.0241156 -0.0253776 -0.0264877 -0.0274459 -0.0282523 -0.0289068 -0.0294094 -0.0297601 -0.029959 -0.0299472 -0.0296659 -0.0291152 -0.028295 -0.0272053 -0.0258462 -0.0242176 -0.0223195 -0.0204954 -0.0190886 -0.0180991 -0.017527 -0.0173722 -0.0176348 -0.0183147 -0.0194119 -0.0203362 -0.0204971 -0.0198948 -0.0185291 -0.0164002 -0.0135079 -0.00985233 -0.00543346 0.000373406 0.00819298 0.0180253 0.0298702 0.0437279 0.0595983 0.0774814 0.0973771 0.117157 0.134691 0.149979 0.163023 0.173821 0.182374 0.188681 0.192743 0.195502 0.197899 0.199935 0.201609 0.202922 0.203873 0.204463 0.204692 0.204545 0.204007 0.203079 0.201761 0.200052 0.197953 0.195463 0.192583 0.188399 0.181996 0.173375 0.162535 0.149477 0.134201 0.116706 0.0969929 0.0772344 0.0596034 0.0440999 0.030724 0.0194757 0.0103549 0.00336165 -0.00150403 -0.00493776 -0.00763514 -0.00959615 -0.0108208 -0.0113091 -0.011061 -0.0100766 -0.00835584 -0.00639744 -0.00470016 -0.003264 -0.00208896 -0.00117504 -0.00052224 -0.00013056 0 0 -2.84706e-06 -1.13882e-05 -2.56235e-05 -4.5553e-05 -7.11765e-05 -0.000102494 -0.000139506 -0.000182212 -0.00029583 -0.000545578 -0.000931455 -0.00145346 -0.0021116 -0.00290587 -0.00383627 -0.00490279 -0.00597115 -0.00690705 -0.00771049 -0.00838146 -0.00891997 -0.00932602 -0.00959961 -0.00974073 -0.00989079 -0.0101912 -0.0106419 -0.0112429 -0.0119943 -0.012896 -0.0139481 -0.0151504 -0.0163559 -0.0174173 -0.0183347 -0.0191079 -0.0197371 -0.0202222 -0.0205633 -0.0207602 -0.0207486 -0.0204637 -0.0199057 -0.0190