<?xml version="1.0"?> 
<VTKFile type="StructuredGrid" version="0.1"> 
<StructuredGrid WholeExtent="0 128 0 128 0 0"> 
<Piece Extent="0 128 0 128 0 0"> 
<PointData>
<DataArray type="Float32" Name="u" format="ascii" NumberOfComponents="1"> 
0 0 0 0 0 0 0 0 0 0 0 0 0 0 0 0 0 0 0 0 0 0 0 0 0 0 0 0 0 0 0 0 0 0 0 0 0 0 0 0 0 0 0 0 0 0 0 0 0 0 0 0 0 0 0 0 0 0 0 0 0 0 0 0 0 0 0 0 0 0 0 0 0 0 0 0 0 0 0 0 0 0 0 0 0 0 0 0 0 0 0 0 0 0 0 0 0 0 0 0 0 0 0 0 0 0 0 0 0 0 0 0 0 0 0 0 0 0 0 0 0 0 0 0 0 0 0 0 0 0 -3.07751e-07 -1.231e-06 -2.76976e-06 -4.92402e-06 -7.69378e-06 -1.1079e-05 -1.50798e-05 -1.96961e-05 -2.50146e-05 -3.11221e-05 -3.80186e-05 -4.57042e-05 -5.41787e-05 -6.34423e-05 -7.34948e-05 -8.43364e-05 -9.56662e-05 -0.000107183 -0.000118888 -0.00013078 -0.00014286 -0.000155127 -0.000167582 -0.000180224 -0.000192688 -0.000204609 -0.000215987 -0.000226821 -0.000237113 -0.000246861 -0.000256066 -0.000264727 -0.000272573 -0.00027933 -0.000284998 -0.000289577 -0.000293068 -0.00029547 -0.000296783 -0.000297007 -0.000296455 -0.000295436 -0.000293953 -0.000292003 -0.000289589 -0.000286708 -0.000283363 -0.000279551 -0.000275371 -0.000270917 -0.00026619 -0.000261191 -0.000255918 -0.000250372 -0.000244553 -0.000238462 -0.000231534 -0.000223206 -0.000213479 -0.000202352 -0.000189825 -0.000175899 -0.000160573 -0.000143848 -0.000125855 -0.000106727 -8.64631e-05 -6.5064e-05 -4.25296e-05 -1.88597e-05 5.94554e-06 3.18862e-05 5.78746e-05 8.28231e-05 0.000106732 0.0001296 0.000151429 0.000172218 0.000191967 0.000210676 0.000227656 0.000242218 0.000254361 0.000264085 0.000271391 0.000276278 0.000278747 0.000278798 0.000276556 0.000272148 0.000265574 0.000256834 0.000245929 0.000232857 0.00021762 0.000200216 0.000181599 0.000162721 0.000143581 0.000124181 0.000104519 8.45953e-05 6.44108e-05 4.3965e-05 2.45209e-05 7.34114e-06 -7.57413e-06 -2.0225e-05 -3.06113e-05 -3.87333e-05 -4.45908e-05 -4.81838e-05 -5.00375e-05 -5.06769e-05 -5.01021e-05 -4.83129e-05 -4.53095e-05 -4.10918e-05 -3.56598e-05 -2.90136e-05 -2.22135e-05 -1.63201e-05 -1.13334e-05 -7.2534e-06 -4.08004e-06 -1.81335e-06 -4.53337e-07 0 0 -1.231e-06 -4.92402e-06 -1.1079e-05 -1.96961e-05 -3.07751e-05 -4.43162e-05 -6.03192e-05 -7.87843e-05 -0.000100058 -0.000124488 -0.000152075 -0.000182817 -0.000216715 -0.000253769 -0.000293979 -0.000337345 -0.000382665 -0.000428734 -0.000475553 -0.000523121 -0.00057144 -0.000620509 -0.000670327 -0.000720896 -0.000770752 -0.000818436 -0.000863947 -0.000907285 -0.000948451 -0.000987443 -0.00102426 -0.00105891 -0.00109029 -0.00111732 -0.00113999 -0.00115831 -0.00117227 -0.00118188 -0.00118713 -0.00118803 -0.00118582 -0.00118175 -0.00117581 -0.00116801 -0.00115835 -0.00114683 -0.00113345 -0.0011182 -0.00110148 -0.00108367 -0.00106476 -0.00104476 -0.00102367 -0.00100149 -0.000978214 -0.000953847 -0.000926135 -0.000892824 -0.000853915 -0.000809407 -0.000759301 -0.000703596 -0.000642293 -0.000575392 -0.00050342 -0.000426907 -0.000345852 -0.000260256 -0.000170118 -7.54388e-05 2.37822e-05 0.000127545 0.000231498 0.000331292 0.000426927 0.000518402 0.000605717 0.000688873 0.000767869 0.000842706 0.000910626 0.000968871 0.00101744 0.00105634 0.00108556 0.00110511 0.00111499 0.00111519 0.00110622 0.00108859 0.0010623 0.00102734 0.000983715 0.000931429 0.000870479 0.000800865 0.000726397 0.000650884 0.000574325 0.000496722 0.000418074 0.000338381 0.000257643 0.00017586 9.80834e-05 2.93646e-05 -3.02965e-05 -8.08998e-05 -0.000122445 -0.000154933 -0.000178363 -0.000192735 -0.00020015 -0.000202708 -0.000200408 -0.000193252 -0.000181238 -0.000164367 -0.000142639 -0.000116054 -8.88541e-05 -6.52806e-05 -4.53337e-05 -2.90136e-05 -1.63201e-05 -7.2534e-06 -1.81335e-06 0 0 -2.76976e-06 -1.1079e-05 -2.49278e-05 -4.43162e-05 -6.9244e-05 -9.97114e-05 -0.000135718 -0.000177265 -0.000225131 -0.000280099 -0.000342168 -0.000411338 -0.000487609 -0.00057098 -0.000661453 -0.000759027 -0.000860995 -0.000964651 -0.00106999 -0.00117702 -0.00128574 -0.00139614 -0.00150824 -0.00162201 -0.00173419 -0.00184148 -0.00194388 -0.00204139 -0.00213401 -0.00222175 -0.00230459 -0.00238254 -0.00245315 -0.00251397 -0.00256498 -0.00260619 -0.00263761 -0.00265923 -0.00267105 -0.00267307 -0.00266809 -0.00265893 -0.00264557 -0.00262803 -0.0026063 -0.00258038 -0.00255026 -0.00251596 -0.00247834 -0.00243825 -0.00239571 -0.00235072 -0.00230326 -0.00225335 -0.00220098 -0.00214616 -0.0020838 -0.00200885 -0.00192131 -0.00182117 -0.00170843 -0.00158309 -0.00144516 -0.00129463 -0.0011327 -0.000960541 -0.000778168 -0.000585576 -0.000382766 -0.000169737 5.35099e-05 0.000286976 0.000520871 0.000745408 0.000960585 0.0011664 0.00136286 0.00154996 0.00172771 0.00189609 0.00204891 0.00217996 0.00228925 0.00237677 0.00244252 0.00248651 0.00250873 0.00250918 0.002489 0.00244933 0.00239017 0.00231151 0.00221336 0.00209571 0.00195858 0.00180195 0.00163439 0.00146449 0.00129223 0.00111763 0.000940667 0.000761358 0.000579697 0.000395685 0.000220688 6.60703e-05 -6.81672e-05 -0.000182025 -0.000275502 -0.0003486 -0.000401317 -0.000433655 -0.000450338 -0.000456093 -0.000450919 -0.000434816 -0.000407786 -0.000369826 -0.000320939 -0.000261122 -0.000199922 -0.000146881 -0.000102001 -6.52806e-05 -3.67203e-05 -1.63201e-05 -4.08004e-06 0 0 -4.92402e-06 -1.96961e-05 -4.43162e-05 -7.87843e-05 -0.0001231 -0.000177265 -0.000241277 -0.000315137 -0.000400233 -0.000497954 -0.000608298 -0.000731267 -0.00086686 -0.00101508 -0.00117592 -0.00134938 -0.00153066 -0.00171493 -0.00190221 -0.00209249 -0.00228576 -0.00248203 -0.00268131 -0.00288358 -0.00308301 -0.00327375 -0.00345579 -0.00362914 -0.0037938 -0.00394977 -0.00409705 -0.00423563 -0.00436116 -0.00446927 -0.00455996 -0.00463323 -0.00468908 -0.00472752 -0.00474853 -0.00475212 -0.00474327 -0.00472698 -0.00470324 -0.00467205 -0.00463342 -0.00458733 -0.0045338 -0.00447282 -0.00440593 -0.00433467 -0.00425905 -0.00417905 -0.00409469 -0.00400596 -0.00391286 -0.00381539 -0.00370454 -0.0035713 -0.00341566 -0.00323763 -0.0030372 -0.00281438 -0.00256917 -0.00230157 -0.00201368 -0.00170763 -0.00138341 -0.00104102 -0.000680473 -0.000301755 9.51287e-05 0.000510179 0.000925993 0.00132517 0.00170771 0.00207361 0.00242287 0.00275549 0.00307148 0.00337082 0.0036425 0.00387549 0.00406977 0.00422536 0.00434226 0.00442045 0.00445996 0.00446076 0.00442489 0.00435437 0.00424919 0.00410935 0.00393486 0.00372571 0.00348191 0.00320346 0.00290559 0.00260353 0.0022973 0.00198689 0.0016723 0.00135352 0.00103057 0.00070344 0.000392334 0.000117458 -0.000121186 -0.000323599 -0.000489782 -0.000619733 -0.000713453 -0.000770941 -0.000800601 -0.000810831 -0.000801633 -0.000773007 -0.000724952 -0.000657469 -0.000570557 -0.000464217 -0.000355416 -0.000261122 -0.000181335 -0.000116054 -6.52806e-05 -2.90136e-05 -7.2534e-06 0 0 -7.69378e-06 -3.07751e-05 -6.9244e-05 -0.0001231 -0.000192344 -0.000276976 -0.000376995 -0.000492402 -0.000625365 -0.000778053 -0.000950466 -0.0011426 -0.00135447 -0.00158606 -0.00183737 -0.00210841 -0.00239165 -0.00267959 -0.0029722 -0.00326951 -0.0035715 -0.00387818 -0.00418955 -0.0045056 -0.0048172 -0.00511523 -0.00539967 -0.00567053 -0.00592782 -0.00617152 -0.00640164 -0.00661818 -0.00681432 -0.00698324 -0.00712494 -0.00723943 -0.0073267 -0.00738674 -0.00741957 -0.00742518 -0.00741137 -0.00738591 -0.00734882 -0.00730009 -0.00723972 -0.00716771 -0.00708406 -0.00698878 -0.00688427 -0.00677292 -0.00665476 -0.00652977 -0.00639795 -0.00625931 -0.00611384 -0.00596154 -0.00578834 -0.00558015 -0.00533697 -0.00505879 -0.00474563 -0.00439748 -0.00401433 -0.0035962 -0.00314638 -0.00266817 -0.00216158 -0.0016266 -0.00106324 -0.000471493 0.000148639 0.000797154 0.00144686 0.00207058 0.00266829 0.00324001 0.00378573 0.00430545 0.00479918 0.00526691 0.00569141 0.00605545 0.00635902 0.00660213 0.00678478 0.00690696 0.00696868 0.00696994 0.00691389 0.0068037 0.00663935 0.00642086 0.00614822 0.00582143 0.00544049 0.00500541 0.00453998 0.00406802 0.00358953 0.00310451 0.00261296 0.00211488 0.00161027 0.00109913 0.000613021 0.000183528 -0.000189353 -0.000505624 -0.000765284 -0.000968332 -0.00111477 -0.0012046 -0.00125094 -0.00126692 -0.00125255 -0.00120782 -0.00113274 -0.0010273 -0.000891496 -0.00072534 -0.000555338 -0.000408004 -0.000283336 -0.000181335 -0.000102001 -4.53337e-05 -1.13334e-05 0 0 -1.1079e-05 -4.43162e-05 -9.97114e-05 -0.000177265 -0.000276976 -0.000398845 -0.000542873 -0.000709059 -0.000900525 -0.0011204 -0.00136867 -0.00164535 -0.00195043 -0.00228392 -0.00264581 -0.00303611 -0.00344398 -0.0038586 -0.00427997 -0.00470809 -0.00514296 -0.00558458 -0.00603294 -0.00648806 -0.00693677 -0.00736593 -0.00777553 -0.00816557 -0.00853605 -0.00888698 -0.00921836 -0.00953018 -0.00981262 -0.0100559 -0.0102599 -0.0104248 -0.0105504 -0.0106369 -0.0106842 -0.0106923 -0.0106724 -0.0106357 -0.0105823 -0.0105121 -0.0104252 -0.0103215 -0.0102011 -0.0100638 -0.00991334 -0.00975301 -0.00958285 -0.00940286 -0.00921305 -0.0090134 -0.00880393 -0.00858462 -0.00833521 -0.00803541 -0.00768523 -0.00728466 -0.00683371 -0.00633236 -0.00578064 -0.00517852 -0.00453078 -0.00384216 -0.00311267 -0.0023423 -0.00153106 -0.000678949 0.000214039 0.0011479 0.00208348 0.00298163 0.00384234 0.00466561 0.00545145 0.00619986 0.00691082 0.00758435 0.00819563 0.00871984 0.00915699 0.00950707 0.00977008 0.00994602 0.0100349 0.0100367 0.00995601 0.00979732 0.00956067 0.00924604 0.00885344 0.00838286 0.00783431 0.00720778 0.00653757 0.00585795 0.00516893 0.0044705 0.00376267 0.00304543 0.00231879 0.00158274 0.000882751 0.000264281 -0.000272669 -0.000728099 -0.00110201 -0.0013944 -0.00160527 -0.00173462 -0.00180135 -0.00182437 -0.00180367 -0.00173927 -0.00163114 -0.00147931 -0.00128375 -0.00104449 -0.000799687 -0.000587525 -0.000408004 -0.000261122 -0.000146881 -6.52806e-05 -1.63201e-05 0 0 -1.50798e-05 -6.03192e-05 -0.000135718 -0.000241277 -0.000376995 -0.000542873 -0.00073891 -0.000965107 -0.00122571 -0.00152498 -0.00186291 -0.0022395 -0.00265476 -0.00310867 -0.00360125 -0.00413248 -0.00468764 -0.00525199 -0.00582552 -0.00640824 -0.00700014 -0.00760123 -0.00821151 -0.00883097 -0.00944172 -0.0100258 -0.0105834 -0.0111142 -0.0116185 -0.0120962 -0.0125472 -0.0129716 -0.0133561 -0.0136872 -0.0139649 -0.0141893 -0.0143603 -0.014478 -0.0145424 -0.0145534 -0.0145263 -0.0144764 -0.0144037 -0.0143082 -0.0141898 -0.0140487 -0.0138848 -0.013698 -0.0134932 -0.0132749 -0.0130433 -0.0127983 -0.01254 -0.0122682 -0.0119831 -0.0116846 -0.0113451 -0.0109371 -0.0104605 -0.00991523 -0.00930143 -0.00861905 -0.00786809 -0.00704855 -0.0061669 -0.00522961 -0.00423669 -0.00318814 -0.00208395 -0.000924125 0.000291332 0.00156242 0.00283585 0.00405833 0.00522985 0.00635042 0.00742003 0.00843869 0.0094064 0.0103231 0.0111552 0.0118687 0.0124637 0.0129402 0.0132982 0.0135376 0.0136586 0.0136611 0.0135512 0.0133352 0.0130131 0.0125849 0.0120505 0.01141 0.0106634 0.00981059 0.00889836 0.00797332 0.00703549 0.00608485 0.00512141 0.00414517 0.00315613 0.00215429 0.00120152 0.000359716 -0.000371133 -0.000991023 -0.00149996 -0.00189793 -0.00218495 -0.00236101 -0.00245184 -0.00248317 -0.002455 -0.00236733 -0.00222017 -0.0020135 -0.00174733 -0.00142167 -0.00108846 -0.000799687 -0.000555338 -0.000355416 -0.000199922 -8.88541e-05 -2.22135e-05 0 0 -1.96961e-05 -7.87843e-05 -0.000177265 -0.000315137 -0.000492402 -0.000709059 -0.000965107 -0.00126055 -0.00160093 -0.00199182 -0.00243319 -0.00292507 -0.00346744 -0.00406031 -0.00470367 -0.00539753 -0.00612263 -0.00685974 -0.00760884 -0.00836994 -0.00914304 -0.00992814 -0.0107252 -0.0115343 -0.012332 -0.013095 -0.0138232 -0.0145166 -0.0151752 -0.0157991 -0.0163882 -0.0169425 -0.0174447 -0.0178771 -0.0182399 -0.0185329 -0.0187563 -0.0189101 -0.0189941 -0.0190085 -0.0189731 -0.0189079 -0.018813 -0.0186882 -0.0185337 -0.0183493 -0.0181352 -0.0178913 -0.0176237 -0.0173387 -0.0170362 -0.0167162 -0.0163787 -0.0160238 -0.0156514 -0.0152616 -0.0148182 -0.0142852 -0.0136626 -0.0129505 -0.0121488 -0.0112575 -0.0102767 -0.00920626 -0.00805472 -0.00683051 -0.00553364 -0.0041641 -0.00272189 -0.00120702 0.000380515 0.00204072 0.00370397 0.00530068 0.00683083 0.00829443 0.00969147 0.011022 0.0122859 0.0134833 0.01457 0.0155019 0.0162791 0.0169015 0.017369 0.0176818 0.0178398 0.017843 0.0176996 0.0174175 0.0169967 0.0164374 0.0157394 0.0149029 0.0139277 0.0128138 0.0116223 0.0104141 0.00918921 0.00794756 0.00668919 0.0054141 0.00412229 0.00281376 0.00156933 0.000469833 -0.000484745 -0.0012944 -0.00195913 -0.00247893 -0.00285381 -0.00308377 -0.0032024 -0.00324332 -0.00320653 -0.00309203 -0.00289981 -0.00262988 -0.00228223 -0.00185687 -0.00142167 -0.00104449 -0.00072534 -0.000464217 -0.000261122 -0.000116054 -2.90136e-05 0 0 -2.47052e-05 -9.88206e-05 -0.000222346 -0.000395283 -0.000617629 -0.000889386 -0.00121055 -0.00158113 -0.002007 -0.00249406 -0.00304229 -0.00365171 -0.0043223 -0.00505408 -0.00584704 -0.00670118 -0.00759222 -0.0084959 -0.00941221 -0.0103412 -0.0112827 -0.012237 -0.0132038 -0.0141833 -0.0151477 -0.0160692 -0.0169479 -0.0177837 -0.0185767 -0.0193268 -0.0200341 -0.0206985 -0.0212998 -0.0218179 -0.0222526 -0.0226041 -0.0228722 -0.0230571 -0.0231586 -0.0231768 -0.0231367 -0.023063 -0.0229559 -0.0228152 -0.0226411 -0.0224335 -0.0221924 -0.0219178 -0.0216148 -0.0212887 -0.0209394 -0.0205669 -0.0201712 -0.0197523 -0.0193103 -0.0188451 -0.0183085 -0.0176525 -0.0168769 -0.0159819 -0.0149674 -0.0138334 -0.0125799 -0.0112069 -0.00972527 -0.008146 -0.00646906 -0.00469444 -0.00282214 -0.000852159 0.0012155 0.00338083 0.00555244 0.00763894 0.00964032 0.0115566 0.0133877 0.0151337 0.0167947 0.0183705 0.0198021 0.0210307 0.0220561 0.0228784 0.0234975 0.0239136 0.0241265 0.0241362 0.0239531 0.0235874 0.0230389 0.0223078 0.0213941 0.0202977 0.0190186 0.0175569 0.0159923 0.0144046 0.0127937 0.0111598 0.00950269 0.0078225 0.00611919 0.00439277 0.00274782 0.00128894 1.61177e-05 -0.00107063 -0.00197132 -0.00268594 -0.0032145 -0.00355699 -0.00375527 -0.0038512 -0.00384478 -0.00373601 -0.00352489 -0.00321141 -0.00279559 -0.00227741 -0.00174364 -0.00128104 -0.000889614 -0.000569353 -0.000320261 -0.000142338 -3.55846e-05 0 0 -2.98844e-05 -0.000119538 -0.00026896 -0.00047815 -0.00074711 -0.00107584 -0.00146434 -0.0019126 -0.00242474 -0.00300487 -0.00365299 -0.00436909 -0.00515318 -0.00600525 -0.00692531 -0.00791336 -0.00893967 -0.00997452 -0.0110179 -0.0120698 -0.0131303 -0.0141993 -0.0152769 -0.016363 -0.0174285 -0.0184443 -0.0194104 -0.0203267 -0.0211934 -0.0220103 -0.0227775 -0.023495 -0.024143 -0.0247017 -0.025171 -0.025551 -0.0258416 -0.026043 -0.026155 -0.0261777 -0.0261409 -0.0260743 -0.0259781 -0.0258522 -0.0256966 -0.0255113 -0.0252963 -0.0250516 -0.0247762 -0.0244693 -0.0241308 -0.0237608 -0.0233592 -0.022926 -0.0224613 -0.0219649 -0.0213706 -0.0206118 -0.0196886 -0.0186009 -0.0173487 -0.0159321 -0.014351 -0.0126055 -0.0107096 -0.00867722 -0.00650851 -0.00420341 -0.00176193 0.000815935 0.00353018 0.00638081 0.00924586 0.0120034 0.0146534 0.0171958 0.0196307 0.0219581 0.024178 0.0262903 0.0282135 0.0298659 0.0312475 0.0323584 0.0331985 0.0337679 0.0340665 0.0340943 0.0338641 0.0333883 0.0326671 0.0317005 0.0304883 0.0290307 0.0273277 0.0253792 0.0232909 0.0211688 0.0190127 0.0168226 0.0145986 0.0123406 0.0100487 0.00772291 0.0054986 0.00351133 0.00176108 0.000247853 -0.00102835 -0.00206752 -0.00286966 -0.00343478 -0.00381268 -0.00405318 -0.00415627 -0.00412195 -0.00395022 -0.00364109 -0.00319455 -0.0026106 -0.00199874 -0.00146846 -0.00101977 -0.000652651 -0.000367116 -0.000163163 -4.07907e-05 0 0 -3.52338e-05 -0.000140935 -0.000317104 -0.00056374 -0.000880844 -0.00126842 -0.00172645 -0.00225496 -0.00285416 -0.00352427 -0.00426529 -0.00507722 -0.00596006 -0.00691382 -0.00793849 -0.00903407 -0.010165 -0.0112956 -0.0124259 -0.013556 -0.0146858 -0.0158153 -0.0169445 -0.0180735 -0.0191746 -0.0202203 -0.0212107 -0.0221458 -0.0230254 -0.0238497 -0.0246186 -0.0253322 -0.0259742 -0.0265284 -0.0269949 -0.0273737 -0.0276646 -0.0278679 -0.0279833 -0.028011 -0.0279857 -0.0279419 -0.0278797 -0.0277991 -0.0277001 -0.0275827 -0.0274469 -0.0272927 -0.027108 -0.0268806 -0.0266106 -0.026298 -0.0259427 -0.0255448 -0.0251043 -0.0246211 -0.0240044 -0.0231632 -0.0220975 -0.0208074 -0.0192928 -0.0175538 -0.0155902 -0.0134022 -0.0110076 -0.00842417 -0.00565198 -0.00269101 0.000458737 0.00379726 0.00732457 0.0110407 0.0147842 0.018394 0.02187 0.0252121 0.0284205 0.0314951 0.0344358 0.0372428 0.039804 0.0420076 0.0438534 0.0453416 0.046472 0.0472448 0.0476599 0.0477173 0.0474323 0.0468203 0.0458813 0.0446152 0.0430221 0.041102 0.0388548 0.0362806 0.0335183 0.0307068 0.027846 0.0249361 0.0219769 0.0189685 0.015911 0.0128042 0.00982169 0.00713701 0.00475013 0.00266106 0.000869803 -0.000623651 -0.0018193 -0.00271714 -0.00337464 -0.00384925 -0.00414099 -0.00424984 -0.00417581 -0.0039189 -0.00347911 -0.00285644 -0.00218696 -0.00160675 -0.0011158 -0.000714111 -0.000401687 -0.000178528 -4.46319e-05 0 0 -4.07533e-05 -0.000163013 -0.00036678 -0.000652053 -0.00101883 -0.00146712 -0.00199691 -0.00260821 -0.00329524 -0.00405223 -0.00487918 -0.00577609 -0.00674296 -0.00777979 -0.00888657 -0.0100633 -0.0112681 -0.0124591 -0.0136363 -0.0147996 -0.0159491 -0.0170848 -0.0182066 -0.0193147 -0.0203859 -0.0213973 -0.0223489 -0.0232407 -0.0240728 -0.024845 -0.0255574 -0.02621 -0.0267934 -0.0272982 -0.0277245 -0.0280721 -0.0283412 -0.0285317 -0.0286436 -0.0286769 -0.0286711 -0.0286657 -0.0286606 -0.028656 -0.0286517 -0.0286478 -0.0286443 -0.0286412 -0.02861 -0.0285225 -0.0283786 -0.0281784 -0.0279217 -0.0276087 -0.0272393 -0.0268136 -0.0262098 -0.0253066 -0.0241038 -0.0226015 -0.0207997 -0.0186983 -0.0162974 -0.013597 -0.0106193 -0.00738684 -0.00389948 -0.000157244 0.00383986 0.00809182 0.0125987 0.0173604 0.0221675 0.0268108 0.0312901 0.0356056 0.0397571 0.0437446 0.0475683 0.051228 0.0545738 0.0574557 0.0598738 0.0618278 0.063318 0.0643443 0.0649067 0.0650051 0.064658 0.0638834 0.0626815 0.0610522 0.0589955 0.0565115 0.0536001 0.0502613 0.0466744 0.0430186 0.0392938 0.0355002 0.0316376 0.0277062 0.0237058 0.0196366 0.0157171 0.012166 0.00898328 0.006169 0.00372312 0.00164565 -6.34083e-05 -0.00140406 -0.00244113 -0.00323942 -0.00379894 -0.00411968 -0.00420165 -0.00404485 -0.00364928 -0.00301493 -0.00230831 -0.0016959 -0.00117771 -0.000753733 -0.000423975 -0.000188433 -4.71083e-05 0 0 -4.64429e-05 -0.000185772 -0.000417987 -0.000743087 -0.00116107 -0.00167195 -0.0022757 -0.00297235 -0.003748 -0.00458878 -0.00549468 -0.00646571 -0.00750187 -0.00860315 -0.00976956 -0.0110011 -0.0122491 -0.0134651 -0.0146489 -0.0158007 -0.0169203 -0.0180079 -0.0190633 -0.0200866 -0.0210624 -0.0219752 -0.0228249 -0.0236117 -0.0243354 -0.0249961 -0.0255937 -0.0261284 -0.0266006 -0.0270111 -0.0273596 -0.0276464 -0.0278713 -0.0280345 -0.0281357 -0.0281752 -0.0281971 -0.0282456 -0.0283209 -0.0284227 -0.0285513 -0.0287065 -0.0288884 -0.0290969 -0.0292824 -0.0293951 -0.029435 -0.029402 -0.0292963 -0.0291178 -0.0288665 -0.0285423 -0.027987 -0.027042 -0.0257074 -0.0239832 -0.0218693 -0.0193657 -0.0164726 -0.0131898 -0.00954483 -0.00556524 -0.001251 0.00339789 0.00838143 0.0136996 0.0193525 0.0253399 0.0313958 0.0372538 0.0429139 0.0483761 0.0536404 0.0587068 0.0635753 0.0682459 0.0725229 0.0762104 0.0793085 0.0818172 0.0837365 0.0850664 0.0858068 0.0859579 0.085541 0.0845776 0.0830677 0.0810113 0.0784085 0.0752592 0.0715634 0.0673212 0.0627592 0.0581041 0.053356 0.0485149 0.0435808 0.0385536 0.0334334 0.0282201 0.0231848 0.0185982 0.0144605 0.0107717 0.00753162 0.0047404 0.00239801 0.000504447 -0.00101216 -0.00222368 -0.00313012 -0.00373148 -0.00402775 -0.00401894 -0.00370505 -0.00308607 -0.00236277 -0.00173592 -0.0012055 -0.000771518 -0.000433979 -0.00019288 -4.82199e-05 0 0 -5.23027e-05 -0.000209211 -0.000470725 -0.000836844 -0.00130757 -0.0018829 -0.00256283 -0.00334738 -0.00421243 -0.00513389 -0.00611177 -0.00714607 -0.00823678 -0.00938391 -0.0105874 -0.0118474 -0.013108 -0.0143135 -0.0154639 -0.0165592 -0.0175994 -0.0185845 -0.0195145 -0.0203894 -0.0212042 -0.021954 -0.0226388 -0.0232585 -0.0238133 -0.024303 -0.0247277 -0.0250874 -0.0253959 -0.0256669 -0.0259004 -0.0260964 -0.026255 -0.0263762 -0.0264598 -0.026506 -0.0265637 -0.0266819 -0.0268604 -0.0270995 -0.0273989 -0.0277589 -0.0281792 -0.02866 -0.0291251 -0.0294983 -0.0297796 -0.0299689 -0.0300664 -0.030072 -0.0299857 -0.0298074 -0.0293358 -0.0283695 -0.0269083 -0.0249524 -0.0225016 -0.0195561 -0.0161158 -0.0121806 -0.00778407 -0.00295937 0.00229345 0.00797439 0.0140835 0.0206206 0.027586 0.0349794 0.042469 0.049723 0.0567412 0.0635237 0.0700704 0.0763815 0.0824568 0.0882965 0.0936511 0.0982715 0.102158 0.10531 0.107728 0.109411 0.11036 0.110575 0.110081 0.108903 0.10704 0.104493 0.101261 0.0973452 0.0927449 0.0874603 0.0817727 0.0759635 0.0700327 0.0639803 0.0578063 0.0515107 0.0450936 0.0385548 0.0322248 0.0264338 0.0211819 0.016469 0.0122953 0.00866058 0.00556495 0.00300839 0.000912267 -0.000802044 -0.00213454 -0.00308523 -0.00365411 -0.00384117 -0.00364642 -0.00306986 -0.00235036 -0.0017268 -0.00119916 -0.000767465 -0.000431699 -0.000191866 -4.79666e-05 0 0 -5.83327e-05 -0.000233331 -0.000524994 -0.000933323 -0.00145832 -0.00209998 -0.0028583 -0.00373329 -0.00468853 -0.00568759 -0.00673047 -0.00781718 -0.00894771 -0.0101221 -0.0113402 -0.0126022 -0.0138447 -0.0150044 -0.0160812 -0.0170752 -0.0179864 -0.0188147 -0.0195602 -0.0202228 -0.0208112 -0.0213337 -0.0217904 -0.0221813 -0.0225065 -0.0227658 -0.0229593 -0.023087 -0.0231791 -0.0232657 -0.0233467 -0.0234223 -0.0234923 -0.0235568 -0.0236158 -0.0236694 -0.023771 -0.0239743 -0.0242794 -0.0246861 -0.0251946 -0.0258049 -0.0265168 -0.0273305 -0.0281381 -0.0288321 -0.0294125 -0.0298791 -0.0302321 -0.0304713 -0.0305969 -0.0306088 -0.0302564 -0.029289 -0.0277065 -0.0255091 -0.0226967 -0.0192693 -0.0152269 -0.0105696 -0.00533704 0.000430775 0.00673388 0.0135723 0.0209459 0.0288549 0.0372992 0.0462787 0.0553872 0.0642183 0.072772 0.0810483 0.0890473 0.0967688 0.104213 0.11138 0.117959 0.123639 0.128421 0.132305 0.135291 0.137378 0.138567 0.138858 0.138279 0.136859 0.134598 0.131496 0.127553 0.122769 0.117144 0.110679 0.103715 0.0965966 0.0893238 0.0818963 0.0743143 0.0665776 0.0586864 0.0506406 0.042837 0.0356726 0.0291473 0.0232612 0.0180141 0.0134062 0.00943742 0.00610777 0.00333215 0.0010255 -0.000812196 -0.00218093 -0.00308071 -0.00351153 -0.0034734 -0.0029663 -0.00227107 -0.00166854 -0.00115871 -0.000741575 -0.000417136 -0.000185394 -4.63484e-05 0 0 -6.45328e-05 -0.000258131 -0.000580795 -0.00103252 -0.00161332 -0.00232318 -0.00316211 -0.0041301 -0.0051763 -0.00624986 -0.00735076 -0.00847903 -0.00963465 -0.0108176 -0.0120279 -0.0132656 -0.0144593 -0.0155377 -0.0165009 -0.0173487 -0.0180812 -0.0186985 -0.0192004 -0.0195871 -0.0198834 -0.0201143 -0.0202799 -0.0203801 -0.020415 -0.0203844 -0.0202886 -0.0201273 -0.0199504 -0.0198075 -0.0196987 -0.0196239 -0.0195831 -0.0195764 -0.0196038 -0.0196652 -0.0198188 -0.020123 -0.0205776 -0.0211827 -0.0219384 -0.0228445 -0.0239011 -0.0251082 -0.0263215 -0.0273966 -0.0283336 -0.0291325 -0.0297932 -0.0303158 -0.0307002 -0.0309465 -0.0307486 -0.0298005 -0.0281021 -0.0256535 -0.0224546 -0.0185055 -0.0138061 -0.00835653 -0.00220374 0.00460519 0.0120703 0.0201915 0.0289689 0.0384024 0.0484921 0.0592379 0.0701503 0.0807398 0.0910064 0.10095 0.110571 0.119869 0.128844 0.137496 0.145445 0.152313 0.1581 0.162804 0.166427 0.168968 0.170428 0.170805 0.170134 0.168446 0.165742 0.162022 0.157285 0.151532 0.144762 0.136976 0.128586 0.120004 0.111229 0.102263 0.0931046 0.0837543 0.0742119 0.0644775 0.0550216 0.0463147 0.0383569 0.031148 0.0246881 0.0189773 0.0140154 0.00980258 0.0062475 0.00325895 0.000836917 -0.00101859 -0.00230757 -0.00303004 -0.00318597 -0.00277539 -0.00212491 -0.00156116 -0.00108414 -0.000693847 -0.000390289 -0.000173462 -4.33654e-05 0 0 -6.99075e-05 -0.00027963 -0.000629167 -0.00111852 -0.00174769 -0.00251667 -0.00342547 -0.00447408 -0.00559414 -0.00671728 -0.00784351 -0.00897282 -0.0101052 -0.0112407 -0.0123792 -0.0135209 -0.0145864 -0.0154965 -0.0162512 -0.0168505 -0.0172945 -0.0175831 -0.0177162 -0.017694 -0.0175633 -0.0173709 -0.0171169 -0.0168012 -0.0164239 -0.0159848 -0.0154842 -0.0149218 -0.0143727 -0.0139116 -0.0135386 -0.0132536 -0.0130567 -0.0129479 -0.0129271 -0.0129943 -0.0132122 -0.0136432 -0.0142875 -0.0151448 -0.0162154 -0.0174991 -0.018996 -0.0207061 -0.022441 -0.0240124 -0.0254203 -0.0266648 -0.0277458 -0.0286633 -0.0294174 -0.0300079 -0.0300656 -0.029221 -0.0274741 -0.0248249 -0.0212734 -0.0168197 -0.0114636 -0.00520522 0.00190064 0.00979921 0.0184905 0.0279745 0.0382512 0.0493206 0.0611826 0.0738375 0.0867031 0.0991979 0.111322 0.123075 0.134457 0.145468 0.156108 0.166377 0.17582 0.183983 0.190864 0.196465 0.200785 0.203824 0.205582 0.206059 0.205292 0.203317 0.200135 0.195745 0.190148 0.183343 0.175331 0.166111 0.15617 0.145994 0.135584 0.124938 0.114058 0.102942 0.0915922 0.0800073 0.0687382 0.0583357 0.0487998 0.0401305 0.0323278 0.0253918 0.0193223 0.0141195 0.00968677 0.00592773 0.00284237 0.000430681 -0.00130734 -0.00237168 -0.00276235 -0.00247935 -0.00189825 -0.00139463 -0.000968496 -0.000619838 -0.000348659 -0.000154959 -3.87399e-05 0 0 -7.34611e-05 -0.000293845 -0.00066115 -0.00117538 -0.00183653 -0.0026446 -0.0035996 -0.00470151 -0.00586043 -0.00698645 -0.00807955 -0.00913974 -0.010167 -0.0111614 -0.0121228 -0.0130514 -0.0138605 -0.0144636 -0.0148606 -0.0150517 -0.0150367 -0.0148158 -0.0143888 -0.0137558 -0.0129935 -0.0121786 -0.0113111 -0.010391 -0.00941824 -0.00839289 -0.00731492 -0.00618433 -0.00510913 -0.00419733 -0.00344892 -0.0028639 -0.00244227 -0.00218403 -0.00208918 -0.00215773 -0.00245605 -0.00305053 -0.00394117 -0.00512797 -0.00661092 -0.00839004 -0.0104653 -0.0128368 -0.0152623 -0.0175 -0.0195498 -0.0214117 -0.0230858 -0.0245719 -0.0258702 -0.0269805 -0.0274605 -0.0268676 -0.0252018 -0.0224631 -0.0186515 -0.013767 -0.00780958 -0.00077928 0.00726095 0.0162482 0.0261824 0.0370635 0.0488917 0.0616668 0.0753889 0.0900579 0.10499 0.119503 0.133595 0.147268 0.16052 0.173352 0.185765 0.197757 0.208793 0.218336 0.226388 0.232947 0.238013 0.241588 0.24367 0.24426 0.243398 0.241124 0.237439 0.232343 0.225835 0.217916 0.208585 0.197843 0.186253 0.174379 0.162221 0.149779 0.137054 0.124044 0.110749 0.0971714 0.0839462 0.0717109 0.0604654 0.0502097 0.0409438 0.0326677 0.0253815 0.0190851 0.0136784 0.00906129 0.00523374 0.00219576 -5.26442e-05 -0.00151147 -0.00218073 -0.00206042 -0.00157751 -0.00115898 -0.00080485 -0.000515104 -0.000289746 -0.000128776 -3.2194e-05 0 0 -7.51938e-05 -0.000300775 -0.000676744 -0.0012031 -0.00187985 -0.00270698 -0.0036845 -0.0048124 -0.00597519 -0.00705735 -0.00805888 -0.00897979 -0.00982007 -0.0105797 -0.0112587 -0.0118571 -0.0122816 -0.012439 -0.0123291 -0.0119521 -0.0113079 -0.0103966 -0.00921808 -0.00777239 -0.00617401 -0.00453739 -0.00286254 -0.00114946 0.000601861 0.00239141 0.0042192 0.00608522 0.00784032 0.00933538 0.0105704 0.0115453 0.0122602 0.0127151 0.0129099 0.0128447 0.0124496 0.0116552 0.0104613 0.00886786 0.00687501 0.0044827 0.00169092 -0.00150031 -0.00478559 -0.00785951 -0.0107221 -0.0133732 -0.0158131 -0.0180415 -0.0200586 -0.0218643 -0.0229333 -0.0227402 -0.0212851 -0.0185679 -0.0145887 -0.00934744 -0.0028441 0.00492129 0.0138772 0.023952 0.0351459 0.0474586 0.0608904 0.0754411 0.0911107 0.107899 0.125012 0.141655 0.157827 0.173529 0.188761 0.203523 0.217814 0.231635 0.244363 0.255374 0.26467 0.27225 0.278113 0.282261 0.284692 0.285408 0.284451 0.281867 0.277654 0.271814 0.264345 0.255248 0.244524 0.232171 0.218834 0.205158 0.191142 0.176787 0.162092 0.147058 0.131684 0.11597 0.100646 0.0864404 0.0733536 0.0613855 0.050536 0.0408052 0.032193 0.0246995 0.0182224 0.0126596 0.00801102 0.00427665 0.0014565 -0.000449419 -0.00144111 -0.00151858 -0.00116266 -0.000854202 -0.000593196 -0.000379645 -0.00021355 -9.49113e-05 -2.37278e-05 0 0 -7.51055e-05 -0.000300422 -0.00067595 -0.00120169 -0.00187764 -0.0027038 -0.00368017 -0.00480675 -0.00593841 -0.00693 -0.00778152 -0.00849297 -0.00906436 -0.00949568 -0.00978694 -0.00993812 -0.00984985 -0.00942271 -0.00865671 -0.00755184 -0.00610811 -0.00432552 -0.00220407 0.000256251 0.00289526 0.00555278 0.00822883 0.0109234 0.0136365 0.0163681 0.0191182 0.0218868 0.0244757 0.0266865 0.0285193 0.0299741 0.0310508 0.0317495 0.0320702 0.0320128 0.0315049 0.0304739 0.0289198 0.0268427 0.0242424 0.0211191 0.0174727 0.0133033 0.00898924 0.00490912 0.00106293 -0.00254934 -0.00592768 -0.00907211 -0.0119826 -0.0146592 -0.0164839 -0.0168389 -0.0157241 -0.0131395 -0.00908516 -0.00356105 0.00343284 0.0118965 0.0217494 0.0329109 0.045381 0.0591598 0.0742473 0.0906434 0.108348 0.127362 0.146769 0.165654 0.184017 0.201859 0.21918 0.235979 0.252256 0.268011 0.28253 0.295096 0.305711 0.314373 0.321084 0.325842 0.328649 0.329503 0.328453 0.325545 0.32078 0.314158 0.305678 0.295341 0.283147 0.269095 0.253914 0.238331 0.222347 0.205961 0.189174 0.171985 0.154395 0.136403 0.118837 0.102524 0.0874645 0.0736579 0.0611044 0.049804 0.0397568 0.0309626 0.0233189 0.0167227 0.0111742 0.00667335 0.0032201 0.000814488 -0.000543496 -0.000853849 -0.000653728 -0.00048029 -0.000333535 -0.000213462 -0.000120072 -5.33655e-05 -1.33414e-05 0 0 -7.31962e-05 -0.000292785 -0.000658766 -0.00117114 -0.00182991 -0.00263506 -0.00358662 -0.00468456 -0.00575008 -0.00660438 -0.00724745 -0.00767929 -0.0078999 -0.00790928 -0.00770743 -0.00729436 -0.00656512 -0.00541479 -0.00384337 -0.00185086 0.000562746 0.00339744 0.00665323 0.0103301 0.0142143 0.0180919 0.021963 0.0258275 0.0296856 0.0335371 0.037382 0.0412204 0.0447969 0.0478561 0.0503979 0.0524223 0.0539294 0.0549192 0.0553916 0.0553467 0.0547097 0.0534056 0.0514345 0.0487964 0.0454913 0.0415192 0.0368801 0.031574 0.0260622 0.0208059 0.0158052 0.01106 0.00657034 0.00233626 -0.00164227 -0.00536525 -0.00811244 -0.00916358 -0.00851869 -0.00617777 -0.0021408 0.0035922 0.0110212 0.0201463 0.0308774 0.0431246 0.0568878 0.0721671 0.0889625 0.107274 0.127101 0.148445 0.170259 0.1915 0.212166 0.232258 0.251776 0.27072 0.28909 0.306886 0.323294 0.337503 0.349511 0.359318 0.366926 0.372333 0.375