<?xml version="1.0"?> 
<VTKFile type="StructuredGrid" version="0.1"> 
<StructuredGrid WholeExtent="0 128 0 128 0 0"> 
<Piece Extent="0 128 0 128 0 0"> 
<PointData>
<DataArray type="Float32" Name="u" format="ascii" NumberOfComponents="1"> 
0 0 0 0 0 0 0 0 0 0 0 0 0 0 0 0 0 0 0 0 0 0 0 0 0 0 0 0 0 0 0 0 0 0 0 0 0 0 0 0 0 0 0 0 0 0 0 0 0 0 0 0 0 0 0 0 0 0 0 0 0 0 0 0 0 0 0 0 0 0 0 0 0 0 0 0 0 0 0 0 0 0 0 0 0 0 0 0 0 0 0 0 0 0 0 0 0 0 0 0 0 0 0 0 0 0 0 0 0 0 0 0 0 0 0 0 0 0 0 0 0 0 0 0 0 0 0 0 0 0 -1.65642e-07 -6.62569e-07 -1.49078e-06 -2.65028e-06 -4.14106e-06 -5.96312e-06 -8.11647e-06 -1.06011e-05 -1.37065e-05 -1.7722e-05 -2.26476e-05 -2.84834e-05 -3.52294e-05 -4.28855e-05 -5.14517e-05 -6.09281e-05 -7.12129e-05 -8.22044e-05 -9.39027e-05 -0.000106308 -0.000119419 -0.000133237 -0.000147762 -0.000162994 -0.000178364 -0.000193302 -0.00020781 -0.000221888 -0.000235534 -0.00024875 -0.000261534 -0.000273888 -0.00028516 -0.000294696 -0.000302497 -0.000308563 -0.000312894 -0.000315491 -0.000316352 -0.000315478 -0.000313299 -0.000310244 -0.000306312 -0.000301505 -0.000295822 -0.000289263 -0.000281827 -0.000273516 -0.000264955 -0.00025677 -0.000248961 -0.000241529 -0.000234473 -0.000227793 -0.000221489 -0.000215561 -0.000209565 -0.000203054 -0.000196028 -0.000188488 -0.000180434 -0.000171865 -0.000162782 -0.000153185 -0.000143179 -0.00013287 -0.000122258 -0.000111343 -0.000100126 -8.86053e-05 -7.67822e-05 -6.46562e-05 -5.29352e-05 -4.23267e-05 -3.28308e-05 -2.44475e-05 -1.71768e-05 -1.10187e-05 -5.97317e-06 -2.04026e-06 1.07933e-06 3.6849e-06 5.77643e-06 7.35394e-06 8.41741e-06 8.96686e-06 9.00228e-06 8.52366e-06 7.55823e-06 6.13318e-06 4.24851e-06 1.90422e-06 -8.99678e-07 -4.16319e-06 -7.88633e-06 -1.20691e-05 -1.67875e-05 -2.21178e-05 -2.80599e-05 -3.46138e-05 -4.17794e-05 -4.95569e-05 -5.79462e-05 -6.69473e-05 -7.54632e-05 -8.2397e-05 -8.77485e-05 -9.15179e-05 -9.37051e-05 -9.43101e-05 -9.33329e-05 -9.07736e-05 -8.70281e-05 -8.24924e-05 -7.71667e-05 -7.10508e-05 -6.41448e-05 -5.64486e-05 -4.79623e-05 -3.86859e-05 -2.96189e-05 -2.17608e-05 -1.51117e-05 -9.67148e-06 -5.44021e-06 -2.41787e-06 -6.04467e-07 0 0 -6.62569e-07 -2.65028e-06 -5.96312e-06 -1.06011e-05 -1.65642e-05 -2.38525e-05 -3.24659e-05 -4.24044e-05 -5.48258e-05 -7.08878e-05 -9.05904e-05 -0.000113934 -0.000140917 -0.000171542 -0.000205807 -0.000243712 -0.000284852 -0.000328818 -0.000375611 -0.00042523 -0.000477677 -0.00053295 -0.000591049 -0.000651976 -0.000713454 -0.00077321 -0.000831242 -0.00088755 -0.000942136 -0.000994999 -0.00104614 -0.00109555 -0.00114064 -0.00117878 -0.00120999 -0.00123425 -0.00125158 -0.00126196 -0.00126541 -0.00126191 -0.0012532 -0.00124097 -0.00122525 -0.00120602 -0.00118329 -0.00115705 -0.00112731 -0.00109406 -0.00105982 -0.00102708 -0.000995845 -0.000966115 -0.00093789 -0.00091117 -0.000885955 -0.000862245 -0.000838259 -0.000812214 -0.000784113 -0.000753953 -0.000721736 -0.000687461 -0.000651129 -0.000612739 -0.000572714 -0.000531478 -0.000489031 -0.000445372 -0.000400503 -0.000354421 -0.000307129 -0.000258625 -0.000211741 -0.000169307 -0.000131323 -9.77899e-05 -6.87071e-05 -4.40747e-05 -2.38927e-05 -8.16104e-06 4.31733e-06 1.47396e-05 2.31057e-05 2.94158e-05 3.36697e-05 3.58674e-05 3.60091e-05 3.40947e-05 3.02329e-05 2.45327e-05 1.6994e-05 7.61689e-06 -3.59871e-06 -1.66528e-05 -3.15453e-05 -4.82763e-05 -6.71502e-05 -8.84712e-05 -0.00011224 -0.000138455 -0.000167118 -0.000198228 -0.000231785 -0.000267789 -0.000301853 -0.000329588 -0.000350994 -0.000366072 -0.00037482 -0.00037724 -0.000373332 -0.000363094 -0.000348112 -0.00032997 -0.000308667 -0.000284203 -0.000256579 -0.000225794 -0.000191849 -0.000154744 -0.000118476 -8.70433e-05 -6.04467e-05 -3.86859e-05 -2.17608e-05 -9.67148e-06 -2.41787e-06 0 0 -1.49078e-06 -5.96312e-06 -1.3417e-05 -2.38525e-05 -3.72695e-05 -5.36681e-05 -7.30482e-05 -9.541e-05 -0.000123358 -0.000159498 -0.000203828 -0.000256351 -0.000317064 -0.000385969 -0.000463065 -0.000548353 -0.000640916 -0.00073984 -0.000845124 -0.000956768 -0.00107477 -0.00119914 -0.00132986 -0.00146695 -0.00160527 -0.00173972 -0.00187029 -0.00199699 -0.00211981 -0.00223875 -0.00235381 -0.002465 -0.00256644 -0.00265226 -0.00272247 -0.00277707 -0.00281605 -0.00283941 -0.00284717 -0.0028393 -0.00281969 -0.00279219 -0.00275681 -0.00271355 -0.0026624 -0.00260336 -0.00253645 -0.00246164 -0.00238459 -0.00231093 -0.00224065 -0.00217376 -0.00211025 -0.00205013 -0.0019934 -0.00194005 -0.00188608 -0.00182748 -0.00176425 -0.00169639 -0.00162391 -0.00154679 -0.00146504 -0.00137866 -0.00128861 -0.00119583 -0.00110032 -0.00100209 -0.000901131 -0.000797448 -0.00069104 -0.000581906 -0.000476416 -0.00038094 -0.000295477 -0.000220027 -0.000154591 -9.91681e-05 -5.37585e-05 -1.83623e-05 9.714e-06 3.31641e-05 5.19879e-05 6.61854e-05 7.57567e-05 8.07017e-05 8.10205e-05 7.6713e-05 6.80241e-05 5.51986e-05 3.82366e-05 1.7138e-05 -8.0971e-06 -3.74688e-05 -7.0977e-05 -0.000108622 -0.000151088 -0.00019906 -0.000252539 -0.000311524 -0.000376015 -0.000446012 -0.000521516 -0.000602526 -0.000679169 -0.000741573 -0.000789737 -0.000823661 -0.000843346 -0.000848791 -0.000839996 -0.000816962 -0.000783253 -0.000742432 -0.0006945 -0.000639457 -0.000577303 -0.000508038 -0.000431661 -0.000348173 -0.00026657 -0.000195847 -0.000136005 -8.70433e-05 -4.89619e-05 -2.17608e-05 -5.44021e-06 0 0 -2.65028e-06 -1.06011e-05 -2.38525e-05 -4.24044e-05 -6.62569e-05 -9.541e-05 -0.000129864 -0.000169618 -0.000219303 -0.000283551 -0.000362362 -0.000455735 -0.00056367 -0.000686167 -0.000823227 -0.00097485 -0.00113941 -0.00131527 -0.00150244 -0.00170092 -0.00191071 -0.0021318 -0.0023642 -0.0026079 -0.00285382 -0.00309284 -0.00332497 -0.0035502 -0.00376854 -0.00397999 -0.00418455 -0.00438222 -0.00456255 -0.00471513 -0.00483995 -0.00493701 -0.00500631 -0.00504785 -0.00506163 -0.00504765 -0.00501278 -0.0049639 -0.004901 -0.00482408 -0.00473315 -0.0046282 -0.00450924 -0.00437626 -0.00423928 -0.00410832 -0.00398338 -0.00386446 -0.00375156 -0.00364468 -0.00354382 -0.00344898 -0.00335303 -0.00324886 -0.00313645 -0.00301581 -0.00288694 -0.00274985 -0.00260452 -0.00245096 -0.00229086 -0.00212591 -0.00195612 -0.00178149 -0.00160201 -0.00141769 -0.00122852 -0.0010345 -0.000846962 -0.000677227 -0.000525292 -0.00039116 -0.000274828 -0.000176299 -9.55707e-05 -3.26442e-05 1.72693e-05 5.89584e-05 9.24229e-05 0.000117663 0.000134679 0.00014347 0.000144036 0.000136379 0.000120932 9.81308e-05 6.79761e-05 3.04676e-05 -1.43948e-05 -6.66111e-05 -0.000126181 -0.000193105 -0.000268601 -0.000353885 -0.000448958 -0.00055382 -0.000668471 -0.000792911 -0.00092714 -0.00107116 -0.00120741 -0.00131835 -0.00140398 -0.00146429 -0.00149928 -0.00150896 -0.00149333 -0.00145238 -0.00139245 -0.00131988 -0.00123467 -0.00113681 -0.00102632 -0.000903178 -0.000767397 -0.000618975 -0.000473902 -0.000348173 -0.000241787 -0.000154744 -8.70433e-05 -3.86859e-05 -9.67148e-06 0 0 -4.14106e-06 -1.65642e-05 -3.72695e-05 -6.62569e-05 -0.000103526 -0.000149078 -0.000202912 -0.000265028 -0.000342661 -0.000443049 -0.00056619 -0.000712085 -0.000880734 -0.00107214 -0.00128629 -0.0015232 -0.00178032 -0.00205511 -0.00234757 -0.00265769 -0.00298548 -0.00333093 -0.00369406 -0.00407485 -0.00445909 -0.00483256 -0.00519526 -0.00554719 -0.00588835 -0.00621874 -0.00653836 -0.00684721 -0.00712899 -0.00736739 -0.00756242 -0.00771408 -0.00782236 -0.00788726 -0.00790879 -0.00788695 -0.00783247 -0.00775609 -0.00765781 -0.00753763 -0.00739555 -0.00723156 -0.00704568 -0.0068379 -0.00662387 -0.00641925 -0.00622403 -0.00603822 -0.00586181 -0.00569481 -0.00553722 -0.00538903 -0.00523912 -0.00507634 -0.0049007 -0.00471221 -0.00451085 -0.00429663 -0.00406956 -0.00382962 -0.00357946 -0.00332174 -0.00305644 -0.00278358 -0.00250314 -0.00221513 -0.00191956 -0.00161641 -0.00132338 -0.00105817 -0.000820769 -0.000611187 -0.000429419 -0.000275467 -0.000149329 -5.10065e-05 2.69833e-05 9.21225e-05 0.000144411 0.000183848 0.000210435 0.000224172 0.000225057 0.000213092 0.000188956 0.000153329 0.000106213 4.76056e-05 -2.24919e-05 -0.00010408 -0.000197158 -0.000301727 -0.000419688 -0.000552945 -0.000701497 -0.000865344 -0.00104449 -0.00123892 -0.00144866 -0.00167368 -0.00188658 -0.00205992 -0.00219371 -0.00228795 -0.00234263 -0.00235775 -0.00233332 -0.00226934 -0.0021757 -0.00206231 -0.00192917 -0.00177627 -0.00160362 -0.00141122 -0.00119906 -0.000967148 -0.000740473 -0.000544021 -0.000377792 -0.000241787 -0.000136005 -6.04467e-05 -1.51117e-05 0 0 -5.96312e-06 -2.38525e-05 -5.36681e-05 -9.541e-05 -0.000149078 -0.000214672 -0.000292193 -0.00038164 -0.000493432 -0.000637991 -0.000815314 -0.0010254 -0.00126826 -0.00154388 -0.00185226 -0.00219341 -0.00256367 -0.00295936 -0.0033805 -0.00382707 -0.00429909 -0.00479655 -0.00531945 -0.00586778 -0.00642109 -0.00695889 -0.00748118 -0.00798795 -0.00847923 -0.00895499 -0.00941524 -0.00985998 -0.0102657 -0.010609 -0.0108899 -0.0111083 -0.0112642 -0.0113577 -0.0113887 -0.0113572 -0.0112788 -0.0111688 -0.0110272 -0.0108542 -0.0106496 -0.0104135 -0.0101458 -0.00984658 -0.00953838 -0.00924372 -0.0089626 -0.00869504 -0.00844101 -0.00820053 -0.0079736 -0.00776021 -0.00754433 -0.00730993 -0.00705701 -0.00678558 -0.00649562 -0.00618715 -0.00586016 -0.00551465 -0.00515443 -0.0047833 -0.00440128 -0.00400835 -0.00360452 -0.00318979 -0.00276416 -0.00232762 -0.00190567 -0.00152376 -0.00118191 -0.000880109 -0.000618364 -0.000396672 -0.000215034 -7.34494e-05 3.8856e-05 0.000132656 0.000207952 0.000264742 0.000303027 0.000322807 0.000324082 0.000306852 0.000272096 0.000220794 0.000152946 6.8552e-05 -3.23884e-05 -0.000149875 -0.000283908 -0.000434487 -0.000604351 -0.000796241 -0.00101016 -0.0012461 -0.00150406 -0.00178405 -0.00208606 -0.0024101 -0.00271668 -0.00296629 -0.00315895 -0.00329464 -0.00337338 -0.00339516 -0.00335999 -0.00326785 -0.00313301 -0.00296973 -0.002778 -0.00255783 -0.00230921 -0.00203215 -0.00172664 -0.00139269 -0.00106628 -0.00078339 -0.000544021 -0.000348173 -0.000195847 -8.70433e-05 -2.17608e-05 0 0 -8.11647e-06 -3.24659e-05 -7.30482e-05 -0.000129864 -0.000202912 -0.000292193 -0.000397707 -0.000519454 -0.000671616 -0.000868376 -0.00110973 -0.00139569 -0.00172624 -0.00210139 -0.00252113 -0.00298548 -0.00348943 -0.00402802 -0.00460123 -0.00520907 -0.00585154 -0.00652863 -0.00724036 -0.00798671 -0.00873982 -0.00947182 -0.0101827 -0.0108725 -0.0115412 -0.0121887 -0.0128152 -0.0134205 -0.0139728 -0.0144401 -0.0148223 -0.0151196 -0.0153318 -0.015459 -0.0155012 -0.0154584 -0.0153516 -0.0152019 -0.0150093 -0.0147737 -0.0144953 -0.0141739 -0.0138095 -0.0134023 -0.0129828 -0.0125817 -0.0121991 -0.0118349 -0.0114892 -0.0111618 -0.010853 -0.0105625 -0.0102687 -0.00994963 -0.00960538 -0.00923593 -0.00884127 -0.0084214 -0.00797633 -0.00750605 -0.00701575 -0.00651061 -0.00599063 -0.00545581 -0.00490616 -0.00434166 -0.00376233 -0.00316816 -0.00259382 -0.00207401 -0.00160871 -0.00119793 -0.000841662 -0.000539915 -0.000292685 -9.99728e-05 5.28873e-05 0.00018056 0.000283045 0.000360343 0.000412453 0.000439376 0.000441112 0.00041766 0.000370353 0.000300526 0.000208177 9.33069e-05 -4.40842e-05 -0.000203997 -0.00038643 -0.000591385 -0.000822589 -0.00108377 -0.00137493 -0.00169607 -0.00204719 -0.00242829 -0.00283936 -0.00328042 -0.0036977 -0.00403745 -0.00429968 -0.00448438 -0.00459155 -0.00462119 -0.00457331 -0.00444791 -0.00426438 -0.00404213 -0.00378117 -0.00348149 -0.00314309 -0.00276598 -0.00235015 -0.00189561 -0.00145133 -0.00106628 -0.000740473 -0.000473902 -0.00026657 -0.000118476 -2.96189e-05 0 0 -1.06011e-05 -4.24044e-05 -9.541e-05 -0.000169618 -0.000265028 -0.00038164 -0.000519454 -0.000678471 -0.000877213 -0.00113421 -0.00144945 -0.00182294 -0.00225468 -0.00274467 -0.00329291 -0.0038994 -0.00455763 -0.00526108 -0.00600977 -0.00680368 -0.00764282 -0.00852719 -0.00945679 -0.0104316 -0.0114153 -0.0123714 -0.0132999 -0.0142008 -0.0150742 -0.01592 -0.0167382 -0.0175289 -0.0182502 -0.0188605 -0.0193598 -0.019748 -0.0200252 -0.0201914 -0.0202465 -0.0201906 -0.0200511 -0.0198556 -0.019604 -0.0192963 -0.0189326 -0.0185128 -0.0180369 -0.017505 -0.0169571 -0.0164333 -0.0159335 -0.0154578 -0.0150062 -0.0145787 -0.0141753 -0.0137959 -0.0134121 -0.0129954 -0.0125458 -0.0120633 -0.0115478 -0.0109994 -0.0104181 -0.00980382 -0.00916343 -0.00850365 -0.0078245 -0.00712596 -0.00640804 -0.00567074 -0.00491406 -0.004138 -0.00338785 -0.00270891 -0.00210117 -0.00156464 -0.00109931 -0.000705195 -0.000382283 -0.000130577 6.90774e-05 0.000235833 0.000369692 0.000470652 0.000538715 0.000573879 0.000576146 0.000545515 0.000483727 0.000392523 0.000271905 0.00012187 -5.75794e-05 -0.000266444 -0.000504725 -0.000772421 -0.0010744 -0.00141554 -0.00179583 -0.00221528 -0.00267388 -0.00317164 -0.00370856 -0.00428463 -0.00482965 -0.00527341 -0.00561591 -0.00585715 -0.00599713 -0.00603585 -0.00597331 -0.00580951 -0.0055698 -0.00527952 -0.00493867 -0.00454725 -0.00410526 -0.00361271 -0.00306959 -0.0024759 -0.00189561 -0.00139269 -0.000967148 -0.000618975 -0.000348173 -0.000154744 -3.86859e-05 0 0 -1.36183e-05 -5.44733e-05 -0.000122565 -0.000217893 -0.000340458 -0.00049026 -0.000667298 -0.000871573 -0.00112494 -0.00144925 -0.00184451 -0.00231071 -0.00284786 -0.00345595 -0.00413499 -0.00488498 -0.00569755 -0.00656436 -0.0074854 -0.00846068 -0.0094902 -0.0105739 -0.0117119 -0.0129041 -0.0141066 -0.0152755 -0.0164106 -0.0175121 -0.0185799 -0.019614 -0.0206145 -0.0215812 -0.0224631 -0.023209 -0.0238187 -0.0242925 -0.0246301 -0.0248317 -0.0248972 -0.0248267 -0.0246547 -0.0244159 -0.0241103 -0.0237379 -0.0232987 -0.0227926 -0.0222198 -0.0215801 -0.0209215 -0.020292 -0.0196914 -0.0191198 -0.0185772 -0.0180636 -0.017579 -0.0171235 -0.0166572 -0.0161406 -0.0155737 -0.0149565 -0.0142889 -0.013571 -0.0128028 -0.0119842 -0.0111244 -0.0102323 -0.00930795 -0.00835134 -0.00736249 -0.00634138 -0.00528801 -0.0042024 -0.00314698 -0.00218421 -0.0013141 -0.000536631 0.000148184 0.000740349 0.00123986 0.00164673 0.00198101 0.0022628 0.00249208 0.00266886 0.00279314 0.00286492 0.0028842 0.00285097 0.00276773 0.00263697 0.00245867 0.00223284 0.00195949 0.0016386 0.00127019 0.000854252 0.000388382 -0.000129821 -0.000700357 -0.00132322 -0.00199842 -0.00272596 -0.00350582 -0.00433802 -0.00512989 -0.00578877 -0.00631466 -0.00670757 -0.00696749 -0.00709442 -0.00708836 -0.00694931 -0.00670875 -0.00639815 -0.0060175 -0.0055668 -0.00504606 -0.00445528 -0.00379445 -0.00306358 -0.00234555 -0.00172326 -0.00119671 -0.000765895 -0.000430816 -0.000191474 -4.78684e-05 0 0 -1.73695e-05 -6.94779e-05 -0.000156325 -0.000277911 -0.000434237 -0.000625301 -0.000851104 -0.00111165 -0.00142951 -0.00182729 -0.00230497 -0.00286256 -0.00350006 -0.00421747 -0.00501478 -0.005892 -0.0068385 -0.00784364 -0.00890742 -0.0100298 -0.0112109 -0.0124506 -0.0137489 -0.0151059 -0.0164731 -0.0178021 -0.0190929 -0.0203455 -0.0215599 -0.0227361 -0.0238741 -0.0249739 -0.0259768 -0.026824 -0.0275157 -0.0280517 -0.0284321 -0.0286569 -0.0287261 -0.0286397 -0.0284399 -0.0281692 -0.0278273 -0.0274145 -0.0269306 -0.0263757 -0.0257498 -0.0250529 -0.0243362 -0.0236514 -0.0229982 -0.0223767 -0.021787 -0.021229 -0.0207027 -0.0202081 -0.0196863 -0.0190785 -0.0183846 -0.0176045 -0.0167384 -0.0157862 -0.014748 -0.0136236 -0.0124256 -0.0111664 -0.00984605 -0.00846451 -0.0070218 -0.00551791 -0.00395284 -0.00232659 -0.000730445 0.000744321 0.00209771 0.00332971 0.00444033 0.00542958 0.00629744 0.00704392 0.00768228 0.00822578 0.00867441 0.00902817 0.00928708 0.00945111 0.00952029 0.0094946 0.00937789 0.00917403 0.00888301 0.00850482 0.00803948 0.00748697 0.00684731 0.00612048 0.00531394 0.0044351 0.00348399 0.00246058 0.0013649 0.000196926 -0.00104333 -0.00235587 -0.00361578 -0.00469815 -0.00560298 -0.00633026 -0.00688 -0.0072522 -0.00744686 -0.00746397 -0.00734072 -0.00711428 -0.00678465 -0.00635183 -0.00581582 -0.00517663 -0.00443424 -0.00358867 -0.00274757 -0.00201863 -0.00140182 -0.000897167 -0.000504657 -0.000224292 -5.6073e-05 0 0 -2.18545e-05 -8.7418e-05 -0.000196691 -0.000349672 -0.000546363 -0.000786762 -0.00107087 -0.00139869 -0.00179093 -0.00226831 -0.00283083 -0.00347848 -0.00421128 -0.00502921 -0.00593228 -0.00692049 -0.00798049 -0.00909893 -0.0102758 -0.0115112 -0.0128049 -0.0141572 -0.0155678 -0.0170369 -0.0185147 -0.0199513 -0.0213468 -0.0227011 -0.0240142 -0.0252863 -0.0265171 -0.0277068 -0.0287911 -0.0297057 -0.0304506 -0.0310258 -0.0314313 -0.0316671 -0.0317332 -0.0316296 -0.0314068 -0.0311153 -0.030755 -0.0303261 -0.0298285 -0.0292621 -0.028627 -0.0279233 -0.0272012 -0.0265115 -0.0258539 -0.0252286 -0.0246356 -0.0240748 -0.0235462 -0.0230499 -0.0224996 -0.021809 -0.0209783 -0.0200074 -0.0188963 -0.017645 -0.0162535 -0.0147219 -0.013067 -0.011306 -0.0094388 -0.00746547 -0.00538598 -0.00320034 -0.000908536 0.00148942 0.00386176 0.0060767 0.00813424 0.0100344 0.0117771 0.0133625 0.0147904 0.016061 0.0171729 0.0181248 0.0189167 0.0195486 0.0200205 0.0203325 0.0204844 0.0204764 0.0203142 0.0200037 0.0195449 0.0189378 0.0181824 0.0172787 0.0162266 0.0150263 0.0137023 0.0122792 0.0107572 0.00913614 0.00741608 0.005597 0.00367891 0.00166181 -0.000287336 -0.00200156 -0.00348086 -0.00472523 -0.00573468 -0.00650921 -0.00704881 -0.00735348 -0.0074657 -0.00742791 -0.00724012 -0.00690233 -0.00641454 -0.00577675 -0.00498896 -0.00405117 -0.00310168 -0.00227878 -0.00158249 -0.00101279 -0.000569696 -0.000253198 -6.32995e-05 0 0 -2.70734e-05 -0.000108294 -0.000243661 -0.000433175 -0.000676836 -0.000974644 -0.0013266 -0.0017327 -0.00220919 -0.00277232 -0.00342208 -0.00415848 -0.00498151 -0.00589118 -0.00688748 -0.00797042 -0.0091235 -0.0103302 -0.0115906 -0.0129046 -0.0142723 -0.0156936 -0.0171686 -0.0186972 -0.0202314 -0.0217231 -0.0231722 -0.0245788 -0.0259429 -0.0272645 -0.0285435 -0.0297801 -0.0309062 -0.031854 -0.0326235 -0.0332147 -0.0336276 -0.0338621 -0.0339184 -0.0337964 -0.0335552 -0.0332543 -0.0328934 -0.0324727 -0.0319922 -0.0314517 -0.0308515 -0.0301913 -0.0295165 -0.0288723 -0.0282587 -0.0276756 -0.027123 -0.026601 -0.0261096 -0.0256487 -0.0250968 -0.0243323 -0.023355 -0.0221652 -0.0207626 -0.0191474 -0.0173196 -0.0152791 -0.0130486 -0.010651 -0.0080862 -0.00535421 -0.00245503 0.00061134 0.00384489 0.00724564 0.0106296 0.0138129 0.0167955 0.0195774 0.0221586 0.0245391 0.0267189 0.028698 0.0304528 0.0319598 0.0332189 0.0342301 0.0349934 0.0355089 0.0357766 0.0357963 0.0355767 0.035126 0.0344444 0.0335318 0.0323882 0.0310137 0.0294081 0.0275716 0.0255534 0.0234026 0.0211193 0.0187035 0.0161551 0.0134743 0.0106609 0.00771503 0.00485545 0.00230101 5.17039e-05 -0.00189247 -0.00353152 -0.00486543 -0.0058942 -0.00661785 -0.00708369 -0.00733904 -0.00738392 -0.00721832 -0.00684223 -0.00625566 -0.00545861 -0.00445108 -0.00340786 -0.00250373 -0.0017387 -0.00111277 -0.000625933 -0.000278193 -6.95482e-05 0 0 -3.30263e-05 -0.000132105 -0.000297237 -0.000528421 -0.000825657 -0.00118895 -0.00161829 -0.00211368 -0.0026843 -0.00333932 -0.00407874 -0.00490256 -0.00581077 -0.00680339 -0.0078804 -0.00904181 -0.0102675 -0.0115375 -0.0128518 -0.0142103 -0.015613 -0.01706 -0.0185512 -0.0200867 -0.0216232 -0.0231173 -0.0245692 -0.0259787 -0.0273459 -0.0286708 -0.0299533 -0.0311936 -0.032322 -0.0332689 -0.0340344 -0.0346184 -0.035021 -0.0352421 -0.0352818 -0.03514 -0.0348853 -0.0345861 -0.0342425 -0.0338543 -0.0334217 -0.0329446 -0.0324231 -0.031857 -0.0312821 -0.0307339 -0.0302123 -0.0297174 -0.0292492 -0.0288077 -0.0283929 -0.0280047 -0.0274782 -0.0266482 -0.0255147 -0.0240777 -0.0223373 -0.0202934 -0.017946 -0.0152952 -0.0123705 -0.0092015 -0.00578825 -0.00213073 0.00177106 0.00591712 0.0103075 0.0149421 0.0195732 0.023953 0.0280815 0.0319587 0.0355847 0.0389594 0.0420828 0.0449549 0.0475221 0.0497308 0.051581 0.0530727 0.0542059 0.0549806 0.0553968 0.0554544 0.0551653 0.054541 0.0535815 0.0522868 0.050657 0.048692 0.0463918 0.0437565 0.0408672 0.0378051 0.0345702 0.0311625 0.027582 0.0238287 0.0199027 0.0158038 0.0118126 0.00820956 0.0049947 0.00216801 -0.000270508 -0.00232086 -0.00398305 -0.00525707 -0.00619469 -0.00684768 -0.00721604 -0.00729977 -0.00709888 -0.00661335 -0.00584319 -0.00478841 -0.00366612 -0.00269348 -0.00187047 -0.0011971 -0.000673369 -0.000299275 -7.48188e-05 0 0 -3.9713e-05 -0.000158852 -0.000357417 -0.000635409 -0.000992826 -0.00142967 -0.00194594 -0.00254163 -0.00321626 -0.00396931 -0.00480079 -0.00571071 -0.00669905 -0.00776582 -0.00891102 -0.0101347 -0.0114126 -0.0127208 -0.0140593 -0.0154281 -0.016827 -0.0182563 -0.0197158 -0.0212055 -0.0226901 -0.0241342 -0.0255377 -0.0269007 -0.0282232 -0.0295051 -0.0307465 -0.0319474 -0.0330385 -0.0339504 -0.0346832 -0.0352369 -0.0356115 -0.035807 -0.0358234 -0.0356606 -0.035397 -0.0351109 -0.0348022 -0.0344709 -0.0341171 -0.0337408 -0.0333419 -0.0329204 -0.032498 -0.0320962 -0.0317149 -0.0313543 -0.0310143 -0.0306949 -0.030396 -0.0301178 -0.0296436 -0.0287567 -0.0274572 -0.0257451 -0.0236203 -0.0210829 -0.0181329 -0.0147702 -0.0110326 -0.00695746 -0.00254496 0.00220495 0.00729227 0.012717 0.0184791 0.0245787 0.0306923 0.0364969 0.0419922 0.0471784 0.0520555 0.0566233 0.0608821 0.0648316 0.0683807 0.0714378 0.0740031 0.0760764 0.0776578 0.0787474 0.079345 0.0794507 0.07908 0.0782485 0.0769561 0.0752028 0.0729887 0.0703136 0.0671777 0.063581 0.0596438 0.0554869 0.05111 0.0465133 0.0416968 0.0366604 0.0314042 0.0259281 0.0205841 0.0157241 0.0113481 0.00745623 0.00404834 0.00112448 -0.00131534 -0.00327114 -0.0047987 -0.00595382 -0.00673649 -0.00714671 -0.00718449 -0.00684982 -0.0061427 -0.00506314 -0.00387647 -0.00284802 -0.00197779 -0.00126578 -0.000712004 -0.000316446 -7.91115e-05 0 0 -4.71337e-05 -0.000188535 -0.000424203 -0.000754139 -0.00117834 -0.00169681 -0.00230955 -0.00301656 -0.00380506 -0.00466229 -0.00558825 -0.00658293 -0.00764634 -0.00877848 -0.00997935 -0.0112489 -0.0125587 -0.0138802 -0.0152133 -0.016558 -0.0179144 -0.0192824 -0.0206621 -0.0220535 -0.0234321 -0.0247735 -0.0260778 -0.0273449 -0.0285748 -0.0297675 -0.0309231 -0.0320415 -0.0330557 -0.0338985 -0.0345701 -0.0350703 -0.0353992 -0.0355568 -0.0355431 -0.0353581 -0.0350904 -0.0348285 -0.0345726 -0.0343226 -0.0340784 -0.0338402 -0.0336079 -0.0333815 -0.0331642 -0.0329592 -0.0327665 -0.0325862 -0.0324181 -0.0322625 -0.0321191 -0.031988 -0.0315931 -0.030658 -0.0291827 -0.0271673 -0.0246118 -0.0215161 -0.0178802 -0.0137042 -0.00903485 -0.00391888 0.00164369 0.00765286 0.0141086 0.021011 0.0283599 0.0361555 0.0439872 0.0514446 0.0585277 0.0652364 0.0715709 0.077531 0.0831168 0.0883283 0.0930286 0.0970809 0.100485 0.103241 0.105349 0.106809 0.107621 0.107785 0.107321 0.106249 0.104568 0.10228 0.0993833 0.0958786 0.0917658 0.087045 0.0818832 0.0764478 0.0707387 0.0647559 0.0584994 0.0519693 0.0451654 0.0380879 0.0311699 0.0248446 0.019112 0.0139722 0.00942503 0.00547061 0.00210891 -0.000660071 -0.00289573 -0.00465746 -0.00594525 -0.00675912 -0.00709906 -0.00696506 -0.00635714 -0.00527528 -0.00403889 -0.00296735 -0.00206066 -0.00131882 -0.000741837 -0.000329705 -8.24263e-05 0 0 -5.52882e-05 -0.000221153 -0.000497594 -0.000884612 -0.00138221 -0.00199038 -0.00270912 -0.00353845 -0.00445071 -0.00541826 -0.0064411 -0.00751923 -0.00865266 -0.00984138 -0.0110854 -0.0123847 -0.0137059 -0.0150155 -0.0163136 -0.0176001 -0.0188751 -0.0201385 -0.0213904 -0.0226308 -0.0238492 -0.0250354 -0.0261894 -0.0273112 -0.0284007 -0.029458 -0.0304831 -0.0314759 -0.0323736 -0.0331133 -0.0336949 -0.0341185 -0.0343841 -0.0344916 -0.034441 -0.0342325 -0.0339653 -0.0337391 -0.0335537 -0.0334092 -0.0333056 -0.0332429 -0.0332211 -0.0332402 -0.0332806 -0.0333229 -0.033367 -0.033413 -0.0334608 -0.0335105 -0.033562 -0.0336154 -0.0333266 -0.0323519 -0.0306911 -0.0283444 -0.0253116 -0.0215928 -0.017188 -0.0120971 -0.00637737 -8.57636e-05 0.00677768 0.014213 0.0222201 0.0307991 0.0399499 0.0496725 0.0594577 0.0687962 0.0776878 0.0861328 0.0941309 0.101682 0.108787 0.115445 0.121466 0.12666 0.131027 0.134567 0.13728 0.139166 0.140226 0.140458 0.139888 0.138541 0.136418 0.133518 0.129841 0.125387 0.120156 0.114149 0.107585 0.100688 0.0934562 0.0858902 0.0779899 0.0697553 0.0611864 0.0522833 0.0435701 0.0355711 0.0282863 0.0217158 0.0158596 0.0107175 0.00628972 0.00257615 -0.000485766 -0.0029586 -0.00484235 -0.00613701 -0.00684259 -0.00695909 -0.00648651 -0.00542484 -0.00415339 -0.00305147 -0.00211908 -0.00135621 -0.000762868 -0.000339052 -8.47631e-05 0 0 -6.32276e-05 -0.00025291 -0.000569048 -0.00101164 -0.00158069 -0.00227619 -0.00309815 -0.00404657 -0.00507452 -0.00613511 -0.00722833 -0.00835418 -0.00951266 -0.0107038 -0.0119275 -0.0131839 -0.0144346 -0.0156413 -0.016804 -0.0179228 -0.0189975 -0.0200283 -0.0210151 -0.021958 -0.0228674 -0.0237539 -0.0246177 -0.0254585 -0.0262766 -0.0270718 -0.0278441 -0.0285936 -0.0292667 -0.0298098 -0.0302228 -0.0305059 -0.0306589 -0.0306819 -0.0305749 -0.0303378 -0.0300814 -0.0299161 -0.0298419 -0.029859 -0.0299671 -0.0301665 -0.030457 -0.0308387 -0.0312618 -0.0316767 -0.0320833 -0.0324816 -0.0328716 -0.0332534 -0.0336269 -0.0339921 -0.0339265 -0.0330073 -0.0312347 -0.0286086 -0.0251291 -0.020796 -0.0156095 -0.00956953 -0.00274413 0.0047986 0.0130587 0.022036 0.0317308 0.0421428 0.0532722 0.0651189 0.077062 0.0884805 0.0993744 0.109744 0.119589 0.128909 0.137704 0.145975 0.153471 0.15994 0.165383 0.1698 0.173191 0.175555 0.176893 0.177204 0.17652 0.174871 0.172257 0.168679 0.164135 0.158627 0.152154 0.144716 0.136595 0.128071 0.119145 0.109817 0.100086 0.0899538 0.079419 0.0684821 0.0577674 0.0478995 0.0388785 0.0307043 0.0233769 0.0168963 0.0112625 0.00647553 0.00247047 -0.000817604 -0.00338869 -0.00524279 -0.00637991 -0.00680004 -0.00650318 -0.00548934 -0.00420278 -0.00308775 -0.00214427 -0.00137234 -0.000771939 -0.000343084 -8.57709e-05 0 0 -7.00027e-05 -0.000280011 -0.000630024 -0.00112004 -0.00175007 -0.0025201 -0.00343013 -0.00448017 -0.00559784 -0.00671076 -0.00781892 -0.00892234 -0.010021 -0.0111149 -0.0122041 -0.0132885 -0.0143254 -0.015272 -0.0161284 -0.0168944 -0.0175702 -0.0181557 -0.0186509 -0.0190558 -0.0194125 -0.0197631 -0.0201075 -0.0204458 -0.020778 -0.021104 -0.0214239 -0.0217377 -0.0220094 -0.0222032 -0.0223189 -0.0223567 -0.0223166 -0.0221984 -0.0220023 -0.0217283 -0.0214979 -0.0214331 -0.0215338 -0.0217999 -0.0222315 -0.0228286 -0.0235912 -0.0245193 -0.0255224 -0.02651 -0.0274821 -0.0284388 -0.02938 -0.0303057 -0.0312159 -0.0321106 -0.0324748 -0.0317931 -0.0300657 -0.0272925 -0.0234735 -0.0186088 -0.0126983 -0.00574197 0.00218084 0.0109909 0.0206882 0.0312728 0.0427447 0.0551038 0.0683501 0.0824837 0.0967581 0.110427 0.123489 0.135946 0.147797 0.159042 0.169681 0.179714 0.188823 0.196688 0.203309 0.208686 0.21282 0.21571 0.217357 0.21776 0.216956 0.214982 0.211838 0.207525 0.202041 0.195388 0.187565 0.178572 0.168755 0.15846 0.147687 0.136436 0.124707 0.1125 0.0998151 0.0866522 0.0737447 0.0618259 0.0508959 0.0409545 0.0320018 0.0240379 0.0170626 0.0110761 0.00601226 0.00180516 -0.00154522 -0.00403889 -0.00567583 -0.00645605 -0.00637955 -0.00544633 -0.00416985 -0.00306356 -0.00212747 -0.00136158 -0.00076589 -0.000340396 -8.50989e-05 0 0 -7.56134e-05 -0.000302454 -0.000680521 -0.00120981 -0.00189034 -0.00272208 -0.00370506 -0.00483926 -0.00602065 -0.00714519 -0.00821288 -0.00922372 -0.0101777 -0.0110748 -0.0119151 -0.0126986 -0.0133784 -0.0139077 -0.0142866 -0.014515 -0.014593 -0.0145205 -0.0142976 -0.0139243 -0.0134846 -0.0130629 -0.012659 -0.012273 -0.011905 -0.0115548 -0.0112225 -0.0109081 -0.0106017 -0.0102934 -0.0099832 -0.00967111 -0.00935712 -0.00904123 -0.00872345 -0.00840377 -0.00821507 -0.00829021 -0.00862921 -0.00923206 -0.0100988 -0.0112293 -0.0126237 -0.0142819 -0.0160622 -0.0178228 -0.0195635 -0.0212845 -0.0229858 -0.0246672 -0.0263289 -0.0279709 -0.0289715 -0.0287092 -0.027184 -0.0243959 -0.0203449 -0.015031 -0.00845418 -0.000614448 0.00839755 0.0184912 0.0296664 0.0419233 0.0552618 0.0696819 0.0851837 0.101767 0.118546 0.134634 0.150032 0.164739 0.178755 0.192081 0.204717 0.216661 0.227521 0.236902 0.244803 0.251226 0.256169 0.259634 0.261619 0.262125 0.261195 0.258874 0.255161 0.250055 0.243558 0.235669 0.226388 0.215716 0.204066 0.191855 0.179082 0.165747 0.151851 0.137394 0.122375 0.106794 0.0915021 0.0773503 0.0643385 0.0524665 0.0417345 0.0321424 0.0236901 0.0163778 0.0101396 0.00490969 0.000688054 -0.00252529 -0.00473035 -0.00592713 -0.00611561 -0.0052958 -0.0040546 -0.00297889 -0.00206867 -0.00132395 -0.000744722 -0.000330988 -8.27469e-05 0 0 -8.00599e-05 -0.00032024 -0.000720539 -0.00128096 -0.0020015 -0.00288216 -0.00392293 -0.00512383 -0.00634296 -0.00743841 -0.00841019 -0.00925831 -0.00998275 -0.0105835 -0.0110606 -0.0114141 -0.0115934 -0.0115483 -0.0112787 -0.0107846 -0.010066 -0.00912297 -0.00795542 -0.00656339 -0.00508373 -0.00365332 -0.00227214 -0.000940198 0.000342502 0.00157597 0.00276019 0.00389517 0.00495644 0.0059195 0.00678437 0.00755103 0.00821948 0.00878974 0.00926179 0.00963565 0.00976727 0.00951263 0.00887174 0.00784458 0.00643117 0.0046315 0.00244557 -0.000126613 -0.00288136 -0.00561498 -0.00832747 -0.0110188 -0.013689 -0.0163381 -0.0189661 -0.0215729 -0.0234167 -0.0237557 -0.0225898 -0.019919 -0.0157433 -0.0100627 -0.00287728 0.00581303 0.015906 0.0272994 0.0399932 0.0539875 0.0692822 0.0858773 0.103773 0.122969 0.142426 0.161104 0.179003 0.196123 0.212465 0.228027 0.242811 0.256816 0.269566 0.280583 0.289867 0.297419 0.303238 0.307324 0.309678 0.310299 0.309239 0.306547 0.302225 0.296271 0.288687 0.279471 0.268625 0.256148 0.242528 0.228256 0.21333 0.197752 0.18152 0.164635 0.147097 0.128907 0.111039 0.0944727 0.0792063 0.0652404 0.0525748 0.0412097 0.031145 0.0223808 0.0148525 0.00849599 0.00331115 -0.000702013 -0.00354348 -0.00521326 -0.00571136 -0.00503776 -0.00385704 -0.00283374 -0.00196788 -0.00125944 -0.000708435 -0.00031486 -7.8715e-05 0 0 -8.3342e-05 -0.000333368 -0.000750078 -0.00133347 -0.00208355 -0.00300031 -0.00408376 -0.00533389 -0.00656476 -0.00759042 -0.00841087 -0.00902612 -0.00943615 -0.00964098 -0.0096406 -0.00943501 -0.00897062 -0.00819385 -0.0071047 -0.00570316 -0.00398923 -0.00196292 0.000375777 0.00302686 0.00579018 0.0084656 0.0110531 0.0135527 0.0159644 0.0182882 0.0205241 0.02