<?xml version="1.0"?> 
<VTKFile type="StructuredGrid" version="0.1"> 
<StructuredGrid WholeExtent="0 128 0 128 0 0"> 
<Piece Extent="0 128 0 128 0 0"> 
<PointData>
<DataArray type="Float32" Name="u" format="ascii" NumberOfComponents="1"> 
0 0 0 0 0 0 0 0 0 0 0 0 0 0 0 0 0 0 0 0 0 0 0 0 0 0 0 0 0 0 0 0 0 0 0 0 0 0 0 0 0 0 0 0 0 0 0 0 0 0 0 0 0 0 0 0 0 0 0 0 0 0 0 0 0 0 0 0 0 0 0 0 0 0 0 0 0 0 0 0 0 0 0 0 0 0 0 0 0 0 0 0 0 0 0 0 0 0 0 0 0 0 0 0 0 0 0 0 0 0 0 0 0 0 0 0 0 0 0 0 0 0 0 0 0 0 0 0 0 0 -2.28501e-07 -9.14003e-07 -2.05651e-06 -3.65601e-06 -5.71252e-06 -8.22602e-06 -1.11965e-05 -1.4624e-05 -1.81738e-05 -2.1511e-05 -2.46358e-05 -2.7548e-05 -3.02478e-05 -3.2735e-05 -3.50097e-05 -3.70719e-05 -3.86138e-05 -3.93275e-05 -3.92131e-05 -3.82706e-05 -3.64999e-05 -3.39011e-05 -3.04741e-05 -2.6219e-05 -2.15689e-05 -1.69567e-05 -1.23824e-05 -7.84623e-06 -3.34799e-06 1.11226e-06 5.53453e-06 9.91881e-06 1.37624e-05 1.65625e-05 1.83192e-05 1.90324e-05 1.87022e-05 1.73285e-05 1.49114e-05 1.14509e-05 7.08862e-06 1.96642e-06 -3.91574e-06 -1.05579e-05 -1.79599e-05 -2.6122e-05 -3.50439e-05 -4.47259e-05 -5.43302e-05 -6.30194e-05 -7.07934e-05 -7.76523e-05 -8.3596e-05 -8.86245e-05 -9.27379e-05 -9.59361e-05 -9.74022e-05 -9.6319e-05 -9.26865e-05 -8.65048e-05 -7.77739e-05 -6.64938e-05 -5.26644e-05 -3.62858e-05 -1.74894e-05 3.59339e-06 2.69625e-05 5.2618e-05 8.05599e-05 0.000110788 0.000143303 0.000178104 0.000213787 0.00024895 0.000283592 0.000317713 0.000351313 0.000384392 0.000416951 0.000448989 0.000478946 0.000505264 0.000527942 0.000546981 0.000562381 0.000574141 0.000582261 0.000586742 0.000587563 0.000584704 0.000578165 0.000567945 0.000554045 0.000536465 0.000515204 0.000490264 0.000463157 0.000435397 0.000406986 0.000377923 0.000348207 0.000317839 0.000286819 0.000255146 0.000224183 0.000195288 0.000168462 0.000143706 0.000121019 0.000100401 8.18516e-05 6.53718e-05 5.08638e-05 3.82303e-05 2.74714e-05 1.85871e-05 1.15773e-05 6.44212e-06 3.18146e-06 1.79534e-06 1.37456e-06 1.00988e-06 7.01306e-07 4.48836e-07 2.5247e-07 1.12209e-07 2.80522e-08 0 0 -9.14003e-07 -3.65601e-06 -8.22602e-06 -1.4624e-05 -2.28501e-05 -3.29041e-05 -4.47861e-05 -5.84962e-05 -7.26952e-05 -8.60442e-05 -9.85432e-05 -0.000110192 -0.000120991 -0.00013094 -0.000140039 -0.000148288 -0.000154455 -0.00015731 -0.000156853 -0.000153082 -0.000146 -0.000135604 -0.000121897 -0.000104876 -8.62754e-05 -6.78266e-05 -4.95298e-05 -3.13849e-05 -1.3392e-05 4.44906e-06 2.21381e-05 3.96752e-05 5.50495e-05 6.625e-05 7.32767e-05 7.61296e-05 7.48087e-05 6.93141e-05 5.96457e-05 4.58035e-05 2.83545e-05 7.86566e-06 -1.5663e-05 -4.22314e-05 -7.18397e-05 -0.000104488 -0.000140176 -0.000178903 -0.000217321 -0.000252078 -0.000283174 -0.000310609 -0.000334384 -0.000354498 -0.000370952 -0.000383745 -0.000389609 -0.000385276 -0.000370746 -0.000346019 -0.000311096 -0.000265975 -0.000210658 -0.000145143 -6.99575e-05 1.43736e-05 0.00010785 0.000210472 0.000322239 0.000443152 0.000573211 0.000712414 0.000855149 0.0009958 0.00113437 0.00127085 0.00140525 0.00153757 0.0016678 0.00179595 0.00191578 0.00202106 0.00211177 0.00218792 0.00224952 0.00229656 0.00232904 0.00234697 0.00235025 0.00233882 0.00231266 0.00227178 0.00221618 0.00214586 0.00206082 0.00196105 0.00185263 0.00174159 0.00162794 0.00151169 0.00139283 0.00127136 0.00114728 0.00102059 0.000896731 0.000781152 0.00067385 0.000574824 0.000484075 0.000401602 0.000327406 0.000261487 0.000203455 0.000152921 0.000109886 7.43485e-05 4.63094e-05 2.57685e-05 1.27258e-05 7.18137e-06 5.49824e-06 4.03952e-06 2.80522e-06 1.79534e-06 1.00988e-06 4.48836e-07 1.12209e-07 0 0 -2.05651e-06 -8.22602e-06 -1.85086e-05 -3.29041e-05 -5.14126e-05 -7.40342e-05 -0.000100769 -0.000131616 -0.000163564 -0.000193599 -0.000221722 -0.000247932 -0.00027223 -0.000294615 -0.000315087 -0.000333647 -0.000347524 -0.000353948 -0.000352918 -0.000344435 -0.000328499 -0.00030511 -0.000274267 -0.000235971 -0.00019412 -0.00015261 -0.000111442 -7.0616e-05 -3.01319e-05 1.00104e-05 4.98108e-05 8.92693e-05 0.000123861 0.000149062 0.000164873 0.000171292 0.00016832 0.000155957 0.000134203 0.000103058 6.37976e-05 1.76977e-05 -3.52417e-05 -9.50207e-05 -0.000161639 -0.000235098 -0.000315395 -0.000402533 -0.000488972 -0.000567174 -0.000637141 -0.00069887 -0.000752364 -0.000797621 -0.000834641 -0.000863425 -0.000876619 -0.000866871 -0.000834179 -0.000778544 -0.000699965 -0.000598444 -0.00047398 -0.000326572 -0.000157404 3.23405e-05 0.000242663 0.000473562 0.000725039 0.000997093 0.00128972 0.00160293 0.00192409 0.00224055 0.00255233 0.00285942 0.00316182 0.00345953 0.00375256 0.0040409 0.00431051 0.00454737 0.00475148 0.00492283 0.00506143 0.00516727 0.00524035 0.00528068 0.00528807 0.00526234 0.00520348 0.0051115 0.00498641 0.00482818 0.00463684 0.00441237 0.00416841 0.00391858 0.00366287 0.0034013 0.00313386 0.00286055 0.00258137 0.00229632 0.00201764 0.00175759 0.00151616 0.00129335 0.00108917 0.000903605 0.000736664 0.000588346 0.000457774 0.000344073 0.000247243 0.000167284 0.000104196 5.79791e-05 2.86331e-05 1.61581e-05 1.2371e-05 9.08892e-06 6.31175e-06 4.03952e-06 2.27223e-06 1.00988e-06 2.5247e-07 0 0 -3.65601e-06 -1.4624e-05 -3.29041e-05 -5.84962e-05 -9.14003e-05 -0.000131616 -0.000179144 -0.000233985 -0.000290781 -0.000344177 -0.000394173 -0.000440768 -0.000483964 -0.00052376 -0.000560155 -0.000593151 -0.000617821 -0.000629241 -0.00062741 -0.00061233 -0.000583999 -0.000542418 -0.000487586 -0.000419505 -0.000345102 -0.000271307 -0.000198119 -0.00012554 -5.35678e-05 1.77962e-05 8.85525e-05 0.000158701 0.000220198 0.000265 0.000293107 0.000304518 0.000299235 0.000277256 0.000238583 0.000183214 0.000113418 3.14626e-05 -6.26519e-05 -0.000168926 -0.000287359 -0.000417951 -0.000560703 -0.000715614 -0.000869283 -0.00100831 -0.00113269 -0.00124244 -0.00133754 -0.00141799 -0.00148381 -0.00153498 -0.00155843 -0.0015411 -0.00148298 -0.00138408 -0.00124438 -0.0010639 -0.000842631 -0.000580573 -0.00027983 5.74943e-05 0.0004314 0.000841888 0.00128896 0.00177261 0.00229284 0.00284966 0.0034206 0.0039832 0.00453747 0.00508341 0.00562101 0.00615028 0.00667121 0.00718382 0.00766313 0.00808422 0.00844708 0.0087517 0.00899809 0.00918625 0.00931618 0.00938787 0.00940101 0.00935526 0.00925063 0.00908712 0.00886472 0.00858344 0.00824327 0.00784422 0.00741051 0.00696636 0.00651178 0.00604676 0.00557131 0.00508542 0.0045891 0.00408234 0.00358692 0.00312461 0.0026954 0.0022993 0.0019363 0.00160641 0.00130963 0.00104595 0.00081382 0.000611685 0.000439543 0.000297394 0.000185237 0.000103074 5.09033e-05 2.87255e-05 2.19929e-05 1.61581e-05 1.12209e-05 7.18137e-06 4.03952e-06 1.79534e-06 4.48836e-07 0 0 -5.71252e-06 -2.28501e-05 -5.14126e-05 -9.14003e-05 -0.000142813 -0.000205651 -0.000279913 -0.000365601 -0.000454345 -0.000537776 -0.000615895 -0.000688701 -0.000756194 -0.000818375 -0.000875242 -0.000926798 -0.000965345 -0.000983189 -0.000980329 -0.000956765 -0.000912498 -0.000847528 -0.000761854 -0.000655476 -0.000539221 -0.000423916 -0.000309561 -0.000196156 -8.36997e-05 2.78066e-05 0.000138363 0.00024797 0.000344059 0.000414062 0.000457979 0.00047581 0.000467555 0.000433213 0.000372785 0.000286272 0.000177215 4.91604e-05 -9.78936e-05 -0.000263946 -0.000448998 -0.000653049 -0.000876098 -0.00111815 -0.00135826 -0.00157548 -0.00176984 -0.00194131 -0.0020899 -0.00221561 -0.00231845 -0.0023984 -0.00243505 -0.00240797 -0.00231716 -0.00216262 -0.00194435 -0.00166234 -0.00131661 -0.000907145 -0.000437234 8.98348e-05 0.000674063 0.00131545 0.002014 0.0027697 0.00358257 0.00445259 0.00534468 0.00622375 0.0070898 0.00794283 0.00878283 0.00960981 0.0104238 0.0112247 0.0119736 0.0126316 0.0131986 0.0136745 0.0140595 0.0143535 0.0145565 0.0146686 0.0146891 0.0146176 0.0144541 0.0141986 0.0138511 0.0134116 0.0128801 0.0122566 0.0115789 0.0108849 0.0101747 0.00944806 0.00870517 0.00794597 0.00717047 0.00637866 0.00560457 0.0048822 0.00421156 0.00359265 0.00302547 0.00251001 0.00204629 0.00163429 0.00127159 0.000955758 0.000686786 0.000464678 0.000289434 0.000161053 7.95364e-05 4.48836e-05 3.4364e-05 2.5247e-05 1.75326e-05 1.12209e-05 6.31175e-06 2.80522e-06 7.01306e-07 0 0 -8.22602e-06 -3.29041e-05 -7.40342e-05 -0.000131616 -0.000205651 -0.000296137 -0.000403075 -0.000526465 -0.000654257 -0.000774398 -0.000886888 -0.000991729 -0.00108892 -0.00117846 -0.00126035 -0.00133459 -0.0013901 -0.00141579 -0.00141167 -0.00137774 -0.001314 -0.00122044 -0.00109707 -0.000943885 -0.000776479 -0.00061044 -0.000445768 -0.000282464 -0.000120528 4.00415e-05 0.000199243 0.000357077 0.000495445 0.00059625 0.00065949 0.000685166 0.000673279 0.000623827 0.000536811 0.000412231 0.00025519 7.0791e-05 -0.000140967 -0.000380083 -0.000646557 -0.00094039 -0.00126158 -0.00161013 -0.00195589 -0.0022687 -0.00254856 -0.00279548 -0.00300945 -0.00319048 -0.00333856 -0.0034537 -0.00350648 -0.00346748 -0.00333671 -0.00311417 -0.00279986 -0.00239378 -0.00189592 -0.00130629 -0.000629618 0.000129362 0.000970651 0.00189425 0.00290016 0.00398837 0.00515889 0.00641173 0.00769634 0.0089622 0.0102093 0.0114377 0.0126473 0.0138381 0.0150102 0.0161636 0.0172421 0.0181895 0.0190059 0.0196913 0.0202457 0.0206691 0.0209614 0.0211227 0.0211523 0.0210493 0.0208139 0.020446 0.0199456 0.0193127 0.0185474 0.0176495 0.0166736 0.0156743 0.0146515 0.0136052 0.0125354 0.0114422 0.0103255 0.00918527 0.00807057 0.00703037 0.00606465 0.00517342 0.00435667 0.00361442 0.00294666 0.00235338 0.0018311 0.00137629 0.000988972 0.000669136 0.000416784 0.000231916 0.000114532 6.46323e-05 4.94841e-05 3.63557e-05 2.5247e-05 1.61581e-05 9.08892e-06 4.03952e-06 1.00988e-06 0 0 -1.11965e-05 -4.47861e-05 -0.000100769 -0.000179144 -0.000279913 -0.000403075 -0.00054863 -0.000716578 -0.000890516 -0.00105404 -0.00120715 -0.00134985 -0.00148214 -0.00160401 -0.00171548 -0.00181652 -0.00189208 -0.00192705 -0.00192144 -0.00187526 -0.0017885 -0.00166115 -0.00149323 -0.00128473 -0.00105687 -0.000830876 -0.00060674 -0.000384465 -0.000164051 5.45009e-05 0.000271192 0.000486022 0.000674356 0.000811562 0.000897639 0.000932587 0.000916407 0.000849098 0.00073066 0.000561093 0.000347342 9.63544e-05 -0.000191871 -0.000517335 -0.000880037 -0.00127998 -0.00171715 -0.00219157 -0.00266218 -0.00308795 -0.00346888 -0.00380496 -0.0040962 -0.0043426 -0.00454416 -0.00470087 -0.00477271 -0.00471963 -0.00454164 -0.00423874 -0.00381092 -0.0032582 -0.00258056 -0.001778 -0.00085698 0.000176076 0.00132116 0.00257828 0.00394743 0.00542862 0.00702183 0.00872707 0.0104756 0.0121986 0.013896 0.0155679 0.0172143 0.0188352 0.0204306 0.0220004 0.0234683 0.0247579 0.0258692 0.0268021 0.0275566 0.0281329 0.0285308 0.0287504 0.0287906 0.0286505 0.0283301 0.0278293 0.0271482 0.0262868 0.025245 0.0240229 0.0226947 0.0213345 0.0199423 0.0185182 0.0170621 0.0155741 0.0140541 0.0125022 0.0109849 0.00956911 0.00825466 0.00704159 0.00592992 0.00491963 0.00401073 0.00320322 0.00249232 0.00187329 0.0013461 0.000910769 0.00056729 0.000315664 0.000155891 8.79718e-05 6.73534e-05 4.94841e-05 3.4364e-05 2.19929e-05 1.2371e-05 5.49824e-06 1.37456e-06 0 0 -1.4624e-05 -5.84962e-05 -0.000131616 -0.000233985 -0.000365601 -0.000526465 -0.000716578 -0.000935939 -0.00116312 -0.00137671 -0.00157669 -0.00176307 -0.00193586 -0.00209504 -0.00224062 -0.0023726 -0.00247128 -0.00251696 -0.00250964 -0.00244932 -0.002336 -0.00216967 -0.00195035 -0.00167802 -0.00138041 -0.00108523 -0.000792477 -0.000502158 -0.000214271 7.11849e-05 0.00035421 0.000634804 0.000880792 0.00106 0.00117243 0.00121807 0.00119694 0.00110903 0.000954331 0.000732856 0.000453672 0.000125851 -0.000250608 -0.000675703 -0.00114944 -0.00167181 -0.00224281 -0.00286246 -0.00347713 -0.00403324 -0.00453078 -0.00496974 -0.00535014 -0.00567197 -0.00593523 -0.00613991 -0.00623374 -0.00616441 -0.00593194 -0.00553631 -0.00497753 -0.0042556 -0.00337052 -0.00232229 -0.00111932 0.000229977 0.0017256 0.00336755 0.00515583 0.00709044 0.00917137 0.0113986 0.0136824 0.0159328 0.0181499 0.0203336 0.022484 0.0246011 0.0266849 0.0287353 0.0306525 0.0323369 0.0337883 0.0350068 0.0359924 0.036745 0.0372647 0.0375515 0.037604 0.0374211 0.0370025 0.0363485 0.0354589 0.0343337 0.0329731 0.0313769 0.029642 0.0278654 0.0260471 0.024187 0.0222852 0.0203417 0.0183564 0.0163294 0.0143477 0.0124984 0.0107816 0.00919718 0.0077452 0.00642564 0.0052385 0.00418379 0.00325528 0.00244674 0.00175817 0.00118958 0.00074095 0.000412296 0.000203613 0.000114902 8.79718e-05 6.46323e-05 4.48836e-05 2.87255e-05 1.61581e-05 7.18137e-06 1.79534e-06 0 0 -1.80328e-05 -7.21312e-05 -0.000162295 -0.000288525 -0.00045082 -0.000649181 -0.000883607 -0.0011541 -0.00143327 -0.00169374 -0.00193551 -0.00215857 -0.00236293 -0.00254859 -0.00271554 -0.00286379 -0.00296893 -0.00300655 -0.00297666 -0.00287925 -0.00271432 -0.00248188 -0.00218192 -0.00181444 -0.00141521 -0.00102 -0.000628805 -0.000241626 0.000141537 0.000520684 0.000895815 0.00126693 0.00159277 0.00183208 0.00198486 0.00205111 0.00203082 0.00192401 0.00173066 0.00145078 0.00109615 0.000678552 0.00019798 -0.000345564 -0.000952078 -0.00162156 -0.00235402 -0.00314945 -0.00393909 -0.00465418 -0.00529472 -0.00586072 -0.00635216 -0.00676906 -0.0071114 -0.0073792 -0.00750563 -0.00742387 -0.00713393 -0.00663579 -0.00592947 -0.00501496 -0.00389226 -0.00256138 -0.00103308 0.000681833 0.00258337 0.00467154 0.00694633 0.00940774 0.0120558 0.0148904 0.0177972 0.0206616 0.0234837 0.0262634 0.0290007 0.0316957 0.0343483 0.0369585 0.0393993 0.0415435 0.0433913 0.0449425 0.0461971 0.0471553 0.0478169 0.0481819 0.0482486 0.048015 0.0474811 0.046647 0.0455125 0.0440778 0.0423428 0.0403075 0.0380951 0.0358284 0.0335076 0.0311326 0.0287035 0.0262202 0.0236827 0.0210911 0.0185562 0.016189 0.0139895 0.0119576 0.0100934 0.00839685 0.00686797 0.00550675 0.0043061 0.00325891 0.00236519 0.00162494 0.00103816 0.000604839 0.000324988 0.000198604 0.000152056 0.000111715 7.75796e-05 4.96509e-05 2.79286e-05 1.24127e-05 3.10318e-06 0 0 -2.09471e-05 -8.37883e-05 -0.000188524 -0.000335153 -0.000523677 -0.000754095 -0.00102641 -0.00134061 -0.00166216 -0.00195649 -0.00222362 -0.00246353 -0.00267623 -0.00286172 -0.00301999 -0.00315106 -0.00322623 -0.00321685 -0.0031229 -0.00294438 -0.00268131 -0.00233367 -0.00190146 -0.0013847 -0.000829426 -0.000281711 0.000258447 0.000791051 0.0013161 0.00183359 0.00234353 0.00284591 0.00328831 0.00361832 0.00383594 0.00394117 0.003934 0.00381444 0.00358248 0.00323813 0.00279676 0.00227373 0.00166905 0.000982706 0.000214711 -0.000634938 -0.00156624 -0.0025792 -0.00358639 -0.00450038 -0.00532117 -0.00604876 -0.00668314 -0.00722433 -0.00767232 -0.00802711 -0.00820444 -0.00812005 -0.00777393 -0.00716609 -0.00629652 -0.00516523 -0.00377222 -0.00211748 -0.000214712 0.00192241 0.00429389 0.00689971 0.00973989 0.0128144 0.0161233 0.0196665 0.0233005 0.0268818 0.0304102 0.0338859 0.0373087 0.0406788 0.0439961 0.0472606 0.0503133 0.0529951 0.055306 0.057246 0.0588152 0.0600135 0.0608409 0.0612975 0.0613803 0.0610863 0.0604156 0.0593682 0.057944 0.0561431 0.0539655 0.0514111 0.0486331 0.0457846 0.0428655 0.0398758 0.0368156 0.0336848 0.0304835 0.0272116 0.024008 0.0210116 0.0182224 0.0156403 0.0132654 0.0110977 0.00913711 0.00738373 0.00583091 0.00447206 0.00330717 0.00233625 0.0015593 0.000976321 0.000587306 0.000392258 0.000300322 0.000220645 0.000153226 9.80645e-05 5.51613e-05 2.45161e-05 6.12903e-06 0 0 -2.33668e-05 -9.34674e-05 -0.000210302 -0.000373869 -0.000584171 -0.000841206 -0.00114498 -0.00149548 -0.00184978 -0.00216496 -0.00244102 -0.00267795 -0.00287575 -0.00303443 -0.00315397 -0.0032344 -0.00324319 -0.00314784 -0.00294835 -0.00264472 -0.00223695 -0.00172503 -0.00110898 -0.000388787 0.000376952 0.00112964 0.00186928 0.00259587 0.00330941 0.0040099 0.00469734 0.00537173 0.00596742 0.00641873 0.00672568 0.00688826 0.00690647 0.00678032 0.0065098 0.00609491 0.00555549 0.00491138 0.00416259 0.00330911 0.00235093 0.00128807 0.000120522 -0.00115172 -0.00241904 -0.00357184 -0.00461011 -0.00553386 -0.00634309 -0.0070378 -0.00761799 -0.00808365 -0.00833017 -0.00825293 -0.00785194 -0.00712719 -0.00607868 -0.00470642 -0.0030104 -0.000990617 0.00133579 0.00395171 0.00685714 0.0100521 0.0135365 0.0173105 0.021374 0.0257269 0.0301924 0.0345932 0.0389294 0.043201 0.0474081 0.0515505 0.0556283 0.0596415 0.0633945 0.0666914 0.0695325 0.0719175 0.0738466 0.0753198 0.076337 0.0768982 0.076999 0.076635 0.075806 0.0745121 0.0727533 0.0705297 0.0678411 0.0646876 0.0612563 0.057734 0.0541208 0.0504166 0.0466216 0.0427356 0.0387587 0.0346909 0.0307031 0.0269662 0.0234802 0.0202453 0.0172612 0.0145281 0.0120459 0.00981472 0.00782971 0.00608617 0.0045841 0.00332351 0.00230439 0.00152674 0.000990567 0.000695865 0.000532771 0.000391424 0.000271822 0.000173966 9.7856e-05 4.34915e-05 1.08729e-05 0 0 -2.52921e-05 -0.000101168 -0.000227629 -0.000404674 -0.000632303 -0.000910516 -0.00123931 -0.0016187 -0.00199615 -0.00231915 -0.00258771 -0.00280182 -0.00296149 -0.00306671 -0.00311749 -0.00311382 -0.0030198 -0.00279953 -0.00245302 -0.00198025 -0.00138124 -0.000655981 0.00019553 0.00117329 0.00220392 0.00321406 0.0042037 0.00517284 0.00612148 0.00704962 0.00795726 0.00884441 0.00963008 0.0102333 0.0106541 0.0108924 0.0109482 0.0108216 0.0105126 0.0100211 0.00937235 0.00859152 0.00767861 0.00663364 0.00545659 0.00414747 0.00270628 0.00113301 -0.00043703 -0.00186855 -0.00316156 -0.00431604 -0.00533201 -0.00620946 -0.00694839 -0.0075488 -0.00788281 -0.00782253 -0.00736796 -0.0065191 -0.00527595 -0.00363851 -0.00160679 0.000819226 0.00361843 0.00676974 0.0102731 0.0141286 0.0183362 0.0228959 0.0278077 0.0330716 0.0384727 0.0437959 0.0490413 0.0542089 0.0592987 0.0643107 0.0692449 0.0741013 0.0786429 0.0826327 0.0860707 0.0889569 0.0912914 0.0930741 0.094305 0.0949841 0.0951049 0.094661 0.0936523 0.0920788 0.0899405 0.0872375 0.0839697 0.0801371 0.0759645 0.0716766 0.0672735 0.0627551 0.0581214 0.0533725 0.0485083 0.0435289 0.0386413 0.0340527 0.0297631 0.0257725 0.0220808 0.0186881 0.0155944 0.0127997 0.0103025 0.00810126 0.00619599 0.00458671 0.00327342 0.0022561 0.00153477 0.00110942 0.000849403 0.000624051 0.000433369 0.000277356 0.000156013 6.9339e-05 1.73348e-05 0 0 -2.67229e-05 -0.000106892 -0.000240506 -0.000427566 -0.000668072 -0.000962024 -0.00130942 -0.00171027 -0.00210125 -0.00241906 -0.00266369 -0.00283516 -0.00293346 -0.00295858 -0.00291053 -0.00278931 -0.00255607 -0.00217193 -0.00163691 -0.000950994 -0.000114195 0.000873492 0.00201207 0.00330153 0.00465149 0.00597154 0.00726169 0.00852194 0.0097523 0.0109527 0.0121233 0.0132639 0.0142763 0.015062 0.0156211 0.0159535 0.0160593 0.0159384 0.0155909 0.0150167 0.0142473 0.0133141 0.0122171 0.0109563 0.00953167 0.00794325 0.00619102 0.00427498 0.00235963 0.000609471 -0.000975503 -0.00239529 -0.00364989 -0.00473931 -0.00566354 -0.00642258 -0.00686237 -0.00682884 -0.00632199 -0.00534182 -0.00388833 -0.00196153 0.0004386 0.00331205 0.00663321 0.0103765 0.0145419 0.0191294 0.024139 0.0295708 0.0354246 0.0417006 0.0481414 0.0544899 0.0607459 0.0669095 0.0729807 0.0789595 0.0848459 0.0906399 0.0960585 0.100819 0.104921 0.108364 0.111149 0.113276 0.114745 0.115555 0.115698 0.115164 0.113954 0.112068 0.109506 0.106267 0.102351 0.0977594 0.0927577 0.0876124 0.0823236 0.0768912 0.0713152 0.0655956 0.0597324 0.0537257 0.0478228 0.0422713 0.037071 0.0322219 0.0277242 0.0235778 0.0197826 0.0163388 0.0132493 0.0105173 0.00814284 0.00612586 0.00446638 0.0031644 0.00221992 0.00163294 0.00125022 0.000918526 0.000637866 0.000408234 0.000229632 0.000102058 2.55146e-05 0 0 -2.76592e-05 -0.000110637 -0.000248933 -0.000442547 -0.000691479 -0.00099573 -0.0013553 -0.00177019 -0.00216508 -0.00246468 -0.00266897 -0.00277796 -0.00279164 -0.00271003 -0.00253311 -0.00226089 -0.00185198 -0.00126503 -0.000500009 0.000443065 0.0015642 0.00286339 0.00434063 0.00599594 0.00771964 0.00940208 0.0110433 0.0126432 0.0142019 0.0157193 0.0171954 0.0186303 0.0199061 0.0209049 0.0216268 0.0220717 0.0222397 0.0221307 0.0217447 0.0210818 0.0201804 0.0190792 0.0177781 0.0162771 0.0145762 0.0126754 0.0105747 0.00827419 0.00597095 0.00386224 0.00194805 0.000228392 -0.00129674 -0.00262735 -0.00376343 -0.00470498 -0.00526884 -0.00527186 -0.00471403 -0.00359535 -0.00191583 0.000324547 0.00312577 0.00648784 0.0103801 0.014772 0.0196634 0.0250543 0.0309449 0.037335 0.0442247 0.0516139 0.0591987 0.0666751 0.0740432 0.0813028 0.088454 0.0954969 0.102431 0.109257 0.115641 0.12125 0.126082 0.13014 0.133421 0.135927 0.137657 0.138611 0.138778 0.138145 0.136712 0.13448 0.131448 0.127617 0.122986 0.117555 0.111636 0.105541 0.0992711 0.0928249 0.0862028 0.0794048 0.072431 0.0652813 0.0582476 0.0516218 0.0454038 0.0395937 0.0341914 0.029197 0.0246105 0.0204318 0.0166701 0.0133343 0.0104246 0.00794095 0.00588329 0.00425164 0.00304601 0.0022664 0.00173521 0.00127485 0.000885313 0.0005666 0.000318713 0.00014165 3.54125e-05 0 0 -2.8101e-05 -0.000112404 -0.000252909 -0.000449615 -0.000702524 -0.00101163 -0.00137695 -0.00179846 -0.00218766 -0.00245601 -0.00260353 -0.00263021 -0.00253605 -0.00232105 -0.00198521 -0.00152853 -0.000907558 -7.88233e-05 0.00095767 0.00220192 0.00365393 0.0053137 0.00718122 0.00925651 0.0114084 0.0135057 0.0155484 0.0175366 0.0194702 0.0213492 0.0231737 0.0249435 0.0265195 0.027762 0.0286711 0.0292469 0.0294893 0.0293983 0.028974 0.0282163 0.0271717 0.0258868 0.0243615 0.022596 0.0205901 0.018344 0.0158575 0.0131306 0.0103969 0.00788974 0.0056091 0.00355501 0.00172745 0.000126425 -0.00124806 -0.002396 -0.00310224 -0.0031516 -0.00254408 -0.0012797 0.000641568 0.00321971 0.00645472 0.0103466 0.0148592 0.0199562 0.0256376 0.0319035 0.0387538 0.0461886 0.0542078 0.0628115 0.0716445 0.0803517 0.0889331 0.0973888 0.105719 0.113923 0.122001 0.129954 0.137392 0.143926 0.149556 0.154283 0.158106 0.161025 0.163041 0.164152 0.164345 0.163603 0.161926 0.159315 0.155769 0.151288 0.145873 0.139523 0.132599 0.125464 0.118116 0.110556 0.102784 0.0948002 0.086604 0.0781956 0.0699156 0.0621043 0.0547616 0.0478877 0.0414825 0.0355459 0.030078 0.0250789 0.0205648 0.0165523 0.0130414 0.010032 0.00752413 0.00551782 0.00401304 0.00300982 0.00230439 0.00169302 0.00117571 0.000752454 0.000423256 0.000188114 4.70284e-05 0 0 -2.80483e-05 -0.000112193 -0.000252434 -0.000448772 -0.000701206 -0.00100974 -0.00137436 -0.00179509 -0.00216897 -0.00239307 -0.00246739 -0.00239193 -0.00216668 -0.00179166 -0.00126685 -0.00059226 0.000277214 0.00138668 0.00273613 0.00432558 0.00615501 0.00822443 0.0105338 0.0130832 0.0157177 0.0182824 0.0207772 0.0232021 0.0255573 0.0278426 0.030058 0.0322036 0.0341164 0.0356332 0.0367541 0.0374791 0.0378083 0.0377415 0.0372788 0.0364201 0.035221 0.0337368 0.0319675 0.0299131 0.0275735 0.0249489 0.0220392 0.0188443 0.0156375 0.012692 0.0100077 0.00758455 0.00542267 0.00352201 0.00188257 0.000504355 -0.000362546 -0.000468047 0.000187852 0.00160515 0.00378385 0.00672395 0.0104255 0.0148884 0.0200703 0.0259291 0.0324646 0.0396768 0.0475658 0.0561316 0.0653741 0.0752934 0.0854787 0.0955195 0.105416 0.115168 0.124775 0.134237 0.143555 0.152729 0.161309 0.168846 0.175341 0.180794 0.185204 0.188571 0.190896 0.192179 0.192399 0.191539 0.189596 0.186573 0.182468 0.177281 0.171013 0.163664 0.155648 0.147379 0.138858 0.130085 0.12106 0.111782 0.102251 0.0924688 0.0828269 0.0737188 0.0651445 0.057104 0.0495973 0.0426244 0.0361853 0.03028 0.0249336 0.0201713 0.0159931 0.012399 0.00938892 0.00696293 0.00512102 0.00386319 0.00295775 0.00217304 0.00150906 0.000965797 0.000543261 0.000241449 6.03623e-05 0 0 -2.66833e-05 -0.000106733 -0.00024015 -0.000426933 -0.000667082 -0.000960599 -0.00130748 -0.00170773 -0.00204284 -0.00219429 -0.00216209 -0.00194623 -0.00154673 -0.000963567 -0.000196753 0.000753715 0.00193333 0.00338759 0.0051165 0.00712005 0.00939824 0.0119511 0.0147786 0.0178807 0.0210761 0.0241833 0.0272025 0.0301335 0.0329765 0.0357313 0.0383979 0.0409765 0.043278 0.0451136 0.0464831 0.0473867 0.0478243 0.047796 0.0473016 0.0463413 0.0449802 0.0432834 0.041251 0.038883 0.0361794 0.0331401 0.0297651 0.0260546 0.0223248 0.0188922 0.0157569 0.0129187 0.0103777 0.00813399 0.00618744 0.0045381 0.00347376 0.00328221 0.00396344 0.00551746 0.00794427 0.0112439 0.0154162 0.0204614 0.0263304 0.0329742 0.0403928 0.0485863 0.0575546 0.0672977 0.0778157 0.0891085 0.100707 0.112141 0.12341 0.134516 0.145457 0.156234 0.166847 0.177296 0.187069 0.195655 0.203052 0.209263 0.214286 0.218121 0.220769 0.222229 0.222478 0.221491 0.219268 0.21581 0.211116 0.205186 0.198021 0.189621 0.180454 0.17099 0.161229 0.151171 0.140816 0.130165 0.119216 0.10797 0.0968765 0.0863832 0.0764906 0.0671985 0.058507 0.050416 0.0429257 0.0360359 0.0297826 0.0242018 0.0192935 0.0150576 0.0114942 0.00860333 0.00638489 0.00483892 0.0037048 0.00272189 0.0018902 0.00120973 0.000680473 0.000302433 7.56081e-05 0 0 -2.31883e-05 -9.27533e-05 -0.000208695 -0.000371013 -0.000579708 -0.000834779 -0.00113623 -0.00148405 -0.00174308 -0.00177812 -0.00158919 -0.00117627 -0.000539382 0.000321489 0.00140634 0.00271517 0.00429179 0.00618003 0.00837988 0.0108914 0.0137144 0.0168491 0.0202954 0.0240534 0.0279119 0.0316599 0.0352974 0.0388245 0.0422411 0.0455472 0.0487429 0.0518281 0.0545855 0.056798 0.0584654 0.0595879 0.0601653 0.0601977 0.0596851 0.0586276 0.0571008 0.0551808 0.0528674 0.0501607 0.0470607 0.0435673 0.0396807 0.0354007 0.0310906 0.0271137 0.0234698 0.0201591 0.0171815 0.014537 0.0122256 0.0102473 0.00893023 0.00860259 0.00926435 0.0109155 0.0135561 0.017186 0.0218054 0.0274141 0.0339561 0.041375 0.049671 0.058844 0.0688939 0.0798209 0.0916249 0.104306 0.117333 0.130177 0.142836 0.155311 0.167601 0.179708 0.191631 0.203369 0.214348 0.223993 0.232303 0.23928 0.244921 0.249229 0.252202 0.253841 0.254116 0.252998 0.250487 0.246583 0.241286 0.234596 0.226512 0.217036 0.20669 0.195997 0.184958 0.173573 0.161842 0.149764 0.13734 0.12457 0.11196 0.100016 0.0887383 0.0781273 0.0681827 0.0589045 0.0502928 0.0423474 0.0351181 0.0286543 0.0229562 0.0180237 0.0138567 0.0104553 0.00781959 0.00594943 0.00455504 0.00334656 0.002324 0.00148736 0.000836639 0.00037184 9.29599e-05 0 0 -1.75633e-05 -7.02533e-05 -0.00015807 -0.000281013 -0.000439083 -0.00063228 -0.000860603 -0.00112405 -0.00126969 -0.00114456 -0.000748682 -8.20428e-05 0.000855355 0.00206351 0.00354242 0.0052921 0.0073526 0.009764 0.0125263 0.0156395 0.0191036 0.0229186 0.0270845 0.0316013 0.0362251 0.040712 0.045062 0.0492751 0.0533513 0.0572905 0.0610929 0.0647584 0.068039 0.0706865 0.0727011 0.0740826 0.0748312 0.0749468 0.0744293 0.0732789 0.0715829 0.0694288 0.0668165 0.063746 0.0602175 0.0562307 0.0517858 0.0468828 0.0419351 0.0373564 0.0331466 0.0293058 0.0258339 0.0227309 0.0199969 0.0176318 0.0160068 0.0154931 0.0160906 0.0177993 0.0206192 0.0245504 0.0295928 0.0357465 0.0429474 0.0511315 0.060299 0.0704498 0.0815838 0.0937011 0.106802 0.120886 0.135359 0.149628 0.163692 0.177552 0.191207 0.204659 0.217905 0.230947 0.243146 0.253861 0.263094 0.270844 0.277111 0.281895 0.285197 0.287015 0.287315 0.286061 0.283254 0.278893 0.272977 0.265508 0.256486 0.245909 0.234355 0.222401 0.210047 0.197292 0.184136 0.17058 0.156624 0.142267 0.128076 0.114616 0.101888 0.0898904 0.0786245 0.0680899 0.0582866 0.0492146 0.04094 0.0335289 0.0269813 0.0212971 0.0164763 0.012519 0.00942513 0.00719472 0.00550846 0.00404703 0.00281044 0.00179868 0.00101176 0.00044967 0.000112418 0 0 -9.80834e-06 -3.92333e-05 -8.8275e-05 -0.000156933 -0.000245208 -0.0003531 -0.000480608 -0.000627734 -0.000622672 -0.000293619 0.000359424 0.00133646 0.00263748 0.0042625 0.0062115 0.0084845 0.0111157 0.0141395 0.0175557 0.0213645 0.0255657 0.0301595 0.0351457 0.0405244 0.0460157 0.0513396 0.0564961 0.0614852 0.0663069 0.0709611 0.075448 0.0797675 0.0836383 0.0867791 0.08919 0.090871 0.091822 0.0920431 0.0915342 0.0902954 0.0884265 0.0860275 0.0830984 0.0796391 0.0756497 0.0711302 0.0660805 0.0605007 0.0548581 0.0496203 0.0447872 0.0403587 0.0363349 0.0327159 0.0295015 0.0266918 0.0247036 0.0239537 0.0244421 0.0261688 0.0291338 0.033337 0.0387786 0.0454585 0.0533043 0.0622438 0.0722769 0.0834037 0.0956241 0.108938 0.123346 0.138847 0.154783 0.170494 0.185979 0.20124 0.216275 0.231086 0.245671 0.260031 0.273462 0.28526 0.295425 0.303957 0.310855 0.31612 0.319752 0.321751 0.322075 0.32068 0.317568 0.312738 0.306191 0.297925 0.287942 0.276241 0.263451 0.250202 0.236494 0.222326 0.207699 0.192613 0.177068 0.161063 0.145226 0.130185 0.115939 0.102488 0.0898322 0.077972 0.066907 0.0566374 0.0472485 0.0388256 0.0313687 0.0248778 0.019353 0.0147943 0.0112015 0.00857479 0.00656508 0.00482332 0.00334953 0.0021437 0.00120583 0.000535925 0.000133981 0 0 7.66717e-08 3.06687e-07 6.90045e-07 1.22675e-06 1.91679e-06 2.76018e-06 3.75691e-06 4.90699e-06 0.000197972 0.000774714 0.00173513 0.00307923 0.004807 0.00691845 0.00941358 0.0122924 0.0155812 0.0193065 0.0234682 0.0280663 0.0331008 0.0385717 0.0444791 0.0508228 0.0572838 0.0635428 0.0695998 0.0754549 0.081108 0.086559 0.0918082 0.0968553 0.101383 0.105076 0.107932 0.109953 0.111138 0.111487 0.111 0.109677 0.107632 0.104977 0.101713 0.0978399 0.0933574 0.0882657 0.0825647 0.0762545 0.0698598 0.0639055 0.0583915 0.0533179 0.0486847 0.0444918 0.0407393 0.0374272 0.0350205 0.0339845 0.034319 0.036024 0.0390997 0.0435459 0.0493627 0.0565501 0.0650268 0.0747117 0.0856047 0.0977058 0.111015 0.125532 0.141258 0.158192 0.175606 0.192775 0.209698 0.226374 0.242805 0.258989 0.274928 0.29062 0.305297 0.318189 0.329296 0.338617 0.346153 0.351904 0.355869 0.35805 0.358395 0.356855 0.35343 0.348121 0.340926 0.331846 0.320881 0.308031 0.293977 0.2794 0.2643 0.248677 0.232532 0.215863 0.198671 0.180957 0.16341 0.146721 0.130891 0.115919 0.101806 0.0885509 0.0761542 0.0646159 0.0540434 0.0445443 0.0361185 0.028766 0.0224869 0.0172811 0.0131487 0.0100896 0.00772488 0.00567542 0.00394127 0.00252241 0.00141886 0.000630602 0.000157651 0 0 1.20917e-05 4.83668e-05 0.000108825 0.000193467 0.000302292 0.000435301 0.000592493 0.000773868 0.00119224 0.00206044 0.00337845 0.00514627 0.00736391 0.0100314 0.0131487 0.0167157 0.0207491 0.025265 0.0302637 0.0357449 