<?xml version="1.0"?> 
<VTKFile type="StructuredGrid" version="0.1"> 
<StructuredGrid WholeExtent="0 128 0 128 0 0"> 
<Piece Extent="0 128 0 128 0 0"> 
<PointData>
<DataArray type="Float32" Name="u" format="ascii" NumberOfComponents="1"> 
0 0 0 0 0 0 0 0 0 0 0 0 0 0 0 0 0 0 0 0 0 0 0 0 0 0 0 0 0 0 0 0 0 0 0 0 0 0 0 0 0 0 0 0 0 0 0 0 0 0 0 0 0 0 0 0 0 0 0 0 0 0 0 0 0 0 0 0 0 0 0 0 0 0 0 0 0 0 0 0 0 0 0 0 0 0 0 0 0 0 0 0 0 0 0 0 0 0 0 0 0 0 0 0 0 0 0 0 0 0 0 0 0 0 0 0 0 0 0 0 0 0 0 0 0 0 0 0 0 0 2.63702e-07 1.05481e-06 2.37332e-06 4.21924e-06 6.59256e-06 9.49328e-06 1.29214e-05 1.68769e-05 2.14363e-05 2.66757e-05 3.25953e-05 3.91951e-05 4.64749e-05 5.4435e-05 6.30752e-05 7.23955e-05 8.21499e-05 9.20924e-05 0.000102223 0.000112542 0.000123048 0.000133743 0.000144626 0.000155697 0.000166722 0.000177468 0.000187934 0.000198122 0.00020803 0.000217659 0.000227008 0.000236079 0.000244752 0.00025291 0.000260553 0.000267681 0.000274295 0.000280393 0.000285976 0.000291044 0.00029558 0.000299566 0.000303002 0.000305887 0.000308223 0.000310009 0.000311244 0.00031193 0.000312115 0.000311849 0.000311133 0.000309966 0.000308348 0.00030628 0.000303761 0.000300791 0.00029745 0.00029382 0.0002899 0.00028569 0.000281189 0.000276399 0.000271319 0.000265949 0.000260369 0.000254661 0.000248825 0.00024286 0.000236766 0.000230544 0.000224193 0.000217714 0.000211169 0.000204622 0.000198072 0.000191519 0.000184964 0.000178406 0.000171845 0.000165282 0.000158757 0.00015231 0.000145942 0.000139652 0.00013344 0.000127307 0.000121252 0.000115275 0.0001094 0.00010365 9.80242e-05 9.25233e-05 8.7147e-05 8.18955e-05 7.67687e-05 7.17665e-05 6.6905e-05 6.21999e-05 5.76512e-05 5.32589e-05 4.9023e-05 4.49436e-05 4.10206e-05 3.7254e-05 3.36604e-05 3.02565e-05 2.70422e-05 2.40175e-05 2.11825e-05 1.8537e-05 1.60812e-05 1.3815e-05 1.17393e-05 9.85483e-06 8.16164e-06 6.65972e-06 5.34908e-06 4.2297e-06 3.3016e-06 2.56477e-06 1.96365e-06 1.44268e-06 1.00186e-06 6.41193e-07 3.60671e-07 1.60298e-07 4.00746e-08 0 0 1.05481e-06 4.21924e-06 9.49328e-06 1.68769e-05 2.63702e-05 3.79731e-05 5.16856e-05 6.75078e-05 8.5745e-05 0.000106703 0.000130381 0.00015678 0.0001859 0.00021774 0.000252301 0.000289582 0.0003286 0.00036837 0.000408892 0.000450166 0.000492193 0.000534972 0.000578503 0.000622786 0.000666887 0.000709871 0.000751738 0.000792487 0.00083212 0.000870635 0.000908033 0.000944314 0.000979007 0.00101164 0.00104221 0.00107073 0.00109718 0.00112157 0.0011439 0.00116418 0.00118232 0.00119826 0.00121201 0.00122355 0.00123289 0.00124003 0.00124498 0.00124772 0.00124846 0.0012474 0.00124453 0.00123986 0.00123339 0.00122512 0.00121504 0.00120316 0.0011898 0.00117528 0.0011596 0.00114276 0.00112476 0.0011056 0.00108528 0.0010638 0.00104148 0.00101865 0.000995299 0.000971439 0.000947065 0.000922176 0.000896773 0.000870856 0.000844676 0.000818487 0.000792286 0.000766076 0.000739855 0.000713623 0.000687381 0.000661129 0.000635029 0.000609241 0.000583768 0.000558607 0.000533761 0.000509227 0.000485007 0.000461101 0.000437601 0.000414599 0.000392097 0.000370093 0.000348588 0.000327582 0.000307075 0.000287066 0.00026762 0.000248799 0.000230605 0.000213036 0.000196092 0.000179774 0.000164082 0.000149016 0.000134642 0.000121026 0.000108169 9.60701e-05 8.47298e-05 7.41481e-05 6.43249e-05 5.52601e-05 4.69572e-05 3.94193e-05 3.26466e-05 2.66389e-05 2.13963e-05 1.69188e-05 1.32064e-05 1.02591e-05 7.85462e-06 5.77074e-06 4.00746e-06 2.56477e-06 1.44268e-06 6.41193e-07 1.60298e-07 0 0 2.37332e-06 9.49328e-06 2.13599e-05 3.79731e-05 5.9333e-05 8.54395e-05 0.000116293 0.000151893 0.000192926 0.000240081 0.000293358 0.000352755 0.000418274 0.000489915 0.000567676 0.000651559 0.000739349 0.000828832 0.000920006 0.00101287 0.00110743 0.00120369 0.00130163 0.00140127 0.0015005 0.00159721 0.00169141 0.0017831 0.00187227 0.00195893 0.00204308 0.00212471 0.00220277 0.00227619 0.00234498 0.00240913 0.00246865 0.00252354 0.00257378 0.0026194 0.00266022 0.00269609 0.00272702 0.00275299 0.00277401 0.00279008 0.0028012 0.00280737 0.00280904 0.00280665 0.0028002 0.0027897 0.00277514 0.00275652 0.00273385 0.00270712 0.00267705 0.00264438 0.0026091 0.00257121 0.0025307 0.00248759 0.00244187 0.00239354 0.00234332 0.00229195 0.00223942 0.00218574 0.0021309 0.0020749 0.00201774 0.00195943 0.00190052 0.00184159 0.00178264 0.00172367 0.00166467 0.00160565 0.00154661 0.00148754 0.00142881 0.00137079 0.00131348 0.00125687 0.00120096 0.00114576 0.00109127 0.00103748 0.000984602 0.000932849 0.000882218 0.000832709 0.000784323 0.000737059 0.000690918 0.000645899 0.000602145 0.000559799 0.00051886 0.00047933 0.000441207 0.000404492 0.000369185 0.000335286 0.000302944 0.000272309 0.00024338 0.000216158 0.000190642 0.000166833 0.000144731 0.000124335 0.000105654 8.86935e-05 7.34548e-05 5.99375e-05 4.81417e-05 3.80673e-05 2.97144e-05 2.3083e-05 1.76729e-05 1.29842e-05 9.01678e-06 5.77074e-06 3.24604e-06 1.44268e-06 3.60671e-07 0 0 4.21924e-06 1.68769e-05 3.79731e-05 6.75078e-05 0.000105481 0.000151893 0.000206743 0.000270031 0.00034298 0.000426811 0.000521525 0.000627121 0.000743599 0.00087096 0.0010092 0.00115833 0.0013144 0.00147348 0.00163557 0.00180066 0.00196877 0.00213989 0.00231401 0.00249115 0.00266755 0.00283948 0.00300695 0.00316995 0.00332848 0.00348254 0.00363213 0.00377726 0.00391603 0.00404656 0.00416885 0.0042829 0.00438871 0.00448628 0.00457562 0.00465671 0.00472928 0.00479306 0.00484803 0.0048942 0.00493157 0.00496014 0.00497991 0.00499088 0.00499384 0.00498959 0.00497813 0.00495946 0.00493357 0.00490048 0.00486017 0.00481265 0.00475921 0.00470112 0.0046384 0.00457103 0.00449903 0.00442239 0.0043411 0.00425518 0.00416591 0.00407458 0.0039812 0.00388576 0.00378826 0.0036887 0.00358709 0.00348342 0.00337871 0.00327395 0.00316915 0.0030643 0.00295942 0.00285449 0.00274953 0.00264452 0.00254011 0.00243697 0.00233507 0.00223443 0.00213504 0.00203691 0.00194003 0.0018444 0.0017504 0.0016584 0.00156839 0.00148037 0.00139435 0.00131033 0.0012283 0.00114826 0.00107048 0.000995198 0.000922419 0.000852142 0.000784368 0.000719097 0.000656329 0.000596064 0.000538567 0.000484104 0.000432675 0.00038428 0.000338919 0.000296592 0.000257299 0.000221041 0.000187829 0.000157677 0.000130586 0.000106556 8.55853e-05 6.76753e-05 5.28256e-05 4.10364e-05 3.14185e-05 2.3083e-05 1.60298e-05 1.02591e-05 5.77074e-06 2.56477e-06 6.41193e-07 0 0 6.59256e-06 2.63702e-05 5.9333e-05 0.000105481 0.000164814 0.000237332 0.000323035 0.000421924 0.000535906 0.000666893 0.000814883 0.000979876 0.00116187 0.00136087 0.00157688 0.00180989 0.00205375 0.00230231 0.00255557 0.00281354 0.00307621 0.00334357 0.00361564 0.00389241 0.00416805 0.00443669 0.00469836 0.00495305 0.00520075 0.00544147 0.00567521 0.00590197 0.00611879 0.00632275 0.00651383 0.00669203 0.00685736 0.00700982 0.0071494 0.00727611 0.0073895 0.00748915 0.00757504 0.00764718 0.00770558 0.00775022 0.00778111 0.00779825 0.00780288 0.00779624 0.00777833 0.00774915 0.00770871 0.007657 0.00759402 0.00751977 0.00743626 0.0073455 0.0072475 0.00714224 0.00702973 0.00690998 0.00678297 0.00664872 0.00650923 0.00636653 0.00622062 0.00607149 0.00591915 0.0057636 0.00560483 0.00544285 0.00527923 0.00511554 0.00495179 0.00478797 0.00462409 0.00446015 0.00429613 0.00413206 0.00396893 0.00380776 0.00364855 0.0034913 0.003336 0.00318267 0.0030313 0.00288188 0.00273501 0.00259125 0.00245061 0.00231308 0.00217868 0.00204739 0.00191922 0.00179416 0.00167262 0.001555 0.00144128 0.00133147 0.00122558 0.00112359 0.00102551 0.00093135 0.000841511 0.000756413 0.000676055 0.000600438 0.000529561 0.000463426 0.00040203 0.000345376 0.000293482 0.000246371 0.000204041 0.000166493 0.000133727 0.000105743 8.25401e-05 6.41193e-05 4.90914e-05 3.60671e-05 2.50466e-05 1.60298e-05 9.01678e-06 4.00746e-06 1.00186e-06 0 0 9.49328e-06 3.79731e-05 8.54395e-05 0.000151893 0.000237332 0.000341758 0.000465171 0.00060757 0.000771705 0.000960325 0.00117343 0.00141102 0.0016731 0.00195966 0.00227071 0.00260624 0.0029574 0.00331533 0.00368003 0.0040515 0.00442974 0.00481475 0.00520653 0.00560508 0.00600199 0.00638884 0.00676564 0.00713239 0.00748908 0.00783572 0.0081723 0.00849883 0.00881106 0.00910476 0.00937991 0.00963653 0.0098746 0.0100941 0.0102951 0.0104776 0.0106409 0.0107844 0.0109081 0.0110119 0.011096 0.0111603 0.0112048 0.0112295 0.0112361 0.0112266 0.0112008 0.0111588 0.0111005 0.0110261 0.0109354 0.0108285 0.0107082 0.0105775 0.0104364 0.0102848 0.0101228 0.00995037 0.00976748 0.00957416 0.0093733 0.00916781 0.00895769 0.00874295 0.00852358 0.00829958 0.00807096 0.0078377 0.00760209 0.00736638 0.00713058 0.00689468 0.00665869 0.00642261 0.00618643 0.00595016 0.00571526 0.00548317 0.00525391 0.00502747 0.00480385 0.00458305 0.00436507 0.00414991 0.00393841 0.00373139 0.00352887 0.00333084 0.00313729 0.00294824 0.00276367 0.0025836 0.00240858 0.0022392 0.00207544 0.00191732 0.00176483 0.00161797 0.00147674 0.00134114 0.00121178 0.00108923 0.000973519 0.000864631 0.000762568 0.000667333 0.000578924 0.000497341 0.000422615 0.000354774 0.000293819 0.00023975 0.000192567 0.000152269 0.000118858 9.23318e-05 7.06916e-05 5.19367e-05 3.60671e-05 2.3083e-05 1.29842e-05 5.77074e-06 1.44268e-06 0 0 1.29214e-05 5.16856e-05 0.000116293 0.000206743 0.000323035 0.000465171 0.000633149 0.00082697 0.00105038 0.00130711 0.00159717 0.00192056 0.00227727 0.00266731 0.00309068 0.00354738 0.00402535 0.00451253 0.00500892 0.00551454 0.00602936 0.0065534 0.00708666 0.00762913 0.00816937 0.00869592 0.00920879 0.00970797 0.0101935 0.0106653 0.0111234 0.0115679 0.0119928 0.0123926 0.0127671 0.0131164 0.0134404 0.0137392 0.0140128 0.0142612 0.0144834 0.0146787 0.0148471 0.0149885 0.0151029 0.0151904 0.015251 0.0152846 0.0152936 0.0152806 0.0152455 0.0151883 0.0151091 0.0150077 0.0148843 0.0147387 0.0145751 0.0143972 0.0142051 0.0139988 0.0137783 0.0135436 0.0132946 0.0130315 0.0127581 0.0124784 0.0121924 0.0119001 0.0116015 0.0112967 0.0109855 0.010668 0.0103473 0.0100265 0.00970551 0.00938443 0.00906322 0.00874189 0.00842042 0.00809883 0.0077791 0.00746321 0.00715115 0.00684294 0.00653857 0.00623803 0.00594134 0.00564849 0.00536061 0.00507884 0.00480319 0.00453364 0.0042702 0.00401288 0.00376166 0.00351656 0.00327834 0.00304779 0.00282491 0.00260968 0.00240213 0.00220224 0.00201001 0.00182545 0.00164936 0.00148257 0.00132507 0.00117686 0.00103794 0.000908314 0.00078798 0.000676937 0.000575226 0.000482887 0.00039992 0.000326326 0.000262105 0.000207256 0.000161779 0.000125674 9.62191e-05 7.06916e-05 4.90914e-05 3.14185e-05 1.76729e-05 7.85462e-06 1.96365e-06 0 0 1.68769e-05 6.75078e-05 0.000151893 0.000270031 0.000421924 0.00060757 0.00082697 0.00108012 0.00137192 0.00170725 0.0020861 0.00250848 0.0029744 0.00348384 0.00403681 0.00463331 0.00525759 0.00589391 0.00654227 0.00720266 0.00787509 0.00855955 0.00925605 0.00996458 0.0106702 0.0113579 0.0120278 0.0126798 0.0133139 0.0139302 0.0145285 0.015109 0.0156641 0.0161862 0.0166754 0.0171316 0.0175549 0.0179451 0.0183025 0.0186268 0.0189171 0.0191722 0.0193921 0.0195768 0.0197263 0.0198406 0.0199196 0.0199635 0.0199754 0.0199584 0.0199125 0.0198378 0.0197343 0.0196019 0.0194407 0.0192506 0.0190368 0.0188045 0.0185536 0.0182841 0.0179961 0.0176895 0.0173644 0.0170207 0.0166636 0.0162983 0.0159248 0.015543 0.015153 0.0147548 0.0143484 0.0139337 0.0135148 0.0130958 0.0126766 0.0122572 0.0118377 0.011418 0.0109981 0.0105781 0.0101605 0.00974786 0.00934028 0.00893772 0.00854017 0.00814764 0.00776012 0.00737762 0.00700161 0.00663359 0.00627355 0.00592149 0.00557741 0.00524131 0.00491319 0.00459306 0.00428192 0.00398079 0.00368967 0.00340857 0.00313747 0.00287639 0.00262532 0.00238426 0.00215427 0.00193642 0.0017307 0.00153712 0.00135568 0.00118637 0.0010292 0.000884162 0.000751315 0.000630709 0.000522345 0.000426222 0.000342341 0.000270701 0.000211303 0.000164145 0.000125674 9.23318e-05 6.41193e-05 4.10364e-05 2.3083e-05 1.02591e-05 2.56477e-06 0 0 2.14639e-05 8.58556e-05 0.000193175 0.000343422 0.000536597 0.0007727 0.00105173 0.00137369 0.00174456 0.00217034 0.00265102 0.0031866 0.00377708 0.00442246 0.00512275 0.00587794 0.00666813 0.00747345 0.00829388 0.00912943 0.0099801 0.0108459 0.0117268 0.0126228 0.0135151 0.0143848 0.0152319 0.0160564 0.0168584 0.0176377 0.0183945 0.0191287 0.0198308 0.0204912 0.02111 0.0216872 0.0222227 0.0227165 0.0231688 0.0235793 0.0239469 0.0242699 0.0245484 0.0247824 0.0249719 0.0251169 0.0252174 0.0252734 0.0252889 0.0252679 0.0252104 0.0251164 0.0249859 0.0248189 0.0246154 0.0243754 0.0241055 0.023812 0.023495 0.0231545 0.0227905 0.022403 0.021992 0.0215575 0.021106 0.0206441 0.0201717 0.0196889 0.0191956 0.0186919 0.0181778 0.0176532 0.0171232 0.016593 0.0160626 0.015532 0.0150011 0.0144699 0.0139385 0.0134069 0.0128783 0.012356 0.0118401 0.0113305 0.0108272 0.0103302 0.00983961 0.0093553 0.0088792 0.00841319 0.00795727 0.00751143 0.00707569 0.00665003 0.00623447 0.00582899 0.00543488 0.00505344 0.00468464 0.00432851 0.00398504 0.00365422 0.00333606 0.00303056 0.00273904 0.00246286 0.00220201 0.00195649 0.00172629 0.00151142 0.00131188 0.00112767 0.000958869 0.000805547 0.000667707 0.00054535 0.000438475 0.000347083 0.000271173 0.000210745 0.000161352 0.000118544 8.23223e-05 5.26863e-05 2.9636e-05 1.31716e-05 3.29289e-06 0 0 2.67863e-05 0.000107145 0.000241076 0.00042858 0.000669656 0.000964305 0.00131253 0.00171432 0.00217653 0.00270599 0.00330271 0.00396669 0.00469792 0.00549641 0.00636215 0.00729516 0.00827096 0.0092651 0.0102776 0.0113084 0.0123576 0.0134251 0.014511 0.0156152 0.0167147 0.0177864 0.0188303 0.0198465 0.0208348 0.0217954 0.0227282 0.0236332 0.0244988 0.0253131 0.0260761 0.026788 0.0274487 0.0280582 0.0286164 0.0291234 0.0295775 0.0299767 0.0303211 0.0306107 0.0308455 0.0310256 0.0311508 0.0312212 0.0312417 0.0312172 0.0311476 0.0310331 0.0308735 0.0306689 0.0304193 0.0301246 0.029793 0.0294322 0.0290424 0.0286235 0.0281756 0.0276986 0.0271925 0.0266574 0.0261013 0.0255321 0.02495 0.0243549 0.0237468 0.0231258 0.0224918 0.0218447 0.021191 0.0205369 0.0198825 0.0192276 0.0185724 0.0179167 0.0172607 0.0166043 0.0159516 0.0153066 0.0146694 0.0140399 0.0134182 0.0128042 0.012198 0.0115995 0.0110112 0.0104352 0.00987164 0.00932052 0.00878182 0.00825554 0.00774168 0.00724024 0.00675281 0.00628097 0.00582472 0.00538406 0.00495899 0.00454951 0.00415562 0.00377733 0.00341624 0.003074 0.00275059 0.00244602 0.00216029 0.0018934 0.00164534 0.00141613 0.00120587 0.0010147 0.000842621 0.000689621 0.000555707 0.000440877 0.000345132 0.000268471 0.000205548 0.000151015 0.000104872 6.71179e-05 3.77538e-05 1.67795e-05 4.19487e-06 0 0 3.2844e-05 0.000131376 0.000295596 0.000525505 0.000821101 0.00118239 0.00160936 0.00210202 0.00266782 0.00331421 0.00404119 0.00484877 0.00573693 0.00670569 0.00775503 0.00888497 0.0100661 0.0112689 0.0124934 0.0137396 0.0150076 0.0162973 0.0176087 0.0189418 0.020269 0.0215628 0.0228231 0.0240499 0.0252433 0.0264032 0.0275296 0.0286226 0.029668 0.0306517 0.0315738 0.0324342 0.0332329 0.03397 0.0346454 0.0352591 0.035809 0.0362927 0.0367103 0.0370619 0.0373473 0.0375666 0.0377198 0.037807 0.0378338 0.0378063 0.0377243 0.0375879 0.0373971 0.0371519 0.0368522 0.0364982 0.0360993 0.0356652 0.0351958 0.0346912 0.0341514 0.0335763 0.032966 0.0323205 0.0316494 0.0309625 0.0302598 0.0295412 0.0288067 0.0280565 0.0272903 0.0265084 0.0257182 0.0249275 0.0241361 0.0233441 0.0225516 0.0217584 0.0209647 0.0201704 0.0193804 0.0185996 0.0178282 0.0170661 0.0163132 0.0155696 0.0148354 0.0141104 0.0133975 0.0126996 0.0120167 0.0113488 0.0106958 0.0100578 0.00943484 0.00882682 0.00823571 0.0076634 0.0071099 0.00657521 0.00605934 0.00556227 0.00508401 0.00462457 0.00418586 0.00376981 0.00337644 0.00300572 0.00265767 0.00233229 0.00202958 0.00174952 0.00149233 0.00125818 0.00104709 0.000859037 0.000694036 0.000552084 0.00043318 0.000337324 0.000258264 0.000189745 0.000131767 8.43311e-05 4.74362e-05 2.10828e-05 5.27069e-06 0 0 3.96372e-05 0.000158549 0.000356735 0.000634196 0.000990931 0.00142694 0.00194222 0.00253678 0.00321843 0.00399499 0.00486645 0.00583282 0.0068941 0.00805029 0.00930138 0.0106474 0.0120535 0.0134848 0.0149413 0.0164231 0.0179301 0.0194623 0.0210198 0.0226025 0.024178 0.0257139 0.0272101 0.0286667 0.0300837 0.031461 0.0327987 0.0340968 0.0353386 0.0365073 0.037603 0.0386257 0.0395754 0.0404521 0.0412557 0.0419864 0.0426413 0.0432179 0.043716 0.0441358 0.0444771 0.04474 0.0449246 0.0450307 0.0450653 0.0450352 0.0449404 0.0447809 0.0445567 0.0442679 0.0439143 0.0434961 0.0430245 0.0425109 0.0419553 0.0413576 0.0407179 0.0400362 0.0393125 0.0385468 0.0377505 0.0369352 0.0361009 0.0352476 0.0343753 0.0334839 0.0325735 0.0316442 0.0307048 0.0297646 0.0288235 0.0278816 0.0269387 0.025995 0.0250505 0.024105 0.0231646 0.0222351 0.0213165 0.0204089 0.0195122 0.0186264 0.0177516 0.0168877 0.0160382 0.0152064 0.0143924 0.0135961 0.0128176 0.0120569 0.0113139 0.0105887 0.00988357 0.00920072 0.00854019 0.00790197 0.00728607 0.00669249 0.00612122 0.00557228 0.00504789 0.00455032 0.00407955 0.00363559 0.00321845 0.00282811 0.00246458 0.00212786 0.00181824 0.00153598 0.0012811 0.0010536 0.000853463 0.000680703 0.000535317 0.000417304 0.000319498 0.000234733 0.000163009 0.000104326 5.86834e-05 2.60815e-05 6.52037e-06 0 0 4.71659e-05 0.000188663 0.000424493 0.000754654 0.00117915 0.00169797 0.00231113 0.00301861 0.00382837 0.00474833 0.0057785 0.00691887 0.00816944 0.00953022 0.0110012 0.0125824 0.0142331 0.0159128 0.0176213 0.0193587 0.021125 0.0229203 0.0247444 0.0265974 0.0284417 0.0302398 0.0319915 0.033697 0.0353561 0.036969 0.0385356 0.0400559 0.0415104 0.0428797 0.0441637 0.0453625 0.0464761 0.0475044 0.0484474 0.0493052 0.0500746 0.0507522 0.0513382 0.0518324 0.052235 0.0525458 0.0527649 0.0528924 0.052936 0.0529039 0.0527959 0.052612 0.0523524 0.0520169 0.0516055 0.0511184 0.0505686 0.0499693 0.0493207 0.0486226 0.0478752 0.0470782 0.0462319 0.0453362 0.0444044 0.0434502 0.0424735 0.0414742 0.0404524 0.0394081 0.0383413 0.037252 0.0361508 0.0350484 0.0339448 0.0328399 0.0317338 0.0306265 0.029518 0.0284082 0.0273042 0.0262129 0.0251343 0.0240684 0.0230151 0.0219746 0.0209468 0.0199316 0.0189332 0.0179556 0.0169987 0.0160626 0.0151473 0.0142528 0.013379 0.012526 0.0116964 0.0108929 0.0101156 0.00936433 0.0086392 0.00794017 0.00726726 0.00662046 0.00600235 0.0054155 0.00485993 0.00433563 0.00384261 0.00338085 0.00295036 0.00255114 0.00218359 0.0018481 0.00154467 0.0012733 0.00103399 0.000826735 0.000651543 0.00050841 0.000389252 0.000285981 0.000198598 0.000127103 7.14952e-05 3.17756e-05 7.94391e-06 0 0 5.54299e-05 0.00022172 0.000498869 0.000886878 0.00138575 0.00199548 0.00271606 0.00354751 0.00449763 0.00557424 0.00677732 0.00810689 0.00956294 0.0111455 0.0128545 0.01469 0.0166051 0.0185529 0.0205334 0.0225466 0.0245925 0.0266711 0.0287824 0.0309265 0.0330601 0.0351404 0.0371672 0.0391406 0.0410605 0.042927 0.0447401 0.0464998 0.0481835 0.0497689 0.0512559 0.0526446 0.0539349 0.0551269 0.0562205 0.0572157 0.0581087 0.0588958 0.0595768 0.0601519 0.0606209 0.0609839 0.061241 0.061392 0.0614461 0.0614124 0.0612908 0.0610813 0.060784 0.0603989 0.0599259 0.059365 0.0587315 0.0580405 0.0572922 0.0564863 0.0556231 0.0547024 0.0537243 0.0526887 0.0516113 0.0505075 0.0493774 0.048221 0.0470383 0.0458292 0.0445937 0.043332 0.0420562 0.0407788 0.0394998 0.0382191 0.0369368 0.0356529 0.0343673 0.0330801 0.0317993 0.0305332 0.0292816 0.0280445 0.0268221 0.0256142 0.0244209 0.0232421 0.0220827 0.0209472 0.0198358 0.0187483 0.0176849 0.0166454 0.01563 0.0146385 0.0136742 0.01274 0.0118361 0.0109623 0.0101187 0.00930532 0.00852212 0.00776911 0.00704922 0.00636538 0.00571759 0.00510584 0.00453015 0.00399051 0.00348691 0.00301937 0.0025884 0.00219454 0.00183779 0.00151815 0.00123561 0.000990179 0.000781857 0.000610643 0.000467523 0.000343487 0.000238532 0.000152661 8.58717e-05 3.81652e-05 9.5413e-06 0 0 6.44294e-05 0.000257717 0.000579864 0.00103087 0.00161073 0.00231946 0.00315704 0.00412348 0.00522622 0.0064727 0.00786293 0.00939689 0.0110746 0.0128961 0.0148612 0.0169702 0.0191693 0.0214051 0.0236776 0.0259867 0.0283324 0.0307149 0.033134 0.0355897 0.0380333 0.0404157 0.0427372 0.0449976 0.0471969 0.0493351 0.0514123 0.0534285 0.0553579 0.057175 0.0588797 0.060472 0.061952 0.0633196 0.0645749 0.0657177 0.0667438 0.0676485 0.0684319 0.0690941 0.0696349 0.0700544 0.0703527 0.0705296 0.0705955 0.0705607 0.0704251 0.0701888 0.0698517 0.0694139 0.0688753 0.068236 0.0675133 0.0667245 0.0658696 0.0649487 0.0639617 0.0629087 0.0617896 0.0606045 0.0593711 0.0581072 0.0568128 0.055488 0.0541327 0.052747 0.0513307 0.049884 0.048421 0.0469559 0.0454886 0.0440192 0.0425478 0.0410741 0.0395984 0.0381206 0.0366499 0.0351958 0.0337583 0.0323374 0.030933 0.0295452 0.0281739 0.0268192 0.0254865 0.0241812 0.0229034 0.0216531 0.0204303 0.0192349 0.0180669 0.0169264 0.0158169 0.014742 0.0137017 0.0126959 0.0117246 0.0107879 0.0098858 0.00901823 0.00818851 0.00739994 0.00665251 0.00594622 0.00528108 0.00465709 0.00407424 0.00353253 0.00303266 0.0025753 0.00216046 0.00178814 0.00145833 0.00117104 0.000926261 0.000724002 0.000554314 0.000407251 0.000282813 0.000181001 0.000101813 4.52501e-05 1.13125e-05 0 0 7.41642e-05 0.000296657 0.000667478 0.00118663 0.00185411 0.00266991 0.00363405 0.00474651 0.00601413 0.00744373 0.00903531 0.0107889 0.0127044 0.014782 0.0170215 0.019423 0.0219258 0.0244695 0.0270538 0.029679 0.0323449 0.0350515 0.0377989 0.0405871 0.0433611 0.0460659 0.0487015 0.051268 0.0537652 0.0561934 0.0585523 0.0608421 0.0630336 0.065098 0.067035 0.0688448 0.0705273 0.0720826 0.0735106 0.0748114 0.0759797 0.0770104 0.0779035 0.0786591 0.079277 0.0797573 0.0801 0.0803052 0.0803843 0.0803488 0.0801989 0.0799344 0.0795554 0.0790619 0.0784539 0.0777313 0.0769139 0.0760211 0.0750531 0.0740097 0.0728911 0.0716972 0.0704279 0.0690834 0.0676837 0.0662492 0.0647797 0.0632752 0.0617358 0.0601615 0.0585523 0.0569081 0.0552452 0.0535795 0.0519112 0.0502403 0.0485666 0.0468903 0.0452113 0.0435296 0.041856 0.0402009 0.0385646 0.0369469 0.0353479 0.0337675 0.0322058 0.0306628 0.0291446 0.0276576 0.0262018 0.0247771 0.0233835 0.0220211 0.0206898 0.0193896 0.0181247 0.0168989 0.0157124 0.014565 0.0134569 0.012388 0.0113583 0.0103678 0.00942023 0.00851918 0.0076647 0.00685677 0.0060954 0.00538059 0.00471234 0.00409064 0.00351637 0.00299038 0.00251268 0.00208327 0.00170215 0.00136931 0.00108475 0.000848488 0.000649624 0.000477275 0.000331441 0.000212122 0.000119319 5.30305e-05 1.32576e-05 0 0 8.443e-05 0.00033772 0.00075987 0.00135088 0.00211075 0.00303948 0.00413707 0.00540352 0.00684484 0.00846705 0.0102701 0.0122541 0.0144189 0.0167647 0.0192913 0.0219988 0.0248191 0.0276844 0.0305946 0.0335496 0.0365496 0.0395944 0.0426842 0.0458188 0.0489371 0.0519777 0.0549407 0.0578261 0.0606339 0.0633641 0.0660166 0.0685915 0.0710563 0.0733783 0.0755576 0.0775941 0.079488 0.0812391 0.0828475 0.0843131 0.0856301 0.0867926 0.0878005 0.0886538 0.0893527 0.0898969 0.0902866 0.0905218 0.0906152 0.0905798 0.0904155 0.0901223 0.0897003 0.0891494 0.0884696 0.0876609 0.0867454 0.0857448 0.0846593 0.0834889 0.0822334 0.0808931 0.0794677 0.0779574 0.0763848 0.0747725 0.0731207 0.0714292 0.0696981 0.0679273 0.066117 0.064267 0.0623955 0.0605208 0.0586428 0.0567615 0.0548769 0.052989 0.0510978 0.0492033 0.0473176 0.0454528 0.0436087 0.0417855 0.0399831 0.0382015 0.0364407 0.0347008 0.0329888 0.0313117 0.0296696 0.0280625 0.0264903 0.0249531 0.0234508 0.0219835 0.0205558 0.019172 0.0178324 0.0165367 0.0152851 0.0140776 0.0129141 0.0117946 0.0107232 0.00970406 0.00873705 0.0078222 0.00695953 0.00614902 0.00539069 0.00468452 0.0040316 0.003433 0.00288872 0.00239876 0.00196311 0.00158179 0.00125479 0.000982101 0.000751921 0.000552432 0.000383633 0.000245525 0.000138108 6.13813e-05 1.53453e-05 0 0 9.50223e-05 0.000380089 0.000855201 0.00152036 0.00237556 0.0034208 0.00465609 0.00608143 0.00770184 0.00952237 0.011543 0.0137638 0.0161846 0.0188056 0.0216267 0.0246479 0.0277937 0.0309884 0.0342321 0.0375247 0.0408663 0.0442569 0.0476964 0.0511849 0.0546547 0.0580382 0.0613355 0.0645465 0.0676713 0.0707097 0.0736619 0.0765279 0.0792714 0.0818566 0.0842832 0.0865514 0.0886611 0.0906124 0.0924052 0.0940395 0.0955087 0.0968061 0.0979317 0.0988855 0.0996675 0.100278 0.100716 0.100982 0.101091 0.101057 0.100878 0.100557 0.100092 0.0994828 0.0987305 0.0978347 0.0968197 0.0957098 0.0945051 0.0932055 0.091811 0.0903217 0.0887375 0.0870584 0.0853097 0.0835164 0.0816787 0.0797966 0.0778699 0.0758988 0.0738832 0.0718231 0.0697388 0.0676506 0.0655583 0.0634621 0.061362 0.0592579 0.0571498 0.0550377 0.0529351 0.0508556 0.048799 0.0467654 0.0447549 0.0427673 0.0408027 0.0388612 0.0369505 0.0350787 0.0332457 0.0314516 0.0296963 0.0279799 0.0263023 0.0246635 0.0230687 0.0215228 0.0200258 0.0185778 0.0171787 0.0158286 0.0145275 0.0132753 0.0120765 0.0109355 0.00985244 0.00882723 0.00785988 0.00695039 0.00609876 0.005305 0.00457043 0.00389637 0.00328283 0.0027298 0.00223729 0.00180529 0.00143381 0.00112284 0.000859676 0.000631599 0.00043861 0.00028071 0.0001579 7.01776e-05 1.75444e-05 0 0 0.000105941 0.000423764 0.00095347 0.00169506 0.00264853 0.00381388 0.00519111 0.00678023 0.00858513 0.0106097 0.012854 0.0153179 0.0180015 0.0209048 0.0240278 0.0273705 0.0308495 0.0343815 0.0379664 0.0416042 0.0452951 0.0490388 0.0528356 0.0566853 0.0605139 0.0642474 0.0678858 0.0714291 0.0748773 0.0782303 0.0814883 0.0846511 0.0876792 0.0905327 0.0932119 0.0957165 0.0980467 0.100202 0.102184 0.103991 0.105616 0.107051 0.108297 0.109354 0.110221 0.110899 0.111388 0.111687 0.111813 0.111779 0.111588 0.111238 0.110729 0.110062 0.109237 0.108253 0.107137 0.105916 0.10459 0.10316 0.101624 0.0999831 0.0982372 0.0963864 0.0944584 0.0924808 0.0904538 0.0883773 0.0862514 0.0840759 0.081851 0.0795766 0.0772751 0.0749689 0.072658 0.0703423 0.068022 0.0656969 0.0633672 0.0610327 0.0587085 0.0564094 0.0541355 0.0518868 0.0496633 0.047465 0.0452918 0.0431438 0.0410298 0.0389586 0.0369301 0.0349444 0.0330016 0.0311014 0.0292441 0.0274295 0.0256633 0.0239511 0.0222927 0.0206883 0.0191378 0.0176412 0.0161985 0.0148098 0.0134799 0.0122136 0.0110109 0.00987185 0.00879645 0.00778469 0.00683657 0.00595208 0.00513285 0.0043805 0.00369502 0.00307641 0.00252467 0.00203981 0.00162182 0.00127071 0.000972887 0.000714774 0.000496371 0.000317677 0.000178694 7.94194e-05 1.98548e-05 0 0 0.000117186 0.000468745 0.00105468 0.00187498 0.00292966 0.00421871 0.00574213 0.00749992 0.00949469 0.0117291 0.014203 0.0169165 0.0198696 0.0230623 0.0264946 0.0301665 0.0339866 0.0378636 0.0417975 0.0457882 0.0498359 0.0539404 0.0581018 0.0623201 0.0665148 0.0706053 0.0745917 0.0784739 0.082252 0.0859259 0.0894956 0.0929612 0.0962794 0.0994069 0.102344 0.10509 0.107645 0.110009 0.112183 0.114166 0.11595 0.117527 0.118897 0.120059 0.121014 0.121762 0.122303 0.122636 0.122779 0.122748 0.122544 0.122165 0.121613 0.120887 0.119988 0.118915 0.117697 0.116364 0.114915 0.113351 0.111672 0.109877 0.107967 0.105941 0.103831 0.101666 0.0994459 0.0971715 0.0948424 0.0924587 0.0900203 0.0875273 0.0850043 0.0824757 0.0799416 0.077402 0.0748569 0.0723062 0.0697501 0.0671884 0.0646376 0.0621142 0.0596182 0.0571496 0.0547083 0.0522944 0.0499079 0.0475487 0.0452267 0.0429514 0.0407228 0.038541 0.036406 0.0343178 0.0322763 0.0302816 0.0283398 0.026457 0.0246331 0.0228682 0.0211622 0.0195153 0.0179273 0.0163983 0.0149335 0.0135382 0.0122124 0.0109561 0.00976925 0.00865193 0.0076041 0.00662577 0.00571887 0.00488538 0.00412528 0.00343857 0.00282526 0.00228535 0.00181883 0.00142571 0.00109156 0.000801959 0.000556916 0.000356426 0.00020049 8.91066e-05 2.22766e-05 0 0 0.000128758 0.000515032 0.00115882 0.00206013 0.00321895 0.00463529 0.00630914 0.00824051 0.0104305 0.0128804 0.0155901 0.0185596 0.0217889 0.0252781 0.0290271 0.0330359 0.0372049 0.0414348 0.0457253 0.0500766 0.0544887 0.0589615 0.063495 0.0680893 0.0726573 0.0771119 0.0814531 0.0856809 0.0897953 0.0937963 0.097684 0.101458 0.105072 0.108479 0.111678 0.114671 0.117456 0.120033 0.122404 0.124567 0.126514 0.128235 0.129731 0.131002 0.132047 0.132866 0.13346 0.133829 0.133991 0.133963 0.133746 0.133339 0.132744 0.131959 0.130984 0.129821 0.1285 0.127053 0.12548 0.12378 0.121955 0.120004 0.117927 0.115724 0.113427 0.111071 0.108655 0.106179 0.103643 0.101047 0.0983912 0.0956754 0.0929264 0.0901711 0.0874093 0.0846412 0.0818666 0.0790857 0.0762984 0.0735047 0.0707226 0.0679701 0.0652471 0.0625538 0.05989 0.0572557 0.0546511 0.052076 0.0495411 0.0470571 0.0446238 0.0422414 0.0399097 0.0376289 0.035399 0.0332198 0.0310981 0.0290404 0.0270469 0.0251175 0.0232521 0.0214508 0.0197137 0.0180406 0.0164373 0.0149094 0.0134569 0.0120799 0.0107783 0.0095521 0.00840136 0.00732605 0.00632849 0.00541101 0.00457361 0.0038163 0.00313906 0.0025419 0.00202483 0.00158783 0.00121568 0.000893153 0.000620245 0.000396957 0.000223288 9.92392e-05 2.48098e-05 0 0 0.000140656 0.000562624 0.0012659 0.0022505 0.0035164 0.00506362 0.00689215 0.00900199 0.0113927 0.0140638 0.0170153 0.0202471 0.0237594 0.0275521 0.0316252 0.0359786 0.0405045 0.045095 0.04975 0.0544695 0.0592536 0.0641021 0.0690153 0.0739929 0.0789414 0.0837671 0.08847 0.09305 0.0975073 0.101842 0.106053 0.110142 0.114058 0.117749 0.121216 0.124459 0.127479 0.130274 0.132845 0.135192 0.137305 0.139174 0.140799 0.142181 0.143318 0.144211 0.144861 0.145266 0.145447 0.145423 0.145194 0.14476 0.14412 0.143276 0.142226 0.140971 0.139546 0.137983 0.136283 0.134447 0.132474 0.130364 0.128117 0.125733 0.123248 0.120697 0.118081 0.1154 0.112653 0.109841 0.106964 0.104021 0.101042 0.0980549 0.095061 0.0920598 0.0890513 0.0860354 0.0830122 0.0799817 0.0769634 0.073977 0.0710223 0.0680993 0.0652082 0.0623489 0.0595213 0.0567256 0.0539731 0.0512757 0.0486331 0.0460454 0.0435127 0.0410349 0.038612 0.036244 0.0339381 0.0317015 0.0295342 0.0274362 0.0254074 0.0234479 0.0215577 0.0197368 0.0179913 0.0163272 0.0147445 0.0132433 0.0118235 0.0104852 0.00922835 0.00805293 0.0069617 0.0059574 0.00504003 0.00420958 0.00346606 0.00280947 