<?xml version="1.0"?> 
<VTKFile type="StructuredGrid" version="0.1"> 
<StructuredGrid WholeExtent="0 128 0 128 0 0"> 
<Piece Extent="0 128 0 128 0 0"> 
<PointData>
<DataArray type="Float32" Name="u" format="ascii" NumberOfComponents="1"> 
0 0 0 0 0 0 0 0 0 0 0 0 0 0 0 0 0 0 0 0 0 0 0 0 0 0 0 0 0 0 0 0 0 0 0 0 0 0 0 0 0 0 0 0 0 0 0 0 0 0 0 0 0 0 0 0 0 0 0 0 0 0 0 0 0 0 0 0 0 0 0 0 0 0 0 0 0 0 0 0 0 0 0 0 0 0 0 0 0 0 0 0 0 0 0 0 0 0 0 0 0 0 0 0 0 0 0 0 0 0 0 0 0 0 0 0 0 0 0 0 0 0 0 0 0 0 0 0 0 0 4.97865e-07 1.99146e-06 4.48079e-06 7.96584e-06 1.24466e-05 1.79231e-05 2.43954e-05 3.18634e-05 4.04746e-05 5.03766e-05 6.15693e-05 7.40528e-05 8.7827e-05 0.000102892 0.000119248 0.000136894 0.00015536 0.000174172 0.000193331 0.000212837 0.000232691 0.000252891 0.000273438 0.000294332 0.000315114 0.000335325 0.000354965 0.000374034 0.000392531 0.000410458 0.000427814 0.000444598 0.000460573 0.000475498 0.000489376 0.000502204 0.000513984 0.000524715 0.000534398 0.000543031 0.000550581 0.000557011 0.000562322 0.000566513 0.000569585 0.000571538 0.00057237 0.000572084 0.000570788 0.000568594 0.000565501 0.000561509 0.000556619 0.00055083 0.000544143 0.000536557 0.000528255 0.00051942 0.000510053 0.000500153 0.00048972 0.000478754 0.000467255 0.000455224 0.000442847 0.000430311 0.000417616 0.000404762 0.00039175 0.000378578 0.000365248 0.000351758 0.000338254 0.00032488 0.000311634 0.000298519 0.000285533 0.000272676 0.000259949 0.000247351 0.000234966 0.000222876 0.000211083 0.000199586 0.000188384 0.000177478 0.000166868 0.000156555 0.000146565 0.000136929 0.000127647 0.000118718 0.000110143 0.00010192 9.40518e-05 8.65365e-05 7.93698e-05 7.25464e-05 6.60665e-05 5.993e-05 5.41369e-05 4.86872e-05 4.3581e-05 3.88183e-05 3.43795e-05 3.02455e-05 2.64162e-05 2.28915e-05 1.96716e-05 1.67563e-05 1.41458e-05 1.18399e-05 9.7958e-06 7.97046e-06 6.36391e-06 4.97614e-06 3.80716e-06 2.85697e-06 2.12556e-06 1.61293e-06 1.2349e-06 9.07273e-07 6.30051e-07 4.03233e-07 2.26818e-07 1.00808e-07 2.5202e-08 0 0 1.99146e-06 7.96584e-06 1.79231e-05 3.18634e-05 4.97865e-05 7.16926e-05 9.75816e-05 0.000127453 0.000161898 0.000201506 0.000246277 0.000296211 0.000351308 0.000411568 0.000476991 0.000547577 0.000621438 0.000696688 0.000773325 0.00085135 0.000930763 0.00101156 0.00109375 0.00117733 0.00126046 0.0013413 0.00141986 0.00149614 0.00157013 0.00164183 0.00171125 0.00177839 0.00184229 0.00190199 0.0019575 0.00200882 0.00205594 0.00209886 0.00213759 0.00217213 0.00220232 0.00222805 0.00224929 0.00226605 0.00227834 0.00228615 0.00228948 0.00228834 0.00228315 0.00227438 0.002262 0.00224604 0.00222648 0.00220332 0.00217657 0.00214623 0.00211302 0.00207768 0.00204021 0.00200061 0.00195888 0.00191502 0.00186902 0.0018209 0.00177139 0.00172124 0.00167047 0.00161905 0.001567 0.00151431 0.00146099 0.00140703 0.00135302 0.00129952 0.00124654 0.00119407 0.00114213 0.0010907 0.00103979 0.000989403 0.000939862 0.000891505 0.000844332 0.000798342 0.000753536 0.000709913 0.000667474 0.000626218 0.000586261 0.000547718 0.000510588 0.000474872 0.00044057 0.000407682 0.000376207 0.000346146 0.000317479 0.000290186 0.000264266 0.00023972 0.000216548 0.000194749 0.000174324 0.000155273 0.000137518 0.000120982 0.000105665 9.15661e-05 7.86864e-05 6.70254e-05 5.65831e-05 4.73597e-05 3.91832e-05 3.18818e-05 2.54556e-05 1.99046e-05 1.52286e-05 1.14279e-05 8.50222e-06 6.45172e-06 4.9396e-06 3.62909e-06 2.5202e-06 1.61293e-06 9.07273e-07 4.03233e-07 1.00808e-07 0 0 4.48079e-06 1.79231e-05 4.03271e-05 7.16926e-05 0.00011202 0.000161308 0.000219559 0.00028677 0.000364271 0.000453389 0.000554124 0.000666475 0.000790443 0.000926028 0.00107323 0.00123205 0.00139824 0.00156755 0.00173998 0.00191554 0.00209422 0.00227602 0.00246094 0.00264899 0.00283603 0.00301793 0.00319468 0.0033663 0.00353278 0.00369412 0.00385032 0.00400138 0.00414515 0.00427949 0.00440438 0.00451984 0.00462586 0.00472244 0.00480958 0.00488728 0.00495523 0.0050131 0.0050609 0.00509862 0.00512627 0.00514384 0.00515133 0.00514875 0.00513709 0.00511734 0.00508951 0.00505358 0.00500957 0.00495747 0.00489728 0.00482901 0.00475429 0.00467478 0.00459047 0.00450137 0.00440748 0.00430879 0.0042053 0.00409702 0.00398562 0.0038728 0.00375855 0.00364286 0.00352575 0.0034072 0.00328723 0.00316582 0.00304429 0.00292392 0.00280471 0.00268667 0.00256979 0.00245408 0.00233954 0.00222616 0.00211469 0.00200589 0.00189975 0.00179627 0.00169546 0.0015973 0.00150182 0.00140899 0.00131909 0.00123236 0.00114882 0.00106846 0.000991283 0.000917284 0.000846466 0.000778829 0.000714328 0.000652918 0.000594598 0.00053937 0.000487232 0.000438185 0.000392229 0.000349364 0.000309416 0.00027221 0.000237746 0.000206024 0.000177044 0.000150807 0.000127312 0.000106559 8.81622e-05 7.17342e-05 5.72752e-05 4.47853e-05 3.42645e-05 2.57127e-05 1.913e-05 1.45164e-05 1.11141e-05 8.16546e-06 5.67046e-06 3.62909e-06 2.04136e-06 9.07273e-07 2.26818e-07 0 0 7.96584e-06 3.18634e-05 7.16926e-05 0.000127453 0.000199146 0.00028677 0.000390326 0.000509814 0.000647594 0.000806025 0.000985109 0.00118484 0.00140523 0.00164627 0.00190796 0.00219031 0.00248575 0.00278675 0.0030933 0.0034054 0.00372305 0.00404625 0.00437501 0.00470931 0.00504183 0.0053652 0.00567944 0.00598454 0.0062805 0.00656733 0.00684502 0.00711357 0.00736916 0.00760798 0.00783001 0.00803527 0.00822374 0.00839544 0.00855036 0.0086885 0.0088093 0.00891218 0.00899715 0.00906422 0.00911336 0.0091446 0.00915793 0.00915334 0.00913261 0.0090975 0.00904801 0.00898415 0.0089059 0.00881328 0.00870628 0.0085849 0.00845208 0.00831072 0.00816084 0.00800244 0.00783551 0.00766006 0.00747609 0.00728359 0.00708555 0.00688498 0.00668186 0.0064762 0.006268 0.00605725 0.00584396 0.00562813 0.00541207 0.00519807 0.00498615 0.0047763 0.00456852 0.00436281 0.00415918 0.00395761 0.00375945 0.00356602 0.00337733 0.00319337 0.00301414 0.00283965 0.0026699 0.00250487 0.00234504 0.00219087 0.00204235 0.00189949 0.00176228 0.00163073 0.00150483 0.00138458 0.00126992 0.00116074 0.00105706 0.000958879 0.00086619 0.000778996 0.000697297 0.000621092 0.000550072 0.000483928 0.000422659 0.000366265 0.000314745 0.000268101 0.000226333 0.000189439 0.000156733 0.000127527 0.000101823 7.96183e-05 6.09146e-05 4.57115e-05 3.40089e-05 2.58069e-05 1.97584e-05 1.45164e-05 1.00808e-05 6.45172e-06 3.62909e-06 1.61293e-06 4.03233e-07 0 0 1.24466e-05 4.97865e-05 0.00011202 0.000199146 0.000311166 0.000448079 0.000609885 0.000796584 0.00101186 0.00125941 0.00153923 0.00185132 0.00219568 0.0025723 0.00298119 0.00342236 0.00388399 0.0043543 0.00483328 0.00532094 0.00581727 0.00632227 0.00683595 0.0073583 0.00787785 0.00838313 0.00887412 0.00935084 0.00981329 0.0102615 0.0106953 0.011115 0.0115143 0.0118875 0.0122344 0.0125551 0.0128496 0.0131179 0.0133599 0.0135758 0.0137645 0.0139253 0.0140581 0.0141628 0.0142396 0.0142884 0.0143093 0.0143021 0.0142697 0.0142148 0.0141375 0.0140377 0.0139155 0.0137708 0.0136036 0.0134139 0.0132064 0.0129855 0.0127513 0.0125038 0.012243 0.0119688 0.0116814 0.0113806 0.0110712 0.0107578 0.0104404 0.0101191 0.00979374 0.00946445 0.00913119 0.00879396 0.00845636 0.00812199 0.00779086 0.00746297 0.00713831 0.00681689 0.00649871 0.00618377 0.00587414 0.00557191 0.00527708 0.00498964 0.0047096 0.00443696 0.00417171 0.00391386 0.00366413 0.00342324 0.00319118 0.00296795 0.00275356 0.00254801 0.00235129 0.00216341 0.00198424 0.00181366 0.00165166 0.00149825 0.00135342 0.00121718 0.00108953 0.000970456 0.000859488 0.000756138 0.000660404 0.000572288 0.00049179 0.000418909 0.000353645 0.000295998 0.000244895 0.000199262 0.000159098 0.000124404 9.51791e-05 7.14242e-05 5.31389e-05 4.03233e-05 3.08725e-05 2.26818e-05 1.57513e-05 1.00808e-05 5.67046e-06 2.5202e-06 6.30051e-07 0 0 1.79231e-05 7.16926e-05 0.000161308 0.00028677 0.000448079 0.000645233 0.000878234 0.00114708 0.00145709 0.00181356 0.00221649 0.0026659 0.00316177 0.00370411 0.00429292 0.00492819 0.00559295 0.00627019 0.00695992 0.00766215 0.00837686 0.00910407 0.00984377 0.010596 0.0113441 0.0120717 0.0127787 0.0134652 0.0141311 0.0147765 0.0154013 0.0160055 0.0165806 0.0171179 0.0176175 0.0180793 0.0185034 0.0188897 0.0192383 0.0195491 0.0198209 0.0200524 0.0202436 0.0203945 0.0205051 0.0205754 0.0206053 0.020595 0.0205484 0.0204694 0.020358 0.0202143 0.0200383 0.0198299 0.0195891 0.019316 0.0190172 0.0186991 0.0183619 0.0180055 0.0176299 0.0172351 0.0168212 0.0163881 0.0159425 0.0154912 0.0150342 0.0145714 0.014103 0.0136288 0.0131489 0.0126633 0.0121772 0.0116957 0.0112188 0.0107467 0.0102792 0.00981633 0.00935815 0.00890463 0.00845876 0.00802355 0.00759899 0.00718508 0.00678182 0.00638922 0.00600726 0.00563596 0.00527635 0.00492946 0.00459529 0.00427385 0.00396513 0.00366914 0.00338586 0.00311532 0.00285731 0.00261167 0.00237839 0.00215748 0.00194893 0.00175274 0.00156892 0.00139746 0.00123766 0.00108884 0.000950982 0.000824095 0.000708177 0.000603228 0.000509248 0.000426237 0.000352649 0.000286937 0.000229101 0.000179141 0.000137058 0.000102851 7.652e-05 5.80655e-05 4.44564e-05 3.26618e-05 2.26818e-05 1.45164e-05 8.16546e-06 3.62909e-06 9.07273e-07 0 0 2.43954e-05 9.75816e-05 0.000219559 0.000390326 0.000609885 0.000878234 0.00119537 0.00156131 0.00198326 0.00246845 0.0030169 0.00362859 0.00430352 0.00504171 0.00584314 0.00670782 0.00761262 0.00853442 0.00947323 0.010429 0.0114018 0.0123917 0.0133985 0.0144223 0.0154406 0.0164309 0.0173933 0.0183277 0.019234 0.0201124 0.0209629 0.0217853 0.0225681 0.0232994 0.0239794 0.024608 0.0251852 0.025711 0.0261855 0.0266085 0.0269785 0.0272936 0.0275538 0.0277592 0.0279097 0.0280053 0.0280462 0.0280321 0.0279686 0.0278611 0.0277095 0.027514 0.0272743 0.0269907 0.026663 0.0262913 0.0258845 0.0254516 0.0249926 0.0245075 0.0239963 0.0234589 0.0228955 0.022306 0.0216995 0.0210852 0.0204632 0.0198334 0.0191957 0.0185503 0.0178971 0.0172362 0.0165745 0.0159191 0.0152701 0.0146274 0.0139911 0.0133611 0.0127375 0.0121202 0.0115133 0.0109209 0.0103431 0.00977969 0.00923081 0.00869643 0.00817655 0.00767117 0.0071817 0.00670954 0.0062547 0.00581718 0.00539698 0.0049941 0.00460854 0.00424029 0.00388912 0.00355477 0.00323726 0.00293657 0.00265271 0.00238568 0.00213547 0.00190209 0.0016846 0.00148203 0.00129439 0.00112169 0.000963908 0.000821061 0.000693143 0.000580156 0.000479994 0.000390553 0.000311832 0.000243831 0.000186551 0.000139991 0.000104152 7.90336e-05 6.05101e-05 4.44564e-05 3.08725e-05 1.97584e-05 1.11141e-05 4.9396e-06 1.2349e-06 0 0 3.18634e-05 0.000127453 0.00028677 0.000509814 0.000796584 0.00114708 0.00156131 0.00203926 0.00259037 0.0032241 0.00394043 0.00473938 0.00562093 0.00658509 0.00763186 0.00876123 0.00994301 0.011147 0.0123732 0.0136216 0.0148922 0.016185 0.0175 0.0188373 0.0201673 0.0214608 0.0227178 0.0239382 0.025122 0.0262693 0.0273801 0.0284543 0.0294766 0.0304319 0.03132 0.0321411 0.032895 0.0335818 0.0342014 0.034754 0.0352372 0.0356487 0.0359886 0.0362569 0.0364535 0.0365784 0.0366317 0.0366134 0.0365304 0.03639 0.0361921 0.0359366 0.0356236 0.0352531 0.0348251 0.0343396 0.0338083 0.0332429 0.0326434 0.0320098 0.0313421 0.0306403 0.0299043 0.0291343 0.0283422 0.0275399 0.0267274 0.0259048 0.025072 0.024229 0.0233759 0.0225125 0.0216483 0.0207923 0.0199446 0.0191052 0.0182741 0.0174512 0.0166367 0.0158304 0.0150378 0.0142641 0.0135093 0.0127735 0.0120566 0.0113586 0.0106796 0.0100195 0.00938018 0.00876348 0.00816941 0.00759796 0.00704912 0.00652291 0.00601931 0.00553834 0.00507966 0.00464297 0.00422825 0.00383552 0.00346476 0.00311598 0.00278919 0.00248437 0.00220029 0.00193571 0.00169064 0.00146506 0.00125898 0.00107241 0.00090533 0.000757755 0.000626931 0.00051011 0.00040729 0.000318473 0.000243658 0.000182846 0.000136036 0.000103228 7.90336e-05 5.80655e-05 4.03233e-05 2.58069e-05 1.45164e-05 6.45172e-06 1.61293e-06 0 0 4.05291e-05 0.000162117 0.000364762 0.000648466 0.00101323 0.00145905 0.00198593 0.00259387 0.00329443 0.00409919 0.00500816 0.00602131 0.00713867 0.00836023 0.00968598 0.0111159 0.0126119 0.0141358 0.0156875 0.0172672 0.0188747 0.0205101 0.0221733 0.0238645 0.0255465 0.0271823 0.0287719 0.0303153 0.0318125 0.0332635 0.0346683 0.0360269 0.03732 0.0385283 0.0396517 0.0406904 0.0416442 0.0425133 0.0432975 0.0439969 0.0446087 0.0451298 0.0455604 0.0459004 0.0461498 0.0463086 0.0463769 0.0463545 0.0462505 0.0460738 0.0458243 0.045502 0.045107 0.0446392 0.0440987 0.0434854 0.0428141 0.0420996 0.041342 0.0405412 0.0396972 0.03881 0.0378796 0.036906 0.0359044 0.0348898 0.0338623 0.0328219 0.0317685 0.0307022 0.0296229 0.0285307 0.0274372 0.0263542 0.0252816 0.0242193 0.0231675 0.0221261 0.0210952 0.0200746 0.0190712 0.0180917 0.0171362 0.0162045 0.0152967 0.0144129 0.013553 0.012717 0.0119072 0.011126 0.0103735 0.00964948 0.00895411 0.00828732 0.00764914 0.00703955 0.00645816 0.00590456 0.00537876 0.00488076 0.00441056 0.00396816 0.00355355 0.00316674 0.00280616 0.00247024 0.00215896 0.00187235 0.00161039 0.00137309 0.00116044 0.000972447 0.000805654 0.000656604 0.000525296 0.000411731 0.000315908 0.000237828 0.00017749 0.000134895 0.000103279 7.58785e-05 5.26934e-05 3.37238e-05 1.89696e-05 8.43095e-06 2.10774e-06 0 0 5.05948e-05 0.000202379 0.000455353 0.000809516 0.00126487 0.00182141 0.00247914 0.00323807 0.00411141 0.00511242 0.0062411 0.00749744 0.00888144 0.0103931 0.0120324 0.0137994 0.0156471 0.0175287 0.019444 0.0213931 0.023376 0.0253928 0.0274433 0.0295276 0.0316004 0.0336163 0.0355754 0.0374775 0.0393228 0.0411113 0.0428428 0.0445175 0.0461116 0.0476014 0.0489868 0.0502678 0.0514446 0.0525169 0.053485 0.0543487 0.0551044 0.0557486 0.0562813 0.0567024 0.057012 0.05721 0.0572964 0.0572713 0.0571456 0.0569301 0.0566249 0.0562299 0.0557453 0.0551708 0.0545067 0.0537528 0.0529273 0.0520485 0.0511162 0.0501306 0.0490915 0.047999 0.0468531 0.0456539 0.0444198 0.0431696 0.0419032 0.0406207 0.039322 0.0380071 0.0366761 0.0353289 0.03398 0.0326437 0.0313201 0.0300092 0.0287109 0.0274252 0.0261522 0.0248919 0.0236526 0.0224426 0.021262 0.0201108 0.018989 0.0178965 0.0168334 0.0157996 0.0147982 0.0138319 0.0129009 0.0120051 0.0111445 0.0103191 0.00952896 0.00877401 0.0080538 0.00736785 0.00671617 0.00609875 0.00551559 0.00496669 0.00445206 0.00397169 0.00352363 0.00310595 0.00271864 0.00236169 0.00203513 0.00173893 0.0014731 0.00123765 0.00102836 0.000841032 0.000675668 0.000532267 0.000410828 0.000311351 0.000233836 0.000178284 0.000136499 0.000100285 6.96423e-05 4.45711e-05 2.50712e-05 1.11428e-05 2.78569e-06 0 0 6.20602e-05 0.000248241 0.000558542 0.000992964 0.00155151 0.00223417 0.00304095 0.00397186 0.00504132 0.00626379 0.00763927 0.00916775 0.0108492 0.0126837 0.0146712 0.0168117 0.0190487 0.0213256 0.0236425 0.0259994 0.0283963 0.0308331 0.0333098 0.0358266 0.038329 0.0407629 0.0431282 0.0454249 0.0476531 0.0498127 0.0519038 0.0539262 0.0558516 0.0576512 0.0593252 0.0608734 0.0622959 0.0635927 0.0647639 0.0658093 0.0667245 0.0675053 0.0681514 0.068663 0.06904 0.0692825 0.0693904 0.0693638 0.0692156 0.068959 0.0685939 0.0681204 0.0675385 0.0668481 0.0660492 0.0651419 0.064148 0.0630894 0.061966 0.0607779 0.059525 0.0582074 0.056825 0.0553779 0.0538885 0.0523793 0.0508502 0.0493013 0.0477325 0.0461439 0.0445355 0.0429072 0.0412766 0.0396609 0.0380603 0.0364747 0.034904 0.0333484 0.0318078 0.0302823 0.0287819 0.0273167 0.0258869 0.0244924 0.0231332 0.0218093 0.0205208 0.0192675 0.0180531 0.0168812 0.0157517 0.0146648 0.0136203 0.0126183 0.0116588 0.0107417 0.0098666 0.00903285 0.00824047 0.00748947 0.00677984 0.00611158 0.0054847 0.00489919 0.0043527 0.00384285 0.00336965 0.00293309 0.00253319 0.00216993 0.00184332 0.00155335 0.00129504 0.00106339 0.000858407 0.000680081 0.000528417 0.000403415 0.000305074 0.000233395 0.000178693 0.000131285 9.11698e-05 5.83487e-05 3.28211e-05 1.45872e-05 3.64679e-06 0 0 7.49256e-05 0.000299702 0.00067433 0.00119881 0.00187314 0.00269732 0.00367135 0.00479524 0.00608416 0.0075533 0.00920266 0.0110322 0.013042 0.0152321 0.0176023 0.0201528 0.0228165 0.0255267 0.0282832 0.0310861 0.0339354 0.036831 0.039773 0.0427614 0.0457324 0.048622 0.0514304 0.0541575 0.0568033 0.0593678 0.0618511 0.064253 0.0665399 0.0686778 0.0706669 0.0725071 0.0741983 0.0757407 0.0771341 0.0783787 0.079469 0.0803997 0.0811707 0.0817822 0.082234 0.0825262 0.0826588 0.0826318 0.0824606 0.0821604 0.0817314 0.0811734 0.0804866 0.0796709 0.0787262 0.0776527 0.0764762 0.0752224 0.0738914 0.0724832 0.0709977 0.0694351 0.0677952 0.0660781 0.0643104 0.0625188 0.0607032 0.0588636 0.057 0.0551125 0.0532011 0.0512656 0.049327 0.0474058 0.0455021 0.0436158 0.0417471 0.0398958 0.0380621 0.0362458 0.0344591 0.0327141 0.0310109 0.0293494 0.0277296 0.0261515 0.0246151 0.0231205 0.021672 0.0202738 0.018926 0.0176286 0.0163815 0.0151849 0.0140386 0.0129427 0.0118965 0.0108995 0.00995166 0.00905292 0.00820331 0.00740283 0.00665149 0.00594927 0.00529336 0.00468094 0.004112 0.00358655 0.00310457 0.00266609 0.00227108 0.00191956 0.00160571 0.00132369 0.00107351 0.000855174 0.000668677 0.00051402 0.000391204 0.000300227 0.000229861 0.000168878 0.000117276 7.50567e-05 4.22194e-05 1.87642e-05 4.69104e-06 0 0 8.91908e-05 0.000356763 0.000802717 0.00142705 0.00222977 0.00321087 0.00437035 0.00570821 0.00723992 0.00898094 0.0109313 0.0130909 0.0154599 0.0180381 0.0208257 0.0238226 0.0269507 0.0301318 0.0333659 0.0366531 0.0399933 0.0433865 0.0468328 0.0503321 0.0538104 0.0571937 0.060482 0.0636752 0.0667734 0.0697766 0.0726847 0.0754979 0.0781765 0.0806812 0.083012 0.0851688 0.0871518 0.0889608 0.0905958 0.0920569 0.0933377 0.0944318 0.0953392 0.0960599 0.0965939 0.0969411 0.0971017 0.0970755 0.0968805 0.0965344 0.0960372 0.095389 0.0945896 0.0936392 0.0925378 0.0912852 0.0899117 0.0884474 0.0868923 0.0852464 0.0835096 0.0816821 0.0797637 0.0777545 0.0756856 0.0735881 0.0714622 0.0693076 0.0671246 0.064913 0.0626728 0.0604041 0.0581311 0.0558783 0.0536454 0.0514327 0.04924 0.0470674 0.0449149 0.0427824 0.0406842 0.0386347 0.0366338 0.0346816 0.0327779 0.0309229 0.0291165 0.0273588 0.0256548 0.0240097 0.0224236 0.0208964 0.0194281 0.0180188 0.0166684 0.0153769 0.0141436 0.0129679 0.0118498 0.0107891 0.00978601 0.00884044 0.00795241 0.00712191 0.00634563 0.00562022 0.0049457 0.00432205 0.00374929 0.00322741 0.0027564 0.00233628 0.00196035 0.00162192 0.00132098 0.00105755 0.000831607 0.000643167 0.000492224 0.00037878 0.000290004 0.000213064 0.000147961 9.46951e-05 5.3266e-05 2.36738e-05 5.91844e-06 0 0 0.000104856 0.000419423 0.000943702 0.00167769 0.00262139 0.00377481 0.00513793 0.00671077 0.0085086 0.0105467 0.0128251 0.0153438 0.0181027 0.021102 0.0243415 0.0278213 0.0314512 0.035141 0.0388908 0.0427005 0.0465701 0.0504997 0.0544892 0.0585387 0.0625632 0.066478 0.0702829 0.0739781 0.0775634 0.081039 0.0844048 0.0876608 0.0907615 0.0936613 0.0963604 0.0988588 0.101156 0.103253 0.105149 0.106844 0.108331 0.109602 0.110657 0.111496 0.11212 0.112527 0.112719 0.112695 0.112475 0.112081 0.111511 0.110767 0.109848 0.108753 0.107484 0.106039 0.104455 0.102765 0.100969 0.0990676 0.0970608 0.0949484 0.0927305 0.090407 0.088014 0.0855874 0.0831272 0.0806335 0.0781061 0.0755452 0.0729507 0.0703226 0.0676891 0.0650784 0.0624904 0.0599252 0.0573828 0.0548631 0.0523662 0.0498921 0.0474573 0.0450786 0.0427558 0.0404891 0.0382784 0.0361236 0.0340249 0.0319822 0.0300016 0.028089 0.0262446 0.0244683 0.0227602 0.0211201 0.0195482 0.0180444 0.0166079 0.015238 0.0139347 0.012698 0.0115279 0.0104244 0.00938747 0.00841712 0.00750949 0.00666069 0.00587073 0.00513961 0.00446733 0.00385388 0.00329928 0.00280351 0.00235898 0.00195808 0.00160082 0.0012872 0.00101721 0.000790854 0.000608137 0.000469055 0.00035912 0.000263844 0.000183225 0.000117264 6.59609e-05 2.9316e-05 7.32899e-06 0 0 0.000121921 0.000487683 0.00109729 0.00195073 0.00304802 0.00438914 0.00597411 0.00780292 0.00989022 0.0122506 0.0148842 0.0177908 0.0209706 0.0244235 0.0281496 0.0321487 0.036318 0.0405543 0.0448577 0.0492282 0.0536658 0.0581705 0.0627423 0.0673811 0.0719907 0.0764748 0.0808332 0.0850661 0.0891733 0.093155 0.0970112 0.100742 0.104295 0.107618 0.110712 0.113577 0.116212 0.118617 0.120793 0.12274 0.124448 0.125909 0.127124 0.128091 0.128811 0.129284 0.129511 0.12949 0.129245 0.1288 0.128154 0.127308 0.12626 0.125013 0.123564 0.121915 0.120105 0.118174 0.116121 0.113947 0.111651 0.109234 0.106696 0.104036 0.101296 0.0985165 0.0956983 0.092841 0.0899447 0.0870092 0.0840348 0.0810212 0.0780009 0.0750062 0.072037 0.0690934 0.0661754 0.063283 0.0604162 0.0575749 0.0547784 0.0520457 0.0493769 0.0467719 0.0442309 0.0417536 0.0393403 0.0369908 0.0347123 0.0325117 0.030389 0.0283443 0.0263776 0.0244888 0.022678 0.0209451 0.0192893 0.0177098 0.0162066 0.0147797 0.0134291 0.0121547 0.0109567 0.0098349 0.00878495 0.00780235 0.00688711 0.00603922 0.00525869 0.00454552 0.0038997 0.00332124 0.00280158 0.00233218 0.00191302 0.00154412 0.00122548 0.000957083 0.000738941 0.000571052 0.000437211 0.000321217 0.000223067 0.000142763 8.03041e-05 3.56907e-05 8.92268e-06 0 0 0.000140385 0.000561542 0.00126347 0.00224617 0.00350964 0.00505388 0.00687889 0.00898467 0.0113848 0.0140927 0.0171085 0.0204321 0.0240635 0.0280028 0.0322499 0.0368049 0.0415511 0.0463717 0.0512668 0.0562363 0.0612804 0.0663989 0.0715919 0.0768594 0.082093 0.0871841 0.0921329 0.0969392 0.101603 0.106125 0.110504 0.114741 0.118776 0.122552 0.126067 0.129323 0.132318 0.135054 0.137529 0.139745 0.14169 0.143355 0.14474 0.145844 0.146669 0.147213 0.147477 0.147461 0.14719 0.146692 0.145965 0.145011 0.143828 0.142418 0.140779 0.138913 0.136863 0.134675 0.132349 0.129884 0.127281 0.124539 0.121659 0.118641 0.115531 0.112375 0.109175 0.10593 0.10264 0.0993051 0.095925 0.0924999 0.0890665 0.0856616 0.0822852 0.0789373 0.075618 0.0723271 0.0690647 0.0658308 0.0626473 0.059536 0.0564969 0.05353 0.0506354 0.0478129 0.0450627 0.0423847 0.039787 0.0372777 0.0348568 0.0325244 0.0302804 0.0281249 0.0260577 0.024079 0.0221879 0.0203833 0.0186654 0.0170341 0.0154894 0.0140314 0.01266 0.0113752 0.010172 0.0090452 0.00799483 0.00702089 0.00612339 0.00530232 0.00455768 0.00388948 0.00328817 0.00274421 0.0022576 0.00182833 0.00145642 0.00114185 0.000884636 0.00068477 0.000524277 0.000385183 0.000267488 0.000171192 9.62957e-05 4.27981e-05 1.06995e-05 0 0 0.000159873 0.000639491 0.00143886 0.00255796 0.00399682 0.00575542 0.00783377 0.0102319 0.0129617 0.0160355 0.019453 0.0232144 0.0273197 0.0317688 0.0365617 0.0416985 0.0470481 0.0524797 0.0579932 0.0635886 0.0692659 0.0750252 0.0808663 0.0867894 0.0926735 0.0983977 0.103962 0.109366 0.114611 0.119695 0.124619 0.129384 0.133923 0.138169 0.142125 0.145788 0.14916 0.152239 0.155027 0.157524 0.159717 0.161595 0.163158 0.164407 0.165341 0.16596 0.166264 0.166253 0.165957 0.165404 0.164595 0.163529 0.162207 0.160628 0.158792 0.1567 0.154402 0.151947 0.149337 0.14657 0.143647 0.140568 0.137332 0.133941 0.130445 0.126899 0.123301 0.119652 0.115951 0.112199 0.108396 0.104542 0.100678 0.0968449 0.0930435 0.0892735 0.0855351 0.081828 0.0781525 0.0745084 0.0709204 0.0674133 0.0639871 0.0606417 0.0573771 0.0541934 0.0510906 0.0480686 0.0451367 0.0423041 0.0395708 0.0369369 0.0344023 0.031967 0.029631 0.0273943 0.025256 0.0232151 0.0212716 0.0194255 0.0176768 0.0160255 0.0144716 0.0130151 0.0116502 0.0103712 0.00917814 0.00807092 0.00704959 0.00611415 0.00526459 0.00450092 0.00381259 0.00318908 0.00263037 0.00213648 0.00170739 0.00134312 0.00104365 0.000808998 0.000619389 0.000455061 0.000316015 0.000202249 0.000113765 5.05623e-05 1.26406e-05 0 0 0.000180006 0.000720022 0.00162005 0.00288009 0.00450014 0.0064802 0.00882027 0.0115204 0.0145907 0.0180416 0.021873 0.0260849 0.0306773 0.0356503 0.0410038 0.0467378 0.0527067 0.0587648 0.0649121 0.0711487 0.0774744 0.0838894 0.0903936 0.096987 0.103536 0.109907 0.1161 0.122116 0.127953 0.133612 0.139094 0.144397 0.14945 0.154178 0.158582 0.162663 0.166419 0.169851 0.172958 0.175742 0.178189 0.180285 0.182032 0.183429 0.184475 0.185172 0.185519 0.185515 0.185194 0.184587 0.183695 0.182516 0.181052 0.179303 0.177267 0.174946 0.172395 0.16967 0.16677 0.163695 0.160447 0.157024 0.153426 0.149655 0.145767 0.141821 0.137817 0.133756 0.129636 0.125459 0.121224 0.116931 0.112626 0.108356 0.10412 0.0999186 0.0957514 0.0916186 0.0875201 0.0834559 0.0794538 0.0755412 0.0717183 0.0679849 0.0643412 0.060787 0.0573224 0.0539475 0.0506725 0.0475079 0.0444538 0.04151 0.0386767 0.0359537 0.0333412 0.030839 0.0284463 0.0261619 0.0239859 0.0219183 0.019959 0.0181081 0.0163655 0.0147314 0.0131992 0.0117625 0.0104213 0.00917563 0.0080255 0.00697089 0.00601181 0.00514825 0.00436871 0.00366169 0.00302719 0.00246522 0.00197576 0.00155883 0.00121442 0.000942524 0.00072162 0.00053017 0.000368174 0.000235631 0.000132542 5.89078e-05 1.47269e-05 0 0 0.000200784 0.000803135 0.00180705 0.00321254 0.0050196 0.00722822 0.00983841 0.0128502 0.0162717 0.020111 0.0243683 0.0290435 0.0341365 0.0396474 0.0455763 0.051923 0.0585269 0.0652271 0.0720237 0.0789166 0.0859059 0.0929916 0.100174 0.107452 0.11468 0.121713 0.128548 0.135188 0.14163 0.147877 0.153927 0.159781 0.165358 0.170578 0.175441 0.179947 0.184096 0.187888 0.191322 0.1944 0.197106 0.199427 0.201361 0.20291 0.204073 0.20485 0.205241 0.205246 0.204901 0.20424 0.203264 0.201972 0.200365 0.198442 0.196204 0.19365 0.190843 0.187842 0.184648 0.181261 0.177681 0.173908 0.169942 0.165782 0.161494 0.157142 0.152724 0.148242 0.143695 0.139084 0.134408 0.129667 0.124913 0.120195 0.115515 0.110873 0.106267 0.101699 0.0971675 0.0926736 0.0882475 0.0839198 0.0796906 0.0755598 0.0715275 0.0675937 0.0637583 0.0600213 0.0563944 0.0528892 0.0495057 0.0462438 0.0431036 0.0400851 0.0371883 0.0344132 0.0317586 0.0292237 0.0268082 0.0245123 0.022336 0.0202791 0.0183418 0.0165241 0.0148188 0.0132189 0.0117243 0.010335 0.00905111 0.00787255 0.00679933 0.00583147 0.00495652 0.00416205 0.00344806 0.00281455 0.00226153 0.00178899 0.00139693 0.00108535 0.000830971 0.000610509 0.000423965 0.000271338 0.000152627 6.78344e-05 1.69586e-05 0 0 0.000222207 0.00088883 0.00199987 0.00355532 0.00555519 0.00799947 0.0108882 0.0142213 0.0180046 0.0222438 0.026939 0.0320901 0.0376972 0.0437602 0.0502791 0.057254 0.0645086 0.0718665 0.0793278 0.0868924 0.0945605 0.102332 0.110207 0.118185 0.126107 0.133814 0.141305 0.148582 0.155643 0.162489 0.16912 0.175535 0.181647 0.187369 0.1927 0.197641 0.202191 0.206351 0.21012 0.213498 0.21647 0.219019 0.221146 0.222851 0.224133 0.224993 0.225431 0.225446 0.225077 0.224362 0.223302 0.221896 0.220144 0.218046 0.215602 0.212813 0.209745 0.206464 0.202971 0.199266 0.195349 0.19122 0.186878 0.182324 0.177629 0.172861 0.168022 0.163111 0.158128 0.153074 0.147948 0.14275 0.137536 0.132363 0.127229 0.122136 0.117082 0.112068 0.107095 0.102161 0.0973015 0.092549 0.087904 0.0833664 0.0789362 0.0746135 0.0703981 0.0662901 0.0623024 0.0584479 0.0547265 0.0511383 0.0476832 0.0443612 0.0411724 0.0381167 0.0351931 0.0324004 0.0297386 0.0272077 0.0248077 0.0225386 0.0204005 0.0183933 0.0165092 0.0147405 0.0130871 0.0115491 0.0101264 0.00881911 0.00762717 0.00655058 0.00557602 0.00469015 0.00389297 0.00318449 0.0025647 0.0020336 0.00159119 0.00123747 0.000947441 0.000696079 0.000483388 0.000309369 0.00017402 7.73422e-05 1.93355e-05 0 0 0.000244277 0.000977106 0.00219849 0.00390842 0.00610691 0.00879395 0.0119695 0.0156337 0.0197895 0.0244399 0.029585 0.0352248 0.0413593 0.0479885 0.0551123 0.0627309 0.0706519 0.0786831 0.0868245 0.0950761 0.103438 0.11191 0.120492 0.129185 0.137815 0.146211 0.154372 0.162299 0.169991 0.177448 0.184671 0.191659 0.198318 0.204551 0.21036 0.215745 0.220704 0.225239 0.22935 0.233035 0.236278 0.239062 0.241386 0.243251 0.244656 0.245602 0.246088 0.246115 0.245723 0.244955 0.24381 0.242288 0.240389 0.238114 0.235462 0.232434 0.229101 0.225536 0.22174 0.217711 0.213451 0.208959 0.204236 0.19928 0.194169 0.188979 0.18371 0.178362 0.172935 0.167429 0.161844 0.15618 0.150498 0.144858 0.139261 0.133707 0.128196 0.122728 0.117302 0.111919 0.106616 0.101429 0.0963586 0.0914047 0.0865673 0.0818463 0.0772419 0.0727539 0.0683966 0.064184 0.0601163 0.0561934 0.0524152 0.0487819 0.0452934 0.0419497 0.0387496 0.035692 0.0327769 0.0300044 0.0273743 0.0248866 0.0225415 0.0203389 0.0182703 0.0163272 0.0145097 0.0128178 0.0112514 0.00981059 0.00849531 0.00730559 0.00622721 0.005246 0.00436193 0.00357502 0.00288526 0.00229265 0.0017972 0.0013989 0.00107103 0.00078688 0.000546444 0.000349724 0.00019672 8.74311e-05 2.18578e-05 0 0 0.000266991 0.00106796 0.00240292 0.00427186 0.00667478 0.00961168 0.0130826 0.0170874 0.0216263 0.0266993 0.0323065 0.0384477 0.045123 0.0523324 0.0600759 0.0683536 0.0769567 0.0856768 0.0945138 0.103468 0.112539 0.121726 0.131031 0.140453 0.149806 0.158904 0.167748 0.176338 0.184673 0.192754 0.200581 0.208153 0.215369 0.222125 0.228421 0.234258 0.239636 0.244554 0.249013 0.253012 0.256533 0.259556 0.262082 0.264111 0.265642 0.266676 0.267213 0.267252 0.266839 0.266017 0.264787 0.263148 0.261102 0.258647 0.255784 0.252513 0.248911 0.245058 0.240953 0.236596 0.231987 0.227127 0.222014 0.21665 0.211116 0.205496 0.19979 0.193996 0.188116 0.18215 0.176097 0.169957 0.163796 0.157681 0.151612 0.145588 0.13961 0.133677 0.127789 0.121947 0.11619 0.110559 0.105054 0.0996746 0.0944206 0.0892923 0.0842897 0.0794127 0.0746768 0.0700976 0.0656751 0.0614092 0.0572999 0.0533473 0.0495514 0.0459121 0.0424282 0.0390987 0.0359234 0.0329023 0.0300356 0.0273231 0.0247649 0.022361 0.0201021 0.0179792 0.0159922 0.0141412 0.0124261 0.010847 0.00940376 0.00809648 0.0069101 0.00582959 0.00485493 0.00398615 0.00322322 0.00256616 0.00201496 0.00156962 0.00120174 0.000882911 0.000613133 0.000392405 0.000220728 9.81012e-05 2.45253e-05 0 0 0.000290351 0.0011614 0.00261316 0.00464561 0.00725877 0.0104526 0.0142272 0.0185825 0.0235152 0.0290221 0.0351032 0.0417586 0.0489881 0.0567919 0.0651699 0.0741221 0.0834231 0.0928476 0.102396 0.112067 0.121862 0.131781 0.141823 0.151988 0.162078 0.171893 0.181434 0.1907 0.199691 0.208408 0.21685 0.225018 0.232801 0.240089 0.246883 0.253181 0.258985 0.264294 0.269109 0.273428 0.277232 0.280501 