<?xml version="1.0"?> 
<VTKFile type="StructuredGrid" version="0.1"> 
<StructuredGrid WholeExtent="0 128 0 128 0 0"> 
<Piece Extent="0 128 0 128 0 0"> 
<PointData>
<DataArray type="Float32" Name="u" format="ascii" NumberOfComponents="1"> 
0 0 0 0 0 0 0 0 0 0 0 0 0 0 0 0 0 0 0 0 0 0 0 0 0 0 0 0 0 0 0 0 0 0 0 0 0 0 0 0 0 0 0 0 0 0 0 0 0 0 0 0 0 0 0 0 0 0 0 0 0 0 0 0 0 0 0 0 0 0 0 0 0 0 0 0 0 0 0 0 0 0 0 0 0 0 0 0 0 0 0 0 0 0 0 0 0 0 0 0 0 0 0 0 0 0 0 0 0 0 0 0 0 0 0 0 0 0 0 0 0 0 0 0 0 0 0 0 0 0 1.95281e-07 7.81123e-07 1.75753e-06 3.12449e-06 4.88202e-06 7.0301e-06 9.56875e-06 1.2498e-05 1.58746e-05 1.97554e-05 2.41405e-05 2.90298e-05 3.44233e-05 4.0321e-05 4.6723e-05 5.36292e-05 6.08555e-05 6.82176e-05 7.57156e-05 8.33495e-05 9.11193e-05 9.90249e-05 0.000107066 0.000115244 0.000123385 0.000131318 0.000139042 0.000146558 0.000153866 0.000160966 0.000167857 0.00017454 0.000180932 0.000186953 0.000192602 0.00019788 0.000202785 0.000207319 0.000211481 0.000215271 0.000218683 0.00022171 0.000224352 0.000226609 0.000228481 0.000229968 0.00023107 0.000231788 0.000232159 0.000232224 0.000231981 0.000231432 0.000230575 0.000229412 0.000227942 0.000226165 0.000224135 0.000221909 0.000219485 0.000216863 0.000214044 0.000211028 0.000207814 0.000204403 0.000200844 0.000197185 0.000193427 0.000189569 0.000185612 0.000181556 0.000177401 0.000173146 0.000168825 0.000164474 0.000160092 0.000155679 0.000151234 0.000146759 0.000142253 0.000137716 0.000133169 0.000128633 0.00012411 0.000119597 0.000115097 0.000110607 0.00010613 0.000101664 9.7226e-05 9.28328e-05 8.84843e-05 8.41805e-05 7.99214e-05 7.5707e-05 7.15372e-05 6.74122e-05 6.3353e-05 5.93805e-05 5.5495e-05 5.16963e-05 4.79845e-05 4.43595e-05 4.08214e-05 3.73701e-05 3.40363e-05 3.08504e-05 2.78124e-05 2.49225e-05 2.21805e-05 1.95865e-05 1.71405e-05 1.48424e-05 1.27109e-05 1.07644e-05 9.00309e-06 7.42687e-06 6.03575e-06 4.82973e-06 3.80882e-06 2.97302e-06 2.27621e-06 1.67232e-06 1.16133e-06 7.43254e-07 4.1808e-07 1.85813e-07 4.64534e-08 0 0 7.81123e-07 3.12449e-06 7.0301e-06 1.2498e-05 1.95281e-05 2.81204e-05 3.8275e-05 4.99919e-05 6.34983e-05 7.90216e-05 9.65619e-05 0.000116119 0.000137693 0.000161284 0.000186892 0.000214517 0.000243422 0.00027287 0.000302863 0.000333398 0.000364477 0.0003961 0.000428266 0.000460975 0.00049354 0.000525271 0.000556169 0.000586234 0.000615465 0.000643863 0.000671427 0.000698158 0.000723729 0.000747813 0.00077041 0.000791519 0.000811141 0.000829276 0.000845924 0.000861085 0.000874732 0.00088684 0.000897408 0.000906436 0.000913924 0.000919873 0.000924282 0.000927151 0.000928636 0.000928894 0.000927924 0.000925727 0.000922301 0.000917648 0.000911768 0.000904659 0.000896542 0.000887635 0.000877939 0.000867453 0.000856177 0.000844112 0.000831258 0.000817613 0.000803376 0.00078874 0.000773708 0.000758277 0.00074245 0.000726225 0.000709602 0.000692582 0.000675301 0.000657897 0.000640368 0.000622715 0.000604938 0.000587037 0.000569012 0.000550863 0.000532675 0.000514534 0.000496438 0.000478389 0.000460386 0.00044243 0.000424519 0.000406655 0.000388904 0.000371331 0.000353937 0.000336722 0.000319686 0.000302828 0.000286149 0.000269649 0.000253412 0.000237522 0.00022198 0.000206785 0.000191938 0.000177438 0.000163285 0.00014948 0.000136145 0.000123401 0.00011125 9.969e-05 8.87221e-05 7.8346e-05 6.85619e-05 5.93696e-05 5.08434e-05 4.30577e-05 3.60124e-05 2.97075e-05 2.4143e-05 1.93189e-05 1.52353e-05 1.18921e-05 9.10486e-06 6.68928e-06 4.64534e-06 2.97302e-06 1.67232e-06 7.43254e-07 1.85813e-07 0 0 1.75753e-06 7.0301e-06 1.58177e-05 2.81204e-05 4.39382e-05 6.32709e-05 8.61188e-05 0.000112482 0.000142871 0.000177799 0.000217264 0.000261268 0.00030981 0.000362889 0.000420507 0.000482663 0.000547699 0.000613959 0.000681441 0.000750146 0.000820074 0.000891224 0.000963598 0.00103719 0.00111046 0.00118186 0.00125138 0.00131903 0.0013848 0.00144869 0.00151071 0.00157086 0.00162839 0.00168258 0.00173342 0.00178092 0.00182507 0.00186587 0.00190333 0.00193744 0.00196815 0.00199539 0.00201917 0.00203948 0.00205633 0.00206971 0.00207963 0.00208609 0.00208943 0.00209001 0.00208783 0.00208289 0.00207518 0.00206471 0.00205148 0.00203548 0.00201722 0.00199718 0.00197536 0.00195177 0.0019264 0.00189925 0.00187033 0.00183963 0.00180759 0.00177467 0.00174084 0.00170612 0.00167051 0.00163401 0.0015966 0.00155831 0.00151943 0.00148027 0.00144083 0.00140111 0.00136111 0.00132083 0.00128028 0.00123944 0.00119852 0.0011577 0.00111699 0.00107638 0.00103587 0.000995467 0.000955169 0.000914975 0.000875034 0.000835495 0.000796359 0.000757624 0.000719293 0.000681363 0.000643835 0.00060671 0.000570177 0.000534425 0.000499455 0.000465267 0.00043186 0.000399235 0.000367392 0.000336331 0.000306326 0.000277653 0.000250312 0.000224302 0.000199625 0.000176279 0.000154264 0.000133582 0.000114398 9.68798e-05 8.10278e-05 6.68418e-05 5.43217e-05 4.34676e-05 3.42794e-05 2.67571e-05 2.04859e-05 1.50509e-05 1.0452e-05 6.68928e-06 3.76272e-06 1.67232e-06 4.1808e-07 0 0 3.12449e-06 1.2498e-05 2.81204e-05 4.99919e-05 7.81123e-05 0.000112482 0.0001531 0.000199967 0.000253993 0.000316086 0.000386247 0.000464476 0.000550773 0.000645137 0.000747568 0.000858068 0.000973688 0.00109148 0.00121145 0.00133359 0.00145791 0.0015844 0.00171306 0.0018439 0.00197416 0.00210108 0.00222468 0.00234493 0.00246186 0.00257545 0.00268571 0.00279263 0.00289492 0.00299125 0.00308164 0.00316608 0.00324456 0.00331711 0.0033837 0.00344434 0.00349893 0.00354736 0.00358963 0.00362574 0.0036557 0.00367949 0.00369713 0.0037086 0.00371455 0.00371558 0.0037117 0.00370291 0.00368921 0.00367059 0.00364707 0.00361864 0.00358617 0.00355054 0.00351176 0.00346981 0.00342471 0.00337645 0.00332503 0.00327045 0.0032135 0.00315496 0.00309483 0.00303311 0.0029698 0.0029049 0.00283841 0.00277033 0.00270121 0.00263159 0.00256147 0.00249086 0.00241975 0.00234815 0.00227605 0.00220345 0.0021307 0.00205813 0.00198575 0.00191356 0.00184155 0.00176972 0.00169808 0.00162662 0.00155562 0.00148532 0.00141575 0.00134689 0.00127874 0.00121131 0.0011446 0.0010786 0.00101365 0.000950089 0.00088792 0.000827141 0.000767752 0.000709752 0.000653142 0.000597922 0.00054458 0.000493606 0.000444999 0.00039876 0.000354888 0.000313384 0.000274247 0.000237478 0.000203374 0.000172231 0.000144049 0.00011883 9.65719e-05 7.72757e-05 6.09411e-05 4.75682e-05 3.64194e-05 2.67571e-05 1.85813e-05 1.18921e-05 6.68928e-06 2.97302e-06 7.43254e-07 0 0 4.88202e-06 1.95281e-05 4.39382e-05 7.81123e-05 0.00012205 0.000175753 0.000239219 0.000312449 0.000396864 0.000493885 0.000603512 0.000725744 0.000860582 0.00100803 0.00116808 0.00134073 0.00152139 0.00170544 0.00189289 0.00208374 0.00227798 0.00247562 0.00267666 0.0028811 0.00308462 0.00328295 0.00347606 0.00366396 0.00384666 0.00402414 0.00419642 0.00436349 0.00452331 0.00467383 0.00481506 0.00494699 0.00506963 0.00518298 0.00528703 0.00538178 0.00546708 0.00554275 0.0056088 0.00566522 0.00571203 0.00574921 0.00577676 0.00579469 0.00580398 0.00580559 0.00579953 0.00578579 0.00576438 0.0057353 0.00569855 0.00565412 0.00560339 0.00554772 0.00548712 0.00542158 0.00535111 0.0052757 0.00519536 0.00511008 0.0050211 0.00492963 0.00483567 0.00473923 0.00464031 0.0045389 0.00443501 0.00432864 0.00422063 0.00411185 0.0040023 0.00389197 0.00378086 0.00366898 0.00355633 0.00344289 0.00332922 0.00321583 0.00310274 0.00298993 0.00287741 0.00276519 0.00265325 0.0025416 0.00243065 0.00232082 0.00221211 0.00210451 0.00199803 0.00189267 0.00178843 0.00168531 0.00158382 0.00148451 0.00138738 0.00129241 0.00119961 0.00110899 0.00102053 0.000934253 0.000850906 0.000771259 0.000695311 0.000623062 0.000554513 0.000489663 0.000428512 0.00037106 0.000317771 0.00026911 0.000225077 0.000185672 0.000150894 0.000120743 9.52205e-05 7.43254e-05 5.69054e-05 4.1808e-05 2.90334e-05 1.85813e-05 1.0452e-05 4.64534e-06 1.16133e-06 0 0 7.0301e-06 2.81204e-05 6.32709e-05 0.000112482 0.000175753 0.000253084 0.000344475 0.000449927 0.000571484 0.000711195 0.000869057 0.00104507 0.00123924 0.00145156 0.00168203 0.00193065 0.0021908 0.00245583 0.00272576 0.00300058 0.00328029 0.0035649 0.00385439 0.00414878 0.00444186 0.00472744 0.00500552 0.0052761 0.00553918 0.00579476 0.00604285 0.00628343 0.00651356 0.00673032 0.00693369 0.00712367 0.00730027 0.00746349 0.00761332 0.00774976 0.00787259 0.00798156 0.00807667 0.00815792 0.00822532 0.00827886 0.00831854 0.00834436 0.00835773 0.00836005 0.00835132 0.00833154 0.00830071 0.00825883 0.00820591 0.00814193 0.00806888 0.00798872 0.00790145 0.00780708 0.0077056 0.00759701 0.00748132 0.00735852 0.00723038 0.00709866 0.00696337 0.0068245 0.00668205 0.00653602 0.00638642 0.00623324 0.00607771 0.00592107 0.00576331 0.00560443 0.00544444 0.00528333 0.00512111 0.00495777 0.00479408 0.0046308 0.00446794 0.0043055 0.00414348 0.00398187 0.00382068 0.0036599 0.00350014 0.00334198 0.00318543 0.0030305 0.00287717 0.00272545 0.00257534 0.00242684 0.00228071 0.0021377 0.00199782 0.00186107 0.00172744 0.00159694 0.00146957 0.00134532 0.00122531 0.00111061 0.00100125 0.00089721 0.000798499 0.000705114 0.000617057 0.000534326 0.000457591 0.000387519 0.000324111 0.000267367 0.000217287 0.00017387 0.000137118 0.000107029 8.19437e-05 6.02036e-05 4.1808e-05 2.67571e-05 1.50509e-05 6.68928e-06 1.67232e-06 0 0 9.56875e-06 3.8275e-05 8.61188e-05 0.0001531 0.000239219 0.000344475 0.000468869 0.0006124 0.000777854 0.000968015 0.00118288 0.00142246 0.00168674 0.00197573 0.00228943 0.00262783 0.00298192 0.00334266 0.00371007 0.00408413 0.00446485 0.00485222 0.00524626 0.00564695 0.00604586 0.00643457 0.00681307 0.00718136 0.00753945 0.00788732 0.00822498 0.00855244 0.00886568 0.00916071 0.00943752 0.00969611 0.00993648 0.0101586 0.0103626 0.0105483 0.0107155 0.0108638 0.0109932 0.0111038 0.0111956 0.0112684 0.0113225 0.0113576 0.0113758 0.011379 0.0113671 0.0113402 0.0112982 0.0112412 0.0111692 0.0110821 0.0109826 0.0108735 0.0107548 0.0106263 0.0104882 0.0103404 0.0101829 0.0100158 0.00984135 0.00966207 0.00947792 0.0092889 0.00909501 0.00889625 0.00869263 0.00848413 0.00827244 0.00805923 0.0078445 0.00762826 0.00741049 0.0071912 0.0069704 0.00674807 0.00652527 0.00630304 0.00608137 0.00586027 0.00563973 0.00541976 0.00520036 0.00498153 0.00476407 0.00454881 0.00433573 0.00412484 0.00391615 0.00370964 0.00350533 0.0033032 0.00310429 0.00290965 0.00271926 0.00253312 0.00235124 0.00217362 0.00200025 0.00183114 0.00166778 0.00151167 0.00136281 0.0012212 0.00108685 0.000959739 0.000839883 0.000727277 0.000622832 0.000527457 0.000441151 0.000363916 0.000295752 0.000236657 0.000186632 0.000145678 0.000111535 8.19437e-05 5.69054e-05 3.64194e-05 2.04859e-05 9.10486e-06 2.27621e-06 0 0 1.2498e-05 4.99919e-05 0.000112482 0.000199967 0.000312449 0.000449927 0.0006124 0.00079987 0.00101597 0.00126435 0.00154499 0.0018579 0.00220309 0.00258055 0.00299027 0.00343227 0.00389475 0.00436593 0.0048458 0.00533437 0.00583163 0.0063376 0.00685225 0.00737561 0.00789664 0.00840434 0.00889871 0.00937974 0.00984744 0.0103018 0.0107428 0.0111705 0.0115797 0.011965 0.0123266 0.0126643 0.0129783 0.0132684 0.0135348 0.0137774 0.0139957 0.0141894 0.0143585 0.014503 0.0146228 0.014718 0.0147885 0.0148344 0.0148582 0.0148623 0.0148468 0.0148116 0.0147568 0.0146824 0.0145883 0.0144745 0.0143447 0.0142022 0.014047 0.0138792 0.0136988 0.0135058 0.0133001 0.0130818 0.012854 0.0126198 0.0123793 0.0121324 0.0118792 0.0116196 0.0113536 0.0110813 0.0108048 0.0105263 0.0102459 0.00996344 0.00967901 0.00939259 0.00910419 0.00881381 0.0085228 0.00823254 0.00794301 0.00765423 0.00736618 0.00707888 0.00679231 0.00650649 0.00622246 0.0059413 0.005663 0.00538755 0.00511497 0.00484525 0.00457838 0.00431438 0.00405459 0.00380036 0.00355168 0.00330856 0.00307101 0.00283901 0.00261257 0.00239169 0.00217832 0.00197442 0.00178 0.00159504 0.00141955 0.00125354 0.00109699 0.000949913 0.000813494 0.000688923 0.000576198 0.000475319 0.000386288 0.000309103 0.000243765 0.000190273 0.000145678 0.000107029 7.43254e-05 4.75682e-05 2.67571e-05 1.18921e-05 2.97302e-06 0 0 1.59008e-05 6.36032e-05 0.000143107 0.000254413 0.00039752 0.000572429 0.000779139 0.00101765 0.00129242 0.00160789 0.00196408 0.00236097 0.00279857 0.00327689 0.00379591 0.00435563 0.00494118 0.00553764 0.00614503 0.00676334 0.00739258 0.00803273 0.00868381 0.00934581 0.0100048 0.010647 0.0112724 0.0118809 0.0124725 0.0130473 0.0136053 0.0141464 0.014664 0.0151516 0.0156091 0.0160365 0.0164339 0.0168012 0.0171385 0.0174457 0.0177222 0.0179677 0.0181819 0.0183651 0.018517 0.0186379 0.0187275 0.0187861 0.0188166 0.0188222 0.018803 0.018759 0.01869 0.0185962 0.0184776 0.018334 0.0181701 0.0179901 0.0177941 0.0175821 0.0173541 0.0171101 0.0168501 0.016574 0.0162859 0.0159897 0.0156855 0.0153732 0.0150528 0.0147243 0.0143877 0.0140431 0.0136931 0.0133407 0.0129856 0.0126281 0.012268 0.0119054 0.0115402 0.0111725 0.010804 0.0104365 0.0100698 0.00970412 0.00933933 0.00897547 0.00861254 0.00825053 0.00789079 0.00753467 0.00718218 0.0068333 0.00648804 0.0061464 0.00580837 0.00547397 0.00514489 0.00482284 0.00450783 0.00419984 0.00389888 0.00360495 0.00331806 0.00303819 0.00276782 0.0025094 0.00226294 0.00202844 0.00180589 0.0015953 0.00139666 0.00120998 0.00103677 0.000878528 0.000735265 0.000606978 0.000493666 0.000395331 0.000311971 0.000243586 0.000186496 0.000137017 9.51508e-05 6.08965e-05 3.42543e-05 1.52241e-05 3.80603e-06 0 0 1.98603e-05 7.94414e-05 0.000178743 0.000317765 0.000496509 0.000714972 0.000973157 0.00127106 0.00161377 0.00200637 0.00244885 0.00294122 0.00348348 0.00407563 0.00471767 0.00540959 0.00613308 0.00686983 0.00761983 0.00838308 0.00915959 0.00994934 0.0107524 0.0115686 0.0123811 0.013173 0.013944 0.0146944 0.015424 0.0161329 0.0168211 0.0174886 0.0181272 0.0187288 0.0192934 0.0198211 0.0203118 0.0207655 0.0211822 0.0215619 0.021904 0.0222077 0.022473 0.0226999 0.0228884 0.0230386 0.0231504 0.0232238 0.0232627 0.0232709 0.0232483 0.0231951 0.0231112 0.0229966 0.0228513 0.0226752 0.022474 0.0222528 0.0220119 0.0217511 0.0214705 0.0211701 0.0208498 0.0205097 0.0201546 0.0197895 0.0194144 0.0190292 0.0186339 0.0182286 0.0178132 0.0173877 0.0169557 0.0165204 0.016082 0.0156403 0.0151955 0.0147475 0.0142962 0.0138418 0.0133864 0.012932 0.0124788 0.0120267 0.0115757 0.0111258 0.0106771 0.0102294 0.00978455 0.00934415 0.00890822 0.00847675 0.00804975 0.00762722 0.00720915 0.00679554 0.0063885 0.00599013 0.00560042 0.00521938 0.004847 0.00448329 0.00412824 0.00378186 0.00344715 0.00312713 0.00282178 0.00253111 0.00225512 0.00199381 0.00174718 0.00151523 0.00129983 0.00110288 0.000924367 0.000764293 0.000622658 0.000499462 0.000394706 0.000308389 0.00023611 0.000173469 0.000120465 7.70973e-05 4.33672e-05 1.92743e-05 4.81858e-06 0 0 2.43766e-05 9.75063e-05 0.000219389 0.000390025 0.000609414 0.000877557 0.00119445 0.0015601 0.00198003 0.00245977 0.00299931 0.00359866 0.00425782 0.00497678 0.00575556 0.00659414 0.00747046 0.00836248 0.00927019 0.0101936 0.0111327 0.0120874 0.0130579 0.014044 0.0150255 0.0159821 0.0169137 0.0178203 0.0187019 0.0195586 0.0203904 0.0211971 0.0219691 0.0226966 0.0233795 0.0240179 0.0246118 0.0251611 0.0256659 0.0261261 0.0265409 0.0269094 0.0272316 0.0275074 0.0277369 0.0279201 0.028057 0.0281476 0.0281965 0.0282082 0.0281827 0.0281201 0.0280203 0.0278834 0.0277094 0.0274982 0.0272563 0.0269904 0.0267004 0.0263863 0.026048 0.0256857 0.0252993 0.0248889 0.0244602 0.0240192 0.0235659 0.0231004 0.0226225 0.0221324 0.02163 0.0211153 0.0205924 0.0200656 0.0195349 0.0190001 0.0184615 0.0179188 0.0173722 0.0168217 0.0162698 0.0157192 0.0151699 0.0146219 0.0140753 0.0135299 0.0129859 0.0124431 0.0119037 0.0113697 0.0108411 0.0103179 0.00980012 0.00928772 0.00878071 0.0082791 0.00778543 0.00730221 0.00682947 0.00636718 0.00591537 0.00547401 0.00504312 0.0046227 0.00421633 0.0038276 0.00345651 0.00310305 0.00276724 0.00244907 0.00214854 0.00186565 0.0016027 0.00136198 0.0011435 0.000947265 0.000773263 0.000621498 0.000491971 0.000384682 0.000294522 0.000216384 0.000150266 9.61705e-05 5.40959e-05 2.40426e-05 6.01066e-06 0 0 2.94495e-05 0.000117798 0.000265046 0.000471192 0.000736238 0.00106018 0.00144303 0.00188477 0.00239119 0.00296809 0.00361545 0.00433328 0.00512158 0.00598034 0.00690958 0.00790928 0.00895333 0.0100156 0.0110961 0.0121948 0.0133118 0.014447 0.0156004 0.0167721 0.017938 0.0190745 0.0201813 0.0212586 0.0223063 0.0233245 0.0243131 0.0252721 0.02619 0.0270551 0.0278675 0.0286271 0.029334 0.0299881 0.0305896 0.0311382 0.031633 0.0320729 0.0324577 0.0327876 0.0330626 0.0332825 0.0334475 0.0335575 0.033618 0.0336342 0.0336062 0.0335339 0.0334175 0.0332568 0.0330519 0.0328028 0.0325172 0.0322027 0.0318595 0.0314875 0.0310867 0.0306571 0.0301987 0.0297115 0.0292025 0.0286787 0.0281402 0.0275869 0.0270187 0.0264358 0.0258381 0.0252257 0.0246034 0.0239763 0.0233443 0.0227075 0.0220659 0.0214195 0.0207682 0.0201121 0.0194543 0.018798 0.0181432 0.0174899 0.0168381 0.0161878 0.015539 0.0148917 0.0142483 0.0136114 0.0129809 0.0123568 0.0117391 0.0111279 0.0105231 0.00992465 0.00933566 0.0087591 0.00819496 0.00764326 0.00710398 0.00657712 0.0060627 0.0055607 0.00507534 0.00461081 0.00416712 0.00374427 0.00334226 0.00296109 0.00260075 0.00226125 0.00194536 0.00165583 0.00139268 0.00115589 0.000945481 0.000761438 0.000603766 0.000472465 0.000361731 0.000265762 0.000184557 0.000118116 6.64404e-05 2.95291e-05 7.38226e-06 0 0 3.50791e-05 0.000140317 0.000315712 0.000561266 0.000876979 0.00126285 0.00171888 0.00224507 0.00284727 0.00353134 0.00429728 0.00514508 0.00607476 0.00708631 0.00817972 0.00935501 0.0105817 0.0118292 0.0130976 0.0143869 0.015697 0.017028 0.0183799 0.0197527 0.0211186 0.02245 0.0237469 0.0250093 0.0262371 0.0274304 0.0285892 0.0297134 0.0307896 0.0318042 0.0327572 0.0336486 0.0344784 0.0352466 0.0359532 0.0365983 0.0371803 0.0376981 0.0381515 0.0385406 0.0388653 0.0391257 0.0393218 0.0394535 0.0395272 0.0395489 0.0395187 0.0394366 0.0393026 0.0391167 0.0388789 0.0385891 0.0382565 0.0378899 0.0374894 0.0370549 0.0365865 0.0360841 0.0355479 0.0349776 0.0343817 0.0337682 0.0331371 0.0324886 0.0318225 0.0311388 0.0304377 0.029719 0.0289886 0.0282524 0.0275104 0.0267625 0.0260089 0.0252494 0.0244841 0.023713 0.0229398 0.0221684 0.0213986 0.0206305 0.0198641 0.0190994 0.0183364 0.0175751 0.0168184 0.0160692 0.0153275 0.0145934 0.0138668 0.0131477 0.0124362 0.0117322 0.0110392 0.0103608 0.00969691 0.00904759 0.00841283 0.00779263 0.00718697 0.00659587 0.00602419 0.00547677 0.00495363 0.00445477 0.00398017 0.00352985 0.0031038 0.00270203 0.00232781 0.00198443 0.00167188 0.00139018 0.00113931 0.000919282 0.000730091 0.000571738 0.000437737 0.000321602 0.000223335 0.000142934 8.04006e-05 3.57336e-05 8.9334e-06 0 0 4.12655e-05 0.000165062 0.000371389 0.000660248 0.00103164 0.00148556 0.00202201 0.00264099 0.00334824 0.00414951 0.00504478 0.00603407 0.00711737 0.00829468 0.009566 0.0109313 0.0123555 0.0138032 0.0152746 0.0167697 0.0182883 0.0198305 0.0213964 0.0229859 0.0245673 0.0261088 0.0276105 0.0290723 0.0304943 0.0318764 0.0332187 0.0345211 0.0357681 0.0369439 0.0380487 0.0390824 0.040045 0.0409365 0.0417569 0.0425063 0.0431829 0.0437851 0.0443128 0.0447662 0.0451452 0.0454497 0.0456799 0.0458356 0.0459241 0.0459523 0.0459203 0.0458281 0.0456757 0.0454631 0.0451902 0.0448572 0.0444743 0.0440518 0.0435899 0.0430884 0.0425474 0.0419669 0.0413468 0.0406873 0.0399976 0.0392875 0.0385568 0.0378056 0.0370338 0.0362414 0.0354286 0.0345951 0.033748 0.0328939 0.032033 0.0311651 0.0302903 0.0294086 0.02852 0.0276245 0.0267265 0.0258304 0.0249361 0.0240438 0.0231533 0.0222648 0.0213781 0.0204933 0.0196138 0.0187431 0.017881 0.0170277 0.0161831 0.0153473 0.0145201 0.0137017 0.0128961 0.0121073 0.0113353 0.0105802 0.00984193 0.00912052 0.00841594 0.00772821 0.00706287 0.00642548 0.00581604 0.00523454 0.00468098 0.00415537 0.00365771 0.00318799 0.00275006 0.00234777 0.00198113 0.00165012 0.00135476 0.00109503 0.000870945 0.0006825 0.000522539 0.000383906 0.000266602 0.000170625 9.59766e-05 4.26563e-05 1.06641e-05 0 0 4.80085e-05 0.000192034 0.000432077 0.000768136 0.00120021 0.00172831 0.00235242 0.00307254 0.00389413 0.0048226 0.00585798 0.00700024 0.0082494 0.00960546 0.0110684 0.0126382 0.0142748 0.0159378 0.0176273 0.0193432 0.0210856 0.0228545 0.0246499 0.0264718 0.0282841 0.0300509 0.0317721 0.0334478 0.035078 0.0366626 0.0382017 0.0396952 0.0411253 0.0424743 0.043742 0.0449285 0.0460337 0.0470578 0.0480006 0.0488622 0.0496406 0.0503338 0.0509418 0.0514646 0.0519022 0.0522546 0.0525218 0.0527038 0.0528087 0.0528444 0.052811 0.0527084 0.0525367 0.0522959 0.051986 0.0516069 0.0511705 0.0506886 0.0501611 0.049588 0.0489694 0.0483053 0.0475956 0.0468404 0.0460504 0.0452367 0.0443991 0.0435378 0.0426526 0.0417436 0.0408108 0.0398542 0.0388816 0.0379009 0.0369122 0.0359153 0.0349102 0.0338971 0.0328759 0.0318466 0.0308142 0.029784 0.0287558 0.0277298 0.0267058 0.0256839 0.0246641 0.0236464 0.0226347 0.021633 0.0206414 0.0196597 0.0186881 0.0177265 0.0167748 0.0158332 0.0149062 0.0139985 0.0131102 0.0122411 0.0113913 0.0105608 0.0097496 0.00895771 0.0081914 0.00745694 0.00675433 0.00608358 0.00544468 0.00483764 0.00426245 0.00371912 0.00321211 0.00274587 0.00232041 0.00193572 0.00159181 0.00128868 0.00102633 0.000804753 0.000616139 0.000452673 0.000314356 0.000201188 0.000113168 5.0297e-05 1.25743e-05 0 0 5.53082e-05 0.000221233 0.000497774 0.000884932 0.00138271 0.0019911 0.0027101 0.00353973 0.00448492 0.00555063 0.00673685 0.0080436 0.00947086 0.0110186 0.0126869 0.0144758 0.0163395 0.0182328 0.0201554 0.0221075 0.024089 0.0261 0.0281404 0.0302102 0.032269 0.0342761 0.0362317 0.0381357 0.039988 0.0417888 0.043538 0.0452356 0.0468615 0.0483953 0.0498371 0.0511869 0.0524447 0.0536105 0.0546843 0.0556661 0.0565535 0.0573443 0.0580383 0.0586357 0.0591363 0.0595403 0.0598475 0.0600581 0.0601809 0.0602252 0.0601907 0.0600776 0.0598858 0.0596153 0.0592662 0.0588384 0.0583453 0.0578001 0.057203 0.0565538 0.0558526 0.0550994 0.0542942 0.0534369 0.05254 0.0516158 0.0506642 0.0496852 0.048679 0.0476454 0.0465844 0.0454961 0.0443895 0.0432734 0.0421479 0.041013 0.0398687 0.0387149 0.0375518 0.0363792 0.0352031 0.0340292 0.0328577 0.0316884 0.0305214 0.0293567 0.0281944 0.0270343 0.025881 0.0247391 0.0236086 0.0224895 0.0213817 0.0202853 0.0192003 0.0181267 0.0170697 0.0160346 0.0150214 0.0140302 0.0130609 0.0121135 0.011188 0.0102844 0.00940976 0.00857113 0.00776851 0.0070019 0.00627128 0.00557666 0.00491805 0.00429544 0.00371395 0.00317871 0.00268972 0.00224698 0.00185048 0.00150024 0.00119624 0.000938495 0.000718535 0.000527903 0.0003666 0.000234624 0.000131976 5.86559e-05 1.4664e-05 0 0 6.30179e-05 0.000252072 0.000567161 0.00100829 0.00157545 0.00226865 0.00308788 0.00403315 0.00510876 0.00631902 0.00766392 0.00914348 0.0107577 0.0125065 0.01439 0.0164082 0.0185099 0.020644 0.0228105 0.0250094 0.0272408 0.0295045 0.0318007 0.0341293 0.0364452 0.0387031 0.0409032 0.0430454 0.0451297 0.047156 0.0491245 0.0510351 0.0528651 0.054592 0.0562156 0.057736 0.0591532 0.0604672 0.0616779 0.0627855 0.0637871 0.0646801 0.0654644 0.06614 0.066707 0.0671652 0.0675148 0.0677558 0.067898 0.0679517 0.0679167 0.0677931 0.0675809 0.06728 0.0668905 0.0664124 0.0658606 0.06525 0.0645806 0.0638524 0.0630653 0.0622195 0.0613149 0.0603515 0.0593431 0.0583037 0.0572333 0.0561317 0.0549991 0.0538355 0.0526408 0.051415 0.0501683 0.0489108 0.0476425 0.0463633 0.0450734 0.0437726 0.042461 0.0411386 0.039812 0.0384879 0.0371663 0.0358472 0.0345306 0.0332165 0.0319048 0.0305956 0.0292941 0.0280054 0.0267294 0.0254663 0.024216 0.0229784 0.0217537 0.0205418 0.0193486 0.01818 0.017036 0.0159167 0.014822 0.013752 0.0127065 0.0116858 0.0106974 0.00974941 0.00884169 0.00797426 0.00714712 0.00636028 0.00561374 0.00490749 0.00424738 0.00363922 0.00308303 0.00257881 0.00212655 0.00172625 0.00137792 0.00108155 0.00082806 0.000608371 0.00042248 0.000270387 0.000152093 6.75968e-05 1.68992e-05 0 0 7.09909e-05 0.000283963 0.000638918 0.00113585 0.00177477 0.00255567 0.00347855 0.00454342 0.0057538 0.00711323 0.00862171 0.0102792 0.0120858 0.0140415 0.0161461 0.0183999 0.0207458 0.0231271 0.0255437 0.0279957 0.030483 0.0330057 0.0355637 0.0381571 0.040736 0.0432505 0.0457007 0.0480865 0.0504079 0.052665 0.0548578 0.0569862 0.0590251 0.0609494 0.062759 0.0644541 0.0660345 0.0675004 0.0688516 0.0700882 0.071207 0.0722049 0.073082 0.0738382 0.0744735 0.074988 0.0753815 0.0756542 0.075817 0.075881 0.0758462 0.0757125 0.0754801 0.0751488 0.0747187 0.0741898 0.0735786 0.0729016 0.0721589 0.0713504 0.0704761 0.069536 0.0685301 0.0674585 0.0663365 0.0651796 0.0639878 0.062761 0.0614994 0.0602028 0.0588713 0.0575049 0.0561149 0.0547126 0.0532981 0.0518712 0.0504321 0.0489807 0.047517 0.046041 0.0445602 0.043082 0.0416066 0.0401337 0.0386636 0.0371961 0.0357313 0.0342691 0.0328154 0.0313759 0.0299507 0.0285397 0.0271429 0.0257604 0.0243921 0.0230381 0.0217049 0.0203991 0.0191207 0.0178696 0.016646 0.0154497 0.0142808 0.0131394 0.0120339 0.0109731 0.00995695 0.00898544 0.00805857 0.00717635 0.00633878 0.00554586 0.00480418 0.00412033 0.00349432 0.00292613 0.00241578 0.00196327 0.00156858 0.00123173 0.000943047 0.000692851 0.000481146 0.000307934 0.000173213 7.69834e-05 1.92458e-05 0 0 7.92271e-05 0.000316908 0.000713044 0.00126763 0.00198068 0.00285217 0.00388213 0.00507053 0.00642003 0.00793325 0.0096102 0.0114509 0.0134553 0.0156234 0.0179552 0.0204508 0.0230474 0.0256821 0.0283551 0.0310664 0.0338158 0.0366035 0.0394295 0.0422936 0.0451414 0.0479182 0.0506241 0.0532589 0.0558229 0.0583158 0.0607378 0.0630889 0.0653413 0.0674675 0.0694675 0.0713412 0.0730888 0.0747101 0.0762051 0.077574 0.078813 0.0799188 0.0808912 0.0817303 0.082436 0.0830085 0.0834476 0.0837534 0.0839379 0.0840131 0.0839791 0.0838359 0.0835834 0.0832217 0.0827508 0.0821706 0.0814993 0.0807551 0.0799379 0.0790478 0.0780847 0.0770487 0.0759398 0.0747579 0.0735201 0.0722433 0.0709277 0.0695731 0.0681797 0.0667473 0.0652761 0.0637659 0.0622293 0.060679 0.0591148 0.0575367 0.0559449 0.0543392 0.0527197 0.0510864 0.0494475 0.0478115 0.0461783 0.044548 0.0429204 0.0412957 0.0396737 0.0380546 0.0364448 0.0348507 0.0332722 0.0317095 0.0301625 0.0286312 0.0271156 0.0256157 0.0241387 0.022692 0.0212754 0.019889 0.0185328 0.0172067 0.0159109 0.0146452 0.0134192 0.0122422 0.0111143 0.0100354 0.00900562 0.00802487 0.00709318 0.00621054 0.00538436 0.00462203 0.00392357 0.00328895 0.00271819 0.00221129 0.00176824 0.00138905 0.00106349 0.000781342 0.000542599 0.000347263 0.000195336 8.68158e-05 2.1704e-05 0 0 8.77265e-05 0.000350906 0.000789539 0.00140362 0.00219316 0.00315815 0.0042986 0.0056145 0.00710746 0.00877909 0.0106294 0.0126584 0.014866 0.0172523 0.0198173 0.022561 0.0254145 0.0283091 0.0312447 0.0342214 0.0372392 0.040298 0.0433979 0.0465388 0.0496614 0.0527062 0.0556734 0.0585628 0.0613745 0.0641084 0.0667647 0.0693432 0.0718138 0.0741464 0.0763409 0.0783974 0.0803159 0.0820963 0.0837387 0.085243 0.0866053 0.0878216 0.0888919 0.0898162 0.0905945 0.0912267 0.091713 0.0920533 0.0922606 0.092348 0.0923155 0.0921632 0.0918909 0.0914987 0.0909867 0.0903547 0.0896227 0.0888103 0.0879177 0.0869447 0.0858914 0.0847578 0.0835439 0.0822497 0.0808939 0.079495 0.078053 0.0765681 0.0750401 0.073469 0.0718549 0.0701978 0.0685115 0.0668097 0.0650925 0.0633598 0.0616117 0.0598482 0.0580692 0.0562748 0.0544741 0.0526764 0.0508816 0.0490899 0.047301 0.0455151 0.0437322 0.0419523 0.0401824 0.0384297 0.0366942 0.0349759 0.0332748 0.0315908 0.0299241 0.0282745 0.02665 0.0250586 0.0235002 0.0219748 0.0204824 0.019023 0.0175967 0.0162033 0.0148533 0.0135567 0.0123137 0.0111242 0.00998828 0.00890584 0.00787692 0.00690153 0.00598792 0.00514433 0.00437078 0.00366726 0.00303378 0.00247032 0.0019769 0.0015535 0.0011894 0.000873846 0.000606838 0.000388376 0.000218462 9.7094e-05 2.42735e-05 0 0 9.64892e-05 0.000385957 0.000868403 0.00154383 0.00241223 0.00347361 0.00472797 0.00617531 0.00781608 0.00965075 0.0116793 0.0139017 0.0163181 0.0189283 0.0217324 0.0247304 0.0278473 0.031008 0.0342125 0.0374609 0.0407531 0.0440891 0.047469 0.0508927 0.054296 0.0576146 0.0608486 0.063998 0.0670627 0.0700428 0.0729383 0.0757491 0.0784426 0.080986 0.0833794 0.0856227 0.0877159 0.0896591 0.0914522 0.0930952 0.0945838 0.0959134 0.0970842 0.098096 0.0989488 0.0996428 0.100178 0.100554 0.100785 0.100886 0.100855 0.100694 0.100402 0.0999798 0.0994264 0.0987422 0.0979487 0.0970674 0.0960981 0.095041 0.0938961 0.0926633 0.0913426 0.089934 0.0884579 0.0869345 0.0853638 0.0837458 0.0820805 0.0803679 0.078608 0.0768008 0.0749614 0.0731049 0.0712313 0.0693405 0.0674326 0.0655076 0.0635654 0.0616062 0.0596399 0.0576766 0.0557165 0.0537594 0.0518055 0.0498546 0.0479067 0.045962 0.0440281 0.042113 0.0402165 0.0383387 0.0364797 0.0346393 0.0328176 0.0310146 0.0292388 0.027499 0.0257951 0.024127 0.0224949 0.0208986 0.0193382 0.0178137 0.0163362 0.0149167 0.0135553 0.0122519 0.0110065 0.00981926 0.00869002 0.00761883 0.00661485 0.00568723 0.00483597 0.00406107 0.00336253 0.00274035 0.00219454 0.00172509 0.00132077 0.000970362 0.000673862 0.000431272 0.00024259 0.000107818 2.69545e-05 0 0 0.000105515 0.000422061 0.000949636 0.00168824 0.00263788 0.00379855 0.00517024 0.00675297 0.0085459 0.0105482 0.0127599 0.015181 0.0178115 0.0206513 0.0237005 0.0269591 0.0303457 0.0337788 0.0372585 0.0407848 0.0443576 0.0479769 0.0516428 0.0553552 0.0590451 0.0626433 0.0661498 0.0695646 0.0728876 0.076119 0.0792587 0.0823067 0.0852276 0.0879863 0.0905828 0.0930169 0.0952888 0.0973983 0.0993456 0.101131 0.102748 0.104194 0.105468 0.10657 0.107499 0.108257 0.108842 0.109255 0.109512 0.109626 0.109599 0.109429 0.109118 0.108665 0.10807 0.107333 0.106477 0.105526 0.104479 0.103337 0.102099 0.100765 0.0993357 0.0978108 0.0962122 0.0945619 0.09286 0.0911063 0.089301 0.087444 0.0855353 0.0835749 0.0815792 0.0795646 0.0775311 0.0754788 0.0734076 0.0713175 0.0692085 0.0670806 0.0649448 0.0628123 0.0606829 0.0585567 0.0564337 0.0543139 0.0521973 0.0500838 0.0479821 0.0459005 0.0438392 0.0417981 0.0397772 