<?xml version="1.0"?> 
<VTKFile type="StructuredGrid" version="0.1"> 
<StructuredGrid WholeExtent="0 128 0 128 0 0"> 
<Piece Extent="0 128 0 128 0 0"> 
<PointData>
<DataArray type="Float32" Name="u" format="ascii" NumberOfComponents="1"> 
0 0 0 0 0 0 0 0 0 0 0 0 0 0 0 0 0 0 0 0 0 0 0 0 0 0 0 0 0 0 0 0 0 0 0 0 0 0 0 0 0 0 0 0 0 0 0 0 0 0 0 0 0 0 0 0 0 0 0 0 0 0 0 0 0 0 0 0 0 0 0 0 0 0 0 0 0 0 0 0 0 0 0 0 0 0 0 0 0 0 0 0 0 0 0 0 0 0 0 0 0 0 0 0 0 0 0 0 0 0 0 0 0 0 0 0 0 0 0 0 0 0 0 0 0 0 0 0 0 0 3.00509e-07 1.20204e-06 2.70458e-06 4.80814e-06 7.51272e-06 1.08183e-05 1.47249e-05 1.92326e-05 2.44284e-05 3.03996e-05 3.71462e-05 4.46682e-05 5.29656e-05 6.20383e-05 7.18865e-05 8.251e-05 9.36282e-05 0.00010496 0.000116507 0.000128267 0.000140241 0.00015243 0.000164832 0.000177449 0.000190011 0.000202251 0.000214169 0.000225765 0.000237039 0.00024799 0.000258619 0.000268926 0.000278774 0.000288026 0.000296682 0.000304741 0.000312205 0.000319072 0.000325344 0.000331019 0.000336076 0.000340495 0.000344274 0.000347414 0.000349915 0.000351777 0.000352999 0.000353582 0.000353584 0.000353062 0.000352017 0.000350447 0.000348354 0.000345737 0.000342597 0.000338932 0.00033484 0.000330415 0.000325657 0.000320567 0.000315144 0.000309389 0.000303301 0.000296881 0.000290226 0.000283434 0.000276504 0.000269437 0.000262232 0.00025489 0.000247411 0.000239794 0.000232117 0.000224456 0.000216811 0.000209183 0.000201571 0.000193974 0.000186394 0.000178831 0.000171332 0.000163946 0.000156674 0.000149515 0.000142469 0.000135536 0.000128717 0.000122011 0.000115444 0.00010904 0.000102799 9.67214e-05 9.08073e-05 8.50566e-05 7.94693e-05 7.40453e-05 6.87974e-05 6.37384e-05 5.88682e-05 5.41868e-05 4.96943e-05 4.53907e-05 4.12759e-05 3.735e-05 3.36231e-05 3.01055e-05 2.67973e-05 2.36984e-05 2.08088e-05 1.81286e-05 1.56576e-05 1.3396e-05 1.13366e-05 9.47226e-06 7.80309e-06 6.32904e-06 5.05011e-06 3.96629e-06 3.0776e-06 2.38404e-06 1.82528e-06 1.34102e-06 9.31264e-07 5.96009e-07 3.35255e-07 1.49002e-07 3.72506e-08 0 0 1.20204e-06 4.80814e-06 1.08183e-05 1.92326e-05 3.00509e-05 4.32733e-05 5.88998e-05 7.69303e-05 9.77136e-05 0.000121599 0.000148585 0.000178673 0.000211862 0.000248153 0.000287546 0.00033004 0.000374513 0.000419842 0.000466027 0.000513068 0.000560966 0.000609719 0.000659329 0.000709794 0.000760044 0.000809004 0.000856676 0.00090306 0.000948154 0.00099196 0.00103448 0.00107571 0.0011151 0.0011521 0.00118673 0.00121897 0.00124882 0.00127629 0.00130137 0.00132408 0.00134431 0.00136198 0.0013771 0.00138966 0.00139966 0.00140711 0.001412 0.00141433 0.00141434 0.00141225 0.00140807 0.00140179 0.00139342 0.00138295 0.00137039 0.00135573 0.00133936 0.00132166 0.00130263 0.00128227 0.00126058 0.00123756 0.00121321 0.00118753 0.0011609 0.00113373 0.00110602 0.00107775 0.00104893 0.00101956 0.000989644 0.000959178 0.000928469 0.000897825 0.000867246 0.000836732 0.000806282 0.000775898 0.000745578 0.000715323 0.000685327 0.000655784 0.000626695 0.000598059 0.000569875 0.000542146 0.000514869 0.000488045 0.000461775 0.000436159 0.000411195 0.000386886 0.000363229 0.000340226 0.000317877 0.000296181 0.00027519 0.000254953 0.000235473 0.000216747 0.000198777 0.000181563 0.000165104 0.0001494 0.000134492 0.000120422 0.000107189 9.47937e-05 8.32353e-05 7.25142e-05 6.26304e-05 5.35839e-05 4.53462e-05 3.7889e-05 3.12124e-05 2.53161e-05 2.02004e-05 1.58652e-05 1.23104e-05 9.53614e-06 7.30111e-06 5.36408e-06 3.72506e-06 2.38404e-06 1.34102e-06 5.96009e-07 1.49002e-07 0 0 2.70458e-06 1.08183e-05 2.43412e-05 4.32733e-05 6.76145e-05 9.73649e-05 0.000132524 0.000173093 0.000219856 0.000273597 0.000334316 0.000402014 0.00047669 0.000558345 0.000646978 0.00074259 0.000842654 0.000944644 0.00104856 0.0011544 0.00126217 0.00137187 0.00148349 0.00159704 0.0017101 0.00182026 0.00192752 0.00203188 0.00213335 0.00223191 0.00232757 0.00242034 0.00250897 0.00259223 0.00267014 0.00274267 0.00280984 0.00287165 0.00292809 0.00297917 0.00302469 0.00306445 0.00309847 0.00312673 0.00314923 0.00316599 0.00317699 0.00318224 0.00318226 0.00317756 0.00316815 0.00315403 0.00313519 0.00311164 0.00308337 0.00305039 0.00301356 0.00297373 0.00293091 0.0028851 0.0028363 0.0027845 0.00272971 0.00267193 0.00261204 0.0025509 0.00248854 0.00242493 0.00236009 0.00229401 0.0022267 0.00215815 0.00208905 0.00202011 0.0019513 0.00188265 0.00181413 0.00174577 0.00167755 0.00160948 0.00154199 0.00147551 0.00141006 0.00134563 0.00128222 0.00121983 0.00115846 0.0010981 0.00103899 0.000981357 0.00092519 0.000870493 0.000817266 0.000765509 0.000715223 0.000666407 0.000619177 0.000573645 0.000529814 0.000487682 0.000447249 0.000408516 0.000371483 0.00033615 0.000302608 0.00027095 0.000241176 0.000213286 0.000187279 0.000163157 0.000140918 0.000120564 0.000102029 8.52503e-05 7.02278e-05 5.69613e-05 4.54509e-05 3.56967e-05 2.76984e-05 2.14563e-05 1.64275e-05 1.20692e-05 8.38138e-06 5.36408e-06 3.0173e-06 1.34102e-06 3.35255e-07 0 0 4.80814e-06 1.92326e-05 4.32733e-05 7.69303e-05 0.000120204 0.000173093 0.000235599 0.000307721 0.000390855 0.000486394 0.00059434 0.000714691 0.000847449 0.000992613 0.00115018 0.00132016 0.00149805 0.00167937 0.00186411 0.00205227 0.00224386 0.00243888 0.00263732 0.00283918 0.00304018 0.00323602 0.00342671 0.00361224 0.00379262 0.00396784 0.00413791 0.00430282 0.00446039 0.00460842 0.00474691 0.00487586 0.00499528 0.00510516 0.0052055 0.0052963 0.00537722 0.00544792 0.00550839 0.00555863 0.00559864 0.00562843 0.00564799 0.00565732 0.00565735 0.005649 0.00563227 0.00560716 0.00557367 0.0055318 0.00548155 0.00542292 0.00535743 0.00528663 0.00521051 0.00512907 0.00504231 0.00495023 0.00485282 0.0047501 0.00464362 0.00453494 0.00442406 0.00431099 0.00419572 0.00407824 0.00395858 0.00383671 0.00371388 0.0035913 0.00346898 0.00334693 0.00322513 0.00310359 0.00298231 0.00286129 0.00274131 0.00262314 0.00250678 0.00239223 0.0022795 0.00216858 0.00205948 0.00195218 0.0018471 0.00174463 0.00164478 0.00154754 0.00145292 0.00136091 0.00127151 0.00118472 0.00110076 0.00101981 0.000941891 0.000866989 0.00079511 0.000726251 0.000660415 0.000597599 0.00053797 0.000481689 0.000428757 0.000379175 0.000332941 0.000290057 0.000250522 0.000214335 0.000181385 0.000151556 0.000124849 0.000101265 8.08017e-05 6.34607e-05 4.92417e-05 3.81446e-05 2.92044e-05 2.14563e-05 1.49002e-05 9.53614e-06 5.36408e-06 2.38404e-06 5.96009e-07 0 0 7.51272e-06 3.00509e-05 6.76145e-05 0.000120204 0.000187818 0.000270458 0.000368123 0.000480814 0.00061071 0.000759991 0.000928656 0.00111671 0.00132414 0.00155096 0.00179716 0.00206275 0.00234071 0.00262401 0.00291267 0.00320668 0.00350604 0.00381074 0.0041208 0.00443622 0.00475027 0.00505628 0.00535423 0.00564412 0.00592596 0.00619975 0.00646548 0.00672316 0.00696936 0.00720065 0.00741704 0.00761854 0.00780512 0.00797681 0.00813359 0.00827547 0.00840191 0.00851237 0.00860685 0.00868535 0.00874787 0.00879442 0.00882498 0.00883956 0.00883961 0.00882656 0.00880042 0.00876118 0.00870886 0.00864343 0.00856492 0.0084733 0.00837099 0.00826036 0.00814142 0.00801417 0.00787861 0.00773473 0.00758254 0.00742203 0.00725565 0.00708584 0.0069126 0.00673592 0.0065558 0.00637226 0.00618528 0.00599486 0.00580293 0.00561141 0.00542029 0.00522957 0.00503926 0.00484936 0.00465986 0.00447077 0.00428329 0.00409865 0.00391684 0.00373787 0.00356172 0.00338841 0.00321793 0.00305028 0.0028861 0.00272599 0.00256997 0.00241803 0.00227018 0.00212642 0.00198673 0.00185113 0.00171993 0.00159346 0.0014717 0.00135467 0.00124236 0.00113477 0.0010319 0.000933749 0.000840577 0.000752639 0.000669933 0.00059246 0.000520221 0.000453214 0.00039144 0.000334899 0.000283414 0.000236807 0.000195077 0.000158226 0.000126253 9.91574e-05 7.69401e-05 5.96009e-05 4.56319e-05 3.35255e-05 2.32816e-05 1.49002e-05 8.38138e-06 3.72506e-06 9.31264e-07 0 0 1.08183e-05 4.32733e-05 9.73649e-05 0.000173093 0.000270458 0.00038946 0.000530098 0.000692373 0.000879423 0.00109439 0.00133726 0.00160806 0.00190676 0.00223338 0.00258791 0.00297036 0.00337062 0.00377858 0.00419424 0.00461762 0.00504869 0.00548747 0.00593396 0.00638815 0.00684039 0.00728104 0.00771009 0.00812754 0.00853339 0.00892764 0.00931029 0.00968135 0.0100359 0.0103689 0.0106805 0.0109707 0.0112394 0.0114866 0.0117124 0.0119167 0.0120988 0.0122578 0.0123939 0.0125069 0.0125969 0.012664 0.012708 0.012729 0.012729 0.0127102 0.0126726 0.0126161 0.0125408 0.0124465 0.0123335 0.0122016 0.0120542 0.0118949 0.0117237 0.0115404 0.0113452 0.011138 0.0109189 0.0106877 0.0104481 0.0102036 0.00995414 0.00969972 0.00944036 0.00917605 0.0089068 0.0086326 0.00835622 0.00808042 0.00780521 0.00753058 0.00725654 0.00698308 0.0067102 0.00643791 0.00616794 0.00590206 0.00564025 0.00538253 0.00512888 0.00487931 0.00463382 0.00439241 0.00415598 0.00392543 0.00370076 0.00348197 0.00326906 0.00306204 0.00286089 0.00266563 0.00247671 0.00229458 0.00211925 0.00195073 0.001789 0.00163407 0.00148593 0.0013446 0.00121043 0.0010838 0.000964704 0.000853143 0.000749118 0.000652628 0.000563674 0.000482255 0.000408116 0.000341001 0.000280911 0.000227845 0.000181804 0.000142787 0.000110794 8.58253e-05 6.571e-05 4.82767e-05 3.35255e-05 2.14563e-05 1.20692e-05 5.36408e-06 1.34102e-06 0 0 1.47249e-05 5.88998e-05 0.000132524 0.000235599 0.000368123 0.000530098 0.000721522 0.000942396 0.00119699 0.00148958 0.00182017 0.00218874 0.00259531 0.00303988 0.00352244 0.00404299 0.00458778 0.00514306 0.00570883 0.00628509 0.00687183 0.00746906 0.00807678 0.00869498 0.00931054 0.0099103 0.0104943 0.0110625 0.0116149 0.0121515 0.0126723 0.0131774 0.0136599 0.0141133 0.0145374 0.0149323 0.015298 0.0156345 0.0159418 0.0162199 0.0164677 0.0166842 0.0168694 0.0170233 0.0171458 0.0172371 0.017297 0.0173255 0.0173256 0.0173001 0.0172488 0.0171719 0.0170694 0.0169411 0.0167872 0.0166077 0.0164071 0.0161903 0.0159572 0.0157078 0.0154421 0.0151601 0.0148618 0.0145472 0.0142211 0.0138883 0.0135487 0.0132024 0.0128494 0.0124896 0.0121231 0.0117499 0.0113737 0.0109984 0.0106238 0.01025 0.00987696 0.00950475 0.00913333 0.00876271 0.00839526 0.00803336 0.00767701 0.00732622 0.00698097 0.00664128 0.00630714 0.00597856 0.00565675 0.00534294 0.00503714 0.00473935 0.00444956 0.00416777 0.00389399 0.00362822 0.00337107 0.00312318 0.00288454 0.00265516 0.00243502 0.00222414 0.00202252 0.00183015 0.00164753 0.00147517 0.00131307 0.00116122 0.00101963 0.000888299 0.000767222 0.000656402 0.000555491 0.000464141 0.000382351 0.000310123 0.000247455 0.000194348 0.000150803 0.000116818 8.94386e-05 6.571e-05 4.56319e-05 2.92044e-05 1.64275e-05 7.30111e-06 1.82528e-06 0 0 1.92326e-05 7.69303e-05 0.000173093 0.000307721 0.000480814 0.000692373 0.000942396 0.00123088 0.00156342 0.00194558 0.00237736 0.00285877 0.0033898 0.00397045 0.00460073 0.00528064 0.00599221 0.00671747 0.00745643 0.00820909 0.00897545 0.00975551 0.0105493 0.0113567 0.0121607 0.0129441 0.0137068 0.014449 0.0151705 0.0158714 0.0165516 0.0172113 0.0178416 0.0184337 0.0189876 0.0195035 0.0199811 0.0204206 0.020822 0.0211852 0.0215089 0.0217917 0.0220335 0.0222345 0.0223946 0.0225137 0.0225919 0.0226293 0.0226294 0.022596 0.0225291 0.0224286 0.0222947 0.0221272 0.0219262 0.0216917 0.0214297 0.0211465 0.020842 0.0205163 0.0201692 0.0198009 0.0194113 0.0190004 0.0185745 0.0181398 0.0176962 0.017244 0.0167829 0.016313 0.0158343 0.0153468 0.0148555 0.0143652 0.0138759 0.0133877 0.0129005 0.0124144 0.0119292 0.0114452 0.0109652 0.0104925 0.0100271 0.00956894 0.00911801 0.00867433 0.0082379 0.00780873 0.0073884 0.00697854 0.00657913 0.00619017 0.00581167 0.00544362 0.00508603 0.0047389 0.00440303 0.00407926 0.00376756 0.00346796 0.00318044 0.00290501 0.00264166 0.0023904 0.00215188 0.00192676 0.00171503 0.0015167 0.00133176 0.00116023 0.00100209 0.000857342 0.000725539 0.000606225 0.000499398 0.000405058 0.000323207 0.000253843 0.000196967 0.000152578 0.000116818 8.58253e-05 5.96009e-05 3.81446e-05 2.14563e-05 9.53614e-06 2.38404e-06 0 0 2.44589e-05 9.78357e-05 0.00022013 0.000391343 0.000611473 0.000880521 0.00119849 0.00156537 0.00198801 0.00247323 0.00302105 0.00363146 0.00430445 0.00504003 0.0058382 0.00669897 0.00759962 0.00851749 0.00945255 0.0104048 0.0113743 0.012361 0.0133649 0.0143859 0.0154026 0.0163932 0.0173578 0.0182963 0.0192087 0.0200951 0.0209554 0.0217897 0.0225868 0.0233357 0.0240365 0.024689 0.0252933 0.0258495 0.0263574 0.0268171 0.0272269 0.0275849 0.0278913 0.0281459 0.0283488 0.0285 0.0285995 0.0286473 0.028648 0.0286063 0.0285222 0.0283957 0.0282267 0.0280154 0.0277617 0.0274655 0.0271347 0.026777 0.0263923 0.0259806 0.025542 0.0250764 0.0245839 0.0240644 0.0235259 0.0229762 0.0224154 0.0218434 0.0212602 0.0206659 0.0200604 0.0194437 0.0188221 0.0182018 0.0175827 0.016965 0.0163485 0.0157333 0.0151193 0.0145067 0.0138992 0.0133009 0.0127117 0.0121317 0.0115609 0.0109992 0.0104466 0.00990322 0.009371 0.00885199 0.0083462 0.00785363 0.00737427 0.00690812 0.0064552 0.00601549 0.00559003 0.00517984 0.00478494 0.00440533 0.00404099 0.00369193 0.00335816 0.00303966 0.00273727 0.0024518 0.00218326 0.00193164 0.00169695 0.00147917 0.00127833 0.0010944 0.000926843 0.000775081 0.000639117 0.000518952 0.000414586 0.000326018 0.00025325 0.00019628 0.000150277 0.000110408 7.6672e-05 4.90701e-05 2.76019e-05 1.22675e-05 3.06688e-06 0 0 3.05217e-05 0.000122087 0.000274695 0.000488347 0.000763042 0.00109878 0.00149556 0.00195339 0.00248007 0.00308342 0.00376345 0.00452014 0.00535351 0.00626354 0.00725025 0.00831362 0.00942577 0.0105588 0.0117127 0.0128875 0.0140831 0.0152996 0.016537 0.0177953 0.019048 0.0202686 0.0214572 0.0226137 0.0237381 0.0248305 0.0258909 0.0269192 0.0279018 0.0288251 0.0296892 0.030494 0.0312395 0.0319257 0.0325526 0.0331203 0.0336265 0.0340689 0.0344477 0.0347629 0.0350143 0.0352021 0.0353262 0.0353866 0.035389 0.0353391 0.0352369 0.0350824 0.0348756 0.0346165 0.0343051 0.0339414 0.0335348 0.033095 0.0326218 0.0321154 0.0315756 0.0310025 0.030396 0.0297563 0.0290929 0.0284157 0.0277246 0.0270196 0.0263008 0.025568 0.0248214 0.0240609 0.0232942 0.022529 0.0217652 0.0210029 0.0202421 0.0194828 0.0187249 0.0179685 0.0172185 0.0164797 0.0157521 0.0150357 0.0143305 0.0136366 0.0129538 0.0122823 0.0116246 0.0109831 0.0103579 0.00974891 0.00915623 0.00857982 0.00801968 0.00747581 0.00694949 0.00644198 0.00595331 0.00548345 0.00503242 0.00460021 0.00418682 0.00379226 0.00341751 0.00306357 0.00273044 0.00241812 0.00212661 0.0018559 0.00160601 0.00137692 0.00116798 0.000978536 0.000808575 0.000658103 0.000527119 0.000415623 0.000323616 0.000251098 0.000192247 0.000141242 9.80851e-05 6.27744e-05 3.53106e-05 1.56936e-05 3.9234e-06 0 0 3.74209e-05 0.000149683 0.000336788 0.000598734 0.000935522 0.00134715 0.00183362 0.00239494 0.0030396 0.00377614 0.00460455 0.00552482 0.00653697 0.00764098 0.00883686 0.0101246 0.0114707 0.0128414 0.0142369 0.015657 0.0171019 0.0185715 0.0200658 0.0215847 0.0230968 0.0245702 0.026005 0.0274012 0.0287588 0.0300777 0.0313581 0.0325998 0.0337865 0.0349019 0.0359458 0.0369184 0.0378195 0.0386493 0.0394077 0.0400947 0.0407076 0.0412436 0.0417029 0.0420854 0.0423911 0.0426199 0.042772 0.0428472 0.0428524 0.0427944 0.0426732 0.0424888 0.0422412 0.0419304 0.0415564 0.0411191 0.0406301 0.0401007 0.0395308 0.0389206 0.0382701 0.0375791 0.0368477 0.036076 0.0352756 0.0344582 0.0336239 0.0327727 0.0319046 0.0310194 0.0301174 0.0291984 0.0282718 0.0273468 0.0264234 0.0255016 0.0245815 0.023663 0.0227461 0.0218308 0.0209231 0.0200289 0.0191481 0.0182808 0.0174269 0.0165865 0.0157596 0.0149461 0.0141491 0.0133718 0.0126141 0.011876 0.0111576 0.0104587 0.00977948 0.00911986 0.00848141 0.00786568 0.00727265 0.00670233 0.00615473 0.00562984 0.00512766 0.00464819 0.0041926 0.00376206 0.00335657 0.00297613 0.00262075 0.00229041 0.00198513 0.00170489 0.00144896 0.00121659 0.00100777 0.000822511 0.000660807 0.000522658 0.000408066 0.00031703 0.000242726 0.00017833 0.00012384 7.92576e-05 4.45824e-05 1.98144e-05 4.9536e-06 0 0 4.51565e-05 0.000180626 0.000406408 0.000722503 0.00112891 0.00162563 0.00221267 0.00289001 0.00366661 0.00455139 0.00554435 0.0066455 0.00785483 0.00917235 0.010598 0.0121319 0.0137343 0.0153653 0.017025 0.0187135 0.0204306 0.0221765 0.023951 0.0257543 0.0275491 0.0292981 0.0310013 0.0326589 0.0342707 0.0358367 0.037357 0.0388316 0.040241 0.0415659 0.0428063 0.0439622 0.0450335 0.0460203 0.0469226 0.0477403 0.0484702 0.0491091 0.0496568 0.0501135 0.050479 0.0507535 0.0509369 0.0510291 0.0510383 0.0509723 0.0508312 0.050615 0.0503237 0.0499572 0.0495156 0.0489988 0.0484204 0.0477939 0.0471192 0.0463964 0.0456254 0.0448063 0.043939 0.0430235 0.0420738 0.0411038 0.0401134 0.0391027 0.0380716 0.0370202 0.0359484 0.0348562 0.0337548 0.0326551 0.0315572 0.0304609 0.0293665 0.0282737 0.0271828 0.0260935 0.0250131 0.0239485 0.0228998 0.021867 0.02085 0.019849 0.0188638 0.0178944 0.0169447 0.0160182 0.015115 0.014235 0.0133783 0.0125448 0.0117346 0.0109477 0.0101858 0.00945092 0.00874297 0.00806197 0.00740792 0.00678082 0.00618066 0.00560744 0.00506253 0.00454727 0.00406165 0.00360569 0.00317937 0.0027827 0.00241569 0.00207832 0.00176978 0.00148924 0.00123671 0.00101218 0.000815649 0.000647122 0.000506599 0.000394078 0.000301716 0.000221669 0.000153937 9.85195e-05 5.54172e-05 2.46299e-05 6.15747e-06 0 0 5.37285e-05 0.000214914 0.000483556 0.000859656 0.00134321 0.00193423 0.0026327 0.00343862 0.00436109 0.00540917 0.00658286 0.00788217 0.0093071 0.0108576 0.0125338 0.0143356 0.0162166 0.0181305 0.0200772 0.0220569 0.0240693 0.0261147 0.0281929 0.030304 0.0324048 0.0344522 0.0364461 0.0383866 0.0402737 0.0421074 0.0438876 0.0456145 0.0472652 0.0488173 0.0502707 0.0516253 0.0528813 0.0540386 0.0550972 0.0560572 0.0569145 0.0576652 0.0583094 0.0588471 0.0592782 0.0596028 0.0598209 0.0599324 0.0599466 0.0598728 0.0597109 0.0594609 0.0591229 0.0586968 0.0581826 0.0575804 0.0569059 0.0561748 0.055387 0.0545426 0.0536416 0.052684 0.0516698 0.0505989 0.0494877 0.0483524 0.047193 0.0460095 0.0448019 0.0435701 0.0423143 0.0410344 0.0397433 0.0384541 0.0371666 0.035881 0.0345972 0.0333152 0.032035 0.0307566 0.0294883 0.0282385 0.0270072 0.0257943 0.0245999 0.023424 0.0222665 0.0211274 0.0200112 0.0189222 0.0178604 0.0168257 0.0158183 0.0148381 0.013885 0.0129592 0.0120627 0.0111977 0.0103643 0.00956237 0.00879199 0.00805315 0.00734583 0.00667003 0.00602731 0.00541919 0.00484568 0.00430677 0.00380247 0.00333278 0.00289769 0.0024972 0.00213044 0.0017965 0.00149539 0.0012271 0.000991645 0.000789016 0.000619215 0.000482241 0.000369216 0.00027126 0.000188375 0.00012056 6.78151e-05 3.014e-05 7.53501e-06 0 0 6.31369e-05 0.000252548 0.000568232 0.00101019 0.00157842 0.00227293 0.00309371 0.00404076 0.00512303 0.00634947 0.00772008 0.00923484 0.0108938 0.0126969 0.0146441 0.0167356 0.0189177 0.021137 0.0233935 0.0256871 0.028018 0.0303861 0.0327913 0.0352338 0.037664 0.0400325 0.0423394 0.0445845 0.046768 0.0488899 0.05095 0.0529485 0.0548592 0.056656 0.0583389 0.0599079 0.0613631 0.0627044 0.0639318 0.0650453 0.0660402 0.0669121 0.0676608 0.0682863 0.0687887 0.069168 0.069424 0.069557 0.0695774 0.0694957 0.0693121 0.0690265 0.0686389 0.0681493 0.0675576 0.066864 0.0660865 0.0652432 0.0643342 0.0633593 0.0623187 0.0612123 0.0600401 0.0588021 0.0575172 0.056204 0.0548627 0.0534931 0.0520954 0.0506694 0.0492152 0.0477329 0.0462373 0.0447436 0.0432517 0.0417617 0.0402735 0.0387872 0.0373027 0.0358201 0.0343489 0.032899 0.0314703 0.0300628 0.0286766 0.0273115 0.0259677 0.024645 0.0233487 0.0220839 0.0208504 0.0196484 0.0184777 0.0173385 0.0162308 0.0151544 0.014112 0.0131061 0.0121366 0.0112035 0.0103069 0.00944683 0.00862316 0.00783596 0.00708694 0.00637784 0.00570866 0.0050794 0.00449005 0.00394063 0.00343113 0.00296154 0.00253093 0.00213835 0.0017838 0.00146728 0.0011888 0.00094834 0.000745914 0.000581519 0.000445225 0.000327104 0.000227156 0.00014538 8.17761e-05 3.63449e-05 9.08623e-06 0 0 7.33817e-05 0.000293527 0.000660436 0.00117411 0.00183454 0.00264174 0.00359571 0.00469643 0.00595245 0.00737231 0.00895599 0.0107035 0.0126149 0.01469 0.016929 0.0193319 0.0218375 0.0243848 0.0269737 0.0296043 0.0322767 0.0349906 0.0377463 0.0405437 0.0433266 0.0460391 0.0486811 0.0512525 0.0537535 0.0561841 0.0585441 0.0608336 0.0630229 0.065082 0.067011 0.0688099 0.0704788 0.0720175 0.0734261 0.0747046 0.0758476 0.0768497 0.0777108 0.0784311 0.0790104 0.0794488 0.0797463 0.0799029 0.0799306 0.0798413 0.079635 0.0793118 0.0788717 0.0783146 0.0776405 0.0768495 0.0759622 0.0749993 0.0739607 0.0728465 0.0716566 0.0703911 0.06905 0.0676332 0.0661623 0.0646587 0.0631225 0.0615536 0.0599521 0.0583179 0.0566511 0.0549516 0.0532368 0.0515237 0.0498125 0.0481032 0.0463956 0.0446899 0.042986 0.0412839 0.0395949 0.0379299 0.0362891 0.0346725 0.03308 0.0315116 0.0299674 0.0284473 0.0269572 0.0255031 0.024085 0.0227028 0.0213565 0.0200462 0.0187718 0.0175334 0.0163338 0.015176 0.0140598 0.0129854 0.0119528 0.0109619 0.0100127 0.00910521 0.00824141 0.0074232 0.00665058 0.00592356 0.00524212 0.00460626 0.004016 0.00347133 0.00297126 0.0025148 0.00210196 0.00173272 0.0014071 0.00112509 0.000886696 0.000691912 0.000529745 0.0003892 0.000270278 0.000172978 9.73001e-05 4.32445e-05 1.08111e-05 0 0 8.4463e-05 0.000337852 0.000760167 0.00135141 0.00211157 0.00304067 0.00413869 0.00540563 0.00684935 0.00847767 0.0102906 0.0122882 0.0144703 0.0168371 0.0193885 0.0221245 0.024976 0.0278738 0.030818 0.0338084 0.0368453 0.0399284 0.0430579 0.0462337 0.0493927 0.0524719 0.0554712 0.0583907 0.0612303 0.06399 0.0666699 0.0692699 0.0717563 0.0740953 0.076287 0.0783314 0.0802283 0.081978 0.0835802 0.0850352 0.0863365 0.087478 0.0884596 0.0892814 0.0899433 0.0904454 0.0907877 0.0909701 0.0910062 0.0909093 0.0906796 0.0903169 0.0898213 0.0891927 0.0884313 0.087537 0.0865331 0.085443 0.0842667 0.0830041 0.0816554 0.0802205 0.0786994 0.0770921 0.075423 0.0737164 0.0719724 0.0701909 0.068372 0.0665157 0.064622 0.0626908 0.0607417 0.0587945 0.056849 0.0549053 0.0529633 0.0510232 0.0490848 0.0471482 0.0452261 0.0433312 0.0414636 0.0396232 0.0378101 0.0360242 0.0342656 0.0325341 0.0308367 0.0291801 0.0275642 0.025989 0.0244547 0.0229611 0.0215082 0.0200961 0.0187281 0.0174074 0.0161341 0.0149081 0.0137295 0.0125982 0.0115143 0.0104778 0.00949073 0.00855529 0.00767146 0.00683925 0.00605866 0.00532968 0.00465232 0.00402658 0.00345143 0.00292585 0.00244985 0.00202342 0.00164656 0.00131927 0.00104156 0.00081342 0.000622775 0.000457549 0.000317742 0.000203355 0.000114387 5.08388e-05 1.27097e-05 0 0 9.61474e-05 0.00038459 0.000865327 0.00153836 0.00240369 0.00346131 0.00471122 0.00615343 0.00779486 0.00964244 0.0116962 0.013956 0.016422 0.0190942 0.0219725 0.025057 0.02827 0.031534 0.0348491 0.0382152 0.0416324 0.0451006 0.0486197 0.05219 0.0557409 0.0592022 0.0625738 0.0658559 0.0690482 0.072151 0.0751641 0.0780876 0.0808837 0.0835145 0.08598 0.0882802 0.0904151 0.0923848 0.0941892 0.0958284 0.0972951 0.0985823 0.09969 0.100618 0.101367 0.101936 0.102326 0.102536 0.102581 0.102477 0.102223 0.10182 0.101268 0.100565 0.0997135 0.0987122 0.0975874 0.0963654 0.0950462 0.0936297 0.0921159 0.0905049 0.0887967 0.0869912 0.0851158 0.083198 0.0812377 0.0792349 0.0771896 0.0751018 0.0729715 0.0707988 0.0686056 0.0664141 0.0642243 0.0620361 0.0598496 0.0576648 0.0554817 0.0533002 0.0511348 0.0489998 0.0468953 0.0448212 0.0427775 0.0407643 0.0387815 0.0368292 0.0349149 0.0330464 0.0312237 0.0294467 0.0277155 0.02603 0.0243904 0.0227964 0.021252 0.0197607 0.0183227 0.0169378 0.0156061 0.0143277 0.0131024 0.0119303 0.0108138 0.00975511 0.00875431 0.00781138 0.00692633 0.00609914 0.00532982 0.00461838 0.00396377 0.00336497 0.00282198 0.0023348 0.00190343 0.00152787 0.00120811 0.000944166 0.000722877 0.000531094 0.000368815 0.000236042 0.000132773 5.90104e-05 1.47526e-05 0 0 0.000108202 0.000432807 0.000973815 0.00173123 0.00270504 0.00389526 0.00530188 0.00692491 0.00877017 0.0108435 0.0131449 0.0156743 0.0184318 0.0214173 0.0246309 0.0280726 0.0316561 0.0352953 0.0389901 0.0427405 0.0465466 0.0504083 0.0543257 0.0582987 0.0622497 0.0661011 0.0698528 0.073505 0.0770575 0.0805104 0.0838636 0.0871172 0.0902293 0.0931579 0.0959029 0.0984645 0.100843 0.103037 0.105048 0.106876 0.108512 0.109948 0.111185 0.112222 0.11306 0.113698 0.114137 0.114376 0.114432 0.114321 0.114044 0.113601 0.112991 0.112214 0.111271 0.110161 0.108914 0.107558 0.106093 0.10452 0.102839 0.101049 0.0991501 0.0971428 0.0950574 0.0929244 0.0907436 0.0885151 0.0862389 0.0839151 0.0815435 0.0791242 0.0766819 0.074241 0.0718016 0.0693638 0.0669274 0.0644926 0.0620592 0.0596274 0.0572132 0.0548326 0.0524856 0.0501724 0.0478927 0.0456468 0.0434345 0.0412559 0.0391195 0.0370339 0.0349992 0.0330153 0.0310823 0.0292001 0.0273687 0.0255882 0.0238627 0.0221962 0.020589 0.0190408 0.0175518 0.0161219 0.0147511 0.0134394 0.0121895 0.0110037 0.00988217 0.00882486 0.00783177 0.0069029 0.00603825 0.00523782 0.00450061 0.00382562 0.00321285 0.0026623 0.00217396 0.00174785 0.00138395 0.00108227 0.000828616 0.000608779 0.000422763 0.000270568 0.000152195 6.76421e-05 1.69105e-05 0 0 0.000120626 0.000482504 0.00108563 0.00193001 0.00301565 0.00434253 0.00591067 0.00772006 0.00977525 0.0120808 0.0146367 0.0174429 0.0204995 0.0238065 0.0273638 0.0311715 0.0351344 0.0391575 0.0432408 0.0473842 0.0515879 0.0558517 0.0601757 0.0645598 0.0689192 0.0731686 0.0773083 0.081338 0.085258 0.0890681 0.0927683 0.0963587 0.0997931 0.103026 0.106056 0.108884 0.111511 0.113935 0.116157 0.118177 0.119986 0.121576 0.122945 0.124094 0.125023 0.125733 0.126222 0.126492 0.126559 0.126443 0.126142 0.125658 0.12499 0.124139 0.123103 0.121883 0.120512 0.11902 0.117408 0.115676 0.113824 0.111852 0.10976 0.107547 0.105248 0.102896 0.10049 0.0980317 0.0955202 0.0929556 0.0903379 0.0876672 0.0849705 0.0822751 0.079581 0.0768882 0.0741967 0.0715064 0.0688174 0.0661297 0.0634611 0.0608294 0.0582346 0.0556767 0.0531558 0.0506717 0.0482245 0.0458142 0.0434504 0.0411426 0.0388908 0.0366949 0.0345551 0.0324712 0.0304433 0.0284714 0.0265601 0.024714 0.0229329 0.0212171 0.0195664 0.0179808 0.0164604 0.0150051 0.0136178 0.0123011 0.011055 0.00987967 0.00877498 0.00774096 0.0067776 0.00588491 0.00506196 0.0043078 0.00362245 0.00300591 0.00245816 0.00197922 0.00156908 0.00122774 0.00093999 0.000690605 0.000479587 0.000306936 0.000172651 7.67339e-05 1.91835e-05 0 0 0.00013342 0.00053368 0.00120078 0.00213472 0.0033355 0.00480312 0.00653758 0.00853888 0.0108101 0.0133544 0.0161717 0.019262 0.0226253 0.0262617 0.0301711 0.0343535 0.0387048 0.0431207 0.0476012 0.0521464 0.0567562 0.0614306 0.0661697 0.0709734 0.0757493 0.0804048 0.0849401 0.0893551 0.0936498 0.0978241 0.101878 0.105812 0.109575 0.113117 0.116439 0.119539 0.122419 0.125078 0.127516 0.129733 0.131719 0.133464 0.134969 0.136233 0.137257 0.138039 0.138581 0.138882 0.138962 0.138841 0.138518 0.137993 0.137267 0.136339 0.13521 0.133879 0.132382 0.130752 0.128991 0.127098 0.125072 0.122915 0.120625 0.118204 0.115687 0.113111 0.110477 0.107785 0.105033 0.102223 0.0993548 0.0964276 0.0934716 0.0905165 0.0875625 0.0846094 0.0816574 0.0787063 0.0757563 0.0728072 0.0698787 0.0669904 0.0641423 0.0613343 0.0585666 0.055839 0.0531516 0.0505043 0.0479078 0.0453725 0.0428984 0.0404855 0.0381338 0.0358434 0.0336142 0.0314462 0.0293444 0.0273139 0.0253546 0.0234667 0.0216499 0.0199045 0.0182303 0.0166274 0.0150987 0.0136472 0.0122729 0.0109758 0.00975597 0.00861332 0.00754788 0.00655965 0.0056478 0.00481152 0.00405079 0.00336563 0.00275602 0.00222198 0.00176349 0.00138057 0.001057 0.000776571 0.000539286 0.000345143 0.000194143 8.62857e-05 2.15714e-05 0 0 0.000146584 0.000586336 0.00131926 0.00234534 0.0036646 0.00527702 0.00718261 0.00938137 0.0118748 0.0146642 0.0177498 0.0211314 0.0248092 0.028783 0.0330529 0.0376189 0.0423674 0.0471849 0.0520715 0.057027 0.0620516 0.0671452 0.0723078 0.0775394 0.08274 0.0878097 0.0927484 0.0975561 0.102233 0.106779 0.111193 0.115477 0.119575 0.123434 0.127052 0.13043 0.133568 0.136466 0.139124 0.141542 0.14371 0.145615 0.147258 0.14864 0.14976 0.150617 0.151213 0.151548 0.151641 0.151515 0.15117 0.150605 0.14982 0.148816 0.147592 0.146149 0.144524 0.142755 0.140841 0.138784 0.136582 0.134237 0.131747 0.129113 0.126375 0.123572 0.120705 0.117774 0.114778 0.111718 0.108594 0.105405 0.102185 0.0989652 0.095746 0.0925275 0.0893096 0.0860923 0.0828757 0.0796598 0.0764659 0.0733155 0.0702086 0.0671451 0.0641251 0.0611486 0.0582156 0.0553261 0.0524915 0.0497235 0.047022 0.044387 0.0418186 0.0393166 0.0368812 0.0345123 0.0322154 0.029996 0.027854 0.0257895 0.0238025 0.0218929 0.0200608 0.0183062 0.0166322 0.0150421 0.0135358 0.0121133 0.0107747 0.00951998 0.00834909 0.00726203 0.00625815 0.00533676 0.00449787 0.00374146 0.00306755 0.00247613 0.0019672 0.00154076 0.00117965 0.000866678 0.00060186 0.00038519 0.00021667 9.62976e-05 2.40744e-05 0 0 0.000160118 0.000640471 0.00144106 0.00256188 0.00400294 0.00576424 0.00784577 0.0102475 0.0129692 0.0160104 0.0193711 0.0230513 0.027051 0.0313703 0.0360091 0.0409674 0.0461221 0.0513502 0.0566515 0.0620262 0.0674741 0.0729954 0.07859 0.0842578 0.0898914 0.0953832 0.100733 0.105941 0.111007 0.115931 0.120714 0.125354 0.129794 0.133974 0.137895 0.141556 0.144958 0.1481 0.150983 0.153606 0.155958 0.158027 0.159812 0.161314 0.162532 0.163468 0.16412 0.164488 0.164596 0.164467 0.164099 0.163493 0.16265 0.161569 0.160249 0.158692 0.156938 0.155027 0.15296 0.150736 0.148355 0.145818 0.143125 0.140275 0.137311 0.134278 0.131174 0.128 0.124755 0.121441 0.118056 0.114601 0.111111 0.107621 0.104132 0.100642 0.0971532 0.0936644 0.0901759 0.0866875 0.0832227 0.0798047 0.0764335 0.0731091 0.0698315 0.0666007 0.0634167 0.0602795 0.0572017 0.0541957 0.0512617 0.0483995 0.0456093 0.0428909 0.0402445 0.03767 0.0351733 0.0327603 0.0304311 0.0281857 0.026024 0.0239461 0.021952 0.0200416 0.0182183 0.0164857 0.0148436 0.0132922 0.0118313 0.0104609 0.00918122 0.00799207 0.006893 0.00588354 0.00496368 0.00413341 0.00339274 0.00274166 0.00218019 0.00170831 0.00130793 0.000960926 0.00066731 0.000427078 0.000240232 0.00010677 2.66924e-05 0 0