<?xml version="1.0"?> 
<VTKFile type="StructuredGrid" version="0.1"> 
<StructuredGrid WholeExtent="0 128 0 128 0 0"> 
<Piece Extent="0 128 0 128 0 0"> 
<PointData>
<DataArray type="Float32" Name="u" format="ascii" NumberOfComponents="1"> 
0 0 0 0 0 0 0 0 0 0 0 0 0 0 0 0 0 0 0 0 0 0 0 0 0 0 0 0 0 0 0 0 0 0 0 0 0 0 0 0 0 0 0 0 0 0 0 0 0 0 0 0 0 0 0 0 0 0 0 0 0 0 0 0 0 0 0 0 0 0 0 0 0 0 0 0 0 0 0 0 0 0 0 0 0 0 0 0 0 0 0 0 0 0 0 0 0 0 0 0 0 0 0 0 0 0 0 0 0 0 0 0 0 0 0 0 0 0 0 0 0 0 0 0 0 0 0 0 0 0 2.47847e-07 9.91389e-07 2.23063e-06 3.96556e-06 6.19618e-06 8.9225e-06 1.21445e-05 1.58622e-05 2.01474e-05 2.50718e-05 3.06354e-05 3.68383e-05 4.36804e-05 5.11617e-05 5.92822e-05 6.8042e-05 7.72097e-05 8.65539e-05 9.60746e-05 0.000105772 0.000115646 0.000125696 0.000135923 0.000146327 0.000156688 0.000166787 0.000176625 0.000186201 0.000195516 0.000204569 0.000213361 0.000221891 0.000230049 0.000237728 0.000244925 0.000251642 0.000257878 0.000263633 0.000268908 0.000273702 0.000278 0.000281786 0.000285061 0.000287824 0.000290075 0.000291814 0.000293042 0.000293758 0.000294009 0.000293842 0.000293256 0.000292251 0.000290828 0.000288986 0.000286726 0.000284047 0.000281023 0.000277729 0.000274165 0.00027033 0.000266225 0.000261849 0.000257203 0.000252286 0.000247173 0.000241935 0.000236574 0.000231089 0.000225481 0.000219749 0.000213893 0.000207914 0.000201868 0.000195811 0.000189745 0.000183668 0.000177581 0.000171484 0.000165377 0.000159259 0.000153168 0.000147141 0.000141176 0.000135274 0.000129436 0.00012366 0.000117948 0.000112299 0.000106735 0.000101278 9.59289e-05 9.06868e-05 8.55521e-05 8.05246e-05 7.56045e-05 7.07917e-05 6.61033e-05 6.15565e-05 5.71514e-05 5.28879e-05 4.8766e-05 4.47858e-05 4.09471e-05 3.72502e-05 3.37143e-05 3.03592e-05 2.71848e-05 2.4191e-05 2.1378e-05 1.87457e-05 1.62941e-05 1.40232e-05 1.19375e-05 1.00416e-05 8.3354e-06 6.81894e-06 5.49222e-06 4.35524e-06 3.40801e-06 2.65051e-06 2.0293e-06 1.49091e-06 1.03536e-06 6.62627e-07 3.72728e-07 1.65657e-07 4.14142e-08 0 0 9.91389e-07 3.96556e-06 8.9225e-06 1.58622e-05 2.47847e-05 3.569e-05 4.85781e-05 6.34489e-05 8.05896e-05 0.000100287 0.000122542 0.000147353 0.000174722 0.000204647 0.000237129 0.000272168 0.000308839 0.000346216 0.000384299 0.000423088 0.000462583 0.000502785 0.000543693 0.000585306 0.00062675 0.000667148 0.000706499 0.000744804 0.000782063 0.000818276 0.000853442 0.000887562 0.000920198 0.00095091 0.0009797 0.00100657 0.00103151 0.00105453 0.00107563 0.00109481 0.001112 0.00112714 0.00114024 0.00115129 0.0011603 0.00116726 0.00117217 0.00117503 0.00117604 0.00117537 0.00117302 0.001169 0.00116331 0.00115594 0.0011469 0.00113619 0.00112409 0.00111092 0.00109666 0.00108132 0.0010649 0.0010474 0.00102881 0.00100915 0.00098869 0.000967741 0.000946297 0.000924358 0.000901924 0.000878996 0.000855573 0.000831656 0.000807471 0.000783245 0.000758979 0.000734672 0.000710324 0.000685936 0.000661507 0.000637037 0.000612674 0.000588562 0.000564703 0.000541097 0.000517743 0.000494641 0.000471792 0.000449196 0.00042694 0.000405113 0.000383716 0.000362747 0.000342208 0.000322099 0.000302418 0.000283167 0.000264413 0.000246226 0.000228606 0.000211552 0.000195064 0.000179143 0.000163789 0.000149001 0.000134857 0.000121437 0.000108739 9.67642e-05 8.55121e-05 7.49829e-05 6.51765e-05 5.60929e-05 4.77501e-05 4.01664e-05 3.33416e-05 2.72758e-05 2.19689e-05 1.7421e-05 1.3632e-05 1.0602e-05 8.11718e-06 5.96365e-06 4.14142e-06 2.65051e-06 1.49091e-06 6.62627e-07 1.65657e-07 0 0 2.23063e-06 8.9225e-06 2.00756e-05 3.569e-05 5.57656e-05 8.03025e-05 0.000109301 0.00014276 0.000181327 0.000225646 0.000275719 0.000331545 0.000393123 0.000460455 0.00053354 0.000612378 0.000694887 0.000778985 0.000864672 0.000951948 0.00104081 0.00113127 0.00122331 0.00131694 0.00141019 0.00150108 0.00158962 0.00167581 0.00175964 0.00184112 0.00192024 0.00199701 0.00207044 0.00213955 0.00220433 0.00226478 0.0023209 0.0023727 0.00242017 0.00246332 0.002502 0.00253608 0.00256555 0.00259041 0.00261067 0.00262633 0.00263738 0.00264382 0.00264608 0.00264457 0.0026393 0.00263026 0.00261745 0.00260087 0.00258053 0.00255642 0.00252921 0.00249956 0.00246749 0.00243297 0.00239602 0.00235664 0.00231483 0.00227058 0.00222455 0.00217742 0.00212917 0.0020798 0.00202933 0.00197774 0.00192504 0.00187123 0.00181681 0.0017623 0.0017077 0.00165301 0.00159823 0.00154336 0.00148839 0.00143333 0.00137852 0.00132427 0.00127058 0.00121747 0.00116492 0.00111294 0.00106153 0.00101069 0.000960614 0.000911504 0.00086336 0.000816182 0.000769969 0.000724722 0.000680441 0.000637125 0.00059493 0.000554009 0.000514363 0.000475991 0.000438894 0.000403072 0.000368524 0.000335251 0.000303429 0.000273233 0.000244663 0.000217719 0.000192402 0.000168711 0.000146647 0.000126209 0.000107438 9.03744e-05 7.50186e-05 6.13705e-05 4.943e-05 3.91972e-05 3.06721e-05 2.38546e-05 1.82637e-05 1.34182e-05 9.3182e-06 5.96365e-06 3.35455e-06 1.49091e-06 3.72728e-07 0 0 3.96556e-06 1.58622e-05 3.569e-05 6.34489e-05 9.91389e-05 0.00014276 0.000194312 0.000253796 0.000322358 0.000401149 0.000490167 0.000589413 0.000698886 0.000818587 0.000948516 0.00108867 0.00123535 0.00138486 0.00153719 0.00169235 0.00185033 0.00201114 0.00217477 0.00234123 0.002507 0.00266859 0.002826 0.00297922 0.00312825 0.0032731 0.00341377 0.00355025 0.00368079 0.00380364 0.0039188 0.00402627 0.00412605 0.00421814 0.00430253 0.00437924 0.004448 0.00450858 0.00456097 0.00460518 0.0046412 0.00466903 0.00468867 0.00470013 0.00470415 0.00470147 0.00469209 0.00467601 0.00465324 0.00462377 0.00458761 0.00454475 0.00449637 0.00444367 0.00438664 0.00432528 0.0042596 0.00418959 0.00411525 0.00403658 0.00395476 0.00387096 0.00378519 0.00369743 0.0036077 0.00351598 0.00342229 0.00332662 0.00322988 0.00313298 0.00303592 0.00293869 0.0028413 0.00274374 0.00264603 0.00254815 0.00245069 0.00235425 0.00225881 0.00216439 0.00207097 0.00197857 0.00188717 0.00179678 0.00170776 0.00162045 0.00153486 0.00145099 0.00136883 0.00128839 0.00120967 0.00113267 0.00105765 0.000984904 0.000914422 0.000846206 0.000780256 0.000716572 0.000655154 0.000596002 0.000539429 0.000485747 0.000434956 0.000387057 0.000342048 0.000299932 0.000260706 0.000224371 0.000191001 0.000160666 0.000133366 0.000109103 8.78756e-05 6.96839e-05 5.45281e-05 4.24081e-05 3.24687e-05 2.38546e-05 1.65657e-05 1.0602e-05 5.96365e-06 2.65051e-06 6.62627e-07 0 0 6.19618e-06 2.47847e-05 5.57656e-05 9.91389e-05 0.000154905 0.000223063 0.000303613 0.000396556 0.000503685 0.000626795 0.000765886 0.000920957 0.00109201 0.00127904 0.00148206 0.00170105 0.00193024 0.00216385 0.00240187 0.0026443 0.00289114 0.0031424 0.00339808 0.00365817 0.00391719 0.00416967 0.00441562 0.00465503 0.0048879 0.00511422 0.00533401 0.00554726 0.00575124 0.00594319 0.00612313 0.00629105 0.00644695 0.00659084 0.0067227 0.00684255 0.00695 0.00704466 0.00712652 0.00719559 0.00725187 0.00729536 0.00732605 0.00734395 0.00735023 0.00734604 0.00733139 0.00730627 0.00727069 0.00722465 0.00716814 0.00710117 0.00702558 0.00694324 0.00685413 0.00675826 0.00665562 0.00654623 0.00643008 0.00630716 0.00617931 0.00604838 0.00591435 0.00577724 0.00563703 0.00549373 0.00534733 0.00519785 0.00504669 0.00489528 0.00474362 0.0045917 0.00443953 0.0042871 0.00413442 0.00398148 0.00382921 0.00367851 0.0035294 0.00338186 0.00323589 0.00309151 0.0029487 0.00280747 0.00266837 0.00253196 0.00239822 0.00226717 0.0021388 0.00201312 0.00189011 0.00176979 0.00165258 0.00153891 0.00142879 0.0013222 0.00121915 0.00111964 0.00102368 0.000931254 0.000842858 0.00075898 0.000679619 0.000604776 0.000534451 0.000468643 0.000407353 0.00035058 0.000298438 0.00025104 0.000208385 0.000170473 0.000137306 0.000108881 8.52002e-05 6.62627e-05 5.07324e-05 3.72728e-05 2.58839e-05 1.65657e-05 9.3182e-06 4.14142e-06 1.03536e-06 0 0 8.9225e-06 3.569e-05 8.03025e-05 0.00014276 0.000223063 0.00032121 0.000437203 0.00057104 0.000725306 0.000902585 0.00110288 0.00132618 0.00157249 0.00184182 0.00213416 0.00244951 0.00277955 0.00311594 0.00345869 0.00380779 0.00416325 0.00452506 0.00489323 0.00526776 0.00564075 0.00600433 0.00635849 0.00670324 0.00703857 0.00736448 0.00768098 0.00798806 0.00828178 0.00855819 0.0088173 0.00905911 0.00928361 0.0094908 0.00968069 0.00985328 0.010008 0.0101443 0.0102622 0.0103616 0.0104427 0.0105053 0.0105495 0.0105753 0.0105843 0.0105783 0.0105572 0.010521 0.0104698 0.0104035 0.0103221 0.0102257 0.0101168 0.00999826 0.00986994 0.00973189 0.0095841 0.00942657 0.00925931 0.00908231 0.00889821 0.00870967 0.00851667 0.00831922 0.00811732 0.00791097 0.00770016 0.0074849 0.00726724 0.00704921 0.00683081 0.00661205 0.00639292 0.00617343 0.00595356 0.00573334 0.00551406 0.00529706 0.00508233 0.00486987 0.00465969 0.00445177 0.00424613 0.00404276 0.00384246 0.00364602 0.00345344 0.00326473 0.00307988 0.00289889 0.00272176 0.0025485 0.00237972 0.00221603 0.00205745 0.00190396 0.00175558 0.00161229 0.0014741 0.00134101 0.00121372 0.00109293 0.000978652 0.000870878 0.000769609 0.000674846 0.000586588 0.000504836 0.000429751 0.000361497 0.000300074 0.000245482 0.00019772 0.000156789 0.000122688 9.54183e-05 7.30547e-05 5.36728e-05 3.72728e-05 2.38546e-05 1.34182e-05 5.96365e-06 1.49091e-06 0 0 1.21445e-05 4.85781e-05 0.000109301 0.000194312 0.000303613 0.000437203 0.000595081 0.000777249 0.000987223 0.00122852 0.00150114 0.00180508 0.00214034 0.00250692 0.00290483 0.00333406 0.00378327 0.00424114 0.00470766 0.00518283 0.00566664 0.00615911 0.00666023 0.00717 0.00767769 0.00817256 0.00865462 0.00912385 0.00958028 0.0100239 0.0104547 0.0108726 0.0112724 0.0116487 0.0120013 0.0123305 0.012636 0.012918 0.0131765 0.0134114 0.013622 0.0138075 0.013968 0.0141034 0.0142137 0.0142989 0.0143591 0.0143942 0.0144065 0.0143982 0.0143695 0.0143203 0.0142506 0.0141603 0.0140496 0.0139183 0.0137701 0.0136087 0.0134341 0.0132462 0.013045 0.0128306 0.0126029 0.012362 0.0121115 0.0118548 0.0115921 0.0113234 0.0110486 0.0107677 0.0104808 0.0101878 0.00989152 0.00959476 0.00929749 0.00899973 0.00870147 0.00840272 0.00810346 0.00780371 0.00750525 0.00720989 0.00691762 0.00662844 0.00634235 0.00605936 0.00577945 0.00550265 0.00523001 0.00496263 0.00470052 0.00444366 0.00419205 0.00394571 0.00370462 0.00346879 0.00323906 0.00301627 0.00280042 0.00259151 0.00238954 0.0021945 0.00200641 0.00182526 0.001652 0.0014876 0.00133205 0.00118536 0.00104752 0.00091854 0.000798412 0.000687137 0.000584939 0.000492038 0.000408435 0.000334128 0.000269119 0.000213407 0.000166992 0.000129875 9.94355e-05 7.30547e-05 5.07324e-05 3.24687e-05 1.82637e-05 8.11718e-06 2.0293e-06 0 0 1.58622e-05 6.34489e-05 0.00014276 0.000253796 0.000396556 0.00057104 0.000777249 0.00101518 0.00128943 0.0016046 0.00196067 0.00235765 0.00279554 0.00327435 0.00379406 0.00435469 0.00494142 0.00553945 0.00614878 0.0067694 0.00740133 0.00804456 0.00869908 0.0093649 0.010028 0.0106744 0.011304 0.0119169 0.012513 0.0130924 0.0136551 0.014201 0.0147232 0.0152146 0.0156752 0.0161051 0.0165042 0.0168725 0.0172101 0.0175169 0.017792 0.0180343 0.0182439 0.0184207 0.0185648 0.0186761 0.0187547 0.0188005 0.0188166 0.0188059 0.0187684 0.0187041 0.018613 0.0184951 0.0183504 0.018179 0.0179855 0.0177747 0.0175466 0.0173011 0.0170384 0.0167584 0.016461 0.0161463 0.015819 0.0154839 0.0151407 0.0147897 0.0144308 0.0140639 0.0136892 0.0133065 0.0129195 0.0125319 0.0121437 0.0117548 0.0113652 0.010975 0.0105841 0.0101926 0.00980278 0.009417 0.00903525 0.00865755 0.00828389 0.00791426 0.00754868 0.00718713 0.00683103 0.00648181 0.00613945 0.00580396 0.00547533 0.00515358 0.00483869 0.00453067 0.00423061 0.00393962 0.00365769 0.00338483 0.00312103 0.00286629 0.00262062 0.00238401 0.00215772 0.00194299 0.00173982 0.00154823 0.00136819 0.00119973 0.00104282 0.000897486 0.000764002 0.000642662 0.000533465 0.000436412 0.000351502 0.000278736 0.000218112 0.000169633 0.000129875 9.54183e-05 6.62627e-05 4.24081e-05 2.38546e-05 1.0602e-05 2.65051e-06 0 0 2.01741e-05 8.06966e-05 0.000181567 0.000322786 0.000504353 0.000726269 0.000988533 0.00129114 0.00163973 0.00203992 0.0024917 0.00299509 0.00355008 0.00415667 0.00481485 0.00552464 0.00626732 0.0070242 0.00779527 0.00858053 0.00937998 0.0101936 0.0110215 0.0118635 0.012702 0.0135194 0.0143157 0.0150908 0.0158447 0.0165775 0.0172891 0.0179796 0.0186401 0.0192617 0.0198444 0.0203883 0.0208933 0.0213594 0.0217866 0.022175 0.0225233 0.0228301 0.0230956 0.0233196 0.0235023 0.0236435 0.0237434 0.0238018 0.0238226 0.0238095 0.0237626 0.0236817 0.0235669 0.0234183 0.0232357 0.0230193 0.0227749 0.0225087 0.0222205 0.0219103 0.0215783 0.0212243 0.0208484 0.0204506 0.0200368 0.0196129 0.019179 0.0187351 0.0182811 0.017817 0.0173429 0.0168588 0.0163692 0.0158788 0.0153875 0.0148953 0.0144024 0.0139085 0.0134138 0.0129183 0.0124248 0.0119365 0.0114532 0.0109751 0.010502 0.010034 0.00957117 0.00911338 0.00866249 0.00822027 0.00778674 0.00736188 0.00694571 0.00653822 0.00613941 0.00574929 0.00536923 0.00500063 0.0046435 0.00429782 0.00396361 0.00364085 0.00332956 0.00302972 0.00274292 0.00247072 0.00221313 0.00197015 0.00174177 0.001528 0.00132883 0.00114427 0.000974692 0.00082047 0.000681604 0.000558095 0.000449942 0.000357145 0.000279705 0.000217622 0.000166617 0.000122412 8.50085e-05 5.44054e-05 3.0603e-05 1.36014e-05 3.40034e-06 0 0 2.51787e-05 0.000100715 0.000226609 0.00040286 0.000629469 0.000906435 0.00123376 0.00161144 0.00204591 0.00254359 0.00310448 0.00372859 0.00441591 0.00516644 0.00598019 0.00685715 0.00777433 0.00870873 0.00966035 0.0106292 0.0116153 0.0126185 0.0136391 0.0146768 0.0157101 0.0167174 0.0176987 0.018654 0.0195833 0.0204865 0.0213637 0.0222149 0.0230292 0.0237957 0.0245144 0.0251852 0.0258083 0.0263836 0.0269111 0.0273907 0.027821 0.0282003 0.0285286 0.028806 0.0290323 0.0292077 0.029332 0.0294054 0.0294324 0.0294176 0.029361 0.0292625 0.0291223 0.0289402 0.0287163 0.0284506 0.0281505 0.0278232 0.0274688 0.0270873 0.0266787 0.026243 0.0257801 0.0252902 0.0247804 0.0242582 0.0237234 0.0231762 0.0226165 0.0220443 0.0214596 0.0208625 0.0202585 0.0196534 0.0190471 0.0184398 0.0178312 0.0172216 0.0166108 0.0159989 0.0153896 0.0147864 0.0141895 0.0135989 0.0130144 0.0124363 0.0118643 0.0112986 0.0107413 0.0101947 0.00965887 0.00913368 0.00861918 0.00811536 0.00762224 0.00713981 0.00666979 0.00621388 0.00577208 0.0053444 0.00493084 0.00453139 0.00414606 0.00377485 0.00341966 0.00308242 0.00276313 0.00246179 0.00217839 0.00191294 0.00166544 0.00143588 0.00122476 0.00103256 0.000859286 0.000704936 0.000569509 0.000453006 0.000355428 0.000276773 0.000211904 0.000155685 0.000108114 6.91931e-05 3.89211e-05 1.72983e-05 4.32457e-06 0 0 3.08761e-05 0.000123504 0.000277885 0.000494017 0.000771902 0.00111154 0.00151293 0.00197607 0.00250796 0.0031156 0.003799 0.00455814 0.00539303 0.00630367 0.00729007 0.00835221 0.00946243 0.010593 0.011744 0.0129154 0.0141072 0.0153193 0.0165519 0.0178048 0.0190523 0.0202684 0.0214532 0.0226066 0.0237287 0.0248195 0.0258789 0.0269069 0.0278906 0.0288166 0.0296851 0.0304961 0.0312494 0.0319452 0.0325835 0.0331642 0.0336853 0.034145 0.0345431 0.0348797 0.0351549 0.0353686 0.0355207 0.0356114 0.035646 0.0356301 0.0355636 0.0354466 0.035279 0.0350609 0.0347923 0.0344731 0.0341122 0.0337184 0.0332917 0.0328322 0.0323397 0.0318144 0.0312562 0.0306651 0.03005 0.0294196 0.028774 0.0281132 0.0274371 0.0267458 0.0260393 0.0253175 0.0245874 0.0238557 0.0231226 0.022388 0.0216519 0.0209143 0.0201752 0.0194346 0.018697 0.0179668 0.0172442 0.0165289 0.0158212 0.0151209 0.0144281 0.0137427 0.0130675 0.0124052 0.0117558 0.0111193 0.0104957 0.00988501 0.00928718 0.00870225 0.00813228 0.00757934 0.00704344 0.00652456 0.00602272 0.00553791 0.00507013 0.00461939 0.00418795 0.0037781 0.00338984 0.00302316 0.00267807 0.00235457 0.00205265 0.00177232 0.0015142 0.00127894 0.00106651 0.000876936 0.000710205 0.000566319 0.000445279 0.000347085 0.000265737 0.000195235 0.00013558 8.67713e-05 4.88089e-05 2.16928e-05 5.42321e-06 0 0 3.72661e-05 0.000149064 0.000335395 0.000596257 0.000931652 0.00134158 0.00182604 0.00238503 0.00302589 0.00375597 0.00457525 0.00548375 0.00648145 0.00756837 0.0087445 0.0100098 0.0113316 0.0126771 0.0140463 0.0154391 0.0168557 0.018296 0.0197599 0.0212475 0.0227285 0.0241723 0.025579 0.0269485 0.028281 0.0295763 0.0308346 0.0320557 0.0332242 0.0343245 0.0353566 0.0363207 0.0372165 0.0380443 0.0388038 0.0394952 0.0401161 0.040664 0.041139 0.041541 0.0418701 0.0421262 0.0423094 0.0424196 0.0424633 0.0424469 0.0423704 0.0422339 0.0420372 0.0417804 0.0414636 0.0410866 0.04066 0.0401941 0.0396891 0.0391448 0.0385613 0.0379386 0.0372766 0.0365755 0.0358455 0.0350973 0.0343308 0.033546 0.0327429 0.0319215 0.0310819 0.0302239 0.0293558 0.0284858 0.0276139 0.02674 0.0258642 0.0249865 0.0241068 0.0232252 0.0223471 0.0214777 0.0206171 0.0197653 0.0189223 0.018088 0.0172625 0.0164458 0.0156411 0.0148518 0.0140777 0.0133189 0.0125754 0.0118471 0.0111342 0.0104366 0.00975671 0.00909703 0.00845756 0.0078383 0.00723925 0.00666041 0.00610177 0.00556334 0.00504778 0.00455775 0.00409324 0.00365425 0.0032408 0.00285287 0.00249046 0.00215358 0.00184303 0.00155959 0.00130328 0.0010741 0.000872028 0.000697083 0.000549261 0.00042856 0.000328116 0.000241065 0.000167406 0.00010714 6.02662e-05 2.6785e-05 6.69624e-06 0 0 4.43488e-05 0.000177395 0.000399139 0.000709581 0.00110872 0.00159656 0.00217309 0.00283832 0.0035997 0.00446468 0.00543324 0.00650541 0.00768117 0.00896052 0.0103435 0.01183 0.0133819 0.014961 0.0165671 0.0182004 0.0198609 0.0215484 0.0232632 0.025005 0.0267387 0.0284291 0.0300761 0.0316798 0.0332402 0.0347572 0.0362308 0.0376611 0.03903 0.0403192 0.041529 0.0426591 0.0437097 0.0446807 0.0455721 0.046384 0.0471134 0.0477575 0.0483162 0.0487897 0.0491778 0.0494806 0.049698 0.0498302 0.0498844 0.0498682 0.0497815 0.0496244 0.0493968 0.0490987 0.0487302 0.0482912 0.0477939 0.0472505 0.046661 0.0460253 0.0453434 0.0446155 0.0438414 0.0430211 0.042167 0.0412912 0.0403937 0.0394746 0.0385339 0.0375714 0.0365874 0.0355816 0.0345638 0.0335436 0.0325209 0.0314958 0.0304683 0.0294383 0.0284058 0.0273709 0.0263399 0.0253191 0.0243084 0.0233079 0.0223176 0.0213375 0.0203676 0.0194078 0.0184621 0.0175343 0.0166243 0.0157323 0.0148581 0.0140018 0.0131634 0.0123428 0.0115431 0.0107669 0.0100145 0.00928563 0.00858043 0.00789888 0.00724098 0.00660671 0.00599916 0.00542136 0.00487334 0.00435507 0.00386657 0.00340784 0.00297887 0.00257967 0.00221123 0.00187454 0.0015696 0.00129641 0.00105498 0.000845299 0.000667371 0.000521196 0.000399041 0.000293173 0.000203592 0.000130299 7.32932e-05 3.25747e-05 8.14369e-06 0 0 5.21242e-05 0.000208497 0.000469118 0.000833988 0.00130311 0.00187647 0.00255409 0.00333595 0.00422939 0.00524173 0.00637298 0.00762313 0.00899218 0.0104801 0.012087 0.0138127 0.0156133 0.0174446 0.0193066 0.0211993 0.0231227 0.0250768 0.0270616 0.0290772 0.031083 0.0330389 0.0349447 0.0368005 0.0386062 0.0403619 0.0420676 0.0437233 0.045308 0.0468009 0.048202 0.0495113 0.0507288 0.0518545 0.0528883 0.0538304 0.0546772 0.0554254 0.0560749 0.0566258 0.0570781 0.0574317 0.0576867 0.0578431 0.0579093 0.0578939 0.0577968 0.0576181 0.0573577 0.0570158 0.0565921 0.0560869 0.055514 0.0548875 0.0542073 0.0534735 0.0526861 0.0518451 0.0509504 0.0500021 0.0490144 0.0480013 0.0469628 0.0458991 0.04481 0.0436956 0.0425558 0.0413907 0.0402115 0.0390292 0.0378439 0.0366555 0.0354641 0.0342696 0.0330721 0.0318716 0.0306754 0.0294909 0.028318 0.0271568 0.0260073 0.0248695 0.0237433 0.0226288 0.0215305 0.0204528 0.0193959 0.0183595 0.0173439 0.0163489 0.0153746 0.014421 0.0134914 0.0125891 0.0117141 0.0108665 0.0100463 0.00925334 0.00848775 0.0077495 0.00704208 0.00636895 0.00573013 0.00512562 0.0045554 0.0040195 0.00351789 0.00305059 0.00261881 0.00222376 0.00186546 0.00154389 0.00125906 0.00101097 0.000799611 0.000624994 0.000478511 0.000351559 0.000244138 0.000156249 8.78898e-05 3.90621e-05 9.76553e-06 0 0 6.05924e-05 0.000242369 0.000545331 0.000969478 0.00151481 0.00218133 0.00296903 0.00387791 0.00491496 0.00608714 0.00739445 0.0088369 0.0104145 0.0121272 0.0139751 0.015958 0.0180258 0.020128 0.0222646 0.0244356 0.0266411 0.028881 0.0311553 0.033464 0.0357614 0.0380016 0.0401846 0.0423105 0.0443791 0.0463906 0.048345 0.0502422 0.0520583 0.0537695 0.0553759 0.0568774 0.058274 0.0595657 0.0607525 0.0618345 0.0628075 0.0636677 0.064415 0.0650494 0.0655709 0.0659796 0.0662754 0.0664583 0.0665379 0.0665239 0.0664163 0.066215 0.0659201 0.0655316 0.0650494 0.0644736 0.0638202 0.063105 0.0623282 0.0614896 0.0605894 0.0596274 0.0586038 0.0575185 0.0563877 0.0552275 0.0540381 0.0528193 0.0515713 0.0502939 0.0489872 0.0476512 0.0462987 0.0449425 0.0435826 0.0422189 0.0408516 0.0394805 0.0381058 0.0367273 0.0353536 0.0339931 0.0326459 0.031312 0.0299913 0.0286838 0.0273896 0.0261087 0.0248462 0.0236074 0.0223922 0.0212007 0.0200328 0.0188886 0.017768 0.0166711 0.0156016 0.0145635 0.0135566 0.012581 0.0116367 0.0107238 0.00984209 0.0089917 0.00817654 0.00740051 0.00666363 0.00596589 0.00530728 0.00468783 0.00410751 0.00356633 0.00306576 0.00260727 0.00219086 0.00181653 0.00148427 0.00119409 0.000945981 0.000739954 0.000566527 0.000416224 0.000289045 0.000184989 0.000104056 4.62471e-05 1.15618e-05 0 0 6.97532e-05 0.000279013 0.000627779 0.00111605 0.00174383 0.00251112 0.00341791 0.0044642 0.0056564 0.00700089 0.00849766 0.0101467 0.0119481 0.0139017 0.0160077 0.0182659 0.0206194 0.0230112 0.0254412 0.0279096 0.0304162 0.0329611 0.0355442 0.0381656 0.0407738 0.0433172 0.0457959 0.0482098 0.0505589 0.0528433 0.0550629 0.0572177 0.0592808 0.0612251 0.0630506 0.0647573 0.0663452 0.0678143 0.0691646 0.0703962 0.0715043 0.0724844 0.0733364 0.0740604 0.0746563 0.0751242 0.075464 0.0756758 0.0757703 0.0757584 0.07564 0.0754152 0.0750839 0.0746462 0.0741021 0.0734515 0.0727125 0.0719032 0.0710235 0.0700735 0.0690532 0.0679625 0.0668015 0.0655702 0.0642869 0.06297 0.0616195 0.0602354 0.0588177 0.0573664 0.0558815 0.054363 0.0528255 0.0512836 0.0497371 0.0481862 0.0466308 0.045071 0.0435067 0.041938 0.0403745 0.0388259 0.0372922 0.0357734 0.0342696 0.0327807 0.0313067 0.0298476 0.0284094 0.026998 0.0256134 0.0242557 0.0229248 0.0216207 0.0203435 0.019093 0.0178738 0.01669 0.0155418 0.0144291 0.0133519 0.0123102 0.011304 0.0103333 0.00940254 0.00851604 0.00767382 0.00687588 0.00612222 0.00541283 0.00474773 0.0041269 0.0035521 0.00302507 0.00254581 0.00211432 0.0017306 0.00139466 0.00110648 0.000866076 0.000663089 0.000487168 0.000338311 0.000216519 0.000121792 5.41297e-05 1.35324e-05 0 0 7.9415e-05 0.00031766 0.000714735 0.00127064 0.00198538 0.00285894 0.00389134 0.00508256 0.00643824 0.00796397 0.00965978 0.0115256 0.0135616 0.0157676 0.0181436 0.0206898 0.023342 0.0260364 0.028773 0.0315517 0.0343726 0.0372357 0.0401409 0.0430882 0.0460204 0.0488798 0.0516666 0.0543806 0.0570221 0.0595908 0.0620868 0.0645102 0.0668307 0.0690179 0.0710718 0.0729926 0.0747801 0.0764344 0.0779555 0.0793434 0.0805927 0.0816982 0.0826598 0.0834776 0.0841516 0.0846817 0.085068 0.0853105 0.0854211 0.085412 0.085283 0.0850342 0.0846657 0.0841773 0.0835691 0.0828412 0.0820136 0.0811067 0.0801204 0.0790547 0.0779096 0.0766852 0.0753814 0.0739981 0.0725562 0.0710761 0.0695579 0.0680017 0.0664072 0.0647747 0.0631041 0.0613953 0.0596649 0.0579292 0.0561881 0.0544418 0.0526902 0.0509334 0.0491712 0.0474038 0.045642 0.0438969 0.0421684 0.0404565 0.0387613 0.0370826 0.0354207 0.0337753 0.0321534 0.0305615 0.0289998 0.0274682 0.0259667 0.0244954 0.0230541 0.021643 0.0202669 0.0189307 0.0176344 0.016378 0.0151614 0.0139848 0.012848 0.0117511 0.010699 0.00969649 0.00874357 0.00784025 0.00698654 0.00618243 0.00542792 0.00472302 0.00406978 0.00347026 0.00292447 0.00243239 0.00199404 0.00160941 0.0012785 0.00100131 0.000766627 0.000563236 0.000391136 0.000250327 0.000140809 6.25818e-05 1.56454e-05 0 0 8.93862e-05 0.000357545 0.000804476 0.00143018 0.00223465 0.0032179 0.00437992 0.00572072 0.00724497 0.00895739 0.010858 0.0129467 0.0152236 0.0176886 0.0203418 0.0231832 0.0261416 0.029146 0.0321964 0.0352928 0.0384352 0.0416235 0.0448579 0.0481382 0.0514011 0.0545832 0.0576846 0.0607052 0.063645 0.0665041 0.0692823 0.0719798 0.074563 0.0769983 0.0792856 0.081425 0.0834166 0.0852602 0.0869559 0.0885037 0.0898975 0.0911315 0.0922055 0.0931197 0.0938739 0.0944682 0.0949027 0.0951772 0.095305 0.0952994 0.0951604 0.0948879 0.094482 0.0939426 0.0932698 0.0924636 0.0915463 0.0905404 0.0894458 0.0882626 0.0869907 0.0856302 0.084181 0.0826432 0.0810397 0.0793934 0.0777043 0.0759724 0.0741978 0.0723804 0.0705202 0.0686172 0.0666897 0.0647561 0.0628163 0.0608703 0.0589182 0.0569599 0.0549954 0.0530247 0.0510602 0.0491139 0.0471861 0.0452765 0.0433854 0.0415125 0.0396581 0.0378219 0.0360117 0.0342349 0.0324916 0.0307818 0.0291054 0.0274626 0.0258531 0.0242772 0.0227401 0.0212474 0.019799 0.0183949 0.0170352 0.0157198 0.0144487 0.013222 0.0120449 0.0109228 0.00985574 0.00884367 0.0078866 0.00698454 0.00613748 0.00534542 0.00461078 0.00393598 0.003321 0.00276586 0.00227055 0.00183507 0.00145942 0.0011436 0.000875571 0.000643276 0.00044672 0.000285901 0.000160819 7.14752e-05 1.78688e-05 0 0 9.96666e-05 0.000398667 0.000897 0.00159467 0.00249167 0.003588 0.00488367 0.00637866 0.00807661 0.00998113 0.0120922 0.0144099 0.0169341 0.0196649 0.0226022 0.0257461 0.0290182 0.03234 0.0357116 0.0391329 0.0426039 0.0461246 0.0496951 0.0533154 0.056916 0.0604275 0.06385 0.0671834 0.0704278 0.0735831 0.0766494 0.0796266 0.0824779 0.0851663 0.0876919 0.0900546 0.0922545 0.0942915 0.0961657 0.0978771 0.0994189 0.100784 0.101974 0.102987 0.103823 0.104484 0.104968 0.105276 0.105422 0.105421 0.105272 0.104976 0.104533 0.103942 0.103204 0.102319 0.10131 0.100204 0.0989997 0.0976971 0.0962964 0.0947975 0.0932005 0.0915054 0.0897373 0.0879217 0.0860585 0.0841477 0.0821893 0.0801833 0.0781297 0.0760286 0.0739 0.0717644 0.0696216 0.0674717 0.0653147 0.0631506 0.0609793 0.0588009 0.056629 0.0544771 0.0523453 0.0502336 0.0481419 0.0460703 0.0440188 0.0419874 0.0399844 0.0380182 0.036089 0.0341965 0.032341 0.0305223 0.0287404 0.0269955 0.0252933 0.02364 0.0220356 0.02048 0.0189732 0.0175152 0.0161061 0.0147458 0.0134401 0.012195 0.0110103 0.00988611 0.00882239 0.00781915 0.00687638 0.0059941 0.0051751 0.00442221 0.00373541 0.00311472 0.00256013 0.00207164 0.00164925 0.00129296 0.00098992 0.000727288 0.000505061 0.000323239 0.000181822 8.08098e-05 2.02025e-05 0 0 0.000110256 0.000441026 0.000992308 0.0017641 0.00275641 0.00396923 0.00540256 0.00705641 0.00893316 0.0110352 0.0133625 0.0159152 0.0186931 0.0216963 0.0249248 0.0283786 0.0319718 0.0356184 0.0393184 0.0430718 0.0468787 0.050739 0.0546527 0.0586199 0.062565 0.0664126 0.0701627 0.0738153 0.0773703 0.0808279 0.0841879 0.0874505 0.0905752 0.0935219 0.0962906 0.0988813 0.101294 0.103529 0.105585 0.107464 0.109157 0.110657 0.111964 0.113078 0.114 0.114728 0.115264 0.115607 0.115772 0.115776 0.115618 0.115299 0.114818 0.114176 0.113372 0.112406 0.111306 0.110098 0.108782 0.107358 0.105827 0.104187 0.10244 0.100585 0.0986492 0.0966612 0.0946206 0.0925275 0.0903818 0.0881836 0.0859328 0.0836295 0.0812958 0.078954 0.0766041 0.074246 0.0718798 0.0695054 0.0671229 0.0647322 0.0623484 0.0599863 0.0576461 0.0553276 0.0530309 0.050756 0.0485029 0.0462716 0.0440714 0.0419114 0.0397918 0.0377124 0.0356733 0.0336745 0.0317161 0.0297979 0.0279266 0.0261087 0.0243442 0.022633 0.0209753 0.019371 0.0178201 0.0163226 0.0148848 0.013513 0.0122073 0.0109676 0.00979392 0.00868627 0.00764465 0.00666905 0.00576274 0.00492896 0.0041677 0.00347898 0.00286278 0.00231912 0.00184798 0.00144937 0.00110968 0.000815272 0.000566161 0.000362343 0.000203818 9.05858e-05 2.26464e-05 0 0 0.000121155 0.000484622 0.0010904 0.00193849 0.00302889 0.0043616 0.00593662 0.00775395 0.00981461 0.0121196 0.0146689 0.0174626 0.0205006 0.0237829 0.0273096 0.0310806 0.0350023 0.0389811 0.0430169 0.0471098 0.0512597 0.0554666 0.0597307 0.0640517 0.0683482 0.0725386 0.0766228 0.0806008 0.0844727 0.0882384 0.091898 0.0954514 0.0988551 0.102065 0.105082 0.107905 0.110535 0.112971 0.115214 0.117263 0.119111 0.120749 0.122177 0.123395 0.124403 0.125202 0.125791 0.126169 0.126355 0.126365 0.126199 0.125856 0.125338 0.124644 0.123773 0.122727 0.121533 0.120222 0.118793 0.117246 0.115582 0.113799 0.111899 0.109881 0.107775 0.105612 0.103391 0.101112 0.0987753 0.0963812 0.0939294 0.09142 0.0888771 0.086325 0.0837637 0.0811932 0.0786134 0.0760244 0.0734262 0.0708187 0.0682184 0.0656416 0.0630884 0.0605586 0.0580524 0.0555697 0.0531105 0.0506748 0.0482727 0.0459145 0.0436 0.0413293 0.0391025 0.0369193 0.03478 0.0326845 0.0306399 0.0286533 0.0267247 0.0248542 0.0230417 0.0212872 0.0195908 0.0179524 0.0163788 0.0148769 0.0134467 0.0120881 0.0108012 0.00958589 0.00844226 0.00737029 0.0063737 0.00545623 0.00461787 0.00385863 0.00317851 0.00257751 0.00205562 0.00161285 0.00123484 0.000907227 0.000630019 0.000403212 0.000226807 0.000100803 2.52008e-05 0 0 0.000132364 0.000529455 0.00119127 0.00211782 0.0033091 0.0047651 0.00648583 0.00847129 0.010721 0.0132343 0.0160114 0.0190521 0.0223566 0.0259248 0.0297566 0.0338522 0.0381099 0.0424282 0.0468071 0.0512466 0.0557468 0.0603075 0.0649289 0.0696108 0.0742656 0.0788054 0.0832302 0.0875401 0.0917349 0.0958148 0.0997797 0.10363 0.107317 0.110796 0.114066 0.117126 0.119977 0.122619 0.125052 0.127276 0.129282 0.131061 0.132612 0.133937 0.135034 0.135905 0.136548 0.136964 0.137171 0.137188 0.137013 0.136648 0.136092 0.135346 0.134408 0.13328 0.131992 0.130576 0.129033 0.127361 0.125561 0.123634 0.121578 0.119394 0.117115 0.114773 0.112368 0.109901 0.10737 0.104776 0.10212 0.0994 0.0966439 0.0938774 0.0911005 0.0883132 0.0855156 0.0827076 0.0798892 0.0770604 0.0742391 0.071443 0.0686722 0.0659266 0.0632063 0.0605112 0.0578413 0.0551967 0.0525884 0.0500274 0.0475138 0.0450474 0.0426284 0.0402567 0.0379323 0.0356552 0.0334332 0.0312738 0.0291773 0.0271434 0.0251723 0.0232638 0.0214182 0.0196352 0.0179223 0.0162867 0.0147285 0.0132477 0.0118442 0.010518 0.00926924 0.0080978 0.00700798 0.00600401 0.00508592 0.004