<?xml version="1.0"?> 
<VTKFile type="StructuredGrid" version="0.1"> 
<StructuredGrid WholeExtent="0 128 0 128 0 0"> 
<Piece Extent="0 128 0 128 0 0"> 
<PointData>
<DataArray type="Float32" Name="u" format="ascii" NumberOfComponents="1"> 
0 0 0 0 0 0 0 0 0 0 0 0 0 0 0 0 0 0 0 0 0 0 0 0 0 0 0 0 0 0 0 0 0 0 0 0 0 0 0 0 0 0 0 0 0 0 0 0 0 0 0 0 0 0 0 0 0 0 0 0 0 0 0 0 0 0 0 0 0 0 0 0 0 0 0 0 0 0 0 0 0 0 0 0 0 0 0 0 0 0 0 0 0 0 0 0 0 0 0 0 0 0 0 0 0 0 0 0 0 0 0 0 0 0 0 0 0 0 0 0 0 0 0 0 0 0 0 0 0 0 -6.9764e-08 -2.79056e-07 -6.27876e-07 -1.11622e-06 -1.7441e-06 -2.51151e-06 -3.41844e-06 -4.4649e-06 -5.52226e-06 -6.46188e-06 -7.28377e-06 -7.98793e-06 -8.57435e-06 -9.04304e-06 -9.39399e-06 -9.62721e-06 -9.69222e-06 -9.53853e-06 -9.16615e-06 -8.57507e-06 -7.76529e-06 -6.73682e-06 -5.48965e-06 -4.02379e-06 -2.4452e-06 -8.5987e-07 7.32213e-07 2.33105e-06 3.93663e-06 5.54896e-06 7.16803e-06 8.79386e-06 1.03028e-05 1.15712e-05 1.2599e-05 1.33863e-05 1.3933e-05 1.42392e-05 1.43048e-05 1.41299e-05 1.37109e-05 1.30441e-05 1.21295e-05 1.09672e-05 9.55722e-06 7.89946e-06 5.99396e-06 3.84072e-06 1.56614e-06 -7.03396e-07 -2.96788e-06 -5.22732e-06 -7.48171e-06 -9.73104e-06 -1.19753e-05 -1.42146e-05 -1.63198e-05 -1.81621e-05 -1.97413e-05 -2.10576e-05 -2.2111e-05 -2.29013e-05 -2.34287e-05 -2.36931e-05 -2.36938e-05 -2.34303e-05 -2.29025e-05 -2.21104e-05 -2.1054e-05 -1.97333e-05 -1.81484e-05 -1.62991e-05 -1.43089e-05 -1.23012e-05 -1.0276e-05 -8.23318e-06 -6.17286e-06 -4.095e-06 -1.99961e-06 1.13325e-07 2.12662e-06 3.92312e-06 5.5028e-06 6.86568e-06 8.01176e-06 8.94102e-06 9.65349e-06 1.01491e-05 1.04313e-05 1.05033e-05 1.0365e-05 1.00166e-05 9.45792e-06 8.68908e-06 7.71004e-06 6.52081e-06 5.22844e-06 3.94001e-06 2.65553e-06 1.37498e-06 9.83765e-08 -1.17429e-06 -2.44301e-06 -3.70779e-06 -4.88072e-06 -5.87387e-06 -6.68724e-06 -7.32085e-06 -7.77468e-06 -8.04874e-06 -8.14302e-06 -8.05753e-06 -7.83565e-06 -7.52075e-06 -7.11284e-06 -6.6119e-06 -6.01796e-06 -5.33099e-06 -4.55101e-06 -3.67802e-06 -2.81598e-06 -2.06888e-06 -1.43673e-06 -9.19504e-07 -5.17221e-07 -2.29876e-07 -5.7469e-08 0 0 -2.79056e-07 -1.11622e-06 -2.51151e-06 -4.4649e-06 -6.9764e-06 -1.0046e-05 -1.36738e-05 -1.78596e-05 -2.2089e-05 -2.58475e-05 -2.91351e-05 -3.19517e-05 -3.42974e-05 -3.61722e-05 -3.7576e-05 -3.85089e-05 -3.87689e-05 -3.81541e-05 -3.66646e-05 -3.43003e-05 -3.10612e-05 -2.69473e-05 -2.19586e-05 -1.60952e-05 -9.78082e-06 -3.43948e-06 2.92885e-06 9.32418e-06 1.57465e-05 2.21958e-05 2.86721e-05 3.51755e-05 4.12112e-05 4.62847e-05 5.0396e-05 5.35451e-05 5.57321e-05 5.69568e-05 5.72193e-05 5.65197e-05 5.48434e-05 5.21762e-05 4.85181e-05 4.3869e-05 3.82289e-05 3.15978e-05 2.39759e-05 1.53629e-05 6.26456e-06 -2.81358e-06 -1.18715e-05 -2.09093e-05 -2.99268e-05 -3.89242e-05 -4.79013e-05 -5.68583e-05 -6.52792e-05 -7.26482e-05 -7.89653e-05 -8.42305e-05 -8.84438e-05 -9.16052e-05 -9.37147e-05 -9.47723e-05 -9.47754e-05 -9.37213e-05 -9.161e-05 -8.84416e-05 -8.42161e-05 -7.89333e-05 -7.25935e-05 -6.51964e-05 -5.72357e-05 -4.92049e-05 -4.11039e-05 -3.29327e-05 -2.46914e-05 -1.638e-05 -7.99843e-06 4.53301e-07 8.50649e-06 1.56925e-05 2.20112e-05 2.74627e-05 3.2047e-05 3.57641e-05 3.86139e-05 4.05966e-05 4.17252e-05 4.2013e-05 4.146e-05 4.00663e-05 3.78317e-05 3.47563e-05 3.08402e-05 2.60832e-05 2.09138e-05 1.576e-05 1.06221e-05 5.49992e-06 3.93506e-07 -4.69715e-06 -9.77204e-06 -1.48312e-05 -1.95229e-05 -2.34955e-05 -2.6749e-05 -2.92834e-05 -3.10987e-05 -3.2195e-05 -3.25721e-05 -3.22301e-05 -3.13426e-05 -3.0083e-05 -2.84513e-05 -2.64476e-05 -2.40718e-05 -2.1324e-05 -1.8204e-05 -1.47121e-05 -1.12639e-05 -8.27554e-06 -5.7469e-06 -3.67802e-06 -2.06888e-06 -9.19504e-07 -2.29876e-07 0 0 -6.27876e-07 -2.51151e-06 -5.65089e-06 -1.0046e-05 -1.56969e-05 -2.26035e-05 -3.07659e-05 -4.01841e-05 -4.97003e-05 -5.81569e-05 -6.55539e-05 -7.18913e-05 -7.71691e-05 -8.13873e-05 -8.45459e-05 -8.66449e-05 -8.723e-05 -8.58468e-05 -8.24953e-05 -7.71756e-05 -6.98876e-05 -6.06314e-05 -4.94069e-05 -3.62141e-05 -2.20068e-05 -7.73883e-06 6.58992e-06 2.09794e-05 3.54296e-05 4.99406e-05 6.45123e-05 7.91448e-05 9.27251e-05 0.000104141 0.000113391 0.000120477 0.000125397 0.000128153 0.000128743 0.000127169 0.000123398 0.000117397 0.000109166 9.87052e-05 8.6015e-05 7.10952e-05 5.39457e-05 3.45665e-05 1.40953e-05 -6.33057e-06 -2.67109e-05 -4.70459e-05 -6.73354e-05 -8.75794e-05 -0.000107778 -0.000127931 -0.000146878 -0.000163458 -0.000177672 -0.000189519 -0.000198999 -0.000206112 -0.000210858 -0.000213238 -0.000213245 -0.000210873 -0.000206123 -0.000198994 -0.000189486 -0.0001776 -0.000163335 -0.000146692 -0.00012878 -0.000110711 -9.24837e-05 -7.40987e-05 -5.55558e-05 -3.6855e-05 -1.79965e-05 1.01993e-06 1.91396e-05 3.5308e-05 4.95252e-05 6.17911e-05 7.21058e-05 8.04692e-05 8.68814e-05 9.13423e-05 9.38817e-05 9.45293e-05 9.32851e-05 9.01491e-05 8.51213e-05 7.82017e-05 6.93904e-05 5.86872e-05 4.70559e-05 3.54601e-05 2.38997e-05 1.23748e-05 8.85388e-07 -1.05686e-05 -2.19871e-05 -3.33701e-05 -4.39264e-05 -5.28648e-05 -6.01852e-05 -6.58876e-05 -6.99721e-05 -7.24386e-05 -7.32872e-05 -7.25178e-05 -7.05209e-05 -6.76868e-05 -6.40155e-05 -5.95071e-05 -5.41616e-05 -4.79789e-05 -4.09591e-05 -3.31021e-05 -2.53438e-05 -1.862e-05 -1.29305e-05 -8.27554e-06 -4.65499e-06 -2.06888e-06 -5.17221e-07 0 0 -1.11622e-06 -4.4649e-06 -1.0046e-05 -1.78596e-05 -2.79056e-05 -4.01841e-05 -5.4695e-05 -7.14384e-05 -8.83561e-05 -0.00010339 -0.00011654 -0.000127807 -0.00013719 -0.000144689 -0.000150304 -0.000154035 -0.000155076 -0.000152617 -0.000146658 -0.000137201 -0.000124245 -0.000107789 -8.78344e-05 -6.43806e-05 -3.91233e-05 -1.37579e-05 1.17154e-05 3.72967e-05 6.2986e-05 8.87833e-05 0.000114689 0.000140702 0.000164845 0.000185139 0.000201584 0.00021418 0.000222928 0.000227827 0.000228877 0.000226079 0.000219374 0.000208705 0.000194072 0.000175476 0.000152916 0.000126391 9.59034e-05 6.14516e-05 2.50582e-05 -1.12543e-05 -4.74861e-05 -8.36371e-05 -0.000119707 -0.000155697 -0.000191605 -0.000227433 -0.000261117 -0.000290593 -0.000315861 -0.000336922 -0.000353775 -0.000366421 -0.000374859 -0.000379089 -0.000379102 -0.000374885 -0.00036644 -0.000353767 -0.000336864 -0.000315733 -0.000290374 -0.000260786 -0.000228943 -0.000196819 -0.000164416 -0.000131731 -9.87658e-05 -6.55201e-05 -3.19937e-05 1.81321e-06 3.4026e-05 6.27699e-05 8.80448e-05 0.000109851 0.000128188 0.000143056 0.000154456 0.000162386 0.000166901 0.000168052 0.00016584 0.000160265 0.000151327 0.000139025 0.000123361 0.000104333 8.3655e-05 6.30402e-05 4.24884e-05 2.19997e-05 1.57402e-06 -1.87886e-05 -3.90881e-05 -5.93247e-05 -7.80915e-05 -9.39819e-05 -0.000106996 -0.000117134 -0.000124395 -0.00012878 -0.000130288 -0.000128921 -0.00012537 -0.000120332 -0.000113805 -0.00010579 -9.62873e-05 -8.52959e-05 -7.28162e-05 -5.88483e-05 -4.50557e-05 -3.31021e-05 -2.29876e-05 -1.47121e-05 -8.27554e-06 -3.67802e-06 -9.19504e-07 0 0 -1.7441e-06 -6.9764e-06 -1.56969e-05 -2.79056e-05 -4.36025e-05 -6.27876e-05 -8.54609e-05 -0.000111622 -0.000138056 -0.000161547 -0.000182094 -0.000199698 -0.000214359 -0.000226076 -0.00023485 -0.00024068 -0.000242306 -0.000238463 -0.000229154 -0.000214377 -0.000194132 -0.00016842 -0.000137241 -0.000100595 -6.11301e-05 -2.14968e-05 1.83053e-05 5.82761e-05 9.84157e-05 0.000138724 0.000179201 0.000219847 0.00025757 0.000289279 0.000314975 0.000334657 0.000348325 0.00035598 0.000357621 0.000353248 0.000342771 0.000326101 0.000303238 0.000274181 0.000238931 0.000197487 0.000149849 9.60181e-05 3.91535e-05 -1.75849e-05 -7.41971e-05 -0.000130683 -0.000187043 -0.000243276 -0.000299383 -0.000355364 -0.000407995 -0.000454051 -0.000493533 -0.000526441 -0.000552774 -0.000572533 -0.000585717 -0.000592327 -0.000592346 -0.000585758 -0.000572563 -0.00055276 -0.00052635 -0.000493333 -0.000453709 -0.000407478 -0.000357723 -0.00030753 -0.000256899 -0.00020583 -0.000154322 -0.000102375 -4.99902e-05 2.83313e-06 5.31656e-05 9.80779e-05 0.00013757 0.000171642 0.000200294 0.000223526 0.000241337 0.000253729 0.000260782 0.000262581 0.000259125 0.000250414 0.000236448 0.000217227 0.000192751 0.00016302 0.000130711 9.85003e-05 6.63881e-05 3.43745e-05 2.45941e-06 -2.93572e-05 -6.10752e-05 -9.26948e-05 -0.000122018 -0.000146847 -0.000167181 -0.000183021 -0.000194367 -0.000201218 -0.000203576 -0.000201438 -0.000195891 -0.000188019 -0.000177821 -0.000165298 -0.000150449 -0.000133275 -0.000113775 -9.19504e-05 -7.03995e-05 -5.17221e-05 -3.59181e-05 -2.29876e-05 -1.29305e-05 -5.7469e-06 -1.43673e-06 0 0 -2.51151e-06 -1.0046e-05 -2.26035e-05 -4.01841e-05 -6.27876e-05 -9.04142e-05 -0.000123064 -0.000160736 -0.000198801 -0.000232628 -0.000262216 -0.000287565 -0.000308677 -0.000325549 -0.000338184 -0.00034658 -0.00034892 -0.000343387 -0.000329981 -0.000308702 -0.00027955 -0.000242526 -0.000197627 -0.000144856 -8.80274e-05 -3.09553e-05 2.63597e-05 8.39176e-05 0.000141719 0.000199762 0.000258049 0.000316579 0.0003709 0.000416562 0.000453564 0.000481906 0.000501588 0.000512611 0.000514974 0.000508677 0.000493591 0.000469586 0.000436663 0.000394821 0.00034406 0.000284381 0.000215783 0.000138266 5.6381e-05 -2.53223e-05 -0.000106844 -0.000188183 -0.000269341 -0.000350318 -0.000431112 -0.000511725 -0.000587513 -0.000653834 -0.000710688 -0.000758075 -0.000795994 -0.000824447 -0.000843433 -0.000852951 -0.000852978 -0.000843492 -0.00082449 -0.000795975 -0.000757945 -0.0007104 -0.000653341 -0.000586768 -0.000515121 -0.000442844 -0.000369935 -0.000296395 -0.000222223 -0.00014742 -7.19859e-05 4.07971e-06 7.65584e-05 0.000141232 0.000198101 0.000247165 0.000288423 0.000321877 0.000347526 0.000365369 0.000375527 0.000378117 0.00037314 0.000360596 0.000340485 0.000312807 0.000277562 0.000234749 0.000188224 0.00014184 9.55989e-05 4.94993e-05 3.54155e-06 -4.22743e-05 -8.79483e-05 -0.00013348 -0.000175706 -0.000211459 -0.000240741 -0.000263551 -0.000279889 -0.000289755 -0.000293149 -0.000290071 -0.000282083 -0.000270747 -0.000256062 -0.000238029 -0.000216646 -0.000191916 -0.000163836 -0.000132409 -0.000101375 -7.44798e-05 -5.17221e-05 -3.31021e-05 -1.862e-05 -8.27554e-06 -2.06888e-06 0 0 -3.41844e-06 -1.36738e-05 -3.07659e-05 -5.4695e-05 -8.54609e-05 -0.000123064 -0.000167503 -0.00021878 -0.000270591 -0.000316632 -0.000356905 -0.000391408 -0.000420143 -0.000443109 -0.000460306 -0.000471734 -0.000474919 -0.000467388 -0.000449141 -0.000420178 -0.000380499 -0.000330104 -0.000268993 -0.000197166 -0.000119815 -4.21336e-05 3.58784e-05 0.000114221 0.000192895 0.000271899 0.000351234 0.000430899 0.000504837 0.000566987 0.000617351 0.000655928 0.000682718 0.000697721 0.000700937 0.000692366 0.000671832 0.000639159 0.000594346 0.000537395 0.000468304 0.000387074 0.000293704 0.000188195 7.67408e-05 -3.44664e-05 -0.000145426 -0.000256139 -0.000366604 -0.000476821 -0.000586791 -0.000696514 -0.00079967 -0.000889941 -0.000967325 -0.00103182 -0.00108344 -0.00112216 -0.00114801 -0.00116096 -0.001161 -0.00114809 -0.00112222 -0.00108341 -0.00103165 -0.000966933 -0.00088927 -0.000798656 -0.000701138 -0.00060276 -0.000503522 -0.000403426 -0.00030247 -0.000200655 -9.79808e-05 5.55294e-06 0.000104205 0.000192233 0.000269637 0.000336418 0.000392576 0.00043811 0.000473021 0.000497308 0.000511134 0.000514659 0.000507885 0.000490812 0.000463438 0.000425765 0.000377792 0.000319519 0.000256193 0.000193061 0.000130121 6.73741e-05 4.82045e-06 -5.75401e-05 -0.000119707 -0.000181682 -0.000239155 -0.000287819 -0.000327675 -0.000358722 -0.000380959 -0.000394388 -0.000399008 -0.000394819 -0.000383947 -0.000368517 -0.000348529 -0.000323983 -0.00029488 -0.000261219 -0.000223 -0.000180223 -0.000137983 -0.000101375 -7.03995e-05 -4.50557e-05 -2.53438e-05 -1.12639e-05 -2.81598e-06 0 0 -4.4649e-06 -1.78596e-05 -4.01841e-05 -7.14384e-05 -0.000111622 -0.000160736 -0.00021878 -0.000285754 -0.000353424 -0.00041356 -0.000466161 -0.000511227 -0.000548758 -0.000578754 -0.000601216 -0.000616142 -0.000620302 -0.000610466 -0.000586633 -0.000548804 -0.000496979 -0.000431156 -0.000351338 -0.000257523 -0.000156493 -5.50317e-05 4.68616e-05 0.000149187 0.000251944 0.000355133 0.000458754 0.000562807 0.000659379 0.000740555 0.000806336 0.000856722 0.000891713 0.000911309 0.000915509 0.000904315 0.000877495 0.00083482 0.000776289 0.000701903 0.000611662 0.000505566 0.000383614 0.000245806 0.000100233 -4.50174e-05 -0.000189944 -0.000334548 -0.000478829 -0.000622787 -0.000766421 -0.000909733 -0.00104447 -0.00116237 -0.00126345 -0.00134769 -0.0014151 -0.00146568 -0.00149944 -0.00151636 -0.00151641 -0.00149954 -0.00146576 -0.00141507 -0.00134746 -0.00126293 -0.0011615 -0.00104314 -0.000915771 -0.000787278 -0.000657662 -0.000526924 -0.000395063 -0.00026208 -0.000127975 7.25282e-06 0.000136104 0.000251079 0.000352179 0.000439404 0.000512752 0.000572226 0.000617823 0.000649545 0.000667603 0.000672208 0.000663361 0.00064106 0.000605307 0.000556101 0.000493443 0.000417332 0.00033462 0.000252161 0.000169954 8.79988e-05 6.2961e-06 -7.51544e-05 -0.000156353 -0.000237299 -0.000312366 -0.000375927 -0.000427984 -0.000468534 -0.00049758 -0.000515119 -0.000521153 -0.000515682 -0.000501482 -0.000481328 -0.000455221 -0.000423162 -0.000385149 -0.000341184 -0.000291265 -0.000235393 -0.000180223 -0.000132409 -9.19504e-05 -5.88483e-05 -3.31021e-05 -1.47121e-05 -3.67802e-06 0 0 -5.48239e-06 -2.19295e-05 -4.93415e-05 -8.77182e-05 -0.00013706 -0.000197366 -0.000268637 -0.000350873 -0.000433753 -0.000506955 -0.000570481 -0.00062433 -0.000668502 -0.000702998 -0.000727816 -0.000742957 -0.000744455 -0.000728343 -0.000694621 -0.000643288 -0.000574346 -0.000487793 -0.000383631 -0.000261858 -0.000131063 1.66265e-07 0.000131831 0.00026393 0.000396464 0.000529433 0.000662836 0.000796674 0.000920967 0.00102574 0.00111098 0.0011767 0.00122289 0.00124956 0.0012567 0.00124431 0.00121212 0.00115984 0.00108746 0.000994997 0.000882438 0.000749787 0.000597044 0.000424209 0.000241488 5.90881e-05 -0.000122992 -0.000304752 -0.000486191 -0.00066731 -0.000848108 -0.00102859 -0.00119833 -0.00134693 -0.00147439 -0.0015807 -0.00166587 -0.00172989 -0.00177276 -0.0017945 -0.00179502 -0.00177429 -0.00173229 -0.00166903 -0.00158451 -0.00147873 -0.00135168 -0.00120338 -0.00104376 -0.000882779 -0.000720442 -0.000556747 -0.000391694 -0.000225282 -5.75108e-05 0.000111619 0.000272651 0.000416128 0.000542052 0.000650422 0.000741238 0.0008145 0.000870208 0.000908362 0.000929223 0.000933055 0.000919857 0.000889628 0.000842369 0.000778081 0.000696762 0.000598413 0.000491675 0.000385189 0.000278955 0.000172974 6.72451e-05 -3.82316e-05 -0.000143456 -0.000248428 -0.000346027 -0.00042913 -0.000497737 -0.000551849 -0.000591466 -0.000616587 -0.000627213 -0.000623343 -0.000608398 -0.000585797 -0.000555542 -0.000517631 -0.000472065 -0.000418844 -0.000357968 -0.000289436 -0.0002216 -0.000162808 -0.000113061 -7.23591e-05 -4.0702e-05 -1.80898e-05 -4.52244e-06 0 0 -6.3024e-06 -2.52096e-05 -5.67216e-05 -0.000100838 -0.00015756 -0.000226887 -0.000308818 -0.000403354 -0.000498025 -0.00058036 -0.00065036 -0.000708025 -0.000753355 -0.00078635 -0.000807009 -0.000815333 -0.000806763 -0.00077674 -0.000725265 -0.000652338 -0.000557958 -0.000442126 -0.000304842 -0.000146105 2.34719e-05 0.000193276 0.000363307 0.000533566 0.000704051 0.000874764 0.0010457 0.00121687 0.00137604 0.001511 0.00162174 0.00170826 0.00177056 0.00180864 0.00182251 0.00181216 0.00177726 0.00171749 0.00163284 0.00152333 0.00138893 0.00122967 0.00104553 0.000836514 0.000615138 0.000393913 0.000172838 -4.80865e-05 -0.000268861 -0.000489485 -0.000709958 -0.000930281 -0.00113769 -0.00131943 -0.0014755 -0.00160589 -0.00171061 -0.00178966 -0.00184303 -0.00187073 -0.00187267 -0.00184877 -0.00179901 -0.00172341 -0.00162195 -0.00149465 -0.0013415 -0.0011625 -0.000969825 -0.000775642 -0.000579952 -0.000382757 -0.000184055 1.61539e-05 0.000217869 0.00042109 0.000614239 0.000785736 0.000935581 0.00106378 0.00117032 0.00125521 0.00131845 0.00136004 0.00138028 0.00137949 0.00135766 0.0013148 0.0012509 0.00116597 0.00106 0.00093299 0.000795528 0.000658193 0.000520984 0.000383901 0.000246944 0.000110114 -2.65906e-05 -0.000163169 -0.000290827 -0.000400773 -0.000493007 -0.000567527 -0.000624336 -0.000663431 -0.000684814 -0.000688484 -0.000678405 -0.000658542 -0.000628893 -0.000589458 -0.000540239 -0.000481234 -0.000412445 -0.00033387 -0.000255619 -0.000187802 -0.000130418 -8.34675e-05 -4.69504e-05 -2.08669e-05 -5.21672e-06 0 0 -6.92495e-06 -2.76998e-05 -6.23245e-05 -0.000110799 -0.000173124 -0.000249298 -0.000339322 -0.000443197 -0.000546241 -0.000633775 -0.000705799 -0.000762313 -0.000803317 -0.00082881 -0.000838794 -0.000833268 -0.000807225 -0.000755658 -0.000678568 -0.000575954 -0.000447816 -0.000294155 -0.00011497 8.97382e-05 0.000307113 0.000524297 0.000741291 0.000958094 0.00117471 0.00139113 0.00160736 0.0018234 0.00202461 0.00219635 0.00233861 0.0024514 0.00253472 0.00258857 0.00261294 0.00260784 0.00257291 0.00250777 0.00241243 0.00228689 0.00213115 0.00194521 0.00172907 0.00148272 0.00122118 0.000959457 0.000697545 0.000435447 0.000173161 -8.93116e-05 -0.000351971 -0.000614817 -0.000862549 -0.00107987 -0.00126677 -0.00142326 -0.00154933 -0.00164499 -0.00171024 -0.00174507 -0.00174936 -0.00172297 -0.00166591 -0.00157818 -0.00145978 -0.0013107 -0.00113095 -0.000920521 -0.000693977 -0.000465867 -0.000236192 -4.95113e-06 0.000227855 0.000462227 0.000698164 0.000935666 0.00116087 0.0013599 0.00153277 0.00167946 0.00179999 0.00189436 0.00196255 0.00200457 0.00202078 0.00201152 0.00197678 0.00191658 0.00183091 0.00171976 0.00158315 0.00142106 0.00124618 0.00107117 0.000896039 0.000720779 0.000545393 0.000369882 0.000194244 1.84808e-05 -0.000146767 -0.000290858 -0.000413792 -0.000515568 -0.000596188 -0.000655651 -0.000693957 -0.000711106 -0.000711505 -0.00069956 -0.000675273 -0.000638643 -0.00058967 -0.000528354 -0.000454695 -0.000368694 -0.000282281 -0.00020739 -0.000144021 -9.21734e-05 -5.18475e-05 -2.30433e-05 -5.76084e-06 0 0 -7.35002e-06 -2.94001e-05 -6.61502e-05 -0.0001176 -0.00018375 -0.000264601 -0.000360151 -0.000470401 -0.000578401 -0.000667199 -0.000736796 -0.000787192 -0.000818387 -0.00083038 -0.000823172 -0.000796763 -0.000745842 -0.000665097 -0.000554528 -0.000414135 -0.000243919 -4.38795e-05 0.000185984 0.000445671 0.00071986 0.000993231 0.00126578 0.00153752 0.00180843 0.00207852 0.0023478 0.00261626 0.00286666 0.00308178 0.0032616 0.00340613 0.00351538 0.00358933 0.00362799 0.00363137 0.00359906 0.00353068 0.00342622 0.00328569 0.00310909 0.00289641 0.00264766 0.00236283 0.00205962 0.00175572 0.00145113 0.00114585 0.000839874 0.000533209 0.000225853 -8.21937e-05 -0.000372902 -0.00062824 -0.000848208 -0.00103281 -0.00118204 -0.0012959 -0.00137439 -0.00141751 -0.00142507 -0.00139691 -0.001333 -0.00123336 -0.00109798 -0.00092687 -0.00072002 -0.000477434 -0.000216213 4.65452e-05 0.000310839 0.000576669 0.000844035 0.00111294 0.00138337 0.00165535 0.00191254 0.00213863 0.00233361 0.00249749 0.00263026 0.00273194 0.00280251 0.00284197 0.00285072 0.00282913 0.00277722 0.00269496 0.00258238 0.00243947 0.00226622 0.00206263 0.00184363 0.00162413 0.00140412 0.00118361 0.000962592 0.000741072 0.000519048 0.00029652 8.61541e-05 -9.93832e-05 -0.000260092 -0.000395972 -0.000507024 -0.000593247 -0.000654642 -0.000691208 -0.000707695 -0.000708854 -0.000694684 -0.000665186 -0.000620359 -0.000560204 -0.00048472 -0.000393907 -0.000301585 -0.000221573 -0.00015387 -9.84768e-05 -5.53932e-05 -2.46192e-05 -6.1548e-06 0 0 -7.57762e-06 -3.03105e-05 -6.81986e-05 -0.000121242 -0.00018944 -0.000272794 -0.000371303 -0.000484968 -0.000594505 -0.000680634 -0.000743353 -0.000782664 -0.000798566 -0.000791059 -0.000760143 -0.000705819 -0.000622613 -0.000505055 -0.000353145 -0.000166883 5.37326e-05 0.0003087 0.00059802 0.000921693 0.00126171 0.00160008 0.00193678 0.00227183 0.00260522 0.00293695 0.00326703 0.00359545 0.0039022 0.00416729 0.00439071 0.00457245 0.00471253 0.00481093 0.00486767 0.00488274 0.00485572 0.00478622 0.00467422 0.00451973 0.00432274 0.00408327 0.0038013 0.00347684 0.00313045 0.0027827 0.00243359 0.00208312 0.00173128 0.00137808 0.00102351 0.000667588 0.00033125 3.54503e-05 -0.000219811 -0.000434534 -0.000608719 -0.000742365 -0.000835473 -0.000888042 -0.000899823 -0.000870567 -0.000800274 -0.000688942 -0.000536573 -0.000343167 -0.000108723 0.000166759 0.000463468 0.000761595 0.00106114 0.0013621 0.00166448 0.00196828 0.0022735 0.00258014 0.00286925 0.00312191 0.00333811 0.00351785 0.00366113 0.00376795 0.00383832 0.00387223 0.0038701 0.00383234 0.00375896 0.00364996 0.00350533 0.00332508 0.0031092 0.0028577 0.00258788 0.00231706 0.00204523 0.00177239 0.00149854 0.00122369 0.000947821 0.000670949 0.000407936 0.00017365 -3.19081e-05 -0.000208739 -0.000356843 -0.000476219 -0.000566868 -0.00062879 -0.000666977 -0.000686422 -0.000687125 -0.000669087 -0.000632306 -0.000576783 -0.000502518 -0.000409511 -0.000313532 -0.00023035 -0.000159965 -0.000102378 -5.75875e-05 -2.55945e-05 -6.39861e-06 0 0 -7.60775e-06 -3.0431e-05 -6.84697e-05 -0.000121724 -0.000190194 -0.000273879 -0.00037278 -0.000486896 -0.000594553 -0.000674078 -0.000725469 -0.000748728 -0.000743854 -0.000710847 -0.000649707 -0.000560434 -0.00043754 -0.000275535 -7.44203e-05 0.000165804 0.000445139 0.000763584 0.00112114 0.0015178 0.00193267 0.00234483 0.00275429 0.00316104 0.00356508 0.00396641 0.00436504 0.00476097 0.00513123 0.00545289 0.00572593 0.00595036 0.00612617 0.00625338 0.00633197 0.00636195 0.0063429 0.00627439 0.00615642 0.005989 0.00577212 0.00550579 0.00519 0.00482476 0.00443368 0.00404041 0.00364493 0.00324725 0.00284738 0.00244529 0.00204101 0.00163453 0.00124991 0.000911203 0.000618421 0.00037156 0.00017062 1.56003e-05 -9.34984e-05 -0.000156676 -0.000173605 -0.000143957 -6.77309e-05 5.50722e-05 0.000224453 0.00044041 0.000702945 0.00101206 0.00134506 0.00167928 0.00201471 0.00235135 0.0026892 0.00302827 0.00336854 0.00371003 0.004031 0.00430975 0.00454626 0.00474054 0.00489259 0.00500241 0.00506999 0.00509535 0.00507891 0.00502113 0.00492201 0.00478155 0.00459974 0.00437659 0.0041121 0.00380626 0.00347894 0.00314997 0.00281936 0.00248712 0.00215324 0.00181772 0.00148056 0.00114177 0.000818578 0.000528243 0.00027076 4.61312e-05 -0.000145645 -0.000304567 -0.000430637 -0.000523853 -0.000589351 -0.000632265 -0.000652597 -0.000650345 -0.00062551 -0.000578092 -0.00050809 -0.000415505 -0.000318121 -0.000233722 -0.000162307 -0.000103876 -5.84304e-05 -2.59691e-05 -6.49227e-06 0 0 -7.4404e-06 -2.97616e-05 -6.69636e-05 -0.000119046 -0.00018601 -0.000267854 -0.00036458 -0.000476186 -0.000578545 -0.000647532 -0.000683145 -0.000685384 -0.000654251 -0.000589744 -0.000491863 -0.000360609 -0.00019062 2.3465e-05 0.000281647 0.000583925 0.000930301 0.00132077 0.00175534 0.00223401 0.00273274 0.0032275 0.0037183 0.00420513 0.004688 0.00516691 0.00564185 0.00611282 0.00655375 0.00693857 0.00726726 0.00753985 0.00775631 0.00791666 0.00802089 0.008069 0.00806058 0.00799518 0.00787283 0.00769351 0.00745722 0.00716397 0.00681375 0.00640657 0.0059693 0.00552883 0.00508515 0.00463826 0.00418816 0.00373486 0.00327835 0.00281863 0.00238307 0.00199902 0.00166649 0.00138548 0.00115598 0.000977999 0.000851536 0.00077659 0.00075358 0.000782926 0.000864627 0.000998683 0.00118509 0.00142386 0.00171499 0.00205846 0.00242858 0.00279961 0.00317155 0.00354442 0.00391819 0.00429289 0.0046685 0.00504503 0.0053978 0.00570215 0.00595807 0.00616557 0.00632464 0.00643529 0.00649752 0.00651132 0.00647717 0.00639552 0.00626638 0.00608975 0.00586563 0.00559402 0.00527492 0.00490832 0.00451679 0.00412285 0.00372653 0.00332781 0.00292669 0.00252318 0.00211727 0.00170898 0.00131808 0.000964394 0.000647913 0.000368638 0.00012657 -7.82915e-05 -0.000245947 -0.000376396 -0.000474816 -0.000546383 -0.000591098 -0.000608961 -0.000599972 -0.00056413 -0.000501436 -0.00041189 -0.000315353 -0.000231688 -0.000160894 -0.000102972 -5.7922e-05 -2.57431e-05 -6.43578e-06 0 0 -7.07558e-06 -2.83023e-05 -6.36803e-05 -0.000113209 -0.00017689 -0.000254721 -0.000346704 -0.000452837 -0.000546482 -0.000600996 -0.000616379 -0.000592633 -0.000529756 -0.000427749 -0.000286612 -0.000106344 0.000118144 0.000391944 0.000715057 0.00108748 0.00150922 0.00198026 0.00250062 0.0030703 0.00366191 0.00424808 0.00482882 0.00540413 0.005974 0.00653843 0.00709743 0.007651 0.00816976 0.00862433 0.00901472 0.00934092 0.00960294 0.00980078 0.00993443 0.0100039 0.0100088 0.00994861 0.00982344 0.00963325 0.00937804 0.00905781 0.00867256 0.00822229 0.00773732 0.00724797 0.00675424 0.00625613 0.00575364 0.00524677 0.00473552 0.00421989 0.00373073 0.0032989 0.00292439 0.00260721 0.00234736 0.00214483 0.00199963 0.00191176 0.00188173 0.00191008 0.0019968 0.00214189 0.00234535 0.00260719 0.0029274 0.00330598 0.00371401 0.00412257 0.00453167 0.00494129 0.00535145 0.00576215 0.00617337 0.00658513 0.00696963 0.0072991 0.00757354 0.00779293 0.00795729 0.00806662 0.00812091 0.00812016 0.00806486 0.00795549 0.00779206 0.00757456 0.00730299 0.00697735 0.00659765 0.00616388 0.00570143 0.00523571 0.00476672 0.00429444 0.00381889 0.00334006 0.00285796 0.00237257 0.00190645 0.0014821 0.00109955 0.000758783 0.000459802 0.000202608 -1.2799e-05 -0.00018642 -0.000323372 -0.000428775 -0.00050263 -0.000544935 -0.000555691 -0.000534898 -0.000482555 -0.000398664 -0.000305227 -0.000224249 -0.000155728 -9.9666e-05 -5.60621e-05 -2.49165e-05 -6.22913e-06 0 0 -6.36604e-06 -2.54642e-05 -5.72944e-05 -0.000101857 -0.000159151 -0.000229178 -0.000311936 -0.000407427 -0.000486553 -0.00052022 -0.000508427 -0.000451173 -0.000348459 -0.000200286 -6.65217e-06 0.000232442 0.000521585 0.000865368 0.00126379 0.00171685 0.00222456 0.0027869 0.00340388 0.0040755 0.00477085 0.00545901 0.00613999 0.00681378 0.00748039 0.00813981 0.00879204 0.00943709 0.0100422 0.0105744 0.0110339 0.0114207 0.0117346 0.0119758 0.0121441 0.0122397 0.0122621 0.012211 0.0120862 0.0118879 0.011616 0.0112705 0.0108514 0.0103588 0.00982644 0.00928831 0.00874438 0.00819466 0.00763914 0.00707783 0.00651073 0.00593783 0.00539361 0.00491256 0.00449466 0.00413993 0.00384835 0.00361994 0.00345469 0.0033526 0.0033143 0.00334046 0.00343105 0.00358609 0.00380557 0.00408949 0.00443786 0.00485067 0.0052957 0.00574073 0.00618575 0.00663077 0.00707579 0.00752081 0.00796582 0.00841083 0.00882483 0.00917682 0.00946679 0.00969475 0.00986069 0.00996462 0.0100065 0.00998642 0.0099048 0.00976216 0.0095585 0.00929382 0.00896812 0.0085814 0.00813366 0.0076249 0.00708347 0.00653772 0.00598765 0.00543325 0.00487454 0.0043115 0.00374414 0.00317246 0.00262188 0.00211781 0.00166026 0.00124923 0.000884703 0.000566695 0.000295202 7.02247e-05 -0.000113133 -0.000259765 -0.000369672 -0.000442854 -0.000479311 -0.000479042 -0.000442048 -0.000368328 -0.000282001 -0.000207185 -0.000143878 -9.20821e-05 -5.17962e-05 -2.30205e-05 -5.75513e-06 0 0 -5.16452e-06 -2.06581e-05 -4.64807e-05 -8.26324e-05 -0.000129113 -0.000185923 -0.000253062 -0.00033053 -0.000386952 -0.000390956 -0.00034254 -0.000241704 -8.84497e-05 0.000117224 0.000375318 0.00068583 0.00105253 0.0014792 0.00196583 0.00251243 0.00311899 0.00378551 0.004512 0.00529845 0.00611023 0.00691273 0.00770594 0.00848987 0.0092645 0.0100298 0.0107859 0.0115327 0.0122338 0.0128532 0.0133906 0.0138461 0.0142198 0.0145116 0.0147215 0.0148496 0.0148954 0.0148586 0.0147391 0.0145371 0.0142525 0.0138852 0.0134354 0.0129029 0.0123254 0.0117403 0.0111477 0.0105476 0.00994 0.00932485 0.00870217 0.00807198 0.00747243 0.00694172 0.00647984 0.00608678 0.00576256 0.00550717 0.0053206 0.00520287 0.00515474 0.005177 0.00526965 0.00543267 0.00566609 0.00596988 0.00634406 0.00678863 0.00726801 0.00774664 0.00822452 0.00870164 0.00917802 0.00965364 0.0101285 0.0106026 0.0110417 0.0114115 0.011712 0.0119431 0.012105 0.0121975 0.0122208 0.0121747 0.0120598 0.0118766 0.0116252 0.0113054 0.0109173 0.010461 0.00993631 0.00934336 0.00871348 0.00807804 0.00743703 0.00679046 0.00613833 0.00548064 0.00481738 0.00414855 0.0035026 0.00290797 0.00236464 0.00187263 0.00143192 0.00104253 0.000704453 0.000417685 0.000177789 -1.9675e-05 -0.000174707 -0.000287306 -0.000357473 -0.000385208 -0.000370511 -0.000313382 -0.000239933 -0.000176277 -0.000122415 -7.83454e-05 -4.40693e-05 -1.95864e-05 -4.89659e-06 0 0 -3.47103e-06 -1.38841e-05 -3.12393e-05 -5.55364e-05 -8.67757e-05 -0.000124957 -0.00017008 -0.000222146 -0.000247678 -0.000213203 -0.000118719 3.57731e-05 0.000250273 0.000524781 0.000859297 0.00125382 0.00171099 0.00223345 0.00282118 0.00347421 0.00419251 0.0049761 0.00582498 0.00673913 0.00768006 0.00860925 0.00952668 0.0104324 0.0113263 0.0122085 0.013079 0.0139377 0.0147448 0.0154605 0.0160847 0.0166173 0.0170586 0.0174083 0.0176666 0.0178334 0.0179085 0.0178914 0.0177822 0.0175809 0.0172875 0.016902 0.0164244 0.0158547 0.0152341 0.014604 0.0139643 0.013315 0.0126562 0.0119878 0.0113099 0.0106223 0.00996719 0.00938638 0.00887991 0.00844778 0.00808998 0.00780651 0.00759738 0.00746258 0.00740306 0.00741972 0.00751258 0.00768164 0.0079269 0.00824835 0.008646 0.00911984 0.00963093 0.0101403 0.010648 0.0111539 0.0116581 0.0121606 0.0126614 0.0131605 0.0136203 0.0140032 0.0143091 0.0145381 0.0146902 0.0147654 0.0147636 0.0146849 0.0145299 0.0142989 0.013992 0.0136093 0.0131506 0.012616 0.0120056 0.0113193 0.0105915 0.00985668 0.00911488 0.00836608 0.00761027 0.00684746 0.00607765 0.00530084 0.00454861 0.00385256 0.00321268 0.00262899 0.00210146 0.00163012 0.00121495 0.000855961 0.000549393 0.000291495 8.22674e-05 -7.82907e-05 -0.000190179 -0.000253397 -0.000267946 -0.000233825 -0.000179022 -0.000131526 -9.13378e-05 -5.84562e-05 -3.28816e-05 -1.4614e-05 -3.65351e-06 0 0 -1.28555e-06 -5.14222e-06 -1.157e-05 -2.05689e-05 -3.21389e-05 -4.628e-05 -6.29922e-05 -8.22755e-05 -6.87312e-05 1.30393e-05 0.000163036 0.000381259 0.000667709 0.00102238 0.00144529 0.00193642 0.00249696 0.0031281 0.00382984 0.00460218 0.00544513 0.00635867 0.00734282 0.00839756 0.00948033 0.0105485 0.0116022 0.0126413 0.0136659 0.0146759 0.0156714 0.0166523 0.0175751 0.0183964 0.0191161 0.0197343 0.0202509 0.0206659 0.0209794 0.0211913 0.0213014 0.0213094 0.0212154