<?xml version="1.0"?> 
<VTKFile type="StructuredGrid" version="0.1"> 
<StructuredGrid WholeExtent="0 128 0 128 0 0"> 
<Piece Extent="0 128 0 128 0 0"> 
<PointData>
<DataArray type="Float32" Name="u" format="ascii" NumberOfComponents="1"> 
0 0 0 0 0 0 0 0 0 0 0 0 0 0 0 0 0 0 0 0 0 0 0 0 0 0 0 0 0 0 0 0 0 0 0 0 0 0 0 0 0 0 0 0 0 0 0 0 0 0 0 0 0 0 0 0 0 0 0 0 0 0 0 0 0 0 0 0 0 0 0 0 0 0 0 0 0 0 0 0 0 0 0 0 0 0 0 0 0 0 0 0 0 0 0 0 0 0 0 0 0 0 0 0 0 0 0 0 0 0 0 0 0 0 0 0 0 0 0 0 0 0 0 0 0 0 0 0 0 0 1.01671e-07 4.06682e-07 9.15035e-07 1.62673e-06 2.54176e-06 3.66014e-06 4.98186e-06 6.50691e-06 8.27756e-06 1.0336e-05 1.26823e-05 1.53165e-05 1.82384e-05 2.14482e-05 2.49458e-05 2.87313e-05 3.26949e-05 3.67273e-05 4.08283e-05 4.49979e-05 4.92362e-05 5.35431e-05 5.79187e-05 6.23629e-05 6.67683e-05 7.10274e-05 7.51402e-05 7.91066e-05 8.29267e-05 8.66005e-05 9.01279e-05 9.35091e-05 9.67021e-05 9.96652e-05 0.000102398 0.000104902 0.000107175 0.000109219 0.000111032 0.000112616 0.000113986 0.000115158 0.000116132 0.000116909 0.000117488 0.000117869 0.000118052 0.000118038 0.00011787 0.000117595 0.000117211 0.000116719 0.000116119 0.000115411 0.000114594 0.00011367 0.000112677 0.000111656 0.000110607 0.000109531 0.000108426 0.000107293 0.000106133 0.000104944 0.000103742 0.000102539 0.000101337 0.000100135 9.89331e-05 9.77312e-05 9.65294e-05 9.53277e-05 9.41141e-05 9.28766e-05 9.16151e-05 9.03296e-05 8.90201e-05 8.76868e-05 8.63294e-05 8.49481e-05 8.35228e-05 8.20335e-05 8.04802e-05 7.88629e-05 7.71816e-05 7.54363e-05 7.3627e-05 7.17537e-05 6.98114e-05 6.77948e-05 6.57041e-05 6.35392e-05 6.13001e-05 5.89868e-05 5.65994e-05 5.41378e-05 5.16263e-05 4.90894e-05 4.65271e-05 4.39393e-05 4.13261e-05 3.86875e-05 3.60233e-05 3.33338e-05 3.06711e-05 2.80878e-05 2.55836e-05 2.31588e-05 2.08132e-05 1.85469e-05 1.63598e-05 1.4252e-05 1.22664e-05 1.04459e-05 8.79048e-06 7.30014e-06 5.97489e-06 4.81474e-06 3.81968e-06 2.9897e-06 2.28899e-06 1.68171e-06 1.16785e-06 7.47426e-07 4.20427e-07 1.86856e-07 4.67141e-08 0 0 4.06682e-07 1.62673e-06 3.66014e-06 6.50691e-06 1.01671e-05 1.46406e-05 1.99274e-05 2.60277e-05 3.31102e-05 4.13441e-05 5.07293e-05 6.12658e-05 7.29537e-05 8.57928e-05 9.97833e-05 0.000114925 0.00013078 0.000146909 0.000163313 0.000179992 0.000196945 0.000214172 0.000231675 0.000249452 0.000267073 0.00028411 0.000300561 0.000316426 0.000331707 0.000346402 0.000360512 0.000374036 0.000386808 0.000398661 0.000409594 0.000419607 0.0004287 0.000436874 0.000444128 0.000450463 0.000455942 0.000460631 0.000464528 0.000467635 0.00046995 0.000471475 0.000472208 0.000472151 0.000471482 0.00047038 0.000468845 0.000466877 0.000464477 0.000461644 0.000458378 0.000454679 0.000450708 0.000446625 0.00044243 0.000438123 0.000433704 0.000429174 0.000424531 0.000419777 0.000414967 0.000410158 0.000405349 0.00040054 0.000395732 0.000390925 0.000386118 0.000381311 0.000376457 0.000371506 0.00036646 0.000361318 0.000356081 0.000350747 0.000345318 0.000339792 0.000334091 0.000328134 0.000321921 0.000315452 0.000308726 0.000301745 0.000294508 0.000287015 0.000279245 0.000271179 0.000262816 0.000254157 0.0002452 0.000235947 0.000226398 0.000216551 0.000206505 0.000196358 0.000186108 0.000175757 0.000165304 0.00015475 0.000144093 0.000133335 0.000122685 0.000112351 0.000102335 9.26351e-05 8.32528e-05 7.41875e-05 6.54393e-05 5.70081e-05 4.90657e-05 4.17836e-05 3.51619e-05 2.92006e-05 2.38996e-05 1.9259e-05 1.52787e-05 1.19588e-05 9.15597e-06 6.72683e-06 4.67141e-06 2.9897e-06 1.68171e-06 7.47426e-07 1.86856e-07 0 0 9.15035e-07 3.66014e-06 8.23531e-06 1.46406e-05 2.28759e-05 3.29412e-05 4.48367e-05 5.85622e-05 7.4498e-05 9.30243e-05 0.000114141 0.000137848 0.000164146 0.000193034 0.000224512 0.000258581 0.000294255 0.000330546 0.000367454 0.000404981 0.000443126 0.000481888 0.000521268 0.000561266 0.000600915 0.000639247 0.000676261 0.000711959 0.00074634 0.000779404 0.000811151 0.000841581 0.000870319 0.000896987 0.000921585 0.000944115 0.000964576 0.000982967 0.000999289 0.00101354 0.00102587 0.00103642 0.00104519 0.00105218 0.00105739 0.00106082 0.00106247 0.00106234 0.00106083 0.00105835 0.0010549 0.00105047 0.00104507 0.0010387 0.00103135 0.00102303 0.00101409 0.00100491 0.000995467 0.000985776 0.000975835 0.000965641 0.000955196 0.000944499 0.000933677 0.000922855 0.000912035 0.000901216 0.000890398 0.000879581 0.000868765 0.00085795 0.000847027 0.000835889 0.000824536 0.000812966 0.000801181 0.000789181 0.000776965 0.000764533 0.000751705 0.000738301 0.000724322 0.000709766 0.000694635 0.000678927 0.000662643 0.000645784 0.000628302 0.000610153 0.000591337 0.000571853 0.000551701 0.000530881 0.000509394 0.00048724 0.000464637 0.000441805 0.000418744 0.000395454 0.000371935 0.000348187 0.00032421 0.000300004 0.00027604 0.00025279 0.000230253 0.000208429 0.000187319 0.000166922 0.000147238 0.000128268 0.000110398 9.40131e-05 7.91143e-05 6.57012e-05 5.3774e-05 4.33326e-05 3.43771e-05 2.69073e-05 2.06009e-05 1.51354e-05 1.05107e-05 6.72683e-06 3.78384e-06 1.68171e-06 4.20427e-07 0 0 1.62673e-06 6.50691e-06 1.46406e-05 2.60277e-05 4.06682e-05 5.85622e-05 7.97097e-05 0.000104111 0.000132441 0.000165376 0.000202917 0.000245063 0.000291815 0.000343171 0.000399133 0.0004597 0.000523119 0.000587637 0.000653252 0.000719966 0.000787779 0.00085669 0.000926699 0.000997807 0.00106829 0.00113644 0.00120224 0.00126571 0.00132683 0.00138561 0.00144205 0.00149614 0.00154723 0.00159464 0.00163837 0.00167843 0.0017148 0.0017475 0.00177651 0.00180185 0.00182377 0.00184252 0.00185811 0.00187054 0.0018798 0.0018859 0.00188883 0.0018886 0.00188593 0.00188152 0.00187538 0.00186751 0.00185791 0.00184657 0.00183351 0.00181871 0.00180283 0.0017865 0.00176972 0.00175249 0.00173482 0.0017167 0.00169813 0.00167911 0.00165987 0.00164063 0.0016214 0.00160216 0.00158293 0.0015637 0.00154447 0.00152524 0.00150583 0.00148603 0.00146584 0.00144527 0.00142432 0.00140299 0.00138127 0.00135917 0.00133636 0.00131254 0.00128768 0.00126181 0.00123491 0.00120698 0.00117803 0.00114806 0.00111698 0.00108472 0.00105127 0.00101663 0.000980801 0.000943789 0.00090559 0.000866204 0.000826021 0.000785431 0.000744434 0.000703029 0.000661218 0.000618999 0.000576374 0.000533341 0.000490738 0.000449404 0.000409338 0.000370541 0.000333011 0.00029675 0.000261757 0.000228033 0.000196263 0.000167134 0.000140648 0.000116802 9.55983e-05 7.70358e-05 6.11148e-05 4.78353e-05 3.66239e-05 2.69073e-05 1.86856e-05 1.19588e-05 6.72683e-06 2.9897e-06 7.47426e-07 0 0 2.54176e-06 1.01671e-05 2.28759e-05 4.06682e-05 6.35441e-05 9.15035e-05 0.000124546 0.000162673 0.000206939 0.000258401 0.000317058 0.000382911 0.00045596 0.000536205 0.000623646 0.000718282 0.000817374 0.000918182 0.00102071 0.00112495 0.0012309 0.00133858 0.00144797 0.00155907 0.00166921 0.00177569 0.0018785 0.00197766 0.00207317 0.00216501 0.0022532 0.00233773 0.00241755 0.00249163 0.00255996 0.00262254 0.00267938 0.00273046 0.0027758 0.00281539 0.00284964 0.00287894 0.0029033 0.00292272 0.00293719 0.00294672 0.0029513 0.00295094 0.00294676 0.00293987 0.00293028 0.00291798 0.00290298 0.00288527 0.00286486 0.00284174 0.00281692 0.0027914 0.00276518 0.00273827 0.00271065 0.00268234 0.00265332 0.00262361 0.00259355 0.00256349 0.00253343 0.00250338 0.00247333 0.00244328 0.00241324 0.00238319 0.00235285 0.00232191 0.00229038 0.00225824 0.0022255 0.00219217 0.00215823 0.0021237 0.00208807 0.00205084 0.002012 0.00197157 0.00192954 0.00188591 0.00184068 0.00179384 0.00174528 0.00169487 0.0016426 0.00158848 0.0015325 0.00147467 0.00141498 0.00135344 0.00129066 0.00122724 0.00116318 0.00109848 0.00103315 0.000967186 0.000900584 0.000833345 0.000766778 0.000702194 0.000639591 0.00057897 0.00052033 0.000463672 0.000408996 0.000356301 0.000306661 0.000261148 0.000219762 0.000182503 0.000149372 0.000120368 9.54919e-05 7.47426e-05 5.72248e-05 4.20427e-05 2.91963e-05 1.86856e-05 1.05107e-05 4.67141e-06 1.16785e-06 0 0 3.66014e-06 1.46406e-05 3.29412e-05 5.85622e-05 9.15035e-05 0.000131765 0.000179347 0.000234249 0.000297992 0.000372097 0.000456564 0.000551392 0.000656583 0.000772135 0.00089805 0.00103433 0.00117702 0.00132218 0.00146982 0.00161992 0.0017725 0.00192755 0.00208507 0.00224507 0.00240366 0.00255699 0.00270505 0.00284784 0.00298536 0.00311762 0.00324461 0.00336633 0.00348127 0.00358795 0.00368634 0.00377646 0.0038583 0.00393187 0.00399716 0.00405417 0.00410348 0.00414568 0.00418075 0.00420871 0.00422955 0.00424327 0.00424988 0.00424936 0.00424334 0.00423342 0.00421961 0.0042019 0.00418029 0.00415479 0.0041254 0.00409211 0.00405637 0.00401962 0.00398187 0.00394311 0.00390334 0.00386256 0.00382078 0.003778 0.00373471 0.00369142 0.00364814 0.00360486 0.00356159 0.00351832 0.00347506 0.0034318 0.00338811 0.00334356 0.00329814 0.00325187 0.00320473 0.00315672 0.00310786 0.00305813 0.00300682 0.00295321 0.00289729 0.00283906 0.00277854 0.00271571 0.00265057 0.00258313 0.00251321 0.00244061 0.00236535 0.00228741 0.0022068 0.00212353 0.00203758 0.00194896 0.00185855 0.00176722 0.00167498 0.00158182 0.00148774 0.00139275 0.00129684 0.00120002 0.00110416 0.00101116 0.000921011 0.000833716 0.000749275 0.000667688 0.000588954 0.000513073 0.000441591 0.000376053 0.000316457 0.000262805 0.000215096 0.000173331 0.000137508 0.000107629 8.24037e-05 6.05415e-05 4.20427e-05 2.69073e-05 1.51354e-05 6.72683e-06 1.68171e-06 0 0 4.98186e-06 1.99274e-05 4.48367e-05 7.97097e-05 0.000124546 0.000179347 0.000244111 0.000318839 0.0004056 0.000506465 0.000621434 0.000750506 0.000893682 0.00105096 0.00122235 0.00140783 0.00160205 0.00179964 0.00200059 0.0022049 0.00241257 0.00262361 0.00283802 0.00305578 0.00327165 0.00348034 0.00368187 0.00387622 0.00406341 0.00424342 0.00441627 0.00458194 0.0047384 0.00488359 0.00501752 0.00514018 0.00525158 0.00535171 0.00544057 0.00551817 0.00558529 0.00564273 0.00569047 0.00572853 0.00575689 0.00577557 0.00578455 0.00578385 0.00577565 0.00576215 0.00574335 0.00571925 0.00568984 0.00565514 0.00561513 0.00556981 0.00552117 0.00547115 0.00541976 0.005367 0.00531288 0.00525738 0.00520051 0.00514227 0.00508335 0.00502444 0.00496553 0.00490662 0.00484772 0.00478883 0.00472994 0.00467106 0.00461159 0.00455095 0.00448914 0.00442615 0.00436199 0.00429665 0.00423014 0.00416246 0.00409262 0.00401964 0.00394353 0.00386428 0.0037819 0.00369638 0.00360772 0.00351593 0.00342076 0.00332195 0.0032195 0.00311342 0.0030037 0.00289035 0.00277337 0.00265275 0.00252969 0.00240538 0.00227983 0.00215303 0.00202498 0.00189569 0.00176514 0.00163336 0.00150289 0.0013763 0.0012536 0.00113478 0.00101985 0.000908797 0.000801631 0.00069835 0.000601055 0.000511849 0.000430733 0.000357707 0.00029277 0.000235922 0.000187164 0.000146495 0.000112161 8.24037e-05 5.72248e-05 3.66239e-05 2.06009e-05 9.15597e-06 2.28899e-06 0 0 6.50691e-06 2.60277e-05 5.85622e-05 0.000104111 0.000162673 0.000234249 0.000318839 0.000416442 0.000529764 0.000661506 0.000811669 0.000980253 0.00116726 0.00137269 0.00159653 0.0018388 0.00209248 0.00235055 0.00261301 0.00287987 0.00315112 0.00342676 0.0037068 0.00399123 0.00427317 0.00454575 0.00480897 0.00506282 0.00530731 0.00554243 0.00576819 0.00598458 0.00618893 0.00637857 0.0065535 0.00671371 0.0068592 0.00698999 0.00710606 0.00720741 0.00729508 0.00737009 0.00743245 0.00748216 0.0075192 0.0075436 0.00755534 0.00755442 0.00754371 0.00752608 0.00750152 0.00747004 0.00743163 0.0073863 0.00733404 0.00727486 0.00721132 0.00714599 0.00707887 0.00700997 0.00693927 0.00686678 0.0067925 0.00671644 0.00663948 0.00656253 0.00648558 0.00640865 0.00633172 0.0062548 0.00617788 0.00610098 0.00602331 0.0059441 0.00586336 0.00578109 0.00569729 0.00561195 0.00552508 0.00543668 0.00534546 0.00525014 0.00515073 0.00504723 0.00493962 0.00482792 0.00471213 0.00459224 0.00446793 0.00433887 0.00420506 0.00406651 0.00392321 0.00377516 0.00362236 0.00346482 0.00330408 0.00314172 0.00297774 0.00281212 0.00264487 0.002476 0.00230549 0.00213336 0.00196295 0.00179762 0.00163735 0.00148216 0.00133204 0.001187 0.00104703 0.00091213 0.000785051 0.000668538 0.00056259 0.000467209 0.000382393 0.000308143 0.000244459 0.000191341 0.000146495 0.000107629 7.47426e-05 4.78353e-05 2.69073e-05 1.19588e-05 2.9897e-06 0 0 8.32137e-06 3.32855e-05 7.48923e-05 0.000133142 0.000208034 0.000299569 0.000407747 0.000532567 0.00067735 0.000845413 0.00103676 0.00125138 0.00148929 0.00175048 0.00203494 0.00234269 0.00266484 0.0029925 0.00332567 0.00366435 0.00400854 0.00435825 0.00471347 0.0050742 0.00543176 0.00577747 0.00611134 0.00643336 0.00674353 0.00704185 0.00732832 0.00760295 0.00786234 0.00810312 0.00832529 0.00852885 0.0087138 0.00888013 0.00902785 0.00915696 0.00926875 0.0093645 0.00944422 0.00950791 0.00955557 0.0095872 0.0096028 0.00960236 0.00958951 0.00956784 0.00953736 0.00949807 0.00944998 0.00939307 0.00932735 0.00925282 0.00917272 0.00909029 0.00900553 0.00891845 0.00882903 0.00873729 0.00864321 0.00854681 0.00844922 0.00835158 0.00825389 0.00815615 0.00805836 0.00796053 0.00786264 0.0077647 0.00766576 0.00756484 0.00746194 0.00735707 0.00725023 0.00714141 0.00703062 0.00691785 0.00680151 0.00667997 0.00655325 0.00642134 0.00628425 0.00614197 0.0059945 0.00584184 0.0056836 0.00551936 0.00534912 0.0051729 0.00499068 0.00480247 0.00460826 0.00440806 0.00420384 0.00399757 0.00378925 0.00357887 0.00336645 0.00315197 0.00293545 0.00271687 0.00250047 0.00229047 0.00208687 0.00188968 0.00169888 0.00151449 0.0013365 0.00116491 0.00100321 0.000854879 0.000719919 0.000598329 0.000490111 0.000395264 0.000313787 0.000245681 0.0001881 0.000138196 9.59692e-05 6.14203e-05 3.45489e-05 1.53551e-05 3.83877e-06 0 0 1.05113e-05 4.20451e-05 9.46014e-05 0.00016818 0.000262782 0.000378406 0.000515052 0.000672721 0.000855226 0.00106638 0.00130619 0.00157464 0.00187175 0.00219751 0.00255191 0.00293497 0.00333569 0.00374308 0.00415714 0.00457786 0.00500526 0.00543934 0.00588008 0.00632749 0.00677093 0.00719975 0.00761396 0.00801355 0.00839853 0.00876889 0.00912463 0.00946576 0.0097881 0.0100875 0.0103639 0.0106174 0.010848 0.0110556 0.0112402 0.0114019 0.0115422 0.0116627 0.0117633 0.0118441 0.0119051 0.0119462 0.0119675 0.011969 0.011955 0.0119301 0.0118941 0.0118472 0.0117892 0.0117202 0.0116402 0.0115493 0.0114513 0.0113502 0.0112461 0.0111389 0.0110287 0.0109154 0.0107991 0.0106797 0.0105587 0.0104375 0.010316 0.0101943 0.0100724 0.00995032 0.00982797 0.0097054 0.00958146 0.00945499 0.00932599 0.00919446 0.00906039 0.00892381 0.00878469 0.00864304 0.00849692 0.00834439 0.00818544 0.00802009 0.00784832 0.00767013 0.00748554 0.00729453 0.00709663 0.00689138 0.00667878 0.00645881 0.00623149 0.00599681 0.00575478 0.00550539 0.00525107 0.00499424 0.00473491 0.00447308 0.00420875 0.00394191 0.00367256 0.00340072 0.00313154 0.00287022 0.00261676 0.00237114 0.00213337 0.00190346 0.0016814 0.00146719 0.00126516 0.00107963 0.000910609 0.000758087 0.000622068 0.000502553 0.00039954 0.000313031 0.000239664 0.00017608 0.000122278 7.82578e-05 4.402e-05 1.95644e-05 4.89111e-06 0 0 1.30766e-05 5.23065e-05 0.00011769 0.000209226 0.000326915 0.000470758 0.000640754 0.000836903 0.00106339 0.00132441 0.00161996 0.00195004 0.00231464 0.00271378 0.00314744 0.00361563 0.00410502 0.00460229 0.00510741 0.00562041 0.00614128 0.00667002 0.00720663 0.0077511 0.00829068 0.00881259 0.00931683 0.0098034 0.0102723 0.0107235 0.0111571 0.011573 0.0119662 0.0123317 0.0126694 0.0129795 0.0132617 0.0135163 0.0137431 0.0139422 0.0141155 0.0142646 0.0143897 0.0144907 0.0145677 0.0146206 0.0146495 0.0146543 0.0146403 0.0146128 0.0145718 0.0145173 0.0144493 0.0143678 0.0142727 0.0141642 0.0140469 0.0139257 0.0138005 0.0136714 0.0135382 0.0134012 0.0132602 0.0131152 0.0129679 0.0128202 0.012672 0.0125232 0.0123739 0.0122242 0.0120739 0.0119231 0.0117704 0.0116146 0.0114555 0.0112932 0.0111278 0.0109591 0.0107873 0.0106122 0.0104317 0.0102434 0.0100473 0.00984345 0.00963182 0.00941242 0.00918525 0.0089503 0.00870705 0.00845495 0.00819402 0.00792426 0.00764565 0.0073582 0.00706192 0.0067568 0.00644577 0.00613175 0.00581474 0.00549474 0.00517176 0.00484579 0.00451684 0.0041849 0.00385618 0.00353688 0.003227 0.00292655 0.00263552 0.00235391 0.00208173 0.00181897 0.0015709 0.0013428 0.00113466 0.000946481 0.000778265 0.000630011 0.00050172 0.000393391 0.00030119 0.000221282 0.000153668 9.83477e-05 5.53206e-05 2.45869e-05 6.14673e-06 0 0 1.60174e-05 6.40696e-05 0.000144157 0.000256279 0.000400435 0.000576627 0.000784853 0.00102511 0.00130185 0.0016195 0.00197808 0.00237756 0.00281797 0.00329929 0.00382153 0.00438468 0.00497285 0.00557012 0.00617651 0.006792 0.0074166 0.0080503 0.00869312 0.00934504 0.00999102 0.010616 0.01122 0.0118029 0.0123649 0.0129058 0.0134258 0.0139247 0.0143967 0.0148357 0.0152418 0.0156149 0.0159551 0.0162623 0.0165366 0.016778 0.0169885 0.0171703 0.0173234 0.0174478 0.0175435 0.0176105 0.0176487 0.0176583 0.0176453 0.017616 0.0175704 0.0175085 0.0174302 0.0173357 0.0172248 0.0170976 0.0169597 0.0168168 0.0166688 0.0165158 0.0163577 0.0161946 0.0160264 0.0158532 0.0156769 0.0154998 0.0153217 0.0151428 0.0149629 0.0147821 0.0146004 0.0144177 0.0142326 0.0140435 0.0138505 0.0136534 0.0134524 0.0132474 0.0130384 0.0128254 0.0126058 0.012377 0.0121388 0.0118914 0.0116348 0.0113688 0.0110936 0.0108092 0.0105148 0.0102101 0.00989486 0.00956922 0.00923315 0.00888663 0.00852968 0.00816229 0.00778793 0.00741008 0.00702872 0.00664386 0.0062555 0.00586364 0.00546828 0.00506942 0.00467437 0.00429043 0.00391761 0.0035559 0.00320532 0.00286584 0.00253749 0.00222025 0.00192044 0.00164438 0.00139207 0.00116351 0.000958701 0.000777638 0.000620325 0.00048676 0.000372676 0.000273803 0.000190141 0.00012169 6.84507e-05 3.04225e-05 7.60563e-06 0 0 1.93337e-05 7.73346e-05 0.000174003 0.000309338 0.000483341 0.000696011 0.000947349 0.00123735 0.0015706 0.00195166 0.00238053 0.00285722 0.00338172 0.00395404 0.00457417 0.00524211 0.00593916 0.00664659 0.00736441 0.00809261 0.0088312 0.00958018 0.0103395 0.0111093 0.0118719 0.0126099 0.0133233 0.0140121 0.0146762 0.0153157 0.0159306 0.0165209 0.0170795 0.0175995 0.018081 0.0185238 0.018928 0.0192937 0.0196207 0.0199091 0.0201614 0.0203798 0.0205645 0.0207153 0.0208324 0.0209157 0.0209652 0.0209809 0.02097 0.0209397 0.0208899 0.0208207 0.0207321 0.020624 0.0204965 0.0203495 0.0201897 0.0200235 0.019851 0.0196722 0.019487 0.0192956 0.0190978 0.0188937 0.0186857 0.0184762 0.0182653 0.018053 0.0178393 0.0176241 0.0174074 0.0171893 0.0169681 0.016742 0.0165109 0.0162751 0.0160343 0.0157886 0.0155381 0.0152827 0.0150194 0.0147452 0.0144601 0.0141641 0.0138572 0.0135394 0.0132107 0.0128711 0.01252 0.0121567 0.0117813 0.0113937 0.010994 0.0105821 0.0101581 0.00972187 0.00927757 0.00882923 0.00837685 0.00792042 0.00745995 0.00699544 0.00652688 0.00605427 0.00558611 0.00513088 0.00468858 0.00425921 0.00384277 0.00343926 0.00304867 0.00267102 0.00231377 0.00198438 0.00168285 0.00140918 0.00116338 0.000945435 0.000755356 0.00059314 0.000454123 0.000333641 0.000231695 0.000148285 8.34103e-05 3.70712e-05 9.26781e-06 0 0 2.30253e-05 9.21014e-05 0.000207228 0.000368406 0.000575634 0.000828912 0.00112824 0.00147362 0.00186964 0.00232087 0.00282733 0.00338901 0.00400591 0.00467803 0.00540537 0.00618793 0.00700395 0.00783168 0.00867112 0.00952226 0.0103851 0.0112597 0.0121459 0.0130439 0.0139334 0.0147945 0.015627 0.0164309 0.0172063 0.0179532 0.0186716 0.0193614 0.0200147 0.0206232 0.021187 0.0217061 0.0221806 0.0226103 0.0229953 0.0233357 0.023634 0.023893 0.0241128 0.0242933 0.0244345 0.0245364 0.024599 0.0246223 0.0246145 0.0245839 0.0245304 0.024454 0.0243548 0.0242327 0.0240877 0.0239199 0.0237367 0.0235458 0.0233471 0.0231406 0.0229263 0.0227042 0.0224744 0.0222367 0.0219941 0.0217495 0.0215028 0.021254 0.0210031 0.0207501 0.020495 0.0202379 0.0199768 0.0197098 0.0194369 0.0191581 0.0188734 0.0185828 0.0182863 0.0179839 0.0176722 0.0173479 0.0170109 0.0166613 0.016299 0.015924 0.0155364 0.0151361 0.0147225 0.0142949 0.0138533 0.0133977 0.0129282 0.0124446 0.0119471 0.0114355 0.0109147 0.0103892 0.00985914 0.00932444 0.00878513 0.00824119 0.00769264 0.00713946 0.00659142 0.00605823 0.00553991 0.00503646 0.00454787 0.00407415 0.00361529 0.0031713 0.00275089 0.00236278 0.00200698 0.00168349 0.00139229 0.0011334 0.000906813 0.000712529 0.00054553 0.000400797 0.000278332 0.000178132 0.000100199 4.4533e-05 1.11333e-05 0 0 2.70925e-05 0.00010837 0.000243832 0.00043348 0.000677312 0.000975329 0.00132753 0.00173392 0.00219897 0.00272715 0.00331847 0.00397293 0.00469053 0.00547126 0.00631513 0.00722213 0.00816724 0.00912541 0.0100966 0.0110809 0.0120783 0.0130887 0.0141122 0.0151488 0.0161755 0.0171695 0.0181308 0.0190594 0.0199552 0.0208184 0.0216488 0.0224465 0.0232022 0.0239067 0.0245599 0.0251619 0.0257127 0.0262122 0.0266605 0.0270576 0.0274064 0.02771 0.0279685 0.0281817 0.0283496 0.0284724 0.02855 0.0285823 0.0285787 0.0285485 0.0284918 0.0284084 0.0282984 0.0281618 0.0279986 0.0278088 0.027601 0.0273837 0.027157 0.0269209 0.0266754 0.0264205 0.0261561 0.0258823 0.0256024 0.0253196 0.025034 0.0247456 0.0244543 0.0241602 0.0238632 0.0235635 0.0232588 0.022947 0.0226283 0.0223025 0.0219697 0.0216299 0.021283 0.0209291 0.0205645 0.0201853 0.0197915 0.0193832 0.0189603 0.0185228 0.0180708 0.0176042 0.0171224 0.0166246 0.0161109 0.0155813 0.0150357 0.0144742 0.0138967 0.0133033 0.0126993 0.01209 0.0114756 0.0108559 0.010231 0.0096009 0.00896556 0.00832499 0.00769028 0.00707248 0.00647161 0.00588766 0.00532063 0.00477052 0.00423734 0.00372107 0.0032318 0.00277961 0.00236448 0.00198643 0.00164544 0.00134153 0.0010747 0.000844928 0.000646898 0.000475272 0.00033005 0.000211232 0.000118818 5.2808e-05 1.3202e-05 0 0 3.15351e-05 0.00012614 0.000283816 0.000504561 0.000788377 0.00113526 0.00154522 0.00201824 0.00255859 0.00317049 0.00385396 0.00460898 0.00543557 0.00633373 0.00730344 0.00834472 0.00942901 0.0105278 0.011641 0.0127687 0.0139108 0.0150674 0.0162385 0.017424 0.0185982 0.0197352 0.020835 0.0218975 0.0229229 0.0239111 0.0248621 0.0257759 0.0266421 0.0274499 0.0281996 0.0288911 0.0295244 0.0300994 0.0306163 0.0310749 0.0314786 0.0318308 0.0321314 0.0323805 0.032578 0.0327239 0.0328182 0.032861 0.0328627 0.0328337 0.0327741 0.0326838 0.0325628 0.0324113 0.032229 0.0320161 0.0317823 0.0315372 0.0312809 0.0310133 0.0307345 0.0304444 0.030143 0.0298304 0.0295103 0.0291866 0.0288591 0.0285279 0.028193 0.0278543 0.027512 0.027166 0.026814 0.0264537 0.0260851 0.0257083 0.0253232 0.0249299 0.0245283 0.0241184 0.0236961 0.0232572 0.0228017 0.0223296 0.021841 0.0213357 0.0208139 0.0202754 0.0197197 0.0191459 0.0185541 0.0179444 0.0173166 0.0166708 0.0160069 0.0153251 0.0146313 0.0139317 0.0132262 0.0125148 0.0117976 0.0110746 0.0103456 0.00961086 0.0088827 0.00817363 0.00748367 0.00681281 0.00616104 0.00552837 0.00491481 0.00432034 0.00375651 0.00323484 0.00275534 0.00231801 0.00192284 0.00156984 0.001259 0.000990336 0.000758226 0.000557064 0.00038685 0.000247584 0.000139266 6.1896e-05 1.5474e-05 0 0 3.63069e-05 0.000145228 0.000326762 0.000580911 0.000907673 0.00130705 0.00177904 0.00232364 0.00294476 0.00364627 0.00442818 0.0052905 0.00623321 0.00725633 0.00835985 0.00954377 0.0107758 0.0120237 0.0132875 0.0145672 0.0158627 0.0171741 0.0185013 0.0198444 0.0211745 0.0224627 0.023709 0.0249134 0.0260759 0.0271965 0.0282753 0.0293121 0.0302952 0.0312128 0.0320649 0.0328515 0.0335725 0.0342281 0.0348181 0.0353426 0.0358053 0.0362096 0.0365558 0.0368436 0.0370733 0.0372447 0.0373578 0.0374127 0.037421 0.0373943 0.0373326 0.037236 0.0371044 0.0369379 0.0367364 0.0364999 0.0362394 0.0359655 0.0356784 0.035378 0.0350644 0.0347375 0.0343973 0.0340438 0.0336814 0.0333142 0.0329423 0.0325658 0.0321845 0.0317984 0.0314077 0.0310122 0.0306096 0.0301974 0.0297755 0.029344 0.0289029 0.0284522 0.0279918 0.0275218 0.0270377 0.0265348 0.0260132 0.0254728 0.0249137 0.0243359 0.0237394 0.0231241 0.0224894 0.0218345 0.0211594 0.0204642 0.0197488 0.0190133 0.0182576 0.0174817 0.0166924 0.0158967 0.0150944 0.0142857 0.0134704 0.0126486 0.0118202 0.0109854 0.010158 0.00935193 0.00856723 0.0078039 0.00706192 0.00634131 0.00564206 0.00496417 0.00432072 0.00372482 0.00317645 0.00267562 0.00222232 0.00181657 0.00145834 0.00114766 0.000878678 0.000645559 0.000448305 0.000286915 0.00016139 7.17288e-05 1.79322e-05 0 0 4.13619e-05 0.000165448 0.000372257 0.000661791 0.00103405 0.00148903 0.00202673 0.00264716 0.00335373 0.00414986 0.00503555 0.0060108 0.0070756 0.00822997 0.00947389 0.0108074 0.0121942 0.0135984 0.0150197 0.0164583 0.017914 0.0193871 0.0208773 0.0223848 0.0238775 0.0253235 0.0267227 0.0280751 0.0293807 0.0306396 0.0318518 0.0330171 0.0341226 0.035155 0.0361144 0.0370008 0.0378141 0.0385543 0.0392216 0.0398158 0.0403408 0.0408007 0.0411955 0.0415251 0.0417895 0.0419887 0.0421228 0.0421917 0.0422082 0.0421853 0.0421228 0.0420209 0.0418795 0.0416985 0.0414781 0.0412181 0.0409307 0.0406277 0.0403094 0.0399755 0.0396261 0.0392613 0.038881 0.0384852 0.0380788 0.0376665 0.0372483 0.0368242 0.0363942 0.0359584 0.0355166 0.035069 0.0346129 0.0341457 0.0336675 0.0331781 0.0326776 0.032166 0.0316434 0.0311096 0.0305598 0.0299891 0.0293974 0.0287847 0.0281512 0.0274966 0.0268211 0.0261247 0.0254066 0.0246661 0.0239033 0.0231181 0.0223105 0.0214806 0.0206283 0.0197537 0.0188642 0.0179676 0.0170638 0.0161528 0.0152346 0.0143093 0.0133767 0.012437 0.0115054 0.0105976 0.00971344 0.00885293 0.0080161 0.00720293 0.00641343 0.0056476 0.00492017 0.00424587 0.0036247 0.00305666 0.00254175 0.00207997 0.00167132 0.00131581 0.00100742 0.000740142 0.000513987 0.000328952 0.000185035 8.2238e-05 2.05595e-05 0 0 4.67e-05 0.0001868 0.0004203 0.0007472 0.0011675 0.0016812 0.0022883 0.0029888 0.00378552 0.00468127 0.00567606 0.00676988 0.00796274 0.00925463 0.0106456 0.0121355 0.0136843 0.0152516 0.0168375 0.0184419 0.0200649 0.0217064 0.0233665 0.0250452 0.0267072 0.0283175 0.0298759 0.0313825 0.0328374 0.0342404 0.0355917 0.0368911 0.0381243 0.0392766 0.0403482 0.041339 0.042249 0.0430782 0.0438266 0.0444943 0.0450854 0.0456042 0.0460506 0.0464247 0.0467265 0.046956 0.0471131 0.0471979 0.0472245 0.0472067 0.0471447 0.0470384 0.0468879 0.0466931 0.046454 0.0461706 0.0458562 0.0455239 0.0451738 0.0448057 0.0444198 0.044016 0.0435943 0.0431547 0.0427026 0.0422433 0.0417768 0.0413031 0.0408222 0.0403341 0.0398388 0.0393363 0.0388239 0.0382988 0.037761 0.0372105 0.0366473 0.0360715 0.0354829 0.0348817 0.0342625 0.0336201 0.0329544 0.0322654 0.0315532 0.0308178 0.0300591 0.0292772 0.0284713 0.0276408 0.0267857 0.025906 0.0250017 0.0240728 0.0231193 0.0221411 0.0211467 0.0201445 0.0191343 0.0181163 0.0170904 0.0160567 0.015015 0.0139655 0.0129251 0.0119107 0.0109223 0.00995991 0.00902356 0.00811324 0.00722893 0.00637065 0.00555485 0.00479799 0.00410009 0.00346113 0.00288112 0.00236006 0.00189794 0.00149478 0.00114444 0.000840812 0.000583897 0.000373694 0.000210203 9.34235e-05 2.33559e-05 0 0 5.23212e-05 0.000209285 0.000470891 0.00083714 0.00130803 0.00188356 0.00256374 0.00334856 0.00424011 0.0052405 0.00634971 0.00756775 0.00889463 0.0103303 0.0118749 0.0135282 0.0152459 0.0169835 0.0187409 0.0205181 0.0223152 0.0241322 0.025969 0.0278256 0.0296637 0.0314447 0.0331688 0.0348358 0.0364459 0.0379989 0.0394949 0.040934 0.0423001 0.0435775 0.0447662 0.0458661 0.0468773 0.0477997 0.0486333 0.0493782 0.0500389 0.0506199 0.0511211 0.0515426 0.0518844 0.0521465 0.0523289 0.0524315 0.0524697 0.0524586 0.0523982 0.0522886 0.0521297 0.0519216 0.0516642 0.0513576 0.0510161 0.0506541 0.0502716 0.0498687 0.0494453 0.0490014 0.048537 0.0480522 0.0475528 0.0470447 0.0465279 0.0460025 0.0454684 0.0449256 0.0443742 0.0438141 0.0432425 0.0426565 0.042056 0.0414412 0.040812 0.0401685 0.0395105 0.0388381 0.0381457 0.0374277 0.0366841 0.0359149 0.03512 0.0342995 0.0334533 0.0325815 0.0316835 0.0307586 0.0298067 0.028828 0.0278223 0.0267898 0.0257303 0.024644 0.0235399 0.0224272 0.021306 0.0201762 0.0190378 0.0178908 0.0167352 0.0155711 0.0144169 0.0132911 0.0121938 0.0111248 0.0100843 0.00907222 0.00808855 0.0071333 0.00622475 0.00538119 0.00460262 0.00388903 0.00324044 0.00265683 0.0021382 0.00168457 0.00128975 0.000947569 0.000658034 0.000421142 0.000236892 0.000105285 2.63214e-05 0 0 5.82255e-05 0.000232902 0.00052403 0.000931609 0.00145564 0.00209612 0.00285305 0.00372643 0.00471751 0.00582754 0.0070565 0.00840441 0.00987127 0.0114571 0.0131618 0.0149855 0.0168792 0.018794 0.0207299 0.0226869 0.024665 0.0266642 0.0286846 0.030726 0.0327468 0.0347052 0.0366012 0.0384349 0.0402061 0.041915 0.0435616 0.0451457 0.0466502 0.0480578 0.0493684 0.0505821 0.0516989 0.0527187 0.0536416 0.0544676 0.0552014 0.0558479 0.056407 0.0568788 0.0572632 0.0575603 0.05777 0.0578924 0.0579438 0.0579408 0.0578833 0.0577714 0.0576049 0.057384 0.0571087 0.0567788 0.0564101 0.0560182 0.0556029 0.0551644 0.0547026 0.0542176 0.0537093 0.0531777 0.0526293 0.0520706 0.0515017 0.0509224 0.0503329 0.049733 0.0491229 0.0485024 0.0478687 0.0472188 0.0465527 0.0458703 0.0451718 0.044457 0.0437261 0.0429789 0.0422095 0.0414121 0.0405866 0.039733 0.0388514 0.0379416 0.0370038 0.0360378 0.0350432 0.0340194 0.0329663 0.031884 0.0307724 0.0296316 0.0284616 0.0272623 0.0260437 0.0248159 0.0235788 0.0223323 0.0210766 0.0198116 0.0185373 0.0172537 0.0159809 0.014739 0.0135279 0.0123477 0.0111984 0.0100799 0.0089923 0.00793556 0.00692989 0.00599546 0.00513229 0.00434037 0.00361969 0.00297027 0.0023921 0.00188518 0.00144334 0.00106041 0.000736399 0.000471295 0.000265104 0.000117824 2.9456e-05 0 0 6.4413e-05 0.000257652 0.000579717 0.00103061 0.00161032 0.00231887 0.00315624 0.00412243 0.00521773 0.0064424 0.00779644 0.00927986 0.0108927 0.0126348 0.0145064 0.0165073 0.018584 0.0206831 0.0228045 0.0249483 0.0271143 0.0293027 0.0315134 0.0337464 0.0359566 0.0380989 0.0401733 0.0421797 0.0441183 0.0459889 0.0477916 0.0495264 0.0511746 0.0527174 0.0541549 0.0554871 0.0567139 0.0578354 0.0588516 0.0597624 0.0605729 0.0612882 0.0619083 0.0624332 0.0628629 0.0631973 0.0634365 0.0635805 0.063647 0.0636535 0.0636001 0.0634868 0.0633136 0.0630805 0.0627874 0.062