<?xml version="1.0"?> 
<VTKFile type="StructuredGrid" version="0.1"> 
<StructuredGrid WholeExtent="0 128 0 128 0 0"> 
<Piece Extent="0 128 0 128 0 0"> 
<PointData>
<DataArray type="Float32" Name="u" format="ascii" NumberOfComponents="1"> 
0 0 0 0 0 0 0 0 0 0 0 0 0 0 0 0 0 0 0 0 0 0 0 0 0 0 0 0 0 0 0 0 0 0 0 0 0 0 0 0 0 0 0 0 0 0 0 0 0 0 0 0 0 0 0 0 0 0 0 0 0 0 0 0 0 0 0 0 0 0 0 0 0 0 0 0 0 0 0 0 0 0 0 0 0 0 0 0 0 0 0 0 0 0 0 0 0 0 0 0 0 0 0 0 0 0 0 0 0 0 0 0 0 0 0 0 0 0 0 0 0 0 0 0 0 0 0 0 0 0 6.76911e-07 2.70765e-06 6.0922e-06 1.08306e-05 1.69228e-05 2.43688e-05 3.31687e-05 4.33223e-05 5.50311e-05 6.84963e-05 8.3718e-05 0.000100696 0.000119431 0.000139921 0.000162169 0.000186172 0.000211284 0.000236854 0.000262884 0.000289372 0.000316319 0.000343725 0.00037159 0.000399914 0.000428064 0.000455404 0.000481936 0.00050766 0.000532574 0.000556681 0.000579978 0.000602467 0.000623819 0.000643708 0.000662132 0.000679091 0.000694587 0.000708618 0.000721185 0.000732287 0.000741884 0.000749933 0.000756434 0.000761387 0.000764793 0.00076665 0.00076696 0.000765722 0.000763098 0.000759252 0.000754184 0.000747893 0.000740379 0.000731642 0.000721683 0.000710502 0.00069836 0.000685519 0.000671981 0.000657744 0.000642809 0.000627175 0.000610844 0.000593814 0.000576351 0.000558719 0.000540918 0.000522949 0.000504812 0.000486506 0.000468031 0.000449387 0.000430777 0.0004124 0.000394257 0.000376348 0.000358674 0.000341233 0.000324026 0.000307053 0.000290425 0.000274254 0.00025854 0.000243282 0.00022848 0.000214136 0.000200248 0.000186816 0.000173872 0.000161444 0.000149534 0.000138141 0.000127265 0.000116907 0.000107065 9.77412e-05 8.89133e-05 8.05604e-05 7.26825e-05 6.52797e-05 5.8352e-05 5.18994e-05 4.59218e-05 4.04193e-05 3.53475e-05 3.06622e-05 2.63633e-05 2.24509e-05 1.8925e-05 1.57855e-05 1.30324e-05 1.06658e-05 8.61282e-06 6.80072e-06 5.22948e-06 3.89909e-06 2.80956e-06 1.96089e-06 1.35308e-06 9.86118e-07 7.54997e-07 5.54692e-07 3.85203e-07 2.4653e-07 1.38673e-07 6.16324e-08 1.54081e-08 0 0 2.70765e-06 1.08306e-05 2.43688e-05 4.33223e-05 6.76911e-05 9.74752e-05 0.000132675 0.000173289 0.000220125 0.000273985 0.000334872 0.000402784 0.000477722 0.000559686 0.000648675 0.00074469 0.000845136 0.000947417 0.00105153 0.00115749 0.00126528 0.0013749 0.00148636 0.00159966 0.00171225 0.00182162 0.00192775 0.00203064 0.0021303 0.00222672 0.00231991 0.00240987 0.00249528 0.00257483 0.00264853 0.00271636 0.00277835 0.00283447 0.00288474 0.00292915 0.00296754 0.00299973 0.00302574 0.00304555 0.00305917 0.0030666 0.00306784 0.00306289 0.00305239 0.00303701 0.00301674 0.00299157 0.00296152 0.00292657 0.00288673 0.00284201 0.00279344 0.00274208 0.00268792 0.00263097 0.00257123 0.0025087 0.00244337 0.00237526 0.0023054 0.00223488 0.00216367 0.0020918 0.00201925 0.00194602 0.00187212 0.00179755 0.00172311 0.0016496 0.00157703 0.00150539 0.00143469 0.00136493 0.0012961 0.00122821 0.0011617 0.00109702 0.00103416 0.000973127 0.000913922 0.000856543 0.000800991 0.000747265 0.000695486 0.000645777 0.000598136 0.000552564 0.000509061 0.000467627 0.000428261 0.000390965 0.000355653 0.000322241 0.00029073 0.000261119 0.000233408 0.000207598 0.000183687 0.000161677 0.00014139 0.000122649 0.000105453 8.98037e-05 7.56998e-05 6.31418e-05 5.21296e-05 4.26631e-05 3.44513e-05 2.72029e-05 2.09179e-05 1.55964e-05 1.12383e-05 7.84357e-06 5.41231e-06 3.94447e-06 3.01999e-06 2.21877e-06 1.54081e-06 9.86118e-07 5.54692e-07 2.4653e-07 6.16324e-08 0 0 6.0922e-06 2.43688e-05 5.48298e-05 9.74752e-05 0.000152305 0.000219319 0.000298518 0.000389901 0.00049528 0.000616467 0.000753462 0.000906264 0.00107487 0.00125929 0.00145952 0.00167555 0.00190156 0.00213169 0.00236595 0.00260435 0.00284687 0.00309353 0.00334431 0.00359923 0.00385257 0.00409864 0.00433743 0.00456894 0.00479317 0.00501012 0.0052198 0.0054222 0.00561437 0.00579337 0.00595918 0.00611182 0.00625128 0.00637756 0.00649066 0.00659059 0.00667696 0.0067494 0.00680791 0.00685248 0.00688313 0.00689985 0.00690264 0.00689149 0.00686789 0.00683327 0.00678765 0.00673103 0.00666341 0.00658478 0.00649515 0.00639452 0.00628524 0.00616967 0.00604783 0.00591969 0.00578528 0.00564458 0.00549759 0.00534433 0.00518716 0.00502847 0.00486827 0.00470654 0.00454331 0.00437855 0.00421228 0.00404449 0.00387699 0.0037116 0.00354831 0.00338714 0.00322806 0.00307109 0.00291623 0.00276348 0.00261383 0.00246829 0.00232686 0.00218954 0.00205632 0.00192722 0.00180223 0.00168135 0.00156484 0.001453 0.00134581 0.00124327 0.00114539 0.00105216 0.000963588 0.000879671 0.000800219 0.000725043 0.000654143 0.000587518 0.000525168 0.000467094 0.000413296 0.000363773 0.000318128 0.00027596 0.00023727 0.000202058 0.000170325 0.000142069 0.000117292 9.5992e-05 7.75154e-05 6.12065e-05 4.70653e-05 3.50918e-05 2.52861e-05 1.7648e-05 1.21777e-05 8.87507e-06 6.79497e-06 4.99222e-06 3.46682e-06 2.21877e-06 1.24806e-06 5.54692e-07 1.38673e-07 0 0 1.08306e-05 4.33223e-05 9.74752e-05 0.000173289 0.000270765 0.000389901 0.000530699 0.000693157 0.000880498 0.00109594 0.00133949 0.00161114 0.00191089 0.00223874 0.0025947 0.00297876 0.00338054 0.00378967 0.00420614 0.00462995 0.00506111 0.0054996 0.00594545 0.00639863 0.00684902 0.00728647 0.00771098 0.00812255 0.00852119 0.00890689 0.00927965 0.00963947 0.00998111 0.0102993 0.0105941 0.0108655 0.0111134 0.0113379 0.011539 0.0117166 0.0118701 0.0119989 0.0121029 0.0121822 0.0122367 0.0122664 0.0122714 0.0122515 0.0122096 0.012148 0.0120669 0.0119663 0.0118461 0.0117063 0.0115469 0.011368 0.0111738 0.0109683 0.0107517 0.0105239 0.0102849 0.0100348 0.0097735 0.00950102 0.00922161 0.0089395 0.00865469 0.00836719 0.00807699 0.00778409 0.00748849 0.0071902 0.00689243 0.0065984 0.00630811 0.00602157 0.00573878 0.00545972 0.00518441 0.00491285 0.0046468 0.00438807 0.00413663 0.00389251 0.00365569 0.00342617 0.00320396 0.00298906 0.00278194 0.00258311 0.00239254 0.00221026 0.00203624 0.00187051 0.00171305 0.00156386 0.00142261 0.00128897 0.00116292 0.00104448 0.000933632 0.00083039 0.000734749 0.000646708 0.00056556 0.000490595 0.000421813 0.000359215 0.000302799 0.000252567 0.000208518 0.000170652 0.000137805 0.000108812 8.36717e-05 6.23855e-05 4.4953e-05 3.13743e-05 2.16492e-05 1.57779e-05 1.208e-05 8.87507e-06 6.16324e-06 3.94447e-06 2.21877e-06 9.86118e-07 2.4653e-07 0 0 1.69228e-05 6.76911e-05 0.000152305 0.000270765 0.00042307 0.00060922 0.000829217 0.00108306 0.00137578 0.00171241 0.00209295 0.0025174 0.00298576 0.00349804 0.00405422 0.00465431 0.0052821 0.00592136 0.00657209 0.0072343 0.00790798 0.00859313 0.00928976 0.00999786 0.0107016 0.0113851 0.0120484 0.0126915 0.0133144 0.013917 0.0144995 0.0150617 0.0155955 0.0160927 0.0165533 0.0169773 0.0173647 0.0177154 0.0180296 0.0183072 0.0185471 0.0187483 0.0189108 0.0190347 0.0191198 0.0191663 0.019174 0.019143 0.0190775 0.0189813 0.0188546 0.0186973 0.0185095 0.0182911 0.0180421 0.0177625 0.017459 0.017138 0.0167995 0.0164436 0.0160702 0.0156794 0.0152711 0.0148453 0.0144088 0.013968 0.013523 0.0130737 0.0126203 0.0121626 0.0117008 0.0112347 0.0107694 0.01031 0.00985643 0.00940871 0.00896684 0.00853082 0.00810064 0.00767632 0.00726063 0.00685635 0.00646349 0.00608204 0.00571201 0.00535339 0.00500619 0.0046704 0.00434679 0.0040361 0.00373835 0.00345352 0.00318163 0.00292267 0.00267663 0.00244353 0.00222283 0.00201401 0.00181706 0.00163199 0.0014588 0.00129748 0.00114804 0.00101048 0.000883688 0.000766555 0.000659083 0.000561273 0.000473124 0.000394636 0.00032581 0.000266644 0.000215321 0.000170018 0.000130737 9.74773e-05 7.02391e-05 4.90223e-05 3.38269e-05 2.4653e-05 1.88749e-05 1.38673e-05 9.63006e-06 6.16324e-06 3.46682e-06 1.54081e-06 3.85203e-07 0 0 2.43688e-05 9.74752e-05 0.000219319 0.000389901 0.00060922 0.000877277 0.00119407 0.0015596 0.00198112 0.00246587 0.00301385 0.00362506 0.0042995 0.00503717 0.00583807 0.00670221 0.00760622 0.00852675 0.00946381 0.0104174 0.0113875 0.0123741 0.0133773 0.0143969 0.0154103 0.0163946 0.0173497 0.0182757 0.0191727 0.0200405 0.0208792 0.0216888 0.0224575 0.0231735 0.0238367 0.0244473 0.0250051 0.0255102 0.0259627 0.0263623 0.0267078 0.0269976 0.0272316 0.0274099 0.0275325 0.0275994 0.0276106 0.027566 0.0274715 0.0273331 0.0271506 0.0269241 0.0266536 0.0263391 0.0259806 0.0255781 0.0251409 0.0246787 0.0241913 0.0236788 0.0231411 0.0225783 0.0219904 0.0213773 0.0207486 0.0201139 0.0194731 0.0188262 0.0181732 0.0175142 0.0168491 0.0161779 0.015508 0.0148464 0.0141933 0.0135485 0.0129122 0.0122844 0.0116649 0.0110539 0.0104553 0.00987315 0.00930743 0.00875814 0.0082253 0.00770889 0.00720891 0.00672538 0.00625937 0.00581199 0.00538322 0.00497308 0.00458155 0.00420864 0.00385435 0.00351868 0.00320088 0.00290017 0.00261657 0.00235007 0.00210067 0.00186838 0.00165318 0.00145509 0.00127251 0.00110384 0.00094908 0.000808233 0.000681299 0.000568276 0.000469166 0.000383968 0.000310062 0.000244826 0.000188261 0.000140367 0.000101144 7.05921e-05 4.87108e-05 3.55003e-05 2.71799e-05 1.99689e-05 1.38673e-05 8.87507e-06 4.99222e-06 2.21877e-06 5.54692e-07 0 0 3.31687e-05 0.000132675 0.000298518 0.000530699 0.000829217 0.00119407 0.00162526 0.00212279 0.00269653 0.00335632 0.00410218 0.00493411 0.0058521 0.00685615 0.00794627 0.00912245 0.0103529 0.0116059 0.0128813 0.0141792 0.0154996 0.0168425 0.0182079 0.0195958 0.0209751 0.0223148 0.0236149 0.0248753 0.0260961 0.0272773 0.0284189 0.0295209 0.0305671 0.0315417 0.0324444 0.0332755 0.0340347 0.0347223 0.0353381 0.0358821 0.0363523 0.0367467 0.0370653 0.037308 0.0374748 0.0375659 0.037581 0.0375204 0.0373918 0.0372034 0.036955 0.0366467 0.0362786 0.0358505 0.0353625 0.0348146 0.0342196 0.0335904 0.032927 0.0322294 0.0314976 0.0307316 0.0299313 0.0290969 0.0282412 0.0273772 0.026505 0.0256245 0.0247358 0.0238388 0.0229335 0.02202 0.0211081 0.0202076 0.0193186 0.0184411 0.017575 0.0167204 0.0158773 0.0150456 0.0142308 0.0134385 0.0126684 0.0119208 0.0111955 0.0104927 0.00981213 0.00915399 0.0085197 0.00791076 0.00732716 0.00676891 0.006236 0.00572843 0.0052462 0.00478932 0.00435675 0.00394746 0.00356144 0.00319871 0.00285925 0.00254307 0.00225017 0.00198054 0.00173203 0.00150245 0.0012918 0.0011001 0.000927323 0.000773487 0.000638587 0.000522623 0.000422028 0.000333235 0.000256244 0.000191056 0.000137669 9.60837e-05 6.63008e-05 4.83198e-05 3.69949e-05 2.71799e-05 1.88749e-05 1.208e-05 6.79497e-06 3.01999e-06 7.54997e-07 0 0 4.33223e-05 0.000173289 0.000389901 0.000693157 0.00108306 0.0015596 0.00212279 0.00277263 0.00352199 0.00438377 0.00535795 0.00644455 0.00764355 0.00895497 0.0103788 0.011915 0.0135222 0.0151587 0.0168246 0.0185198 0.0202444 0.0219984 0.0237818 0.0255945 0.0273961 0.0291459 0.0308439 0.0324902 0.0340848 0.0356276 0.0371186 0.0385579 0.0399244 0.0411973 0.0423764 0.0434618 0.0444535 0.0453515 0.0461558 0.0468664 0.0474806 0.0479957 0.0484118 0.0487288 0.0489467 0.0490656 0.0490854 0.0490062 0.0488383 0.0485922 0.0482678 0.0478651 0.0473842 0.0468251 0.0461877 0.0454721 0.044695 0.0438732 0.0430068 0.0420956 0.0411398 0.0401392 0.039094 0.0380041 0.0368864 0.035758 0.0346188 0.0334688 0.032308 0.0311364 0.029954 0.0287608 0.0275697 0.0263936 0.0252325 0.0240863 0.0229551 0.0218389 0.0207376 0.0196514 0.0185872 0.0175523 0.0165465 0.01557 0.0146227 0.0137047 0.0128158 0.0119562 0.0111278 0.0103324 0.00957017 0.00884102 0.00814497 0.00748203 0.00685218 0.00625544 0.00569045 0.00515586 0.00465168 0.0041779 0.00373453 0.00332156 0.00293899 0.00258683 0.00226224 0.00196238 0.00168725 0.00143686 0.0012112 0.00101027 0.000834073 0.00068261 0.000551221 0.000435246 0.000334687 0.000249542 0.000179812 0.000125497 8.65969e-05 6.31116e-05 4.83198e-05 3.55003e-05 2.4653e-05 1.57779e-05 8.87507e-06 3.94447e-06 9.86118e-07 0 0 5.51116e-05 0.000220446 0.000496004 0.000881785 0.00137779 0.00198402 0.00270047 0.00352714 0.00447982 0.0055743 0.00681057 0.00818864 0.0097085 0.0113702 0.0131736 0.0151188 0.0171534 0.0192248 0.0213331 0.0234783 0.0256603 0.0278792 0.0301349 0.0324275 0.0347058 0.0369187 0.0390662 0.0411482 0.0431648 0.045116 0.0470017 0.0488221 0.0505505 0.0521604 0.053652 0.0550251 0.0562798 0.057416 0.0584339 0.0593333 0.0601109 0.0607632 0.0612904 0.0616923 0.0619689 0.0621203 0.0621465 0.0620475 0.0618364 0.0615263 0.0611172 0.0606091 0.060002 0.059296 0.0584909 0.0575869 0.0566051 0.0555667 0.0544717 0.0533201 0.0521118 0.050847 0.0495256 0.0481475 0.0467343 0.0453074 0.0438666 0.0424121 0.0409439 0.0394619 0.0379661 0.0364566 0.0349496 0.0334614 0.0319921 0.0305417 0.0291101 0.0276973 0.0263033 0.0249282 0.023581 0.0222706 0.0209972 0.0197607 0.0185611 0.0173983 0.0162725 0.0151836 0.014134 0.0131263 0.0121605 0.0112365 0.0103543 0.009514 0.00871554 0.00795894 0.00724248 0.00656449 0.00592495 0.00532388 0.00476126 0.0042371 0.0037514 0.00330415 0.00289178 0.0025107 0.0021609 0.00184239 0.00155516 0.00129922 0.00107456 0.000881189 0.000713239 0.000564844 0.000436004 0.00032672 0.000236992 0.000166819 0.000116201 8.51385e-05 6.51841e-05 4.78904e-05 3.32572e-05 2.12846e-05 1.19726e-05 5.32116e-06 1.33029e-06 0 0 6.88182e-05 0.000275273 0.000619364 0.00110109 0.00172045 0.00247745 0.00337209 0.00440436 0.00559232 0.00695402 0.00848946 0.0101986 0.0120816 0.0141382 0.0163686 0.0187727 0.0212861 0.023844 0.0264466 0.0290939 0.0317857 0.0345223 0.0373034 0.0401292 0.0429371 0.0456643 0.048311 0.0508771 0.0533626 0.0557675 0.0580919 0.0603357 0.0624663 0.0644512 0.0662904 0.0679839 0.0695317 0.0709338 0.0721901 0.0733008 0.0742615 0.075068 0.0757202 0.0762183 0.0765621 0.0767518 0.0767872 0.0766684 0.0764115 0.0760325 0.0755314 0.0749083 0.0741632 0.0732959 0.0723066 0.0711952 0.0699878 0.0687104 0.067363 0.0659456 0.0644582 0.0629007 0.0612733 0.0595759 0.0578348 0.0560764 0.0543008 0.0525079 0.0506977 0.0488703 0.0470255 0.0451636 0.0433044 0.0414682 0.039655 0.0378647 0.0360973 0.0343529 0.0326315 0.030933 0.0292687 0.0276497 0.026076 0.0245476 0.0230646 0.0216269 0.0202345 0.0188875 0.0175889 0.0163418 0.0151462 0.0140023 0.0129098 0.0118689 0.0108795 0.00994171 0.00905336 0.00821244 0.00741893 0.00667285 0.00597418 0.00532293 0.00471911 0.0041627 0.0036493 0.00317447 0.00273821 0.00234054 0.00198144 0.00166093 0.00137899 0.00113562 0.000923683 0.000736014 0.000572615 0.000433485 0.000318625 0.000228035 0.000161714 0.000119663 9.16173e-05 6.73107e-05 4.67435e-05 2.99158e-05 1.68277e-05 7.47896e-06 1.86974e-06 0 0 8.44421e-05 0.000337769 0.000759979 0.00135107 0.00211105 0.00303992 0.00413766 0.0054043 0.00685949 0.00852293 0.0103946 0.0124746 0.0147627 0.0172591 0.0199638 0.0228767 0.0259201 0.0290162 0.032165 0.0353665 0.0386207 0.0419277 0.0452873 0.0486997 0.0520898 0.0553827 0.0585783 0.0616768 0.0646781 0.0675822 0.070389 0.0730987 0.075672 0.0780697 0.0802918 0.0823383 0.0842093 0.0859048 0.0874246 0.0887689 0.0899324 0.0909099 0.0917014 0.0923069 0.0927264 0.0929599 0.0930074 0.0928689 0.0925636 0.0921109 0.0915106 0.0907629 0.0898677 0.088825 0.0876348 0.0862971 0.0848433 0.0833045 0.0816808 0.0799723 0.0781788 0.0763004 0.0743372 0.072289 0.0701878 0.0680652 0.0659212 0.063756 0.0615694 0.0593615 0.0571323 0.0548817 0.0526341 0.0504139 0.0482209 0.0460553 0.0439169 0.0418059 0.0397222 0.0376658 0.0356503 0.0336893 0.0317828 0.0299309 0.0281334 0.0263904 0.0247019 0.0230679 0.0214923 0.0199788 0.0185275 0.0171384 0.0158115 0.0145467 0.0133441 0.0122037 0.0111231 0.0100997 0.00913361 0.00822481 0.00737329 0.00657907 0.00584213 0.00516248 0.00453477 0.00395368 0.0034192 0.00293132 0.00249005 0.0020954 0.00174735 0.00144591 0.00118255 0.000948757 0.000744517 0.000569835 0.000424711 0.000309145 0.000223137 0.000166686 0.000127619 9.3761e-05 6.51118e-05 4.16716e-05 2.34403e-05 1.04179e-05 2.60447e-06 0 0 0.000101983 0.000407934 0.000917851 0.00163174 0.00254959 0.0036714 0.00499719 0.00652694 0.00828133 0.010281 0.012526 0.0150164 0.017752 0.020733 0.0239592 0.0274308 0.0310556 0.0347414 0.0384883 0.0422963 0.0461653 0.0500954 0.0540866 0.0581388 0.0621639 0.0660737 0.0698682 0.0735474 0.0771113 0.0805599 0.0838932 0.0871111 0.0901674 0.0930157 0.095656 0.0980883 0.100313 0.102329 0.104137 0.105738 0.107124 0.108289 0.109234 0.109958 0.110462 0.110745 0.110807 0.110649 0.110293 0.109761 0.109055 0.108173 0.107116 0.105883 0.104476 0.102893 0.101171 0.0993488 0.0974251 0.0954 0.0932737 0.0910461 0.0887172 0.0862871 0.0837933 0.0812736 0.078728 0.0761565 0.073559 0.0709356 0.0682863 0.065611 0.0629388 0.0602984 0.05769 0.0551135 0.0525689 0.0500562 0.0475754 0.0451266 0.0427259 0.0403896 0.0381178 0.0359104 0.0337674 0.0316888 0.0296747 0.0277249 0.0258443 0.0240374 0.0223043 0.0206449 0.0190593 0.0175475 0.0161094 0.0147451 0.0134516 0.0122263 0.011069 0.00997977 0.0089586 0.0080055 0.00712046 0.00630348 0.00554822 0.00484834 0.00420384 0.00361473 0.00308099 0.00260263 0.00217965 0.00181205 0.00148985 0.00120307 0.000951712 0.000735772 0.000555251 0.00041015 0.000300469 0.000226207 0.00017319 0.000127242 8.83622e-05 5.65518e-05 3.18104e-05 1.4138e-05 3.53449e-06 0 0 0.000121442 0.000485768 0.00109298 0.00194307 0.00303605 0.00437192 0.00595066 0.00777229 0.00985784 0.0122283 0.0148837 0.0178241 0.0210494 0.0245596 0.0283548 0.032435 0.0366924 0.0410196 0.0454165 0.0498831 0.0544194 0.0590254 0.0637012 0.0684467 0.0731596 0.0777376 0.0821807 0.0864889 0.0906623 0.0947007 0.0986043 0.102373 0.105953 0.109289 0.112383 0.115234 0.117842 0.120206 0.122328 0.124207 0.125835 0.127205 0.128318 0.129172 0.129768 0.130106 0.130186 0.130008 0.129599 0.128984 0.128164 0.127138 0.125907 0.124471 0.122829 0.120982 0.118972 0.116843 0.114596 0.112229 0.109743 0.107138 0.104413 0.10157 0.0986514 0.0957018 0.0927211 0.0897093 0.0866665 0.0835926 0.0804876 0.0773516 0.0742184 0.0711219 0.0680622 0.0650393 0.0620532 0.0591038 0.0561912 0.0533153 0.0504954 0.0477506 0.0450808 0.0424862 0.0399666 0.0375222 0.0351528 0.0328585 0.0306449 0.0285176 0.0264766 0.0245218 0.0226533 0.0208712 0.0191753 0.0175657 0.0160391 0.0145922 0.0132251 0.0119377 0.0107301 0.00960222 0.00855409 0.0075857 0.00668963 0.00585845 0.00509216 0.00439076 0.00375424 0.00318262 0.00267589 0.00223405 0.00184557 0.00149896 0.0011942 0.000931294 0.000710244 0.00053105 0.00039371 0.000298226 0.000228329 0.000167752 0.000116495 7.45565e-05 4.19381e-05 1.86391e-05 4.65978e-06 0 0 0.000142818 0.000571272 0.00128536 0.00228509 0.00357045 0.00514145 0.00699809 0.00914036 0.011589 0.0143648 0.0174677 0.0208977 0.0246549 0.0287392 0.0331506 0.0378892 0.0428307 0.0478508 0.0529495 0.058127 0.063383 0.0687178 0.0741312 0.0796233 0.0850767 0.0903742 0.0955157 0.100501 0.105331 0.110005 0.114522 0.118884 0.123028 0.126891 0.130473 0.133775 0.136796 0.139537 0.141997 0.144177 0.146067 0.147659 0.148953 0.149948 0.150645 0.151044 0.151145 0.150948 0.150482 0.149779 0.148838 0.147659 0.146242 0.144587 0.142694 0.140564 0.138245 0.135788 0.133193 0.130459 0.127586 0.124575 0.121426 0.118138 0.114762 0.11135 0.1079 0.104415 0.100892 0.0973324 0.0937362 0.0901033 0.0864728 0.0828843 0.0793376 0.0758328 0.0723698 0.0689487 0.0655695 0.0622321 0.0589589 0.0557722 0.052672 0.0496583 0.0467311 0.0438905 0.0411363 0.0384686 0.0358941 0.0334193 0.0310443 0.0287691 0.0265935 0.0245178 0.0225418 0.0206655 0.0188853 0.0171974 0.0156019 0.0140987 0.0126878 0.0113692 0.010143 0.00900915 0.00795901 0.00698401 0.00608414 0.00525941 0.00450983 0.00383538 0.00323607 0.00271189 0.00224972 0.00183642 0.00147198 0.0011564 0.000889691 0.000671844 0.000502861 0.000382743 0.000293038 0.000215293 0.000149509 9.56858e-05 5.38232e-05 2.39214e-05 5.98036e-06 0 0 0.000166111 0.000664446 0.001495 0.00265778 0.00415279 0.00598001 0.00813946 0.0106311 0.0134749 0.0166905 0.0202779 0.0242373 0.0285685 0.0332717 0.0383467 0.0437935 0.0494703 0.055235 0.0610875 0.0670279 0.0730563 0.0791725 0.0853766 0.0916686 0.0979153 0.103984 0.109873 0.115585 0.121117 0.126472 0.131648 0.136645 0.141393 0.14582 0.149926 0.153712 0.157177 0.160321 0.163144 0.165647 0.167819 0.16965 0.171139 0.172287 0.173094 0.173559 0.173683 0.173466 0.172942 0.172146 0.171076 0.169734 0.16812 0.166233 0.164073 0.16164 0.158992 0.156184 0.153216 0.15009 0.146804 0.143359 0.139754 0.13599 0.132125 0.128217 0.124266 0.120272 0.116235 0.112155 0.108032 0.103866 0.0997023 0.0955856 0.0915161 0.0874938 0.0835188 0.0795909 0.0757102 0.0718768 0.0681163 0.0644544 0.0608912 0.0574267 0.0540608 0.0507937 0.0476252 0.0445553 0.0415919 0.0387427 0.0360076 0.0333867 0.0308799 0.0284873 0.0262089 0.0240447 0.0219904 0.020042 0.0181994 0.0164626 0.0148317 0.0133066 0.0118873 0.0105738 0.00935636 0.00822501 0.00717979 0.0062207 0.00534773 0.00456089 0.00386018 0.0032456 0.0027023 0.00221545 0.00178505 0.0014111 0.00109359 0.000832532 0.000627921 0.000479758 0.000367315 0.000269864 0.000187405 0.00011994 6.7466e-05 2.99849e-05 7.49622e-06 0 0 0.000191322 0.000765288 0.0017219 0.00306115 0.00478305 0.0068876 0.00937478 0.0122446 0.0155154 0.0192053 0.0233144 0.0278428 0.0327903 0.038157 0.0439429 0.050148 0.0566114 0.0631722 0.0698304 0.076586 0.083439 0.0903895 0.0974373 0.104583 0.111675 0.118566 0.125253 0.131739 0.138022 0.144102 0.14998 0.155655 0.161048 0.166077 0.170742 0.175044 0.178983 0.182558 0.18577 0.188618 0.191091 0.193177 0.194876 0.196188 0.197113 0.197651 0.197801 0.197565 0.19698 0.196085 0.19488 0.193366 0.191541 0.189407 0.186963 0.18421 0.18121 0.178029 0.174666 0.171122 0.167396 0.163488 0.159399 0.155128 0.150741 0.146304 0.141818 0.137282 0.132696 0.128061 0.123375 0.11864 0.113907 0.109226 0.104598 0.100023 0.0955001 0.0910304 0.0866135 0.0822495 0.0779676 0.0737973 0.0697385 0.0657914 0.0619558 0.0582318 0.0546194 0.0511186 0.0477383 0.0444875 0.0413663 0.0383746 0.0355124 0.0327798 0.0301767 0.0277031 0.0253543 0.0231258 0.0210176 0.0190296 0.0171618 0.0154142 0.0137868 0.0122797 0.0108817 0.00958146 0.00837911 0.0072746 0.00626796 0.00535917 0.00454823 0.00383515 0.0032033 0.00263606 0.00213341 0.00169538 0.00132194 0.00101312 0.000768891 0.000589271 0.000451161 0.000331465 0.000230184 0.000147318 8.28662e-05 3.68294e-05 9.20736e-06 0 0 0.000217946 0.000871785 0.00196152 0.00348714 0.00544866 0.00784606 0.0106794 0.0139486 0.0176698 0.0218594 0.0265172 0.0316432 0.0372376 0.0433001 0.049831 0.0568301 0.0641168 0.0715105 0.0790111 0.0866187 0.0943332 0.102155 0.110083 0.118119 0.126094 0.133841 0.141361 0.148653 0.155718 0.162555 0.169165 0.175547 0.181612 0.187268 0.192517 0.197357 0.20179 0.205815 0.209433 0.212642 0.21543 0.217783 0.219702 0.221185 0.222234 0.222848 0.223028 0.222772 0.222125 0.22113 0.219785 0.218093 0.216052 0.213662 0.210924 0.207837 0.204473 0.200905 0.197131 0.193153 0.188969 0.18458 0.179986 0.175188 0.170258 0.165271 0.160227 0.155126 0.149969 0.144754 0.139482 0.134153 0.128825 0.123556 0.118345 0.113192 0.108098 0.103062 0.0980851 0.0931664 0.0883393 0.0836372 0.0790601 0.0746079 0.0702806 0.0660783 0.0620009 0.0580484 0.0542312 0.0505595 0.0470333 0.0436525 0.0404173 0.0373276 0.0343834 0.0315847 0.0289263 0.0264032 0.0240153 0.0217627 0.0196453 0.0176631 0.0158162 0.0141045 0.0125155 0.0110365 0.0096677 0.00840895 0.00726028 0.0062217 0.0052932 0.0044748 0.00374805 0.00309451 0.00251417 0.00200705 0.00157315 0.00121245 0.00092496 0.000710683 0.000544117 0.000399759 0.000277611 0.000177671 9.99399e-05 4.44177e-05 1.11044e-05 0 0 0.00024548 0.00098192 0.00220932 0.00392768 0.006137 0.00883728 0.0120285 0.0157107 0.0198975 0.0246027 0.0298261 0.0355678 0.0418278 0.0486061 0.0559027 0.0637176 0.0718497 0.0800981 0.0884628 0.0969437 0.105541 0.114254 0.123084 0.13203 0.140907 0.149531 0.157901 0.166018 0.173882 0.181493 0.18885 0.195954 0.202704 0.209002 0.214846 0.220237 0.225175 0.22966 0.233692 0.23727 0.24038 0.243007 0.245151 0.246811 0.247988 0.248682 0.248892 0.248619 0.247911 0.246814 0.245329 0.243457 0.241196 0.238547 0.235511 0.232086 0.228353 0.22439 0.220199 0.215779 0.211129 0.206251 0.201143 0.195807 0.190324 0.184776 0.179164 0.173487 0.167745 0.161939 0.156069 0.150134 0.144198 0.138327 0.132519 0.126776 0.121097 0.115482 0.109931 0.104444 0.0990581 0.0938108 0.088702 0.0837316 0.0788998 0.0742064 0.0696514 0.0652349 0.0609686 0.056864 0.0529211 0.0491401 0.0455207 0.0420632 0.0387674 0.0356334 0.0326555 0.0298282 0.0271514 0.0246252 0.0222495 0.0200244 0.0179498 0.0160258 0.0142383 0.0125735 0.0110312 0.00961152 0.00831445 0.00713996 0.00608807 0.00515878 0.00433186 0.00358707 0.00292444 0.00234394 0.00184559 0.00142938 0.00109532 0.000843397 0.000645726 0.000474411 0.000329452 0.000210849 0.000118603 5.27123e-05 1.31781e-05 0 0 0.000273923 0.00109569 0.00246531 0.00438277 0.00684808 0.00986123 0.0134222 0.0175311 0.0221985 0.0274352 0.0332412 0.0396165 0.046561 0.0540749 0.062158 0.0708104 0.0798101 0.0889351 0.0981853 0.107561 0.117062 0.126688 0.136439 0.146316 0.156115 0.165634 0.174874 0.183834 0.192514 0.200914 0.209034 0.216875 0.224326 0.231278 0.23773 0.243683 0.249137 0.254091 0.258547 0.262503 0.265943 0.26885 0.271224 0.273066 0.274375 0.275151 0.275395 0.275106 0.274336 0.273138 0.271512 0.269458 0.266975 0.264064 0.260724 0.256956 0.252848 0.248486 0.24387 0.239 0.233877 0.2285 0.22287 0.216986 0.210939 0.20482 0.198628 0.192364 0.186027 0.179617 0.173135 0.166581 0.160025 0.153539 0.147122 0.140775 0.134497 0.128289 0.122151 0.116082 0.110124 0.104318 0.0986642 0.0931627 0.0878133 0.0826161 0.077571 0.0726781 0.0679504 0.063401 0.0590299 0.0548372 0.0508227 0.0469866 0.0433287 0.0398492 0.0365419 0.0334008 0.0304259 0.0276171 0.0249744 0.022498 0.0201877 0.0180436 0.0160502 0.0141922 0.0124696 0.0108823 0.00943047 0.00811397 0.00693284 0.00588709 0.00495472 0.00411376 0.0033642 0.00270604 0.00213928 0.00166392 0.00127996 0.000987411 0.000755986 0.000555419 0.000385707 0.000246853 0.000138855 6.17132e-05 1.54283e-05 0 0 0.000303276 0.0012131 0.00272948 0.00485242 0.0075819 0.0109179 0.0148605 0.0194097 0.0245727 0.030357 0.0367625 0.0437892 0.0514372 0.0597064 0.0685969 0.0781086 0.0879979 0.0980213 0.108179 0.11847 0.128896 0.139455 0.150149 0.160977 0.171718 0.182152 0.192279 0.2021 0.211613 0.220819 0.229718 0.23831 0.246476 0.254095 0.261168 0.267695 0.273676 0.27911 0.283998 0.28834 0.292117 0.295311 0.297922 0.29995 0.301395 0.302257 0.302536 0.302232 0.301402 0.300102 0.298333 0.296095 0.293387 0.290211 0.286564 0.282449 0.277959 0.273191 0.268143 0.262817 0.257213 0.251329 0.245167 0.238725 0.232104 0.225403 0.21862 0.211757 0.204812 0.197787 0.190682 0.183495 0.176306 0.169191 0.162152 0.155187 0.148298 0.141484 0.134744 0.12808 0.121536 0.115159 0.108947 0.102901 0.0970213 0.0913075 0.0857597 0.0803779 0.0751767 0.0701706 0.0653596 0.0607438 0.0563232 0.0520977 0.0480673 0.0442321 0.0405856 0.0371211 0.0338386 0.0307383 0.0278201 0.0250839 0.0225298 0.0201578 0.0179511 0.0158928 0.0139829 0.0122214 0.0106083 0.00914371 0.00782751 0.00665973 0.00561665 0.00467456 0.00383346 0.00309334 0.00245421 0.00191606 0.0014789 0.00114273 0.0008749 0.000642783 0.000446377 0.000285682 0.000160696 7.14204e-05 1.78551e-05 0 0 0.000333538 0.00133415 0.00300185 0.00533661 0.00833846 0.0120074 0.0163434 0.0213465 0.0270201 0.033368 0.04039 0.0480861 0.0564564 0.0655008 0.0752194 0.0856121 0.0964132 0.107357 0.118443 0.129672 0.141043 0.152557 0.164214 0.176013 0.187716 0.199084 0.210117 0.220816 0.231179 0.241208 0.250902 0.260261 0.269155 0.277455 0.285162 0.292274 0.298792 0.304716 0.310046 0.314781 0.318903 0.32239 0.325243 0.327462 0.329047 0.329998 0.330315 0.329997 0.329107 0.327706 0.325793 0.323369 0.320434 0.316988 0.313031 0.308563 0.303686 0.298506 0.29302 0.28723 0.281135 0.274736 0.268032 0.261024 0.253819 0.246524 0.23914 0.231666 0.224103 0.21645 0.208708 0.200876 0.19304 0.185285 0.177609 0.170015 0.1625 0.155066 0.147712 0.140439 0.133296 0.126333 0.11955 0.112947 0.106524 0.100281 0.0942175 0.0883344 0.0826474 0.0771727 0.0719102 0.0668601 0.0620222 0.0573966 0.0529833 0.0487822 0.0447864 0.040989 0.0373898 0.0339889 0.0307864 0.0277822 0.0249762 0.0223686 0.019941 0.0176751 0.015571 0.0136287 0.0118481 0.0102292 0.00877207 0.0074767 0.00631764 0.00526948 0.00433222 0.00350585 0.00279038 0.0021858 0.00169213 0.00130934 0.00100246 0.000736505 0.000511462 0.000327336 0.000184126 8.18339e-05 2.04585e-05 0 0 0.00036471 0.00145884 0.00328239 0.00583536 0.00911776 0.0131296 0.0178708 0.0233415 0.0295408 0.0364682 0.0441236 0.0525071 0.0616185 0.071458 0.0820254 0.0933209 0.105056 0.116942 0.128978 0.141166 0.153504 0.165993 0.178633 0.191424 0.204109 0.21643 0.228388 0.239982 0.251213 0.26208 0.272584 0.282725 0.292363 0.301358 0.30971 0.317419 0.324485 0.330909 0.336689 0.341827 0.346301 0.350088 0.353189 0.355604 0.357333 0.358375 0.358732 0.358402 0.357452 0.355949 0.353891 0.35128 0.348116 0.344397 0.340125 0.335298 0.33003 0.32443 0.3185 0.312238 0.305646 0.298722 0.291468 0.283883 0.276082 0.268184 0.260187 0.252091 0.243897 0.235605 0.227214 0.218725 0.210229 0.201819 0.193495 0.185256 0.177103 0.169036 0.161054 0.153159 0.145403 0.137841 0.130473 0.1233 0.11632 0.109535 0.102944 0.0965475 0.0903626 0.0844073 0.0786818 0.0731859 0.0679198 0.0628833 0.0580765 0.0534994 0.0491445 0.0450045 0.0410793 0.037369 0.0338734 0.0305928 0.0275269 0.0246759 0.0220199 0.0195394 0.0172341 0.0151042 0.0131496 0.0113704 0.00976654 0.008338 0.00705769 0.00589852 0.00486048 0.00394357 0.0031478 0.00247315 0.00191964 0.00148726 0.00113868 0.000836583 0.000580961 0.000371815 0.000209146 9.29537e-05 2.32384e-05 0 0 0.000396792 0.00158717 0.00357113 0.00634867 0.00991979 0.0142845 0.0194428 0.0253947 0.0321348 0.0396577 0.0479635 0.0570521 0.0669236 0.0775779 0.0890151 0.101235 0.113926 0.126776 0.139784 0.152952 0.166278 0.179763 0.193407 0.20721 0.220896 0.23419 0.247091 0.259599 0.271714 0.283437 0.294767 0.305704 0.316099 0.325802 0.334812 0.34313 0.350755 0.357689 0.363929 0.369478 0.374311 0.378404 0.381759 0.384374 0.386251 0.387388 0.387787 0.387446 0.386437 0.384831 0.382628 0.379828 0.376431 0.372436 0.367845 0.362656 0.356989 0.350965 0.344583 0.337842 0.330744 0.323287 0.315473 0.307301 0.298896 0.290383 0.281762 0.273033 0.264197 0.255