<?xml version="1.0"?> 
<VTKFile type="StructuredGrid" version="0.1"> 
<StructuredGrid WholeExtent="0 128 0 128 0 0"> 
<Piece Extent="0 128 0 128 0 0"> 
<PointData>
<DataArray type="Float32" Name="u" format="ascii" NumberOfComponents="1"> 
0 0 0 0 0 0 0 0 0 0 0 0 0 0 0 0 0 0 0 0 0 0 0 0 0 0 0 0 0 0 0 0 0 0 0 0 0 0 0 0 0 0 0 0 0 0 0 0 0 0 0 0 0 0 0 0 0 0 0 0 0 0 0 0 0 0 0 0 0 0 0 0 0 0 0 0 0 0 0 0 0 0 0 0 0 0 0 0 0 0 0 0 0 0 0 0 0 0 0 0 0 0 0 0 0 0 0 0 0 0 0 0 0 0 0 0 0 0 0 0 0 0 0 0 0 0 0 0 0 0 9.63308e-08 3.85323e-07 8.66977e-07 1.54129e-06 2.40827e-06 3.46791e-06 4.72021e-06 6.16517e-06 7.84563e-06 9.80442e-06 1.20415e-05 1.4557e-05 1.73508e-05 2.04229e-05 2.37733e-05 2.74021e-05 3.12038e-05 3.5073e-05 3.90098e-05 4.3014e-05 4.70858e-05 5.12251e-05 5.54319e-05 5.97062e-05 6.39427e-05 6.8036e-05 7.19861e-05 7.57929e-05 7.94566e-05 8.2977e-05 8.63542e-05 8.95882e-05 9.26379e-05 9.54619e-05 9.80605e-05 0.000100433 0.000102581 0.000104503 0.000106199 0.00010767 0.000108932 0.000110002 0.00011088 0.000111567 0.000112061 0.000112364 0.000112475 0.000112394 0.000112168 0.000111841 0.000111415 0.000110888 0.000110262 0.000109537 0.000108711 0.000107786 0.000106801 0.000105798 0.000104777 0.000103738 0.00010268 0.000101604 0.00010051 9.93978e-05 9.82801e-05 9.71701e-05 9.60678e-05 9.49732e-05 9.38863e-05 9.2807e-05 9.17355e-05 9.06717e-05 8.96009e-05 8.85086e-05 8.73947e-05 8.62592e-05 8.51022e-05 8.39236e-05 8.27234e-05 8.15017e-05 8.02357e-05 7.89029e-05 7.75031e-05 7.60364e-05 7.45028e-05 7.29023e-05 7.12349e-05 6.95006e-05 6.7693e-05 6.5806e-05 6.38394e-05 6.17932e-05 5.96675e-05 5.74623e-05 5.51775e-05 5.28131e-05 5.03941e-05 4.79451e-05 4.54661e-05 4.29572e-05 4.04184e-05 3.78497e-05 3.52509e-05 3.26223e-05 3.00171e-05 2.74886e-05 2.50369e-05 2.2662e-05 2.03638e-05 1.81425e-05 1.59979e-05 1.393e-05 1.1982e-05 1.01968e-05 8.57455e-06 7.11513e-06 5.81857e-06 4.68488e-06 3.71406e-06 2.9061e-06 2.22498e-06 1.63468e-06 1.1352e-06 7.26525e-07 4.0867e-07 1.81631e-07 4.54078e-08 0 0 3.85323e-07 1.54129e-06 3.46791e-06 6.16517e-06 9.63308e-06 1.38716e-05 1.88808e-05 2.46607e-05 3.13825e-05 3.92177e-05 4.81662e-05 5.8228e-05 6.94031e-05 8.16916e-05 9.50933e-05 0.000109608 0.000124815 0.000140292 0.000156039 0.000172056 0.000188343 0.0002049 0.000221728 0.000238825 0.000255771 0.000272144 0.000287944 0.000303172 0.000317826 0.000331908 0.000345417 0.000358353 0.000370551 0.000381848 0.000392242 0.000401734 0.000410323 0.000418011 0.000424796 0.000430679 0.000435727 0.000440007 0.000443521 0.000446267 0.000448245 0.000449457 0.0004499 0.000449577 0.00044867 0.000447364 0.000445658 0.000443554 0.00044105 0.000438146 0.000434844 0.000431142 0.000427204 0.000423193 0.000419109 0.000414951 0.000410721 0.000406417 0.000402041 0.000397591 0.00039312 0.00038868 0.000384271 0.000379893 0.000375545 0.000371228 0.000366942 0.000362687 0.000358404 0.000354034 0.000349579 0.000345037 0.000340409 0.000335694 0.000330894 0.000326007 0.000320943 0.000315611 0.000310012 0.000304146 0.000298011 0.000291609 0.00028494 0.000278002 0.000270772 0.000263224 0.000255357 0.000247173 0.00023867 0.000229849 0.00022071 0.000211253 0.000201576 0.00019178 0.000181865 0.000171829 0.000161674 0.000151399 0.000141004 0.000130489 0.000120068 0.000109954 0.000100148 9.0648e-05 8.14554e-05 7.25699e-05 6.39914e-05 5.57201e-05 4.7928e-05 4.07874e-05 3.42982e-05 2.84605e-05 2.32743e-05 1.87395e-05 1.48562e-05 1.16244e-05 8.89993e-06 6.53873e-06 4.54078e-06 2.9061e-06 1.63468e-06 7.26525e-07 1.81631e-07 0 0 8.66977e-07 3.46791e-06 7.8028e-06 1.38716e-05 2.16744e-05 3.12112e-05 4.24819e-05 5.54865e-05 7.06107e-05 8.82398e-05 0.000108374 0.000131013 0.000156157 0.000183806 0.00021396 0.000246619 0.000280834 0.000315657 0.000351088 0.000387126 0.000423772 0.000461026 0.000498887 0.000537356 0.000575484 0.000612324 0.000647875 0.000682136 0.000715109 0.000746793 0.000777188 0.000806294 0.000833741 0.000859158 0.000882544 0.000903901 0.000923227 0.000940524 0.00095579 0.000969027 0.000980385 0.000990017 0.000997922 0.0010041 0.00100855 0.00101128 0.00101228 0.00101155 0.00100951 0.00100657 0.00100273 0.000997996 0.000992362 0.00098583 0.000978399 0.00097007 0.000961209 0.000952184 0.000942994 0.000933641 0.000924122 0.000914439 0.000904592 0.00089458 0.000884521 0.000874531 0.00086461 0.000854759 0.000844976 0.000835263 0.00082562 0.000816045 0.000806408 0.000796577 0.000786552 0.000776333 0.00076592 0.000755312 0.000744511 0.000733515 0.000722122 0.000710126 0.000697528 0.000684328 0.000670525 0.000656121 0.000641114 0.000625505 0.000609237 0.000592254 0.000574554 0.000556139 0.000537007 0.00051716 0.000496597 0.000475318 0.000453547 0.000431506 0.000409195 0.000386615 0.000363766 0.000340647 0.000317259 0.000293601 0.000270154 0.000247397 0.000225332 0.000203958 0.000183275 0.000163282 0.000143981 0.00012537 0.000107838 9.17716e-05 7.7171e-05 6.40362e-05 5.23672e-05 4.2164e-05 3.34265e-05 2.61549e-05 2.00249e-05 1.47121e-05 1.02168e-05 6.53873e-06 3.67803e-06 1.63468e-06 4.0867e-07 0 0 1.54129e-06 6.16517e-06 1.38716e-05 2.46607e-05 3.85323e-05 5.54865e-05 7.55234e-05 9.86428e-05 0.00012553 0.000156871 0.000192665 0.000232912 0.000277612 0.000326766 0.000380373 0.000438434 0.000499261 0.000561168 0.000624156 0.000688224 0.000753373 0.000819601 0.00088691 0.0009553 0.00102308 0.00108858 0.00115178 0.00121269 0.0012713 0.00132763 0.00138167 0.00143341 0.00148221 0.00152739 0.00156897 0.00160693 0.00164129 0.00167204 0.00169918 0.00172271 0.00174291 0.00176003 0.00177408 0.00178507 0.00179298 0.00179783 0.0017996 0.00179831 0.00179468 0.00178946 0.00178263 0.00177422 0.0017642 0.00175259 0.00173938 0.00172457 0.00170882 0.00169277 0.00167643 0.00165981 0.00164288 0.00162567 0.00160816 0.00159037 0.00157248 0.00155472 0.00153708 0.00151957 0.00150218 0.00148491 0.00146777 0.00145075 0.00143361 0.00141614 0.00139831 0.00138015 0.00136163 0.00134278 0.00132357 0.00130403 0.00128377 0.00126245 0.00124005 0.00121658 0.00119204 0.00116644 0.00113976 0.00111201 0.00108309 0.0010529 0.00102143 0.000988691 0.00095468 0.000919396 0.00088284 0.00084501 0.000806305 0.000767121 0.000727458 0.000687316 0.000646695 0.000605594 0.000564015 0.000521957 0.000480273 0.000439818 0.000400591 0.000362592 0.000325821 0.000290279 0.000255966 0.00022288 0.000191712 0.000163149 0.000137193 0.000113842 9.30972e-05 7.49581e-05 5.94249e-05 4.64976e-05 3.55997e-05 2.61549e-05 1.81631e-05 1.16244e-05 6.53873e-06 2.9061e-06 7.26525e-07 0 0 2.40827e-06 9.63308e-06 2.16744e-05 3.85323e-05 6.02068e-05 8.66977e-05 0.000118005 0.000154129 0.000196141 0.000245111 0.000301039 0.000363925 0.000433769 0.000510572 0.000594333 0.000685053 0.000780095 0.000876826 0.000975244 0.00107535 0.00117714 0.00128063 0.0013858 0.00149266 0.00159857 0.0017009 0.00179965 0.00189482 0.00198641 0.00207442 0.00215886 0.00223971 0.00231595 0.00238655 0.00245151 0.00251084 0.00256452 0.00261257 0.00265497 0.00269174 0.00272329 0.00275005 0.00277201 0.00278917 0.00280153 0.0028091 0.00281188 0.00280986 0.00280419 0.00279602 0.00278537 0.00277221 0.00275656 0.00273842 0.00271777 0.00269464 0.00267002 0.00264496 0.00261943 0.00259345 0.00256701 0.00254011 0.00251276 0.00248495 0.002457 0.00242925 0.0024017 0.00237433 0.00234716 0.00232018 0.00229339 0.00226679 0.00224002 0.00221271 0.00218487 0.00215648 0.00212755 0.00209809 0.00206809 0.00203754 0.00200589 0.00197257 0.00193758 0.00190091 0.00186257 0.00182256 0.00178087 0.00173751 0.00169233 0.00164515 0.00159598 0.00154483 0.00149169 0.00143656 0.00137944 0.00132033 0.00125985 0.00119863 0.00113665 0.00107393 0.00101046 0.000946241 0.000881274 0.000815558 0.000750427 0.000687215 0.000625923 0.00056655 0.000509096 0.000453562 0.000399946 0.00034825 0.00029955 0.000254921 0.000214364 0.000177878 0.000145464 0.000117122 9.28515e-05 7.26525e-05 5.56246e-05 4.0867e-05 2.83799e-05 1.81631e-05 1.02168e-05 4.54078e-06 1.1352e-06 0 0 3.46791e-06 1.38716e-05 3.12112e-05 5.54865e-05 8.66977e-05 0.000124845 0.000169928 0.000221946 0.000282443 0.000352959 0.000433495 0.000524052 0.000624628 0.000735224 0.00085584 0.000986476 0.00112334 0.00126263 0.00140435 0.0015485 0.00169509 0.0018441 0.00199555 0.00214942 0.00230194 0.0024493 0.0025915 0.00272854 0.00286044 0.00298717 0.00310875 0.00322518 0.00333496 0.00343663 0.00353018 0.0036156 0.00369291 0.0037621 0.00382316 0.00387611 0.00392154 0.00396007 0.00399169 0.0040164 0.00403421 0.00404511 0.0040491 0.00404619 0.00403803 0.00402628 0.00401093 0.00399198 0.00396945 0.00394332 0.0039136 0.00388028 0.00384484 0.00380874 0.00377198 0.00373456 0.00369649 0.00365776 0.00361837 0.00357832 0.00353808 0.00349812 0.00345844 0.00341903 0.00337991 0.00334105 0.00330248 0.00326418 0.00322563 0.00318631 0.00314621 0.00310533 0.00306368 0.00302125 0.00297804 0.00293406 0.00288849 0.0028405 0.00279011 0.00273731 0.0026821 0.00262448 0.00256446 0.00250202 0.00243695 0.00236901 0.00229822 0.00222455 0.00214803 0.00206864 0.00198639 0.00190127 0.00181419 0.00172602 0.00163678 0.00154646 0.00145506 0.00136259 0.00126903 0.0011744 0.00108061 0.00098959 0.000901329 0.000815832 0.000733098 0.000653129 0.000575923 0.000501481 0.000431352 0.000367086 0.000308684 0.000256145 0.000209469 0.000168656 0.000133706 0.00010462 8.00994e-05 5.88485e-05 4.0867e-05 2.61549e-05 1.47121e-05 6.53873e-06 1.63468e-06 0 0 4.72021e-06 1.88808e-05 4.24819e-05 7.55234e-05 0.000118005 0.000169928 0.00023129 0.000302093 0.000384436 0.000480417 0.000590035 0.000713293 0.000850188 0.00100072 0.00116489 0.0013427 0.00152899 0.00171858 0.00191148 0.00210769 0.0023072 0.00251003 0.00271616 0.00292561 0.00313319 0.00333376 0.00352732 0.00371385 0.00389337 0.00406587 0.00423136 0.00438982 0.00453926 0.00467764 0.00480496 0.00492124 0.00502646 0.00512063 0.00520375 0.00527581 0.00533765 0.00539009 0.00543313 0.00546677 0.00549101 0.00550584 0.00551128 0.00550732 0.00549621 0.00548021 0.00545932 0.00543353 0.00540286 0.00536729 0.00532684 0.00528149 0.00523325 0.00518411 0.00513408 0.00508315 0.00503133 0.00497861 0.004925 0.00487049 0.00481573 0.00476134 0.00470732 0.00465369 0.00460043 0.00454755 0.00449504 0.00444291 0.00439044 0.00433692 0.00428234 0.0042267 0.00417001 0.00411226 0.00405345 0.00399358 0.00393155 0.00386624 0.00379765 0.00372578 0.00365064 0.00357221 0.00349051 0.00340553 0.00331696 0.00322449 0.00312813 0.00302787 0.00292371 0.00281565 0.0027037 0.00258784 0.00246931 0.00234931 0.00222784 0.00210491 0.0019805 0.00185463 0.0017273 0.00159849 0.00147084 0.00134694 0.00122681 0.00111044 0.000997828 0.000888981 0.000783895 0.000682571 0.000587118 0.000499645 0.000420153 0.000348641 0.00028511 0.000229559 0.000181989 0.000142399 0.000109024 8.00994e-05 5.56246e-05 3.55997e-05 2.00249e-05 8.89993e-06 2.22498e-06 0 0 6.16517e-06 2.46607e-05 5.54865e-05 9.86428e-05 0.000154129 0.000221946 0.000302093 0.000394571 0.00050212 0.000627483 0.000770659 0.000931647 0.00111045 0.00130706 0.00152149 0.00175373 0.00199704 0.00224467 0.00249662 0.0027529 0.00301349 0.00327841 0.00354764 0.0038212 0.00409233 0.0043543 0.00460711 0.00485075 0.00508522 0.00531053 0.00552667 0.00573365 0.00592882 0.00610956 0.00627587 0.00642774 0.00656517 0.00668817 0.00679673 0.00689086 0.00697163 0.00704012 0.00709633 0.00714027 0.00717193 0.00719131 0.00719841 0.00719323 0.00717872 0.00715782 0.00713054 0.00709686 0.0070568 0.00701034 0.0069575 0.00689827 0.00683526 0.00677109 0.00670574 0.00663922 0.00657154 0.00650268 0.00643265 0.00636146 0.00628993 0.00621889 0.00614834 0.00607828 0.00600872 0.00593965 0.00587107 0.00580299 0.00573446 0.00566455 0.00559326 0.00552059 0.00544654 0.00537111 0.0052943 0.00521611 0.00513509 0.00504978 0.0049602 0.00486633 0.00476818 0.00466575 0.00455903 0.00444804 0.00433236 0.00421158 0.00408572 0.00395476 0.00381872 0.00367758 0.00353136 0.00338004 0.00322522 0.00306849 0.00290983 0.00274926 0.00258678 0.00242238 0.00225606 0.00208783 0.00192109 0.00175927 0.00160236 0.00145037 0.00130329 0.00116112 0.00102386 0.000891521 0.000766848 0.000652598 0.000548771 0.000455368 0.000372389 0.000299833 0.0002377 0.00018599 0.000142399 0.00010462 7.26525e-05 4.64976e-05 2.61549e-05 1.16244e-05 2.9061e-06 0 0 7.89085e-06 3.15634e-05 7.10177e-05 0.000126254 0.000197271 0.000284071 0.000386652 0.000505015 0.000642527 0.000802558 0.000985107 0.00119017 0.00141776 0.00166786 0.00194048 0.00223562 0.00254473 0.00285926 0.00317921 0.00350458 0.00383537 0.00417158 0.00451322 0.00486027 0.00520424 0.0055366 0.00585737 0.00616654 0.00646411 0.00675009 0.00702446 0.00728724 0.00753508 0.00776467 0.00797599 0.00816905 0.00834385 0.00850038 0.00863865 0.00875866 0.00886176 0.0089493 0.00902129 0.00907772 0.00911859 0.00914391 0.00915367 0.00914788 0.00913024 0.00910447 0.00907056 0.00902852 0.00897834 0.00892003 0.00885358 0.008779 0.00869958 0.00861861 0.0085361 0.00845204 0.00836643 0.00827927 0.00819057 0.00810031 0.00800957 0.00791939 0.00782977 0.00774071 0.00765221 0.00756428 0.00747691 0.0073901 0.00730268 0.00721347 0.00712249 0.00702972 0.00693518 0.00683885 0.00674074 0.00664085 0.00653735 0.00642844 0.0063141 0.00619433 0.00606915 0.00593854 0.00580251 0.00566105 0.00551367 0.00535987 0.00519963 0.00503297 0.00485988 0.00468037 0.00449442 0.00430205 0.00410526 0.00390605 0.00370443 0.00350039 0.00329394 0.00308508 0.00287379 0.0026601 0.00244829 0.00224269 0.00204328 0.00185008 0.00166308 0.00148227 0.00130767 0.00113926 0.000980558 0.000835044 0.000702724 0.000583597 0.000477664 0.000384924 0.000305378 0.000239025 0.000183003 0.000134451 9.33691e-05 5.97562e-05 3.36129e-05 1.49391e-05 3.73476e-06 0 0 9.9853e-06 3.99412e-05 8.98677e-05 0.000159765 0.000249633 0.000359471 0.00048928 0.000639059 0.000812687 0.00101404 0.00124312 0.00149993 0.00178446 0.00209672 0.0024367 0.00280441 0.00318926 0.00358067 0.00397864 0.00438317 0.00479426 0.00521191 0.00563612 0.00606688 0.00649377 0.00690635 0.00730461 0.00768855 0.00805818 0.0084135 0.0087545 0.00908119 0.00938945 0.0096752 0.00993842 0.0101791 0.0103973 0.0105929 0.010766 0.0109166 0.0110463 0.0111568 0.011248 0.0113199 0.0113726 0.0114061 0.0114203 0.0114152 0.0113954 0.0113655 0.0113254 0.0112751 0.0112146 0.0111439 0.0110631 0.0109721 0.0108749 0.0107757 0.0106743 0.0105709 0.0104653 0.0103577 0.010248 0.0101361 0.0100235 0.00991144 0.00979988 0.00968884 0.00957833 0.00946834 0.00935887 0.00924993 0.0091401 0.00902797 0.00891355 0.00879684 0.00867782 0.00855651 0.00843291 0.00830701 0.00817661 0.0080395 0.00789569 0.00774518 0.00758796 0.00742404 0.00725341 0.00707608 0.00689145 0.00669892 0.00649851 0.0062902 0.00607401 0.00584992 0.00561793 0.00537806 0.00513276 0.00488451 0.00463331 0.00437915 0.00412204 0.00386198 0.00359896 0.00333299 0.00306935 0.00281331 0.00256487 0.00232403 0.0020908 0.00186518 0.00164715 0.00143673 0.00123826 0.00105608 0.000890196 0.0007406 0.000607295 0.000490283 0.000389562 0.000305133 0.000233617 0.000171637 0.000119192 7.62832e-05 4.29093e-05 1.90708e-05 4.7677e-06 0 0 1.24485e-05 4.97941e-05 0.000112037 0.000199176 0.000311213 0.000448147 0.000609978 0.000796706 0.0010126 0.00126193 0.0015447 0.00186091 0.00221055 0.00259363 0.00301015 0.0034601 0.00393064 0.00440892 0.00489493 0.00538868 0.00589017 0.00639939 0.00691635 0.00744104 0.00796095 0.00846354 0.00894881 0.00941678 0.00986743 0.0103008 0.0107168 0.0111155 0.0114919 0.0118412 0.0121631 0.0124579 0.0127255 0.0129658 0.0131789 0.0133648 0.0135254 0.0136626 0.0137764 0.0138669 0.0139341 0.0139778 0.0139982 0.0139952 0.0139743 0.0139409 0.0138949 0.0138365 0.0137655 0.013682 0.013586 0.0134774 0.0133612 0.0132422 0.0131204 0.0129957 0.0128683 0.012738 0.0126049 0.012469 0.0123318 0.0121951 0.0120587 0.0119227 0.0117871 0.0116518 0.011517 0.0113825 0.0112467 0.011108 0.0109664 0.0108219 0.0106745 0.0105241 0.0103708 0.0102146 0.0100528 0.00988298 0.00970499 0.00951886 0.00932461 0.00912224 0.00891174 0.00869311 0.00846568 0.00822876 0.00798236 0.00772647 0.00746109 0.00718624 0.00690189 0.00660807 0.00630773 0.00600387 0.00569647 0.00538554 0.00507108 0.00475309 0.00443157 0.00410651 0.00378425 0.00347112 0.00316711 0.00287223 0.00258647 0.00230983 0.00204232 0.00178393 0.00153997 0.00131572 0.00111119 0.000926376 0.000761283 0.000615908 0.000490252 0.000384314 0.000294241 0.000216177 0.000150123 9.60786e-05 5.40442e-05 2.40196e-05 6.00491e-06 0 0 1.52805e-05 6.11221e-05 0.000137525 0.000244488 0.000382013 0.000550099 0.000748746 0.000977954 0.00124227 0.00154623 0.00188985 0.00227312 0.00269604 0.00315861 0.00366083 0.0042027 0.00476887 0.005344 0.00592808 0.00652111 0.00712309 0.00773402 0.0083539 0.00898274 0.00960575 0.0102082 0.01079 0.0113512 0.0118918 0.0124119 0.0129113 0.0133902 0.0138425 0.0142625 0.0146502 0.0150055 0.0153284 0.015619 0.0158772 0.0161031 0.0162988 0.0164667 0.0166066 0.0167187 0.0168028 0.0168591 0.0168875 0.0168879 0.0168669 0.0168307 0.0167793 0.0167128 0.0166311 0.0165343 0.0164223 0.0162951 0.0161586 0.0160183 0.0158743 0.0157266 0.0155752 0.0154201 0.0152613 0.0150987 0.0149344 0.0147702 0.0146062 0.0144422 0.0142784 0.0141147 0.0139512 0.0137878 0.0136226 0.0134537 0.0132812 0.013105 0.0129251 0.0127416 0.0125544 0.0123636 0.0121661 0.0119589 0.011742 0.0115154 0.0112791 0.0110332 0.0107775 0.0105122 0.0102364 0.00994937 0.00965117 0.00934176 0.00902115 0.00868933 0.0083463 0.00799207 0.00763017 0.00726411 0.00689391 0.00651955 0.00614105 0.0057584 0.0053716 0.00498066 0.00459302 0.00421614 0.00385002 0.00349466 0.00315007 0.00281624 0.00249317 0.00218086 0.00188566 0.00161394 0.0013657 0.00114093 0.000939626 0.000761801 0.000607448 0.000476569 0.000364873 0.00026807 0.00018616 0.000119142 6.70175e-05 2.97856e-05 7.44639e-06 0 0 1.84813e-05 7.39252e-05 0.000166332 0.000295701 0.000462033 0.000665327 0.000905584 0.0011828 0.00150169 0.00186694 0.00227856 0.00273655 0.00324091 0.00379164 0.00438874 0.0050322 0.00570395 0.00638591 0.00707807 0.00778044 0.00849302 0.0092158 0.00994879 0.010692 0.0114282 0.0121403 0.0128281 0.0134919 0.0141314 0.0147469 0.0153381 0.0159052 0.0164412 0.0169393 0.0173995 0.0178218 0.0182061 0.0185525 0.018861 0.0191316 0.0193668 0.0195691 0.0197386 0.0198752 0.019979 0.02005 0.0200881 0.0200933 0.0200731 0.0200348 0.0199784 0.019904 0.0198114 0.0197007 0.019572 0.0194252 0.0192669 0.0191039 0.0189361 0.0187635 0.0185861 0.018404 0.0182171 0.0180255 0.0178313 0.017637 0.0174423 0.0172475 0.0170524 0.0168571 0.0166615 0.0164658 0.0162676 0.0160649 0.0158577 0.015646 0.0154298 0.0152091 0.0149838 0.014754 0.0145163 0.0142672 0.0140067 0.0137348 0.0134515 0.0131568 0.0128507 0.0125332 0.0122035 0.0118608 0.0115049 0.0111361 0.0107542 0.0103592 0.00995116 0.00953008 0.00910007 0.00866525 0.00822562 0.0077812 0.00733196 0.00687792 0.00641908 0.00595543 0.00549563 0.00504835 0.00461359 0.00419134 0.00378161 0.00338439 0.00299969 0.00262751 0.00227536 0.00195076 0.00165373 0.00138425 0.00114233 0.00092796 0.00074115 0.000581898 0.000445515 0.000327317 0.000227304 0.000145474 8.18294e-05 3.63686e-05 9.09215e-06 0 0 2.20508e-05 8.82034e-05 0.000198458 0.000352814 0.000551271 0.00079383 0.00108049 0.00141125 0.00179086 0.00222406 0.00271084 0.00325122 0.00384518 0.00449273 0.00519387 0.0059486 0.00673588 0.00753465 0.00834492 0.00916669 0.00999996 0.0108447 0.011701 0.0125688 0.0134283 0.0142598 0.0150633 0.0158387 0.0165862 0.0173057 0.0179971 0.0186606 0.019288 0.0198716 0.0204112 0.0209068 0.0213586 0.0217664 0.0221303 0.0224502 0.0227291 0.0229698 0.0231722 0.0233365 0.0234625 0.0235504 0.0236 0.0236114 0.023593 0.0235534 0.0234924 0.02341 0.0233064 0.0231814 0.0230351 0.0228675 0.0226862 0.022499 0.0223057 0.0221064 0.0219011 0.0216898 0.0214725 0.0212492 0.0210226 0.0207952 0.0205672 0.0203384 0.020109 0.0198789 0.019648 0.0194165 0.0191818 0.0189417 0.0186961 0.018445 0.0181885 0.0179264 0.0176589 0.0173859 0.0171035 0.0168079 0.0164991 0.016177 0.0158417 0.0154931 0.0151313 0.0147563 0.0143671 0.0139629 0.0135437 0.0131094 0.0126601 0.0121958 0.0117165 0.0112221 0.0107174 0.0102073 0.00969162 0.00917047 0.00864381 0.00811165 0.00757399 0.00703082 0.0064921 0.00596777 0.00545782 0.00496226 0.00448109 0.0040143 0.0035619 0.00312388 0.00270905 0.00232618 0.00197528 0.00165635 0.00136938 0.00111439 0.000891359 0.0007003 0.000536167 0.000393919 0.000273555 0.000175075 9.84797e-05 4.37687e-05 1.09422e-05 0 0 2.59892e-05 0.000103957 0.000233902 0.000415827 0.000649729 0.00093561 0.00127347 0.00166331 0.00210979 0.00261758 0.00318669 0.00381711 0.00450884 0.00526189 0.00607624 0.00695191 0.00786465 0.00879022 0.00972862 0.0106799 0.0116439 0.0126208 0.0136105 0.0146131 0.015606 0.0165667 0.0174954 0.0183918 0.0192562 0.0200884 0.0208884 0.0216563 0.022383 0.0230592 0.0236851 0.0242607 0.0247858 0.0252606 0.025685 0.0260591 0.0263859 0.0266688 0.0269077 0.0271026 0.0272534 0.0273603 0.0274232 0.0274421 0.0274266 0.0273863 0.027321 0.027231 0.0271161 0.0269763 0.0268117 0.0266222 0.0264166 0.0262036 0.0259831 0.0257553 0.0255201 0.0252774 0.0250274 0.0247699 0.0245082 0.0242451 0.0239807 0.0237151 0.0234482 0.0231801 0.0229106 0.0226399 0.0223653 0.0220841 0.0217963 0.021502 0.0212011 0.0208937 0.0205797 0.0202592 0.0199277 0.019581 0.0192191 0.018842 0.0184497 0.0180421 0.0176193 0.0171813 0.0167272 0.0162559 0.0157674 0.0152618 0.0147391 0.0141992 0.0136422 0.0130681 0.0124823 0.0118902 0.0112919 0.0106874 0.0100766 0.00945958 0.00883633 0.00820685 0.00758243 0.00697438 0.00638271 0.00580742 0.0052485 0.00470595 0.00417978 0.00366999 0.00318673 0.00274019 0.00233035 0.00195722 0.00162079 0.00132108 0.00105807 0.000831775 0.000636828 0.000467874 0.000324912 0.000207944 0.000116968 5.1986e-05 1.29965e-05 0 0 3.02963e-05 0.000121185 0.000272666 0.00048474 0.000757406 0.00109067 0.00148452 0.00193896 0.00245847 0.00304752 0.00370611 0.00443423 0.0052319 0.0060991 0.00703584 0.00804212 0.00909027 0.0101526 0.0112292 0.0123199 0.0134249 0.014544 0.0156774 0.016825 0.0179613 0.0190612 0.0201244 0.0211511 0.0221413 0.0230949 0.0240119 0.0248924 0.025726 0.0265023 0.0272214 0.0278832 0.0284878 0.0290351 0.0295252 0.0299581 0.0303372 0.0306661 0.0309448 0.0311734 0.0313517 0.0314799 0.0315578 0.0315856 0.0315739 0.0315336 0.0314645 0.0313668 0.0312404 0.0310854 0.0309016 0.0306892 0.0304579 0.0302177 0.0299685 0.0297103 0.0294431 0.0291669 0.0288818 0.0285876 0.028288 0.0279865 0.027683 0.0273775 0.0270701 0.0267607 0.0264494 0.0261361 0.0258179 0.025492 0.0251584 0.024817 0.0244678 0.0241109 0.0237463 0.0233739 0.0229889 0.0225866 0.0221669 0.0217299 0.0212756 0.0208039 0.0203148 0.0198084 0.0192837 0.0187396 0.0181761 0.0175932 0.016991 0.0163694 0.0157284 0.0150681 0.0143946 0.013714 0.0130265 0.0123319 0.0116303 0.0109217 0.0102061 0.00948349 0.00876661 0.0080682 0.00738827 0.00672682 0.00608385 0.00545936 0.00485335 0.00426582 0.00370841 0.00319279 0.00271893 0.00228686 0.00189656 0.00154804 0.00124129 0.000976324 0.000747498 0.000549183 0.000381377 0.000244081 0.000137296 6.10203e-05 1.52551e-05 0 0 3.49325e-05 0.00013973 0.000314392 0.00055892 0.000873312 0.00125757 0.00171169 0.00223568 0.00283369 0.00350988 0.00426425 0.0050968 0.00600753 0.00699644 0.00806354 0.00920881 0.010401 0.0116087 0.012832 0.0140708 0.0153253 0.0165953 0.0178809 0.019182 0.0204704 0.0217175 0.0229235 0.0240882 0.0252117 0.0262941 0.0273352 0.0283352 0.0292823 0.0301649 0.0309831 0.0317369 0.0324262 0.033051 0.0336114 0.0341073 0.0345427 0.0349213 0.0352432 0.0355083 0.0357168 0.0358685 0.0359635 0.0360017 0.0359953 0.035956 0.035884 0.0357792 0.0356417 0.0354713 0.0352683 0.0350324 0.0347748 0.0345064 0.0342274 0.0339375 0.0336369 0.0333256 0.0330036 0.0326708 0.0323312 0.0319889 0.0316438 0.0312959 0.0309453 0.0305919 0.0302357 0.0298768 0.0295119 0.029138 0.028755 0.028363 0.0279619 0.0275517 0.0271325 0.0267042 0.0262616 0.0257994 0.0253176 0.0248163 0.0242953 0.0237548 0.0231947 0.022615 0.0220146 0.0213926 0.0207489 0.0200834 0.0193963 0.0186875 0.017957 0.0172048 0.0164379 0.0156631 0.0148806 0.0140902 0.0132919 0.0124859 0.0116721 0.0108504 0.0100352 0.00924057 0.00846666 0.00771341 0.00698083 0.00626891 0.00557766 0.00490707 0.00427038 0.00368082 0.00313837 0.00264306 0.00219486 0.00179379 0.00143985 0.00113303 0.000867476 0.000637329 0.00044259 0.000283257 0.000159332 7.08144e-05 1.77036e-05 0 0 3.98582e-05 0.000159433 0.000358724 0.000637731 0.000996455 0.0014349 0.00195305 0.00255092 0.00323223 0.00400069 0.00485629 0.00579904 0.00682894 0.007946 0.0091502 0.0104415 0.0117849 0.0131452 0.0145224 0.0159165 0.0173275 0.0187554 0.0202002 0.021662 0.0231091 0.0245103 0.0258654 0.0271745 0.0284377 0.0296547 0.0308258 0.0319509 0.033017 0.0340112 0.0349335 0.035784 0.0365625 0.0372692 0.037904 0.0384669 0.0389621 0.0393938 0.039762 0.0400668 0.040308 0.0404857 0.0405999 0.0406507 0.0406511 0.0406144 0.0405407 0.0404299 0.040282 0.040097 0.0398749 0.0396158 0.0393317 0.039035 0.0387255 0.0384034 0.0380685 0.037721 0.0373607 0.0369878 0.0366067 0.0362218 0.0358331 0.0354407 0.0350446 0.0346448 0.0342412 0.0338338 0.0334193 0.0329944 0.032559 0.032113 0.0316566 0.0311897 0.0307123 0.0302244 0.0297204 0.0291944 0.0286465 0.0280767 0.027485 0.0268714 0.0262358 0.0255784 0.024898 0.0241935 0.0234649 0.0227123 0.0219356 0.0211348 0.02031 0.0194611 0.0185959 0.017722 0.0168395 0.0159483 0.0150485 0.01414 0.0132229 0.0122972 0.0113786 0.0104829 0.00961006 0.00876014 0.00793312 0.007129 0.00634778 0.00558945 0.00486893 0.00420111 0.00358599 0.00302358 0.00251387 0.00205687 0.00165257 0.00130097 0.000996058 0.000731798 0.000508193 0.000325243 0.000182949 8.13108e-05 2.03277e-05 0 0 4.50734e-05 0.000180294 0.000405661 0.000721175 0.00112684 0.00162264 0.0022086 0.0028847 0.0036541 0.00451994 0.00548222 0.00654096 0.00769613 0.00894775 0.0102958 0.0117403 0.0132422 0.0147622 0.0163004 0.0178569 0.0194316 0.0210244 0.0226355 0.0242647 0.0258776 0.0274395 0.0289503 0.0304102 0.031819 0.0331769 0.0344837 0.0357395 0.0369301 0.0380411 0.0390726 0.0400245 0.0408969 0.0416897 0.042403 0.0430368 0.0435955 0.0440837 0.0445014 0.0448486 0.0451253 0.0453315 0.0454672 0.0455323 0.0455414 0.0455088 0.0454347 0.0453188 0.0451614 0.0449623 0.0447216 0.0444393 0.0441287 0.0438032 0.0434629 0.0431078 0.0427378 0.042353 0.0419533 0.0415388 0.0411144 0.0406851 0.040251 0.0398119 0.0393681 0.0389193 0.0384657 0.0380072 0.0375402 0.0370613 0.0365702 0.0360672 0.0355521 0.0350249 0.0344858 0.0339346 0.0333652 0.0327715 0.0321535 0.0315112 0.0308445 0.0301536 0.0294383 0.0286987 0.0279337 0.0271422 0.0263242 0.0254798 0.0246088 0.0237113 0.0227874 0.0218369 0.0208685 0.0198906 0.0189032 0.0179063 0.0168999 0.015884 0.0148587 0.0138239 0.0127969 0.0117951 0.0108185 0.00986701 0.00894073 0.00803963 0.00716371 0.00631296 0.00550405 0.00475367 0.00406179 0.00342843 0.00285359 0.00233726 0.00187945 0.00148016 0.00113324 0.000832588 0.000578186 0.000370039 0.000208147 9.25097e-05 2.31274e-05 0 0 5.05781e-05 0.000202313 0.000455203 0.00080925 0.00126445 0.00182081 0.00247833 0.003237 0.00409928 0.00506764 0.00614205 0.00732254 0.00860909 0.0100017 0.0115004 0.0131052 0.0147727 0.0164597 0.0181661 0.019892 0.0216374 0.0234023 0.0251866 0.0269904 0.0287758 0.0305051 0.0321782 0.0337951 0.0353559 0.0368605 0.0383089 0.0397012 0.0410216 0.0422547 0.0434003 0.0444585 0.0454293 0.0463126 0.0471085 0.047817 0.0484429 0.048991 0.0494614 0.049854 0.0501688 0.0504059 0.0505652 0.0506467 0.0506662 0.0506392 0.0505658 0.0504461 0.0502799 0.0500673 0.0498083 0.0495029 0.0491657 0.0488113 0.0484397 0.0480508 0.0476448 0.0472216 0.0467812 0.0463236 0.0458543 0.0453789 0.0448973 0.0444095 0.0439156 0.0434155 0.0429093 0.0423969 0.0418746 0.0413386 0.0407888 0.0402254 0.0396482 0.0390574 0.0384528 0.0378346 0.0371961 0.0365308 0.0358386 0.0351197 0.034374 0.0336014 0.0328021 0.0319759 0.0311219 0.0302388 0.0293268 0.0283859 0.0274159 0.026417 0.0253891 0.0243322 0.0232557 0.0221689 0.0210716 0.0199641 0.0188462 0.017718 0.0165794 0.0154304 0.0142901 0.0131772 0.0120919 0.011034 0.0100037 0.0090008 0.00802545 0.00707759 0.00617576 0.00533849 0.00456577 0.00385762 0.00321402 0.00263498 0.0021205 0.00167058 0.00127904 0.0009397 0.000652569 0.000417644 0.000234925 0.000104411 2.61028e-05 0 0 5.63723e-05 0.000225489 0.000507351 0.000901957 0.00140931 0.0020294 0.00276224 0.00360783 0.0045678 0.00564378 0.00683578 0.0081438 0.00956783 0.0111079 0.012764 0.014536 0.0163765 0.0182376 0.0201194 0.0220219 0.0239451 0.025889 0.0278536 0.0298389 0.0318037 0.0337071 0.035549 0.0373293 0.0390482 0.0407056 0.0423014 0.0438358 0.0452916 0.0466519 0.0479167 0.0490859 0.0501596 0.0511378 0.0520205 0.0528076 0.0535043 0.0541157 0.0546419 0.0550828 0.0554385 0.0557089 0.055894 0.0559939 0.0560254 0.0560056 0.0559343 0.0558116 0.0556374 0.0554119 0.055135 0.0548066 0.0544427 0.054059 0.0536556 0.0532325 0.0527896 0.0523269 0.0518445 0.0513424 0.0508266 0.0503031 0.0497721 0.0492335 0.0486873 0.0481334 0.047572 0.047003 0.0464224 0.0458263 0.0452147 0.0445877 0.0439451 0.0432871 0.0426135 0.0419245 0.041213 0.0404722 0.039702 0.0389023 0.0380733 0.0372149 0.0363272 0.03541 0.0344624 0.0334833 0.0324727 0.0314306 0.0303569 0.0292518 0.0281152 0.0269471 0.0257576 0.0245569 0.0233449 0.0221218 0.0208874 0.0196418 0.018385 0.0171169 0.0158582 0.0146293 0.0134303 0.0122612 0.0111219 0.0100125 0.00893299 0.00788334 0.00688404 0.00595557 0.00509794 0.00431113 0.00359516 0.00295002 0.00237571 0.00187224 0.00143343 0.00105313 0.000731342 0.000468059 0.000263283 0.000117015 2.92537e-05 0 0 6.2456e-05 0.000249824 0.000562104 0.000999297 0.0015614 0.00224842 0.00306035 0.00399719 0.00505963 0.00624837 0.0075634 0.00900473 0.0105723 0.0122663 0.0140865 0.016033 0.0180536 0.020096 0.0221604 0.0242466 0.0263547 0.0284847 0.0306365 0.0328102 0.0349614 0.0370455 0.0390627 0.0410128 0.042896 0.0447121 0.0464612 0.0481433 0.04974 0.0512328 0.0526217 0.0539068 0.055088 0.0561654 0.0571388 0.0580085 0.0587796 0.0594578 0.060043 0.0605352 0.0609343 0.0612405 0.0614537 0.0615738 0.0616192 0.0616079 0.0615399 0.0614153 0.0612341