<?xml version="1.0"?> 
<VTKFile type="StructuredGrid" version="0.1"> 
<StructuredGrid WholeExtent="0 128 0 128 0 0"> 
<Piece Extent="0 128 0 128 0 0"> 
<PointData>
<DataArray type="Float32" Name="u" format="ascii" NumberOfComponents="1"> 
0 0 0 0 0 0 0 0 0 0 0 0 0 0 0 0 0 0 0 0 0 0 0 0 0 0 0 0 0 0 0 0 0 0 0 0 0 0 0 0 0 0 0 0 0 0 0 0 0 0 0 0 0 0 0 0 0 0 0 0 0 0 0 0 0 0 0 0 0 0 0 0 0 0 0 0 0 0 0 0 0 0 0 0 0 0 0 0 0 0 0 0 0 0 0 0 0 0 0 0 0 0 0 0 0 0 0 0 0 0 0 0 0 0 0 0 0 0 0 0 0 0 0 0 0 0 0 0 0 0 1.42309e-07 5.69237e-07 1.28078e-06 2.27695e-06 3.55773e-06 5.12313e-06 6.97315e-06 9.10779e-06 1.15713e-05 1.44078e-05 1.76175e-05 2.12002e-05 2.5156e-05 2.94848e-05 3.41868e-05 3.92618e-05 4.45691e-05 4.9968e-05 5.54584e-05 6.10403e-05 6.67138e-05 7.24789e-05 7.83354e-05 8.42836e-05 9.0193e-05 9.59335e-05 0.000101505 0.000106908 0.000112142 0.000117206 0.000122102 0.000126829 0.000131333 0.000135558 0.000139505 0.000143175 0.000146566 0.000149678 0.000152513 0.00015507 0.000157355 0.000159376 0.000161132 0.000162624 0.000163851 0.000164814 0.000165512 0.000165945 0.000166153 0.000166173 0.000166006 0.000165652 0.00016511 0.000164381 0.000163464 0.00016236 0.000161111 0.000159756 0.000158296 0.000156732 0.000155063 0.000153289 0.00015141 0.000149427 0.000147365 0.00014525 0.000143082 0.000140861 0.000138588 0.000136261 0.000133882 0.00013145 0.000128973 0.00012646 0.00012391 0.000121323 0.000118699 0.000116038 0.000113341 0.000110606 0.000107835 0.000105026 0.00010218 9.92966e-05 9.63757e-05 9.34173e-05 9.04215e-05 8.73884e-05 8.43235e-05 8.12327e-05 7.81158e-05 7.4973e-05 7.18042e-05 6.86094e-05 6.53887e-05 6.21419e-05 5.88924e-05 5.56635e-05 5.24552e-05 4.92675e-05 4.61003e-05 4.29537e-05 3.98277e-05 3.67223e-05 3.3681e-05 3.07473e-05 2.79214e-05 2.52032e-05 2.25926e-05 2.00898e-05 1.76946e-05 1.54071e-05 1.32625e-05 1.1296e-05 9.50756e-06 7.89718e-06 6.46486e-06 5.21061e-06 4.13443e-06 3.23631e-06 2.4778e-06 1.82043e-06 1.26419e-06 8.09079e-07 4.55107e-07 2.0227e-07 5.05674e-08 0 0 5.69237e-07 2.27695e-06 5.12313e-06 9.10779e-06 1.42309e-05 2.04925e-05 2.78926e-05 3.64312e-05 4.62851e-05 5.76313e-05 7.04699e-05 8.48007e-05 0.000100624 0.000117939 0.000136747 0.000157047 0.000178276 0.000199872 0.000221834 0.000244161 0.000266855 0.000289915 0.000313342 0.000337134 0.000360772 0.000383734 0.00040602 0.000427631 0.000448566 0.000468826 0.000488409 0.000507317 0.000525331 0.000542233 0.000558022 0.000572698 0.000586262 0.000598713 0.000610052 0.000620279 0.00062942 0.000637503 0.000644528 0.000650495 0.000655403 0.000659254 0.000662047 0.000663781 0.000664612 0.000664693 0.000664025 0.000662607 0.00066044 0.000657524 0.000653858 0.000649442 0.000644442 0.000639023 0.000633185 0.000626928 0.000620251 0.000613156 0.000605641 0.000597707 0.000589458 0.000580998 0.000572327 0.000563444 0.00055435 0.000545045 0.000535528 0.000525801 0.000515894 0.00050584 0.000495639 0.00048529 0.000474795 0.000464152 0.000453362 0.000442426 0.00043134 0.000420105 0.000408721 0.000397186 0.000385503 0.000373669 0.000361686 0.000349554 0.000337294 0.000324931 0.000312463 0.000299892 0.000287217 0.000274438 0.000261555 0.000248568 0.00023557 0.000222654 0.000209821 0.00019707 0.000184401 0.000171815 0.000159311 0.000146889 0.000134724 0.000122989 0.000111686 0.000100813 9.03705e-05 8.03591e-05 7.07784e-05 6.16285e-05 5.30502e-05 4.51841e-05 3.80302e-05 3.15887e-05 2.58594e-05 2.08424e-05 1.65377e-05 1.29453e-05 9.91121e-06 7.28171e-06 5.05674e-06 3.23631e-06 1.82043e-06 8.09079e-07 2.0227e-07 0 0 1.28078e-06 5.12313e-06 1.1527e-05 2.04925e-05 3.20196e-05 4.61082e-05 6.27584e-05 8.19701e-05 0.000104141 0.000129671 0.000158557 0.000190802 0.000226404 0.000265364 0.000307681 0.000353356 0.000401122 0.000449712 0.000499126 0.000549363 0.000600424 0.00065231 0.000705019 0.000758552 0.000811737 0.000863401 0.000913546 0.00096217 0.00100927 0.00105486 0.00109892 0.00114146 0.001182 0.00122002 0.00125555 0.00128857 0.00131909 0.00134711 0.00137262 0.00139563 0.00141619 0.00143438 0.00145019 0.00146361 0.00147466 0.00148332 0.00148961 0.00149351 0.00149538 0.00149556 0.00149406 0.00149087 0.00148599 0.00147943 0.00147118 0.00146124 0.00144999 0.0014378 0.00142467 0.00141059 0.00139557 0.0013796 0.00136269 0.00134484 0.00132628 0.00130725 0.00128773 0.00126775 0.00124729 0.00122635 0.00120494 0.00118305 0.00116076 0.00113814 0.00111519 0.0010919 0.00106829 0.00104434 0.00102007 0.000995457 0.000970515 0.000945237 0.000919622 0.00089367 0.000867381 0.000840756 0.000813794 0.000786495 0.000758912 0.000731094 0.000703043 0.000674757 0.000646238 0.000617485 0.000588498 0.000559277 0.000530032 0.000500972 0.000472097 0.000443407 0.000414903 0.000386584 0.000358449 0.0003305 0.000303129 0.000276726 0.000251293 0.000226828 0.000203334 0.000180808 0.000159251 0.000138664 0.000119363 0.000101664 8.55681e-05 7.10746e-05 5.81837e-05 4.68955e-05 3.72098e-05 2.91268e-05 2.23002e-05 1.63838e-05 1.13777e-05 7.28171e-06 4.09596e-06 1.82043e-06 4.55107e-07 0 0 2.27695e-06 9.10779e-06 2.04925e-05 3.64312e-05 5.69237e-05 8.19701e-05 0.00011157 0.000145725 0.00018514 0.000230525 0.00028188 0.000339203 0.000402496 0.000471757 0.000546988 0.000628189 0.000713106 0.000799488 0.000887334 0.000976645 0.00106742 0.00115966 0.00125337 0.00134854 0.00144309 0.00153494 0.00162408 0.00171052 0.00179426 0.0018753 0.00195364 0.00202927 0.00210133 0.00216893 0.00223209 0.00229079 0.00234505 0.00239485 0.00244021 0.00248111 0.00251768 0.00255001 0.00257811 0.00260198 0.00262161 0.00263702 0.00264819 0.00265513 0.00265845 0.00265877 0.0026561 0.00265043 0.00264176 0.00263009 0.00261543 0.00259777 0.00257777 0.00255609 0.00253274 0.00250771 0.002481 0.00245262 0.00242256 0.00239083 0.00235783 0.00232399 0.00228931 0.00225378 0.0022174 0.00218018 0.00214211 0.0021032 0.00206358 0.00202336 0.00198255 0.00194116 0.00189918 0.00185661 0.00181345 0.0017697 0.00172536 0.00168042 0.00163488 0.00158875 0.00154201 0.00149468 0.00144674 0.00139821 0.00134918 0.00129972 0.00124985 0.00119957 0.00114887 0.00109775 0.00104622 0.00099427 0.000942279 0.000890617 0.000839284 0.00078828 0.000737605 0.00068726 0.000637243 0.000587556 0.000538895 0.000491957 0.000446742 0.000403251 0.000361482 0.000321436 0.000283114 0.000246514 0.000212201 0.000180736 0.000152121 0.000126355 0.000103438 8.33697e-05 6.61508e-05 5.1781e-05 3.96449e-05 2.91268e-05 2.0227e-05 1.29453e-05 7.28171e-06 3.23631e-06 8.09079e-07 0 0 3.55773e-06 1.42309e-05 3.20196e-05 5.69237e-05 8.89433e-05 0.000128078 0.000174329 0.000227695 0.000289282 0.000360196 0.000440437 0.000530005 0.000628899 0.000737121 0.000854669 0.000981545 0.00111423 0.0012492 0.00138646 0.00152601 0.00166785 0.00181197 0.00195839 0.00210709 0.00225482 0.00239834 0.00253763 0.00267269 0.00280354 0.00293016 0.00305256 0.00317073 0.00328332 0.00338895 0.00348764 0.00357936 0.00366414 0.00374196 0.00381283 0.00387674 0.00393387 0.00398439 0.0040283 0.00406559 0.00409627 0.00412034 0.00413779 0.00414863 0.00415383 0.00415433 0.00415016 0.0041413 0.00412775 0.00410952 0.00408661 0.00405901 0.00402776 0.00399389 0.00395741 0.0039183 0.00387657 0.00383222 0.00378526 0.00373567 0.00368411 0.00363124 0.00357704 0.00352152 0.00346469 0.00340653 0.00334705 0.00328625 0.00322434 0.0031615 0.00309774 0.00303306 0.00296747 0.00290095 0.00283352 0.00276516 0.00269588 0.00262566 0.0025545 0.00248242 0.00240939 0.00233543 0.00226054 0.00218471 0.00210809 0.00203082 0.0019529 0.00187433 0.00179511 0.00171524 0.00163472 0.00155355 0.00147231 0.00139159 0.00131138 0.00123169 0.00115251 0.00107384 0.000995693 0.000918057 0.000842024 0.000768683 0.000698035 0.000630079 0.000564815 0.000502244 0.000442365 0.000385178 0.000331563 0.0002824 0.000237689 0.000197429 0.000161621 0.000130265 0.000103361 8.09079e-05 6.19451e-05 4.55107e-05 3.16046e-05 2.0227e-05 1.13777e-05 5.05674e-06 1.26419e-06 0 0 5.12313e-06 2.04925e-05 4.61082e-05 8.19701e-05 0.000128078 0.000184433 0.000251033 0.00032788 0.000416566 0.000518682 0.000634229 0.000763207 0.000905615 0.00106145 0.00123072 0.00141342 0.00160449 0.00179885 0.0019965 0.00219745 0.0024017 0.00260924 0.00282008 0.00303421 0.00324695 0.00345361 0.00365418 0.00384868 0.0040371 0.00421943 0.00439568 0.00456586 0.00472798 0.00488009 0.00502219 0.00515428 0.00527636 0.00538842 0.00549047 0.00558251 0.00566478 0.00573753 0.00580075 0.00585445 0.00589863 0.00593329 0.00595842 0.00597403 0.00598151 0.00598224 0.00597623 0.00596347 0.00594396 0.00591771 0.00588472 0.00584498 0.00579998 0.00575121 0.00569866 0.00564235 0.00558226 0.0055184 0.00545077 0.00537937 0.00530512 0.00522898 0.00515094 0.005071 0.00498915 0.0049054 0.00481976 0.00473221 0.00464305 0.00455256 0.00446075 0.00436761 0.00427315 0.00417737 0.00408026 0.00398183 0.00388206 0.00378095 0.00367849 0.00357468 0.00346952 0.00336302 0.00325518 0.00314598 0.00303565 0.00292438 0.00281217 0.00269903 0.00258495 0.00246994 0.00235399 0.00223711 0.00212013 0.00200389 0.00188839 0.00177363 0.00165961 0.00154633 0.0014338 0.001322 0.00121251 0.0011069 0.00100517 0.000907314 0.000813334 0.000723232 0.000637006 0.000554657 0.000477451 0.000406657 0.000342272 0.000284298 0.000232735 0.000187582 0.000148839 0.000116507 8.92009e-05 6.55354e-05 4.55107e-05 2.91268e-05 1.63838e-05 7.28171e-06 1.82043e-06 0 0 6.97315e-06 2.78926e-05 6.27584e-05 0.00011157 0.000174329 0.000251033 0.000341684 0.000446282 0.000566992 0.000705984 0.000863256 0.00103881 0.00123264 0.00144476 0.00167515 0.00192383 0.00218389 0.00244843 0.00271746 0.00299098 0.00326898 0.00355146 0.00383844 0.00412989 0.00441946 0.00470074 0.00497375 0.00523848 0.00549493 0.00574311 0.00598301 0.00621464 0.00643531 0.00664235 0.00683577 0.00701555 0.00718171 0.00733424 0.00747314 0.00759841 0.00771039 0.00780941 0.00789546 0.00796856 0.00802869 0.00807586 0.00811007 0.00813132 0.0081415 0.00814249 0.00813431 0.00811694 0.00809039 0.00805466 0.00800975 0.00795566 0.00789442 0.00782803 0.00775651 0.00767986 0.00759808 0.00751116 0.0074191 0.00732191 0.00722086 0.00711723 0.007011 0.00690219 0.00679079 0.0066768 0.00656022 0.00644106 0.0063197 0.00619654 0.00607157 0.00594481 0.00581624 0.00568587 0.00555369 0.00541971 0.00528392 0.00514629 0.00500683 0.00486553 0.00472241 0.00457745 0.00443066 0.00428203 0.00413185 0.0039804 0.00382768 0.00367368 0.00351841 0.00336186 0.00320404 0.00304495 0.00288573 0.00272751 0.00257031 0.00241411 0.00225892 0.00210473 0.00195156 0.00179939 0.00165037 0.00150662 0.00136815 0.00123496 0.00110704 0.000984398 0.000867035 0.000754949 0.000649864 0.000553505 0.000465871 0.000386962 0.000316778 0.00025532 0.000202587 0.000158579 0.000121412 8.92009e-05 6.19451e-05 3.96449e-05 2.23002e-05 9.91121e-06 2.4778e-06 0 0 9.10779e-06 3.64312e-05 8.19701e-05 0.000145725 0.000227695 0.00032788 0.000446282 0.000582899 0.000740562 0.000922102 0.00112752 0.00135681 0.00160998 0.00188703 0.00218795 0.00251275 0.00285242 0.00319795 0.00354934 0.00390658 0.00426969 0.00463865 0.00501347 0.00539415 0.00577235 0.00613974 0.00649633 0.0068421 0.00717706 0.00750121 0.00781455 0.00811708 0.0084053 0.00867572 0.00892835 0.00916317 0.00938019 0.00957941 0.00976084 0.00992446 0.0100707 0.0102 0.0103124 0.0104079 0.0104865 0.0105481 0.0105927 0.0106205 0.0106338 0.0106351 0.0106244 0.0106017 0.010567 0.0105204 0.0104617 0.0103911 0.0103111 0.0102244 0.010131 0.0100308 0.00992402 0.00981049 0.00969026 0.00956332 0.00943133 0.00929597 0.00915723 0.0090151 0.0088696 0.00872072 0.00856845 0.00841281 0.0082543 0.00809344 0.00793022 0.00776465 0.00759672 0.00742644 0.0072538 0.00707881 0.00690144 0.00672168 0.00653953 0.00635498 0.00616804 0.00597871 0.00578698 0.00559286 0.00539671 0.00519889 0.00499941 0.00479827 0.00459547 0.004391 0.00418487 0.00397708 0.00376912 0.00356247 0.00335713 0.00315312 0.00295042 0.00274904 0.00254897 0.00235022 0.00215558 0.00196783 0.00178697 0.001613 0.00144593 0.00128574 0.00113245 0.000986056 0.000848803 0.000722945 0.000608484 0.000505419 0.000413751 0.000333479 0.000264603 0.000207124 0.000158579 0.000116507 8.09079e-05 5.1781e-05 2.91268e-05 1.29453e-05 3.23631e-06 0 0 1.16043e-05 4.64172e-05 0.000104439 0.000185669 0.000290108 0.000417755 0.000568611 0.000742676 0.000943414 0.00117429 0.0014353 0.00172646 0.00204775 0.00239918 0.00278074 0.00319245 0.0036229 0.00406071 0.00450587 0.00495839 0.00541826 0.00588549 0.00636007 0.00684201 0.0073208 0.00778592 0.00823737 0.00867517 0.00909929 0.00950976 0.00990656 0.0102897 0.0106547 0.0109973 0.0113174 0.0116149 0.01189 0.0121425 0.0123726 0.0125801 0.0127657 0.0129299 0.0130727 0.013194 0.0132939 0.0133724 0.0134295 0.0134651 0.0134824 0.0134846 0.0134715 0.0134432 0.0133998 0.0133411 0.0132672 0.0131782 0.0130772 0.0129678 0.0128498 0.0127233 0.0125882 0.0124446 0.0122925 0.0121319 0.0119649 0.0117935 0.0116178 0.0114378 0.0112535 0.0110648 0.0108718 0.0106746 0.0104736 0.0102697 0.0100627 0.00985279 0.00963983 0.00942387 0.00920491 0.00898294 0.00875796 0.00852994 0.00829889 0.0080648 0.00782768 0.00758753 0.00734435 0.00709813 0.00684935 0.00659847 0.0063455 0.00609043 0.00583327 0.00557402 0.00531266 0.00504922 0.00478556 0.00452358 0.00426327 0.00400462 0.00374765 0.00349236 0.00323873 0.00298678 0.00274001 0.00250194 0.00227257 0.0020519 0.00183993 0.00163666 0.00144208 0.00125621 0.00108189 0.000921975 0.000776469 0.000645371 0.000528681 0.000426398 0.000338523 0.000265055 0.000202933 0.000149094 0.000103537 6.62638e-05 3.72734e-05 1.6566e-05 4.14149e-06 0 0 1.454e-05 5.81599e-05 0.00013086 0.00023264 0.000363499 0.000523439 0.000712459 0.000930559 0.00118169 0.00146981 0.0017949 0.00215699 0.00255605 0.0029921 0.00346513 0.00397515 0.00450812 0.00505 0.0056008 0.00616051 0.00672914 0.00730669 0.00789315 0.00848853 0.00907996 0.00965457 0.0102124 0.0107533 0.0112775 0.0117848 0.0122753 0.012749 0.0132004 0.0136242 0.0140202 0.0143885 0.0147292 0.0150421 0.0153274 0.0155849 0.0158154 0.0160194 0.0161971 0.0163482 0.016473 0.0165713 0.0166432 0.0166887 0.0167115 0.0167155 0.0167007 0.016667 0.0166145 0.0165431 0.016453 0.016344 0.0162202 0.0160858 0.0159408 0.0157851 0.0156188 0.0154419 0.0152543 0.015056 0.0148497 0.014638 0.0144209 0.0141983 0.0139702 0.0137367 0.0134978 0.0132534 0.0130045 0.0127517 0.0124952 0.0122349 0.0119708 0.011703 0.0114313 0.0111559 0.0108768 0.0105939 0.0103072 0.0100168 0.00972259 0.00942465 0.00912296 0.00881752 0.00850892 0.00819776 0.00788404 0.00756777 0.00724894 0.00692755 0.0066036 0.00627709 0.00595035 0.00562568 0.00530309 0.00498258 0.00466415 0.00434779 0.00403352 0.00372132 0.0034155 0.00312036 0.00283589 0.00256209 0.00229897 0.00204652 0.00180474 0.00157364 0.00135674 0.00115759 0.000976183 0.000812517 0.000666595 0.000538416 0.00042798 0.000335287 0.000256704 0.000188599 0.000130971 8.38217e-05 4.71497e-05 2.09554e-05 5.23885e-06 0 0 1.79148e-05 7.16592e-05 0.000161233 0.000286637 0.00044787 0.000644933 0.000877825 0.00114655 0.00145539 0.00180865 0.00220632 0.0026484 0.00313489 0.0036658 0.00424112 0.00486086 0.00550807 0.00616582 0.00683412 0.00751295 0.00820233 0.00890225 0.0096127 0.0103337 0.0110498 0.0117457 0.0124213 0.0130766 0.0137116 0.0143263 0.0149208 0.015495 0.0160424 0.0165563 0.0170369 0.0174841 0.0178978 0.0182782 0.0186252 0.0189388 0.0192197 0.0194687 0.0196857 0.0198707 0.0200238 0.0201449 0.020234 0.0202912 0.020321 0.0203278 0.0203118 0.0202729 0.0202111 0.0201264 0.0200189 0.0198884 0.01974 0.0195785 0.019404 0.0192164 0.0190158 0.0188022 0.0185754 0.0183357 0.018086 0.0178296 0.0175664 0.0172965 0.0170199 0.0167365 0.0164463 0.0161494 0.0158468 0.0155395 0.0152276 0.014911 0.0145897 0.0142637 0.0139331 0.0135978 0.0132579 0.0129135 0.0125644 0.0122109 0.0118527 0.0114901 0.0111228 0.010751 0.0103754 0.00999676 0.00961505 0.00923029 0.00884247 0.0084516 0.00805768 0.0076607 0.00726347 0.00686877 0.00647661 0.00608698 0.0056999 0.00531535 0.00493334 0.00455386 0.00418207 0.00382309 0.00347692 0.00314357 0.00282304 0.00251532 0.00222042 0.00193834 0.00167337 0.00142979 0.00120762 0.00100686 0.000827494 0.000669533 0.000532974 0.000417818 0.000319892 0.000235023 0.00016321 0.000104455 5.87557e-05 2.61136e-05 6.52841e-06 0 0 2.17288e-05 8.6915e-05 0.000195559 0.00034766 0.000543219 0.000782235 0.00106471 0.00139064 0.00176451 0.00219081 0.00266954 0.00320069 0.00378428 0.00442028 0.00510872 0.00584958 0.00662277 0.00740819 0.00820583 0.00901571 0.00983782 0.0106722 0.0115187 0.0123775 0.0132304 0.0140593 0.0148641 0.0156449 0.0164017 0.0171344 0.017843 0.0185277 0.0191805 0.0197938 0.0203674 0.0209015 0.0213959 0.0218508 0.0222661 0.0226418 0.0229787 0.0232776 0.0235385 0.0237613 0.0239462 0.024093 0.0242019 0.0242727 0.0243108 0.0243216 0.024305 0.024261 0.0241897 0.024091 0.023965 0.0238116 0.0236366 0.0234459 0.0232394 0.0230172 0.0227792 0.0225255 0.022256 0.0219708 0.0216737 0.0213682 0.0210545 0.0207326 0.0204025 0.020064 0.0197174 0.0193625 0.0190006 0.0186331 0.0182599 0.017881 0.0174964 0.0171061 0.0167102 0.0163086 0.0159014 0.0154887 0.0150706 0.0146471 0.0142182 0.0137838 0.0133439 0.0128986 0.0124489 0.0119955 0.0115385 0.011078 0.0106139 0.0101462 0.0096749 0.00920004 0.00872492 0.00825285 0.00778382 0.00731784 0.00685491 0.00639502 0.00593819 0.0054844 0.0050397 0.00461012 0.00419567 0.00379635 0.00341215 0.00304308 0.00268914 0.00235032 0.00203176 0.00173858 0.00147079 0.00122839 0.00101138 0.000819748 0.000653506 0.00051265 0.000392498 0.000288366 0.000200254 0.000128163 7.20914e-05 3.20406e-05 8.01016e-06 0 0 2.59819e-05 0.000103927 0.000233837 0.00041571 0.000649547 0.000935347 0.00127311 0.00166284 0.00210906 0.00261631 0.00318458 0.00381387 0.0045042 0.00525554 0.00606791 0.0069413 0.0078522 0.00877708 0.00971595 0.0106688 0.0116356 0.0126164 0.0136112 0.01462 0.0156217 0.0165954 0.0175409 0.0184583 0.0193477 0.0202089 0.021042 0.0218471 0.0226149 0.0233365 0.0240118 0.0246408 0.0252235 0.0257599 0.02625 0.0266939 0.0270923 0.0274462 0.0277554 0.0280201 0.0282402 0.0284158 0.0285468 0.0286331 0.0286811 0.0286968 0.0286802 0.0286314 0.0285503 0.0284369 0.0282913 0.0281134 0.02791 0.0276878 0.027447 0.0271873 0.026909 0.0266119 0.0262961 0.0259616 0.0256127 0.0252539 0.0248851 0.0245065 0.0241179 0.0237194 0.023311 0.0228927 0.022466 0.0220325 0.0215921 0.021145 0.020691 0.0202302 0.0197626 0.0192882 0.0188071 0.0183197 0.0178258 0.0173255 0.0168189 0.0163058 0.0157863 0.0152604 0.0147292 0.0141939 0.0136545 0.0131109 0.0125631 0.0120113 0.0114553 0.0108951 0.0103347 0.00977791 0.00922472 0.00867514 0.00812917 0.00758681 0.00704806 0.00651292 0.00598839 0.00548146 0.00499214 0.00452042 0.0040663 0.00362979 0.00321088 0.00280957 0.00243192 0.00208396 0.00176569 0.00147712 0.00121824 0.000989062 0.000789575 0.000619782 0.000474521 0.000348627 0.000242102 0.000154946 8.71568e-05 3.87364e-05 9.68409e-06 0 0 3.06741e-05 0.000122696 0.000276067 0.000490786 0.000766853 0.00110427 0.00150303 0.00196314 0.00248903 0.00308513 0.00375143 0.00448794 0.00529465 0.00617158 0.0071187 0.00813604 0.00919638 0.0102725 0.0113645 0.0124722 0.0135957 0.0147351 0.0158902 0.0170612 0.0182238 0.0193539 0.0204516 0.0215168 0.0225496 0.0235499 0.0245178 0.0254531 0.0263456 0.0271845 0.02797 0.028702 0.0293805 0.0300055 0.030577 0.0310951 0.0315606 0.0319745 0.0323366 0.0326471 0.032906 0.0331132 0.0332687 0.0333725 0.0334318 0.0334534 0.0334375 0.0333839 0.0332928 0.0331641 0.0329978 0.0327939 0.0325602 0.0323044 0.0320267 0.031727 0.0314052 0.0310614 0.0306956 0.0303078 0.0299031 0.0294866 0.0290583 0.0286182 0.0281663 0.0277027 0.0272272 0.02674 0.0262428 0.0257376 0.0252243 0.0247029 0.0241735 0.0236359 0.0230903 0.0225366 0.0219752 0.0214063 0.0208299 0.0202461 0.0196548 0.0190561 0.0184499 0.0178362 0.0172165 0.016592 0.0159629 0.0153289 0.0146903 0.0140469 0.0133988 0.0127459 0.0120928 0.011444 0.0107993 0.0101589 0.0095227 0.00889072 0.00826297 0.00763944 0.00702815 0.00643711 0.00586632 0.00531578 0.00478548 0.00427544 0.00378565 0.0033161 0.00287385 0.00246592 0.00209232 0.00175304 0.0014481 0.00117748 0.000941181 0.000739214 0.000565961 0.000415808 0.000288756 0.000184804 0.000103952 4.62009e-05 1.15502e-05 0 0 3.58055e-05 0.000143222 0.00032225 0.000572888 0.000895138 0.001289 0.00175447 0.00229155 0.00290443 0.00359727 0.00437009 0.00522289 0.00615565 0.00716839 0.0082611 0.00943378 0.0106553 0.0118945 0.0131514 0.0144259 0.0157181 0.0170281 0.0183557 0.0197009 0.0210365 0.0223349 0.0235963 0.0248204 0.0260075 0.0271574 0.0282702 0.0293459 0.0303724 0.0313378 0.032242 0.033085 0.0338669 0.0345876 0.0352471 0.0358454 0.0363836 0.0368624 0.037282 0.0376423 0.0379434 0.0381852 0.0383677 0.0384909 0.0385629 0.0385915 0.0385767 0.0385187 0.0384173 0.0382725 0.0380844 0.037853 0.0375872 0.0372957 0.0369786 0.036636 0.0362678 0.0358739 0.0354545 0.0350095 0.0345448 0.0340663 0.0335739 0.0330677 0.0325476 0.0320137 0.031466 0.0309044 0.0303312 0.0297485 0.0291564 0.0285548 0.0279438 0.0273233 0.0266934 0.026054 0.0254055 0.0247485 0.0240829 0.0234088 0.022726 0.0220347 0.0213347 0.0206262 0.0199107 0.0191899 0.0184637 0.0177322 0.0169953 0.016253 0.0155054 0.0147525 0.0139993 0.013251 0.0125076 0.0117691 0.0110355 0.0103068 0.00958291 0.00886396 0.00815898 0.00747707 0.00681822 0.00618243 0.00556971 0.00498005 0.00441345 0.00386991 0.00335755 0.00288447 0.00245067 0.00205616 0.00170093 0.00138499 0.00110833 0.000870947 0.000666819 0.000489907 0.000340214 0.000217737 0.000122477 5.44342e-05 1.36085e-05 0 0 4.13761e-05 0.000165504 0.000372385 0.000662017 0.0010344 0.00148954 0.00202743 0.00264807 0.00335525 0.00415275 0.00504057 0.00601872 0.00708719 0.00824598 0.0094951 0.0108345 0.0122289 0.013643 0.0150767 0.0165299 0.0180029 0.0194954 0.0210076 0.0225394 0.02406 0.0255384 0.0269748 0.0283691 0.0297213 0.0310314 0.0322994 0.0335254 0.0346956 0.0357964 0.0368279 0.03779 0.0386828 0.0395062 0.0402602 0.0409449 0.0415612 0.0421101 0.0425916 0.0430057 0.0433524 0.0436318 0.0438437 0.0439882 0.0440743 0.0441109 0.044098 0.0440356 0.0439237 0.0437623 0.0435513 0.0432909 0.042991 0.0426616 0.0423028 0.0419145 0.0414967 0.0410496 0.0405729 0.0400668 0.039538 0.038993 0.038432 0.037855 0.0372618 0.0366526 0.0360273 0.0353859 0.0347311 0.0340652 0.0333884 0.0327007 0.032002 0.0312923 0.0305717 0.0298402 0.0290982 0.0283465 0.0275849 0.0268136 0.0260325 0.0252416 0.0244408 0.0236303 0.0228119 0.0219875 0.021157 0.0203206 0.0194781 0.0186297 0.0177752 0.0169148 0.0160541 0.015199 0.0143496 0.0135058 0.0126675 0.0118349 0.0110079 0.0101865 0.00938088 0.00860133 0.00784783 0.00712038 0.00641897 0.0057436 0.00509427 0.00447099 0.00388302 0.0033396 0.00284076 0.00238647 0.00197675 0.0016116 0.00129101 0.00101498 0.000777094 0.000570926 0.000396476 0.000253745 0.000142731 6.34362e-05 1.58591e-05 0 0 4.72919e-05 0.000189168 0.000425627 0.00075667 0.0011823 0.00170251 0.0023173 0.00302668 0.0038339 0.00474222 0.00575164 0.00686217 0.00807379 0.00938651 0.0108003 0.0123153 0.0138915 0.0154894 0.0171088 0.0187498 0.0204125 0.0220966 0.0238024 0.0255298 0.0272443 0.0289115 0.0305315 0.0321041 0.0336295 0.0351076 0.0365384 0.037922 0.0392429 0.040486 0.0416511 0.0427384 0.0437477 0.0446792 0.0455328 0.0463084 0.0470072 0.0476301 0.0481771 0.0486483 0.0490435 0.0493629 0.0496063 0.0497739 0.0498756 0.0499212 0.0499109 0.0498446 0.0497222 0.0495439 0.0493096 0.0490193 0.0486843 0.0483157 0.0479135 0.0474778 0.0470085 0.0465056 0.0459693 0.0453993 0.0448034 0.0441889 0.043556 0.0429047 0.0422348 0.0415465 0.0408398 0.0401145 0.0393738 0.0386205 0.0378546 0.0370762 0.0362852 0.0354816 0.0346655 0.0338368 0.0329963 0.0321447 0.031282 0.0304083 0.0295235 0.0286277 0.0277207 0.0268027 0.0258758 0.0249423 0.024002 0.0230551 0.0221015 0.0211412 0.0201742 0.0192005 0.0182267 0.0172592 0.0162981 0.0153434 0.014395 0.013453 0.0125173 0.011588 0.0106764 0.00979392 0.00894061 0.00811643 0.00732138 0.00655546 0.00581867 0.00511102 0.00444298 0.00382503 0.00325718 0.00273942 0.00227176 0.00185419 0.00148672 0.00116934 0.000895273 0.000657751 0.000456772 0.000292334 0.000164438 7.30835e-05 1.82709e-05 0 0 5.34591e-05 0.000213836 0.000481132 0.000855346 0.00133648 0.00192453 0.0026195 0.00342138 0.0043328 0.00535637 0.00649209 0.00773997 0.00909999 0.0105722 0.0121565 0.0138529 0.0156172 0.017405 0.0192163 0.0210511 0.0229094 0.0247912 0.0266966 0.0286254 0.0305396 0.0324012 0.0342103 0.0359667 0.0376704 0.0393216 0.0409202 0.0424661 0.0439424 0.0453321 0.0466352 0.0478516 0.0489814 0.0500246 0.0509812 0.0518512 0.0526355 0.0533353 0.0539504 0.054481 0.0549269 0.0552883 0.0555651 0.0557573 0.0558758 0.0559317 0.0559249 0.0558554 0.0557231 0.0555283 0.0552707 0.0549504 0.0545799 0.0541715 0.0537253 0.0532412 0.0527194 0.0521596 0.0515621 0.0509267 0.0502619 0.0495761 0.0488693 0.0481414 0.0473926 0.0466228 0.045832 0.0450202 0.0441907 0.043347 0.042489 0.0416168 0.0407303 0.0398296 0.0389146 0.0379853 0.0370428 0.0360878 0.0351204 0.0341406 0.0331485 0.0321439 0.031127 0.0300976 0.0290584 0.0280118 0.0269579 0.0258965 0.0248278 0.0237518 0.0226683 0.0215775 0.0204866 0.0194028 0.0183261 0.0172565 0.0161941 0.0151387 0.0140905 0.0130494 0.012028 0.0110389 0.010082 0.00915738 0.00826505 0.00740498 0.00657718 0.00578166 0.00503016 0.00433446 0.00369457 0.00311046 0.00258216 0.00210966 0.00169295 0.00133204 0.00101984 0.000749273 0.000520328 0.00033301 0.000187318 8.32525e-05 2.08131e-05 0 0 5.98777e-05 0.000239511 0.0005389 0.000958044 0.00149694 0.0021556 0.00293401 0.00383217 0.00485195 0.0059952 0.00726192 0.00865211 0.0101658 0.0118029 0.0135635 0.0154476 0.0174061 0.01939 0.0213992 0.0234338 0.0254939 0.0275792 0.02969 0.0318262 0.0339459 0.0360076 0.0380112 0.0399567 0.0418441 0.0436735 0.0454447 0.0471578 0.0487941 0.0503349 0.0517801 0.0531298 0.0543839 0.0555425 0.0566056 0.0575731 0.058446 0.0592255 0.0599114 0.0605039 0.0610028 0.0614082 0.06172 0.0619384 0.0620752 0.0621424 0.06214 0.062068 0.0619264 0.0617152 0.0614344 0.061084 0.0606777 0.0602291 0.0597381 0.0592049 0.0586294 0.0580115 0.0573514 0.056649 0.0559135 0.0551545 0.0543717 0.0535653 0.0527352 0.0518814 0.051004 0.0501029 0.0491819 0.0482449 0.0472918 0.0463227 0.0453376 0.0443364 0.0433191 0.0422859 0.0412377 0.0401757 0.0391 0.0380106 0.0369073 0.0357903 0.0346596 0.0335151 0.0323596 0.0311962 0.0300246 0.028845 0.0276573 0.0264615 0.0252577 0.0240458 0.0228338 0.0216297 0.0204335 0.0192452 0.0180647 0.0168922 0.0157276 0.0145708 0.0134357 0.0123361 0.011272 0.0102432 0.00924998 0.00829217 0.00736981 0.00648291 0.00564456 0.0048679 0.00415291 0.00349959 0.00290795 0.00237799 0.0019097 0.00150309 0.00115081 0.00084549 0.000587146 0.000375773 0.000211372 9.39433e-05 2.34858e-05 0 0 6.65477e-05 0.000266191 0.00059893 0.00106476 0.00166369 0.00239572 0.00326084 0.00425906 0.00539135 0.00665871 0.00806113 0.00959861 0.0112712 0.0130788 0.0150214 0.0170992 0.019258 0.0214441 0.0236574 0.0258979 0.0281657 0.0304606 0.0327828 0.0351322 0.0374633 0.0397307 0.0419344 0.0440743 0.0461506 0.0481631 0.050112 0.0519971 0.053798 0.0554943 0.0570859 0.0585728 0.0599551 0.0612328 0.0624058 0.0634741 0.0644388 0.0653009 0.0660602 0.0667169 0.067271 0.0677224 0.0680711 0.0683172 0.0684736 0.0685532 0.0685562 0.0684824 0.068332 0.0681048 0.0678008 0.0674202 0.0669778 0.0664884 0.065952 0.0653687 0.0647385 0.0640613 0.0633372 0.0625661 0.0617584 0.0609241 0.0600634 0.0591762 0.0582625 0.0573223 0.0563557 0.0553626 0.0543473 0.053314 0.0522629 0.0511938 0.0501068 0.0490019 0.0478791 0.0467383 0.045581 0.0444085 0.0432209 0.0420181 0.0408001 0.0395669 0.0383185 0.037055 0.0357795 0.0344952 0.0332022 0.0319003 0.0305897 0.0292703 0.0279422 0.0266052 0.0252682 0.0239399 0.0226203 0.0213093 0.020007 0.0187134 0.0174285 0.0161522 0.0148996 0.0136857 0.0125105 0.011374 0.0102762 0.00921702 0.00819655 0.00721477 0.00628619 0.00542533 0.00463221 0.00390681 0.00324914 0.0026592 0.00213698 0.00168249 0.00128816 0.000946403 0.000657224 0.000420623 0.000236601 0.000105156 2.6289e-05 0 0 7.34691e-05 0.000293877 0.000661222 0.00117551 0.00183673 0.00264489 0.00359999 0.00470203 0.00595099 0.00734689 0.00888971 0.0105795 0.0124161 0.0143997 0.0165303 0.0188077 0.0211731 0.0235676 0.025991 0.0284434 0.0309249 0.0334354 0.0359749 0.0385434 0.0410916 0.0435704 0.0459797 0.0483195 0.0505898 0.0527907 0.054922 0.0569839 0.0589541 0.0608103 0.0625525 0.0641808 0.0656951 0.0670955 0.0683819 0.0695544 0.0706138 0.0715613 0.0723967 0.0731202 0.0737316 0.074231 0.0746183 0.0748937 0.075071 0.0751643 0.0751736 0.0750987 0.0749399 0.074697 0.07437 0.073959 0.0734801 0.0729494 0.0723669 0.0717327 0.0710467 0.070309 0.0695195 0.0686782 0.0677963 0.066885 0.0659443 0.0649741 0.0639746 0.0629456 0.0618872 0.0607993 0.0596869 0.0585545 0.0574022 0.0562301 0.0550381 0.0538262 0.0525944 0.0513427 0.0500728 0.0487862 0.047483 0.0461632 0.0448267 0.0434736 0.0421039 0.0407175 0.039318 0.0379091 0.0364906 0.0350627 0.0336253 0.0321783 0.0307219 0.0292559 0.02779 0.0263335 0.0248865 0.0234489 0.0220209 0.0206023 0.0191932 0.0177936 0.0164196 0.0150877 0.0137977 0.0125497 0.0113436 0.0101795 0.00905741 0.00797724 0.00695503 0.00600677 0.00513246 0.00433211 0.00360571 0.00295327 0.00237478 0.00187024 0.0014319 0.00105201 0.000730563 0.00046756 0.000263003 0.00011689 2.92225e-05 0 0 8.0642e-05 0.000322568 0.000725778 0.00129027 0.00201605 0.00290311 0.00395146 0.00516109 0.00653089 0.00805975 0.00974767 0.0115947 0.0136007 0.0157658 0.01809 0.0205732 0.0231513 0.0257602 0.0283999 0.0310704 0.0337716 0.0365035 0.0392663 0.0420598 0.044831 0.0475268 0.0501472 0.0526922 0.0551618 0.057556 0.0598748 0.0621183 0.0642623 0.0662829 0.06818 0.0699536 0.0716038 0.0731306 0.0745339 0.0758138 0.0769711 0.0780069 0.078921 0.0797136 0.0803846 0.0809339 0.0813617 0.0816679 0.0818676 0.0819756 0.081992 0.0819169 0.0817501 0.0814918 0.0811419 0.0807003 0.0801846 0.0796122 0.0789829 0.0782969 0.0775541 0.0767546 0.0758982 0.0749851 0.0740274 0.0730371 0.0720144 0.0709591 0.0698714 0.0687511 0.0675984 0.0664131 0.0652007 0.0639663 0.0627099 0.0614316 0.060131