<?xml version="1.0"?> 
<VTKFile type="StructuredGrid" version="0.1"> 
<StructuredGrid WholeExtent="0 128 0 128 0 0"> 
<Piece Extent="0 128 0 128 0 0"> 
<PointData>
<DataArray type="Float32" Name="u" format="ascii" NumberOfComponents="1"> 
0 0 0 0 0 0 0 0 0 0 0 0 0 0 0 0 0 0 0 0 0 0 0 0 0 0 0 0 0 0 0 0 0 0 0 0 0 0 0 0 0 0 0 0 0 0 0 0 0 0 0 0 0 0 0 0 0 0 0 0 0 0 0 0 0 0 0 0 0 0 0 0 0 0 0 0 0 0 0 0 0 0 0 0 0 0 0 0 0 0 0 0 0 0 0 0 0 0 0 0 0 0 0 0 0 0 0 0 0 0 0 0 0 0 0 0 0 0 0 0 0 0 0 0 0 0 0 0 0 0 3.00823e-07 1.20329e-06 2.70741e-06 4.81317e-06 7.52057e-06 1.08296e-05 1.47403e-05 1.92527e-05 2.44539e-05 3.04314e-05 3.71851e-05 4.47149e-05 5.3021e-05 6.21032e-05 7.19617e-05 8.25964e-05 9.37262e-05 0.00010507 0.000116629 0.000128401 0.000140388 0.000152589 0.000165005 0.000177634 0.00019021 0.000202463 0.000214393 0.000226001 0.000237286 0.000248249 0.000258889 0.000269206 0.000279064 0.000288325 0.000296989 0.000305057 0.000312528 0.000319401 0.000325678 0.000331359 0.000336421 0.000340843 0.000344625 0.000347767 0.000350269 0.000352131 0.000353353 0.000353935 0.000353936 0.000353411 0.000352363 0.00035079 0.000348693 0.000346071 0.000342925 0.000339254 0.000335155 0.000330723 0.000325959 0.000320861 0.00031543 0.000309667 0.000303571 0.000297142 0.000290477 0.000283676 0.000276737 0.00026966 0.000262446 0.000255095 0.000247606 0.00023998 0.000232293 0.000224623 0.000216969 0.000209331 0.00020171 0.000194105 0.000186516 0.000178944 0.000171437 0.000164044 0.000156764 0.000149597 0.000142545 0.000135606 0.00012878 0.000122068 0.000115495 0.000109085 0.000102839 9.6757e-05 9.08384e-05 8.50835e-05 7.94924e-05 7.40649e-05 6.88138e-05 6.37518e-05 5.88789e-05 5.41951e-05 4.97005e-05 4.5395e-05 4.12785e-05 3.73512e-05 3.36232e-05 3.01047e-05 2.67957e-05 2.36961e-05 2.0806e-05 1.81255e-05 1.56543e-05 1.33927e-05 1.13334e-05 9.46925e-06 7.80026e-06 6.32641e-06 5.04772e-06 3.96419e-06 3.07581e-06 2.38259e-06 1.82417e-06 1.3402e-06 9.30698e-07 5.95647e-07 3.35051e-07 1.48912e-07 3.72279e-08 0 0 1.20329e-06 4.81317e-06 1.08296e-05 1.92527e-05 3.00823e-05 4.33185e-05 5.89613e-05 7.70107e-05 9.78157e-05 0.000121726 0.00014874 0.00017886 0.000212084 0.000248413 0.000287847 0.000330385 0.000374905 0.000420281 0.000466515 0.000513605 0.000561553 0.000610357 0.000660019 0.000710537 0.000760839 0.00080985 0.000857572 0.000904003 0.000949144 0.000992994 0.00103555 0.00107682 0.00111626 0.0011533 0.00118796 0.00122023 0.00125011 0.00127761 0.00130271 0.00132543 0.00134568 0.00136337 0.0013785 0.00139107 0.00140108 0.00140852 0.00141341 0.00141574 0.00141574 0.00141365 0.00140945 0.00140316 0.00139477 0.00138428 0.0013717 0.00135702 0.00134062 0.00132289 0.00130383 0.00128344 0.00126172 0.00123867 0.00121428 0.00118857 0.00116191 0.0011347 0.00110695 0.00107864 0.00104978 0.00102038 0.000990424 0.000959919 0.000929172 0.000898491 0.000867875 0.000837324 0.000806839 0.00077642 0.000746066 0.000715778 0.000685749 0.000656175 0.000627055 0.00059839 0.000570179 0.000542422 0.00051512 0.000488272 0.000461979 0.000436341 0.000411357 0.000387028 0.000363354 0.000340334 0.000317969 0.000296259 0.000275255 0.000255007 0.000235516 0.000216781 0.000198802 0.00018158 0.000165114 0.000149405 0.000134493 0.000120419 0.000107183 9.47845e-05 8.32242e-05 7.25018e-05 6.26174e-05 5.35709e-05 4.53336e-05 3.7877e-05 3.1201e-05 2.53056e-05 2.01909e-05 1.58568e-05 1.23032e-05 9.53034e-06 7.29667e-06 5.36082e-06 3.72279e-06 2.38259e-06 1.3402e-06 5.95647e-07 1.48912e-07 0 0 2.70741e-06 1.08296e-05 2.43667e-05 4.33185e-05 6.76852e-05 9.74666e-05 0.000132663 0.000173274 0.000220085 0.000273883 0.000334666 0.000402434 0.000477189 0.000558929 0.000647655 0.000743367 0.000843536 0.000945633 0.00104966 0.00115561 0.00126349 0.0013733 0.00148504 0.00159871 0.00171189 0.00182216 0.00192954 0.00203401 0.00213557 0.00223424 0.00233 0.00242286 0.00251158 0.00259493 0.0026729 0.00274551 0.00281275 0.00287461 0.00293111 0.00298223 0.00302779 0.00306758 0.00310162 0.0031299 0.00315242 0.00316918 0.00318018 0.00318542 0.00318542 0.0031807 0.00317127 0.00315711 0.00313823 0.00311464 0.00308632 0.00305329 0.0030164 0.00297651 0.00293363 0.00288775 0.00283887 0.002787 0.00273214 0.00267427 0.0026143 0.00255308 0.00249063 0.00242694 0.00236202 0.00229585 0.00222845 0.00215982 0.00209064 0.0020216 0.00195272 0.00188398 0.00181539 0.00174694 0.00167865 0.0016105 0.00154294 0.00147639 0.00141087 0.00134638 0.0012829 0.00122045 0.00115902 0.00109861 0.00103945 0.000981767 0.000925553 0.000870813 0.000817546 0.000765752 0.000715431 0.000666584 0.000619324 0.000573766 0.00052991 0.000487756 0.000447304 0.000408555 0.000371507 0.000336161 0.000302609 0.000270942 0.000241161 0.000213265 0.000187254 0.000163129 0.000140889 0.000120534 0.000102001 8.52233e-05 7.02023e-05 5.69377e-05 4.54295e-05 3.56777e-05 2.76823e-05 2.14433e-05 1.64175e-05 1.20618e-05 8.37628e-06 5.36082e-06 3.01546e-06 1.3402e-06 3.35051e-07 0 0 4.81317e-06 1.92527e-05 4.33185e-05 7.70107e-05 0.000120329 0.000173274 0.000235845 0.000308043 0.000391263 0.000486902 0.000594961 0.000715439 0.000848336 0.000993652 0.00115139 0.00132154 0.00149962 0.00168113 0.00186606 0.00205442 0.00224621 0.00244143 0.00264007 0.00284215 0.00304335 0.0032394 0.00343029 0.00361601 0.00379657 0.00397198 0.00414222 0.0043073 0.00446503 0.0046132 0.00475183 0.00488091 0.00500044 0.00511042 0.00521086 0.00530174 0.00538273 0.00545348 0.00551399 0.00556427 0.0056043 0.0056341 0.00565365 0.00566297 0.00566297 0.00565458 0.00563781 0.00561264 0.00557908 0.00553713 0.0054868 0.00542807 0.00536248 0.00529157 0.00521534 0.00513377 0.00504689 0.00495467 0.00485713 0.00475427 0.00464764 0.00453881 0.00442779 0.00431456 0.00419914 0.00408152 0.0039617 0.00383968 0.00371669 0.00359396 0.0034715 0.0033493 0.00322736 0.00310568 0.00298426 0.00286311 0.002743 0.0026247 0.00250822 0.00239356 0.00228072 0.00216969 0.00206048 0.00195309 0.00184792 0.00174536 0.00164543 0.00154811 0.00145341 0.00136134 0.00127188 0.00118504 0.00110102 0.00102003 0.000942062 0.000867122 0.000795208 0.000726319 0.000660457 0.00059762 0.000537972 0.000481675 0.000428731 0.000379138 0.000332897 0.000290007 0.00025047 0.000214283 0.000181335 0.000151508 0.000124804 0.000101223 8.07636e-05 6.3427e-05 4.9213e-05 3.81214e-05 2.91867e-05 2.14433e-05 1.48912e-05 9.53034e-06 5.36082e-06 2.38259e-06 5.95647e-07 0 0 7.52057e-06 3.00823e-05 6.76852e-05 0.000120329 0.000188014 0.000270741 0.000368508 0.000481317 0.000611348 0.000760785 0.000929627 0.00111787 0.00132552 0.00155258 0.00179904 0.00206491 0.00234316 0.00262676 0.00291572 0.00321003 0.0035097 0.00381473 0.00412512 0.00444086 0.00475524 0.00506156 0.00535982 0.00565002 0.00593215 0.00620621 0.00647222 0.00673016 0.0069766 0.00720813 0.00742474 0.00762642 0.00781319 0.00798504 0.00814196 0.00828397 0.00841052 0.00852106 0.00861561 0.00869417 0.00875672 0.00880327 0.00883383 0.00884839 0.00884839 0.00883529 0.00880907 0.00876975 0.00871731 0.00865177 0.00857312 0.00848136 0.00837888 0.00826808 0.00814896 0.00802152 0.00788576 0.00774167 0.00758927 0.00742854 0.00726193 0.00709189 0.00691842 0.0067415 0.00656115 0.00637737 0.00619015 0.00599949 0.00580733 0.00561557 0.00542422 0.00523328 0.00504275 0.00485262 0.00466291 0.00447361 0.00428593 0.00410109 0.0039191 0.00373994 0.00356362 0.00339014 0.0032195 0.0030517 0.00288737 0.00272713 0.00257098 0.00241892 0.00227096 0.00212709 0.00198731 0.00185162 0.00172034 0.00159379 0.00147197 0.00135488 0.00124251 0.00113487 0.00103196 0.000933781 0.000840581 0.000752618 0.000669892 0.000592403 0.000520151 0.000453136 0.000391359 0.000334818 0.000283335 0.000236731 0.000195006 0.00015816 0.000126193 9.91047e-05 7.68953e-05 5.95647e-05 4.56042e-05 3.35051e-05 2.32674e-05 1.48912e-05 8.37628e-06 3.72279e-06 9.30698e-07 0 0 1.08296e-05 4.33185e-05 9.74666e-05 0.000173274 0.000270741 0.000389867 0.000530652 0.000693096 0.000880342 0.00109553 0.00133866 0.00160974 0.00190876 0.00223572 0.00259062 0.00297347 0.00337414 0.00378253 0.00419863 0.00462245 0.00505397 0.00549321 0.00594017 0.00639483 0.00684755 0.00728865 0.00771814 0.00813602 0.00854229 0.00893695 0.00931999 0.00969142 0.0100463 0.0103797 0.0106916 0.010982 0.011251 0.0114985 0.0117244 0.0119289 0.0121111 0.0122703 0.0124065 0.0125196 0.0126097 0.0126767 0.0127207 0.0127417 0.0127417 0.0127228 0.0126851 0.0126284 0.0125529 0.0124586 0.0123453 0.0122132 0.0120656 0.011906 0.0117345 0.011551 0.0113555 0.011148 0.0109285 0.0106971 0.0104572 0.0102123 0.00996252 0.00970776 0.00944806 0.00918341 0.00891382 0.00863927 0.00836255 0.00808642 0.00781087 0.00753592 0.00726155 0.00698778 0.00671459 0.006442 0.00617174 0.00590557 0.0056435 0.00538551 0.00513161 0.0048818 0.00463608 0.00439445 0.00415781 0.00392707 0.00370221 0.00348325 0.00327018 0.00306301 0.00286172 0.00266633 0.0024773 0.00229506 0.00211964 0.00195102 0.00178922 0.00163422 0.00148603 0.00134464 0.00121044 0.00108377 0.000964644 0.00085306 0.000749018 0.000652516 0.000563556 0.000482138 0.000408003 0.000340893 0.000280809 0.000227751 0.000181718 0.000142711 0.000110729 8.57731e-05 6.567e-05 4.82474e-05 3.35051e-05 2.14433e-05 1.20618e-05 5.36082e-06 1.3402e-06 0 0 1.47403e-05 5.89613e-05 0.000132663 0.000235845 0.000368508 0.000530652 0.000722276 0.000943381 0.00119824 0.00149114 0.00182207 0.00219103 0.00259803 0.00304306 0.00352612 0.00404722 0.00459259 0.00514845 0.00571481 0.00629167 0.00687902 0.00747688 0.00808523 0.00870408 0.00932027 0.00992067 0.0105053 0.011074 0.011627 0.0121642 0.0126855 0.0131911 0.0136741 0.0141279 0.0145525 0.0149478 0.0153139 0.0156507 0.0159582 0.0162366 0.0164846 0.0167013 0.0168866 0.0170406 0.0171632 0.0172544 0.0173143 0.0173428 0.0173428 0.0173172 0.0172658 0.0171887 0.0170859 0.0169575 0.0168033 0.0166235 0.0164226 0.0162054 0.015972 0.0157222 0.0154561 0.0151737 0.014875 0.0145599 0.0142334 0.0139001 0.0135601 0.0132133 0.0128599 0.0124996 0.0121327 0.011759 0.0113824 0.0110065 0.0106315 0.0102572 0.00988378 0.00951114 0.00913931 0.00876827 0.00840043 0.00803814 0.00768143 0.00733028 0.00698469 0.00664467 0.00631022 0.00598134 0.00565924 0.00534517 0.00503912 0.00474109 0.00445108 0.00416909 0.00389513 0.00362918 0.00337187 0.00312384 0.00288507 0.00265556 0.00243532 0.00222435 0.00202265 0.00183021 0.00164754 0.00147513 0.00131299 0.00116111 0.0010195 0.000888147 0.000767063 0.000656243 0.000555337 0.000463993 0.000382213 0.000309994 0.000247338 0.000194245 0.000150715 0.000116747 8.93842e-05 6.567e-05 4.56042e-05 2.91867e-05 1.64175e-05 7.29667e-06 1.82417e-06 0 0 1.92527e-05 7.70107e-05 0.000173274 0.000308043 0.000481317 0.000693096 0.000943381 0.00123217 0.00156505 0.00194761 0.00237984 0.00286176 0.00339334 0.00397461 0.00460555 0.00528617 0.00599848 0.0067245 0.00746424 0.00821769 0.00898484 0.00976571 0.0105603 0.0113686 0.0121734 0.0129576 0.0137211 0.014464 0.0151863 0.0158879 0.0165689 0.0172292 0.0178601 0.0184528 0.0190073 0.0195236 0.0200018 0.0204417 0.0208434 0.021207 0.0215309 0.0218139 0.022056 0.0222571 0.0224172 0.0225364 0.0226146 0.0226519 0.0226519 0.0226183 0.0225512 0.0224506 0.0223163 0.0221485 0.0219472 0.0217123 0.0214499 0.0211663 0.0208613 0.0205351 0.0201875 0.0198187 0.0194285 0.0190171 0.0185906 0.0181552 0.0177111 0.0172582 0.0167966 0.0163261 0.0158468 0.0153587 0.0148668 0.0143759 0.013886 0.0133972 0.0129094 0.0124227 0.0119371 0.0114524 0.010972 0.0104988 0.0100329 0.00957424 0.00912286 0.00867876 0.00824192 0.00781236 0.00739167 0.00698145 0.00658171 0.00619245 0.00581366 0.00544535 0.00508751 0.00474015 0.00440408 0.00408011 0.00376825 0.00346849 0.00318083 0.00290528 0.00264183 0.00239048 0.00215189 0.0019267 0.00171492 0.00151655 0.00133159 0.00116003 0.00100188 0.000857134 0.000725338 0.000606032 0.000499216 0.00040489 0.000323054 0.000253708 0.000196852 0.000152486 0.000116747 8.57731e-05 5.95647e-05 3.81214e-05 2.14433e-05 9.53034e-06 2.38259e-06 0 0 2.44845e-05 9.79379e-05 0.00022036 0.000391752 0.000612112 0.000881441 0.00119974 0.00156701 0.00199009 0.00247582 0.00302421 0.00363525 0.00430895 0.0050453 0.00584431 0.00670598 0.00760758 0.0085264 0.00946245 0.0104157 0.0113862 0.0123739 0.0133788 0.014401 0.0154187 0.0164103 0.0173759 0.0183154 0.0192287 0.020116 0.0209772 0.0218123 0.0226103 0.02336 0.0240614 0.0247146 0.0253195 0.0258761 0.0263845 0.0268447 0.0272548 0.0276131 0.0279197 0.0281745 0.0283775 0.0285287 0.0286282 0.0286759 0.0286764 0.0286345 0.0285502 0.0284234 0.0282541 0.0280424 0.0277883 0.0274916 0.0271603 0.026802 0.0264167 0.0260044 0.0255652 0.0250989 0.0246057 0.0240855 0.0235463 0.0229958 0.0224342 0.0218615 0.0212775 0.0206824 0.0200762 0.0194587 0.0188364 0.0182153 0.0175955 0.016977 0.0163598 0.0157439 0.0151292 0.0145159 0.0139078 0.0133088 0.0127191 0.0121385 0.0115671 0.0110048 0.0104517 0.00990784 0.00937515 0.0088557 0.00834949 0.00785653 0.00737681 0.00691033 0.00645709 0.00601709 0.00559137 0.00518095 0.00478583 0.00440601 0.0040415 0.00369229 0.00335838 0.00303978 0.00273729 0.00245175 0.00218314 0.00193146 0.00169673 0.00147893 0.00127807 0.00109415 0.000926594 0.000774842 0.000638891 0.000518743 0.000414396 0.00032585 0.000253107 0.000196165 0.000150189 0.000110343 7.66268e-05 4.90411e-05 2.75856e-05 1.22603e-05 3.06507e-06 0 0 3.05536e-05 0.000122214 0.000274982 0.000488857 0.000763839 0.00109993 0.00149713 0.00195543 0.00248266 0.00308665 0.00376738 0.00452487 0.0053591 0.00627009 0.00725783 0.00832232 0.00943564 0.0105698 0.0117249 0.0129009 0.0140978 0.0153156 0.0165543 0.0178139 0.0190679 0.0202898 0.0214796 0.0226373 0.0237629 0.0248564 0.0259179 0.0269472 0.0279308 0.0288551 0.02972 0.0305255 0.0312718 0.0319586 0.0325861 0.0331543 0.0336609 0.0341037 0.0344828 0.0347981 0.0350497 0.0352375 0.0353616 0.0354219 0.0354241 0.035374 0.0352715 0.0351167 0.0349094 0.0346499 0.0343379 0.0339736 0.0335664 0.0331259 0.0326521 0.0321448 0.0316042 0.0310303 0.030423 0.0297824 0.0291181 0.02844 0.0277479 0.027042 0.0263222 0.0255885 0.024841 0.0240795 0.0233119 0.0225457 0.021781 0.0210178 0.0202562 0.0194959 0.0187372 0.01798 0.0172291 0.0164895 0.0157612 0.0150441 0.0143382 0.0136436 0.0129602 0.0122881 0.0116298 0.0109877 0.010362 0.00975255 0.00915942 0.00858259 0.00802206 0.00747784 0.00695119 0.00644339 0.00595444 0.00548434 0.00503309 0.00460069 0.00418714 0.00379243 0.00341757 0.00306353 0.00273032 0.00241793 0.00212636 0.00185562 0.00160571 0.00137662 0.00116769 0.000978254 0.000808308 0.000657854 0.000526892 0.000415423 0.000323445 0.000250959 0.000192141 0.000141164 9.80309e-05 6.27398e-05 3.52911e-05 1.56849e-05 3.92124e-06 0 0 3.746e-05 0.00014984 0.00033714 0.000599359 0.000936499 0.00134856 0.00183554 0.00239744 0.00304278 0.00378009 0.00460936 0.0055306 0.0065438 0.00764897 0.0088461 0.0101352 0.0114827 0.0128548 0.0142517 0.0156734 0.0171198 0.0185909 0.0200867 0.0216073 0.0231209 0.0245959 0.0260322 0.0274298 0.0287888 0.0301091 0.0313907 0.0326337 0.0338217 0.0349381 0.0359831 0.0369566 0.0378586 0.0386891 0.0394482 0.0401358 0.0407492 0.0412857 0.0417454 0.0421281 0.0424339 0.0426628 0.0428148 0.0428899 0.042895 0.0428367 0.0427152 0.0425303 0.0422822 0.0419708 0.0415962 0.0411582 0.0406684 0.0401381 0.0395674 0.0389563 0.0383048 0.0376128 0.0368804 0.0361076 0.0353061 0.0344877 0.0336523 0.0327999 0.0319306 0.0310444 0.0301412 0.029221 0.0282932 0.0273671 0.0264426 0.0255197 0.0245985 0.023679 0.022761 0.0218448 0.0209361 0.0200409 0.0191592 0.018291 0.0174363 0.0165951 0.0157674 0.0149531 0.0141555 0.0133775 0.0126192 0.0118805 0.0111615 0.0104621 0.00978244 0.00912239 0.00848354 0.00786744 0.00727408 0.00670347 0.0061556 0.00563047 0.00512809 0.00464845 0.00419271 0.00376205 0.00335646 0.00297594 0.00262049 0.00229011 0.0019848 0.00170456 0.00144863 0.00121627 0.00100747 0.000822225 0.000660545 0.000522425 0.000407867 0.000316869 0.000242603 0.000178239 0.000123777 7.92172e-05 4.45597e-05 1.98043e-05 4.95108e-06 0 0 4.52036e-05 0.000180815 0.000406833 0.000723258 0.00113009 0.00162733 0.00221498 0.00289303 0.00367044 0.00455614 0.00555015 0.00665245 0.00786304 0.00918194 0.0106091 0.0121446 0.0137486 0.0153814 0.0170428 0.0187331 0.020452 0.0221997 0.0239761 0.0257812 0.0275779 0.0293287 0.0310337 0.032693 0.0343064 0.035874 0.0373959 0.038872 0.0402828 0.0416091 0.0428507 0.0440076 0.04508 0.0460677 0.0469708 0.0477893 0.0485198 0.0491592 0.0497073 0.0501643 0.05053 0.0508046 0.0509879 0.05108 0.051089 0.0510227 0.0508812 0.0506644 0.0503725 0.0500053 0.049563 0.0490454 0.0484661 0.0478385 0.0471628 0.0464389 0.0456668 0.0448465 0.043978 0.0430613 0.0421103 0.0411389 0.0401472 0.0391351 0.0381027 0.0370499 0.0359768 0.0348833 0.0337805 0.0326794 0.0315801 0.0304826 0.0293869 0.0282929 0.0272007 0.0261102 0.0250286 0.0239629 0.0229131 0.0218793 0.0208613 0.0198593 0.0188732 0.017903 0.0169524 0.0160251 0.0151211 0.0142404 0.013383 0.012549 0.0117382 0.0109507 0.0101884 0.00945311 0.00874476 0.0080634 0.00740903 0.00678164 0.00618124 0.00560782 0.00506273 0.00454731 0.00406157 0.0036055 0.0031791 0.00278238 0.00241533 0.00207795 0.00176941 0.00148889 0.00123637 0.00101186 0.000815352 0.000646858 0.000506372 0.000393894 0.000301575 0.000221565 0.000153865 9.84735e-05 5.53914e-05 2.46184e-05 6.1546e-06 0 0 5.37846e-05 0.000215138 0.000484061 0.000860553 0.00134461 0.00193624 0.00263544 0.00344221 0.00436564 0.00541482 0.00658974 0.00789041 0.00931683 0.010869 0.0125469 0.0143506 0.0162336 0.0181495 0.0200982 0.0220799 0.0240945 0.026142 0.0282224 0.0303357 0.0324387 0.0344882 0.0364842 0.0384267 0.0403157 0.0421513 0.0439333 0.0456619 0.0473143 0.0488679 0.0503227 0.0516787 0.0529359 0.0540943 0.0551539 0.0561146 0.0569727 0.057724 0.0583687 0.0589068 0.0593381 0.0596628 0.0598808 0.0599922 0.0600061 0.0599319 0.0597695 0.0595189 0.0591802 0.0587534 0.0582383 0.0576351 0.0569595 0.0562272 0.0554383 0.0545926 0.0536903 0.0527313 0.0517156 0.0506433 0.0495306 0.0483937 0.0472328 0.0460477 0.0448385 0.0436052 0.0423478 0.0410662 0.0397736 0.0384827 0.0371937 0.0359066 0.0346213 0.0333378 0.0320562 0.0307764 0.0295067 0.0282556 0.027023 0.0258089 0.0246133 0.0234362 0.0222776 0.0211376 0.0200204 0.0189304 0.0178677 0.0168323 0.015824 0.0148431 0.0138894 0.0129629 0.0120659 0.0112004 0.0103665 0.00956414 0.00879338 0.0080542 0.00734659 0.00667055 0.00602761 0.00541931 0.00484564 0.00430661 0.00380221 0.00333244 0.00289731 0.0024968 0.00213004 0.00179611 0.00149501 0.00122674 0.000991316 0.000788721 0.000618961 0.000482035 0.000369058 0.000271145 0.000188295 0.000120509 6.77861e-05 3.01272e-05 7.53179e-06 0 0 6.32028e-05 0.000252811 0.000568825 0.00101125 0.00158007 0.0022753 0.00309694 0.00404498 0.00512838 0.0063561 0.00772814 0.00924449 0.0109052 0.0127101 0.0146594 0.0167531 0.0189375 0.0211591 0.0234179 0.025714 0.0280473 0.0304178 0.0328256 0.0352706 0.0377033 0.0400743 0.0423836 0.0446311 0.0468168 0.0489408 0.051003 0.0530035 0.0549161 0.0567147 0.0583993 0.0599699 0.0614264 0.062769 0.0639975 0.0651119 0.0661078 0.0669803 0.0677296 0.0683555 0.0688582 0.0692375 0.0694936 0.0696263 0.0696464 0.0695643 0.0693802 0.0690939 0.0687055 0.0682149 0.0676223 0.0669275 0.0661488 0.0653041 0.0643937 0.0634174 0.0623753 0.0612673 0.0600934 0.0588537 0.057567 0.0562521 0.0549089 0.0535376 0.052138 0.0507102 0.0492542 0.0477699 0.0462725 0.044777 0.0432833 0.0417916 0.0403016 0.0388136 0.0373274 0.0358431 0.0343704 0.032919 0.0314888 0.0300799 0.0286922 0.0273259 0.0259808 0.0246569 0.0233595 0.0220935 0.020859 0.019656 0.0184845 0.0173445 0.0162359 0.0151589 0.0141158 0.0131093 0.0121392 0.0112057 0.0103087 0.00944814 0.00862413 0.00783663 0.00708737 0.00637805 0.00570868 0.00507927 0.0044898 0.00394029 0.00343073 0.00296112 0.0025305 0.00213793 0.00178339 0.00146689 0.00118843 0.000948014 0.000745633 0.000581291 0.000445051 0.000326976 0.000227067 0.000145323 8.1744e-05 3.63307e-05 9.08267e-06 0 0 7.34583e-05 0.000293833 0.000661125 0.00117533 0.00183646 0.0026445 0.00359946 0.00470133 0.00595867 0.00738001 0.00896535 0.0107147 0.012628 0.0147054 0.0169467 0.0193521 0.0218603 0.0244103 0.0270019 0.0296353 0.0323104 0.0350272 0.0377858 0.040586 0.0433719 0.0460872 0.0487319 0.051306 0.0538096 0.0562426 0.058605 0.0608969 0.0630883 0.0651495 0.0670804 0.0688811 0.0705515 0.0720916 0.0735015 0.0747812 0.0759251 0.076928 0.0777898 0.0785105 0.0790901 0.0795287 0.0798262 0.0799825 0.0800098 0.0799201 0.0797132 0.0793892 0.0789482 0.07839 0.0777148 0.0769225 0.0760338 0.0750693 0.0740292 0.0729133 0.0717217 0.0704544 0.0691113 0.0676926 0.0662196 0.064714 0.0631757 0.0616048 0.0600012 0.0583649 0.056696 0.0549944 0.0532774 0.0515622 0.049849 0.0481376 0.046428 0.0447204 0.0430145 0.0413106 0.0396197 0.037953 0.0363105 0.0346922 0.0330981 0.0315282 0.0299826 0.0284611 0.0269697 0.0255144 0.0240951 0.0227118 0.0213645 0.0200532 0.0187779 0.0175387 0.0163383 0.0151798 0.014063 0.012988 0.0119549 0.0109635 0.0100139 0.00910608 0.00824199 0.00742352 0.00665069 0.00592348 0.00524189 0.00460593 0.0040156 0.0034709 0.00297081 0.00251435 0.00210152 0.0017323 0.00140671 0.00112474 0.000886389 0.000691662 0.000529554 0.00038906 0.000270181 0.000172916 9.7265e-05 4.32289e-05 1.08072e-05 0 0 8.45512e-05 0.000338205 0.00076096 0.00135282 0.00211378 0.00304384 0.00414301 0.00541127 0.0068565 0.00848653 0.0103014 0.012301 0.0144855 0.0168547 0.0194088 0.0221477 0.0250021 0.027903 0.0308502 0.0338438 0.0368838 0.0399701 0.0431029 0.046282 0.0494443 0.0525267 0.0555291 0.0584516 0.0612941 0.0640566 0.0667392 0.0693419 0.0718308 0.0741722 0.076366 0.0784123 0.0803111 0.0820624 0.0836661 0.0851223 0.0864247 0.0875671 0.0885495 0.0893718 0.0900341 0.0905364 0.0908786 0.0910608 0.0910964 0.090999 0.0907685 0.090405 0.0899083 0.0892787 0.0885159 0.0876201 0.0866145 0.0855227 0.0843446 0.0830802 0.0817296 0.0802926 0.0787693 0.0771598 0.0754883 0.0737795 0.0720331 0.0702493 0.068428 0.0665693 0.0646732 0.0627395 0.0607881 0.0588384 0.0568906 0.0549446 0.0530004 0.051058 0.0491175 0.0471787 0.0452545 0.0433577 0.0414881 0.0396459 0.0378309 0.0360433 0.034283 0.03255 0.0308511 0.029193 0.0275758 0.0259994 0.0244639 0.0229691 0.0215153 0.0201022 0.0187333 0.0174119 0.0161378 0.0149112 0.013732 0.0126002 0.0115158 0.0104789 0.00949148 0.00855574 0.00767166 0.00683923 0.00605847 0.00532936 0.00465192 0.00402613 0.00345096 0.00292538 0.00244938 0.00202297 0.00164614 0.00131889 0.00104123 0.000813149 0.000622567 0.000457396 0.000317636 0.000203287 0.000114349 5.08218e-05 1.27055e-05 0 0 9.62478e-05 0.000384991 0.00086623 0.00153996 0.00240619 0.00346492 0.00471614 0.00615986 0.007803 0.00965251 0.0117084 0.0139706 0.0164392 0.0191142 0.0219955 0.0250831 0.0282995 0.031567 0.0348856 0.0382552 0.0416759 0.0451477 0.0486706 0.0522445 0.0557991 0.059264 0.0626391 0.0659245 0.0691202 0.0722261 0.0752423 0.0781688 0.0809676 0.083601 0.086069 0.0883714 0.0905084 0.0924799 0.094286 0.0959266 0.0973946 0.0986828 0.0997913 0.10072 0.101469 0.102038 0.102428 0.102638 0.102683 0.102578 0.102324 0.10192 0.101366 0.100662 0.0998089 0.0988059 0.0976793 0.0964554 0.0951341 0.0937155 0.0921995 0.0905862 0.0888756 0.0870676 0.0851896 0.0832692 0.0813062 0.0793008 0.0772528 0.0751623 0.0730294 0.0708539 0.068658 0.0664638 0.0642714 0.0620806 0.0598916 0.0577043 0.0555187 0.0533348 0.0511671 0.0490298 0.0469231 0.0448469 0.0428012 0.040786 0.0388014 0.0368472 0.0349313 0.0330612 0.031237 0.0294586 0.027726 0.0260393 0.0243985 0.0228035 0.0212581 0.0197659 0.018327 0.0169414 0.0156091 0.01433 0.0131042 0.0119317 0.0108147 0.00975572 0.00875462 0.00781145 0.00692619 0.00609885 0.00532943 0.00461793 0.00396329 0.00336448 0.00282149 0.00233433 0.00190298 0.00152746 0.00120776 0.000943875 0.000722655 0.00053093 0.000368701 0.000235969 0.000132732 5.89922e-05 1.47481e-05 0 0 0.000108315 0.000433258 0.000974832 0.00173303 0.00270787 0.00389933 0.00530742 0.00693214 0.00877932 0.0108548 0.0131586 0.0156907 0.018451 0.0214397 0.0246567 0.0281019 0.0316892 0.0353322 0.0390308 0.0427852 0.0465952 0.050461 0.0543824 0.0583596 0.0623147 0.0661701 0.0699257 0.0735816 0.0771378 0.0805942 0.0839509 0.0872078 0.090323 0.0932544 0.0960022 0.0985662 0.100947 0.103143 0.105156 0.106985 0.108623 0.11006 0.111298 0.112336 0.113174 0.113813 0.114251 0.11449 0.114545 0.114434 0.114156 0.113712 0.1131 0.112322 0.111377 0.110266 0.109016 0.107658 0.106192 0.104616 0.102932 0.10114 0.0992382 0.0972281 0.0951399 0.0930039 0.0908202 0.0885888 0.0863097 0.0839828 0.0816082 0.0791859 0.0767405 0.0742966 0.0718544 0.0694136 0.0669744 0.0645368 0.0621007 0.0596662 0.0572493 0.0548662 0.0525168 0.0502012 0.0479193 0.0456712 0.0434569 0.0412762 0.0391379 0.0370506 0.0350142 0.0330287 0.0310942 0.0292106 0.027378 0.0255962 0.0238696 0.0222022 0.0205939 0.0190449 0.0175551 0.0161246 0.0147532 0.013441 0.0121906 0.0110045 0.00988261 0.00882501 0.00783169 0.00690265 0.00603788 0.00523738 0.00450013 0.00382512 0.00321234 0.0026618 0.00217349 0.00174742 0.00138357 0.00108196 0.000828379 0.000608605 0.000422643 0.000270491 0.000152151 6.76228e-05 1.69057e-05 0 0 0.000120752 0.000483007 0.00108677 0.00193203 0.00301879 0.00434706 0.00591684 0.00772811 0.00978545 0.0120934 0.014652 0.0174612 0.020521 0.0238314 0.0273924 0.031204 0.0351711 0.0391984 0.043286 0.0474338 0.0516418 0.05591 0.0602385 0.0646273 0.0689911 0.073245 0.0773889 0.0814229 0.0853468 0.0891608 0.0928648 0.0964588 0.0998967 0.103132 0.106166 0.108997 0.111626 0.114052 0.116276 0.118298 0.120109 0.121699 0.12307 0.12422 0.12515 0.125859 0.126348 0.126618 0.126684 0.126567 0.126266 0.125781 0.125112 0.124258 0.123221 0.121999 0.120625 0.119131 0.117517 0.115782 0.113928 0.111952 0.109857 0.107641 0.105339 0.102984 0.100575 0.0981134 0.0955986 0.0930307 0.0904097 0.0877355 0.0850355 0.0823369 0.0796395 0.0769435 0.0742489 0.0715555 0.0688635 0.0661729 0.0635013 0.0608669 0.0582694 0.0557089 0.0531854 0.0506989 0.0482494 0.045837 0.0434711 0.0411613 0.0389076 0.0367099 0.0345684 0.032483 0.0304537 0.0284805 0.026568 0.0247207 0.0229386 0.0212218 0.0195703 0.0179839 0.0164628 0.015007 0.0136192 0.012302 0.0110556 0.00987994 0.00877499 0.00774076 0.00677726 0.00588449 0.00506148 0.0043073 0.00362194 0.00300539 0.00245767 0.00197877 0.00156868 0.00122742 0.000939742 0.000690423 0.00047946 0.000306854 0.000172606 7.67136e-05 1.91784e-05 0 0 0.000133559 0.000534237 0.00120203 0.00213695 0.00333898 0.00480813 0.0065444 0.00854779 0.0108214 0.0133683 0.0161885 0.0192821 0.022649 0.0262891 0.0302026 0.0343895 0.0387453 0.0431658 0.047651 0.0522009 0.0568155 0.0614948 0.0662388 0.0710476 0.0758284 0.0804888 0.0850287 0.0894483 0.0937473 0.097926 0.101984 0.105922 0.109689 0.113235 0.116559 0.119663 0.122545 0.125207 0.127647 0.129866 0.131854 0.1336 0.135106 0.136371 0.137395 0.138178 0.13872 0.13902 0.1391 0.138977 0.138653 0.138128 0.1374 0.13647 0.135339 0.134006 0.132507 0.130875 0.12911 0.127214 0.125186 0.123025 0.120732 0.118307 0.115787 0.113208 0.110571 0.107874 0.10512 0.102306 0.0994337 0.0965029 0.0935432 0.0905845 0.0876269 0.0846704 0.0817149 0.0787605 0.0758071 0.0728548 0.0699231 0.0670317 0.0641806 0.0613698 0.0585993 0.0558691 0.0531792 0.0505295 0.0479307 0.0453932 0.042917 0.0405022 0.0381487 0.0358566 0.0336258 0.0314563 0.0293532 0.0273214 0.0253611 0.023472 0.0216544 0.0199081 0.0182331 0.0166296 0.0151003 0.0136484 0.0122737 0.0109762 0.00975607 0.00861319 0.00754758 0.00655925 0.00564735 0.00481102 0.00405027 0.00336511 0.00275552 0.00222151 0.00176308 0.00138023 0.00105674 0.000776382 0.000539154 0.000345058 0.000194095 8.62646e-05 2.15662e-05 0 0 0.000146737 0.000586948 0.00132063 0.00234779 0.00366842 0.00528253 0.00719011 0.00939116 0.0118872 0.0146795 0.0177683 0.0211535 0.0248351 0.028813 0.0330874 0.0376582 0.0424117 0.0472343 0.0521259 0.0570867 0.0621165 0.0672154 0.0723834 0.0776204 0.0828265 0.0879014 0.0928452 0.0976578 0.102339 0.10689 0.111309 0.115597 0.1197 0.123562 0.127183 0.130565 0.133706 0.136607 0.139267 0.141687 0.143856 0.145763 0.147408 0.14879 0.149911 0.150769 0.151365 0.151699 0.151792 0.151665 0.151318 0.150751 0.149965 0.148959 0.147733 0.146288 0.14466 0.142888 0.140972 0.138911 0.136706 0.134357 0.131864 0.129226 0.126484 0.123678 0.120807 0.117872 0.114873 0.111809 0.10868 0.105488 0.102263 0.0990396 0.0958166 0.0925942 0.0893726 0.0861517 0.0829315 0.079712 0.0765146 0.0733609 0.0702507 0.0671841 0.0641612 0.0611818 0.058246 0.0553538 0.0525168 0.0497463 0.0470426 0.0444055 0.041835 0.0393312 0.0368941 0.0345236 0.0322252 0.0300044 0.0278612 0.0257956 0.0238075 0.021897 0.0200641 0.0183087 0.0166341 0.0150435 0.0135367 0.0121139 0.0107749 0.00951993 0.00834885 0.00726168 0.00625772 0.00533628 0.00449735 0.00374094 0.00306703 0.00247565 0.00196677 0.00154041 0.00117938 0.000866483 0.000601724 0.000385103 0.000216621 9.62758e-05 2.4069e-05 0 0 0.000160285 0.00064114 0.00144256 0.00256456 0.00400712 0.00577026 0.00785396 0.0102582 0.0129827 0.0160271 0.0193913 0.0230753 0.0270793 0.0314031 0.0360467 0.0410102 0.0461703 0.0514038 0.0567107 0.062091 0.0675447 0.0730717 0.0786721 0.0843459 0.0899854 0.0954828 0.100838 0.106051 0.111123 0.116052 0.120839 0.125484 0.129929 0.134113 0.138038 0.141703 0.145108 0.148253 0.151138 0.153764 0.156117 0.158188 0.159974 0.161477 0.162696 0.163632 0.164284 0.164652 0.16476 0.164629 0.16426 0.163653 0.162808 0.161724 0.160403 0.158843 0.157086 0.155172 0.153101 0.150874 0.14849 0.145949 0.143252 0.140398 0.13743 0.134393 0.131285 0.128106 0.124858 0.121539 0.11815 0.11469 0.111196 0.107702 0.104208 0.100715 0.0972219 0.0937291 0.0902366 0.0867444 0.0832759 0.0798542 0.0764795 0.0731518 0.0698709 0.066637 0.06345 0.0603099 0.0572293 0.0542208 0.0512843 0.0484198 0.0456274 0.042907 0.0402587 0.0376824 0.0351841 0.0327697 0.0304391 0.0281924 0.0260296 0.0239507 0.0219557 0.0200445 0.0182206 0.0164874 0.0148448 0.0132929 0.0118316 0.010461 0.00918105 0.00799176 0.00689261 0.00588308 0.00496317 0.00413288 0.00339222 0.00274118 0.00217976 0.00170796 0.00130765 0.000960725 0.00066717 0.000426989 0.000240181 0.000106747 2