<?xml version="1.0"?> 
<VTKFile type="StructuredGrid" version="0.1"> 
<StructuredGrid WholeExtent="0 128 0 128 0 0"> 
<Piece Extent="0 128 0 128 0 0"> 
<PointData>
<DataArray type="Float32" Name="u" format="ascii" NumberOfComponents="1"> 
0 0 0 0 0 0 0 0 0 0 0 0 0 0 0 0 0 0 0 0 0 0 0 0 0 0 0 0 0 0 0 0 0 0 0 0 0 0 0 0 0 0 0 0 0 0 0 0 0 0 0 0 0 0 0 0 0 0 0 0 0 0 0 0 0 0 0 0 0 0 0 0 0 0 0 0 0 0 0 0 0 0 0 0 0 0 0 0 0 0 0 0 0 0 0 0 0 0 0 0 0 0 0 0 0 0 0 0 0 0 0 0 0 0 0 0 0 0 0 0 0 0 0 0 0 0 0 0 0 0 6.7854e-07 2.71416e-06 6.10686e-06 1.08566e-05 1.69635e-05 2.44274e-05 3.32484e-05 4.34265e-05 5.51635e-05 6.8661e-05 8.39192e-05 0.000100938 0.000119717 0.000140257 0.000162558 0.000186619 0.000211791 0.000237422 0.000263513 0.000290064 0.000317075 0.000344546 0.000372477 0.000400868 0.000429083 0.000456488 0.000483081 0.000508864 0.000533836 0.000557998 0.000581348 0.000603888 0.000625288 0.00064522 0.000663684 0.00068068 0.000696209 0.000710269 0.000722861 0.000733985 0.0007436 0.000751662 0.000758173 0.000763133 0.000766541 0.000768397 0.000768702 0.000767455 0.000764819 0.000760958 0.000755872 0.00074956 0.000742022 0.000733259 0.000723271 0.000712057 0.00069988 0.000687004 0.000673428 0.000659153 0.000644178 0.000628503 0.000612128 0.000595054 0.000577545 0.000559868 0.000542022 0.000524007 0.000505824 0.000487472 0.000468952 0.000450262 0.000431606 0.000413185 0.000394998 0.000377047 0.00035933 0.000341848 0.000324601 0.000307589 0.000290924 0.000274716 0.000258967 0.000243675 0.000228842 0.000214466 0.000200549 0.000187089 0.000174118 0.000161665 0.000149732 0.000138317 0.00012742 0.000117042 0.000107183 9.7843e-05 8.9e-05 8.06333e-05 7.27429e-05 6.53287e-05 5.83907e-05 5.1929e-05 4.59435e-05 4.04343e-05 3.53568e-05 3.06665e-05 2.63633e-05 2.24474e-05 1.89186e-05 1.5777e-05 1.30227e-05 1.06555e-05 8.60238e-06 6.79037e-06 5.21941e-06 3.88952e-06 2.80068e-06 1.9529e-06 1.34618e-06 9.80522e-07 7.50712e-07 5.51544e-07 3.83017e-07 2.45131e-07 1.37886e-07 6.12826e-08 1.53207e-08 0 0 2.71416e-06 1.08566e-05 2.44274e-05 4.34265e-05 6.7854e-05 9.77097e-05 0.000132994 0.000173706 0.000220654 0.000274644 0.000335677 0.000403752 0.000478869 0.000561029 0.000650232 0.000746476 0.000847162 0.000949688 0.00105405 0.00116026 0.0012683 0.00137819 0.00148991 0.00160347 0.00171633 0.00182595 0.00193233 0.00203546 0.00213535 0.00223199 0.00232539 0.00241555 0.00250115 0.00258088 0.00265474 0.00272272 0.00278483 0.00284108 0.00289144 0.00293594 0.0029744 0.00300665 0.00303269 0.00305253 0.00306616 0.00307359 0.00307481 0.00306982 0.00305928 0.00304383 0.00302349 0.00299824 0.00296809 0.00293304 0.00289308 0.00284823 0.00279952 0.00274802 0.00269371 0.00263661 0.00257671 0.00251401 0.00244851 0.00238021 0.00231018 0.00223947 0.00216809 0.00209603 0.0020233 0.00194989 0.00187581 0.00180105 0.00172642 0.00165274 0.00157999 0.00150819 0.00143732 0.00136739 0.00129841 0.00123036 0.00116369 0.00109886 0.00103587 0.0009747 0.000915366 0.000857864 0.000802194 0.000748356 0.000696472 0.000646662 0.000598927 0.000553266 0.000509681 0.00046817 0.000428733 0.000391372 0.000356 0.000322533 0.000290971 0.000261315 0.000233563 0.000207716 0.000183774 0.000161737 0.000141427 0.000122666 0.000105453 8.97895e-05 7.56744e-05 6.31082e-05 5.20906e-05 4.26218e-05 3.44095e-05 2.71615e-05 2.08777e-05 1.55581e-05 1.12027e-05 7.81161e-06 5.38473e-06 3.92209e-06 3.00285e-06 2.20618e-06 1.53207e-06 9.80522e-07 5.51544e-07 2.45131e-07 6.12826e-08 0 0 6.10686e-06 2.44274e-05 5.49617e-05 9.77097e-05 0.000152671 0.000219847 0.000299236 0.000390839 0.000496471 0.000617949 0.000755273 0.000908442 0.00107746 0.00126232 0.00146302 0.00167957 0.00190612 0.0021368 0.00237162 0.00261058 0.00285368 0.00310092 0.0033523 0.00360781 0.00386175 0.00410839 0.00434773 0.00457978 0.00480453 0.00502198 0.00523213 0.00543499 0.00562759 0.00580698 0.00597316 0.00612612 0.00626588 0.00639242 0.00650575 0.00660587 0.0066924 0.00676496 0.00682356 0.0068682 0.00689887 0.00691557 0.00691832 0.00690709 0.00688337 0.00684862 0.00680284 0.00674604 0.0066782 0.00659933 0.00650944 0.00640851 0.00629892 0.00618304 0.00606086 0.00593238 0.0057976 0.00565652 0.00550915 0.00535548 0.00519791 0.00503881 0.0048782 0.00471607 0.00455242 0.00438725 0.00422056 0.00405236 0.00388445 0.00371866 0.00355498 0.00339342 0.00323397 0.00307663 0.00292141 0.0027683 0.00261831 0.00247245 0.0023307 0.00219308 0.00205957 0.00193019 0.00180494 0.0016838 0.00156706 0.00145499 0.00134759 0.00124485 0.00114678 0.00105338 0.00096465 0.000880587 0.000801 0.0007257 0.000654686 0.000587958 0.000525516 0.000467361 0.000413492 0.000363909 0.000318211 0.000275998 0.00023727 0.000202026 0.000170267 0.000141993 0.000117204 9.58991e-05 7.74215e-05 6.11133e-05 4.69747e-05 3.50057e-05 2.52061e-05 1.75761e-05 1.21156e-05 8.8247e-06 6.75641e-06 4.96389e-06 3.44715e-06 2.20618e-06 1.24097e-06 5.51544e-07 1.37886e-07 0 0 1.08566e-05 4.34265e-05 9.77097e-05 0.000173706 0.000271416 0.000390839 0.000531975 0.000694825 0.000882616 0.00109858 0.00134271 0.00161501 0.00191548 0.00224412 0.00260093 0.00298591 0.00338865 0.00379875 0.00421621 0.00464103 0.00507321 0.00551274 0.00595964 0.00641389 0.00686533 0.0073038 0.0077293 0.00814183 0.00854138 0.00892796 0.00930157 0.0096622 0.0100046 0.0103235 0.0106189 0.0108909 0.0111393 0.0113643 0.0115658 0.0117438 0.0118976 0.0120266 0.0121308 0.0122101 0.0122647 0.0122944 0.0122992 0.0122793 0.0122371 0.0121753 0.0120939 0.011993 0.0118724 0.0117321 0.0115723 0.0113929 0.0111981 0.0109921 0.0107749 0.0105464 0.0103068 0.010056 0.00979405 0.00952086 0.00924072 0.00895789 0.00867235 0.00838412 0.00809319 0.00779955 0.00750322 0.0072042 0.0069057 0.00661096 0.00631997 0.00603275 0.00574928 0.00546957 0.00519362 0.00492143 0.00465478 0.00439546 0.00414347 0.0038988 0.00366146 0.00343146 0.00320878 0.00299343 0.00278589 0.00258665 0.00239571 0.00221307 0.00203872 0.00187268 0.00171493 0.00156549 0.001424 0.00129013 0.00116389 0.00104526 0.000934251 0.000830864 0.000735096 0.000646948 0.000565708 0.000490663 0.000421813 0.000359158 0.000302698 0.000252433 0.000208362 0.000170487 0.000137638 0.000108646 8.35106e-05 6.22323e-05 4.48109e-05 3.12464e-05 2.15389e-05 1.56884e-05 1.20114e-05 8.8247e-06 6.12826e-06 3.92209e-06 2.20618e-06 9.80522e-07 2.45131e-07 0 0 1.69635e-05 6.7854e-05 0.000152671 0.000271416 0.000424087 0.000610686 0.000831211 0.00108566 0.00137909 0.00171653 0.00209798 0.00252345 0.00299293 0.00350643 0.00406395 0.00466548 0.00529476 0.00593555 0.00658783 0.00725161 0.00792689 0.00861366 0.00931193 0.0100217 0.0107271 0.0114122 0.012077 0.0127216 0.0133459 0.0139499 0.0145337 0.0150972 0.0156322 0.0161305 0.0165921 0.017017 0.0174052 0.0177567 0.0180715 0.0183496 0.01859 0.0187916 0.0189543 0.0190783 0.0191635 0.0192099 0.0192175 0.0191864 0.0191205 0.019024 0.0188968 0.018739 0.0185506 0.0183315 0.0180818 0.0178014 0.017497 0.0171751 0.0168357 0.0164788 0.0161044 0.0157126 0.0153032 0.0148763 0.0144386 0.0139967 0.0135505 0.0131002 0.0126456 0.0121868 0.0117238 0.0112566 0.0107902 0.0103296 0.00987496 0.00942617 0.00898325 0.00854621 0.00811503 0.00768973 0.00727309 0.0068679 0.00647416 0.00609188 0.00572104 0.00536165 0.00501371 0.00467723 0.00435295 0.00404164 0.00374329 0.00345792 0.0031855 0.00292606 0.00267958 0.00244607 0.002225 0.00201583 0.00181857 0.00163322 0.00145977 0.00129822 0.00114859 0.00101086 0.000883919 0.000766661 0.000659083 0.000561184 0.000472965 0.000394426 0.000325566 0.000266386 0.00021506 0.000169759 0.000130485 9.72379e-05 7.0017e-05 4.88225e-05 3.36546e-05 2.45131e-05 1.87678e-05 1.37886e-05 9.57541e-06 6.12826e-06 3.44715e-06 1.53207e-06 3.83017e-07 0 0 2.44274e-05 9.77097e-05 0.000219847 0.000390839 0.000610686 0.000879388 0.00119694 0.00156336 0.00198589 0.0024718 0.00302109 0.00363377 0.00430982 0.00504926 0.00585208 0.00671829 0.00762446 0.00854719 0.00948647 0.0104423 0.0114147 0.0124037 0.0134092 0.0144312 0.015447 0.0164336 0.0173909 0.0183191 0.0192181 0.0200879 0.0209285 0.02174 0.0225104 0.0232279 0.0238926 0.0245045 0.0250635 0.0255697 0.026023 0.0264235 0.0267696 0.0270598 0.0272942 0.0274728 0.0275955 0.0276623 0.0276733 0.0276284 0.0275335 0.0273945 0.0272114 0.0269841 0.0267128 0.0263973 0.0260377 0.025634 0.0251957 0.0247322 0.0242434 0.0237295 0.0231904 0.0226261 0.0220366 0.0214219 0.0207916 0.0201552 0.0195128 0.0188643 0.0182097 0.017549 0.0168823 0.0162094 0.0155378 0.0148746 0.0142199 0.0135737 0.0129359 0.0123065 0.0116856 0.0110732 0.0104733 0.00988978 0.0093228 0.0087723 0.00823829 0.00772078 0.00721975 0.00673521 0.00626825 0.00581996 0.00539034 0.0049794 0.00458713 0.00421353 0.0038586 0.00352235 0.003204 0.0029028 0.00261874 0.00235183 0.00210206 0.00186944 0.00165397 0.00145563 0.00127284 0.00110399 0.000949079 0.000808105 0.00068107 0.000567973 0.000468816 0.000383596 0.000309686 0.000244453 0.000187899 0.000140023 0.000100824 7.03045e-05 4.84626e-05 3.52988e-05 2.70256e-05 1.98556e-05 1.37886e-05 8.8247e-06 4.96389e-06 2.20618e-06 5.51544e-07 0 0 3.32484e-05 0.000132994 0.000299236 0.000531975 0.000831211 0.00119694 0.00162917 0.0021279 0.00270301 0.00336439 0.00411204 0.00494596 0.00586615 0.00687261 0.00796534 0.00914434 0.0103777 0.0116337 0.0129121 0.0142132 0.0155367 0.0168828 0.0182514 0.0196425 0.0210251 0.0223679 0.023671 0.0249344 0.026158 0.0273419 0.0284861 0.0295905 0.0306391 0.0316158 0.0325205 0.0333533 0.0341142 0.0348032 0.0354202 0.0359653 0.0364364 0.0368315 0.0371505 0.0373935 0.0375605 0.0376515 0.0376664 0.0376053 0.0374761 0.0372869 0.0370377 0.0367284 0.0363591 0.0359297 0.0354403 0.0348908 0.0342941 0.0336632 0.032998 0.0322985 0.0315647 0.0307966 0.0299943 0.0291576 0.0282997 0.0274335 0.0265591 0.0256764 0.0247854 0.0238861 0.0229786 0.0220628 0.0211487 0.0202461 0.0193549 0.0184753 0.0176072 0.0167506 0.0159055 0.0150719 0.0142553 0.0134611 0.0126894 0.0119401 0.0112132 0.0105088 0.00982688 0.00916736 0.00853178 0.00792161 0.00733685 0.00677751 0.00624359 0.00573508 0.00525198 0.0047943 0.004361 0.00395103 0.0035644 0.0032011 0.00286114 0.00254452 0.00225123 0.00198128 0.00173248 0.00150266 0.0012918 0.00109992 0.000927012 0.000773075 0.00063811 0.000522117 0.000421517 0.000332728 0.000255751 0.000190586 0.000137233 9.56922e-05 6.59629e-05 4.80456e-05 3.67849e-05 2.70256e-05 1.87678e-05 1.20114e-05 6.75641e-06 3.00285e-06 7.50712e-07 0 0 4.34265e-05 0.000173706 0.000390839 0.000694825 0.00108566 0.00156336 0.0021279 0.0027793 0.00353046 0.00439431 0.00537083 0.00646003 0.00766191 0.00897647 0.0104037 0.0119436 0.0135546 0.015195 0.0168648 0.0185641 0.0202928 0.022051 0.0238385 0.0256556 0.0274613 0.0292152 0.0309172 0.0325673 0.0341655 0.0357118 0.0372063 0.0386488 0.0400184 0.0412941 0.0424758 0.0435635 0.0445574 0.0454572 0.0462631 0.0469751 0.0475904 0.0481064 0.0485231 0.0488405 0.0490586 0.0491774 0.0491969 0.0491171 0.0489484 0.0487013 0.0483758 0.0479718 0.0474894 0.0469286 0.0462893 0.0455716 0.0447923 0.0439683 0.0430994 0.0421858 0.0412274 0.0402242 0.0391762 0.0380834 0.0369629 0.0358315 0.0346894 0.0335365 0.0323727 0.0311982 0.0300129 0.0288168 0.0276228 0.0264438 0.0252799 0.024131 0.0229971 0.0218783 0.0207745 0.0196857 0.0186191 0.0175818 0.0165739 0.0155952 0.0146459 0.0137258 0.0128351 0.0119737 0.0111435 0.0103466 0.00958283 0.00885226 0.00815489 0.00749072 0.00685973 0.00626195 0.005696 0.00516053 0.00465554 0.00418103 0.003737 0.00332345 0.00294038 0.00258779 0.00226283 0.00196265 0.00168725 0.00143663 0.00121079 0.00100973 0.00083345 0.000681949 0.000550553 0.000434584 0.000334042 0.000248929 0.000179244 0.000124986 8.61557e-05 6.27534e-05 4.80456e-05 3.52988e-05 2.45131e-05 1.56884e-05 8.8247e-06 3.92209e-06 9.80522e-07 0 0 5.52442e-05 0.000220977 0.000497198 0.000883907 0.0013811 0.00198879 0.00270697 0.00353563 0.0044906 0.00558771 0.00682694 0.00820831 0.00973182 0.0113975 0.0132052 0.0151551 0.0171946 0.0192709 0.0213842 0.0235345 0.0257217 0.0279458 0.0302068 0.0325048 0.0347885 0.0370066 0.039159 0.0412459 0.0432671 0.0452227 0.0471128 0.0489372 0.0506695 0.052283 0.0537778 0.0551539 0.0564112 0.0575498 0.0585697 0.0594708 0.0602499 0.0609034 0.0614313 0.0618337 0.0621106 0.0622619 0.0622877 0.0621879 0.0619758 0.0616645 0.0612539 0.0607442 0.0601352 0.059427 0.0586196 0.057713 0.0567284 0.0556871 0.054589 0.0534343 0.0522228 0.0509546 0.0496297 0.0482481 0.0468312 0.0454006 0.0439562 0.042498 0.041026 0.0395403 0.0380408 0.0365276 0.0350169 0.0335252 0.0320523 0.0305984 0.0291634 0.0277473 0.0263501 0.0249718 0.0236215 0.0223082 0.021032 0.0197927 0.0185904 0.0174252 0.016297 0.0152058 0.0141541 0.0131444 0.0121766 0.0112508 0.010367 0.00952511 0.00872521 0.00796728 0.00724961 0.0065705 0.00592993 0.00532793 0.00476447 0.00423958 0.00375323 0.00330544 0.0028926 0.00251111 0.00216096 0.00184215 0.00155469 0.00129858 0.00107381 0.000880388 0.000712424 0.000564033 0.000435213 0.000325965 0.000236289 0.000166186 0.000115654 8.46944e-05 6.48442e-05 4.76406e-05 3.30838e-05 2.11736e-05 1.19102e-05 5.2934e-06 1.32335e-06 0 0 6.89838e-05 0.000275935 0.000620855 0.00110374 0.0017246 0.00248342 0.00338021 0.00441497 0.00560578 0.00697075 0.00850988 0.0102232 0.0121106 0.0141722 0.0164079 0.0188178 0.0213371 0.0239012 0.02651 0.0291635 0.0318618 0.0346048 0.0373925 0.0402249 0.0430394 0.045773 0.0484258 0.0509978 0.0534891 0.0558995 0.0582291 0.0604779 0.0626133 0.0646027 0.0664459 0.068143 0.0696941 0.071099 0.0723579 0.0734707 0.0744332 0.075241 0.0758943 0.076393 0.0767371 0.0769266 0.0769616 0.0768419 0.0765838 0.0762033 0.0757005 0.0750753 0.0743278 0.0734579 0.0724657 0.0713511 0.0701403 0.0688593 0.0675082 0.0660869 0.0645955 0.0630339 0.0614022 0.0597003 0.0579547 0.0561919 0.0544117 0.0526143 0.0507995 0.0489675 0.0471182 0.0452517 0.043388 0.0415473 0.0397297 0.0379351 0.0361636 0.0344151 0.0326897 0.0309873 0.0293192 0.0276965 0.0261193 0.0245876 0.0231013 0.0216605 0.0202652 0.0189153 0.017614 0.0163644 0.0151665 0.0140203 0.0129258 0.0118829 0.0108918 0.0099523 0.00906244 0.00822012 0.00742534 0.00667809 0.00597838 0.00532621 0.00472158 0.00416448 0.00365048 0.00317514 0.00273844 0.00234039 0.001981 0.00166026 0.00137817 0.00113473 0.000922764 0.000735088 0.000571703 0.000432609 0.000317805 0.000227293 0.000161071 0.000119141 9.12172e-05 6.70167e-05 4.65394e-05 2.97852e-05 1.67542e-05 7.4463e-06 1.86158e-06 0 0 8.46455e-05 0.000338582 0.00076181 0.00135433 0.00211614 0.00304724 0.00414763 0.00541731 0.00687601 0.00854345 0.0104196 0.0125046 0.0147982 0.0173006 0.0200118 0.0229316 0.0259823 0.0290858 0.0322421 0.0354512 0.0387131 0.0420279 0.0453954 0.0488158 0.0522139 0.0555145 0.0587176 0.0618232 0.0648314 0.0677421 0.0705553 0.0732711 0.0758501 0.0782531 0.0804801 0.082531 0.0844059 0.0861049 0.0876278 0.0889746 0.0901403 0.0911195 0.0919122 0.0925185 0.0929383 0.0931716 0.0932186 0.093079 0.0927723 0.0923178 0.0917154 0.0909652 0.0900672 0.0890213 0.0878276 0.0864861 0.0850281 0.0834851 0.0818569 0.0801437 0.0783455 0.0764621 0.0744937 0.0724402 0.0703335 0.0682054 0.066056 0.0638853 0.0616932 0.0594798 0.057245 0.0549889 0.0527359 0.0505102 0.048312 0.0461412 0.0439978 0.0418818 0.0397933 0.0377321 0.0357121 0.0337466 0.0318359 0.0299798 0.0281784 0.0264317 0.0247396 0.0231022 0.0215233 0.0200068 0.0185526 0.0171608 0.0158313 0.0145642 0.0133594 0.012217 0.0111345 0.0101094 0.00914175 0.00823153 0.00737873 0.00658336 0.00584543 0.00516492 0.00453648 0.00395474 0.0034197 0.00293136 0.00248971 0.00209477 0.00174652 0.00144498 0.00118157 0.000947749 0.000743512 0.00056886 0.000423791 0.000308307 0.000222408 0.000166092 0.000127165 9.3427e-05 6.48799e-05 4.15231e-05 2.33568e-05 1.03808e-05 2.5952e-06 0 0 0.000102229 0.000408917 0.000920063 0.00163567 0.00255573 0.00368025 0.00500923 0.00654267 0.00830128 0.0103058 0.0125562 0.0150525 0.0177947 0.0207828 0.0240168 0.0274967 0.0311301 0.0348247 0.0385806 0.0423976 0.0462758 0.0502152 0.0542157 0.0582775 0.0623121 0.066231 0.0700343 0.073722 0.0772941 0.0807505 0.0840914 0.0873166 0.0903797 0.0932343 0.0958803 0.0983179 0.100547 0.102567 0.104379 0.105983 0.107371 0.108539 0.109485 0.11021 0.110714 0.110997 0.111059 0.110899 0.110541 0.110008 0.109299 0.108414 0.107353 0.106117 0.104705 0.103118 0.101392 0.0995643 0.0976352 0.0956047 0.0934726 0.0912391 0.0889041 0.0864676 0.0839674 0.0814413 0.0788892 0.0763111 0.0737071 0.0710772 0.0684213 0.0657395 0.0630607 0.060414 0.0577993 0.0552166 0.052666 0.0501474 0.0476609 0.0452064 0.0428002 0.0404586 0.0381817 0.0359694 0.0338217 0.0317387 0.0297203 0.0277665 0.0258819 0.0240714 0.0223348 0.0206722 0.0190836 0.0175689 0.0161282 0.0147614 0.0134658 0.0122384 0.0110792 0.00998823 0.00896552 0.00801103 0.00712478 0.00630676 0.0055506 0.00484993 0.00420475 0.00361505 0.00308084 0.00260211 0.00217887 0.00181112 0.00148884 0.00120202 0.000950641 0.000734718 0.000554247 0.000409229 0.000299663 0.00022555 0.000172686 0.000126872 8.81053e-05 5.63874e-05 3.17179e-05 1.40968e-05 3.52421e-06 0 0 0.000121735 0.00048694 0.00109561 0.00194776 0.00304337 0.00438246 0.00596501 0.00779103 0.0098816 0.0122578 0.0149196 0.017867 0.0211001 0.0246187 0.028423 0.0325129 0.0367805 0.041118 0.0455254 0.0500026 0.0545497 0.0591666 0.0638534 0.06861 0.073334 0.0779227 0.0823761 0.0866943 0.0908772 0.0949249 0.0988373 0.102614 0.106202 0.109546 0.112647 0.115504 0.118117 0.120486 0.122612 0.124495 0.126126 0.127499 0.128612 0.129468 0.130064 0.130402 0.130482 0.130303 0.129891 0.129274 0.12845 0.127421 0.126186 0.124746 0.123099 0.121247 0.119231 0.117097 0.114843 0.11247 0.109977 0.107365 0.104633 0.101783 0.0988566 0.0958994 0.0929111 0.0898917 0.0868412 0.0837597 0.080647 0.0775032 0.0743624 0.0712585 0.0681914 0.0651613 0.0621681 0.0592118 0.0562924 0.0534099 0.0505836 0.0478325 0.0451568 0.0425564 0.0400313 0.0375816 0.0352072 0.0329081 0.0306899 0.0285583 0.0265132 0.0245546 0.0226825 0.020897 0.019198 0.0175855 0.0160563 0.014607 0.0132376 0.0119482 0.0107387 0.00960921 0.00855963 0.00758999 0.00669284 0.00586069 0.00509357 0.00439146 0.00375436 0.00318229 0.00267522 0.00223318 0.00184459 0.00149789 0.00119309 0.000930184 0.000709173 0.000530058 0.000392837 0.000297512 0.000227783 0.00016735 0.000116216 7.4378e-05 4.18376e-05 1.85945e-05 4.64862e-06 0 0 0.000143163 0.00057265 0.00128846 0.0022906 0.00357906 0.00515385 0.00701497 0.00916241 0.011617 0.0143994 0.0175098 0.0209481 0.0247143 0.0288084 0.0332304 0.0379803 0.0429336 0.0479657 0.0530766 0.0582663 0.0635348 0.0688822 0.0743083 0.0798133 0.0852795 0.0905894 0.0957428 0.10074 0.105581 0.110265 0.114793 0.119165 0.123317 0.127189 0.130779 0.134088 0.137116 0.139862 0.142327 0.144511 0.146404 0.147999 0.149295 0.150292 0.150989 0.151388 0.151488 0.151289 0.150821 0.150115 0.149171 0.147988 0.146566 0.144907 0.143009 0.140872 0.138547 0.136083 0.13348 0.130739 0.127859 0.12484 0.121682 0.118385 0.115001 0.11158 0.108122 0.104627 0.101096 0.0975272 0.0939221 0.0902803 0.086641 0.0830438 0.0794885 0.0759753 0.0725042 0.0690751 0.0656879 0.0623429 0.0590622 0.0558683 0.0527611 0.0497408 0.0468072 0.0439604 0.0412004 0.0385271 0.0359473 0.0334675 0.0310877 0.0288079 0.0266282 0.0245485 0.0225689 0.0206893 0.018906 0.0172152 0.0156171 0.0141115 0.0126984 0.0113779 0.01015 0.00901463 0.00796319 0.00698704 0.00608617 0.00526059 0.0045103 0.00383529 0.00323557 0.00271113 0.0022488 0.00183537 0.00147086 0.00115526 0.00088857 0.000670794 0.000501931 0.00038198 0.000292453 0.000214863 0.000149211 9.54949e-05 5.37159e-05 2.38737e-05 5.96843e-06 0 0 0.000166512 0.000666049 0.00149861 0.0026642 0.00416281 0.00599444 0.0081591 0.0106568 0.0135074 0.0167307 0.0203268 0.0242957 0.0286373 0.0333517 0.0384389 0.0438989 0.0495892 0.0553676 0.0612341 0.0671886 0.0732312 0.0793619 0.0855806 0.0918874 0.0981488 0.104231 0.110135 0.115859 0.121405 0.126771 0.131959 0.136967 0.141726 0.146162 0.150278 0.154071 0.157544 0.160694 0.163523 0.166031 0.168207 0.17004 0.171532 0.172682 0.173489 0.173954 0.174078 0.173859 0.173332 0.172532 0.171459 0.170113 0.168493 0.1666 0.164434 0.161994 0.159338 0.156523 0.153547 0.150412 0.147118 0.143663 0.140049 0.136275 0.1324 0.128482 0.124521 0.120517 0.11647 0.11238 0.108247 0.104071 0.0998965 0.0957698 0.0916906 0.0876587 0.0836742 0.0797372 0.0758475 0.0720052 0.068236 0.0645659 0.0609947 0.0575225 0.0541493 0.0508751 0.0476998 0.0446235 0.041654 0.0387989 0.0360583 0.0334322 0.0309206 0.0285235 0.0262409 0.0240728 0.0220149 0.0200632 0.0182175 0.016478 0.0148445 0.0133171 0.0118958 0.0105807 0.00936166 0.00822896 0.00718256 0.00622245 0.00534864 0.00456113 0.00385991 0.00324499 0.00270147 0.00221446 0.00178395 0.00140994 0.00109244 0.000831437 0.000626943 0.000478953 0.000366698 0.000269411 0.000187091 0.000119738 6.73527e-05 2.99345e-05 7.48363e-06 0 0 0.000191784 0.000767136 0.00172606 0.00306854 0.0047946 0.00690422 0.00939742 0.0122742 0.0155528 0.0192516 0.0233707 0.0279099 0.0328693 0.0382489 0.0440486 0.0502686 0.0567475 0.0633239 0.069998 0.0767697 0.0836389 0.0906058 0.0976703 0.104832 0.111942 0.118848 0.125551 0.132052 0.138349 0.144443 0.150334 0.156022 0.161427 0.166467 0.171142 0.175454 0.179401 0.182983 0.186201 0.189055 0.191533 0.193623 0.195324 0.196638 0.197563 0.198101 0.19825 0.198011 0.197424 0.196525 0.195316 0.193797 0.191967 0.189826 0.187375 0.184613 0.181606 0.178416 0.175044 0.17149 0.167754 0.163836 0.159735 0.155453 0.151055 0.146607 0.14211 0.137562 0.132965 0.128318 0.123621 0.118874 0.114129 0.109437 0.104798 0.100211 0.0956783 0.0911981 0.086771 0.0823968 0.0781051 0.0739254 0.0698576 0.0659017 0.0620577 0.0583256 0.0547055 0.0511973 0.04781 0.0445526 0.0414251 0.0384275 0.0355598 0.0328219 0.030214 0.0277359 0.0253831 0.0231508 0.021039 0.0190478 0.017177 0.0154269 0.0137972 0.0122881 0.0108882 0.00958646 0.00838272 0.00727703 0.00626939 0.0053598 0.00454825 0.00383475 0.00320262 0.00263515 0.00213235 0.00169423 0.00132077 0.00101199 0.000767874 0.000588431 0.000450517 0.000330992 0.000229856 0.000147108 8.27481e-05 3.67769e-05 9.19423e-06 0 0 0.000218473 0.000873891 0.00196625 0.00349556 0.00546182 0.00786502 0.0107052 0.0139823 0.0177125 0.0219121 0.0265811 0.0317195 0.0373273 0.0434044 0.049951 0.0569669 0.064271 0.0716824 0.0792009 0.0868265 0.0945593 0.102399 0.110346 0.118401 0.126394 0.13416 0.141697 0.149007 0.156087 0.16294 0.169565 0.175961 0.182039 0.187708 0.192968 0.197819 0.202261 0.206295 0.209919 0.213135 0.215928 0.218285 0.220206 0.221692 0.222742 0.223356 0.223534 0.223276 0.222626 0.221626 0.220277 0.218579 0.216531 0.214134 0.211388 0.208293 0.20492 0.201341 0.197557 0.193568 0.189373 0.184972 0.180367 0.175555 0.170613 0.165613 0.160557 0.155443 0.150272 0.145045 0.13976 0.134418 0.129077 0.123795 0.118571 0.113406 0.1083 0.103253 0.0982639 0.0933338 0.0884957 0.083783 0.0791956 0.0747335 0.0703967 0.0661853 0.0620992 0.0581384 0.0543132 0.050634 0.0471007 0.0437133 0.0404717 0.0373761 0.0344265 0.0316227 0.0289596 0.0264322 0.0240403 0.021784 0.0196633 0.0176781 0.0158285 0.0141145 0.0125235 0.0110427 0.00967229 0.00841215 0.00726232 0.0062228 0.00529358 0.00447467 0.00374756 0.00309373 0.00251319 0.00200594 0.00157198 0.00121131 0.000923921 0.000709822 0.000543457 0.000399275 0.000277274 0.000177455 9.98187e-05 4.43639e-05 1.1091e-05 0 0 0.000246073 0.000984293 0.00221466 0.00393717 0.00615183 0.00885864 0.0120576 0.0157487 0.0199456 0.0246621 0.0298981 0.0356536 0.0419287 0.0487233 0.0560374 0.063871 0.0720226 0.0802907 0.0886753 0.0971763 0.105794 0.114528 0.123378 0.132345 0.141243 0.149887 0.158277 0.166413 0.174295 0.181923 0.189296 0.196416 0.203182 0.209493 0.21535 0.220752 0.225701 0.230195 0.234234 0.23782 0.240936 0.243567 0.245714 0.247377 0.248555 0.249248 0.249457 0.249182 0.248469 0.247368 0.245878 0.243999 0.241732 0.239075 0.236029 0.232595 0.228851 0.224878 0.220675 0.216243 0.211581 0.206689 0.201569 0.196218 0.190721 0.185159 0.179533 0.173841 0.168086 0.162265 0.15638 0.15043 0.14448 0.138595 0.132774 0.127017 0.121324 0.115696 0.110132 0.104632 0.0992341 0.0939749 0.0888546 0.0838732 0.0790308 0.0743272 0.0697625 0.0653367 0.0610614 0.0569484 0.0529976 0.049209 0.0455827 0.0421185 0.0388166 0.0356769 0.0326937 0.0298615 0.0271802 0.0246499 0.0222704 0.0200419 0.0179643 0.0160377 0.0142479 0.012581 0.0110369 0.00961564 0.00831722 0.00714164 0.0060889 0.005159 0.00433163 0.00358649 0.00292359 0.00234291 0.00184447 0.00142826 0.00109428 0.000842532 0.000645063 0.000473924 0.000329114 0.000210633 0.000118481 5.26582e-05 1.31646e-05 0 0 0.000274586 0.00109834 0.00247127 0.00439337 0.00686464 0.00988509 0.0134547 0.0175735 0.0222522 0.0275015 0.0333215 0.0397121 0.0466734 0.0542053 0.0623078 0.070981 0.0800023 0.089149 0.0984213 0.107819 0.117342 0.126991 0.136765 0.146665 0.156488 0.166029 0.17529 0.184271 0.192971 0.20139 0.209528 0.217386 0.224854 0.231821 0.238287 0.244253 0.249718 0.254683 0.259147 0.263111 0.266557 0.269469 0.271847 0.273691 0.275002 0.275778 0.27602 0.275728 0.274954 0.273752 0.272119 0.270058 0.267567 0.264648 0.261298 0.25752 0.2534 0.249025 0.244397 0.239514 0.234377 0.228987 0.223342 0.217443 0.21138 0.205245 0.199037 0.192757 0.186404 0.179979 0.173481 0.166911 0.160339 0.153837 0.147405 0.141042 0.13475 0.128527 0.122375 0.116292 0.11032 0.104501 0.0988347 0.093321 0.0879599 0.0827513 0.0776955 0.0727922 0.0680546 0.0634959 0.059116 0.0549148 0.0508925 0.0470491 0.0433844 0.0398985 0.0365854 0.0334388 0.0304588 0.0276454 0.0249985 0.0225183 0.0202046 0.0180575 0.0160616 0.0142012 0.0124765 0.0108875 0.00943408 0.00811632 0.0069342 0.00588773 0.00495483 0.00411343 0.00336353 0.00270513 0.00213824 0.00166284 0.00127895 0.000986561 0.000755336 0.000554941 0.000385375 0.00024664 0.000138735 6.16601e-05 1.5415e-05 0 0 0.00030401 0.00121604 0.00273609 0.00486416 0.00760025 0.0109444 0.0148965 0.0194566 0.0246322 0.0304304 0.0368514 0.043895 0.0515614 0.0598505 0.0687623 0.0782969 0.0882099 0.0982572 0.108439 0.118755 0.129205 0.13979 0.150508 0.161362 0.172128 0.182586 0.192737 0.20258 0.212115 0.221342 0.230261 0.238873 0.247056 0.254692 0.261781 0.268321 0.274314 0.27976 0.284657 0.289007 0.292791 0.295991 0.298606 0.300637 0.302083 0.302945 0.303222 0.302915 0.302081 0.300776 0.299001 0.296755 0.294039 0.290852 0.287195 0.283068 0.278566 0.273784 0.268723 0.263383 0.257763 0.251864 0.245685 0.239228 0.23259 0.225871 0.219071 0.21219 0.205229 0.198186 0.191063 0.183859 0.176652 0.16952 0.162464 0.155483 0.148578 0.141747 0.134992 0.128313 0.121754 0.115362 0.109136 0.103077 0.097184 0.0914578 0.0858981 0.0805049 0.0752928 0.0702764 0.0654557 0.0608307 0.0564014 0.0521678 0.0481298 0.0442876 0.0406345 0.037164 0.033876 0.0307705 0.0278476 0.0251072 0.0225494 0.0201741 0.0179644 0.0159034 0.0139912 0.0122277 0.0106129 0.00914684 0.00782949 0.00666087 0.00561716 0.00467454 0.00383302 0.00309261 0.00245328 0.00191506 0.00147794 0.00114191 0.000874275 0.000642324 0.000446059 0.000285477 0.000160581 7.13694e-05 1.78423e-05 0 0 0.000334346 0.00133739 0.00300912 0.00534954 0.00835866 0.0120365 0.016383 0.0213982 0.0270856 0.0334488 0.0404877 0.0482024 0.0565928 0.065659 0.0754009 0.0858186 0.0966456 0.107615 0.118728 0.129984 0.141382 0.152923 0.164607 0.176434 0.188164 0.199559 0.210618 0.221341 0.231728 0.241779 0.251495 0.260875 0.269789 0.278107 0.28583 0.292957 0.299489 0.305425 0.310765 0.31551 0.319639 0.323132 0.32599 0.328212 0.329798 0.330749 0.331064 0.330743 0.329848 0.328441 0.326522 0.32409 0.321146 0.317689 0.31372 0.309239 0.304349 0.299154 0.293654 0.287848 0.281737 0.275321 0.2686 0.261574 0.25435 0.247036 0.239633 0.232141 0.224559 0.216887 0.209126 0.201275 0.19342 0.185646 0.177952 0.170339 0.162807 0.155356 0.147985 0.140695 0.133535 0.126557 0.119758 0.11314 0.106703 0.100447 0.0943704 0.0884748 0.0827759 0.0772899 0.0720168 0.0669565 0.0621091 0.0574746 0.053053 0.0488442 0.0448413 0.0410371 0.0374318 0.0340253 0.0308176 0.0278087 0.0249986 0.0223873 0.0199564 0.0176876 0.0155809 0.0136363 0.0118537 0.0102332 0.00877477 0.00747842 0.00631861 0.00526983 0.00433207 0.00350533 0.00278961 0.00218491 0.00169123 0.00130858 0.00100188 0.000736075 0.000511163 0.000327145 0.000184019 8.17861e-05 2.04465e-05 0 0 0.000365595 0.00146238 0.00329035 0.00584951 0.00913986 0.0131614 0.0179141 0.0233981 0.0296124 0.0365566 0.0442305 0.0526341 0.0617675 0.0716306 0.0822235 0.0935462 0.105309 0.117223 0.129289 0.141505 0.153873 0.166391 0.179061 0.191882 0.204596 0.216946 0.228932 0.240553 0.251809 0.262701 0.273229 0.283392 0.293051 0.302066 0.310435 0.318161 0.325242 0.331679 0.337471 0.342619 0.3471 0.350894 0.354 0.356418 0.358148 0.35919 0.359545 0.359212 0.358257 0.356748 0.354683 0.352063 0.348888 0.345158 0.340873 0.336034 0.33075 0.325135 0.319189 0.31291 0.306301 0.299359 0.292086 0.284481 0.276661 0.268742 0.260725 0.252609 0.244395 0.236082 0.22767 0.21916 0.210644 0.202213 0.193869 0.185611 0.177439 0.169353 0.161352 0.153438 0.145665 0.138086 0.130702 0.123512 0.116517 0.109718 0.103112 0.0967019 0.090504 0.0845365 0.0787993 0.0732924 0.0680158 0.0629696 0.0581538 0.0535682 0.0492055 0.0450582 0.0411263 0.0374097 0.0339085 0.0306227 0.0275522 0.0246972 0.0220376 0.0195538 0.0172456 0.0151132 0.0131564 0.0113754 0.00977004 0.00834038 0.0070592 0.0058993 0.00486066 0.0039433 0.00314721 0.00247239 0.00191884 0.00148657 0.00113815 0.000836193 0.00058069 0.000371641 0.000209048 9.29104e-05 2.32276e-05 0 0 0.000397755 0.00159102 0.00357979 0.00636407 0.00994387 0.0143192 0.01949 0.0254563 0.0322127 0.0397539 0.0480797 0.0571903 0.0670856 0.0777655 0.0892302 0.10148 0.114201 0.127081 0.140121 0.15332 0.166678 0.180195 0.193871 0.207706 0.221424 0.234749 0.247679 0.260216 0.272359 0.284108 0.295464 0.306426 0.316843 0.326567 0.335597 0.343932 0.351574 0.358521 0.364774 0.370333 0.375174 0.379275 0.382635 0.385254 0.387132 0.388269 0.388666 0.388321 0.387307 0.385695 0.383484 0.380674 0.377266 0.37326 0.368655 0.363451 0.357769 0.351728 0.345328 0.33857 0.331452 0.323977 0.316142 0.307949 0.299522 0.290987 0.282345 0.273594 0.264736 