<?xml version="1.0"?> 
<VTKFile type="StructuredGrid" version="0.1"> 
<StructuredGrid WholeExtent="0 128 0 128 0 0"> 
<Piece Extent="0 128 0 128 0 0"> 
<PointData>
<DataArray type="Float32" Name="u" format="ascii" NumberOfComponents="1"> 
0 0 0 0 0 0 0 0 0 0 0 0 0 0 0 0 0 0 0 0 0 0 0 0 0 0 0 0 0 0 0 0 0 0 0 0 0 0 0 0 0 0 0 0 0 0 0 0 0 0 0 0 0 0 0 0 0 0 0 0 0 0 0 0 0 0 0 0 0 0 0 0 0 0 0 0 0 0 0 0 0 0 0 0 0 0 0 0 0 0 0 0 0 0 0 0 0 0 0 0 0 0 0 0 0 0 0 0 0 0 0 0 0 0 0 0 0 0 0 0 0 0 0 0 0 0 0 0 0 0 6.81359e-08 2.72544e-07 6.13223e-07 1.09017e-06 1.7034e-06 2.45289e-06 3.33866e-06 4.3607e-06 5.56837e-06 7.01102e-06 8.68865e-06 1.06013e-05 1.27489e-05 1.51315e-05 1.7749e-05 2.06016e-05 2.36067e-05 2.6682e-05 2.98274e-05 3.3043e-05 3.63287e-05 3.96846e-05 4.31107e-05 4.66068e-05 5.00757e-05 5.34197e-05 5.6639e-05 5.97334e-05 6.27029e-05 6.55477e-05 6.82676e-05 7.08628e-05 7.32905e-05 7.55082e-05 7.75159e-05 7.93136e-05 8.09013e-05 8.22789e-05 8.34466e-05 8.44043e-05 8.51708e-05 8.5765e-05 8.61868e-05 8.64364e-05 8.65135e-05 8.64184e-05 8.61509e-05 8.57111e-05 8.51533e-05 8.45318e-05 8.38466e-05 8.30977e-05 8.22851e-05 8.14088e-05 8.04688e-05 7.94651e-05 7.84451e-05 7.74563e-05 7.64985e-05 7.55719e-05 7.46764e-05 7.3812e-05 7.29787e-05 7.21765e-05 7.14143e-05 7.07011e-05 7.00368e-05 6.94214e-05 6.88549e-05 6.83374e-05 6.78687e-05 6.7449e-05 6.70493e-05 6.66408e-05 6.62235e-05 6.57973e-05 6.53623e-05 6.49185e-05 6.44659e-05 6.40044e-05 6.34971e-05 6.29071e-05 6.22343e-05 6.14788e-05 6.06405e-05 5.97195e-05 5.87157e-05 5.76292e-05 5.64488e-05 5.51635e-05 5.37732e-05 5.22779e-05 5.06777e-05 4.89725e-05 4.71623e-05 4.52472e-05 4.32566e-05 4.12199e-05 3.91373e-05 3.70085e-05 3.48337e-05 3.26129e-05 3.0346e-05 2.80331e-05 2.57326e-05 2.35029e-05 2.13441e-05 1.9256e-05 1.72388e-05 1.52924e-05 1.34169e-05 1.16121e-05 9.91797e-06 8.37411e-06 6.98056e-06 5.73731e-06 4.64438e-06 3.70175e-06 2.90943e-06 2.26742e-06 1.736e-06 1.27543e-06 8.85713e-07 5.66856e-07 3.18857e-07 1.41714e-07 3.54285e-08 0 0 2.72544e-07 1.09017e-06 2.45289e-06 4.3607e-06 6.81359e-06 9.81157e-06 1.33546e-05 1.74428e-05 2.22735e-05 2.80441e-05 3.47546e-05 4.24051e-05 5.09955e-05 6.05258e-05 7.09961e-05 8.24063e-05 9.44268e-05 0.000106728 0.00011931 0.000132172 0.000145315 0.000158738 0.000172443 0.000186427 0.000200303 0.000213679 0.000226556 0.000238933 0.000250812 0.000262191 0.000273071 0.000283451 0.000293162 0.000302033 0.000310064 0.000317254 0.000323605 0.000329116 0.000333786 0.000337617 0.000340683 0.00034306 0.000344747 0.000345745 0.000346054 0.000345674 0.000344604 0.000342845 0.000340613 0.000338127 0.000335386 0.000332391 0.00032914 0.000325635 0.000321875 0.000317861 0.000313781 0.000309825 0.000305994 0.000302288 0.000298705 0.000295248 0.000291915 0.000288706 0.000285657 0.000282804 0.000280147 0.000277686 0.00027542 0.000273349 0.000271475 0.000269796 0.000268197 0.000266563 0.000264894 0.000263189 0.000261449 0.000259674 0.000257863 0.000256018 0.000253988 0.000251628 0.000248937 0.000245915 0.000242562 0.000238878 0.000234863 0.000230517 0.000225795 0.000220654 0.000215093 0.000209112 0.000202711 0.00019589 0.000188649 0.000180989 0.000173026 0.00016488 0.000156549 0.000148034 0.000139335 0.000130452 0.000121384 0.000112133 0.00010293 9.40117e-05 8.53763e-05 7.70241e-05 6.89553e-05 6.11697e-05 5.36675e-05 4.64485e-05 3.96719e-05 3.34964e-05 2.79222e-05 2.29493e-05 1.85775e-05 1.4807e-05 1.16377e-05 9.0697e-06 6.94399e-06 5.1017e-06 3.54285e-06 2.26742e-06 1.27543e-06 5.66856e-07 1.41714e-07 0 0 6.13223e-07 2.45289e-06 5.51901e-06 9.81157e-06 1.53306e-05 2.2076e-05 3.00479e-05 3.92463e-05 5.01153e-05 6.30991e-05 7.81979e-05 9.54114e-05 0.00011474 0.000136183 0.000159741 0.000185414 0.00021246 0.000240138 0.000268447 0.000297387 0.000326958 0.000357161 0.000387996 0.000419462 0.000450681 0.000480778 0.000509751 0.0005376 0.000564327 0.000589929 0.000614409 0.000637765 0.000659614 0.000679574 0.000697643 0.000713822 0.000728111 0.00074051 0.00075102 0.000759639 0.000766537 0.000771885 0.000775681 0.000777927 0.000778622 0.000777766 0.000775358 0.0007714 0.00076638 0.000760786 0.00075462 0.000747879 0.000740566 0.000732679 0.000724219 0.000715186 0.000706006 0.000697107 0.000688487 0.000680147 0.000672087 0.000664308 0.000656808 0.000649589 0.000642729 0.00063631 0.000630331 0.000624793 0.000619694 0.000615036 0.000610819 0.000607041 0.000603444 0.000599768 0.000596012 0.000592176 0.000588261 0.000584267 0.000580193 0.000576039 0.000571474 0.000566164 0.000560109 0.000553309 0.000545765 0.000537475 0.000528441 0.000518663 0.000508039 0.000496471 0.000483958 0.000470501 0.000456099 0.000440752 0.000424461 0.000407225 0.000389309 0.00037098 0.000352235 0.000333077 0.000313504 0.000293516 0.000273114 0.000252298 0.000231594 0.000211526 0.000192097 0.000173304 0.000155149 0.000137632 0.000120752 0.000104509 8.92617e-05 7.5367e-05 6.2825e-05 5.16358e-05 4.17994e-05 3.33158e-05 2.61849e-05 2.04068e-05 1.5624e-05 1.14788e-05 7.97141e-06 5.1017e-06 2.86971e-06 1.27543e-06 3.18857e-07 0 0 1.09017e-06 4.3607e-06 9.81157e-06 1.74428e-05 2.72544e-05 3.92463e-05 5.34186e-05 6.97712e-05 8.90939e-05 0.000112176 0.000139018 0.00016962 0.000203982 0.000242103 0.000283984 0.000329625 0.000377707 0.000426912 0.000477238 0.000528688 0.00058126 0.000634954 0.00068977 0.00074571 0.000801211 0.000854716 0.000906223 0.000955734 0.00100325 0.00104876 0.00109228 0.0011338 0.00117265 0.00120813 0.00124025 0.00126902 0.00129442 0.00131646 0.00133515 0.00135047 0.00136273 0.00137224 0.00137899 0.00138298 0.00138422 0.00138269 0.00137841 0.00137138 0.00136245 0.00135251 0.00134155 0.00132956 0.00131656 0.00130254 0.0012875 0.00127144 0.00125512 0.0012393 0.00122398 0.00120915 0.00119482 0.00118099 0.00116766 0.00115482 0.00114263 0.00113122 0.00112059 0.00111074 0.00110168 0.0010934 0.0010859 0.00107918 0.00107279 0.00106625 0.00105958 0.00105276 0.0010458 0.0010387 0.00103145 0.00102407 0.00101595 0.00100651 0.000995749 0.000983661 0.000970248 0.000955512 0.000939451 0.000922067 0.000903181 0.000882615 0.00086037 0.000836446 0.000810843 0.00078356 0.000754597 0.000723955 0.000692106 0.000659519 0.000626196 0.000592136 0.00055734 0.000521807 0.000485537 0.00044853 0.000411722 0.000376047 0.000341505 0.000308097 0.000275821 0.000244679 0.00021467 0.000185794 0.000158688 0.000133986 0.000111689 9.1797e-05 7.43101e-05 5.92281e-05 4.6551e-05 3.62788e-05 2.77759e-05 2.04068e-05 1.41714e-05 9.0697e-06 5.1017e-06 2.26742e-06 5.66856e-07 0 0 1.7034e-06 6.81359e-06 1.53306e-05 2.72544e-05 4.2585e-05 6.13223e-05 8.34665e-05 0.000109017 0.000139209 0.000175275 0.000217216 0.000265032 0.000318722 0.000378286 0.000443726 0.000515039 0.000590168 0.000667049 0.000745685 0.000826075 0.000908218 0.000992115 0.00107777 0.00116517 0.00125189 0.00133549 0.00141597 0.00149333 0.00156757 0.00163869 0.00170669 0.00177157 0.00183226 0.0018877 0.0019379 0.00198284 0.00202253 0.00205697 0.00208617 0.00211011 0.00212927 0.00214412 0.00215467 0.00216091 0.00216284 0.00216046 0.00215377 0.00214278 0.00212883 0.0021133 0.00209617 0.00207744 0.00205713 0.00203522 0.00201172 0.00198663 0.00196113 0.00193641 0.00191246 0.0018893 0.00186691 0.0018453 0.00182447 0.00180441 0.00178536 0.00176753 0.00175092 0.00173553 0.00172137 0.00170843 0.00169672 0.00168623 0.00167623 0.00166602 0.00165559 0.00164493 0.00163406 0.00162296 0.00161165 0.00160011 0.00158743 0.00157268 0.00155586 0.00153697 0.00151601 0.00149299 0.00146789 0.00144073 0.00141122 0.00137909 0.00134433 0.00130695 0.00126694 0.00122431 0.00117906 0.00113118 0.00108142 0.0010305 0.000978431 0.000925213 0.000870843 0.000815323 0.000758651 0.000700828 0.000643316 0.000587573 0.000533602 0.000481401 0.00043097 0.000382311 0.000335422 0.000290303 0.000247949 0.000209353 0.000174514 0.000143433 0.000116109 9.25438e-05 7.27359e-05 5.66856e-05 4.33999e-05 3.18857e-05 2.21428e-05 1.41714e-05 7.97141e-06 3.54285e-06 8.85713e-07 0 0 2.45289e-06 9.81157e-06 2.2076e-05 3.92463e-05 6.13223e-05 8.83042e-05 0.000120192 0.000156985 0.000200461 0.000252397 0.000312791 0.000381646 0.000458959 0.000544732 0.000638965 0.000741657 0.000849841 0.000960551 0.00107379 0.00118955 0.00130783 0.00142865 0.00155198 0.00167785 0.00180273 0.00192311 0.002039 0.0021504 0.00225731 0.00235972 0.00245764 0.00255106 0.00263846 0.00271829 0.00279057 0.00285529 0.00291245 0.00296204 0.00300408 0.00303855 0.00306615 0.00308754 0.00310273 0.00311171 0.00311449 0.00311106 0.00310143 0.0030856 0.00306552 0.00304315 0.00301848 0.00299152 0.00296226 0.00293072 0.00289688 0.00286074 0.00282403 0.00278843 0.00275395 0.00272059 0.00268835 0.00265723 0.00262723 0.00259835 0.00257092 0.00254524 0.00252132 0.00249917 0.00247878 0.00246015 0.00244327 0.00242816 0.00241378 0.00239907 0.00238405 0.0023687 0.00235304 0.00233707 0.00232077 0.00230416 0.0022859 0.00226466 0.00224044 0.00221324 0.00218306 0.0021499 0.00211377 0.00207465 0.00203216 0.00198588 0.00193583 0.001882 0.0018244 0.00176301 0.00169784 0.0016289 0.00155724 0.00148392 0.00140894 0.00133231 0.00125401 0.00117406 0.00109246 0.00100919 0.000926374 0.000846106 0.000768386 0.000693217 0.000620597 0.000550528 0.000483007 0.000418037 0.000357047 0.000301468 0.0002513 0.000206543 0.000167198 0.000133263 0.00010474 8.16273e-05 6.24959e-05 4.59153e-05 3.18857e-05 2.04068e-05 1.14788e-05 5.1017e-06 1.27543e-06 0 0 3.33866e-06 1.33546e-05 3.00479e-05 5.34186e-05 8.34665e-05 0.000120192 0.000163594 0.000213674 0.00027285 0.00034354 0.000425744 0.000519462 0.000624695 0.000741441 0.000869702 0.00100948 0.00115673 0.00130742 0.00146154 0.00161911 0.00178011 0.00194455 0.00211242 0.00228374 0.00245371 0.00261757 0.00277531 0.00292694 0.00307244 0.00321184 0.00334511 0.00347228 0.00359123 0.0036999 0.00379828 0.00388636 0.00396416 0.00403167 0.00408888 0.00413581 0.00417337 0.00420248 0.00422315 0.00423538 0.00423916 0.0042345 0.0042214 0.00419985 0.00417251 0.00414206 0.00410848 0.00407179 0.00403197 0.00398903 0.00394297 0.00389379 0.00384381 0.00379536 0.00374843 0.00370302 0.00365914 0.00361679 0.00357596 0.00353665 0.0034993 0.00346435 0.0034318 0.00340165 0.00337389 0.00334853 0.00332557 0.003305 0.00328542 0.0032654 0.00324495 0.00322407 0.00320275 0.00318101 0.00315883 0.00313621 0.00311136 0.00308245 0.00304948 0.00301246 0.00297139 0.00292625 0.00287707 0.00282383 0.00276599 0.00270301 0.00263488 0.00256162 0.00248321 0.00239965 0.00231095 0.00221711 0.00211957 0.00201978 0.00191773 0.00181342 0.00170685 0.00159803 0.00148696 0.00137362 0.0012609 0.00115164 0.00104586 0.000943546 0.000844702 0.000749329 0.000657427 0.000568995 0.00048598 0.000410331 0.000342047 0.000281128 0.000227575 0.000181386 0.000142562 0.000111104 8.50638e-05 6.24959e-05 4.33999e-05 2.77759e-05 1.5624e-05 6.94399e-06 1.736e-06 0 0 4.3607e-06 1.74428e-05 3.92463e-05 6.97712e-05 0.000109017 0.000156985 0.000213674 0.000279085 0.000356375 0.000448705 0.000556074 0.000678481 0.000815928 0.000968413 0.00113594 0.0013185 0.00151083 0.00170765 0.00190895 0.00211475 0.00232504 0.00253982 0.00275908 0.00298284 0.00320485 0.00341886 0.00362489 0.00382294 0.00401299 0.00419505 0.00436913 0.00453522 0.00469059 0.00483252 0.00496102 0.00507607 0.00517768 0.00526585 0.00534058 0.00540187 0.00545093 0.00548896 0.00551596 0.00553193 0.00553687 0.00553078 0.00551366 0.00548551 0.00544981 0.00541004 0.00536618 0.00531825 0.00526625 0.00521016 0.00515 0.00508577 0.00502049 0.0049572 0.00489591 0.0048366 0.00477929 0.00472397 0.00467064 0.0046193 0.00457052 0.00452487 0.00448235 0.00444297 0.00440672 0.00437359 0.0043436 0.00431674 0.00429116 0.00426501 0.0042383 0.00421103 0.00418319 0.00415479 0.00412582 0.00409628 0.00406381 0.00402605 0.003983 0.00393464 0.00388099 0.00382205 0.00375781 0.00368827 0.00361272 0.00353046 0.00344148 0.00334578 0.00324337 0.00313424 0.00301839 0.00289582 0.00276842 0.00263808 0.00250478 0.00236854 0.00222936 0.00208723 0.00194215 0.00179412 0.00164689 0.00150419 0.00136602 0.00123239 0.00110328 0.000978716 0.00085868 0.000743177 0.00063475 0.000535943 0.000446756 0.000367188 0.00029724 0.000236912 0.000186204 0.000145115 0.000111104 8.16273e-05 5.66856e-05 3.62788e-05 2.04068e-05 9.0697e-06 2.26742e-06 0 0 5.61968e-06 2.24787e-05 5.05771e-05 8.99148e-05 0.000140492 0.000202308 0.000275364 0.000359659 0.000459094 0.000577568 0.000715081 0.000871634 0.00104723 0.00124186 0.00145553 0.00168824 0.00193329 0.00218397 0.00244028 0.00270222 0.0029698 0.003243 0.00352184 0.00380631 0.00408854 0.00436064 0.00462262 0.00487447 0.0051162 0.0053478 0.00556928 0.00578064 0.00597843 0.0061592 0.00632296 0.00646971 0.00659944 0.00671216 0.00680786 0.00688655 0.00694974 0.00699895 0.00703418 0.00705542 0.00706267 0.00705595 0.00703524 0.00700054 0.00695625 0.00690673 0.00685199 0.00679203 0.00672685 0.00665645 0.00658083 0.00649999 0.00641775 0.00633795 0.00626059 0.00618566 0.00611317 0.00604311 0.00597549 0.0059103 0.00584827 0.00579013 0.00573587 0.00568549 0.005639 0.0055964 0.00555768 0.00552284 0.00548957 0.00545554 0.00542075 0.0053852 0.00534889 0.00531183 0.00527401 0.00523543 0.00519311 0.00514409 0.00508837 0.00502593 0.00495679 0.00488095 0.00479839 0.00470913 0.00461228 0.00450694 0.00439311 0.00427079 0.00413999 0.00400071 0.00385294 0.00369668 0.00353431 0.00336823 0.00319842 0.00302489 0.00284763 0.00266666 0.00248195 0.00229353 0.0021061 0.00192439 0.0017484 0.00157813 0.00141357 0.00125473 0.0011016 0.000954199 0.000815749 0.000689492 0.000575427 0.000473557 0.000383879 0.000306395 0.000241104 0.000188006 0.000143942 0.000105753 7.34397e-05 4.70014e-05 2.64383e-05 1.17503e-05 2.93759e-06 0 0 7.21625e-06 2.8865e-05 6.49463e-05 0.00011546 0.000180406 0.000259785 0.000353596 0.00046184 0.000589061 0.000739803 0.000914067 0.00111185 0.00133316 0.00157799 0.00184634 0.00213821 0.00244525 0.0027591 0.00307977 0.00340725 0.00374155 0.00408266 0.00443058 0.00478532 0.0051372 0.00547654 0.00580334 0.00611761 0.00641934 0.00670853 0.00698518 0.0072493 0.00749664 0.00772297 0.00792828 0.00811258 0.00827587 0.00841814 0.0085394 0.00863964 0.00872071 0.00878445 0.00883085 0.00885992 0.00887166 0.00886606 0.00884314 0.00880287 0.00875064 0.00869178 0.00862632 0.00855424 0.00847554 0.00839023 0.00829831 0.00819977 0.0080993 0.00800161 0.00790669 0.00781454 0.00772516 0.00763856 0.00755472 0.00747365 0.00739627 0.00732346 0.00725523 0.00719158 0.00713251 0.00707802 0.00702811 0.00698279 0.00693922 0.0068946 0.00684893 0.0068022 0.00675441 0.00670557 0.00665567 0.00660472 0.0065491 0.00648518 0.00641298 0.00633248 0.0062437 0.00614662 0.00604126 0.0059276 0.00580458 0.00567113 0.00552725 0.00537293 0.00520818 0.005033 0.00484738 0.00465133 0.00444778 0.00423965 0.00402694 0.00380965 0.00358778 0.00336133 0.0031303 0.0028947 0.0026603 0.00243292 0.00221253 0.00199915 0.00179278 0.00159341 0.00140104 0.00121568 0.00104137 0.000882165 0.000738065 0.000609068 0.000495175 0.000396386 0.000312701 0.000244119 0.000186904 0.000137317 9.5359e-05 6.10298e-05 3.43292e-05 1.52574e-05 3.81436e-06 0 0 9.15043e-06 3.66017e-05 8.23539e-05 0.000146407 0.000228761 0.000329416 0.000448371 0.000585628 0.000746277 0.000935412 0.00115303 0.00139914 0.00167373 0.0019768 0.00230836 0.00266841 0.00304671 0.00343306 0.00382743 0.00422985 0.0046403 0.00505878 0.00548531 0.00591987 0.00635083 0.00676656 0.00716707 0.00755235 0.00792241 0.00827723 0.00861683 0.0089412 0.00924523 0.00952383 0.00977699 0.0100047 0.010207 0.0103838 0.0105352 0.0106611 0.0107638 0.0108455 0.010906 0.0109454 0.0109638 0.0109611 0.0109374 0.0108925 0.010833 0.0107652 0.0106892 0.0106049 0.0105123 0.0104115 0.0103024 0.0101851 0.0100651 0.00994817 0.00983421 0.00972324 0.00961528 0.00951031 0.00940834 0.00930937 0.0092145 0.00912486 0.00904043 0.00896122 0.00888723 0.00881846 0.00875491 0.00869657 0.00864012 0.00858221 0.00852284 0.00846202 0.00839974 0.00833601 0.00827082 0.00820417 0.00813177 0.00804933 0.00795683 0.0078543 0.00774171 0.00761907 0.00748639 0.00734366 0.00718963 0.00702304 0.0068439 0.00665219 0.00644793 0.00623111 0.00600173 0.00575979 0.00550882 0.00525233 0.00499033 0.00472282 0.00444979 0.00417125 0.00388719 0.00359762 0.00330949 0.00302976 0.00275841 0.00249547 0.00224091 0.00199475 0.00175699 0.00152761 0.00131161 0.00111396 0.000934668 0.000773723 0.000631129 0.000506886 0.000400995 0.000313456 0.000239989 0.000176319 0.000122444 7.83639e-05 4.40797e-05 1.9591e-05 4.89774e-06 0 0 1.14222e-05 4.56889e-05 0.0001028 0.000182755 0.000285555 0.0004112 0.000559689 0.000731022 0.000930742 0.00116439 0.00143197 0.00173349 0.00206893 0.0024383 0.0028416 0.00327883 0.00373768 0.00420583 0.00468327 0.00517001 0.00566604 0.00617138 0.00668601 0.00720994 0.00772942 0.00823071 0.0087138 0.0091787 0.0096254 0.0100539 0.0104642 0.0108563 0.0112242 0.0115618 0.0118691 0.0121461 0.0123928 0.0126092 0.0127953 0.0129511 0.0130791 0.013182 0.0132596 0.013312 0.0133392 0.0133411 0.0133179 0.0132694 0.0132033 0.013127 0.0130405 0.0129439 0.0128372 0.0127203 0.0125932 0.012456 0.0123153 0.0121776 0.0120431 0.0119118 0.0117835 0.0116584 0.0115363 0.0114174 0.011303 0.0111943 0.0110915 0.0109944 0.0109032 0.0108177 0.0107381 0.0106642 0.0105923 0.0105184 0.0104425 0.0103647 0.0102849 0.0102031 0.0101194 0.0100338 0.00994114 0.00983652 0.00971993 0.00959137 0.00945082 0.0092983 0.0091338 0.00895733 0.00876743 0.00856268 0.00834306 0.00810858 0.00785924 0.00759504 0.00731597 0.00702205 0.00671743 0.00640628 0.00608861 0.0057644 0.00543367 0.00509641 0.00475262 0.0044023 0.00405366 0.00371491 0.00338605 0.00306707 0.00275797 0.00245876 0.00216944 0.00189 0.00162648 0.00138489 0.00116524 0.00096752 0.00079174 0.000637895 0.000505987 0.000396015 0.000303199 0.000222759 0.000154694 9.90038e-05 5.56897e-05 2.4751e-05 6.18774e-06 0 0 1.40316e-05 5.61264e-05 0.000126284 0.000224506 0.00035079 0.000505138 0.000687548 0.000898022 0.00114246 0.00142675 0.0017509 0.0021149 0.00251876 0.00296248 0.00344606 0.00396949 0.00451815 0.00507741 0.00564727 0.00622773 0.00681879 0.00742044 0.0080327 0.00865555 0.00927298 0.00986898 0.0104435 0.0109966 0.0115283 0.0120386 0.0125274 0.0129947 0.0134336 0.0138368 0.0142045 0.0145367 0.0148332 0.0150942 0.0153196 0.0155094 0.0156666 0.015794 0.0158916 0.0159595 0.0159977 0.0160061 0.0159848 0.0159337 0.0158616 0.0157771 0.0156804 0.0155714 0.0154501 0.0153165 0.0151706 0.0150124 0.0148497 0.01469 0.0145335 0.0143801 0.0142299 0.0140827 0.0139387 0.0137979 0.0136617 0.0135319 0.0134084 0.0132912 0.0131803 0.0130758 0.0129776 0.0128857 0.0127956 0.012703 0.0126079 0.0125101 0.0124098 0.012307 0.0122015 0.0120935 0.0119772 0.0118468 0.0117023 0.0115437 0.011371 0.0111843 0.0109835 0.0107686 0.010538 0.01029 0.0100247 0.00974209 0.00944211 0.00912479 0.00879012 0.00843811 0.00807361 0.0077015 0.00732176 0.0069344 0.00653942 0.00613682 0.00572659 0.00530874 0.00489282 0.00448839 0.00409543 0.00371395 0.00334396 0.00298544 0.00263841 0.00230285 0.00198597 0.00169494 0.00142977 0.00119046 0.000977008 0.000789414 0.000627677 0.000491798 0.000376533 0.000276637 0.000192109 0.00012295 6.91591e-05 3.07374e-05 7.68435e-06 0 0 1.69786e-05 6.79143e-05 0.000152807 0.000271657 0.000424465 0.000611229 0.000831951 0.00108663 0.00138142 0.00172247 0.0021098 0.00254338 0.00302323 0.00354935 0.00412173 0.00474038 0.00538812 0.00604781 0.00671944 0.00740301 0.00809852 0.00880597 0.00952536 0.0102567 0.0109815 0.0116814 0.0123563 0.0130062 0.0136312 0.0142312 0.0148062 0.0153563 0.0158733 0.016349 0.0167834 0.0171765 0.0175283 0.0178389 0.0181082 0.0183362 0.0185262 0.0186815 0.0188022 0.0188881 0.0189394 0.018956 0.018938 0.0188852 0.0188078 0.0187157 0.0186088 0.0184873 0.0183511 0.0182003 0.0180347 0.0178544 0.0176683 0.0174853 0.0173053 0.0171283 0.0169543 0.0167834 0.0166155 0.0164506 0.0162907 0.0161375 0.0159911 0.0158515 0.0157187 0.0155927 0.0154734 0.015361 0.0152503 0.0151363 0.015019 0.0148985 0.0147746 0.0146475 0.0145171 0.0143834 0.0142399 0.0140801 0.0139039 0.0137113 0.0135024 0.0132771 0.0130354 0.0127774 0.0125013 0.0122051 0.0118889 0.0115527 0.0111965 0.0108204 0.0104242 0.010008 0.00957737 0.00913798 0.0086898 0.00823281 0.00776704 0.00729247 0.0068091 0.00631694 0.00582697 0.00535018 0.00488656 0.00443613 0.00399887 0.00357479 0.00316388 0.00276616 0.00239008 0.00204412 0.00172827 0.00144254 0.00118693 0.00096144 0.000766064 0.000600804 0.000459991 0.000337952 0.000234689 0.000150201 8.44881e-05 3.75503e-05 9.38757e-06 0 0 2.02632e-05 8.10527e-05 0.000182369 0.000324211 0.000506579 0.000729474 0.000992896 0.00129684 0.00164763 0.00205157 0.00250867 0.00301893 0.00358233 0.0041989 0.00486862 0.00559149 0.0063476 0.00711703 0.00789979 0.00869586 0.00950526 0.010328 0.011164 0.0120134 0.012855 0.0136679 0.014452 0.0152074 0.0159339 0.0166318 0.0173009 0.0179412 0.0185434 0.0190982 0.0196056 0.0200656 0.0204781 0.0208433 0.021161 0.0214313 0.0216579 0.0218445 0.0219911 0.0220977 0.0221643 0.0221909 0.0221775 0.022124 0.022042 0.0219425 0.0218258 0.0216917 0.0215403 0.0213715 0.0211854 0.020982 0.0207713 0.0205635 0.0203584 0.0201563 0.0199569 0.0197604 0.0195667 0.0193758 0.0191899 0.0190112 0.0188397 0.0186754 0.0185183 0.0183684 0.0182257 0.0180901 0.0179561 0.0178181 0.0176759 0.0175296 0.0173792 0.0172247 0.0170661 0.0169035 0.0167294 0.0165364 0.0163247 0.0160941 0.0158448 0.0155766 0.0152897 0.0149839 0.0146573 0.0143079 0.0139356 0.0135405 0.0131225 0.0126817 0.0122181 0.0117316 0.0112287 0.0107157 0.0101927 0.00965964 0.00911653 0.00856336 0.00800015 0.00742689 0.0068561 0.00630029 0.00575945 0.00523359 0.0047227 0.0042268 0.00374587 0.00327992 0.00283881 0.00243242 0.00206074 0.00172377 0.00142152 0.00115398 0.000921148 0.000723033 0.000553573 0.000406706 0.000282435 0.000180758 0.000101677 4.51896e-05 1.12974e-05 0 0 2.38854e-05 9.55415e-05 0.000214968 0.000382166 0.000597134 0.000859873 0.00117038 0.00152866 0.00194109 0.00241405 0.00294753 0.00354154 0.00419607 0.00491113 0.00568672 0.00652283 0.00739658 0.00828507 0.0091883 0.0101063 0.011039 0.0119864 0.0129486 0.0139256 0.0148935 0.0158285 0.0167307 0.0176001 0.0184367 0.0192404 0.0200112 0.0207493 0.0214439 0.0220845 0.0226712 0.0232039 0.0236826 0.0241073 0.0244781 0.0247949 0.0250618 0.0252831 0.0254586 0.0255883 0.0256724 0.0257107 0.0257033 0.0256502 0.0255641 0.0254578 0.0253312 0.0251845 0.0250175 0.0248302 0.0246228 0.0243951 0.0241586 0.0239246 0.0236931 0.0234641 0.0232376 0.0230136 0.0227922 0.0225733 0.0223594 0.022153 0.0219542 0.0217629 0.0215791 0.0214029 0.0212343 0.0210731 0.0209133 0.0207484 0.0205785 0.0204035 0.0202236 0.0200386 0.0198487 0.0196537 0.0194455 0.0192158 0.0189648 0.0186923 0.0183983 0.018083 0.0177462 0.017388 0.0170061 0.0165984 0.0161648 0.0157054 0.0152201 0.014709 0.0141719 0.0136091 0.0130276 0.0124347 0.0118305 0.0112149 0.0105879 0.0099495 0.00929975 0.00863861 0.00798022 0.00733871 0.00671408 0.00610633 0.00551546 0.00494147 0.00438436 0.00384413 0.00333217 0.00285984 0.00242717 0.00203414 0.00168076 0.00136702 0.00109293 0.000858486 0.000657278 0.000482898 0.000335346 0.000214621 0.000120725 5.36554e-05 1.34138e-05 0 0 2.78399e-05 0.00011136 0.00025056 0.000445439 0.000695999 0.00100224 0.00136416 0.00178176 0.00226136 0.00280929 0.00342554 0.00411012 0.00486303 0.00568426 0.00657382 0.00753171 0.00853184 0.00954813 0.0105806 0.0116292 0.012694 0.0137749 0.014872 0.0159853 0.0170881 0.0181537 0.0191822 0.0201735 0.0211276 0.0220446 0.0229245 0.0237672 0.0245608 0.0252936 0.0259656 0.0265766 0.0271268 0.027616 0.0280444 0.028412 0.0287232 0.0289826 0.0291902 0.0293461 0.0294502 0.0295026 0.0295031 0.0294519 0.0293631 0.029251 0.0291155 0.0289566 0.0287743 0.0285687 0.0283397 0.0280874 0.0278244 0.0275634 0.0273045 0.0270476 0.0267927 0.0265399 0.0262892 0.0260405 0.0257966 0.0255606 0.0253323 0.0251119 0.0248991 0.0246942 0.024497 0.0243076 0.024119 0.0239244 0.0237238 0.023517 0.0233042 0.0230854 0.0228605 0.0226295 0.0223834 0.0221132 0.0218187 0.0215 0.0211571 0.0207901 0.0203988 0.0199834 0.0195413 0.0190703 0.0185702 0.0180411 0.0174831 0.016896 0.0162799 0.0156348 0.0149688 0.0142901 0.0135985 0.0128942 0.0121772 0.0114473 0.0107047 0.00994932 0.00919697 0.00846348 0.00774884 0.00705305 0.00637612 0.00571805 0.00507883 0.00445846 0.00386997 0.00332637 0.00282765 0.00237382 0.00196487 0.00160081 0.00128164 0.00100736 0.00077126 0.00056664 0.0003935 0.00025184 0.00014166 6.296e-05 1.574e-05 0 0 3.21217e-05 0.000128487 0.000289095 0.000513948 0.000803043 0.00115638 0.00157396 0.00205579 0.00260799 0.00323669 0.00394189 0.0047236 0.0055818 0.00651651 0.00752772 0.00861543 0.00975016 0.0109024 0.0120723 0.0132596 0.0144645 0.015687 0.016927 0.0181845 0.01943 0.0206338 0.0217959 0.0229164 0.0239952 0.0250323 0.0260277 0.0269815 0.0278804 0.0287113 0.0294741 0.0301689 0.0307956 0.0313543 0.031845 0.0322676 0.0326272 0.0329286 0.033172 0.0333573 0.0334845 0.0335536 0.0335646 0.0335175 0.033428 0.0333118 0.0331688 0.032999 0.0328025 0.0325792 0.0323292 0.0320524 0.0317629 0.0314748 0.0311881 0.0309027 0.0306186 0.030336 0.0300546 0.0297747 0.0294993 0.0292318 0.0289721 0.0287203 0.0284763 0.0282401 0.0280117 0.0277912 0.0275709 0.0273435 0.0271087 0.0268668 0.0266176 0.0263611 0.0260975 0.0258265 0.0255385 0.0252233 0.0248811 0.0245118 0.0241154 0.0236919 0.0232414 0.0227638 0.0222566 0.0217171 0.0211454 0.0205414 0.0199052 0.0192368 0.0185361 0.0178032 0.0170471 0.0162768 0.0154922 0.0146935 0.0138805 0.0130533 0.0122119 0.0113563 0.010504 0.00967261 0.00886208 0.00807243 0.00730365 0.00655575 0.00582872 0.00512257 0.00445205 0.00383195 0.00326225 0.00274296 0.00227407 0.00185559 0.00148752 0.00116985 0.000895669 0.000658042 0.000456974 0.000292463 0.000164511 7.31158e-05 1.8279e-05 0 0 3.67307e-05 0.000146923 0.000330576 0.000587691 0.000918267 0.0013223 0.0017998 0.00235076 0.00298098 0.00369625 0.00449657 0.00538195 0.00635238 0.00740787 0.0085484 0.00977399 0.0110515 0.012348 0.0136633 0.0149975 0.0163506 0.0177226 0.0191135 0.0205233 0.0219193 0.0232689 0.0245721 0.0258289 0.0270393 0.0282034 0.029321 0.0303922 0.0314025 0.0323374 0.0331968 0.0339807 0.0346892 0.0353222 0.0358797 0.0363618 0.0367738 0.0371212 0.0374038 0.0376218 0.0377752 0.0378638 0.0378878 0.037847 0.0377588 0.0376402 0.0374911 0.0373117 0.0371019 0.0368617 0.0365912 0.0362902 0.0359743 0.0356588 0.0353438 0.0350293 0.0347153 0.0344017 0.0340886 0.033776 0.0334675 0.0331666 0.0328735 0.0325882 0.0323105 0.0320406 0.0317784 0.0315239 0.0312689 0.0310055 0.0307334 0.0304528 0.0301636 0.0298659 0.0295596 0.0292447 0.0289105 0.0285462 0.0281519 0.0277275 0.0272731 0.0267886 0.026274 0.0257294 0.0251519 0.0245389 0.0238904 0.0232063 0.0224866 0.0217314 0.0209407 0.0201144 0.0192624 0.0183948 0.0175115 0.0166125 0.0156978 0.0147674 0.0138213 0.0128595 0.0119013 0.0109661 0.0100538 0.00916446 0.00829805 0.00745457 0.00663404 0.00583644 0.00507842 0.0043766 0.00373098 0.00314157 0.00260836 0.00213136 0.00171056 0.00134597 0.00103051 0.000757106 0.000525768 0.000336491 0.000189276 8.41229e-05 2.10307e-05 0 0 4.16668e-05 0.000166667 0.000375001 0.000666669 0.00104167 0.00150001 0.00204167 0.00266668 0.00338034 0.00418797 0.00508959 0.00608519 0.00717477 0.00835833 0.00963587 0.0110074 0.012436 0.0138848 0.0153538 0.0168429 0.0183523 0.0198818 0.0214316 0.0230015 0.0245558 0.0260589 0.0275106 0.028911 0.0302601 0.0315578 0.0328043 0.0339994 0.0351273 0.036172 0.0371337 0.0380121 0.0388075 0.0395196 0.0401487 0.0406946 0.0411632 0.0415602 0.0418858 0.0421397 0.0423222 0.0424331 0.0424726 0.0424404 0.0423554 0.0422361 0.0420826 0.0418947 0.0416726 0.0414163 0.0411257 0.0408008 0.0404584 0.0401154 0.0397718 0.0394276 0.0390827 0.0387372 0.0383911 0.0380443 0.037701 0.0373651 0.0370366 0.0367155 0.0364019 0.0360957 0.035797 0.0355057 0.0352131 0.0349104 0.0345978 0.0342751 0.0339423 0.0335996 0.0332468 0.032884 0.0324996 0.032082 0.0316312 0.0311473 0.0306303 0.03008 0.0294966 0.02888 0.0282273 0.0275357 0.0268052 0.0260357 0.0252273 0.0243799 0.0234935 0.0225682 0.0216148 0.0206442 0.0196564 0.0186514 0.0176291 0.0165896 0.0155329 0.014459 0.0133889 0.012344 0.011324 0.0103291 0.00935931 0.00841452 0.00749478 0.00660009 0.00574905 0.0049603 0.00423383 0.00356965 0.00296774 0.00242811 0.00195076 0.0015357 0.00117577 0.000863831 0.000599882 0.000383925 0.000215958 9.59812e-05 2.39953e-05 0 0 4.69301e-05 0.000187721 0.000422371 0.000750882 0.00117325 0.00168949 0.00229958 0.00300353 0.00380605 0.00471186 0.00572095 0.00683332 0.00804898 0.00936791 0.0107901 0.0123156 0.0139035 0.0155128 0.0171436 0.0187958 0.0204695 0.0221646 0.0238812 0.0256192 0.0273397 0.0290038 0.0306115 0.0321627 0.0336574 0.0350957 0.0364776 0.037803 0.0390546 0.0402152 0.0412847 0.0422631 0.0431504 0.0439467 0.0446519 0.045266 0.0457952 0.0462458 0.0466177 0.046911 0.0471257 0.0472617 0.047319 0.0472977 0.0472179 0.0470997 0.046943 0.046748 0.0465146 0.0462428 0.0459327 0.0455841 0.0452153 0.0448446 0.044472 0.0440974 0.0437209 0.0433425 0.0429621 0.0425797 0.0421999 0.0418271 0.0414612 0.0411023 0.0407504 0.0404055 0.0400676 0.0397366 0.0394033 0.0390583 0.0387018 0.0383336 0.0379537 0.0375623 0.0371592 0.0367444 0.0363057 0.0358306 0.035319 0.0347711 0.0341869 0.0335662 0.0329091 0.0322157 0.0314828 0.0307075 0.0298898 0.0290297 0.0281271 0.0271821 0.0261947 0.0251648 0.0241043 0.023025 0.0219269 0.0208101 0.0196744 0.01852 0.0173467 0.0161547 0.0149668 0.0138062 0.0126727 0.0115665 0.0104875 0.0094356 0.00841095 0.0074135 0.00646397 0.00558308 0.00477081 0.00402719 0.0033522 0.00274585 0.00220813 0.00173905 0.00133146 0.000978216 0.000679317 0.000434763 0.000244554 0.000108691 2.71727e-05 0 0 5.25207e-05 0.000210083 0.000472686 0.000840331 0.00131302 0.00189074 0.00257351 0.00336132 0.00425813 0.00526791 0.00639064 0.00762633 0.00897499 0.0104366 0.0120112 0.0136987 0.0154541 0.0172321 0.0190328 0.0208562 0.0227022 0.024571 0.0264624 0.0283764 0.030271 0.0321037 0.0338747 0.0355839 0.0372313 0.038817 0.0403409 0.041803 0.0431845 0.0444668 0.0456499 0.0467336 0.0477