<?xml version="1.0"?> 
<VTKFile type="StructuredGrid" version="0.1"> 
<StructuredGrid WholeExtent="0 128 0 128 0 0"> 
<Piece Extent="0 128 0 128 0 0"> 
<PointData>
<DataArray type="Float32" Name="u" format="ascii" NumberOfComponents="1"> 
0 0 0 0 0 0 0 0 0 0 0 0 0 0 0 0 0 0 0 0 0 0 0 0 0 0 0 0 0 0 0 0 0 0 0 0 0 0 0 0 0 0 0 0 0 0 0 0 0 0 0 0 0 0 0 0 0 0 0 0 0 0 0 0 0 0 0 0 0 0 0 0 0 0 0 0 0 0 0 0 0 0 0 0 0 0 0 0 0 0 0 0 0 0 0 0 0 0 0 0 0 0 0 0 0 0 0 0 0 0 0 0 0 0 0 0 0 0 0 0 0 0 0 0 0 0 0 0 0 0 4.07218e-07 1.62887e-06 3.66496e-06 6.51549e-06 1.01805e-05 1.46599e-05 1.99537e-05 2.6062e-05 3.31041e-05 4.11997e-05 5.03486e-05 6.0551e-05 7.18067e-05 8.41158e-05 9.74782e-05 0.000111894 0.00012698 0.000142353 0.000158012 0.000173958 0.00019019 0.00020671 0.000223516 0.000240609 0.000257617 0.000274172 0.000290272 0.000305919 0.00032111 0.000335848 0.000350131 0.00036396 0.000377142 0.000389486 0.000400992 0.000411658 0.000421487 0.000430476 0.000438628 0.00044594 0.000452384 0.000457929 0.000462576 0.000466324 0.000469173 0.000471124 0.000472176 0.000472329 0.000471669 0.00047028 0.000468162 0.000465316 0.000461741 0.000457437 0.000452405 0.000446644 0.000440297 0.000433505 0.000426269 0.000418589 0.000410465 0.000401897 0.000392884 0.000383427 0.000373672 0.000363765 0.000353706 0.000343495 0.000333132 0.000322617 0.000311949 0.00030113 0.000290273 0.000279492 0.000268786 0.000258157 0.000247604 0.000237127 0.000226725 0.0002164 0.000206219 0.000196251 0.000186495 0.000176952 0.000167622 0.000158504 0.000149598 0.000140905 0.000132453 0.000124268 0.000116352 0.000108704 0.000101324 9.42116e-05 8.73677e-05 8.07919e-05 7.44875e-05 6.84577e-05 6.27026e-05 5.72222e-05 5.20165e-05 4.70854e-05 4.24289e-05 3.80472e-05 3.39338e-05 3.00825e-05 2.64934e-05 2.31664e-05 2.01016e-05 1.72988e-05 1.47582e-05 1.24798e-05 1.04362e-05 8.60022e-06 6.97191e-06 5.55125e-06 4.33824e-06 3.33286e-06 2.53514e-06 1.94505e-06 1.48918e-06 1.09409e-06 7.59785e-07 4.86263e-07 2.73523e-07 1.21566e-07 3.03914e-08 0 0 1.62887e-06 6.51549e-06 1.46599e-05 2.6062e-05 4.07218e-05 5.86394e-05 7.98148e-05 0.000104248 0.000132417 0.000164799 0.000201395 0.000242204 0.000287227 0.000336463 0.000389913 0.000447576 0.00050792 0.00056941 0.000632047 0.000695831 0.000760762 0.000826839 0.000894063 0.000962434 0.00103047 0.00109669 0.00116109 0.00122367 0.00128444 0.00134339 0.00140052 0.00145584 0.00150857 0.00155795 0.00160397 0.00164663 0.00168595 0.00172191 0.00175451 0.00178376 0.00180954 0.00183172 0.0018503 0.0018653 0.00187669 0.0018845 0.0018887 0.00188932 0.00188667 0.00188112 0.00187265 0.00186126 0.00184696 0.00182975 0.00180962 0.00178658 0.00176119 0.00173402 0.00170508 0.00167436 0.00164186 0.00160759 0.00157154 0.00153371 0.00149469 0.00145506 0.00141482 0.00137398 0.00133253 0.00129047 0.0012478 0.00120452 0.00116109 0.00111797 0.00107514 0.00103263 0.000990415 0.000948506 0.000906902 0.000865601 0.000824878 0.000785005 0.000745982 0.000707809 0.000670487 0.000634015 0.000598393 0.000563621 0.000529811 0.000497073 0.000465408 0.000434815 0.000405294 0.000376846 0.000349471 0.000323168 0.00029795 0.000273831 0.000250811 0.000228889 0.000208066 0.000188341 0.000169716 0.000152189 0.000135735 0.00012033 0.000105974 9.26658e-05 8.04063e-05 6.91954e-05 5.9033e-05 4.9919e-05 4.17447e-05 3.44009e-05 2.78877e-05 2.2205e-05 1.73529e-05 1.33315e-05 1.01405e-05 7.7802e-06 5.95672e-06 4.37636e-06 3.03914e-06 1.94505e-06 1.09409e-06 4.86263e-07 1.21566e-07 0 0 3.66496e-06 1.46599e-05 3.29847e-05 5.86394e-05 9.16241e-05 0.000131939 0.000179583 0.000234558 0.000297937 0.000370797 0.000453138 0.000544959 0.00064626 0.000757042 0.000877304 0.00100705 0.00114282 0.00128117 0.00142211 0.00156562 0.00171171 0.00186039 0.00201164 0.00216548 0.00231856 0.00246755 0.00261245 0.00275327 0.00288999 0.00302263 0.00315118 0.00327564 0.00339428 0.00350538 0.00360892 0.00370493 0.00379338 0.00387429 0.00394765 0.00401346 0.00407146 0.00412137 0.00416318 0.00419692 0.00422256 0.00424012 0.00424958 0.00425096 0.00424502 0.00423252 0.00421346 0.00418784 0.00415567 0.00411693 0.00407164 0.0040198 0.00396267 0.00390155 0.00383642 0.0037673 0.00369419 0.00361707 0.00353596 0.00345085 0.00336305 0.00327389 0.00318336 0.00309146 0.00299819 0.00290355 0.00280754 0.00271017 0.00261246 0.00251542 0.00241908 0.00232341 0.00222843 0.00213414 0.00204053 0.0019476 0.00185597 0.00176626 0.00167846 0.00159257 0.0015086 0.00142653 0.00134638 0.00126815 0.00119207 0.00111841 0.00104717 0.000978334 0.000911913 0.000847904 0.000786309 0.000727127 0.000670387 0.00061612 0.000564324 0.000515 0.000468148 0.000423768 0.00038186 0.000342424 0.000305404 0.000270743 0.000238441 0.000208498 0.000180914 0.00015569 0.000132824 0.000112318 9.39255e-05 7.7402e-05 6.27472e-05 4.99613e-05 3.90441e-05 2.99958e-05 2.28162e-05 1.75055e-05 1.34026e-05 9.84682e-06 6.83807e-06 4.37636e-06 2.4617e-06 1.09409e-06 2.73523e-07 0 0 6.51549e-06 2.6062e-05 5.86394e-05 0.000104248 0.000162887 0.000234558 0.000319259 0.000416991 0.000529666 0.000659195 0.000805578 0.000968816 0.00114891 0.00134585 0.00155965 0.0017903 0.00203168 0.00227764 0.00252819 0.00278332 0.00304305 0.00330736 0.00357625 0.00384974 0.00412188 0.00438675 0.00464436 0.0048947 0.00513777 0.00537356 0.0056021 0.00582336 0.00603428 0.00623178 0.00641587 0.00658653 0.00674379 0.00688762 0.00701804 0.00713504 0.00723815 0.00732687 0.00740122 0.00746118 0.00750677 0.00753798 0.00755481 0.00755727 0.0075467 0.00752447 0.00749059 0.00744505 0.00738785 0.00731899 0.00723848 0.0071463 0.00704475 0.00693608 0.00682031 0.00669743 0.00656744 0.00643035 0.00628615 0.00613484 0.00597876 0.00582024 0.0056593 0.00549592 0.00533011 0.00516187 0.00499119 0.00481808 0.00464436 0.00447186 0.00430058 0.00413051 0.00396166 0.00379403 0.00362761 0.0034624 0.00329951 0.00314002 0.00298393 0.00283124 0.00268195 0.00253606 0.00239357 0.00225449 0.00211924 0.00198829 0.00186163 0.00173926 0.00162118 0.00150739 0.00139788 0.00129267 0.0011918 0.00109532 0.00100324 0.000915555 0.000832263 0.000753366 0.000678863 0.000608755 0.000542941 0.000481321 0.000423895 0.000370663 0.000321625 0.000276782 0.000236132 0.000199676 0.000166979 0.000137604 0.000111551 8.88201e-05 6.94118e-05 5.33258e-05 4.05622e-05 3.11208e-05 2.38269e-05 1.75055e-05 1.21566e-05 7.7802e-06 4.37636e-06 1.94505e-06 4.86263e-07 0 0 1.01805e-05 4.07218e-05 9.16241e-05 0.000162887 0.000254511 0.000366496 0.000498842 0.000651549 0.000827604 0.00102999 0.00125872 0.00151377 0.00179517 0.00210289 0.00243696 0.00279735 0.0031745 0.00355881 0.00395029 0.00434894 0.00475476 0.00516774 0.0055879 0.00601521 0.00644044 0.0068543 0.00725681 0.00764796 0.00802776 0.00839619 0.00875327 0.009099 0.00942856 0.00973716 0.0100248 0.0102915 0.0105372 0.0107619 0.0109657 0.0111485 0.0113096 0.0114482 0.0115644 0.0116581 0.0117293 0.0117781 0.0118044 0.0118082 0.0117917 0.011757 0.011704 0.0116329 0.0115435 0.0114359 0.0113101 0.0111661 0.0110074 0.0108376 0.0106567 0.0104647 0.0102616 0.0100474 0.0098221 0.00958568 0.00934181 0.00909413 0.00884265 0.00858738 0.0083283 0.00806542 0.00779874 0.00752825 0.00725682 0.00698729 0.00671966 0.00645393 0.00619009 0.00592816 0.00566814 0.00541001 0.00515549 0.00490628 0.00466239 0.00442381 0.00419054 0.00396259 0.00373996 0.00352263 0.00331132 0.00310671 0.0029088 0.00271759 0.00253309 0.00235529 0.00218419 0.0020198 0.00186219 0.00171144 0.00156757 0.00143056 0.00130041 0.00117713 0.00106072 0.000951179 0.000848345 0.000752064 0.000662336 0.000579161 0.00050254 0.000432471 0.000368956 0.000311994 0.000260904 0.000215005 0.000174298 0.000138781 0.000108456 8.33216e-05 6.33784e-05 4.86263e-05 3.72295e-05 2.73523e-05 1.89946e-05 1.21566e-05 6.83807e-06 3.03914e-06 7.59785e-07 0 0 1.46599e-05 5.86394e-05 0.000131939 0.000234558 0.000366496 0.000527755 0.000718333 0.000938231 0.00119175 0.00148319 0.00181255 0.00217983 0.00258504 0.00302817 0.00350922 0.00402819 0.00457128 0.00512469 0.00568842 0.00626248 0.00684685 0.00744155 0.00804657 0.00866191 0.00927423 0.0098702 0.0104498 0.0110131 0.01156 0.0120905 0.0126047 0.0131026 0.0135771 0.0140215 0.0144357 0.0148197 0.0151735 0.0154972 0.0157906 0.0160538 0.0162858 0.0164855 0.0166527 0.0167877 0.0168902 0.0169605 0.0169983 0.0170038 0.0169801 0.0169301 0.0168538 0.0167514 0.0166227 0.0164677 0.0162866 0.0160792 0.0158507 0.0156062 0.0153457 0.0150692 0.0147767 0.0144683 0.0141438 0.0138034 0.0134522 0.0130955 0.0127334 0.0123658 0.0119927 0.0116142 0.0112302 0.0108407 0.0104498 0.0100617 0.0096763 0.00929365 0.00891374 0.00853656 0.00816212 0.00779041 0.0074239 0.00706504 0.00671384 0.00637028 0.00603438 0.00570613 0.00538554 0.00507259 0.0047683 0.00447366 0.00418867 0.00391333 0.00364765 0.00339162 0.00314524 0.00290851 0.00268155 0.00246448 0.00225729 0.00206 0.00187259 0.00169507 0.00152744 0.0013697 0.00122162 0.00108297 0.000953764 0.000833992 0.000723657 0.000622758 0.000531297 0.000449271 0.000375702 0.000309608 0.000250989 0.000199845 0.000156177 0.000119983 9.12649e-05 7.00218e-05 5.36105e-05 3.93873e-05 2.73523e-05 1.75055e-05 9.84682e-06 4.37636e-06 1.09409e-06 0 0 1.99537e-05 7.98148e-05 0.000179583 0.000319259 0.000498842 0.000718333 0.000977731 0.00127704 0.0016221 0.00201879 0.00246708 0.002967 0.00351853 0.00412167 0.00477643 0.00548281 0.00622202 0.00697527 0.00774258 0.00852393 0.00931933 0.0101288 0.0109523 0.0117898 0.0126233 0.0134344 0.0142234 0.01499 0.0157344 0.0164565 0.0171564 0.017834 0.01848 0.0190848 0.0196486 0.0201713 0.0206528 0.0210933 0.0214927 0.0218511 0.0221668 0.0224385 0.0226662 0.0228499 0.0229895 0.0230851 0.0231366 0.0231441 0.0231118 0.0230437 0.0229399 0.0228005 0.0226253 0.0224144 0.0221678 0.0218856 0.0215745 0.0212417 0.0208872 0.0205109 0.0201128 0.0196929 0.0192513 0.0187879 0.0183099 0.0178245 0.0173316 0.0168313 0.0163235 0.0158082 0.0152855 0.0147554 0.0142234 0.0136951 0.0131705 0.0126497 0.0121326 0.0116192 0.0111095 0.0106036 0.0101048 0.00961631 0.00913828 0.00867066 0.00821346 0.00776668 0.00733031 0.00690436 0.00649019 0.00608915 0.00570125 0.00532648 0.00496486 0.00461637 0.00428102 0.0039588 0.00364989 0.00335443 0.00307243 0.00280389 0.00254881 0.00230718 0.00207902 0.00186431 0.00166276 0.00147404 0.00129818 0.00113516 0.000984977 0.000847643 0.000723154 0.000611508 0.000511372 0.000421411 0.000341624 0.000272011 0.000212574 0.00016331 0.000124222 9.53075e-05 7.29698e-05 5.36105e-05 3.72295e-05 2.38269e-05 1.34026e-05 5.95672e-06 1.48918e-06 0 0 2.6062e-05 0.000104248 0.000234558 0.000416991 0.000651549 0.000938231 0.00127704 0.00166797 0.00211867 0.00263678 0.00322231 0.00387526 0.00459563 0.00538341 0.00623861 0.00716122 0.00812672 0.00911056 0.0101128 0.0111333 0.0121722 0.0132294 0.014305 0.0153989 0.0164875 0.017547 0.0185774 0.0195788 0.0205511 0.0214943 0.0224084 0.0232934 0.0241371 0.0249271 0.0256635 0.0263461 0.0269751 0.0275505 0.0280722 0.0285402 0.0289526 0.0293075 0.0296049 0.0298447 0.0300271 0.0301519 0.0302193 0.0302291 0.0301868 0.0300979 0.0299624 0.0297802 0.0295514 0.029276 0.0289539 0.0285852 0.028179 0.0277443 0.0272812 0.0267897 0.0262698 0.0257214 0.0251446 0.0245393 0.023915 0.023281 0.0226372 0.0219837 0.0213204 0.0206475 0.0199648 0.0192723 0.0185775 0.0178875 0.0172023 0.016522 0.0158466 0.0151761 0.0145104 0.0138496 0.013198 0.0125601 0.0119357 0.0113249 0.0107278 0.0101442 0.00957429 0.00901794 0.00847698 0.00795317 0.00744653 0.00695704 0.00648471 0.00602954 0.00559153 0.00517068 0.0047672 0.00438129 0.00401297 0.00366222 0.00332905 0.00301346 0.00271545 0.00243502 0.00217176 0.00192528 0.00169558 0.00148265 0.0012865 0.00110713 0.000944527 0.000798705 0.000667915 0.000550414 0.000446203 0.00035528 0.000277647 0.000213303 0.000162249 0.000124483 9.53075e-05 7.00218e-05 4.86263e-05 3.11208e-05 1.75055e-05 7.7802e-06 1.94505e-06 0 0 3.31465e-05 0.000132586 0.000298319 0.000530345 0.000828664 0.00119328 0.00162418 0.00212138 0.00269424 0.00335213 0.00409506 0.00492302 0.005836 0.00683403 0.00791708 0.00908517 0.0103073 0.0115525 0.0128207 0.0141119 0.0154262 0.0167635 0.0181239 0.0195073 0.0208839 0.0222237 0.0235267 0.0247931 0.0260226 0.0272155 0.0283715 0.0294909 0.0305579 0.0315572 0.0324886 0.0333522 0.034148 0.034876 0.0355362 0.0361286 0.0366507 0.0371001 0.0374768 0.0377807 0.038012 0.0381705 0.0382564 0.0382695 0.0382168 0.0381051 0.0379343 0.0377046 0.0374159 0.0370682 0.0366616 0.0361959 0.0356827 0.0351335 0.0345483 0.0339271 0.0332699 0.0325767 0.0318475 0.0310823 0.0302929 0.0294911 0.028677 0.0278505 0.0270116 0.0261604 0.0252968 0.0244208 0.0235417 0.0226687 0.0218018 0.020941 0.0200863 0.0192377 0.0183952 0.0175588 0.0167341 0.0159265 0.0151361 0.0143629 0.0136068 0.012868 0.0121463 0.0114417 0.0107567 0.0100933 0.00945155 0.00883154 0.00823321 0.00765657 0.00710163 0.00656838 0.00605708 0.00556802 0.00510118 0.00465658 0.0042342 0.00383405 0.00345613 0.00310044 0.00276646 0.00245369 0.00216212 0.00189176 0.0016426 0.00141465 0.0012079 0.00102235 0.000855823 0.000706121 0.000573247 0.000457201 0.000357982 0.00027559 0.000210026 0.00016129 0.000123488 9.07257e-05 6.3004e-05 4.03225e-05 2.26814e-05 1.00806e-05 2.52016e-06 0 0 4.13693e-05 0.000165477 0.000372324 0.000661909 0.00103423 0.0014893 0.0020271 0.00264764 0.00336163 0.0041798 0.00510214 0.00612864 0.00725932 0.00849418 0.0098332 0.0112764 0.0127856 0.0143228 0.015888 0.0174811 0.0191021 0.0207511 0.022428 0.0241329 0.0258291 0.0274801 0.0290859 0.0306465 0.0321618 0.0336319 0.0350568 0.0364365 0.0377519 0.0389838 0.0401323 0.0411975 0.0421792 0.0430774 0.0438923 0.0446237 0.0452687 0.0458241 0.04629 0.0466664 0.0469532 0.0471504 0.0472581 0.0472763 0.0472133 0.0470776 0.0468691 0.0465878 0.0462338 0.0458071 0.0453075 0.0447353 0.0441043 0.0434289 0.0427089 0.0419445 0.0411355 0.040282 0.039384 0.0384415 0.037469 0.0364811 0.0354777 0.034459 0.0334249 0.0323754 0.0313104 0.03023 0.0291457 0.0280687 0.026999 0.0259368 0.0248819 0.0238345 0.0227944 0.0217617 0.0207432 0.0197458 0.0187695 0.0178142 0.0168801 0.015967 0.0150751 0.0142042 0.0133572 0.0125369 0.0117434 0.0109765 0.0102363 0.0095229 0.00883616 0.00817612 0.00754314 0.00693754 0.00635934 0.00580853 0.0052851 0.00478907 0.00432043 0.00387918 0.00346467 0.00307626 0.00271396 0.00237775 0.00206765 0.00178365 0.00152574 0.00129394 0.00108559 0.000898037 0.00073128 0.000585322 0.000460162 0.0003558 0.000272235 0.000209469 0.000160375 0.000117826 8.18239e-05 5.23673e-05 2.94566e-05 1.30918e-05 3.27296e-06 0 0 5.07303e-05 0.000202921 0.000456573 0.000811685 0.00126826 0.00182629 0.00248578 0.00324674 0.00412084 0.00511978 0.00624354 0.00749215 0.00886559 0.0103639 0.011987 0.0137349 0.0155618 0.0174217 0.0193147 0.0212408 0.0231999 0.0251921 0.0272174 0.0292757 0.0313232 0.0333163 0.0352549 0.037139 0.0389686 0.0407436 0.0424642 0.0441303 0.0457189 0.047207 0.0485946 0.0498818 0.0510685 0.0521547 0.0531404 0.0540257 0.0548067 0.0554796 0.0560446 0.0565016 0.0568506 0.0570916 0.0572245 0.0572495 0.0571764 0.0570155 0.0567666 0.0564298 0.0560051 0.0554924 0.0548919 0.0542034 0.0534439 0.0526305 0.0517631 0.0508418 0.0498665 0.0488372 0.047754 0.0466168 0.0454432 0.0442508 0.0430395 0.0418093 0.0405603 0.0392924 0.0380057 0.0367 0.0353894 0.0340874 0.0327941 0.0315095 0.0302336 0.0289664 0.0277079 0.0264581 0.0252253 0.0240179 0.0228358 0.021679 0.0205476 0.0194415 0.0183607 0.0173053 0.0162786 0.0152842 0.014322 0.0133919 0.0124941 0.0116285 0.0107951 0.00999392 0.00922536 0.00848987 0.00778744 0.00711808 0.00648177 0.00587853 0.00530836 0.00477124 0.00426639 0.00379301 0.00335109 0.00294064 0.00256165 0.00221413 0.00189807 0.00161348 0.00135722 0.00112616 0.000920302 0.000739645 0.000584188 0.000453931 0.000348876 0.00026902 0.000205969 0.000151324 0.000105086 6.72551e-05 3.7831e-05 1.68138e-05 4.20344e-06 0 0 6.12294e-05 0.000244918 0.000551065 0.000979671 0.00153074 0.00220426 0.00300024 0.00391868 0.00497187 0.00617207 0.00751929 0.00901353 0.0106548 0.0124431 0.0143784 0.0164607 0.0186357 0.0208491 0.0231009 0.0253911 0.0277197 0.0300866 0.032492 0.0349357 0.0373663 0.0397323 0.0420338 0.0442707 0.0464429 0.0485506 0.0505938 0.0525723 0.054459 0.0562268 0.0578755 0.0594053 0.060816 0.0621078 0.0632805 0.0643343 0.0652645 0.0660666 0.0667406 0.0672865 0.0677043 0.067994 0.0681555 0.068189 0.0681061 0.0679188 0.0676269 0.0672306 0.0667297 0.0661244 0.0654145 0.0646002 0.0637014 0.0627383 0.0617108 0.060619 0.0594629 0.0582424 0.0569576 0.0556084 0.0542157 0.0528003 0.0513622 0.0499014 0.0484178 0.0469115 0.0453825 0.0438308 0.0422728 0.0407248 0.0391869 0.037659 0.0361412 0.0346335 0.0331358 0.0316482 0.0301805 0.0287428 0.027335 0.0259572 0.0246093 0.0232913 0.0220032 0.020745 0.0195209 0.0183351 0.0171874 0.0160778 0.0150065 0.0139734 0.0129785 0.0120218 0.0111038 0.010225 0.00938549 0.00858522 0.0078242 0.00710243 0.00641991 0.00577663 0.00517163 0.00460392 0.00407352 0.00358041 0.0031246 0.00270608 0.00232487 0.00198095 0.0016707 0.00139049 0.00114031 0.000920168 0.000730059 0.000569986 0.000439947 0.000339944 0.000260269 0.000191218 0.00013279 8.49859e-05 4.78046e-05 2.12465e-05 5.31162e-06 0 0 7.28668e-05 0.000291467 0.000655801 0.00116587 0.00182167 0.0026232 0.00357047 0.00466347 0.00591471 0.00733667 0.00892936 0.0106928 0.0126269 0.0147318 0.0170074 0.0194538 0.0220074 0.024605 0.0272465 0.029932 0.0326613 0.0354346 0.0382518 0.0411129 0.0439583 0.0467281 0.0494225 0.0520415 0.0545849 0.0570529 0.0594454 0.0617624 0.0639723 0.0660431 0.067975 0.0697679 0.0714218 0.0729367 0.0743127 0.0755497 0.0766423 0.077585 0.0783779 0.079021 0.0795142 0.0798576 0.0800512 0.0800949 0.0800024 0.0797874 0.07945 0.0789901 0.0784077 0.0777029 0.0768755 0.0759257 0.0748768 0.0737523 0.0725521 0.0712762 0.0699247 0.0684975 0.0669947 0.0654162 0.0637865 0.0621297 0.0604459 0.0587352 0.0569975 0.0552327 0.0534411 0.0516224 0.049796 0.047981 0.0461775 0.0443854 0.0426048 0.0408357 0.039078 0.0373318 0.0356088 0.0339206 0.0322673 0.0306488 0.0290651 0.0275164 0.0260025 0.0245234 0.0230841 0.0216895 0.0203395 0.0190342 0.0177736 0.0165576 0.0153863 0.0142597 0.0131783 0.0121429 0.0111535 0.01021 0.0093124 0.00846077 0.00765509 0.00689535 0.00618038 0.00550901 0.00488124 0.00429706 0.00375649 0.00325952 0.00280615 0.00239637 0.00202605 0.00169103 0.00139131 0.00112689 0.000897776 0.000703962 0.00054545 0.000422239 0.000323277 0.00023751 0.000164937 0.00010556 5.93774e-05 2.63899e-05 6.59749e-06 0 0 8.56423e-05 0.000342569 0.000770781 0.00137028 0.00214106 0.00308312 0.00419647 0.00548111 0.00694937 0.00861359 0.0104738 0.0125299 0.014782 0.0172301 0.0198741 0.0227141 0.0256769 0.0286894 0.0317516 0.0348634 0.0380249 0.041236 0.0444969 0.0478074 0.0510991 0.0543037 0.0574212 0.0604514 0.0633945 0.0662504 0.0690192 0.0717008 0.0742586 0.076656 0.078893 0.0809696 0.0828858 0.0846415 0.0862369 0.0876718 0.08894 0.0900349 0.0909566 0.0917052 0.0922805 0.0926825 0.0929114 0.0929671 0.0928652 0.0926215 0.0922359 0.0917084 0.0910391 0.0902279 0.0892749 0.08818 0.0869702 0.0856725 0.0842869 0.0828134 0.0812519 0.0796026 0.0778654 0.0760403 0.0741554 0.0722388 0.0702906 0.0683107 0.0662992 0.064256 0.0621812 0.0600747 0.0579589 0.0558559 0.0537658 0.0516887 0.0496244 0.0475731 0.0455347 0.0435091 0.0415101 0.0395512 0.0376324 0.0357538 0.0339153 0.0321169 0.0303586 0.0286404 0.0269682 0.0253475 0.0237785 0.0222611 0.0207953 0.0193811 0.0180186 0.0167076 0.0154491 0.0142437 0.0130914 0.0119923 0.0109464 0.00995355 0.00901389 0.00812738 0.00729264 0.00650826 0.00577425 0.00509061 0.00445734 0.00387444 0.0033419 0.00285974 0.00242326 0.00202778 0.0016733 0.00135982 0.00108734 0.000855861 0.000665384 0.000515907 0.000394991 0.000290198 0.000201526 0.000128977 7.25494e-05 3.22442e-05 8.06104e-06 0 0 9.9556e-05 0.000398224 0.000896004 0.0015929 0.0024889 0.00358402 0.00487825 0.00637159 0.00807584 0.0100028 0.0121525 0.0145249 0.01712 0.0199379 0.0229785 0.0262417 0.0296442 0.0331023 0.036616 0.0401854 0.0438103 0.047491 0.0512272 0.0550191 0.0587889 0.0624591 0.0660296 0.0695005 0.0728717 0.0761432 0.0793151 0.0823873 0.085318 0.0880655 0.0906296 0.0930104 0.0952079 0.0972222 0.0990531 0.100701 0.102158 0.103416 0.104477 0.105339 0.106003 0.106469 0.106736 0.106806 0.106695 0.106421 0.105985 0.105386 0.104624 0.1037 0.102613 0.101363 0.0999814 0.0984989 0.0969152 0.0952304 0.0934446 0.0915577 0.0895696 0.0874805 0.0853225 0.0831277 0.0808963 0.078628 0.0763231 0.0739814 0.071603 0.0691878 0.0667615 0.0643495 0.061952 0.0595688 0.0572 0.0548457 0.0525056 0.05018 0.0478845 0.0456346 0.0434305 0.0412722 0.0391596 0.0370927 0.0350715 0.0330961 0.0311731 0.0293091 0.0275042 0.0257584 0.0240716 0.0224439 0.0208752 0.0193656 0.017916 0.0165272 0.0151993 0.0139322 0.0127261 0.0115808 0.0104963 0.00947275 0.00850841 0.00760168 0.00675256 0.00596104 0.00522713 0.00455083 0.00393213 0.00337104 0.00286232 0.00240073 0.00198627 0.00161894 0.00129875 0.00102568 0.000799749 0.000620947 0.000475412 0.000349282 0.000242557 0.000155237 8.73206e-05 3.88092e-05 9.70229e-06 0 0 0.000114608 0.000458432 0.00103147 0.00183373 0.0028652 0.00412589 0.00561579 0.00733491 0.00929413 0.0115044 0.0139656 0.0166778 0.019641 0.0228552 0.0263204 0.0300367 0.0339093 0.0378437 0.0418399 0.0458979 0.0500177 0.0541993 0.0584428 0.062748 0.0670276 0.0711943 0.075248 0.0791887 0.0830165 0.0867313 0.0903331 0.093822 0.0971506 0.100271 0.103185 0.10589 0.108388 0.110679 0.112761 0.114636 0.116295 0.117729 0.118938 0.119922 0.120682 0.121216 0.121526 0.121611 0.121491 0.121186 0.120696 0.120021 0.119162 0.118118 0.116889 0.115475 0.113911 0.112231 0.110437 0.108527 0.106503 0.104363 0.102107 0.099737 0.0972878 0.0947965 0.0922629 0.0896871 0.0870691 0.0844088 0.0817064 0.0789617 0.0762039 0.0734619 0.0707359 0.0680258 0.0653316 0.0626534 0.059991 0.0573445 0.0547319 0.0521709 0.0496616 0.047204 0.0447981 0.0424438 0.0401413 0.0378904 0.0356989 0.0335743 0.0315168 0.0295262 0.0276026 0.025746 0.0239563 0.0222337 0.0205791 0.0189935 0.0174771 0.0160298 0.0146515 0.0133424 0.0121024 0.0109314 0.0098277 0.00878928 0.00781616 0.00690836 0.00606588 0.0052887 0.00457684 0.00393029 0.00334325 0.00280989 0.00233023 0.00190427 0.001532 0.00121343 0.000948545 0.000737358 0.00056454 0.000414764 0.000288031 0.00018434 0.000103691 4.60849e-05 1.15212e-05 0 0 0.000130486 0.000521942 0.00117437 0.00208777 0.00326214 0.00469748 0.00639379 0.00835108 0.010579 0.0130872 0.0158758 0.0189446 0.0222938 0.0259233 0.029833 0.0340231 0.0383874 0.0428196 0.0473199 0.0518883 0.0565246 0.0612289 0.0660013 0.0708417 0.0756527 0.0803369 0.0848942 0.0893246 0.0936283 0.0978051 0.101855 0.105778 0.109521 0.113032 0.116309 0.119353 0.122165 0.124743 0.127089 0.129201 0.131071 0.132688 0.134053 0.135165 0.136024 0.136631 0.136986 0.137087 0.136959 0.136622 0.136078 0.135326 0.134365 0.133197 0.13182 0.130236 0.128483 0.1266 0.124586 0.122443 0.12017 0.117767 0.115233 0.11257 0.109818 0.107018 0.10417 0.101273 0.0983293 0.095337 0.0922968 0.0892085 0.086105 0.0830188 0.0799502 0.0768989 0.0738651 0.0708486 0.0678497 0.0648681 0.0619242 0.0590381 0.0562099 0.0534395 0.0507269 0.0480722 0.0454753 0.0429363 0.0404638 0.0380665 0.0357444 0.0334975 0.0313259 0.0292294 0.0272082 0.0252622 0.0233927 0.0216008 0.0198865 0.0182499 0.016691 0.0152097 0.0138061 0.0124801 0.0112297 0.0100525 0.00894869 0.00791819 0.00696101 0.00607716 0.00526663 0.00452942 0.00385917 0.0032495 0.0027004 0.00221189 0.00178395 0.0014166 0.00110982 0.000863625 0.000661213 0.000485789 0.000337353 0.000215906 0.000121447 5.39765e-05 1.34941e-05 0 0 0.000146876 0.000587506 0.00132189 0.00235002 0.00367191 0.00528755 0.00719695 0.0094001 0.0119052 0.0147205 0.0178459 0.0212815 0.0250272 0.0290831 0.0334492 0.0381254 0.0429937 0.0479362 0.0529529 0.0580436 0.0632085 0.0684475 0.0737606 0.0791479 0.0845017 0.0897145 0.0947862 0.0997168 0.104506 0.109155 0.113663 0.118029 0.122196 0.126103 0.129753 0.133143 0.136275 0.139148 0.141762 0.144117 0.146203 0.148008 0.149532 0.150776 0.151738 0.15242 0.152821 0.152941 0.152805 0.152438 0.151838 0.151008 0.149945 0.148651 0.147126 0.145368 0.143423 0.141332 0.139096 0.136716 0.13419 0.131518 0.128702 0.125741 0.12268 0.119565 0.116396 0.113173 0.109896 0.106565 0.10318 0.0997405 0.0962838 0.0928461 0.0894272 0.0860272 0.0826461 0.0792839 0.0759406 0.0726162 0.0693333 0.0661144 0.0629596 0.0598689 0.0568422 0.0538796 0.050981 0.0481465 0.0453859 0.0427088 0.0401153 0.0376054 0.0351791 0.0328364 0.0305773 0.0284018 0.0263112 0.024307 0.0223892 0.0205577 0.0188126 0.0171539 0.0155815 0.0140956 0.0126935 0.0113729 0.0101338 0.00897613 0.00789997 0.00690529 0.00599209 0.00516037 0.00440323 0.00371377 0.00309198 0.00253788 0.00205145 0.0016327 0.00128162 0.000998227 0.000764267 0.000561502 0.000389932 0.000249557 0.000140376 6.23892e-05 1.55973e-05 0 0 0.000163781 0.000655123 0.00147403 0.00262049 0.00409452 0.0058961 0.00802525 0.010482 0.0132727 0.016404 0.0198759 0.0236883 0.0278413 0.0323348 0.0371688 0.0423435 0.0477284 0.0531935 0.0587387 0.064364 0.0700694 0.075855 0.0817207 0.0876665 0.0935746 0.0993271 0.104924 0.110365 0.115651 0.120781 0.125756 0.130575 0.135173 0.139487 0.143516 0.14726 0.150718 0.153892 0.156781 0.159385 0.161692 0.163689 0.165377 0.166755 0.167824 0.168583 0.169032 0.169172 0.16903 0.168631 0.167977 0.167068 0.165902 0.164481 0.162804 0.160872 0.158731 0.15643 0.153968 0.151345 0.148562 0.145618 0.142514 0.139249 0.135873 0.132437 0.128941 0.125385 0.121769 0.118092 0.114355 0.110558 0.10674 0.102944 0.099167 0.0954108 0.0916748 0.0879592 0.0842638 0.0805888 0.0769591 0.0733998 0.0699108 0.0664922 0.0631439 0.059866 0.0566584 0.0535212 0.0504653 0.0475014 0.0446296 0.04185 0.0391624 0.0365669 0.0340635 0.0316523 0.0293347 0.0271123 0.0249851 0.0229532 0.0210165 0.019175 0.0174287 0.0157777 0.0142191 0.0127504 0.0113714 0.0100822 0.00888276 0.00777311 0.00675324 0.00582315 0.00497544 0.00420272 0.00350499 0.00288224 0.00233449 0.00186173 0.00146395 0.00114116 0.000873704 0.000641905 0.000445768 0.000285291 0.000160476 7.13228e-05 1.78307e-05 0 0 0.000181198 0.000724793 0.00163078 0.00289917 0.00452995 0.00652313 0.00887871 0.0115967 0.0146816 0.018138 0.0219658 0.0261652 0.030736 0.0356783 0.0409921 0.0466773 0.0525913 0.0585913 0.0646774 0.0708494 0.0771074 0.0834515 0.0898815 0.0963976 0.102871 0.109175 0.115308 0.12127 0.127062 0.132684 0.138134 0.143415 0.148454 0.153182 0.157598 0.161703 0.165496 0.168977 0.172147 0.175005 0.177538 0.179732 0.181587 0.183103 0.184281 0.185119 0.185619 0.185781 0.185632 0.185204 0.184495 0.183505 0.182236 0.180686 0.178856 0.176746 0.174407 0.171892 0.1692 0.166332 0.163287 0.160066 0.156668 0.153094 0.149398 0.145635 0.141806 0.13791 0.133948 0.129918 0.125822 0.12166 0.117475 0.113311 0.10917 0.10505 0.100951 0.0968744 0.0928194 0.0887859 0.0848017 0.0808942 0.0770634 0.0733094 0.069632 0.0660314 0.0625075 0.0590603 0.0557019 0.0524442 0.0492873 0.0462311 0.0432756 0.0404209 0.037667 0.0350137 0.032463 0.0300165 0.0276743 0.0254363 0.0233025 0.0212729 0.0193476 0.0175265 0.0158066 0.014185 0.0126616 0.0112364 0.00990938 0.00868061 0.00755007 0.00651774 0.00557578 0.00471634 0.0039394 0.00324498 0.00263308 0.00210369 0.00165681 0.00129244 0.000989524 0.000726997 0.000504859 0.00032311 0.000181749 8.07775e-05 2.01944e-05 0 0 0.000199129 0.000796516 0.00179216 0.00318606 0.00497822 0.00716864 0.00975732 0.0127442 0.0161318 0.0199223 0.0241157 0.0287121 0.0337114 0.0391136 0.0449189 0.051127 0.0575825 0.0641298 0.0707689 0.0774998 0.0843225 0.0912369 0.0982431 0.105341 0.112392 0.119258 0.125937 0.132431 0.138739 0.144862 0.150799 0.15655 0.162039 0.167189 0.172001 0.176473 0.180607 0.184402 0.187858 0.190976 0.19374 0.196135 0.198162 0.19982 0.201109 0.20203 0.202582 0.202766 0.202613 0.202154 0.20139 0.200321 0.198946 0.197267 0.195281 0.192991 0.190451 0.187719 0.184793 0.181675 0.178365 0.174861 0.171165 0.167276 0.163254 0.159159 0.15499 0.150748 0.146433 0.142044 0.137583 0.133047 0.128487 0.12395 0.119435 0.114944 0.110475 0.10603 0.101607 0.0972076 0.092861 0.0885977 0.0844175 0.0803204 0.0763066 0.0723758 0.0685283 0.0647638 0.0610958 0.0575372 0.0540882 0.0507488 0.0475188 0.0443984 0.0413875 0.0384862 0.0356963 0.0330198 0.0304567 0.028007 0.0256707 0.0234477 0.0213382 0.019342 0.017456 0.0156767 0.0140043 0.0124387 0.0109798 0.00962779 0.00838257 0.00724415 0.00620427 0.00525463 0.00439524 0.0036261 0.00294721 0.00235857 0.00186019 0.00145205 0.00111173 0.000816778 0.000567207 0.000363012 0.000204194 9.07531e-05 2.26883e-05 0 0 0.000217573 0.000870292 0.00195816 0.00348117 0.00543932 0.00783262 0.0106611 0.0139247 0.0176233 0.0217569 0.0263255 0.031329 0.0367674 0.0426408 0.0489492 0.0556925 0.062702 0.069809 0.0770134 0.0843152 0.0917145 0.0992113 0.106805 0.114497 0.122137 0.129575 0.136813 0.143849 0.150683 0.157317 0.163749 0.16998 0.175927 0.181508 0.186722 0.19157 0.196052 0.200167 0.203916 0.207298 0.210298 0.212899 0.215101 0.216905 0.218309 0.219314 0.219921 0.220129 0.219971 0.219483 0.218664 0.217515 0.216034 0.214222 0.21208 0.209606 0.206863 0.20391 0.200748 0.197376 0.193795 0.190005 0.186005 0.181796 0.177442 0.173008 0.168494 0.163899 0.159225 0.15447 0.149635 0.14472 0.139777 0.134858 0.129963 0.125093 0.120247 0.115425 0.110627 0.105854 0.101137 0.0965102 0.091973 0.0875254 0.0831675 0.0788993 0.0747207 0.0706318 0.0666469 0.0627805 0.0590326 0.0554031 0.051892 0.0484994 0.0452253 0.0420696 0.0390345 0.0361221 0.0333324 0.0306654 0.0281211 0.0256994 0.0234005 0.0212243 0.0191672 0.0172256 0.0153996 0.0136891 0.0120941 0.0106147 0.00925076 0.00800239 0.00686089 0.00581759 0.00487249 0.00402559 0.00327689 0.00262639 0.0020741 0.00162 0.00124031 0.000911248 0.000632811 0.000404999 0.000227812 0.00010125 2.53124e-05 0 0 0.00023653 0.000946121 0.00212877 0.00378448 0.00591325 0.00851509 0.01159 0.0151379 0.0191562 0.0236419 0.0285951 0.0340159 0.0399041 0.0462598 0.0530831 0.0603738 0.0679498 0.0756287 0.0834107 0.0912957 0.0992836 0.107375 0.115569 0.12386