<?xml version="1.0"?> 
<VTKFile type="StructuredGrid" version="0.1"> 
<StructuredGrid WholeExtent="0 128 0 128 0 0"> 
<Piece Extent="0 128 0 128 0 0"> 
<PointData>
<DataArray type="Float32" Name="u" format="ascii" NumberOfComponents="1"> 
0 0 0 0 0 0 0 0 0 0 0 0 0 0 0 0 0 0 0 0 0 0 0 0 0 0 0 0 0 0 0 0 0 0 0 0 0 0 0 0 0 0 0 0 0 0 0 0 0 0 0 0 0 0 0 0 0 0 0 0 0 0 0 0 0 0 0 0 0 0 0 0 0 0 0 0 0 0 0 0 0 0 0 0 0 0 0 0 0 0 0 0 0 0 0 0 0 0 0 0 0 0 0 0 0 0 0 0 0 0 0 0 0 0 0 0 0 0 0 0 0 0 0 0 0 0 0 0 0 0 1.77926e-07 7.11703e-07 1.60133e-06 2.84681e-06 4.44814e-06 6.40533e-06 8.71836e-06 1.13872e-05 1.44642e-05 1.80013e-05 2.19985e-05 2.6456e-05 3.13737e-05 3.67516e-05 4.25896e-05 4.88879e-05 5.54769e-05 6.21874e-05 6.90192e-05 7.59724e-05 8.3047e-05 9.02429e-05 9.75603e-05 0.000104999 0.000112402 0.000119611 0.000126626 0.000133449 0.000140077 0.000146512 0.000152754 0.000158801 0.000164583 0.000170027 0.000175132 0.000179898 0.000184326 0.000188415 0.000192166 0.000195579 0.00019865 0.000201378 0.000203761 0.000205801 0.000207498 0.00020885 0.000209859 0.000210524 0.000210883 0.000210974 0.000210796 0.000210351 0.000209638 0.000208657 0.000207408 0.00020589 0.000204154 0.000202249 0.000200175 0.000197931 0.000195518 0.000192935 0.000190183 0.000187262 0.000184213 0.000181077 0.000177853 0.000174542 0.000171144 0.000167659 0.000164087 0.000160427 0.000156706 0.00015295 0.000149158 0.000145331 0.000141469 0.000137571 0.000133638 0.00012967 0.000125681 0.000121687 0.000117687 0.000113682 0.000109672 0.000105656 0.000101635 9.7608e-05 9.35896e-05 8.95933e-05 8.56189e-05 8.16666e-05 7.77363e-05 7.3828e-05 6.99418e-05 6.60776e-05 6.22574e-05 5.85036e-05 5.48159e-05 5.11944e-05 4.76392e-05 4.41502e-05 4.07273e-05 3.73708e-05 3.41151e-05 3.0995e-05 2.80105e-05 2.51617e-05 2.24485e-05 1.98708e-05 1.74288e-05 1.51224e-05 1.29755e-05 1.10121e-05 9.23214e-06 7.63562e-06 6.22254e-06 4.99292e-06 3.94674e-06 3.08401e-06 2.3612e-06 1.73476e-06 1.20469e-06 7.71003e-07 4.33689e-07 1.92751e-07 4.81877e-08 0 0 7.11703e-07 2.84681e-06 6.40533e-06 1.13872e-05 1.77926e-05 2.56213e-05 3.48734e-05 4.5549e-05 5.78566e-05 7.2005e-05 8.79942e-05 0.000105824 0.000125495 0.000147006 0.000170359 0.000195552 0.000221908 0.000248749 0.000276077 0.00030389 0.000332188 0.000360972 0.000390241 0.000419996 0.000449607 0.000478443 0.000506506 0.000533794 0.000560308 0.000586048 0.000611014 0.000635206 0.000658333 0.000680107 0.000700527 0.000719592 0.000737304 0.000753662 0.000768665 0.000782315 0.0007946 0.00080551 0.000815045 0.000823205 0.00082999 0.0008354 0.000839435 0.000842094 0.00084353 0.000843894 0.000843186 0.000841405 0.000838553 0.000834628 0.000829631 0.000823562 0.000816618 0.000808997 0.000800698 0.000791723 0.00078207 0.000771741 0.000760734 0.00074905 0.000736852 0.000724307 0.000711412 0.000698169 0.000684577 0.000670636 0.000656346 0.000641708 0.000626824 0.0006118 0.000596633 0.000581325 0.000565876 0.000550286 0.000534553 0.00051868 0.000502725 0.000486748 0.000470749 0.000454729 0.000438688 0.000422624 0.000406539 0.000390432 0.000374359 0.000358373 0.000342476 0.000326666 0.000310945 0.000295312 0.000279767 0.00026431 0.00024903 0.000234014 0.000219264 0.000204778 0.000190557 0.000176601 0.000162909 0.000149483 0.00013646 0.00012398 0.000112042 0.000100647 8.97938e-05 7.94833e-05 6.97153e-05 6.04897e-05 5.19022e-05 4.40485e-05 3.69286e-05 3.05425e-05 2.48902e-05 1.99717e-05 1.5787e-05 1.2336e-05 9.44479e-06 6.93903e-06 4.81877e-06 3.08401e-06 1.73476e-06 7.71003e-07 1.92751e-07 0 0 1.60133e-06 6.40533e-06 1.4412e-05 2.56213e-05 4.00333e-05 5.76479e-05 7.84652e-05 0.000102485 0.000130177 0.000162011 0.000197987 0.000238104 0.000282363 0.000330764 0.000383307 0.000439991 0.000499292 0.000559686 0.000621173 0.000683751 0.000747423 0.000812186 0.000878043 0.000944992 0.00101162 0.0010765 0.00113964 0.00120104 0.00126069 0.00131861 0.00137478 0.00142921 0.00148125 0.00153024 0.00157618 0.00161908 0.00165893 0.00169574 0.0017295 0.00176021 0.00178785 0.0018124 0.00183385 0.00185221 0.00186748 0.00187965 0.00188873 0.00189471 0.00189794 0.00189876 0.00189717 0.00189316 0.00188674 0.00187791 0.00186667 0.00185301 0.00183739 0.00182024 0.00180157 0.00178138 0.00175966 0.00173642 0.00171165 0.00168536 0.00165792 0.00162969 0.00160068 0.00157088 0.0015403 0.00150893 0.00147678 0.00144384 0.00141036 0.00137655 0.00134242 0.00130798 0.00127322 0.00123814 0.00120275 0.00116703 0.00113113 0.00109518 0.00105919 0.00102314 0.000987047 0.000950904 0.000914713 0.000878472 0.000842307 0.000806339 0.00077057 0.000734999 0.000699627 0.000664452 0.000629476 0.000594698 0.000560317 0.000526532 0.000493343 0.00046075 0.000428753 0.000397351 0.000366546 0.000336337 0.000307036 0.000278955 0.000252095 0.000226455 0.000202036 0.000178838 0.000156859 0.000136102 0.00011678 9.91091e-05 8.30893e-05 6.87206e-05 5.60029e-05 4.49363e-05 3.55207e-05 2.77561e-05 2.12508e-05 1.56128e-05 1.08422e-05 6.93903e-06 3.9032e-06 1.73476e-06 4.33689e-07 0 0 2.84681e-06 1.13872e-05 2.56213e-05 4.5549e-05 7.11703e-05 0.000102485 0.000139494 0.000182196 0.000231426 0.00028802 0.000351977 0.000423296 0.000501979 0.000588025 0.000681434 0.000782206 0.000887631 0.000994998 0.00110431 0.00121556 0.00132875 0.00144389 0.00156096 0.00167998 0.00179843 0.00191377 0.00202602 0.00213518 0.00224123 0.00234419 0.00244406 0.00254082 0.00263333 0.00272043 0.00280211 0.00287837 0.00294922 0.00301465 0.00307466 0.00312926 0.0031784 0.00322204 0.00326018 0.00329282 0.00331996 0.0033416 0.00335774 0.00336838 0.00337412 0.00337558 0.00337274 0.00336562 0.00335421 0.00333851 0.00331852 0.00329425 0.00326647 0.00323599 0.00320279 0.00316689 0.00312828 0.00308696 0.00304293 0.0029962 0.00294741 0.00289723 0.00284565 0.00279267 0.00273831 0.00268254 0.00262538 0.00256683 0.0025073 0.0024472 0.00238653 0.0023253 0.0022635 0.00220114 0.00213821 0.00207472 0.0020109 0.00194699 0.001883 0.00181892 0.00175475 0.0016905 0.00162616 0.00156173 0.00149743 0.00143349 0.0013699 0.00130667 0.00124378 0.00118125 0.00111907 0.00105724 0.000996119 0.000936057 0.000877054 0.000819111 0.000762227 0.000706403 0.000651638 0.000597932 0.000545841 0.00049592 0.000448169 0.000402587 0.000359175 0.000317933 0.000278861 0.000241959 0.000207609 0.000176194 0.000147714 0.00012217 9.95607e-05 7.98867e-05 6.31478e-05 4.93442e-05 3.77792e-05 2.77561e-05 1.92751e-05 1.2336e-05 6.93903e-06 3.08401e-06 7.71003e-07 0 0 4.44814e-06 1.77926e-05 4.00333e-05 7.11703e-05 0.000111204 0.000160133 0.000217959 0.000284681 0.000361604 0.000450031 0.000549964 0.000661401 0.000784343 0.000918789 0.00106474 0.0012222 0.00138692 0.00155468 0.00172548 0.00189931 0.00207617 0.00225607 0.00243901 0.00262498 0.00281004 0.00299027 0.00316566 0.00333621 0.00350193 0.0036628 0.00381884 0.00397004 0.00411458 0.00425067 0.00437829 0.00449745 0.00460815 0.00471038 0.00480416 0.00488947 0.00496625 0.00503444 0.00509403 0.00514503 0.00518744 0.00522125 0.00524647 0.00526309 0.00527206 0.00527434 0.00526991 0.00525878 0.00524095 0.00521642 0.00518519 0.00514726 0.00510386 0.00505623 0.00500436 0.00494827 0.00488794 0.00482338 0.00475459 0.00468156 0.00460533 0.00452692 0.00444633 0.00436355 0.0042786 0.00419147 0.00410216 0.00401067 0.00391765 0.00382375 0.00372896 0.00363328 0.00353673 0.00343928 0.00334096 0.00324175 0.00314203 0.00304217 0.00294218 0.00284206 0.0027418 0.0026414 0.00254087 0.0024402 0.00233974 0.00223983 0.00214047 0.00204166 0.00194341 0.0018457 0.00174854 0.00165194 0.00155644 0.00146259 0.0013704 0.00127986 0.00119098 0.00110375 0.00101818 0.000934269 0.000852877 0.000774875 0.000700264 0.000629042 0.000561211 0.000496771 0.00043572 0.00037806 0.000324389 0.000275303 0.000230804 0.00019089 0.000155564 0.000124823 9.86685e-05 7.71003e-05 5.90299e-05 4.33689e-05 3.01173e-05 1.92751e-05 1.08422e-05 4.81877e-06 1.20469e-06 0 0 6.40533e-06 2.56213e-05 5.76479e-05 0.000102485 0.000160133 0.000230592 0.000313861 0.000409941 0.00052071 0.000648045 0.000791948 0.000952417 0.00112945 0.00132306 0.00153323 0.00175996 0.00199717 0.00223874 0.00248469 0.00273501 0.00298969 0.00324875 0.00351217 0.00377997 0.00404646 0.00430599 0.00455855 0.00480415 0.00504277 0.00527443 0.00549913 0.00571685 0.005925 0.00612096 0.00630474 0.00647633 0.00663573 0.00678295 0.00691799 0.00704083 0.0071514 0.00724959 0.00733541 0.00740885 0.00746991 0.0075186 0.00755491 0.00757885 0.00759177 0.00759505 0.00758867 0.00757265 0.00754697 0.00751165 0.00746668 0.00741205 0.00734956 0.00728097 0.00720629 0.00712551 0.00703863 0.00694567 0.0068466 0.00674145 0.00663167 0.00651876 0.00640271 0.00628352 0.00616119 0.00603572 0.00590712 0.00577537 0.00564142 0.0055062 0.0053697 0.00523193 0.00509289 0.00495257 0.00481098 0.00466812 0.00452452 0.00438073 0.00423675 0.00409256 0.00394819 0.00380362 0.00365885 0.00351389 0.00336923 0.00322536 0.00308228 0.00294 0.00279851 0.00265781 0.0025179 0.00237879 0.00224127 0.00210613 0.00197337 0.001843 0.00171501 0.00158941 0.00146618 0.00134535 0.00122814 0.00111582 0.00100838 0.000905821 0.000808145 0.00071535 0.000627437 0.000544407 0.00046712 0.000396436 0.000332357 0.000274882 0.000224012 0.000179745 0.000142083 0.000111024 8.50031e-05 6.24512e-05 4.33689e-05 2.77561e-05 1.56128e-05 6.93903e-06 1.73476e-06 0 0 8.71836e-06 3.48734e-05 7.84652e-05 0.000139494 0.000217959 0.000313861 0.0004272 0.000557975 0.000708744 0.000882061 0.00107793 0.00129635 0.00153731 0.00180083 0.00208689 0.00239551 0.00271837 0.00304718 0.00338194 0.00372265 0.0040693 0.0044219 0.00478046 0.00514495 0.00550769 0.00586093 0.0062047 0.00653898 0.00686378 0.00717909 0.00748492 0.00778127 0.00806458 0.00833131 0.00858145 0.008815 0.00903197 0.00923235 0.00941615 0.00958336 0.00973385 0.0098675 0.00998431 0.0100843 0.0101674 0.0102336 0.0102831 0.0103157 0.0103332 0.0103377 0.010329 0.0103072 0.0102723 0.0102242 0.010163 0.0100886 0.0100036 0.00991021 0.00980856 0.00969861 0.00958036 0.00945382 0.00931899 0.00917586 0.00902644 0.00887276 0.0087148 0.00855257 0.00838606 0.00821529 0.00804024 0.00786092 0.0076786 0.00749454 0.00730876 0.00712124 0.00693198 0.006741 0.00654828 0.00635383 0.00615838 0.00596266 0.00576668 0.00557043 0.00537392 0.00517715 0.0049801 0.00478279 0.00458589 0.00439007 0.00419533 0.00400166 0.00380908 0.00361757 0.00342715 0.0032378 0.00305061 0.00286667 0.00268598 0.00250853 0.00233432 0.00216336 0.00199564 0.00183117 0.00167164 0.00151876 0.00137252 0.00123292 0.00109997 0.000973671 0.000854012 0.000740998 0.000635802 0.000539594 0.000452375 0.000374145 0.000304905 0.000244653 0.00019339 0.000151117 0.000115699 8.50031e-05 5.90299e-05 3.77792e-05 2.12508e-05 9.44479e-06 2.3612e-06 0 0 1.13872e-05 4.5549e-05 0.000102485 0.000182196 0.000284681 0.000409941 0.000557975 0.000728784 0.000925706 0.00115208 0.00140791 0.00169319 0.00200792 0.0023521 0.00272574 0.00312882 0.00355052 0.00397999 0.00441723 0.00486223 0.00531501 0.00577555 0.00624386 0.00671994 0.00719371 0.0076551 0.00810409 0.00854071 0.00896493 0.00937677 0.00977622 0.0101633 0.0105333 0.0108817 0.0112084 0.0115135 0.0117969 0.0120586 0.0122986 0.012517 0.0127136 0.0128882 0.0130407 0.0131713 0.0132798 0.0133664 0.013431 0.0134735 0.0134965 0.0135023 0.013491 0.0134625 0.0134168 0.013354 0.0132741 0.013177 0.0130659 0.0129439 0.0128112 0.0126676 0.0125131 0.0123478 0.0121717 0.0119848 0.0117896 0.0115889 0.0113826 0.0111707 0.0109532 0.0107302 0.0105015 0.0102673 0.0100292 0.00978879 0.00954613 0.00930121 0.00905402 0.00880457 0.00855286 0.00829888 0.0080436 0.00778797 0.00753199 0.00727567 0.007019 0.00676199 0.00650462 0.00624691 0.00598974 0.00573397 0.00547961 0.00522666 0.00497512 0.00472499 0.00447627 0.00422896 0.00398448 0.00374423 0.00350822 0.00327644 0.00304891 0.00282561 0.00260655 0.00239173 0.00218336 0.00198368 0.00179267 0.00161035 0.0014367 0.00127173 0.00111544 0.000967835 0.000830435 0.000704776 0.000590857 0.00048868 0.000398243 0.000319547 0.000252591 0.000197377 0.000151117 0.000111024 7.71003e-05 4.93442e-05 2.77561e-05 1.2336e-05 3.08401e-06 0 0 1.44915e-05 5.79662e-05 0.000130424 0.000231865 0.000362289 0.000521696 0.000710086 0.000927459 0.0011779 0.0014655 0.00179026 0.00215218 0.00255125 0.00298749 0.00346088 0.00397142 0.00450543 0.00504919 0.00560271 0.00616599 0.00673902 0.00732181 0.00791436 0.00851666 0.00911602 0.00969972 0.0102678 0.0108202 0.0113569 0.011878 0.0123835 0.0128733 0.0133415 0.0137824 0.014196 0.0145821 0.0149409 0.0152723 0.0155763 0.015853 0.0161021 0.0163233 0.0165167 0.0166823 0.0168201 0.01693 0.0170121 0.0170664 0.0170959 0.0171037 0.0170898 0.0170542 0.0169968 0.0169178 0.016817 0.0166944 0.0165542 0.0164002 0.0162325 0.016051 0.0158558 0.0156469 0.0154242 0.0151878 0.0149409 0.014687 0.014426 0.0141579 0.0138827 0.0136003 0.0133109 0.0130144 0.012713 0.0124086 0.0121013 0.0117912 0.0114782 0.0111622 0.0108434 0.0105217 0.0101984 0.00987458 0.00955033 0.00922564 0.00890049 0.0085749 0.00824887 0.00792239 0.00759657 0.00727255 0.00695031 0.00662986 0.00631119 0.00599431 0.00567922 0.00536591 0.00505618 0.00475181 0.0044528 0.00415915 0.00387087 0.00358794 0.00331038 0.00303818 0.00277413 0.00252105 0.00227892 0.00204775 0.00182753 0.00161827 0.00141996 0.00123262 0.00105817 0.00089856 0.000753793 0.000623867 0.000508781 0.000408537 0.000323133 0.00025257 0.000193374 0.000142071 9.86602e-05 6.31425e-05 3.55177e-05 1.57856e-05 3.94641e-06 0 0 1.81108e-05 7.24433e-05 0.000162997 0.000289773 0.000452771 0.00065199 0.000887431 0.00115909 0.00147164 0.00182974 0.00223338 0.00268257 0.00317731 0.00371759 0.00430343 0.00493481 0.00559489 0.0062668 0.00695055 0.00764613 0.00835356 0.00907282 0.00980391 0.0105468 0.0112861 0.012006 0.0127068 0.0133882 0.0140504 0.0146934 0.0153171 0.0159215 0.0164995 0.0170438 0.0175544 0.0180314 0.0184746 0.0188842 0.0192601 0.0196024 0.0199106 0.0201846 0.0204243 0.0206297 0.0208008 0.0209376 0.0210401 0.0211083 0.021146 0.0211569 0.0211409 0.021098 0.0210284 0.0209318 0.0208085 0.0206583 0.0204862 0.0202971 0.0200909 0.0198677 0.0196274 0.0193701 0.0190958 0.0188044 0.0185001 0.0181869 0.0178649 0.017534 0.0171943 0.0168458 0.0164884 0.0161222 0.0157497 0.0153736 0.0149939 0.0146105 0.0142236 0.013833 0.0134388 0.0130409 0.012641 0.0122405 0.0118394 0.0114377 0.0110355 0.0106327 0.0102293 0.00982534 0.00942222 0.0090213 0.0086226 0.00822611 0.00783183 0.00743977 0.00704991 0.00666227 0.00627905 0.00590244 0.00553244 0.00516906 0.00481229 0.00446213 0.00411859 0.00378166 0.00345476 0.00314131 0.00284131 0.00255476 0.00228166 0.00202201 0.0017758 0.00154305 0.00132615 0.00112753 0.000947173 0.000785089 0.000641276 0.000515734 0.000408462 0.000319461 0.000244588 0.000179697 0.00012479 7.98654e-05 4.49243e-05 1.99663e-05 4.99159e-06 0 0 2.22451e-05 8.89803e-05 0.000200206 0.000355921 0.000556127 0.000800823 0.00109001 0.00142369 0.00180692 0.00224477 0.00273725 0.00328435 0.00388608 0.00454242 0.00525339 0.00601898 0.00681889 0.00763281 0.00846074 0.00930267 0.0101586 0.0110286 0.0119125 0.0128105 0.0137039 0.0145741 0.0154211 0.0162449 0.0170454 0.0178229 0.0185771 0.0193081 0.0200072 0.0206658 0.0212837 0.0218612 0.022398 0.0228943 0.02335 0.0237652 0.0241393 0.0244721 0.0247635 0.0250134 0.025222 0.0253892 0.025515 0.0255993 0.0256468 0.0256617 0.0256441 0.025594 0.0255114 0.0253963 0.0252488 0.0250687 0.024862 0.0246345 0.0243864 0.0241175 0.0238278 0.0235175 0.0231864 0.0228346 0.022467 0.0220885 0.0216993 0.0212992 0.0208882 0.0204665 0.0200339 0.0195905 0.0191394 0.0186838 0.0182238 0.0177592 0.0172902 0.0168168 0.0163388 0.0158564 0.0153713 0.0148856 0.0143991 0.0139119 0.0134239 0.0129353 0.0124459 0.0119558 0.0114667 0.0109802 0.0104965 0.0100154 0.00953704 0.00906136 0.00858836 0.00811805 0.00765309 0.00719611 0.00674714 0.00630615 0.00587317 0.00544817 0.00503118 0.00462217 0.00422525 0.00384447 0.00347986 0.0031314 0.0027991 0.00248295 0.00218296 0.00189913 0.00163439 0.00139168 0.001171 0.000972345 0.000795726 0.000641137 0.000508579 0.000398051 0.000304758 0.000223904 0.000155489 9.95128e-05 5.59759e-05 2.48782e-05 6.21955e-06 0 0 2.68943e-05 0.000107577 0.000242049 0.000430309 0.000672358 0.000968195 0.00131782 0.00172124 0.00218374 0.00271062 0.00330188 0.00395753 0.00467756 0.00546197 0.00631077 0.00722394 0.00817745 0.00914723 0.0101333 0.0111356 0.0121542 0.0131891 0.0142402 0.0153076 0.0163695 0.0174038 0.0184107 0.0193901 0.020342 0.0212664 0.0221634 0.0230329 0.0238646 0.0246483 0.025384 0.0260715 0.0267111 0.0273026 0.027846 0.0283414 0.0287882 0.0291858 0.0295343 0.0298336 0.0300838 0.0302848 0.0304366 0.0305394 0.0305981 0.0306182 0.0305995 0.0305421 0.030446 0.0303112 0.0301377 0.0299254 0.0296814 0.0294126 0.0291189 0.0288004 0.0284571 0.028089 0.0276961 0.0272784 0.0268417 0.0263919 0.0259292 0.0254533 0.0249644 0.0244624 0.0239474 0.0234193 0.022882 0.0223392 0.021791 0.0212373 0.0206782 0.0201136 0.0195436 0.0189681 0.0183895 0.0178099 0.0172295 0.0166481 0.0160659 0.0154827 0.0148987 0.0143137 0.0137299 0.0131493 0.0125719 0.0119978 0.0114268 0.0108591 0.0102946 0.00973325 0.00917829 0.00863284 0.00809689 0.00757045 0.00705351 0.00654608 0.00604815 0.00555972 0.00508559 0.00463053 0.00419456 0.00377766 0.00337984 0.0030011 0.00264144 0.00230085 0.00198287 0.00169101 0.00142526 0.00118564 0.000972132 0.000784748 0.000623483 0.000488339 0.000373884 0.000274691 0.000190757 0.000122085 6.86726e-05 3.05212e-05 7.63029e-06 0 0 3.20585e-05 0.000128234 0.000288527 0.000512937 0.000801463 0.00115411 0.00157087 0.00205175 0.0026021 0.00322727 0.00392728 0.00470211 0.00555176 0.00647625 0.00747555 0.00854969 0.00967056 0.01081 0.0119682 0.0131449 0.0143403 0.0155543 0.016787 0.0180382 0.0192828 0.0204952 0.0216756 0.0228239 0.02394 0.0250241 0.0260761 0.027096 0.0280718 0.0289915 0.0298551 0.0306625 0.0314138 0.032109 0.0327481 0.033331 0.0338571 0.0343257 0.0347367 0.0350901 0.035386 0.0356244 0.0358052 0.0359284 0.0360002 0.0360264 0.0360072 0.0359424 0.0358322 0.0356765 0.0354753 0.0352286 0.0349445 0.0346312 0.0342885 0.0339165 0.0335153 0.0330847 0.0326249 0.0321357 0.0316242 0.0310971 0.0305545 0.0299964 0.0294228 0.0288336 0.028229 0.0276088 0.0269776 0.0263398 0.0256955 0.0250447 0.0243874 0.0237235 0.0230531 0.0223762 0.0216954 0.0210136 0.0203306 0.0196465 0.0189613 0.018275 0.0175876 0.0168991 0.016212 0.0155286 0.014849 0.0141732 0.0135012 0.012833 0.0121685 0.0115079 0.0108547 0.0102126 0.0095817 0.00896194 0.00835332 0.00775584 0.0071695 0.0065943 0.00603579 0.00549949 0.0049854 0.00449354 0.00402388 0.00357645 0.00315123 0.00274823 0.0023716 0.00202552 0.00170997 0.00142496 0.00117049 0.000946565 0.000753175 0.000590325 0.000451967 0.000332058 0.000230596 0.000147581 8.30144e-05 3.68953e-05 9.22382e-06 0 0 3.77377e-05 0.000150951 0.00033964 0.000603804 0.000943443 0.00135856 0.00184915 0.00241521 0.003062 0.00379473 0.00461343 0.00551807 0.00650868 0.00758524 0.00874775 0.00999623 0.0112982 0.0126213 0.0139654 0.0153306 0.0167169 0.0181243 0.0195528 0.0210023 0.0224439 0.0238484 0.0252158 0.0265462 0.0278396 0.0290959 0.0303152 0.0314974 0.0326288 0.0336953 0.0346971 0.035634 0.0365062 0.0373136 0.0380562 0.038734 0.0393462 0.0398917 0.0403707 0.040783 0.0411288 0.041408 0.0416205 0.0417665 0.0418528 0.0418863 0.041867 0.0417948 0.0416699 0.0414922 0.0412616 0.0409782 0.0406514 0.0402904 0.0398952 0.0394658 0.0390023 0.0385046 0.0379728 0.0374067 0.0368145 0.0362041 0.0355754 0.0349285 0.0342634 0.0335801 0.0328786 0.0321588 0.0314261 0.0306856 0.0299374 0.0291815 0.0284179 0.0276465 0.0268674 0.0260805 0.0252891 0.0244964 0.0237024 0.022907 0.0221102 0.0213122 0.0205128 0.019712 0.0189128 0.018118 0.0173277 0.0165417 0.0157601 0.014983 0.0142102 0.0134419 0.0126822 0.0119354 0.0112016 0.0104806 0.00977258 0.00907745 0.00839523 0.00772592 0.00707584 0.00645134 0.0058524 0.00527903 0.00473124 0.004209 0.00371234 0.00324125 0.00280059 0.00239521 0.00202512 0.00169032 0.00139081 0.00112659 0.000897655 0.000704009 0.000539007 0.000396005 0.000275003 0.000176002 9.90012e-05 4.40005e-05 1.10001e-05 0 0 4.39319e-05 0.000175728 0.000395387 0.00070291 0.0010983 0.00158155 0.00215266 0.00281164 0.00356344 0.004413 0.00536033 0.00640544 0.00754831 0.00878895 0.0101274 0.0115635 0.0130604 0.0145809 0.016125 0.0176928 0.0192841 0.0208991 0.0225376 0.0241998 0.0258527 0.0274632 0.0290314 0.0305572 0.0320407 0.0334818 0.0348807 0.0362372 0.0375355 0.0387597 0.0399099 0.0409861 0.0419883 0.0429164 0.0437704 0.0445505 0.0452553 0.0458839 0.0464362 0.0469123 0.047312 0.0476355 0.0478827 0.0480537 0.0481561 0.0481979 0.048179 0.0480994 0.0479592 0.0477582 0.0474966 0.0471743 0.0468019 0.0463901 0.0459389 0.0454483 0.0449182 0.0443487 0.0437397 0.0430913 0.0424126 0.0417128 0.0409918 0.0402496 0.0394863 0.0387019 0.0378962 0.0370695 0.0362276 0.0353767 0.0345167 0.0336477 0.0327696 0.0318825 0.0309864 0.0300812 0.0291707 0.0282585 0.0273448 0.0264295 0.0255127 0.0245942 0.0236741 0.0227524 0.0218325 0.0209177 0.0200079 0.0191032 0.0182036 0.0173091 0.0164197 0.0155353 0.0146609 0.0138013 0.0129565 0.0121265 0.0113113 0.0105109 0.00972534 0.00895457 0.00820576 0.00748609 0.00679555 0.00613415 0.00550189 0.00489876 0.00432477 0.00377992 0.00326982 0.00280009 0.00237072 0.00198172 0.00163309 0.00132482 0.00105692 0.000829391 0.000635002 0.000466532 0.000323981 0.000207348 0.000116633 5.18369e-05 1.29592e-05 0 0 5.0641e-05 0.000202564 0.000455769 0.000810257 0.00126603 0.00182308 0.00248141 0.00324103 0.00410642 0.00508208 0.006168 0.0073642 0.00867066 0.0100874 0.0116144 0.0132517 0.0149572 0.016689 0.018447 0.0202313 0.0220418 0.0238786 0.0257416 0.0276309 0.0295093 0.0313397 0.0331222 0.0348567 0.0365433 0.0381819 0.0397725 0.0413152 0.0427919 0.0441847 0.0454937 0.0467188 0.04786 0.0489173 0.0498908 0.0507803 0.0515846 0.0523023 0.0529334 0.0534779 0.0539358 0.0543071 0.0545918 0.0547899 0.0549101 0.0549612 0.0549432 0.0548561 0.0547 0.0544747 0.0541803 0.0538168 0.0533962 0.0529305 0.0524197 0.0518639 0.0512629 0.0506169 0.0499257 0.0491895 0.0484185 0.0476233 0.0468037 0.0459597 0.0450915 0.0441989 0.0432819 0.0423407 0.041382 0.0404129 0.0394333 0.0384432 0.0374426 0.0364316 0.0354101 0.0343781 0.0333399 0.0322999 0.031258 0.0302142 0.0291686 0.028121 0.0270716 0.0260203 0.024971 0.0239275 0.0228897 0.0218578 0.0208317 0.0198114 0.0187969 0.0177882 0.0167908 0.0158102 0.0148465 0.0138996 0.0129695 0.0120563 0.0111598 0.0102802 0.00942553 0.00860373 0.00781485 0.00705889 0.00633585 0.00564573 0.00498852 0.00436424 0.0037793 0.00324014 0.00274676 0.00229915 0.00189732 0.00154126 0.00123098 0.000966471 0.000739954 0.00054364 0.000377528 0.000241618 0.00013591 6.04044e-05 1.51011e-05 0 0 5.77346e-05 0.000230939 0.000519612 0.000923754 0.00144337 0.00207845 0.002829 0.00369502 0.00468039 0.00578901 0.00702087 0.00837596 0.0098543 0.0114559 0.0131807 0.0150288 0.0169529 0.018906 0.0208879 0.0228987 0.0249385 0.0270072 0.0291047 0.0312312 0.0333452 0.0354053 0.0374117 0.0393642 0.0412628 0.0431076 0.0448986 0.0466358 0.0482989 0.049868 0.0513429 0.0527237 0.0540104 0.055203 0.0563014 0.0573058 0.0582144 0.0590256 0.0597395 0.0603559 0.0608751 0.0612968 0.0616212 0.0618482 0.0619876 0.0620491 0.0620326 0.0619383 0.061766 0.0615159 0.0611878 0.0607818 0.0603113 0.0597898 0.0592173 0.0585937 0.057919 0.0571934 0.0564167 0.0555889 0.0547218 0.053827 0.0529045 0.0519543 0.0509765 0.0499709 0.0489376 0.0478767 0.0467959 0.0457031 0.0445984 0.0434816 0.0423528 0.041212 0.0400592 0.0388944 0.0377226 0.0365485 0.0353723 0.0341938 0.0330132 0.0318304 0.0306454 0.0294583 0.0282733 0.0270949 0.025923 0.0247577 0.0235989 0.0224467 0.021301 0.0201619 0.0190356 0.0179281 0.0168396 0.0157701 0.0147194 0.0136877 0.012675 0.0116811 0.0107152 0.00978605 0.00889377 0.00803832 0.00721971 0.00643793 0.00569299 0.00498489 0.00432091 0.00370837 0.00314725 0.00263756 0.0021793 0.00177246 0.00141705 0.00111307 0.000852194 0.000626102 0.000434793 0.000278268 0.000156525 6.95669e-05 1.73917e-05 0 0 6.50822e-05 0.000260329 0.000585739 0.00104131 0.00162705 0.00234296 0.00318903 0.00416526 0.00527481 0.00652085 0.00790336 0.00942235 0.0110778 0.0128698 0.0147982 0.0168631 0.019012 0.0211925 0.0234044 0.0256478 0.0279228 0.0302292 0.0325672 0.0349367 0.037292 0.0395874 0.041823 0.0439988 0.0461147 0.0481707 0.0501669 0.0521033 0.0539574 0.055707 0.0573521 0.0588926 0.0603285 0.0616599 0.0628867 0.064009 0.0650249 0.0659324 0.0667315 0.0674223 0.0680047 0.0684788 0.0688445 0.0691019 0.0692616 0.0693344 0.0693202 0.0692191 0.0690311 0.0687561 0.0683942 0.0679454 0.0674245 0.0668464 0.0662111 0.0655187 0.0647691 0.0639623 0.0630984 0.0621773 0.061212 0.0602155 0.0591878 0.058129 0.0570389 0.0559177 0.0547654 0.0535818 0.0523758 0.0511563 0.0499231 0.0486763 0.047416 0.046142 0.0448544 0.0435533 0.0422441 0.0409323 0.039618 0.0383013 0.0369819 0.0356601 0.0343358 0.0330089 0.0316844 0.0303673 0.0290575 0.0277549 0.0264597 0.0251719 0.0238913 0.022618 0.021359 0.020121 0.0189041 0.0177082 0.0165334 0.0153797 0.014247 0.0131354 0.0120547 0.0110148 0.0100158 0.00905751 0.00814006 0.00726341 0.00642757 0.00563254 0.00488653 0.00419775 0.0035662 0.00299189 0.00247482 0.00201498 0.00161238 0.00126701 0.000970053 0.000712692 0.000494925 0.000316752 0.000178173 7.9188e-05 1.9797e-05 0 0 7.26836e-05 0.000290734 0.000654152 0.00116294 0.00181709 0.00261661 0.0035615 0.00465175 0.00588968 0.00727759 0.00881549 0.0105034 0.0123412 0.0143291 0.0164669 0.0187547 0.0211346 0.0235485 0.0259964 0.0284785 0.0309946 0.0335448 0.036129 0.0387473 0.0413497 0.043886 0.0463563 0.0487606 0.0510989 0.0533712 0.0555775 0.0577177 0.0597674 0.0617019 0.0635212 0.0652253 0.0668143 0.0682881 0.0696467 0.0708901 0.0720162 0.0730227 0.0739096 0.074677 0.0753248 0.0758531 0.0762617 0.0765509 0.0767321 0.0768172 0.076806 0.0766987 0.0764952 0.0761955 0.0757996 0.0753076 0.0747356 0.0741002 0.0734014 0.072639 0.0718131 0.0709237 0.0699709 0.0689545 0.067889 0.0667887 0.0656536 0.0644837 0.0632789 0.0620394 0.0607651 0.0594559 0.0581217 0.0567723 0.0554075 0.0540275 0.0526322 0.0512216 0.0497958 0.0483546 0.0469044 0.0454513 0.0439953 0.0425365 0.0410747 0.0396101 0.0381426 0.0366722 0.0352045 0.0337448 0.0322932 0.0308497 0.0294143 0.0279869 0.0265677 0.0251566 0.0237611 0.0223888 0.0210398 0.0197139 0.0184114 0.017132 0.0158759 0.014643 0.0134441 0.0122901 0.0111808 0.0101165 0.0090969 0.00812217 0.00719227 0.0063072 0.00547614 0.00470828 0.00400362 0.00336216 0.00278389 0.00226882 0.00181696 0.00142829 0.00109353 0.000803411 0.000557924 0.000357071 0.000200853 8.92679e-05 2.2317e-05 0 0 8.05389e-05 0.000322156 0.00072485 0.00128862 0.00201347 0.0028994 0.00394641 0.00515449 0.00652499 0.00805924 0.00975725 0.011619 0.0136445 0.0158338 0.0181868 0.0207036 0.0233205 0.025974 0.0286641 0.0313907 0.034154 0.0369538 0.0397902 0.0426632 0.0455183 0.0483011 0.0510115 0.0536497 0.0562155 0.058709 0.0611302 0.0634791 0.0657288 0.0678525 0.0698502 0.071722 0.0734677 0.0750875 0.0765812 0.077949 0.0791882 0.0802965 0.0812738 0.08212 0.0828353 0.0834196 0.0838729 0.0841951 0.0843991 0.0844974 0.08449 0.084377 0.0841583 0.083834 0.083404 0.0828683 0.0822449 0.0815514 0.0807879 0.0799545 0.079051 0.0780776 0.0770341 0.0759207 0.0747529 0.0735466 0.0723018 0.0710184 0.0696964 0.0683359 0.0669368 0.0654991 0.0640336 0.0625511 0.0610516 0.059535 0.0580014 0.0564508 0.0548831 0.0532985 0.0517036 0.0501055 0.0485041 0.0468995 0.0452916 0.0436804 0.042066 0.0404483 0.0388334 0.0372273 0.0356302 0.0340419 0.0324625 0.0308919 0.0293302 0.0277774 0.0262418 0.0247315 0.0232467 0.0217873 0.0203534 0.0189448 0.0175617 0.0162039 0.0148834 0.0136117 0.012389 0.0112152 0.0100902 0.0090142 0.00798708 0.00700886 0.00608976 0.00523997 0.0044595 0.00374834 0.00310651 0.00253399 0.00203079 0.0015969 0.00122263 0.000898258 0.00062379 0.000399226 0.000224564 9.98064e-05 2.49516e-05 0 0 8.86482e-05 0.000354593 0.000797834 0.00141837 0.00221621 0.00319134 0.00434376 0.00567349 0.00718075 0.0088658 0.0107286 0.0127693 0.0149877 0.0173839 0.0199578 0.0227096 0.0255698 0.028469 0.0314073 0.0343846 0.0374009 0.0404563 0.0435507 0.0466842 0.0497978 0.0528326 0.0557887 0.0586659 0.0614644 0.0641842 0.0668251 0.0693873 0.0718417 0.074159 0.0763392 0.0783825 0.0802888 0.0820581 0.0836904 0.0851856 0.0865411 0.0877538 0.088824 0.0897514 0.0905362 0.0911784 0.0916779 0.0920347 0.0922625 0.092375 0.0923722 0.092254 0.0920204 0.0916715 0.0912073 0.0906277 0.0899521 0.0891998 0.0883709 0.0874652 0.0864829 0.0854239 0.0842881 0.0830757 0.0818038 0.0804893 0.0791325 0.0777331 0.0762914 0.0748071 0.0732804 0.0717113 0.0701115 0.0684928 0.0668553 0.0651989 0.0635237 0.0618296 0.0601166 0.0583848 0.0566417 0.0548949 0.0531444 0.0513903 0.0496325 0.047871 0.0461058 0.044337 0.0425711 0.0408149 0.0390684 0.0373315 0.0356043 0.0338868 0.0321789 0.0304807 0.0288012 0.0271492 0.025525 0.0239284 0.0223594 0.020818 0.0193043 0.0178183 0.0163726 0.0149799 0.0136402 0.0123536 0.0111201 0.00993951 0.008812 0.00773753 0.00672737 0.00579281 0.00493384 0.00415046 0.00344267 0.00281047 0.00225387 0.00177286 0.00135734 0.000997233 0.000692523 0.000443215 0.000249308 0.000110804 2.77009e-05 0 0 9.70114e-05 0.000388046 0.000873103 0.00155218 0.00242529 0.00349241 0.00475356 0.00620873 0.00785696 0.00969727 0.0117297 0.0139541 0.0163707 0.0189794 0.0217801 0.0247729 0.0278825 0.0310336 0.0342261 0.03746 0.0407354 0.0440523 0.0474106 0.0508104 0.0541882 0.0574806 0.0606877 0.0638094 0.0668457 0.0697967 0.0726623 0.0754425 0.078106 0.0806212 0.0829882 0.085207 0.0872776 0.0892 0.0909741 0.0926001 0.0940747 0.0953947 0.0965602 0.0975711 0.0984276 0.0991294 0.0996768 0.10007 0.100322 0.10045 0.100452 0.10033 0.100082 0.0997082 0.0992095 0.0985857 0.0978574 0.0970456 0.0961502 0.0951712 0.0941087 0.0929626 0.0917329 0.0904197 0.0890415 0.0876168 0.0861456 0.084628 0.0830638 0.0814532 0.0797961 0.0780926 0.0763554 0.0745974 0.0728187 0.0710192 0.069199 0.067358 0.0654962 0.0636136 0.0617186 0.0598195 0.0579163 0.0560089 0.0540975 0.0521819 0.05026