<?xml version="1.0"?> 
<VTKFile type="StructuredGrid" version="0.1"> 
<StructuredGrid WholeExtent="0 128 0 128 0 0"> 
<Piece Extent="0 128 0 128 0 0"> 
<PointData>
<DataArray type="Float32" Name="u" format="ascii" NumberOfComponents="1"> 
0 0 0 0 0 0 0 0 0 0 0 0 0 0 0 0 0 0 0 0 0 0 0 0 0 0 0 0 0 0 0 0 0 0 0 0 0 0 0 0 0 0 0 0 0 0 0 0 0 0 0 0 0 0 0 0 0 0 0 0 0 0 0 0 0 0 0 0 0 0 0 0 0 0 0 0 0 0 0 0 0 0 0 0 0 0 0 0 0 0 0 0 0 0 0 0 0 0 0 0 0 0 0 0 0 0 0 0 0 0 0 0 0 0 0 0 0 0 0 0 0 0 0 0 0 0 0 0 0 0 1.85235e-07 7.40938e-07 1.66711e-06 2.96375e-06 4.63086e-06 6.66844e-06 9.07649e-06 1.1855e-05 1.50581e-05 1.87399e-05 2.29003e-05 2.75394e-05 3.26572e-05 3.82536e-05 4.43288e-05 5.08826e-05 5.77395e-05 6.47239e-05 7.18359e-05 7.90755e-05 8.64426e-05 9.39372e-05 0.000101559 0.000109309 0.000117023 0.000124537 0.000131852 0.000138967 0.000145882 0.000152598 0.000159115 0.000165431 0.000171472 0.000177161 0.000182497 0.000187481 0.000192113 0.000196393 0.00020032 0.000203895 0.000207113 0.00020997 0.000212466 0.000214602 0.000216376 0.000217789 0.000218841 0.000219533 0.000219901 0.000219985 0.000219784 0.000219299 0.000218529 0.000217475 0.000216137 0.000214513 0.000212657 0.000210619 0.0002084 0.000206 0.000203418 0.000200654 0.00019771 0.000194584 0.00019132 0.000187964 0.000184516 0.000180975 0.000177341 0.000173615 0.000169796 0.000165884 0.000161909 0.0001579 0.000153858 0.000149782 0.000145672 0.000141528 0.000137351 0.00013314 0.000128912 0.000124687 0.000120463 0.000116241 0.00011202 0.000107802 0.000103585 9.93693e-05 9.51706e-05 9.10036e-05 8.68683e-05 8.27647e-05 7.86928e-05 7.46525e-05 7.0644e-05 6.66671e-05 6.27436e-05 5.88952e-05 5.51219e-05 5.14236e-05 4.78005e-05 4.42524e-05 4.07793e-05 3.73814e-05 3.40915e-05 3.09425e-05 2.79344e-05 2.50673e-05 2.2341e-05 1.97558e-05 1.73114e-05 1.5008e-05 1.28671e-05 1.09104e-05 9.13789e-06 7.54956e-06 6.14541e-06 4.92544e-06 3.88966e-06 3.03805e-06 2.32601e-06 1.70891e-06 1.18674e-06 7.59513e-07 4.27226e-07 1.89878e-07 4.74696e-08 0 0 7.40938e-07 2.96375e-06 6.66844e-06 1.1855e-05 1.85235e-05 2.66738e-05 3.6306e-05 4.742e-05 6.02324e-05 7.49594e-05 9.16012e-05 0.000110158 0.000130629 0.000153015 0.000177315 0.00020353 0.000230958 0.000258896 0.000287344 0.000316302 0.00034577 0.000375749 0.000406238 0.000437237 0.000468092 0.000498148 0.000527407 0.000555867 0.000583529 0.000610393 0.000636458 0.000661726 0.000685889 0.000708644 0.000729989 0.000749925 0.000768452 0.00078557 0.000801279 0.000815579 0.000828452 0.000839881 0.000849866 0.000858407 0.000865504 0.000871157 0.000875366 0.00087813 0.000879604 0.00087994 0.000879137 0.000877197 0.000874118 0.000869901 0.000864546 0.000858053 0.000850628 0.000842477 0.000833601 0.000823999 0.000813671 0.000802618 0.000790839 0.000778334 0.000765281 0.000751858 0.000738064 0.000723899 0.000709364 0.000694459 0.000679182 0.000663536 0.000647636 0.000631601 0.000615432 0.000599127 0.000582688 0.000566113 0.000549403 0.000532558 0.00051565 0.000498748 0.000481852 0.000464964 0.000448082 0.000431207 0.000414339 0.000397477 0.000380682 0.000364015 0.000347473 0.000331059 0.000314771 0.00029861 0.000282576 0.000266668 0.000250974 0.000235581 0.000220488 0.000205695 0.000191202 0.000177009 0.000163117 0.000149526 0.000136366 0.00012377 0.000111738 0.000100269 8.93642e-05 7.9023e-05 6.92456e-05 6.00319e-05 5.14684e-05 4.36416e-05 3.65516e-05 3.01982e-05 2.45816e-05 1.97018e-05 1.55586e-05 1.21522e-05 9.30404e-06 6.83562e-06 4.74696e-06 3.03805e-06 1.70891e-06 7.59513e-07 1.89878e-07 0 0 1.66711e-06 6.66844e-06 1.5004e-05 2.66738e-05 4.16778e-05 6.0016e-05 8.16884e-05 0.000106695 0.000135523 0.000168659 0.000206103 0.000247855 0.000293915 0.000344283 0.000398959 0.000457943 0.000519655 0.000582515 0.000646523 0.000711679 0.000777983 0.000845435 0.000914035 0.000983782 0.00105321 0.00112083 0.00118667 0.0012507 0.00131294 0.00137338 0.00143203 0.00148888 0.00154325 0.00159445 0.00164248 0.00168733 0.00172902 0.00176753 0.00180288 0.00183505 0.00186402 0.00188973 0.0019122 0.00193142 0.00194738 0.0019601 0.00196957 0.00197579 0.00197911 0.00197986 0.00197806 0.00197369 0.00196677 0.00195728 0.00194523 0.00193062 0.00191391 0.00189557 0.0018756 0.001854 0.00183076 0.00180589 0.00177939 0.00175125 0.00172188 0.00169168 0.00166064 0.00162877 0.00159607 0.00156253 0.00152816 0.00149296 0.00145718 0.0014211 0.00138472 0.00134804 0.00131105 0.00127375 0.00123616 0.00119826 0.00116021 0.00112218 0.00108417 0.00104617 0.00100818 0.000970215 0.000932262 0.000894324 0.000856536 0.000819033 0.000781815 0.000744882 0.000708235 0.000671873 0.000635796 0.000600004 0.000564693 0.000530057 0.000496097 0.000462813 0.000430204 0.000398271 0.000367014 0.000336433 0.000306823 0.000278482 0.00025141 0.000225605 0.000201069 0.000177802 0.000155803 0.000135072 0.000115804 9.81936e-05 8.2241e-05 6.7946e-05 5.53087e-05 4.4329e-05 3.50069e-05 2.73425e-05 2.09341e-05 1.53801e-05 1.06807e-05 6.83562e-06 3.84504e-06 1.70891e-06 4.27226e-07 0 0 2.96375e-06 1.1855e-05 2.66738e-05 4.742e-05 7.40938e-05 0.000106695 0.000145224 0.00018968 0.00024093 0.000299838 0.000366405 0.00044063 0.000522515 0.000612058 0.00070926 0.000814121 0.000923831 0.00103558 0.00114937 0.00126521 0.00138308 0.001503 0.00162495 0.00174895 0.00187237 0.00199259 0.00210963 0.00222347 0.00233412 0.00244157 0.00254583 0.0026469 0.00274356 0.00283458 0.00291996 0.0029997 0.00307381 0.00314228 0.00320512 0.00326232 0.00331381 0.00335952 0.00339946 0.00343363 0.00346202 0.00348463 0.00350146 0.00351252 0.00351842 0.00351976 0.00351655 0.00350879 0.00349647 0.0034796 0.00345818 0.00343221 0.00340251 0.00336991 0.0033344 0.003296 0.00325468 0.00321047 0.00316335 0.00311334 0.00306113 0.00300743 0.00295226 0.0028956 0.00283746 0.00277783 0.00271673 0.00265414 0.00259054 0.00252641 0.00246173 0.00239651 0.00233075 0.00226445 0.00219761 0.00213023 0.0020626 0.00199499 0.00192741 0.00185985 0.00179233 0.00172483 0.00165735 0.00158991 0.00152273 0.00145606 0.00138989 0.00132424 0.00125908 0.00119444 0.0011303 0.00106667 0.0010039 0.000942323 0.00088195 0.000822778 0.000764807 0.000708038 0.00065247 0.000598103 0.000545464 0.00049508 0.00044695 0.000401076 0.000357457 0.000316092 0.000276982 0.000240127 0.000205873 0.000174566 0.000146206 0.000120793 9.83266e-05 7.88071e-05 6.22345e-05 4.86089e-05 3.72162e-05 2.73425e-05 1.89878e-05 1.21522e-05 6.83562e-06 3.03805e-06 7.59513e-07 0 0 4.63086e-06 1.85235e-05 4.16778e-05 7.40938e-05 0.000115772 0.000166711 0.000226912 0.000296375 0.000376452 0.000468496 0.000572507 0.000688485 0.00081643 0.000956341 0.00110822 0.00127206 0.00144349 0.0016181 0.0017959 0.00197689 0.00216106 0.00234843 0.00253899 0.00273273 0.00292557 0.00311343 0.00329629 0.00347417 0.00364706 0.00381495 0.00397786 0.00413579 0.00428681 0.00442902 0.00456243 0.00468703 0.00480283 0.00490981 0.00500799 0.00509737 0.00517782 0.00524926 0.00531166 0.00536504 0.0054094 0.00544473 0.00547103 0.00548831 0.00549753 0.00549962 0.00549461 0.00548248 0.00546324 0.00543688 0.00540341 0.00536283 0.00531642 0.00526548 0.00521001 0.00514999 0.00508544 0.00501636 0.00494274 0.00486459 0.00478301 0.00469911 0.0046129 0.00452437 0.00443353 0.00434037 0.00424489 0.0041471 0.00404773 0.00394751 0.00384645 0.00374454 0.0036418 0.00353821 0.00343377 0.00332849 0.00322281 0.00311717 0.00301158 0.00290602 0.00280051 0.00269504 0.00258962 0.00248423 0.00237927 0.00227509 0.00217171 0.00206912 0.00196732 0.00186631 0.0017661 0.00166668 0.00156859 0.00147238 0.00137805 0.00128559 0.00119501 0.00110631 0.00101948 0.000934535 0.000852287 0.000773562 0.00069836 0.000626681 0.000558526 0.000493894 0.000432785 0.000375199 0.000321677 0.00027276 0.000228447 0.000188739 0.000153635 0.000123136 9.72415e-05 7.59513e-05 5.81503e-05 4.27226e-05 2.96685e-05 1.89878e-05 1.06807e-05 4.74696e-06 1.18674e-06 0 0 6.66844e-06 2.66738e-05 6.0016e-05 0.000106695 0.000166711 0.000240064 0.000326754 0.00042678 0.000542092 0.000674635 0.000824411 0.000991418 0.00117566 0.00137713 0.00159584 0.00183177 0.00207862 0.00233006 0.00258609 0.00284672 0.00311193 0.00338174 0.00365614 0.00393513 0.00421282 0.00448333 0.00474666 0.0050028 0.00525176 0.00549353 0.00572812 0.00595553 0.006173 0.00637779 0.0065699 0.00674933 0.00691607 0.00707013 0.00721151 0.00734021 0.00745607 0.00755893 0.00764879 0.00772566 0.00778953 0.00784041 0.00787829 0.00790317 0.00791644 0.00791946 0.00791224 0.00789477 0.00786706 0.00782911 0.00778091 0.00772248 0.00765565 0.00758229 0.00750241 0.00741599 0.00732304 0.00722356 0.00711755 0.00700501 0.00688753 0.00676672 0.00664258 0.00651509 0.00638428 0.00625013 0.00611264 0.00597182 0.00582872 0.00568441 0.00553889 0.00539214 0.00524419 0.00509502 0.00494463 0.00479303 0.00464085 0.00448873 0.00433667 0.00418467 0.00403274 0.00388086 0.00372905 0.00357729 0.00342614 0.00327613 0.00312726 0.00297953 0.00283294 0.00268749 0.00254318 0.00240002 0.00225877 0.00212023 0.00198439 0.00185125 0.00172082 0.00159308 0.00146806 0.00134573 0.00122729 0.00111393 0.00100564 0.000902421 0.000804277 0.000711207 0.00062321 0.000540287 0.000463215 0.000392774 0.000328964 0.000271784 0.000221235 0.000177316 0.000140028 0.00010937 8.37364e-05 6.15206e-05 4.27226e-05 2.73425e-05 1.53801e-05 6.83562e-06 1.70891e-06 0 0 9.07649e-06 3.6306e-05 8.16884e-05 0.000145224 0.000226912 0.000326754 0.000444748 0.000580895 0.000737847 0.000918253 0.00112211 0.00134943 0.0016002 0.00187443 0.00217211 0.00249325 0.00282923 0.00317147 0.00351996 0.0038747 0.00423569 0.00460292 0.00497641 0.00535615 0.00573412 0.00610232 0.00646073 0.00680937 0.00714823 0.00747731 0.00779661 0.00810614 0.00840214 0.00868089 0.00894237 0.00918659 0.00941354 0.00962324 0.00981567 0.00999084 0.0101485 0.0102885 0.0104109 0.0105155 0.0106024 0.0106717 0.0107232 0.0107571 0.0107752 0.0107793 0.0107694 0.0107457 0.0107079 0.0106563 0.0105907 0.0105111 0.0104202 0.0103203 0.0102116 0.010094 0.00996747 0.00983207 0.00968777 0.00953459 0.0093747 0.00921026 0.00904128 0.00886777 0.00868971 0.00850712 0.00831999 0.00812831 0.00793354 0.00773712 0.00753904 0.00733931 0.00713792 0.00693488 0.00673019 0.00652384 0.00631671 0.00610966 0.00590269 0.0056958 0.005489 0.00528228 0.00507565 0.0048691 0.00466336 0.00445918 0.00425655 0.00405547 0.00385595 0.00365797 0.00346155 0.00326669 0.00307444 0.00288587 0.00270097 0.00251976 0.00234222 0.00216837 0.00199819 0.00183169 0.00167048 0.00151618 0.00136879 0.0012283 0.00109471 0.000968032 0.000848258 0.00073539 0.000630488 0.00053461 0.000447757 0.000369928 0.000301125 0.000241347 0.000190593 0.000148865 0.000113974 8.37364e-05 5.81503e-05 3.72162e-05 2.09341e-05 9.30404e-06 2.32601e-06 0 0 1.1855e-05 4.742e-05 0.000106695 0.00018968 0.000296375 0.00042678 0.000580895 0.000758721 0.000963718 0.00119935 0.00146562 0.00176252 0.00209006 0.00244823 0.00283704 0.00325648 0.00369533 0.00414233 0.0045975 0.00506083 0.00553232 0.00601198 0.0064998 0.00699579 0.00748946 0.00797037 0.00843851 0.00889387 0.00933646 0.00976628 0.0101833 0.0105876 0.0109742 0.0113383 0.0116798 0.0119988 0.0122952 0.0125691 0.0128205 0.0130493 0.0132552 0.0134381 0.0135979 0.0137345 0.0138481 0.0139385 0.0140058 0.0140501 0.0140737 0.014079 0.0140662 0.0140351 0.0139859 0.0139184 0.0138327 0.0137288 0.01361 0.0134796 0.0133376 0.013184 0.0130187 0.0128419 0.0126534 0.0124533 0.0122445 0.0120297 0.011809 0.0115824 0.0113498 0.0111113 0.0108669 0.0106166 0.0103622 0.0101056 0.00984691 0.00958604 0.009323 0.00905781 0.00879045 0.00852093 0.00825039 0.00797996 0.00770964 0.00743942 0.00716931 0.00689931 0.00662942 0.00635964 0.00609092 0.00582423 0.00555957 0.00529694 0.00503634 0.00477776 0.00452121 0.00426669 0.00401559 0.00376929 0.0035278 0.00329111 0.00305923 0.00283215 0.00260988 0.00239241 0.00218185 0.00198032 0.0017878 0.0016043 0.00142983 0.00126437 0.00110793 0.00096051 0.000823494 0.000698266 0.000584825 0.000483172 0.000393306 0.000315228 0.000248938 0.000194435 0.000148865 0.00010937 7.59513e-05 4.86089e-05 2.73425e-05 1.21522e-05 3.03805e-06 0 0 1.50849e-05 6.03396e-05 0.000135764 0.000241358 0.000377122 0.000543056 0.00073916 0.000965433 0.00122612 0.00152545 0.00186342 0.00224005 0.00265532 0.00310924 0.00360181 0.00413303 0.0046887 0.00525462 0.00583079 0.00641721 0.00701389 0.00762082 0.008238 0.00886543 0.00948993 0.0100983 0.0106905 0.0112666 0.0118265 0.0123703 0.012898 0.0134095 0.0138987 0.0143594 0.0147917 0.0151954 0.0155706 0.0159174 0.0162357 0.0165255 0.0167864 0.0170181 0.0172206 0.0173939 0.017538 0.0176528 0.0177384 0.0177949 0.0178251 0.0178324 0.0178165 0.0177777 0.0177157 0.0176308 0.0175227 0.0173917 0.0172417 0.017077 0.0168976 0.0167035 0.0164946 0.016271 0.0160328 0.0157797 0.0155156 0.0152439 0.0149647 0.014678 0.0143837 0.0140819 0.0137726 0.0134557 0.0131337 0.0128089 0.0124813 0.012151 0.011818 0.0114822 0.0111436 0.0108023 0.0104597 0.0101172 0.00977478 0.00943253 0.00909041 0.00874841 0.00840655 0.00806481 0.00772442 0.0073866 0.00705134 0.00671866 0.00638854 0.00606099 0.00573601 0.00541359 0.0050955 0.00478348 0.00447755 0.00417769 0.00388391 0.0035962 0.00331458 0.00303903 0.00277222 0.00251679 0.00227275 0.0020401 0.00181883 0.00160895 0.00141046 0.00122335 0.00104939 0.000890321 0.000746158 0.000616895 0.000502532 0.00040307 0.000318508 0.000248846 0.000190523 0.000139976 9.72054e-05 6.22115e-05 3.4994e-05 1.55529e-05 3.88822e-06 0 0 1.8847e-05 7.53882e-05 0.000169623 0.000301553 0.000471176 0.000678494 0.000923505 0.00120621 0.00153145 0.00190405 0.00232403 0.00279137 0.00330608 0.00386816 0.00447761 0.00513442 0.00582114 0.0065203 0.0072319 0.00795594 0.00869242 0.00944134 0.0102027 0.0109765 0.0117466 0.0124968 0.0132272 0.0139377 0.0146284 0.0152992 0.0159502 0.0165813 0.017185 0.0177536 0.0182872 0.0187858 0.0192492 0.0196777 0.0200711 0.0204295 0.0207523 0.0210391 0.02129 0.0215048 0.0216836 0.0218265 0.0219333 0.0220041 0.0220427 0.0220529 0.0220345 0.0219877 0.0219124 0.0218086 0.0216764 0.0215157 0.0213316 0.0211293 0.0209087 0.0206699 0.0204129 0.0201376 0.019844 0.0195323 0.0192067 0.0188717 0.0185273 0.0181736 0.0178104 0.0174379 0.017056 0.0166647 0.016267 0.0158658 0.0154612 0.015053 0.0146415 0.0142264 0.0138079 0.0133859 0.0129623 0.0125388 0.0121154 0.0116921 0.011269 0.0108461 0.0104232 0.0100005 0.00957946 0.00916158 0.00874687 0.00833534 0.00792698 0.00752179 0.00711977 0.00672093 0.00632742 0.0059414 0.00556288 0.00519186 0.00482833 0.00447229 0.00412375 0.0037827 0.00345239 0.00313606 0.00283371 0.00254533 0.00227093 0.00201052 0.00176408 0.00153161 0.00131531 0.00111736 0.000937744 0.000776478 0.000633556 0.000508979 0.000402747 0.00031486 0.000241064 0.000177109 0.000122992 7.87149e-05 4.42771e-05 1.96787e-05 4.91968e-06 0 0 2.31415e-05 9.25658e-05 0.000208273 0.000370263 0.000578537 0.000833093 0.00113393 0.00148105 0.00187972 0.00233517 0.00284743 0.00341648 0.00404233 0.00472498 0.00546443 0.00626067 0.00709267 0.0079394 0.00880085 0.00967702 0.0105679 0.0114735 0.0123939 0.0133289 0.0142594 0.015166 0.0160486 0.0169073 0.0177422 0.0185531 0.01934 0.0201031 0.0208331 0.0215209 0.0221665 0.0227699 0.023331 0.02385 0.0243267 0.0247612 0.0251529 0.0255012 0.0258059 0.0260672 0.0262851 0.0264595 0.0265904 0.0266779 0.0267264 0.0267405 0.0267201 0.0266652 0.0265758 0.0264519 0.0262936 0.0261008 0.0258797 0.0256364 0.025371 0.0250833 0.0247735 0.0244415 0.0240873 0.0237109 0.0233177 0.022913 0.0224968 0.0220692 0.02163 0.0211794 0.0207173 0.0202437 0.0197622 0.0192764 0.0187864 0.018292 0.0177934 0.0172905 0.0167833 0.0162718 0.0157582 0.0152448 0.0147315 0.0142183 0.0137052 0.0131923 0.0126794 0.0121668 0.011656 0.0111492 0.0106462 0.010147 0.00965165 0.00916016 0.00867251 0.00818871 0.00771135 0.00724305 0.00678381 0.00633362 0.00589248 0.00546041 0.00503738 0.00462341 0.00422237 0.00383812 0.00347066 0.00312 0.00278614 0.00246906 0.00216878 0.0018853 0.00162127 0.00137937 0.00115958 0.000961921 0.000786378 0.000632957 0.000501656 0.000392477 0.00030049 0.000220768 0.000153311 9.81191e-05 5.5192e-05 2.45298e-05 6.13245e-06 0 0 2.79681e-05 0.000111873 0.000251713 0.00044749 0.000699204 0.00100685 0.00137044 0.00178996 0.00227092 0.00281881 0.00343363 0.00411539 0.00486408 0.00567971 0.00656227 0.00751176 0.00850327 0.00951189 0.0105376 0.0115804 0.0126404 0.0137174 0.0148116 0.0159228 0.0170284 0.0181058 0.0191548 0.0201754 0.0211678 0.0221318 0.0230675 0.0239749 0.0248431 0.0256613 0.0264295 0.0271478 0.027816 0.0284343 0.0290025 0.0295208 0.0299883 0.0304042 0.0307685 0.0310812 0.0313423 0.0315519 0.0317098 0.0318162 0.0318763 0.0318953 0.0318732 0.0318101 0.031706 0.0315608 0.0313745 0.0311472 0.0308861 0.0305985 0.0302844 0.0299437 0.0295765 0.0291827 0.0287625 0.0283157 0.0278487 0.0273679 0.0268732 0.0263648 0.0258425 0.0253063 0.0247564 0.0241926 0.0236193 0.0230407 0.022457 0.021868 0.0212738 0.0206744 0.0200698 0.0194599 0.0188475 0.0182352 0.017623 0.0170109 0.0163989 0.015787 0.0151752 0.0145635 0.0139542 0.0133494 0.0127492 0.0121536 0.0115626 0.0109761 0.0103942 0.00981693 0.0092473 0.00868844 0.00814033 0.00760298 0.00707639 0.00656055 0.00605548 0.00556117 0.00508215 0.00462297 0.00418362 0.00376411 0.00336443 0.00298459 0.00262458 0.00228441 0.00196727 0.00167636 0.00141168 0.00117322 0.000960999 0.000775003 0.000615235 0.000481697 0.000368799 0.000270954 0.000188163 0.000120424 6.77386e-05 3.0106e-05 7.52651e-06 0 0 3.33271e-05 0.000133308 0.000299944 0.000533233 0.000833177 0.00119978 0.00163303 0.00213293 0.00270506 0.00335496 0.00408264 0.00488809 0.00577133 0.00673234 0.00777113 0.0088877 0.010053 0.0112378 0.0124422 0.0136662 0.0149098 0.016173 0.0174557 0.0187581 0.0200537 0.0213162 0.0225456 0.023742 0.0249052 0.0260354 0.0271325 0.0281966 0.0292149 0.0301748 0.0310763 0.0319195 0.0327042 0.0334306 0.0340986 0.0347082 0.0352584 0.0357482 0.0361776 0.0365467 0.0368553 0.0371036 0.0372915 0.037419 0.0374922 0.0375172 0.037494 0.0374225 0.0373029 0.0371351 0.036919 0.0366548 0.0363508 0.0360155 0.0356489 0.035251 0.0348219 0.0343614 0.0338696 0.0333465 0.0327996 0.0322363 0.0316565 0.0310603 0.0304477 0.0298187 0.0291733 0.0285114 0.0278382 0.0271587 0.026473 0.025781 0.0250827 0.0243782 0.0236674 0.0229503 0.0222302 0.0215101 0.02079 0.02007 0.0193501 0.0186303 0.0179105 0.0171908 0.0164738 0.0157622 0.015056 0.0143552 0.0136597 0.0129696 0.0122849 0.0116056 0.0109353 0.0102775 0.00963243 0.00899993 0.00838003 0.00777273 0.00717805 0.00659596 0.00603174 0.00549061 0.00497258 0.00447766 0.00400583 0.0035571 0.00313147 0.00272895 0.0023533 0.00200833 0.00169402 0.00141039 0.00115742 0.000935117 0.000743484 0.00058252 0.000445992 0.000327668 0.000227547 0.00014563 8.19169e-05 3.64075e-05 9.10188e-06 0 0 3.92183e-05 0.000156873 0.000352965 0.000627493 0.000980457 0.00141186 0.0019217 0.00250997 0.00318213 0.00394362 0.00479444 0.00573459 0.00676407 0.00788288 0.00909102 0.0103885 0.0117417 0.0131171 0.0145146 0.0159343 0.0173762 0.0188402 0.0203264 0.0218347 0.0233351 0.0247972 0.0262212 0.027607 0.0289546 0.030264 0.0315352 0.0327682 0.0339485 0.0350613 0.0361068 0.0370849 0.0379956 0.0388389 0.0396148 0.0403233 0.0409632 0.0415332 0.0420334 0.0424637 0.0428241 0.0431147 0.0433354 0.0434863 0.0435742 0.0436063 0.0435823 0.0435025 0.0433666 0.0431749 0.0429272 0.0426236 0.0422737 0.0418874 0.0414646 0.0410053 0.0405096 0.0399774 0.0394087 0.0388036 0.0381705 0.0375183 0.0368467 0.0361559 0.0354459 0.0347166 0.033968 0.0332002 0.032419 0.0316304 0.0308344 0.030031 0.0292201 0.0284018 0.0275761 0.026743 0.0259061 0.0250693 0.0242325 0.0233957 0.0225589 0.0217221 0.0208854 0.0200486 0.019215 0.0183877 0.0175666 0.0167517 0.0159431 0.0151407 0.0143446 0.0135547 0.0127752 0.0120104 0.0112601 0.0105245 0.00980341 0.00909694 0.00840508 0.00772781 0.00707113 0.00644104 0.00583755 0.00526064 0.00471032 0.00418659 0.00368946 0.00321891 0.00277937 0.00237528 0.00200662 0.00167341 0.00137563 0.0011133 0.000886403 0.000694947 0.000532068 0.000390907 0.000271464 0.000173737 9.77269e-05 4.34342e-05 1.08585e-05 0 0 4.56418e-05 0.000182567 0.000410776 0.000730268 0.00114104 0.0016431 0.00223645 0.00292107 0.00370214 0.00458479 0.00556904 0.00665488 0.0078423 0.00913132 0.0105219 0.0120141 0.0135696 0.0151498 0.0167549 0.0183848 0.0200396 0.0217191 0.0234236 0.0251528 0.0268727 0.0285489 0.0301815 0.0317704 0.0333157 0.0348174 0.0362755 0.0376899 0.0390439 0.040321 0.0415211 0.0426441 0.0436902 0.0446592 0.0455512 0.0463662 0.0471027 0.0477592 0.0483357 0.0488322 0.0492487 0.0495852 0.0498416 0.0500181 0.0501224 0.0501625 0.0501383 0.0500498 0.0498971 0.0496802 0.049399 0.0490535 0.0486549 0.0482142 0.0477314 0.0472066 0.0466397 0.0460308 0.0453798 0.0446867 0.0439614 0.0432138 0.0424438 0.0416515 0.0408369 0.0399999 0.0391405 0.0382589 0.0373617 0.0364558 0.0355412 0.034618 0.033686 0.0327453 0.031796 0.0308379 0.0298755 0.028913 0.0279504 0.0269879 0.0260252 0.0250625 0.0240998 0.023137 0.0221778 0.0212257 0.0202809 0.0193432 0.0184127 0.0174894 0.0165732 0.0156643 0.0147672 0.013887 0.0130234 0.0121766 0.0113465 0.0105332 0.00973657 0.00895669 0.00820033 0.00747427 0.00677851 0.00611306 0.00547791 0.00487307 0.00429853 0.00375429 0.00324548 0.00277721 0.00234948 0.00196229 0.00161565 0.00130955 0.00104399 0.000818976 0.000627029 0.000460674 0.000319913 0.000204744 0.000115169 5.1186e-05 1.27965e-05 0 0 5.25975e-05 0.00021039 0.000473378 0.00084156 0.00131494 0.00189351 0.00257728 0.00336624 0.00426508 0.00527848 0.00640644 0.00764896 0.00900604 0.0104777 0.0120639 0.0137646 0.0155365 0.0173359 0.019163 0.0210176 0.0228999 0.0248098 0.0267472 0.0287123 0.0306665 0.0325712 0.0344265 0.0362324 0.0379888 0.0396958 0.0413533 0.0429614 0.0445012 0.0459537 0.047319 0.0485971 0.0497879 0.0508915 0.0519078 0.0528369 0.053677 0.0544262 0.0550847 0.0556522 0.056129 0.056515 0.0568101 0.0570144 0.0571367 0.0571858 0.0571618 0.0570647 0.0568944 0.056651 0.0563344 0.0559447 0.0554943 0.0549959 0.0544494 0.0538548 0.0532122 0.0525215 0.0517828 0.0509959 0.0501722 0.0493228 0.0484478 0.0475471 0.0466207 0.0456686 0.0446909 0.0436875 0.0426662 0.0416349 0.0405934 0.0395419 0.0384803 0.0374087 0.0363269 0.0352351 0.0341381 0.0330411 0.0319439 0.0308465 0.0297491 0.0286515 0.0275538 0.0264559 0.0253621 0.0242764 0.023199 0.0221297 0.0210685 0.0200156 0.0189708 0.0179342 0.0169113 0.0159073 0.0149223 0.0139563 0.0130094 0.0120815 0.0111725 0.0102826 0.00941933 0.00859028 0.00779548 0.00703492 0.0063086 0.00561652 0.00495869 0.0043351 0.00375162 0.00321411 0.00272259 0.00227704 0.00187746 0.00152387 0.00121625 0.000954609 0.000730873 0.000536968 0.000372894 0.000238652 0.000134242 5.96631e-05 1.49158e-05 0 0 5.99481e-05 0.000239792 0.000539533 0.000959169 0.0014987 0.00215813 0.00293746 0.00383668 0.00485985 0.00601105 0.00729025 0.00869748 0.0102327 0.011896 0.0136872 0.0156065 0.017605 0.0196339 0.0216932 0.0237829 0.025903 0.0280535 0.0302344 0.0324457 0.0346445 0.0367877 0.0388755 0.0409078 0.0428847 0.044806 0.0466719 0.0484823 0.050216 0.0518518 0.0533898 0.0548298 0.056172 0.0574164 0.0585628 0.0596114 0.06056 0.0614065 0.0621509 0.0627932 0.0633334 0.0637715 0.0641076 0.0643415 0.0644832 0.0645424 0.0645192 0.0644135 0.0642254 0.0639549 0.0636019 0.0631665 0.0626626 0.0621044 0.0614918 0.0608249 0.0601035 0.0593278 0.0584977 0.0576132 0.056687 0.0557315 0.0547469 0.0537331 0.0526901 0.0516178 0.0505164 0.0493859 0.0482349 0.0470724 0.0458983 0.0447127 0.0435155 0.0423067 0.0410864 0.0398546 0.0386168 0.0373788 0.0361406 0.0349022 0.0336635 0.0324246 0.0311855 0.0299461 0.0287113 0.0274857 0.0262692 0.025062 0.023864 0.0226752 0.0214957 0.0203253 0.0191703 0.0180366 0.0169243 0.0158334 0.0147638 0.0137156 0.0126889 0.0116835 0.0107079 0.00977065 0.00887173 0.00801113 0.00718885 0.00640489 0.00565926 0.00495194 0.00428962 0.00367894 0.00311993 0.00261256 0.00215686 0.0017528 0.0014004 0.00109966 0.000841928 0.00061856 0.000429555 0.000274915 0.00015464 6.87289e-05 1.71822e-05 0 0 6.7556e-05 0.000270224 0.000608004 0.0010809 0.0016889 0.00243201 0.00331024 0.00432358 0.00547535 0.00676885 0.00820409 0.00978108 0.0114998 0.0133603 0.0153625 0.0175064 0.0197378 0.0220023 0.0243 0.0266308 0.0289948 0.0313919 0.0338221 0.0362855 0.0387347 0.0411221 0.0434479 0.045712 0.0479145 0.0500552 0.0521343 0.0541517 0.0560839 0.0579074 0.0596222 0.0612283 0.0627256 0.0641143 0.0653943 0.0665655 0.0676256 0.0685721 0.069405 0.0701244 0.0707301 0.0712223 0.0716008 0.0718658 0.072028 0.0720983 0.0720765 0.0719629 0.0717572 0.0714596 0.07107 0.0705885 0.0700306 0.0694117 0.068732 0.0679915 0.06719 0.0663277 0.0654046 0.0644205 0.0633896 0.0623259 0.0612293 0.0600999 0.0589376 0.0577425 0.0565145 0.0552537 0.0539699 0.0526731 0.0513631 0.05004 0.0487037 0.0473544 0.045992 0.0446165 0.0432342 0.0418516 0.0404686 0.0390853 0.0377016 0.0363176 0.0349333 0.0335486 0.0321688 0.0307994 0.0294401 0.0280912 0.0267525 0.0254241 0.024106 0.0227981 0.0215072 0.0202402 0.0189969 0.0177773 0.0165816 0.0154096 0.0142615 0.0131371 0.0120458 0.0109969 0.00999054 0.00902661 0.00810514 0.00722612 0.00638955 0.00559544 0.0048513 0.00416464 0.00353548 0.0029638 0.0024496 0.0019929 0.00159368 0.00125195 0.000958524 0.000704222 0.000489043 0.000312987 0.000176055 7.82468e-05 1.95617e-05 0 0 7.54212e-05 0.000301685 0.000678791 0.00120674 0.00188553 0.00271516 0.00369564 0.00482696 0.00611156 0.00755189 0.00914796 0.0108998 0.0128073 0.0148705 0.0170895 0.0194642 0.0219347 0.0244411 0.0269833 0.0295613 0.0321752 0.0348249 0.0375104 0.0402318 0.0429371 0.0455744 0.0481437 0.0506449 0.0530781 0.0554433 0.0577405 0.0599697 0.062105 0.0641205 0.0660164 0.0677924 0.0694488 0.0709854 0.0724022 0.0736993 0.0748739 0.0759232 0.0768472 0.0776458 0.0783192 0.0788672 0.0792899 0.0795873 0.0797712 0.0798534 0.0798339 0.0797127 0.0794897 0.0791651 0.0787388 0.0782107 0.077598 0.0769178 0.07617 0.0753547 0.0744718 0.0735214 0.0725034 0.0714178 0.0702802 0.0691059 0.067895 0.0666475 0.0653634 0.0640426 0.0626852 0.0612911 0.0598714 0.0584369 0.0569877 0.0555238 0.0540451 0.0525517 0.0510436 0.0495208 0.0479903 0.0464593 0.0449279 0.0433959 0.0418635 0.0403305 0.0387971 0.0372632 0.0357347 0.0342175 0.0327117 0.0312172 0.029734 0.0282622 0.0268017 0.0253526 0.0239222 0.022518 0.0211401 0.0197883 0.0184628 0.0171634 0.0158903 0.0146434 0.0134329 0.0122691 0.0111519 0.0100814 0.00905745 0.00808019 0.00714956 0.00626558 0.00543666 0.00467121 0.00396924 0.00333074 0.00275571 0.00224416 0.00179608 0.00141147 0.00108066 0.000793953 0.000551356 0.000352868 0.000198488 8.8217e-05 2.20543e-05 0 0 8.35438e-05 0.000334175 0.000751894 0.0013367 0.00208859 0.00300758 0.00409364 0.0053468 0.0067685 0.00836018 0.0101219 0.0120535 0.0141552 0.0164268 0.0188684 0.02148 0.0241959 0.0269502 0.0297431 0.0325744 0.0354442 0.0383525 0.0412992 0.0442845 0.0472517 0.0501445 0.0529627 0.0557065 0.0583757 0.0609704 0.0634906 0.0659363 0.0682792 0.0704912 0.0725723 0.0745223 0.0763414 0.0780295 0.0795867 0.0810129 0.0823049 0.0834597 0.0844773 0.0853575 0.0861006 0.0867063 0.0871748 0.087506 0.0877127 0.0878078 0.0877912 0.0876629 0.087423 0.0870714 0.0866081 0.0860331 0.0853651 0.0846226 0.0838058 0.0829145 0.0819488 0.0809086 0.0797941 0.0786051 0.0773587 0.0760716 0.0747441 0.073376 0.0719673 0.0705181 0.0690283 0.067498 0.0659392 0.064364 0.0627723 0.0611642 0.0595397 0.0578987 0.0562413 0.0545674 0.0528851 0.051202 0.0495183 0.047834 0.046149 0.0444633 0.042777 0.04109 0.0394089 0.0377402 0.0360839 0.03444 0.0328086 0.0311896 0.029583 0.0279888 0.0264151 0.0248701 0.0233539 0.0218662 0.0204073 0.018977 0.0175755 0.0162026 0.0148694 0.0135872 0.0123558 0.0111754 0.0100458 0.00896711 0.0079393 0.00696238 0.00604571 0.00519865 0.00442121 0.00371338 0.00307517 0.00250658 0.0020076 0.00157823 0.00120833 0.000887755 0.000616496 0.000394558 0.000221939 9.86394e-05 2.46599e-05 0 0 9.19237e-05 0.000367695 0.000827313 0.00147078 0.00229809 0.00330925 0.00450426 0.00588312 0.00744615 0.0091937 0.0111258 0.0132423 0.0155434 0.0180291 0.0206992 0.0235538 0.0265213 0.0295298 0.0325794 0.0356701 0.0388018 0.0419747 0.0451886 0.0484436 0.0516786 0.0548324 0.0579051 0.0608967 0.0638071 0.0666364 0.0693845 0.0720515 0.0746067 0.0770195 0.0792899 0.0814179 0.0834035 0.0852468 0.0869476 0.0885061 0.0899186 0.0911817 0.0922953 0.0932595 0.0940743 0.0947396 0.0952554 0.0956218 0.0958526 0.0959615 0.0959485 0.0958137 0.095557 0.0951784 0.094678 0.0940557 0.0933317 0.0925262 0.0916393 0.0906709 0.089621 0.0884896 0.0872767 0.0859824 0.084625 0.083223 0.0817764 0.0802852 0.0787494 0.077169 0.075544 0.0738744 0.0721734 0.0704542 0.0687168 0.0669612 0.0651873 0.0633953 0.061585 0.0597565 0.0579185 0.0560797 0.05424 0.0523995 0.0505581 0.0487159 0.0468729 0.0450289 0.0431914 0.0413673 0.0395568 0.0377597 0.0359762 0.0342062 0.0324497 0.0307067 0.028986 0.0272966 0.0256383 0.0240111 0.0224152 0.0208504 0.0193169 0.0178145 0.0163552 0.0149512 0.0136023 0.0123087 0.0110702 0.00988688 0.00875876 0.00768583 0.00667844 0.00574696 0.00489139 0.00411174 0.00340799 0.00278016 0.00222824 0.00175222 0.00134155 0.000985626 0.000684463 0.000438056 0.000246407 0.000109514 2.73785e-05 0 0 0.000100561 0.000402244 0.000905049 0.00160898 0.00251402 0.00362019 0.00492749 0.0064359 0.00814453 0.0100525 0.0121597 0.0144663 0.0169721 0.0196773 0.0225818 0.0256856 0.0289108 0.0321797 0.0354922 0.0388483 0.0422481 0.0456915 0.0491785 0.0527092 0.0562177 0.0596383 0.0629709 0.0662156 0.0693724 0.0724413 0.0754222 0.0783152 0.0810872 0.0837053 0.0861693 0.0884792 0.0906352 0.0926371 0.0944851 0.096179 0.097715 0.0990891 0.100301 0.101352 0.10224 0.102967 0.103532 0.103935 0.104191 0.104314 0.104306 0.104165 0.103892 0.103486 0.102948 0.102278 0.101498 0.100629 0.0996706 0.0986239 0.0974884 0.0962642 0.0949513 0.0935497 0.0920793 0.0905601 0.0889921 0.0873753 0.0857098 0.0839954 0.0822323 0.0804204 0.078574 0.0767076 0.0748212 0.0729147 0.0709881 0.0690415 0.0670748 0.065088 0.0630907 0.0610924 0.059093 0.0570925 0.055091 0.0530884 0.0510848 0.0490801 0.0470822 0.04