<?xml version="1.0"?> 
<VTKFile type="StructuredGrid" version="0.1"> 
<StructuredGrid WholeExtent="0 128 0 128 0 0"> 
<Piece Extent="0 128 0 128 0 0"> 
<PointData>
<DataArray type="Float32" Name="u" format="ascii" NumberOfComponents="1"> 
0 0 0 0 0 0 0 0 0 0 0 0 0 0 0 0 0 0 0 0 0 0 0 0 0 0 0 0 0 0 0 0 0 0 0 0 0 0 0 0 0 0 0 0 0 0 0 0 0 0 0 0 0 0 0 0 0 0 0 0 0 0 0 0 0 0 0 0 0 0 0 0 0 0 0 0 0 0 0 0 0 0 0 0 0 0 0 0 0 0 0 0 0 0 0 0 0 0 0 0 0 0 0 0 0 0 0 0 0 0 0 0 0 0 0 0 0 0 0 0 0 0 0 0 0 0 0 0 0 0 4.49354e-07 1.79741e-06 4.04418e-06 7.18966e-06 1.12338e-05 1.61767e-05 2.20183e-05 2.87586e-05 3.65301e-05 4.54653e-05 5.55642e-05 6.68267e-05 7.92529e-05 9.28428e-05 0.000107596 0.000123514 0.00014017 0.000157142 0.000174428 0.000192029 0.000209945 0.000228176 0.000246722 0.000265583 0.000284347 0.000302603 0.00032035 0.00033759 0.000354321 0.000370544 0.000386259 0.000401465 0.00041595 0.000429498 0.000442111 0.000453787 0.000464528 0.000474333 0.000483201 0.000491134 0.000498098 0.000504061 0.000509022 0.000512982 0.00051594 0.000517897 0.000518853 0.000518807 0.000517857 0.000516098 0.000513532 0.000510157 0.000505974 0.000500984 0.000495185 0.000488578 0.000481324 0.000473585 0.000465359 0.000456648 0.00044745 0.000437767 0.000427598 0.000416943 0.000405968 0.000394837 0.00038355 0.000372107 0.00036051 0.000348756 0.000336847 0.000324782 0.00031269 0.000300698 0.000288808 0.000277018 0.000265328 0.00025374 0.000242252 0.000230865 0.000219654 0.000208695 0.000197986 0.00018753 0.000177324 0.00016737 0.000157667 0.000148216 0.000139045 0.000130181 0.000121626 0.000113378 0.000105439 9.78072e-05 9.04837e-05 8.34683e-05 7.67604e-05 7.03593e-05 6.42652e-05 5.84779e-05 5.29976e-05 4.78242e-05 4.29576e-05 3.8398e-05 3.41329e-05 3.01498e-05 2.64488e-05 2.30299e-05 1.98931e-05 1.70383e-05 1.44656e-05 1.2175e-05 1.01319e-05 8.30151e-06 6.68396e-06 5.27922e-06 4.08729e-06 3.10818e-06 2.34187e-06 1.78837e-06 1.36922e-06 1.00596e-06 6.98582e-07 4.47093e-07 2.5149e-07 1.11773e-07 2.79433e-08 0 0 1.79741e-06 7.18966e-06 1.61767e-05 2.87586e-05 4.49354e-05 6.47069e-05 8.80733e-05 0.000115035 0.000146121 0.000181861 0.000222257 0.000267307 0.000317012 0.000371371 0.000430386 0.000494055 0.000560681 0.000628567 0.000697712 0.000768117 0.000839781 0.000912705 0.000986888 0.00106233 0.00113739 0.00121041 0.0012814 0.00135036 0.00141728 0.00148218 0.00154504 0.00160586 0.0016638 0.00171799 0.00176844 0.00181515 0.00185811 0.00189733 0.00193281 0.00196454 0.00199239 0.00201624 0.00203609 0.00205193 0.00206376 0.00207159 0.00207541 0.00207523 0.00207143 0.00206439 0.00205413 0.00204063 0.0020239 0.00200393 0.00198074 0.00195431 0.0019253 0.00189434 0.00186144 0.00182659 0.0017898 0.00175107 0.00171039 0.00166777 0.00162387 0.00157935 0.0015342 0.00148843 0.00144204 0.00139502 0.00134739 0.00129913 0.00125076 0.00120279 0.00115523 0.00110807 0.00106131 0.00101496 0.000969009 0.00092346 0.000878617 0.000834778 0.000791945 0.000750118 0.000709296 0.00066948 0.00063067 0.000592865 0.000556178 0.000520724 0.000486502 0.000453512 0.000421754 0.000391229 0.000361935 0.000333873 0.000307041 0.000281437 0.000257061 0.000233912 0.00021199 0.000191297 0.000171831 0.000153592 0.000136532 0.000120599 0.000105795 9.21197e-05 7.95723e-05 6.81533e-05 5.78626e-05 4.87001e-05 4.05275e-05 3.3206e-05 2.67358e-05 2.11169e-05 1.63492e-05 1.24327e-05 9.36748e-06 7.15348e-06 5.47689e-06 4.02384e-06 2.79433e-06 1.78837e-06 1.00596e-06 4.47093e-07 1.11773e-07 0 0 4.04418e-06 1.61767e-05 3.63977e-05 6.47069e-05 0.000101105 0.000145591 0.000198165 0.000258828 0.000328771 0.000409188 0.000500078 0.00060144 0.000713276 0.000835586 0.000968368 0.00111162 0.00126153 0.00141427 0.00156985 0.00172826 0.00188951 0.00205359 0.0022205 0.00239025 0.00255912 0.00272342 0.00288315 0.00303831 0.00318889 0.0033349 0.00347633 0.00361319 0.00374355 0.00386548 0.003979 0.00408409 0.00418075 0.00426899 0.00434881 0.00442021 0.00448288 0.00453655 0.0045812 0.00461684 0.00464346 0.00466108 0.00466968 0.00466926 0.00466071 0.00464488 0.00462178 0.00459141 0.00455377 0.00450885 0.00445666 0.0043972 0.00433192 0.00426226 0.00418823 0.00410983 0.00402705 0.00393991 0.00384838 0.00375249 0.00365371 0.00355353 0.00345195 0.00334897 0.00324459 0.0031388 0.00303162 0.00292304 0.00281421 0.00270629 0.00259927 0.00249316 0.00238796 0.00228366 0.00218027 0.00207779 0.00197689 0.00187825 0.00178188 0.00168777 0.00159592 0.00150633 0.00141901 0.00133395 0.0012514 0.00117163 0.00109463 0.0010204 0.000948948 0.000880264 0.000814354 0.000751215 0.000690843 0.000633234 0.000578387 0.000526301 0.000476978 0.000430418 0.000386619 0.000345582 0.000307196 0.000271348 0.000238039 0.000207269 0.000179038 0.000153345 0.000130191 0.000109575 9.11868e-05 7.47136e-05 6.01556e-05 4.7513e-05 3.67856e-05 2.79736e-05 2.10768e-05 1.60953e-05 1.2323e-05 9.05363e-06 6.28724e-06 4.02384e-06 2.26341e-06 1.00596e-06 2.5149e-07 0 0 7.18966e-06 2.87586e-05 6.47069e-05 0.000115035 0.000179741 0.000258828 0.000352293 0.000460138 0.000584482 0.000727445 0.000889027 0.00106923 0.00126805 0.00148549 0.00172154 0.00197622 0.00224272 0.00251427 0.00279085 0.00307247 0.00335912 0.00365082 0.00394755 0.00424933 0.00454955 0.00484164 0.00512561 0.00540144 0.00566914 0.0059287 0.00618014 0.00642345 0.0066552 0.00687197 0.00707377 0.0072606 0.00743245 0.00758932 0.00773122 0.00785814 0.00796957 0.00806497 0.00814435 0.00820771 0.00825504 0.00828636 0.00830165 0.00830091 0.00828571 0.00825757 0.00821651 0.00816251 0.00809559 0.00801574 0.00792296 0.00781725 0.00770119 0.00757735 0.00744574 0.00730636 0.00715921 0.00700428 0.00684157 0.00667109 0.00649549 0.00631739 0.0061368 0.00595372 0.00576815 0.0055801 0.00538955 0.00519651 0.00500304 0.00481117 0.00462092 0.00443228 0.00424526 0.00405984 0.00387603 0.00369384 0.00351447 0.00333911 0.00316778 0.00300047 0.00283719 0.00267792 0.00252268 0.00237146 0.00222471 0.0020829 0.00194601 0.00181405 0.00168702 0.00156491 0.00144774 0.00133549 0.00122817 0.00112575 0.00102824 0.000935647 0.000847962 0.000765187 0.000687322 0.000614368 0.000546126 0.000482397 0.000423181 0.000368479 0.000318289 0.000272613 0.00023145 0.0001948 0.00016211 0.000132824 0.000106943 8.44675e-05 6.53967e-05 4.97308e-05 3.74699e-05 2.86139e-05 2.19075e-05 1.60953e-05 1.11773e-05 7.15348e-06 4.02384e-06 1.78837e-06 4.47093e-07 0 0 1.12338e-05 4.49354e-05 0.000101105 0.000179741 0.000280846 0.000404418 0.000550458 0.000718966 0.000913253 0.00113663 0.0013891 0.00167067 0.00198132 0.00232107 0.00268991 0.00308784 0.00350426 0.00392854 0.0043607 0.00480073 0.00524863 0.00570441 0.00616805 0.00663957 0.00710867 0.00756507 0.00800876 0.00843975 0.00885803 0.0092636 0.00965647 0.0100366 0.0103987 0.0107375 0.0110528 0.0113447 0.0116132 0.0118583 0.01208 0.0122784 0.0124525 0.0126015 0.0127255 0.0128245 0.0128985 0.0129474 0.0129713 0.0129702 0.0129464 0.0129025 0.0128383 0.0127539 0.0126494 0.0125246 0.0123796 0.0122144 0.0120331 0.0118396 0.011634 0.0114162 0.0111863 0.0109442 0.01069 0.0104236 0.0101492 0.00987092 0.00958875 0.00930269 0.00901274 0.0087189 0.00842117 0.00811955 0.00781725 0.00751746 0.00722019 0.00692544 0.00663321 0.0063435 0.0060563 0.00577163 0.00549135 0.00521736 0.00494966 0.00468824 0.0044331 0.00418425 0.00394169 0.0037054 0.00347612 0.00325453 0.00304064 0.00283445 0.00263597 0.00244518 0.00226209 0.00208671 0.00191901 0.00175898 0.00160663 0.00146195 0.00132494 0.0011956 0.00107394 0.00095995 0.000853322 0.000753745 0.000661221 0.000575748 0.000497327 0.000425958 0.000361641 0.000304376 0.000253297 0.000207538 0.000167099 0.000131981 0.000102182 7.77044e-05 5.85467e-05 4.47093e-05 3.42305e-05 2.5149e-05 1.74646e-05 1.11773e-05 6.28724e-06 2.79433e-06 6.98582e-07 0 0 1.61767e-05 6.47069e-05 0.000145591 0.000258828 0.000404418 0.000582362 0.00079266 0.00103531 0.00131508 0.00163675 0.00200031 0.00240576 0.00285311 0.00334234 0.00387347 0.00444649 0.00504613 0.0056571 0.00627941 0.00691305 0.00755803 0.00821434 0.00888199 0.00956098 0.0102365 0.0108937 0.0115326 0.0121532 0.0127556 0.0133396 0.0139053 0.0144528 0.0149742 0.0154619 0.015916 0.0163363 0.016723 0.017076 0.0173952 0.0176808 0.0179315 0.0181462 0.0183248 0.0184673 0.0185738 0.0186443 0.0186787 0.0186771 0.0186428 0.0185795 0.0184871 0.0183657 0.0182151 0.0180354 0.0178267 0.0175888 0.0173277 0.017049 0.0167529 0.0164393 0.0161082 0.0157596 0.0153935 0.01501 0.0146148 0.0142141 0.0138078 0.0133959 0.0129783 0.0125552 0.0121265 0.0116922 0.0112568 0.0108251 0.0103971 0.00997264 0.00955182 0.00913464 0.00872108 0.00831114 0.00790755 0.007513 0.00712751 0.00675106 0.00638367 0.00602532 0.00567603 0.00533578 0.00500561 0.00468652 0.00437852 0.00408161 0.00379579 0.00352106 0.00325741 0.00300486 0.00276337 0.00253294 0.00231355 0.00210521 0.00190791 0.00172167 0.00154648 0.00138233 0.00122878 0.00108539 0.000952158 0.000829077 0.000716151 0.00061338 0.000520763 0.000438301 0.000364747 0.000298854 0.000240623 0.000190052 0.000147143 0.000111894 8.43073e-05 6.43814e-05 4.9292e-05 3.62145e-05 2.5149e-05 1.60953e-05 9.05363e-06 4.02384e-06 1.00596e-06 0 0 2.20183e-05 8.80733e-05 0.000198165 0.000352293 0.000550458 0.00079266 0.0010789 0.00140917 0.00178998 0.0022278 0.00272264 0.00327451 0.00388339 0.0045493 0.00527222 0.00605217 0.00686834 0.00769994 0.00854697 0.00940943 0.0102873 0.0111806 0.0120894 0.0130136 0.013933 0.0148275 0.0156972 0.0165419 0.0173617 0.0181567 0.0189267 0.0196718 0.0203815 0.0210454 0.0216634 0.0222356 0.0227619 0.0232423 0.0236769 0.0240656 0.0244068 0.024699 0.0249421 0.0251361 0.0252811 0.025377 0.0254238 0.0254216 0.025375 0.0252888 0.025163 0.0249977 0.0247927 0.0245482 0.0242641 0.0239403 0.0235849 0.0232056 0.0228026 0.0223757 0.0219251 0.0214506 0.0209523 0.0204302 0.0198924 0.019347 0.0187939 0.0182333 0.017665 0.017089 0.0165055 0.0159143 0.0153218 0.0147342 0.0141516 0.0135739 0.0130011 0.0124333 0.0118704 0.0113124 0.0107631 0.010226 0.00970133 0.00918895 0.00868888 0.00820113 0.0077257 0.00726259 0.00681319 0.00637887 0.00595965 0.00555553 0.00516649 0.00479255 0.0044337 0.00408995 0.00376126 0.00344761 0.00314899 0.00286542 0.00259688 0.00234338 0.00210492 0.0018815 0.00167251 0.00147734 0.00129599 0.00112847 0.000974761 0.000834878 0.000708816 0.000596576 0.000496461 0.000406774 0.000327514 0.000258682 0.000200277 0.000152301 0.000114752 8.76302e-05 6.70919e-05 4.9292e-05 3.42305e-05 2.19075e-05 1.2323e-05 5.47689e-06 1.36922e-06 0 0 2.87586e-05 0.000115035 0.000258828 0.000460138 0.000718966 0.00103531 0.00140917 0.00184055 0.00233793 0.00290978 0.00355611 0.00427691 0.00507219 0.00594194 0.00688617 0.00790488 0.00897089 0.0100571 0.0111634 0.0122899 0.0134365 0.0146033 0.0157902 0.0169973 0.0181982 0.0193666 0.0205024 0.0216057 0.0226765 0.0237148 0.0247206 0.0256938 0.0266208 0.0274879 0.0282951 0.0290424 0.0297298 0.0303573 0.0309249 0.0314326 0.0318783 0.0322599 0.0325774 0.0328308 0.0330202 0.0331454 0.0332066 0.0332037 0.0331428 0.0330303 0.032866 0.03265 0.0323824 0.0320629 0.0316918 0.031269 0.0308047 0.0303094 0.029783 0.0292254 0.0286368 0.0280171 0.0273663 0.0266844 0.0259819 0.0252695 0.0245472 0.0238149 0.0230726 0.0223204 0.0215582 0.020786 0.0200122 0.0192447 0.0184837 0.0177291 0.016981 0.0162394 0.0155041 0.0147754 0.0140579 0.0133565 0.0126711 0.0120019 0.0113487 0.0107117 0.0100907 0.00948583 0.00889886 0.00833159 0.00778404 0.0072562 0.00674807 0.00625966 0.00579096 0.00534197 0.00491266 0.004503 0.00411297 0.00374259 0.00339185 0.00306075 0.00274929 0.00245747 0.0021845 0.00192959 0.00169273 0.00147391 0.00127316 0.00109045 0.000925801 0.000779202 0.000648439 0.000531296 0.000427773 0.00033787 0.000261587 0.000198923 0.00014988 0.000114456 8.76302e-05 6.43814e-05 4.47093e-05 2.86139e-05 1.60953e-05 7.15348e-06 1.78837e-06 0 0 3.6578e-05 0.000146312 0.000329202 0.000585249 0.000914451 0.00131681 0.00179232 0.00234099 0.00297321 0.00369937 0.00451946 0.00543349 0.00644146 0.00754337 0.00873921 0.010029 0.0113784 0.0127531 0.0141531 0.0155784 0.0170291 0.018505 0.0200062 0.0215328 0.0230514 0.0245289 0.0259653 0.0273606 0.0287148 0.0300279 0.0312999 0.0325308 0.0337032 0.0348 0.0358211 0.0367665 0.0376361 0.0384301 0.0391485 0.0397911 0.0403553 0.0408385 0.0412408 0.0415619 0.0418021 0.0419612 0.0420393 0.0420364 0.0419603 0.0418187 0.0416118 0.0413394 0.0410015 0.0405983 0.0401296 0.0395955 0.039009 0.0383831 0.0377179 0.0370132 0.0362692 0.0354858 0.034663 0.0338008 0.0329126 0.0320118 0.0310982 0.0301721 0.0292332 0.0282817 0.0273175 0.0263407 0.0253616 0.0243906 0.0234277 0.0224728 0.0215261 0.0205875 0.0196569 0.0187345 0.0178263 0.0169384 0.0160707 0.0152235 0.0143965 0.0135898 0.0128035 0.0120374 0.011294 0.0105755 0.00988193 0.00921328 0.00856954 0.00795073 0.00735684 0.00678786 0.00624377 0.00572452 0.00523011 0.00476053 0.0043158 0.0038959 0.00350085 0.00313063 0.00278425 0.00246068 0.00215994 0.00188202 0.00162692 0.00139465 0.00118519 0.000998558 0.000831961 0.000682616 0.000550523 0.000435681 0.000338091 0.000257754 0.000194668 0.000148833 0.000113951 8.37188e-05 5.8138e-05 3.72083e-05 2.09297e-05 9.30208e-06 2.32552e-06 0 0 4.56569e-05 0.000182628 0.000410912 0.000730511 0.00114142 0.00164365 0.00223719 0.00292204 0.0037101 0.00461324 0.00563147 0.00676478 0.00801318 0.00937667 0.0108552 0.0124489 0.0141155 0.0158127 0.0175406 0.0192992 0.0210885 0.0229085 0.0247591 0.0266405 0.0285119 0.0303327 0.0321028 0.0338224 0.0354914 0.0371098 0.0386776 0.0401948 0.0416401 0.0429924 0.0442515 0.0454174 0.0464903 0.0474701 0.0483567 0.0491502 0.0498473 0.0504446 0.0509421 0.0513398 0.0516378 0.0518359 0.0519343 0.0519329 0.0518413 0.051669 0.051416 0.0510823 0.0506679 0.0501728 0.049597 0.0489406 0.0482194 0.0474496 0.0466311 0.0457638 0.0448479 0.0438833 0.04287 0.041808 0.0407137 0.0396037 0.0384778 0.0373362 0.0361787 0.0350055 0.0338165 0.0326117 0.0314039 0.0302059 0.0290177 0.0278394 0.0266709 0.0255122 0.0243633 0.0232242 0.0221026 0.0210058 0.019934 0.0188872 0.0178653 0.0168683 0.0158963 0.0149493 0.01403 0.0131415 0.0122836 0.0114564 0.0106599 0.00989411 0.00915899 0.00845455 0.00778076 0.00713759 0.00652502 0.00594307 0.00539173 0.004871 0.00438088 0.00392137 0.00349122 0.00308917 0.00271523 0.00236938 0.00205164 0.001762 0.00150046 0.00126702 0.00105831 0.000870926 0.000704883 0.000560179 0.000436812 0.000334783 0.000254092 0.000194738 0.000149096 0.00010954 7.60696e-05 4.86846e-05 2.73851e-05 1.21711e-05 3.04279e-06 0 0 5.59953e-05 0.000223981 0.000503958 0.000895925 0.00139988 0.00201583 0.00274377 0.0035837 0.00454859 0.00565139 0.00689213 0.00827078 0.00978736 0.0114419 0.0132343 0.0151646 0.0171821 0.0192358 0.0213259 0.0234522 0.0256148 0.0278137 0.030049 0.0323205 0.0345796 0.0367778 0.0389149 0.0409911 0.0430063 0.0449605 0.0468537 0.0486859 0.0504315 0.052065 0.0535863 0.0549954 0.0562923 0.0574771 0.0585497 0.0595101 0.0603542 0.061078 0.0616814 0.0621645 0.0625272 0.0627696 0.0628915 0.0628932 0.0627858 0.062581 0.0622787 0.0618788 0.0613814 0.0607865 0.0600941 0.0593042 0.058436 0.0575088 0.0565225 0.0554772 0.0543729 0.0532096 0.0519872 0.0507058 0.0493852 0.0480452 0.0466859 0.0453072 0.0439092 0.0424918 0.041055 0.039599 0.038139 0.0366906 0.0352539 0.0338288 0.0324153 0.0310134 0.0296232 0.0282446 0.0268867 0.0255589 0.024261 0.0229931 0.0217552 0.0205473 0.0193694 0.0182214 0.0171069 0.0160295 0.0149891 0.0139856 0.0130192 0.0120898 0.0111974 0.010342 0.00952364 0.0087422 0.00799772 0.0072902 0.00661963 0.00598603 0.00538938 0.00482969 0.00430543 0.00381506 0.00335859 0.002936 0.00254731 0.00219252 0.00187161 0.0015846 0.00132747 0.00109623 0.000890856 0.000711363 0.000557748 0.000430011 0.000328152 0.00025217 0.000193068 0.000141846 9.85041e-05 6.30426e-05 3.54615e-05 1.57607e-05 3.94016e-06 0 0 6.75932e-05 0.000270373 0.000608338 0.00108149 0.00168983 0.00243335 0.00331206 0.00432596 0.00548868 0.00681383 0.00830144 0.00995149 0.011764 0.0137389 0.0158763 0.0181761 0.0205783 0.0230225 0.0255089 0.0280374 0.030608 0.0332208 0.0358757 0.0385727 0.0412547 0.0438643 0.0464017 0.0488667 0.0512595 0.05358 0.0558282 0.0580041 0.0600774 0.0620178 0.0638255 0.0655002 0.0670421 0.0684511 0.0697273 0.0708706 0.0718761 0.0727388 0.0734588 0.074036 0.0744704 0.0747621 0.074911 0.0749171 0.0747939 0.0745548 0.0741998 0.0737289 0.0731421 0.0724394 0.0716208 0.0706864 0.0696587 0.0685607 0.0673923 0.0661535 0.0648443 0.0634647 0.0620147 0.0604943 0.058927 0.0573364 0.0557225 0.0540852 0.0524245 0.0507405 0.0490332 0.0473025 0.0455669 0.0438448 0.0421362 0.040441 0.0387594 0.0370913 0.0354366 0.0337955 0.0321788 0.0305975 0.0290517 0.0275412 0.0260662 0.0246267 0.0232225 0.0218538 0.0205247 0.0192396 0.0179983 0.0168009 0.0156474 0.0145378 0.0134721 0.0124503 0.0114724 0.0105384 0.0096482 0.00880192 0.00799952 0.007241 0.00652636 0.0058556 0.00522687 0.00463835 0.00409001 0.00358188 0.00311394 0.00268619 0.00229864 0.00195129 0.00163947 0.00135852 0.00110844 0.000889234 0.0007009 0.000543439 0.000416848 0.00032113 0.000245865 0.000180636 0.000125441 8.02825e-05 4.51589e-05 2.00706e-05 5.01766e-06 0 0 8.04505e-05 0.000321802 0.000724055 0.00128721 0.00201126 0.00289622 0.00394207 0.00514883 0.00653037 0.00810056 0.00985941 0.0118069 0.0139431 0.0162679 0.0187813 0.0214835 0.024304 0.0271728 0.0300897 0.0330548 0.0360681 0.0391296 0.0422393 0.0453972 0.048537 0.0515922 0.054563 0.0574492 0.060251 0.0629682 0.065601 0.0681493 0.0705777 0.072851 0.0749691 0.076932 0.0787397 0.0803922 0.0818896 0.0832318 0.0844129 0.085427 0.0862741 0.0869543 0.0874674 0.0878135 0.0879926 0.0880048 0.0878655 0.0875904 0.0871794 0.0866326 0.08595 0.0851315 0.0841772 0.0830871 0.0818876 0.0806054 0.0792404 0.0777926 0.076262 0.0746486 0.0729524 0.0711735 0.0693393 0.0674773 0.0655876 0.0636701 0.0617248 0.0597518 0.057751 0.0557224 0.0536877 0.0516684 0.0496645 0.0476761 0.0457032 0.0437457 0.0418036 0.039877 0.0379787 0.0361217 0.034306 0.0325315 0.0307983 0.0291064 0.0274558 0.0258464 0.0242834 0.0227717 0.0213113 0.0199022 0.0185445 0.0172381 0.0159831 0.0147794 0.013627 0.0125261 0.0114765 0.0104782 0.00953138 0.00863591 0.00779181 0.00699908 0.00625555 0.00555903 0.00490951 0.00430701 0.00375151 0.00324303 0.00278155 0.00236708 0.00199428 0.0016578 0.00135764 0.00109379 0.000866268 0.000675065 0.000520181 0.000401617 0.000307488 0.000225909 0.000156882 0.000100404 5.64774e-05 2.51011e-05 6.27526e-06 0 0 9.45673e-05 0.000378269 0.000851106 0.00151308 0.00236418 0.00340442 0.0046338 0.00605231 0.00767366 0.00951157 0.011566 0.013837 0.0163246 0.0190287 0.0219494 0.0250866 0.0283593 0.0316865 0.0350682 0.0385044 0.0419951 0.0455402 0.0491399 0.052794 0.0564266 0.0599615 0.0633989 0.0667386 0.0699808 0.0731253 0.0761722 0.0791216 0.0819325 0.0845644 0.0870171 0.0892907 0.0913851 0.0933004 0.0950366 0.0965937 0.0979647 0.0991426 0.100127 0.100919 0.101518 0.101924 0.102137 0.102156 0.102001 0.101688 0.101218 0.10059 0.0998051 0.0988628 0.0977633 0.0965063 0.0951227 0.0936428 0.0920667 0.0903944 0.088626 0.0867613 0.0848005 0.0827434 0.0806219 0.0784679 0.0762812 0.0740619 0.07181 0.0695255 0.0672083 0.0648586 0.0625013 0.0601614 0.057839 0.0555341 0.0532466 0.0509766 0.0487241 0.0464891 0.0442865 0.0421315 0.040024 0.037964 0.0359515 0.0339866 0.0320692 0.0301994 0.0283829 0.0266258 0.0249281 0.0232896 0.0217105 0.0201908 0.0187303 0.0173293 0.0159876 0.0147053 0.0134825 0.0123191 0.0112152 0.0101708 0.00918573 0.00826015 0.00739146 0.0065771 0.00581708 0.00511139 0.00446004 0.00386302 0.00332034 0.00283199 0.00239192 0.00199407 0.00163844 0.00132504 0.00105385 0.00082489 0.00063815 0.000493631 0.000377936 0.000277667 0.000192825 0.000123408 6.94169e-05 3.08519e-05 7.71298e-06 0 0 0.000109944 0.000439775 0.000989493 0.0017591 0.00274859 0.00395797 0.00538724 0.00703639 0.00891856 0.0110469 0.0134213 0.0160419 0.0189086 0.0220214 0.0253804 0.0289855 0.0327442 0.0365639 0.0404446 0.0443862 0.0483889 0.0524526 0.0565773 0.060763 0.0649234 0.0689722 0.0729094 0.0767349 0.0804488 0.0840512 0.0875418 0.0909209 0.0941418 0.097158 0.0999695 0.102576 0.104978 0.107176 0.109168 0.110956 0.112531 0.113886 0.115019 0.115931 0.116623 0.117093 0.117343 0.117371 0.117199 0.116847 0.116314 0.115601 0.114707 0.113633 0.112379 0.110944 0.109364 0.107673 0.105871 0.103959 0.101936 0.0998028 0.0975587 0.095204 0.092775 0.0903081 0.0878033 0.0852606 0.0826801 0.0800616 0.0774053 0.0747111 0.0720077 0.0693238 0.0666596 0.0640149 0.0613897 0.0587842 0.0561982 0.0536317 0.0511022 0.0486268 0.0462056 0.0438386 0.0415258 0.0392672 0.0370628 0.0349125 0.0328233 0.030802 0.0288486 0.0269631 0.0251455 0.0233957 0.0217139 0.0200999 0.018554 0.0170761 0.0156663 0.0143246 0.013051 0.0118455 0.0107081 0.00963879 0.0086346 0.00769257 0.00681272 0.00599504 0.00523952 0.00454618 0.00391501 0.00334601 0.00283238 0.00236733 0.00195086 0.00158297 0.00126365 0.000992914 0.000770755 0.000597172 0.00045721 0.00033591 0.00023327 0.000149293 8.39774e-05 3.73233e-05 9.33082e-06 0 0 0.000126579 0.000506318 0.00113922 0.00202527 0.00316449 0.00455686 0.00620239 0.00810109 0.0102651 0.0127064 0.0154252 0.0184214 0.021695 0.025246 0.0290744 0.0331802 0.0374586 0.0418047 0.0462186 0.0507003 0.0552497 0.0598668 0.0645517 0.0693043 0.0740276 0.0786243 0.0830945 0.0874381 0.0916552 0.0957458 0.0997098 0.103547 0.107206 0.110632 0.113826 0.116789 0.119519 0.122018 0.124285 0.12632 0.128113 0.129656 0.130948 0.13199 0.132781 0.133321 0.133611 0.13365 0.133461 0.133068 0.132469 0.131665 0.130657 0.129443 0.128024 0.126401 0.124611 0.122696 0.120654 0.118487 0.116193 0.113773 0.111227 0.108555 0.105798 0.102998 0.100154 0.0972663 0.0943351 0.0913603 0.0883419 0.0852798 0.0822069 0.0791557 0.0761262 0.0731185 0.0701325 0.0671683 0.0642258 0.061305 0.0584257 0.0556077 0.052851 0.0501555 0.0475212 0.0449482 0.0424365 0.039986 0.0376046 0.0353003 0.0330729 0.0309226 0.0288493 0.026853 0.0249337 0.0230914 0.0213263 0.0196384 0.0180279 0.0164947 0.0150388 0.0136603 0.012359 0.011135 0.00998497 0.00890544 0.00789643 0.00695793 0.00608996 0.0052925 0.00456556 0.00390914 0.00331567 0.00277759 0.00229489 0.00186759 0.00149567 0.00117914 0.000917996 0.000712241 0.00054531 0.000400636 0.000278219 0.00017806 0.000100159 4.45151e-05 1.11288e-05 0 0 0.000144132 0.000576528 0.00129719 0.00230611 0.0036033 0.00518875 0.00706247 0.00922445 0.0116855 0.0144563 0.017537 0.0209275 0.0246278 0.0286379 0.0329579 0.0375876 0.0424096 0.0473061 0.0522772 0.0573228 0.0624429 0.0676376 0.0729069 0.0782507 0.0835607 0.0887287 0.0937545 0.0986382 0.10338 0.107979 0.112437 0.116752 0.120866 0.12472 0.128314 0.131647 0.134721 0.137534 0.140087 0.142379 0.144401 0.146141 0.1476 0.148777 0.149673 0.150287 0.15062 0.150671 0.150466 0.15003 0.149364 0.148467 0.147339 0.145981 0.144392 0.142572 0.140566 0.138417 0.136126 0.133693 0.131118 0.1284 0.12554 0.122538 0.11944 0.116292 0.113095 0.109848 0.106551 0.103205 0.0998092 0.0963636 0.0929052 0.0894707 0.0860602 0.0826736 0.0793109 0.0759721 0.0726573 0.0693663 0.0661217 0.0629455 0.059838 0.056799 0.0538286 0.0509268 0.0480935 0.0453288 0.0426416 0.0400409 0.0375267 0.035099 0.0327577 0.030503 0.0283347 0.026253 0.0242579 0.0223497 0.0205284 0.0187941 0.0171466 0.015586 0.0141124 0.0127256 0.0114219 0.0101974 0.00905212 0.00798602 0.00699913 0.00609143 0.00526295 0.00451366 0.00383525 0.00321937 0.00266604 0.00217524 0.00174699 0.00138127 0.0010781 0.000837462 0.000641181 0.000471072 0.000327133 0.000209365 0.000117768 5.23413e-05 1.30853e-05 0 0 0.000162259 0.000649034 0.00146033 0.00259614 0.00405647 0.00584131 0.00795067 0.0103846 0.0131521 0.0162625 0.0197158 0.0235119 0.0276508 0.0321326 0.0369572 0.0421247 0.0475042 0.0529649 0.0585069 0.06413 0.0698344 0.07562 0.0814869 0.0874349 0.0933445 0.0990961 0.10469 0.110125 0.115403 0.120522 0.125483 0.130286 0.134866 0.139157 0.143159 0.146871 0.150295 0.153429 0.156275 0.158831 0.161087 0.163029 0.164659 0.165975 0.166979 0.167669 0.168047 0.168111 0.167891 0.167413 0.166679 0.165688 0.16444 0.162935 0.161173 0.159155 0.156928 0.154543 0.151998 0.149295 0.146433 0.143412 0.140233 0.136894 0.133448 0.129946 0.126388 0.122775 0.119105 0.11538 0.111598 0.107761 0.103909 0.100083 0.0962826 0.0925086 0.0887607 0.0850388 0.0813429 0.0776731 0.0740544 0.0705116 0.0670447 0.0636538 0.0603389 0.0571 0.053937 0.05085 0.0478491 0.0449443 0.0421356 0.039423 0.0368065 0.0342862 0.031862 0.029534 0.0273023 0.0251673 0.023129 0.0211873 0.0193423 0.017594 0.0159424 0.0143874 0.0129248 0.0115502 0.0102637 0.00906522 0.00795481 0.00693244 0.00599813 0.00515186 0.00438459 0.00368723 0.0030598 0.00250229 0.0020147 0.00159703 0.00124928 0.000971457 0.000743772 0.000546445 0.000379476 0.000242864 0.000136611 6.07161e-05 1.5179e-05 0 0 0.000180959 0.000723837 0.00162863 0.00289535 0.00452398 0.00651453 0.008867 0.0115814 0.014665 0.018125 0.0219616 0.0261746 0.0307641 0.03573 0.0410725 0.0467914 0.0527424 0.0587812 0.0649077 0.071122 0.0774241 0.083814 0.0902916 0.0968569 0.103379 0.109727 0.1159 0.121899 0.127723 0.133373 0.138849 0.14415 0.149205 0.153942 0.15836 0.16246 0.166242 0.169705 0.172849 0.175676 0.17817 0.18032 0.182125 0.183584 0.184698 0.185468 0.185892 0.185971 0.185736 0.185217 0.184415 0.183329 0.181959 0.180306 0.178369 0.176149 0.173699 0.171073 0.168271 0.165293 0.162139 0.158809 0.155304 0.151623 0.147822 0.143959 0.140034 0.136047 0.131997 0.127884 0.123709 0.119472 0.115218 0.110992 0.106794 0.102624 0.0984819 0.0943683 0.0902828 0.0862254 0.0822239 0.0783058 0.0744711 0.0707199 0.0670522 0.0634679 0.0599671 0.0565498 0.0532271 0.0500103 0.0468995 0.0438946 0.0409957 0.0382027 0.0355156 0.0329344 0.0304595 0.0280912 0.0258295 0.0236745 0.021626 0.0196842 0.0178489 0.0161203 0.0144935 0.0129638 0.0115311 0.0101955 0.008957 0.00781552 0.00677111 0.00582375 0.00496369 0.00418117 0.00347618 0.00284872 0.0022988 0.00182641 0.00143155 0.00111423 0.000853081 0.000626754 0.000435246 0.000278557 0.000156688 6.96393e-05 1.74098e-05 0 0 0.000200234 0.000800936 0.0018021 0.00320374 0.00500585 0.00720842 0.00981146 0.012815 0.0162241 0.0200439 0.0242744 0.0289156 0.0339676 0.0394302 0.0453036 0.0515876 0.0581242 0.0647549 0.0714797 0.0782988 0.085212 0.0922194 0.099321 0.106517 0.113664 0.12062 0.127385 0.133959 0.140342 0.146534 0.152535 0.158344 0.163884 0.169076 0.173919 0.178414 0.182561 0.18636 0.18981 0.192913 0.195652 0.198013 0.199997 0.201603 0.202832 0.203683 0.204156 0.204251 0.204002 0.203442 0.202572 0.20139 0.199897 0.198094 0.19598 0.193554 0.190877 0.188007 0.184943 0.181686 0.178235 0.174591 0.170754 0.166724 0.162563 0.158332 0.154032 0.149664 0.145226 0.140719 0.136142 0.131497 0.126832 0.122198 0.117593 0.113019 0.108475 0.103961 0.0994768 0.0950232 0.0906302 0.0863282 0.0821172 0.0779973 0.0739684 0.0700305 0.0661837 0.0624279 0.0587756 0.0552391 0.0518186 0.0485139 0.0453252 0.0422523 0.0392953 0.0364543 0.0337295 0.0311215 0.0286301 0.0262555 0.0239977 0.0218565 0.0198321 0.0179244 0.0161282 0.0144382 0.0128545 0.011377 0.0100057 0.00874067 0.00758188 0.00652932 0.00557256 0.00470118 0.00391518 0.00321455 0.00259929 0.00206941 0.00162491 0.00126578 0.00096911 0.000711999 0.000494444 0.000316444 0.000178 7.9111e-05 1.97777e-05 0 0 0.000220083 0.00088033 0.00198074 0.00352132 0.00550206 0.00792297 0.010784 0.0140853 0.0178294 0.022019 0.0266542 0.031735 0.0372613 0.0432332 0.0496506 0.0565136 0.0636495 0.070886 0.0782229 0.0856603 0.0931982 0.100836 0.108575 0.116415 0.1242 0.131777 0.139146 0.146307 0.153259 0.160004 0.16654 0.172867 0.178902 0.184558 0.189835 0.194733 0.199253 0.203395 0.207158 0.210542 0.213531 0.21611 0.218277 0.220034 0.221379 0.222314 0.222838 0.222951 0.222689 0.222088 0.221149 0.219871 0.218254 0.216299 0.214004 0.211371 0.208464 0.205345 0.202015 0.198474 0.194722 0.190758 0.186584 0.182198 0.177669 0.173064 0.168383 0.163626 0.158792 0.153883 0.148897 0.143835 0.138752 0.1337 0.128681 0.123694 0.118739 0.113816 0.108925 0.104066 0.0992733 0.0945788 0.089983 0.0854859 0.0810875 0.0767878 0.0725868 0.0684845 0.0644946 0.0606307 0.0568928 0.0532809 0.049795 0.0464352 0.0432014 0.0400936 0.0371123 0.034258 0.0315307 0.0289305 0.0264573 0.0241111 0.0218919 0.0197997 0.0178288 0.0159734 0.0142337 0.0126095 0.0111009 0.0097079 0.00843045 0.00726857 0.0062112 0.00524727 0.0043768 0.00359977 0.00291618 0.00232604 0.00182935 0.0014261 0.00109186 0.000802181 0.00055707 0.000356525 0.000200545 8.91312e-05 2.22828e-05 0 0 0.000240505 0.000962021 0.00216455 0.00384808 0.00601263 0.00865819 0.0117848 0.0153923 0.0194809 0.0240505 0.0291011 0.0346327 0.0406453 0.0471389 0.0541135 0.0615691 0.0693185 0.0771745 0.0851372 0.0932065 0.101382 0.109665 0.118054 0.12655 0.134986 0.143197 0.151182 0.158941 0.166474 0.173782 0.180864 0.18772 0.194259 0.200388 0.206108 0.211418 0.216318 0.220809 0.224891 0.228563 0.231808 0.234608 0.236964 0.238875 0.240341 0.241362 0.241938 0.24207 0.241796 0.241155 0.240147 0.238771 0.237029 0.23492 0.232443 0.2296 0.226458 0.223087 0.219487 0.215657 0.211598 0.20731 0.202792 0.198045 0.193142 0.188156 0.183086 0.177933 0.172696 0.167377 0.161974 0.156488 0.150977 0.1455 0.140057 0.134649 0.129274 0.123934 0.118627 0.113355 0.108153 0.103058 0.0980685 0.0931858 0.0884096 0.0837398 0.0791765 0.0747196 0.0703841 0.0661849 0.062122 0.0581955 0.0544052 0.0507512 0.0472336 0.0438523 0.0406078 0.0375009 0.0345314 0.0316994 0.0290048 0.0264478 0.0240282 0.0217461 0.0195953 0.0175695 0.0156688 0.0138932 0.0122427 0.0107172 0.00931681 0.0080415 0.0068796 0.00581944 0.00486103 0.00400437 0.00324946 0.00259629 0.00204487 0.0015952 0.00122132 0.000897298 0.000623124 0.000398799 0.000224325 9.96998e-05 2.4925e-05 0 0 0.000261502 0.00104601 0.00235352 0.00418403 0.00653755 0.00941407 0.0128136 0.0167361 0.0211787 0.0261383 0.031615 0.0376087 0.0441195 0.0511474 0.0586923 0.0667542 0.075131 0.0836205 0.0922227 0.100938 0.109765 0.118705 0.127758 0.136924 0.146024 0.15488 0.163493 0.171862 0.179988 0.18787 0.195508 0.202903 0.209955 0.216567 0.222738 0.228467 0