<?xml version="1.0"?> 
<VTKFile type="StructuredGrid" version="0.1"> 
<StructuredGrid WholeExtent="0 128 0 128 0 0"> 
<Piece Extent="0 128 0 128 0 0"> 
<PointData>
<DataArray type="Float32" Name="u" format="ascii" NumberOfComponents="1"> 
0 0 0 0 0 0 0 0 0 0 0 0 0 0 0 0 0 0 0 0 0 0 0 0 0 0 0 0 0 0 0 0 0 0 0 0 0 0 0 0 0 0 0 0 0 0 0 0 0 0 0 0 0 0 0 0 0 0 0 0 0 0 0 0 0 0 0 0 0 0 0 0 0 0 0 0 0 0 0 0 0 0 0 0 0 0 0 0 0 0 0 0 0 0 0 0 0 0 0 0 0 0 0 0 0 0 0 0 0 0 0 0 0 0 0 0 0 0 0 0 0 0 0 0 0 0 0 0 0 0 4.00294e-07 1.60117e-06 3.60264e-06 6.4047e-06 1.00073e-05 1.44106e-05 1.96144e-05 2.56188e-05 3.25411e-05 4.04987e-05 4.94916e-05 5.95198e-05 7.05832e-05 8.26819e-05 9.58159e-05 0.000109985 0.000124813 0.000139923 0.000155315 0.000170989 0.000186945 0.000203183 0.000219703 0.000236505 0.000253226 0.000269501 0.00028533 0.000300714 0.000315652 0.000330145 0.000344193 0.000357795 0.000370763 0.000382908 0.00039423 0.00040473 0.000414408 0.000423263 0.000431295 0.000438504 0.000444862 0.000450337 0.000454931 0.000458643 0.000461473 0.000463422 0.000464488 0.000464673 0.000464059 0.00046273 0.000460685 0.000457925 0.000454449 0.000450257 0.00044535 0.000439728 0.000433529 0.000426893 0.000419819 0.000412308 0.00040436 0.000395975 0.000387152 0.000377893 0.000368338 0.000358633 0.000348776 0.000338767 0.000328608 0.000318297 0.000307834 0.00029722 0.000286567 0.000275985 0.000265476 0.000255038 0.000244673 0.000234379 0.000224158 0.000214008 0.000203998 0.000194193 0.000184595 0.000175203 0.000166017 0.000157038 0.000148264 0.000139697 0.000131364 0.000123292 0.000115481 0.000107932 0.000100645 9.3619e-05 8.68545e-05 8.03516e-05 7.4114e-05 6.81458e-05 6.24468e-05 5.70172e-05 5.18569e-05 4.69658e-05 4.23441e-05 3.79917e-05 3.39033e-05 3.00738e-05 2.65031e-05 2.31912e-05 2.01381e-05 1.73438e-05 1.48083e-05 1.25317e-05 1.04878e-05 8.6508e-06 7.02056e-06 5.59712e-06 4.38048e-06 3.37064e-06 2.5676e-06 1.97136e-06 1.50932e-06 1.10889e-06 7.70061e-07 4.92839e-07 2.77222e-07 1.2321e-07 3.08024e-08 0 0 1.60117e-06 6.4047e-06 1.44106e-05 2.56188e-05 4.00294e-05 5.76423e-05 7.84576e-05 0.000102475 0.000130165 0.000161995 0.000197966 0.000238079 0.000282333 0.000330728 0.000383263 0.00043994 0.000499252 0.000559692 0.00062126 0.000683956 0.00074778 0.000812732 0.000878813 0.000946021 0.0010129 0.001078 0.00114132 0.00120286 0.00126261 0.00132058 0.00137677 0.00143118 0.00148305 0.00153163 0.00157692 0.00161892 0.00165763 0.00169305 0.00172518 0.00175402 0.00177945 0.00180135 0.00181973 0.00183457 0.00184589 0.00185369 0.00185795 0.00185869 0.00185624 0.00185092 0.00184274 0.0018317 0.0018178 0.00180103 0.0017814 0.00175891 0.00173412 0.00170757 0.00167928 0.00164923 0.00161744 0.0015839 0.00154861 0.00151157 0.00147335 0.00143453 0.0013951 0.00135507 0.00131443 0.00127319 0.00123134 0.00118888 0.00114627 0.00110394 0.0010619 0.00102015 0.00097869 0.000937516 0.00089663 0.000856032 0.00081599 0.000776773 0.00073838 0.000700813 0.00066407 0.000628151 0.000593057 0.000558788 0.000525455 0.000493167 0.000461925 0.000431729 0.00040258 0.000374476 0.000347418 0.000321406 0.000296456 0.000272583 0.000249787 0.000228069 0.000207427 0.000187863 0.000169376 0.000151967 0.000135613 0.000120295 0.000106012 9.27647e-05 8.05523e-05 6.93752e-05 5.92333e-05 5.01267e-05 4.19514e-05 3.46032e-05 2.80822e-05 2.23885e-05 1.75219e-05 1.34825e-05 1.02704e-05 7.88543e-06 6.03728e-06 4.43555e-06 3.08024e-06 1.97136e-06 1.10889e-06 4.92839e-07 1.2321e-07 0 0 3.60264e-06 1.44106e-05 3.24238e-05 5.76423e-05 9.00661e-05 0.000129695 0.00017653 0.000230569 0.00029287 0.000364489 0.000445425 0.000535678 0.000635249 0.000744137 0.000862343 0.000989866 0.00112332 0.00125931 0.00139783 0.0015389 0.0016825 0.00182865 0.00197733 0.00212855 0.00227903 0.00242551 0.00256797 0.00270643 0.00284087 0.00297131 0.00309773 0.00322015 0.00333686 0.00344617 0.00354807 0.00364257 0.00372967 0.00380936 0.00388165 0.00394654 0.00400376 0.00405304 0.00409438 0.00412779 0.00415326 0.0041708 0.0041804 0.00418206 0.00417653 0.00416457 0.00414617 0.00412132 0.00409004 0.00405232 0.00400815 0.00395755 0.00390176 0.00384203 0.00377837 0.00371078 0.00363924 0.00356378 0.00348437 0.00340103 0.00331505 0.0032277 0.00313898 0.00304891 0.00295747 0.00286467 0.00277051 0.00267498 0.0025791 0.00248387 0.00238928 0.00229534 0.00220205 0.00210941 0.00201742 0.00192607 0.00183598 0.00174774 0.00166136 0.00157683 0.00149416 0.00141334 0.00133438 0.00125727 0.00118227 0.00110963 0.00103933 0.000971391 0.000905804 0.000842571 0.000781691 0.000723164 0.000667026 0.000613312 0.000562021 0.000513155 0.000466712 0.000422692 0.000381097 0.000341925 0.00030513 0.000270664 0.000238528 0.000208721 0.000181243 0.000156094 0.000133275 0.000112785 9.43906e-05 7.78572e-05 6.3185e-05 5.0374e-05 3.94243e-05 3.03357e-05 2.31084e-05 1.77422e-05 1.35839e-05 9.97999e-06 6.93055e-06 4.43555e-06 2.495e-06 1.10889e-06 2.77222e-07 0 0 6.4047e-06 2.56188e-05 5.76423e-05 0.000102475 0.000160117 0.000230569 0.00031383 0.000409901 0.000520658 0.00064798 0.000791866 0.000952316 0.00112933 0.00132291 0.00153305 0.00175976 0.00199701 0.00223877 0.00248504 0.00273582 0.00299112 0.00325093 0.00351525 0.00378409 0.00405161 0.00431201 0.00456528 0.00481142 0.00505044 0.00528233 0.00550708 0.00572471 0.0059322 0.00612652 0.00630769 0.00647569 0.00663053 0.0067722 0.00690072 0.00701607 0.00711779 0.0072054 0.0072789 0.00733829 0.00738358 0.00741475 0.00743182 0.00743477 0.00742495 0.00740368 0.00737096 0.0073268 0.00727118 0.00720412 0.0071256 0.00703564 0.00693646 0.00683028 0.00671711 0.00659694 0.00646977 0.0063356 0.00619444 0.00604628 0.00589341 0.00573812 0.00558041 0.00542028 0.00525772 0.00509275 0.00492535 0.00475553 0.00458507 0.00441576 0.00424761 0.00408061 0.00391476 0.00375006 0.00358652 0.00342413 0.00326396 0.00310709 0.00295352 0.00280325 0.00265628 0.0025126 0.00237223 0.00223515 0.00210182 0.00197267 0.0018477 0.00172692 0.00161032 0.0014979 0.00138967 0.00128563 0.00118582 0.00109033 0.000999149 0.000912275 0.00082971 0.000751453 0.000677506 0.000607867 0.000542453 0.000481181 0.000424049 0.000371059 0.000322209 0.000277501 0.000236933 0.000200507 0.000167805 0.000138413 0.000112329 8.95539e-05 7.00876e-05 5.39302e-05 4.10815e-05 3.15417e-05 2.41491e-05 1.77422e-05 1.2321e-05 7.88543e-06 4.43555e-06 1.97136e-06 4.92839e-07 0 0 1.00073e-05 4.00294e-05 9.00661e-05 0.000160117 0.000250184 0.000360264 0.00049036 0.00064047 0.000813528 0.00101247 0.00123729 0.00148799 0.00176458 0.00206705 0.0023954 0.00274963 0.00312033 0.00349807 0.00388287 0.00427472 0.00467362 0.00507958 0.00549258 0.00591263 0.00633064 0.00673752 0.00713325 0.00751785 0.00789131 0.00825363 0.00860482 0.00894487 0.00926906 0.00957269 0.00985576 0.0101183 0.0103602 0.0105816 0.0107824 0.0109626 0.0111215 0.0112584 0.0113733 0.0114661 0.0115368 0.0115855 0.0116122 0.0116168 0.0116015 0.0115683 0.0115171 0.0114481 0.0113612 0.0112564 0.0111338 0.0109932 0.0108382 0.0106723 0.0104955 0.0103077 0.010109 0.00989938 0.00967881 0.00944731 0.00920846 0.00896582 0.0087194 0.00846919 0.00821519 0.00795742 0.00769585 0.00743051 0.00716417 0.00689963 0.00663689 0.00637595 0.00611681 0.00585948 0.00560394 0.0053502 0.00509994 0.00485483 0.00461488 0.00438008 0.00415043 0.00392594 0.00370661 0.00349243 0.00328409 0.00308229 0.00288703 0.00269831 0.00251612 0.00234047 0.00217136 0.00200879 0.00185285 0.00170364 0.00156117 0.00142543 0.00129642 0.00117415 0.0010586 0.000949792 0.000847584 0.000751845 0.000662577 0.000579779 0.000503452 0.000433595 0.000370208 0.000313292 0.000262196 0.00021627 0.000175514 0.000139928 0.000109512 8.42659e-05 6.41899e-05 4.92839e-05 3.7733e-05 2.77222e-05 1.92515e-05 1.2321e-05 6.93055e-06 3.08024e-06 7.70061e-07 0 0 1.44106e-05 5.76423e-05 0.000129695 0.000230569 0.000360264 0.000518781 0.000706118 0.000922277 0.00117148 0.00145795 0.0017817 0.00214271 0.002541 0.00297655 0.00344937 0.00395946 0.00449327 0.00503723 0.00559134 0.0061556 0.00673002 0.00731459 0.00790931 0.00851419 0.00911613 0.00970202 0.0102719 0.0108257 0.0113635 0.0118852 0.0123909 0.0128806 0.0133475 0.0137847 0.0141923 0.0145703 0.0149187 0.0152375 0.0155266 0.0157862 0.016015 0.0162121 0.0163775 0.0165112 0.016613 0.0166832 0.0167216 0.0167282 0.0167061 0.0166583 0.0165847 0.0164853 0.0163602 0.0162093 0.0160326 0.0158302 0.015607 0.0153681 0.0151135 0.0148431 0.014557 0.0142551 0.0139375 0.0136041 0.0132602 0.0129108 0.0125559 0.0121956 0.0118299 0.0114587 0.011082 0.0106999 0.0103164 0.00993547 0.00955712 0.00918137 0.00880821 0.00843765 0.00806967 0.00770429 0.00734391 0.00699096 0.00664542 0.00630731 0.00597663 0.00565336 0.00533752 0.0050291 0.00472909 0.0044385 0.00415733 0.00388557 0.00362322 0.00337028 0.00312676 0.00289266 0.0026681 0.00245325 0.00224809 0.00205262 0.00186685 0.00169077 0.00152439 0.0013677 0.00122052 0.00108266 0.000954111 0.000834882 0.000724971 0.000624377 0.0005331 0.000451141 0.000377562 0.000311429 0.00025274 0.000201496 0.000157697 0.000121343 9.24335e-05 7.09688e-05 5.43355e-05 3.992e-05 2.77222e-05 1.77422e-05 9.97999e-06 4.43555e-06 1.10889e-06 0 0 1.96144e-05 7.84576e-05 0.00017653 0.00031383 0.00049036 0.000706118 0.000961105 0.00125532 0.00159452 0.00198444 0.00242509 0.00291647 0.00345858 0.00405141 0.00469498 0.00538927 0.00611584 0.00685622 0.00761043 0.00837846 0.0091603 0.00995597 0.0107655 0.0115888 0.0124081 0.0132055 0.0139812 0.014735 0.015467 0.0161771 0.0168654 0.0175319 0.0181674 0.0187625 0.0193173 0.0198318 0.020306 0.0207399 0.0211334 0.0214867 0.0217982 0.0220665 0.0222916 0.0224735 0.0226122 0.0227077 0.0227599 0.022769 0.0227389 0.0226738 0.0225736 0.0224383 0.022268 0.0220626 0.0218222 0.0215467 0.0212429 0.0209177 0.0205711 0.0202031 0.0198137 0.0194028 0.0189705 0.0185167 0.0180486 0.017573 0.01709 0.0165996 0.0161018 0.0155965 0.0150839 0.0145638 0.0140418 0.0135233 0.0130083 0.0124969 0.011989 0.0114846 0.0109837 0.0104864 0.00999588 0.00951547 0.00904516 0.00858495 0.00813485 0.00769485 0.00726495 0.00684516 0.00643682 0.0060413 0.00565858 0.00528869 0.0049316 0.00458733 0.00425587 0.00393723 0.00363159 0.00333914 0.00305989 0.00279384 0.00254099 0.00230133 0.00207486 0.00186159 0.00166126 0.00147362 0.00129865 0.00113637 0.000986766 0.000849846 0.000725608 0.000614052 0.000513904 0.000423889 0.000344007 0.000274259 0.000214643 0.000165161 0.000125812 9.65965e-05 7.39567e-05 5.43355e-05 3.7733e-05 2.41491e-05 1.35839e-05 6.03728e-06 1.50932e-06 0 0 2.56188e-05 0.000102475 0.000230569 0.000409901 0.00064047 0.000922277 0.00125532 0.0016396 0.00208263 0.00259192 0.00316746 0.00380927 0.00451732 0.00529164 0.00613222 0.00703905 0.00798803 0.00895507 0.00994015 0.0109433 0.0119645 0.0130037 0.014061 0.0151363 0.0162064 0.017248 0.0182611 0.0192457 0.0202018 0.0211293 0.0220283 0.0228989 0.0237288 0.0245061 0.0252307 0.0259027 0.0265221 0.0270888 0.0276029 0.0280643 0.0284712 0.0288216 0.0291156 0.0293532 0.0295343 0.029659 0.0297273 0.0297391 0.0296998 0.0296147 0.0294838 0.0293072 0.0290847 0.0288165 0.0285024 0.0281426 0.0277458 0.0273211 0.0268684 0.0263877 0.0258791 0.0253424 0.0247778 0.0241851 0.0235737 0.0229525 0.0223217 0.0216811 0.0210309 0.020371 0.0197014 0.0190221 0.0183403 0.0176631 0.0169904 0.0163224 0.015659 0.0150003 0.0143461 0.0136965 0.0130558 0.0124284 0.0118141 0.011213 0.0106251 0.0100504 0.00948892 0.00894061 0.00840727 0.00789067 0.0073908 0.00690767 0.00644128 0.00599161 0.00555869 0.0051425 0.0047433 0.00436133 0.0039966 0.0036491 0.00331884 0.00300581 0.00271002 0.00243147 0.00216981 0.00192472 0.0016962 0.00148423 0.00128884 0.00111 0.000947733 0.000802028 0.000671222 0.000553651 0.000449316 0.000358215 0.00028035 0.000215721 0.000164326 0.000126167 9.65965e-05 7.09688e-05 4.92839e-05 3.15417e-05 1.77422e-05 7.88543e-06 1.97136e-06 0 0 3.25827e-05 0.000130331 0.000293244 0.000521323 0.000814567 0.00117298 0.00159655 0.00208529 0.0026484 0.00329508 0.00402532 0.00483914 0.00573653 0.00671749 0.00778202 0.00893012 0.0101313 0.0113552 0.0126018 0.013871 0.0151629 0.0164774 0.0178146 0.0191745 0.0205277 0.0218449 0.023126 0.0243711 0.0255802 0.0267532 0.0278902 0.0289912 0.0300409 0.031024 0.0319407 0.0327908 0.0335744 0.0342915 0.034942 0.035526 0.0360411 0.0364849 0.0368572 0.0371583 0.037388 0.0375464 0.0376334 0.037649 0.0376001 0.0374932 0.0373283 0.0371056 0.0368249 0.0364862 0.0360897 0.0356352 0.035134 0.0345974 0.0340253 0.0334178 0.0327749 0.0320965 0.0313827 0.0306334 0.0298602 0.0290748 0.028277 0.0274669 0.0266445 0.0258098 0.0249628 0.0241034 0.0232408 0.022384 0.021533 0.0206877 0.0198482 0.0190145 0.0181866 0.0173644 0.0165535 0.0157592 0.0149816 0.0142206 0.0134763 0.0127486 0.0120377 0.0113433 0.0106679 0.0100136 0.00938051 0.00876855 0.00817775 0.0076081 0.00705961 0.00653227 0.00602641 0.00554235 0.00508008 0.0046396 0.00422092 0.00382404 0.00344895 0.00309565 0.00276372 0.00245273 0.00216267 0.00189355 0.00164536 0.00141811 0.00121179 0.00102641 0.00085988 0.000710106 0.00057709 0.000460832 0.000361332 0.000278591 0.000212608 0.000163383 0.00012509 9.19028e-05 6.38214e-05 4.08457e-05 2.29757e-05 1.02114e-05 2.55286e-06 0 0 4.06649e-05 0.000162659 0.000365984 0.000650638 0.00101662 0.00146394 0.00199258 0.00260255 0.00330438 0.00410859 0.00501517 0.00602414 0.00713548 0.00834921 0.00966531 0.0110838 0.0125672 0.0140781 0.0156165 0.0171824 0.0187758 0.0203967 0.0220451 0.0237209 0.0253884 0.0270115 0.0285902 0.0301246 0.0316147 0.0330604 0.0344618 0.0358188 0.0371127 0.0383248 0.0394551 0.0405036 0.0414702 0.042355 0.043158 0.0438791 0.0445154 0.0450638 0.0455244 0.0458971 0.046182 0.046379 0.0464881 0.0465094 0.046451 0.0463212 0.0461199 0.0458472 0.045503 0.0450874 0.0446003 0.0440418 0.0434256 0.0427657 0.0420619 0.0413143 0.0405228 0.0396876 0.0388085 0.0378856 0.0369332 0.0359654 0.0349822 0.0339837 0.0329699 0.0319408 0.0308963 0.0298364 0.0287724 0.0277154 0.0266653 0.0256223 0.0245862 0.0235571 0.022535 0.0215198 0.0205184 0.0195375 0.0185769 0.0176369 0.0167173 0.0158181 0.0149394 0.0140811 0.0132461 0.0124371 0.0116542 0.0108973 0.0101665 0.00946175 0.00878302 0.00813034 0.00750412 0.00690474 0.00633223 0.00578657 0.00526776 0.00477581 0.00431071 0.00387247 0.00346054 0.00307438 0.00271399 0.00237937 0.00207051 0.00178742 0.00153011 0.00129856 0.00109025 0.000902645 0.000735754 0.000589573 0.000464102 0.00035934 0.000275289 0.000211947 0.000162272 0.00011922 8.27918e-05 5.29868e-05 2.98051e-05 1.32467e-05 3.31167e-06 0 0 4.98654e-05 0.000199462 0.000448789 0.000797847 0.00124664 0.00179515 0.00244341 0.00319139 0.00405058 0.00503245 0.00613701 0.00736426 0.00871419 0.0101868 0.0117821 0.0135001 0.0152957 0.0171238 0.0189844 0.0208776 0.0228033 0.0247615 0.0267523 0.0287755 0.0307884 0.0327477 0.0346536 0.0365061 0.0383052 0.0400508 0.0417429 0.0433816 0.0449443 0.0464085 0.0477741 0.0490411 0.0502095 0.0512794 0.0522507 0.0531235 0.053894 0.0545585 0.055117 0.0555696 0.0559162 0.0561568 0.0562914 0.0563201 0.0562525 0.0560987 0.0558585 0.0555319 0.055119 0.0546198 0.0540342 0.0533623 0.0526207 0.0518259 0.050978 0.050077 0.0491229 0.0481157 0.0470553 0.0459418 0.0447924 0.0436243 0.0424373 0.0412316 0.0400071 0.0387639 0.0375019 0.0362211 0.034935 0.0336572 0.0323875 0.0311262 0.029873 0.028628 0.0273913 0.0261628 0.0249507 0.0237632 0.0226002 0.0214619 0.020348 0.0192588 0.0181941 0.017154 0.0161419 0.0151612 0.0142119 0.0132941 0.0124076 0.0115526 0.0107289 0.00993671 0.0091764 0.00844852 0.00775304 0.00708999 0.00645935 0.00586113 0.00529532 0.00476193 0.00426027 0.00378968 0.00335016 0.00294169 0.00256429 0.00221795 0.00190267 0.00161846 0.00136232 0.00113127 0.000925308 0.000744439 0.000588659 0.00045797 0.00035237 0.00027186 0.000208143 0.000152921 0.000106195 6.7965e-05 3.82303e-05 1.69912e-05 4.24781e-06 0 0 6.01843e-05 0.000240737 0.000541659 0.000962949 0.00150461 0.00216663 0.00294903 0.00385179 0.00488699 0.00606667 0.00739084 0.00885949 0.0104726 0.0122303 0.0141324 0.016179 0.0183167 0.0204922 0.0227055 0.0249565 0.0272453 0.0295719 0.0319363 0.0343384 0.0367277 0.0390537 0.0413163 0.0435157 0.0456517 0.0477244 0.0497337 0.0516797 0.0535357 0.055275 0.0568975 0.0584033 0.0597924 0.0610647 0.0622203 0.0632592 0.0641769 0.0649689 0.0656352 0.0661758 0.0665906 0.0668798 0.0670433 0.0670811 0.0670047 0.0668257 0.0665441 0.0661599 0.0656731 0.0650836 0.0643915 0.0635968 0.0627191 0.0617781 0.0607737 0.0597061 0.058575 0.0573807 0.056123 0.054802 0.0534381 0.0520515 0.0506423 0.0492105 0.0477561 0.0462791 0.0447795 0.0432573 0.0417286 0.0402093 0.0386996 0.0371993 0.0357086 0.0342273 0.0327556 0.0312933 0.0298504 0.0284364 0.0270514 0.0256955 0.0243686 0.0230707 0.0218019 0.020562 0.0193553 0.0181859 0.0170536 0.0159587 0.014901 0.0138805 0.0128973 0.0119514 0.0110433 0.0101737 0.00934253 0.00854987 0.00779569 0.00707999 0.00640276 0.00576402 0.00516292 0.00459863 0.00407117 0.00358052 0.0031267 0.00270968 0.00232949 0.00198611 0.00167609 0.00139597 0.00114575 0.00092543 0.000735005 0.000574478 0.00044385 0.000343121 0.000262702 0.000193006 0.000134032 8.57802e-05 4.82514e-05 2.14451e-05 5.36127e-06 0 0 7.16215e-05 0.000286486 0.000644594 0.00114594 0.00179054 0.00257837 0.00350945 0.00458378 0.00581361 0.00721124 0.00877665 0.0105099 0.0124108 0.0144796 0.0167162 0.0191205 0.0216304 0.0241834 0.0267797 0.0294192 0.0321019 0.0348279 0.037597 0.0404094 0.0432064 0.0459293 0.0485783 0.0511532 0.0536542 0.0560812 0.0584341 0.060713 0.0628868 0.0649243 0.0668254 0.0685902 0.0702187 0.0717109 0.0730668 0.0742863 0.0753642 0.076295 0.0770788 0.0777156 0.0782054 0.0785481 0.0787438 0.0787925 0.0787076 0.0785023 0.0781768 0.0777311 0.077165 0.0764787 0.0756721 0.0747452 0.073721 0.0726223 0.0714491 0.0702014 0.0688793 0.0674827 0.0660117 0.0644662 0.06287 0.061247 0.0595971 0.0579204 0.0562169 0.0544865 0.0527293 0.0509453 0.0491532 0.0473719 0.0456015 0.0438418 0.042093 0.040355 0.0386278 0.0369114 0.0352173 0.033557 0.0319306 0.0303379 0.028779 0.0272539 0.0257626 0.0243051 0.0228863 0.0215111 0.0201794 0.0188912 0.0176467 0.0164457 0.0152882 0.0141743 0.0131047 0.0120802 0.0111007 0.0101662 0.00927678 0.00843239 0.00763304 0.00687874 0.00616847 0.00550123 0.00487703 0.00429586 0.00375773 0.00326263 0.00281056 0.00240153 0.00203158 0.00169677 0.00139709 0.00113255 0.000903138 0.000708867 0.000549731 0.000425731 0.00032595 0.000239473 0.000166301 0.000106433 5.98684e-05 2.66082e-05 6.65204e-06 0 0 8.41771e-05 0.000336708 0.000757594 0.00134683 0.00210443 0.00303037 0.00412468 0.00538733 0.00683046 0.00846616 0.0102945 0.0123153 0.0145288 0.0169348 0.0195335 0.0223247 0.0252366 0.0281974 0.0312071 0.0342656 0.0373731 0.0405294 0.0437346 0.0469886 0.0502244 0.0533747 0.0564395 0.0594189 0.0623128 0.0651212 0.0678441 0.0704816 0.0729977 0.0753565 0.0775579 0.0796019 0.0814886 0.083218 0.08479 0.0862047 0.0874557 0.0885368 0.089448 0.0901891 0.0907604 0.0911616 0.0913929 0.0914543 0.091361 0.0911285 0.0907566 0.0902454 0.0895949 0.0888051 0.087876 0.0868076 0.0856263 0.0843584 0.0830041 0.0815632 0.0800357 0.0784218 0.0767213 0.0749343 0.0730883 0.0712108 0.0693019 0.0673614 0.0653895 0.0633861 0.0613512 0.0592848 0.0572088 0.0551449 0.0530932 0.0510536 0.0490262 0.047011 0.0450079 0.043017 0.0410516 0.0391251 0.0372376 0.0353889 0.0335791 0.0318083 0.0300764 0.0283833 0.0267349 0.0251368 0.0235891 0.0220917 0.0206447 0.019248 0.0179016 0.0166056 0.0153608 0.0141681 0.0130275 0.011939 0.0109026 0.00991834 0.00898617 0.0081061 0.00727693 0.00649748 0.00576774 0.00508771 0.00445739 0.00387678 0.00334589 0.0028647 0.00242877 0.00203364 0.00167931 0.00136579 0.00109306 0.000861135 0.000670011 0.000519689 0.000397887 0.000292325 0.000203003 0.000129922 7.30812e-05 3.24805e-05 8.12013e-06 0 0 9.7851e-05 0.000391404 0.000880659 0.00156562 0.00244627 0.00352263 0.0047947 0.00626246 0.00793751 0.00983144 0.0119442 0.0142759 0.0168265 0.0195959 0.0225842 0.0257914 0.0291354 0.0325341 0.0359876 0.0394958 0.0430588 0.0466765 0.0503489 0.0540761 0.0577818 0.0613897 0.0649 0.0683125 0.0716273 0.0748444 0.0779638 0.0809855 0.0838684 0.0865715 0.0890948 0.0914383 0.093602 0.095586 0.0973901 0.0990144 0.100452 0.101694 0.102743 0.103596 0.104256 0.10472 0.104991 0.105066 0.104965 0.104704 0.104283 0.103703 0.102963 0.102063 0.101003 0.099784 0.098435 0.0969866 0.0954386 0.0937912 0.0920442 0.0901978 0.0882519 0.0862064 0.0840929 0.081943 0.0797565 0.0775334 0.0752739 0.0729778 0.0706452 0.068276 0.0658954 0.0635283 0.0611747 0.0588347 0.0565083 0.0541954 0.051896 0.0496101 0.0473533 0.0451407 0.0429725 0.0408486 0.0387691 0.0367339 0.0347431 0.0327966 0.0309011 0.0290632 0.0272828 0.0255601 0.023895 0.0222874 0.0207375 0.0192451 0.0178114 0.0164374 0.015123 0.0138683 0.0126732 0.0115378 0.0104621 0.00944609 0.00848831 0.00758738 0.0067433 0.00595606 0.00522568 0.00455215 0.00393546 0.00337563 0.00286767 0.0024066 0.00199243 0.00162515 0.00130477 0.00103128 0.000804691 0.000624995 0.000478512 0.00035156 0.000244139 0.000156249 8.78899e-05 3.90622e-05 9.76555e-06 0 0 0.000112643 0.000450573 0.00101379 0.00180229 0.00281608 0.00405515 0.00551952 0.00720916 0.00913479 0.0113071 0.013726 0.0163916 0.0193039 0.0224629 0.0258685 0.0295208 0.0333268 0.0371936 0.0411213 0.0451097 0.049159 0.0532691 0.05744 0.0616717 0.0658785 0.0699745 0.0739597 0.0778342 0.0815979 0.0852509 0.0887931 0.0922246 0.0954988 0.0985694 0.101436 0.104099 0.106559 0.108815 0.110867 0.112716 0.114352 0.115768 0.116963 0.117937 0.118691 0.119224 0.119537 0.119629 0.11952 0.119229 0.118757 0.118104 0.117269 0.116252 0.115054 0.113674 0.112147 0.110507 0.108753 0.106886 0.104905 0.102811 0.100603 0.0982825 0.0958839 0.0934434 0.0909609 0.0884365 0.08587 0.0832616 0.0806112 0.0779189 0.075213 0.0725221 0.0698461 0.0671852 0.0645391 0.0619081 0.059292 0.0566908 0.0541222 0.0516037 0.0491353 0.046717 0.0443489 0.0420308 0.0397629 0.037545 0.0353849 0.0332901 0.0312606 0.0292964 0.0273976 0.025564 0.0237958 0.022093 0.0204566 0.018888 0.0173871 0.015954 0.0145886 0.0132909 0.0120609 0.0108987 0.0098026 0.00877092 0.0078037 0.00690092 0.0060626 0.00528872 0.00457929 0.00393432 0.00334827 0.00281564 0.00233643 0.00191064 0.00153827 0.00121931 0.000953771 0.00074165 0.000567826 0.000417178 0.000289707 0.000185412 0.000104295 4.63531e-05 1.15883e-05 0 0 0.000128246 0.000512985 0.00115422 0.00205194 0.00320616 0.00461687 0.00628407 0.00820776 0.0103974 0.0128626 0.0156032 0.0186193 0.0219108 0.0254778 0.0293203 0.0334382 0.0377274 0.0420835 0.0465065 0.0509964 0.0555533 0.0601772 0.0648679 0.0696257 0.0743547 0.0789593 0.0834396 0.0877956 0.0920271 0.0961344 0.100117 0.103976 0.107658 0.111112 0.114337 0.117333 0.120101 0.122641 0.124952 0.127035 0.128879 0.130476 0.131825 0.132926 0.133779 0.134384 0.134742 0.134852 0.134736 0.134415 0.13389 0.133162 0.132228 0.131091 0.129749 0.128204 0.126492 0.124652 0.122684 0.120588 0.118365 0.116013 0.113534 0.110926 0.108231 0.105488 0.102697 0.0998589 0.0969727 0.0940388 0.0910571 0.0880278 0.0849827 0.0819541 0.0789418 0.0759458 0.0729663 0.0700031 0.0670563 0.0641258 0.0612316 0.0583935 0.0556114 0.0528854 0.0502154 0.0476015 0.0450437 0.042542 0.040105 0.0377413 0.035451 0.0332341 0.0310905 0.0290202 0.0270233 0.0250998 0.0232509 0.0214783 0.0197817 0.0181612 0.0166169 0.0151487 0.0137566 0.0124407 0.0111989 0.0100296 0.00893253 0.00790786 0.00695553 0.00607555 0.00526792 0.00453264 0.00386367 0.00325495 0.0027065 0.0022183 0.00179036 0.00142269 0.00111527 0.000868112 0.000664648 0.000488313 0.000339106 0.000217028 0.000122078 5.4257e-05 1.35642e-05 0 0 0.000144353 0.000577412 0.00129918 0.00230965 0.00360882 0.0051967 0.00707329 0.00923858 0.0117006 0.0144675 0.0175391 0.0209155 0.0245968 0.0285828 0.0328736 0.0374693 0.0422537 0.0471112 0.0520416 0.057045 0.0621213 0.0672705 0.0724927 0.0777879 0.0830504 0.0881746 0.0931606 0.0980083 0.102718 0.107289 0.111722 0.116016 0.120115 0.123959 0.12755 0.130888 0.133971 0.136801 0.139377 0.141699 0.143756 0.145538 0.147045 0.148276 0.149231 0.149911 0.150316 0.150445 0.150322 0.149972 0.149395 0.14859 0.147558 0.146299 0.144812 0.143097 0.141198 0.139155 0.13697 0.134642 0.132171 0.129558 0.126801 0.123902 0.120904 0.117853 0.114748 0.111589 0.108377 0.10511 0.101791 0.0984172 0.0950258 0.091652 0.0882961 0.0849578 0.0816372 0.0783344 0.0750493 0.071782 0.0685545 0.0653892 0.0622859 0.0592448 0.0562657 0.0533488 0.0504939 0.0477012 0.0449803 0.0423408 0.0397829 0.0373066 0.0349117 0.0325983 0.0303665 0.0282162 0.0261489 0.0241663 0.0222684 0.0204551 0.0187265 0.0170826 0.0155232 0.0140486 0.0126565 0.0113447 0.0101134 0.00896242 0.00789185 0.00690168 0.00599189 0.00516249 0.00440694 0.00371871 0.00309778 0.00254417 0.00205787 0.00163888 0.0012872 0.00100284 0.000767799 0.000564097 0.000391734 0.00025071 0.000141024 6.26775e-05 1.56694e-05 0 0 0.000160963 0.000643852 0.00144867 0.00257541 0.00402407 0.00579466 0.00788718 0.0103016 0.0130444 0.0161217 0.0195338 0.0232805 0.0273618 0.0317779 0.0365285 0.0416138 0.0469059 0.0522769 0.0577267 0.0632553 0.0688628 0.0745492 0.0803144 0.0861585 0.0919658 0.0976205 0.103123 0.108472 0.113669 0.118714 0.123606 0.128345 0.132869 0.137113 0.141077 0.144763 0.148168 0.151294 0.154141 0.156708 0.158983 0.160955 0.162623 0.163988 0.165048 0.165805 0.166259 0.166408 0.16628 0.165901 0.165271 0.16439 0.163258 0.161875 0.160241 0.158355 0.156265 0.154017 0.151611 0.149047 0.146324 0.143444 0.140405 0.137209 0.133903 0.130537 0.127112 0.123627 0.120082 0.116477 0.112812 0.109087 0.105342 0.101616 0.097909 0.094221 0.090552 0.086902 0.0832711 0.0796592 0.0760909 0.0725908 0.0691589 0.0657953 0.0624998 0.0592725 0.0561134 0.0530225 0.0500106 0.0470886 0.0442563 0.0415139 0.0388612 0.0362984 0.0338254 0.0314422 0.0291505 0.0269523 0.0248473 0.0228357 0.0209174 0.0190924 0.0173608 0.0157225 0.0141752 0.0127164 0.0113462 0.0100646 0.00887158 0.0077671 0.0067512 0.00582386 0.0049781 0.00420691 0.0035103 0.00288826 0.00234079 0.0018679 0.00146958 0.00114583 0.000877278 0.000644531 0.000447591 0.000286458 0.000161133 7.16145e-05 1.79036e-05 0 0 0.000178076 0.000712305 0.00160269 0.00284922 0.00445191 0.00641075 0.00872574 0.0113969 0.0144286 0.0178254 0.0215872 0.0257141 0.030206 0.035063 0.040285 0.045872 0.0516839 0.0575804 0.0635616 0.0696275 0.075778 0.0820132 0.088333 0.0947374 0.101101 0.107297 0.113326 0.119188 0.124882 0.13041 0.135771 0.140964 0.145921 0.150572 0.154918 0.158958 0.162692 0.166121 0.169244 0.172062 0.17456 0.176726 0.17856 0.180061 0.18123 0.182066 0.18257 0.182742 0.182609 0.182202 0.181519 0.180561 0.179328 0.17782 0.176036 0.173977 0.171694 0.169237 0.166606 0.163802 0.160824 0.157672 0.154346 0.150847 0.147228 0.143542 0.13979 0.135972 0.132088 0.128137 0.124121 0.120038 0.115932 0.111846 0.107781 0.103735 0.0997105 0.0957059 0.0917216 0.0877576 0.0838408 0.0799985 0.0762305 0.0725369 0.0689176 0.0653727 0.0619022 0.058506 0.0551961 0.0519845 0.0488711 0.045856 0.0429391 0.0401204 0.0374 0.0347778 0.0322558 0.029836 0.0275183 0.0253028 0.0231895 0.0211783 0.0192693 0.0174624 0.0157551 0.0141447 0.0126311 0.0112145 0.0098947 0.00867182 0.00754584 0.00651675 0.00557713 0.00471956 0.00394403 0.00325055 0.00263912 0.00210973 0.00166239 0.00129709 0.000993086 0.000729614 0.000506676 0.000324273 0.000182404 8.10682e-05 2.02671e-05 0 0 0.000195693 0.000782773 0.00176124 0.00313109 0.00489233 0.00704496 0.00958897 0.0125244 0.0158534 0.0195785 0.0236995 0.0282164 0.0331293 0.0384382 0.044143 0.0502438 0.0565877 0.0630219 0.0695465 0.0761615 0.0828668 0.0896624 0.0965484 0.103525 0.110455 0.117204 0.12377 0.130154 0.136357 0.142377 0.148215 0.153871 0.15927 0.164337 0.169072 0.173474 0.177544 0.181282 0.184687 0.187761 0.190487 0.192852 0.194855 0.196496 0.197776 0.198694 0.199251 0.199446 0.19931 0.198874 0.198139 0.197103 0.195768 0.194133 0.192198 0.189964 0.187484 0.184815 0.181957 0.178908 0.17567 0.172242 0.168624 0.164817 0.160878 0.156867 0.152783 0.148625 0.144395 0.140093 0.135717 0.131269 0.126795 0.122342 0.117911 0.113501 0.109113 0.104746 0.100401 0.096077 0.0918043 0.0876121 0.0835005 0.0794695 0.0755192 0.0716494 0.0678602 0.0641516 0.0605367 0.0570286 0.0536274 0.0503329 0.0471452 0.0440644 0.0410903 0.038223 0.0354647 0.0328176 0.0302815 0.0278567 0.0255429 0.0233402 0.0212487 0.0192684 0.0173962 0.0156294 0.013968 0.0124119 0.0109612 0.00961585 0.00837583 0.00724117 0.00620405 0.00525666 0.004399 0.00363106 0.00295286 0.00236438 0.00186564 0.00145662 0.00111522 0.000819347 0.000568991 0.000364154 0.000204837 9.10385e-05 2.27596e-05 0 0 0.000213814 0.000855255 0.00192432 0.00342102 0.00534534 0.00769729 0.0104769 0.0136841 0.0173188 0.0213809 0.0258704 0.0307874 0.0361317 0.0419034 0.0481025 0.0547291 0.0616172 0.0686014 0.0756814 0.0828573 0.0901292 0.097497 0.104961 0.11252 0.120029 0.127341 0.134455 0.141372 0.148092 0.154615 0.16094 0.167068 0.172918 0.178408 0.183539 0.188311 0.192723 0.196776 0.20047 0.203804 0.206764 0.209331 0.211508 0.213293 0.214686 0.215689 0.2163 0.21652 0.216381 0.215918 0.215129 0.214016 0.212578 0.210815 0.208727 0.206314 0.203636 0.200752 0.197661 0.194365 0.190862 0.187154 0.183239 0.179118 0.174855 0.170512 0.166089 0.161586 0.157004 0.152342 0.147601 0.14278 0.137931 0.133104 0.1283 0.123518 0.118759 0.114023 0.109309 0.104618 0.0999812 0.0954317 0.0909691 0.0865933 0.0823045 0.0781026 0.0739875 0.0699594 0.0660324 0.062221 0.0585251 0.0549446 0.0514797 0.0481302 0.0448963 0.0417779 0.0387773 0.035897 0.0331369 0.0304971 0.0279775 0.0255782 0.0232991 0.0211403 0.0190985 0.0171707 0.0153569 0.013657 0.0120711 0.0105992 0.00924116 0.00799711 0.00685885 0.0058182 0.00487518 0.00402979 0.00328201 0.00263185 0.00207932 0.00162441 0.00124369 0.000913729 0.000634534 0.000406102 0.000228432 0.000101525 2.53814e-05 0 0 0.000232437 0.00092975 0.00209194 0.003719 0.00581094 0.00836775 0.0113894 0.014876 0.0188247 0.0232327 0.0281002 0.033427 0.0392132 0.0454587 0.0521636 0.0593279 0.0667726 0.0743187 0.0819661 0.089715 0.0975652 0.105517 0.11357 0.12172