<?xml version="1.0"?> 
<VTKFile type="StructuredGrid" version="0.1"> 
<StructuredGrid WholeExtent="0 128 0 128 0 0"> 
<Piece Extent="0 128 0 128 0 0"> 
<PointData>
<DataArray type="Float32" Name="u" format="ascii" NumberOfComponents="1"> 
0 0 0 0 0 0 0 0 0 0 0 0 0 0 0 0 0 0 0 0 0 0 0 0 0 0 0 0 0 0 0 0 0 0 0 0 0 0 0 0 0 0 0 0 0 0 0 0 0 0 0 0 0 0 0 0 0 0 0 0 0 0 0 0 0 0 0 0 0 0 0 0 0 0 0 0 0 0 0 0 0 0 0 0 0 0 0 0 0 0 0 0 0 0 0 0 0 0 0 0 0 0 0 0 0 0 0 0 0 0 0 0 0 0 0 0 0 0 0 0 0 0 0 0 0 0 0 0 0 0 4.10291e-07 1.64116e-06 3.69262e-06 6.56466e-06 1.02573e-05 1.47705e-05 2.01043e-05 2.62586e-05 3.3354e-05 4.15108e-05 5.0729e-05 6.10086e-05 7.23496e-05 8.47521e-05 9.82159e-05 0.000112741 0.000127942 0.000143431 0.000159209 0.000175275 0.000191631 0.000208275 0.000225208 0.000242429 0.000259566 0.000276245 0.000292466 0.000308228 0.000323532 0.000338378 0.000352766 0.000366696 0.000379973 0.000392405 0.000403992 0.000414732 0.000424628 0.000433677 0.000441881 0.000449239 0.000455721 0.000461297 0.000465967 0.000469731 0.000472589 0.00047454 0.000475586 0.000475725 0.000475044 0.000473628 0.000471478 0.000468593 0.000464974 0.000460621 0.000455533 0.000449711 0.000443297 0.000436437 0.000429129 0.000421374 0.000413172 0.000404522 0.000395425 0.000385881 0.000376037 0.00036604 0.000355892 0.00034559 0.000335137 0.000324531 0.000313773 0.000302863 0.000291915 0.000281045 0.000270253 0.000259539 0.000248903 0.000238344 0.000227863 0.00021746 0.000207204 0.000197163 0.000187338 0.000177727 0.000168333 0.000159153 0.000150189 0.000141441 0.000132936 0.000124701 0.000116738 0.000109046 0.000101625 9.44744e-05 8.75953e-05 8.09873e-05 7.46532e-05 6.85962e-05 6.28163e-05 5.73134e-05 5.20875e-05 4.71386e-05 4.24668e-05 3.8072e-05 3.39476e-05 3.00867e-05 2.64894e-05 2.31557e-05 2.00856e-05 1.72791e-05 1.47362e-05 1.24569e-05 1.04134e-05 8.57793e-06 6.95047e-06 5.53102e-06 4.3196e-06 3.31619e-06 2.5208e-06 1.93344e-06 1.48029e-06 1.08756e-06 7.55248e-07 4.83359e-07 2.71889e-07 1.2084e-07 3.02099e-08 0 0 1.64116e-06 6.56466e-06 1.47705e-05 2.62586e-05 4.10291e-05 5.90819e-05 8.0417e-05 0.000105034 0.000133416 0.000166043 0.000202916 0.000244034 0.000289398 0.000339008 0.000392864 0.000450965 0.000511766 0.000573723 0.000636835 0.000701101 0.000766523 0.0008331 0.000900831 0.000969718 0.00103827 0.00110498 0.00116986 0.00123291 0.00129413 0.00135351 0.00141106 0.00146678 0.00151989 0.00156962 0.00161597 0.00165893 0.00169851 0.00173471 0.00176752 0.00179696 0.00182289 0.00184519 0.00186387 0.00187892 0.00189036 0.00189816 0.00190234 0.0019029 0.00190017 0.00189451 0.00188591 0.00187437 0.0018599 0.00184248 0.00182213 0.00179884 0.00177319 0.00174575 0.00171652 0.0016855 0.00165269 0.00161809 0.0015817 0.00154352 0.00150415 0.00146416 0.00142357 0.00138236 0.00134055 0.00129813 0.00125509 0.00121145 0.00116766 0.00112418 0.00108101 0.00103816 0.000995611 0.000953377 0.000911453 0.000869842 0.000828816 0.000788652 0.00074935 0.00071091 0.000673331 0.000636613 0.000600757 0.000565763 0.000531742 0.000498805 0.000466952 0.000436183 0.000406498 0.000377898 0.000350381 0.000323949 0.000298613 0.000274385 0.000251265 0.000229253 0.00020835 0.000188554 0.000169867 0.000152288 0.00013579 0.000120347 0.000105958 9.26229e-05 8.03425e-05 6.91165e-05 5.89449e-05 4.98277e-05 4.16537e-05 3.43117e-05 2.78019e-05 2.21241e-05 1.72784e-05 1.32648e-05 1.00832e-05 7.73374e-06 5.92115e-06 4.35023e-06 3.02099e-06 1.93344e-06 1.08756e-06 4.83359e-07 1.2084e-07 0 0 3.69262e-06 1.47705e-05 3.32336e-05 5.90819e-05 9.23155e-05 0.000132934 0.000180938 0.000236328 0.000300186 0.000373597 0.000456561 0.000549077 0.000651147 0.000762769 0.000883943 0.00101467 0.00115147 0.00129088 0.00143288 0.00157748 0.00172468 0.00187447 0.00202687 0.00218187 0.0023361 0.00248621 0.00263219 0.00277405 0.00291179 0.0030454 0.00317489 0.00330026 0.00341976 0.00353165 0.00363592 0.00373259 0.00382165 0.00390309 0.00397693 0.00404315 0.00410149 0.00415168 0.00419371 0.00422758 0.0042533 0.00427086 0.00428027 0.00428152 0.00427539 0.00426265 0.0042433 0.00421734 0.00418477 0.00414559 0.0040998 0.0040474 0.00398968 0.00392793 0.00386216 0.00379237 0.00371854 0.0036407 0.00355882 0.00347293 0.00338433 0.00329436 0.00320302 0.00311031 0.00301623 0.00292078 0.00282396 0.00272577 0.00262724 0.00252941 0.00243228 0.00233585 0.00224012 0.0021451 0.00205077 0.00195714 0.00186484 0.00177447 0.00168604 0.00159955 0.00151499 0.00143238 0.0013517 0.00127297 0.00119642 0.00112231 0.00105064 0.000981412 0.000914621 0.00085027 0.000788358 0.000728885 0.000671879 0.000617366 0.000565347 0.00051582 0.000468787 0.000424248 0.000382201 0.000342648 0.000305528 0.00027078 0.000238405 0.000208401 0.000180771 0.000155512 0.000132626 0.000112112 9.37207e-05 7.72014e-05 6.25542e-05 4.97792e-05 3.88764e-05 2.98457e-05 2.26872e-05 1.74009e-05 1.33226e-05 9.78802e-06 6.79724e-06 4.35023e-06 2.447e-06 1.08756e-06 2.71889e-07 0 0 6.56466e-06 2.62586e-05 5.90819e-05 0.000105034 0.000164116 0.000236328 0.000321668 0.000420138 0.000533664 0.000664172 0.000811663 0.000976137 0.00115759 0.00135603 0.00157146 0.00180386 0.00204707 0.00229489 0.00254734 0.0028044 0.00306609 0.0033324 0.00360332 0.00387887 0.00415306 0.00441992 0.00467945 0.00493165 0.00517652 0.00541405 0.00564426 0.00586713 0.00607957 0.00627848 0.00646387 0.00663572 0.00679404 0.00693883 0.00707009 0.00718782 0.00729154 0.00738076 0.00745548 0.0075157 0.00756142 0.00759265 0.00760937 0.0076116 0.0076007 0.00757805 0.00754365 0.00749749 0.00743959 0.00736993 0.00728853 0.00719537 0.00709276 0.00698299 0.00686607 0.00674198 0.00661075 0.00647235 0.0063268 0.00617409 0.00601659 0.00585664 0.00569426 0.00552945 0.00536219 0.0051925 0.00502037 0.00484581 0.00467064 0.00449673 0.00432405 0.00415263 0.00398244 0.00381351 0.00364581 0.00347937 0.00331526 0.00315461 0.0029974 0.00284364 0.00269332 0.00254645 0.00240303 0.00226305 0.00212697 0.00199522 0.00186781 0.00174473 0.00162599 0.00151159 0.00140153 0.0012958 0.00119445 0.00109754 0.00100506 0.000917014 0.0008334 0.000754218 0.000679469 0.000609152 0.000543161 0.000481387 0.00042383 0.000370491 0.00032137 0.000276466 0.00023578 0.000199311 0.000166615 0.000137247 0.000111208 8.84964e-05 6.91136e-05 5.30591e-05 4.03329e-05 3.0935e-05 2.36846e-05 1.74009e-05 1.2084e-05 7.73374e-06 4.35023e-06 1.93344e-06 4.83359e-07 0 0 1.02573e-05 4.10291e-05 9.23155e-05 0.000164116 0.000256432 0.000369262 0.000502606 0.000656466 0.00083385 0.00103777 0.00126822 0.00152521 0.00180874 0.0021188 0.0024554 0.00281853 0.00319854 0.00358577 0.00398022 0.00438188 0.00479077 0.00520687 0.0056302 0.00606074 0.00648916 0.00690613 0.00731164 0.0077057 0.00808831 0.00845946 0.00881915 0.00916739 0.00949933 0.00981013 0.0100998 0.0103683 0.0106157 0.0108419 0.011047 0.011231 0.011393 0.0115324 0.0116492 0.0117433 0.0118147 0.0118635 0.0118896 0.0118931 0.0118761 0.0118407 0.0117869 0.0117148 0.0116244 0.0115155 0.0113883 0.0112428 0.0110824 0.0109109 0.0107282 0.0105344 0.0103293 0.010113 0.00988562 0.00964702 0.00940092 0.00915101 0.00889729 0.00863976 0.00837843 0.00811328 0.00784433 0.00757157 0.00729788 0.00702613 0.00675633 0.00648848 0.00622257 0.0059586 0.00569658 0.00543651 0.0051801 0.00492908 0.00468344 0.00444318 0.00420832 0.00397883 0.00375473 0.00353602 0.00332339 0.00311753 0.00291845 0.00272614 0.00254061 0.00236186 0.00218988 0.00202468 0.00186633 0.00171491 0.00157041 0.00143283 0.00130219 0.00117847 0.00106167 0.0009518 0.000848689 0.000752167 0.000662235 0.000578893 0.000502141 0.000431978 0.000368406 0.000311423 0.000260335 0.000214448 0.000173762 0.000138276 0.00010799 8.29048e-05 6.30201e-05 4.83359e-05 3.70072e-05 2.71889e-05 1.88812e-05 1.2084e-05 6.79724e-06 3.02099e-06 7.55248e-07 0 0 1.47705e-05 5.90819e-05 0.000132934 0.000236328 0.000369262 0.000531737 0.000723753 0.00094531 0.00120074 0.00149439 0.00182624 0.00219631 0.00260459 0.00305107 0.00353577 0.00405868 0.0046059 0.00516351 0.00573151 0.00630991 0.00689871 0.0074979 0.00810748 0.00872746 0.00934439 0.00994483 0.0105288 0.0110962 0.0116472 0.0121816 0.0126996 0.013201 0.013679 0.0141266 0.0145437 0.0149304 0.0152866 0.0156124 0.0159077 0.0161726 0.016406 0.0166067 0.0167748 0.0169103 0.0170132 0.0170835 0.0171211 0.0171261 0.0171016 0.0170506 0.0169732 0.0168694 0.0167391 0.0165824 0.0163992 0.0161896 0.0159587 0.0157117 0.0154486 0.0151695 0.0148742 0.0145628 0.0142353 0.0138917 0.0135373 0.0131774 0.0128121 0.0124413 0.0120649 0.0116831 0.0112958 0.0109031 0.0105089 0.0101176 0.00972912 0.00934341 0.0089605 0.00858039 0.00820308 0.00782857 0.00745935 0.00709787 0.00674415 0.00639819 0.00605998 0.00572952 0.00540682 0.00509187 0.00478568 0.00448924 0.00420257 0.00392565 0.00365849 0.00340108 0.00315343 0.00291554 0.00268752 0.00246946 0.00226139 0.00206328 0.00187515 0.00169699 0.0015288 0.00137059 0.00122211 0.00108312 0.000953618 0.000833606 0.000723083 0.000622049 0.000530504 0.000448449 0.000374883 0.000308806 0.000250217 0.000199117 0.000155506 0.000119383 9.0749e-05 6.96037e-05 5.32903e-05 3.91521e-05 2.71889e-05 1.74009e-05 9.78802e-06 4.35023e-06 1.08756e-06 0 0 2.01043e-05 8.0417e-05 0.000180938 0.000321668 0.000502606 0.000723753 0.000985109 0.00128667 0.00163435 0.00203403 0.00248572 0.00298942 0.00354513 0.00415285 0.00481258 0.00552432 0.00626914 0.00702811 0.00780122 0.00858849 0.0093899 0.0102055 0.0110352 0.011879 0.0127188 0.013536 0.0143308 0.0151032 0.0158531 0.0165805 0.0172855 0.0179681 0.0186187 0.0192279 0.0197956 0.0203219 0.0208067 0.0212502 0.0216522 0.0220127 0.0223303 0.0226036 0.0228324 0.0230168 0.0231569 0.0232525 0.0233037 0.0233105 0.0232771 0.0232078 0.0231024 0.0229611 0.0227837 0.0225704 0.0223211 0.0220358 0.0217216 0.0213854 0.0210273 0.0206473 0.0202454 0.0198216 0.0193758 0.0189082 0.0184258 0.017936 0.0174387 0.0169339 0.0164217 0.015902 0.0153749 0.0148403 0.0143038 0.0137712 0.0132424 0.0127174 0.0121962 0.0116789 0.0111653 0.0106556 0.010153 0.00966099 0.00917954 0.00870864 0.0082483 0.00779851 0.00735928 0.0069306 0.00651384 0.00611036 0.00572016 0.00534324 0.0049796 0.00462925 0.00429217 0.00396838 0.00365801 0.00336122 0.003078 0.00280835 0.00255229 0.00230979 0.00208087 0.00186553 0.00166343 0.00147425 0.00129798 0.00113463 0.000984196 0.000846677 0.000722075 0.000610389 0.000510257 0.000420319 0.000340573 0.00027102 0.00021166 0.000162493 0.000123519 9.47384e-05 7.25341e-05 5.32903e-05 3.70072e-05 2.36846e-05 1.33226e-05 5.92115e-06 1.48029e-06 0 0 2.62586e-05 0.000105034 0.000236328 0.000420138 0.000656466 0.00094531 0.00128667 0.00168055 0.00213465 0.00265669 0.00324665 0.00390455 0.00463038 0.00542413 0.00628582 0.00721544 0.00818826 0.00917957 0.0101894 0.0112176 0.0122644 0.0133296 0.0144133 0.0155155 0.0166123 0.0176797 0.0187178 0.0197266 0.0207061 0.0216562 0.022577 0.0234685 0.0243183 0.0251139 0.0258555 0.0265429 0.0271762 0.0277553 0.0282804 0.0287513 0.0291662 0.029523 0.0298219 0.0300628 0.0302457 0.0303706 0.0304375 0.0304464 0.0304028 0.0303122 0.0301746 0.02999 0.0297584 0.0294797 0.0291541 0.0287815 0.028371 0.027932 0.0274643 0.0269679 0.026443 0.0258894 0.0253072 0.0246964 0.0240663 0.0234266 0.0227771 0.0221178 0.0214488 0.02077 0.0200815 0.0193832 0.0186826 0.0179869 0.0172962 0.0166105 0.0159298 0.015254 0.0145833 0.0139175 0.0132611 0.0126184 0.0119896 0.0113746 0.0107733 0.0101858 0.00961212 0.00905221 0.00850787 0.00798088 0.00747123 0.00697893 0.00650397 0.00604636 0.0056061 0.00518319 0.00477781 0.00439016 0.00402024 0.00366806 0.0033336 0.00301687 0.00271788 0.00243661 0.00217264 0.00192555 0.00169532 0.00148197 0.00128548 0.00110586 0.000943119 0.000797243 0.000666459 0.000548988 0.00044483 0.000353986 0.000276454 0.000212236 0.000161331 0.00012374 9.47384e-05 6.96037e-05 4.83359e-05 3.0935e-05 1.74009e-05 7.73374e-06 1.93344e-06 0 0 3.33968e-05 0.000133587 0.000300571 0.000534348 0.000834919 0.00120228 0.00163644 0.00213739 0.00271458 0.00337745 0.004126 0.00496024 0.00588015 0.00688574 0.00797702 0.00915398 0.0103854 0.01164 0.0129178 0.0142188 0.015543 0.0168905 0.0182611 0.019655 0.0210419 0.0223918 0.0237046 0.0249803 0.026219 0.0274206 0.0285851 0.0297126 0.0307874 0.0317938 0.0327317 0.0336013 0.0344026 0.0351354 0.0357999 0.0363959 0.0369211 0.037373 0.0377516 0.0380569 0.0382888 0.0384474 0.0385327 0.0385447 0.0384903 0.0383764 0.0382031 0.0379703 0.0376781 0.0373263 0.0369151 0.0364445 0.035926 0.0353712 0.0347802 0.0341529 0.0334894 0.0327896 0.0320536 0.0312813 0.0304847 0.0296757 0.0288543 0.0280205 0.0271743 0.0263157 0.0254448 0.0245614 0.023675 0.0227948 0.0219209 0.0210532 0.0201918 0.0193366 0.0184877 0.017645 0.0168141 0.0160007 0.0152046 0.0144259 0.0136647 0.0129209 0.0121944 0.0114854 0.010796 0.0101286 0.00948305 0.00885946 0.0082578 0.00767807 0.00712027 0.0065844 0.0060707 0.00557942 0.00511056 0.00466412 0.0042401 0.00383851 0.00345933 0.00310258 0.00276769 0.00245414 0.0021619 0.00189099 0.0016414 0.00141313 0.00120619 0.00102057 0.000854037 0.000704366 0.000571554 0.000455599 0.000356504 0.000274266 0.000208887 0.000160366 0.00012278 9.0206e-05 6.26431e-05 4.00916e-05 2.25515e-05 1.00229e-05 2.50572e-06 0 0 4.16819e-05 0.000166728 0.000375137 0.000666911 0.00104205 0.00150055 0.00204242 0.00266764 0.00338704 0.0042114 0.00514073 0.00617502 0.00731428 0.00855851 0.00990771 0.0113619 0.0128826 0.0144314 0.0160085 0.0176136 0.0192469 0.0209084 0.0225979 0.0243157 0.0260247 0.0276881 0.0293059 0.030878 0.0324046 0.0338855 0.0353209 0.0367106 0.0380355 0.0392762 0.0404328 0.0415053 0.0424937 0.043398 0.0442181 0.0449541 0.0456029 0.0461614 0.0466297 0.0470076 0.0472953 0.0474926 0.0475997 0.0476165 0.0475515 0.0474131 0.0472014 0.0469163 0.046558 0.0461262 0.0456212 0.0450428 0.0444053 0.043723 0.0429958 0.0422239 0.0414071 0.0405455 0.0396391 0.0386879 0.0377065 0.0367097 0.0356974 0.0346697 0.0336266 0.032568 0.0314939 0.0304045 0.0293111 0.0282252 0.0271469 0.0260762 0.025013 0.0239574 0.0229093 0.0218688 0.0208428 0.0198381 0.0188548 0.0178928 0.0169523 0.0160331 0.0151352 0.0142588 0.0134065 0.0125812 0.0117829 0.0110116 0.0102673 0.00955002 0.00885973 0.00819644 0.00756046 0.00695211 0.00637139 0.00581829 0.00529282 0.00479498 0.00432476 0.00388218 0.00346653 0.00307712 0.00271397 0.00237706 0.00206641 0.00178199 0.00152383 0.00129192 0.00108354 0.000896008 0.00072931 0.000583449 0.000458425 0.000354238 0.000270888 0.000208376 0.000159538 0.000117211 8.13967e-05 5.20939e-05 2.93028e-05 1.30235e-05 3.25587e-06 0 0 5.11141e-05 0.000204456 0.000460027 0.000817826 0.00127785 0.00184011 0.00250459 0.0032713 0.00415202 0.00515853 0.00629083 0.00754891 0.00893278 0.0104424 0.0120779 0.0138391 0.0156799 0.017554 0.0194613 0.021402 0.023376 0.0253832 0.0274238 0.0294976 0.0315606 0.0335687 0.0355217 0.0374199 0.039263 0.0410511 0.0427843 0.0444625 0.0460626 0.0475614 0.0489588 0.0502549 0.0514496 0.052543 0.0535351 0.0544259 0.0552116 0.0558883 0.0564562 0.0569151 0.0572651 0.0575062 0.0576384 0.0576617 0.0575862 0.0574221 0.0571694 0.0568281 0.0563981 0.0558794 0.0552722 0.0545763 0.053809 0.0529873 0.0521112 0.0511809 0.0501962 0.0491571 0.0480638 0.0469161 0.0457318 0.0445285 0.0433064 0.0420654 0.0408055 0.0395267 0.038229 0.0369123 0.0355907 0.034278 0.0329742 0.0316794 0.0303934 0.0291163 0.0278482 0.026589 0.025347 0.0241308 0.0229402 0.0217753 0.020636 0.0195225 0.0184346 0.0173724 0.0163393 0.0153387 0.0143708 0.0134353 0.0125325 0.0116622 0.0108245 0.0100193 0.0092471 0.00850824 0.00780273 0.00713056 0.00649175 0.00588629 0.00531417 0.00477541 0.00426914 0.00379452 0.00335154 0.0029402 0.00256051 0.00221246 0.00189605 0.00161129 0.00135498 0.00112391 0.000918098 0.000737533 0.000582217 0.000452151 0.000347334 0.000267768 0.00020501 0.000150619 0.000104597 6.69419e-05 3.76548e-05 1.67355e-05 4.18387e-06 0 0 6.16933e-05 0.000246773 0.00055524 0.000987093 0.00154233 0.00222096 0.00302297 0.00394837 0.00500954 0.00621884 0.0075763 0.00908189 0.0107356 0.0125375 0.0144875 0.0165857 0.0187773 0.0210075 0.0232764 0.025584 0.0279302 0.0303151 0.0327386 0.0352008 0.0376497 0.0400335 0.0423522 0.0446057 0.0467941 0.0489174 0.0509754 0.0529684 0.0548688 0.0566491 0.0583095 0.0598499 0.0612702 0.0625706 0.0637509 0.0648113 0.0657471 0.0665536 0.067231 0.0677793 0.0681983 0.0684882 0.0686489 0.0686804 0.0685947 0.0684036 0.0681072 0.0677055 0.0671984 0.066586 0.0658682 0.0650451 0.064137 0.0631641 0.0621263 0.0610238 0.0598565 0.0586245 0.0573276 0.0559659 0.0545605 0.0531323 0.0516814 0.0502076 0.0487111 0.0471919 0.0456498 0.044085 0.042514 0.0409533 0.0394029 0.0378628 0.036333 0.0348135 0.0333043 0.0318054 0.0303269 0.0288786 0.0274607 0.0260732 0.0247159 0.023389 0.0220924 0.0208262 0.0195944 0.0184012 0.0172466 0.0161307 0.0150534 0.0140146 0.0130145 0.012053 0.0111306 0.0102478 0.00940458 0.00860094 0.00783689 0.00711243 0.00642756 0.00578227 0.00517553 0.00460631 0.0040746 0.00358039 0.0031237 0.00270452 0.00232285 0.00197869 0.00166834 0.00138808 0.00113792 0.000917852 0.000727881 0.000568006 0.000438226 0.000338543 0.000259197 0.00019043 0.000132243 8.46357e-05 4.76076e-05 2.11589e-05 5.28973e-06 0 0 7.34195e-05 0.000293678 0.000660775 0.00117471 0.00183549 0.0026431 0.00359755 0.00469885 0.00595958 0.00739234 0.00899714 0.010774 0.0127228 0.0148438 0.0171367 0.0196017 0.0221748 0.0247921 0.0274537 0.0301595 0.0329096 0.0357039 0.0385424 0.0414252 0.044292 0.0470827 0.0497972 0.0524357 0.054998 0.0574842 0.0598942 0.0622282 0.064454 0.0665396 0.0684851 0.0702904 0.0719556 0.0734806 0.0748655 0.0761103 0.0772094 0.0781574 0.0789543 0.0796002 0.0800949 0.0804385 0.0806311 0.0806726 0.0805767 0.0803575 0.0800147 0.0795486 0.0789589 0.0782458 0.0774092 0.0764492 0.0753894 0.0742534 0.0730412 0.0717528 0.0703882 0.0689475 0.0674306 0.0658375 0.0641928 0.062521 0.0608222 0.0590964 0.0573435 0.0555635 0.0537566 0.0519225 0.0500809 0.048251 0.0464328 0.0446264 0.0428317 0.0410488 0.0392776 0.0375182 0.0357823 0.0340817 0.0324165 0.0307866 0.029192 0.0276328 0.0261088 0.0246202 0.0231718 0.0217686 0.0204106 0.0190976 0.0178299 0.0166073 0.0154298 0.0142976 0.013211 0.0121708 0.0111769 0.0102294 0.00932824 0.00847341 0.00766491 0.00690276 0.00618571 0.0055125 0.00488315 0.00429764 0.00375599 0.00325818 0.00280423 0.00239412 0.00202363 0.00168851 0.00138877 0.00112441 0.000895416 0.000701802 0.000543564 0.000420701 0.000322099 0.000236644 0.000164336 0.000105175 5.9161e-05 2.62938e-05 6.57345e-06 0 0 8.62927e-05 0.000345171 0.000776634 0.00138068 0.00215732 0.00310654 0.00422834 0.00552273 0.00700215 0.00867902 0.0105534 0.0126252 0.0148944 0.0173611 0.0200253 0.022887 0.0258724 0.0289078 0.0319932 0.0351287 0.0383142 0.0415497 0.0448352 0.0481708 0.0514874 0.0547161 0.0578569 0.0609097 0.0638746 0.0667516 0.0695407 0.0722418 0.0748182 0.0772327 0.0794855 0.0815765 0.0835057 0.0852732 0.0868789 0.0883228 0.0895985 0.0906996 0.091626 0.0923778 0.0929548 0.0933573 0.093585 0.0936382 0.0935324 0.0932837 0.092892 0.0923573 0.0916796 0.0908589 0.0898953 0.0887886 0.0875661 0.0862552 0.0848557 0.0833677 0.0817912 0.0801262 0.0783727 0.0765306 0.0746285 0.0726946 0.0707289 0.0687316 0.0667025 0.0646417 0.0625492 0.0604249 0.0582914 0.0561711 0.054064 0.0519702 0.0498896 0.0478223 0.0457681 0.0437273 0.0417133 0.0397401 0.0378075 0.0359155 0.0340643 0.0322537 0.0304837 0.0287545 0.0270716 0.025441 0.0238625 0.0223362 0.0208621 0.0194402 0.0180705 0.0167529 0.0154883 0.0142772 0.0131198 0.012016 0.0109658 0.00996922 0.00902625 0.00813689 0.00729966 0.0065131 0.0057772 0.00509195 0.00445737 0.00387344 0.00334018 0.00285758 0.00242085 0.00202521 0.00167066 0.0013572 0.00108482 0.00085354 0.000663346 0.000514241 0.000393716 0.000289261 0.000200876 0.00012856 7.23152e-05 3.21401e-05 8.03502e-06 0 0 0.000100313 0.000401252 0.000902816 0.00160501 0.00250782 0.00361126 0.00491533 0.00642002 0.00813724 0.0100789 0.012245 0.0146354 0.0172504 0.0200897 0.0231535 0.0264416 0.0298701 0.0333545 0.036895 0.0404914 0.044144 0.0478525 0.051617 0.0554376 0.059236 0.0629338 0.066531 0.0700278 0.073424 0.0767197 0.0799148 0.0830095 0.0859614 0.0887285 0.0913107 0.0937081 0.0959206 0.0979482 0.099791 0.101449 0.102915 0.10418 0.105246 0.106112 0.106778 0.107244 0.107511 0.107577 0.107462 0.107182 0.106739 0.106132 0.105361 0.104425 0.103326 0.102063 0.100667 0.0991695 0.09757 0.0958687 0.0940656 0.0921607 0.090154 0.0880455 0.0858677 0.083653 0.0814016 0.0791133 0.0767882 0.0744263 0.0720276 0.069592 0.0671455 0.0647136 0.0622966 0.0598943 0.0575067 0.0551339 0.0527759 0.0504327 0.04812 0.0458536 0.0436336 0.04146 0.0393327 0.0372517 0.0352172 0.0332289 0.0312937 0.0294182 0.0276025 0.0258464 0.02415 0.0225133 0.0209364 0.0194191 0.0179624 0.0165671 0.0152332 0.0139607 0.0127496 0.0115999 0.0105116 0.00948465 0.0085174 0.0076081 0.00675674 0.00596332 0.00522784 0.0045503 0.00393071 0.00336906 0.00285999 0.00239817 0.00198358 0.00161622 0.0012961 0.00102322 0.000797574 0.000619165 0.000474048 0.00034828 0.000241861 0.000154791 8.70701e-05 3.86978e-05 9.67445e-06 0 0 0.00011548 0.00046192 0.00103932 0.00184768 0.002887 0.00415728 0.00565852 0.00739073 0.00936487 0.0115919 0.0140719 0.0168048 0.0197907 0.0230294 0.0265211 0.0302657 0.0341678 0.0381322 0.0421589 0.0462478 0.0503989 0.0546123 0.0588879 0.0632257 0.0675377 0.0717357 0.0758198 0.0797899 0.0836461 0.0873883 0.0910166 0.094531 0.0978836 0.101027 0.103961 0.106685 0.1092 0.111506 0.113602 0.115489 0.117157 0.118599 0.119815 0.120803 0.121565 0.1221 0.122408 0.12249 0.122365 0.122053 0.121556 0.120872 0.120002 0.118945 0.117702 0.116273 0.114693 0.112996 0.111184 0.109256 0.107211 0.105051 0.102774 0.100382 0.0979103 0.0953964 0.0928402 0.0902416 0.0876007 0.0849175 0.0821919 0.079424 0.0766431 0.0738786 0.0711304 0.0683985 0.065683 0.0629838 0.0603009 0.0576344 0.0550022 0.0524224 0.049895 0.0474199 0.0449973 0.042627 0.0403091 0.0380436 0.0358382 0.0337004 0.0316304 0.0296281 0.0276936 0.0258267 0.0240276 0.0222961 0.0206334 0.0190404 0.0175171 0.0160635 0.0146796 0.0133654 0.0121208 0.010946 0.00983892 0.0087975 0.00782177 0.00691174 0.00606741 0.00528876 0.00457582 0.00392856 0.00334107 0.00280739 0.00232753 0.00190148 0.00152925 0.00121084 0.000946248 0.000735471 0.000563095 0.000413703 0.000287294 0.000183868 0.000103426 4.5967e-05 1.14917e-05 0 0 0.00013148 0.000525918 0.00118332 0.00210367 0.00328699 0.00473327 0.0064425 0.0084147 0.0106596 0.013187 0.0159968 0.0190891 0.0224638 0.026121 0.0300607 0.0342828 0.0386804 0.0431465 0.047681 0.0522841 0.0569557 0.0616958 0.0665044 0.0713815 0.0762289 0.0809483 0.0855398 0.0900033 0.0943389 0.0985466 0.102626 0.106578 0.110348 0.113884 0.117184 0.12025 0.12308 0.125676 0.128037 0.130162 0.132043 0.13367 0.135041 0.136158 0.13702 0.137628 0.137981 0.138079 0.137945 0.137602 0.137048 0.136285 0.135313 0.134131 0.132739 0.131138 0.129366 0.127463 0.12543 0.123265 0.12097 0.118544 0.115987 0.113299 0.110522 0.107696 0.104823 0.101901 0.0989307 0.0959126 0.0928464 0.089732 0.0866025 0.0834909 0.0803972 0.0773214 0.0742635 0.0712235 0.0682014 0.0651972 0.0622313 0.059324 0.0564753 0.0536852 0.0509537 0.0482809 0.0456667 0.0431111 0.0406229 0.0382107 0.0358745 0.0336144 0.0314303 0.0293223 0.0272903 0.0253344 0.0234556 0.0216552 0.0199331 0.0182894 0.016724 0.0152369 0.0138282 0.0124978 0.0112434 0.0100628 0.00895595 0.00792286 0.00696353 0.00607795 0.00526613 0.00452806 0.00385723 0.00324713 0.00269774 0.00220908 0.00178114 0.00141392 0.00110743 0.000861653 0.000659703 0.00048468 0.000336583 0.000215413 0.00012117 5.38533e-05 1.34633e-05 0 0 0.000147997 0.000591987 0.00133197 0.00236795 0.00369992 0.00532788 0.00725184 0.0094718 0.011996 0.0148328 0.0179821 0.0214439 0.0252183 0.0293052 0.0337047 0.0384167 0.0433223 0.0483025 0.0533574 0.0584869 0.0636911 0.06897 0.0743235 0.0797516 0.0851459 0.090398 0.0955078 0.100475 0.1053 0.109983 0.114524 0.118922 0.123119 0.127055 0.13073 0.134144 0.137297 0.140189 0.14282 0.145191 0.147289 0.149104 0.150636 0.151885 0.152851 0.153533 0.153933 0.154049 0.153907 0.153531 0.152922 0.15208 0.151004 0.149695 0.148152 0.146376 0.14441 0.142298 0.140039 0.137635 0.135085 0.132388 0.129545 0.126556 0.123467 0.120324 0.117127 0.113875 0.110569 0.107209 0.103795 0.100327 0.0968416 0.0933755 0.0899287 0.0865014 0.0830934 0.0797049 0.0763358 0.0729861 0.0696786 0.066436 0.0632584 0.0601456 0.0570978 0.054115 0.0511971 0.0483441 0.0455658 0.0428721 0.0402628 0.0377381 0.0352978 0.0329421 0.0306709 0.0284842 0.0263833 0.0243695 0.0224429 0.0206034 0.018851 0.0171857 0.0156075 0.0141165 0.01271 0.0113855 0.0101429 0.00898231 0.00790367 0.00690699 0.00599227 0.00515951 0.00440166 0.00371164 0.00308946 0.00253513 0.00204864 0.00162998 0.00127917 0.000996202 0.000762717 0.000560364 0.000389142 0.000249051 0.000140091 6.22626e-05 1.55657e-05 0 0 0.000165032 0.000660127 0.00148528 0.00264051 0.00412579 0.00594114 0.00808655 0.010562 0.0133741 0.0165294 0.0200278 0.0238694 0.0280541 0.032582 0.0374531 0.0426674 0.0480935 0.0536004 0.0591879 0.0648562 0.0706051 0.0764347 0.082345 0.088336 0.0942888 0.100085 0.105724 0.111206 0.116531 0.121699 0.12671 0.131564 0.136196 0.140541 0.144598 0.148368 0.15185 0.155045 0.157953 0.160574 0.162894 0.164903 0.166599 0.167983 0.169055 0.169815 0.170263 0.170399 0.170249 0.169842 0.169178 0.168255 0.167075 0.165637 0.163941 0.161988 0.159825 0.1575 0.155013 0.152365 0.149554 0.146582 0.143449 0.140153 0.136747 0.13328 0.129752 0.126165 0.122517 0.118808 0.115039 0.11121 0.107361 0.103532 0.0997249 0.0959383 0.0921727 0.0884279 0.084704 0.081001 0.0773441 0.0737585 0.0702442 0.0668012 0.0634296 0.0601292 0.0569002 0.0537424 0.0506669 0.0476845 0.0447953 0.0419991 0.039296 0.0366861 0.0341693 0.0317456 0.0294164 0.0271834 0.0250464 0.0230054 0.0210606 0.0192117 0.017459 0.0158023 0.0142388 0.0127656 0.0113827 0.0100901 0.00888783 0.00777588 0.00675424 0.00582292 0.00497433 0.00420092 0.00350269 0.00287963 0.00233174 0.00185903 0.00146149 0.00113912 0.000872138 0.000640754 0.000444968 0.00028478 0.000160189 7.11949e-05 1.77987e-05 0 0 0.000182584 0.000730336 0.00164326 0.00292135 0.0045646 0.00657303 0.00894662 0.0116854 0.0147939 0.0182767 0.0221339 0.0263654 0.0309713 0.0359515 0.041306 0.0470349 0.0529942 0.0590401 0.0651727 0.0713919 0.0776976 0.08409 0.090569 0.0971346 0.103658 0.110009 0.116188 0.122195 0.12803 0.133693 0.139184 0.144503 0.149579 0.154341 0.158788 0.162921 0.16674 0.170245 0.173435 0.176311 0.178859 0.181065 0.18293 0.184453 0.185634 0.186474 0.186972 0.187129 0.186973 0.186535 0.185815 0.184811 0.183526 0.181958 0.180107 0.177974 0.17561 0.173069 0.17035 0.167454 0.16438 0.161127 0.157698 0.15409 0.15036 0.146564 0.1427 0.13877 0.134772 0.130708 0.126577 0.122379 0.118159 0.113961 0.109786 0.105632 0.101501 0.0973926 0.0933061 0.089242 0.0852278 0.0812914 0.0774328 0.073652 0.0699489 0.0663236 0.062776 0.0593062 0.0559263 0.0526482 0.0494719 0.0463975 0.043425 0.0405543 0.0377855 0.0351185 0.0325551 0.0300968 0.0277436 0.0254956 0.0233528 0.021315 0.0193825 0.0175551 0.0158296 0.014203 0.0126752 0.0112462 0.00991601 0.00868463 0.00755205 0.00651828 0.00557527 0.00471498 0.00393742 0.00324257 0.00263045 0.00210105 0.00165436 0.0012904 0.000987965 0.000725852 0.000504064 0.000322601 0.000181463 8.06502e-05 2.01625e-05 0 0 0.000200654 0.000802617 0.00180589 0.00321047 0.00501636 0.00722355 0.00983206 0.0128419 0.0162554 0.0200749 0.0243005 0.0289321 0.0339698 0.0394136 0.0452633 0.0515192 0.0580242 0.0646217 0.0713116 0.078094 0.0849687 0.0919359 0.0989955 0.106148 0.113252 0.120169 0.126899 0.133442 0.139797 0.145965 0.151946 0.157739 0.163268 0.168455 0.1733 0.177804 0.181966 0.185787 0.189266 0.192403 0.195183 0.197592 0.199629 0.201294 0.202588 0.20351 0.204061 0.204239 0.204078 0.203609 0.202833 0.201749 0.200356 0.198656 0.196649 0.194333 0.191767 0.189006 0.186052 0.182903 0.17956 0.176023 0.172292 0.168367 0.164308 0.160175 0.155969 0.15169 0.147337 0.14291 0.13841 0.133836 0.129237 0.124662 0.120111 0.115583 0.111079 0.106599 0.102142 0.0977089 0.0933297 0.0890348 0.0848242 0.0806979 0.0766558 0.0726981 0.0688246 0.0650355 0.0613438 0.0577629 0.0542928 0.0509334 0.0476847 0.0445467 0.0415195 0.0386031 0.0357992 0.0331097 0.0305346 0.0280739 0.0257276 0.0234956 0.0213781 0.0193749 0.0174827 0.0156979 0.0140205 0.0124507 0.0109882 0.00963322 0.00838568 0.00724559 0.00620446 0.00525381 0.00439365 0.00362397 0.00294476 0.00235605 0.00185781 0.00145005 0.0011102 0.000815656 0.000566428 0.000362514 0.000203914 9.06284e-05 2.26571e-05 0 0 0.000219242 0.000876968 0.00197318 0.00350787 0.00548105 0.00789271 0.0107429 0.0140315 0.0177585 0.0219238 0.0265275 0.0315694 0.0370497 0.0429682 0.0493251 0.0561203 0.0631836 0.0703452 0.0776048 0.0849625 0.0924184 0.0999724 0.107625 0.115375 0.123073 0.130567 0.137859 0.144948 0.151833 0.158516 0.164996 0.171272 0.177263 0.182884 0.188135 0.193017 0.197529 0.201672 0.205445 0.208849 0.211867 0.214483 0.216696 0.218507 0.219916 0.220923 0.221528 0.22173 0.221564 0.221065 0.220233 0.219067 0.217567 0.215734 0.213567 0.211067 0.208294 0.205311 0.202117 0.198712 0.195096 0.191269 0.187232 0.182983 0.178589 0.174115 0.16956 0.164925 0.160209 0.155413 0.150537 0.14558 0.140596 0.135636 0.130701 0.125792 0.120907 0.116047 0.111212 0.106402 0.10165 0.0969886 0.0924183 0.0879389 0.0835504 0.0792527 0.075046 0.0709301 0.0669196 0.0630288 0.0592578 0.0556066 0.0520751 0.0486634 0.0453714 0.0421992 0.0391488 0.0362222 0.0334193 0.0307402 0.0281849 0.0257534 0.0234457 0.0212618 0.0191978 0.0172501 0.0154187 0.0137034 0.0121044 0.0106217 0.00925515 0.00800485 0.00686191 0.00581742 0.00487138 0.00402381 0.00327469 0.00262403 0.00207182 0.00161807 0.00123884 0.000910167 0.00063206 0.000404519 0.000227542 0.00010113 2.52824e-05 0 0 0.000238347 0.00095339 0.00214513 0.00381356 0.00595869 0.00858051 0.011679 0.0152542 0.0193034 0.0238236 0.0288149 0.0342773 0.0402109 0.0466155 0.0534913 0.0608382 0.0684724 0.0762104 0.0840521 0.0919975 0.100047 0.108199 0.116456 0.124816 0.133119 0.141202 0.1