<?xml version="1.0"?> 
<VTKFile type="StructuredGrid" version="0.1"> 
<StructuredGrid WholeExtent="0 128 0 128 0 0"> 
<Piece Extent="0 128 0 128 0 0"> 
<PointData>
<DataArray type="Float32" Name="u" format="ascii" NumberOfComponents="1"> 
0 0 0 0 0 0 0 0 0 0 0 0 0 0 0 0 0 0 0 0 0 0 0 0 0 0 0 0 0 0 0 0 0 0 0 0 0 0 0 0 0 0 0 0 0 0 0 0 0 0 0 0 0 0 0 0 0 0 0 0 0 0 0 0 0 0 0 0 0 0 0 0 0 0 0 0 0 0 0 0 0 0 0 0 0 0 0 0 0 0 0 0 0 0 0 0 0 0 0 0 0 0 0 0 0 0 0 0 0 0 0 0 0 0 0 0 0 0 0 0 0 0 0 0 0 0 0 0 0 0 1.18415e-07 4.7366e-07 1.06573e-06 1.89464e-06 2.96037e-06 4.26294e-06 5.80233e-06 7.57856e-06 9.63336e-06 1.20085e-05 1.4704e-05 1.77198e-05 2.1056e-05 2.47125e-05 2.86893e-05 3.29865e-05 3.74816e-05 4.2052e-05 4.66978e-05 5.1419e-05 5.62156e-05 6.10876e-05 6.60349e-05 7.10577e-05 7.60403e-05 8.08673e-05 8.55387e-05 9.00545e-05 9.44147e-05 9.86194e-05 0.000102668 0.000106562 0.000110254 0.0001137 0.000116899 0.000119851 0.000122557 0.000125016 0.000127229 0.000129195 0.000130928 0.000132439 0.00013373 0.0001348 0.000135649 0.000136277 0.000136684 0.00013687 0.000136877 0.000136747 0.000136478 0.000136072 0.000135528 0.000134846 0.000134026 0.000133069 0.000132013 0.000130898 0.000129724 0.00012849 0.000127198 0.000125846 0.000124436 0.000122966 0.000121455 0.000119921 0.000118364 0.000116785 0.000115182 0.000113556 0.000111908 0.000110236 0.000108538 0.000106809 0.000105049 0.000103259 0.000101437 9.95855e-05 9.77027e-05 9.57892e-05 9.38331e-05 9.18228e-05 8.97582e-05 8.76393e-05 8.5466e-05 8.32385e-05 8.09567e-05 7.86206e-05 7.62294e-05 7.37823e-05 7.12794e-05 6.87205e-05 6.61059e-05 6.34353e-05 6.07088e-05 5.79265e-05 5.5112e-05 5.22888e-05 4.9457e-05 4.66166e-05 4.37676e-05 4.091e-05 3.80437e-05 3.51689e-05 3.23344e-05 2.95894e-05 2.69337e-05 2.43675e-05 2.18907e-05 1.95033e-05 1.72053e-05 1.49967e-05 1.29185e-05 1.10118e-05 9.27638e-06 7.71242e-06 6.31986e-06 5.0987e-06 4.04895e-06 3.17059e-06 2.42749e-06 1.78346e-06 1.23851e-06 7.92649e-07 4.45865e-07 1.98162e-07 4.95405e-08 0 0 4.7366e-07 1.89464e-06 4.26294e-06 7.57856e-06 1.18415e-05 1.70517e-05 2.32093e-05 3.03142e-05 3.85335e-05 4.8034e-05 5.8816e-05 7.08793e-05 8.4224e-05 9.885e-05 0.000114757 0.000131946 0.000149926 0.000168208 0.000186791 0.000205676 0.000224862 0.00024435 0.00026414 0.000284231 0.000304161 0.000323469 0.000342155 0.000360218 0.000377659 0.000394477 0.000410673 0.000426247 0.000441016 0.000454799 0.000467595 0.000479405 0.000490229 0.000500066 0.000508917 0.000516781 0.00052371 0.000529756 0.000534919 0.000539198 0.000542594 0.000545107 0.000546736 0.000547481 0.00054751 0.000546987 0.000545913 0.000544288 0.000542112 0.000539384 0.000536106 0.000532276 0.000528052 0.000523592 0.000518895 0.000513962 0.000508792 0.000503386 0.000497743 0.000491863 0.00048582 0.000479684 0.000473457 0.000467138 0.000460728 0.000454225 0.000447631 0.000440946 0.000434152 0.000427236 0.000420197 0.000413035 0.00040575 0.000398342 0.000390811 0.000383157 0.000375333 0.000367291 0.000359033 0.000350557 0.000341864 0.000332954 0.000323827 0.000314482 0.000304918 0.000295129 0.000285117 0.000274882 0.000264423 0.000253741 0.000242835 0.000231706 0.000220448 0.000209155 0.000197828 0.000186466 0.00017507 0.00016364 0.000152175 0.000140675 0.000129338 0.000118357 0.000107735 9.747e-05 8.75627e-05 7.80131e-05 6.88212e-05 5.99868e-05 5.16741e-05 4.4047e-05 3.71055e-05 3.08497e-05 2.52794e-05 2.03948e-05 1.61958e-05 1.26824e-05 9.70995e-06 7.13384e-06 4.95405e-06 3.17059e-06 1.78346e-06 7.92649e-07 1.98162e-07 0 0 1.06573e-06 4.26294e-06 9.59161e-06 1.70517e-05 2.66434e-05 3.83664e-05 5.2221e-05 6.8207e-05 8.67003e-05 0.000108077 0.000132336 0.000159478 0.000189504 0.000222412 0.000258204 0.000296879 0.000337334 0.000378468 0.00042028 0.000462771 0.00050594 0.000549788 0.000594314 0.000639519 0.000684363 0.000727806 0.000769849 0.000810491 0.000849733 0.000887574 0.000924015 0.000959056 0.000992286 0.0010233 0.00105209 0.00107866 0.00110301 0.00112515 0.00114506 0.00116276 0.00117835 0.00119195 0.00120357 0.0012132 0.00122084 0.00122649 0.00123016 0.00123183 0.0012319 0.00123072 0.0012283 0.00122465 0.00121975 0.00121361 0.00120624 0.00119762 0.00118812 0.00117808 0.00116751 0.00115641 0.00114478 0.00113262 0.00111992 0.00110669 0.00109309 0.00107929 0.00106528 0.00105106 0.00103664 0.00102201 0.00100717 0.000992128 0.000976843 0.000961282 0.000945444 0.000929329 0.000912937 0.000896269 0.000879324 0.000862103 0.000844498 0.000826405 0.000807824 0.000788753 0.000769194 0.000749147 0.00072861 0.000707585 0.000686064 0.000664041 0.000641514 0.000618485 0.000594953 0.000570918 0.00054638 0.000521339 0.000496008 0.000470599 0.000445113 0.000419549 0.000393908 0.00036819 0.000342393 0.00031652 0.00029101 0.000266304 0.000242404 0.000219308 0.000197016 0.00017553 0.000154848 0.00013497 0.000116267 9.91058e-05 8.34875e-05 6.94118e-05 5.68787e-05 4.58883e-05 3.64405e-05 2.85354e-05 2.18474e-05 1.60511e-05 1.11466e-05 7.13384e-06 4.01278e-06 1.78346e-06 4.45865e-07 0 0 1.89464e-06 7.57856e-06 1.70517e-05 3.03142e-05 4.7366e-05 6.8207e-05 9.28373e-05 0.000121257 0.000154134 0.000192136 0.000235264 0.000283517 0.000336896 0.0003954 0.000459029 0.000527784 0.000599705 0.000672832 0.000747165 0.000822704 0.000899449 0.000977401 0.00105656 0.00113692 0.00121664 0.00129388 0.00136862 0.00144087 0.00151064 0.00157791 0.00164269 0.00170499 0.00176406 0.0018192 0.00187038 0.00191762 0.00196092 0.00200026 0.00203567 0.00206712 0.00209484 0.00211903 0.00213968 0.00215679 0.00217038 0.00218043 0.00218694 0.00218993 0.00219004 0.00218795 0.00218365 0.00217715 0.00216845 0.00215754 0.00214442 0.0021291 0.00211221 0.00209437 0.00207558 0.00205585 0.00203517 0.00201354 0.00199097 0.00196745 0.00194328 0.00191874 0.00189383 0.00186855 0.00184291 0.0018169 0.00179053 0.00176378 0.00173661 0.00170895 0.00168079 0.00165214 0.001623 0.00159337 0.00156324 0.00153263 0.00150133 0.00146916 0.00143613 0.00140223 0.00136746 0.00133182 0.00129531 0.00125793 0.00121967 0.00118052 0.00114047 0.00109953 0.00105769 0.00101496 0.000971341 0.000926824 0.000881791 0.000836621 0.000791312 0.000745866 0.000700281 0.000654559 0.000608699 0.000562702 0.00051735 0.00047343 0.00043094 0.00038988 0.000350251 0.000312053 0.000275285 0.000239947 0.000206696 0.000176188 0.000148422 0.000123399 0.000101118 8.15792e-05 6.47831e-05 5.07295e-05 3.88398e-05 2.85354e-05 1.98162e-05 1.26824e-05 7.13384e-06 3.17059e-06 7.92649e-07 0 0 2.96037e-06 1.18415e-05 2.66434e-05 4.7366e-05 7.40093e-05 0.000106573 0.000145058 0.000189464 0.000240834 0.000300213 0.0003676 0.000442996 0.0005264 0.000617812 0.000717233 0.000824663 0.000937039 0.0010513 0.00116745 0.00128548 0.00140539 0.00152719 0.00165087 0.00177644 0.00190101 0.00202168 0.00213847 0.00225136 0.00236037 0.00246548 0.00256671 0.00266404 0.00275635 0.00284249 0.00292247 0.00299628 0.00306393 0.00312541 0.00318073 0.00322988 0.00327319 0.00331098 0.00334324 0.00336999 0.00339121 0.00340692 0.0034171 0.00342176 0.00342194 0.00341867 0.00341196 0.0034018 0.0033882 0.00337115 0.00335066 0.00332672 0.00330033 0.00327245 0.00324309 0.00321226 0.00317995 0.00314616 0.00311089 0.00307415 0.00303637 0.00299803 0.00295911 0.00291961 0.00287955 0.00283891 0.0027977 0.00275591 0.00271345 0.00267023 0.00262623 0.00258147 0.00253594 0.00248964 0.00244257 0.00239473 0.00234583 0.00229557 0.00224395 0.00219098 0.00213665 0.00208096 0.00202392 0.00196551 0.00190573 0.00184456 0.00178198 0.00171801 0.00165265 0.00158588 0.00151772 0.00144816 0.0013778 0.00130722 0.00123642 0.00116541 0.00109419 0.00102275 0.000951093 0.000879221 0.00080836 0.000739734 0.000673343 0.000609188 0.000547267 0.000487582 0.000430132 0.000374918 0.000322963 0.000275294 0.00023191 0.00019281 0.000157996 0.000127467 0.000101224 7.92649e-05 6.06872e-05 4.45865e-05 3.09628e-05 1.98162e-05 1.11466e-05 4.95405e-06 1.23851e-06 0 0 4.26294e-06 1.70517e-05 3.83664e-05 6.8207e-05 0.000106573 0.000153466 0.000208884 0.000272828 0.000346801 0.000432306 0.000529344 0.000637914 0.000758016 0.00088965 0.00103282 0.00118751 0.00134934 0.00151387 0.00168112 0.00185108 0.00202376 0.00219915 0.00237726 0.00255808 0.00273745 0.00291122 0.00307939 0.00324196 0.00339893 0.0035503 0.00369606 0.00383622 0.00396915 0.00409319 0.00420836 0.00431465 0.00441206 0.00450059 0.00458025 0.00465103 0.00471339 0.00476781 0.00481427 0.00485278 0.00488335 0.00490596 0.00492062 0.00492733 0.00492759 0.00492288 0.00491322 0.00489859 0.004879 0.00485446 0.00482495 0.00479048 0.00475247 0.00471233 0.00467006 0.00462566 0.00457913 0.00453047 0.00447968 0.00442677 0.00437238 0.00431716 0.00426111 0.00420425 0.00414655 0.00408803 0.00402868 0.00396851 0.00390737 0.00384513 0.00378177 0.00371731 0.00365175 0.00358508 0.0035173 0.00344841 0.00337799 0.00330562 0.00323129 0.00315501 0.00307678 0.00299659 0.00291444 0.00283034 0.00274426 0.00265616 0.00256606 0.00247394 0.00237981 0.00228367 0.00218552 0.00208535 0.00198403 0.0018824 0.00178045 0.0016782 0.00157563 0.00147276 0.00136957 0.00126608 0.00116404 0.00106522 0.000969614 0.00087723 0.000788065 0.000702118 0.00061939 0.000539881 0.000465067 0.000396423 0.00033395 0.000277647 0.000227515 0.000183553 0.000145762 0.000114141 8.73895e-05 6.42045e-05 4.45865e-05 2.85354e-05 1.60511e-05 7.13384e-06 1.78346e-06 0 0 5.80233e-06 2.32093e-05 5.2221e-05 9.28373e-05 0.000145058 0.000208884 0.000284314 0.000371349 0.000472035 0.000588417 0.000720496 0.000868271 0.00103174 0.00121091 0.00140578 0.00161634 0.0018366 0.00206055 0.00228819 0.00251953 0.00275456 0.00299329 0.00323571 0.00348182 0.00372597 0.0039625 0.0041914 0.00441267 0.00462632 0.00483235 0.00503075 0.00522153 0.00540245 0.00557129 0.00572804 0.00587271 0.0060053 0.00612581 0.00623423 0.00633057 0.00641545 0.00648952 0.00655276 0.00660518 0.00664678 0.00667756 0.00669751 0.00670665 0.00670699 0.00670059 0.00668743 0.00666753 0.00664087 0.00660746 0.00656729 0.00652038 0.00646864 0.006414 0.00635647 0.00629603 0.0062327 0.00616647 0.00609735 0.00602533 0.00595129 0.00587613 0.00579985 0.00572245 0.00564392 0.00556426 0.00548348 0.00540158 0.00531837 0.00523364 0.00514741 0.00505968 0.00497044 0.00487969 0.00478743 0.00469367 0.00459782 0.00449932 0.00439815 0.00429432 0.00418784 0.00407869 0.00396688 0.00385241 0.00373524 0.00361533 0.00349269 0.00336731 0.00323919 0.00310833 0.00297473 0.0028384 0.00270049 0.00256215 0.00242339 0.00228421 0.00214461 0.00200459 0.00186414 0.00172327 0.00158439 0.00144988 0.00131975 0.00119401 0.00107264 0.000955661 0.000843059 0.000734838 0.000633008 0.000539576 0.000454543 0.000377909 0.000309673 0.000249836 0.000198398 0.000155359 0.000118947 8.73895e-05 6.06872e-05 3.88398e-05 2.18474e-05 9.70995e-06 2.42749e-06 0 0 7.57856e-06 3.03142e-05 6.8207e-05 0.000121257 0.000189464 0.000272828 0.000371349 0.000485028 0.000616535 0.000768545 0.000941056 0.00113407 0.00134758 0.0015816 0.00183612 0.00211114 0.00239882 0.00269133 0.00298866 0.00329082 0.0035978 0.0039096 0.00422623 0.00454769 0.00486658 0.00517551 0.00547448 0.00576349 0.00604254 0.00631164 0.00657077 0.00681995 0.00705626 0.00727678 0.00748152 0.00767048 0.00784366 0.00800105 0.00814267 0.0082685 0.00837937 0.0084761 0.0085587 0.00862717 0.00868151 0.00872171 0.00874777 0.0087597 0.00876016 0.00875179 0.00873461 0.00870861 0.00867379 0.00863015 0.00857769 0.00851641 0.00844883 0.00837747 0.00830232 0.00822339 0.00814067 0.00805417 0.00796388 0.00786981 0.00777311 0.00767495 0.00757532 0.00747421 0.00737164 0.00726761 0.0071621 0.00705513 0.00694644 0.00683578 0.00672315 0.00660856 0.006492 0.00637347 0.00625297 0.00613051 0.00600532 0.00587666 0.00574452 0.00560891 0.00546983 0.00532726 0.00518123 0.00503172 0.00487868 0.00472207 0.00456188 0.00439811 0.00423077 0.00405986 0.00388537 0.0037073 0.00352717 0.00334648 0.00316525 0.00298346 0.00280113 0.00261824 0.0024348 0.00225081 0.0020694 0.00189372 0.00172376 0.00155952 0.001401 0.00124821 0.00110114 0.000959789 0.000826786 0.000704752 0.000593689 0.000493595 0.000404471 0.000326317 0.000259132 0.000202918 0.000155359 0.000114141 7.92649e-05 5.07295e-05 2.85354e-05 1.26824e-05 3.17059e-06 0 0 9.67254e-06 3.86901e-05 8.70528e-05 0.000154761 0.000241813 0.000348211 0.000473954 0.000619042 0.00078675 0.000980352 0.00119985 0.00144524 0.00171652 0.0020137 0.00233677 0.00268574 0.00305068 0.00342168 0.00379873 0.00418184 0.004571 0.00496621 0.00536748 0.0057748 0.00617886 0.00657032 0.00694919 0.00731546 0.00766915 0.00801024 0.00833873 0.00865463 0.00895426 0.00923393 0.00949365 0.00973341 0.00995321 0.010153 0.0103329 0.0104929 0.0106339 0.010757 0.0108622 0.0109495 0.0110189 0.0110704 0.0111041 0.0111198 0.011121 0.011111 0.0110898 0.0110574 0.0110138 0.0109589 0.0108929 0.0108157 0.0107305 0.0106404 0.0105455 0.0104458 0.0103412 0.0102317 0.0101174 0.00999832 0.00987581 0.00975139 0.00962507 0.00949684 0.0093667 0.00923466 0.00910071 0.00896484 0.00882677 0.00868618 0.00854307 0.00839743 0.00824928 0.00809862 0.00794543 0.00778972 0.00763055 0.00746698 0.00729901 0.00712664 0.00694987 0.0067687 0.00658313 0.00639315 0.00619872 0.00599978 0.00579633 0.00558836 0.00537588 0.00515889 0.00493739 0.00471137 0.00448276 0.00425346 0.00402347 0.00379279 0.00356142 0.00332936 0.00309662 0.00286318 0.00263302 0.00241007 0.00219435 0.00198585 0.00178457 0.00159051 0.00140367 0.00122406 0.00105499 0.000899802 0.000758486 0.000631044 0.000517477 0.000417784 0.000331967 0.000260023 0.00019908 0.000146263 0.000101572 6.50059e-05 3.65658e-05 1.62515e-05 4.06287e-06 0 0 1.21652e-05 4.86608e-05 0.000109487 0.000194643 0.00030413 0.000437947 0.000596095 0.000778573 0.000989126 0.0012315 0.0015057 0.00181171 0.00214955 0.00251921 0.00292069 0.00335399 0.00380686 0.00426707 0.00473461 0.00520949 0.00569169 0.00618123 0.0066781 0.0071823 0.00768241 0.008167 0.00863608 0.00908964 0.00952768 0.00995021 0.0103572 0.0107487 0.0111201 0.011467 0.0117893 0.0120869 0.01236 0.0126085 0.0128324 0.0130317 0.0132077 0.0133615 0.0134933 0.0136029 0.0136904 0.0137558 0.0137991 0.0138203 0.0138234 0.0138126 0.0137879 0.0137493 0.0136968 0.0136303 0.0135499 0.0134555 0.0133511 0.0132406 0.013124 0.0130012 0.0128724 0.0127373 0.0125962 0.0124489 0.0122973 0.0121433 0.0119867 0.0118276 0.0116661 0.011502 0.0113355 0.0111664 0.0109945 0.0108195 0.0106412 0.0104598 0.0102751 0.0100873 0.00989631 0.0097021 0.00950358 0.00929962 0.00909022 0.00887538 0.0086551 0.00842937 0.00819821 0.0079616 0.00771951 0.00747188 0.00721873 0.00696004 0.00669582 0.00642606 0.00615078 0.00586996 0.00558596 0.00530114 0.0050155 0.00472903 0.00444173 0.00415361 0.00386467 0.0035749 0.00328915 0.00301226 0.00274423 0.00248506 0.00223475 0.0019933 0.00176071 0.00153697 0.00132622 0.00113258 0.000956032 0.000796594 0.000654259 0.000529029 0.000420903 0.00032988 0.000252565 0.000185558 0.00012886 8.24701e-05 4.63894e-05 2.06175e-05 5.15438e-06 0 0 1.50565e-05 6.02262e-05 0.000135509 0.000240905 0.000376414 0.000542036 0.000737771 0.000963619 0.00122366 0.00152199 0.0018586 0.00223349 0.00264666 0.00309812 0.00358786 0.00411587 0.00466736 0.00522751 0.00579631 0.00637377 0.00695989 0.00755466 0.00815809 0.00877018 0.00937724 0.00996556 0.0105352 0.011086 0.0116181 0.0121316 0.0126262 0.0131022 0.0135539 0.013976 0.0143683 0.0147311 0.0150641 0.0153674 0.0156411 0.0158851 0.0161008 0.0162898 0.016452 0.0165874 0.016696 0.0167778 0.0168329 0.0168611 0.0168675 0.0168568 0.0168291 0.0167845 0.0167228 0.0166441 0.0165484 0.0164357 0.0163107 0.016178 0.0160377 0.0158898 0.0157342 0.015571 0.0154001 0.0152216 0.0150377 0.0148505 0.0146601 0.0144665 0.0142697 0.0140697 0.0138664 0.0136599 0.0134498 0.0132357 0.0130176 0.0127956 0.0125696 0.0123396 0.0121056 0.0118677 0.0116244 0.0113746 0.0111181 0.0108551 0.0105855 0.0103093 0.0100265 0.00973706 0.00944104 0.00913838 0.00882908 0.00851315 0.00819058 0.00786137 0.00752553 0.00718305 0.00683677 0.00648953 0.00614134 0.00579218 0.00544207 0.005091 0.00473896 0.00438597 0.00403782 0.0037003 0.00337342 0.00305717 0.00275156 0.00245658 0.00217224 0.00189853 0.00164047 0.00140307 0.00118633 0.000990245 0.000814818 0.00066005 0.000525941 0.000412489 0.000315812 0.000232025 0.000161129 0.000103122 5.80063e-05 2.57806e-05 6.44514e-06 0 0 1.83466e-05 7.33863e-05 0.000165119 0.000293545 0.000458664 0.000660477 0.000898982 0.00117418 0.00149036 0.00185183 0.00225856 0.00271058 0.00320787 0.00375044 0.00433828 0.0049714 0.00563218 0.00630298 0.00698382 0.00767468 0.00837558 0.0090865 0.00980746 0.0105384 0.0112633 0.011966 0.0126464 0.0133046 0.0139405 0.0145543 0.0151458 0.015715 0.0162555 0.0167609 0.0172309 0.0176658 0.0180654 0.0184298 0.018759 0.0190529 0.0193133 0.0195418 0.0197383 0.0199029 0.0200356 0.0201364 0.0202053 0.0202423 0.0202531 0.0202434 0.0202134 0.0201628 0.0200919 0.0200005 0.0198887 0.0197564 0.0196092 0.0194527 0.0192867 0.0191114 0.0189268 0.0187327 0.0185293 0.0183164 0.0180969 0.0178732 0.0176455 0.0174136 0.0171777 0.0169376 0.0166934 0.0164452 0.0161924 0.0159348 0.0156723 0.0154049 0.0151326 0.0148554 0.0145733 0.0142864 0.013993 0.0136918 0.0133828 0.0130659 0.0127411 0.0124084 0.0120679 0.0117195 0.0113633 0.0109993 0.0106274 0.0102477 0.00986016 0.00946481 0.00906164 0.00865064 0.00823519 0.00781864 0.00740099 0.00698226 0.00656243 0.00614151 0.00571949 0.00529639 0.00487901 0.00447418 0.0040819 0.00370217 0.00333498 0.00298035 0.00263827 0.00230874 0.00199775 0.00171129 0.00144938 0.001212 0.000999154 0.000810849 0.000647081 0.00050785 0.000388822 0.000285665 0.000198379 0.000126962 7.14164e-05 3.17406e-05 7.93515e-06 0 0 2.20353e-05 8.81412e-05 0.000198318 0.000352565 0.000550882 0.000793271 0.00107973 0.00141026 0.00178923 0.002221 0.00270558 0.00324297 0.00383316 0.00447616 0.00517196 0.00592057 0.00670131 0.0074935 0.00829714 0.00911223 0.00993877 0.0107768 0.0116262 0.0124871 0.0133407 0.0141683 0.0149698 0.0157454 0.0164949 0.0172184 0.0179158 0.0185873 0.0192251 0.0198216 0.020377 0.0208911 0.021364 0.0217956 0.0221861 0.0225353 0.0228451 0.0231174 0.0233522 0.0235496 0.0237094 0.0238317 0.0239165 0.0239638 0.0239803 0.0239725 0.0239406 0.0238844 0.023804 0.0236994 0.0235705 0.0234175 0.0232467 0.0230645 0.022871 0.0226662 0.02245 0.0222224 0.0219836 0.0217333 0.0214749 0.0212113 0.0209426 0.0206688 0.0203899 0.0201058 0.0198167 0.0195224 0.0192226 0.0189168 0.0186052 0.0182876 0.0179642 0.0176348 0.0172995 0.0169583 0.0166095 0.0162514 0.0158841 0.0155076 0.0151218 0.0147268 0.0143225 0.013909 0.0134863 0.0130545 0.0126136 0.0121637 0.0117046 0.0112364 0.0107591 0.0102727 0.00978121 0.00928845 0.00879446 0.00829925 0.00780281 0.00730515 0.00680626 0.00630615 0.00581272 0.0053339 0.00486968 0.00442005 0.00398504 0.00356462 0.0031588 0.00276758 0.00239804 0.00205723 0.00174517 0.00146185 0.00120727 0.000981424 0.000784323 0.000615962 0.000471596 0.000346479 0.00024061 0.00015399 8.66196e-05 3.84976e-05 9.6244e-06 0 0 2.61227e-05 0.000104491 0.000235104 0.000417963 0.000653067 0.000940417 0.00128001 0.00167185 0.00212025 0.00262952 0.00319965 0.00383066 0.00452254 0.00527528 0.00608889 0.00696338 0.00787476 0.00879905 0.00973627 0.0106864 0.0116495 0.0126254 0.0136143 0.0146161 0.0156093 0.0165725 0.0175055 0.0184084 0.0192811 0.0201238 0.0209364 0.0217189 0.0224625 0.0231583 0.0238065 0.024407 0.0249598 0.0254649 0.0259224 0.0263321 0.0266962 0.0270168 0.0272938 0.0275273 0.0277172 0.0278636 0.0279664 0.0280258 0.0280491 0.0280441 0.0280108 0.0279492 0.0278591 0.0277408 0.0275941 0.0274191 0.0272231 0.0270136 0.0267905 0.026554 0.0263039 0.0260402 0.025763 0.0254724 0.0251717 0.0248648 0.0245517 0.0242322 0.0239064 0.0235744 0.023236 0.0228914 0.0225401 0.0221818 0.0218163 0.0214439 0.0210643 0.0206777 0.0202841 0.0198833 0.0194737 0.0190533 0.0186222 0.0181804 0.0177278 0.0172644 0.0167903 0.0163055 0.0158101 0.0153042 0.0147879 0.0142611 0.0137238 0.0131761 0.012618 0.0120494 0.0114748 0.010899 0.0103217 0.00974315 0.00916321 0.00858192 0.00799926 0.00741525 0.00683896 0.00627946 0.00573675 0.00521083 0.00470171 0.00420937 0.00373383 0.00327508 0.00284135 0.0024409 0.00207372 0.0017398 0.00143915 0.00117178 0.000937666 0.000736826 0.000564132 0.000414464 0.000287823 0.000184206 0.000103616 4.60516e-05 1.15129e-05 0 0 3.06088e-05 0.000122435 0.000275479 0.00048974 0.000765219 0.00110192 0.00149983 0.00195896 0.00248344 0.00307738 0.00374078 0.00447366 0.005276 0.00614781 0.00708909 0.00809983 0.00915252 0.0102196 0.0113012 0.0123972 0.0135076 0.0146325 0.0157718 0.0169255 0.0180693 0.0191785 0.0202533 0.0212935 0.0222993 0.0232707 0.0242075 0.0251099 0.0259677 0.026771 0.0275196 0.0282136 0.0288529 0.0294377 0.0299679 0.0304434 0.0308666 0.0312398 0.0315629 0.031836 0.0320591 0.0322321 0.0323551 0.032428 0.0324595 0.0324582 0.0324241 0.0323571 0.0322573 0.0321247 0.0319593 0.0317611 0.0315384 0.0312998 0.0310453 0.0307748 0.0304884 0.030186 0.0298677 0.0295335 0.0291874 0.0288338 0.0284725 0.0281037 0.0277273 0.0273432 0.0269516 0.0265523 0.0261451 0.0257296 0.0253057 0.0248736 0.024433 0.0239842 0.0235271 0.0230616 0.0225857 0.0220976 0.021597 0.0210841 0.0205589 0.0200213 0.0194713 0.018909 0.0183346 0.0177483 0.01715 0.0165399 0.0159179 0.015284 0.0146382 0.0139805 0.0133161 0.0126502 0.0119828 0.011314 0.0106436 0.00997182 0.0092985 0.00862371 0.00795773 0.00731087 0.00668313 0.0060745 0.005485 0.00491462 0.00436336 0.00383121 0.00332769 0.00286229 0.00243501 0.00204586 0.00169482 0.0013819 0.00110711 0.000870441 0.000666431 0.000489623 0.000340016 0.00021761 0.000122406 5.44026e-05 1.36006e-05 0 0 3.54935e-05 0.000141974 0.000319442 0.000567897 0.000887339 0.00127777 0.00173918 0.00227159 0.00287878 0.00356458 0.00432897 0.00517196 0.00609355 0.00709374 0.00817253 0.00932992 0.0105346 0.0117553 0.012992 0.0142446 0.0155133 0.016798 0.0180987 0.0194153 0.0207204 0.0219864 0.0232132 0.0244009 0.0255495 0.0266589 0.0277292 0.0287603 0.0297409 0.0306595 0.0315161 0.0323107 0.0330433 0.0337139 0.0343226 0.0348692 0.0353564 0.0357865 0.0361597 0.0364759 0.0367351 0.0369372 0.0370824 0.0371707 0.0372115 0.0372148 0.0371804 0.0371083 0.0369986 0.0368512 0.0366662 0.0364435 0.0361927 0.0359233 0.0356354 0.0353288 0.0350037 0.0346599 0.0342976 0.0339167 0.0335219 0.0331181 0.0327053 0.0322834 0.0318524 0.0314124 0.0309633 0.0305051 0.0300376 0.0295603 0.0290734 0.0285767 0.0280703 0.0275543 0.0270285 0.026493 0.0259456 0.0253841 0.0248085 0.0242189 0.0236152 0.0229974 0.0223655 0.0217195 0.0210598 0.0203867 0.0197001 0.0190002 0.0182868 0.01756 0.0168197 0.0160661 0.0153049 0.0145421 0.0137777 0.0130117 0.0122441 0.0114748 0.010704 0.00993151 0.00916902 0.00842811 0.0077088 0.00701106 0.00633492 0.00568036 0.00504738 0.004436 0.00385705 0.00332141 0.00282906 0.00238001 0.00197426 0.00161181 0.00129266 0.00101681 0.000778494 0.000571955 0.000397191 0.000254202 0.000142989 6.35505e-05 1.58876e-05 0 0 4.07106e-05 0.000162842 0.000366395 0.00065137 0.00101776 0.00146558 0.00199482 0.00260548 0.00330092 0.00408451 0.00495624 0.00591612 0.00696414 0.0081003 0.00932461 0.0106371 0.0120024 0.0133853 0.0147857 0.0162037 0.0176393 0.0190924 0.0205631 0.0220514 0.0235265 0.0249575 0.0263445 0.0276875 0.0289865 0.0302414 0.0314524 0.0326193 0.0337293 0.0347697 0.0357404 0.0366413 0.0374726 0.0382341 0.038926 0.0395482 0.0401033 0.0405942 0.0410208 0.0413831 0.0416811 0.0419149 0.0420843 0.0421895 0.0422411 0.04225 0.0422161 0.0421395 0.0420201 0.0418579 0.041653 0.0414053 0.0411255 0.0408242 0.0405016 0.0401575 0.0397919 0.0394049 0.0389965 0.0385666 0.0381207 0.0376641 0.0371969 0.036719 0.0362305 0.0357312 0.0352213 0.0347008 0.0341693 0.0336266 0.0330727 0.0325076 0.0319313 0.0313438 0.0307451 0.0301352 0.0295117 0.0288724 0.0282171 0.027546 0.0268589 0.026156 0.0254371 0.0247024 0.0239522 0.023187 0.0224068 0.0216116 0.0208014 0.0199762 0.019136 0.0182808 0.0174173 0.0165519 0.0156849 0.0148161 0.0139455 0.0130732 0.0121992 0.0113234 0.0104588 0.00961836 0.00880206 0.00800991 0.0072419 0.00649804 0.00577832 0.00508275 0.00442361 0.00381322 0.00325156 0.00273865 0.00227447 0.00185903 0.00149233 0.00117437 0.000899126 0.000660583 0.000458738 0.000293592 0.000165146 7.33981e-05 1.83495e-05 0 0 4.61936e-05 0.000184774 0.000415742 0.000739097 0.00115484 0.00166297 0.00226348 0.00295639 0.00374448 0.00463055 0.00561461 0.00669666 0.00787669 0.00915471 0.0105307 0.0120047 0.0135372 0.0150889 0.0166596 0.0182494 0.0198583 0.0214863 0.0231335 0.0247997 0.0264509 0.0280531 0.0296062 0.0311103 0.0325653 0.0339712 0.0353281 0.036636 0.0378805 0.0390474 0.0401367 0.0411483 0.0420824 0.0429388 0.0437177 0.0444189 0.0450454 0.0456001 0.046083 0.0464941 0.0468334 0.0471009 0.0472965 0.0474204 0.0474843 0.0475002 0.0474679 0.0473876 0.0472591 0.0470826 0.046858 0.0465853 0.0462762 0.0459428 0.0455848 0.0452024 0.0447955 0.0443641 0.0439083 0.043428 0.0429292 0.0424181 0.0418945 0.0413585 0.0408101 0.0402493 0.0396761 0.0390904 0.0384922 0.0378811 0.0372573 0.0366206 0.0359712 0.0353089 0.0346338 0.0339459 0.0332428 0.0325218 0.0317831 0.0310266 0.0302523 0.0294603 0.0286505 0.0278229 0.0269781 0.0261167 0.0252387 0.024344 0.0234328 0.0225049 0.0215604 0.0205993 0.019629 0.0186568 0.0176827 0.0167067 0.0157289 0.0147492 0.0137676 0.0127841 0.011813 0.0108688 0.00995123 0.00906044 0.0081964 0.00735911 0.00654858 0.00576479 0.00502156 0.00433271 0.00369824 0.00311815 0.00259244 0.0021211 0.00170415 0.00134157 0.00102714 0.00075463 0.000524049 0.000335391 0.000188658 8.38478e-05 2.0962e-05 0 0 5.19424e-05 0.00020777 0.000467482 0.000831079 0.00129856 0.00186993 0.00254518 0.00332432 0.00420945 0.00520271 0.0063041 0.0075136 0.00883122 0.010257 0.0117908 0.0134328 0.0151391 0.0168661 0.0186136 0.0203817 0.0221704 0.0239797 0.0258096 0.0276601 0.0294938 0.0312732 0.0329983 0.0346692 0.0362859 0.0378483 0.0393565 0.0408104 0.0421943 0.0434925 0.044705 0.0458317 0.0468727 0.047828 0.0486976 0.0494814 0.0501826 0.0508042 0.0513463 0.0518088 0.0521918 0.0524952 0.0527191 0.0528634 0.0529411 0.0529652 0.0529357 0.0528525 0.0527157 0.0525253 0.0522812 0.0519834 0.051645 0.0512789 0.0508851 0.0504636 0.0500145 0.0495376 0.049033 0.0485008 0.0479475 0.0473799 0.046798 0.0462019 0.0455914 0.0449666 0.0443274 0.043674 0.0430062 0.0423238 0.041627 0.0409156 0.0401898 0.0394494 0.0386945 0.0379251 0.0371386 0.0363324 0.0355065 0.0346608 0.0337954 0.0329104 0.0320055 0.031081 0.0301375 0.0291757 0.0281957 0.0271974 0.0261808 0.025146 0.0240929 0.0230216 0.0219401 0.0208567 0.0197712 0.0186837 0.0175942 0.0165027 0.0154091 0.0143136 0.0132318 0.0121793 0.0111563 0.0101626 0.00919841 0.00826358 0.00735815 0.00648212 0.00565089 0.00487989 0.0041691 0.00351853 0.00292817 0.00239803 0.0019281 0.0015184 0.00116252 0.000854098 0.000593124 0.000379599 0.000213525 9.48998e-05 2.3725e-05 0 0 5.79572e-05 0.000231829 0.000521615 0.000927315 0.00144893 0.00208646 0.0028399 0.00370926 0.00469585 0.00580099 0.00702468 0.00836693 0.00982772 0.0114071 0.013105 0.0149214 0.0168081 0.0187169 0.0206478 0.0226007 0.0245756 0.0265726 0.0285916 0.0306327 0.032655 0.0346178 0.0365209 0.0383644 0.0401483 0.0418727 0.0435374 0.0451426 0.0466709 0.0481052 0.0494454 0.0506915 0.0518436 0.0529017 0.0538657 0.0547357 0.0555148 0.0562065 0.0568106 0.0573272 0.0577563 0.0580979 0.0583519 0.0585185 0.0586115 0.0586452 0.0586195 0.0585343 0.0583898 0.0581859 0.0579225 0.0575998 0.0572318 0.0568327 0.0564025 0.0559412 0.0554488 0.0549253 0.0543706 0.0537849 0.0531755 0.0525497 0.0519075 0.051249 0.0505742 0.049883 0.0491754 0.0484515 0.0477113 0.0469548 0.0461819 0.0453927 0.0445872 0.0437654 0.0429273 0.0420728 0.0411994 0.0403042 0.0393873 0.0384486 0.0374883 0.0365062 0.0355023 0.0344768 0.0334304 0.0323641 0.0312778 0.0301716 0.0290455 0.0278995 0.0267335 0.0255476 0.0243507 0.0231516 0.0219503 0.0207469 0.0195414 0.0183337 0.0171239 0.0159119 0.0147149 0.01355 0.0124172 0.0113165 0.0102479 0.00921144 0.00820704 0.00723474 0.00631161 0.00545474 0.00466413 0.00393976 0.00328166 0.00268981 0.00216421 0.00170486 0.00130529 0.000958986 0.000665962 0.000426216 0.000239746 0.000106554 2.66385e-05 0 0 6.42379e-05 0.000256951 0.000578141 0.00102781 0.00160595 0.00231256 0.00314766 0.00411122 0.00520367 0.00642538 0.00777638 0.00925665 0.0108662 0.012605 0.0144731 0.0164705 0.0185442 0.0206414 0.0227621 0.0249062 0.0270739 0.0292649 0.0314795 0.0337175 0.0359347 0.0380868 0.0401738 0.0421958 0.0441526 0.0460443 0.0478709 0.0496324 0.0513101 0.0528852 0.0543578 0.0557277 0.0569951 0.0581599 0.0592221 0.0601817 0.0610422 0.061807 0.062476 0.0630494 0.063527 0.0639089 0.0641951 0.0643856 0.0644955 0.0645401 0.0645192 0.064433 0.0642814 0.0640645 0.0637821 0.0634344 0.0630366 0.0626041 0.0621369 0.061635 0.0610984 0.0605272 0.0599212 0.0592805 0.0586132 0.0579274 0.057223 0.0565001 0.0557586 0.0549986 0.0542201 0.053423 0.0526076 0.0517739 0.050922 0.0500518 0.0491635 0.0482569 0.0473321 0.046389 0.045425 0.0444371 0.0434255 0.04239 0.0413308 0.0402477 0.0391409 0.0380102 0.0368568 0.0356818 0.0344852 0.0332669 0.032027 0.0307654 0.0294822 0.0281774 0.0268606 0.0255415 0.0242201 0.0228965 0.0215706 0.0202423 0.0189119 0.0175791 0.0162626 0.0149809 0.0137341 0.0125221 0.011345 0.0102027 0.00909525 0.00802265 0.00700372 0.00605728 0.00518333 0.00438187 0.00365291 0.00299643 0.00241245 0.00190097 0.00145543 0.00106929 0.000742565 0.000475242 0.000267323 0.00011881 2.97026e-05 0 0 7.07844e-05 0.000283138 0.00063706 0.00113255 0.00176961 0.00254824 0.00346844 0.0045302 0.0057329 0.00707589 0.00855918 0.0101828 0.0119466 0.0138508 0.0158953 0.01808 0.0203473 0.0226395 0.0249566 0.0272984 0.0296652 0.0320568 0.0344732 0.0369145 0.0393328 0.0416804 0.0439572 0.0461633 0.0482986 0.0503632 0.052357 0.0542801 0.0561121 0.0578328 0.0594422 0.0609403 0.0623271 0.0636025 0.0647667 0.0658195 0.0667647 0.0676057 0.0683425 0.0689752 0.0695038 0.0699283 0.0702486 0.0704648 0.0705931 0.0706498 0.070635 0.0705486 0.0703906 0.070161 0.0698599 0.0694871 0.0690594 0.0685931 0.0680884 0.0675452 0.0669635 0.0663433 0.0656846 0.064