<?xml version="1.0"?> 
<VTKFile type="StructuredGrid" version="0.1"> 
<StructuredGrid WholeExtent="0 128 0 128 0 0"> 
<Piece Extent="0 128 0 128 0 0"> 
<PointData>
<DataArray type="Float32" Name="u" format="ascii" NumberOfComponents="1"> 
0 0 0 0 0 0 0 0 0 0 0 0 0 0 0 0 0 0 0 0 0 0 0 0 0 0 0 0 0 0 0 0 0 0 0 0 0 0 0 0 0 0 0 0 0 0 0 0 0 0 0 0 0 0 0 0 0 0 0 0 0 0 0 0 0 0 0 0 0 0 0 0 0 0 0 0 0 0 0 0 0 0 0 0 0 0 0 0 0 0 0 0 0 0 0 0 0 0 0 0 0 0 0 0 0 0 0 0 0 0 0 0 0 0 0 0 0 0 0 0 0 0 0 0 0 0 0 0 0 0 4.27448e-07 1.70979e-06 3.84703e-06 6.83917e-06 1.06862e-05 1.53881e-05 2.0945e-05 2.73567e-05 3.4749e-05 4.32477e-05 5.28526e-05 6.35639e-05 7.53815e-05 8.83054e-05 0.000102336 0.000117472 0.000133312 0.000149452 0.000165893 0.000182633 0.000199674 0.000217015 0.000234657 0.000252598 0.00027045 0.000287822 0.000304713 0.000321125 0.000337056 0.000352507 0.000367479 0.00038197 0.000395778 0.000408701 0.000420739 0.000431892 0.000442159 0.000451542 0.000460039 0.00046765 0.000474345 0.000480092 0.000484891 0.000488743 0.000491646 0.000493601 0.000494608 0.000494667 0.000493869 0.000492303 0.000489971 0.000486873 0.000483007 0.000478374 0.000472975 0.000466809 0.000460027 0.000452781 0.00044507 0.000436895 0.000428256 0.000419152 0.000409585 0.000399552 0.000389211 0.000378716 0.000368067 0.000357264 0.000346307 0.000335197 0.000323932 0.000312514 0.000301063 0.0002897 0.000278424 0.000267236 0.000256136 0.000245124 0.0002342 0.000223364 0.000212687 0.000202242 0.000192027 0.000182044 0.000172292 0.000162772 0.000153482 0.000144424 0.000135625 0.000127113 0.000118889 0.000110952 0.000103303 9.59403e-05 8.88654e-05 8.20778e-05 7.5579e-05 6.93704e-05 6.3452e-05 5.78238e-05 5.24858e-05 4.74381e-05 4.26805e-05 3.82132e-05 3.40268e-05 3.01122e-05 2.64694e-05 2.30983e-05 1.99989e-05 1.71713e-05 1.46155e-05 1.23313e-05 1.02881e-05 8.45508e-06 6.83213e-06 5.41931e-06 4.21659e-06 3.224e-06 2.44153e-06 1.86918e-06 1.43109e-06 1.05141e-06 7.30147e-07 4.67294e-07 2.62853e-07 1.16824e-07 2.92059e-08 0 0 1.70979e-06 6.83917e-06 1.53881e-05 2.73567e-05 4.27448e-05 6.15525e-05 8.37799e-05 0.000109427 0.000138996 0.000172991 0.000211411 0.000254256 0.000301526 0.000353222 0.000409343 0.000469889 0.000533248 0.000597809 0.00066357 0.000730533 0.000798696 0.000868061 0.000938626 0.00101039 0.0010818 0.00115129 0.00121885 0.0012845 0.00134822 0.00141003 0.00146991 0.00152788 0.00158311 0.00163481 0.00168296 0.00172757 0.00176864 0.00180617 0.00184015 0.0018706 0.00189738 0.00192037 0.00193957 0.00195497 0.00196658 0.0019744 0.00197843 0.00197867 0.00197547 0.00196921 0.00195989 0.00194749 0.00193203 0.0019135 0.0018919 0.00186723 0.00184011 0.00181112 0.00178028 0.00174758 0.00171302 0.00167661 0.00163834 0.00159821 0.00155684 0.00151486 0.00147227 0.00142906 0.00138523 0.00134079 0.00129573 0.00125006 0.00120425 0.0011588 0.0011137 0.00106895 0.00102455 0.000980498 0.000936801 0.000893456 0.000850749 0.000808966 0.000768109 0.000728177 0.000689169 0.000651086 0.000613929 0.000577696 0.0005425 0.000508454 0.000475557 0.000443809 0.00041321 0.000383761 0.000355462 0.000328311 0.000302316 0.000277481 0.000253808 0.000231295 0.000209943 0.000189752 0.000170722 0.000152853 0.000136107 0.000120449 0.000105878 9.23932e-05 7.99957e-05 6.86853e-05 5.84618e-05 4.93253e-05 4.11526e-05 3.38203e-05 2.73285e-05 2.16772e-05 1.68664e-05 1.2896e-05 9.76612e-06 7.47671e-06 5.72435e-06 4.20565e-06 2.92059e-06 1.86918e-06 1.05141e-06 4.67294e-07 1.16824e-07 0 0 3.84703e-06 1.53881e-05 3.46233e-05 6.15525e-05 9.61759e-05 0.000138493 0.000188505 0.00024621 0.000312741 0.000389229 0.000475674 0.000572075 0.000678434 0.000794749 0.000921021 0.00105725 0.00119981 0.00134507 0.00149303 0.0016437 0.00179707 0.00195314 0.00211191 0.00227338 0.00243405 0.0025904 0.00274242 0.00289012 0.00303351 0.00317257 0.00330731 0.00343773 0.003562 0.00367831 0.00378665 0.00388703 0.00397943 0.00406387 0.00414035 0.00420885 0.00426911 0.00432083 0.00436402 0.00439868 0.00442481 0.00444241 0.00445147 0.004452 0.00444482 0.00443073 0.00440974 0.00438185 0.00434706 0.00430537 0.00425677 0.00420128 0.00414024 0.00407502 0.00400563 0.00393206 0.0038543 0.00377237 0.00368626 0.00359597 0.0035029 0.00340844 0.0033126 0.00321538 0.00311677 0.00301677 0.00291539 0.00281263 0.00270957 0.0026073 0.00250582 0.00240513 0.00230523 0.00220612 0.0021078 0.00201028 0.00191418 0.00182017 0.00172825 0.0016384 0.00155063 0.00146494 0.00138134 0.00129982 0.00122063 0.00114402 0.00107 0.00099857 0.000929723 0.000863463 0.000799789 0.0007387 0.000680211 0.000624333 0.000571068 0.000520414 0.000472372 0.000426942 0.000384125 0.000343919 0.000306242 0.00027101 0.000238225 0.000207885 0.00017999 0.000154542 0.000131539 0.000110982 9.25933e-05 7.60957e-05 6.14892e-05 4.87737e-05 3.79494e-05 2.9016e-05 2.19738e-05 1.68226e-05 1.28798e-05 9.46271e-06 6.57133e-06 4.20565e-06 2.36568e-06 1.05141e-06 2.62853e-07 0 0 6.83917e-06 2.73567e-05 6.15525e-05 0.000109427 0.000170979 0.00024621 0.000335119 0.000437707 0.000555984 0.000691963 0.000845642 0.00101702 0.0012061 0.00141289 0.00163737 0.00187956 0.00213299 0.00239123 0.00265428 0.00292213 0.00319478 0.00347224 0.00375451 0.00404157 0.0043272 0.00460515 0.00487541 0.005138 0.0053929 0.00564012 0.00587966 0.00611152 0.00633245 0.00653922 0.00673183 0.00691027 0.00707455 0.00722467 0.00736062 0.0074824 0.00758953 0.00768148 0.00775826 0.00781988 0.00786633 0.00789761 0.00791373 0.00791467 0.0079019 0.00787686 0.00783954 0.00778996 0.00772811 0.00765399 0.0075676 0.00746894 0.00736043 0.00724449 0.00712112 0.00699032 0.00685209 0.00670644 0.00655335 0.00639284 0.00622738 0.00605945 0.00588907 0.00571622 0.00554092 0.00536315 0.00518292 0.00500023 0.00481701 0.00463519 0.00445478 0.00427578 0.00409818 0.00392199 0.0037472 0.00357382 0.00340299 0.00323587 0.00307244 0.00291271 0.00275668 0.00260435 0.00245571 0.00231078 0.00217 0.00203381 0.00190223 0.00177524 0.00165284 0.00153505 0.00142185 0.00131324 0.00120926 0.00110993 0.00101523 0.00092518 0.000839773 0.000759009 0.000682888 0.000611411 0.000544429 0.000481796 0.00042351 0.000369573 0.000319983 0.000274741 0.000233847 0.000197301 0.00016461 0.000135281 0.000109314 8.67089e-05 6.74655e-05 5.15841e-05 3.90645e-05 2.99068e-05 2.28974e-05 1.68226e-05 1.16824e-05 7.47671e-06 4.20565e-06 1.86918e-06 4.67294e-07 0 0 1.06862e-05 4.27448e-05 9.61759e-05 0.000170979 0.000267155 0.000384703 0.000523624 0.000683917 0.000868725 0.00108119 0.00132132 0.0015891 0.00188454 0.00220764 0.00255839 0.00293681 0.0033328 0.0037363 0.00414731 0.00456583 0.00499185 0.00542538 0.00586642 0.00631496 0.00676125 0.00719554 0.00761783 0.00802812 0.0084264 0.00881269 0.00918697 0.00954924 0.00989445 0.0102175 0.0105185 0.0107973 0.011054 0.0112885 0.011501 0.0116913 0.0118586 0.0120023 0.0121223 0.0122186 0.0122911 0.01234 0.0123652 0.0123667 0.0123467 0.0123076 0.0122493 0.0121718 0.0120752 0.0119594 0.0118244 0.0116702 0.0115007 0.0113195 0.0111267 0.0109224 0.0107064 0.0104788 0.0102396 0.00998881 0.00973027 0.0094679 0.00920167 0.0089316 0.00865768 0.00837992 0.00809831 0.00781285 0.00752657 0.00724249 0.0069606 0.00668091 0.00640341 0.00612811 0.00585501 0.0055841 0.00531718 0.00505604 0.00480068 0.0045511 0.00430731 0.00406929 0.00383705 0.0036106 0.00339063 0.00317784 0.00297223 0.00277381 0.00258257 0.00239851 0.00222163 0.00205194 0.00188947 0.00173426 0.0015863 0.00144559 0.00131215 0.00118595 0.00106701 0.00095533 0.000850671 0.000752806 0.000661735 0.000577457 0.000499973 0.000429283 0.000365386 0.000308283 0.000257204 0.000211377 0.000170803 0.000135483 0.000105415 8.06001e-05 6.10383e-05 4.67294e-05 3.57772e-05 2.62853e-05 1.82537e-05 1.16824e-05 6.57133e-06 2.92059e-06 7.30147e-07 0 0 1.53881e-05 6.15525e-05 0.000138493 0.00024621 0.000384703 0.000553973 0.000754019 0.000984841 0.00125096 0.00155692 0.00190269 0.0022883 0.00271373 0.003179 0.00368408 0.004229 0.00479923 0.00538028 0.00597213 0.00657479 0.00718827 0.00781255 0.00844764 0.00909354 0.0097362 0.0103616 0.0109697 0.0115605 0.012134 0.0126903 0.0132292 0.0137509 0.014248 0.0147132 0.0151466 0.0155481 0.0159177 0.0162555 0.0165614 0.0168354 0.0170764 0.0172833 0.0174561 0.0175947 0.0176992 0.0177696 0.0178059 0.017808 0.0177793 0.0177229 0.017639 0.0175274 0.0173882 0.0172215 0.0170271 0.0168051 0.016561 0.0163001 0.0160225 0.0157282 0.0154172 0.0150895 0.014745 0.0143839 0.0140116 0.0136338 0.0132504 0.0128615 0.0124671 0.0120671 0.0116616 0.0112505 0.0108383 0.0104292 0.0100233 0.00962051 0.00922091 0.00882448 0.00843121 0.0080411 0.00765674 0.0072807 0.00691298 0.00655359 0.00620252 0.00585978 0.00552536 0.00519926 0.0048825 0.00457608 0.00428001 0.00399428 0.00371889 0.00345385 0.00319915 0.0029548 0.00272084 0.00249733 0.00228427 0.00208166 0.00188949 0.00170777 0.0015365 0.00137567 0.00122497 0.00108404 0.000952898 0.000831538 0.000719962 0.000618167 0.000526156 0.000443928 0.000370373 0.000304383 0.000245957 0.000195095 0.000151797 0.000116064 8.78951e-05 6.72904e-05 5.15192e-05 3.78508e-05 2.62853e-05 1.68226e-05 9.46271e-06 4.20565e-06 1.05141e-06 0 0 2.0945e-05 8.37799e-05 0.000188505 0.000335119 0.000523624 0.000754019 0.0010263 0.00134048 0.0017027 0.00211914 0.00258978 0.00311463 0.00369369 0.00432697 0.00501445 0.00575614 0.00653229 0.00732316 0.00812873 0.00894903 0.00978403 0.0106337 0.0114982 0.0123773 0.0132521 0.0141033 0.014931 0.0157351 0.0165158 0.0172729 0.0180065 0.0187165 0.0193931 0.0200264 0.0206162 0.0211627 0.0216658 0.0221255 0.0225419 0.0229149 0.0232429 0.0235245 0.0237597 0.0239484 0.0240906 0.0241864 0.0242358 0.0242387 0.0241996 0.0241229 0.0240086 0.0238568 0.0236673 0.0234403 0.0231758 0.0228736 0.0225413 0.0221862 0.0218084 0.0214079 0.0209845 0.0205385 0.0200696 0.0195781 0.0190713 0.0185571 0.0180353 0.0175059 0.0169691 0.0164246 0.0158727 0.0153132 0.0147521 0.0141953 0.0136428 0.0130946 0.0125507 0.0120111 0.0114758 0.0109448 0.0104217 0.00990984 0.00940934 0.00892016 0.00844232 0.00797581 0.00752063 0.00707677 0.00664563 0.00622856 0.00582557 0.00543666 0.00506183 0.00470108 0.0043544 0.00402181 0.00370337 0.00339915 0.00310915 0.00283336 0.0025718 0.00232446 0.00209135 0.00187245 0.00166732 0.0014755 0.001297 0.00113182 0.000979948 0.000841395 0.000716157 0.000604235 0.000504119 0.000414299 0.000334775 0.000265546 0.000206613 0.000157976 0.000119635 9.15897e-05 7.01233e-05 5.15192e-05 3.57772e-05 2.28974e-05 1.28798e-05 5.72435e-06 1.43109e-06 0 0 2.73567e-05 0.000109427 0.00024621 0.000437707 0.000683917 0.000984841 0.00134048 0.00175083 0.00222394 0.00276785 0.00338257 0.00406809 0.00482442 0.00565155 0.00654948 0.00751822 0.00853197 0.00956494 0.0106171 0.0116885 0.0127791 0.013889 0.015018 0.0161663 0.0173088 0.0184206 0.0195017 0.020552 0.0215716 0.0225605 0.0235186 0.0244461 0.0253298 0.0261569 0.0269273 0.0276411 0.0282982 0.0288987 0.0294425 0.0299296 0.0303581 0.0307259 0.0310331 0.0312795 0.0314653 0.0315904 0.0316549 0.0316587 0.0316076 0.0315074 0.0313582 0.0311598 0.0309124 0.030616 0.0302704 0.0298757 0.0294417 0.028978 0.0284845 0.0279613 0.0274084 0.0268258 0.0262134 0.0255713 0.0249095 0.0242378 0.0235563 0.0228649 0.0221637 0.0214526 0.0207317 0.0200009 0.019268 0.0185408 0.0178191 0.0171031 0.0163927 0.015688 0.0149888 0.0142953 0.013612 0.0129435 0.0122897 0.0116508 0.0110267 0.0104174 0.00982286 0.00924313 0.00868 0.00813526 0.00760891 0.00710094 0.00661137 0.00614018 0.00568739 0.00525298 0.00483705 0.0044397 0.00406093 0.00370072 0.00335909 0.00303604 0.00273155 0.00244564 0.00217772 0.00192718 0.00169404 0.00147829 0.00127993 0.00109896 0.000935389 0.000789205 0.000658442 0.000541125 0.000437257 0.000346836 0.000269862 0.000206336 0.000156258 0.000119627 9.15897e-05 6.72904e-05 4.67294e-05 2.99068e-05 1.68226e-05 7.47671e-06 1.86918e-06 0 0 3.4794e-05 0.000139176 0.000313146 0.000556704 0.000869851 0.00125258 0.00170491 0.00222682 0.00282818 0.00351884 0.00429881 0.00516809 0.00612667 0.00717456 0.00831175 0.00953825 0.0108215 0.0121288 0.0134603 0.0148159 0.0161957 0.0175995 0.0190275 0.0204797 0.0219245 0.0233304 0.0246975 0.0260258 0.0273152 0.0285659 0.0297776 0.0309506 0.0320683 0.0331145 0.034089 0.034992 0.0358234 0.0365831 0.0372713 0.0378879 0.0384304 0.0388961 0.0392852 0.0395975 0.0398332 0.0399921 0.0400744 0.0400799 0.0400161 0.0398901 0.0397021 0.039452 0.0391398 0.0387655 0.0383291 0.0378306 0.0372823 0.0366963 0.0360727 0.0354115 0.0347126 0.0339761 0.033202 0.0323902 0.0315533 0.0307039 0.0298421 0.0289676 0.0280807 0.0271813 0.0262693 0.0253449 0.0244177 0.0234975 0.0225844 0.0216784 0.0207794 0.0198875 0.0190026 0.0181248 0.0172599 0.0164136 0.015586 0.0147771 0.0139869 0.0132154 0.0124626 0.0117284 0.0110152 0.0103253 0.0096586 0.00901515 0.00839495 0.00779799 0.00722428 0.00667382 0.00614673 0.00564312 0.005163 0.00470637 0.00427323 0.00386358 0.00347741 0.00311473 0.00277479 0.00245683 0.00216086 0.00188687 0.00163487 0.00140484 0.00119681 0.00101076 0.00084421 0.000694696 0.000562212 0.000446759 0.000348337 0.000266946 0.000202586 0.000155256 0.000118868 8.73318e-05 6.06471e-05 3.88141e-05 2.18329e-05 9.70353e-06 2.42588e-06 0 0 4.34277e-05 0.000173711 0.000390849 0.000694843 0.00108569 0.0015634 0.00212796 0.00277937 0.00352892 0.00438788 0.00535625 0.00643402 0.00762121 0.00891781 0.0103238 0.0118392 0.013424 0.015038 0.0166813 0.0183538 0.0200556 0.0217867 0.0235471 0.0253367 0.027117 0.0288495 0.0305343 0.0321712 0.0337604 0.0353018 0.0367953 0.0382411 0.039619 0.0409088 0.0421105 0.0432241 0.0442497 0.0451872 0.0460367 0.0467981 0.0474682 0.0480439 0.0485251 0.0489118 0.0492041 0.0494019 0.0495053 0.0495142 0.0494376 0.0492845 0.0490547 0.0487484 0.0483655 0.047906 0.04737 0.0467573 0.0460832 0.0453625 0.0445952 0.0437814 0.0429211 0.0420143 0.0410609 0.040061 0.03903 0.0379834 0.0369212 0.0358435 0.0347501 0.0336411 0.0325165 0.0313762 0.0302325 0.0290973 0.0279707 0.0268526 0.025743 0.024642 0.0235496 0.0224657 0.0213975 0.0203523 0.01933 0.0183307 0.0173543 0.0164008 0.0154703 0.0145627 0.0136809 0.0128278 0.0120032 0.0112073 0.01044 0.00970134 0.00899129 0.00830986 0.00765722 0.00703353 0.00643878 0.00587297 0.00533611 0.00482819 0.00434921 0.00389918 0.00347715 0.00308219 0.0027143 0.00237347 0.0020597 0.001773 0.00151337 0.0012808 0.00107229 0.000884844 0.00071845 0.000573113 0.000448832 0.000345608 0.000263441 0.00020233 0.000154909 0.000113811 7.90352e-05 5.05825e-05 2.84527e-05 1.26456e-05 3.16141e-06 0 0 5.32577e-05 0.000213031 0.000479319 0.000852123 0.00133144 0.00191728 0.00260963 0.00340849 0.00432617 0.00537497 0.00655488 0.00786591 0.00930805 0.0108813 0.0125857 0.0144212 0.0163395 0.0182925 0.0202801 0.0223023 0.0243591 0.0264505 0.0285766 0.0307373 0.0328864 0.034978 0.037012 0.0389883 0.0409071 0.0427682 0.0445717 0.0463177 0.0479818 0.0495398 0.0509917 0.0523375 0.0535773 0.0547109 0.0557385 0.05666 0.0574715 0.0581691 0.0587527 0.0592224 0.0595781 0.0598199 0.0599477 0.0599617 0.0598723 0.0596905 0.0594161 0.0590491 0.0585896 0.0580376 0.057393 0.0566559 0.0558443 0.0549763 0.0540519 0.0530711 0.0520339 0.0509403 0.0497902 0.0485838 0.0473396 0.0460763 0.0447939 0.0434923 0.0421717 0.0408319 0.0394731 0.0380951 0.0367126 0.0353402 0.0339779 0.0326257 0.0312836 0.0299516 0.0286297 0.0273179 0.0260249 0.0247595 0.0235217 0.0223114 0.0211287 0.0199736 0.018846 0.0177461 0.0166771 0.0156427 0.0146428 0.0136774 0.0127465 0.0118502 0.0109884 0.0101611 0.00936854 0.00861092 0.00788824 0.00720051 0.00654771 0.00592986 0.00534695 0.00479898 0.0042848 0.00380326 0.00335435 0.00293808 0.00255444 0.00220344 0.00188507 0.00159934 0.00134269 0.00111157 0.000905971 0.000725897 0.000571347 0.000442323 0.000338823 0.000260849 0.000199712 0.000146727 0.000101894 6.52121e-05 3.66818e-05 1.6303e-05 4.07576e-06 0 0 6.4284e-05 0.000257136 0.000578556 0.00102854 0.0016071 0.00231422 0.00314992 0.00411418 0.00521993 0.00648011 0.00789471 0.00946374 0.0111872 0.0130651 0.0150973 0.0172841 0.0195681 0.0218923 0.0242567 0.0266613 0.029106 0.031591 0.0341161 0.0366815 0.0392328 0.0417158 0.0441306 0.046477 0.0487552 0.0509652 0.0531068 0.0551802 0.0571567 0.0590075 0.0607326 0.0623322 0.063806 0.0651543 0.0663769 0.0674738 0.0684404 0.0692718 0.069968 0.0705292 0.0709551 0.071246 0.0714016 0.0714222 0.0713201 0.0711081 0.0707861 0.0703541 0.0698122 0.0691602 0.0683983 0.0675264 0.0665658 0.065538 0.0644429 0.0632806 0.062051 0.0607541 0.05939 0.0579586 0.0564821 0.0549825 0.0534599 0.0519142 0.0503456 0.0487539 0.0471391 0.0455014 0.0438579 0.0422262 0.0406061 0.0389978 0.0374012 0.0358163 0.034243 0.0326815 0.0311421 0.0296353 0.0281611 0.0267194 0.0253103 0.0239338 0.0225898 0.0212784 0.0200038 0.01877 0.0175773 0.0164255 0.0153146 0.0142446 0.0132156 0.0122275 0.0112807 0.0103753 0.00951141 0.00868899 0.00790806 0.0071686 0.00647063 0.00581414 0.00519774 0.00462003 0.00408102 0.0035807 0.00311908 0.00269615 0.00231192 0.00196638 0.00165541 0.00137487 0.00112477 0.00090511 0.000715882 0.000557089 0.000428732 0.000330811 0.000253277 0.000186081 0.000129223 8.27029e-05 4.65204e-05 2.06757e-05 5.16893e-06 0 0 7.65067e-05 0.000306027 0.00068856 0.00122411 0.00191267 0.00275424 0.00374883 0.00489643 0.0062102 0.0077033 0.00937574 0.0112275 0.0132586 0.015469 0.0178588 0.0204279 0.0231096 0.0258374 0.0286111 0.0314308 0.0342964 0.0372081 0.0401657 0.0431693 0.046156 0.0490629 0.05189 0.0546374 0.0573049 0.0598927 0.0624006 0.0648288 0.0671437 0.0693119 0.0713333 0.073208 0.074936 0.0765172 0.0779517 0.0792394 0.0803747 0.081352 0.0821711 0.0828322 0.0833352 0.0836802 0.083867 0.0838958 0.0837811 0.0835375 0.0831649 0.0826635 0.0820331 0.0812739 0.0803857 0.0793687 0.0782476 0.0770474 0.0757681 0.0744098 0.0729723 0.0714558 0.0698601 0.0681854 0.0664574 0.064702 0.0629193 0.0611092 0.0592717 0.0574069 0.0555147 0.0535951 0.0516685 0.0497552 0.0478554 0.0459689 0.0440957 0.042236 0.0403895 0.0385565 0.0367491 0.0349797 0.0332482 0.0315546 0.029899 0.0282813 0.0267016 0.0251598 0.0236609 0.0222098 0.0208067 0.0194514 0.0181441 0.0168846 0.0156729 0.0145092 0.0133936 0.0123267 0.0113083 0.0103384 0.00941713 0.00854441 0.00772025 0.00694466 0.00621596 0.00553251 0.00489431 0.00430134 0.00375362 0.00325114 0.00279391 0.00238192 0.00201044 0.00167476 0.00137486 0.00111075 0.000882436 0.000689907 0.000533168 0.000412219 0.000315605 0.000231873 0.000161023 0.000103055 5.79683e-05 2.57637e-05 6.44092e-06 0 0 8.99257e-05 0.000359703 0.000809331 0.00143881 0.00224814 0.00323732 0.00440636 0.00575524 0.00729697 0.00904455 0.010998 0.0131572 0.0155223 0.0180933 0.0208701 0.0238527 0.0269642 0.0301278 0.0333433 0.0366108 0.0399303 0.0433018 0.0467253 0.0502008 0.0536561 0.0570194 0.0602904 0.0634694 0.0665561 0.0695507 0.0724531 0.0752634 0.0779429 0.0804531 0.0827938 0.0849652 0.0869672 0.0887998 0.090463 0.0919568 0.0932746 0.0944097 0.095362 0.0961316 0.0967184 0.0971225 0.0973439 0.0973825 0.0972551 0.0969785 0.0965525 0.0959771 0.0952525 0.0943786 0.0933554 0.0921828 0.0908897 0.0895046 0.0880276 0.0864587 0.084798 0.0830453 0.0812007 0.0792641 0.0772656 0.075235 0.0731722 0.0710772 0.0689502 0.066791 0.0645997 0.0623762 0.0601442 0.0579274 0.0557256 0.0535388 0.0513672 0.0492107 0.0470692 0.0449429 0.0428459 0.0407926 0.038783 0.036817 0.0348948 0.0330162 0.0311813 0.0293901 0.0276484 0.0259621 0.0243311 0.0227554 0.021235 0.01977 0.0183603 0.017006 0.0157074 0.014465 0.0132788 0.0121488 0.0110749 0.0100573 0.00909582 0.00819053 0.00733948 0.00654071 0.00579421 0.0051 0.00445807 0.00386841 0.00333104 0.00284595 0.00240779 0.00201122 0.00165623 0.00134283 0.00107101 0.000840778 0.000652132 0.000505071 0.000386695 0.000284102 0.000197293 0.000126268 7.10256e-05 3.15669e-05 7.89174e-06 0 0 0.000104541 0.000418164 0.000940869 0.00167266 0.00261352 0.00376347 0.00512251 0.00669062 0.00848025 0.0105038 0.0127614 0.0152529 0.0179783 0.0209377 0.0241311 0.0275584 0.0311318 0.0347635 0.0384533 0.0422014 0.0460076 0.0498721 0.0537949 0.0577758 0.0617332 0.0655851 0.0693317 0.072973 0.0765088 0.0799393 0.0832643 0.086484 0.0895543 0.0924309 0.095114 0.0976036 0.0998995 0.102002 0.103911 0.105626 0.10714 0.108445 0.109541 0.110427 0.111105 0.111573 0.111832 0.111882 0.111742 0.111431 0.110949 0.110295 0.10947 0.108474 0.107307 0.105969 0.104492 0.10291 0.101221 0.0994274 0.0975279 0.0955226 0.0934116 0.0911949 0.0889067 0.0865812 0.0842184 0.0818183 0.0793809 0.0769062 0.0743942 0.0718448 0.0692853 0.0667426 0.0642167 0.0617078 0.0592157 0.0567404 0.0542821 0.0518406 0.0494324 0.047074 0.0447654 0.0425067 0.0402977 0.0381385 0.0360291 0.0339695 0.0319665 0.0300268 0.0281504 0.0263373 0.0245875 0.022901 0.0212779 0.019718 0.018222 0.0167904 0.0154231 0.0141201 0.0128815 0.0117072 0.0105973 0.00955176 0.00856828 0.0076446 0.00678073 0.00597667 0.00523241 0.00454796 0.00392332 0.00335848 0.00284746 0.00238426 0.00196888 0.00160133 0.0012816 0.0010097 0.000785622 0.000609368 0.000466547 0.000342769 0.000238034 0.000152342 8.56923e-05 3.80855e-05 9.52137e-06 0 0 0.000120353 0.00048141 0.00108317 0.00192564 0.00300882 0.00433269 0.00589728 0.00770257 0.00976004 0.0120812 0.014666 0.0175145 0.0206266 0.0240025 0.027642 0.0315451 0.0356125 0.0397445 0.0439411 0.0482025 0.0525285 0.0569191 0.0613745 0.0658945 0.0703871 0.0747603 0.079014 0.0831482 0.087163 0.0910583 0.0948342 0.0984907 0.101978 0.105245 0.108294 0.111123 0.113733 0.116124 0.118295 0.120247 0.121971 0.123458 0.124707 0.125719 0.126494 0.127032 0.127332 0.127395 0.127243 0.126895 0.126354 0.125617 0.124687 0.123561 0.122241 0.120727 0.119055 0.117262 0.115349 0.113316 0.111162 0.108888 0.106493 0.103978 0.101381 0.0987409 0.0960581 0.0933325 0.0905639 0.0877525 0.0848981 0.0820009 0.0790915 0.0762009 0.0733289 0.0704757 0.0676411 0.0648253 0.0620281 0.0592496 0.0565087 0.053824 0.0511956 0.0486235 0.0461077 0.0436482 0.0412449 0.0388979 0.036615 0.0344039 0.0322646 0.0301971 0.0282014 0.0262776 0.0244255 0.0226453 0.0209374 0.0193027 0.017741 0.0162524 0.0148368 0.0134942 0.0122248 0.0110283 0.00990237 0.00884421 0.00785387 0.00693136 0.00607666 0.00528979 0.00457074 0.0039195 0.00332944 0.00279387 0.00231281 0.00188626 0.00151422 0.00119667 0.000933639 0.000725109 0.000555162 0.000407874 0.000283246 0.000181277 0.000101968 4.53193e-05 1.13298e-05 0 0 0.000137034 0.000548134 0.0012333 0.00219254 0.00342584 0.00493321 0.00671464 0.00877015 0.0111099 0.0137442 0.0166729 0.0198961 0.0234137 0.0272258 0.0313324 0.0357335 0.0403174 0.0449724 0.0496986 0.054496 0.0593646 0.0643043 0.0693152 0.0743972 0.0794478 0.0843642 0.0891465 0.0937947 0.0983087 0.102689 0.106934 0.111046 0.114968 0.118643 0.122073 0.125256 0.128193 0.130885 0.13333 0.13553 0.137473 0.139149 0.14056 0.141703 0.142581 0.143191 0.143536 0.143614 0.143449 0.143065 0.142462 0.141641 0.1406 0.139341 0.137863 0.136166 0.134291 0.132281 0.130134 0.127852 0.125434 0.12288 0.12019 0.117364 0.114445 0.111478 0.108462 0.105397 0.102284 0.0991213 0.0959101 0.09265 0.0893758 0.0861222 0.0828891 0.0796765 0.0764845 0.073313 0.0701621 0.0670317 0.063943 0.0609174 0.0579547 0.0550551 0.0522184 0.0494447 0.0467341 0.0440864 0.0415105 0.0390153 0.0366008 0.0342668 0.0320136 0.0298409 0.0277489 0.0257376 0.0238076 0.0219598 0.020194 0.0185104 0.0169089 0.0153895 0.0139522 0.012597 0.011321 0.0101211 0.00899739 0.00794982 0.00697842 0.00608316 0.00526407 0.00452113 0.00384703 0.00323445 0.00268338 0.00219384 0.00176581 0.0013993 0.00109432 0.000850845 0.000651428 0.0004786 0.000332361 0.000212711 0.00011965 5.31778e-05 1.32945e-05 0 0 0.000154257 0.000617027 0.00138831 0.00246811 0.00385642 0.00555324 0.00755858 0.00987243 0.0125035 0.0154603 0.018743 0.0223516 0.026286 0.0305462 0.0351323 0.0400443 0.0451579 0.050349 0.0556178 0.060964 0.0663878 0.0718892 0.0774681 0.0831246 0.0887452 0.0942167 0.099539 0.104712 0.109736 0.114611 0.119336 0.123913 0.128278 0.13237 0.136189 0.139734 0.143006 0.146005 0.148731 0.151183 0.153351 0.155222 0.156798 0.158076 0.159059 0.159745 0.160136 0.160229 0.160053 0.159633 0.15897 0.158062 0.156911 0.155516 0.153877 0.151995 0.149915 0.147683 0.145299 0.142763 0.140076 0.137237 0.134246 0.131104 0.127858 0.124557 0.121201 0.11779 0.114325 0.110804 0.107228 0.103598 0.0999511 0.0963266 0.0927244 0.0891445 0.0855869 0.0820517 0.0785388 0.0750482 0.0716037 0.068229 0.064924 0.0616888 0.0585234 0.0554278 0.052402 0.049446 0.0465697 0.0437829 0.0410859 0.0384784 0.0359606 0.0335324 0.0311938 0.0289449 0.0267864 0.0247193 0.0227435 0.0208591 0.0190659 0.0173641 0.0157537 0.0142345 0.0128034 0.0114569 0.010195 0.00901783 0.00792527 0.00691736 0.00599409 0.00515546 0.00439354 0.00370036 0.00307594 0.00252027 0.00203336 0.00161519 0.00126578 0.000985126 0.000754237 0.000554133 0.000384815 0.000246282 0.000138533 6.15704e-05 1.53926e-05 0 0 0.000172022 0.000688089 0.0015482 0.00275235 0.00430055 0.0061928 0.00842909 0.0110094 0.0139407 0.0172297 0.0208765 0.0248811 0.0292435 0.0339637 0.0390417 0.0444774 0.050134 0.0558743 0.0616985 0.0676065 0.0735982 0.0796738 0.0858333 0.0920765 0.0982793 0.104318 0.110191 0.1159 0.121445 0.126825 0.13204 0.137091 0.141909 0.146426 0.150642 0.154557 0.158171 0.161484 0.164497 0.167208 0.169605 0.171676 0.17342 0.174838 0.175929 0.176694 0.177132 0.177243 0.177056 0.1766 0.175876 0.174882 0.173618 0.172086 0.170285 0.168214 0.165925 0.163468 0.160843 0.15805 0.155089 0.15196 0.148663 0.145198 0.141618 0.137978 0.134275 0.130512 0.126687 0.122801 0.118853 0.114845 0.110817 0.106814 0.102835 0.0988795 0.0949484 0.0910413 0.0871583 0.0832993 0.0794907 0.0757587 0.0721034 0.0685248 0.0650228 0.0615974 0.0582487 0.0549767 0.0517923 0.0487068 0.0457199 0.0428319 0.0400426 0.037352 0.0347603 0.0322672 0.0298739 0.0275814 0.0253895 0.0232984 0.0213079 0.0194182 0.0176292 0.0159409 0.0143496 0.0128516 0.0114468 0.0101354 0.00891724 0.00779237 0.00676079 0.0058225 0.00496895 0.00419162 0.00349049 0.00286556 0.00231685 0.00184434 0.00144804 0.00112795 0.000863588 0.000634473 0.000440606 0.000281988 0.000158618 7.0497e-05 1.76243e-05 0 0 0.00019033 0.00076132 0.00171297 0.00304528 0.00475825 0.00685188 0.00932616 0.0121811 0.0154215 0.0190523 0.0230733 0.0274846 0.0322863 0.0374782 0.0430604 0.049033 0.0552456 0.0615482 0.0679408 0.0744233 0.0809958 0.0876582 0.0944106 0.101253 0.10805 0.114667 0.121103 0.127359 0.133435 0.139331 0.145046 0.15058 0.15586 0.160811 0.165433 0.169725 0.173689 0.177323 0.180628 0.183604 0.186236 0.188511 0.190429 0.191989 0.193191 0.194036 0.194524 0.194654 0.194458 0.193966 0.19318 0.192099 0.190723 0.189052 0.187085 0.184824 0.182323 0.179637 0.176767 0.173712 0.170473 0.167049 0.16344 0.159647 0.155727 0.15174 0.147685 0.143562 0.13937 0.135112 0.130785 0.12639 0.121974 0.117584 0.11322 0.108882 0.104569 0.100282 0.0960205 0.0917849 0.087604 0.0835067 0.079493 0.0755629 0.0717164 0.0679535 0.0642742 0.0606785 0.0571786 0.0537868 0.050503 0.0473272 0.0442595 0.0412998 0.0384482 0.0357046 0.0330701 0.0305459 0.028132 0.0258283 0.0236348 0.0215516 0.0195787 0.017716 0.0159595 0.0143051 0.0127528 0.0113025 0.0099543 0.0087082 0.00756418 0.00652224 0.00557328 0.00470821 0.00392702 0.00322971 0.00261629 0.00208675 0.0016411 0.00127932 0.000979482 0.000719619 0.000499736 0.000319831 0.000179905 7.99577e-05 1.99894e-05 0 0 0.00020918 0.000836719 0.00188262 0.00334688 0.0052295 0.00753047 0.0102498 0.0133875 0.0169461 0.020928 0.0253334 0.0301621 0.0354142 0.0410897 0.0471886 0.0537109 0.0604929 0.0673708 0.0743447 0.0814146 0.0885805 0.0958424 0.1032 0.110654 0.118058 0.125265 0.132275 0.139089 0.145707 0.152128 0.158353 0.164381 0.170133 0.175526 0.180561 0.185239 0.189559 0.19352 0.197124 0.20037 0.203243 0.205727 0.207822 0.209528 0.210845 0.211773 0.212312 0.212462 0.212257 0.211731 0.210883 0.209714 0.208224 0.206412 0.204279 0.201824 0.199108 0.19619 0.193071 0.18975 0.186227 0.182503 0.178577 0.17445 0.170184 0.165844 0.161429 0.15694 0.152375 0.147736 0.143023 0.138234 0.133422 0.128638 0.123881 0.119151 0.114448 0.109773 0.105125 0.100505 0.0959436 0.0914728 0.0870927 0.0828032 0.0786043 0.074496 0.0704784 0.0665514 0.0627284 0.0590229 0.0554349 0.0519644 0.0486113 0.0453757 0.0422575 0.0392569 0.0363749 0.0336129 0.0309709 0.0284488 0.0260467 0.0237645 0.0216023 0.01956 0.0176333 0.0158175 0.0141128 0.0125191 0.0110365 0.00966485 0.00840425 0.00725469 0.00620653 0.00525014 0.00438554 0.00361272 0.00293168 0.00234242 0.00184494 0.00143924 0.00110192 0.000809572 0.000562203 0.00035981 0.000202393 8.99524e-05 2.24881e-05 0 0 0.000228572 0.000914288 0.00205715 0.00365715 0.0057143 0.00822859 0.0112 0.0146286 0.0185143 0.022857 0.0276568 0.0329136 0.0386274 0.0447983 0.0514263 0.0585113 0.0658757 0.0733421 0.0809103 0.0885804 0.0963524 0.104226 0.112202 0.12028 0.128302 0.136111 0.143707 0.15109 0.158261 0.165218 0.171962 0.178494 0.184725 0.19057 0.196027 0.201097 0.205781 0.210077 0.213986 0.217508 0.220626 0.223324 0.2256 0.227456 0.22889 0.229904 0.230497 0.230668 0.230456 0.229895 0.228985 0.227728 0.226122 0.224168 0.221865 0.219214 0.21628 0.213127 0.209754 0.206163 0.202352 0.198323 0.194075 0.189607 0.184989 0.18029 0.175509 0.170646 0.165701 0.160675 0.155567 0.150377 0.145161 0.139974 0.134816 0.129687 0.124587 0.119515 0.114473 0.10946 0.10451 0.0996572 0.0949026 0.0902457 0.0856865 0.0812251 0.0768614 0.0725954 0.0684418 0.0644153 0.0605158 0.0567434 0.053098 0.0495797 0.0461884 0.0429242 0.0397884 0.0367825 0.0339063 0.03116 0.0285435 0.0260568 0.0236999 0.0214729 0.0193708 0.0173888 0.015527 0.0137853 0.0121638 0.0106623 0.00928102 0.00801984 0.00686868 0.00581742 0.00486605 0.00401458 0.00326302 0.00261135 0.00205957 0.0016077 0.00123089 0.000904331 0.000628008 0.000401925 0.000226083 0.000100481 2.51203e-05 0 0 0.000248507 0.000994026 0.00223656 0.0039761 0.00621266 0.00894623 0.0121768 0.0159044 0.0201262 0.0248392 0.0300435 0.035739 0.0419259 0.048604 0.0557734 0.063434 0.0713941 0.0794619 0.0876374 0.0959205 0.104311 0.11281 0.121416 0.13013 0.138783 0.147205 0.155399 0.163362 0.171096 0.178599 0.185873 0.192918 