<?xml version="1.0"?> 
<VTKFile type="StructuredGrid" version="0.1"> 
<StructuredGrid WholeExtent="0 128 0 128 0 0"> 
<Piece Extent="0 128 0 128 0 0"> 
<PointData>
<DataArray type="Float32" Name="u" format="ascii" NumberOfComponents="1"> 
0 0 0 0 0 0 0 0 0 0 0 0 0 0 0 0 0 0 0 0 0 0 0 0 0 0 0 0 0 0 0 0 0 0 0 0 0 0 0 0 0 0 0 0 0 0 0 0 0 0 0 0 0 0 0 0 0 0 0 0 0 0 0 0 0 0 0 0 0 0 0 0 0 0 0 0 0 0 0 0 0 0 0 0 0 0 0 0 0 0 0 0 0 0 0 0 0 0 0 0 0 0 0 0 0 0 0 0 0 0 0 0 0 0 0 0 0 0 0 0 0 0 0 0 0 0 0 0 0 0 9.66748e-08 3.86699e-07 8.70074e-07 1.5468e-06 2.41687e-06 3.48029e-06 4.73707e-06 6.18719e-06 7.87345e-06 9.83865e-06 1.20828e-05 1.46058e-05 1.74078e-05 2.04887e-05 2.38486e-05 2.74873e-05 3.12994e-05 3.5179e-05 3.91261e-05 4.31409e-05 4.72232e-05 5.13731e-05 5.55906e-05 5.98757e-05 6.41228e-05 6.82265e-05 7.21868e-05 7.60037e-05 7.96772e-05 8.32073e-05 8.6594e-05 8.98372e-05 9.28958e-05 9.57286e-05 9.83356e-05 0.000100717 0.000102872 0.000104802 0.000106505 0.000107983 0.000109252 0.000110329 0.000111213 0.000111905 0.000112405 0.000112713 0.000112829 0.000112752 0.000112529 0.000112206 0.000111783 0.000111259 0.000110635 0.00010991 0.000109085 0.00010816 0.000107175 0.000106171 0.000105148 0.000104107 0.000103046 0.000101967 0.000100869 9.97517e-05 9.86287e-05 9.7513e-05 9.64044e-05 9.5303e-05 9.42089e-05 9.31219e-05 9.20422e-05 9.09696e-05 8.98898e-05 8.87883e-05 8.76651e-05 8.65201e-05 8.53534e-05 8.4165e-05 8.29549e-05 8.1723e-05 8.04469e-05 7.91041e-05 7.76946e-05 7.62184e-05 7.46754e-05 7.30657e-05 7.13893e-05 6.96462e-05 6.78301e-05 6.59348e-05 6.39604e-05 6.19067e-05 5.97738e-05 5.75617e-05 5.52704e-05 5.28999e-05 5.0475e-05 4.80204e-05 4.55361e-05 4.30222e-05 4.04786e-05 3.79054e-05 3.53024e-05 3.26699e-05 3.00609e-05 2.75289e-05 2.50738e-05 2.26956e-05 2.03943e-05 1.81699e-05 1.60225e-05 1.3952e-05 1.20014e-05 1.02139e-05 8.58934e-06 7.12782e-06 5.82932e-06 4.69382e-06 3.72134e-06 2.91186e-06 2.2294e-06 1.63792e-06 1.13745e-06 7.27966e-07 4.09481e-07 1.81992e-07 4.54979e-08 0 0 3.86699e-07 1.5468e-06 3.48029e-06 6.18719e-06 9.66748e-06 1.39212e-05 1.89483e-05 2.47488e-05 3.14938e-05 3.93546e-05 4.83311e-05 5.84233e-05 6.96312e-05 8.19549e-05 9.53942e-05 0.000109949 0.000125197 0.000140716 0.000156505 0.000172564 0.000188893 0.000205493 0.000222362 0.000239503 0.000256491 0.000272906 0.000288747 0.000304015 0.000318709 0.000332829 0.000346376 0.000359349 0.000371583 0.000382915 0.000393342 0.000402867 0.000411488 0.000419206 0.000426021 0.000431933 0.000437008 0.000441314 0.000444852 0.000447621 0.000449621 0.000450853 0.000451315 0.000451009 0.000450117 0.000448825 0.000447131 0.000445035 0.000442538 0.00043964 0.00043634 0.000432639 0.0004287 0.000424684 0.000420594 0.000416428 0.000412186 0.000407868 0.000403475 0.000399007 0.000394515 0.000390052 0.000385618 0.000381212 0.000376836 0.000372488 0.000368169 0.000363879 0.000359559 0.000355153 0.00035066 0.00034608 0.000341414 0.00033666 0.000331819 0.000326892 0.000321788 0.000316416 0.000310778 0.000304873 0.000298702 0.000292263 0.000285557 0.000278585 0.00027132 0.000263739 0.000255841 0.000247627 0.000239095 0.000230247 0.000221082 0.0002116 0.0002019 0.000192082 0.000182144 0.000172089 0.000161914 0.000151621 0.00014121 0.000130679 0.000120244 0.000110116 0.000100295 9.07823e-05 8.15772e-05 7.26797e-05 6.409e-05 5.58079e-05 4.80057e-05 4.08555e-05 3.43574e-05 2.85113e-05 2.33173e-05 1.87753e-05 1.48853e-05 1.16475e-05 8.91759e-06 6.5517e-06 4.54979e-06 2.91186e-06 1.63792e-06 7.27966e-07 1.81992e-07 0 0 8.70074e-07 3.48029e-06 7.83066e-06 1.39212e-05 2.17518e-05 3.13226e-05 4.26336e-05 5.56847e-05 7.08611e-05 8.85478e-05 0.000108745 0.000131452 0.00015667 0.000184398 0.000214637 0.000247386 0.000281694 0.000316611 0.000352135 0.000388268 0.000425009 0.000462358 0.000500316 0.000538881 0.000577105 0.000614039 0.000649682 0.000684034 0.000717095 0.000748866 0.000779346 0.000808535 0.000836062 0.000861558 0.00088502 0.000906451 0.000925849 0.000943214 0.000958547 0.000971848 0.000983268 0.000992957 0.00100092 0.00100715 0.00101165 0.00101442 0.00101546 0.00101477 0.00101276 0.00100986 0.00100604 0.00100133 0.000995711 0.00098919 0.000981765 0.000973438 0.000964574 0.00095554 0.000946336 0.000936962 0.000927418 0.000917704 0.00090782 0.000897765 0.000887659 0.000877617 0.00086764 0.000857727 0.00084788 0.000838097 0.00082838 0.000818727 0.000809009 0.000799095 0.000788986 0.000778681 0.000768181 0.000757485 0.000746594 0.000735507 0.000724022 0.000711937 0.000699251 0.000685965 0.000672079 0.000657592 0.000642504 0.000626816 0.000610471 0.000593414 0.000575643 0.00055716 0.000537964 0.000518055 0.000497434 0.000476099 0.000454275 0.000432183 0.000409825 0.0003872 0.000364308 0.000341148 0.000317722 0.000294029 0.000270548 0.00024776 0.000225664 0.00020426 0.000183549 0.000163529 0.000144202 0.000125568 0.000108013 9.19249e-05 7.73041e-05 6.41504e-05 5.24638e-05 4.22444e-05 3.3492e-05 2.62068e-05 2.00646e-05 1.47413e-05 1.0237e-05 6.5517e-06 3.68533e-06 1.63792e-06 4.09481e-07 0 0 1.5468e-06 6.18719e-06 1.39212e-05 2.47488e-05 3.86699e-05 5.56847e-05 7.57931e-05 9.8995e-05 0.000125975 0.000157418 0.000193324 0.000233693 0.000278525 0.000327819 0.000381577 0.000439797 0.00050079 0.000562863 0.000626018 0.000690254 0.000755572 0.00082197 0.00088945 0.000958011 0.00102596 0.00109162 0.00115499 0.00121606 0.00127484 0.00133132 0.0013855 0.0014374 0.00148633 0.00153166 0.00157337 0.00161147 0.00164595 0.00167683 0.00170408 0.00172773 0.00174803 0.00176526 0.00177941 0.00179048 0.00179849 0.00180341 0.00180526 0.00180404 0.00180047 0.0017953 0.00178852 0.00178014 0.00177015 0.00175856 0.00174536 0.00173056 0.0017148 0.00169874 0.00168237 0.00166571 0.00164874 0.00163147 0.0016139 0.00159603 0.00157806 0.00156021 0.00154247 0.00152485 0.00150734 0.00148995 0.00147267 0.00145551 0.00143824 0.00142061 0.00140264 0.00138432 0.00136565 0.00134664 0.00132728 0.00130757 0.00128715 0.00126567 0.00124311 0.00121949 0.00119481 0.00116905 0.00114223 0.00111434 0.00108528 0.00105496 0.00102337 0.000990507 0.00095638 0.000920987 0.000884326 0.000846398 0.0008076 0.000768326 0.000728578 0.000688355 0.000647658 0.000606486 0.000564839 0.000522718 0.000480975 0.000440462 0.00040118 0.000363129 0.000326309 0.000290719 0.00025636 0.000223232 0.000192023 0.000163422 0.000137429 0.000114045 9.32691e-05 7.51011e-05 5.95414e-05 4.65898e-05 3.56703e-05 2.62068e-05 1.81992e-05 1.16475e-05 6.5517e-06 2.91186e-06 7.27966e-07 0 0 2.41687e-06 9.66748e-06 2.17518e-05 3.86699e-05 6.04218e-05 8.70074e-05 0.000118427 0.00015468 0.000196836 0.000245966 0.000302069 0.000365146 0.000435195 0.000512218 0.000596214 0.000687183 0.000782484 0.000879474 0.000978154 0.00107852 0.00118058 0.00128433 0.00138977 0.00149689 0.00160307 0.00170566 0.00180467 0.00190009 0.00199193 0.00208018 0.00216485 0.00224593 0.0023224 0.00239322 0.00245839 0.00251792 0.0025718 0.00262004 0.00266263 0.00269958 0.0027313 0.00275822 0.00278033 0.00279763 0.00281013 0.00281783 0.00282072 0.00281881 0.00281323 0.00280515 0.00279457 0.00278147 0.00276586 0.00274775 0.00272713 0.00270399 0.00267937 0.00265428 0.00262871 0.00260267 0.00257616 0.00254918 0.00252172 0.00249379 0.00246572 0.00243782 0.00241011 0.00238258 0.00235522 0.00232805 0.00230105 0.00227424 0.00224725 0.00221971 0.00219163 0.002163 0.00213383 0.00210412 0.00207387 0.00204307 0.00201117 0.0019776 0.00194237 0.00190546 0.00186689 0.00182664 0.00178473 0.00174116 0.00169575 0.00164837 0.00159901 0.00154767 0.00149434 0.00143904 0.00138176 0.0013225 0.00126187 0.00120051 0.0011384 0.00107555 0.00101197 0.000947634 0.000882561 0.000816747 0.000751523 0.000688222 0.000626844 0.000567389 0.000509857 0.000454248 0.000400562 0.000348799 0.000300035 0.000255347 0.000214734 0.000178196 0.000145733 0.000117346 9.30334e-05 7.27966e-05 5.57349e-05 4.09481e-05 2.84362e-05 1.81992e-05 1.0237e-05 4.54979e-06 1.13745e-06 0 0 3.48029e-06 1.39212e-05 3.13226e-05 5.56847e-05 8.70074e-05 0.000125291 0.000170534 0.000222739 0.000283444 0.000354191 0.00043498 0.00052581 0.000626681 0.000737594 0.000858548 0.000989544 0.00112678 0.00126644 0.00140854 0.00155307 0.00170004 0.00184943 0.00200126 0.00215552 0.00230842 0.00245616 0.00259873 0.00273613 0.00286838 0.00299546 0.00311738 0.00323414 0.00334425 0.00344623 0.00354008 0.0036258 0.0037034 0.00377286 0.00383419 0.00388739 0.00393307 0.00397183 0.00400367 0.00402859 0.00404659 0.00405767 0.00406184 0.00405908 0.00405106 0.00403942 0.00402417 0.00400532 0.00398284 0.00395676 0.00392706 0.00389375 0.0038583 0.00382216 0.00378534 0.00374785 0.00370967 0.00367081 0.00363128 0.00359106 0.00355063 0.00351047 0.00347056 0.00343091 0.00339152 0.00335239 0.00331352 0.00327491 0.00323603 0.00319638 0.00315594 0.00311472 0.00307272 0.00302994 0.00298637 0.00294203 0.00289609 0.00284775 0.00279701 0.00274386 0.00268831 0.00263037 0.00257002 0.00250726 0.00244188 0.00237365 0.00230257 0.00222864 0.00215186 0.00207222 0.00198973 0.0019044 0.0018171 0.00172873 0.0016393 0.0015488 0.00145723 0.00136459 0.00127089 0.00117612 0.00108219 0.00099104 0.000902655 0.00081704 0.000734194 0.000654117 0.00057681 0.000502271 0.000432051 0.000367699 0.000309216 0.000256602 0.000209855 0.000168978 0.000133968 0.000104827 8.02583e-05 5.89653e-05 4.09481e-05 2.62068e-05 1.47413e-05 6.5517e-06 1.63792e-06 0 0 4.73707e-06 1.89483e-05 4.26336e-05 7.57931e-05 0.000118427 0.000170534 0.000232116 0.000303172 0.000385799 0.000482094 0.000592056 0.000715685 0.000852982 0.00100395 0.00116858 0.00134688 0.00153367 0.00172377 0.00191718 0.0021139 0.00231394 0.00251728 0.00272394 0.00293391 0.00314202 0.0033431 0.00353716 0.00372418 0.00390418 0.00407716 0.0042431 0.00440202 0.0045519 0.0046907 0.00481844 0.00493512 0.00504073 0.00513528 0.00521876 0.00529117 0.00535335 0.0054061 0.00544944 0.00548336 0.00550786 0.00552294 0.00552861 0.00552486 0.00551394 0.0054981 0.00547735 0.00545168 0.00542109 0.00538559 0.00534517 0.00529983 0.00525157 0.00520238 0.00515227 0.00510124 0.00504927 0.00499639 0.00494257 0.00488783 0.00483281 0.00477814 0.00472382 0.00466985 0.00461624 0.00456297 0.00451007 0.00445751 0.0044046 0.00435063 0.00429559 0.00423948 0.00418232 0.00412408 0.00406479 0.00400443 0.0039419 0.0038761 0.00380704 0.0037347 0.00365909 0.00358022 0.00349808 0.00341266 0.00332368 0.00323081 0.00313406 0.00303343 0.00292892 0.00282052 0.00270825 0.0025921 0.00247327 0.002353 0.00223127 0.00210809 0.00198345 0.00185736 0.00172982 0.00160082 0.00147298 0.00134891 0.00122861 0.00111208 0.00099932 0.000890327 0.000785102 0.000683647 0.000588069 0.00050048 0.000420878 0.000349263 0.000285637 0.000229997 0.000182346 0.000142681 0.00010924 8.02583e-05 5.57349e-05 3.56703e-05 2.00646e-05 8.91759e-06 2.2294e-06 0 0 6.18719e-06 2.47488e-05 5.56847e-05 9.8995e-05 0.00015468 0.000222739 0.000303172 0.00039598 0.000503901 0.000629673 0.000773297 0.000934773 0.0011141 0.00131128 0.00152631 0.00175919 0.00200316 0.00225145 0.00250407 0.00276102 0.00302229 0.00328788 0.0035578 0.00383204 0.00410386 0.0043665 0.00461996 0.00486424 0.00509934 0.00532527 0.00554201 0.00574958 0.00594533 0.00612663 0.00629348 0.00644587 0.00658381 0.0067073 0.00681634 0.00691092 0.00699213 0.00706103 0.00711763 0.00716194 0.00719394 0.00721364 0.00722104 0.00721614 0.00720188 0.00718119 0.00715409 0.00712056 0.00708061 0.00703424 0.00698144 0.00692222 0.00685919 0.00679495 0.0067295 0.00666284 0.00659497 0.00652589 0.00645561 0.00638411 0.00631224 0.00624083 0.00616988 0.0060994 0.00602937 0.0059598 0.0058907 0.00582206 0.00575295 0.00568245 0.00561056 0.00553729 0.00546262 0.00538656 0.00530911 0.00523027 0.0051486 0.00506266 0.00497245 0.00487798 0.00477923 0.00467621 0.00456892 0.00445736 0.00434113 0.00421983 0.00409346 0.00396203 0.00382552 0.00368395 0.00353731 0.00338559 0.0032304 0.0030733 0.00291431 0.00275342 0.00259063 0.00242594 0.00225936 0.00209087 0.0019239 0.00176185 0.00160472 0.00145252 0.00130523 0.00116288 0.00102544 0.000892926 0.000768091 0.000653688 0.000549718 0.000456181 0.000373076 0.000300405 0.000238166 0.000186359 0.000142681 0.000104827 7.27966e-05 4.65898e-05 2.62068e-05 1.16475e-05 2.91186e-06 0 0 7.91858e-06 3.16743e-05 7.12673e-05 0.000126697 0.000197965 0.000285069 0.000388011 0.000506789 0.00064477 0.000805316 0.000988429 0.00119411 0.00142235 0.00167316 0.00194654 0.00224248 0.00255242 0.00286779 0.00318858 0.00351479 0.00384644 0.0041835 0.00452599 0.00487391 0.00521873 0.00555194 0.00587354 0.00618351 0.00648188 0.00676863 0.00704376 0.00730728 0.00755585 0.00778614 0.00799814 0.00819186 0.0083673 0.00852445 0.00866331 0.0087839 0.00888755 0.00897561 0.00904809 0.00910498 0.00914629 0.00917201 0.00918215 0.00917671 0.00915938 0.00913387 0.00910019 0.00905833 0.0090083 0.00895009 0.0088837 0.00880914 0.00872968 0.00864864 0.00856599 0.00848175 0.00839591 0.00830847 0.00821943 0.0081288 0.00803763 0.00794698 0.00785686 0.00776725 0.00767817 0.00758962 0.00750158 0.00741407 0.00732592 0.00723597 0.00714423 0.0070507 0.00695538 0.00685826 0.00675934 0.00665863 0.00655432 0.0064446 0.00632948 0.00620895 0.006083 0.00595166 0.0058149 0.00567273 0.00552467 0.0053702 0.00520933 0.00504206 0.0048684 0.00468833 0.00450186 0.00430899 0.00411173 0.00391207 0.00371003 0.00350558 0.00329875 0.00308952 0.0028779 0.00266389 0.00245179 0.0022459 0.00204622 0.00185276 0.0016655 0.00148446 0.00130963 0.00114101 0.000982105 0.000836401 0.000703902 0.000584609 0.00047852 0.000385636 0.000305958 0.000239484 0.000183355 0.00013471 9.35485e-05 5.9871e-05 3.36774e-05 1.49678e-05 3.74194e-06 0 0 1.00192e-05 4.00767e-05 9.01726e-05 0.000160307 0.000250479 0.00036069 0.000490939 0.000641227 0.000815426 0.00101741 0.00124718 0.00150473 0.00179006 0.00210318 0.00244409 0.00281278 0.00319864 0.00359107 0.00399006 0.00439562 0.00480774 0.00522643 0.00565168 0.0060835 0.00651143 0.00692503 0.00732429 0.00770922 0.00807981 0.00843608 0.008778 0.0091056 0.00941475 0.00970135 0.00996539 0.0102069 0.0104258 0.0106222 0.0107961 0.0109474 0.0110777 0.0111888 0.0112806 0.0113531 0.0114064 0.0114403 0.011455 0.0114503 0.0114309 0.0114013 0.0113615 0.0113114 0.0112511 0.0111805 0.0110998 0.0110088 0.0109116 0.0108122 0.0107107 0.010607 0.0105012 0.0103932 0.0102831 0.0101708 0.0100577 0.00994502 0.00983284 0.00972113 0.0096099 0.00949915 0.00938887 0.00927906 0.00916834 0.00905531 0.00893997 0.00882231 0.00870234 0.00858007 0.00845548 0.00832858 0.00819718 0.00805909 0.00791432 0.00776287 0.00760473 0.0074399 0.00726839 0.00709019 0.00690472 0.00671139 0.0065102 0.00630116 0.00608426 0.00585949 0.00562687 0.0053864 0.00514053 0.00489173 0.00464001 0.00438537 0.00412779 0.00386729 0.00360387 0.00333752 0.00307352 0.00281713 0.00256837 0.00232722 0.00209369 0.00186778 0.00164949 0.00143881 0.0012401 0.0010577 0.000891597 0.000741802 0.000608313 0.000491129 0.000390251 0.000305679 0.000234035 0.000171944 0.000119406 7.64196e-05 4.2986e-05 1.91049e-05 4.77623e-06 0 0 1.2489e-05 4.99558e-05 0.000112401 0.000199823 0.000312224 0.000449602 0.000611959 0.000799293 0.00101587 0.00126595 0.00154954 0.00186663 0.00221723 0.00260134 0.00301895 0.00347007 0.00394181 0.00442129 0.00490852 0.00540349 0.0059062 0.00641666 0.00693486 0.0074608 0.00798194 0.00848575 0.00897222 0.00944135 0.00989315 0.0103276 0.0107447 0.0111445 0.011522 0.0118722 0.0121952 0.012491 0.0127594 0.0130007 0.0132146 0.0134013 0.0135627 0.0137007 0.0138153 0.0139064 0.0139742 0.0140185 0.0140395 0.014037 0.0140165 0.0139835 0.0139379 0.0138797 0.0138089 0.0137255 0.0136296 0.0135211 0.0134048 0.0132857 0.0131637 0.0130387 0.0129109 0.0127802 0.0126466 0.0125102 0.0123724 0.012235 0.0120978 0.011961 0.0118246 0.0116884 0.0115526 0.011417 0.0112802 0.0111405 0.0109978 0.0108521 0.0107035 0.010552 0.0103975 0.0102401 0.0100772 0.00990613 0.00972699 0.00953974 0.00934439 0.00914094 0.00892938 0.00870972 0.00848128 0.0082434 0.00799608 0.00773931 0.0074731 0.00719745 0.00691235 0.0066178 0.00631679 0.00601228 0.00570427 0.00539276 0.00507776 0.00475926 0.00443726 0.00411176 0.00378908 0.00347555 0.00317116 0.00287591 0.0025898 0.00231283 0.00204501 0.00178633 0.00154208 0.00131758 0.0011128 0.00092776 0.000762454 0.000616883 0.000491046 0.000384943 0.000294722 0.00021653 0.000150368 9.62357e-05 5.41326e-05 2.40589e-05 6.01473e-06 0 0 1.53279e-05 6.13117e-05 0.000137951 0.000245247 0.000383198 0.000551805 0.000751069 0.000980988 0.0012461 0.00155094 0.00189552 0.00227982 0.00270386 0.00316763 0.00367112 0.00421435 0.00478193 0.00535846 0.00594395 0.00653841 0.00714182 0.00775419 0.00837552 0.00900581 0.00963028 0.0102341 0.0108173 0.0113799 0.0119219 0.0124432 0.012944 0.0134241 0.0138777 0.0142989 0.0146877 0.0150441 0.0153681 0.0156597 0.015919 0.0161458 0.0163425 0.0165112 0.016652 0.0167648 0.0168497 0.0169067 0.0169357 0.0169367 0.0169162 0.0168805 0.0168295 0.0167633 0.0166818 0.0165851 0.0164732 0.0163461 0.0162095 0.0160691 0.0159248 0.0157768 0.015625 0.0154694 0.01531 0.0151468 0.0149818 0.0148168 0.0146518 0.014487 0.0143221 0.0141574 0.0139927 0.013828 0.0136616 0.0134914 0.0133176 0.0131401 0.0129589 0.012774 0.0125855 0.0123932 0.0121943 0.0119857 0.0117675 0.0115396 0.011302 0.0110548 0.0107979 0.0105313 0.0102544 0.00996624 0.00966696 0.00935653 0.00903494 0.00870219 0.00835828 0.00800322 0.00764052 0.00727371 0.0069028 0.00652778 0.00614865 0.00576541 0.00537806 0.0049866 0.00459848 0.00422114 0.00385459 0.00349882 0.00315383 0.00281962 0.0024962 0.00218355 0.00188805 0.00161604 0.00136751 0.00114248 0.000940945 0.000762898 0.000608341 0.000477277 0.000365415 0.000268468 0.000186436 0.000119319 6.7117e-05 2.98298e-05 7.45745e-06 0 0 1.85361e-05 7.41444e-05 0.000166825 0.000296578 0.000463402 0.0006673 0.000908269 0.00118631 0.00150612 0.00187238 0.00228511 0.0027443 0.00324994 0.00380205 0.00440061 0.00504563 0.00571899 0.00640257 0.00709636 0.00780037 0.00851459 0.00923903 0.00997368 0.0107185 0.0114564 0.0121701 0.0128596 0.0135249 0.014166 0.0147829 0.0153757 0.0159442 0.0164817 0.0169812 0.0174427 0.0178662 0.0182518 0.0185994 0.0189091 0.0191808 0.019417 0.0196204 0.0197908 0.0199284 0.020033 0.0201048 0.0201436 0.0201495 0.0201299 0.0200922 0.0200362 0.0199621 0.0198698 0.0197593 0.0196307 0.0194839 0.0193255 0.0191623 0.0189942 0.0188213 0.0186435 0.0184608 0.0182732 0.0180808 0.0178858 0.0176905 0.0174948 0.0172989 0.0171026 0.0169061 0.0167092 0.016512 0.0163124 0.0161082 0.0158995 0.0156863 0.0154685 0.0152462 0.0150193 0.0147879 0.0145486 0.0142979 0.0140358 0.0137624 0.0134776 0.0131814 0.0128739 0.012555 0.012224 0.0118799 0.0115229 0.0111528 0.0107698 0.0103737 0.00996467 0.00954263 0.00911171 0.00867604 0.0082356 0.00779041 0.00734046 0.00688575 0.00642628 0.00596205 0.00550172 0.00505392 0.00461866 0.00419595 0.00378577 0.00338814 0.00300305 0.00263049 0.002278 0.00195308 0.00165574 0.00138597 0.00114379 0.000929174 0.000742139 0.00058268 0.000446115 0.000327758 0.000227609 0.00014567 8.19394e-05 3.64175e-05 9.10438e-06 0 0 2.21135e-05 8.84539e-05 0.000199021 0.000353815 0.000552837 0.000796085 0.00108356 0.00141526 0.00179592 0.00223028 0.00271832 0.00326006 0.00385548 0.0045046 0.00520741 0.00596391 0.00675301 0.00755363 0.00836575 0.00918938 0.0100245 0.0108712 0.0117293 0.012599 0.0134604 0.0142938 0.0150991 0.0158763 0.0166256 0.0173467 0.0180399 0.018705 0.0193341 0.0199192 0.0204603 0.0209574 0.0214106 0.0218198 0.022185 0.0225062 0.0227863 0.0230282 0.0232317 0.023397 0.023524 0.0236128 0.0236632 0.0236754 0.0236577 0.0236186 0.0235581 0.0234762 0.0233729 0.0232481 0.0231019 0.0229343 0.022753 0.0225655 0.0223719 0.0221722 0.0219663 0.0217544 0.0215363 0.0213121 0.0210845 0.0208561 0.0206269 0.0203968 0.0201661 0.0199345 0.0197021 0.0194689 0.0192326 0.0189908 0.0187435 0.0184906 0.0182323 0.0179684 0.0176991 0.0174242 0.01714 0.0168425 0.0165319 0.0162081 0.0158711 0.0155208 0.0151574 0.0147808 0.0143901 0.0139844 0.0135637 0.0131281 0.0126776 0.012212 0.0117315 0.011236 0.0107304 0.0102192 0.00970268 0.00918066 0.00865319 0.00812028 0.00758192 0.00703811 0.00649879 0.00597388 0.00546338 0.00496731 0.00448564 0.00401839 0.00356556 0.00312715 0.00271193 0.00232871 0.00197747 0.00165823 0.00137097 0.00111571 0.000892437 0.000701154 0.000536821 0.000394399 0.000273888 0.000175288 9.85997e-05 4.38221e-05 1.09555e-05 0 0 2.606e-05 0.00010424 0.00023454 0.00041696 0.000651501 0.000938161 0.00127694 0.00166784 0.00211552 0.00262462 0.00319514 0.0038271 0.00452048 0.00527529 0.00609152 0.00696919 0.00788398 0.00881162 0.00975211 0.0107054 0.0116716 0.0126506 0.0136425 0.0146472 0.0156422 0.016605 0.0175357 0.0184342 0.0193005 0.0201346 0.0209366 0.0217063 0.0224348 0.0231129 0.0237405 0.0243177 0.0248444 0.0253208 0.0257467 0.0261222 0.0264504 0.0267346 0.0269747 0.0271708 0.0273228 0.0274307 0.0274945 0.0275143 0.0274996 0.0274599 0.0273952 0.0273056 0.027191 0.0270515 0.026887 0.0266975 0.0264918 0.0262785 0.0260577 0.0258294 0.0255936 0.0253502 0.0250992 0.0248408 0.0245778 0.0243136 0.0240479 0.0237808 0.0235124 0.0232426 0.0229714 0.0226989 0.0224224 0.0221392 0.0218495 0.0215532 0.0212503 0.0209408 0.0206247 0.0203021 0.0199685 0.0196198 0.0192559 0.0188768 0.0184825 0.0180731 0.0176484 0.0172086 0.0167527 0.0162797 0.0157896 0.0152825 0.0147584 0.0142171 0.0136588 0.0130835 0.0124965 0.0119033 0.011304 0.0106985 0.0100868 0.009469 0.00884498 0.00821478 0.00758969 0.00698102 0.00638875 0.00581288 0.00525343 0.00471038 0.00418374 0.00367351 0.00318985 0.00274292 0.00233272 0.00195925 0.00162251 0.00132251 0.00105924 0.000832697 0.000637533 0.000468392 0.000325272 0.000208174 0.000117098 5.20436e-05 1.30109e-05 0 0 3.03758e-05 0.000121503 0.000273382 0.000486012 0.000759394 0.00109353 0.00148841 0.00194405 0.00246489 0.00305541 0.00371558 0.00444543 0.00524494 0.00611411 0.00705295 0.00806146 0.00911191 0.0101766 0.0112554 0.0123485 0.0134558 0.0145774 0.0157131 0.016863 0.0180018 0.019104 0.0201695 0.0211985 0.0221908 0.0231466 0.0240658 0.0249483 0.0257839 0.0265622 0.0272832 0.0279469 0.0285533 0.0291024 0.0295942 0.0300286 0.0304093 0.0307397 0.0310198 0.0312497 0.0314292 0.0315585 0.0316375 0.0316663 0.0316555 0.0316159 0.0315474 0.0314502 0.0313242 0.0311694 0.0309858 0.0307734 0.030542 0.0303015 0.0300518 0.0297931 0.0295252 0.0292482 0.028962 0.0286667 0.0283659 0.0280629 0.0277579 0.0274508 0.0271417 0.0268305 0.0265172 0.0262018 0.0258815 0.0255535 0.0252176 0.024874 0.0245225 0.0241633 0.0237963 0.0234215 0.0230342 0.0226296 0.0222076 0.0217684 0.0213119 0.0208381 0.0203469 0.0198385 0.0193118 0.0187658 0.0182005 0.017616 0.0170121 0.016389 0.0157466 0.0150849 0.0144101 0.0137283 0.0130396 0.012344 0.0116414 0.0109319 0.0102155 0.00949205 0.00877443 0.00807533 0.00739475 0.00673269 0.00608914 0.0054641 0.00485759 0.00426959 0.00371175 0.00319571 0.00272147 0.00228903 0.0018984 0.00154957 0.00124254 0.00097731 0.000748253 0.000549737 0.000381762 0.000244327 0.000137434 6.10819e-05 1.52705e-05 0 0 3.50207e-05 0.000140083 0.000315186 0.00056033 0.000875516 0.00126074 0.00171601 0.00224132 0.00284081 0.00351862 0.00427475 0.0051092 0.00602197 0.00701306 0.00808247 0.0092302 0.0104249 0.0116352 0.012861 0.0141025 0.0153595 0.0166321 0.0179203 0.0192241 0.0205151 0.0217648 0.0229733 0.0241405 0.0252665 0.0263512 0.0273947 0.028397 0.0293463 0.0302312 0.0310515 0.0318073 0.0324986 0.0331254 0.0336876 0.0341853 0.0346224 0.0350027 0.0353261 0.0355927 0.0358025 0.0359555 0.0360516 0.036091 0.0360854 0.036047 0.0359757 0.0358715 0.0357343 0.0355643 0.0353613 0.0351255 0.0348677 0.0345991 0.0343195 0.034029 0.0337277 0.0334154 0.0330922 0.0327581 0.0324172 0.0320733 0.0317265 0.0313768 0.0310243 0.0306688 0.0303105 0.0299492 0.029582 0.0292056 0.0288202 0.0284257 0.028022 0.0276093 0.0271875 0.0267565 0.0263113 0.0258465 0.0253622 0.0248584 0.024335 0.0237921 0.0232297 0.0226478 0.0220452 0.0214211 0.0207754 0.0201081 0.0194192 0.0187087 0.0179766 0.0172229 0.0164546 0.0156785 0.0148947 0.0141031 0.0133038 0.0124968 0.011682 0.0108595 0.0100434 0.00924812 0.00847351 0.0077196 0.0069864 0.0062739 0.00558211 0.00491103 0.00427388 0.00368388 0.00314103 0.00264534 0.00219679 0.0017954 0.00144115 0.00113406 0.000868267 0.00063791 0.000442993 0.000283516 0.000159478 7.08789e-05 1.77197e-05 0 0 3.99546e-05 0.000159818 0.000359592 0.000639274 0.000998865 0.00143837 0.00195778 0.0025571 0.00324002 0.00401024 0.00486777 0.00581259 0.00684472 0.00796414 0.00917087 0.0104649 0.011811 0.0131741 0.0145541 0.015951 0.0173648 0.0187956 0.0202433 0.0217079 0.0231579 0.0245619 0.0259198 0.0272316 0.0284974 0.0297171 0.0308907 0.0320183 0.0330869 0.0340835 0.0350081 0.0358608 0.0366416 0.0373504 0.0379872 0.0385521 0.0390491 0.0394826 0.0398525 0.0401588 0.0404015 0.0405806 0.0406961 0.0407481 0.0407495 0.0407138 0.0406408 0.0405306 0.0403831 0.0401984 0.0399765 0.0397173 0.0394331 0.039136 0.038826 0.0385032 0.0381675 0.0378189 0.0374574 0.037083 0.0367003 0.0363137 0.0359232 0.0355289 0.0351306 0.0347285 0.0343225 0.0339126 0.0334955 0.0330679 0.0326297 0.0321811 0.0317219 0.0312521 0.0307719 0.0302811 0.0297741 0.0292453 0.0286946 0.0281221 0.0275277 0.0269115 0.0262735 0.0256136 0.0249308 0.024224 0.0234933 0.0227386 0.0219599 0.0211573 0.0203308 0.0194803 0.0186135 0.0177381 0.0168543 0.0159618 0.0150609 0.0141513 0.0132332 0.0123066 0.0113872 0.0104907 0.00961711 0.0087665 0.00793884 0.00713412 0.00635234 0.0055935 0.00487251 0.00420424 0.00358871 0.00302591 0.00251584 0.00205851 0.0016539 0.00130203 0.000996865 0.000732391 0.000508605 0.000325507 0.000183098 8.13767e-05 2.03442e-05 0 0 4.51776e-05 0.000180711 0.000406599 0.000722842 0.00112944 0.0016264 0.0022137 0.00289137 0.00366252 0.00453027 0.00549463 0.0065556 0.00771317 0.00896735 0.0103181 0.0117655 0.0132704 0.0147934 0.0163346 0.0178941 0.0194718 0.0210678 0.0226819 0.0243143 0.0259302 0.0274951 0.029009 0.0304718 0.0318835 0.0332442 0.0345538 0.0358123 0.0370055 0.0381191 0.0391531 0.0401075 0.0409822 0.0417774 0.0424929 0.0431288 0.0436895 0.0441797 0.0445992 0.0449481 0.0452264 0.0454341 0.0455711 0.0456375 0.0456478 0.0456162 0.0455428 0.0454276 0.0452707 0.0450719 0.0448313 0.044549 0.0442382 0.0439124 0.0435715 0.0432156 0.0428446 0.0424586 0.0420576 0.0416415 0.0412154 0.0407842 0.0403481 0.0399069 0.0394607 0.0390094 0.0385532 0.0380919 0.0376221 0.0371402 0.0366462 0.0361402 0.035622 0.0350918 0.0345495 0.0339951 0.0334226 0.0328258 0.0322048 0.0315595 0.03089 0.0301962 0.0294782 0.0287359 0.0279683 0.0271744 0.0263541 0.0255074 0.0246343 0.0237348 0.022809 0.0218568 0.0208867 0.0199073 0.0189184 0.0179202 0.0169126 0.0158956 0.0148692 0.0138334 0.0128056 0.011803 0.0108256 0.00987341 0.00894646 0.00804475 0.00716826 0.006317 0.00550762 0.00475679 0.0040645 0.00343076 0.00285555 0.00233889 0.00188078 0.0014812 0.00113405 0.000833177 0.000578595 0.000370301 0.000208294 9.25752e-05 2.31438e-05 0 0 5.06898e-05 0.000202759 0.000456208 0.000811036 0.00126724 0.00182483 0.0024838 0.00324414 0.0041083 0.0050787 0.00615534 0.00733821 0.00862733 0.0100227 0.0115243 0.0131321 0.0148028 0.016493 0.0182027 0.0199319 0.0216805 0.0234486 0.0252363 0.0270434 0.0288321 0.0305646 0.0322409 0.033861 0.0354248 0.0369324 0.0383838 0.039779 0.0411024 0.0423382 0.0434865 0.0445473 0.0455206 0.0464064 0.0472047 0.0479155 0.0485436 0.0490938 0.0495661 0.0499605 0.0502771 0.0505157 0.0506765 0.0507594 0.0507801 0.0507542 0.0506816 0.0505626 0.0503969 0.0501846 0.0499258 0.0496203 0.0492829 0.0489281 0.0485558 0.0481662 0.0477591 0.0473346 0.0468927 0.0464334 0.0459623 0.0454848 0.045001 0.0445109 0.0440144 0.0435117 0.0430026 0.0424872 0.0419618 0.0414226 0.0408696 0.0403029 0.0397225 0.0391283 0.0385204 0.0378987 0.0372568 0.0365881 0.0358928 0.0351706 0.0344218 0.0336462 0.0328439 0.0320148 0.031158 0.0302723 0.0293578 0.0284145 0.0274423 0.0264412 0.0254113 0.0243526 0.0232744 0.0221859 0.0210871 0.0199782 0.018859 0.0177295 0.0165899 0.01544 0.0142987 0.013185 0.0120989 0.0110403 0.0100093 0.0090058 0.00802989 0.00708152 0.00617923 0.00534153 0.0045684 0.00385987 0.00321592 0.00263656 0.00212178 0.00167159 0.00127981 0.00094027 0.000652965 0.000417898 0.000235068 0.000104474 2.61186e-05 0 0 5.64909e-05 0.000225964 0.000508418 0.000903855 0.00141227 0.00203367 0.00276806 0.00361542 0.00457737 0.00565553 0.00684989 0.00816044 0.0095872 0.0111302 0.0127893 0.0145647 0.0164085 0.018273 0.0201583 0.0220642 0.0239909 0.0259382 0.0279063 0.0298951 0.0318635 0.0337703 0.0356155 0.0373992 0.0391214 0.040782 0.042381 0.0439184 0.0453773 0.0467406 0.0480082 0.0491803 0.0502567 0.0512375 0.0521226 0.0529122 0.0536112 0.0542249 0.0547532 0.055196 0.0555535 0.0558256 0.0560124 0.0561137 0.0561465 0.0561277 0.0560574 0.0559354 0.0557618 0.0555366 0.0552598 0.0549315 0.0545673 0.0541832 0.053779 0.053355 0.0529109 0.0524469 0.0519629 0.0514589 0.0509411 0.0504155 0.0498821 0.0493409 0.048792 0.0482352 0.0476707 0.0470984 0.0465145 0.045915 0.0453 0.0446694 0.0440233 0.0433617 0.0426845 0.0419918 0.0412767 0.0405323 0.0397585 0.0389555 0.0381232 0.0372615 0.0363706 0.0354503 0.0344998 0.0335178 0.0325045 0.0314599 0.0303839 0.0292765 0.0281378 0.0269677 0.0257764 0.0245739 0.0233604 0.0221358 0.0209 0.0196532 0.0183952 0.0171262 0.0158665 0.0146368 0.013437 0.0122672 0.0111273 0.0100173 0.00893721 0.00788707 0.00688733 0.00595844 0.00510042 0.00431326 0.00359695 0.0029515 0.00237692 0.00187319 0.00143416 0.00105367 0.000731715 0.000468298 0.000263417 0.000117074 2.92686e-05 0 0 6.25812e-05 0.000250325 0.000563231 0.0010013 0.00156453 0.00225292 0.00306648 0.0040052 0.00506974 0.00626077 0.00757828 0.00902229 0.0105928 0.0122898 0.0141132 0.0160632 0.0180873 0.0201334 0.0222013 0.0242911 0.0264029 0.0285365 0.0306921 0.0328695 0.0350244 0.0371122 0.0391329 0.0410866 0.0429732 0.0447927 0.0465451 0.0482305 0.0498304 0.0513264 0.0527183 0.0540064 0.0551904 0.0562705 0.0572467 0.0581189 0.0588925 0.0595731 0.0601605 0.0606547 0.0610558 0.0613638 0.0615786 0.0617004 0.0617471 0.0617369 0.06167 0.0615461 0.0613655