<?xml version="1.0"?> 
<VTKFile type="StructuredGrid" version="0.1"> 
<StructuredGrid WholeExtent="0 128 0 128 0 0"> 
<Piece Extent="0 128 0 128 0 0"> 
<PointData>
<DataArray type="Float32" Name="u" format="ascii" NumberOfComponents="1"> 
0 0 0 0 0 0 0 0 0 0 0 0 0 0 0 0 0 0 0 0 0 0 0 0 0 0 0 0 0 0 0 0 0 0 0 0 0 0 0 0 0 0 0 0 0 0 0 0 0 0 0 0 0 0 0 0 0 0 0 0 0 0 0 0 0 0 0 0 0 0 0 0 0 0 0 0 0 0 0 0 0 0 0 0 0 0 0 0 0 0 0 0 0 0 0 0 0 0 0 0 0 0 0 0 0 0 0 0 0 0 0 0 0 0 0 0 0 0 0 0 0 0 0 0 0 0 0 0 0 0 3.85611e-07 1.54244e-06 3.4705e-06 6.16977e-06 9.64027e-06 1.3882e-05 1.88949e-05 2.46791e-05 3.13473e-05 3.90124e-05 4.76745e-05 5.73334e-05 6.79892e-05 7.96419e-05 9.22916e-05 0.000105938 0.000120219 0.000134772 0.000149598 0.000164695 0.000180065 0.000195706 0.00021162 0.000227806 0.000243915 0.000259597 0.000274852 0.000289679 0.00030408 0.000318054 0.000331601 0.000344721 0.000357233 0.000368957 0.000379891 0.000390037 0.000399393 0.000407961 0.00041574 0.00042273 0.000428903 0.000434229 0.00043871 0.000442344 0.000445133 0.000447075 0.000448172 0.000448422 0.000447906 0.000446702 0.00044481 0.000442231 0.000438964 0.000435009 0.000430367 0.000425037 0.000419152 0.000412845 0.000406115 0.000398963 0.000391388 0.00038339 0.000374971 0.000366129 0.000357 0.000347722 0.000338294 0.000328716 0.000318988 0.000309111 0.000299083 0.000288906 0.000278685 0.000268528 0.000258434 0.000248404 0.000238438 0.000228535 0.000218695 0.000208919 0.000199271 0.000189816 0.000180553 0.000171483 0.000162605 0.00015392 0.000145428 0.000137128 0.000129049 0.000121216 0.000113631 0.000106294 9.92037e-05 9.23611e-05 8.57658e-05 7.9418e-05 7.33228e-05 6.74855e-05 6.1906e-05 5.65845e-05 5.15208e-05 4.6715e-05 4.2167e-05 3.7877e-05 3.38417e-05 3.00582e-05 2.65265e-05 2.32465e-05 2.02182e-05 1.74418e-05 1.4917e-05 1.2644e-05 1.05994e-05 8.75987e-06 7.12531e-06 5.69577e-06 4.47125e-06 3.45175e-06 2.63727e-06 2.02781e-06 1.55254e-06 1.14064e-06 7.92113e-07 5.06952e-07 2.85161e-07 1.26738e-07 3.16845e-08 0 0 1.54244e-06 6.16977e-06 1.3882e-05 2.46791e-05 3.85611e-05 5.5528e-05 7.55797e-05 9.87164e-05 0.000125389 0.00015605 0.000190698 0.000229334 0.000271957 0.000318568 0.000369166 0.000423752 0.000480877 0.000539089 0.000598391 0.000658781 0.000720259 0.000782826 0.000846482 0.000911226 0.00097566 0.00103839 0.00109941 0.00115872 0.00121632 0.00127222 0.0013264 0.00137888 0.00142893 0.00147583 0.00151956 0.00156015 0.00159757 0.00163184 0.00166296 0.00169092 0.00171561 0.00173692 0.00175484 0.00176938 0.00178053 0.0017883 0.00179269 0.00179369 0.00179162 0.00178681 0.00177924 0.00176892 0.00175586 0.00174004 0.00172147 0.00170015 0.00167661 0.00165138 0.00162446 0.00159585 0.00156555 0.00153356 0.00149988 0.00146451 0.001428 0.00139089 0.00135318 0.00131486 0.00127595 0.00123644 0.00119633 0.00115562 0.00111474 0.00107411 0.00103374 0.000993617 0.000953751 0.000914138 0.00087478 0.000835676 0.000797085 0.000759263 0.000722212 0.000685932 0.000650422 0.000615682 0.000581712 0.000548513 0.000516194 0.000484865 0.000454525 0.000425175 0.000396815 0.000369444 0.000343063 0.000317672 0.000293291 0.000269942 0.000247624 0.000226338 0.000206083 0.00018686 0.000168668 0.000151508 0.000135367 0.000120233 0.000106106 9.2986e-05 8.0873e-05 6.97671e-05 5.96681e-05 5.05762e-05 4.23978e-05 3.50395e-05 2.85013e-05 2.27831e-05 1.7885e-05 1.3807e-05 1.05491e-05 8.11124e-06 6.21017e-06 4.56257e-06 3.16845e-06 2.02781e-06 1.14064e-06 5.06952e-07 1.26738e-07 0 0 3.4705e-06 1.3882e-05 3.12345e-05 5.5528e-05 8.67624e-05 0.000124938 0.000170054 0.000222112 0.000282126 0.000351112 0.00042907 0.000516001 0.000611903 0.000716777 0.000830624 0.000953443 0.00108197 0.00121295 0.00134638 0.00148226 0.00162058 0.00176136 0.00190458 0.00205026 0.00219524 0.00233637 0.00247366 0.00260711 0.00273672 0.00286249 0.00298441 0.00310249 0.0032151 0.00332061 0.00341902 0.00351033 0.00359454 0.00367165 0.00374166 0.00380457 0.00386012 0.00390806 0.00394839 0.0039811 0.0040062 0.00402368 0.00403355 0.0040358 0.00403115 0.00402032 0.00400329 0.00398008 0.00395067 0.00391508 0.0038733 0.00382533 0.00377237 0.0037156 0.00365503 0.00359066 0.00352249 0.00345051 0.00337474 0.00329516 0.003213 0.0031295 0.00304465 0.00295844 0.00287089 0.00278199 0.00269175 0.00260015 0.00250816 0.00241675 0.00232591 0.00223564 0.00214594 0.00205681 0.00196826 0.00188027 0.00179344 0.00170834 0.00162498 0.00154335 0.00146345 0.00138528 0.00130885 0.00123416 0.00116144 0.00109095 0.00102268 0.000956644 0.000892834 0.00083125 0.000771892 0.000714762 0.000659905 0.000607369 0.000557154 0.00050926 0.000463687 0.000420435 0.000379503 0.000340893 0.000304575 0.000270524 0.000238738 0.000209218 0.000181964 0.000156976 0.000134253 0.000113796 9.5395e-05 7.88388e-05 6.41278e-05 5.1262e-05 4.02413e-05 3.10658e-05 2.37354e-05 1.82503e-05 1.39729e-05 1.02658e-05 7.12902e-06 4.56257e-06 2.56645e-06 1.14064e-06 2.85161e-07 0 0 6.16977e-06 2.46791e-05 5.5528e-05 9.87164e-05 0.000154244 0.000222112 0.000302319 0.000394866 0.000501557 0.000624199 0.000762791 0.000917334 0.00108783 0.00127427 0.00147667 0.00169501 0.00192351 0.00215636 0.00239356 0.00263512 0.00288104 0.0031313 0.00338593 0.0036449 0.00390264 0.00415355 0.00439762 0.00463487 0.00486528 0.00508887 0.00530562 0.00551554 0.00571573 0.00590331 0.00607826 0.00624058 0.00639029 0.00652738 0.00665184 0.00676368 0.00686244 0.00694767 0.00701936 0.00707751 0.00712212 0.0071532 0.00717075 0.00717476 0.00716649 0.00714723 0.00711696 0.00707569 0.00702342 0.00696015 0.00688587 0.00680059 0.00670643 0.00660552 0.00649784 0.0063834 0.0062622 0.00613425 0.00599953 0.00585806 0.005712 0.00556355 0.0054127 0.00525946 0.00510381 0.00494577 0.00478533 0.00462249 0.00445896 0.00429645 0.00413495 0.00397447 0.003815 0.00365655 0.00349912 0.00334271 0.00318834 0.00303705 0.00288885 0.00274373 0.00260169 0.00246273 0.00232685 0.00219405 0.00206478 0.00193946 0.0018181 0.0017007 0.00158726 0.00147778 0.00137225 0.00127069 0.00117316 0.00107977 0.000990496 0.000905351 0.000824332 0.000747439 0.000674672 0.000606031 0.000541467 0.000480932 0.000424424 0.000371944 0.000323492 0.000279068 0.000238672 0.000202305 0.000169591 0.000140158 0.000114005 9.11324e-05 7.15401e-05 5.5228e-05 4.21963e-05 3.2445e-05 2.48407e-05 1.82503e-05 1.26738e-05 8.11124e-06 4.56257e-06 2.02781e-06 5.06952e-07 0 0 9.64027e-06 3.85611e-05 8.67624e-05 0.000154244 0.000241007 0.00034705 0.000472373 0.000616977 0.000783683 0.000975311 0.00119186 0.00143333 0.00169973 0.00199105 0.00230729 0.00264845 0.00300548 0.00336931 0.00373994 0.00411738 0.00450162 0.00489266 0.00529051 0.00569516 0.00609788 0.00648992 0.00687129 0.00724198 0.00760201 0.00795135 0.00829003 0.00861803 0.00893083 0.00922392 0.00949728 0.00975091 0.00998483 0.010199 0.0103935 0.0105682 0.0107226 0.0108557 0.0109677 0.0110586 0.0111283 0.0111769 0.0112043 0.0112106 0.0111976 0.0111675 0.0111203 0.0110558 0.0109741 0.0108752 0.0107592 0.0106259 0.0104788 0.0103211 0.0101529 0.00997406 0.00978469 0.00958476 0.00937427 0.00915321 0.00892501 0.00869305 0.00845735 0.0082179 0.0079747 0.00772776 0.00747707 0.00722264 0.00696712 0.0067132 0.00646086 0.0062101 0.00596094 0.00571337 0.00546738 0.00522298 0.00498178 0.0047454 0.00451383 0.00428707 0.00406514 0.00384801 0.0036357 0.00342821 0.00322621 0.00303041 0.00284078 0.00265735 0.00248009 0.00230903 0.00214415 0.00198545 0.00183307 0.00168714 0.00154765 0.00141461 0.00128802 0.00116787 0.00105418 0.000946924 0.000846043 0.000751456 0.000663162 0.000581162 0.000505456 0.000436044 0.000372926 0.000316101 0.000264986 0.000218997 0.000178133 0.000142394 0.000111781 8.62938e-05 6.59318e-05 5.06952e-05 3.88135e-05 2.85161e-05 1.98028e-05 1.26738e-05 7.12902e-06 3.16845e-06 7.92113e-07 0 0 1.3882e-05 5.5528e-05 0.000124938 0.000222112 0.00034705 0.000499752 0.000680218 0.000888447 0.0011285 0.00140445 0.00171628 0.002064 0.00244761 0.00286711 0.0033225 0.00381377 0.00432789 0.0048518 0.00538552 0.00592902 0.00648233 0.00704543 0.00761833 0.00820103 0.00878094 0.00934548 0.00989466 0.0104285 0.0109469 0.01145 0.0119376 0.01241 0.0128604 0.0132824 0.0136761 0.0140413 0.0143782 0.0146866 0.0149666 0.0152183 0.0154405 0.0156322 0.0157936 0.0159244 0.0160248 0.0160947 0.0161342 0.0161432 0.0161246 0.0160813 0.0160132 0.0159203 0.0158027 0.0156603 0.0154932 0.0153013 0.0150895 0.0148624 0.0146201 0.0143627 0.01409 0.0138021 0.0134989 0.0131806 0.012852 0.012518 0.0121786 0.0118338 0.0114836 0.011128 0.010767 0.0104006 0.0100327 0.009667 0.00930363 0.00894255 0.00858376 0.00822725 0.00787302 0.00752109 0.00717376 0.00683337 0.00649991 0.00617339 0.00585379 0.00554114 0.00523541 0.00493662 0.00464575 0.00436378 0.00409073 0.00382658 0.00357133 0.003325 0.00308757 0.00285905 0.00263962 0.00242948 0.00222862 0.00203704 0.00185475 0.00168174 0.00151801 0.00136357 0.0012183 0.0010821 0.000954953 0.000836874 0.000727857 0.000627903 0.000537013 0.000455186 0.00038158 0.000315355 0.000256511 0.000205048 0.000160965 0.000124263 9.49418e-05 7.30011e-05 5.58915e-05 4.10631e-05 2.85161e-05 1.82503e-05 1.02658e-05 4.56257e-06 1.14064e-06 0 0 1.88949e-05 7.55797e-05 0.000170054 0.000302319 0.000472373 0.000680218 0.000925852 0.00120928 0.00153602 0.00191161 0.00233605 0.00280934 0.00333147 0.00390246 0.00452229 0.00519097 0.00589074 0.00660384 0.00733029 0.00807006 0.00882317 0.00958962 0.0103694 0.0111625 0.0119518 0.0127202 0.0134677 0.0141943 0.0148999 0.0155847 0.0162485 0.0168913 0.0175044 0.0180789 0.0186147 0.0191118 0.0195703 0.0199901 0.0203713 0.0207138 0.0210162 0.0212772 0.0214968 0.0216749 0.0218115 0.0219067 0.0219604 0.0219727 0.0219474 0.0218884 0.0217957 0.0216693 0.0215092 0.0213155 0.021088 0.0208268 0.0205385 0.0202294 0.0198996 0.0195492 0.019178 0.0187861 0.0183736 0.0179403 0.017493 0.0170384 0.0165764 0.0161071 0.0156304 0.0151464 0.0146551 0.0141564 0.0136556 0.0131579 0.0126633 0.0121718 0.0116834 0.0111982 0.0107161 0.010237 0.00976429 0.00930098 0.0088471 0.00840266 0.00796766 0.0075421 0.00712598 0.00671929 0.00632338 0.0059396 0.00556793 0.0052084 0.00486098 0.00452569 0.00420252 0.00389148 0.00359282 0.00330679 0.00303339 0.00277264 0.00252452 0.00228903 0.00206618 0.00185597 0.00165824 0.00147285 0.0012998 0.00113908 0.000990694 0.000854646 0.000730934 0.000619558 0.000519373 0.000429234 0.00034914 0.000279093 0.000219091 0.000169136 0.000129226 9.93627e-05 7.60745e-05 5.58915e-05 3.88135e-05 2.48407e-05 1.39729e-05 6.21017e-06 1.55254e-06 0 0 2.46791e-05 9.87164e-05 0.000222112 0.000394866 0.000616977 0.000888447 0.00120928 0.00157946 0.00200623 0.0024968 0.00305117 0.00366934 0.00435131 0.00509708 0.00590666 0.00678004 0.00769402 0.00862543 0.00957425 0.0105405 0.0115241 0.0125252 0.0135437 0.0145796 0.0156106 0.0166142 0.0175905 0.0185395 0.0194611 0.0203555 0.0212225 0.0220622 0.0228629 0.0236132 0.024313 0.0249623 0.0255612 0.0261095 0.0266074 0.0270547 0.0274498 0.0277907 0.0280774 0.02831 0.0284885 0.0286128 0.028683 0.028699 0.028666 0.0285889 0.0284679 0.0283028 0.0280937 0.0278406 0.0275435 0.0272024 0.0268257 0.0264221 0.0259914 0.0255336 0.0250488 0.024537 0.0239981 0.0234322 0.022848 0.0222542 0.0216508 0.0210378 0.0204152 0.0197831 0.0191413 0.01849 0.0178358 0.0171858 0.0165398 0.0158979 0.01526 0.0146262 0.0139965 0.0133708 0.0127534 0.0121482 0.0115554 0.0109749 0.0104067 0.00985091 0.0093074 0.00877621 0.00825911 0.00775784 0.0072724 0.0068028 0.00634904 0.00591111 0.00548901 0.00508275 0.00469266 0.00431907 0.00396199 0.00362141 0.00329733 0.00298976 0.00269869 0.00242413 0.00216587 0.00192373 0.00169769 0.00148778 0.00129397 0.00111627 0.00095469 0.000809219 0.000678365 0.000560632 0.00045602 0.00036453 0.00028616 0.000220912 0.000168785 0.00012978 9.93627e-05 7.30011e-05 5.06952e-05 3.2445e-05 1.82503e-05 8.11124e-06 2.02781e-06 0 0 3.1387e-05 0.000125548 0.000282483 0.000502193 0.000784676 0.00112993 0.00153796 0.00200877 0.0025512 0.0031741 0.00387747 0.00466132 0.00552563 0.00647042 0.00749568 0.00860142 0.00975832 0.0109371 0.0121377 0.0133603 0.0146047 0.0158709 0.0171591 0.0184691 0.0197728 0.0210419 0.0222765 0.0234766 0.0246422 0.0257732 0.0268697 0.0279316 0.0289444 0.0298934 0.0307786 0.0316 0.0323577 0.0330515 0.0336815 0.0342477 0.0347479 0.0351795 0.0355427 0.0358375 0.0360638 0.0362217 0.0363111 0.036332 0.0362909 0.0361941 0.0360417 0.0358336 0.0355697 0.0352503 0.0348751 0.0344443 0.0339685 0.0334585 0.0329142 0.0323357 0.031723 0.031076 0.0303948 0.0296793 0.0289406 0.0281897 0.0274267 0.0266514 0.025864 0.0250644 0.0242526 0.0234286 0.022601 0.0217786 0.0209612 0.020149 0.0193418 0.0185397 0.0177428 0.0169509 0.0161693 0.0154033 0.0146529 0.013918 0.0131987 0.0124949 0.0118067 0.0111341 0.0104792 0.00984438 0.00922956 0.00863476 0.00805998 0.00750521 0.00697046 0.00645573 0.00596144 0.00548802 0.00503547 0.00460379 0.00419297 0.00380303 0.00343395 0.00308575 0.00275816 0.00245094 0.00216407 0.00189757 0.00165144 0.00142566 0.00122026 0.00103521 0.00086865 0.000718703 0.000585369 0.000468646 0.000368535 0.000285036 0.00021815 0.000167875 0.000128529 9.44296e-05 6.55761e-05 4.19687e-05 2.36074e-05 1.04922e-05 2.62305e-06 0 0 3.91713e-05 0.000156685 0.000352542 0.000626741 0.000979283 0.00141017 0.00191939 0.00250696 0.003183 0.00395761 0.00483081 0.00580259 0.00687295 0.0080419 0.00930942 0.0106755 0.0121042 0.0135594 0.0150411 0.0165494 0.0180842 0.0196455 0.0212333 0.0228477 0.0244541 0.026018 0.0275394 0.0290183 0.0304547 0.0318486 0.0332001 0.034509 0.0357574 0.0369274 0.0380189 0.039032 0.0399666 0.0408227 0.0416003 0.0422995 0.0429172 0.0434507 0.0438999 0.0442648 0.0445454 0.0447417 0.0448538 0.0448815 0.0448327 0.0447153 0.0445292 0.0442745 0.0439511 0.043559 0.0430983 0.0425689 0.041984 0.0413567 0.0406872 0.0399753 0.039221 0.0384245 0.0375856 0.0367044 0.0357944 0.0348692 0.0339289 0.0329734 0.0320027 0.0310168 0.0300157 0.0289995 0.0279787 0.0269641 0.0259557 0.0249534 0.0239572 0.0229672 0.0219833 0.0210056 0.0200405 0.0190944 0.0181675 0.0172597 0.016371 0.0155014 0.0146509 0.0138195 0.01301 0.0122251 0.0114648 0.0107292 0.0100183 0.00933198 0.00867032 0.0080333 0.00742146 0.00683534 0.00627492 0.00574022 0.00523124 0.00474796 0.0042904 0.00385856 0.0034521 0.0030707 0.00271436 0.00238308 0.00207686 0.0017957 0.00153961 0.00130857 0.00110032 0.000912602 0.000745404 0.00059873 0.00047258 0.000366953 0.00028185 0.00021727 0.000166347 0.000122214 8.48712e-05 5.43175e-05 3.05536e-05 1.35794e-05 3.39485e-06 0 0 4.80319e-05 0.000192128 0.000432287 0.000768511 0.0012008 0.00172915 0.00235356 0.00307404 0.00390162 0.00484733 0.00591118 0.00709315 0.00839326 0.0098115 0.0113479 0.0130024 0.0147317 0.0164923 0.0182844 0.0201078 0.0219626 0.0238488 0.0257664 0.0277154 0.0296545 0.0315424 0.0333791 0.0351645 0.0368988 0.0385818 0.0402136 0.0417942 0.043302 0.0447152 0.046034 0.0472582 0.0483879 0.049423 0.0503637 0.0512099 0.0519579 0.0526043 0.053149 0.0535921 0.0539334 0.0541731 0.0543111 0.0543475 0.0542915 0.0541525 0.0539305 0.0536256 0.0532377 0.0527668 0.052213 0.0515761 0.0508721 0.0501168 0.0493102 0.0484523 0.047543 0.0465825 0.0455706 0.0445074 0.0434093 0.0422926 0.0411574 0.0400036 0.0388312 0.0376403 0.0364308 0.0352027 0.033969 0.0327424 0.0315231 0.0303111 0.0291062 0.0279086 0.0267181 0.0255349 0.0243668 0.0232217 0.0220994 0.0210002 0.0199238 0.0188705 0.01784 0.0168325 0.0158514 0.0149 0.0139782 0.0130862 0.012224 0.0113914 0.0105886 0.00981546 0.00907272 0.00836102 0.00768035 0.00703072 0.00641212 0.00582456 0.00526804 0.00474255 0.00424768 0.00378302 0.00334856 0.0029443 0.00257024 0.00222639 0.00191275 0.0016293 0.00137339 0.00114233 0.000936128 0.000754782 0.000598294 0.000466661 0.000359885 0.000277966 0.000212818 0.000156356 0.00010858 6.94914e-05 3.90889e-05 1.73729e-05 4.34321e-06 0 0 5.79689e-05 0.000231876 0.00052172 0.000927502 0.00144922 0.00208688 0.00284048 0.00371001 0.00470707 0.00584326 0.00711857 0.00853301 0.0100866 0.0117792 0.013611 0.015582 0.0176407 0.0197359 0.0218675 0.0240355 0.0262401 0.028481 0.0307584 0.0330723 0.0353741 0.0376151 0.0397955 0.0419153 0.0439743 0.0459727 0.0479104 0.0497874 0.0515781 0.0532568 0.0548237 0.0562786 0.0576216 0.0588526 0.0599718 0.060979 0.0618699 0.0626403 0.06329 0.0638192 0.0642277 0.0645157 0.0646831 0.0647299 0.0646671 0.0645056 0.0642456 0.0638869 0.0634296 0.0628737 0.0622191 0.061466 0.0606329 0.0597387 0.0587833 0.0577667 0.0566889 0.05555 0.0543498 0.0530885 0.0517854 0.05046 0.0491123 0.0477421 0.0463497 0.0449349 0.0434977 0.0420382 0.0405717 0.0391135 0.0376636 0.036222 0.0347888 0.0333639 0.0319473 0.030539 0.0291484 0.0277849 0.0264486 0.0251393 0.0238571 0.022602 0.021374 0.0201732 0.0190035 0.017869 0.0167698 0.0157058 0.014677 0.0136835 0.0127252 0.0118022 0.0109152 0.0100651 0.00925175 0.00847527 0.00773563 0.00703283 0.00636686 0.00573773 0.00514491 0.00458789 0.00406666 0.00358122 0.00313158 0.00271773 0.00233967 0.0019974 0.00168784 0.00140788 0.00115754 0.000936803 0.000745677 0.000584162 0.000452257 0.000349961 0.000267939 0.000196853 0.000136704 8.74904e-05 4.92133e-05 2.18726e-05 5.46815e-06 0 0 6.89822e-05 0.000275929 0.00062084 0.00110371 0.00172455 0.00248336 0.00338013 0.00441486 0.00559935 0.0069454 0.008453 0.0101222 0.0119529 0.0139451 0.0160989 0.0184143 0.0208313 0.02329 0.0257905 0.0283326 0.0309165 0.033542 0.0362093 0.0389183 0.0416127 0.0442363 0.0467889 0.0492706 0.0516814 0.0540213 0.0562903 0.0584884 0.0605856 0.0625522 0.0643881 0.0660932 0.0676677 0.0691114 0.0704244 0.0716068 0.0726532 0.0735586 0.0743229 0.0749462 0.0754284 0.0757696 0.0759697 0.0760288 0.0759596 0.0757748 0.0754743 0.0750584 0.0745268 0.0738796 0.0731169 0.0722385 0.0712664 0.0702224 0.0691064 0.0679185 0.0666587 0.0653269 0.0639232 0.0624476 0.0609227 0.0593713 0.0577934 0.056189 0.054558 0.0529005 0.0512165 0.049506 0.0477869 0.0460772 0.044377 0.0426863 0.0410049 0.0393331 0.0376707 0.0360177 0.0343852 0.0327843 0.0312149 0.0296771 0.0281708 0.0266961 0.025253 0.0238414 0.0224662 0.0211322 0.0198394 0.0185878 0.0173774 0.0162083 0.0150803 0.0139935 0.012949 0.0119475 0.0109891 0.0100739 0.00920176 0.00837276 0.00758687 0.00684409 0.00614379 0.00548532 0.00486868 0.00429386 0.00376087 0.00326971 0.00282038 0.00241288 0.00204368 0.00170926 0.00140964 0.00114479 0.000914731 0.000719455 0.000558964 0.000433257 0.000331713 0.000243707 0.000169241 0.000108314 6.09268e-05 2.70786e-05 6.76965e-06 0 0 8.10718e-05 0.000324287 0.000729646 0.00129715 0.0020268 0.00291859 0.00397252 0.0051886 0.00657846 0.00815374 0.00991445 0.0118606 0.0139921 0.0163091 0.0188115 0.0214994 0.0243035 0.0271548 0.0300533 0.032999 0.0359918 0.0390319 0.0421191 0.0452535 0.0483705 0.0514057 0.054359 0.0572304 0.0600199 0.0627276 0.0653533 0.0678972 0.0703248 0.0726014 0.0747272 0.0767021 0.0785262 0.0801994 0.0817218 0.0830932 0.0843078 0.0853592 0.0862477 0.0869731 0.0875354 0.0879347 0.088171 0.0882442 0.088169 0.0879598 0.0876169 0.08714 0.0865292 0.0857846 0.0849061 0.0838937 0.0827726 0.0815679 0.0802797 0.0789078 0.0774524 0.0759134 0.0742909 0.0725847 0.0708212 0.0690266 0.0672009 0.0653442 0.0634563 0.0615373 0.0595872 0.057606 0.0556146 0.0536337 0.0516635 0.0497038 0.0477547 0.0458162 0.0438883 0.041971 0.0400772 0.0382197 0.0363985 0.0346136 0.032865 0.0311527 0.0294768 0.0278372 0.0262396 0.0246895 0.0231871 0.0217324 0.0203252 0.0189657 0.0176538 0.0163895 0.0151739 0.0140083 0.0128925 0.0118266 0.0108105 0.00984435 0.00892806 0.00806164 0.00724432 0.0064753 0.0057546 0.00508221 0.00445812 0.00388234 0.00335488 0.00287572 0.00244091 0.00204647 0.00169242 0.00137875 0.00110545 0.00087254 0.000680007 0.000527854 0.000404138 0.000296918 0.000206193 0.000131963 7.42294e-05 3.29909e-05 8.24771e-06 0 0 9.42378e-05 0.000376951 0.00084814 0.0015078 0.00235594 0.00339256 0.00461765 0.00603122 0.00764439 0.0094683 0.0115029 0.0137483 0.0162044 0.0188713 0.0217489 0.0248372 0.0280573 0.0313302 0.034656 0.0380347 0.0414662 0.0449505 0.0484877 0.0520778 0.0556474 0.0591235 0.0625059 0.0657948 0.06899 0.0720916 0.0750996 0.078014 0.0807954 0.0834044 0.085841 0.0881053 0.0901971 0.0921166 0.0938637 0.0954384 0.0968336 0.0980423 0.0990644 0.0998999 0.100549 0.101011 0.101287 0.101376 0.101295 0.101061 0.100673 0.100132 0.099437 0.0985887 0.0975869 0.0964316 0.0951515 0.0937753 0.092303 0.0907346 0.08907 0.0873094 0.0854527 0.0834998 0.0814809 0.0794259 0.0773348 0.0752076 0.0730444 0.0708451 0.0686098 0.0663383 0.0640548 0.061783 0.0595229 0.0572746 0.0550381 0.0528133 0.0506003 0.0483991 0.0462244 0.0440911 0.0419992 0.0399487 0.0379396 0.0359719 0.0340456 0.0321606 0.0303236 0.0285411 0.026813 0.0251394 0.0235203 0.0219557 0.0204456 0.01899 0.0175901 0.0162474 0.0149618 0.0137333 0.0125619 0.0114476 0.0103904 0.00939038 0.00844649 0.00755784 0.00672443 0.00594626 0.00522332 0.00455562 0.00394316 0.00338593 0.00287952 0.00241951 0.00200589 0.00163867 0.00131785 0.00104342 0.000815386 0.00063375 0.000485215 0.000356484 0.000247559 0.000158438 8.91211e-05 3.96094e-05 9.90235e-06 0 0 0.00010848 0.00043392 0.000976321 0.00173568 0.002712 0.00390528 0.00531552 0.00694273 0.00879715 0.0108891 0.0132185 0.0157853 0.0185897 0.0216316 0.0249109 0.0284277 0.0320926 0.0358163 0.0395986 0.0434397 0.0473395 0.051298 0.0553153 0.0593912 0.0634435 0.0673896 0.0712297 0.0749637 0.0785916 0.0821133 0.085529 0.0888386 0.0919976 0.0949612 0.0977296 0.100303 0.10268 0.104863 0.10685 0.108642 0.110231 0.111608 0.112773 0.113727 0.114468 0.114999 0.115317 0.115424 0.115338 0.115078 0.114643 0.114034 0.11325 0.112292 0.111159 0.109852 0.108403 0.106844 0.105176 0.103399 0.101512 0.0995149 0.0974087 0.0951929 0.0929017 0.090569 0.0881949 0.0857794 0.0833224 0.0808241 0.0782842 0.075703 0.0731075 0.0705249 0.0679553 0.0653987 0.062855 0.0603243 0.0578066 0.0553018 0.0528268 0.0503987 0.0480172 0.0456826 0.0433947 0.0411536 0.0389592 0.0368116 0.0347183 0.0326867 0.030717 0.028809 0.0269629 0.0251785 0.0234559 0.0217951 0.0201976 0.0186649 0.0171971 0.0157941 0.0144559 0.0131825 0.011974 0.0108303 0.00975031 0.00873294 0.00777818 0.00688602 0.00605648 0.00528955 0.00458523 0.00394352 0.00335953 0.00282837 0.00235005 0.00192456 0.00155191 0.00123209 0.0009651 0.000750947 0.000574944 0.000422408 0.000293339 0.000187737 0.000105602 4.69342e-05 1.17335e-05 0 0 0.000123502 0.000494008 0.00111152 0.00197603 0.00308755 0.00444607 0.0060516 0.00790412 0.0100128 0.0123866 0.0150257 0.0179299 0.0210994 0.0245341 0.028234 0.0321991 0.0363291 0.0405237 0.044783 0.049107 0.0534955 0.0579487 0.0624666 0.067049 0.0716043 0.0760404 0.0803574 0.0845553 0.0886341 0.0925938 0.0964343 0.100156 0.103708 0.107041 0.110156 0.113051 0.115727 0.118184 0.120422 0.122441 0.124231 0.125784 0.127099 0.128177 0.129016 0.129618 0.129982 0.130109 0.130018 0.129731 0.129248 0.128569 0.127693 0.126622 0.125353 0.123889 0.122265 0.120517 0.118645 0.11665 0.114532 0.11229 0.109924 0.107435 0.10486 0.102238 0.0995696 0.0968537 0.0940907 0.0912806 0.0884234 0.0855191 0.0825984 0.0796917 0.0767992 0.0739209 0.0710566 0.0682066 0.0653706 0.0625488 0.0597602 0.0570239 0.05434 0.0517084 0.0491291 0.0466021 0.0441274 0.0417051 0.0393436 0.0370515 0.0348288 0.0326754 0.0305914 0.0285769 0.0266317 0.0247558 0.0229511 0.0212193 0.0195603 0.0179741 0.0164608 0.0150204 0.0136528 0.0123581 0.0111349 0.00998196 0.00889932 0.00788696 0.00694487 0.00607305 0.00527151 0.00454024 0.0038739 0.00326714 0.00271997 0.00223238 0.00180437 0.00143595 0.00112711 0.000877853 0.000672106 0.000493792 0.000342911 0.000219463 0.000123448 5.48658e-05 1.37165e-05 0 0 0.000139007 0.000556026 0.00125106 0.00222411 0.00347517 0.00500424 0.00681132 0.00889642 0.0112672 0.0139315 0.0168892 0.0201404 0.0236849 0.0275229 0.0316544 0.0360793 0.0406861 0.0453634 0.0501111 0.0549293 0.059818 0.064777 0.0698066 0.0749066 0.0799755 0.0849121 0.0897162 0.0943879 0.0989271 0.103334 0.107608 0.11175 0.115704 0.119415 0.122882 0.126107 0.129087 0.131825 0.134319 0.136571 0.138568 0.140301 0.14177 0.142974 0.143914 0.14459 0.145002 0.145149 0.145055 0.144742 0.144211 0.143461 0.142493 0.141306 0.1399 0.138276 0.136474 0.134534 0.132456 0.13024 0.127886 0.125394 0.122764 0.119996 0.117133 0.114216 0.111247 0.108225 0.105149 0.102021 0.0988401 0.0956061 0.0923531 0.0891154 0.085893 0.0826858 0.0794939 0.0763173 0.0731559 0.0700098 0.0669003 0.0638487 0.0608551 0.0579194 0.0550416 0.0522218 0.0494599 0.046756 0.0441195 0.0415602 0.039078 0.0366729 0.0343448 0.0320939 0.0299201 0.0278234 0.0258057 0.023869 0.0220134 0.0202387 0.0185451 0.0169325 0.0154009 0.0139503 0.0125792 0.0112863 0.0100714 0.00893451 0.00787574 0.00689504 0.00599241 0.00516785 0.0044156 0.00372988 0.0031107 0.00255806 0.00207196 0.00165239 0.00129937 0.00101288 0.000775485 0.000569744 0.000395655 0.000253219 0.000142436 6.33049e-05 1.58262e-05 0 0 0.000154994 0.000619976 0.00139495 0.00247991 0.00387485 0.00557979 0.00759471 0.00991962 0.0125606 0.0155238 0.0188091 0.0224166 0.0263463 0.0305982 0.0351722 0.0400684 0.0451637 0.0503353 0.055583 0.0609068 0.0663068 0.071783 0.0773353 0.0829638 0.0885573 0.0940047 0.0993061 0.104461 0.10947 0.114334 0.119051 0.123622 0.127985 0.132081 0.13591 0.13947 0.142762 0.145786 0.148543 0.151031 0.15324 0.155157 0.156784 0.158119 0.159162 0.159914 0.160375 0.160545 0.160448 0.16011 0.15953 0.15871 0.157648 0.156344 0.1548 0.153014 0.151031 0.148896 0.146608 0.144167 0.141573 0.138827 0.135928 0.132876 0.129719 0.126502 0.123227 0.119892 0.116499 0.113046 0.109534 0.105964 0.102372 0.098796 0.0952366 0.0916936 0.0881669 0.0846565 0.0811625 0.0776848 0.074247 0.0708729 0.0675624 0.0643155 0.0611323 0.0580126 0.0549566 0.0519642 0.0490461 0.0462129 0.0434647 0.0408014 0.0382231 0.0357296 0.0333212 0.0309976 0.0287612 0.0266141 0.0245563 0.0225879 0.0207087 0.0189188 0.0172183 0.015607 0.0140835 0.0126459 0.0112943 0.0100287 0.00884912 0.00775553 0.00674795 0.00582637 0.00498464 0.0042166 0.00352226 0.00290162 0.00235467 0.00188143 0.00148188 0.00115602 0.000885079 0.000650262 0.000451571 0.000289005 0.000162566 7.22513e-05 1.80628e-05 0 0 0.000171464 0.000685857 0.00154318 0.00274343 0.00428661 0.00617272 0.00840175 0.0109737 0.0138929 0.0171634 0.0207854 0.0247587 0.0290835 0.0337597 0.0387873 0.0441663 0.049762 0.0554393 0.0611985 0.0670394 0.072962 0.0789665 0.0850527 0.0912206 0.0973495 0.103318 0.109127 0.114776 0.120264 0.125593 0.130762 0.13577 0.140552 0.145041 0.149237 0.15314 0.15675 0.160067 0.163092 0.165823 0.168248 0.170354 0.172142 0.17361 0.17476 0.175591 0.176103 0.176296 0.176197 0.175834 0.175207 0.174315 0.173158 0.171737 0.170052 0.168102 0.165936 0.163602 0.161101 0.158431 0.155594 0.152589 0.149417 0.146076 0.142619 0.139097 0.13551 0.131857 0.128139 0.124355 0.120506 0.116592 0.112654 0.108734 0.10483 0.100944 0.0970755 0.0932242 0.0893903 0.0855737 0.0818005 0.0780966 0.0744621 0.0708969 0.0674011 0.0639747 0.0606176 0.0573299 0.0541233 0.0510096 0.0479889 0.045061 0.0422261 0.039484 0.0368349 0.0342787 0.0318178 0.0294546 0.0271892 0.0250215 0.0229516 0.0209794 0.019105 0.0173283 0.0156475 0.0140608 0.0125681 0.0111695 0.00986499 0.00865452 0.00753812 0.00651578 0.00558101 0.0047273 0.00395464 0.00326305 0.00265252 0.00212305 0.00167464 0.00130728 0.00100089 0.000735347 0.000510658 0.000326821 0.000183837 8.17052e-05 2.04263e-05 0 0 0.000188417 0.00075367 0.00169576 0.00301468 0.00471043 0.00678303 0.00923245 0.0120587 0.015264 0.0188504 0.022818 0.0271667 0.0318966 0.0370076 0.0424998 0.0483732 0.0544808 0.0606756 0.0669577 0.0733271 0.0797837 0.0863276 0.0929588 0.0996772 0.106352 0.112853 0.119179 0.125331 0.131309 0.137112 0.142741 0.148196 0.153404 0.158294 0.162865 0.167118 0.171053 0.174669 0.177966 0.180945 0.183591 0.185891 0.187843 0.189449 0.190708 0.19162 0.192185 0.192403 0.192303 0.191916 0.19124 0.190276 0.189025 0.187485 0.185657 0.18354 0.181188 0.178653 0.175935 0.173034 0.169949 0.166681 0.16323 0.159596 0.155834 0.152 0.148095 0.144118 0.140069 0.135948 0.131756 0.127491 0.123201 0.118928 0.114674 0.110438 0.10622 0.10202 0.0978394 0.0936766 0.0895606 0.0855197 0.081554 0.0776635 0.0738481 0.0701079 0.0664428 0.0628529 0.0593511 0.0559503 0.0526505 0.0494517 0.0463539 0.0433571 0.0404612 0.0376664 0.0349753 0.0323904 0.0299119 0.0275397 0.0252738 0.0231142 0.021061 0.019114 0.0172714 0.015531 0.0138928 0.012357 0.0109233 0.009592 0.00836292 0.0072361 0.00620472 0.00526197 0.00440785 0.00364236 0.00296549 0.00237725 0.00187765 0.00146666 0.00112292 0.000824999 0.000572916 0.000366666 0.00020625 9.16666e-05 2.29166e-05 0 0 0.000205853 0.000823413 0.00185268 0.00329365 0.00514633 0.00741072 0.0100868 0.0131746 0.016674 0.0205847 0.0249069 0.0296405 0.0347855 0.0403419 0.0463097 0.0526889 0.0593202 0.0660441 0.0728606 0.0797699 0.0867718 0.0938664 0.101054 0.108333 0.115565 0.122608 0.129462 0.136127 0.142603 0.148891 0.154989 0.160899 0.166542 0.17184 0.176794 0.181404 0.185669 0.18959 0.193166 0.196398 0.199271 0.201767 0.203889 0.205635 0.207005 0.208001 0.208621 0.208865 0.208766 0.208354 0.207631 0.206595 0.205247 0.203586 0.201614 0.199329 0.196789 0.194049 0.191111 0.187973 0.184637 0.181102 0.177368 0.173434 0.169362 0.165212 0.160983 0.156675 0.15229 0.147825 0.143283 0.138662 0.134011 0.129379 0.124767 0.120174 0.1156 0.111045 0.10651 0.101994 0.0975274 0.0931423 0.0888383 0.0846153 0.0804732 0.0764123 0.0724323 0.0685334 0.0647296 0.061035 0.0574496 0.0539734 0.0506065 0.0473488 0.0442002 0.0411609 0.0382338 0.0354216 0.0327245 0.0301424 0.0276753 0.0253233 0.0230862 0.0209642 0.018955 0.0170564 0.0152684 0.013591 0.0120242 0.010568 0.00922235 0.00798731 0.00685576 0.00582062 0.00488188 0.00403953 0.00329359 0.00264405 0.00209091 0.00163416 0.00125116 0.000919218 0.000638346 0.000408541 0.000229804 0.000102135 2.55338e-05 0 0 0.000223772 0.000895088 0.00201395 0.00358035 0.0055943 0.00805579 0.0109648 0.0143214 0.0181228 0.0223664 0.0270522 0.0321801 0.0377502 0.0437625 0.0502169 0.0571135 0.0642801 0.0715447 0.0789073 0.0863678 0.0939263 0.101583 0.109337 0.117189