<?xml version="1.0"?> 
<VTKFile type="StructuredGrid" version="0.1"> 
<StructuredGrid WholeExtent="0 128 0 128 0 0"> 
<Piece Extent="0 128 0 128 0 0"> 
<PointData>
<DataArray type="Float32" Name="u" format="ascii" NumberOfComponents="1"> 
0 0 0 0 0 0 0 0 0 0 0 0 0 0 0 0 0 0 0 0 0 0 0 0 0 0 0 0 0 0 0 0 0 0 0 0 0 0 0 0 0 0 0 0 0 0 0 0 0 0 0 0 0 0 0 0 0 0 0 0 0 0 0 0 0 0 0 0 0 0 0 0 0 0 0 0 0 0 0 0 0 0 0 0 0 0 0 0 0 0 0 0 0 0 0 0 0 0 0 0 0 0 0 0 0 0 0 0 0 0 0 0 0 0 0 0 0 0 0 0 0 0 0 0 0 0 0 0 0 0 4.33039e-07 1.73216e-06 3.89735e-06 6.92863e-06 1.0826e-05 1.55894e-05 2.12189e-05 2.77145e-05 3.52036e-05 4.38137e-05 5.35447e-05 6.43967e-05 7.63696e-05 8.94635e-05 0.000103678 0.000119014 0.000135062 0.000151415 0.000168071 0.000185031 0.000202295 0.000219864 0.000237736 0.000255912 0.000273997 0.000291594 0.000308704 0.000325327 0.000341463 0.000357111 0.000372272 0.000386946 0.000400927 0.00041401 0.000426195 0.000437482 0.00044787 0.000457361 0.000465953 0.000473647 0.000480411 0.000486213 0.000491054 0.000494933 0.00049785 0.000499806 0.0005008 0.000500833 0.000499996 0.000498382 0.00049599 0.000492821 0.000488875 0.000484151 0.00047865 0.000472371 0.000465469 0.000458097 0.000450255 0.000441943 0.000433162 0.00042391 0.000414189 0.000403998 0.000393494 0.000382837 0.000372025 0.000361059 0.000349938 0.000338663 0.000327234 0.000315651 0.000304036 0.000292512 0.000281079 0.000269738 0.000258487 0.000247328 0.000236259 0.000225282 0.000214469 0.000203892 0.000193551 0.000183447 0.000173579 0.000163947 0.000154552 0.000145394 0.000136499 0.000127898 0.000119589 0.000111572 0.000103848 9.64173e-05 8.92788e-05 8.24329e-05 7.58806e-05 6.96228e-05 6.36594e-05 5.79905e-05 5.26162e-05 4.75363e-05 4.27509e-05 3.82599e-05 3.40535e-05 3.01214e-05 2.64637e-05 2.30804e-05 1.99715e-05 1.71369e-05 1.45768e-05 1.22911e-05 1.02479e-05 8.41557e-06 6.79404e-06 5.3833e-06 4.18338e-06 3.19426e-06 2.41594e-06 1.84843e-06 1.41521e-06 1.03974e-06 7.22044e-07 4.62108e-07 2.59936e-07 1.15527e-07 2.88818e-08 0 0 1.73216e-06 6.92863e-06 1.55894e-05 2.77145e-05 4.33039e-05 6.23576e-05 8.48757e-05 0.000110858 0.000140814 0.000175255 0.000214179 0.000257587 0.000305478 0.000357854 0.000414713 0.000476056 0.000540249 0.000605659 0.000672284 0.000740125 0.000809182 0.000879455 0.000950944 0.00102365 0.00109599 0.00116638 0.00123482 0.00130131 0.00136585 0.00142845 0.00148909 0.00154779 0.00160371 0.00165604 0.00170478 0.00174993 0.00179148 0.00182944 0.00186381 0.00189459 0.00192164 0.00194485 0.00196421 0.00197973 0.0019914 0.00199922 0.0020032 0.00200333 0.00199998 0.00199353 0.00198396 0.00197128 0.0019555 0.0019366 0.0019146 0.00188948 0.00186188 0.00183239 0.00180102 0.00176777 0.00173265 0.00169564 0.00165676 0.00161599 0.00157398 0.00153135 0.0014881 0.00144424 0.00139975 0.00135465 0.00130894 0.0012626 0.00121614 0.00117005 0.00112432 0.00107895 0.00103395 0.00098931 0.000945037 0.000901129 0.000857875 0.000815567 0.000774205 0.000733787 0.000694316 0.00065579 0.000618209 0.000581574 0.000545997 0.000511591 0.000478355 0.000446289 0.000415394 0.000385669 0.000357115 0.000329732 0.000303522 0.000278491 0.000254638 0.000231962 0.000210465 0.000190145 0.000171003 0.00015304 0.000136214 0.000120485 0.000105855 9.23215e-05 7.98858e-05 6.85477e-05 5.83072e-05 4.91642e-05 4.09916e-05 3.36623e-05 2.71761e-05 2.15332e-05 1.67335e-05 1.2777e-05 9.66377e-06 7.39373e-06 5.66083e-06 4.15897e-06 2.88818e-06 1.84843e-06 1.03974e-06 4.62108e-07 1.15527e-07 0 0 3.89735e-06 1.55894e-05 3.50762e-05 6.23576e-05 9.74338e-05 0.000140305 0.00019097 0.000249431 0.000316833 0.000394323 0.000481902 0.00057957 0.000687326 0.000805171 0.000933105 0.00107113 0.00121556 0.00136273 0.00151264 0.00166528 0.00182066 0.00197877 0.00213962 0.00230321 0.00246597 0.00262435 0.00277834 0.00292795 0.00307317 0.003214 0.00335045 0.00348252 0.00360835 0.00372609 0.00383576 0.00393734 0.00403083 0.00411625 0.00419357 0.00426282 0.0043237 0.00437592 0.00441948 0.0044544 0.00448065 0.00449826 0.0045072 0.0045075 0.00449996 0.00448544 0.00446391 0.00443539 0.00439987 0.00435736 0.00430785 0.00425134 0.00418922 0.00412287 0.00405229 0.00397749 0.00389845 0.00381519 0.0037277 0.00363598 0.00354145 0.00344553 0.00334822 0.00324953 0.00314944 0.00304797 0.00294511 0.00284086 0.00273632 0.00263261 0.00252971 0.00242764 0.00232638 0.00222595 0.00212633 0.00202754 0.00193022 0.00183503 0.00174196 0.00165102 0.00156221 0.00147553 0.00139097 0.00130854 0.00122849 0.00115108 0.0010763 0.00100415 0.000934636 0.000867756 0.000803509 0.000741896 0.000682925 0.000626605 0.000572935 0.000521915 0.000473545 0.000427826 0.000384758 0.000344339 0.000306481 0.000271092 0.000238173 0.000207723 0.000179743 0.000154232 0.000131191 0.000110619 9.22312e-05 7.57401e-05 6.11463e-05 4.84497e-05 3.76504e-05 2.87483e-05 2.17435e-05 1.66359e-05 1.27369e-05 9.35769e-06 6.4984e-06 4.15897e-06 2.33942e-06 1.03974e-06 2.59936e-07 0 0 6.92863e-06 2.77145e-05 6.23576e-05 0.000110858 0.000173216 0.000249431 0.000339503 0.000443432 0.000563258 0.000701019 0.000856715 0.00103035 0.00122191 0.00143142 0.00165885 0.00190423 0.002161 0.00242263 0.00268913 0.0029605 0.00323673 0.00351782 0.00380378 0.0040946 0.00438395 0.00466551 0.00493927 0.00520524 0.00546341 0.00571378 0.00595636 0.00619114 0.00641484 0.00662417 0.00681912 0.00699971 0.00716593 0.00731777 0.00745524 0.00757834 0.00768657 0.00777941 0.00785686 0.00791892 0.0079656 0.0079969 0.00801281 0.00801333 0.00799994 0.00797411 0.00793584 0.00788514 0.007822 0.00774641 0.0076584 0.00755794 0.0074475 0.00732955 0.00720408 0.00707109 0.00693059 0.00678256 0.00662702 0.00646396 0.00629591 0.00612539 0.0059524 0.00577694 0.00559901 0.00541862 0.00523575 0.00505041 0.00486457 0.00468019 0.00449727 0.0043158 0.00413579 0.00395724 0.00378015 0.00360452 0.0034315 0.00326227 0.00309682 0.00293515 0.00277726 0.00262316 0.00247284 0.0023263 0.00218399 0.00204636 0.00191342 0.00178516 0.00166158 0.00154268 0.00142846 0.00131893 0.00121409 0.00111396 0.00101855 0.000927849 0.000841858 0.00076058 0.000684014 0.000612159 0.000544855 0.000481942 0.000423419 0.000369286 0.000319543 0.000274191 0.000233229 0.000196657 0.000163967 0.000134649 0.000108705 8.61329e-05 6.69341e-05 5.11081e-05 3.86551e-05 2.95749e-05 2.26433e-05 1.66359e-05 1.15527e-05 7.39373e-06 4.15897e-06 1.84843e-06 4.62108e-07 0 0 1.0826e-05 4.33039e-05 9.74338e-05 0.000173216 0.00027065 0.000389735 0.000530473 0.000692863 0.00088009 0.00109534 0.00133862 0.00160992 0.00190924 0.00223659 0.00259196 0.00297535 0.00337656 0.00378537 0.00420177 0.00462578 0.00505739 0.00549659 0.0059434 0.00639781 0.00684992 0.00728986 0.00771761 0.00813318 0.00853657 0.00892778 0.00930681 0.00967366 0.0100232 0.0103503 0.0106549 0.010937 0.0111968 0.011434 0.0116488 0.0118412 0.0120103 0.0121553 0.0122763 0.0123733 0.0124463 0.0124952 0.01252 0.0125208 0.0124999 0.0124595 0.0123998 0.0123205 0.0122219 0.0121038 0.0119662 0.0118093 0.0116367 0.0114524 0.0112564 0.0110486 0.010829 0.0105978 0.0103547 0.0100999 0.00983736 0.00957092 0.00930062 0.00902647 0.00874846 0.00846659 0.00818086 0.00789127 0.0076009 0.0073128 0.00702698 0.00674344 0.00646218 0.00618319 0.00590648 0.00563206 0.00536172 0.00509729 0.00483878 0.00458617 0.00433947 0.00409869 0.00386381 0.00363484 0.00341248 0.00319744 0.00298972 0.00278931 0.00259621 0.00241043 0.00223197 0.00206082 0.00189702 0.00174057 0.00159149 0.00144976 0.0013154 0.00118841 0.00106877 0.000956498 0.000851336 0.000753034 0.000661592 0.000577009 0.000499286 0.000428423 0.00036442 0.000307276 0.000256198 0.000210389 0.000169851 0.000134583 0.000104584 7.98565e-05 6.03986e-05 4.62108e-05 3.53802e-05 2.59936e-05 1.80511e-05 1.15527e-05 6.4984e-06 2.88818e-06 7.22044e-07 0 0 1.55894e-05 6.23576e-05 0.000140305 0.000249431 0.000389735 0.000561219 0.000763881 0.000997722 0.00126733 0.00157729 0.00192761 0.00231828 0.00274931 0.00322068 0.00373242 0.00428451 0.00486225 0.00545093 0.00605055 0.00666112 0.00728264 0.00791509 0.0085585 0.00921284 0.00986389 0.0104974 0.0111134 0.0117118 0.0122927 0.012856 0.0134018 0.0139301 0.0144334 0.0149044 0.015343 0.0157493 0.0161233 0.016465 0.0167743 0.0170513 0.0172948 0.0175037 0.0176779 0.0178176 0.0179226 0.017993 0.0180288 0.01803 0.0179999 0.0179417 0.0178556 0.0177416 0.0175995 0.0174294 0.0172314 0.0170054 0.0167569 0.0164915 0.0162092 0.01591 0.0155938 0.0152608 0.0149108 0.0145439 0.0141658 0.0137821 0.0133929 0.0129981 0.0125978 0.0121919 0.0117804 0.0113634 0.0109453 0.0105304 0.0101189 0.00971055 0.00930553 0.00890379 0.00850534 0.00811016 0.00772088 0.0073401 0.00696784 0.00660409 0.00624884 0.00590211 0.00556388 0.00523417 0.00491397 0.00460432 0.00430519 0.0040166 0.00373855 0.00347102 0.00321404 0.00296759 0.0027317 0.00250642 0.00229174 0.00208766 0.00189418 0.00171131 0.00153903 0.00137736 0.00122592 0.00108437 0.000952692 0.000830893 0.000718972 0.00061693 0.000524765 0.000442478 0.000368925 0.000302961 0.000244585 0.000193799 0.000150602 0.000114993 8.6974e-05 6.65436e-05 5.09474e-05 3.74308e-05 2.59936e-05 1.66359e-05 9.35769e-06 4.15897e-06 1.03974e-06 0 0 2.12189e-05 8.48757e-05 0.00019097 0.000339503 0.000530473 0.000763881 0.00103973 0.00135801 0.00172498 0.00214687 0.00262369 0.00315544 0.00374211 0.00438371 0.00508024 0.00583169 0.00661806 0.00741932 0.00823547 0.00906653 0.00991248 0.0107733 0.0116491 0.0125397 0.0134258 0.0142881 0.0151265 0.015941 0.0167317 0.0174985 0.0182414 0.0189604 0.0196454 0.0202865 0.0208836 0.0214366 0.0219456 0.0224107 0.0228317 0.0232087 0.0235401 0.0238244 0.0240616 0.0242517 0.0243947 0.0244905 0.0245392 0.0245408 0.0244998 0.0244207 0.0243035 0.0241482 0.0239549 0.0237234 0.0234538 0.0231462 0.022808 0.0224467 0.0220625 0.0216552 0.0212249 0.0207716 0.0202953 0.0197959 0.0192812 0.018759 0.0182292 0.0176919 0.017147 0.0165945 0.0160345 0.0154669 0.0148978 0.0143331 0.0137729 0.0132171 0.0126659 0.0121191 0.0115767 0.0110388 0.010509 0.0099907 0.00948401 0.0089889 0.00850537 0.00803343 0.00757306 0.00712428 0.00668847 0.00626698 0.00585984 0.00546704 0.00508858 0.00472445 0.00437466 0.00403921 0.00371815 0.00341152 0.00311931 0.00284154 0.00257819 0.00232928 0.00209479 0.00187474 0.00166862 0.00147595 0.00129672 0.00113094 0.000978601 0.00083971 0.000714263 0.000602262 0.000502148 0.000412363 0.000332908 0.000263782 0.000204986 0.000156519 0.000118381 9.05732e-05 6.93451e-05 5.09474e-05 3.53802e-05 2.26433e-05 1.27369e-05 5.66083e-06 1.41521e-06 0 0 2.77145e-05 0.000110858 0.000249431 0.000443432 0.000692863 0.000997722 0.00135801 0.00177373 0.00225303 0.00280408 0.00342686 0.00412139 0.00488765 0.00572566 0.00663541 0.0076169 0.00864399 0.00969054 0.0107565 0.011842 0.0129469 0.0140713 0.0152151 0.0163784 0.0175358 0.018662 0.0197571 0.0208209 0.0218536 0.0228551 0.0238254 0.0247646 0.0256594 0.0264967 0.0272765 0.0279988 0.0286637 0.0292711 0.029821 0.0303134 0.0307463 0.0311176 0.0314274 0.0316757 0.0318624 0.0319876 0.0320512 0.0320533 0.0319998 0.0318964 0.0317434 0.0315406 0.031288 0.0309857 0.0306336 0.0302318 0.02979 0.0293182 0.0288163 0.0282844 0.0277223 0.0271303 0.0265081 0.0258559 0.0251836 0.0245016 0.0238096 0.0231078 0.022396 0.0216745 0.020943 0.0202017 0.0194583 0.0187208 0.0179891 0.0172632 0.0165432 0.015829 0.0151206 0.0144181 0.013726 0.0130491 0.0123873 0.0117406 0.0111091 0.0104926 0.00989135 0.00930519 0.00873595 0.00818545 0.00765367 0.00714062 0.0066463 0.00617071 0.00571384 0.00527571 0.00485636 0.00445586 0.0040742 0.00371139 0.00336743 0.00304232 0.00273605 0.00244864 0.00217942 0.00192777 0.00169368 0.00147714 0.00127817 0.00109676 0.000932915 0.000786628 0.000655866 0.000538596 0.000434818 0.000344532 0.000267736 0.000204433 0.00015462 0.0001183 9.05732e-05 6.65436e-05 4.62108e-05 2.95749e-05 1.66359e-05 7.39373e-06 1.84843e-06 0 0 3.52494e-05 0.000140997 0.000317244 0.00056399 0.000881234 0.00126898 0.00172722 0.00225596 0.00286519 0.00356491 0.00435512 0.00523582 0.00620701 0.00726868 0.00842085 0.0096635 0.0109636 0.0122881 0.0136371 0.0150105 0.0164084 0.0178306 0.0192773 0.0207484 0.0222121 0.0236363 0.0250211 0.0263665 0.0276725 0.0289391 0.0301662 0.0313539 0.0324857 0.0335447 0.0345312 0.035445 0.0362862 0.0370547 0.0377506 0.0383739 0.0389219 0.0393921 0.0397846 0.0400992 0.040336 0.040495 0.0405762 0.0405797 0.0405127 0.0403828 0.0401899 0.0399341 0.0396154 0.0392337 0.0387891 0.0382816 0.0377235 0.0371274 0.0364931 0.0358208 0.0351104 0.034362 0.0335754 0.0327507 0.0319008 0.0310383 0.0301632 0.0292756 0.0283754 0.0274626 0.0265373 0.0255995 0.024659 0.0237259 0.0228 0.0218815 0.0209703 0.0200665 0.0191699 0.0182807 0.0174047 0.0165478 0.01571 0.0148913 0.0140917 0.0133111 0.0125497 0.0118074 0.0110865 0.0103893 0.00971568 0.00906579 0.00843956 0.00783702 0.00725814 0.00670295 0.0061715 0.00566389 0.00518012 0.00472018 0.00428407 0.0038718 0.00348336 0.00311876 0.00277717 0.00245778 0.00216059 0.00188559 0.0016328 0.00140221 0.00119381 0.00100761 0.000841055 0.000691587 0.000559206 0.000443912 0.000345705 0.000264585 0.000200553 0.000153607 0.000117606 8.64041e-05 6.00029e-05 3.84018e-05 2.1601e-05 9.60046e-06 2.40011e-06 0 0 4.39966e-05 0.000175987 0.00039597 0.000703946 0.00109992 0.00158388 0.00215583 0.00281578 0.00357516 0.00444539 0.00542649 0.00651844 0.00772125 0.00903492 0.0104594 0.0119948 0.0136005 0.0152357 0.0169006 0.0185951 0.0203192 0.022073 0.0238564 0.0256694 0.027473 0.0292281 0.0309346 0.0325927 0.0342022 0.0357633 0.0372758 0.0387398 0.0401349 0.0414406 0.042657 0.0437841 0.0448217 0.0457701 0.046629 0.0473986 0.0480757 0.0486569 0.0491423 0.0495319 0.0498256 0.0500236 0.0501257 0.050132 0.0500516 0.0498936 0.0496579 0.0493446 0.0489537 0.0484852 0.047939 0.0473152 0.046629 0.0458958 0.0451155 0.044288 0.0434135 0.042492 0.0415233 0.0405075 0.0394604 0.0383976 0.0373191 0.0362251 0.0351153 0.0339899 0.0328488 0.0316921 0.030532 0.0293808 0.0282384 0.0271049 0.0259803 0.0248645 0.0237576 0.0226596 0.0215778 0.0205194 0.0194845 0.018473 0.0174849 0.0165204 0.0155792 0.0146616 0.0137702 0.012908 0.0120749 0.011271 0.0104962 0.00975058 0.00903412 0.00834681 0.00768876 0.00706008 0.00646077 0.00589084 0.00535027 0.00483908 0.00435725 0.0039048 0.0034807 0.00308393 0.00271449 0.00237238 0.0020576 0.00177015 0.00151003 0.00127725 0.00106869 0.000881259 0.000714959 0.000569787 0.000445743 0.000342827 0.000261039 0.00020038 0.000153416 0.000112714 7.82735e-05 5.00951e-05 2.81785e-05 1.25238e-05 3.13094e-06 0 0 5.39563e-05 0.000215825 0.000485607 0.000863301 0.00134891 0.00194243 0.00264386 0.00345321 0.00438293 0.00544551 0.00664095 0.00796923 0.00943037 0.0110244 0.0127512 0.0146109 0.0165545 0.0185332 0.020547 0.0225957 0.0246796 0.0267984 0.0289524 0.0311413 0.0333186 0.0354373 0.0374976 0.0394995 0.0414429 0.0433278 0.0451542 0.0469222 0.0486071 0.0501844 0.051654 0.053016 0.0542704 0.0554171 0.0564562 0.0573877 0.0582076 0.0589119 0.0595006 0.0599737 0.0603312 0.0605732 0.0606996 0.0607104 0.0606165 0.0604288 0.0601473 0.059772 0.0593028 0.0587399 0.0580831 0.0573326 0.0565065 0.0556235 0.0546833 0.053686 0.0526317 0.0515202 0.0503517 0.0491262 0.0478624 0.0465796 0.0452775 0.0439563 0.0426158 0.0412562 0.0398775 0.0384795 0.0370773 0.0356855 0.0343042 0.0329333 0.031573 0.0302231 0.0288837 0.0275548 0.0262453 0.0249639 0.0237107 0.0224857 0.0212889 0.0201203 0.0189798 0.0178676 0.016787 0.0157415 0.0147313 0.0137562 0.0128162 0.0119114 0.0110418 0.0102073 0.00940813 0.00864442 0.00791616 0.00722337 0.00656603 0.00594415 0.00535773 0.00480676 0.00429001 0.00380621 0.00335537 0.00293749 0.00255256 0.00220059 0.00188158 0.00159553 0.00133877 0.00110761 0.000902078 0.000722156 0.000567849 0.000439157 0.000336081 0.000258618 0.000198005 0.000145473 0.000101023 6.46546e-05 3.63682e-05 1.61637e-05 4.04091e-06 0 0 6.51285e-05 0.000260514 0.000586156 0.00104206 0.00162821 0.00234462 0.0031913 0.00416822 0.00528851 0.00656527 0.0079985 0.0095882 0.0113344 0.013237 0.0152961 0.0175117 0.0198259 0.0221807 0.0245762 0.0270124 0.0294893 0.0320069 0.0345652 0.0371641 0.0397488 0.0422641 0.0447102 0.0470869 0.0493944 0.0516326 0.0538014 0.055901 0.0579022 0.0597759 0.0615221 0.0631409 0.0646322 0.0659959 0.0672322 0.0683411 0.0693176 0.0701571 0.0708594 0.0714247 0.0718528 0.0721439 0.0722979 0.0723148 0.0722074 0.0719885 0.0716581 0.0712162 0.0706629 0.069998 0.0692216 0.0683337 0.0673561 0.0663104 0.0651966 0.0640147 0.0627648 0.0614468 0.0600608 0.0586067 0.057107 0.0555841 0.0540382 0.0524692 0.050877 0.0492617 0.0476233 0.0459618 0.0442948 0.04264 0.0409973 0.0393668 0.0377484 0.0361422 0.0345482 0.0329663 0.0314072 0.0298813 0.0283888 0.0269295 0.0255035 0.0241109 0.0227515 0.0214255 0.0201369 0.01889 0.0176849 0.0165214 0.0153996 0.0143195 0.0132811 0.0122844 0.0113296 0.0104169 0.00954629 0.00871777 0.00793135 0.00718702 0.00648479 0.00582465 0.0052051 0.00462463 0.00408324 0.00358093 0.0031177 0.00269354 0.00230847 0.00196247 0.00165129 0.00137065 0.00112056 0.00090102 0.000712025 0.000553577 0.000425676 0.000328322 0.000251372 0.000184681 0.000128251 8.20805e-05 4.61703e-05 2.05201e-05 5.13003e-06 0 0 7.7513e-05 0.000310052 0.000697617 0.00124021 0.00193783 0.00279047 0.00379814 0.00496083 0.0062919 0.00780467 0.00949916 0.0113754 0.0134333 0.0156729 0.0180942 0.0206972 0.0234144 0.0261781 0.0289884 0.0318452 0.0347485 0.0376984 0.0406949 0.0437379 0.0467636 0.0497084 0.0525722 0.055355 0.0580568 0.0606776 0.0632175 0.0656763 0.0680203 0.0702153 0.0722614 0.0741587 0.075907 0.0775065 0.078957 0.0802587 0.0814058 0.0823925 0.0832188 0.0838848 0.0843905 0.0847357 0.0849207 0.0849452 0.0848243 0.0845727 0.0841904 0.0836774 0.0830337 0.0822594 0.0813544 0.0803187 0.0791776 0.0779565 0.0766554 0.0752742 0.073813 0.0722717 0.0706504 0.068949 0.0671939 0.0654114 0.0636013 0.0617638 0.0598988 0.0580063 0.0560863 0.0541389 0.0521846 0.0502443 0.0483179 0.0464053 0.0445067 0.0426219 0.040751 0.0388941 0.0370634 0.0352716 0.0335186 0.0318043 0.0301289 0.0284922 0.0268943 0.0253352 0.0238199 0.0223534 0.0209356 0.0195666 0.0182463 0.0169749 0.0157521 0.0145781 0.0134532 0.0123775 0.0113511 0.010374 0.00944622 0.00856769 0.00773843 0.00695846 0.00622598 0.00553919 0.0048981 0.0043027 0.003753 0.00324899 0.00279068 0.00237806 0.00200625 0.00167037 0.00137041 0.00110638 0.00087827 0.000686086 0.000529826 0.000409491 0.000313517 0.000230339 0.000159957 0.000102373 5.75847e-05 2.55932e-05 6.3983e-06 0 0 9.111e-05 0.00036444 0.00081999 0.00145776 0.00227775 0.00327996 0.00446439 0.00583104 0.00739309 0.00916371 0.0111429 0.0133307 0.015727 0.018332 0.0211455 0.0241675 0.0273202 0.0305255 0.0337834 0.037094 0.0404572 0.043873 0.0473414 0.0508625 0.0543631 0.0577702 0.0610837 0.0643037 0.0674301 0.070463 0.0734023 0.0762481 0.0789612 0.0815025 0.0838718 0.0860693 0.088095 0.0899487 0.0916306 0.0931407 0.0944721 0.0956181 0.0965788 0.0973541 0.0979441 0.0983486 0.0985678 0.0986017 0.0984672 0.0981813 0.097744 0.0971554 0.0964155 0.0955241 0.0944814 0.0932874 0.0919711 0.0905619 0.0890596 0.0874644 0.0857761 0.0839949 0.0821206 0.0801533 0.0781234 0.0760612 0.0739668 0.0718401 0.0696811 0.0674899 0.0652665 0.0630107 0.0607467 0.0584984 0.0562658 0.0540489 0.0518476 0.0496621 0.0474922 0.0453381 0.0432141 0.0411348 0.0391002 0.0371102 0.0351649 0.0332642 0.0314082 0.0295969 0.0278361 0.0261317 0.0244836 0.0228918 0.0213565 0.0198775 0.0184548 0.0170885 0.0157789 0.0145263 0.0133307 0.0121922 0.0111107 0.0100862 0.00911866 0.00820819 0.00735264 0.00654989 0.00579994 0.0051028 0.00445847 0.00386694 0.00332822 0.0028423 0.00240366 0.00200677 0.00165163 0.00133823 0.00106658 0.000836683 0.00064853 0.000502125 0.00038444 0.000282445 0.000196143 0.000125531 7.06114e-05 3.13828e-05 7.84571e-06 0 0 0.000105919 0.000423678 0.000953275 0.00169471 0.00264799 0.0038131 0.00519005 0.00677885 0.00859209 0.0106424 0.0129298 0.0154542 0.0182157 0.0212142 0.0244499 0.0279225 0.0315432 0.0352228 0.0389614 0.0427589 0.0466153 0.0505306 0.0545049 0.0585381 0.0625473 0.0664495 0.0702447 0.073933 0.0775143 0.0809887 0.084356 0.0876164 0.0907252 0.0936375 0.0963534 0.0988729 0.101196 0.103323 0.105253 0.106987 0.108516 0.109834 0.110939 0.111833 0.112514 0.112983 0.113239 0.113284 0.113136 0.112814 0.112319 0.11165 0.110808 0.109792 0.108603 0.10724 0.105737 0.104127 0.102409 0.100585 0.0986543 0.0966163 0.0944713 0.0922194 0.0898953 0.0875337 0.0851346 0.0826981 0.0802241 0.0777127 0.0751638 0.0725774 0.0699811 0.0674023 0.0648411 0.0622975 0.0597714 0.0572628 0.0547718 0.0522984 0.0498592 0.0474709 0.0451335 0.0428471 0.0406116 0.0384269 0.0362932 0.0342105 0.0321854 0.0302248 0.0283287 0.0264971 0.02473 0.0230273 0.0213892 0.0198155 0.0183067 0.0168632 0.0154851 0.0141722 0.0129247 0.0117424 0.0106255 0.00957385 0.00858508 0.00765672 0.00678877 0.00598123 0.00523411 0.00454739 0.00392109 0.0033552 0.00284352 0.00237986 0.00196421 0.00159658 0.00127697 0.00100537 0.000781789 0.000606225 0.000464141 0.000341001 0.000236807 0.000151556 8.52504e-05 3.78891e-05 9.47226e-06 0 0 0.000121941 0.000487765 0.00109747 0.00195106 0.00304853 0.00438989 0.00597513 0.00780424 0.00988889 0.0122407 0.0148597 0.0177459 0.0208992 0.0243197 0.0280074 0.0319623 0.0360835 0.0402701 0.0445222 0.0488398 0.0532228 0.0576713 0.0621852 0.0667646 0.071316 0.0757463 0.0800552 0.0842429 0.0883094 0.0922546 0.0960785 0.0997812 0.103312 0.10662 0.109706 0.112569 0.11521 0.117628 0.119824 0.121797 0.123539 0.12504 0.1263 0.12732 0.128099 0.128638 0.128936 0.128993 0.128831 0.128472 0.127916 0.127162 0.126212 0.125064 0.123718 0.122176 0.120474 0.11865 0.116705 0.114637 0.112447 0.110136 0.107703 0.105147 0.10251 0.0998288 0.0971048 0.0943378 0.0915277 0.0886745 0.0857783 0.0828389 0.0798878 0.0769561 0.0740439 0.0711511 0.0682779 0.0654241 0.0625898 0.059775 0.0569986 0.0542799 0.0516187 0.049015 0.0464689 0.0439804 0.0415494 0.0391759 0.0368678 0.0346329 0.0324711 0.0303824 0.0283668 0.0264245 0.0245552 0.0227591 0.0210366 0.0193883 0.0178141 0.0163141 0.0148882 0.0135365 0.0122589 0.0110554 0.0099233 0.00885969 0.00786459 0.006938 0.00607992 0.00529035 0.00456929 0.00391674 0.00332582 0.00278962 0.00230816 0.00188142 0.00150942 0.00119215 0.000929602 0.00072179 0.00055262 0.000406007 0.000281949 0.000180447 0.000101502 4.51119e-05 1.1278e-05 0 0 0.000138845 0.000555378 0.0012496 0.00222151 0.00347111 0.0049984 0.00680338 0.00888605 0.0112568 0.0139259 0.0168933 0.0201592 0.0237235 0.0275861 0.0317471 0.0362065 0.0408512 0.0455678 0.0503565 0.0552172 0.06015 0.0651548 0.0702316 0.0753805 0.0804973 0.0854779 0.0903224 0.0950307 0.0996028 0.104039 0.108339 0.112502 0.116473 0.120194 0.123666 0.126887 0.12986 0.132582 0.135055 0.137278 0.139242 0.140935 0.142357 0.14351 0.144392 0.145003 0.145345 0.145416 0.145241 0.144844 0.144225 0.143384 0.142322 0.141037 0.139531 0.137802 0.135894 0.133848 0.131665 0.129344 0.126886 0.12429 0.121557 0.118686 0.115722 0.112708 0.109646 0.106535 0.103374 0.100165 0.0969065 0.0935991 0.0902778 0.086978 0.0836996 0.0804425 0.0772069 0.0739926 0.0707998 0.0676283 0.0644998 0.0614357 0.058436 0.0555007 0.0526299 0.0498234 0.0470814 0.0444038 0.0417995 0.0392773 0.0368372 0.0344793 0.0322036 0.0300099 0.0278984 0.0258691 0.0239225 0.0220592 0.0202793 0.0185827 0.0169694 0.0154395 0.0139929 0.0126297 0.0113466 0.0101404 0.00901118 0.00795889 0.00698354 0.00608512 0.00526364 0.00451909 0.0038439 0.00323049 0.00267886 0.00218901 0.00176094 0.00139464 0.00109013 0.000847389 0.000648782 0.000476656 0.000331011 0.000211847 0.000119164 5.29618e-05 1.32405e-05 0 0 0.000156298 0.000625193 0.00140668 0.00250077 0.00390745 0.00562673 0.00765861 0.0100031 0.0126689 0.015665 0.0189912 0.0226476 0.0266342 0.0309509 0.0355979 0.040575 0.0457565 0.0510164 0.0563549 0.0617718 0.0672672 0.0728411 0.0784935 0.0842243 0.0899187 0.0954617 0.100853 0.106093 0.111182 0.116119 0.120905 0.125539 0.129959 0.134102 0.137968 0.141556 0.144867 0.1479 0.150657 0.153136 0.155326 0.157216 0.158805 0.160093 0.161081 0.161769 0.162156 0.162242 0.162055 0.16162 0.160939 0.16001 0.158834 0.157411 0.155741 0.153824 0.151706 0.149435 0.14701 0.144432 0.1417 0.138815 0.135776 0.132583 0.129286 0.125934 0.122527 0.119064 0.115546 0.111973 0.108345 0.104662 0.100963 0.0972865 0.0936337 0.0900042 0.086398 0.0828151 0.0792554 0.075719 0.0722299 0.0688122 0.0654659 0.0621909 0.0589873 0.0558551 0.0527942 0.0498046 0.0468964 0.0440795 0.0413539 0.0387196 0.0361766 0.0337248 0.0313644 0.0290952 0.026918 0.0248335 0.0228418 0.0209427 0.0191363 0.0174226 0.0158016 0.0142733 0.0128342 0.0114805 0.0102124 0.00902973 0.00793262 0.00692103 0.00599495 0.00515439 0.00439112 0.00369689 0.00307171 0.00251559 0.00202851 0.00161049 0.00126151 0.000981592 0.000751531 0.000552145 0.000383434 0.000245398 0.000138036 6.13495e-05 1.53374e-05 0 0 0.000174302 0.000697208 0.00156872 0.00278883 0.00435755 0.00627487 0.0085408 0.0111553 0.0141254 0.0174581 0.0211533 0.0252111 0.0296314 0.0344143 0.0395597 0.0450677 0.0507994 0.0566159 0.0625172 0.0685034 0.0745743 0.0807301 0.0869707 0.0932962 0.0995805 0.105698 0.111648 0.117431 0.123047 0.128496 0.133778 0.138892 0.143771 0.148344 0.152612 0.156574 0.160231 0.163583 0.166629 0.16937 0.171792 0.173883 0.175643 0.177071 0.178168 0.178934 0.179369 0.179472 0.179273 0.178801 0.178056 0.177039 0.175749 0.174186 0.17235 0.170241 0.167911 0.165411 0.162741 0.1599 0.15689 0.15371 0.15036 0.14684 0.143204 0.139506 0.135747 0.131926 0.128044 0.1241 0.120094 0.116027 0.111942 0.107882 0.103846 0.0998363 0.0958513 0.0918915 0.0879567 0.084047 0.0801891 0.0764095 0.0727084 0.0690856 0.0655412 0.0620753 0.0586877 0.0553785 0.0521588 0.0490397 0.0460211 0.0431032 0.0402859 0.0375691 0.034953 0.0324374 0.0300233 0.0277113 0.0255016 0.0233942 0.0213889 0.0194859 0.017685 0.0159864 0.0143861 0.01288 0.0114681 0.0101505 0.00892717 0.00779808 0.00676323 0.00582265 0.00496746 0.00418881 0.00348671 0.00286116 0.00231215 0.00183969 0.00144377 0.0011244 0.000860867 0.000632474 0.000439218 0.000281099 0.000158118 7.02749e-05 1.75687e-05 0 0 0.000192856 0.000771425 0.00173571 0.0030857 0.00482141 0.00694283 0.00944996 0.0123428 0.0156263 0.0193052 0.0233797 0.0278497 0.0327152 0.0379761 0.0436326 0.0496847 0.0559799 0.0623663 0.0688436 0.075412 0.0820714 0.0888219 0.0956634 0.102596 0.109482 0.116186 0.122706 0.129043 0.135198 0.141169 0.146957 0.152562 0.157908 0.16292 0.167599 0.171943 0.175953 0.17963 0.182972 0.18598 0.18864 0.190937 0.192871 0.194443 0.195653 0.196499 0.196983 0.197105 0.196895 0.196386 0.195579 0.194472 0.193066 0.191361 0.189357 0.187054 0.184508 0.181775 0.178856 0.175749 0.172456 0.168976 0.165309 0.161455 0.157474 0.153424 0.149307 0.145121 0.140867 0.136544 0.132154 0.127695 0.123216 0.118763 0.114338 0.109939 0.105567 0.101222 0.0969036 0.0926123 0.0883772 0.0842276 0.0801634 0.0761848 0.0722917 0.068484 0.0647619 0.0611253 0.0575864 0.0541576 0.0508388 0.0476301 0.0445315 0.0415429 0.0386643 0.0358958 0.0332382 0.0306926 0.0282589 0.0259371 0.0237272 0.0216292 0.0196431 0.017769 0.0160023 0.0143388 0.0127785 0.0113212 0.00996718 0.00871626 0.00756848 0.00652385 0.00557292 0.00470626 0.00392386 0.00322572 0.00261185 0.00208224 0.00163689 0.00127581 0.00097679 0.000717642 0.000498362 0.000318952 0.00017941 7.9738e-05 1.99345e-05 0 0 0.000211961 0.000847843 0.00190765 0.00339137 0.00529902 0.00763059 0.0103861 0.0135655 0.0171714 0.0212063 0.0256703 0.0305633 0.0358854 0.0416365 0.0478166 0.0544258 0.0612981 0.0682675 0.075334 0.0824977 0.0897585 0.0971164 0.104571 0.112124 0.119625 0.126926 0.134028 0.140931 0.147634 0.154138 0.160442 0.166547 0.17237 0.177831 0.182928 0.187662 0.192033 0.196041 0.199685 0.202967 0.205869 0.208377 0.210491 0.21221 0.213534 0.214464 0.215 0.215141 0.214921 0.214376 0.213505 0.212308 0.210786 0.208937 0.206763 0.204263 0.201498 0.198529 0.195356 0.191978 0.188397 0.184612 0.180623 0.176429 0.172097 0.167689 0.163206 0.158648 0.154015 0.149307 0.144524 0.139666 0.134784 0.129931 0.125107 0.120312 0.115544 0.110806 0.106096 0.101415 0.0967943 0.0922663 0.0878311 0.0834885 0.0792386 0.0750814 0.0710169 0.0670451 0.0631794 0.0594334 0.0558071 0.0523004 0.0489134 0.045646 0.0424983 0.0394703 0.0365629 0.0337773 0.0311135 0.0285715 0.0261512 0.0238527 0.0216759 0.0196209 0.0176829 0.015857 0.0141434 0.0125419 0.0110527 0.00967558 0.0084107 0.00725801 0.00620752 0.00524924 0.00438315 0.00360928 0.00292761 0.00233814 0.00184088 0.00143582 0.0010993 0.000807649 0.000560867 0.000358955 0.000201912 8.97388e-05 2.24347e-05 0 0 0.000231616 0.000926463 0.00208454 0.00370585 0.00579039 0.00833817 0.0113492 0.0148234 0.0187608 0.0231614 0.0280252 0.0333521 0.0391421 0.0453953 0.0521117 0.0592912 0.0667539 0.0743196 0.0819885 0.0897604 0.0976355 0.105614 0.113695 0.121879 0.130007 0.137919 0.145614 0.153093 0.160356 0.167403 0.174234 0.180848 0.187158 0.193075 0.1986 0.203731 0.20847 0.212816 0.21677 0.22033 0.223481 0.226204 0.228501 0.230371 0.231814 0.232829 0.233418 0.23358 0.233352 0.23277 0.231836 0.230548 0.228908 0.226914 0.224567 0.221867 0.21888 0.215671 0.21224 0.208588 0.204714 0.200619 0.196302 0.191763 0.187072 0.182299 0.177445 0.172508 0.167488 0.162387 0.157204 0.151939 0.146647 0.141386 0.136155 0.130955 0.125784 0.120644 0.115534 0.110455 0.10544 0.100526 0.0957113 0.0909967 0.086382 0.0818673 0.0774526 0.0731378 0.0689377 0.0648671 0.0609258 0.057114 0.0534316 0.0498786 0.046455 0.0431609 0.0399973 0.0369655 0.0340655 0.0312973 0.0286609 0.0261562 0.0237833 0.0215422 0.0194277 0.0174346 0.0155629 0.0138125 0.0121836 0.010676 0.00928989 0.00802512 0.00687125 0.00581774 0.0048646 0.00401183 0.00325943 0.00260739 0.00205573 0.00160444 0.0012284 0.000902495 0.000626733 0.000401109 0.000225624 0.000100277 2.50693e-05 0 0 0.000251821 0.00100728 0.00226639 0.00402913 0.00629552 0.00906555 0.0123392 0.0161165 0.0203946 0.0251705 0.0304443 0.0362159 0.0424854 0.0492527 0.0565178 0.0642809 0.0723473 0.0805227 0.088807 0.0972003 0.105702 0.114314 0.123034 0.131863 0.14063 0.149163 0.157464 0.1