<?xml version="1.0"?> 
<VTKFile type="StructuredGrid" version="0.1"> 
<StructuredGrid WholeExtent="0 128 0 128 0 0"> 
<Piece Extent="0 128 0 128 0 0"> 
<PointData>
<DataArray type="Float32" Name="u" format="ascii" NumberOfComponents="1"> 
0 0 0 0 0 0 0 0 0 0 0 0 0 0 0 0 0 0 0 0 0 0 0 0 0 0 0 0 0 0 0 0 0 0 0 0 0 0 0 0 0 0 0 0 0 0 0 0 0 0 0 0 0 0 0 0 0 0 0 0 0 0 0 0 0 0 0 0 0 0 0 0 0 0 0 0 0 0 0 0 0 0 0 0 0 0 0 0 0 0 0 0 0 0 0 0 0 0 0 0 0 0 0 0 0 0 0 0 0 0 0 0 0 0 0 0 0 0 0 0 0 0 0 0 0 0 0 0 0 0 -4.6171e-08 -1.84684e-07 -4.15539e-07 -7.38735e-07 -1.15427e-06 -1.66215e-06 -2.26238e-06 -2.95494e-06 -3.81235e-06 -4.9071e-06 -6.2392e-06 -7.80864e-06 -9.61542e-06 -1.16596e-05 -1.3941e-05 -1.64598e-05 -1.91238e-05 -2.18406e-05 -2.46103e-05 -2.7433e-05 -3.03085e-05 -3.32369e-05 -3.62182e-05 -3.92524e-05 -4.2218e-05 -4.49935e-05 -4.75789e-05 -4.99742e-05 -5.21795e-05 -5.41947e-05 -5.60197e-05 -5.76547e-05 -5.91123e-05 -6.0405e-05 -6.15329e-05 -6.2496e-05 -6.32943e-05 -6.39277e-05 -6.43964e-05 -6.47002e-05 -6.49321e-05 -6.51849e-05 -6.54587e-05 -6.57534e-05 -6.6069e-05 -6.64055e-05 -6.6763e-05 -6.71414e-05 -6.75488e-05 -6.79931e-05 -6.84743e-05 -6.89924e-05 -6.95475e-05 -7.01396e-05 -7.07685e-05 -7.14344e-05 -7.20695e-05 -7.26061e-05 -7.30441e-05 -7.33836e-05 -7.36245e-05 -7.37669e-05 -7.38108e-05 -7.37561e-05 -7.36057e-05 -7.33625e-05 -7.30264e-05 -7.25974e-05 -7.20756e-05 -7.14609e-05 -7.07533e-05 -6.99529e-05 -6.91293e-05 -6.83523e-05 -6.76217e-05 -6.69377e-05 -6.63002e-05 -6.57092e-05 -6.51648e-05 -6.46668e-05 -6.42057e-05 -6.37718e-05 -6.3365e-05 -6.29854e-05 -6.2633e-05 -6.23077e-05 -6.20096e-05 -6.17387e-05 -6.14031e-05 -6.09112e-05 -6.02629e-05 -5.94582e-05 -5.8497e-05 -5.73795e-05 -5.61057e-05 -5.46754e-05 -5.3078e-05 -5.13027e-05 -4.93496e-05 -4.72186e-05 -4.49097e-05 -4.2423e-05 -3.97584e-05 -3.6916e-05 -3.40129e-05 -3.11662e-05 -2.8376e-05 -2.56423e-05 -2.2965e-05 -2.03442e-05 -1.77799e-05 -1.52721e-05 -1.29056e-05 -1.07654e-05 -8.85158e-06 -7.16402e-06 -5.70276e-06 -4.46781e-06 -3.45915e-06 -2.6768e-06 -2.04943e-06 -1.5057e-06 -1.04563e-06 -6.692e-07 -3.76425e-07 -1.673e-07 -4.1825e-08 0 0 -1.84684e-07 -7.38735e-07 -1.66215e-06 -2.95494e-06 -4.6171e-06 -6.64862e-06 -9.04951e-06 -1.18198e-05 -1.52494e-05 -1.96284e-05 -2.49568e-05 -3.12345e-05 -3.84617e-05 -4.66382e-05 -5.57641e-05 -6.58394e-05 -7.64951e-05 -8.73625e-05 -9.84414e-05 -0.000109732 -0.000121234 -0.000132948 -0.000144873 -0.000157009 -0.000168872 -0.000179974 -0.000190316 -0.000199897 -0.000208718 -0.000216779 -0.000224079 -0.000230619 -0.000236449 -0.00024162 -0.000246132 -0.000249984 -0.000253177 -0.000255711 -0.000257586 -0.000258801 -0.000259728 -0.00026074 -0.000261835 -0.000263013 -0.000264276 -0.000265622 -0.000267052 -0.000268566 -0.000270195 -0.000271972 -0.000273897 -0.00027597 -0.00027819 -0.000280558 -0.000283074 -0.000285738 -0.000288278 -0.000290424 -0.000292176 -0.000293534 -0.000294498 -0.000295068 -0.000295243 -0.000295024 -0.000294423 -0.00029345 -0.000292105 -0.00029039 -0.000288302 -0.000285844 -0.000283013 -0.000279812 -0.000276517 -0.000273409 -0.000270487 -0.000267751 -0.000265201 -0.000262837 -0.000260659 -0.000258667 -0.000256823 -0.000255087 -0.00025346 -0.000251942 -0.000250532 -0.000249231 -0.000248038 -0.000246955 -0.000245613 -0.000243645 -0.000241051 -0.000237833 -0.000233988 -0.000229518 -0.000224423 -0.000218701 -0.000212312 -0.000205211 -0.000197398 -0.000188874 -0.000179639 -0.000169692 -0.000159034 -0.000147664 -0.000136051 -0.000124665 -0.000113504 -0.000102569 -9.18601e-05 -8.1377e-05 -7.11197e-05 -6.10883e-05 -5.16224e-05 -4.30618e-05 -3.54063e-05 -2.86561e-05 -2.2811e-05 -1.78712e-05 -1.38366e-05 -1.07072e-05 -8.1977e-06 -6.0228e-06 -4.1825e-06 -2.6768e-06 -1.5057e-06 -6.692e-07 -1.673e-07 0 0 -4.15539e-07 -1.66215e-06 -3.73985e-06 -6.64862e-06 -1.03885e-05 -1.49594e-05 -2.03614e-05 -2.65945e-05 -3.43111e-05 -4.41639e-05 -5.61528e-05 -7.02777e-05 -8.65388e-05 -0.000104936 -0.000125469 -0.000148139 -0.000172114 -0.000196566 -0.000221493 -0.000246897 -0.000272776 -0.000299132 -0.000325964 -0.000353271 -0.000379962 -0.000404941 -0.00042821 -0.000449768 -0.000469615 -0.000487752 -0.000504178 -0.000518893 -0.000532011 -0.000543645 -0.000553796 -0.000562464 -0.000569649 -0.00057535 -0.000579567 -0.000582302 -0.000584389 -0.000586664 -0.000589128 -0.00059178 -0.000594621 -0.00059765 -0.000600867 -0.000604273 -0.000607939 -0.000611938 -0.000616269 -0.000620932 -0.000625928 -0.000631256 -0.000636917 -0.00064291 -0.000648626 -0.000653455 -0.000657397 -0.000660452 -0.00066262 -0.000663902 -0.000664297 -0.000663805 -0.000662451 -0.000660262 -0.000657237 -0.000653377 -0.00064868 -0.000643148 -0.00063678 -0.000629576 -0.000622164 -0.00061517 -0.000608596 -0.000602439 -0.000596702 -0.000591383 -0.000586483 -0.000582001 -0.000577851 -0.000573946 -0.000570285 -0.000566869 -0.000563697 -0.000560769 -0.000558086 -0.000555648 -0.000552628 -0.000548201 -0.000542366 -0.000535123 -0.000526473 -0.000516416 -0.000504951 -0.000492078 -0.000477702 -0.000461724 -0.000444146 -0.000424967 -0.000404187 -0.000381807 -0.000357826 -0.000332244 -0.000306116 -0.000280496 -0.000255384 -0.000230781 -0.000206685 -0.000183098 -0.000160019 -0.000137449 -0.00011615 -9.6889e-05 -7.96642e-05 -6.44762e-05 -5.13248e-05 -4.02102e-05 -3.11324e-05 -2.40912e-05 -1.84448e-05 -1.35513e-05 -9.41063e-06 -6.0228e-06 -3.38783e-06 -1.5057e-06 -3.76425e-07 0 0 -7.38735e-07 -2.95494e-06 -6.64862e-06 -1.18198e-05 -1.84684e-05 -2.65945e-05 -3.6198e-05 -4.72791e-05 -6.09976e-05 -7.85136e-05 -9.98271e-05 -0.000124938 -0.000153847 -0.000186553 -0.000223056 -0.000263358 -0.000305981 -0.00034945 -0.000393765 -0.000438927 -0.000484936 -0.00053179 -0.000579491 -0.000628038 -0.000675487 -0.000719896 -0.000761262 -0.000799588 -0.000834872 -0.000867115 -0.000896316 -0.000922476 -0.000945796 -0.00096648 -0.000984527 -0.000999936 -0.00101271 -0.00102284 -0.00103034 -0.0010352 -0.00103891 -0.00104296 -0.00104734 -0.00105205 -0.0010571 -0.00106249 -0.00106821 -0.00107426 -0.00108078 -0.00108789 -0.00109559 -0.00110388 -0.00111276 -0.00112223 -0.0011323 -0.00114295 -0.00115311 -0.0011617 -0.00116871 -0.00117414 -0.00117799 -0.00118027 -0.00118097 -0.0011801 -0.00117769 -0.0011738 -0.00116842 -0.00116156 -0.00115321 -0.00114337 -0.00113205 -0.00111925 -0.00110607 -0.00109364 -0.00108195 -0.001071 -0.0010608 -0.00105135 -0.00104264 -0.00103467 -0.00102729 -0.00102035 -0.00101384 -0.00100777 -0.00100213 -0.000996923 -0.000992154 -0.000987819 -0.00098245 -0.000974579 -0.000964206 -0.00095133 -0.000935953 -0.000918073 -0.00089769 -0.000874806 -0.000849247 -0.000820843 -0.000789593 -0.000755497 -0.000718555 -0.000678768 -0.000636135 -0.000590656 -0.000544206 -0.000498659 -0.000454016 -0.000410277 -0.000367441 -0.000325508 -0.000284479 -0.000244353 -0.00020649 -0.000172247 -0.000141625 -0.000114624 -9.12442e-05 -7.14849e-05 -5.53464e-05 -4.28288e-05 -3.27908e-05 -2.40912e-05 -1.673e-05 -1.07072e-05 -6.0228e-06 -2.6768e-06 -6.692e-07 0 0 -1.15427e-06 -4.6171e-06 -1.03885e-05 -1.84684e-05 -2.88568e-05 -4.15539e-05 -5.65594e-05 -7.38735e-05 -9.53087e-05 -0.000122678 -0.00015598 -0.000195216 -0.000240386 -0.000291489 -0.000348526 -0.000411496 -0.000478095 -0.000546015 -0.000615258 -0.000685824 -0.000757712 -0.000830922 -0.000905454 -0.000981309 -0.00105545 -0.00112484 -0.00118947 -0.00124936 -0.00130449 -0.00135487 -0.00140049 -0.00144137 -0.00147781 -0.00151013 -0.00153832 -0.0015624 -0.00158236 -0.00159819 -0.00160991 -0.00161751 -0.0016233 -0.00162962 -0.00163647 -0.00164383 -0.00165172 -0.00166014 -0.00166908 -0.00167854 -0.00168872 -0.00169983 -0.00171186 -0.00172481 -0.00173869 -0.00175349 -0.00176921 -0.00178586 -0.00180174 -0.00181515 -0.0018261 -0.00183459 -0.00184061 -0.00184417 -0.00184527 -0.0018439 -0.00184014 -0.00183406 -0.00182566 -0.00181493 -0.00180189 -0.00178652 -0.00176883 -0.00174882 -0.00172823 -0.00170881 -0.00169054 -0.00167344 -0.00165751 -0.00164273 -0.00162912 -0.00161667 -0.00160514 -0.00159429 -0.00158413 -0.00157464 -0.00156582 -0.00155769 -0.00155024 -0.00154347 -0.00153508 -0.00152278 -0.00150657 -0.00148645 -0.00146243 -0.00143449 -0.00140264 -0.00136688 -0.00132695 -0.00128257 -0.00123374 -0.00118046 -0.00112274 -0.00106058 -0.000993961 -0.0009229 -0.000850322 -0.000779155 -0.0007094 -0.000641057 -0.000574126 -0.000508606 -0.000444498 -0.000381802 -0.00032264 -0.000269136 -0.000221289 -0.0001791 -0.000142569 -0.000111695 -8.64788e-05 -6.692e-05 -5.12356e-05 -3.76425e-05 -2.61406e-05 -1.673e-05 -9.41063e-06 -4.1825e-06 -1.04563e-06 0 0 -1.66215e-06 -6.64862e-06 -1.49594e-05 -2.65945e-05 -4.15539e-05 -5.98376e-05 -8.14456e-05 -0.000106378 -0.000137245 -0.000176656 -0.000224611 -0.000281111 -0.000346155 -0.000419744 -0.000501877 -0.000592554 -0.000688456 -0.000786262 -0.000885972 -0.000987586 -0.0010911 -0.00119653 -0.00130385 -0.00141309 -0.00151985 -0.00161977 -0.00171284 -0.00179907 -0.00187846 -0.00195101 -0.00201671 -0.00207557 -0.00212804 -0.00217458 -0.00221518 -0.00224986 -0.00227859 -0.0023014 -0.00231827 -0.00232921 -0.00233756 -0.00234666 -0.00235651 -0.00236712 -0.00237848 -0.0023906 -0.00240347 -0.00241709 -0.00243176 -0.00244775 -0.00246507 -0.00248373 -0.00250371 -0.00252502 -0.00254767 -0.00257164 -0.0025945 -0.00261382 -0.00262959 -0.00264181 -0.00265048 -0.00265561 -0.00265719 -0.00265522 -0.00264981 -0.00264105 -0.00262895 -0.00261351 -0.00259472 -0.00257259 -0.00254712 -0.00251831 -0.00248866 -0.00246068 -0.00243438 -0.00240976 -0.00238681 -0.00236553 -0.00234593 -0.00232801 -0.00231141 -0.00229578 -0.00228114 -0.00226747 -0.00225479 -0.00224308 -0.00223235 -0.00222259 -0.00221051 -0.0021928 -0.00216946 -0.00214049 -0.00210589 -0.00206566 -0.0020198 -0.00196831 -0.00191081 -0.0018469 -0.00177658 -0.00169987 -0.00161675 -0.00152723 -0.0014313 -0.00132898 -0.00122446 -0.00112198 -0.00102154 -0.000923123 -0.000826741 -0.000732393 -0.000640077 -0.000549795 -0.000464602 -0.000387556 -0.000318657 -0.000257905 -0.000205299 -0.000160841 -0.000124529 -9.63648e-05 -7.37793e-05 -5.42052e-05 -3.76425e-05 -2.40912e-05 -1.35513e-05 -6.0228e-06 -1.5057e-06 0 0 -2.26238e-06 -9.04951e-06 -2.03614e-05 -3.6198e-05 -5.65594e-05 -8.14456e-05 -0.000110856 -0.000144792 -0.000186805 -0.000240448 -0.000305721 -0.000382623 -0.000471156 -0.000571318 -0.00068311 -0.000806532 -0.000937065 -0.00107019 -0.00120591 -0.00134421 -0.00148512 -0.00162861 -0.00177469 -0.00192337 -0.00206868 -0.00220468 -0.00233137 -0.00244874 -0.0025568 -0.00265554 -0.00274497 -0.00282508 -0.0028965 -0.00295985 -0.00301511 -0.0030623 -0.00310142 -0.00313246 -0.00315542 -0.00317031 -0.00318167 -0.00319406 -0.00320747 -0.00322191 -0.00323738 -0.00325387 -0.00327139 -0.00328993 -0.00330989 -0.00333166 -0.00335524 -0.00338063 -0.00340783 -0.00343684 -0.00346766 -0.00350029 -0.00353141 -0.0035577 -0.00357916 -0.00359579 -0.0036076 -0.00361458 -0.00361673 -0.00361405 -0.00360668 -0.00359476 -0.00357829 -0.00355727 -0.0035317 -0.00350158 -0.00346691 -0.00342769 -0.00338734 -0.00334926 -0.00331346 -0.00327995 -0.00324871 -0.00321975 -0.00319307 -0.00316867 -0.00314608 -0.00312482 -0.00310489 -0.00308628 -0.00306902 -0.00305308 -0.00303847 -0.0030252 -0.00300875 -0.00298465 -0.00295288 -0.00291345 -0.00286636 -0.0028116 -0.00274918 -0.00267909 -0.00260082 -0.00251383 -0.00241813 -0.00231371 -0.00220058 -0.00207873 -0.00194816 -0.00180888 -0.00166663 -0.00152714 -0.00139042 -0.00125647 -0.00112529 -0.000996868 -0.000871216 -0.000748332 -0.000632375 -0.000527507 -0.000433727 -0.000351037 -0.000279435 -0.000218922 -0.000169498 -0.000131163 -0.000100422 -7.37793e-05 -5.12356e-05 -3.27908e-05 -1.84448e-05 -8.1977e-06 -2.04943e-06 0 0 -2.95494e-06 -1.18198e-05 -2.65945e-05 -4.72791e-05 -7.38735e-05 -0.000106378 -0.000144792 -0.000189116 -0.00024399 -0.000314054 -0.000399309 -0.000499753 -0.000615387 -0.000746211 -0.000892226 -0.00105343 -0.00122392 -0.0013978 -0.00157506 -0.00175571 -0.00193974 -0.00212716 -0.00231796 -0.00251215 -0.00270195 -0.00287958 -0.00304505 -0.00319835 -0.00333949 -0.00346846 -0.00358526 -0.0036899 -0.00378319 -0.00386592 -0.00393811 -0.00399974 -0.00405083 -0.00409138 -0.00412137 -0.00414081 -0.00415565 -0.00417183 -0.00418935 -0.00420821 -0.00422841 -0.00424995 -0.00427283 -0.00429705 -0.00432312 -0.00435156 -0.00438235 -0.00441552 -0.00445104 -0.00448893 -0.00452919 -0.0045718 -0.00461245 -0.00464679 -0.00467482 -0.00469655 -0.00471197 -0.00472108 -0.00472389 -0.00472039 -0.00471076 -0.0046952 -0.00467369 -0.00464623 -0.00461284 -0.0045735 -0.00452821 -0.00447699 -0.00442428 -0.00437455 -0.00432779 -0.00428401 -0.00424321 -0.00420539 -0.00417054 -0.00413868 -0.00410917 -0.00408139 -0.00405536 -0.00403107 -0.00400851 -0.00398769 -0.00396861 -0.00395128 -0.0039298 -0.00389832 -0.00385682 -0.00380532 -0.00374381 -0.00367229 -0.00359076 -0.00349922 -0.00339699 -0.00328337 -0.00315837 -0.00302199 -0.00287422 -0.00271507 -0.00254454 -0.00236262 -0.00217682 -0.00199464 -0.00181607 -0.00164111 -0.00146976 -0.00130203 -0.00113792 -0.000977413 -0.000825959 -0.000688988 -0.000566501 -0.000458497 -0.000364977 -0.00028594 -0.000221386 -0.000171315 -0.000131163 -9.63648e-05 -6.692e-05 -4.28288e-05 -2.40912e-05 -1.07072e-05 -2.6768e-06 0 0 -3.85276e-06 -1.5411e-05 -3.46749e-05 -6.16442e-05 -9.63191e-05 -0.000138699 -0.000188785 -0.000246577 -0.000317601 -0.000407387 -0.000515933 -0.000643241 -0.000789309 -0.000954138 -0.00113773 -0.00134008 -0.00155359 -0.00177067 -0.00199132 -0.00221553 -0.0024433 -0.00267464 -0.00290955 -0.00314802 -0.00338052 -0.00359752 -0.003799 -0.00398499 -0.00415546 -0.00431043 -0.00444989 -0.00457385 -0.00468376 -0.00478108 -0.00486582 -0.00493797 -0.00499753 -0.0050445 -0.00507889 -0.00510069 -0.00511752 -0.00513698 -0.00515909 -0.00518384 -0.00521123 -0.00524126 -0.00527393 -0.00530924 -0.00534744 -0.00538879 -0.00543327 -0.0054809 -0.00553167 -0.00558558 -0.00564263 -0.00570283 -0.00576022 -0.00580886 -0.00584874 -0.00587988 -0.00590226 -0.00591588 -0.00592075 -0.00591687 -0.00590447 -0.00588378 -0.0058548 -0.00581752 -0.00577196 -0.0057181 -0.00565596 -0.00558552 -0.00551289 -0.00544417 -0.00537937 -0.00531847 -0.00526149 -0.00520841 -0.00515925 -0.00511399 -0.00507225 -0.00503361 -0.00499809 -0.00496568 -0.00493637 -0.00491018 -0.0048871 -0.00486713 -0.00484274 -0.0048064 -0.00475812 -0.00469789 -0.00462571 -0.00454159 -0.00444552 -0.0043375 -0.00421625 -0.00408047 -0.00393017 -0.00376534 -0.00358599 -0.00339211 -0.00318371 -0.00296079 -0.00273254 -0.00250819 -0.00228772 -0.00207114 -0.00185844 -0.00164964 -0.00144472 -0.00124369 -0.00105355 -0.000881305 -0.000726959 -0.000590508 -0.000471954 -0.000371296 -0.000288534 -0.000223669 -0.000171247 -0.000125814 -8.73707e-05 -5.59173e-05 -3.14535e-05 -1.39793e-05 -3.49483e-06 0 0 -5.06876e-06 -2.0275e-05 -4.56188e-05 -8.11001e-05 -0.000126719 -0.000182475 -0.000248369 -0.0003244 -0.00041644 -0.000530357 -0.000666154 -0.000823828 -0.00100338 -0.00120481 -0.00142812 -0.00167331 -0.00193065 -0.00219039 -0.00245255 -0.00271713 -0.00298411 -0.00325351 -0.00352532 -0.00379955 -0.00406526 -0.00431152 -0.00453834 -0.00474571 -0.00493364 -0.00510212 -0.00525115 -0.00538074 -0.00549389 -0.00559361 -0.0056799 -0.00575276 -0.00581219 -0.0058582 -0.00589077 -0.00590991 -0.00592528 -0.00594652 -0.00597363 -0.00600661 -0.00604547 -0.0060902 -0.0061408 -0.00619728 -0.00625884 -0.00632469 -0.00639484 -0.00646929 -0.00654803 -0.00663106 -0.00671839 -0.00681001 -0.00689732 -0.00697168 -0.0070331 -0.00708159 -0.00711713 -0.00713974 -0.00714941 -0.00714614 -0.00713022 -0.00710193 -0.00706129 -0.00700828 -0.00694291 -0.00686517 -0.00677508 -0.00667262 -0.00656659 -0.00646579 -0.0063702 -0.00627984 -0.0061947 -0.00611478 -0.00604008 -0.0059706 -0.00590691 -0.00584958 -0.0057986 -0.00575398 -0.00571571 -0.0056838 -0.00565825 -0.00563905 -0.00561666 -0.0055815 -0.0055336 -0.00547293 -0.00539951 -0.00531334 -0.00521441 -0.00510272 -0.00497553 -0.00483008 -0.00466637 -0.0044844 -0.00428418 -0.0040657 -0.00382896 -0.00357396 -0.00331129 -0.00305152 -0.00279464 -0.00254067 -0.0022896 -0.00204144 -0.00179617 -0.0015538 -0.00132334 -0.00111376 -0.00092508 -0.000757292 -0.000610398 -0.000484396 -0.000379288 -0.000295073 -0.000225915 -0.000165979 -0.000115263 -7.37683e-05 -4.14947e-05 -1.84421e-05 -4.61052e-06 0 0 -6.60292e-06 -2.64117e-05 -5.94263e-05 -0.000105647 -0.000165073 -0.000237705 -0.000323543 -0.000422587 -0.000540505 -0.000682966 -0.000849969 -0.00104152 -0.0012576 -0.00149824 -0.00176341 -0.00205313 -0.00235508 -0.00265696 -0.00295877 -0.00326051 -0.00356217 -0.00386377 -0.00416529 -0.00446674 -0.00475617 -0.0050216 -0.00526306 -0.00548053 -0.00567402 -0.00584352 -0.00598904 -0.00611057 -0.00621357 -0.0063035 -0.00638035 -0.00644413 -0.00649483 -0.00653246 -0.00655701 -0.00656849 -0.00657894 -0.00660044 -0.00663297 -0.00667653 -0.00673114 -0.00679678 -0.00687346 -0.00696117 -0.00705731 -0.00715928 -0.00726707 -0.00738068 -0.00750012 -0.00762537 -0.00775645 -0.00789335 -0.00802373 -0.00813525 -0.0082279 -0.00830168 -0.00835661 -0.00839266 -0.00840985 -0.00840818 -0.00838799 -0.00834965 -0.00829315 -0.0082185 -0.00812568 -0.00801471 -0.00788558 -0.0077383 -0.00758539 -0.00743939 -0.0073003 -0.00716812 -0.00704285 -0.00692449 -0.00681304 -0.0067085 -0.00661316 -0.00652928 -0.00645689 -0.00639597 -0.00634653 -0.00630856 -0.00628206 -0.00626705 -0.00625155 -0.00622362 -0.00618325 -0.00613045 -0.00606521 -0.00598754 -0.00589743 -0.00579488 -0.00567483 -0.0055322 -0.00536698 -0.00517918 -0.0049688 -0.00473583 -0.00448029 -0.00420216 -0.00391306 -0.00362462 -0.00333684 -0.00304971 -0.00276324 -0.00247743 -0.00219227 -0.00190776 -0.00163532 -0.00138636 -0.00116087 -0.00095885 -0.000780308 -0.00062524 -0.000493646 -0.000385527 -0.000295169 -0.000216859 -0.000150597 -9.63818e-05 -5.42148e-05 -2.40955e-05 -6.02386e-06 0 0 -8.45526e-06 -3.3821e-05 -7.60974e-05 -0.000135284 -0.000211382 -0.000304389 -0.000414308 -0.000541137 -0.000689798 -0.000865212 -0.00106738 -0.0012963 -0.00155198 -0.00183441 -0.00214359 -0.00247952 -0.00282689 -0.00317037 -0.00350996 -0.00384567 -0.00417748 -0.00450541 -0.00482945 -0.00514959 -0.00545324 -0.00572776 -0.00597316 -0.00618944 -0.0063766 -0.00653463 -0.00666355 -0.00676334 -0.00684281 -0.00691076 -0.00696718 -0.00701207 -0.00704544 -0.00706729 -0.00707761 -0.0070764 -0.0070785 -0.00709874 -0.0071371 -0.0071936 -0.00726823 -0.00736099 -0.00747188 -0.00760091 -0.00774287 -0.00789255 -0.00804995 -0.00821508 -0.00838794 -0.00856851 -0.00875682 -0.00895285 -0.00913947 -0.00929957 -0.00943313 -0.00954016 -0.00962067 -0.00967464 -0.00970209 -0.009703 -0.00967781 -0.00962694 -0.0095504 -0.00944818 -0.00932028 -0.00916671 -0.00898747 -0.00878254 -0.00856927 -0.00836497 -0.00816965 -0.00798331 -0.00780594 -0.00763755 -0.00747813 -0.0073277 -0.00719098 -0.00707274 -0.00697296 -0.00689165 -0.00682881 -0.00678444 -0.00675854 -0.00675111 -0.00674742 -0.00673275 -0.00670708 -0.00667044 -0.0066228 -0.00656419 -0.00649458 -0.00641399 -0.00631416 -0.00618683 -0.006032 -0.00584967 -0.00563984 -0.00540251 -0.00513769 -0.00484536 -0.00453786 -0.00422751 -0.00391431 -0.00359826 -0.00327936 -0.00295761 -0.00263301 -0.00230556 -0.00198951 -0.00169909 -0.00143432 -0.00119518 -0.000981684 -0.000793827 -0.000631609 -0.000495032 -0.000379009 -0.000278455 -0.000193372 -0.000123758 -6.96138e-05 -3.09395e-05 -7.73487e-06 0 0 -1.06258e-05 -4.25031e-05 -9.5632e-05 -0.000170012 -0.000265644 -0.000382528 -0.000520663 -0.000680049 -0.000864317 -0.0010771 -0.00131839 -0.00158819 -0.0018865 -0.00221332 -0.00256866 -0.00295251 -0.00334609 -0.00373063 -0.00410614 -0.00447261 -0.00483004 -0.00517843 -0.00551779 -0.00584811 -0.00615648 -0.00642999 -0.00666865 -0.00687244 -0.00704138 -0.00717546 -0.00727469 -0.00733906 -0.00738161 -0.00741538 -0.00744037 -0.00745659 -0.00746402 -0.00746268 -0.00745257 -0.00743367 -0.00742397 -0.00744142 -0.00748603 -0.00755781 -0.00765674 -0.00778284 -0.00793609 -0.0081165 -0.0083155 -0.00852449 -0.00874349 -0.00897249 -0.00921149 -0.00946049 -0.00971949 -0.00998849 -0.0102445 -0.0104646 -0.0106488 -0.010797 -0.0109093 -0.0109857 -0.0110261 -0.0110306 -0.0109997 -0.0109338 -0.010833 -0.0106973 -0.0105267 -0.0103212 -0.0100807 -0.00980536 -0.00951824 -0.00924254 -0.00897826 -0.00872541 -0.00848397 -0.00825395 -0.00803536 -0.00782818 -0.00764039 -0.00747993 -0.00734681 -0.00724102 -0.00716257 -0.00711146 -0.00708768 -0.00709125 -0.00710427 -0.00710889 -0.0071051 -0.0070929 -0.0070723 -0.00704329 -0.00700587 -0.00696004 -0.00689351 -0.00679396 -0.00666142 -0.00649586 -0.0062973 -0.00606574 -0.00580116 -0.00550358 -0.00518569 -0.00486018 -0.00452706 -0.00418632 -0.00383796 -0.00348199 -0.00311841 -0.00274721 -0.00238589 -0.00205197 -0.00174543 -0.00146628 -0.00121453 -0.000990157 -0.000793177 -0.000623586 -0.000477433 -0.000350767 -0.000243588 -0.000155896 -8.76918e-05 -3.89741e-05 -9.74353e-06 0 0 -1.31145e-05 -5.24578e-05 -0.00011803 -0.000209831 -0.000327861 -0.00047212 -0.000642608 -0.000839325 -0.00106406 -0.00131862 -0.00160299 -0.00191717 -0.00226117 -0.00263499 -0.00303862 -0.00347207 -0.00391267 -0.00433774 -0.0047473 -0.00514133 -0.00551985 -0.00588285 -0.00623033 -0.00656228 -0.00686589 -0.0071283 -0.00734951 -0.00752954 -0.00766837 -0.00776601 -0.00782246 -0.00783771 -0.00782996 -0.00781736 -0.00779994 -0.00777767 -0.00775058 -0.00771865 -0.00768188 -0.00764028 -0.00761533 -0.00762849 -0.00767977 -0.00776917 -0.00789668 -0.00806232 -0.00826607 -0.00850795 -0.00877521 -0.00905512 -0.00934768 -0.0096529 -0.00997077 -0.0103013 -0.0106445 -0.0110003 -0.0113389 -0.0116304 -0.0118749 -0.0120723 -0.0122226 -0.0123258 -0.0123819 -0.012391 -0.0123535 -0.0122702 -0.012141 -0.0119659 -0.011745 -0.0114781 -0.0111654 -0.0108067 -0.0104323 -0.0100721 -0.00972613 -0.00939441 -0.00907694 -0.0087737 -0.00848471 -0.00820996 -0.00796138 -0.00775087 -0.00757844 -0.00744408 -0.00734781 -0.00728961 -0.00726949 -0.00728745 -0.0073221 -0.00735205 -0.00737729 -0.00739784 -0.00741369 -0.00742484 -0.00743128 -0.00743303 -0.00741288 -0.00735361 -0.00725525 -0.00711777 -0.00694119 -0.00672551 -0.00647071 -0.00617681 -0.00585654 -0.00552263 -0.00517507 -0.00481388 -0.00443904 -0.00405057 -0.00364845 -0.00323269 -0.00282448 -0.00244498 -0.00209421 -0.00177216 -0.00147883 -0.00121423 -0.000978349 -0.000771191 -0.000590443 -0.000433795 -0.000301246 -0.000192798 -0.000108449 -4.81994e-05 -1.20499e-05 0 0 -1.59213e-05 -6.36852e-05 -0.000143292 -0.000254741 -0.000398033 -0.000573167 -0.000780144 -0.00101896 -0.00128904 -0.00158978 -0.00192119 -0.00228326 -0.002676 -0.00309941 -0.00355348 -0.00403822 -0.00452662 -0.0049917 -0.00543343 -0.00585184 -0.00624691 -0.00661865 -0.00696705 -0.00729212 -0.00758146 -0.00782267 -0.00801576 -0.00816072 -0.00825756 -0.00830627 -0.00830685 -0.00825931 -0.00818786 -0.00811671 -0.00804587 -0.00797534 -0.0079051 -0.00783518 -0.00776556 -0.00769624 -0.00765259 -0.00765994 -0.0077183 -0.00782767 -0.00798805 -0.00819944 -0.00846183 -0.00877524 -0.00912199 -0.00948442 -0.00986253 -0.0102563 -0.0106658 -0.0110909 -0.0115318 -0.0119883 -0.0124226 -0.012797 -0.0131114 -0.0133659 -0.0135604 -0.0136949 -0.0137695 -0.0137841 -0.0137395 -0.0136362 -0.0134744 -0.013254 -0.0129751 -0.0126375 -0.0122414 -0.0117867 -0.0113114 -0.0108536 -0.0104133 -0.00999033 -0.00958485 -0.0091968 -0.0088262 -0.00847304 -0.00815395 -0.00788555 -0.00766784 -0.00750083 -0.00738452 -0.00731889 -0.00730396 -0.00733972 -0.0074009 -0.00746222 -0.00752367 -0.00758525 -0.00764698 -0.00770884 -0.00777083 -0.00783297 -0.00787227 -0.00786577 -0.00781348 -0.00771539 -0.0075715 -0.00738182 -0.00714634 -0.00686506 -0.00655042 -0.00621485 -0.00585836 -0.00548095 -0.0050826 -0.00466334 -0.00422314 -0.00376202 -0.00330526 -0.00287814 -0.00248065 -0.00211281 -0.00177461 -0.00146605 -0.00118713 -0.000937845 -0.000718038 -0.000527538 -0.000366346 -0.000234461 -0.000131884 -5.86153e-05 -1.46538e-05 0 0 -1.90463e-05 -7.61854e-05 -0.000171417 -0.000304741 -0.000476159 -0.000685668 -0.000933271 -0.00121897 -0.00153924 -0.00189058 -0.00227298 -0.00268644 -0.00313097 -0.00360657 -0.00411323 -0.00465095 -0.00518796 -0.0056925 -0.00616455 -0.00660412 -0.00701122 -0.00738583 -0.00772796 -0.00803762 -0.0083032 -0.00851313 -0.00866739 -0.008766 -0.00880895 -0.00879624 -0.00872788 -0.00860385 -0.00845532 -0.00831343 -0.00817818 -0.00804957 -0.0079276 -0.00781228 -0.00770359 -0.00760155 -0.00753575 -0.00753577 -0.00760163 -0.00773332 -0.00793084 -0.00819419 -0.00852337 -0.00891839 -0.00935586 -0.0098124 -0.010288 -0.0107827 -0.0112965 -0.0118294 -0.0123813 -0.0129524 -0.0134956 -0.0139643 -0.0143584 -0.0146779 -0.0149228 -0.0150932 -0.0151889 -0.01521 -0.0151574 -0.0150318 -0.0148332 -0.0145616 -0.014217 -0.0137994 -0.0133088 -0.0127452 -0.0121557 -0.0115872 -0.0110396 -0.0105132 -0.0100077 -0.00952324 -0.00905981 -0.00861741 -0.0082181 -0.00788397 -0.00761503 -0.00741127 -0.0072727 -0.00719931 -0.0071911 -0.00724807 -0.00734068 -0.0074394 -0.00754422 -0.00765514 -0.00777216 -0.00789529 -0.00802452 -0.00815984 -0.00827168 -0.00833044 -0.00833612 -0.00828872 -0.00818824 -0.00803468 -0.00782804 -0.00756832 -0.00726733 -0.00693686 -0.00657693 -0.00618752 -0.00576864 -0.0053203 -0.00484248 -0.00433519 -0.00382824 -0.00335143 -0.00290476 -0.00248824 -0.00210185 -0.00174561 -0.00141951 -0.00112355 -0.000860218 -0.000631997 -0.000438887 -0.000280888 -0.000157999 -7.02219e-05 -1.75555e-05 0 0 -2.24414e-05 -8.97656e-05 -0.000201973 -0.000359062 -0.000561035 -0.00080789 -0.00109963 -0.00143625 -0.00181053 -0.00221525 -0.0026504 -0.00311598 -0.003612 -0.00413846 -0.00469535 -0.00528268 -0.00586341 -0.00640051 -0.00689398 -0.00734382 -0.00775004 -0.00811262 -0.00843157 -0.00870689 -0.0089285 -0.0090863 -0.0091803 -0.0092105 -0.00917689 -0.00907948 -0.00891827 -0.00869325 -0.00844385 -0.00820947 -0.00799011 -0.00778578 -0.00759648 -0.0074222 -0.00726295 -0.00711872 -0.0070238 -0.00701247 -0.00708473 -0.00724058 -0.00748001 -0.00780304 -0.00820966 -0.00869987 -0.00924341 -0.00981002 -0.0103997 -0.0110124 -0.0116483 -0.0123071 -0.0129891 -0.0136941 -0.0143649 -0.014944 -0.0154314 -0.0158273 -0.0161315 -0.0163441 -0.016465 -0.0164943 -0.0164329 -0.0162816 -0.0160406 -0.0157098 -0.0152891 -0.0147787 -0.0141784 -0.0134883 -0.0127659 -0.0120687 -0.0113966 -0.0107497 -0.010128 -0.00953149 -0.00896012 -0.00841393 -0.00792158 -0.00751173 -0.00718438 -0.00693954 -0.00677721 -0.00669738 -0.00670006 -0.00678524 -0.00691867 -0.0070661 -0.00722752 -0.00740293 -0.00759234 -0.00779574 -0.00801314 -0.00824454 -0.00845243 -0.00859934 -0.00868527 -0.00871021 -0.00867416 -0.00857712 -0.0084191 -0.00820009 -0.00793063 -0.00762124 -0.00727194 -0.00688271 -0.00645356 -0.00598449 -0.0054755 -0.00492658 -0.00437255 -0.00384821 -0.00335355 -0.00288857 -0.00245329 -0.00204768 -0.00167177 -0.00132554 -0.00101487 -0.000745617 -0.00051779 -0.000331385 -0.000186404 -8.28463e-05 -2.07116e-05 0 0 -2.60583e-05 -0.000104233 -0.000234525 -0.000416934 -0.000651459 -0.0009381 -0.00127686 -0.00166773 -0.00209877 -0.00255802 -0.00304547 -0.00356113 -0.00410499 -0.00467706 -0.00527735 -0.00590583 -0.0065197 -0.00707611 -0.00757507 -0.00801657 -0.00840063 -0.00872722 -0.00899637 -0.00920806 -0.00935474 -0.00942885 -0.00943038 -0.00935934 -0.00921572 -0.00899953 -0.00871077 -0.00834943 -0.00796496 -0.00760679 -0.00727494 -0.00696939 -0.00669014 -0.00643721 -0.00621058 -0.00601025 -0.00587573 -0.0058465 -0.00592255 -0.0061039 -0.00639054 -0.00678246 -0.00727968 -0.00788219 -0.00855127 -0.00924821 -0.00997302 -0.0107257 -0.0115062 -0.0123146 -0.0131509 -0.014015 -0.0148371 -0.0155475 -0.0161461 -0.0166329 -0.017008 -0.0172712 -0.0174227 -0.0174624 -0.0173913 -0.0172106 -0.0169201 -0.0165199 -0.0160099 -0.0153903 -0.0146609 -0.0138219 -0.012943 -0.0120942 -0.0112755 -0.0104869 -0.00972839 -0.00899999 -0.00830168 -0.00763347 -0.00703212 -0.00653439 -0.00614028 -0.00584978 -0.00566291 -0.00557965 -0.00560001 -0.00572399 -0.00591209 -0.0061248 -0.00636212 -0.00662405 -0.0069106 -0.00722176 -0.00755753 -0.00791791 -0.00825583 -0.0085242 -0.00872301 -0.00885228 -0.008912 -0.00890217 -0.00882279 -0.00867386 -0.00846369 -0.0082006 -0.00788458 -0.00751563 -0.00709376 -0.00661896 -0.00609123 -0.00551058 -0.00491733 -0.00435181 -0.00381402 -0.00330396 -0.00282164 -0.00236705 -0.00194019 -0.00154106 -0.00117987 -0.000866844 -0.000601975 -0.000385264 -0.000216711 -9.6316e-05 -2.4079e-05 0 0 -2.98972e-05 -0.000119589 -0.000269075 -0.000478355 -0.00074743 -0.0010763 -0.00146496 -0.00191342 -0.00240396 -0.00291889 -0.00345819 -0.00402188 -0.00460994 -0.00522238 -0.0058592 -0.00652041 -0.00715682 -0.00771929 -0.0082078 -0.00862237 -0.00896298 -0.00922965 -0.00942236 -0.00954113 -0.00958193 -0.00954077 -0.00941763 -0.00921252 -0.00892544 -0.00855639 -0.00810537 -0.00757238 -0.00701865 -0.0065054 -0.00603265 -0.00560038 -0.00520859 -0.00485729 -0.00454648 -0.00427616 -0.00409155 -0.00403786 -0.00411511 -0.00432329 -0.00466241 -0.00513245 -0.00573342 -0.00646533 -0.00727943 -0.00812699 -0.009008 -0.00992248 -0.0108704 -0.0118518 -0.0128667 -0.013915 -0.0149125 -0.015775 -0.0165024 -0.0170949 -0.0175523 -0.0178747 -0.018062 -0.0181143 -0.0180328 -0.0178185 -0.0174715 -0.0169918 -0.0163794 -0.0156343 -0.0147565 -0.0137459 -0.0126869 -0.0116637 -0.0106763 -0.00972463 -0.00880879 -0.00792875 -0.0070845 -0.00627604 -0.00554974 -0.00495197 -0.00448272 -0.00414199 -0.00392979 -0.00384611 -0.00389096 -0.00406433 -0.00432094 -0.00461551 -0.00494803 -0.00531851 -0.00572694 -0.00617333 -0.00665768 -0.00717998 -0.00768187 -0.008105 -0.00844936 -0.00871495 -0.00890177 -0.00900982 -0.00903911 -0.00898962 -0.00886651 -0.00867492 -0.00841484 -0.00808628 -0.00768923 -0.00722369 -0.00668967 -0.00608717 -0.00546256 -0.00486223 -0.00428618 -0.00373441 -0.00320691 -0.0027037 -0.00222476 -0.00177009 -0.00135523 -0.000995677 -0.000691443 -0.000442523 -0.000248919 -0.000110631 -2.76577e-05 0 0 -3.39579e-05 -0.000135832 -0.000305621 -0.000543326 -0.000848948 -0.00122248 -0.00166394 -0.00217331 -0