<?xml version="1.0"?> 
<VTKFile type="StructuredGrid" version="0.1"> 
<StructuredGrid WholeExtent="0 128 0 128 0 0"> 
<Piece Extent="0 128 0 128 0 0"> 
<PointData>
<DataArray type="Float32" Name="u" format="ascii" NumberOfComponents="1"> 
0 0 0 0 0 0 0 0 0 0 0 0 0 0 0 0 0 0 0 0 0 0 0 0 0 0 0 0 0 0 0 0 0 0 0 0 0 0 0 0 0 0 0 0 0 0 0 0 0 0 0 0 0 0 0 0 0 0 0 0 0 0 0 0 0 0 0 0 0 0 0 0 0 0 0 0 0 0 0 0 0 0 0 0 0 0 0 0 0 0 0 0 0 0 0 0 0 0 0 0 0 0 0 0 0 0 0 0 0 0 0 0 0 0 0 0 0 0 0 0 0 0 0 0 0 0 0 0 0 0 4.9016e-08 1.96064e-07 4.41144e-07 7.84256e-07 1.2254e-06 1.76457e-06 2.40178e-06 3.13702e-06 4.02694e-06 5.12817e-06 6.44071e-06 7.96458e-06 9.69976e-06 1.16463e-05 1.38041e-05 1.61732e-05 1.86878e-05 2.12819e-05 2.39556e-05 2.67089e-05 2.95418e-05 3.24542e-05 3.54462e-05 3.85178e-05 4.1574e-05 4.45199e-05 4.73554e-05 5.00806e-05 5.26954e-05 5.51999e-05 5.75941e-05 5.98779e-05 6.20037e-05 6.39237e-05 6.56381e-05 6.71467e-05 6.84497e-05 6.95469e-05 7.04384e-05 7.11242e-05 7.16226e-05 7.19521e-05 7.21126e-05 7.21042e-05 7.19268e-05 7.15804e-05 7.10651e-05 7.03808e-05 6.95891e-05 6.87516e-05 6.78684e-05 6.69394e-05 6.59646e-05 6.4944e-05 6.38776e-05 6.27654e-05 6.16621e-05 6.06223e-05 5.9646e-05 5.87332e-05 5.78839e-05 5.70981e-05 5.63759e-05 5.57171e-05 5.5129e-05 5.46185e-05 5.41858e-05 5.38308e-05 5.35535e-05 5.3354e-05 5.32322e-05 5.3188e-05 5.31822e-05 5.31751e-05 5.31668e-05 5.31573e-05 5.31466e-05 5.31347e-05 5.31216e-05 5.31073e-05 5.30447e-05 5.28868e-05 5.26335e-05 5.22849e-05 5.18409e-05 5.13016e-05 5.0667e-05 4.9937e-05 4.90991e-05 4.81408e-05 4.70619e-05 4.58626e-05 4.45428e-05 4.31025e-05 4.15417e-05 3.98604e-05 3.80939e-05 3.62772e-05 3.44105e-05 3.24936e-05 3.05267e-05 2.85096e-05 2.64425e-05 2.43252e-05 2.22198e-05 2.01883e-05 1.82306e-05 1.63468e-05 1.45367e-05 1.28006e-05 1.11383e-05 9.5498e-06 8.06909e-06 6.73009e-06 5.53279e-06 4.47719e-06 3.56329e-06 2.79109e-06 2.1606e-06 1.6718e-06 1.27997e-06 9.40385e-07 6.53045e-07 4.17949e-07 2.35096e-07 1.04487e-07 2.61218e-08 0 0 1.96064e-07 7.84256e-07 1.76457e-06 3.13702e-06 4.9016e-06 7.0583e-06 9.60713e-06 1.25481e-05 1.61077e-05 2.05127e-05 2.57629e-05 3.18583e-05 3.8799e-05 4.6585e-05 5.52163e-05 6.46928e-05 7.47511e-05 8.51277e-05 9.58226e-05 0.000106836 0.000118167 0.000129817 0.000141785 0.000154071 0.000166296 0.00017808 0.000189422 0.000200322 0.000210782 0.0002208 0.000230376 0.000239511 0.000248015 0.000255695 0.000262552 0.000268587 0.000273799 0.000278188 0.000281754 0.000284497 0.000286491 0.000287808 0.000288451 0.000288417 0.000287707 0.000286322 0.00028426 0.000281523 0.000278356 0.000275007 0.000271474 0.000267757 0.000263858 0.000259776 0.00025551 0.000251062 0.000246648 0.000242489 0.000238584 0.000234933 0.000231536 0.000228393 0.000225503 0.000222868 0.000220516 0.000218474 0.000216743 0.000215323 0.000214214 0.000213416 0.000212929 0.000212752 0.000212729 0.0002127 0.000212667 0.000212629 0.000212587 0.000212539 0.000212486 0.000212429 0.000212179 0.000211547 0.000210534 0.00020914 0.000207364 0.000205207 0.000202668 0.000199748 0.000196397 0.000192563 0.000188248 0.00018345 0.000178171 0.00017241 0.000166167 0.000159442 0.000152376 0.000145109 0.000137642 0.000129975 0.000122107 0.000114038 0.00010577 9.73009e-05 8.88793e-05 8.07532e-05 7.29224e-05 6.5387e-05 5.8147e-05 5.12023e-05 4.45531e-05 3.81992e-05 3.22764e-05 2.69204e-05 2.21312e-05 1.79088e-05 1.42532e-05 1.11644e-05 8.64238e-06 6.68718e-06 5.11988e-06 3.76154e-06 2.61218e-06 1.6718e-06 9.40385e-07 4.17949e-07 1.04487e-07 0 0 4.41144e-07 1.76457e-06 3.97029e-06 7.0583e-06 1.10286e-05 1.58812e-05 2.1616e-05 2.82332e-05 3.62424e-05 4.61535e-05 5.79664e-05 7.16812e-05 8.72978e-05 0.000104816 0.000124237 0.000145559 0.00016819 0.000191537 0.000215601 0.00024038 0.000265876 0.000292088 0.000319016 0.00034666 0.000374166 0.000400679 0.000426199 0.000450725 0.000474259 0.000496799 0.000518347 0.000538901 0.000558033 0.000575314 0.000590743 0.000604321 0.000616047 0.000625922 0.000633945 0.000640118 0.000644604 0.000647569 0.000649014 0.000648938 0.000647341 0.000644224 0.000639586 0.000633427 0.000626302 0.000618765 0.000610816 0.000602454 0.000593681 0.000584496 0.000574898 0.000564889 0.000554959 0.000545601 0.000536814 0.000528599 0.000520955 0.000513883 0.000507383 0.000501454 0.000496161 0.000491567 0.000487672 0.000484477 0.000481982 0.000480186 0.000479089 0.000478692 0.000478639 0.000478576 0.000478501 0.000478416 0.00047832 0.000478213 0.000478095 0.000477966 0.000477402 0.000475981 0.000473702 0.000470564 0.000466568 0.000461715 0.000456003 0.000449433 0.000441892 0.000433267 0.000423557 0.000412763 0.000400885 0.000387922 0.000373875 0.000358744 0.000342845 0.000326495 0.000309694 0.000292443 0.00027474 0.000256587 0.000237982 0.000218927 0.000199979 0.000181695 0.000164075 0.000147121 0.000130831 0.000115205 0.000100244 8.59482e-05 7.26219e-05 6.05708e-05 4.97951e-05 4.02947e-05 3.20696e-05 2.51199e-05 1.94454e-05 1.50462e-05 1.15197e-05 8.46347e-06 5.87741e-06 3.76154e-06 2.11587e-06 9.40385e-07 2.35096e-07 0 0 7.84256e-07 3.13702e-06 7.0583e-06 1.25481e-05 1.96064e-05 2.82332e-05 3.84285e-05 5.01924e-05 6.4431e-05 8.20507e-05 0.000103051 0.000127433 0.000155196 0.00018634 0.000220865 0.000258771 0.000299004 0.000340511 0.00038329 0.000427343 0.000472669 0.000519268 0.00056714 0.000616285 0.000665184 0.000712318 0.000757686 0.000801289 0.000843127 0.000883198 0.000921505 0.000958046 0.000992059 0.00102278 0.00105021 0.00107435 0.00109519 0.00111275 0.00112701 0.00113799 0.00114596 0.00115123 0.0011538 0.00115367 0.00115083 0.00114529 0.00113704 0.00112609 0.00111343 0.00110003 0.00108589 0.00107103 0.00105543 0.0010391 0.00102204 0.00100425 0.000986593 0.000969957 0.000954336 0.000939731 0.000926143 0.00091357 0.000902014 0.000891474 0.000882063 0.000873896 0.000866973 0.000861293 0.000856857 0.000853664 0.000851714 0.000851008 0.000850915 0.000850801 0.000850669 0.000850517 0.000850346 0.000850156 0.000849946 0.000849717 0.000848715 0.000846189 0.000842136 0.000836558 0.000829455 0.000820826 0.000810672 0.000798993 0.000785586 0.000770252 0.000752991 0.000733801 0.000712684 0.00068964 0.000664667 0.000637767 0.000609502 0.000580436 0.000550568 0.000519898 0.000488427 0.000456154 0.00042308 0.000389203 0.000355517 0.000323013 0.00029169 0.000261548 0.000232588 0.000204809 0.000178212 0.000152797 0.000129106 0.000107682 8.85247e-05 7.16351e-05 5.70127e-05 4.46575e-05 3.45695e-05 2.67487e-05 2.04795e-05 1.50462e-05 1.04487e-05 6.68718e-06 3.76154e-06 1.6718e-06 4.17949e-07 0 0 1.2254e-06 4.9016e-06 1.10286e-05 1.96064e-05 3.0635e-05 4.41144e-05 6.00446e-05 7.84256e-05 0.000100673 0.000128204 0.000161018 0.000199114 0.000242494 0.000291156 0.000345102 0.00040433 0.000467194 0.000532048 0.000598891 0.000667723 0.000738545 0.000811356 0.000886156 0.000962946 0.00103935 0.001113 0.00118388 0.00125201 0.00131739 0.00138 0.00143985 0.00149695 0.00155009 0.00159809 0.00164095 0.00167867 0.00171124 0.00173867 0.00176096 0.0017781 0.00179057 0.0017988 0.00180282 0.0018026 0.00179817 0.00178951 0.00177663 0.00175952 0.00173973 0.00171879 0.00169671 0.00167348 0.00164911 0.0016236 0.00159694 0.00156913 0.00154155 0.00151556 0.00149115 0.00146833 0.0014471 0.00142745 0.0014094 0.00139293 0.00137822 0.00136546 0.00135465 0.00134577 0.00133884 0.00133385 0.0013308 0.0013297 0.00132955 0.00132938 0.00132917 0.00132893 0.00132867 0.00132837 0.00132804 0.00132768 0.00132612 0.00132217 0.00131584 0.00130712 0.00129602 0.00128254 0.00126668 0.00124843 0.00122748 0.00120352 0.00117655 0.00114656 0.00111357 0.00107756 0.00103854 0.000996511 0.000952347 0.000906931 0.000860262 0.000812341 0.000763167 0.000712741 0.000661062 0.00060813 0.000555496 0.000504707 0.000455765 0.000408669 0.000363419 0.000320015 0.000278457 0.000238745 0.000201727 0.000168252 0.00013832 0.00011193 8.90824e-05 6.97774e-05 5.40149e-05 4.17949e-05 3.19992e-05 2.35096e-05 1.63261e-05 1.04487e-05 5.87741e-06 2.61218e-06 6.53045e-07 0 0 1.76457e-06 7.0583e-06 1.58812e-05 2.82332e-05 4.41144e-05 6.35247e-05 8.64642e-05 0.000112933 0.00014497 0.000184614 0.000231866 0.000286725 0.000349191 0.000419265 0.000496947 0.000582235 0.00067276 0.000766149 0.000862403 0.000961522 0.0010635 0.00116835 0.00127606 0.00138664 0.00149666 0.00160272 0.00170479 0.0018029 0.00189703 0.0019872 0.00207339 0.0021556 0.00223213 0.00230125 0.00236297 0.00241728 0.00246419 0.00250369 0.00253578 0.00256047 0.00257841 0.00259028 0.00259605 0.00259575 0.00258936 0.00257689 0.00255834 0.00253371 0.00250521 0.00247506 0.00244326 0.00240982 0.00237472 0.00233798 0.00229959 0.00225955 0.00221984 0.0021824 0.00214726 0.0021144 0.00208382 0.00205553 0.00202953 0.00200582 0.00198464 0.00196627 0.00195069 0.00193791 0.00192793 0.00192074 0.00191636 0.00191477 0.00191456 0.0019143 0.00191401 0.00191366 0.00191328 0.00191285 0.00191238 0.00191186 0.00190961 0.00190392 0.00189481 0.00188226 0.00186627 0.00184686 0.00182401 0.00179773 0.00176757 0.00173307 0.00169423 0.00165105 0.00160354 0.00155169 0.0014955 0.00143498 0.00137138 0.00130598 0.00123878 0.00116977 0.00109896 0.00102635 0.000951929 0.000875708 0.000799914 0.000726779 0.000656302 0.000588483 0.000523323 0.000460821 0.000400978 0.000343793 0.000290487 0.000242283 0.000199181 0.000161179 0.000128279 0.000100479 7.77814e-05 6.01847e-05 4.60789e-05 3.38539e-05 2.35096e-05 1.50462e-05 8.46347e-06 3.76154e-06 9.40385e-07 0 0 2.40178e-06 9.60713e-06 2.1616e-05 3.84285e-05 6.00446e-05 8.64642e-05 0.000117687 0.000153714 0.00019732 0.00025128 0.000315595 0.000390264 0.000475288 0.000570667 0.000676399 0.000792487 0.000915701 0.00104281 0.00117383 0.00130874 0.00144755 0.00159026 0.00173687 0.00188737 0.00203713 0.00218147 0.00232041 0.00245395 0.00258208 0.0027048 0.00282211 0.00293402 0.00303818 0.00313226 0.00321627 0.00329019 0.00335403 0.0034078 0.00345148 0.00348508 0.00350951 0.00352565 0.00353352 0.00353311 0.00352441 0.00350744 0.00348219 0.00344866 0.00340987 0.00336883 0.00332555 0.00328003 0.00323226 0.00318225 0.00313 0.0030755 0.00302144 0.00297049 0.00292265 0.00287793 0.00283631 0.00279781 0.00276242 0.00273014 0.00270132 0.00267631 0.00265511 0.00263771 0.00262412 0.00261435 0.00260838 0.00260621 0.00260593 0.00260558 0.00260517 0.00260471 0.00260418 0.0026036 0.00260296 0.00260226 0.00259919 0.00259145 0.00257904 0.00256196 0.00254021 0.00251378 0.00248268 0.00244691 0.00240586 0.0023589 0.00230603 0.00224727 0.0021826 0.00211202 0.00203554 0.00195316 0.0018666 0.00177758 0.00168611 0.00159219 0.00149581 0.00139697 0.00129568 0.00119194 0.00108877 0.000989226 0.000893299 0.000800991 0.000712301 0.000627229 0.000545775 0.00046794 0.000395386 0.000329775 0.000271107 0.000219382 0.000174601 0.000136764 0.000105869 8.1918e-05 6.27185e-05 4.60789e-05 3.19992e-05 2.04795e-05 1.15197e-05 5.11988e-06 1.27997e-06 0 0 3.13702e-06 1.25481e-05 2.82332e-05 5.01924e-05 7.84256e-05 0.000112933 0.000153714 0.000200769 0.000257724 0.000328203 0.000412206 0.000509733 0.000620785 0.00074536 0.000883461 0.00103508 0.00119602 0.00136204 0.00153316 0.00170937 0.00189068 0.00207707 0.00226856 0.00246514 0.00266074 0.00284927 0.00303075 0.00320516 0.00337251 0.00353279 0.00368602 0.00383218 0.00396823 0.00409112 0.00420084 0.00429739 0.00438078 0.004451 0.00450806 0.00455195 0.00458385 0.00460494 0.00461521 0.00461467 0.00460331 0.00458115 0.00454816 0.00450437 0.0044537 0.00440011 0.00434358 0.00428412 0.00422173 0.00415641 0.00408816 0.00401699 0.00394637 0.00387983 0.00381734 0.00375892 0.00370457 0.00365428 0.00360806 0.0035659 0.00352825 0.00349559 0.00346789 0.00344517 0.00342743 0.00341466 0.00340686 0.00340403 0.00340366 0.00340321 0.00340268 0.00340207 0.00340138 0.00340062 0.00339978 0.00339887 0.00339486 0.00338475 0.00336854 0.00334623 0.00331782 0.00328331 0.00324269 0.00319597 0.00314235 0.00308101 0.00301196 0.00293521 0.00285074 0.00275856 0.00265867 0.00255107 0.00243801 0.00232174 0.00220227 0.00207959 0.00195371 0.00182462 0.00169232 0.00155681 0.00142207 0.00129205 0.00116676 0.00104619 0.000930352 0.000819237 0.000712849 0.000611187 0.000516422 0.000430726 0.000354099 0.00028654 0.000228051 0.00017863 0.000138278 0.000106995 8.1918e-05 6.01847e-05 4.17949e-05 2.67487e-05 1.50462e-05 6.68718e-06 1.6718e-06 0 0 4.08067e-06 1.63227e-05 3.67261e-05 6.52908e-05 0.000102017 0.000146904 0.000199953 0.000261163 0.000335025 0.000426031 0.000534179 0.000659471 0.000801905 0.000961483 0.0011382 0.00133207 0.0015377 0.00174972 0.00196813 0.00219293 0.00242412 0.0026617 0.00290567 0.00315603 0.00340511 0.00364522 0.00387637 0.00409855 0.00431177 0.00451603 0.00471132 0.00489765 0.00507116 0.005228 0.00536817 0.00549167 0.00559849 0.00568864 0.00576212 0.00581893 0.00586054 0.00588844 0.00590262 0.0059031 0.00588986 0.0058629 0.00582223 0.00576785 0.00570472 0.00563782 0.00556714 0.00549268 0.00541444 0.00533243 0.00524665 0.00515708 0.00506816 0.00498427 0.00490544 0.00483165 0.00476291 0.00469921 0.00464057 0.00458696 0.00453899 0.00449722 0.00446165 0.00443229 0.00440914 0.00439219 0.00438145 0.00437692 0.00437541 0.00437376 0.00437196 0.00437002 0.00436793 0.00436569 0.00436331 0.00436078 0.00435432 0.00434013 0.00431822 0.00428858 0.00425122 0.00420613 0.00415331 0.00409277 0.00402349 0.00394447 0.00385571 0.0037572 0.00364895 0.00353095 0.00340321 0.00326573 0.00312135 0.00297291 0.00282041 0.00266386 0.00250324 0.00233857 0.00216985 0.00199706 0.00182523 0.00165935 0.00149943 0.00134547 0.00119747 0.00105543 0.000919342 0.000789215 0.000667822 0.000557938 0.000459562 0.000372695 0.000297336 0.000233486 0.000181145 0.000140313 0.000107427 7.89258e-05 5.48096e-05 3.50781e-05 1.97315e-05 8.76953e-06 2.19238e-06 0 0 5.34311e-06 2.13724e-05 4.8088e-05 8.54898e-05 0.000133578 0.000192352 0.000261812 0.000341959 0.000438068 0.000555413 0.000693997 0.000853817 0.00103488 0.00123717 0.0014607 0.00170547 0.00196473 0.00223172 0.00250645 0.00278892 0.00307912 0.00337706 0.00368273 0.00399614 0.00430785 0.00460843 0.00489786 0.00517616 0.00544331 0.00569933 0.00594422 0.00617796 0.00639583 0.0065931 0.00676975 0.00692579 0.00706123 0.00717606 0.00727028 0.00734389 0.00739869 0.00743648 0.00745727 0.00746105 0.00744782 0.00741759 0.00737035 0.0073061 0.00723092 0.0071509 0.00706602 0.00697629 0.00688172 0.00678229 0.00667801 0.00656889 0.00646031 0.0063577 0.00626105 0.00617036 0.00608564 0.00600687 0.00593407 0.00586722 0.00580706 0.00575432 0.00570899 0.00567107 0.00564057 0.00561748 0.00560181 0.00559354 0.00558883 0.00558381 0.00557847 0.00557282 0.00556686 0.00556059 0.005554 0.0055471 0.00553527 0.0055139 0.00548297 0.00544251 0.00539249 0.00533293 0.00526383 0.00518517 0.00509575 0.00499435 0.00488095 0.00475558 0.00461821 0.00446886 0.00430751 0.00413419 0.00395236 0.00376553 0.00357369 0.00337685 0.003175 0.00296813 0.00275627 0.00253939 0.00232366 0.00211522 0.00191407 0.00172021 0.00153365 0.00135438 0.0011824 0.00101771 0.000863811 0.000724209 0.000598901 0.000487887 0.000391166 0.00030874 0.000240607 0.000186768 0.000142994 0.000105057 7.29562e-05 4.6692e-05 2.62642e-05 1.1673e-05 2.91825e-06 0 0 6.92434e-06 2.76974e-05 6.23191e-05 0.000110789 0.000173109 0.000249276 0.000339293 0.000443158 0.000566851 0.000716351 0.000891658 0.00109277 0.00131969 0.00157242 0.00185096 0.0021553 0.00247711 0.00280806 0.00314813 0.00349734 0.00385567 0.00422314 0.00459974 0.00498547 0.00536897 0.00573889 0.00609522 0.00643797 0.00676713 0.00708271 0.00738471 0.00767311 0.00794224 0.0081864 0.00840557 0.00859978 0.008769 0.00891325 0.00903253 0.00912683 0.00919829 0.00924906 0.00927914 0.00928853 0.00927722 0.00924521 0.00919252 0.00911912 0.00903231 0.00893935 0.00884023 0.00873497 0.00862355 0.00850598 0.00838226 0.00825239 0.00812285 0.00800011 0.00788419 0.00777507 0.00767276 0.00757725 0.00748856 0.00740667 0.00733248 0.00726689 0.0072099 0.00716151 0.00712172 0.00709052 0.00706792 0.00705392 0.00704393 0.00703336 0.00702221 0.00701049 0.00699819 0.00698531 0.00697185 0.00695781 0.00693771 0.00690604 0.00686281 0.00680801 0.00674165 0.00666373 0.00657424 0.00647319 0.00635914 0.00623064 0.00608771 0.00593034 0.00575852 0.00557227 0.00537157 0.00515644 0.00493105 0.00469962 0.00446212 0.00421857 0.00396896 0.0037133 0.00345158 0.00318381 0.00291737 0.00265966 0.00241068 0.00217042 0.00193889 0.00171609 0.00150201 0.00129666 0.00110439 0.000929541 0.000772117 0.000632117 0.000509541 0.00040439 0.000316663 0.000246361 0.00018862 0.000138578 9.62348e-05 6.15903e-05 3.46445e-05 1.53976e-05 3.84939e-06 0 0 8.82436e-06 3.52974e-05 7.94192e-05 0.00014119 0.000220609 0.000317677 0.000432394 0.000564759 0.000721375 0.000908843 0.00112716 0.00137634 0.00165636 0.00196724 0.00230897 0.00268155 0.00307485 0.00347872 0.00389317 0.00431819 0.00475378 0.00519995 0.00565669 0.00612401 0.00658846 0.00703661 0.00746845 0.00788399 0.00828323 0.00866616 0.00903279 0.00938311 0.00971039 0.0100079 0.0102756 0.0105136 0.0107218 0.0109002 0.0110489 0.0111678 0.0112594 0.0113262 0.0113682 0.0113855 0.011378 0.0113458 0.0112887 0.0112069 0.0111089 0.0110032 0.0108898 0.0107687 0.0106399 0.0105035 0.0103594 0.0102076 0.0100558 0.00991151 0.00977484 0.00964576 0.00952427 0.00941036 0.00930404 0.0092053 0.00911524 0.00903494 0.00896439 0.0089036 0.00885257 0.0088113 0.00877979 0.00875804 0.00874069 0.00872241 0.00870318 0.00868301 0.0086619 0.00863985 0.00861686 0.00859293 0.00856164 0.00851657 0.00845772 0.00838509 0.00829869 0.00819851 0.00808455 0.00795681 0.00781364 0.00765335 0.00747597 0.00728148 0.00706988 0.00684119 0.00659539 0.00633248 0.00605742 0.00577516 0.00548569 0.00518902 0.00488515 0.00457408 0.0042558 0.00393031 0.00360636 0.00329267 0.00298925 0.00269609 0.00241319 0.00214056 0.00187819 0.00162608 0.00138956 0.00117393 0.000979209 0.000805385 0.000652462 0.000520438 0.000409315 0.000319092 0.000244305 0.000179489 0.000124645 7.9773e-05 4.48723e-05 1.99432e-05 4.98581e-06 0 0 1.10432e-05 4.41727e-05 9.93885e-05 0.000176691 0.000276079 0.000397554 0.000541115 0.000706763 0.00090164 0.00113289 0.00140051 0.00170451 0.00204488 0.00242162 0.00283474 0.00328423 0.00375794 0.00424371 0.00474156 0.00525146 0.00577344 0.00630748 0.00685359 0.00741177 0.00796633 0.00850159 0.00901756 0.00951423 0.0099916 0.0104497 0.0108885 0.0113079 0.0117003 0.0120576 0.01238 0.0126673 0.0129196 0.013137 0.0133193 0.0134667 0.0135819 0.0136678 0.0137246 0.013752 0.0137503 0.0137193 0.013659 0.0135695 0.0134606 0.0133424 0.0132146 0.0130775 0.0129309 0.0127749 0.0126094 0.0124345 0.012259 0.0120919 0.011933 0.0117824 0.0116402 0.0115062 0.0113805 0.0112631 0.0111553 0.0110585 0.0109725 0.0108974 0.0108331 0.0107798 0.0107374 0.0107059 0.0106791 0.010651 0.0106214 0.0105904 0.010558 0.0105242 0.010489 0.0104524 0.0104071 0.0103455 0.0102677 0.0101738 0.0100636 0.00993728 0.00979476 0.00963605 0.00945925 0.00926248 0.00904573 0.00880901 0.0085523 0.00827562 0.00797896 0.00766232 0.00733146 0.00699216 0.00664441 0.00628821 0.00592355 0.00555045 0.0051689 0.0047789 0.00439063 0.00401426 0.00364979 0.00329722 0.00295655 0.00262779 0.00231093 0.00200596 0.00171931 0.00145739 0.00122018 0.00100769 0.000819927 0.000656883 0.000518561 0.000404961 0.000310048 0.00022779 0.000158188 0.00010124 5.69476e-05 2.531e-05 6.32751e-06 0 0 1.35808e-05 5.43231e-05 0.000122227 0.000217292 0.000339519 0.000488908 0.000665457 0.000869169 0.00110765 0.00138849 0.00171171 0.00207729 0.00248525 0.00293557 0.00342826 0.00396333 0.00452638 0.00510304 0.0056933 0.00629717 0.00691465 0.00754574 0.00819044 0.00884874 0.00950256 0.0101338 0.0107425 0.0113287 0.0118923 0.0124333 0.0129517 0.0134476 0.0139119 0.0143355 0.0147185 0.0150608 0.0153625 0.0156235 0.0158439 0.0160235 0.0161659 0.016274 0.0163481 0.0163881 0.0163939 0.0163657 0.0163033 0.0162068 0.0160876 0.0159569 0.0158148 0.0156613 0.0154964 0.0153201 0.0151323 0.0149331 0.0147327 0.0145412 0.0143587 0.0141851 0.0140205 0.0138647 0.013718 0.0135801 0.0134528 0.0133374 0.0132341 0.0131428 0.0130634 0.0129961 0.0129408 0.0128975 0.0128592 0.012819 0.0127768 0.0127326 0.0126865 0.0126384 0.0125884 0.0125364 0.012474 0.0123928 0.0122928 0.012174 0.0120364 0.01188 0.0117049 0.0115109 0.011296 0.011058 0.010797 0.0105129 0.0102058 0.00987555 0.00952228 0.00914594 0.00875318 0.00835062 0.00793827 0.00751612 0.00708418 0.00664244 0.00619091 0.00572958 0.00527018 0.00482442 0.00439229 0.00397381 0.00356898 0.00317778 0.00280022 0.00243631 0.00209366 0.0017799 0.00149502 0.00123904 0.00101194 0.000813726 0.000644402 0.000503967 0.00038585 0.000283481 0.000196862 0.000125992 7.08703e-05 3.14979e-05 7.87448e-06 0 0 1.64372e-05 6.57486e-05 0.000147934 0.000262994 0.000410929 0.000591737 0.00080542 0.00105198 0.00133939 0.00167565 0.00206075 0.00249468 0.00297746 0.00350908 0.00408954 0.00471885 0.00538017 0.00605669 0.0067484 0.00745531 0.00817742 0.00891473 0.00966723 0.0104349 0.0111972 0.0119333 0.0126434 0.0133273 0.0139852 0.0146169 0.0152226 0.0158022 0.0163453 0.0168417 0.0172913 0.0176942 0.0180504 0.0183598 0.0186225 0.0188384 0.0190113 0.0191448 0.0192389 0.0192937 0.019309 0.0192851 0.0192217 0.019119 0.0189897 0.0188468 0.0186904 0.0185202 0.0183365 0.0181391 0.0179281 0.0177034 0.0174768 0.0172596 0.0170519 0.0168538 0.0166651 0.016486 0.0163164 0.0161563 0.0160076 0.0158719 0.0157493 0.0156398 0.0155434 0.0154602 0.01539 0.0153329 0.015281 0.0152266 0.0151695 0.0151097 0.0150474 0.0149824 0.0149149 0.0148447 0.0147624 0.0146584 0.0145329 0.0143858 0.0142171 0.0140268 0.0138149 0.0135813 0.0133238 0.01304 0.0127298 0.0123932 0.0120303 0.011641 0.0112254 0.0107834 0.0103226 0.00985054 0.00936727 0.00887276 0.00836701 0.00785003 0.0073218 0.00678234 0.006245 0.00572314 0.00521677 0.00472587 0.00425046 0.00379053 0.00334608 0.00291712 0.00251259 0.00214147 0.00180374 0.00149942 0.00122849 0.000990966 0.000786839 0.000616111 0.00047171 0.000346562 0.000240668 0.000154028 8.66406e-05 3.85069e-05 9.62673e-06 0 0 1.96123e-05 7.84493e-05 0.000176511 0.000313797 0.000490308 0.000706044 0.000961004 0.00125519 0.00159688 0.00199436 0.00244763 0.00295668 0.00352153 0.00414216 0.00481858 0.00555079 0.00631931 0.00710467 0.00790686 0.00872588 0.00956174 0.0104144 0.011284 0.0121703 0.0130502 0.0139001 0.0147201 0.0155102 0.0162704 0.0170007 0.017701 0.0183715 0.0190004 0.019576 0.0200984 0.0205675 0.0209833 0.0213459 0.0216552 0.0219113 0.0221182 0.0222801 0.0223969 0.0224688 0.0224956 0.0224774 0.0224141 0.0223058 0.022167 0.0220121 0.0218412 0.0216542 0.0214511 0.021232 0.0209967 0.0207455 0.0204912 0.0202469 0.0200126 0.0197884 0.0195742 0.01937 0.0191759 0.0189917 0.0188197 0.0186618 0.0185181 0.0183886 0.0182732 0.0181719 0.0180849 0.018012 0.0179445 0.0178736 0.0177993 0.0177217 0.0176407 0.0175563 0.0174685 0.0173774 0.0172722 0.0171425 0.0169882 0.0168092 0.0166057 0.0163775 0.0161248 0.0158474 0.0155428 0.0152084 0.0148441 0.0144499 0.0140259 0.013572 0.0130882 0.0125746 0.0120396 0.0114919 0.0109314 0.0103581 0.00977207 0.00917322 0.0085616 0.00793719 0.0073151 0.00671044 0.00612321 0.00555339 0.00500101 0.00446604 0.00394851 0.00344839 0.00297612 0.0025421 0.00214634 0.00178884 0.00146959 0.0011886 0.000945869 0.000741393 0.000567629 0.000417033 0.000289607 0.000185348 0.000104258 4.63371e-05 1.15843e-05 0 0 2.3124e-05 9.24959e-05 0.000208116 0.000369984 0.0005781 0.000832463 0.00113308 0.00147993 0.00188151 0.00234626 0.00287419 0.00346529 0.00411958 0.00483704 0.00561768 0.0064615 0.00734615 0.00824927 0.00917087 0.0101109 0.0110695 0.0120465 0.013042 0.014056 0.0150622 0.0160345 0.0169728 0.0178771 0.0187475 0.0195839 0.0203863 0.0211548 0.0218762 0.0225375 0.0231386 0.0236796 0.0241605 0.0245812 0.0249418 0.0252423 0.0254872 0.0256811 0.0258239 0.0259157 0.0259565 0.0259463 0.0258851 0.0257729 0.0256257 0.0254599 0.0252753 0.0250719 0.0248498 0.0246089 0.0243493 0.024071 0.0237884 0.0235163 0.0232545 0.0230032 0.0227622 0.0225316 0.0223114 0.0221016 0.0219046 0.0217226 0.0215558 0.0214042 0.0212676 0.0211462 0.0210399 0.0209488 0.020863 0.0207731 0.0206788 0.0205803 0.0204775 0.0203705 0.0202592 0.0201437 0.0200121 0.0198528 0.0196657 0.0194508 0.0192082 0.0189378 0.0186396 0.0183136 0.017957 0.0175669 0.0171433 0.0166861 0.0161954 0.0156712 0.0151135 0.0145222 0.013907 0.0132773 0.0126333 0.0119748 0.011302 0.0106147 0.00991306 0.00919699 0.00848343 0.00778932 0.00711464 0.00645941 0.00582361 0.00520725 0.00461033 0.00403285 0.00348681 0.00298421 0.00252505 0.00210933 0.00173706 0.00140823 0.00112284 0.000880898 0.000674438 0.000495505 0.000344101 0.000220225 0.000123876 5.50562e-05 1.3764e-05 0 0 2.69898e-05 0.000107959 0.000242908 0.000431837 0.000674745 0.000971633 0.0013225 0.00172735 0.00219467 0.00273298 0.00334226 0.00402252 0.00477375 0.00559597 0.00648916 0.00745333 0.00846303 0.0094928 0.0105426 0.0116126 0.0127026 0.0138126 0.0149428 0.016093 0.0172341 0.018337 0.0194017 0.020428 0.0214162 0.022366 0.0232777 0.0241511 0.0249717 0.025725 0.026411 0.0270297 0.0275812 0.0280653 0.0284822 0.0288317 0.029119 0.0293489 0.0295216 0.029637 0.029695 0.0296958 0.0296393 0.0295254 0.0293721 0.0291971 0.0290004 0.028782 0.028542 0.0282802 0.0279968 0.0276917 0.027381 0.0270809 0.0267913 0.0265122 0.0262436 0.0259856 0.0257382 0.0255013 0.0252776 0.0250698 0.0248779 0.0247019 0.0245419 0.0243977 0.0242695 0.0241572 0.0240501 0.0239378 0.0238202 0.0236973 0.0235691 0.0234356 0.0232968 0.0231527 0.0229904 0.0227971 0.0225727 0.0223172 0.0220306 0.021713 0.0213643 0.0209846 0.0205707 0.0201194 0.0196309 0.0191051 0.018542 0.0179416 0.0173039 0.0166288 0.0159271 0.0152093 0.0144755 0.0137255 0.0129594 0.0121772 0.011379 0.0105646 0.00975295 0.00896278 0.00819412 0.00744694 0.00672127 0.00601708 0.0053344 0.00467321 0.00404723 0.0034702 0.0029421 0.00246294 0.00203273 0.00165145 0.00131911 0.00103571 0.000792968 0.000582589 0.000404576 0.000258928 0.000145647 6.47321e-05 1.6183e-05 0 0 3.12098e-05 0.000124839 0.000280888 0.000499357 0.000780245 0.00112355 0.00152928 0.00199743 0.00253638 0.00315451 0.00385184 0.00462835 0.00548405 0.00641894 0.00743301 0.00852627 0.00966994 0.0108352 0.0120222 0.0132307 0.0144609 0.0157128 0.0169862 0.0182813 0.0195658 0.0208076 0.0220066 0.0231629 0.0242764 0.0253471 0.0263751 0.0273603 0.0282868 0.0291385 0.0299155 0.0306178 0.0312453 0.0317981 0.0322762 0.0326795 0.0330135 0.0332837 0.03349 0.0336324 0.033711 0.0337257 0.0336765 0.0335635 0.0334061 0.0332238 0.0330167 0.0327846 0.0325277 0.0322459 0.0319392 0.0316077 0.0312689 0.0309406 0.0306228 0.0303154 0.0300185 0.0297321 0.0294562 0.0291907 0.0289387 0.0287032 0.0284843 0.0282818 0.0280959 0.0279265 0.0277735 0.0276372 0.0275058 0.0273679 0.0272236 0.0270727 0.0269154 0.0267516 0.0265813 0.0264045 0.0262072 0.0259754 0.0257091 0.0254084 0.0250731 0.0247033 0.0242991 0.0238603 0.0233837 0.0228659 0.0223069 0.0217068 0.0210655 0.020383 0.0196593 0.0188945 0.0181002 0.017288 0.0164579 0.01561 0.0147443 0.0138607 0.0129593 0.01204 0.0111236 0.0102308 0.00936162 0.008516 0.00769398 0.00689555 0.00612071 0.00536947 0.00465739 0.00400007 0.00339749 0.00284966 0.00235659 0.00191825 0.00153467 0.00120584 0.00092322 0.000678284 0.000471031 0.00030146 0.000169571 7.53649e-05 1.88412e-05 0 0 3.5784e-05 0.000143136 0.000322056 0.000572543 0.000894599 0.00128822 0.00175341 0.00229017 0.00290662 0.00361087 0.00440293 0.0052828 0.00625047 0.00730595 0.00844923 0.00968032 0.0109669 0.0122766 0.0136095 0.0149655 0.0163446 0.0177469 0.0191724 0.020621 0.0220574 0.0234463 0.0247877 0.0260817 0.0273281 0.0285271 0.0296786 0.0307825 0.0318215 0.0327781 0.0336522 0.0344438 0.035153 0.0357797 0.0363239 0.0367857 0.0371709 0.0374853 0.0377291 0.0379021 0.0380044 0.038036 0.0379969 0.0378871 0.0377277 0.03754 0.037324 0.0370796 0.0368069 0.0365059 0.0361766 0.0358189 0.0354521 0.0350955 0.0347491 0.0344129 0.0340869 0.033771 0.0334654 0.0331699 0.032888 0.032623 0.0323749 0.0321438 0.0319297 0.0317324 0.0315521 0.0313888 0.03123 0.0310633 0.0308888 0.0307065 0.0305164 0.0303184 0.0301127 0.029899 0.0296625 0.0293878 0.0290751 0.0287244 0.0283355 0.0279087 0.0274437 0.0269407 0.0263961 0.0258063 0.0251713 0.0244912 0.023766 0.0229955 0.0221799 0.0213192 0.020426 0.0195132 0.0185807 0.0176285 0.0166567 0.0156652 0.0146541 0.0136233 0.0125955 0.0115935 0.0106172 0.00966658 0.00874174 0.00784264 0.00696927 0.00612163 0.00531729 0.00457383 0.00389123 0.0032695 0.00270864 0.00220865 0.00176953 0.00139127 0.00106519 0.000782591 0.000543466 0.000347818 0.000195648 8.69546e-05 2.17386e-05 0 0 4.07123e-05 0.000162849 0.000366411 0.000651397 0.00101781 0.00146564 0.0019949 0.00260559 0.0033054 0.00410205 0.00499553 0.00598586 0.00707301 0.008257 0.00953783 0.0109155 0.0123539 0.0138169 0.0153045 0.0168168 0.0183536 0.0199151 0.0215012 0.0231119 0.0247087 0.0262531 0.027745 0.0291844 0.0305714 0.031906 0.0331881 0.0344178 0.035576 0.0366437 0.037621 0.0385077 0.0393041 0.0400099 0.0406253 0.0411502 0.041591 0.0419539 0.0422389 0.0424461 0.0425754 0.0426268 0.0426004 0.0424962 0.042337 0.0421457 0.0419224 0.0416671 0.0413797 0.0410603 0.0407088 0.0403253 0.0399306 0.0395456 0.0391703 0.0388046 0.0384487 0.0381024 0.0377658 0.0374389 0.0371254 0.0368291 0.0365499 0.036288 0.0360432 0.0358156 0.0356052 0.035412 0.0352227 0.035024 0.0348161 0.0345988 0.0343722 0.0341362 0.0338909 0.0336363 0.0333562 0.0330343 0.0326706 0.0322652 0.031818 0.031329 0.0307983 0.0302258 0.0296079 0.0289406 0.0282242 0.0274584 0.0266434 0.0257792 0.0248657 0.0239029 0.0229047 0.021885 0.0208438 0.019781 0.0186966 0.0175908 0.0164633 0.0153143 0.0141686 0.0130507 0.0119607 0.0108987 0.00986457 0.00885836 0.00788007 0.0069297 0.00602693 0.00519147 0.00442331 0.00372245 0.00308889 0.00252263 0.00202367 0.00159202 0.00121889 0.00089551 0.000621882 0.000398004 0.000223877 9.95011e-05 2.48753e-05 0 0 4.59948e-05 0.000183979 0.000413953 0.000735916 0.00114987 0.00165581 0.00225374 0.00294367 0.00373272 0.00462805 0.00562965 0.00673753 0.00795168 0.0092721 0.0106988 0.0122318 0.0138309 0.0154561 0.0171073 0.01878