<?xml version="1.0"?> 
<VTKFile type="StructuredGrid" version="0.1"> 
<StructuredGrid WholeExtent="0 128 0 128 0 0"> 
<Piece Extent="0 128 0 128 0 0"> 
<PointData>
<DataArray type="Float32" Name="u" format="ascii" NumberOfComponents="1"> 
0 0 0 0 0 0 0 0 0 0 0 0 0 0 0 0 0 0 0 0 0 0 0 0 0 0 0 0 0 0 0 0 0 0 0 0 0 0 0 0 0 0 0 0 0 0 0 0 0 0 0 0 0 0 0 0 0 0 0 0 0 0 0 0 0 0 0 0 0 0 0 0 0 0 0 0 0 0 0 0 0 0 0 0 0 0 0 0 0 0 0 0 0 0 0 0 0 0 0 0 0 0 0 0 0 0 0 0 0 0 0 0 0 0 0 0 0 0 0 0 0 0 0 0 0 0 0 0 0 0 1.86317e-07 7.45266e-07 1.67685e-06 2.98106e-06 4.65791e-06 6.7074e-06 9.12951e-06 1.19243e-05 1.5146e-05 1.88492e-05 2.30338e-05 2.76999e-05 3.28473e-05 3.84762e-05 4.45865e-05 5.11781e-05 5.80748e-05 6.50999e-05 7.22534e-05 7.95354e-05 8.69458e-05 9.44847e-05 0.000102152 0.000109948 0.000117708 0.000125267 0.000132626 0.000139784 0.000146742 0.000153499 0.000160056 0.000166413 0.000172492 0.000178217 0.000183587 0.000188603 0.000193265 0.000197572 0.000201525 0.000205123 0.000208363 0.000211239 0.000213751 0.0002159 0.000217685 0.000219107 0.000220165 0.00022086 0.000221229 0.000221311 0.000221107 0.000220615 0.000219837 0.000218771 0.000217419 0.000215779 0.000213905 0.000211847 0.000209606 0.000207182 0.000204575 0.000201785 0.000198811 0.000195654 0.000192359 0.000188971 0.000185489 0.000181914 0.000178245 0.000174483 0.000170628 0.000166679 0.000162667 0.000158621 0.000154541 0.000150429 0.000146282 0.000142103 0.000137889 0.000133643 0.000129381 0.000125121 0.000120865 0.000116611 0.00011236 0.000108111 0.000103866 9.9623e-05 9.53981e-05 9.12063e-05 8.70476e-05 8.2922e-05 7.88295e-05 7.47701e-05 7.07438e-05 6.67506e-05 6.28122e-05 5.89501e-05 5.51644e-05 5.1455e-05 4.78221e-05 4.42655e-05 4.07852e-05 3.73814e-05 3.40866e-05 3.09334e-05 2.7922e-05 2.50523e-05 2.23243e-05 1.9738e-05 1.72934e-05 1.49905e-05 1.28505e-05 1.08949e-05 9.12357e-06 7.53651e-06 6.13374e-06 4.91525e-06 3.88104e-06 3.03112e-06 2.3207e-06 1.705e-06 1.18403e-06 7.57779e-07 4.26251e-07 1.89445e-07 4.73612e-08 0 0 7.45266e-07 2.98106e-06 6.7074e-06 1.19243e-05 1.86317e-05 2.68296e-05 3.6518e-05 4.7697e-05 6.05841e-05 7.53969e-05 9.21353e-05 0.000110799 0.000131389 0.000153905 0.000178346 0.000204713 0.000232299 0.000260399 0.000289014 0.000318142 0.000347783 0.000377939 0.000408608 0.000439792 0.000470831 0.000501068 0.000530503 0.000559137 0.000586968 0.000613998 0.000640226 0.000665652 0.000689968 0.000712866 0.000734348 0.000754412 0.000773058 0.000790287 0.000806099 0.000820493 0.000833451 0.000844955 0.000855005 0.0008636 0.000870741 0.000876428 0.000880661 0.000883439 0.000884916 0.000885246 0.000884427 0.000882461 0.000879347 0.000875085 0.000869675 0.000863117 0.000855619 0.000847388 0.000838425 0.000828729 0.0008183 0.000807139 0.000795244 0.000782618 0.000769438 0.000755884 0.000741957 0.000727656 0.000712981 0.000697933 0.000682511 0.000666715 0.000650666 0.000634483 0.000618166 0.000601715 0.00058513 0.000568411 0.000551558 0.000534571 0.000517522 0.000500485 0.000483459 0.000466443 0.000449439 0.000432446 0.000415463 0.000398492 0.000381592 0.000364825 0.00034819 0.000331688 0.000315318 0.00029908 0.000282975 0.000267002 0.000251249 0.0002358 0.000220657 0.00020582 0.000191288 0.000177062 0.000163141 0.000149526 0.000136346 0.000123734 0.000111688 0.000100209 8.92972e-05 7.89519e-05 6.91735e-05 5.99618e-05 5.14022e-05 4.35797e-05 3.64943e-05 3.0146e-05 2.45349e-05 1.9661e-05 1.55242e-05 1.21245e-05 9.2828e-06 6.82001e-06 4.73612e-06 3.03112e-06 1.705e-06 7.57779e-07 1.89445e-07 0 0 1.67685e-06 6.7074e-06 1.50916e-05 2.68296e-05 4.19212e-05 6.03666e-05 8.21656e-05 0.000107318 0.000136314 0.000169643 0.000207305 0.000249299 0.000295626 0.000346286 0.000401278 0.000460603 0.000522673 0.000585899 0.000650281 0.000715819 0.000782513 0.000850363 0.000919369 0.000989531 0.00105937 0.0011274 0.00119363 0.00125806 0.00132068 0.0013815 0.00144051 0.00149772 0.00155243 0.00160395 0.00165228 0.00169743 0.00173938 0.00177815 0.00181372 0.00184611 0.00187527 0.00190115 0.00192376 0.0019431 0.00195917 0.00197196 0.00198149 0.00198774 0.00199106 0.0019918 0.00198996 0.00198554 0.00197853 0.00196894 0.00195677 0.00194201 0.00192514 0.00190662 0.00188646 0.00186464 0.00184118 0.00181606 0.0017893 0.00176089 0.00173123 0.00170074 0.0016694 0.00163723 0.00160421 0.00157035 0.00153565 0.00150011 0.001464 0.00142759 0.00139087 0.00135386 0.00131654 0.00127892 0.001241 0.00120278 0.00116443 0.00112609 0.00108778 0.0010495 0.00101124 0.000973003 0.000934792 0.000896607 0.000858583 0.000820856 0.000783428 0.000746298 0.000709465 0.000672931 0.000636694 0.000600755 0.000565309 0.000530551 0.000496479 0.000463095 0.000430399 0.000398389 0.000367067 0.000336432 0.000306779 0.000278401 0.000251298 0.000225471 0.000200919 0.000177642 0.00015564 0.000134914 0.000115655 9.80542e-05 8.21121e-05 6.78286e-05 5.52036e-05 4.42372e-05 3.49294e-05 2.72801e-05 2.08863e-05 1.5345e-05 1.06563e-05 6.82001e-06 3.83626e-06 1.705e-06 4.26251e-07 0 0 2.98106e-06 1.19243e-05 2.68296e-05 4.7697e-05 7.45266e-05 0.000107318 0.000146072 0.000190788 0.000242337 0.000301588 0.000368541 0.000443198 0.000525557 0.000615619 0.000713383 0.00081885 0.000929197 0.0010416 0.00115605 0.00127257 0.00139113 0.00151176 0.00163443 0.00175917 0.00188332 0.00200427 0.00212201 0.00223655 0.00234787 0.00245599 0.0025609 0.00266261 0.00275987 0.00285147 0.00293739 0.00301765 0.00309223 0.00316115 0.00322439 0.00328197 0.0033338 0.00337982 0.00342002 0.0034544 0.00348297 0.00350571 0.00352264 0.00353376 0.00353966 0.00354098 0.00353771 0.00352984 0.00351739 0.00350034 0.0034787 0.00345247 0.00342248 0.00338955 0.0033537 0.00331492 0.0032732 0.00322855 0.00318098 0.00313047 0.00307775 0.00302354 0.00296783 0.00291062 0.00285192 0.00279173 0.00273004 0.00266686 0.00260266 0.00253793 0.00247266 0.00240686 0.00234052 0.00227364 0.00220623 0.00213828 0.00207009 0.00200194 0.00193383 0.00186577 0.00179776 0.00172978 0.00166185 0.00159397 0.00152637 0.0014593 0.00139276 0.00132675 0.00126127 0.00119632 0.0011319 0.00106801 0.00100499 0.000943201 0.00088263 0.00082328 0.000765153 0.000708247 0.000652564 0.000598102 0.000545385 0.000494935 0.000446752 0.000400837 0.000357189 0.000315808 0.000276694 0.000239847 0.000205609 0.000174319 0.000145977 0.000120584 9.81398e-05 7.86439e-05 6.20966e-05 4.84979e-05 3.71312e-05 2.72801e-05 1.89445e-05 1.21245e-05 6.82001e-06 3.03112e-06 7.57779e-07 0 0 4.65791e-06 1.86317e-05 4.19212e-05 7.45266e-05 0.000116448 0.000167685 0.000228238 0.000298106 0.000378651 0.000471231 0.000575846 0.000692497 0.000821183 0.000961904 0.00111466 0.00127945 0.00145187 0.0016275 0.00180634 0.00198839 0.00217365 0.00236212 0.0025538 0.0027487 0.00294269 0.00313168 0.00331565 0.00349461 0.00366855 0.00383749 0.00400141 0.00416032 0.0043123 0.00445542 0.00458967 0.00471507 0.00483161 0.00493929 0.00503812 0.00512808 0.00520907 0.00528097 0.00534378 0.0053975 0.00544213 0.00547768 0.00550413 0.00552149 0.00553073 0.00553278 0.00552767 0.00551538 0.00549592 0.00546928 0.00543547 0.00539448 0.00534762 0.00529618 0.00524016 0.00517956 0.00511438 0.00504462 0.00497028 0.00489136 0.00480898 0.00472427 0.00463723 0.00454785 0.00445613 0.00436208 0.00426569 0.00416697 0.00406666 0.00396552 0.00386354 0.00376072 0.00365706 0.00355257 0.00344724 0.00334107 0.00323451 0.00312803 0.00302162 0.00291527 0.00280899 0.00270278 0.00259665 0.00249057 0.00238495 0.00228016 0.00217619 0.00207305 0.00197074 0.00186925 0.00176859 0.00166877 0.0015703 0.00147375 0.00137911 0.00128638 0.00119555 0.00110664 0.00101963 0.000934534 0.000852164 0.000773336 0.00069805 0.000626308 0.000558107 0.000493449 0.000432334 0.000374761 0.000321264 0.000272373 0.000228089 0.000188413 0.000153343 0.000122881 9.7026e-05 7.57779e-05 5.80175e-05 4.26251e-05 2.96008e-05 1.89445e-05 1.06563e-05 4.73612e-06 1.18403e-06 0 0 6.7074e-06 2.68296e-05 6.03666e-05 0.000107318 0.000167685 0.000241466 0.000328662 0.000429273 0.000545257 0.000678572 0.000829218 0.000997195 0.0011825 0.00138514 0.00160511 0.00184241 0.00209069 0.0023436 0.00260112 0.00286327 0.00313005 0.00340145 0.00367748 0.00395812 0.00423748 0.00450961 0.00477453 0.00503223 0.00528272 0.00552598 0.00576203 0.00599086 0.00620971 0.0064158 0.00660913 0.0067897 0.00695752 0.00711258 0.00725489 0.00738444 0.00750106 0.0076046 0.00769504 0.0077724 0.00783667 0.00788785 0.00792595 0.00795095 0.00796425 0.00796721 0.00795984 0.00794215 0.00791412 0.00787576 0.00782707 0.00776805 0.00770057 0.00762649 0.00754582 0.00745856 0.0073647 0.00726425 0.0071572 0.00704356 0.00692494 0.00680295 0.00667761 0.0065489 0.00641683 0.0062814 0.0061426 0.00600044 0.005856 0.00571035 0.00556349 0.00541543 0.00526617 0.0051157 0.00496402 0.00481114 0.0046577 0.00450437 0.00435113 0.00419799 0.00404495 0.00389201 0.00373917 0.00358643 0.00343433 0.00328343 0.00313371 0.00298519 0.00283786 0.00269172 0.00254678 0.00240302 0.00226124 0.0021222 0.00198592 0.00185238 0.00172159 0.00159356 0.00146827 0.00134573 0.00122712 0.0011136 0.00100519 0.000901883 0.000803674 0.000710567 0.000622561 0.000539657 0.00046262 0.000392217 0.000328449 0.000271314 0.000220815 0.000176949 0.000139717 0.00010912 8.35452e-05 6.13801e-05 4.26251e-05 2.72801e-05 1.5345e-05 6.82001e-06 1.705e-06 0 0 9.12951e-06 3.6518e-05 8.21656e-05 0.000146072 0.000228238 0.000328662 0.000447346 0.000584289 0.000742156 0.000923612 0.00112866 0.00135729 0.00160952 0.00188533 0.00218474 0.00250773 0.00284566 0.00318989 0.00354042 0.00389723 0.00426035 0.00462975 0.00500545 0.00538745 0.00576768 0.00613808 0.00649867 0.00684943 0.00719036 0.00752148 0.00784277 0.00815423 0.0084521 0.00873261 0.00899576 0.00924154 0.00946996 0.00968102 0.00987471 0.010051 0.0102098 0.0103507 0.0104738 0.0105791 0.0106666 0.0107362 0.0107881 0.0108221 0.0108402 0.0108443 0.0108342 0.0108101 0.010772 0.0107198 0.0106535 0.0105732 0.0104813 0.0103805 0.0102707 0.0101519 0.0100242 0.00988745 0.00974174 0.00958707 0.00942561 0.00925958 0.00908897 0.00891378 0.00873402 0.00854968 0.00836076 0.00816726 0.00797066 0.00777242 0.00757253 0.00737101 0.00716784 0.00696303 0.00675658 0.00654849 0.00633965 0.00613094 0.00592237 0.00571393 0.00550563 0.00529746 0.00508942 0.00488153 0.00467451 0.00446911 0.00426533 0.00406318 0.00386264 0.00366373 0.00346645 0.00327078 0.0030778 0.00288855 0.00270305 0.0025213 0.00234328 0.00216901 0.00199848 0.00183169 0.00167024 0.00151574 0.00136818 0.00122756 0.00109389 0.000967161 0.000847375 0.000734533 0.000629677 0.000533851 0.000447055 0.000369289 0.000300553 0.000240847 0.000190171 0.000148525 0.000113714 8.35452e-05 5.80175e-05 3.71312e-05 2.08863e-05 9.2828e-06 2.3207e-06 0 0 1.19243e-05 4.7697e-05 0.000107318 0.000190788 0.000298106 0.000429273 0.000584289 0.000763153 0.000969346 0.00120635 0.00147417 0.00177279 0.00210223 0.00246247 0.00285353 0.0032754 0.00371679 0.00416639 0.00462422 0.00509027 0.00556453 0.00604702 0.00653773 0.00703667 0.00753329 0.00801709 0.00848805 0.00894619 0.00939149 0.00982397 0.0102436 0.0106504 0.0110395 0.0114059 0.0117496 0.0120706 0.0123689 0.0126446 0.0128976 0.0131279 0.0133352 0.0135193 0.0136801 0.0138176 0.0139319 0.0140229 0.0140906 0.014135 0.0141587 0.0141639 0.0141508 0.0141194 0.0140695 0.0140014 0.0139148 0.0138099 0.0136899 0.0135582 0.0134148 0.0132597 0.0130928 0.0129142 0.0127239 0.0125219 0.012311 0.0120941 0.0118713 0.0116425 0.0114077 0.0111669 0.0109202 0.0106674 0.0104107 0.0101517 0.00989065 0.00962744 0.00936207 0.00909457 0.00882492 0.00855313 0.00828036 0.00800776 0.00773534 0.00746309 0.00719102 0.00691913 0.00664741 0.00637587 0.00610548 0.0058372 0.00557104 0.00530701 0.00504509 0.00478528 0.0045276 0.00427204 0.00401998 0.0037728 0.00353052 0.00329312 0.00306061 0.00283299 0.00261025 0.00239241 0.00218154 0.00197974 0.00178701 0.00160335 0.00142875 0.00126323 0.00110678 0.000959389 0.000822435 0.000697275 0.000583909 0.000482337 0.000392559 0.000314576 0.000248387 0.000193992 0.000148525 0.00010912 7.57779e-05 4.84979e-05 2.72801e-05 1.21245e-05 3.03112e-06 0 0 1.51728e-05 6.0691e-05 0.000136555 0.000242764 0.000379319 0.000546219 0.000743465 0.000971056 0.00123326 0.00153432 0.00187426 0.00225307 0.00267074 0.00312729 0.0036227 0.00415698 0.00471586 0.00528507 0.0058646 0.00645445 0.00705463 0.00766514 0.00828597 0.00891713 0.00954534 0.0101573 0.0107531 0.0113327 0.0118961 0.0124432 0.0129742 0.0134889 0.0139812 0.0144448 0.0148798 0.0152861 0.0156638 0.0160128 0.0163331 0.0166248 0.0168875 0.0171207 0.0173245 0.0174989 0.0176439 0.0177594 0.0178455 0.0179022 0.0179325 0.0179396 0.0179235 0.0178841 0.0178215 0.0177356 0.0176264 0.017494 0.0173426 0.0171763 0.0169951 0.0167991 0.0165882 0.0163624 0.0161218 0.0158663 0.0155996 0.0153253 0.0150434 0.0147539 0.0144568 0.0141521 0.0138399 0.01352 0.0131949 0.0128671 0.0125366 0.0122034 0.0118674 0.0115286 0.0111872 0.010843 0.0104975 0.0101523 0.00980726 0.00946245 0.00911785 0.00877346 0.00842929 0.00808533 0.00774282 0.00740299 0.00706585 0.00673138 0.0063996 0.0060705 0.00574408 0.00542035 0.00510105 0.00478793 0.00448099 0.00418023 0.00388566 0.00359727 0.00331506 0.00303904 0.00277183 0.00251607 0.00227175 0.00203889 0.00181748 0.00160751 0.001409 0.00122193 0.00104805 0.000889069 0.000745 0.000615839 0.000501587 0.000402244 0.00031781 0.000248284 0.000190093 0.00013966 9.69861e-05 6.20711e-05 3.4915e-05 1.55178e-05 3.87944e-06 0 0 1.89561e-05 7.58245e-05 0.000170605 0.000303298 0.000473903 0.00068242 0.00092885 0.00121319 0.00154031 0.00191506 0.00233746 0.00280749 0.00332517 0.00389048 0.00450343 0.00516402 0.00585469 0.0065579 0.00727363 0.00800188 0.00874267 0.00949598 0.0102618 0.0110402 0.0118148 0.0125696 0.0133043 0.0140192 0.0147141 0.015389 0.016044 0.016679 0.0172865 0.0178587 0.0183957 0.0188974 0.0193638 0.019795 0.020191 0.0205517 0.0208767 0.0211654 0.0214178 0.021634 0.0218139 0.0219576 0.022065 0.0221362 0.0221748 0.0221848 0.022166 0.0221186 0.0220424 0.0219375 0.0218039 0.0216416 0.0214557 0.0212514 0.0210287 0.0207875 0.020528 0.02025 0.0199536 0.0196388 0.01931 0.0189718 0.0186241 0.018267 0.0179004 0.0175243 0.0171388 0.0167438 0.0163424 0.0159375 0.0155292 0.0151174 0.0147022 0.0142836 0.0138615 0.013436 0.0130089 0.012582 0.0121554 0.011729 0.0113028 0.0108769 0.0104512 0.0100258 0.00960212 0.00918177 0.00876474 0.00835101 0.00794061 0.00753351 0.00712973 0.00672926 0.00633426 0.00594689 0.00556713 0.005195 0.0048305 0.00447361 0.00412435 0.00378271 0.00345192 0.00313517 0.00283248 0.00254385 0.00226927 0.00200875 0.00176228 0.00152987 0.00131367 0.00111581 0.000936318 0.000775177 0.000632392 0.000507962 0.000401887 0.000314167 0.000240534 0.000176719 0.000122722 7.85419e-05 4.41798e-05 1.96355e-05 4.90887e-06 0 0 2.32743e-05 9.30973e-05 0.000209469 0.000372389 0.000581858 0.000837876 0.00114044 0.00148956 0.00189051 0.00234858 0.00286377 0.00343608 0.00406551 0.00475206 0.00549573 0.00629652 0.00713329 0.00798488 0.0088513 0.00973255 0.0106286 0.0115395 0.0124653 0.0134058 0.0143418 0.0152538 0.0161417 0.0170056 0.0178454 0.0186613 0.0194531 0.0202209 0.0209555 0.0216476 0.0222972 0.0229044 0.0234691 0.0239914 0.0244712 0.0249085 0.0253027 0.0256532 0.0259599 0.0262228 0.026442 0.0266174 0.0267491 0.0268369 0.0268856 0.0268994 0.0268785 0.0268228 0.0267324 0.0266072 0.0264472 0.0262525 0.0260292 0.0257835 0.0255155 0.025225 0.0249121 0.0245769 0.0242193 0.0238392 0.0234422 0.0230336 0.0226135 0.0221817 0.0217384 0.0212835 0.020817 0.020339 0.019853 0.0193628 0.0188683 0.0183696 0.0178666 0.0173594 0.0168479 0.0163321 0.0158144 0.0152969 0.0147797 0.0142627 0.0137459 0.0132294 0.0127132 0.0121972 0.0116834 0.0111735 0.0106677 0.0101659 0.0096681 0.00917431 0.00868454 0.00819878 0.00771962 0.00724968 0.00678895 0.00633743 0.00589512 0.00546202 0.00503812 0.00462344 0.00422181 0.00383706 0.0034692 0.00311823 0.00278414 0.00246694 0.00216663 0.00188321 0.00161929 0.00137751 0.00115786 0.000960352 0.000784973 0.000631728 0.000500618 0.00039164 0.00029985 0.000220298 0.000152985 9.79101e-05 5.50744e-05 2.44775e-05 6.11938e-06 0 0 2.81274e-05 0.00011251 0.000253147 0.000450039 0.000703185 0.00101259 0.00137824 0.00180015 0.00228385 0.00283486 0.00345318 0.00413881 0.00489176 0.00571202 0.00659959 0.00755448 0.00855164 0.00956602 0.0105976 0.0116465 0.0127125 0.0137958 0.0148963 0.0160141 0.0171262 0.0182099 0.0192651 0.0202919 0.0212902 0.0222601 0.0232015 0.0241145 0.0249881 0.0258114 0.0265844 0.0273072 0.0279796 0.0286018 0.0291737 0.0296953 0.0301657 0.0305843 0.0309509 0.0312655 0.0315282 0.0317389 0.0318977 0.0320045 0.0320647 0.0320835 0.0320609 0.0319968 0.0318914 0.0317446 0.0315564 0.0313269 0.0310632 0.0307727 0.0304555 0.0301115 0.0297407 0.0293431 0.0289188 0.0284676 0.0279961 0.0275107 0.0270114 0.0264981 0.0259708 0.0254296 0.0248745 0.0243055 0.0237268 0.0231431 0.0225541 0.0219599 0.0213606 0.020756 0.0201463 0.0195314 0.0189141 0.018297 0.0176801 0.0170635 0.0164472 0.0158311 0.0152152 0.0145996 0.0139866 0.0133783 0.0127748 0.012176 0.0115821 0.0109929 0.0104085 0.00982889 0.00925714 0.00869632 0.00814645 0.00760752 0.00707953 0.00656249 0.00605638 0.00556122 0.0050815 0.00462173 0.0041819 0.00376202 0.00336208 0.00298208 0.00262204 0.00228193 0.00196492 0.00167416 0.00140964 0.00117136 0.000959331 0.000773544 0.000614002 0.000480704 0.000368039 0.000270396 0.000187775 0.000120176 6.75989e-05 3.0044e-05 7.51099e-06 0 0 3.35154e-05 0.000134061 0.000301638 0.000536246 0.000837884 0.00120655 0.00164225 0.00214498 0.00272034 0.00337391 0.0041057 0.0049157 0.00580393 0.00677037 0.00781502 0.0089379 0.0101097 0.0113013 0.0125126 0.0137436 0.0149944 0.0162648 0.017555 0.0188649 0.0201681 0.021438 0.0226747 0.0238782 0.0250484 0.0261854 0.0272892 0.0283598 0.0293843 0.0303502 0.0312573 0.0321057 0.0328953 0.0336263 0.0342985 0.0349119 0.0354657 0.0359586 0.0363907 0.0367619 0.0370724 0.0373221 0.0375109 0.037639 0.0377123 0.037737 0.0377131 0.0376406 0.0375195 0.0373498 0.0371315 0.0368646 0.0365576 0.036219 0.0358488 0.035447 0.0350136 0.0345487 0.0340522 0.033524 0.0329719 0.0324031 0.0318179 0.031216 0.0305977 0.0299627 0.0293113 0.0286433 0.0279639 0.0272783 0.0265864 0.0258884 0.0251841 0.0244736 0.0237568 0.0230339 0.0223079 0.0215822 0.0208568 0.0201315 0.0194066 0.0186818 0.0179573 0.0172331 0.0165117 0.015796 0.0150859 0.0143814 0.0136825 0.0129893 0.0123016 0.0116196 0.0109468 0.0102868 0.00963962 0.00900527 0.00838374 0.00777502 0.00717913 0.00659605 0.006031 0.00548918 0.00497059 0.00447522 0.00400309 0.00355418 0.0031285 0.00272605 0.00235056 0.00200576 0.00169164 0.00140821 0.00115547 0.000933409 0.000742039 0.000581357 0.000445101 0.000327013 0.000227092 0.000145339 8.17533e-05 3.63348e-05 9.0837e-06 0 0 3.94382e-05 0.000157753 0.000354943 0.000631011 0.000985954 0.00141977 0.00193247 0.00252404 0.00319997 0.00396573 0.00482132 0.00576675 0.006802 0.0079271 0.00914202 0.0104468 0.0118076 0.0131908 0.0145962 0.016024 0.0174741 0.0189466 0.0204413 0.0219584 0.0234674 0.0249381 0.0263705 0.0277644 0.0291201 0.0304373 0.0317162 0.0329567 0.0341442 0.0352639 0.0363158 0.0372999 0.0382163 0.0390648 0.0398456 0.0405586 0.0412025 0.0417761 0.0422793 0.0427122 0.0430747 0.0433669 0.0435887 0.0437402 0.0438283 0.04386 0.0438353 0.0437542 0.0436167 0.0434227 0.0431724 0.0428657 0.0425124 0.0421222 0.0416953 0.0412315 0.040731 0.0401936 0.0396194 0.0390084 0.0383693 0.0377108 0.0370329 0.0363356 0.0356189 0.0348828 0.0341273 0.0333524 0.0325641 0.0317684 0.0309654 0.0301549 0.0293371 0.028512 0.0276794 0.0268395 0.025996 0.0251527 0.0243096 0.0234667 0.0226241 0.0217817 0.0209395 0.0200975 0.0192588 0.0184267 0.0176011 0.0167821 0.0159695 0.0151635 0.0143639 0.0135709 0.0127886 0.0120211 0.0112685 0.0105307 0.00980773 0.00909962 0.00840635 0.00772793 0.0070703 0.00643941 0.00583526 0.00525784 0.00470717 0.00418323 0.00368603 0.00321557 0.00277621 0.00237231 0.00200387 0.00167089 0.00137338 0.00111132 0.000884731 0.0006936 0.000531038 0.00039015 0.000270938 0.0001734 9.75375e-05 4.335e-05 1.08375e-05 0 0 4.58958e-05 0.000183583 0.000413062 0.000734333 0.0011474 0.00165225 0.0022489 0.00293733 0.00372275 0.00461032 0.00560005 0.00669194 0.007886 0.00918221 0.0105806 0.0120811 0.0136452 0.0152344 0.0168485 0.0184877 0.0201518 0.021841 0.0235552 0.0252944 0.0270242 0.0287102 0.0303523 0.0319506 0.0335051 0.0350157 0.0364825 0.0379054 0.0392677 0.0405526 0.04176 0.0428899 0.0439424 0.0449174 0.045815 0.0466351 0.0473762 0.0480368 0.0486167 0.0491162 0.049535 0.0498733 0.050131 0.0503082 0.0504127 0.0504524 0.0504273 0.0503375 0.0501828 0.0499634 0.0496792 0.0493302 0.0489276 0.0484825 0.047995 0.0474651 0.0468927 0.0462778 0.0456205 0.0449208 0.0441886 0.0434339 0.0426566 0.0418569 0.0410346 0.0401899 0.0393226 0.0384328 0.0375275 0.0366135 0.0356909 0.0347596 0.0338197 0.0328712 0.031914 0.0309482 0.0299782 0.0290083 0.0280386 0.0270691 0.0260998 0.0251306 0.0241617 0.0231929 0.0222279 0.0212704 0.0203205 0.019378 0.0184429 0.0175154 0.0165954 0.0156828 0.0147826 0.0138993 0.013033 0.0121837 0.0113515 0.0105363 0.00973806 0.00895686 0.00819941 0.00747242 0.00677591 0.00610988 0.00547432 0.00486923 0.00429462 0.00375048 0.00324186 0.00277381 0.00234633 0.00195941 0.00161306 0.00130729 0.00104208 0.000817433 0.000625847 0.000459806 0.00031931 0.000204358 0.000114952 5.10896e-05 1.27724e-05 0 0 5.28884e-05 0.000211553 0.000475995 0.000846214 0.00132221 0.00190398 0.00259153 0.00338485 0.00428867 0.00530768 0.00644189 0.0076913 0.0090559 0.0105357 0.0121307 0.0138409 0.0156226 0.0174321 0.0192694 0.0211345 0.0230275 0.0249482 0.0268967 0.0288731 0.0308385 0.0327542 0.0346203 0.0364367 0.0382035 0.0399206 0.041588 0.0432058 0.0447549 0.0462162 0.0475898 0.0488757 0.0500738 0.0511841 0.0522067 0.0531416 0.0539869 0.0547407 0.0554031 0.055974 0.0564534 0.0568414 0.057138 0.057343 0.0574655 0.0575143 0.0574893 0.0573905 0.057218 0.0569718 0.0566518 0.0562581 0.0558032 0.0552999 0.054748 0.0541476 0.0534988 0.0528014 0.0520555 0.0512612 0.0504296 0.0495722 0.0486889 0.0477798 0.0468448 0.0458839 0.0448972 0.0438846 0.0428541 0.0418136 0.040763 0.0397025 0.0386319 0.0375513 0.0364607 0.0353601 0.0342545 0.0331491 0.0320438 0.0309386 0.0298336 0.0287287 0.0276239 0.0265192 0.0254189 0.0243271 0.0232439 0.0221691 0.0211029 0.0200452 0.018996 0.0179554 0.0169287 0.0159213 0.0149332 0.0139645 0.0130151 0.012085 0.0111743 0.0102828 0.00941831 0.00858822 0.00779256 0.00703133 0.00630454 0.00561218 0.00495427 0.00433078 0.00374752 0.00321026 0.00271901 0.00227377 0.00187453 0.0015213 0.00121407 0.000952857 0.000729531 0.000535982 0.00037221 0.000238214 0.000133995 5.95536e-05 1.48884e-05 0 0 6.02773e-05 0.000241109 0.000542495 0.000964436 0.00150693 0.00216998 0.00295359 0.00385775 0.00488654 0.00604407 0.00733032 0.0087453 0.010289 0.0119614 0.0137626 0.0156925 0.017702 0.0197422 0.021813 0.0239144 0.0260465 0.0282091 0.0304024 0.0326263 0.0348377 0.0369933 0.0390931 0.0411373 0.0431257 0.0450584 0.0469353 0.0487565 0.0505006 0.0521463 0.0536935 0.0551423 0.0564927 0.0577446 0.0588981 0.0599531 0.0609075 0.0617591 0.0625079 0.0631539 0.0636972 0.0641376 0.0644752 0.06471 0.0648519 0.0649107 0.0648863 0.0647789 0.0645883 0.0643146 0.0639578 0.0635179 0.063009 0.0624453 0.0618266 0.0611531 0.0604248 0.0596416 0.0588035 0.0579106 0.0569755 0.0560111 0.0550172 0.053994 0.0529413 0.0518592 0.0507477 0.0496069 0.0484455 0.0472727 0.0460885 0.0448927 0.0436854 0.0424667 0.0412365 0.0399948 0.0387473 0.0375 0.0362527 0.0350055 0.0337583 0.0325112 0.0312642 0.0300172 0.0287751 0.0275425 0.0263196 0.0251063 0.0239025 0.0227084 0.0215239 0.020349 0.0191898 0.0180523 0.0169365 0.0158425 0.0147702 0.0137196 0.0126908 0.0116837 0.0107067 0.00976832 0.00886844 0.00800709 0.00718429 0.00640001 0.00565428 0.00494708 0.004285 0.00367461 0.0031159 0.00260888 0.00215355 0.00174991 0.00139795 0.00109769 0.000840416 0.000617449 0.000428784 0.000274422 0.000154362 6.86054e-05 1.71513e-05 0 0 6.79241e-05 0.000271696 0.000611317 0.00108679 0.0016981 0.00244527 0.00332828 0.00434714 0.00550519 0.00680576 0.00824885 0.00983446 0.0115626 0.0134333 0.0154464 0.0176021 0.0198458 0.0221228 0.0244333 0.0267771 0.0291543 0.0315649 0.0340089 0.0364862 0.0389493 0.0413504 0.0436896 0.0459668 0.048182 0.0503353 0.0524267 0.0544561 0.0563998 0.0582342 0.0599593 0.061575 0.0630814 0.0644785 0.0657662 0.0669446 0.0680111 0.0689633 0.0698011 0.0705245 0.0711336 0.0716283 0.0720086 0.0722746 0.072437 0.0725067 0.0724837 0.072368 0.0721596 0.0718585 0.0714647 0.0709782 0.0704146 0.0697897 0.0691033 0.0683555 0.0675463 0.0666757 0.0657437 0.0647503 0.0637096 0.0626358 0.061529 0.0603891 0.0592161 0.0580101 0.056771 0.0554987 0.0542035 0.0528952 0.0515739 0.0502395 0.0488921 0.0475317 0.0461583 0.0447719 0.0433789 0.0419859 0.0405928 0.0391998 0.0378067 0.0364136 0.0350204 0.0336273 0.0322395 0.0308623 0.0294959 0.0281402 0.0267952 0.0254608 0.0241372 0.0228243 0.0215288 0.0202575 0.0190103 0.0177874 0.0165886 0.015414 0.0142635 0.0131373 0.0120444 0.0109943 0.00998682 0.00902207 0.00810001 0.00722064 0.00638397 0.00558999 0.00484613 0.00415978 0.00353097 0.00295967 0.0024459 0.00198966 0.00159093 0.00124974 0.000956831 0.000702978 0.000488179 0.000312435 0.000175744 7.81086e-05 1.95272e-05 0 0 7.58289e-05 0.000303315 0.00068246 0.00121326 0.00189572 0.00272984 0.00371561 0.00485305 0.0061446 0.00759274 0.00919747 0.0109588 0.0128767 0.0149512 0.0171822 0.0195699 0.0220539 0.024574 0.0271302 0.0297225 0.0323509 0.0350154 0.0377161 0.0404528 0.0431734 0.0458257 0.0484096 0.0509252 0.0533725 0.0557515 0.0580622 0.0603045 0.0624524 0.0644799 0.066387 0.0681737 0.0698399 0.0713857 0.0728111 0.0741161 0.0752977 0.0763532 0.0772825 0.0780857 0.0787627 0.0793135 0.0797381 0.0800366 0.0802207 0.0803023 0.0802814 0.0801579 0.079932 0.0796035 0.0791725 0.078639 0.0780201 0.0773331 0.076578 0.0757547 0.0748633 0.0739037 0.072876 0.0717801 0.0706317 0.0694465 0.0682243 0.0669653 0.0656694 0.0643365 0.0629668 0.0615603 0.0601279 0.0586809 0.0572193 0.055743 0.054252 0.0527465 0.0512262 0.0496914 0.0481491 0.0466067 0.0450642 0.0435215 0.0419787 0.0404358 0.0388927 0.0373495 0.0358121 0.0342866 0.0327728 0.0312709 0.0297807 0.0283024 0.0268359 0.0253812 0.0239457 0.0225369 0.0211547 0.0197992 0.0184703 0.017168 0.0158924 0.0146435 0.0134313 0.0122661 0.0111477 0.0100762 0.0090517 0.00807407 0.00714333 0.00625951 0.0054309 0.0046658 0.00396421 0.00332614 0.00275159 0.00224055 0.00179302 0.00140901 0.00107877 0.000792569 0.000550395 0.000352253 0.000198142 8.80633e-05 2.20158e-05 0 0 8.39915e-05 0.000335966 0.000755924 0.00134386 0.00209979 0.00302369 0.00411558 0.00537546 0.00680478 0.00840502 0.0101762 0.0121183 0.0142313 0.0165152 0.01897 0.0215958 0.0243263 0.0270957 0.0299038 0.0327507 0.0356364 0.0385608 0.041524 0.044526 0.0475099 0.050419 0.0532532 0.0560126 0.0586972 0.0613069 0.0638417 0.0663018 0.0686585 0.0708835 0.0729768 0.0749384 0.0767683 0.0784665 0.0800329 0.0814676 0.0827674 0.0839289 0.0849523 0.0858375 0.0865844 0.0871932 0.0876638 0.0879961 0.0882031 0.0882975 0.0882794 0.0881487 0.0879054 0.0875496 0.0870812 0.0865002 0.0858255 0.0850756 0.0842507 0.0833508 0.0823757 0.0813256 0.0802004 0.0790002 0.077742 0.076443 0.0751031 0.0737224 0.0723009 0.0708386 0.0693354 0.0677914 0.0662188 0.0646299 0.0630246 0.061403 0.0597651 0.0581109 0.0564402 0.0547533 0.0530581 0.0513626 0.0496668 0.0479707 0.0462744 0.0445778 0.042881 0.0411839 0.0394931 0.0378152 0.0361503 0.0344983 0.0328593 0.0312332 0.02962 0.0280197 0.0264405 0.0248905 0.0233696 0.0218779 0.0204153 0.0189818 0.0175776 0.0162024 0.0148675 0.0135837 0.0123511 0.0111696 0.0100394 0.00896029 0.00793237 0.00695563 0.00603931 0.00519264 0.00441564 0.00370829 0.00307061 0.00250258 0.00200422 0.00157551 0.00120625 0.000886223 0.000615433 0.000393877 0.000221556 9.84693e-05 2.46173e-05 0 0 9.24121e-05 0.000369648 0.000831709 0.00147859 0.0023103 0.00332684 0.00452819 0.00591438 0.00748573 0.0092426 0.011185 0.0133129 0.0156263 0.0181253 0.0208097 0.0236797 0.0266631 0.0296879 0.0327541 0.0358617 0.0390107 0.042201 0.0454327 0.0487058 0.0519589 0.0551304 0.0582204 0.0612289 0.0641559 0.0670014 0.0697654 0.0724479 0.075018 0.077445 0.0797287 0.0818692 0.0838665 0.0857206 0.0874315 0.0889992 0.09042 0.0916904 0.0928104 0.0937798 0.0945989 0.0952674 0.0957855 0.0961532 0.0963841 0.0964923 0.0964777 0.0963402 0.0960799 0.0956967 0.0951907 0.094562 0.0938307 0.0930172 0.0921215 0.0911437 0.0900836 0.0889414 0.087717 0.0864105 0.0850404 0.0836253 0.0821654 0.0806606 0.0791108 0.0775162 0.0758766 0.0741922 0.0724762 0.0707422 0.06899 0.0672197 0.0654314 0.0636249 0.0618003 0.0599577 0.0581057 0.0562534 0.0544006 0.0525474 0.0506938 0.0488397 0.0469853 0.0451304 0.0432823 0.0414483 0.0396284 0.0378225 0.0360308 0.0342531 0.0324895 0.0307399 0.0290133 0.0273183 0.025655 0.0240235 0.0224236 0.0208554 0.0193189 0.0178141 0.0163529 0.0149472 0.013597 0.0123022 0.011063 0.00987931 0.00875108 0.00767836 0.00667136 0.00574032 0.00488524 0.00410612 0.00340296 0.00277576 0.00222451 0.00174923 0.00133925 0.00098394 0.000683292 0.000437307 0.000245985 0.000109327 2.73317e-05 0 0 0.000101091 0.000404362 0.000909816 0.00161745 0.00252727 0.00363926 0.00495344 0.0064698 0.00818744 0.0101055 0.0122239 0.0145427 0.0170619 0.0197814 0.0227014 0.0258217 0.0290642 0.0323507 0.0356811 0.0390554 0.0424737 0.045936 0.0494422 0.0529923 0.0565203 0.0599599 0.0633112 0.0665742 0.0697489 0.0728352 0.0758332 0.0787429 0.081531 0.0841642 0.0866426 0.088966 0.0911345 0.0931481 0.0950069 0.0967107 0.0982557 0.0996377 0.100857 0.101913 0.102806 0.103536 0.104103 0.104508 0.104764 0.104887 0.104876 0.104732 0.104455 0.104045 0.103501 0.102824 0.102036 0.101158 0.10019 0.0991334 0.097987 0.0967511 0.0954258 0.094011 0.0925268 0.0909936 0.0894112 0.0877797 0.0860991 0.0843694 0.0825906 0.0807626 0.0789001 0.0770177 0.0751154 0.0731931 0.0712508 0.0692886 0.0673065 0.0653045 0.0632921 0.0612792 0.0592657 0.0572515 0.0552368 0.0532215 0.0512055 0.049189 0.0