<?xml version="1.0"?> 
<VTKFile type="StructuredGrid" version="0.1"> 
<StructuredGrid WholeExtent="0 128 0 128 0 0"> 
<Piece Extent="0 128 0 128 0 0"> 
<PointData>
<DataArray type="Float32" Name="u" format="ascii" NumberOfComponents="1"> 
0 0 0 0 0 0 0 0 0 0 0 0 0 0 0 0 0 0 0 0 0 0 0 0 0 0 0 0 0 0 0 0 0 0 0 0 0 0 0 0 0 0 0 0 0 0 0 0 0 0 0 0 0 0 0 0 0 0 0 0 0 0 0 0 0 0 0 0 0 0 0 0 0 0 0 0 0 0 0 0 0 0 0 0 0 0 0 0 0 0 0 0 0 0 0 0 0 0 0 0 0 0 0 0 0 0 0 0 0 0 0 0 0 0 0 0 0 0 0 0 0 0 0 0 0 0 0 0 0 0 1.10279e-07 4.41114e-07 9.92508e-07 1.76446e-06 2.75697e-06 3.97003e-06 5.40365e-06 7.05783e-06 8.97431e-06 1.11948e-05 1.37194e-05 1.65479e-05 1.96805e-05 2.31172e-05 2.68579e-05 3.09026e-05 3.51351e-05 3.94391e-05 4.38147e-05 4.82618e-05 5.27804e-05 5.73706e-05 6.20323e-05 6.67655e-05 7.1459e-05 7.60013e-05 8.03924e-05 8.46323e-05 8.87211e-05 9.26587e-05 9.64452e-05 0.00010008 0.000103521 0.000106724 0.000109689 0.000112416 0.000114905 0.000117156 0.00011917 0.000120945 0.000122497 0.00012384 0.000124975 0.000125901 0.000126618 0.000127126 0.000127425 0.000127516 0.000127441 0.000127243 0.000126923 0.000126479 0.000125913 0.000125224 0.000124412 0.000123477 0.000122459 0.000121398 0.000120292 0.000119143 0.000117949 0.000116712 0.000115431 0.000114106 0.000112753 0.000111389 0.000110012 0.000108624 0.000107223 0.000105811 0.000104387 0.000102951 0.000101495 0.000100012 9.85007e-05 9.6962e-05 9.53957e-05 9.38018e-05 9.21803e-05 9.05311e-05 8.88385e-05 8.70868e-05 8.52759e-05 8.34059e-05 8.14766e-05 7.94883e-05 7.74407e-05 7.5334e-05 7.31652e-05 7.09313e-05 6.86324e-05 6.62684e-05 6.38393e-05 6.13452e-05 5.8786e-05 5.61618e-05 5.34964e-05 5.08137e-05 4.81137e-05 4.53965e-05 4.26619e-05 3.99101e-05 3.7141e-05 3.43547e-05 3.16017e-05 2.89328e-05 2.6348e-05 2.38473e-05 2.14307e-05 1.90981e-05 1.68497e-05 1.46853e-05 1.26472e-05 1.07776e-05 9.07643e-06 7.54378e-06 6.1796e-06 4.98391e-06 3.9567e-06 3.09796e-06 2.37188e-06 1.74261e-06 1.21014e-06 7.74491e-07 4.35651e-07 1.93623e-07 4.84057e-08 0 0 4.41114e-07 1.76446e-06 3.97003e-06 7.05783e-06 1.10279e-05 1.58801e-05 2.16146e-05 2.82313e-05 3.58972e-05 4.47793e-05 5.48774e-05 6.61917e-05 7.87222e-05 9.24687e-05 0.000107431 0.00012361 0.00014054 0.000157756 0.000175259 0.000193047 0.000211122 0.000229482 0.000248129 0.000267062 0.000285836 0.000304005 0.000321569 0.000338529 0.000354884 0.000370635 0.000385781 0.000400322 0.000414085 0.000426896 0.000438756 0.000449664 0.000459621 0.000468625 0.000476679 0.00048378 0.000489988 0.000495362 0.0004999 0.000503603 0.000506471 0.000508504 0.000509702 0.000510065 0.000509764 0.000508973 0.000507691 0.000505917 0.000503652 0.000500896 0.000497648 0.00049391 0.000489838 0.000485591 0.000481168 0.00047657 0.000471797 0.000466848 0.000461724 0.000456424 0.000451013 0.000445554 0.000440048 0.000434494 0.000428893 0.000423244 0.000417548 0.000411804 0.00040598 0.000400047 0.000394003 0.000387848 0.000381583 0.000375207 0.000368721 0.000362124 0.000355354 0.000348347 0.000341104 0.000333623 0.000325907 0.000317953 0.000309763 0.000301336 0.000292661 0.000283725 0.000274529 0.000265073 0.000255357 0.000245381 0.000235144 0.000224647 0.000213985 0.000203255 0.000192455 0.000181586 0.000170648 0.00015964 0.000148564 0.000137419 0.000126407 0.000115731 0.000105392 9.53892e-05 8.57227e-05 7.63925e-05 6.73986e-05 5.87411e-05 5.05887e-05 4.31103e-05 3.63057e-05 3.01751e-05 2.47184e-05 1.99356e-05 1.58268e-05 1.23919e-05 9.48752e-06 6.97042e-06 4.84057e-06 3.09796e-06 1.74261e-06 7.74491e-07 1.93623e-07 0 0 9.92508e-07 3.97003e-06 8.93257e-06 1.58801e-05 2.48127e-05 3.57303e-05 4.86329e-05 6.35205e-05 8.07688e-05 0.000100753 0.000123474 0.000148931 0.000177125 0.000208055 0.000241721 0.000278123 0.000316216 0.000354952 0.000394332 0.000434356 0.000475024 0.000516335 0.000558291 0.00060089 0.000643131 0.000684011 0.000723531 0.000761691 0.00079849 0.000833928 0.000868007 0.000900724 0.000931691 0.000960517 0.000987201 0.00101174 0.00103415 0.00105441 0.00107253 0.00108851 0.00110247 0.00111456 0.00112477 0.00113311 0.00113956 0.00114413 0.00114683 0.00114765 0.00114697 0.00114519 0.0011423 0.00113831 0.00113322 0.00112702 0.00111971 0.0011113 0.00110214 0.00109258 0.00108263 0.00107228 0.00106154 0.00105041 0.00103888 0.00102695 0.00101478 0.0010025 0.000990109 0.000977613 0.000965009 0.000952299 0.000939482 0.000926558 0.000913456 0.000900105 0.000886506 0.000872658 0.000858561 0.000844216 0.000829622 0.00081478 0.000799547 0.000783781 0.000767483 0.000750653 0.00073329 0.000715394 0.000696966 0.000678006 0.000658487 0.000638382 0.000617691 0.000596415 0.000574554 0.000552107 0.000529074 0.000505456 0.000481467 0.000457323 0.000433023 0.000408568 0.000383957 0.000359191 0.000334269 0.000309192 0.000284415 0.000260395 0.000237132 0.000214626 0.000192876 0.000171883 0.000151647 0.000132167 0.000113825 9.69981e-05 8.16879e-05 6.7894e-05 5.56164e-05 4.48552e-05 3.56103e-05 2.78817e-05 2.13469e-05 1.56834e-05 1.08913e-05 6.97042e-06 3.92086e-06 1.74261e-06 4.35651e-07 0 0 1.76446e-06 7.05783e-06 1.58801e-05 2.82313e-05 4.41114e-05 6.35205e-05 8.64584e-05 0.000112925 0.000143589 0.000179117 0.00021951 0.000264767 0.000314889 0.000369875 0.000429726 0.000494441 0.000562161 0.000631026 0.000701035 0.000772188 0.000844487 0.000917929 0.000992517 0.00106825 0.00114334 0.00121602 0.00128628 0.00135412 0.00141954 0.00148254 0.00154312 0.00160129 0.00165634 0.00170759 0.00175502 0.00179866 0.00183848 0.0018745 0.00190671 0.00193512 0.00195995 0.00198145 0.0019996 0.00201441 0.00202588 0.00203401 0.00203881 0.00204026 0.00203906 0.00203589 0.00203076 0.00202367 0.00201461 0.00200358 0.00199059 0.00197564 0.00195935 0.00194236 0.00192467 0.00190628 0.00188719 0.00186739 0.00184689 0.0018257 0.00180405 0.00178222 0.00176019 0.00173798 0.00171557 0.00169298 0.00167019 0.00164721 0.00162392 0.00160019 0.00157601 0.00155139 0.00152633 0.00150083 0.00147488 0.0014485 0.00142142 0.00139339 0.00136441 0.00133449 0.00130363 0.00127181 0.00123905 0.00120534 0.00117064 0.0011349 0.00109812 0.00106029 0.00102143 0.000981523 0.000940576 0.000898588 0.000855942 0.000813019 0.000769819 0.000726343 0.000682591 0.000638562 0.000594257 0.000549675 0.000505627 0.000462925 0.000421568 0.000381557 0.000342891 0.00030557 0.000269594 0.000234964 0.000202355 0.000172441 0.000145223 0.0001207 9.88736e-05 7.97425e-05 6.33071e-05 4.95674e-05 3.79501e-05 2.78817e-05 1.93623e-05 1.23919e-05 6.97042e-06 3.09796e-06 7.74491e-07 0 0 2.75697e-06 1.10279e-05 2.48127e-05 4.41114e-05 6.89241e-05 9.92508e-05 0.000135091 0.000176446 0.000224358 0.00027987 0.000342984 0.000413698 0.000492014 0.00057793 0.000671447 0.000772564 0.000878377 0.000985978 0.00109537 0.00120654 0.00131951 0.00143426 0.00155081 0.00166914 0.00178647 0.00190003 0.00200981 0.00211581 0.00221803 0.00231647 0.00241113 0.00250201 0.00258803 0.0026681 0.00274223 0.0028104 0.00287263 0.00292891 0.00297924 0.00302363 0.00306243 0.00309601 0.00312437 0.00314752 0.00316544 0.00317815 0.00318564 0.0031879 0.00318603 0.00318108 0.00317307 0.00316198 0.00314782 0.0031306 0.0031103 0.00308694 0.00306149 0.00303494 0.0030073 0.00297856 0.00294873 0.0029178 0.00288577 0.00285265 0.00281883 0.00278472 0.0027503 0.00271559 0.00268058 0.00264528 0.00260967 0.00257377 0.00253738 0.00250029 0.00246252 0.00242405 0.00238489 0.00234505 0.00230451 0.00226328 0.00222096 0.00217717 0.0021319 0.00208515 0.00203692 0.00198721 0.00193602 0.00188335 0.00182913 0.00177328 0.00171581 0.00165671 0.00159598 0.00153363 0.00146965 0.00140404 0.00133741 0.00127034 0.00120284 0.00113491 0.00106655 0.000997753 0.000928526 0.000858867 0.000790042 0.00072332 0.0006587 0.000596182 0.000535767 0.000477453 0.000421241 0.000367132 0.00031618 0.000269439 0.000226911 0.000188594 0.00015449 0.000124598 9.89174e-05 7.74491e-05 5.9297e-05 4.35651e-05 3.02536e-05 1.93623e-05 1.08913e-05 4.84057e-06 1.21014e-06 0 0 3.97003e-06 1.58801e-05 3.57303e-05 6.35205e-05 9.92508e-05 0.000142921 0.000194531 0.000254082 0.000323075 0.000403013 0.000493897 0.000595726 0.0007085 0.000832219 0.000966883 0.00111249 0.00126486 0.00141981 0.00157733 0.00173742 0.00190009 0.00206534 0.00223316 0.00240356 0.00257252 0.00273605 0.00289412 0.00304676 0.00319396 0.00333571 0.00347203 0.0036029 0.00372676 0.00384207 0.0039488 0.00404698 0.00413659 0.00421763 0.00429011 0.00435402 0.0044099 0.00445825 0.0044991 0.00453242 0.00455824 0.00457653 0.00458732 0.00459058 0.00458788 0.00458076 0.00456921 0.00455325 0.00453287 0.00450806 0.00447883 0.00444519 0.00440854 0.00437032 0.00433051 0.00428913 0.00424617 0.00420163 0.00415551 0.00410782 0.00405912 0.00400999 0.00396043 0.00391045 0.00386004 0.0038092 0.00375793 0.00370623 0.00365382 0.00360042 0.00354602 0.00349063 0.00343425 0.00337686 0.00331849 0.00325912 0.00319819 0.00313512 0.00306993 0.00300261 0.00293316 0.00286158 0.00278787 0.00271202 0.00263395 0.00255353 0.00247077 0.00238566 0.00229822 0.00220843 0.0021163 0.00202182 0.00192587 0.00182929 0.00173209 0.00163427 0.00153583 0.00143676 0.00133708 0.00123677 0.00113766 0.00104158 0.000948528 0.000858503 0.000771504 0.000687532 0.000606588 0.00052867 0.000455298 0.000387992 0.000326751 0.000271576 0.000222466 0.000179421 0.000142441 0.000111527 8.53877e-05 6.27338e-05 4.35651e-05 2.78817e-05 1.56834e-05 6.97042e-06 1.74261e-06 0 0 5.40365e-06 2.16146e-05 4.86329e-05 8.64584e-05 0.000135091 0.000194531 0.000264779 0.000345834 0.000439741 0.000548546 0.000672248 0.000810849 0.000964347 0.00113274 0.00131604 0.00151423 0.00172162 0.00193252 0.00214692 0.00236483 0.00258624 0.00281116 0.00303958 0.00327151 0.00350149 0.00372406 0.00393923 0.00414698 0.00434733 0.00454028 0.00472581 0.00490394 0.00507254 0.00522948 0.00537476 0.00550839 0.00563035 0.00574066 0.00583931 0.00592631 0.00600236 0.00606818 0.00612377 0.00616913 0.00620427 0.00622917 0.00624385 0.00624829 0.00624461 0.00623492 0.00621921 0.00619748 0.00616973 0.00613597 0.00609619 0.00605039 0.00600051 0.00594849 0.00589431 0.00583798 0.00577951 0.00571889 0.00565612 0.0055912 0.00552491 0.00545804 0.00539059 0.00532256 0.00525394 0.00518474 0.00511496 0.00504459 0.00497326 0.00490057 0.00482653 0.00475114 0.00467439 0.00459629 0.00451683 0.00443602 0.00435309 0.00426725 0.00417852 0.00408689 0.00399236 0.00389492 0.0037946 0.00369137 0.00358509 0.00347563 0.00336299 0.00324715 0.00312813 0.00300591 0.00288051 0.00275193 0.00262132 0.00248987 0.00235757 0.00222443 0.00209043 0.0019556 0.00181991 0.00168338 0.00154848 0.00141771 0.00129105 0.00116852 0.0010501 0.000935808 0.000825633 0.000719579 0.000619712 0.000528101 0.000444745 0.000369645 0.0003028 0.000244212 0.000193878 0.0001518 0.000116222 8.53877e-05 5.9297e-05 3.79501e-05 2.13469e-05 9.48752e-06 2.37188e-06 0 0 7.05783e-06 2.82313e-05 6.35205e-05 0.000112925 0.000176446 0.000254082 0.000345834 0.000451701 0.000574356 0.000716468 0.000878039 0.00105907 0.00125955 0.0014795 0.0017189 0.00197776 0.00224864 0.0025241 0.00280414 0.00308875 0.00337795 0.00367172 0.00397007 0.00427299 0.00457337 0.00486408 0.00514511 0.00541647 0.00567815 0.00593016 0.00617249 0.00640515 0.00662536 0.00683034 0.0070201 0.00719463 0.00735393 0.00749801 0.00762686 0.00774048 0.00783981 0.00792578 0.00799839 0.00805764 0.00810353 0.00813606 0.00815523 0.00816103 0.00815623 0.00814357 0.00812305 0.00809467 0.00805843 0.00801433 0.00796237 0.00790256 0.00783741 0.00776945 0.00769869 0.00762512 0.00754875 0.00746957 0.00738758 0.00730279 0.00721621 0.00712887 0.00704077 0.00695191 0.00686229 0.00677191 0.00668076 0.00658886 0.00649569 0.00640075 0.00630404 0.00620557 0.00610533 0.00600332 0.00589954 0.00579399 0.00568567 0.00557356 0.00545766 0.00533798 0.00521451 0.00508725 0.00495621 0.00482138 0.00468257 0.0045396 0.00439247 0.00424118 0.00408572 0.00392609 0.0037623 0.00359435 0.00342377 0.00325208 0.00307928 0.00290537 0.00273036 0.00255425 0.00237703 0.0021987 0.00202251 0.0018517 0.00168627 0.00152623 0.00137156 0.00122228 0.00107838 0.000939858 0.00080942 0.000689764 0.000580892 0.000482802 0.000395495 0.00031897 0.000253229 0.00019827 0.0001518 0.000111527 7.74491e-05 4.95674e-05 2.78817e-05 1.23919e-05 3.09796e-06 0 0 9.01575e-06 3.6063e-05 8.11417e-05 0.000144252 0.000225394 0.000324567 0.000441772 0.000577008 0.000733552 0.000914678 0.00112039 0.00135068 0.00160556 0.00188502 0.00218906 0.00251769 0.00286148 0.00321101 0.00356629 0.00392732 0.00429408 0.0046666 0.00504486 0.00542886 0.00580961 0.00617813 0.00653442 0.00687847 0.00721028 0.00752985 0.00783719 0.00813229 0.00841165 0.00867175 0.00891259 0.00913417 0.0093365 0.00951957 0.00968339 0.00982795 0.00995441 0.010064 0.0101566 0.0102323 0.0102911 0.010333 0.0103579 0.0103659 0.0103605 0.0103451 0.0103197 0.0102843 0.0102389 0.0101835 0.0101182 0.0100428 0.00996068 0.00987493 0.00978556 0.00969258 0.009596 0.0094958 0.00939199 0.00928457 0.00917484 0.00906409 0.00895233 0.00883954 0.00872574 0.00861092 0.00849509 0.00837823 0.00825974 0.00813897 0.00801594 0.00789064 0.00776307 0.00763323 0.00750112 0.00736675 0.00722884 0.00708614 0.00693864 0.00678635 0.00662926 0.00646737 0.00630069 0.00612922 0.00595272 0.00577096 0.00558395 0.00539169 0.00519417 0.00499139 0.00478336 0.00457007 0.00435347 0.00413547 0.00391608 0.0036953 0.00347313 0.00324958 0.00302463 0.00279829 0.00257466 0.00235781 0.00214776 0.0019445 0.00174803 0.00155835 0.00137546 0.00119936 0.00103348 0.000881245 0.000742647 0.000617692 0.000506377 0.000408704 0.000324671 0.000254281 0.000194684 0.000143033 9.93284e-05 6.35702e-05 3.57582e-05 1.58925e-05 3.97313e-06 0 0 1.13606e-05 4.54424e-05 0.000102245 0.000181769 0.000284015 0.000408981 0.000556669 0.000727078 0.000923962 0.00115108 0.00140842 0.00169599 0.00201379 0.00236182 0.00274008 0.00314857 0.00357565 0.00400969 0.00445068 0.00489863 0.00535352 0.00581538 0.00628419 0.00675995 0.00723164 0.00768826 0.00812978 0.00855622 0.00896758 0.00936385 0.00974504 0.0101111 0.0104578 0.0107808 0.01108 0.0113555 0.0116072 0.0118353 0.0120395 0.0122201 0.0123783 0.0125156 0.012632 0.0127274 0.012802 0.0128556 0.0128883 0.0129001 0.0128952 0.0128778 0.012848 0.0128058 0.0127511 0.012684 0.0126044 0.0125124 0.0124118 0.0123066 0.0121968 0.0120824 0.0119634 0.0118397 0.0117114 0.0115785 0.0114426 0.0113053 0.0111666 0.0110265 0.010885 0.010742 0.0105977 0.0104519 0.0103041 0.0101533 0.00999962 0.00984307 0.00968364 0.00952132 0.00935612 0.00918803 0.00901553 0.0088371 0.00865275 0.00846247 0.00826626 0.00806412 0.00785605 0.00764206 0.00742187 0.00719524 0.00696216 0.00672264 0.00647666 0.00622424 0.00596538 0.00570006 0.00543068 0.00515961 0.00488685 0.0046124 0.00433626 0.00405844 0.00377893 0.00349772 0.00321984 0.0029503 0.00268908 0.00243619 0.00219163 0.00195541 0.00172751 0.00150795 0.00130096 0.0011108 0.00093747 0.00078096 0.000641277 0.000518418 0.000412386 0.000323178 0.000247433 0.000181788 0.000126242 8.07946e-05 4.5447e-05 2.01986e-05 5.04966e-06 0 0 1.40923e-05 5.63694e-05 0.000126831 0.000225478 0.000352309 0.000507325 0.000690525 0.00090191 0.00114559 0.00142566 0.00174213 0.00209499 0.00248426 0.00290991 0.00337197 0.00387042 0.00439118 0.00492014 0.00545731 0.00600268 0.00655627 0.00711806 0.00768806 0.00826626 0.00883946 0.00939444 0.0099312 0.0104497 0.0109501 0.0114322 0.011896 0.0123417 0.0127639 0.0131575 0.0135224 0.0138586 0.0141662 0.0144451 0.0146953 0.0149169 0.0151115 0.0152807 0.0154246 0.0155431 0.0156362 0.015704 0.0157464 0.0157635 0.0157603 0.0157418 0.0157081 0.0156592 0.015595 0.0155156 0.015421 0.0153112 0.0151908 0.0150646 0.0149325 0.0147946 0.0146509 0.0145013 0.0143459 0.0141847 0.0140196 0.0138526 0.0136836 0.0135127 0.0133399 0.0131652 0.0129885 0.01281 0.0126286 0.0124437 0.0122551 0.0120629 0.011867 0.0116676 0.0114645 0.0112578 0.0110457 0.0108265 0.0106 0.0103663 0.0101255 0.00987749 0.00962228 0.00935989 0.00909003 0.00881244 0.0085271 0.00823403 0.00793321 0.00762465 0.00730835 0.00698431 0.0066554 0.00632449 0.00599158 0.00565667 0.00531975 0.00498083 0.00463991 0.00429699 0.00395807 0.00362915 0.00331023 0.00300131 0.00270239 0.00241346 0.00213454 0.00186562 0.00161186 0.00137844 0.00116536 0.000972608 0.000800194 0.000648115 0.000516371 0.000404963 0.00031005 0.000227792 0.000158189 0.000101241 5.69479e-05 2.53102e-05 6.32755e-06 0 0 1.7211e-05 6.88441e-05 0.000154899 0.000275376 0.000430276 0.000619597 0.00084334 0.00110151 0.00139842 0.00173843 0.00212152 0.00254769 0.00301695 0.00352929 0.00408472 0.00468323 0.00530804 0.00594235 0.00658617 0.00723949 0.00790231 0.00857464 0.00925647 0.00994781 0.0106331 0.0112967 0.0119387 0.012559 0.0131577 0.0137348 0.0142902 0.014824 0.0153299 0.0158018 0.0162396 0.0166435 0.0170133 0.017349 0.0176507 0.0179184 0.018154 0.0183593 0.0185344 0.0186792 0.0187938 0.0188782 0.0189323 0.0189562 0.0189558 0.018937 0.0188999 0.0188445 0.0187707 0.0186786 0.0185681 0.0184392 0.0182976 0.0181487 0.0179926 0.0178292 0.0176585 0.0174806 0.0172954 0.017103 0.0169057 0.0167058 0.0165033 0.0162983 0.0160906 0.0158804 0.0156677 0.0154523 0.0152335 0.0150101 0.0147823 0.01455 0.0143133 0.014072 0.0138263 0.0135762 0.0133195 0.0130542 0.0127804 0.012498 0.012207 0.0119075 0.0115994 0.0112827 0.0109572 0.0106226 0.0102788 0.00992585 0.0095638 0.00919261 0.00881229 0.00842283 0.00802764 0.00763012 0.00723028 0.0068281 0.0064236 0.00601676 0.0056076 0.0051961 0.00478934 0.00439438 0.00401122 0.00363985 0.00328029 0.00293252 0.00259654 0.00227237 0.00196618 0.00168416 0.00142631 0.00119264 0.000983129 0.000797793 0.000636628 0.000499634 0.000382533 0.000281044 0.00019517 0.000124909 7.02611e-05 3.12272e-05 7.80679e-06 0 0 2.07166e-05 8.28665e-05 0.00018645 0.000331466 0.000517916 0.000745799 0.00101511 0.00132586 0.00168248 0.00208938 0.00254659 0.00305408 0.00361187 0.00421996 0.00487834 0.00558701 0.00632625 0.00707634 0.00783727 0.00860904 0.00939166 0.0101851 0.0109894 0.0118046 0.0126125 0.013395 0.0141522 0.0148841 0.0155906 0.0162717 0.0169275 0.0175579 0.0181558 0.0187137 0.0192319 0.0197101 0.0201485 0.0205471 0.0209058 0.0212246 0.0215058 0.0217513 0.0219614 0.0221358 0.0222747 0.0223781 0.0224459 0.0224782 0.0224817 0.0224635 0.0224235 0.0223617 0.0222781 0.0221727 0.0220455 0.0218966 0.0217323 0.0215591 0.021377 0.0211861 0.0209863 0.0207776 0.02056 0.0203335 0.020101 0.019865 0.0196258 0.0193831 0.0191371 0.0188878 0.0186351 0.018379 0.0181185 0.0178526 0.0175813 0.0173045 0.0170223 0.0167346 0.0164415 0.016143 0.0158367 0.0155203 0.0151939 0.0148574 0.0145108 0.0141541 0.0137874 0.0134105 0.0130234 0.0126256 0.0122172 0.0117981 0.0113684 0.0109281 0.0104772 0.0100156 0.00954739 0.0090765 0.00860294 0.00812671 0.0076478 0.00716622 0.00668197 0.00619505 0.00571365 0.00524599 0.00479204 0.00435182 0.00392533 0.00351256 0.00311352 0.0027282 0.00236391 0.00202796 0.00172033 0.00144104 0.00119008 0.000967453 0.000773157 0.000607193 0.000464882 0.000341546 0.000237185 0.000151798 8.53865e-05 3.79495e-05 9.48739e-06 0 0 2.46091e-05 9.84366e-05 0.000221482 0.000393746 0.000615229 0.000885929 0.00120585 0.00157499 0.00199774 0.00247853 0.00301734 0.00361417 0.00426903 0.00498191 0.00575282 0.00658175 0.00744581 0.00832209 0.0092106 0.0101113 0.0110243 0.0119495 0.0128869 0.0138366 0.0147777 0.0156894 0.0165718 0.0174249 0.0182486 0.0190429 0.0198079 0.0205436 0.0212415 0.0218933 0.022499 0.0230586 0.023572 0.0240393 0.0244605 0.0248355 0.0251668 0.0254568 0.0257055 0.0259129 0.026079 0.0262038 0.0262872 0.0263294 0.0263381 0.0263212 0.0262788 0.0262108 0.0261172 0.0259981 0.0258534 0.0256832 0.0254948 0.0252957 0.0250859 0.0248654 0.0246341 0.0243922 0.0241396 0.0238762 0.0236054 0.0233303 0.0230509 0.0227673 0.0224794 0.0221872 0.0218907 0.02159 0.0212839 0.0209713 0.0206521 0.0203264 0.0199942 0.0196554 0.0193102 0.0189584 0.0185974 0.0182248 0.0178405 0.0174445 0.0170368 0.0166173 0.0161862 0.0157434 0.0152886 0.0148215 0.0143423 0.0138508 0.0133471 0.0128312 0.012303 0.0117627 0.0112147 0.0106636 0.0101096 0.00955248 0.00899236 0.00842922 0.00786304 0.00729384 0.00673101 0.00618396 0.0056527 0.00513722 0.00463752 0.0041536 0.00368547 0.00323312 0.00280507 0.00240983 0.00204742 0.00171783 0.00142105 0.00115709 0.000925957 0.000727638 0.000557098 0.000409296 0.000284234 0.000181909 0.000102324 4.54774e-05 1.13693e-05 0 0 2.88886e-05 0.000115554 0.000259997 0.000462217 0.000722215 0.00103999 0.00141554 0.00184887 0.00234423 0.00290586 0.00353377 0.00422795 0.00498841 0.00581515 0.00670816 0.00766745 0.0086667 0.00967961 0.0107062 0.0117464 0.0128003 0.0138678 0.014949 0.0160438 0.0171287 0.0181799 0.0191975 0.0201814 0.0211318 0.0220485 0.0229315 0.023781 0.0245872 0.0253406 0.0260411 0.0266888 0.0272836 0.0278256 0.0283148 0.0287511 0.0291372 0.0294758 0.0297669 0.0300105 0.0302066 0.0303552 0.0304563 0.0305099 0.0305248 0.0305102 0.0304658 0.0303918 0.0302881 0.0301547 0.0299917 0.029799 0.0295851 0.0293585 0.0291191 0.028867 0.0286022 0.0283245 0.0280342 0.0277311 0.027419 0.0271016 0.0267788 0.0264507 0.0261174 0.0257787 0.0254347 0.0250854 0.0247295 0.0243659 0.0239947 0.0236156 0.0232289 0.0228344 0.0224322 0.0220222 0.0216017 0.0211677 0.0207203 0.0202594 0.019785 0.0192972 0.0187959 0.0182812 0.0177528 0.0172104 0.0166541 0.0160839 0.0154998 0.0149018 0.0142899 0.013664 0.0130294 0.0123915 0.0117502 0.0111054 0.0104573 0.00980574 0.0091508 0.00849246 0.0078414 0.00720831 0.00659319 0.00599604 0.00541685 0.00485564 0.00431239 0.00378711 0.00328964 0.00282979 0.00240757 0.00202299 0.00167604 0.00136672 0.00109503 0.00086097 0.00065918 0.000484296 0.000336316 0.000215242 0.000121074 5.38106e-05 1.34527e-05 0 0 3.3555e-05 0.00013422 0.000301995 0.000536879 0.000838874 0.00120798 0.00164419 0.00214752 0.00272192 0.00337137 0.00409587 0.00489542 0.00577002 0.00671967 0.00774437 0.00884411 0.00998895 0.0111489 0.012324 0.0135142 0.0147195 0.01594 0.0171756 0.0184263 0.0196654 0.0208664 0.0220292 0.0231538 0.0242401 0.0252883 0.0262983 0.0272701 0.0281928 0.0290554 0.0298581 0.0306008 0.0312834 0.031906 0.0324687 0.0329713 0.0334169 0.0338083 0.0341455 0.0344286 0.0346576 0.0348324 0.0349531 0.0350196 0.035042 0.0350303 0.0349845 0.0349047 0.0347907 0.0346426 0.0344604 0.0342442 0.0340034 0.0337476 0.0334768 0.033191 0.0328903 0.0325746 0.0322439 0.0318982 0.0315417 0.0311788 0.0308094 0.0304335 0.0300511 0.0296622 0.0292669 0.028865 0.0284554 0.0280367 0.027609 0.0271722 0.0267264 0.0262715 0.0258076 0.0253347 0.0248495 0.024349 0.0238332 0.023302 0.0227555 0.0221937 0.0216165 0.021024 0.0204159 0.0197922 0.0191527 0.0184975 0.0178266 0.01714 0.0164376 0.0157196 0.0149917 0.0142601 0.0135247 0.0127855 0.0120426 0.0112958 0.0105453 0.00979092 0.00904483 0.00831903 0.00761351 0.00692828 0.00626333 0.00561867 0.00499429 0.00439019 0.00381762 0.00328782 0.00280079 0.00235653 0.00195504 0.00159632 0.00128037 0.00100719 0.000771129 0.000566544 0.000393433 0.000251797 0.000141636 6.29493e-05 1.57373e-05 0 0 3.85516e-05 0.000154206 0.000346964 0.000616826 0.00096379 0.00138786 0.00188903 0.0024673 0.00312625 0.00386942 0.00469684 0.00560848 0.00660437 0.00768448 0.00884883 0.0100974 0.0113964 0.012712 0.0140442 0.015393 0.0167584 0.0181404 0.019539 0.0209542 0.0223562 0.0237152 0.0250312 0.0263042 0.0275343 0.0287213 0.0298654 0.0309664 0.0320123 0.0329906 0.0339014 0.0347447 0.0355205 0.0362288 0.0368696 0.0374429 0.0379519 0.0383998 0.0387865 0.0391121 0.0393767 0.0395801 0.0397224 0.0398035 0.0398347 0.0398271 0.0397808 0.0396956 0.0395716 0.0394088 0.0392072 0.0389667 0.0386982 0.0384123 0.0381089 0.0377882 0.03745 0.0370943 0.0367213 0.0363308 0.0359278 0.0355169 0.0350982 0.0346717 0.0342374 0.0337953 0.0333454 0.0328877 0.0324208 0.0319434 0.0314556 0.0309573 0.0304485 0.0299292 0.0293995 0.0288592 0.0283051 0.0277337 0.0271449 0.0265388 0.0259155 0.0252748 0.0246167 0.0239414 0.0232487 0.0225383 0.0218104 0.0210648 0.0203017 0.019521 0.0187227 0.0179069 0.0170801 0.0162492 0.015414 0.0145747 0.0137312 0.0128835 0.0120317 0.0111756 0.0103288 0.0095047 0.00870327 0.00792453 0.00716848 0.00643512 0.00572444 0.00503646 0.0043839 0.00377953 0.00322332 0.0027153 0.00225544 0.00184377 0.00148027 0.00116494 0.000891911 0.000655281 0.000455057 0.000291236 0.00016382 7.2809e-05 1.82023e-05 0 0 4.38219e-05 0.000175288 0.000394397 0.000701151 0.00109555 0.00157759 0.00214727 0.0028046 0.00355262 0.00439436 0.00532982 0.00635902 0.00748194 0.00869858 0.010009 0.011413 0.012873 0.014351 0.0158471 0.0173612 0.0188933 0.0204435 0.0220116 0.0235979 0.0251691 0.0266925 0.0281679 0.0295953 0.0309748 0.0323063 0.03359 0.0348256 0.0359997 0.0370986 0.0381223 0.0390707 0.039944 0.040742 0.0414649 0.0421125 0.0426884 0.0431959 0.0436351 0.044006 0.0443086 0.0445429 0.0447089 0.0448065 0.0448481 0.044846 0.0448001 0.0447106 0.0445773 0.0444002 0.0441795 0.043915 0.0436186 0.0433022 0.0429657 0.0426092 0.0422326 0.041836 0.0414193 0.0409826 0.0405312 0.0400706 0.0396007 0.0391214 0.038633 0.0381352 0.0376282 0.0371119 0.036585 0.036046 0.035495 0.034932 0.0343569 0.0337699 0.0331708 0.0325597 0.0319329 0.0312867 0.0306212 0.0299363 0.029232 0.0285084 0.0277655 0.0270031 0.0262214 0.0254201 0.0245994 0.0237592 0.0228994 0.0220202 0.0211215 0.0202033 0.0192731 0.0183383 0.0173989 0.0164549 0.0155063 0.0145531 0.0135953 0.0126329 0.0116808 0.0107539 0.00985206 0.00897538 0.00812383 0.00729742 0.00649616 0.00572002 0.00498336 0.00430048 0.0036714 0.00309612 0.00257462 0.00210692 0.00169301 0.00133289 0.00102049 0.000749749 0.000520659 0.000333222 0.000187437 8.33055e-05 2.08264e-05 0 0 4.93659e-05 0.000197464 0.000444293 0.000789855 0.00123415 0.00177717 0.00241893 0.00315942 0.00400103 0.00494617 0.00599484 0.00714702 0.00840273 0.00976197 0.0112247 0.012791 0.0144188 0.016066 0.0177326 0.0194187 0.0211242 0.0228491 0.0245935 0.0263573 0.0281043 0.0297982 0.0314391 0.0330269 0.0345617 0.0360434 0.037472 0.0388476 0.0401551 0.0413795 0.0425207 0.0435789 0.0445539 0.0454457 0.0462545 0.0469801 0.0476263 0.0481967 0.0486914 0.0491103 0.0494535 0.0497209 0.0499126 0.0500285 0.0500821 0.0500868 0.0500427 0.0499497 0.0498078 0.049617 0.0493774 0.0490888 0.0487644 0.0484172 0.0480471 0.0476541 0.0472382 0.0467995 0.0463379 0.0458534 0.0453521 0.0448399 0.0443168 0.0437827 0.0432378 0.042682 0.0421153 0.0415378 0.0409479 0.0403444 0.0397271 0.0390963 0.0384517 0.0377934 0.0371215 0.0364359 0.0357328 0.0350081 0.034262 0.0334944 0.0327053 0.0318947 0.0310626 0.0302091 0.0293341 0.0284377 0.0275198 0.0265805 0.0256198 0.0246376 0.023634 0.022609 0.0215708 0.0205275 0.0194792 0.018426 0.0173677 0.0163044 0.0152362 0.0141629 0.0131009 0.0120666 0.0110599 0.0100808 0.00912938 0.00820558 0.00730942 0.00644089 0.00561598 0.0048507 0.00414504 0.00349899 0.00291257 0.00238577 0.00191858 0.00151102 0.00115687 0.000849947 0.000590241 0.000377754 0.000212487 9.44386e-05 2.36096e-05 0 0 5.51836e-05 0.000220734 0.000496652 0.000882937 0.00137959 0.00198661 0.00270399 0.00353175 0.0044715 0.00552487 0.00669188 0.0079725 0.00936676 0.0108746 0.0124961 0.0142313 0.0160336 0.0178568 0.0197007 0.0215654 0.023451 0.0253573 0.0272845 0.0292324 0.0311616 0.0330324 0.0348449 0.0365991 0.0382949 0.0399324 0.0415116 0.0430325 0.0444785 0.0458333 0.0470968 0.0482691 0.0493502 0.0503399 0.0512385 0.0520457 0.0527657 0.0534022 0.0539553 0.054425 0.0548112 0.0551141 0.0553335 0.0554696 0.0555368 0.0555497 0.0555084 0.0554129 0.0552631 0.0550591 0.0548008 0.0544883 0.0541358 0.0537573 0.053353 0.0529228 0.0524668 0.0519848 0.051477 0.0509433 0.0503904 0.0498248 0.0492465 0.0486556 0.048052 0.0474357 0.0468068 0.0461652 0.0455096 0.0448386 0.0441521 0.0434501 0.0427328 0.042 0.0412517 0.0404881 0.0397048 0.0388979 0.0380673 0.0372131 0.0363352 0.0354336 0.0345083 0.0335593 0.0325869 0.031591 0.0305716 0.0295289 0.0284628 0.0273732 0.0262602 0.0251239 0.023973 0.0228168 0.0216552 0.0204881 0.0193156 0.0181376 0.0169543 0.0157655 0.014589 0.0134428 0.0123267 0.0112408 0.0101851 0.00915959 0.00816423 0.00719905 0.00628178 0.00543017 0.00464422 0.00392393 0.00326929 0.00268032 0.002157 0.00169933 0.00130105 0.000955875 0.000663802 0.000424834 0.000238969 0.000106208 2.65521e-05 0 0 6.12749e-05 0.0002451 0.000551474 0.000980398 0.00153187 0.0022059 0.00300247 0.00392159 0.00496401 0.00613046 0.00742094 0.00883546 0.010374 0.0120366 0.0138232 0.0157339 0.0177176 0.0197235 0.0217515 0.0238016 0.0258738 0.0279682 0.0300847 0.0322233 0.0343411 0.0363951 0.0383854 0.0403118 0.0421746 0.0439735 0.0457087 0.0473801 0.0489698 0.05046 0.0518505 0.0531415 0.0543328 0.0554246 0.0564168 0.0573094 0.0581065 0.0588123 0.0594268 0.05995 0.0603819 0.0607225 0.0609717 0.0611297 0.0612121 0.0612346 0.0611973 0.0611002 0.0609433 0.0607265 0.0604499 0.0601135 0.0597326 0.0593226 0.0588836 0.0584155 0.0579183 0.0573921 0.0568367 0.0562523 0.0556461 0.0550253 0.0543899 0.05374 0.0530754 0.0523963 0.0517026 0.0509943 0.0502701 0.0495286 0.0487698 0.0479936 0.0472002 0.0463894 0.0455614 0.044716 0.043849 0.0429561 0.0420372 0.0410924 0.0401217 0.039125 0.0381024 0.0370539 0.0359796 0.03488 0.0337549 0.0326043 0.0314284 0.030227 0.0290001 0.0277479 0.02648 0.0252062 0.0239266 0.0226411 0.0213498 0.0200526 0.0187496 0.0174407 0.0161452 0.0148825 0.0136526 0.0124555 0.0112911 0.0101595 0.0090606 0.00799451 0.00698075 0.00603891 0.00516896 0.00437092 0.00364479 0.00299057 0.00240825 0.00189784 0.00145303 0.00106753 0.000741343 0.000474459 0.000266883 0.000118615 2.96537e-05 0 0 6.76399e-05 0.000270559 0.000608759 0.00108224 0.001691 0.00243504 0.00331435 0.00432895 0.00547856 0.00676292 0.00818203 0.00973589 0.0114245 0.0132478 0.0152059 0.0172988 0.0194707 0.0216661 0.0238848 0.026127 0.0283926 0.0306816 0.032994 0.0353299 0.0376427 0.0398862 0.0420604 0.0441652 0.0462006 0.0481666 0.0500633 0.0518906 0.0536291 0.0552596 0.0567818 0.058196 0.0595019 0.0606998 0.0617895 0.062771 0.0636487 0.0644271 0.065106 0.0656854 0.0661654 0.066546 0.0668271 0.0670088 0.067108 0.0671415 0.0671094 0.0670117 0.0668483 0.0666192 0.0663246 0.0659643 0.0655549 0.0651131 0.0646