<?xml version="1.0"?> 
<VTKFile type="StructuredGrid" version="0.1"> 
<StructuredGrid WholeExtent="0 128 0 128 0 0"> 
<Piece Extent="0 128 0 128 0 0"> 
<PointData>
<DataArray type="Float32" Name="u" format="ascii" NumberOfComponents="1"> 
0 0 0 0 0 0 0 0 0 0 0 0 0 0 0 0 0 0 0 0 0 0 0 0 0 0 0 0 0 0 0 0 0 0 0 0 0 0 0 0 0 0 0 0 0 0 0 0 0 0 0 0 0 0 0 0 0 0 0 0 0 0 0 0 0 0 0 0 0 0 0 0 0 0 0 0 0 0 0 0 0 0 0 0 0 0 0 0 0 0 0 0 0 0 0 0 0 0 0 0 0 0 0 0 0 0 0 0 0 0 0 0 0 0 0 0 0 0 0 0 0 0 0 0 0 0 0 0 0 0 2.10842e-07 8.43368e-07 1.89758e-06 3.37347e-06 5.27105e-06 7.59032e-06 1.03313e-05 1.34939e-05 1.71394e-05 2.13289e-05 2.60625e-05 3.13401e-05 3.71617e-05 4.35274e-05 5.04372e-05 5.78909e-05 6.56909e-05 7.36393e-05 8.17361e-05 8.99813e-05 9.83749e-05 0.000106917 0.000115607 0.000124446 0.000133248 0.000141826 0.000150182 0.000158315 0.000166224 0.000173911 0.000181375 0.000188615 0.000195543 0.000202068 0.00020819 0.000213908 0.000219224 0.000224137 0.000228646 0.000232753 0.000236447 0.000239719 0.000242568 0.000244995 0.000247 0.000248583 0.000249743 0.000250481 0.000250837 0.000250852 0.000250527 0.00024986 0.000248853 0.000247505 0.000245815 0.000243785 0.000241474 0.000238943 0.00023619 0.000233217 0.000230024 0.000226609 0.000222974 0.000219118 0.000215098 0.000210969 0.000206732 0.000202387 0.000197934 0.000193372 0.000188703 0.000183925 0.00017908 0.000174209 0.000169313 0.00016439 0.000159442 0.000154469 0.000149469 0.000144444 0.000139419 0.000134421 0.00012945 0.000124506 0.000119589 0.000114699 0.000109836 0.000104999 0.000100209 9.5482e-05 9.08196e-05 8.62213e-05 8.16872e-05 7.72172e-05 7.28114e-05 6.84697e-05 6.42122e-05 6.00589e-05 5.60097e-05 5.20648e-05 4.8224e-05 4.44874e-05 4.0855e-05 3.73268e-05 3.39298e-05 3.06912e-05 2.76108e-05 2.46887e-05 2.1925e-05 1.93195e-05 1.68724e-05 1.45835e-05 1.2467e-05 1.0537e-05 8.79345e-06 7.23633e-06 5.86566e-06 4.68145e-06 3.68368e-06 2.87236e-06 2.19915e-06 1.6157e-06 1.12202e-06 7.18091e-07 4.03926e-07 1.79523e-07 4.48807e-08 0 0 8.43368e-07 3.37347e-06 7.59032e-06 1.34939e-05 2.10842e-05 3.03613e-05 4.13251e-05 5.39756e-05 6.85576e-05 8.53157e-05 0.00010425 0.00012536 0.000148647 0.00017411 0.000201749 0.000231564 0.000262764 0.000294557 0.000326944 0.000359925 0.0003935 0.000427668 0.000462429 0.000497785 0.000532991 0.000567305 0.000600728 0.000633258 0.000664897 0.000695644 0.000725499 0.000754462 0.000782173 0.000808272 0.000832759 0.000855634 0.000876896 0.000896547 0.000914586 0.000931012 0.000945788 0.000958875 0.000970273 0.000979981 0.000988 0.00099433 0.000998971 0.00100192 0.00100335 0.00100341 0.00100211 0.000999441 0.000995412 0.000990019 0.000983262 0.000975141 0.000965898 0.000955771 0.000944762 0.000932869 0.000920094 0.000906436 0.000891896 0.000876472 0.000860391 0.000843876 0.000826929 0.000809549 0.000791736 0.00077349 0.000754811 0.000735699 0.00071632 0.000696837 0.000677251 0.000657562 0.00063777 0.000617874 0.000597876 0.000577775 0.000557675 0.000537684 0.0005178 0.000498024 0.000478356 0.000458795 0.000439343 0.000419997 0.000400835 0.000381928 0.000363278 0.000344885 0.000326749 0.000308869 0.000291246 0.000273879 0.000256849 0.000240235 0.000224039 0.000208259 0.000192896 0.00017795 0.00016342 0.000149307 0.000135719 0.000122765 0.000110443 9.87549e-05 8.76999e-05 7.72781e-05 6.74895e-05 5.83341e-05 4.98682e-05 4.21481e-05 3.51738e-05 2.89453e-05 2.34627e-05 1.87258e-05 1.47347e-05 1.14895e-05 8.79661e-06 6.46282e-06 4.48807e-06 2.87236e-06 1.6157e-06 7.18091e-07 1.79523e-07 0 0 1.89758e-06 7.59032e-06 1.70782e-05 3.03613e-05 4.74395e-05 6.83128e-05 9.29814e-05 0.000121445 0.000154254 0.00019196 0.000234562 0.000282061 0.000334456 0.000391747 0.000453934 0.000521018 0.000591218 0.000662754 0.000735625 0.000809832 0.000885374 0.000962252 0.00104047 0.00112002 0.00119923 0.00127644 0.00135164 0.00142483 0.00149602 0.0015652 0.00163237 0.00169754 0.00175989 0.00181861 0.00187371 0.00192518 0.00197302 0.00201723 0.00205782 0.00209478 0.00212802 0.00215747 0.00218311 0.00220496 0.002223 0.00223724 0.00224768 0.00225433 0.00225753 0.00225767 0.00225474 0.00224874 0.00223968 0.00222754 0.00221234 0.00219407 0.00217327 0.00215049 0.00212571 0.00209896 0.00207021 0.00203948 0.00200677 0.00197206 0.00193588 0.00189872 0.00186059 0.00182148 0.00178141 0.00174035 0.00169832 0.00165532 0.00161172 0.00156788 0.00152381 0.00147951 0.00143498 0.00139022 0.00134522 0.00129999 0.00125477 0.00120979 0.00116505 0.00112055 0.0010763 0.00103229 0.000988521 0.000944994 0.000901878 0.000859338 0.000817377 0.000775992 0.000735185 0.000694955 0.000655303 0.000616227 0.00057791 0.00054053 0.000504088 0.000468583 0.000434016 0.000400387 0.000367695 0.000335941 0.000305368 0.00027622 0.000248497 0.000222199 0.000197325 0.000173876 0.000151851 0.000131252 0.000112203 9.48332e-05 7.91411e-05 6.5127e-05 5.2791e-05 4.2133e-05 3.31531e-05 2.58513e-05 1.97924e-05 1.45413e-05 1.00982e-05 6.46282e-06 3.63534e-06 1.6157e-06 4.03926e-07 0 0 3.37347e-06 1.34939e-05 3.03613e-05 5.39756e-05 8.43368e-05 0.000121445 0.0001653 0.000215902 0.00027423 0.000341263 0.000417 0.000501442 0.000594588 0.000696439 0.000806994 0.000926255 0.00105105 0.00117823 0.00130778 0.0014397 0.001574 0.00171067 0.00184972 0.00199114 0.00213196 0.00226922 0.00240291 0.00253303 0.00265959 0.00278257 0.00290199 0.00301785 0.00312869 0.00323309 0.00333103 0.00342253 0.00350759 0.00358619 0.00365834 0.00372405 0.00378315 0.0038355 0.00388109 0.00391992 0.003952 0.00397732 0.00399588 0.00400769 0.00401339 0.00401364 0.00400843 0.00399777 0.00398165 0.00396008 0.00393305 0.00390057 0.00386359 0.00382308 0.00377905 0.00373148 0.00368038 0.00362575 0.00356758 0.00350589 0.00344156 0.0033755 0.00330772 0.0032382 0.00316694 0.00309396 0.00301924 0.0029428 0.00286528 0.00278735 0.002709 0.00263025 0.00255108 0.0024715 0.0023915 0.0023111 0.0022307 0.00215074 0.0020712 0.0019921 0.00191342 0.00183518 0.00175737 0.00167999 0.00160334 0.00152771 0.00145311 0.00137954 0.001307 0.00123548 0.00116498 0.00109552 0.0010274 0.000960942 0.000896156 0.000833036 0.000771584 0.000711799 0.00065368 0.000597229 0.000542877 0.000491058 0.000441773 0.00039502 0.0003508 0.000309112 0.000269958 0.000233336 0.000199473 0.000168592 0.000140695 0.000115781 9.38506e-05 7.49032e-05 5.89389e-05 4.59578e-05 3.51865e-05 2.58513e-05 1.79523e-05 1.14895e-05 6.46282e-06 2.87236e-06 7.18091e-07 0 0 5.27105e-06 2.10842e-05 4.74395e-05 8.43368e-05 0.000131776 0.000189758 0.000258282 0.000337347 0.000428485 0.000533223 0.000651562 0.000783502 0.000929044 0.00108819 0.00126093 0.00144727 0.00164227 0.00184098 0.0020434 0.00224953 0.00245937 0.00267292 0.00289018 0.00311115 0.00333119 0.00354566 0.00375455 0.00395786 0.0041556 0.00434777 0.00453437 0.00471539 0.00488858 0.0050517 0.00520474 0.00534771 0.0054806 0.00560342 0.00571616 0.00581883 0.00591118 0.00599297 0.0060642 0.00612488 0.006175 0.00621456 0.00624357 0.00626202 0.00627092 0.00627131 0.00626317 0.00624651 0.00622132 0.00618762 0.00614539 0.00609463 0.00603686 0.00597357 0.00590476 0.00583043 0.00575059 0.00566523 0.00557435 0.00547795 0.00537744 0.00527423 0.00516831 0.00505968 0.00494835 0.00483431 0.00471757 0.00459812 0.004477 0.00435523 0.00423282 0.00410976 0.00398606 0.00386172 0.00373673 0.00361109 0.00348547 0.00336052 0.00323625 0.00311265 0.00298972 0.00286747 0.00274589 0.00262498 0.00250522 0.00238705 0.00227049 0.00215553 0.00204218 0.00193043 0.00182028 0.00171174 0.0016053 0.00150147 0.00140024 0.00130162 0.0012056 0.00111219 0.00102138 0.00093317 0.000848246 0.000767279 0.00069027 0.000617218 0.000548124 0.000482988 0.000421809 0.000364588 0.000311676 0.000263426 0.000219836 0.000180908 0.000146642 0.000117036 9.2092e-05 7.18091e-05 5.49788e-05 4.03926e-05 2.80504e-05 1.79523e-05 1.00982e-05 4.48807e-06 1.12202e-06 0 0 7.59032e-06 3.03613e-05 6.83128e-05 0.000121445 0.000189758 0.000273251 0.000371925 0.00048578 0.000617018 0.000767841 0.00093825 0.00112824 0.00133782 0.00156699 0.00181574 0.00208407 0.00236487 0.00265101 0.0029425 0.00323933 0.0035415 0.00384901 0.00416186 0.00448006 0.00479692 0.00510575 0.00540655 0.00569932 0.00598407 0.00626079 0.00652949 0.00679015 0.00703955 0.00727445 0.00749483 0.0077007 0.00789207 0.00806892 0.00823127 0.00837911 0.00851209 0.00862987 0.00873245 0.00881983 0.008892 0.00894897 0.00899074 0.0090173 0.00903013 0.00903068 0.00901897 0.00899497 0.00895871 0.00891017 0.00884936 0.00877627 0.00869308 0.00860194 0.00850286 0.00839583 0.00828085 0.00815793 0.00802706 0.00788825 0.00774352 0.00759489 0.00744236 0.00728594 0.00712562 0.00696141 0.0067933 0.00662129 0.00644688 0.00627153 0.00609526 0.00591806 0.00573993 0.00556087 0.00538088 0.00519997 0.00501908 0.00483916 0.0046602 0.00448222 0.0043052 0.00412916 0.00395408 0.00377998 0.00360751 0.00343735 0.00326951 0.00310397 0.00294074 0.00277982 0.00262121 0.00246491 0.00231164 0.00216212 0.00201635 0.00187433 0.00173606 0.00160155 0.00147078 0.00134376 0.00122147 0.00110488 0.000993988 0.000888794 0.000789299 0.000695503 0.000607405 0.000525007 0.000448814 0.000379333 0.000316564 0.000260508 0.000211164 0.000168532 0.000132612 0.000103405 7.91695e-05 5.81654e-05 4.03926e-05 2.58513e-05 1.45413e-05 6.46282e-06 1.6157e-06 0 0 1.03313e-05 4.13251e-05 9.29814e-05 0.0001653 0.000258282 0.000371925 0.000506232 0.000661201 0.00083983 0.00104512 0.00127706 0.00153566 0.00182093 0.00213284 0.00247142 0.00283665 0.00321885 0.00360833 0.00400507 0.00440908 0.00482037 0.00523893 0.00566476 0.00609786 0.00652914 0.00694949 0.00735891 0.00775741 0.00814499 0.00852163 0.00888736 0.00924215 0.00958162 0.00990133 0.0102013 0.0104815 0.010742 0.0109827 0.0112037 0.0114049 0.0115859 0.0117462 0.0118858 0.0120048 0.012103 0.0121805 0.0122374 0.0122736 0.012291 0.0122918 0.0122758 0.0122432 0.0121938 0.0121277 0.012045 0.0119455 0.0118322 0.0117082 0.0115733 0.0114277 0.0112712 0.0111038 0.0109257 0.0107368 0.0105398 0.0103375 0.0101299 0.00991697 0.00969876 0.00947525 0.00924643 0.00901232 0.00877492 0.00853625 0.00829632 0.00805513 0.00781268 0.00756896 0.00732398 0.00707774 0.00683152 0.00658663 0.00634305 0.0061008 0.00585986 0.00562024 0.00538195 0.00514497 0.00491022 0.00467862 0.00445016 0.00422485 0.00400267 0.00378364 0.00356776 0.00335502 0.0031464 0.00294288 0.00274448 0.00255117 0.00236298 0.00217988 0.0020019 0.00182901 0.00166256 0.00150387 0.00135293 0.00120975 0.00107432 0.000946656 0.000826746 0.000714592 0.000610885 0.000516314 0.000430879 0.00035458 0.000287418 0.000229391 0.0001805 0.000140746 0.000107759 7.91695e-05 5.49788e-05 3.51865e-05 1.97924e-05 8.79661e-06 2.19915e-06 0 0 1.34939e-05 5.39756e-05 0.000121445 0.000215902 0.000337347 0.00048578 0.000661201 0.000863609 0.00109692 0.00136505 0.001668 0.00200577 0.00237835 0.00278576 0.00322798 0.00370502 0.00420422 0.00471291 0.00523111 0.0057588 0.00629599 0.00684268 0.00739887 0.00796455 0.00852785 0.00907688 0.00961164 0.0101321 0.0106383 0.0111303 0.011608 0.0120714 0.0125148 0.0129323 0.0133241 0.0136901 0.0140303 0.0143448 0.0146334 0.0148962 0.0151326 0.015342 0.0155244 0.0156797 0.015808 0.0159093 0.0159835 0.0160308 0.0160536 0.0160545 0.0160337 0.0159911 0.0159266 0.0158403 0.0157322 0.0156023 0.0154544 0.0152923 0.0151162 0.0149259 0.0147215 0.014503 0.0142703 0.0140236 0.0137662 0.013502 0.0132309 0.0129528 0.0126678 0.0123758 0.012077 0.0117712 0.0114611 0.0111494 0.010836 0.010521 0.0102043 0.00988599 0.00956602 0.00924439 0.00892281 0.00860294 0.0082848 0.00796839 0.00765369 0.00734073 0.00702948 0.00671996 0.00641335 0.00611085 0.00581246 0.00551817 0.00522798 0.0049419 0.00465993 0.00438206 0.00410958 0.00384377 0.00358462 0.00333215 0.00308634 0.00284719 0.00261472 0.00238891 0.00217151 0.00196423 0.00176709 0.00158008 0.0014032 0.00123645 0.00107983 0.000933345 0.000797891 0.000674369 0.000562781 0.000463125 0.000375403 0.000299613 0.000235756 0.000183831 0.000140746 0.000103405 7.18091e-05 4.59578e-05 2.58513e-05 1.14895e-05 2.87236e-06 0 0 1.71653e-05 6.8661e-05 0.000154487 0.000274644 0.000429131 0.000617949 0.000841097 0.00109858 0.00139518 0.0017357 0.00212015 0.00254851 0.00302079 0.003537 0.00409712 0.00470116 0.00533313 0.00597702 0.00663285 0.00730061 0.00798029 0.00867191 0.00937546 0.0100909 0.0108034 0.0114978 0.0121741 0.0128325 0.0134728 0.014095 0.0146993 0.0152855 0.0158464 0.0163747 0.0168704 0.0173335 0.0177641 0.018162 0.0185274 0.0188602 0.0191595 0.0194248 0.0196558 0.0198527 0.0200154 0.0201439 0.0202383 0.0202985 0.0203278 0.0203295 0.0203035 0.02025 0.0201689 0.0200601 0.0199237 0.0197598 0.019573 0.0193684 0.0191459 0.0189054 0.0186471 0.0183709 0.0180767 0.0177647 0.0174394 0.0171052 0.0167622 0.0164105 0.0160499 0.0156806 0.0153025 0.0149155 0.0145231 0.0141286 0.013732 0.0133333 0.0129325 0.0125295 0.0121245 0.0117173 0.0113101 0.0109052 0.0105023 0.0101017 0.00970323 0.00930692 0.00891279 0.00852082 0.00813253 0.00774943 0.00737153 0.00699882 0.0066313 0.00626897 0.00591184 0.0055599 0.00521476 0.00487806 0.0045498 0.00422996 0.00391856 0.00361558 0.00332104 0.00303493 0.00275944 0.00249673 0.00224682 0.0020097 0.00178537 0.00157384 0.00137509 0.00118914 0.00101713 0.000860209 0.00071837 0.000591617 0.00047995 0.000383369 0.000301874 0.000235464 0.000180277 0.000132449 9.19783e-05 5.88661e-05 3.31122e-05 1.47165e-05 3.67913e-06 0 0 2.14324e-05 8.57295e-05 0.000192891 0.000342918 0.000535809 0.000771566 0.00105019 0.00137167 0.0017415 0.00216514 0.00264259 0.00317386 0.00375894 0.00439784 0.00509055 0.00583708 0.00661775 0.0074129 0.00822252 0.00904663 0.0098852 0.0107383 0.0116058 0.0124878 0.013366 0.0142219 0.0150557 0.0158674 0.0166568 0.0174241 0.0181691 0.0188921 0.0195838 0.0202355 0.0208471 0.0214187 0.0219501 0.0224415 0.0228927 0.0233039 0.0236741 0.0240021 0.024288 0.0245318 0.0247336 0.0248932 0.0250108 0.0250863 0.0251236 0.0251269 0.0250962 0.0250313 0.0249324 0.0247994 0.0246323 0.0244311 0.0242018 0.0239504 0.0236768 0.023381 0.0230631 0.022723 0.0223608 0.0219765 0.0215756 0.0211637 0.0207409 0.0203072 0.0198626 0.019407 0.0189404 0.0184629 0.0179787 0.0174917 0.0170021 0.0165097 0.0160148 0.0155171 0.0150167 0.0145137 0.0140107 0.0135103 0.0130126 0.0125174 0.012025 0.0115351 0.011048 0.0105634 0.0100834 0.00960976 0.00914253 0.0086817 0.00822727 0.00777923 0.0073376 0.00690236 0.00647552 0.00605907 0.00565301 0.00525734 0.00487205 0.00449716 0.00413265 0.00377853 0.00343747 0.00311211 0.00280246 0.00250852 0.00223029 0.00196778 0.00172097 0.00148987 0.00127592 0.00108054 0.000903745 0.000745528 0.000605889 0.00048483 0.00038235 0.000298448 0.000228499 0.000167877 0.000116581 7.4612e-05 4.19693e-05 1.8653e-05 4.66325e-06 0 0 2.62953e-05 0.000105181 0.000236657 0.000420724 0.000657382 0.00094663 0.00128847 0.0016829 0.00213587 0.00265335 0.00323533 0.00388181 0.0045928 0.00536829 0.00620828 0.00711277 0.00805808 0.00902053 0.0100001 0.0109969 0.0120107 0.0130417 0.0140899 0.0151552 0.0162157 0.0172494 0.0182565 0.0192368 0.0201905 0.0211174 0.0220176 0.0228911 0.0237271 0.0245148 0.0252543 0.0259455 0.0265884 0.0271831 0.0277294 0.0282275 0.0286761 0.0290739 0.0294209 0.0297171 0.0299625 0.0301572 0.030301 0.0303941 0.0304411 0.030447 0.0304116 0.030335 0.0302171 0.0300581 0.0298578 0.0296163 0.0293407 0.0290382 0.0287089 0.0283527 0.0279695 0.0275595 0.0271226 0.0266588 0.0261749 0.0256776 0.025167 0.024643 0.0241056 0.0235549 0.0229909 0.0224134 0.0218277 0.0212385 0.0206461 0.0200503 0.0194512 0.0188487 0.0182429 0.0176338 0.0170245 0.0164184 0.0158155 0.0152156 0.0146189 0.0140254 0.013435 0.0128477 0.0122659 0.0116918 0.0111254 0.0105668 0.0100159 0.00947268 0.00893721 0.00840947 0.00789186 0.00738679 0.00689426 0.00641427 0.00594682 0.00549191 0.00504954 0.00461971 0.0042056 0.00381036 0.00343401 0.00307655 0.00273797 0.00241827 0.00211745 0.00183552 0.00157424 0.00133537 0.00111891 0.000924859 0.000753222 0.000603997 0.000477184 0.000372783 0.000285412 0.00020969 0.000145618 9.31957e-05 5.24226e-05 2.32989e-05 5.82473e-06 0 0 3.17539e-05 0.000127016 0.000285785 0.000508063 0.000793848 0.00114314 0.00155594 0.00203225 0.00257831 0.00320034 0.00389837 0.00467237 0.00552236 0.00644834 0.00745029 0.00852824 0.00965413 0.0107999 0.0119657 0.0131513 0.0143568 0.0155823 0.0168277 0.018093 0.0193524 0.0205802 0.0217764 0.0229409 0.0240738 0.0251751 0.0262447 0.0272827 0.0282762 0.0292127 0.0300919 0.0309141 0.031679 0.0323868 0.0330375 0.033631 0.0341658 0.0346403 0.0350546 0.0354086 0.0357023 0.0359358 0.036109 0.036222 0.0362803 0.0362896 0.0362498 0.036161 0.0360231 0.0358362 0.0356003 0.0353153 0.0349897 0.0346321 0.0342423 0.0338204 0.0333664 0.0328803 0.032362 0.0318117 0.0312373 0.0306468 0.0300403 0.0294178 0.0287791 0.0281245 0.0274538 0.026767 0.0260702 0.0253692 0.0246642 0.023955 0.0232418 0.0225244 0.0218029 0.0210774 0.0203516 0.0196295 0.018911 0.0181962 0.0174851 0.0167777 0.0160739 0.0153738 0.0146801 0.0139956 0.0133203 0.0126541 0.0119971 0.0113493 0.0107107 0.0100812 0.00946377 0.00886122 0.00827355 0.00770076 0.00714286 0.00659985 0.00607172 0.00555847 0.00506383 0.0045915 0.00414148 0.00371378 0.00330839 0.00292531 0.00256455 0.0022261 0.0019121 0.00162469 0.00136386 0.00112961 0.000921948 0.00074087 0.000586377 0.000458468 0.000351014 0.000257888 0.000179089 0.000114617 6.4472e-05 2.86542e-05 7.16356e-06 0 0 3.78083e-05 0.000151233 0.000340275 0.000604933 0.000945209 0.0013611 0.00185261 0.00241973 0.0030688 0.00380612 0.0046317 0.00554554 0.00654763 0.00763799 0.0088166 0.0100835 0.0114059 0.0127511 0.0141191 0.0155099 0.0169236 0.01836 0.0198193 0.0213013 0.0227763 0.0242143 0.0256154 0.0269796 0.0283068 0.029597 0.0308503 0.0320667 0.0332312 0.034329 0.03536 0.0363244 0.0372219 0.0380528 0.0388169 0.0395142 0.040143 0.0407012 0.0411889 0.0416061 0.0419528 0.042229 0.0424347 0.0425699 0.0426411 0.0426547 0.0426108 0.0425094 0.0423504 0.0421338 0.0418598 0.0415282 0.0411489 0.0407318 0.0402769 0.0397842 0.0392536 0.0386853 0.0380791 0.0374352 0.0367628 0.0360714 0.035361 0.0346316 0.0338831 0.0331156 0.0323291 0.0315236 0.0307061 0.0298837 0.0290562 0.0282238 0.0273865 0.0265441 0.0256968 0.0248445 0.0239919 0.0231435 0.0222993 0.0214593 0.0206235 0.019792 0.0189647 0.0181416 0.017326 0.0165212 0.0157271 0.0149437 0.014171 0.0134092 0.012658 0.0119176 0.0111913 0.0104824 0.00979087 0.00911681 0.00846018 0.00782097 0.00719918 0.00659481 0.00601216 0.00545551 0.00492486 0.00442021 0.00394156 0.0034889 0.00306225 0.00266161 0.0022895 0.0019485 0.00163859 0.00135978 0.00111207 0.000895448 0.000709928 0.000555503 0.000425307 0.000312471 0.000216993 0.000138876 7.81177e-05 3.4719e-05 8.67974e-06 0 0 4.44585e-05 0.000177834 0.000400127 0.000711336 0.00111146 0.00160051 0.00217847 0.00284535 0.00360735 0.00447067 0.00543533 0.00650131 0.00766861 0.00893725 0.0103072 0.0117785 0.0133134 0.014874 0.0164605 0.0180728 0.0197109 0.0213748 0.0230646 0.0247801 0.0264873 0.0281518 0.0297736 0.0313528 0.0328894 0.0343833 0.0358346 0.0372432 0.038592 0.0398638 0.0410586 0.0421764 0.0432171 0.0441809 0.0450676 0.0458773 0.0466077 0.0472566 0.047824 0.0483099 0.0487142 0.049037 0.0492782 0.0494379 0.0495235 0.0495424 0.0494946 0.0493801 0.0491988 0.0489509 0.0486362 0.0482549 0.0478182 0.0473374 0.0468127 0.046244 0.0456313 0.0449746 0.0442739 0.0435292 0.0427514 0.0419513 0.041129 0.0402844 0.0394175 0.0385284 0.037617 0.0366834 0.0357356 0.0347819 0.0338223 0.0328568 0.0318853 0.0309079 0.0299246 0.0289353 0.0279454 0.0269604 0.0259802 0.0250048 0.0240342 0.0230684 0.0221074 0.0211512 0.0202036 0.0192685 0.0183457 0.0174355 0.0165376 0.0156522 0.0147792 0.0139186 0.0130743 0.0122502 0.0114462 0.0106624 0.00989877 0.00915527 0.00843192 0.00772874 0.0070506 0.0064024 0.00578415 0.00519584 0.00463747 0.00410905 0.00361057 0.00314204 0.00270645 0.00230681 0.00194311 0.00161537 0.00132358 0.00106773 0.000847837 0.00066389 0.000508291 0.000373438 0.000259332 0.000165972 9.33595e-05 4.14931e-05 1.03733e-05 0 0 5.17045e-05 0.000206818 0.00046534 0.000827272 0.00129261 0.00186136 0.00253352 0.00330909 0.00419395 0.00519401 0.00630925 0.00753968 0.0088853 0.0103461 0.0119221 0.0136133 0.0153765 0.0171687 0.0189898 0.0208399 0.0227189 0.0246268 0.0265636 0.0285294 0.0304853 0.0323925 0.0342509 0.0360606 0.0378216 0.0395339 0.0411974 0.0428122 0.0443587 0.0458171 0.0471876 0.0484701 0.0496646 0.0507711 0.0517897 0.0527202 0.0535601 0.0543066 0.0549598 0.0555197 0.0559863 0.0563595 0.0566394 0.056826 0.0569276 0.0569527 0.0569012 0.0567732 0.0565686 0.0562874 0.0559297 0.0554954 0.0549976 0.054449 0.0538498 0.0531999 0.0524994 0.0517482 0.0509464 0.0500939 0.0492031 0.0482866 0.0473443 0.0463762 0.0453824 0.0443628 0.0433173 0.0422462 0.0411586 0.040064 0.0389624 0.0378539 0.0367383 0.0356157 0.0344862 0.0333496 0.0322122 0.0310803 0.0299538 0.0288327 0.027717 0.0266067 0.0255019 0.0244025 0.0233128 0.0222375 0.0211763 0.0201295 0.0190968 0.0180784 0.0170742 0.0160843 0.015113 0.0141648 0.0132396 0.0123376 0.0114586 0.0106028 0.00976995 0.00896024 0.00817913 0.00743217 0.00671935 0.00604067 0.00539614 0.00478575 0.0042095 0.00366739 0.00316293 0.00269961 0.00227742 0.00189638 0.00155648 0.00125772 0.0010001 0.000783627 0.000599964 0.00044079 0.000306104 0.000195907 0.000110197 4.89767e-05 1.22442e-05 0 0 5.95462e-05 0.000238185 0.000535916 0.000952739 0.00148866 0.00214366 0.00291776 0.00381096 0.00482862 0.00597612 0.00725347 0.00866066 0.0101977 0.0118646 0.0136613 0.0155879 0.0175954 0.0196352 0.0217071 0.0238112 0.0259474 0.0281158 0.0303164 0.0325492 0.0347705 0.0369365 0.0390474 0.041103 0.0431035 0.0450488 0.0469388 0.0487737 0.0505312 0.052189 0.0537471 0.0552056 0.0565644 0.0578236 0.0589831 0.0600429 0.061 0.0618511 0.0625964 0.0632358 0.0637692 0.0641967 0.0645184 0.0647341 0.0648534 0.0648855 0.0648306 0.0646886 0.0644595 0.0641434 0.0637402 0.0632498 0.0626871 0.0620665 0.0613881 0.0606519 0.0598579 0.0590061 0.0580965 0.0571291 0.0561179 0.0550772 0.054007 0.0529071 0.0517777 0.0506187 0.0494302 0.048212 0.046975 0.0457299 0.0444766 0.0432151 0.0419454 0.0406676 0.0393816 0.0380875 0.0367923 0.0355032 0.0342201 0.032943 0.0316721 0.0304071 0.0291483 0.0278955 0.0266538 0.0254282 0.0242189 0.0230257 0.0218486 0.0206878 0.0195431 0.0184145 0.0173072 0.016226 0.0151711 0.0141423 0.0131398 0.0121634 0.0112133 0.0102893 0.00939777 0.00854482 0.00773047 0.00695471 0.00621756 0.005519 0.00485904 0.00423768 0.00365895 0.0031269 0.00264152 0.00220281 0.00181078 0.00146542 0.00116673 0.000914714 0.000700328 0.000514527 0.00035731 0.000228679 0.000128632 5.71696e-05 1.42924e-05 0 0 6.78231e-05 0.000271292 0.000610408 0.00108517 0.00169558 0.00244163 0.00332333 0.00434068 0.00549837 0.00680109 0.00824885 0.00984165 0.0115795 0.0134623 0.0154902 0.0176632 0.0199264 0.022225 0.024559 0.0269285 0.0293334 0.0317738 0.0342496 0.0367608 0.0392588 0.0416948 0.0440689 0.0463811 0.0486313 0.0508196 0.0529459 0.0550103 0.0569879 0.0588536 0.0606076 0.0622498 0.0637802 0.0651988 0.0665056 0.0677007 0.0687804 0.0697411 0.0705828 0.0713055 0.0719092 0.0723939 0.0727596 0.0730063 0.0731445 0.0731847 0.0731268 0.0729708 0.0727167 0.0723646 0.0719145 0.0713663 0.0707364 0.0700411 0.0692806 0.0684548 0.0675637 0.0666073 0.0655856 0.0644985 0.0633621 0.062192 0.0609884 0.0597513 0.0584805 0.0571762 0.0558384 0.0544669 0.053074 0.0516716 0.0502599 0.0488387 0.0474081 0.0459681 0.0445187 0.0430598 0.0415996 0.0401461 0.0386993 0.0372592 0.0358258 0.0343992 0.0329792 0.0315659 0.030165 0.0287824 0.0274178 0.0260715 0.0247433 0.0234333 0.0221415 0.0208678 0.0196179 0.0183975 0.0172065 0.016045 0.0149129 0.0138102 0.012737 0.0116932 0.0106857 0.00972147 0.00880043 0.00792261 0.007088 0.0062966 0.00554842 0.00484345 0.00418631 0.00358163 0.00302939 0.00252961 0.00208228 0.0016874 0.00134498 0.001055 0.000807734 0.000593437 0.000412109 0.00026375 0.000148359 6.59375e-05 1.64844e-05 0 0 7.63747e-05 0.000305499 0.000687372 0.00122199 0.00190937 0.00274949 0.00374236 0.00488798 0.00619023 0.00765299 0.00927626 0.01106 0.0130043 0.0151091 0.0173745 0.0198003 0.0223257 0.0248898 0.0274924 0.0301338 0.0328138 0.0355324 0.0382897 0.0410856 0.0438665 0.0465785 0.0492216 0.0517959 0.0543014 0.056738 0.0591057 0.0614047 0.0636071 0.0656854 0.0676396 0.0694697 0.0711757 0.0727575 0.0742152 0.0755488 0.0767542 0.0778273 0.078768 0.0795764 0.0802524 0.0807962 0.0812076 0.0814867 0.0816449 0.0816939 0.0816336 0.0814641 0.0811852 0.080797 0.0802996 0.0796928 0.078995 0.0782241 0.0773802 0.0764634 0.0754735 0.0744107 0.0732748 0.072066 0.0708018 0.0694999 0.0681603 0.066783 0.065368 0.0639153 0.0624249 0.0608968 0.0593444 0.0577814 0.0562075 0.054623 0.0530277 0.0514217 0.0498049 0.0481774 0.0465482 0.0449264 0.0433119 0.0417047 0.0401048 0.0385123 0.0369272 0.0353493 0.0337853 0.0322414 0.0307177 0.0292143 0.027731 0.0262679 0.0248251 0.0234024 0.0220062 0.0206427 0.0193119 0.0180139 0.0167486 0.015516 0.0143161 0.013149 0.0120222 0.0109432 0.00991217 0.00892901 0.00799374 0.00710636 0.00626687 0.00547527 0.00473681 0.00405673 0.00343504 0.00287173 0.0023668 0.00192026 0.0015321 0.00120233 0.000920534 0.000676311 0.00046966 0.000300582 0.000169078 7.51456e-05 1.87864e-05 0 0 8.52008e-05 0.000340803 0.000766808 0.00136321 0.00213002 0.00306723 0.00417484 0.00545285 0.0069042 0.00853182 0.0103357 0.0123159 0.0144723 0.016805 0.0193139 0.0219992 0.0247934 0.0276295 0.0305073 0.033427 0.0363885 0.0393917 0.0424368 0.0455236 0.0485935 0.0515874 0.0545053 0.0573474 0.0601136 0.0628039 0.0654183 0.0679567 0.0703889 0.0726844 0.0748432 0.0768654 0.0787509 0.0804997 0.0821118 0.0835873 0.0849215 0.0861097 0.0871521 0.0880485 0.088799 0.0894036 0.0898623 0.0901751 0.0903546 0.0904133 0.0903512 0.0901684 0.0898649 0.0894405 0.0888955 0.0882296 0.087463 0.0866154 0.085687 0.0846777 0.0835874 0.0824163 0.0811643 0.0798315 0.0784371 0.0770009 0.0755226 0.0740023 0.0724401 0.0708359 0.0691897 0.0675016 0.0657864 0.064059 0.0623196 0.060568 0.0588043 0.0570284 0.0552404 0.0534403 0.0516382 0.049844 0.0480577 0.0462794 0.0445091 0.0427467 0.0409923 0.0392458 0.0375145 0.0358054 0.0341186 0.032454 0.0308117 0.0291917 0.0275939 0.0260183 0.024472 0.0229616 0.0214874 0.0200491 0.018647 0.0172809 0.0159508 0.0146568 0.0134071 0.0122101 0.0110657 0.00997393 0.00893479 0.00794828 0.0070144 0.00613315 0.00531045 0.00455222 0.00385846 0.00322917 0.00266435 0.002164 0.00172812 0.00135671 0.00103873 0.000763147 0.000529963 0.000339176 0.000190787 8.47941e-05 2.11985e-05 0 0 9.43016e-05 0.000377207 0.000848715 0.00150883 0.00235754 0.00339486 0.00462078 0.0060353 0.00764028 0.00943757 0.0114272 0.0136091 0.0159833 0.0185498 0.0213086 0.0242598 0.0273295 0.0304442 0.0336037 0.0368081 0.0400575 0.0433517 0.0466908 0.0500748 0.0534398 0.0567215 0.0599202 0.0630357 0.0660681 0.0690174 0.0718835 0.0746665 0.0773333 0.0798506 0.0822184 0.0844368 0.0865058 0.0884253 0.0901954 0.0918161 0.0932821 0.0945885 0.095735 0.0967219 0.0975489 0.0982163 0.0987239 0.0990717 0.0992735 0.0993428 0.0992796 0.0990839 0.0987558 0.0982952 0.0977021 0.0969766 0.0961403 0.0952151 0.0942008 0.0930976 0.0919054 0.0906242 0.0892541 0.0877949 0.0862681 0.0846948 0.0830752 0.0814092 0.0796968 0.0779381 0.0761329 0.0742813 0.0723998 0.0705047 0.0685959 0.0666736 0.0647377 0.0627883 0.0608252 0.0588486 0.0568694 0.0548988 0.0529368 0.0509834 0.0490385 0.0471022 0.0451745 0.0432554 0.0413527 0.0394744 0.0376204 0.0357907 0.0339854 0.0322045 0.0304479 0.0287156 0.0270152 0.0253543 0.0237327 0.0221506 0.020608 0.0191047 0.0176409 0.0162166 0.0148406 0.0135221 0.012261 0.0110574 0.00991114 0.00882236 0.007791 0.00681708 0.00590723 0.00506808 0.00429965 0.00360193 0.00297491 0.00241861 0.00193301 0.00151813 0.00116231 0.000853945 0.000593018 0.000379531 0.000213486 9.48828e-05 2.37207e-05 0 0 0.000103677 0.000414708 0.000933093 0.00165883 0.00259193 0.00373237 0.00508018 0.00663533 0.00839848 0.0103703 0.0125507 0.0149397 0.0175374 0.0203437 0.0233586 0.0265822 0.029934 0.0333338 0.0367816 0.0402772 0.0438208 0.0474124 0.0510518 0.0547392 0.0584054 0.061981 0.0654661 0.0688607 0.0721648 0.0753784 0.0785015 0.0815341 0.0844402 0.0871839 0.0897652 0.092184 0.0944404 0.0965345 0.098466 0.100235 0.101836 0.103263 0.104517 0.105596 0.106502 0.107234 0.107792 0.108176 0.108402 0.108482 0.108419 0.10821 0.107858 0.107361 0.10672 0.105934 0.105027 0.104023 0.102922 0.101723 0.100427 0.0990344 0.097544 0.0959563 0.0942946 0.0925819 0.0908183 0.0890037 0.0871382 0.0852217 0.0832544 0.081236 0.0791847 0.0771182 0.0750367 0.07294 0.0708282 0.0687012 0.0665592 0.0644021 0.0622419 0.060091 0.0579492 0.0558166 0.0536932 0.0515789 0.0494739 0.047378 0.0452999 0.0432483 0.0412231 0.0392244 0.0372521 0.0353064 0.033387 0.0314942 0.029636 0.0278206 0.0260481 0.0243184 0.0226316 0.0209877 0.0193866 0.0178283 0.0163226 0.0148792 0.0134981 0.0121793 0.0109228 0.00972859 0.00859668 0.00752706 0.00652714 0.00560433 0.00475861 0.00399 0.0032985 0.00268409 0.00214679 0.00168659 0.0012913 0.000948707 0.000658824 0.000421647 0.000237177 0.000105412 2.6353e-05 0 0 0.000113327 0.000453308 0.00101994 0.00181323 0.00283318 0.00407978 0.00555303 0.00725293 0.00917879 0.0113299 0.0137062 0.0163078 0.0191346 0.0221866 0.0254639 0.0289664 0.0326069 0.0362984 0.0400409 0.0438342 0.0476785 0.0515737 0.0555198 0.0595168 0.0634903 0.0673657 0.0711431 0.0748225 0.0784037 0.081887 0.0852722 0.0885593 0.0917097 0.0946844 0.0974835 0.100107 0.102555 0.104827 0.106924 0.108845 0.110584 0.112135 0.113498 0.114672 0.115659 0.116457 0.117067 0.117489 0.117739 0.117832 0.117768 0.117548 0.117171 0.116638 0.115948 0.115101 0.114123 0.113039 0.11185 0.110555 0.109154 0.107647 0.106034 0.104316 0.102517 0.100662 0.0987517 0.0967857 0.0947641 0.0926869 0.0905541 0.0883657 0.0861411 0.0838998 0.0816417 0.079367 0.0770755 0.0747673 0.0724425 0.0701008 0.0677558 0.0654205 0.0630949 0.0607791 0.0584731 0.0561768 0.0538903 0.0516136 0.049356 0.0471271 0.0449268 0.042755 0.0406119 0.0384974 0.0364114 0.0343541 0.0323342 0.0303607 0.028433