<?xml version="1.0"?> 
<VTKFile type="StructuredGrid" version="0.1"> 
<StructuredGrid WholeExtent="0 128 0 128 0 0"> 
<Piece Extent="0 128 0 128 0 0"> 
<PointData>
<DataArray type="Float32" Name="u" format="ascii" NumberOfComponents="1"> 
0 0 0 0 0 0 0 0 0 0 0 0 0 0 0 0 0 0 0 0 0 0 0 0 0 0 0 0 0 0 0 0 0 0 0 0 0 0 0 0 0 0 0 0 0 0 0 0 0 0 0 0 0 0 0 0 0 0 0 0 0 0 0 0 0 0 0 0 0 0 0 0 0 0 0 0 0 0 0 0 0 0 0 0 0 0 0 0 0 0 0 0 0 0 0 0 0 0 0 0 0 0 0 0 0 0 0 0 0 0 0 0 0 0 0 0 0 0 0 0 0 0 0 0 0 0 0 0 0 0 5.0627e-07 2.02508e-06 4.55643e-06 8.10032e-06 1.26568e-05 1.82257e-05 2.48072e-05 3.24013e-05 4.1158e-05 5.12274e-05 6.26097e-05 7.53047e-05 8.93124e-05 0.000104633 0.000121266 0.000139212 0.000157991 0.000177122 0.000196606 0.000216442 0.00023663 0.000257171 0.000278065 0.000299311 0.000320442 0.000340991 0.000360958 0.000380343 0.000399146 0.000417367 0.000435005 0.000452062 0.000468294 0.000483457 0.000497552 0.000510579 0.000522538 0.000533428 0.00054325 0.000552004 0.000559654 0.000566164 0.000571534 0.000575765 0.000578855 0.000580805 0.000581616 0.000581286 0.00057993 0.000577659 0.000574474 0.000570375 0.000565362 0.000559434 0.000552592 0.000544836 0.000536353 0.000527328 0.000517763 0.000507657 0.00049701 0.000485823 0.000474094 0.000461825 0.000449206 0.000436427 0.000423489 0.000410392 0.000397135 0.000383718 0.000370143 0.000356407 0.00034266 0.000329046 0.000315568 0.000302223 0.000289014 0.000275938 0.000262997 0.000250191 0.000237604 0.00022532 0.000213339 0.000201663 0.00019029 0.00017922 0.000168454 0.000157992 0.000147861 0.000138093 0.000128685 0.000119639 0.000110954 0.00010263 9.46676e-05 8.70663e-05 7.98205e-05 7.29245e-05 6.63781e-05 6.01815e-05 5.43345e-05 4.88373e-05 4.36898e-05 3.8892e-05 3.44233e-05 3.02632e-05 2.64117e-05 2.28688e-05 1.96345e-05 1.67087e-05 1.40915e-05 1.1783e-05 9.73858e-06 7.91402e-06 6.30928e-06 4.92436e-06 3.75926e-06 2.81399e-06 2.08853e-06 1.5829e-06 1.21191e-06 8.90379e-07 6.18319e-07 3.95724e-07 2.22595e-07 9.8931e-08 2.47328e-08 0 0 2.02508e-06 8.10032e-06 1.82257e-05 3.24013e-05 5.0627e-05 7.29029e-05 9.92289e-05 0.000129605 0.000164632 0.00020491 0.000250439 0.000301219 0.00035725 0.000418532 0.000485065 0.000556849 0.000631963 0.000708488 0.000786422 0.000865766 0.00094652 0.00102868 0.00111226 0.00119724 0.00128177 0.00136396 0.00144383 0.00152137 0.00159658 0.00166947 0.00174002 0.00180825 0.00187318 0.00193383 0.00199021 0.00204232 0.00209015 0.00213371 0.002173 0.00220802 0.00223862 0.00226466 0.00228614 0.00230306 0.00231542 0.00232322 0.00232646 0.00232515 0.00231972 0.00231064 0.0022979 0.0022815 0.00226145 0.00223774 0.00221037 0.00217935 0.00214541 0.00210931 0.00207105 0.00203063 0.00198804 0.00194329 0.00189638 0.0018473 0.00179682 0.00174571 0.00169396 0.00164157 0.00158854 0.00153487 0.00148057 0.00142563 0.00137064 0.00131619 0.00126227 0.00120889 0.00115605 0.00110375 0.00105199 0.00100076 0.000950414 0.000901279 0.000853358 0.000806651 0.000761158 0.00071688 0.000673816 0.000631966 0.000591446 0.000552371 0.000514741 0.000478555 0.000443815 0.00041052 0.00037867 0.000348265 0.000319282 0.000291698 0.000265512 0.000240726 0.000217338 0.000195349 0.000174759 0.000155568 0.000137693 0.000121053 0.000105647 9.14752e-05 7.85378e-05 6.68348e-05 5.63662e-05 4.71318e-05 3.89543e-05 3.16561e-05 2.52371e-05 1.96974e-05 1.50371e-05 1.12559e-05 8.35412e-06 6.33159e-06 4.84762e-06 3.56152e-06 2.47328e-06 1.5829e-06 8.90379e-07 3.95724e-07 9.8931e-08 0 0 4.55643e-06 1.82257e-05 4.10079e-05 7.29029e-05 0.000113911 0.000164031 0.000223265 0.000291612 0.000370422 0.000461047 0.000563487 0.000677742 0.000803812 0.000941696 0.0010914 0.00125291 0.00142192 0.0015941 0.00176945 0.00194797 0.00212967 0.00231454 0.00250258 0.00269379 0.00288398 0.00306892 0.00324862 0.00342309 0.00359231 0.0037563 0.00391505 0.00406856 0.00421464 0.00435111 0.00447797 0.00459521 0.00470284 0.00480085 0.00488925 0.00496804 0.00503689 0.00509548 0.00514381 0.00518188 0.00520969 0.00522725 0.00523454 0.00523158 0.00521937 0.00519893 0.00517027 0.00513338 0.00508826 0.00503491 0.00497333 0.00490353 0.00482717 0.00474596 0.00465987 0.00456892 0.00447309 0.00437241 0.00426685 0.00415643 0.00404285 0.00392785 0.0038114 0.00369352 0.00357421 0.00345346 0.00333128 0.00320767 0.00308394 0.00296142 0.00284011 0.00272001 0.00260112 0.00248344 0.00236698 0.00225172 0.00213843 0.00202788 0.00192005 0.00181496 0.00171261 0.00161298 0.00151609 0.00142192 0.00133075 0.00124283 0.00115817 0.00107675 0.000998585 0.000923671 0.000852008 0.000783597 0.000718385 0.00065632 0.000597403 0.000541633 0.000489011 0.000439536 0.000393208 0.000350028 0.00030981 0.000272369 0.000237705 0.000205819 0.00017671 0.000150378 0.000126824 0.000106047 8.76472e-05 7.12262e-05 5.67835e-05 4.43192e-05 3.38334e-05 2.53259e-05 1.87968e-05 1.42461e-05 1.09071e-05 8.01341e-06 5.56487e-06 3.56152e-06 2.00335e-06 8.90379e-07 2.22595e-07 0 0 8.10032e-06 3.24013e-05 7.29029e-05 0.000129605 0.000202508 0.000291612 0.000396916 0.000518421 0.000658528 0.000819639 0.00100175 0.00120487 0.001429 0.00167413 0.00194026 0.00222739 0.00252785 0.00283395 0.00314569 0.00346307 0.00378608 0.00411474 0.00444903 0.00478897 0.00512707 0.00545585 0.00577533 0.00608549 0.00638633 0.00667787 0.00696009 0.007233 0.0074927 0.00773531 0.00796084 0.00816927 0.00836061 0.00853485 0.00869201 0.00883207 0.00895447 0.00905863 0.00914455 0.00921223 0.00926168 0.00929288 0.00930585 0.00930058 0.00927888 0.00924255 0.00919159 0.009126 0.00904579 0.00895095 0.00884148 0.00871738 0.00858164 0.00843725 0.00828421 0.00812252 0.00795217 0.00777317 0.00758551 0.0073892 0.0071873 0.00698284 0.00677583 0.00656627 0.00635416 0.00613949 0.00592228 0.00570252 0.00548256 0.00526474 0.00504908 0.00483558 0.00462422 0.00441501 0.00420796 0.00400306 0.00380166 0.00360512 0.00341343 0.0032266 0.00304463 0.00286752 0.00269526 0.00252786 0.00236578 0.00220948 0.00205896 0.00191422 0.00177526 0.00164208 0.00151468 0.00139306 0.00127713 0.00116679 0.00106205 0.000962903 0.000869352 0.000781397 0.000699036 0.000622271 0.000550773 0.000484211 0.000422587 0.000365901 0.000314151 0.000267339 0.000225465 0.000188527 0.000155817 0.000126624 0.000100948 7.87898e-05 6.01482e-05 4.50238e-05 3.34165e-05 2.53263e-05 1.93905e-05 1.42461e-05 9.8931e-06 6.33159e-06 3.56152e-06 1.5829e-06 3.95724e-07 0 0 1.26568e-05 5.0627e-05 0.000113911 0.000202508 0.000316419 0.000455643 0.000620181 0.000810032 0.00102895 0.00128069 0.00156524 0.00188262 0.00223281 0.00261582 0.00303165 0.0034803 0.00394977 0.00442805 0.00491514 0.00541104 0.00591575 0.00642928 0.00695161 0.00748276 0.00801104 0.00852477 0.00902395 0.00950857 0.00997864 0.0104342 0.0108751 0.0113016 0.0117073 0.0120864 0.0124388 0.0127645 0.0130634 0.0133357 0.0135813 0.0138001 0.0139914 0.0141541 0.0142884 0.0143941 0.0144714 0.0145201 0.0145404 0.0145322 0.0144982 0.0144415 0.0143619 0.0142594 0.014134 0.0139859 0.0138148 0.0136209 0.0134088 0.0131832 0.0129441 0.0126914 0.0124253 0.0121456 0.0118524 0.0115456 0.0112302 0.0109107 0.0105872 0.0102598 0.00992837 0.00959296 0.00925356 0.00891018 0.00856649 0.00822616 0.00788919 0.00755559 0.00722534 0.00689846 0.00657493 0.00625477 0.00594009 0.00563299 0.00533349 0.00504157 0.00475724 0.0044805 0.00421135 0.00394979 0.00369654 0.00345232 0.00321713 0.00299097 0.00277385 0.00256575 0.00236669 0.00217666 0.00199551 0.00182311 0.00165945 0.00150454 0.00135836 0.00122093 0.00109224 0.000972299 0.000860582 0.00075658 0.000660293 0.00057172 0.000490861 0.000417718 0.000352289 0.000294574 0.000243464 0.00019785 0.000157732 0.000123109 9.39816e-05 7.03497e-05 5.22133e-05 3.95724e-05 3.02976e-05 2.22595e-05 1.5458e-05 9.8931e-06 5.56487e-06 2.47328e-06 6.18319e-07 0 0 1.82257e-05 7.29029e-05 0.000164031 0.000291612 0.000455643 0.000656126 0.00089306 0.00116645 0.00148169 0.00184419 0.00225395 0.00271097 0.00321525 0.00376678 0.00436558 0.00501164 0.00568767 0.00637639 0.0070778 0.0077919 0.00851868 0.00925816 0.0100103 0.0107752 0.0115359 0.0122757 0.0129945 0.0136923 0.0143692 0.0150252 0.0156602 0.0162742 0.0168586 0.0174045 0.0179119 0.0183809 0.0188114 0.0192034 0.019557 0.0198722 0.0201476 0.0203819 0.0205752 0.0207275 0.0208388 0.020909 0.0209382 0.0209263 0.0208775 0.0207957 0.0206811 0.0205335 0.020353 0.0201396 0.0198933 0.0196141 0.0193087 0.0189838 0.0186395 0.0182757 0.0178924 0.0174896 0.0170674 0.0166257 0.0161714 0.0157114 0.0152456 0.0147741 0.0142968 0.0138139 0.0133251 0.0128307 0.0123357 0.0118457 0.0113604 0.01088 0.0104045 0.00993378 0.00946791 0.00900687 0.00855373 0.00811151 0.00768022 0.00725986 0.00685042 0.00645192 0.00606434 0.00568769 0.00532301 0.00497134 0.00463267 0.004307 0.00399434 0.00369468 0.00340803 0.00313439 0.00287354 0.00262528 0.00238961 0.00216653 0.00195604 0.00175814 0.00157283 0.00140011 0.00123924 0.00108948 0.000950822 0.000823277 0.000706841 0.000601514 0.000507296 0.000424187 0.000350589 0.000284905 0.000227134 0.000177277 0.000135333 0.000101304 7.51871e-05 5.69843e-05 4.36286e-05 3.20537e-05 2.22595e-05 1.42461e-05 8.01341e-06 3.56152e-06 8.90379e-07 0 0 2.48072e-05 9.92289e-05 0.000223265 0.000396916 0.000620181 0.00089306 0.00121555 0.00158766 0.00201674 0.00251014 0.00306787 0.00368993 0.00437631 0.00512701 0.00594204 0.0068214 0.00774155 0.00867898 0.00963367 0.0106056 0.0115949 0.0126014 0.0136252 0.0146662 0.0157016 0.0167085 0.0176869 0.0186368 0.0195581 0.020451 0.0213153 0.022151 0.0229464 0.0236894 0.0243801 0.0250184 0.0256044 0.026138 0.0266193 0.0270482 0.0274231 0.027742 0.0280052 0.0282125 0.0283639 0.0284595 0.0284992 0.028483 0.0284166 0.0283053 0.0281492 0.0279484 0.0277027 0.0274123 0.027077 0.026697 0.0262813 0.0258391 0.0253704 0.0248752 0.0243535 0.0238053 0.0232306 0.0226294 0.0220111 0.0213849 0.020751 0.0201092 0.0194596 0.0188022 0.018137 0.017464 0.0167903 0.0161233 0.0154628 0.0148089 0.0141617 0.013521 0.0128869 0.0122594 0.0116426 0.0110407 0.0104536 0.00988147 0.00932419 0.00878178 0.00825424 0.00774158 0.00724521 0.00676654 0.00630557 0.0058623 0.00543674 0.00502887 0.00463871 0.00426625 0.00391121 0.0035733 0.00325253 0.00294889 0.00266239 0.00239303 0.0021408 0.00190571 0.00168674 0.0014829 0.00129417 0.00112057 0.000962088 0.000818727 0.000690486 0.000577365 0.00047719 0.000387787 0.000309155 0.000241294 0.000184204 0.000137885 0.000102338 7.75619e-05 5.93834e-05 4.36286e-05 3.02976e-05 1.93905e-05 1.09071e-05 4.84762e-06 1.21191e-06 0 0 3.24013e-05 0.000129605 0.000291612 0.000518421 0.000810032 0.00116645 0.00158766 0.00207368 0.00263411 0.00327856 0.00400702 0.0048195 0.00571599 0.00669651 0.00776103 0.00890958 0.0101114 0.0113358 0.0125828 0.0138523 0.0151443 0.016459 0.0177961 0.0191559 0.0205083 0.0218234 0.0231013 0.0243419 0.0255453 0.0267115 0.0278403 0.028932 0.0299708 0.0309413 0.0318433 0.0326771 0.0334424 0.0341394 0.034768 0.0353283 0.0358179 0.0362345 0.0365782 0.0368489 0.0370467 0.0371715 0.0372234 0.0372023 0.0371155 0.0369702 0.0367664 0.036504 0.0361832 0.0358038 0.0353659 0.0348695 0.0343266 0.033749 0.0331368 0.0324901 0.0318087 0.0310927 0.030342 0.0295568 0.0287492 0.0279313 0.0271033 0.0262651 0.0254166 0.024558 0.0236891 0.0228101 0.0219302 0.021059 0.0201963 0.0193423 0.0184969 0.0176601 0.0168318 0.0160122 0.0152066 0.0144205 0.0136537 0.0129064 0.0121785 0.0114701 0.0107811 0.0101115 0.00946313 0.00883793 0.00823585 0.00765689 0.00710105 0.00656832 0.00605872 0.00557224 0.00510851 0.00466717 0.0042482 0.00385161 0.00347741 0.00312559 0.00279615 0.00248909 0.00220309 0.00193685 0.00169035 0.0014636 0.00125661 0.00106936 0.000901859 0.000754109 0.000623269 0.000506497 0.000403794 0.000315159 0.000240593 0.000180095 0.000133666 0.000101305 7.75619e-05 5.69843e-05 3.95724e-05 2.53263e-05 1.42461e-05 6.33159e-06 1.5829e-06 0 0 4.12137e-05 0.000164855 0.000370923 0.000659419 0.00103034 0.00148369 0.00201947 0.00263768 0.00335008 0.00416847 0.00509282 0.00612315 0.00725946 0.00850174 0.00985 0.0113042 0.0128256 0.0143753 0.0159533 0.0175597 0.0191944 0.0208573 0.0225487 0.0242683 0.0259785 0.0276417 0.0292578 0.0308268 0.0323487 0.0338235 0.0352512 0.0366319 0.0379458 0.0391733 0.0403144 0.0413692 0.0423375 0.0432194 0.044015 0.0447241 0.045344 0.0458716 0.046307 0.0466501 0.046901 0.0470597 0.0471262 0.0471004 0.0469915 0.0468086 0.0465516 0.0462207 0.0458157 0.0453367 0.0447837 0.0441567 0.0434707 0.0427409 0.0419672 0.0411498 0.0402885 0.0393833 0.0384343 0.0374415 0.0364203 0.035386 0.0343388 0.0332787 0.0322055 0.0311194 0.0300202 0.0289081 0.0277949 0.0266926 0.025601 0.0245203 0.0234504 0.0223913 0.021343 0.0203055 0.0192857 0.0182905 0.0173197 0.0163735 0.0154519 0.0145547 0.0136821 0.0128341 0.0120129 0.0112209 0.0104582 0.00972471 0.00902044 0.0083454 0.00769959 0.00708301 0.0064952 0.00593569 0.00540449 0.00490159 0.004427 0.00398072 0.00356275 0.00317307 0.00281004 0.00247198 0.00215889 0.00187078 0.00160763 0.00136945 0.00115625 0.000968013 0.000801178 0.000652171 0.000520992 0.000407641 0.000312116 0.00023442 0.000174551 0.00013251 0.000101453 7.45368e-05 5.17617e-05 3.31275e-05 1.86342e-05 8.28186e-06 2.07047e-06 0 0 5.14504e-05 0.000205801 0.000463053 0.000823206 0.00128626 0.00185221 0.00252107 0.00329282 0.00418095 0.00519892 0.00634673 0.00762438 0.00903187 0.0105692 0.0122364 0.0140334 0.0159125 0.0178259 0.0197737 0.0217558 0.0237723 0.025823 0.0279081 0.0300276 0.0321352 0.0341849 0.0361766 0.0381103 0.0399861 0.0418039 0.0435637 0.0452656 0.0468853 0.0483988 0.049806 0.0511069 0.0523014 0.0533898 0.0543718 0.0552475 0.0560133 0.0566655 0.0572041 0.0576291 0.0579406 0.0581385 0.0582227 0.0581934 0.0580617 0.0578387 0.0575243 0.0571187 0.0566218 0.0560336 0.0553541 0.0545833 0.0537397 0.052842 0.05189 0.0508839 0.0498235 0.0487089 0.0475401 0.0463171 0.0450589 0.0437845 0.0424938 0.0411869 0.0398639 0.0385245 0.037169 0.0357973 0.034424 0.0330639 0.0317169 0.0303831 0.0290624 0.0277549 0.0264605 0.0251793 0.0239197 0.0226902 0.0214909 0.0203217 0.0191826 0.0180737 0.0169949 0.0159462 0.0149306 0.013951 0.0130074 0.0120997 0.0112281 0.0103925 0.00959284 0.00882919 0.00810099 0.00740768 0.00674926 0.00612573 0.00553708 0.00498333 0.00446447 0.0039805 0.00352936 0.00310897 0.00271935 0.00236049 0.00203239 0.00173506 0.00146848 0.00123267 0.00102327 0.000835946 0.00067069 0.000527505 0.000406391 0.000307347 0.000230373 0.00017547 0.000134345 9.87022e-05 6.85432e-05 4.38676e-05 2.46755e-05 1.09669e-05 2.74173e-06 0 0 6.31112e-05 0.000252445 0.000568001 0.00100978 0.00157778 0.002272 0.00309245 0.00403912 0.00512671 0.00636991 0.00776873 0.00932316 0.0110332 0.0128989 0.0149202 0.0170971 0.0193721 0.0216877 0.0240439 0.0264407 0.028878 0.031356 0.0338746 0.0364338 0.0389783 0.0414529 0.0438577 0.0461926 0.0484575 0.0506526 0.0527778 0.0548331 0.0567895 0.0586178 0.060318 0.0618902 0.0633343 0.0646504 0.0658384 0.0668984 0.0678258 0.0686163 0.0692697 0.0697861 0.0701654 0.0704078 0.0705131 0.0704815 0.0703261 0.0700604 0.0696844 0.0691981 0.0686014 0.0678944 0.0670771 0.0661494 0.0651337 0.0640523 0.0629052 0.0616923 0.0604137 0.0590694 0.0576594 0.0561836 0.0546651 0.0531266 0.0515682 0.0499899 0.0483917 0.0467735 0.0451355 0.0434775 0.0418174 0.0401729 0.038544 0.0369307 0.035333 0.0337509 0.0321844 0.0306335 0.0291085 0.0276197 0.0261672 0.0247509 0.0233708 0.0220269 0.0207193 0.0194478 0.0182163 0.0170281 0.0158833 0.014782 0.013724 0.0127095 0.0117385 0.0108108 0.00992589 0.00908313 0.0082825 0.00752401 0.00680765 0.00613342 0.00550132 0.00491136 0.00436103 0.00384781 0.00337172 0.00293275 0.0025309 0.00216617 0.00183856 0.00154808 0.00128955 0.00105782 0.000852888 0.000674753 0.000523416 0.000398876 0.000301133 0.000230187 0.000176237 0.00012948 8.99169e-05 5.75468e-05 3.23701e-05 1.43867e-05 3.59668e-06 0 0 7.61963e-05 0.000304785 0.000685767 0.00121914 0.00190491 0.00274307 0.00373362 0.00487656 0.00618735 0.00768144 0.00935883 0.0112195 0.0132635 0.0154908 0.0179014 0.0204953 0.0232043 0.0259605 0.0287638 0.0316142 0.0345117 0.0374563 0.040448 0.0434869 0.0465078 0.0494459 0.0523011 0.0550735 0.057763 0.0603697 0.0628935 0.0653345 0.0676582 0.0698302 0.0718505 0.0737191 0.0754361 0.0770014 0.078415 0.0796769 0.0807816 0.0817239 0.0825036 0.0831209 0.0835755 0.0838677 0.0839973 0.0839644 0.0837847 0.0834739 0.0830319 0.0824588 0.0817545 0.0809192 0.0799527 0.078855 0.0776526 0.0763719 0.0750127 0.0735752 0.0720592 0.0704649 0.0687922 0.0670411 0.0652388 0.0634124 0.061562 0.0596875 0.0577889 0.0558663 0.0539196 0.0519488 0.0499751 0.0480196 0.0460823 0.0441631 0.0422621 0.0403793 0.0385146 0.0366681 0.0348522 0.033079 0.0313486 0.0296611 0.0280163 0.0264144 0.0248553 0.023339 0.0218699 0.0204522 0.0190861 0.0177714 0.0165083 0.0152966 0.0141364 0.0130278 0.0119699 0.010962 0.0100042 0.00909645 0.0082387 0.00743098 0.0066733 0.00596566 0.00530506 0.00468851 0.004116 0.00358755 0.00310315 0.0026628 0.00226649 0.00191424 0.00160001 0.0013178 0.00106759 0.000849385 0.000663192 0.000509007 0.00038683 0.00029666 0.000227131 0.000166872 0.000115883 7.41651e-05 4.17179e-05 1.85413e-05 4.63532e-06 0 0 9.07056e-05 0.000362822 0.00081635 0.00145129 0.00226764 0.0032654 0.00444457 0.00580516 0.00736289 0.00913352 0.011117 0.0133134 0.0157227 0.0183449 0.02118 0.024228 0.0274093 0.0306445 0.0339336 0.0372765 0.0406733 0.0441239 0.0476285 0.0511868 0.0547237 0.0581637 0.0615069 0.0647532 0.0679026 0.0709551 0.0739108 0.0767697 0.0794915 0.0820361 0.0844035 0.0865937 0.0886068 0.0904427 0.0921013 0.0935828 0.0948807 0.0959884 0.096906 0.0976335 0.0981709 0.0985182 0.0986754 0.0986424 0.0984375 0.098079 0.0975668 0.0969008 0.0960812 0.0951079 0.0939809 0.0927002 0.0912965 0.0898007 0.0882126 0.0865324 0.08476 0.0828954 0.0809386 0.0788895 0.0767801 0.074642 0.0724752 0.0702798 0.0680557 0.0658029 0.0635214 0.0612113 0.0588972 0.0566041 0.0543318 0.0520803 0.0498498 0.0476401 0.0454512 0.0432833 0.0411507 0.039068 0.0370352 0.0350523 0.0331193 0.0312362 0.029403 0.0276197 0.0258914 0.0242234 0.0226156 0.021068 0.0195807 0.0181537 0.0167868 0.0154802 0.014233 0.0130444 0.0119144 0.010843 0.00983023 0.00887602 0.00798041 0.00714339 0.00636145 0.00563105 0.0049522 0.0043249 0.00374914 0.00322493 0.00275227 0.00233115 0.00195466 0.00161587 0.00131478 0.0010514 0.000825719 0.00063774 0.000487464 0.00037489 0.000287025 0.000210876 0.000146441 9.37225e-05 5.27189e-05 2.34306e-05 5.85765e-06 0 0 0.000106639 0.000426556 0.000959752 0.00170623 0.00266598 0.00383901 0.00522532 0.0068249 0.00865332 0.0107261 0.0130433 0.0156049 0.0184109 0.0214613 0.024756 0.0282952 0.0319869 0.0357396 0.0395531 0.0434275 0.0473627 0.0513588 0.0554158 0.0595337 0.063626 0.0676065 0.0714749 0.0752315 0.0788762 0.0824089 0.0858297 0.0891386 0.0922893 0.0952354 0.097977 0.100514 0.102846 0.104974 0.106898 0.108616 0.110123 0.11141 0.112477 0.113324 0.113952 0.114359 0.114547 0.114515 0.114285 0.113876 0.113289 0.112524 0.111581 0.110461 0.109162 0.107685 0.106065 0.104339 0.102505 0.100564 0.0985159 0.0963607 0.0940984 0.0917289 0.089289 0.0868153 0.0843079 0.0817667 0.0791919 0.0765832 0.0739409 0.0712648 0.0685836 0.0659262 0.0632924 0.0606824 0.058096 0.0555333 0.0529942 0.0504789 0.0480041 0.0455868 0.043227 0.0409246 0.0386797 0.0364923 0.0343623 0.0322898 0.0302809 0.0283416 0.0264719 0.0246719 0.0229415 0.0212807 0.0196896 0.018168 0.0167152 0.0153303 0.0140131 0.0127638 0.0115823 0.0104685 0.00942264 0.00844457 0.0075302 0.00667545 0.00588031 0.00514479 0.00446887 0.00385257 0.00329589 0.00279882 0.00235349 0.00195204 0.00159448 0.0012808 0.001011 0.000785075 0.000603035 0.000464875 0.00035592 0.000261492 0.000181592 0.000116219 6.53731e-05 2.90547e-05 7.26368e-06 0 0 0.000123997 0.000495987 0.00111597 0.00198395 0.00309992 0.00446389 0.00607584 0.0079358 0.0100586 0.0124593 0.0151377 0.018094 0.021328 0.0248398 0.0286295 0.0326969 0.0369373 0.0412458 0.0456224 0.0500672 0.0545801 0.0591611 0.0638102 0.0685275 0.0732148 0.0777741 0.0822053 0.0865086 0.0906838 0.094731 0.0986503 0.102441 0.106052 0.109428 0.112571 0.11548 0.118155 0.120596 0.122804 0.124777 0.126508 0.127988 0.129216 0.130192 0.130917 0.131391 0.131613 0.131583 0.131326 0.130864 0.130199 0.129329 0.128255 0.126977 0.125495 0.123809 0.121959 0.119986 0.11789 0.11567 0.113327 0.110861 0.108272 0.105559 0.102765 0.0999323 0.09706 0.0941484 0.0911975 0.0882074 0.085178 0.0821094 0.0790344 0.075986 0.0729643 0.0699692 0.0670007 0.0640588 0.0611436 0.0582549 0.0554124 0.0526354 0.0499239 0.0472779 0.0446975 0.0421826 0.0397333 0.0373495 0.0350384 0.0328069 0.0306551 0.0285829 0.0265905 0.0246777 0.0228447 0.0210913 0.0194166 0.0178196 0.0163003 0.0148587 0.0134948 0.0122085 0.011 0.00986917 0.00881131 0.0078217 0.00690033 0.00604722 0.00526235 0.00454573 0.00389736 0.00331723 0.0027965 0.00232632 0.00190668 0.00153758 0.00121902 0.000951012 0.000733543 0.000566617 0.000433816 0.000318722 0.000221335 0.000141654 7.96805e-05 3.54136e-05 8.85339e-06 0 0 0.000142779 0.000571115 0.00128501 0.00228446 0.00356947 0.00514004 0.00699616 0.00913784 0.0115789 0.014333 0.0174002 0.0207806 0.024474 0.0284806 0.0328003 0.0374331 0.0422603 0.0471631 0.0521415 0.0571956 0.0623253 0.0675306 0.0728115 0.0781681 0.0834899 0.0886665 0.093698 0.0985844 0.103326 0.107922 0.112372 0.116678 0.120779 0.124614 0.128185 0.131491 0.134532 0.137308 0.13982 0.142066 0.144037 0.145723 0.147124 0.148239 0.149069 0.149613 0.149872 0.149846 0.149561 0.149045 0.148296 0.147315 0.146102 0.144658 0.142981 0.141073 0.138978 0.136742 0.134367 0.13185 0.129194 0.126396 0.123459 0.12038 0.117209 0.113993 0.110731 0.107425 0.104073 0.100675 0.0972328 0.093745 0.0902495 0.0867836 0.0833474 0.0799409 0.076564 0.0732168 0.0698993 0.0666115 0.0633755 0.0602137 0.0571259 0.0541123 0.0511727 0.0483073 0.045516 0.0427987 0.0401637 0.0376192 0.035165 0.0328012 0.0305278 0.0283448 0.0262522 0.0242499 0.022337 0.0205124 0.0187759 0.0171277 0.0155677 0.014096 0.0127125 0.0114172 0.0102048 0.0090698 0.00801227 0.00703219 0.00612957 0.00530439 0.00455667 0.0038864 0.0032837 0.0027387 0.00225138 0.00182174 0.0014498 0.00113555 0.000878989 0.000680115 0.000520713 0.000382565 0.00026567 0.000170029 9.56412e-05 4.25072e-05 1.06268e-05 0 0 0.000162602 0.000650407 0.00146342 0.00260163 0.00406504 0.00585366 0.00796749 0.0104065 0.013183 0.0163092 0.0197852 0.0236109 0.0277863 0.0323114 0.0371863 0.0424109 0.047852 0.0533763 0.0589837 0.0646743 0.0704481 0.0763051 0.0822452 0.0882685 0.0942519 0.100072 0.10573 0.111224 0.116555 0.121723 0.126728 0.13157 0.136182 0.140497 0.144514 0.148234 0.151657 0.154783 0.157611 0.160142 0.162364 0.164266 0.165847 0.167108 0.168048 0.168668 0.168967 0.168945 0.168633 0.16806 0.167225 0.16613 0.164774 0.163157 0.161278 0.159139 0.15679 0.154282 0.151616 0.148792 0.145808 0.142667 0.139366 0.135908 0.132344 0.128728 0.125061 0.121343 0.117573 0.113751 0.109878 0.105953 0.102018 0.0981167 0.0942479 0.0904119 0.0866086 0.0828381 0.0791004 0.0753954 0.0717483 0.0681841 0.0647029 0.0613047 0.0579895 0.0547572 0.0516079 0.0485416 0.0455675 0.042695 0.039924 0.0372545 0.0346866 0.0322201 0.0298552 0.0275919 0.0254289 0.0233651 0.0214005 0.0195351 0.017769 0.016102 0.0145342 0.0130657 0.0116902 0.0104018 0.00920043 0.00808609 0.00705879 0.00611852 0.00526529 0.00449909 0.00380901 0.00318414 0.00262447 0.00213001 0.00170074 0.00133669 0.00103784 0.000804187 0.000615705 0.000452355 0.000314135 0.000201047 0.000113089 5.02617e-05 1.25654e-05 0 0 0.000183083 0.00073233 0.00164774 0.00292932 0.00457707 0.00659097 0.00897105 0.0117173 0.0148401 0.01835 0.022247 0.026531 0.031202 0.0362601 0.0417052 0.0475374 0.0536084 0.05977 0.0660222 0.0723649 0.0787982 0.0853221 0.0919366 0.0986417 0.105301 0.11178 0.118076 0.124192 0.130126 0.135879 0.14145 0.14684 0.151974 0.156778 0.161251 0.165395 0.169208 0.172691 0.175844 0.178666 0.181145 0.183268 0.185035 0.186445 0.187499 0.188196 0.188537 0.188522 0.188183 0.187553 0.186633 0.185422 0.183921 0.182128 0.180046 0.177672 0.175065 0.17228 0.169319 0.16618 0.162865 0.159372 0.155703 0.151856 0.147892 0.143869 0.139789 0.13565 0.131453 0.127198 0.122884 0.118513 0.11413 0.109783 0.105472 0.101197 0.0969574 0.0927537 0.0885858 0.0844537 0.0803854 0.0764091 0.0725248 0.0687324 0.065032 0.0614235 0.0579069 0.0544823 0.0511602 0.0479508 0.0448544 0.0418708 0.039 0.0362422 0.0335971 0.031065 0.0286445 0.0263343 0.0241346 0.0220452 0.0200662 0.0181976 0.0164393 0.0147915 0.0132472 0.0117998 0.0104491 0.00919529 0.00803826 0.00697805 0.00601465 0.00514805 0.00436635 0.00365762 0.00302186 0.00245907 0.00196926 0.00155242 0.00120855 0.000937649 0.000717887 0.000527427 0.000366269 0.000234412 0.000131857 5.8603e-05 1.46508e-05 0 0 0.000204221 0.000816885 0.00183799 0.00326754 0.00510553 0.00735197 0.0100068 0.0130702 0.0165502 0.0204554 0.0247856 0.0295408 0.0347212 0.0403266 0.046357 0.0528125 0.0595295 0.0663443 0.0732569 0.0802674 0.0873757 0.0945818 0.101886 0.109288 0.116638 0.123789 0.130739 0.137489 0.144038 0.150388 0.156537 0.162486 0.168154 0.173457 0.178396 0.182972 0.187184 0.191033 0.194517 0.197638 0.20038 0.20273 0.204686 0.20625 0.207421 0.208199 0.208584 0.208576 0.208211 0.207525 0.206518 0.205191 0.203542 0.201573 0.199283 0.196671 0.193802 0.190736 0.187474 0.184016 0.180363 0.176513 0.172467 0.168225 0.163853 0.159416 0.154913 0.150346 0.145713 0.141016 0.136253 0.131426 0.126585 0.121783 0.11702 0.112296 0.10761 0.102963 0.0983555 0.0937863 0.089287 0.0848887 0.0805915 0.0763953 0.0723002 0.0683061 0.064413 0.0606209 0.0569416 0.0533867 0.0499561 0.04665 0.0434682 0.0404108 0.0374779 0.0346693 0.0319838 0.02942 0.026978 0.0246578 0.0224594 0.0203827 0.0184278 0.0165947 0.0148758 0.0132637 0.0117583 0.0103598 0.009068 0.00788299 0.00680476 0.0058333 0.00495572 0.00415914 0.00344355 0.00280895 0.00225535 0.00178274 0.00139112 0.0010805 0.000827259 0.000607782 0.000422071 0.000270125 0.000151946 6.75314e-05 1.68828e-05 0 0 0.000226018 0.000904072 0.00203416 0.00361629 0.00565045 0.00813665 0.0110749 0.0144652 0.0183133 0.0226253 0.027401 0.0326405 0.0383438 0.0445109 0.0511417 0.0582363 0.0656153 0.0730992 0.080688 0.0883818 0.0961805 0.104084 0.112093 0.120206 0.128262 0.136099 0.143716 0.151114 0.158292 0.165251 0.171991 0.17851 0.184722 0.190535 0.19595 0.200967 0.205587 0.209808 0.213632 0.217057 0.220069 0.22265 0.224802 0.226523 0.227814 0.228675 0.229106 0.229107 0.228717 0.227975 0.226882 0.225436 0.223639 0.22149 0.21899 0.216137 0.213001 0.209649 0.206082 0.2023 0.198302 0.194089 0.18966 0.185016 0.180228 0.175368 0.170435 0.165431 0.160354 0.155206 0.149985 0.144692 0.139383 0.134117 0.128892 0.123709 0.118567 0.113468 0.10841 0.103393 0.0984529 0.0936229 0.0889031 0.0842935 0.0797941 0.075405 0.0711261 0.0669574 0.0629119 0.0590025 0.0552293 0.0515921 0.0480911 0.0447262 0.0414974 0.0384047 0.0354468 0.0326222 0.029931 0.0273731 0.0249486 0.0226574 0.0204996 0.0184752 0.0165759 0.0147935 0.0131281 0.0115796 0.010148 0.00883335 0.00763562 0.00655482 0.00557713 0.00468869 0.00388953 0.00317964 0.00255901 0.00202765 0.00158557 0.00123275 0.000943821 0.000693419 0.000481541 0.000308186 0.000173355 7.70466e-05 1.92616e-05 0 0 0.000248473 0.00099389 0.00223625 0.00397556 0.00621181 0.00894501 0.0121752 0.0159022 0.0201294 0.0248597 0.0300933 0.03583 0.0420699 0.048813 0.0560593 0.0638088 0.0718658 0.0800347 0.0883154 0.0967081 0.105213 0.113829 0.122557 0.131397 0.140174 0.148711 0.157009 0.165068 0.172888 0.180468 0.18781 0.194912 0.201678 0.208011 0.213912 0.21938 0.224415 0.229017 0.233187 0.236924 0.240211 0.24303 0.245381 0.247264 0.248678 0.249626 0.250105 0.250116 0.249701 0.248904 0.247723 0.246158 0.244211 0.24188 0.239166 0.236069 0.232663 0.229021 0.225144 0.221031 0.216683 0.2121 0.207281 0.202227 0.197016 0.191725 0.186355 0.180905 0.175375 0.169766 0.164078 0.15831 0.152524 0.146783 0.141087 0.135435 0.129828 0.124266 0.118748 0.113275 0.107883 0.102612 0.0974594 0.0924268 0.0875137 0.0827202 0.0780462 0.0734917 0.069071 0.0647984 0.0606738 0.0566972 0.0528687 0.0491882 0.0456557 0.0422713 0.0390335 0.0359408 0.0329933 0.030191 0.0275338 0.0250217 0.0226548 0.0204331 0.0183476 0.0163894 0.0145584 0.0128547 0.0112783 0.00982911 0.00850723 0.00731263 0.00623056 0.00524629 0.00435981 0.00357113 0.00288025 0.00228716 0.00179187 0.00139438 0.00106757 0.000784339 0.00054468 0.000348595 0.000196085 8.71487e-05 2.17872e-05 0 0 0.000271585 0.00108634 0.00244426 0.00434536 0.00678962 0.00977706 0.0133077 0.0173814 0.0219984 0.0271588 0.0328624 0.0391093 0.0458995 0.053233 0.0611098 0.0695299 0.078281 0.0871507 0.0961391 0.105246 0.114472 0.123817 0.13328 0.142861 0.152373 0.161625 0.170618 0.179351 0.187825 0.196039 0.203995 0.21169 0.219022 0.225886 0.232282 0.23821 0.243669 0.248661 0.253184 0.257239 0.260807 0.263869 0.266424 0.268472 0.270014 0.27105 0.271579 0.271602 0.271164 0.27031 0.269042 0.267357 0.265258 0.262743 0.259813 0.256468 0.252787 0.24885 0.244658 0.240209 0.235506 0.230546 0.225331 0.21986 0.214218 0.208488 0.202672 0.196768 0.190777 0.184699 0.178533 0.172281 0.166009 0.159784 0.153606 0.147476 0.141394 0.135358 0.129371 0.12343 0.117578 0.111855 0.106261 0.100795 0.095459 0.0902517 0.0851733 0.0802239 0.075419 0.0707742 0.0662897 0.0619652 0.057801 0.0537969 0.0499529 0.0462691 0.0427439 0.039376 0.0361651 0.0331115 0.0302149 0.0274756 0.0248934 0.0224684 0.0201909 0.0180511 0.0160492 0.0141851 0.0124588 0.0108703 0.00941959 0.00810671 0.00691603 0.00583192 0.00485439 0.00398344 0.00321906 0.00256126 0.00201005 0.00156541 0.00119851 0.00088054 0.000611486 0.000391351 0.000220135 9.78378e-05 2.44595e-05 0 0 0.000295355 0.00118142 0.0026582 0.00472568 0.00738388 0.0106328 0.0144724 0.0189027 0.0239205 0.0295223 0.0357083 0.0424783 0.0498325 0.0577708 0.0662931 0.0753996 0.0848608 0.0944473 0.104159 0.113996 0.123959 0.134047 0.14426 0.154598 0.164859 0.17484 0.184541 0.193962 0.203103 0.211964 0.220545 0.228846 0.236755 0.24416 0.25106 0.257457 0.263349 0.268737 0.273622 0.278002 0.281857 0.285166 0.28793 0.290149 0.29182