<?xml version="1.0"?> 
<VTKFile type="StructuredGrid" version="0.1"> 
<StructuredGrid WholeExtent="0 128 0 128 0 0"> 
<Piece Extent="0 128 0 128 0 0"> 
<PointData>
<DataArray type="Float32" Name="u" format="ascii" NumberOfComponents="1"> 
0 0 0 0 0 0 0 0 0 0 0 0 0 0 0 0 0 0 0 0 0 0 0 0 0 0 0 0 0 0 0 0 0 0 0 0 0 0 0 0 0 0 0 0 0 0 0 0 0 0 0 0 0 0 0 0 0 0 0 0 0 0 0 0 0 0 0 0 0 0 0 0 0 0 0 0 0 0 0 0 0 0 0 0 0 0 0 0 0 0 0 0 0 0 0 0 0 0 0 0 0 0 0 0 0 0 0 0 0 0 0 0 0 0 0 0 0 0 0 0 0 0 0 0 0 0 0 0 0 0 3.75896e-07 1.50358e-06 3.38306e-06 6.01433e-06 9.39739e-06 1.35322e-05 1.84189e-05 2.40573e-05 3.05574e-05 3.8029e-05 4.64722e-05 5.58869e-05 6.62731e-05 7.76308e-05 8.99601e-05 0.000103261 0.00011718 0.000131365 0.000145816 0.000160532 0.000175514 0.000190761 0.000206274 0.000222052 0.000237756 0.000253045 0.000267919 0.000282379 0.000296424 0.000310054 0.00032327 0.000336071 0.000348281 0.000359724 0.000370401 0.000380311 0.000389455 0.000397832 0.000405443 0.000412286 0.000418336 0.000423563 0.000427968 0.00043155 0.00043431 0.000436247 0.000437363 0.000437655 0.000437203 0.000436081 0.000434289 0.000431829 0.0004287 0.000424901 0.000420433 0.000415296 0.000409618 0.000403528 0.000397025 0.00039011 0.000382782 0.000375041 0.000366888 0.000358322 0.000349475 0.00034048 0.000331336 0.000322043 0.000312602 0.000303011 0.000293272 0.000283384 0.000273451 0.000263575 0.000253758 0.000243998 0.000234296 0.000224653 0.000215067 0.000205539 0.000196132 0.000186908 0.000177869 0.000169012 0.00016034 0.000151851 0.000143545 0.000135423 0.000127512 0.000119839 0.000112404 0.000105208 9.82487e-05 9.15279e-05 8.50452e-05 7.88005e-05 7.28e-05 6.70498e-05 6.15498e-05 5.63e-05 5.13005e-05 4.65513e-05 4.20523e-05 3.78036e-05 3.38035e-05 3.00505e-05 2.65445e-05 2.32856e-05 2.02737e-05 1.75089e-05 1.49911e-05 1.27203e-05 1.0675e-05 8.8336e-06 7.19601e-06 5.76226e-06 4.53235e-06 3.5063e-06 2.68409e-06 2.06574e-06 1.58158e-06 1.16198e-06 8.06928e-07 5.16434e-07 2.90494e-07 1.29108e-07 3.22771e-08 0 0 1.50358e-06 6.01433e-06 1.35322e-05 2.40573e-05 3.75896e-05 5.4129e-05 7.36755e-05 9.62293e-05 0.00012223 0.000152116 0.000185889 0.000223548 0.000265092 0.000310523 0.00035984 0.000413044 0.000468721 0.000525461 0.000583263 0.000642127 0.000702054 0.000763043 0.000825095 0.000888208 0.000951024 0.00101218 0.00107168 0.00112952 0.0011857 0.00124022 0.00129308 0.00134428 0.00139312 0.0014389 0.0014816 0.00152125 0.00155782 0.00159133 0.00162177 0.00164915 0.00167334 0.00169425 0.00171187 0.0017262 0.00173724 0.00174499 0.00174945 0.00175062 0.00174881 0.00174432 0.00173716 0.00172732 0.0017148 0.0016996 0.00168173 0.00166118 0.00163847 0.00161411 0.0015881 0.00156044 0.00153113 0.00150016 0.00146755 0.00143329 0.0013979 0.00136192 0.00132534 0.00128817 0.00125041 0.00121205 0.00117309 0.00113354 0.0010938 0.0010543 0.00101503 0.000975992 0.000937185 0.000898611 0.000860267 0.000822156 0.000784528 0.000747634 0.000711474 0.000676049 0.000641359 0.000607402 0.000574181 0.000541693 0.000510049 0.000479357 0.000449618 0.00042083 0.000392995 0.000366112 0.000340181 0.000315202 0.0002912 0.000268199 0.000246199 0.0002252 0.000205202 0.000186205 0.000168209 0.000151214 0.000135214 0.000120202 0.000106178 9.31424e-05 8.10948e-05 7.00355e-05 5.99643e-05 5.08814e-05 4.27002e-05 3.53344e-05 2.8784e-05 2.3049e-05 1.81294e-05 1.40252e-05 1.07364e-05 8.26294e-06 6.32632e-06 4.64791e-06 3.22771e-06 2.06574e-06 1.16198e-06 5.16434e-07 1.29108e-07 0 0 3.38306e-06 1.35322e-05 3.04475e-05 5.4129e-05 8.45765e-05 0.00012179 0.00016577 0.000216516 0.000275017 0.000342261 0.00041825 0.000502982 0.000596458 0.000698678 0.000809641 0.000929348 0.00105462 0.00118229 0.00131234 0.00144479 0.00157962 0.00171685 0.00185646 0.00199847 0.0021398 0.00227741 0.00241127 0.00254141 0.00266782 0.00279049 0.00290943 0.00302464 0.00313453 0.00323752 0.00333361 0.0034228 0.0035051 0.00358049 0.00364898 0.00371058 0.00376502 0.00381207 0.00385171 0.00388395 0.00390879 0.00392623 0.00393626 0.0039389 0.00393482 0.00392473 0.0039086 0.00388646 0.0038583 0.00382411 0.0037839 0.00373767 0.00368657 0.00363175 0.00357323 0.00351099 0.00344503 0.00337537 0.00330199 0.0032249 0.00314528 0.00306432 0.00298203 0.00289839 0.00281342 0.0027271 0.00263945 0.00255046 0.00246106 0.00237218 0.00228382 0.00219598 0.00210867 0.00202187 0.0019356 0.00184985 0.00176519 0.00168218 0.00160082 0.00152111 0.00144306 0.00136666 0.00129191 0.00121881 0.00114761 0.00107855 0.00101164 0.000946868 0.000884238 0.000823751 0.000765407 0.000709205 0.0006552 0.000603448 0.000553948 0.0005067 0.000461705 0.000418962 0.000378471 0.000340232 0.000304232 0.000270454 0.000238901 0.00020957 0.000182463 0.00015758 0.00013492 0.000114483 9.60754e-05 7.95024e-05 6.4764e-05 5.18603e-05 4.07912e-05 3.15567e-05 2.41568e-05 1.85916e-05 1.42342e-05 1.04578e-05 7.26235e-06 4.64791e-06 2.61445e-06 1.16198e-06 2.90494e-07 0 0 6.01433e-06 2.40573e-05 5.4129e-05 9.62293e-05 0.000150358 0.000216516 0.000294702 0.000384917 0.000488919 0.000608465 0.000743555 0.00089419 0.00106037 0.00124209 0.00143936 0.00165217 0.00187488 0.00210184 0.00233305 0.00256851 0.00280822 0.00305217 0.00330038 0.00355283 0.00380409 0.00404872 0.00428671 0.00451807 0.00474278 0.00496087 0.00517232 0.00537713 0.00557249 0.00575559 0.00592642 0.00608498 0.00623128 0.00636531 0.00648708 0.00659658 0.00669337 0.00677701 0.00684748 0.0069048 0.00694896 0.00697996 0.0069978 0.00700249 0.00699524 0.00697729 0.00694863 0.00690927 0.00685919 0.00679841 0.00672693 0.00664474 0.00655389 0.00645645 0.0063524 0.00624175 0.0061245 0.00600065 0.0058702 0.00573315 0.00559161 0.00544768 0.00530138 0.00515269 0.00500163 0.00484818 0.00469235 0.00453415 0.00437521 0.0042172 0.00406012 0.00390397 0.00374874 0.00359444 0.00344107 0.00328862 0.00313811 0.00299054 0.0028459 0.0027042 0.00256543 0.00242961 0.00229672 0.00216677 0.0020402 0.00191743 0.00179847 0.00168332 0.00157198 0.00146445 0.00136072 0.00126081 0.0011648 0.0010728 0.000984796 0.0009008 0.000820808 0.000744821 0.000672837 0.000604857 0.000540856 0.000480808 0.000424712 0.000372569 0.000324379 0.000280142 0.000239857 0.000203525 0.000170801 0.000141338 0.000115136 9.21961e-05 7.25177e-05 5.61008e-05 4.29455e-05 3.30518e-05 2.53053e-05 1.85916e-05 1.29108e-05 8.26294e-06 4.64791e-06 2.06574e-06 5.16434e-07 0 0 9.39739e-06 3.75896e-05 8.45765e-05 0.000150358 0.000234935 0.000338306 0.000460472 0.000601433 0.000763935 0.000950726 0.0011618 0.00139717 0.00165683 0.00194077 0.002249 0.00258152 0.00292951 0.00328413 0.00364539 0.0040133 0.00438784 0.00476902 0.00515684 0.0055513 0.0059439 0.00632613 0.00669799 0.00705948 0.0074106 0.00775136 0.00808174 0.00840176 0.00870702 0.0089931 0.00926003 0.00950778 0.00973638 0.0099458 0.0101361 0.0103072 0.0104584 0.0105891 0.0106992 0.0107887 0.0108577 0.0109062 0.0109341 0.0109414 0.0109301 0.010902 0.0108572 0.0107957 0.0107175 0.0106225 0.0105108 0.0103824 0.0102405 0.0100882 0.00992563 0.00975274 0.00956954 0.00937602 0.00917219 0.00895805 0.00873689 0.00851201 0.0082834 0.00805108 0.00781504 0.00757528 0.0073318 0.0070846 0.00683627 0.00658938 0.00634394 0.00609995 0.00585741 0.00561632 0.00537667 0.00513848 0.0049033 0.00467271 0.00444672 0.00422531 0.00400849 0.00379627 0.00358863 0.00338558 0.00318781 0.00299598 0.00281011 0.00263019 0.00245622 0.0022882 0.00212613 0.00197001 0.00182 0.00167624 0.00153874 0.0014075 0.00128251 0.00116378 0.00105131 0.00094509 0.000845088 0.000751262 0.000663613 0.00058214 0.000506843 0.000437722 0.000374777 0.000318009 0.000266876 0.00022084 0.0001799 0.000144056 0.000113309 8.76575e-05 6.71023e-05 5.16434e-05 3.95395e-05 2.90494e-05 2.01732e-05 1.29108e-05 7.26235e-06 3.22771e-06 8.06928e-07 0 0 1.35322e-05 5.4129e-05 0.00012179 0.000216516 0.000338306 0.000487161 0.00066308 0.000866064 0.00110007 0.00136905 0.001673 0.00201193 0.00238583 0.00279471 0.00323856 0.00371739 0.00421849 0.00472915 0.00524937 0.00577915 0.00631849 0.00686739 0.00742585 0.00799387 0.00855921 0.00910962 0.0096451 0.0101656 0.0106713 0.011162 0.0116377 0.0120985 0.0125381 0.0129501 0.0133344 0.0136912 0.0140204 0.014322 0.0145959 0.0148423 0.0150601 0.0152483 0.0154068 0.0155358 0.0156352 0.0157049 0.0157451 0.0157556 0.0157393 0.0156989 0.0156344 0.0155458 0.0154332 0.0152964 0.0151356 0.0149507 0.0147463 0.014527 0.0142929 0.0140439 0.0137801 0.0135015 0.013208 0.0128996 0.0125811 0.0122573 0.0119281 0.0115936 0.0112537 0.0109084 0.0105578 0.0102018 0.00984422 0.00948871 0.00913527 0.00878393 0.00843467 0.00808749 0.00774241 0.0073994 0.00706075 0.0067287 0.00640327 0.00608444 0.00577223 0.00546662 0.00516763 0.00487524 0.00459044 0.00431421 0.00404656 0.00378747 0.00353695 0.003295 0.00306163 0.00283682 0.0026208 0.00241379 0.00221579 0.0020268 0.00184682 0.00167585 0.00151388 0.00136093 0.00121693 0.00108182 0.000955603 0.000838281 0.000729853 0.000630319 0.000539679 0.000457932 0.000384302 0.00031801 0.000259056 0.000207441 0.000163165 0.000126227 9.66274e-05 7.43665e-05 5.69368e-05 4.18311e-05 2.90494e-05 1.85916e-05 1.04578e-05 4.64791e-06 1.16198e-06 0 0 1.84189e-05 7.36755e-05 0.00016577 0.000294702 0.000460472 0.00066308 0.000902525 0.00117881 0.00149731 0.00186342 0.00227714 0.00273846 0.00324738 0.00380391 0.00440805 0.00505979 0.00574183 0.0064369 0.00714497 0.00786606 0.00860016 0.00934728 0.0101074 0.0108806 0.01165 0.0123992 0.0131281 0.0138366 0.0145248 0.0151927 0.0158402 0.0164675 0.0170658 0.0176265 0.0181497 0.0186353 0.0190833 0.0194938 0.0198667 0.020202 0.0204985 0.0207546 0.0209704 0.0211459 0.0212812 0.0213761 0.0214308 0.0214451 0.0214229 0.0213679 0.0212802 0.0211596 0.0210063 0.0208201 0.0206012 0.0203495 0.0200713 0.0197729 0.0194542 0.0191154 0.0187563 0.018377 0.0179775 0.0175578 0.0171243 0.0166835 0.0162355 0.0157801 0.0153175 0.0148476 0.0143703 0.0138858 0.0133991 0.0129152 0.0124341 0.0119559 0.0114805 0.011008 0.0105383 0.0100714 0.00961047 0.00915852 0.00871556 0.0082816 0.00785664 0.00744068 0.00703371 0.00663574 0.0062481 0.00587213 0.00550781 0.00515517 0.00481419 0.00448487 0.00416721 0.00386123 0.0035672 0.00328544 0.00301594 0.0027587 0.00251373 0.00228101 0.00206056 0.00185238 0.00165637 0.00147247 0.00130068 0.00114099 0.000993412 0.000857935 0.000734563 0.000623297 0.000523077 0.000432847 0.000352604 0.000282351 0.000222085 0.000171809 0.000131521 0.000101221 7.74974e-05 5.69368e-05 3.95395e-05 2.53053e-05 1.42342e-05 6.32632e-06 1.58158e-06 0 0 2.40573e-05 9.62293e-05 0.000216516 0.000384917 0.000601433 0.000866064 0.00117881 0.00153967 0.00195567 0.00243386 0.00297422 0.00357676 0.00424148 0.00496837 0.00575745 0.0066087 0.00749954 0.00840738 0.00933221 0.010274 0.0112329 0.0122087 0.0132015 0.0142113 0.0152164 0.0161949 0.0171468 0.0180723 0.0189711 0.0198435 0.0206893 0.0215085 0.02229 0.0230223 0.0237057 0.0243399 0.0249251 0.0254613 0.0259483 0.0263863 0.0267735 0.027108 0.0273899 0.0276192 0.0277958 0.0279198 0.0279912 0.02801 0.027981 0.0279092 0.0277945 0.0276371 0.0274368 0.0271937 0.0269077 0.026579 0.0262156 0.0258258 0.0254096 0.024967 0.024498 0.0240026 0.0234808 0.0229326 0.0223664 0.0217907 0.0212055 0.0206108 0.0200065 0.0193927 0.0187694 0.0181366 0.0175008 0.0168688 0.0162405 0.0156159 0.014995 0.0143778 0.0137643 0.0131545 0.0125524 0.0119621 0.0113836 0.0108168 0.0102617 0.00971844 0.00918689 0.00866709 0.00816079 0.00766972 0.00719388 0.00673328 0.00628792 0.00585779 0.00544289 0.00504323 0.0046592 0.00429118 0.00393918 0.0036032 0.00328323 0.00297928 0.00269135 0.00241943 0.00216343 0.00192323 0.00169885 0.00149028 0.00129752 0.00112057 0.000959429 0.000814102 0.000683203 0.000565351 0.000460544 0.000368784 0.000290071 0.000224403 0.000171782 0.000132207 0.000101221 7.43665e-05 5.16434e-05 3.30518e-05 1.85916e-05 8.26294e-06 2.06574e-06 0 0 3.0596e-05 0.000122384 0.000275364 0.000489535 0.000764899 0.00110145 0.0014992 0.00195814 0.00248689 0.00309406 0.00377965 0.00454367 0.00538612 0.00630698 0.00730627 0.00838399 0.00951158 0.0106605 0.0118308 0.0130224 0.0142354 0.0154698 0.0167254 0.0180024 0.0192734 0.0205107 0.0217146 0.0228848 0.0240216 0.0251248 0.0261944 0.0272306 0.0282189 0.0291452 0.0300096 0.030812 0.0315523 0.0322307 0.0328471 0.0334015 0.0338916 0.0343152 0.0346723 0.0349628 0.0351867 0.0353442 0.0354351 0.0354595 0.0354235 0.0353333 0.035189 0.0349905 0.0347378 0.0344309 0.0340699 0.0336547 0.0331956 0.0327032 0.0321773 0.0316179 0.0310251 0.0303989 0.0297393 0.0290462 0.0283303 0.0276023 0.0268623 0.0261101 0.0253458 0.0245695 0.023781 0.0229805 0.0221762 0.0213765 0.0205815 0.0197912 0.0190055 0.0182244 0.017448 0.0166762 0.0159142 0.0151669 0.0144346 0.013717 0.0130143 0.0123264 0.0116534 0.0109952 0.010354 0.00973211 0.00912947 0.00854608 0.00798195 0.00743708 0.00691147 0.00640512 0.00591852 0.00545217 0.00500608 0.00458024 0.00417465 0.00378932 0.00342424 0.00307941 0.00275469 0.00244996 0.00216521 0.00190044 0.00165566 0.00143085 0.00122603 0.00104119 0.000874596 0.00072452 0.000590959 0.000473914 0.000373386 0.000289373 0.000221875 0.000170894 0.000130841 9.61278e-05 6.67554e-05 4.27235e-05 2.4032e-05 1.06809e-05 2.67022e-06 0 0 3.81832e-05 0.000152733 0.000343649 0.000610932 0.000954581 0.0013746 0.00187098 0.00244373 0.00310269 0.00385773 0.00470885 0.00565603 0.00669929 0.00783862 0.00907402 0.0104055 0.0117979 0.0132163 0.0146605 0.0161307 0.0176267 0.0191486 0.0206964 0.0222701 0.0238361 0.0253608 0.0268443 0.0282865 0.0296874 0.031047 0.0323653 0.0336424 0.0348607 0.0360028 0.0370686 0.0380581 0.0389714 0.0398084 0.0405692 0.0412538 0.0418592 0.0423827 0.0428243 0.0431839 0.0434616 0.0436574 0.0437712 0.0438031 0.0437606 0.0436513 0.0434752 0.0432323 0.0429225 0.0425459 0.0421026 0.0415923 0.0410281 0.0404224 0.0397755 0.0390872 0.0383575 0.0375866 0.0367742 0.0359206 0.0350387 0.0341418 0.0332298 0.0323027 0.0313606 0.0304034 0.0294312 0.0284438 0.0274518 0.0264653 0.0254845 0.0245092 0.0235395 0.0225754 0.0216169 0.0206641 0.0197231 0.0188003 0.0178957 0.0170093 0.0161412 0.0152912 0.0144595 0.0136459 0.0128533 0.0120844 0.0113393 0.0106178 0.0099201 0.00924607 0.00859575 0.00796915 0.00736687 0.00678955 0.00623718 0.00570976 0.0052073 0.00472979 0.00427722 0.00384962 0.00344678 0.00306853 0.00271487 0.0023858 0.00208131 0.00180142 0.00154611 0.0013154 0.00110717 0.000919351 0.000751931 0.000604913 0.000478295 0.000372079 0.000286264 0.000220851 0.000169089 0.000124229 8.62699e-05 5.52127e-05 3.10572e-05 1.38032e-05 3.4508e-06 0 0 4.68191e-05 0.000187276 0.000421372 0.000749106 0.00117048 0.00168549 0.00229414 0.00299642 0.00380309 0.00472488 0.0057618 0.00691383 0.008181 0.00956328 0.0110607 0.0126732 0.0143586 0.0160747 0.0178214 0.0195987 0.0214066 0.0232452 0.0251144 0.0270143 0.0289046 0.0307452 0.032536 0.0342771 0.0359684 0.03761 0.0392019 0.040744 0.0422154 0.0435949 0.0448825 0.0460783 0.0471823 0.0481944 0.0491147 0.0499432 0.0506763 0.0513105 0.051846 0.0522826 0.0526204 0.0528594 0.0529995 0.0530408 0.0529923 0.0528631 0.0526531 0.0523624 0.0519909 0.0515387 0.0510057 0.050392 0.0497128 0.0489836 0.0482042 0.0473748 0.0464952 0.0455655 0.0445857 0.0435558 0.0424916 0.041409 0.040308 0.0391886 0.0380508 0.0368945 0.0357198 0.0345267 0.0333276 0.0321351 0.0309492 0.0297699 0.0285971 0.0274308 0.0262712 0.0251181 0.0239792 0.0228621 0.021767 0.0206937 0.0196423 0.0186127 0.0176051 0.0166193 0.0156587 0.0147267 0.0138233 0.0129486 0.0121024 0.0112848 0.0104957 0.00973532 0.00900426 0.00830331 0.00763248 0.00699177 0.00638117 0.00580068 0.00525032 0.00473006 0.00423969 0.00377894 0.00334783 0.00294634 0.00257449 0.00223227 0.00191968 0.00163672 0.00138093 0.00114985 0.000943461 0.000761779 0.000604799 0.000472523 0.000364949 0.000282078 0.000215966 0.000158669 0.000110187 7.05195e-05 3.96672e-05 1.76299e-05 4.40747e-06 0 0 5.65036e-05 0.000226015 0.000508533 0.000904058 0.00141259 0.00203413 0.00276868 0.00361623 0.00458808 0.0056955 0.0069385 0.00831708 0.00983124 0.011481 0.0132663 0.0151872 0.0171936 0.0192357 0.0213133 0.0234265 0.0255753 0.0277596 0.0299795 0.0322351 0.0344789 0.0366638 0.0387897 0.0408568 0.0428648 0.044814 0.0467042 0.0485355 0.0502829 0.0519216 0.0534515 0.0548727 0.0561851 0.0573887 0.0584836 0.0594697 0.0603428 0.0610987 0.0617374 0.0622589 0.0626631 0.0629501 0.06312 0.0631726 0.0631186 0.0629686 0.0627227 0.0623808 0.0619429 0.0614091 0.0607793 0.0600536 0.05925 0.0583866 0.0574635 0.0564807 0.0554381 0.0543357 0.0531737 0.0519519 0.0506891 0.0494041 0.048097 0.0467678 0.0454163 0.0440427 0.0426469 0.041229 0.0398037 0.038386 0.0369759 0.0355732 0.0341782 0.0327906 0.0314107 0.0300382 0.0286825 0.0273525 0.0260484 0.0247701 0.0235177 0.0222911 0.0210902 0.0199153 0.0187702 0.0176589 0.0165816 0.0155382 0.0145287 0.0135531 0.0126114 0.0117036 0.0108307 0.00999346 0.00919198 0.00842625 0.00769626 0.00700201 0.00634351 0.00572075 0.00513342 0.00458119 0.00406408 0.00358208 0.00313519 0.0027234 0.00234673 0.00200517 0.00169588 0.001416 0.00116555 0.000944513 0.000752898 0.000590704 0.00045793 0.000354576 0.000271472 0.000199449 0.000138506 8.86439e-05 4.98622e-05 2.2161e-05 5.54024e-06 0 0 6.72368e-05 0.000268947 0.000605131 0.00107579 0.00168092 0.00242052 0.0032946 0.00430315 0.00545766 0.0067696 0.00823897 0.00986578 0.01165 0.0135917 0.0156908 0.0179473 0.020303 0.0226993 0.0251363 0.0276141 0.0301326 0.0326918 0.0352917 0.0379324 0.0405589 0.0431166 0.0456055 0.0480255 0.0503766 0.0526588 0.0548722 0.0570168 0.0590634 0.060983 0.0627756 0.0644411 0.0659797 0.0673913 0.0686758 0.0698333 0.0708588 0.0717472 0.0724985 0.0731127 0.0735898 0.0739297 0.0741326 0.0741984 0.0741394 0.0739679 0.073684 0.0732876 0.0727787 0.0721573 0.0714234 0.0705771 0.0696394 0.0686315 0.0675533 0.0664049 0.0651862 0.0638973 0.0625382 0.0611087 0.0596311 0.0581271 0.0565968 0.0550402 0.0534573 0.0518481 0.0502126 0.0485508 0.0468801 0.045218 0.0435644 0.0419193 0.0402828 0.0386548 0.0370354 0.0354245 0.033833 0.0322715 0.03074 0.0292387 0.0277674 0.0263261 0.024915 0.0235339 0.0221877 0.0208811 0.0196141 0.0183869 0.0171992 0.0160512 0.0149428 0.0138741 0.0128461 0.01186 0.0109157 0.0100132 0.00915258 0.00833377 0.0075568 0.00682167 0.00612796 0.00547529 0.00486363 0.004293 0.0037634 0.00327482 0.00282727 0.00242074 0.00205201 0.00171782 0.00141819 0.00115311 0.000922592 0.000726622 0.000565206 0.000438343 0.000335606 0.000246568 0.000171228 0.000109586 6.1642e-05 2.73964e-05 6.84911e-06 0 0 7.90185e-05 0.000316074 0.000711167 0.0012643 0.00197546 0.00284467 0.00387191 0.00505719 0.00641183 0.00794717 0.00966319 0.0115599 0.0136373 0.0158954 0.0183342 0.0209537 0.0236866 0.0264655 0.0292905 0.0321615 0.0350786 0.0380418 0.041051 0.0441062 0.0471447 0.0501037 0.0529832 0.0557832 0.0585036 0.0611446 0.063706 0.0661879 0.0685567 0.070779 0.0728546 0.0747837 0.0765662 0.0782021 0.0796914 0.0810341 0.0822243 0.083256 0.0841293 0.084844 0.0854003 0.0857982 0.0860375 0.0861184 0.0860549 0.0858611 0.085537 0.0850827 0.0844981 0.0837832 0.082938 0.0819626 0.0808812 0.0797183 0.0784737 0.0771474 0.0757396 0.0742502 0.0726791 0.0710265 0.0693176 0.0675779 0.0658073 0.0640059 0.0621737 0.0603107 0.0584168 0.0564921 0.0545567 0.0526309 0.0507147 0.0488081 0.0469109 0.0450234 0.0431454 0.041277 0.0394306 0.0376189 0.0358418 0.0340992 0.0323913 0.030718 0.0290793 0.0274752 0.0259113 0.0243932 0.0229209 0.0214944 0.0201138 0.018779 0.0174899 0.0162467 0.0150506 0.0139029 0.0128036 0.0117527 0.0107501 0.00979596 0.0088902 0.00803282 0.00722333 0.00646122 0.00574648 0.00507912 0.00445913 0.00388652 0.00336129 0.00288344 0.00244932 0.0020553 0.00170139 0.00138758 0.00111388 0.000880277 0.000686778 0.000533381 0.00040837 0.000300027 0.000208352 0.000133345 7.50067e-05 3.33363e-05 8.33408e-06 0 0 9.18489e-05 0.000367396 0.00082664 0.00146958 0.00229622 0.00330656 0.0045006 0.00587833 0.00745059 0.00922821 0.0112112 0.0133995 0.0157932 0.0183922 0.0211966 0.0242063 0.0273446 0.0305344 0.0337758 0.0370688 0.0404133 0.0438095 0.0472573 0.0507566 0.0542363 0.0576251 0.060923 0.0641299 0.067246 0.0702712 0.0732054 0.0760488 0.0787629 0.0813096 0.0836887 0.0859004 0.0879445 0.0898212 0.0915304 0.093072 0.0944393 0.0956252 0.0966298 0.097453 0.0980949 0.0985554 0.0988346 0.0989324 0.0988649 0.098648 0.0982817 0.0977661 0.0971011 0.0962868 0.0953231 0.0942101 0.0929754 0.0916469 0.0902245 0.0887083 0.0870983 0.0853944 0.0835966 0.081705 0.0797486 0.0777565 0.0757286 0.0736649 0.0715655 0.0694304 0.0672595 0.0650528 0.0628336 0.060625 0.0584269 0.0562395 0.0540626 0.0518964 0.0497407 0.0475956 0.0454755 0.0433949 0.0413537 0.0393519 0.0373895 0.0354666 0.0335831 0.0317391 0.0299409 0.0281952 0.0265019 0.024861 0.0232725 0.0217364 0.0202528 0.0188215 0.0174442 0.0161222 0.0148557 0.0136446 0.0124889 0.0113886 0.0103437 0.00935422 0.00841952 0.00753899 0.00671263 0.00594043 0.00522239 0.00455851 0.0039488 0.00339325 0.00288781 0.00242845 0.00201515 0.00164792 0.00132676 0.00105167 0.000822645 0.000639689 0.000489762 0.000359825 0.000249878 0.000159922 8.99562e-05 3.99806e-05 9.99514e-06 0 0 0.000105728 0.000422912 0.000951551 0.00169165 0.0026432 0.00380621 0.00518067 0.00676659 0.00857394 0.0106127 0.0128829 0.0153845 0.0181176 0.021082 0.0242779 0.0277052 0.0312768 0.0349058 0.0385921 0.0423358 0.0461367 0.049995 0.0539106 0.0578836 0.0618336 0.0656807 0.0694247 0.0730657 0.0766037 0.0800386 0.0833706 0.0865995 0.089682 0.0925748 0.0952778 0.0977911 0.100115 0.102249 0.104193 0.105947 0.107504 0.108855 0.11 0.110939 0.111673 0.112201 0.112524 0.11264 0.112569 0.112329 0.111918 0.111338 0.110588 0.109668 0.108579 0.107319 0.105922 0.104417 0.102806 0.101088 0.0992622 0.0973299 0.0952906 0.0931444 0.0909242 0.0886629 0.0863606 0.0840172 0.0816328 0.0792073 0.0767407 0.0742331 0.0717108 0.0692001 0.066701 0.0642136 0.0617378 0.0592737 0.0568212 0.0543804 0.0519676 0.0495994 0.0472757 0.0449966 0.0427621 0.040572 0.0384265 0.0363256 0.0342767 0.0322872 0.0303571 0.0284865 0.0266753 0.0249236 0.0232313 0.0215984 0.0200267 0.0185179 0.017072 0.015689 0.0143689 0.0131116 0.0119173 0.0107858 0.00971653 0.00870861 0.00776207 0.00687692 0.00605316 0.00529078 0.00458979 0.00395018 0.00336749 0.00283726 0.00235947 0.00193413 0.00156124 0.0012408 0.000972808 0.000757267 0.000579783 0.000425963 0.000295807 0.000189317 0.000106491 4.73292e-05 1.18323e-05 0 0 0.000120366 0.000481464 0.00108329 0.00192585 0.00300915 0.00433317 0.00589793 0.00770342 0.00975849 0.012072 0.0146439 0.0174743 0.0205631 0.0239103 0.0275159 0.03138 0.0354049 0.0394928 0.0436439 0.0478581 0.0521353 0.0564757 0.0608792 0.0653458 0.0697861 0.0741108 0.0783198 0.0824131 0.0863907 0.0902527 0.0939991 0.0976297 0.101096 0.10435 0.10739 0.110218 0.112833 0.115236 0.117425 0.119402 0.121156 0.12268 0.123972 0.125034 0.125864 0.126463 0.126831 0.126969 0.126895 0.12663 0.126174 0.125527 0.12469 0.123661 0.122441 0.12103 0.119464 0.117777 0.115969 0.11404 0.111991 0.109821 0.107531 0.10512 0.102625 0.100084 0.0974956 0.0948609 0.0921794 0.0894514 0.0866766 0.0838553 0.0810169 0.0781911 0.0753781 0.0725777 0.06979 0.067015 0.0642526 0.0615029 0.0587844 0.0561158 0.053497 0.0509281 0.0484089 0.0459397 0.0435202 0.0411506 0.0388393 0.0365947 0.0344169 0.0323058 0.0302614 0.0282838 0.026373 0.0245288 0.0227534 0.0210487 0.0194146 0.0178512 0.0163585 0.0149364 0.0135851 0.0123043 0.0110934 0.00995139 0.00887825 0.007874 0.00693864 0.00607218 0.0052746 0.00454592 0.00388126 0.00327573 0.00272934 0.0022421 0.00181399 0.00144502 0.00113518 0.000884492 0.000677189 0.000497527 0.000345505 0.000221123 0.000124382 5.52807e-05 1.38202e-05 0 0 0.000135473 0.000541893 0.00121926 0.00216757 0.00338683 0.00487703 0.00663818 0.00867028 0.0109808 0.0135773 0.0164597 0.019628 0.0230823 0.0268225 0.0308486 0.0351607 0.0396501 0.0442083 0.0488353 0.0535311 0.0582956 0.063129 0.0680311 0.0730021 0.0779431 0.0827555 0.0874393 0.0919945 0.0964211 0.100719 0.104889 0.108929 0.112788 0.11641 0.119795 0.122944 0.125857 0.128534 0.130974 0.133178 0.135135 0.136835 0.138279 0.139465 0.140395 0.141068 0.141484 0.141643 0.141567 0.141279 0.140778 0.140064 0.139138 0.137999 0.136647 0.135083 0.133345 0.131472 0.129464 0.127322 0.125045 0.122634 0.120088 0.117407 0.114632 0.111805 0.108926 0.105994 0.10301 0.0999728 0.0968835 0.0937418 0.0905807 0.0874332 0.0842993 0.0811791 0.0780725 0.0749796 0.0719003 0.0688347 0.0658034 0.0628274 0.0599065 0.0570408 0.0542303 0.051475 0.0487748 0.0461299 0.0435496 0.0410435 0.0386115 0.0362537 0.0339701 0.0317606 0.0296253 0.0275642 0.0255794 0.0236732 0.0218456 0.0200966 0.0184262 0.0168343 0.015321 0.0138864 0.0125292 0.0112487 0.0100446 0.00891705 0.00786603 0.00689155 0.00599359 0.00517216 0.004422 0.00373788 0.00311978 0.00256771 0.00208168 0.00166167 0.00130769 0.00101974 0.000780738 0.000573604 0.000398336 0.000254935 0.000143401 6.37337e-05 1.59334e-05 0 0 0.00015105 0.000604199 0.00135945 0.00241679 0.00377624 0.00543779 0.00740143 0.00966718 0.0122409 0.0151286 0.0183302 0.0218458 0.0256752 0.0298186 0.0342759 0.0390471 0.0440125 0.0490522 0.0541663 0.0593548 0.0646176 0.0699548 0.0753664 0.0808523 0.0863045 0.0916149 0.0967834 0.10181 0.106695 0.111438 0.116039 0.120498 0.124757 0.128754 0.132492 0.135969 0.139186 0.142143 0.14484 0.147276 0.14944 0.151322 0.15292 0.154235 0.155267 0.156015 0.156481 0.156663 0.156586 0.156275 0.155729 0.154948 0.153932 0.152681 0.151196 0.149476 0.147564 0.145503 0.143293 0.140933 0.138425 0.135767 0.132961 0.130005 0.126946 0.123828 0.120651 0.117417 0.114123 0.110772 0.107361 0.103893 0.100402 0.0969262 0.0934647 0.0900178 0.0865855 0.0831677 0.0797644 0.0763758 0.0730247 0.0697342 0.0665043 0.0633349 0.0602262 0.057178 0.0541904 0.0512634 0.0484076 0.0456334 0.042941 0.0403303 0.0378012 0.0353539 0.0329883 0.0307044 0.0285046 0.0263915 0.024365 0.0224251 0.0205719 0.0188052 0.0171253 0.0155319 0.014024 0.0126004 0.0112611 0.0100061 0.00883534 0.00774889 0.00674674 0.00582888 0.00498973 0.00422369 0.00353078 0.00291098 0.00236431 0.00189076 0.00149032 0.00116301 0.000890431 0.000654194 0.000454301 0.000290753 0.000163548 7.26882e-05 1.81721e-05 0 0 0.000167095 0.000668382 0.00150386 0.00267353 0.00417739 0.00601544 0.00818768 0.0106941 0.0135388 0.016726 0.0202555 0.0241275 0.0283418 0.0328986 0.0377978 0.0430394 0.0484921 0.0540246 0.059637 0.0653292 0.0711013 0.0769533 0.082885 0.0888966 0.0948705 0.100689 0.106352 0.11186 0.117212 0.122409 0.12745 0.132337 0.137003 0.141384 0.145481 0.149293 0.152821 0.156064 0.159022 0.161696 0.164072 0.166138 0.167895 0.169342 0.170478 0.171305 0.171822 0.172029 0.171953 0.171619 0.171027 0.170179 0.169073 0.167709 0.166089 0.164211 0.162122 0.159869 0.157453 0.154873 0.152129 0.149222 0.14615 0.142915 0.139565 0.136151 0.132672 0.129129 0.125521 0.121848 0.11811 0.114308 0.110481 0.10667 0.102874 0.0990938 0.0953287 0.0915791 0.0878449 0.0841262 0.0804482 0.0768362 0.0732903 0.0698104 0.0663965 0.0630487 0.059767 0.0565513 0.0534133 0.0503646 0.0474054 0.0445355 0.0417549 0.0390637 0.0364619 0.0339494 0.0315291 0.0292035 0.0269727 0.0248368 0.0227956 0.0208493 0.0189977 0.017241 0.0155777 0.0140066 0.0125278 0.0111411 0.00984654 0.00864421 0.00753407 0.0065161 0.00558444 0.00473318 0.00396234 0.00327191 0.00266189 0.00213228 0.00168309 0.00131431 0.00100627 0.000739297 0.000513401 0.000328577 0.000184824 8.21441e-05 2.0536e-05 0 0 0.000183611 0.000734442 0.0016525 0.00293777 0.00459026 0.00660998 0.00899692 0.0117511 0.0148745 0.0183694 0.0222356 0.0264732 0.0310822 0.0360625 0.0414143 0.0471374 0.0530888 0.0591255 0.0652473 0.0714544 0.0777467 0.0841242 0.090587 0.0971349 0.103641 0.109978 0.116145 0.122143 0.127972 0.133632 0.139123 0.144444 0.149526 0.154299 0.158762 0.162916 0.16676 0.170295 0.173521 0.176437 0.17903 0.181286 0.183205 0.184786 0.186031 0.186938 0.187508 0.187741 0.187666 0.18731 0.186673 0.185757 0.18456 0.183082 0.181324 0.179286 0.177019 0.174572 0.171946 0.169142 0.166159 0.162997 0.159656 0.156136 0.152491 0.148775 0.144988 0.14113 0.137201 0.133201 0.12913 0.124988 0.120818 0.116665 0.112528 0.108407 0.104302 0.100214 0.0961418 0.0920859 0.0880739 0.0841334 0.0802645 0.0764671 0.0727414 0.0690871 0.0655045 0.0619934 0.0585666 0.055237 0.0520046 0.0488693 0.0458311 0.0428901 0.0400462 0.0372994 0.0346528 0.0321093 0.0296689 0.0273316 0.0250974 0.0229663 0.0209384 0.0190135 0.0171903 0.0154674 0.0138446 0.012322 0.0108997 0.00957751 0.00835556 0.00723381 0.00620612 0.00526634 0.00441446 0.00365048 0.00297441 0.00238624 0.00188598 0.00147362 0.00112824 0.000828914 0.000575634 0.000368406 0.000207228 9.21015e-05 2.30254e-05 0 0 0.000200595 0.00080238 0.00180535 0.00320952 0.00501487 0.00722142 0.00982915 0.0128381 0.016248 0.0200588 0.0242704 0.0288829 0.0338962 0.0393104 0.0451254 0.0513413 0.0578028 0.0643548 0.0709973 0.0777303 0.0845538 0.0914678 0.0984723 0.105567 0.112616 0.119481 0.126163 0.132661 0.138976 0.145108 0.151056 0.156821 0.162327 0.167498 0.172335 0.176837 0.181005 0.184838 0.188337 0.191501 0.194315 0.196764 0.198849 0.200569 0.201924 0.202914 0.203539 0.2038 0.203726 0.203348 0.202667 0.201682 0.200393 0.1988 0.196904 0.194703 0.192254 0.18961 0.186772 0.18374 0.180513 0.177093 0.173478 0.169668 0.165723 0.1617 0.157599 0.153421 0.149165 0.144832 0.140421 0.135932 0.131413 0.126911 0.122426 0.117958 0.113506 0.109072 0.104655 0.100255 0.0959018 0.0916258 0.087427 0.0833053 0.0792607 0.0752932 0.0714029 0.0675898 0.0638677 0.0602507 0.0567387 0.0533317 0.0500298 0.0468329 0.0437411 0.0407543 0.0378757 0.0351088 0.0324534 0.0299095 0.0274772 0.0251565 0.0229473 0.0208496 0.0188619 0.0169826 0.0152116 0.013549 0.0119947 0.0105488 0.00921122 0.00798202 0.00685479 0.00582317 0.00488714 0.00404671 0.00330188 0.00265264 0.00209901 0.00164097 0.00125636 0.000923043 0.000641002 0.000410241 0.000230761 0.00010256 2.56401e-05 0 0 0.000218049 0.000872194 0.00196244 0.00348878 0.00545122 0.00784975 0.0106844 0.0139551 0.0176593 0.0217943 0.02636 0.0313566 0.036784 0.0426422 0.0489311 0.0556509 0.0626339 0.0697126 0.0