<?xml version="1.0"?> 
<VTKFile type="StructuredGrid" version="0.1"> 
<StructuredGrid WholeExtent="0 128 0 128 0 0"> 
<Piece Extent="0 128 0 128 0 0"> 
<PointData>
<DataArray type="Float32" Name="u" format="ascii" NumberOfComponents="1"> 
0 0 0 0 0 0 0 0 0 0 0 0 0 0 0 0 0 0 0 0 0 0 0 0 0 0 0 0 0 0 0 0 0 0 0 0 0 0 0 0 0 0 0 0 0 0 0 0 0 0 0 0 0 0 0 0 0 0 0 0 0 0 0 0 0 0 0 0 0 0 0 0 0 0 0 0 0 0 0 0 0 0 0 0 0 0 0 0 0 0 0 0 0 0 0 0 0 0 0 0 0 0 0 0 0 0 0 0 0 0 0 0 0 0 0 0 0 0 0 0 0 0 0 0 0 0 0 0 0 0 5.3739e-07 2.14956e-06 4.83651e-06 8.59825e-06 1.34348e-05 1.93461e-05 2.63321e-05 3.4393e-05 4.36883e-05 5.43778e-05 6.64615e-05 7.99394e-05 9.48115e-05 0.000111078 0.000128738 0.000147793 0.000167731 0.000188042 0.000208725 0.000229781 0.00025121 0.000273012 0.000295186 0.000317733 0.000340155 0.000361954 0.00038313 0.000403683 0.000423614 0.000442921 0.000461606 0.000479668 0.000496848 0.000512888 0.000527787 0.000541545 0.000554162 0.000565639 0.000575975 0.00058517 0.000593188 0.00059999 0.000605576 0.000609948 0.000613104 0.000615045 0.00061577 0.00061528 0.000613697 0.000611142 0.000607615 0.000603117 0.000597646 0.000591205 0.000583791 0.000575406 0.00056625 0.000556523 0.000546226 0.000535359 0.000523922 0.000511914 0.000499336 0.000486188 0.000472674 0.000458999 0.000445162 0.000431164 0.000417006 0.000402686 0.000388204 0.000373562 0.000358915 0.000344421 0.000330081 0.000315893 0.000301858 0.000287976 0.000274247 0.000260671 0.000247337 0.000234335 0.000221665 0.000209327 0.000197321 0.000185647 0.000174305 0.000163295 0.000152645 0.000142386 0.000132517 0.000123038 0.000113949 0.00010525 9.69418e-05 8.90232e-05 8.14861e-05 7.43218e-05 6.75304e-05 6.11119e-05 5.50662e-05 4.93933e-05 4.40933e-05 3.91662e-05 3.45869e-05 3.03306e-05 2.63972e-05 2.27867e-05 1.94992e-05 1.65345e-05 1.38928e-05 1.1574e-05 9.52854e-06 7.7067e-06 6.10851e-06 4.73398e-06 3.58309e-06 2.65587e-06 1.95229e-06 1.47237e-06 1.12729e-06 8.2821e-07 5.75146e-07 3.68093e-07 2.07052e-07 9.20233e-08 2.30058e-08 0 0 2.14956e-06 8.59825e-06 1.93461e-05 3.4393e-05 5.3739e-05 7.73842e-05 0.000105329 0.000137572 0.000174753 0.000217511 0.000265846 0.000319758 0.000379246 0.000444311 0.000514953 0.000591171 0.000670923 0.000752166 0.0008349 0.000919125 0.00100484 0.00109205 0.00118074 0.00127093 0.00136062 0.00144781 0.00153252 0.00161473 0.00169445 0.00177169 0.00184642 0.00191867 0.00198739 0.00205155 0.00211115 0.00216618 0.00221665 0.00226256 0.0023039 0.00234068 0.00237275 0.00239996 0.00242231 0.00243979 0.00245242 0.00246018 0.00246308 0.00246112 0.00245479 0.00244457 0.00243046 0.00241247 0.00239059 0.00236482 0.00233516 0.00230162 0.002265 0.00222609 0.00218491 0.00214144 0.00209569 0.00204766 0.00199734 0.00194475 0.0018907 0.00183599 0.00178065 0.00172466 0.00166802 0.00161074 0.00155282 0.00149425 0.00143566 0.00137769 0.00132032 0.00126357 0.00120743 0.0011519 0.00109699 0.00104268 0.000989347 0.00093734 0.00088666 0.000837309 0.000789284 0.000742588 0.000697219 0.000653178 0.000610581 0.000569544 0.000530068 0.000492152 0.000455797 0.000421002 0.000387767 0.000356093 0.000325944 0.000297287 0.000270122 0.000244447 0.000220265 0.000197573 0.000176373 0.000156665 0.000138348 0.000121322 0.000105589 9.11469e-05 7.79967e-05 6.61381e-05 5.55713e-05 4.62962e-05 3.81142e-05 3.08268e-05 2.4434e-05 1.89359e-05 1.43324e-05 1.06235e-05 7.80917e-06 5.88949e-06 4.50914e-06 3.31284e-06 2.30058e-06 1.47237e-06 8.2821e-07 3.68093e-07 9.20233e-08 0 0 4.83651e-06 1.93461e-05 4.35286e-05 7.73842e-05 0.000120913 0.000174115 0.000236989 0.000309537 0.000393195 0.000489401 0.000598154 0.000719455 0.000853303 0.0009997 0.00115864 0.00133013 0.00150958 0.00169237 0.00187852 0.00206803 0.00226089 0.0024571 0.00265667 0.00285959 0.00306139 0.00325758 0.00344817 0.00363315 0.00381252 0.00398629 0.00415445 0.00431701 0.00447163 0.00461599 0.00475008 0.0048739 0.00498746 0.00509075 0.00518377 0.00526653 0.00533869 0.00539991 0.00545019 0.00548953 0.00551793 0.0055354 0.00554193 0.00553752 0.00552327 0.00550028 0.00546853 0.00542805 0.00537882 0.00532084 0.00525412 0.00517865 0.00509625 0.00500871 0.00491604 0.00481823 0.0047153 0.00460723 0.00449402 0.00437569 0.00425406 0.00413099 0.00400646 0.00388048 0.00375305 0.00362417 0.00349384 0.00336206 0.00323024 0.00309979 0.00297073 0.00284303 0.00271672 0.00259178 0.00246822 0.00234603 0.00222603 0.00210901 0.00199499 0.00188394 0.00177589 0.00167082 0.00156874 0.00146965 0.00137381 0.00128148 0.00119265 0.00110734 0.00102554 0.000947254 0.000872476 0.000801209 0.000733375 0.000668896 0.000607774 0.000550007 0.000495596 0.00044454 0.00039684 0.000352496 0.000311282 0.000272975 0.000237575 0.000205081 0.000175492 0.000148811 0.000125035 0.000104166 8.57569e-05 6.93603e-05 5.49766e-05 4.26058e-05 3.22478e-05 2.39028e-05 1.75706e-05 1.32514e-05 1.01456e-05 7.45389e-06 5.17631e-06 3.31284e-06 1.86347e-06 8.2821e-07 2.07052e-07 0 0 8.59825e-06 3.4393e-05 7.73842e-05 0.000137572 0.000214956 0.000309537 0.000421314 0.000550288 0.000699013 0.000870046 0.00106338 0.00127903 0.00151698 0.00177724 0.00205981 0.00236468 0.00268369 0.00300866 0.0033396 0.0036765 0.00401936 0.00436818 0.00472297 0.00508372 0.00544247 0.00579126 0.00613008 0.00645893 0.00677782 0.00708674 0.0073857 0.00767469 0.00794957 0.00820621 0.00844459 0.00866472 0.0088666 0.00905022 0.0092156 0.00936273 0.009491 0.00959983 0.00968922 0.00975916 0.00980966 0.00984071 0.00985232 0.00984448 0.00981915 0.00977827 0.00972184 0.00964986 0.00956234 0.00945927 0.00934066 0.00920649 0.00905999 0.00890437 0.00873962 0.00856575 0.00838275 0.00819063 0.00798938 0.00777901 0.00756278 0.00734398 0.00712259 0.00689863 0.00667209 0.00644297 0.00621127 0.00597699 0.00574264 0.00551074 0.00528129 0.00505428 0.00482972 0.00460761 0.00438795 0.00417073 0.00395739 0.00374936 0.00354664 0.00334923 0.00315714 0.00297035 0.00278888 0.00261271 0.00244232 0.00227818 0.00212027 0.00196861 0.00182319 0.00168401 0.00155107 0.00142437 0.00130378 0.00118915 0.00108049 0.00097779 0.000881059 0.000790293 0.000705493 0.000626659 0.000553391 0.00048529 0.000422355 0.000364588 0.000311987 0.000264553 0.000222285 0.000185185 0.000152457 0.000123307 9.77362e-05 7.57436e-05 5.73295e-05 4.24939e-05 3.12367e-05 2.3558e-05 1.80366e-05 1.32514e-05 9.20233e-06 5.88949e-06 3.31284e-06 1.47237e-06 3.68093e-07 0 0 1.34348e-05 5.3739e-05 0.000120913 0.000214956 0.000335869 0.000483651 0.000658303 0.000859825 0.00109221 0.00135945 0.00166154 0.00199849 0.00237029 0.00277694 0.00321845 0.00369482 0.00419327 0.00470104 0.00521812 0.00574453 0.00628025 0.00682529 0.00737964 0.00794332 0.00850386 0.00904884 0.00957824 0.0100921 0.0105903 0.011073 0.0115402 0.0119917 0.0124212 0.0128222 0.0131947 0.0135386 0.0138541 0.014141 0.0143994 0.0146293 0.0148297 0.0149997 0.0151394 0.0152487 0.0153276 0.0153761 0.0153943 0.015382 0.0153424 0.0152785 0.0151904 0.0150779 0.0149412 0.0147801 0.0145948 0.0143851 0.0141562 0.0139131 0.0136557 0.013384 0.013098 0.0127979 0.0124834 0.0121547 0.0118168 0.011475 0.0111291 0.0107791 0.0104251 0.0100671 0.00970511 0.00933904 0.00897288 0.00861053 0.00825201 0.00789732 0.00754644 0.00719939 0.00685617 0.00651676 0.00618342 0.00585837 0.00554163 0.00523318 0.00493303 0.00464117 0.00435762 0.00408236 0.00381613 0.00355965 0.00331293 0.00307595 0.00284873 0.00263126 0.00242354 0.00222558 0.00203715 0.00185805 0.00168826 0.0015278 0.00137665 0.00123483 0.00110233 0.000979155 0.000864673 0.000758265 0.00065993 0.000569668 0.000487479 0.000413363 0.000347321 0.000289351 0.000238214 0.000192667 0.000152713 0.000118349 8.95774e-05 6.63967e-05 4.88073e-05 3.68093e-05 2.81821e-05 2.07052e-05 1.43786e-05 9.20233e-06 5.17631e-06 2.30058e-06 5.75146e-07 0 0 1.93461e-05 7.73842e-05 0.000174115 0.000309537 0.000483651 0.000696458 0.000947957 0.00123815 0.00157278 0.0019576 0.00239262 0.00287782 0.00341321 0.0039988 0.00463457 0.00532054 0.00603831 0.0067695 0.0075141 0.00827212 0.00904356 0.00982841 0.0106267 0.0114384 0.0122456 0.0130303 0.0137927 0.0145326 0.0152501 0.0159452 0.0166178 0.0172681 0.0178865 0.018464 0.0190003 0.0194956 0.0199498 0.020363 0.0207351 0.0210661 0.0213548 0.0215996 0.0218007 0.0219581 0.0220717 0.0221416 0.0221677 0.0221501 0.0220931 0.0220011 0.0218741 0.0217122 0.0215153 0.0212834 0.0210165 0.0207146 0.020385 0.0200348 0.0196641 0.0192729 0.0188612 0.0184289 0.0179761 0.0175028 0.0170163 0.0165239 0.0160258 0.0155219 0.0150122 0.0144967 0.0139754 0.0134482 0.0129209 0.0123992 0.0118829 0.0113721 0.0108669 0.0103671 0.00987288 0.00938414 0.00890412 0.00843606 0.00797994 0.00753578 0.00710356 0.00668329 0.00627497 0.0058786 0.00549523 0.0051259 0.00477061 0.00442937 0.00410217 0.00378902 0.0034899 0.00320483 0.0029335 0.00267559 0.00243109 0.00220003 0.00198238 0.00177816 0.00158736 0.00140998 0.00124513 0.0010919 0.000950299 0.000820322 0.00070197 0.000595243 0.000500142 0.000416665 0.000343028 0.000277441 0.000219906 0.000170423 0.000128991 9.56112e-05 7.02825e-05 5.30054e-05 4.05823e-05 2.98155e-05 2.07052e-05 1.32514e-05 7.45389e-06 3.31284e-06 8.2821e-07 0 0 2.63321e-05 0.000105329 0.000236989 0.000421314 0.000658303 0.000947957 0.00129027 0.00168526 0.00214073 0.00266451 0.00325662 0.00391703 0.00464576 0.00544281 0.00630817 0.00724185 0.00821881 0.00921404 0.0102275 0.0112593 0.0123093 0.0133776 0.0144641 0.0155689 0.0166676 0.0177357 0.0187734 0.0197805 0.0207571 0.0217031 0.0226187 0.0235037 0.0243456 0.0251315 0.0258615 0.0265357 0.0271539 0.0277163 0.0282228 0.0286733 0.0290662 0.0293995 0.0296732 0.0298874 0.0300421 0.0301372 0.0301727 0.0301487 0.0300711 0.0299459 0.0297731 0.0295527 0.0292847 0.028969 0.0286058 0.0281949 0.0277462 0.0272696 0.0267651 0.0262326 0.0256722 0.0250838 0.0244675 0.0238232 0.023161 0.0224909 0.0218129 0.0211271 0.0204333 0.0197316 0.019022 0.0183045 0.0175868 0.0168766 0.0161739 0.0154787 0.014791 0.0141108 0.0134381 0.0127729 0.0121195 0.0114824 0.0108616 0.010257 0.00966873 0.0090967 0.00854094 0.00800143 0.00747962 0.00697692 0.00649334 0.00602887 0.00558351 0.00515727 0.00475015 0.00436214 0.00399282 0.00364177 0.00330899 0.00299448 0.00269824 0.00242027 0.00216057 0.00191914 0.00169476 0.0014862 0.00129346 0.00111655 0.000955459 0.000810192 0.000680748 0.000567128 0.000466899 0.000377628 0.000299317 0.000231965 0.000175572 0.000130137 9.56623e-05 7.21463e-05 5.5237e-05 4.05823e-05 2.81821e-05 1.80366e-05 1.01456e-05 4.50914e-06 1.12729e-06 0 0 3.4393e-05 0.000137572 0.000309537 0.000550288 0.000859825 0.00123815 0.00168526 0.00220115 0.00279605 0.00348018 0.00425354 0.00511612 0.00606794 0.00710898 0.00823924 0.00945874 0.0107348 0.0120347 0.0133584 0.014706 0.0160774 0.0174727 0.0188919 0.0203349 0.0217699 0.023165 0.0245203 0.0258357 0.0271113 0.028347 0.0295428 0.0306988 0.0317983 0.0328248 0.0337783 0.0346589 0.0354664 0.0362009 0.0368624 0.0374509 0.037964 0.0383993 0.0387569 0.0390367 0.0392386 0.0393629 0.0394093 0.0393779 0.0392766 0.0391131 0.0388874 0.0385995 0.0382494 0.0378371 0.0373626 0.036826 0.03624 0.0356175 0.0349585 0.034263 0.033531 0.0327625 0.0319575 0.031116 0.0302511 0.0293759 0.0284904 0.0275945 0.0266884 0.0257719 0.0248451 0.023908 0.0229706 0.022043 0.0211252 0.0202171 0.0193189 0.0184304 0.0175518 0.0166829 0.0158296 0.0149974 0.0141866 0.0133969 0.0126286 0.0118814 0.0111555 0.0104509 0.0097693 0.00911271 0.00848109 0.00787444 0.00729275 0.00673603 0.00620427 0.00569748 0.00521511 0.0047566 0.00432195 0.00391116 0.00352423 0.00316117 0.00282197 0.00250664 0.00221356 0.00194116 0.00168942 0.00145835 0.00124795 0.00105821 0.000889141 0.000740738 0.000609827 0.000493229 0.000390945 0.000302974 0.000229318 0.000169975 0.000124947 9.42318e-05 7.21463e-05 5.30054e-05 3.68093e-05 2.3558e-05 1.32514e-05 5.88949e-06 1.47237e-06 0 0 4.37485e-05 0.000174994 0.000393736 0.000699975 0.00109371 0.00157494 0.00214367 0.0027999 0.00355615 0.00442495 0.0054063 0.0065002 0.00770664 0.00902564 0.0104572 0.0120013 0.0136166 0.0152619 0.0169371 0.0186423 0.0203774 0.0221425 0.0239375 0.0257625 0.0275772 0.0293415 0.0310555 0.0327191 0.0343323 0.0358951 0.0374075 0.0388695 0.0402602 0.0415586 0.0427648 0.0438788 0.0449004 0.0458299 0.046667 0.0474119 0.0480616 0.0486128 0.0490658 0.0494204 0.0496767 0.0498347 0.0498943 0.0498556 0.0497284 0.0495225 0.0492379 0.0488747 0.0484328 0.0479122 0.047313 0.0466351 0.0458947 0.0451081 0.0442753 0.0433962 0.042471 0.0414994 0.0404817 0.0394177 0.0383241 0.0372173 0.0360974 0.0349643 0.0338182 0.0326589 0.0314864 0.0303008 0.0291148 0.0279411 0.0267798 0.0256307 0.0244939 0.0233695 0.0222573 0.0211575 0.0200772 0.0190237 0.0179971 0.0169973 0.0160243 0.0150781 0.0141588 0.0132663 0.012403 0.0115712 0.0107711 0.0100024 0.00926537 0.00855987 0.00788594 0.00724357 0.00663207 0.00605075 0.00549961 0.00497865 0.00448787 0.00402728 0.00359686 0.00319663 0.00282455 0.00247861 0.0021588 0.00186512 0.00159758 0.00135617 0.0011409 0.000951757 0.000784756 0.000635897 0.00050518 0.000392606 0.000298174 0.000221885 0.000163738 0.000123733 9.47333e-05 6.96e-05 4.83333e-05 3.09333e-05 1.74e-05 7.73333e-06 1.93333e-06 0 0 5.46184e-05 0.000218474 0.000491566 0.000873895 0.00136546 0.00196626 0.0026763 0.00349558 0.00443842 0.00551917 0.00673781 0.00809435 0.00958879 0.0112211 0.0129914 0.0148995 0.0168948 0.0189263 0.0209941 0.0230982 0.0252387 0.0274154 0.0296284 0.0318777 0.0341142 0.0362886 0.0384009 0.0404513 0.0424396 0.0443658 0.0462301 0.0480323 0.0497467 0.0513476 0.0528351 0.054209 0.0554694 0.0566163 0.0576497 0.0585696 0.0593722 0.0600537 0.0606141 0.0610534 0.0613716 0.0615687 0.0616447 0.0615996 0.0614454 0.0611942 0.060846 0.0604008 0.0598585 0.0592191 0.0584828 0.0576494 0.0567389 0.0557713 0.0547465 0.0536645 0.0525253 0.051329 0.0500755 0.0487649 0.0474174 0.0460536 0.0446733 0.0432766 0.0418634 0.0404339 0.0389879 0.0375255 0.0360624 0.0346142 0.033181 0.0317628 0.0303596 0.0289713 0.027598 0.0262396 0.0249053 0.0236038 0.0223354 0.0210999 0.0198973 0.0187276 0.017591 0.0164872 0.0154194 0.0143905 0.0134004 0.0124492 0.0115369 0.0106634 0.00982879 0.00903307 0.00827539 0.0075549 0.00687162 0.00622555 0.00561668 0.00504501 0.00451054 0.00401328 0.00355072 0.00312037 0.00272221 0.00235625 0.0020225 0.00172095 0.0014516 0.00121444 0.00100463 0.000817286 0.000652414 0.000510013 0.000390083 0.000292625 0.000217638 0.000165122 0.000126421 9.28809e-05 6.45006e-05 4.12804e-05 2.32202e-05 1.03201e-05 2.58003e-06 0 0 6.70028e-05 0.000268011 0.000603025 0.00107204 0.00167507 0.0024121 0.00328314 0.00428818 0.00544286 0.00676283 0.00824807 0.00989859 0.0117144 0.0136955 0.0158418 0.0181535 0.0205692 0.0230278 0.0255294 0.0280738 0.0306612 0.0332914 0.0359646 0.0386807 0.0413808 0.0440061 0.0465566 0.0490323 0.0514332 0.0537593 0.0560106 0.0581871 0.0602579 0.0621918 0.0639891 0.0656495 0.0671732 0.0685602 0.0698104 0.0709239 0.0718959 0.0727219 0.0734018 0.0739356 0.0743233 0.0745649 0.0746605 0.07461 0.0744278 0.0741283 0.0737116 0.0731776 0.0725263 0.0717578 0.070872 0.069869 0.0687727 0.067607 0.066372 0.0650678 0.0636942 0.0622512 0.060739 0.0591575 0.0575312 0.0558847 0.054218 0.0525311 0.0508241 0.0490969 0.0473495 0.0455819 0.0438131 0.0420621 0.0403289 0.0386134 0.0369158 0.0352359 0.0335738 0.0319295 0.0303138 0.0287378 0.0272014 0.0257046 0.0242475 0.0228299 0.021452 0.0201137 0.0188186 0.0175704 0.0163691 0.0152147 0.0141072 0.0130466 0.0120328 0.011066 0.0101451 0.00926906 0.00843799 0.00765185 0.00691064 0.00621436 0.00556302 0.0049566 0.00439209 0.00386644 0.00337966 0.00293175 0.00252271 0.00215254 0.00182124 0.0015288 0.00126945 0.0010374 0.000832647 0.000655196 0.000505046 0.000382196 0.000286646 0.000218397 0.00016721 0.000122848 8.53113e-05 5.45992e-05 3.07121e-05 1.36498e-05 3.41245e-06 0 0 8.09017e-05 0.000323607 0.000728115 0.00129443 0.00202254 0.00291246 0.00396418 0.00517771 0.00656948 0.00815593 0.00993708 0.0119129 0.0140834 0.0164486 0.0190085 0.0217631 0.0246399 0.0275665 0.0305429 0.033569 0.0366449 0.0397706 0.0429461 0.0461713 0.0493771 0.0524941 0.0555225 0.0584622 0.0613132 0.0640755 0.0667492 0.0693341 0.0717937 0.0740912 0.0762268 0.0782004 0.080012 0.0816616 0.0831492 0.0844748 0.0856328 0.0866175 0.0874289 0.088067 0.0885318 0.0888234 0.0889417 0.0888867 0.0886754 0.0883247 0.0878346 0.0872052 0.0864364 0.0855282 0.0844807 0.0832938 0.0819959 0.0806153 0.079152 0.077606 0.0759774 0.0742661 0.0724721 0.0705955 0.0686652 0.0667106 0.0647316 0.0627281 0.0607002 0.058648 0.0565712 0.0544701 0.0523671 0.0502849 0.0482234 0.0461826 0.0441626 0.0421633 0.0401848 0.0382269 0.0363029 0.0344256 0.0325952 0.0308117 0.0290749 0.027385 0.0257418 0.0241456 0.0226005 0.021111 0.0196772 0.018299 0.0169764 0.0157094 0.0144981 0.0133423 0.0122411 0.0111932 0.0101987 0.00925756 0.00836977 0.00753534 0.00675428 0.00602659 0.00534864 0.00471683 0.00413116 0.00359162 0.00309822 0.00265095 0.00224982 0.00189482 0.00157921 0.00129623 0.00104588 0.000828155 0.000643062 0.000490598 0.000370764 0.000283559 0.0002171 0.000159502 0.000110765 7.08898e-05 3.98755e-05 1.77224e-05 4.43061e-06 0 0 9.6315e-05 0.00038526 0.000866835 0.00154104 0.00240787 0.00346734 0.00471943 0.00616416 0.00781826 0.00969849 0.0118048 0.0141373 0.0166959 0.0194806 0.0224915 0.0257285 0.029107 0.0325423 0.0360346 0.0395838 0.0431899 0.0468529 0.0505728 0.0543496 0.058103 0.0617527 0.0652987 0.068741 0.0720796 0.0753144 0.0784456 0.0814731 0.0843541 0.0870458 0.0895484 0.0918617 0.0939857 0.0959205 0.097666 0.0992224 0.100583 0.10174 0.102695 0.103448 0.103997 0.104344 0.104488 0.10443 0.104188 0.103783 0.103215 0.102484 0.101589 0.10053 0.0993088 0.0979238 0.0964086 0.0947961 0.0930863 0.0912793 0.0893751 0.0873736 0.0852749 0.0830789 0.0808197 0.0785314 0.076214 0.0738675 0.0714918 0.069087 0.0666531 0.0641901 0.0617244 0.0592826 0.0568646 0.0544704 0.0521 0.0497535 0.0474309 0.045132 0.0428724 0.0406673 0.0385168 0.0364209 0.0343795 0.0323928 0.0304606 0.0285829 0.0267651 0.0250124 0.0233247 0.0217021 0.0201445 0.018652 0.0172245 0.0158621 0.0145635 0.0133274 0.0121538 0.0110427 0.00999406 0.00900795 0.00808434 0.00722324 0.00642038 0.00567153 0.00497669 0.00433585 0.00374901 0.00321617 0.00273734 0.00231252 0.00193392 0.00159378 0.00129211 0.00102889 0.00080413 0.000617831 0.00046999 0.000360608 0.000276091 0.000202842 0.000140863 9.0152e-05 5.07105e-05 2.2538e-05 5.6345e-06 0 0 0.000113243 0.000452971 0.00101918 0.00181188 0.00283107 0.00407674 0.0055489 0.00724754 0.00918922 0.0113905 0.0138513 0.0165718 0.0195518 0.0227915 0.0262907 0.0300495 0.0339703 0.0379553 0.0420047 0.0461183 0.0502962 0.0545384 0.0588448 0.0632156 0.0675586 0.0717818 0.0758851 0.0798686 0.0837322 0.087476 0.0911 0.0946042 0.0979392 0.101056 0.103954 0.106633 0.109094 0.111337 0.113361 0.115167 0.116746 0.118091 0.119201 0.120077 0.120719 0.121127 0.1213 0.121239 0.120966 0.120504 0.119853 0.119013 0.117983 0.116764 0.115356 0.113759 0.112011 0.110149 0.108175 0.106088 0.103887 0.101574 0.0991472 0.0966077 0.0939946 0.0913471 0.0886653 0.0859492 0.0831988 0.0804141 0.0775952 0.0747419 0.0718849 0.0690551 0.0662524 0.0634767 0.0607281 0.0580066 0.0553121 0.0526447 0.0500223 0.0474628 0.0449661 0.0425323 0.0401614 0.0378533 0.0356081 0.0334258 0.0313125 0.0292744 0.0273116 0.0254239 0.0236114 0.0218742 0.0202121 0.0186253 0.0171123 0.0156716 0.0143032 0.0130072 0.0117835 0.0106322 0.00955319 0.00854655 0.00760732 0.00673055 0.00591626 0.00516444 0.00447509 0.00384822 0.00328381 0.00278188 0.00233357 0.00193006 0.00157134 0.0012574 0.000988252 0.000763894 0.000584325 0.000449544 0.000344182 0.000252869 0.000175603 0.000112386 6.32172e-05 2.80965e-05 7.02413e-06 0 0 0.000131685 0.00052674 0.00118517 0.00210696 0.00329213 0.00474066 0.00645257 0.00842784 0.0106823 0.0132319 0.0160766 0.0192164 0.0226512 0.0263812 0.0304062 0.0347263 0.0392299 0.0438054 0.0484529 0.0531723 0.0579637 0.062827 0.0677622 0.0727693 0.0777439 0.0825813 0.0872817 0.091845 0.0962712 0.10056 0.104712 0.108727 0.112549 0.116121 0.119443 0.122515 0.125338 0.127911 0.130234 0.132307 0.134122 0.135668 0.136946 0.137956 0.138698 0.139172 0.139378 0.139315 0.13901 0.138488 0.137749 0.136793 0.13562 0.13423 0.132623 0.1308 0.128802 0.126675 0.124418 0.122031 0.119514 0.116866 0.114089 0.111182 0.10819 0.105158 0.102085 0.0989733 0.0958213 0.0926293 0.0893973 0.0861254 0.0828487 0.0796025 0.0763868 0.0732015 0.0700467 0.0669224 0.0638285 0.0607651 0.0577528 0.0548122 0.0519432 0.049146 0.0464205 0.0437667 0.0411846 0.0386742 0.0362426 0.0338972 0.0316378 0.0294645 0.0273772 0.0253761 0.023461 0.0216319 0.0198874 0.0182257 0.016647 0.0151511 0.0137381 0.012408 0.0111608 0.00999653 0.00890944 0.00789388 0.00694987 0.0060774 0.00527647 0.00454707 0.00388922 0.00330291 0.00277817 0.00230506 0.00188356 0.00151369 0.00119543 0.000928789 0.000713768 0.000550367 0.000421375 0.000309582 0.000214987 0.000137592 7.73954e-05 3.43979e-05 8.59949e-06 0 0 0.000151642 0.000606567 0.00136478 0.00242627 0.00379104 0.0054591 0.00743044 0.00970507 0.0122976 0.0152228 0.0184806 0.022071 0.025994 0.0302497 0.0348379 0.0397588 0.0448858 0.0500927 0.0553795 0.060746 0.0661925 0.0717187 0.0773248 0.0830107 0.0886588 0.0941514 0.0994886 0.10467 0.109697 0.114567 0.119283 0.123843 0.128183 0.132241 0.136016 0.139507 0.142716 0.145642 0.148285 0.150645 0.152711 0.154473 0.155931 0.157085 0.157934 0.158479 0.15872 0.158657 0.158318 0.157733 0.156902 0.155823 0.154499 0.152927 0.15111 0.149045 0.146784 0.144374 0.141816 0.139109 0.136255 0.133252 0.130101 0.126802 0.123405 0.119963 0.116474 0.11294 0.109359 0.105732 0.10206 0.0983407 0.0946158 0.0909248 0.0872679 0.0836449 0.080056 0.076501 0.0729801 0.0694931 0.0660637 0.0627154 0.0594481 0.0562619 0.0531568 0.0501328 0.0471899 0.044328 0.0415555 0.0388806 0.0363034 0.0338238 0.0314419 0.0291576 0.026971 0.024882 0.0228889 0.0209899 0.0191851 0.0174744 0.0158579 0.0143355 0.0129073 0.0115732 0.0103267 0.00916153 0.00807752 0.00707472 0.00615313 0.00531275 0.00455357 0.0038756 0.00326772 0.00271878 0.00222879 0.00179775 0.00142566 0.00111251 0.000858321 0.000663077 0.000507668 0.000372981 0.000259014 0.000165769 9.32452e-05 4.14423e-05 1.03606e-05 0 0 0.000172708 0.000690831 0.00155437 0.00276332 0.00431769 0.00621748 0.00846268 0.0110533 0.0140024 0.017323 0.0210151 0.0250788 0.029514 0.0343207 0.0394989 0.0450486 0.050828 0.0566952 0.0626502 0.068693 0.0748235 0.0810418 0.0873479 0.0937418 0.100092 0.106268 0.112269 0.118096 0.123748 0.129225 0.134527 0.139655 0.144537 0.149102 0.153348 0.157278 0.160889 0.164184 0.16716 0.169819 0.172149 0.174137 0.175783 0.177087 0.178049 0.17867 0.178949 0.178887 0.178514 0.177865 0.176938 0.175733 0.174251 0.172492 0.170456 0.168142 0.165605 0.162902 0.160031 0.156993 0.153787 0.150415 0.146875 0.143168 0.139351 0.135481 0.131559 0.127584 0.123557 0.119477 0.115344 0.111159 0.106966 0.102811 0.0986938 0.0946139 0.0905715 0.0865668 0.0825996 0.07867 0.0748046 0.07103 0.0673462 0.0637532 0.0602509 0.0568394 0.0535188 0.0502889 0.0471592 0.0441392 0.0412289 0.0384283 0.0357373 0.0331561 0.0306845 0.0283226 0.0260684 0.0239202 0.0218777 0.0199412 0.0181105 0.0163856 0.0147667 0.0132536 0.011839 0.0105157 0.00928375 0.00814304 0.00709361 0.00613546 0.00526859 0.004493 0.00379638 0.00316642 0.00260313 0.0021065 0.00167653 0.00131322 0.00101658 0.000786597 0.000602239 0.000442461 0.000307265 0.000196649 0.000110615 4.91623e-05 1.22906e-05 0 0 0.000194478 0.000777912 0.0017503 0.00311165 0.00486195 0.0070012 0.00952942 0.0124466 0.0157638 0.0194922 0.0236319 0.0281826 0.0331446 0.0385178 0.0443021 0.0504977 0.0569466 0.063491 0.0701311 0.0768667 0.0836979 0.0906246 0.0976469 0.104765 0.111833 0.118707 0.125387 0.131873 0.138164 0.144261 0.150163 0.155872 0.161306 0.166388 0.171117 0.175494 0.179517 0.183188 0.186506 0.189472 0.192071 0.19429 0.196129 0.197588 0.198667 0.199366 0.199686 0.199625 0.19922 0.198506 0.197483 0.196151 0.19451 0.19256 0.190302 0.187734 0.184919 0.181917 0.178728 0.175352 0.17179 0.16804 0.164104 0.159981 0.155735 0.15143 0.147065 0.142641 0.138158 0.133615 0.129013 0.124351 0.119681 0.115051 0.110463 0.105915 0.101409 0.0969441 0.0925201 0.0881372 0.0838252 0.0796138 0.075503 0.0714928 0.0675833 0.0637743 0.060066 0.0564583 0.0529619 0.0495874 0.0463348 0.0432041 0.0401954 0.0373086 0.0345438 0.0319008 0.0293778 0.0269725 0.024685 0.0225154 0.0204635 0.0185295 0.0167132 0.0150148 0.013426 0.0119388 0.0105531 0.00926899 0.00808644 0.00700544 0.00602601 0.00514812 0.00435834 0.0036432 0.0030027 0.00243684 0.00194563 0.00152906 0.00118714 0.000919851 0.000704261 0.000517416 0.000359317 0.000229963 0.000129354 5.74907e-05 1.43727e-05 0 0 0.000216952 0.000867809 0.00195257 0.00347123 0.0054238 0.00781028 0.0106307 0.0138849 0.017582 0.0217306 0.0263308 0.0313826 0.036886 0.042841 0.0492476 0.0561058 0.0632414 0.0704802 0.0778221 0.0852672 0.0928155 0.100467 0.108222 0.11608 0.123882 0.131469 0.138843 0.146001 0.152945 0.159675 0.16619 0.172491 0.17849 0.1841 0.189322 0.194155 0.1986 0.202656 0.206323 0.209602 0.212477 0.214933 0.21697 0.218588 0.219787 0.220567 0.220929 0.220871 0.220434 0.219656 0.218536 0.217076 0.215274 0.213131 0.210648 0.207823 0.204724 0.201419 0.197906 0.194187 0.190261 0.186128 0.181788 0.177242 0.172559 0.167809 0.162993 0.158111 0.153162 0.148147 0.143065 0.137917 0.132759 0.127644 0.122575 0.117549 0.112569 0.107633 0.102741 0.0978946 0.0931253 0.0884666 0.0839185 0.0794809 0.0751539 0.0709375 0.0668316 0.0628363 0.0589635 0.0552251 0.0516211 0.0481514 0.0448162 0.0416153 0.0385489 0.0356168 0.0328169 0.030147 0.027607 0.025197 0.022917 0.020767 0.0187469 0.0168568 0.0150877 0.0134306 0.0118856 0.0104526 0.00913161 0.0079227 0.00682581 0.00584097 0.00495359 0.0041491 0.0034275 0.00278879 0.00223297 0.00176004 0.00136999 0.00106284 0.000813736 0.000597847 0.000415171 0.00026571 0.000149462 6.64274e-05 1.66069e-05 0 0 0.000240131 0.000960523 0.00216118 0.00384209 0.00600327 0.0086447 0.0117664 0.0153684 0.0194568 0.024038 0.029112 0.0346787 0.0407382 0.0472904 0.0543354 0.0618731 0.0697125 0.0776626 0.0857233 0.0938946 0.102177 0.110569 0.119072 0.127686 0.136238 0.144554 0.152635 0.160481 0.168092 0.175468 0.182608 0.189513 0.196089 0.202238 0.207963 0.213263 0.218137 0.222586 0.226611 0.230209 0.233367 0.236065 0.238305 0.240086 0.241409 0.242274 0.24268 0.242627 0.242158 0.241315 0.240098 0.238508 0.236544 0.234205 0.231493 0.228408 0.225021 0.221407 0.217566 0.213498 0.209202 0.204679 0.199928 0.19495 0.189822 0.184619 0.179343 0.173994 0.16857 0.163073 0.157502 0.151858 0.1462 0.140591 0.135029 0.129516 0.124051 0.118633 0.113264 0.107942 0.102705 0.0975885 0.0925926 0.0877174 0.0829628 0.0783289 0.0738156 0.0694229 0.0651641 0.0610524 0.0570877 0.0532701 0.0495996 0.0460761 0.0426997 0.0394704 0.0363858 0.0334435 0.0306436 0.0279861 0.0254709 0.0230981 0.0208677 0.0187796 0.0168241 0.0149912 0.0132811 0.0116938 0.0102291 0.00888721 0.00766802 0.00657155 0.00558214 0.00468414 0.00387754 0.00316234 0.00253854 0.00200614 0.00156515 0.00121556 0.000930663 0.000683753 0.000474828 0.00030389 0.000170938 7.59725e-05 1.89931e-05 0 0 0.000264013 0.00105605 0.00237612 0.00422421 0.00660033 0.00950448 0.0129366 0.0168968 0.0213884 0.0264146 0.0319754 0.0380709 0.0447011 0.0518659 0.0595654 0.0677995 0.07636 0.0850383 0.0938346 0.102749 0.111781 0.120931 0.130199 0.139585 0.148901 0.157961 0.166765 0.175313 0.183604 0.191639 0.199417 0.206939 0.214102 0.220802 0.22704 0.232816 0.238129 0.24298 0.247369 0.251295 0.254741 0.257687 0.260135 0.262084 0.263534 0.264485 0.264937 0.264891 0.264391 0.263484 0.262169 0.260448 0.258319 0.255783 0.252839 0.249488 0.24581 0.241883 0.237707 0.233284 0.228612 0.223691 0.218523 0.213105 0.207523 0.20186 0.196115 0.19029 0.184382 0.178394 0.172324 0.166172 0.160006 0.153891 0.147827 0.141815 0.135854 0.129945 0.124087 0.11828 0.112564 0.106979 0.101526 0.0962024 0.09101 0.0859486 0.0810179 0.0762181 0.0715637 0.0670692 0.0627348 0.0585602 0.0545456 0.050691 0.0469964 0.0434617 0.0400845 0.0368622 0.0337949 0.0308826 0.0281253 0.025523 0.0230756 0.0207833 0.0186352 0.0166207 0.0147398 0.0129926 0.011379 0.009899 0.00855262 0.00733985 0.00624399 0.0052483 0.0043528 0.00355748 0.00286234 0.00226739 0.00177261 0.00137802 0.00105504 0.000775134 0.000538287 0.000344504 0.000193783 8.6126e-05 2.15315e-05 0 0 0.0002886 0.0011544 0.0025974 0.0046176 0.007215 0.0103896 0.0141414 0.0184704 0.0233767 0.0288602 0.0349211 0.0415593 0.0487748 0.0565676 0.0649377 0.0738851 0.0831837 0.0926073 0.102156 0.11183 0.121628 0.131552 0.141601 0.151775 0.161872 0.171692 0.181233 0.190496 0.199481 0.208188 0.216617 0.224768 0.23253 0.239792 0.246553 0.252815 0.258576 0.263837 0.268598 0.272858 0.276599 0.279799 0.28246 0.28458 0.286161 0.287201 0.287702 0.287663 0.287133 0.286162 0.284749 0.282895 0.2806 0.277863 0.274685 0.271065 0.26709 0.262845 0.25833 0.253546 0.248491 0.243167 0.237572 0.231708 0.225664 0.219532 0.213309 0.206998 0.200598 0.194108 0.187529 0.180861 0.174175 0.167544 0.160968 0.154447 0.14798 0.141568 0.135211 0.128908 0.122703 0.11664 0.110717 0.104936 0.0992955 0.0937965 0.0884386 0.0832219 0.0781622 0.0732757 0.0685622 0.0640217 0.0596544 0.0554601 0.0514388 0.0475907 0.0439129 0.040403 0.0370609 0.0338866 0.0308802 0.0280415 0.0253707 0.0228677 0.020521 0.018319 0.0162617 0.0143491 0.0125812 0.0109581 0.00947961 0.00814588 0.00693913 0.0058416 0.0048533 0.00397423 0.00320438 0.00254376 0.00199237 0.0015502 0.00118688 0.00087199 0.000605548 0.000387551 0.000217997 9.68878e-05 2.42219e-05 0 0 0.000313891 0.00125556 0.00282502 0.00502225 0.00784727 0.0113001 0.0153807 0.020089 0.0254216 0.0313749 0.037949 0.0451437 0.0529592 0.0613953 0.0704522 0.0801298 0.0901837 0.10037 0.110688 0.121137 0.131719 0.142433 0.153279 0.164257 0.175151 0.185744 0.196038 0.206031 0.215723 0.225116 0.234208 0.243001 0.251373 0.259207 0.266503 0.273259 0.279477 0.285157 0.290297 0.294899 0.298941 0.302401 0.305279 0.307575 0.30929 0.310423 0.310974 0.310944 0.310385 0