<?xml version="1.0"?> 
<VTKFile type="StructuredGrid" version="0.1"> 
<StructuredGrid WholeExtent="0 128 0 128 0 0"> 
<Piece Extent="0 128 0 128 0 0"> 
<PointData>
<DataArray type="Float32" Name="u" format="ascii" NumberOfComponents="1"> 
0 0 0 0 0 0 0 0 0 0 0 0 0 0 0 0 0 0 0 0 0 0 0 0 0 0 0 0 0 0 0 0 0 0 0 0 0 0 0 0 0 0 0 0 0 0 0 0 0 0 0 0 0 0 0 0 0 0 0 0 0 0 0 0 0 0 0 0 0 0 0 0 0 0 0 0 0 0 0 0 0 0 0 0 0 0 0 0 0 0 0 0 0 0 0 0 0 0 0 0 0 0 0 0 0 0 0 0 0 0 0 0 0 0 0 0 0 0 0 0 0 0 0 0 0 0 0 0 0 0 2.57957e-07 1.03183e-06 2.32161e-06 4.12731e-06 6.44892e-06 9.28645e-06 1.26399e-05 1.65092e-05 2.09692e-05 2.60945e-05 3.18851e-05 3.8341e-05 4.54622e-05 5.32487e-05 6.17005e-05 7.08177e-05 8.03594e-05 9.00851e-05 9.99947e-05 0.000110088 0.000120366 0.000130827 0.000141472 0.000152301 0.000163086 0.000173598 0.000183837 0.000193804 0.000203497 0.000212918 0.000222066 0.000230941 0.000239428 0.000247413 0.000254896 0.000261876 0.000268353 0.000274328 0.000279801 0.000284771 0.000289222 0.000293136 0.000296515 0.000299357 0.000301663 0.000303433 0.000304667 0.000305365 0.000305575 0.000305346 0.000304678 0.000303571 0.000302024 0.000300039 0.000297614 0.00029475 0.000291525 0.000288017 0.000284227 0.000280153 0.000275796 0.000271156 0.000266233 0.000261027 0.000255616 0.000250078 0.000244414 0.000238622 0.000232704 0.000226659 0.000220487 0.000214188 0.000207823 0.000201452 0.000195076 0.000188695 0.000182308 0.000175916 0.000169519 0.000163116 0.000156747 0.000150451 0.000144228 0.000138077 0.000131999 0.000125995 0.000120063 0.000114204 0.00010844 0.000102795 9.72687e-05 9.18607e-05 8.65711e-05 8.14e-05 7.63474e-05 7.14132e-05 6.66138e-05 6.19656e-05 5.74684e-05 5.31225e-05 4.89276e-05 4.48839e-05 4.09913e-05 3.72498e-05 3.36771e-05 3.02908e-05 2.7091e-05 2.40776e-05 2.12507e-05 1.86101e-05 1.6156e-05 1.38883e-05 1.18092e-05 9.9208e-06 8.2231e-06 6.71611e-06 5.39983e-06 4.27425e-06 3.33938e-06 2.59522e-06 1.98697e-06 1.45981e-06 1.01376e-06 6.48806e-07 3.64953e-07 1.62202e-07 4.05504e-08 0 0 1.03183e-06 4.12731e-06 9.28645e-06 1.65092e-05 2.57957e-05 3.71458e-05 5.05596e-05 6.6037e-05 8.38768e-05 0.000104378 0.00012754 0.000153364 0.000181849 0.000212995 0.000246802 0.000283271 0.000321438 0.00036034 0.000399979 0.000440353 0.000481463 0.000523308 0.000565889 0.000609206 0.000652345 0.000694392 0.000735349 0.000775214 0.000813988 0.000851671 0.000888263 0.000923764 0.000957714 0.000989654 0.00101958 0.0010475 0.00107341 0.00109731 0.0011192 0.00113908 0.00115689 0.00117254 0.00118606 0.00119743 0.00120665 0.00121373 0.00121867 0.00122146 0.0012223 0.00122138 0.00121871 0.00121428 0.0012081 0.00120015 0.00119046 0.001179 0.0011661 0.00115207 0.00113691 0.00112061 0.00110318 0.00108462 0.00106493 0.00104411 0.00102246 0.00100031 0.000977655 0.000954489 0.000930816 0.000906635 0.000881947 0.000856751 0.00083129 0.000805808 0.000780305 0.00075478 0.000729234 0.000703665 0.000678076 0.000652465 0.000626988 0.000601804 0.00057691 0.000552308 0.000527998 0.000503978 0.000480251 0.000456814 0.000433761 0.000411181 0.000389075 0.000367443 0.000346285 0.0003256 0.00030539 0.000285653 0.000266455 0.000247862 0.000229874 0.00021249 0.00019571 0.000179535 0.000163965 0.000148999 0.000134708 0.000121163 0.000108364 9.63105e-05 8.50026e-05 7.44404e-05 6.4624e-05 5.55533e-05 4.72368e-05 3.96832e-05 3.28924e-05 2.68644e-05 2.15993e-05 1.7097e-05 1.33575e-05 1.03809e-05 7.94788e-06 5.83926e-06 4.05504e-06 2.59522e-06 1.45981e-06 6.48806e-07 1.62202e-07 0 0 2.32161e-06 9.28645e-06 2.08945e-05 3.71458e-05 5.80403e-05 8.35781e-05 0.000113759 0.000148583 0.000188723 0.00023485 0.000286966 0.000345069 0.00040916 0.000479238 0.000555305 0.000637359 0.000723235 0.000810766 0.000899952 0.000990794 0.00108329 0.00117744 0.00127325 0.00137071 0.00146778 0.00156238 0.00165453 0.00174423 0.00183147 0.00191626 0.00199859 0.00207847 0.00215486 0.00222672 0.00229406 0.00235688 0.00241518 0.00246896 0.00251821 0.00256294 0.00260299 0.00263823 0.00266863 0.00269421 0.00271497 0.0027309 0.002742 0.00274828 0.00275018 0.00274811 0.0027421 0.00273214 0.00271822 0.00270035 0.00267853 0.00265275 0.00262373 0.00259216 0.00255804 0.00252137 0.00248216 0.0024404 0.0023961 0.00234924 0.00230054 0.00225071 0.00219972 0.0021476 0.00209434 0.00203993 0.00198438 0.00192769 0.0018704 0.00181307 0.00175569 0.00169826 0.00164078 0.00158325 0.00152567 0.00146805 0.00141072 0.00135406 0.00129805 0.00124269 0.00118799 0.00113395 0.00108056 0.00102783 0.000975962 0.000925157 0.000875419 0.000826746 0.00077914 0.0007326 0.000687127 0.000642719 0.000599524 0.00055769 0.000517216 0.000478102 0.000440348 0.000403955 0.000368921 0.000335248 0.000303094 0.000272618 0.000243819 0.000216699 0.000191256 0.000167491 0.000145404 0.000124995 0.000106283 8.92872e-05 7.40079e-05 6.0445e-05 4.85984e-05 3.84683e-05 3.00545e-05 2.3357e-05 1.78827e-05 1.31383e-05 9.12384e-06 5.83926e-06 3.28458e-06 1.45981e-06 3.64953e-07 0 0 4.12731e-06 1.65092e-05 3.71458e-05 6.6037e-05 0.000103183 0.000148583 0.000202238 0.000264148 0.000335507 0.000417512 0.000510161 0.000613456 0.000727395 0.000851979 0.000987209 0.00113308 0.00128575 0.00144136 0.00159992 0.00176141 0.00192585 0.00209323 0.00226356 0.00243682 0.00260938 0.00277757 0.0029414 0.00310086 0.00325595 0.00340669 0.00355305 0.00369505 0.00383085 0.00395861 0.00407833 0.00419001 0.00429365 0.00438925 0.00447681 0.00455634 0.00462755 0.00469018 0.00474423 0.00478971 0.00482661 0.00485493 0.00487467 0.00488584 0.0048892 0.00488554 0.00487485 0.00485713 0.00483239 0.00480062 0.00476182 0.004716 0.00466441 0.00460828 0.00454762 0.00448244 0.00441273 0.00433849 0.00425973 0.00417643 0.00408986 0.00400125 0.00391062 0.00381796 0.00372326 0.00362654 0.00352779 0.003427 0.00332516 0.00322323 0.00312122 0.00301912 0.00291693 0.00281466 0.0027123 0.00260986 0.00250795 0.00240721 0.00230764 0.00220923 0.00211199 0.00201591 0.001921 0.00182726 0.00173504 0.00164472 0.0015563 0.00146977 0.00138514 0.0013024 0.00122156 0.00114261 0.00106582 0.000991449 0.000919495 0.000849959 0.000782841 0.000718142 0.00065586 0.000595997 0.000538834 0.000484654 0.000433456 0.000385242 0.00034001 0.000297762 0.000258496 0.000222213 0.000188947 0.000158733 0.00013157 0.000107458 8.63972e-05 6.8388e-05 5.34302e-05 4.15236e-05 3.17915e-05 2.3357e-05 1.62202e-05 1.03809e-05 5.83926e-06 2.59522e-06 6.48806e-07 0 0 6.44892e-06 2.57957e-05 5.80403e-05 0.000103183 0.000161223 0.000232161 0.000315997 0.000412731 0.00052423 0.000652362 0.000797127 0.000958524 0.00113655 0.00133122 0.00154251 0.00177044 0.00200899 0.00225213 0.00249987 0.00275221 0.00300914 0.00327067 0.00353681 0.00380753 0.00407715 0.00433995 0.00459593 0.00484509 0.00508743 0.00532295 0.00555164 0.00577352 0.00598571 0.00618534 0.0063724 0.0065469 0.00670884 0.00685821 0.00699502 0.00711927 0.00723054 0.0073284 0.00741287 0.00748392 0.00754158 0.00758583 0.00761668 0.00763412 0.00763938 0.00763365 0.00761695 0.00758927 0.00755061 0.00750097 0.00744035 0.00736876 0.00728813 0.00720044 0.00710566 0.00700382 0.00689489 0.0067789 0.00665582 0.00652567 0.0063904 0.00625196 0.00611034 0.00596556 0.0058176 0.00566647 0.00551217 0.00535469 0.00519556 0.0050363 0.00487691 0.00471738 0.00455771 0.00439791 0.00423797 0.0040779 0.00391868 0.00376127 0.00360569 0.00345193 0.00329998 0.00314987 0.00300157 0.00285509 0.002711 0.00256988 0.00243172 0.00229652 0.00216428 0.002035 0.00190868 0.00178533 0.00166535 0.00154914 0.00143671 0.00132806 0.00122319 0.0011221 0.00102478 0.000931245 0.000841928 0.000757271 0.000677276 0.000601941 0.000531266 0.000465253 0.0004039 0.000347208 0.00029523 0.00024802 0.000205578 0.000167903 0.000134996 0.000106856 8.34846e-05 6.48806e-05 4.96742e-05 3.64953e-05 2.5344e-05 1.62202e-05 9.12384e-06 4.05504e-06 1.01376e-06 0 0 9.28645e-06 3.71458e-05 8.35781e-05 0.000148583 0.000232161 0.000334312 0.000455036 0.000594333 0.000754892 0.000939402 0.00114786 0.00138028 0.00163664 0.00191695 0.00222122 0.00254944 0.00289294 0.00324306 0.00359981 0.00396318 0.00433316 0.00470977 0.005093 0.00548285 0.0058711 0.00624953 0.00661814 0.00697693 0.0073259 0.00766504 0.00799437 0.00831387 0.00861942 0.00890688 0.00917625 0.00942753 0.00966072 0.00987582 0.0100728 0.0102518 0.010412 0.0105529 0.0106745 0.0107768 0.0108599 0.0109236 0.010968 0.0109931 0.0110007 0.0109925 0.0109684 0.0109285 0.0108729 0.0108014 0.0107141 0.010611 0.0104949 0.0103686 0.0102322 0.0100855 0.00992865 0.00976161 0.00958438 0.00939697 0.00920218 0.00900282 0.0087989 0.0085904 0.00837734 0.00815971 0.00793752 0.00771076 0.00748161 0.00725228 0.00702275 0.00679302 0.0065631 0.00633299 0.00610268 0.00587218 0.0056429 0.00541623 0.00519219 0.00497077 0.00475198 0.00453581 0.00432226 0.00411133 0.00390385 0.00370063 0.00350167 0.00330699 0.00311656 0.0029304 0.00274851 0.00257088 0.0023981 0.00223076 0.00206886 0.00191241 0.00176139 0.00161582 0.00147569 0.00134099 0.00121238 0.00109047 0.000975277 0.000866794 0.000765023 0.000669964 0.000581616 0.000499979 0.000425131 0.000357149 0.000296032 0.00024178 0.000194394 0.000153873 0.000120218 9.34281e-05 7.15309e-05 5.25533e-05 3.64953e-05 2.3357e-05 1.31383e-05 5.83926e-06 1.45981e-06 0 0 1.26399e-05 5.05596e-05 0.000113759 0.000202238 0.000315997 0.000455036 0.000619355 0.000808953 0.00102749 0.00127863 0.00156237 0.00187871 0.00222765 0.00260919 0.00302333 0.00347007 0.00393761 0.00441417 0.00489974 0.00539432 0.00589792 0.00641052 0.00693214 0.00746277 0.00799122 0.00850631 0.00900802 0.00949637 0.00997136 0.010433 0.0108812 0.0113161 0.011732 0.0121233 0.0124899 0.0128319 0.0131493 0.0134421 0.0137102 0.0139538 0.0141719 0.0143637 0.0145292 0.0146685 0.0147815 0.0148682 0.0149287 0.0149629 0.0149732 0.014962 0.0149292 0.014875 0.0147992 0.0147019 0.0145831 0.0144428 0.0142847 0.0141129 0.0139271 0.0137275 0.013514 0.0132866 0.0130454 0.0127903 0.0125252 0.0122538 0.0119763 0.0116925 0.0114025 0.0111063 0.0108038 0.0104952 0.0101833 0.00987115 0.00955874 0.00924606 0.00893311 0.0086199 0.00830643 0.00799269 0.00768061 0.00737209 0.00706715 0.00676577 0.00646797 0.00617374 0.00588307 0.00559598 0.00531357 0.00503697 0.00476617 0.00450117 0.00424199 0.0039886 0.00374102 0.00349925 0.00326408 0.00303631 0.00281595 0.002603 0.00239745 0.00219931 0.00200857 0.00182524 0.00165018 0.00148425 0.00132746 0.0011798 0.00104128 0.000911895 0.000791644 0.000680528 0.000578651 0.000486119 0.000402932 0.000329089 0.000264592 0.000209438 0.00016363 0.000127166 9.73615e-05 7.15309e-05 4.96742e-05 3.17915e-05 1.78827e-05 7.94788e-06 1.98697e-06 0 0 1.65092e-05 6.6037e-05 0.000148583 0.000264148 0.000412731 0.000594333 0.000808953 0.00105659 0.00134203 0.00167005 0.00204064 0.00245382 0.00290958 0.00340792 0.00394883 0.00453233 0.005143 0.00576545 0.00639966 0.00704564 0.0077034 0.00837293 0.00905422 0.00974729 0.0104375 0.0111103 0.0117656 0.0124034 0.0130238 0.0136267 0.0142122 0.0147802 0.0153234 0.0158345 0.0163133 0.0167601 0.0171746 0.017557 0.0179073 0.0182253 0.0185102 0.0187607 0.0189769 0.0191588 0.0193064 0.0194197 0.0194987 0.0195434 0.0195568 0.0195421 0.0194994 0.0194285 0.0193296 0.0192025 0.0190473 0.018864 0.0186576 0.0184331 0.0181905 0.0179298 0.0176509 0.017354 0.0170389 0.0167057 0.0163594 0.016005 0.0156425 0.0152718 0.0148931 0.0145062 0.0141111 0.013708 0.0133006 0.0128929 0.0124849 0.0120765 0.0116677 0.0112586 0.0108492 0.0104394 0.0100318 0.00962886 0.00923056 0.00883693 0.00844796 0.00806365 0.00768401 0.00730903 0.00694017 0.0065789 0.0062252 0.00587909 0.00554055 0.0052096 0.00488623 0.00457045 0.00426328 0.0039658 0.00367798 0.00339984 0.00313137 0.00287257 0.00262344 0.00238399 0.00215533 0.00193861 0.00173383 0.00154097 0.00136004 0.00119105 0.00103398 0.000888852 0.000755789 0.000634931 0.000526278 0.000429831 0.000345589 0.000273552 0.000213721 0.000166094 0.000127166 9.34281e-05 6.48806e-05 4.15236e-05 2.3357e-05 1.03809e-05 2.59522e-06 0 0 2.09965e-05 8.3986e-05 0.000188968 0.000335944 0.000524912 0.000755874 0.00102883 0.00134378 0.00170657 0.00212307 0.00259328 0.00311719 0.00369481 0.00432613 0.00501115 0.00574989 0.00652286 0.00731062 0.00811317 0.0089305 0.00976261 0.0106095 0.0114712 0.0123477 0.0132205 0.0140713 0.0149 0.0157066 0.0164912 0.0172537 0.0179942 0.0187126 0.0193996 0.0200461 0.0206518 0.021217 0.0217415 0.0222254 0.0226687 0.0230713 0.0234319 0.0237492 0.024023 0.0242535 0.0244406 0.0245844 0.0246847 0.0247417 0.0247592 0.0247412 0.0246876 0.0245984 0.0244737 0.0243134 0.0241176 0.0238862 0.0236255 0.0233419 0.0230354 0.022706 0.0223535 0.0219782 0.0215799 0.0211587 0.0207209 0.0202727 0.0198142 0.0193455 0.0188664 0.018377 0.0178773 0.0173673 0.0168519 0.0163361 0.0158197 0.015303 0.0147857 0.014268 0.0137498 0.0132311 0.0127152 0.0122051 0.0117009 0.0112026 0.0107102 0.0102236 0.00974297 0.00926818 0.00880113 0.00834366 0.00789577 0.00745747 0.00702875 0.00660961 0.00620006 0.00580009 0.00541103 0.0050342 0.0046696 0.00431722 0.00397708 0.00364916 0.00333348 0.00303002 0.00274021 0.00246547 0.00220581 0.00196121 0.00173168 0.00151722 0.00131783 0.00113351 0.000964445 0.000810814 0.000672619 0.000549861 0.000442538 0.000350652 0.000274201 0.000213186 0.000163221 0.000119917 8.32759e-05 5.32966e-05 2.99793e-05 1.33241e-05 3.33104e-06 0 0 2.62036e-05 0.000104814 0.000235833 0.000419258 0.00065509 0.00094333 0.00128398 0.00167703 0.00212918 0.00264713 0.00323086 0.00388038 0.0045957 0.0053768 0.0062237 0.00713638 0.00809093 0.00906342 0.0100539 0.0110622 0.0120885 0.0131328 0.014195 0.0152751 0.0163507 0.0173991 0.0184203 0.0194144 0.0203814 0.0213213 0.022234 0.0231196 0.0239666 0.0247636 0.0255107 0.0262078 0.026855 0.0274521 0.0279993 0.0284965 0.0289421 0.0293342 0.0296729 0.0299582 0.03019 0.0303684 0.0304935 0.0305651 0.030588 0.0305671 0.0305024 0.0303937 0.0302412 0.0300449 0.0298047 0.0295206 0.0292004 0.0288518 0.0284749 0.0280696 0.027636 0.0271739 0.0266835 0.0261648 0.0256254 0.0250732 0.0245082 0.0239305 0.0233399 0.0227364 0.0221202 0.0214912 0.0208554 0.020219 0.0195819 0.0189441 0.0183057 0.0176666 0.0170269 0.0163865 0.0157494 0.0151194 0.0144967 0.0138812 0.0132729 0.0126718 0.0120778 0.0114911 0.0109139 0.0103485 0.00979488 0.00925306 0.00872305 0.00820484 0.00769842 0.00720381 0.00672263 0.00625651 0.00580546 0.00536946 0.00494854 0.00454267 0.00415187 0.00377613 0.00341718 0.00307675 0.00275484 0.00245144 0.00216657 0.00190021 0.00165238 0.00142306 0.00121252 0.001021 0.000848503 0.000695034 0.000560591 0.000445174 0.000348782 0.000271415 0.000207802 0.000152671 0.000106022 6.78538e-05 3.81678e-05 1.69635e-05 4.24086e-06 0 0 3.21306e-05 0.000128522 0.000289176 0.00051409 0.000803265 0.0011567 0.0015744 0.00205636 0.00260987 0.00324221 0.00395339 0.0047434 0.00561225 0.00655994 0.00758646 0.00869182 0.00984722 0.0110238 0.0122217 0.0134408 0.0146812 0.0159428 0.0172256 0.0185297 0.019828 0.0210937 0.0223266 0.0235269 0.0246945 0.0258294 0.0269316 0.0280012 0.0290242 0.0299872 0.0308899 0.0317325 0.0325149 0.0332371 0.0338992 0.034501 0.0350406 0.0355158 0.0359265 0.0362727 0.0365546 0.036772 0.0369249 0.0370135 0.0370433 0.0370201 0.0369438 0.0368146 0.0366323 0.036397 0.0361087 0.0357673 0.0353823 0.0349628 0.034509 0.0340208 0.0334981 0.0329411 0.0323497 0.0317239 0.0310731 0.0304066 0.0297245 0.0290268 0.0283135 0.0275845 0.0268399 0.0260796 0.0253111 0.0245417 0.0237713 0.023 0.0222278 0.0214546 0.0206805 0.0199055 0.0191344 0.0183718 0.0176179 0.0168727 0.016136 0.015408 0.0146886 0.0139778 0.0132785 0.0125934 0.0119225 0.0112659 0.0106235 0.00999528 0.00938132 0.0087816 0.00819808 0.00763273 0.00708556 0.00655656 0.00604574 0.00555309 0.00507861 0.00462231 0.00418623 0.00377243 0.00338092 0.00301168 0.00266471 0.00234003 0.00203763 0.0017575 0.00150001 0.00126548 0.00105393 0.000865352 0.000699749 0.000557119 0.000437463 0.000340781 0.00026091 0.000191689 0.000133118 8.51952e-05 4.79223e-05 2.12988e-05 5.3247e-06 0 0 3.87775e-05 0.00015511 0.000348997 0.00062044 0.000969437 0.00139599 0.0019001 0.00248176 0.00314862 0.00390832 0.00476087 0.00570625 0.00674448 0.00787554 0.00909945 0.0104162 0.0117917 0.0131919 0.0146168 0.0160663 0.0175405 0.0190395 0.020563 0.0221113 0.0236526 0.0251551 0.0266189 0.028044 0.0294304 0.0307781 0.0320871 0.0333574 0.0345726 0.0357167 0.0367895 0.037791 0.0387213 0.0395804 0.0403682 0.0410848 0.0417276 0.0422939 0.0427838 0.0431972 0.0435343 0.0437949 0.0439791 0.0440869 0.0441249 0.0440999 0.0440119 0.0438609 0.0436468 0.0433697 0.0430295 0.0426263 0.0421711 0.0416749 0.0411377 0.0405594 0.0399401 0.0392798 0.0385785 0.0378361 0.0370639 0.0362728 0.0354631 0.0346345 0.0337872 0.0329211 0.0320363 0.0311327 0.030219 0.0293041 0.028388 0.0274706 0.0265519 0.0256319 0.0247107 0.0237882 0.0228702 0.0219623 0.0210646 0.020177 0.0192996 0.0184324 0.0175753 0.0167284 0.0158949 0.0150784 0.0142787 0.0134959 0.01273 0.0119809 0.0112488 0.0105335 0.00983738 0.00916286 0.00850991 0.00787851 0.00726868 0.00668041 0.00611371 0.00556856 0.00504737 0.00455253 0.00408404 0.0036419 0.00322611 0.00283667 0.00247358 0.00213684 0.00182691 0.00154426 0.0012889 0.00106081 0.00086001 0.000686487 0.000540245 0.000421283 0.000322545 0.000236972 0.000164564 0.000105321 5.9243e-05 2.63302e-05 6.58255e-06 0 0 4.61442e-05 0.000184577 0.000415298 0.000738308 0.00115361 0.00166119 0.00226107 0.00295323 0.00374544 0.00464546 0.00565329 0.00676892 0.00799236 0.00932361 0.0107627 0.0123095 0.0139244 0.0155676 0.017239 0.0189387 0.0206666 0.0224228 0.0242073 0.02602 0.0278243 0.0295834 0.0312972 0.0329658 0.0345892 0.0361674 0.0377004 0.0391882 0.0406118 0.0419522 0.0432094 0.0443834 0.0454743 0.046482 0.0474065 0.0482478 0.0490029 0.0496685 0.0502448 0.0507317 0.0511292 0.0514373 0.051656 0.0517853 0.051833 0.0518068 0.0517067 0.0515327 0.0512847 0.0509629 0.0505672 0.0500977 0.049567 0.0489881 0.0483609 0.0476855 0.0469619 0.04619 0.0453698 0.0445014 0.0435978 0.0426719 0.0417239 0.0407536 0.0397611 0.0387464 0.0377094 0.0366503 0.0355792 0.0345064 0.0334319 0.0323558 0.031278 0.0301986 0.0291174 0.0280346 0.0269569 0.0258909 0.0248367 0.0237943 0.0227637 0.0217449 0.0207379 0.0197426 0.0187632 0.0178034 0.0168634 0.0159432 0.0150426 0.0141618 0.0133007 0.0124594 0.0116405 0.0108469 0.0100785 0.00933532 0.00861737 0.00792465 0.00725715 0.00661489 0.0060006 0.00541705 0.00486422 0.00434213 0.00385076 0.00339013 0.00296023 0.00256106 0.00219323 0.00185735 0.00155341 0.00128142 0.00104138 0.000833278 0.000657127 0.000512923 0.000392707 0.000288519 0.00020036 0.000128231 7.21298e-05 3.20577e-05 8.01442e-06 0 0 5.42309e-05 0.000216923 0.000488078 0.000867694 0.00135577 0.00195231 0.00265731 0.00347078 0.00440034 0.00545363 0.00663066 0.00793142 0.00935591 0.0109041 0.0125761 0.0143718 0.0162453 0.0181509 0.0200884 0.0220579 0.0240594 0.0260929 0.0281584 0.0302559 0.0323432 0.0343784 0.0363614 0.0382922 0.0401709 0.0419973 0.0437716 0.0454936 0.0471416 0.0486936 0.0501496 0.0515097 0.0527738 0.0539419 0.055014 0.0559901 0.0568666 0.0576398 0.0583096 0.0588761 0.0593393 0.0596991 0.0599556 0.0601088 0.0601675 0.0601406 0.060028 0.0598299 0.0595462 0.0591768 0.0587218 0.0581812 0.0575698 0.0569023 0.0561787 0.0553991 0.0545634 0.0536716 0.0527237 0.0517198 0.0506748 0.0496039 0.0485069 0.047384 0.0462351 0.0450602 0.0438593 0.0426325 0.0413915 0.0401484 0.0389032 0.0376558 0.0364062 0.0351545 0.0339007 0.0326447 0.0313943 0.0301575 0.0289342 0.0277245 0.0265283 0.0253456 0.0241764 0.0230207 0.0218832 0.0207686 0.0196767 0.0186076 0.0175614 0.0165379 0.0155372 0.0145594 0.0136075 0.0126848 0.0117913 0.010927 0.0100918 0.00928579 0.00850896 0.00776129 0.00704592 0.00636597 0.00572145 0.00511235 0.00453867 0.00400042 0.00349759 0.00303018 0.00259897 0.00220473 0.00184746 0.00152717 0.00124384 0.000997491 0.00078811 0.000615699 0.000471395 0.000346331 0.000240507 0.000153925 8.65827e-05 3.84812e-05 9.6203e-06 0 0 6.30374e-05 0.000252149 0.000567336 0.0010086 0.00157593 0.00226935 0.00308883 0.00403439 0.0051133 0.00633283 0.00769297 0.00919374 0.0108351 0.0126171 0.0145398 0.016603 0.0187545 0.0209418 0.023165 0.0254241 0.027719 0.0300497 0.0324163 0.0348188 0.0372094 0.0395403 0.0418116 0.0440233 0.0461754 0.0482678 0.0503005 0.0522737 0.0541622 0.055941 0.0576103 0.0591698 0.0606198 0.06196 0.0631907 0.0643117 0.0653188 0.0662076 0.0669781 0.0676304 0.0681645 0.0685803 0.0688779 0.0690573 0.0691284 0.0691013 0.0689761 0.0687527 0.068431 0.0680113 0.0674933 0.0668771 0.0661796 0.0654176 0.0645912 0.0637002 0.0627447 0.0617247 0.0606402 0.0594913 0.058295 0.0570687 0.0558123 0.0545258 0.0532093 0.0518627 0.050486 0.0490792 0.0476561 0.0462303 0.0448017 0.0433705 0.0419365 0.0404998 0.0390605 0.0376184 0.0361826 0.0347622 0.0333572 0.0319676 0.0305933 0.0292344 0.0278908 0.0265626 0.0252551 0.0239738 0.0227185 0.0214893 0.0202862 0.0191092 0.0179583 0.0168335 0.0157384 0.0146767 0.0136484 0.0126535 0.011692 0.0107638 0.00986911 0.00900776 0.00818332 0.00739931 0.00665572 0.00595256 0.00528983 0.00466752 0.00408564 0.00354419 0.00304412 0.00258642 0.00217106 0.00179806 0.00146742 0.00117913 0.000933193 0.000729612 0.000558609 0.000410407 0.000285005 0.000182403 0.000102602 4.56008e-05 1.14002e-05 0 0 7.25638e-05 0.000290255 0.000653074 0.00116102 0.00181409 0.0026123 0.00355562 0.00464408 0.00588433 0.00728305 0.00884024 0.0105559 0.01243 0.0144626 0.0166536 0.0190031 0.0214518 0.0239404 0.0264688 0.0290371 0.0316452 0.0342932 0.0369811 0.0397088 0.0424227 0.045069 0.0476478 0.050159 0.0526027 0.0549788 0.0572873 0.0595283 0.0616735 0.0636944 0.0655912 0.0673638 0.0690123 0.0705365 0.0719366 0.0732125 0.0743593 0.0753719 0.0762504 0.0769947 0.077605 0.078081 0.078423 0.0786308 0.0787157 0.078689 0.0785508 0.0783009 0.0779394 0.0774663 0.0768816 0.0761853 0.0753964 0.0745341 0.0735982 0.0725887 0.0715058 0.0703493 0.0691193 0.0678158 0.0664583 0.0650663 0.0636399 0.0621789 0.0606836 0.0591537 0.0575894 0.0559906 0.0543729 0.0527519 0.0511275 0.0494998 0.0478688 0.0462345 0.0445968 0.0429558 0.0413217 0.039705 0.0381056 0.0365235 0.0349588 0.0334113 0.0318811 0.0303683 0.0288789 0.027419 0.0259888 0.0245882 0.0232172 0.0218757 0.0205639 0.0192816 0.0180331 0.0168225 0.0156497 0.0145149 0.0134179 0.0123588 0.0113376 0.0103543 0.00941282 0.00851706 0.00766705 0.00686277 0.00610424 0.00539145 0.0047244 0.00410309 0.00352869 0.0030024 0.0025242 0.0020941 0.00171209 0.00137819 0.00109238 0.000854662 0.000654351 0.000480747 0.000333852 0.000213666 0.000120187 5.34164e-05 1.33541e-05 0 0 8.26101e-05 0.000330441 0.000743491 0.00132176 0.00206525 0.00297396 0.0040479 0.00528705 0.00669729 0.00828449 0.0100486 0.0119897 0.0141078 0.0164028 0.0188748 0.0215238 0.0242831 0.0270864 0.0299336 0.0328247 0.0357597 0.0387387 0.0417615 0.0448282 0.047879 0.050854 0.0537532 0.0565766 0.0593241 0.0619959 0.0645918 0.067112 0.0695245 0.0717979 0.0739319 0.0759267 0.0777822 0.0794985 0.0810755 0.0825132 0.0838059 0.084948 0.0859395 0.0867802 0.0874703 0.0880097 0.0883985 0.0886366 0.0887366 0.0887109 0.0885597 0.0882829 0.0878804 0.0873524 0.0866988 0.0859196 0.0850361 0.0840696 0.0830202 0.0818878 0.0806724 0.0793741 0.0779928 0.0765286 0.0750033 0.0734389 0.0718354 0.0701928 0.0685111 0.0667903 0.0650304 0.0632314 0.0614109 0.0595863 0.0577577 0.055925 0.0540884 0.0522477 0.050403 0.0485543 0.0467132 0.0448914 0.043089 0.0413058 0.039542 0.0377975 0.0360722 0.0343663 0.0326867 0.0310402 0.029427 0.0278471 0.0263003 0.0247868 0.0233065 0.0218595 0.0204503 0.0190837 0.0177596 0.0164781 0.0152392 0.0140428 0.0128889 0.0117777 0.0107133 0.00970017 0.0087383 0.00782767 0.0069683 0.00616017 0.0054033 0.00469767 0.00404472 0.00344586 0.00290111 0.00241046 0.0019739 0.00159144 0.00126309 0.000988831 0.000757073 0.000556217 0.000386262 0.000247208 0.000139054 6.18019e-05 1.54505e-05 0 0 9.29766e-05 0.000371906 0.00083679 0.00148763 0.00232442 0.00334716 0.00455585 0.0059505 0.00753602 0.00931731 0.0112944 0.0134672 0.0158358 0.0184002 0.0211604 0.0241163 0.0271941 0.0303198 0.0334933 0.0367148 0.0399841 0.0433013 0.0466664 0.0500794 0.0534743 0.0567848 0.0600111 0.0631532 0.066211 0.0691845 0.0720738 0.0748788 0.0775644 0.0800954 0.0824718 0.0846935 0.0867606 0.0886731 0.090431 0.0920342 0.0934764 0.0947512 0.0958584 0.0967981 0.0975703 0.0981751 0.0986123 0.098882 0.0989981 0.0989743 0.0988106 0.098507 0.0980635 0.0974801 0.0967569 0.0958937 0.0949143 0.0938423 0.0926776 0.0914203 0.0900704 0.0886278 0.0870925 0.0854646 0.0837685 0.0820285 0.0802446 0.0784168 0.0765451 0.0746295 0.07267 0.0706667 0.068639 0.0666066 0.0645693 0.0625273 0.0604805 0.0584289 0.0563726 0.0543114 0.0522586 0.050227 0.0482168 0.0462279 0.0442603 0.042314 0.040389 0.0384854 0.0366108 0.0347732 0.0329725 0.0312087 0.0294818 0.0277918 0.0261388 0.0245226 0.0229486 0.0214218 0.0199424 0.0185102 0.0171254 0.0157878 0.0144975 0.0132546 0.0120637 0.0109296 0.00985234 0.00883195 0.00786838 0.00696166 0.00611177 0.00531872 0.00458422 0.00390999 0.00329601 0.00274231 0.00224886 0.00181568 0.00144276 0.0011301 0.000865232 0.000635681 0.000441445 0.000282525 0.00015892 7.06312e-05 1.76578e-05 0 0 0.000103663 0.000414653 0.000932969 0.00165861 0.00259158 0.00373188 0.0050795 0.00663445 0.00840052 0.0103815 0.0125774 0.0149883 0.017614 0.0204547 0.0235103 0.0267809 0.0301847 0.0336404 0.0371479 0.0407072 0.0443183 0.0479812 0.0516959 0.0554624 0.0592083 0.0628614 0.0664216 0.0698888 0.0732632 0.0765447 0.0797333 0.082829 0.0857931 0.0885871 0.0912107 0.0936642 0.0959474 0.0980604 0.100003 0.101776 0.103371 0.104781 0.106007 0.107048 0.107905 0.108577 0.109064 0.109367 0.1095 0.109479 0.109303 0.108973 0.108489 0.107849 0.107056 0.106108 0.105031 0.103852 0.102571 0.101186 0.0996996 0.0981103 0.0964185 0.0946241 0.092754 0.0908351 0.0888673 0.0868508 0.0847854 0.0826712 0.0805082 0.0782964 0.0760573 0.0738127 0.0715624 0.0693066 0.0670451 0.0647781 0.0625054 0.0602272 0.0579578 0.0557118 0.053489 0.0512896 0.0491136 0.0469609 0.0448315 0.0427254 0.0406513 0.0386179 0.0366252 0.0346731 0.0327616 0.0308908 0.0290606 0.0272711 0.025528 0.023837 0.0221981 0.0206113 0.0190765 0.0175939 0.0161634 0.014785 0.0134639 0.0122053 0.0110092 0.0098756 0.0088045 0.00779592 0.00684983 0.00596625 0.00514722 0.00439477 0.00370892 0.00308965 0.00253697 0.00205088 0.00163138 0.00127847 0.000978827 0.000719138 0.000499402 0.000319617 0.000179785 7.99043e-05 1.99761e-05 0 0 0.00011467 0.00045868 0.00103203 0.00183472 0.00286675 0.00412812 0.00561883 0.00733888 0.0092908 0.0114771 0.0138978 0.0165529 0.0194424 0.0225663 0.0259246 0.0295173 0.0332551 0.0370484 0.0408974 0.0448021 0.0487624 0.0527783 0.0568499 0.0609771 0.0650813 0.0690838 0.0729845 0.0767835 0.0804808 0.0840764 0.0875703 0.0909624 0.0942107 0.0972728 0.100149 0.102839 0.105343 0.10766 0.109792 0.111738 0.113489 0.115038 0.116386 0.117531 0.118474 0.119216 0.119755 0.120092 0.120243 0.120225 0.120038 0.119681 0.119155 0.11846 0.117596 0.116562 0.115387 0.114099 0.112699 0.111186 0.10956 0.107822 0.105971 0.104007 0.10196 0.0998587 0.0977038 0.0954949 0.0932322 0.0909155 0.0885449 0.0861205 0.0836658 0.0812046 0.078737 0.0762629 0.0737823 0.0712952 0.0688016 0.0663015 0.0638109 0.0613456 0.0589057 0.0564912 0.054102 0.0517381 0.0493996 0.0470865 0.0448082 0.0425744 0.0403851 0.0382402 0.0361397 0.0340837 0.0320721 0.030105 0.0281886 0.0263291 0.0245267 0.0227812 0.0210927 0.0194611 0.0178866 0.016369 0.014914 0.0135273 0.0122088 0.0109586 0.00977665 0.00866294 0.00761747 0.00664025 0.00573369 0.00490021 0.00413981 0.00345248 0.00283823 0.00229706 0.00182896 0.00143394 0.00109786 0.00080659 0.000560132 0.000358484 0.000201647 8.96211e-05 2.24053e-05 0 0 0.000125997 0.000503987 0.00113397 0.00201595 0.00314992 0.00453589 0.00617384 0.0080638 0.0102068 0.0126041 0.0152555 0.0181612 0.021321 0.0247351 0.0284034 0.0323258 0.0364051 0.0405438 0.0447418 0.0489994 0.0533163 0.0576926 0.0621284 0.0666236 0.0710931 0.0754519 0.0796999 0.0838372 0.0878638 0.0917797 0.0955848 0.0992791 0.102817 0.106153 0.109286 0.112217 0.114946 0.117473 0.119798 0.12192 0.123831 0.125523 0.126994 0.128246 0.129278 0.130091 0.130683 0.131056 0.131227 0.131213 0.131015 0.130632 0.130064 0.129313 0.128376 0.127256 0.125981 0.124583 0.123063 0.121419 0.119652 0.117762 0.115749 0.113613 0.111386 0.109099 0.106754 0.104349 0.101885 0.0993623 0.0967802 0.094139 0.0914644 0.0887825 0.0860931 0.0833962 0.0806919 0.0779802 0.0752611 0.0725345 0.0698179 0.0671287 0.0644669 0.0618324 0.0592254 0.0566457 0.0540934 0.0515685 0.0490814 0.0466427 0.0442522 0.04191 0.0396161 0.0373705 0.0351732 0.0330241 0.0309302 0.0288982 0.0269281 0.02502 0.0231737 0.0213894 0.019667 0.0180065 0.016414 0.0148956 0.0134513 0.012081 0.0107848 0.00956272 0.00841469 0.00734072 0.00634366 0.00542632 0.0045887 0.00383081 0.00315265 0.00255421 0.0020355 0.00159651 0.00122233 0.000898035 0.000623636 0.000399127 0.000224509 9.97817e-05 2.49454e-05 0 0 0.000137644 0.000550575 0.00123879 0.0022023 0.00344109 0.00495518 0.00674455 0.0088092 0.0111487 0.0137625 0.0166506 0.0198131 0.0232499 0.026961 0.0309464 0.0352062 0.0396348 0.0441264 0.0486812 0.053299 0.0579801 0.0627242 0.0675314 0.0724018 0.0772438 0.0819658 0.0865679 0.09105 0.0954122 0.0996544 0.103777 0.107779 0.111612 0.115227 0.118622 0.1218 0.124758 0.127498 0.13002 0.132322 0.134397 0.136234 0.137833 0.139194 0.140317 0.141203 0.14185 0.14226 0.142451 0.142442 0.142233 0.141824 0.141215 0.140407 0.139398 0.138189 0.136814 0.135305 0.133662 0.131885 0.129975 0.127931 0.125754 0.123442 0.121032 0.118557 0.116017 0.113413 0.110745 0.108012 0.105214 0.102352 0.0994532 0.0965461 0.0936306 0.0907066 0.0877741 0.0848332 0.0818839 0.0789261 0.0759788 0.0730609 0.0701725 0.0673134 0.0644838 0.0616837 0.0589129 0.0561716 0.053471 0.0508227 0.0482265 0.0456826 0.0431908 0.0407512 0.0383638 0.0360286 0.033753 0.0315443 0.0294025 0.0273277 0.0253197 0.0233788 0.0215047 0.0196976 0.0179639 0.0163102 0.0147365 0.0132428 0.0118291 0.0104953 0.00924148 0.00806767 0.00697711 0.00597308 0.00505559 0.00