<?xml version="1.0"?> 
<VTKFile type="StructuredGrid" version="0.1"> 
<StructuredGrid WholeExtent="0 128 0 128 0 0"> 
<Piece Extent="0 128 0 128 0 0"> 
<PointData>
<DataArray type="Float32" Name="u" format="ascii" NumberOfComponents="1"> 
0 0 0 0 0 0 0 0 0 0 0 0 0 0 0 0 0 0 0 0 0 0 0 0 0 0 0 0 0 0 0 0 0 0 0 0 0 0 0 0 0 0 0 0 0 0 0 0 0 0 0 0 0 0 0 0 0 0 0 0 0 0 0 0 0 0 0 0 0 0 0 0 0 0 0 0 0 0 0 0 0 0 0 0 0 0 0 0 0 0 0 0 0 0 0 0 0 0 0 0 0 0 0 0 0 0 0 0 0 0 0 0 0 0 0 0 0 0 0 0 0 0 0 0 0 0 0 0 0 0 5.26565e-07 2.10626e-06 4.73908e-06 8.42504e-06 1.31641e-05 1.89563e-05 2.58017e-05 3.37001e-05 4.28081e-05 5.3282e-05 6.51217e-05 7.83273e-05 9.28987e-05 0.000108836 0.000126139 0.000144808 0.000164343 0.000184244 0.00020451 0.000225142 0.00024614 0.000267503 0.000289232 0.000311327 0.0003333 0.000354664 0.00037542 0.000395568 0.000415107 0.000434037 0.000452358 0.000470071 0.000486922 0.000502657 0.000517277 0.000530782 0.00054317 0.000554444 0.000564602 0.000573644 0.000581534 0.000588235 0.000593747 0.00059807 0.000601203 0.000603148 0.000603903 0.00060347 0.000601966 0.00059951 0.000596102 0.000591743 0.000586432 0.000580169 0.000572954 0.000564788 0.000555865 0.000546383 0.000536341 0.000525738 0.000514575 0.000502853 0.00049057 0.000477727 0.000464524 0.00045116 0.000437636 0.000423951 0.000410105 0.000396099 0.000381932 0.000367605 0.00035327 0.000339082 0.000325041 0.000311146 0.000297398 0.000283796 0.00027034 0.000257031 0.000243957 0.000231204 0.000218774 0.000206666 0.000194879 0.000183415 0.000172273 0.000161453 0.000150984 0.000140895 0.000131186 0.000121857 0.000112909 0.00010434 9.61517e-05 8.83433e-05 8.09073e-05 7.38362e-05 6.71299e-05 6.07884e-05 5.48117e-05 4.91998e-05 4.39528e-05 3.90706e-05 3.45298e-05 3.03069e-05 2.64019e-05 2.28149e-05 1.95459e-05 1.65948e-05 1.39616e-05 1.16464e-05 9.60131e-06 7.77855e-06 6.1781e-06 4.79998e-06 3.64418e-06 2.7107e-06 1.99955e-06 1.51071e-06 1.15664e-06 8.49774e-07 5.90121e-07 3.77677e-07 2.12443e-07 9.44193e-08 2.36048e-08 0 0 2.10626e-06 8.42504e-06 1.89563e-05 3.37001e-05 5.26565e-05 7.58253e-05 0.000103207 0.000134801 0.000171232 0.000213128 0.000260487 0.000313309 0.000371595 0.000435344 0.000504557 0.000579233 0.000657373 0.000736975 0.00081804 0.000900568 0.000984558 0.00107001 0.00115693 0.00124531 0.0013332 0.00141866 0.00150168 0.00158227 0.00166043 0.00173615 0.00180943 0.00188028 0.00194769 0.00201063 0.00206911 0.00212313 0.00217268 0.00221778 0.00225841 0.00229458 0.00232614 0.00235294 0.00237499 0.00239228 0.00240481 0.00241259 0.00241561 0.00241388 0.00240786 0.00239804 0.00238441 0.00236697 0.00234573 0.00232068 0.00229182 0.00225915 0.00222346 0.00218553 0.00214536 0.00210295 0.0020583 0.00201141 0.00196228 0.00191091 0.0018581 0.00180464 0.00175054 0.0016958 0.00164042 0.0015844 0.00152773 0.00147042 0.00141308 0.00135633 0.00130016 0.00124458 0.00118959 0.00113518 0.00108136 0.00102813 0.000975827 0.000924817 0.000875096 0.000826662 0.000779517 0.00073366 0.000689092 0.000645811 0.000603935 0.00056358 0.000524744 0.00048743 0.000451635 0.000417361 0.000384607 0.000353373 0.000323629 0.000295345 0.000268519 0.000243154 0.000219247 0.000196799 0.000175811 0.000156282 0.000138119 0.000121227 0.000105608 9.12597e-05 7.81835e-05 6.63791e-05 5.58464e-05 4.65856e-05 3.84052e-05 3.11142e-05 2.47124e-05 1.91999e-05 1.45767e-05 1.08428e-05 7.99819e-06 6.04284e-06 4.62655e-06 3.39909e-06 2.36048e-06 1.51071e-06 8.49774e-07 3.77677e-07 9.44193e-08 0 0 4.73908e-06 1.89563e-05 4.26517e-05 7.58253e-05 0.000118477 0.000170607 0.000232215 0.000303301 0.000385273 0.000479538 0.000586095 0.000704945 0.000836088 0.000979524 0.00113525 0.00130327 0.00147909 0.00165819 0.00184059 0.00202628 0.00221526 0.00240753 0.00260309 0.00280194 0.0029997 0.00319198 0.00337878 0.00356011 0.00373596 0.00390633 0.00407122 0.00423064 0.0043823 0.00452392 0.00465549 0.00477703 0.00488853 0.00498999 0.00508142 0.0051628 0.00523381 0.00529412 0.00534372 0.00538263 0.00541083 0.00542833 0.00543513 0.00543123 0.00541769 0.00539559 0.00536492 0.00532569 0.00527789 0.00522152 0.00515659 0.00508309 0.00500279 0.00491745 0.00482707 0.00473164 0.00463118 0.00452567 0.00441513 0.00429954 0.00418072 0.00406044 0.00393872 0.00381556 0.00369095 0.00356489 0.00343739 0.00330844 0.00317943 0.00305174 0.00292537 0.00280031 0.00267658 0.00255416 0.00243306 0.00231328 0.00219561 0.00208084 0.00196897 0.00185999 0.00175391 0.00165074 0.00155046 0.00145308 0.00135885 0.00126805 0.00118068 0.00109672 0.00101618 0.000939061 0.000865365 0.000795089 0.000728166 0.000664526 0.000604169 0.000547095 0.000493305 0.000442799 0.000395575 0.000351635 0.000310768 0.000272762 0.000237617 0.000205334 0.000175913 0.000149353 0.000125654 0.000104818 8.64118e-05 7.00069e-05 5.56029e-05 4.31999e-05 3.27977e-05 2.43963e-05 1.79959e-05 1.35964e-05 1.04097e-05 7.64796e-06 5.31109e-06 3.39909e-06 1.91199e-06 8.49774e-07 2.12443e-07 0 0 8.42504e-06 3.37001e-05 7.58253e-05 0.000134801 0.000210626 0.000303301 0.000412827 0.000539202 0.00068493 0.000852511 0.00104195 0.00125324 0.00148638 0.00174138 0.00201823 0.00231693 0.00262949 0.0029479 0.00327216 0.00360227 0.00393823 0.00428005 0.00462771 0.00498123 0.0053328 0.00567463 0.00600673 0.00632908 0.0066417 0.00694459 0.00723773 0.00752114 0.00779075 0.00804252 0.00827643 0.0084925 0.00869073 0.0088711 0.00903363 0.00917831 0.00930455 0.00941176 0.00949995 0.00956912 0.00961926 0.00965037 0.00966246 0.00965552 0.00963145 0.00959216 0.00953764 0.00946789 0.00938291 0.0092827 0.00916727 0.0090366 0.00889385 0.00874213 0.00858145 0.00841181 0.00823321 0.00804564 0.00784912 0.00764363 0.00743238 0.00721856 0.00700217 0.00678321 0.00656168 0.00633758 0.00611091 0.00588168 0.00565233 0.00542532 0.00520066 0.00497834 0.00475836 0.00454073 0.00432545 0.0041125 0.00390331 0.00369927 0.00350038 0.00330665 0.00311807 0.00293464 0.00275637 0.00258325 0.00241574 0.00225432 0.00209898 0.00194972 0.00180654 0.00166944 0.00153843 0.00141349 0.00129452 0.00118138 0.00107408 0.000972614 0.000876987 0.000787198 0.000703245 0.00062513 0.000552476 0.00048491 0.000422431 0.000365039 0.000312734 0.000265516 0.000223386 0.000186342 0.000153621 0.000124457 9.88497e-05 7.67997e-05 5.83069e-05 4.33713e-05 3.19927e-05 2.41713e-05 1.85062e-05 1.35964e-05 9.44193e-06 6.04284e-06 3.39909e-06 1.51071e-06 3.77677e-07 0 0 1.31641e-05 5.26565e-05 0.000118477 0.000210626 0.000329103 0.000473908 0.000645042 0.000842504 0.0010702 0.00133205 0.00162804 0.00195818 0.00232247 0.0027209 0.00315348 0.00362021 0.00410858 0.00460609 0.00511275 0.00562855 0.00615349 0.00668757 0.0072308 0.00778316 0.0083325 0.00886661 0.00938551 0.0098892 0.0103777 0.0108509 0.011309 0.0117518 0.012173 0.0125664 0.0129319 0.0132695 0.0135793 0.0138611 0.014115 0.0143411 0.0145384 0.0147059 0.0148437 0.0149517 0.0150301 0.0150787 0.0150976 0.0150867 0.0150491 0.0149877 0.0149026 0.0147936 0.0146608 0.0145042 0.0143239 0.0141197 0.0138966 0.0136596 0.0134085 0.0131435 0.0128644 0.0125713 0.0122642 0.0119432 0.0116131 0.011279 0.0109409 0.0105988 0.0102526 0.00990247 0.0095483 0.00919012 0.00883176 0.00847706 0.00812602 0.00777865 0.00743494 0.00709489 0.00675851 0.00642579 0.00609892 0.00578011 0.00546935 0.00516664 0.00487198 0.00458538 0.00430682 0.00403632 0.0037746 0.00352237 0.00327965 0.00304643 0.00282272 0.0026085 0.00240379 0.00220858 0.00202268 0.0018459 0.00167825 0.00151971 0.00137029 0.00123 0.00109882 0.000976765 0.000863244 0.000757672 0.000660048 0.000570373 0.000488647 0.000414869 0.00034904 0.00029116 0.000240033 0.000194464 0.000154453 0.00012 9.11046e-05 6.77676e-05 4.99887e-05 3.77677e-05 2.89159e-05 2.12443e-05 1.4753e-05 9.44193e-06 5.31109e-06 2.36048e-06 5.90121e-07 0 0 1.89563e-05 7.58253e-05 0.000170607 0.000303301 0.000473908 0.000682428 0.00092886 0.00121321 0.00154109 0.00191815 0.00234438 0.00281978 0.00334435 0.0039181 0.00454101 0.0052131 0.00591635 0.00663277 0.00736236 0.00810511 0.00886102 0.0096301 0.0104123 0.0112078 0.0119988 0.0127679 0.0135151 0.0142404 0.0149438 0.0156253 0.0162849 0.0169226 0.0175292 0.0180957 0.018622 0.0191081 0.0195541 0.01996 0.0203257 0.0206512 0.0209352 0.0211765 0.0213749 0.0215305 0.0216433 0.0217133 0.0217405 0.0217249 0.0216708 0.0215824 0.0214597 0.0213027 0.0211115 0.0208861 0.0206263 0.0203324 0.0200112 0.0196698 0.0193083 0.0189266 0.0185247 0.0181027 0.0176605 0.0171982 0.0167229 0.0162418 0.0157549 0.0152622 0.0147638 0.0142596 0.0137496 0.0132338 0.0127177 0.012207 0.0117015 0.0112013 0.0107063 0.0102166 0.00973225 0.00925313 0.00878245 0.00832336 0.00787586 0.00743996 0.00701565 0.00660294 0.00620182 0.0058123 0.00543542 0.00507222 0.0047227 0.00438687 0.00406471 0.00375625 0.00346146 0.00318036 0.00291266 0.0026581 0.00241668 0.00218838 0.00197322 0.00177119 0.0015823 0.00140654 0.00124307 0.00109105 0.000950469 0.000821337 0.000703652 0.000597412 0.000502618 0.00041927 0.000345647 0.000280028 0.000222412 0.000172799 0.000131191 9.75854e-05 7.19837e-05 5.43855e-05 4.16389e-05 3.05919e-05 2.12443e-05 1.35964e-05 7.64796e-06 3.39909e-06 8.49774e-07 0 0 2.58017e-05 0.000103207 0.000232215 0.000412827 0.000645042 0.00092886 0.00126428 0.00165131 0.0020976 0.00261082 0.00319096 0.00383804 0.00455204 0.00533297 0.00618082 0.00709561 0.00805282 0.00902794 0.010021 0.011032 0.0120608 0.0131076 0.0141724 0.015255 0.0163317 0.0173786 0.0183956 0.0193828 0.0203402 0.0212678 0.0221656 0.0230335 0.0238592 0.0246302 0.0253466 0.0260083 0.0266153 0.0271677 0.0276655 0.0281086 0.0284952 0.0288235 0.0290936 0.0293054 0.029459 0.0295543 0.0295913 0.02957 0.0294963 0.029376 0.029209 0.0289954 0.0287352 0.0284283 0.0280748 0.0276746 0.0272374 0.0267728 0.0262807 0.0257612 0.0252142 0.0246398 0.0240379 0.0234086 0.0227617 0.0221068 0.0214442 0.0207736 0.0200952 0.0194089 0.0187147 0.0180126 0.0173102 0.016615 0.015927 0.0152462 0.0145725 0.013906 0.0132467 0.0125945 0.0119539 0.011329 0.0107199 0.0101266 0.00954908 0.00898734 0.00844137 0.00791119 0.00739821 0.00690385 0.00642812 0.00597101 0.00553253 0.00511267 0.00471143 0.00432882 0.00396446 0.00361797 0.00328936 0.00297863 0.00268577 0.00241079 0.00215369 0.00191446 0.00169196 0.00148504 0.00129369 0.00111793 0.000957748 0.000813144 0.000684119 0.000570673 0.000470464 0.000381149 0.000302727 0.000235199 0.000178565 0.000132825 9.79778e-05 7.40247e-05 5.66752e-05 4.16389e-05 2.89159e-05 1.85062e-05 1.04097e-05 4.62655e-06 1.15664e-06 0 0 3.37001e-05 0.000134801 0.000303301 0.000539202 0.000842504 0.00121321 0.00165131 0.00215681 0.00273972 0.00341005 0.00416779 0.00501294 0.00594552 0.00696551 0.00807291 0.00926773 0.010518 0.0117916 0.0130886 0.0144091 0.0157529 0.0171202 0.0185108 0.0199249 0.0213312 0.0226985 0.0240269 0.0253163 0.0265668 0.0277783 0.0289509 0.0300846 0.031163 0.0321701 0.0331057 0.03397 0.0347629 0.0354844 0.0361345 0.0367132 0.0372182 0.0376471 0.0379998 0.0382765 0.038477 0.0386015 0.0386498 0.0386221 0.0385258 0.0383686 0.0381505 0.0378715 0.0375316 0.0371308 0.0366691 0.0361464 0.0355754 0.0349685 0.0343258 0.0336472 0.0329328 0.0321826 0.0313965 0.0305745 0.0297295 0.0288742 0.0280087 0.0271328 0.0262467 0.0253503 0.0244437 0.0235267 0.0226093 0.0217013 0.0208026 0.0199133 0.0190334 0.0181629 0.0173018 0.01645 0.0156132 0.0147971 0.0140015 0.0132266 0.0124723 0.0117386 0.0110255 0.010333 0.00966297 0.00901728 0.00839591 0.00779887 0.00722616 0.00667777 0.00615371 0.00565397 0.00517807 0.00472552 0.00429631 0.00389046 0.00350795 0.00314879 0.00281298 0.00250052 0.0022099 0.00193964 0.00168972 0.00146016 0.00125094 0.00106207 0.000893543 0.000745369 0.000614484 0.000497827 0.000395399 0.000307199 0.000233228 0.000173485 0.000127971 9.66854e-05 7.40247e-05 5.43855e-05 3.77677e-05 2.41713e-05 1.35964e-05 6.04284e-06 1.51071e-06 0 0 4.28667e-05 0.000171467 0.0003858 0.000685867 0.00107167 0.0015432 0.00210047 0.00274347 0.00348447 0.00433573 0.00529726 0.00636905 0.0075511 0.00884341 0.010246 0.0117588 0.0133415 0.0149535 0.016595 0.0182658 0.019966 0.0216956 0.0234545 0.0252429 0.0270213 0.0287505 0.0304304 0.0320611 0.0336426 0.0351748 0.0366578 0.0380916 0.0394556 0.0407295 0.0419131 0.0430064 0.0440096 0.0449226 0.0457453 0.0464778 0.0471171 0.0476602 0.0481071 0.0484578 0.0487123 0.0488705 0.0489325 0.0488984 0.0487776 0.0485797 0.0483048 0.0479528 0.0475237 0.0470176 0.0464344 0.0457742 0.0450528 0.0442859 0.0434737 0.042616 0.041713 0.0407645 0.0397707 0.0387314 0.0376629 0.0365814 0.0354867 0.034379 0.0332581 0.0321242 0.0309773 0.0298172 0.0286565 0.0275076 0.0263704 0.0252451 0.0241315 0.0230298 0.0219398 0.0208616 0.0198023 0.0187691 0.0177619 0.0167807 0.0158255 0.0148964 0.0139933 0.0131162 0.0122675 0.0114496 0.0106624 0.00990596 0.00918029 0.00848537 0.0078212 0.00718778 0.0065845 0.00601076 0.00546654 0.00495186 0.0044667 0.00401108 0.00358498 0.00318842 0.00281948 0.00247628 0.0021588 0.00186706 0.00160105 0.00136076 0.00114621 0.000957386 0.000790444 0.000641536 0.000510661 0.000397818 0.000303008 0.000226232 0.000167488 0.000126777 9.70638e-05 7.13122e-05 4.95224e-05 3.16943e-05 1.78281e-05 7.92358e-06 1.98089e-06 0 0 5.35163e-05 0.000214065 0.000481647 0.000856262 0.00133791 0.00192659 0.0026223 0.00342505 0.00434886 0.00540776 0.00660177 0.00793087 0.00939508 0.0109944 0.0127288 0.0145983 0.0165531 0.0185436 0.0205697 0.0226314 0.0247287 0.0268616 0.0290302 0.0312344 0.033426 0.0355571 0.0376275 0.0396373 0.0415866 0.0434751 0.0453031 0.0470705 0.048752 0.0503226 0.0517822 0.0531307 0.0543683 0.0554949 0.0565105 0.0574151 0.0582049 0.0588763 0.0594292 0.0598636 0.0601795 0.0603769 0.0604558 0.0604162 0.0602699 0.0600285 0.0596921 0.0592607 0.0587342 0.0581126 0.0573961 0.0565844 0.0556972 0.0547539 0.0537544 0.0526988 0.051587 0.0504191 0.049195 0.0479148 0.0465984 0.0452656 0.0439164 0.0425509 0.041169 0.0397708 0.0383563 0.0369253 0.0354934 0.0340758 0.0326726 0.0312837 0.0299091 0.0285489 0.027203 0.0258714 0.024563 0.0232866 0.0220421 0.0208296 0.0196491 0.0185005 0.0173839 0.0162993 0.0152496 0.0142378 0.0132639 0.0123278 0.0114296 0.0105693 0.00974681 0.00896223 0.00821478 0.00750373 0.00682908 0.00619084 0.00558899 0.00502355 0.0044945 0.00400186 0.00354326 0.00311637 0.00272118 0.00235769 0.00202591 0.00172582 0.00145743 0.00122075 0.00101108 0.00082375 0.000658747 0.000516076 0.000395736 0.000297729 0.000222054 0.00016871 0.000129169 9.48995e-05 6.59025e-05 4.21776e-05 2.37249e-05 1.05444e-05 2.6361e-06 0 0 6.5649e-05 0.000262596 0.000590841 0.00105038 0.00164123 0.00236337 0.0032168 0.00420154 0.00533288 0.00662615 0.00808133 0.00969843 0.0114775 0.0134184 0.0155213 0.017786 0.0201528 0.0225617 0.0250127 0.0275058 0.0300411 0.0326184 0.0352378 0.0378993 0.0405454 0.0431183 0.0456182 0.048045 0.0503987 0.0526793 0.0548868 0.0570212 0.0590522 0.0609495 0.062713 0.0643429 0.065839 0.0672014 0.06843 0.069525 0.0704816 0.0712952 0.071966 0.0724938 0.0728786 0.0731206 0.0732196 0.0731757 0.0730028 0.0727152 0.0723126 0.0717952 0.071163 0.0704159 0.0695539 0.0685771 0.0675088 0.0663724 0.065168 0.0638955 0.0625549 0.0611462 0.0596695 0.0581247 0.0565358 0.0549269 0.0532978 0.0516486 0.0499794 0.0482901 0.0465806 0.0448511 0.0431201 0.0414061 0.0397091 0.0380291 0.0363661 0.0347202 0.0330913 0.0314794 0.0298952 0.0283495 0.0268422 0.0253734 0.023943 0.022551 0.0211975 0.0198824 0.0186094 0.017382 0.0162004 0.0150644 0.0139741 0.0129295 0.0119305 0.0109773 0.0100689 0.00920443 0.00838393 0.00760739 0.00687481 0.00618619 0.00554154 0.00494084 0.00438125 0.00385992 0.00337686 0.00293206 0.00252552 0.00215724 0.00182722 0.00153546 0.0012764 0.00104447 0.000839657 0.000661972 0.000511412 0.000387977 0.000291668 0.000222484 0.00017034 0.000125148 8.6908e-05 5.56211e-05 3.12869e-05 1.39053e-05 3.47632e-06 0 0 7.92648e-05 0.000317059 0.000713383 0.00126824 0.00198162 0.00285353 0.00388398 0.00507295 0.00643655 0.00799088 0.00973593 0.0116717 0.0137982 0.0161155 0.0186234 0.0213221 0.0241406 0.0270079 0.0299241 0.0328892 0.0359031 0.0389658 0.0420774 0.0452378 0.0483794 0.0514342 0.0544025 0.057284 0.0600789 0.0627872 0.0654088 0.0679437 0.0703561 0.0726101 0.0747057 0.0766428 0.0784216 0.080042 0.0815039 0.0828074 0.083947 0.084917 0.0857175 0.0863484 0.0868098 0.0871016 0.0872239 0.0871767 0.0869764 0.0866396 0.0861663 0.0855564 0.0848101 0.0839273 0.0829079 0.0817521 0.0804874 0.0791415 0.0777144 0.0762061 0.0746166 0.072946 0.0711941 0.0693611 0.0674753 0.0655652 0.0636309 0.0616722 0.0596892 0.057682 0.0556504 0.0535946 0.0515365 0.0494982 0.0474799 0.0454813 0.0435026 0.0415438 0.0396047 0.0376856 0.035799 0.033958 0.0321623 0.030412 0.0287072 0.0270479 0.0254339 0.0238654 0.0223467 0.0208822 0.0194718 0.0181157 0.0168138 0.015566 0.0143724 0.013233 0.0121468 0.0111129 0.0101311 0.00920152 0.00832417 0.00749902 0.00672609 0.00600536 0.00533344 0.00470693 0.00412583 0.00359015 0.00309988 0.00265502 0.00225557 0.00190153 0.0015864 0.00130369 0.00105339 0.000835507 0.000650035 0.000496976 0.000376331 0.0002881 0.000220576 0.000162056 0.000112539 7.20249e-05 4.0514e-05 1.80062e-05 4.50156e-06 0 0 9.43636e-05 0.000377455 0.000849273 0.00150982 0.00235909 0.00339709 0.00462382 0.00603927 0.00765985 0.00950196 0.0115656 0.0138507 0.0163574 0.0190856 0.0220353 0.0252066 0.0285165 0.0318823 0.0353039 0.0387814 0.0423147 0.0459039 0.0495489 0.0532498 0.056928 0.0605048 0.0639803 0.0673545 0.0706273 0.0737989 0.0768691 0.079838 0.0826638 0.0853045 0.0877601 0.0900307 0.0921162 0.0940167 0.0957322 0.0972626 0.0986013 0.0997417 0.100684 0.101427 0.101973 0.10232 0.102469 0.102419 0.10219 0.101802 0.101253 0.100544 0.0996756 0.0986469 0.0974582 0.0961095 0.0946331 0.0930611 0.0913937 0.0896307 0.0877723 0.0858184 0.0837689 0.081624 0.0794168 0.0771807 0.0749156 0.0726216 0.0702985 0.0679465 0.0655656 0.0631556 0.0607426 0.0583524 0.055985 0.0536404 0.0513186 0.0490196 0.0467433 0.04449 0.0422744 0.0401119 0.0380022 0.0359456 0.0339418 0.031991 0.0300932 0.0282483 0.0264616 0.0247383 0.0230783 0.0214818 0.0199486 0.0184788 0.0170724 0.0157294 0.0144486 0.013229 0.0120706 0.0109732 0.00993706 0.00896203 0.00804815 0.00719542 0.00639983 0.00565739 0.00496811 0.00433197 0.00374899 0.00321915 0.00274247 0.00231894 0.00194108 0.00160142 0.00129995 0.00103668 0.000811605 0.000624726 0.000476043 0.000365556 0.000279879 0.000205625 0.000142795 9.1389e-05 5.14063e-05 2.28473e-05 5.71182e-06 0 0 0.000110946 0.000443782 0.00099851 0.00177513 0.00277364 0.00399404 0.00543633 0.00710051 0.0090028 0.0111594 0.0135703 0.0162355 0.019155 0.0223288 0.0257569 0.0294393 0.0332805 0.0371847 0.041152 0.0451825 0.049276 0.0534327 0.0576524 0.0619353 0.0661912 0.07033 0.0743517 0.0782564 0.0820439 0.0857144 0.0892679 0.0927042 0.0959752 0.0990326 0.101876 0.104506 0.106923 0.109126 0.111115 0.11289 0.114444 0.115769 0.116865 0.117731 0.118368 0.118776 0.118954 0.118903 0.118645 0.118202 0.117573 0.116759 0.11576 0.114575 0.113205 0.111649 0.109946 0.108131 0.106206 0.104169 0.102022 0.0997633 0.0973939 0.0949134 0.0923604 0.0897733 0.0871521 0.0844967 0.0818073 0.0790838 0.0763261 0.0735343 0.0707385 0.0679685 0.0652244 0.0625062 0.059814 0.0571476 0.0545071 0.0518925 0.0493214 0.0468112 0.0443621 0.0419739 0.0396467 0.0373806 0.0351754 0.0330312 0.0309541 0.0289503 0.0270198 0.0251626 0.0233786 0.0216679 0.0200305 0.0184664 0.0169742 0.0155529 0.0142023 0.0129225 0.0117135 0.0105752 0.00950773 0.00851102 0.00758042 0.00671131 0.00590368 0.00515752 0.00447285 0.00384965 0.00328794 0.0027877 0.00234044 0.00193765 0.00157933 0.00126549 0.000996123 0.000771227 0.000590804 0.000454854 0.000348247 0.000255855 0.000177677 0.000113713 6.39638e-05 2.84284e-05 7.10709e-06 0 0 0.00012901 0.000516042 0.00116109 0.00206417 0.00322526 0.00464438 0.00632151 0.00825667 0.0104654 0.0129632 0.01575 0.0188259 0.022191 0.025845 0.0297882 0.0340204 0.0384325 0.0429152 0.0474685 0.0520924 0.056787 0.0615521 0.0663879 0.0712943 0.076169 0.0809098 0.0855167 0.0899897 0.0943287 0.0985338 0.102605 0.106542 0.11029 0.113794 0.117054 0.12007 0.122841 0.125369 0.127652 0.129691 0.131476 0.133 0.13426 0.135259 0.135995 0.136469 0.13668 0.136629 0.136341 0.13584 0.135126 0.1342 0.133062 0.131711 0.130147 0.128372 0.126426 0.124352 0.122151 0.119822 0.117365 0.114781 0.112069 0.109229 0.106306 0.103343 0.10034 0.0972977 0.0942156 0.0910937 0.087932 0.0847307 0.0815241 0.0783466 0.0751982 0.072079 0.0689888 0.0659279 0.062896 0.0598933 0.0569399 0.0540561 0.0512418 0.0484971 0.045822 0.0432164 0.0406804 0.038214 0.0358242 0.0335184 0.0312963 0.0291581 0.0271038 0.0251334 0.0232468 0.021444 0.0197237 0.0180845 0.0165264 0.0150494 0.0136534 0.0123386 0.0111048 0.00995216 0.00887522 0.00786869 0.00693255 0.00606681 0.00527146 0.00454651 0.00389196 0.00330781 0.00278447 0.00231239 0.00189154 0.00152194 0.00120359 0.000936478 0.000720613 0.000555992 0.000425682 0.000312746 0.000217185 0.000138998 7.81864e-05 3.47495e-05 8.68738e-06 0 0 0.000148559 0.000594234 0.00133703 0.00237694 0.00371396 0.00534811 0.00727937 0.00950774 0.0120476 0.0149133 0.0181048 0.0216221 0.0254653 0.0296343 0.0341292 0.0389499 0.0439726 0.0490738 0.0542533 0.0595113 0.0648476 0.0702623 0.0757553 0.0813268 0.0868615 0.0922443 0.0974753 0.102554 0.107482 0.112257 0.11688 0.121352 0.125609 0.12959 0.133294 0.136721 0.139872 0.142746 0.145343 0.147664 0.149697 0.151433 0.152871 0.154011 0.154854 0.155399 0.155647 0.155596 0.155276 0.154715 0.153912 0.152868 0.151582 0.150055 0.148286 0.146276 0.144073 0.141723 0.139229 0.136588 0.133802 0.130871 0.127794 0.124572 0.121254 0.11789 0.11448 0.111025 0.107523 0.103976 0.100383 0.0967447 0.0930994 0.0894866 0.0859063 0.0823585 0.0788432 0.0753604 0.0719101 0.0684922 0.06513 0.0618464 0.0586415 0.0555152 0.0524676 0.0494986 0.0466083 0.0437967 0.0410719 0.0384423 0.0359078 0.0334685 0.0311242 0.0288751 0.0267211 0.0246623 0.022697 0.0208239 0.0190428 0.0173538 0.0157569 0.0142521 0.0128394 0.0115188 0.0102842 0.00912952 0.00805472 0.00705982 0.00614482 0.00530973 0.00455455 0.00387927 0.00327319 0.00272563 0.00223657 0.00180603 0.001434 0.00112048 0.000865471 0.000668972 0.000512182 0.000376297 0.000261317 0.000167243 9.40742e-05 4.18108e-05 1.04527e-05 0 0 0.000169192 0.000676768 0.00152273 0.00270707 0.0042298 0.00609091 0.00829041 0.0108283 0.0137173 0.0169703 0.0205873 0.0245682 0.028913 0.0336218 0.0386945 0.0441312 0.0497929 0.0555409 0.061375 0.0672954 0.0733019 0.0793946 0.0855735 0.0918386 0.0980615 0.104114 0.109995 0.115707 0.121247 0.126617 0.131816 0.136845 0.141633 0.146111 0.150278 0.154135 0.157681 0.160917 0.163842 0.166457 0.168749 0.170707 0.172331 0.17362 0.174575 0.175195 0.175481 0.175433 0.175082 0.174459 0.173564 0.172398 0.17096 0.16925 0.167268 0.165015 0.162544 0.159908 0.157109 0.154145 0.151016 0.147724 0.144267 0.140647 0.136917 0.133136 0.129302 0.125417 0.121478 0.117488 0.113446 0.109351 0.105248 0.101181 0.0971497 0.0931545 0.0891952 0.0852717 0.0813842 0.0775326 0.073743 0.0700415 0.066428 0.0629026 0.0594653 0.0561161 0.0528549 0.0496818 0.0466062 0.0436374 0.0407754 0.0380204 0.0353721 0.0328307 0.0303962 0.0280685 0.0258461 0.0237271 0.0217118 0.0197999 0.0179916 0.0162869 0.0146857 0.0131881 0.0117871 0.010476 0.00925464 0.0081231 0.00708137 0.00612944 0.00526732 0.00449501 0.00380067 0.00317249 0.00261047 0.0021146 0.00168489 0.00132133 0.00102393 0.00079268 0.000606895 0.000445882 0.00030964 0.00019817 0.000111471 4.95425e-05 1.23856e-05 0 0 0.000190514 0.000762055 0.00171462 0.00304822 0.00476284 0.00685849 0.00933517 0.0121929 0.0154425 0.0190949 0.0231501 0.0276081 0.0324689 0.0377325 0.0433989 0.049468 0.0557855 0.0621969 0.068702 0.0753011 0.0819939 0.0887807 0.0956612 0.102636 0.109562 0.116299 0.122845 0.129202 0.13537 0.141347 0.147134 0.152732 0.158062 0.163048 0.167688 0.171984 0.175934 0.17954 0.182801 0.185717 0.188275 0.19046 0.192274 0.193717 0.194787 0.195486 0.195813 0.195768 0.195386 0.194701 0.193714 0.192424 0.190832 0.188937 0.18674 0.18424 0.181497 0.17857 0.17546 0.172167 0.16869 0.16503 0.161187 0.15716 0.153011 0.148804 0.144538 0.140213 0.135829 0.131386 0.126884 0.122324 0.117753 0.113222 0.108729 0.104277 0.099863 0.0954886 0.0911535 0.0868577 0.0826304 0.0785006 0.0744684 0.0705339 0.0666969 0.0629576 0.0593159 0.0557718 0.0523358 0.0490187 0.0458203 0.0427407 0.0397799 0.0369379 0.0342147 0.0316102 0.0291228 0.0267506 0.0244936 0.0223518 0.0203252 0.0184139 0.0166178 0.014937 0.0133637 0.0118903 0.0105168 0.00924321 0.00806954 0.00699577 0.00602192 0.00514797 0.00436101 0.00364811 0.00300927 0.00244449 0.00195378 0.00153712 0.00119453 0.000926001 0.000708969 0.000520876 0.000361719 0.0002315 0.000130219 5.78751e-05 1.44688e-05 0 0 0.000212523 0.000850093 0.00191271 0.00340037 0.00531308 0.00765084 0.0104136 0.0136015 0.0172231 0.021287 0.0257933 0.030742 0.036133 0.0419664 0.0482422 0.0549604 0.0619504 0.0690417 0.0762344 0.0835284 0.0909238 0.0984204 0.106018 0.113718 0.121363 0.128799 0.136025 0.143042 0.149849 0.156447 0.162835 0.169013 0.174897 0.180401 0.185525 0.190269 0.194633 0.198617 0.202221 0.205445 0.208274 0.210693 0.212702 0.214301 0.215491 0.216271 0.21664 0.2166 0.216188 0.215442 0.214362 0.212948 0.211199 0.209117 0.206701 0.20395 0.200931 0.197709 0.194283 0.190655 0.186824 0.182789 0.178551 0.174111 0.169536 0.164894 0.160187 0.155414 0.150575 0.145671 0.1407 0.135663 0.130615 0.125609 0.120645 0.115725 0.110847 0.106011 0.101218 0.0964675 0.091792 0.0872237 0.0827627 0.078409 0.0741625 0.0700232 0.0659913 0.0620665 0.0582609 0.0545862 0.0510424 0.0476296 0.0443476 0.0411966 0.0381765 0.0352873 0.0325272 0.0298941 0.0273882 0.0250094 0.0227577 0.0206332 0.0186358 0.0167654 0.0150138 0.0133724 0.0118411 0.0104201 0.00910932 0.00790872 0.00681834 0.00583816 0.0049542 0.00415248 0.00343298 0.00279571 0.00224067 0.00176786 0.00137729 0.00106894 0.000818404 0.000601277 0.000417553 0.000267234 0.000150319 6.68085e-05 1.67021e-05 0 0 0.000235221 0.000940884 0.00211699 0.00376354 0.00588053 0.00846796 0.0115258 0.0150541 0.019059 0.0235466 0.0285168 0.0339697 0.0399053 0.0463236 0.0532245 0.0606082 0.0682875 0.0760754 0.0839721 0.0919774 0.100091 0.108314 0.116645 0.125085 0.133465 0.141614 0.149534 0.157225 0.164685 0.171916 0.178917 0.185689 0.192138 0.198171 0.203788 0.20899 0.213776 0.218146 0.222101 0.22564 0.228746 0.231404 0.233614 0.235374 0.236686 0.23755 0.237965 0.237931 0.237489 0.236682 0.235508 0.233968 0.232062 0.229789 0.227151 0.224146 0.220847 0.217324 0.213578 0.209609 0.205417 0.201001 0.196362 0.1915 0.18649 0.181407 0.17625 0.17102 0.165717 0.160341 0.154892 0.149369 0.143833 0.138342 0.132898 0.127499 0.122146 0.116839 0.111578 0.106362 0.101228 0.0962109 0.0913109 0.0865279 0.0818619 0.077313 0.0728811 0.0685662 0.0643814 0.06034 0.0564418 0.0526869 0.0490752 0.0456068 0.0422817 0.0390998 0.0360592 0.0331578 0.0303957 0.0277728 0.0252891 0.0229447 0.0207395 0.0186735 0.0167376 0.0149223 0.0132277 0.0116539 0.0102007 0.00886829 0.00765657 0.00656557 0.00558025 0.00468559 0.00388159 0.00316825 0.00254557 0.00201355 0.00157219 0.00122149 0.0009352 0.000687086 0.000477143 0.000305371 0.000171771 7.63429e-05 1.90857e-05 0 0 0.000258607 0.00103443 0.00232746 0.00413771 0.00646517 0.00930984 0.0126717 0.0165508 0.0209504 0.0258737 0.0313207 0.0372914 0.0437858 0.050804 0.0583459 0.0664115 0.0747968 0.083298 0.0919151 0.100648 0.109497 0.118461 0.127542 0.136738 0.145867 0.154745 0.163373 0.171751 0.179879 0.187756 0.195382 0.202759 0.209784 0.216357 0.222478 0.228147 0.233363 0.238128 0.242441 0.246302 0.249692 0.252595 0.255009 0.256935 0.258373 0.259323 0.259785 0.259759 0.259289 0.25842 0.257152 0.255485 0.253419 0.250955 0.248091 0.244828 0.241244 0.237416 0.233344 0.229029 0.224469 0.219666 0.214619 0.209328 0.203875 0.198341 0.192726 0.18703 0.181254 0.175397 0.16946 0.163442 0.157408 0.151422 0.145486 0.139599 0.133761 0.127972 0.122232 0.116541 0.110938 0.105462 0.100113 0.0948906 0.0897952 0.0848268 0.0799853 0.0752707 0.0706974 0.06628 0.0620184 0.0579126 0.0539627 0.0501685 0.0465302 0.0430477 0.0397189 0.0365417 0.033516 0.0306419 0.0279194 0.0253485 0.0229291 0.0206612 0.0185349 0.01654 0.0146765 0.0129444 0.0113437 0.00987448 0.00853663 0.0073302 0.00623915 0.00524745 0.00435511 0.00356211 0.00286847 0.00227418 0.00177924 0.00138365 0.00105936 0.000778303 0.000540488 0.000345912 0.000194576 8.64781e-05 2.16195e-05 0 0 0.000282681 0.00113072 0.00254412 0.00452289 0.00706701 0.0101765 0.0138513 0.0180916 0.0228972 0.0282683 0.0342049 0.040707 0.0477746 0.0554077 0.0636062 0.0723702 0.0814785 0.0907095 0.100063 0.10954 0.11914 0.128862 0.138707 0.148676 0.158569 0.168192 0.177542 0.186621 0.195429 0.203965 0.21223 0.220223 0.227835 0.234959 0.241594 0.247739 0.253396 0.258563 0.263242 0.267431 0.271112 0.274265 0.276889 0.278985 0.280552 0.281591 0.282102 0.282084 0.281587 0.280656 0.279294 0.277499 0.275272 0.272612 0.26952 0.265996 0.262123 0.257985 0.253582 0.248915 0.243982 0.238784 0.233321 0.227594 0.221689 0.215697 0.209615 0.203445 0.197187 0.19084 0.184405 0.177881 0.171339 0.164849 0.158411 0.152026 0.145692 0.139411 0.133182 0.127005 0.120923 0.114977 0.109169 0.103497 0.0979625 0.0925647 0.0873039 0.08218 0.0772088 0.0724062 0.0677723 0.0633068 0.05901 0.0548818 0.0509221 0.047131 0.0435063 0.0400457 0.0367492 0.0336168 0.0306486 0.0278445 0.0252045 0.0227286 0.0204059 0.0182255 0.0161875 0.0142918 0.0125384 0.0109273 0.00945851 0.00813205 0.0069309 0.00583806 0.00485353 0.0039773 0.00320937 0.00254975 0.00199844 0.00155543 0.00119087 0.000874927 0.000607589 0.000388857 0.000218732 9.72142e-05 2.43035e-05 0 0 0.000307442 0.00122977 0.00276698 0.00491908 0.00768606 0.0110679 0.0150647 0.0196763 0.0248994 0.0307304 0.0371695 0.0442165 0.0518715 0.0601345 0.0690055 0.0784845 0.0883323 0.0983099 0.108417 0.118654 0.129021 0.139517 0.150143 0.160898 0.171572 0.181953 0.192041 0.201835 0.211336 0.220544 0.229459 0.238081 0.246293 0.253978 0.261136 0.267768 0.273873 0.279451 0.284503 0.289028 0.293005 0.296413 0.299252 0.301522 0.303222 0.30