<?xml version="1.0"?> 
<VTKFile type="StructuredGrid" version="0.1"> 
<StructuredGrid WholeExtent="0 128 0 128 0 0"> 
<Piece Extent="0 128 0 128 0 0"> 
<PointData>
<DataArray type="Float32" Name="u" format="ascii" NumberOfComponents="1"> 
0 0 0 0 0 0 0 0 0 0 0 0 0 0 0 0 0 0 0 0 0 0 0 0 0 0 0 0 0 0 0 0 0 0 0 0 0 0 0 0 0 0 0 0 0 0 0 0 0 0 0 0 0 0 0 0 0 0 0 0 0 0 0 0 0 0 0 0 0 0 0 0 0 0 0 0 0 0 0 0 0 0 0 0 0 0 0 0 0 0 0 0 0 0 0 0 0 0 0 0 0 0 0 0 0 0 0 0 0 0 0 0 0 0 0 0 0 0 0 0 0 0 0 0 0 0 0 0 0 0 6.68844e-07 2.67537e-06 6.01959e-06 1.07015e-05 1.67211e-05 2.40784e-05 3.27733e-05 4.2806e-05 5.43753e-05 6.76803e-05 8.27209e-05 9.94972e-05 0.000118009 0.000138257 0.00016024 0.000183959 0.000208773 0.000234041 0.000259763 0.00028594 0.00031257 0.000339655 0.000367194 0.000395188 0.000423009 0.000450033 0.000476259 0.000501687 0.000526318 0.000550151 0.000573186 0.000595423 0.000616538 0.000636208 0.000654432 0.000671211 0.000686544 0.000700431 0.000712872 0.000723868 0.000733377 0.000741356 0.000747807 0.000752729 0.000756121 0.000757985 0.00075832 0.000757126 0.000754564 0.000750793 0.000745813 0.000739625 0.000732228 0.000723623 0.00071381 0.000702788 0.000690816 0.000678153 0.0006648 0.000650755 0.000636019 0.000620592 0.000604474 0.000587665 0.000570427 0.00055302 0.000535445 0.000517703 0.000499791 0.000481712 0.000463465 0.000445049 0.000426664 0.000408509 0.000390583 0.000372886 0.000355419 0.000338181 0.000321172 0.000304393 0.000287954 0.000271964 0.000256423 0.000241332 0.000226691 0.000212499 0.000198756 0.000185463 0.00017265 0.000160347 0.000148554 0.000137271 0.000126497 0.000116234 0.000106481 9.72375e-05 8.84837e-05 8.01991e-05 7.23837e-05 6.50376e-05 5.81607e-05 5.17529e-05 4.58144e-05 4.03451e-05 3.53018e-05 3.06413e-05 2.63636e-05 2.24687e-05 1.89566e-05 1.58273e-05 1.30807e-05 1.0717e-05 8.66464e-06 6.8521e-06 5.27942e-06 3.9466e-06 2.85363e-06 2.00052e-06 1.38727e-06 1.01387e-06 7.76248e-07 5.70304e-07 3.96045e-07 2.53469e-07 1.42576e-07 6.33672e-08 1.58418e-08 0 0 2.67537e-06 1.07015e-05 2.40784e-05 4.2806e-05 6.68844e-05 9.63135e-05 0.000131093 0.000171224 0.000217501 0.000270721 0.000330884 0.000397989 0.000472037 0.000553027 0.00064096 0.000735836 0.000835091 0.000936164 0.00103905 0.00114376 0.00125028 0.00135862 0.00146878 0.00158075 0.00169204 0.00180013 0.00190504 0.00200675 0.00210527 0.0022006 0.00229274 0.00238169 0.00246615 0.00254483 0.00261773 0.00268484 0.00274617 0.00280172 0.00285149 0.00289547 0.00293351 0.00296543 0.00299123 0.00301091 0.00302449 0.00303194 0.00303328 0.00302851 0.00301825 0.00300317 0.00298325 0.0029585 0.00292891 0.00289449 0.00285524 0.00281115 0.00276326 0.00271261 0.0026592 0.00260302 0.00254408 0.00248237 0.0024179 0.00235066 0.00228171 0.00221208 0.00214178 0.00207081 0.00199917 0.00192685 0.00185386 0.0017802 0.00170666 0.00163404 0.00156233 0.00149154 0.00142167 0.00135272 0.00128469 0.00121757 0.00115181 0.00108785 0.00102569 0.000965329 0.000906763 0.000849995 0.000795025 0.000741854 0.000690601 0.000641389 0.000594216 0.000549083 0.00050599 0.000464937 0.000425923 0.00038895 0.000353935 0.000320796 0.000289535 0.00026015 0.000232643 0.000207012 0.000183258 0.00016138 0.000141207 0.000122565 0.000105454 8.98748e-05 7.58263e-05 6.33091e-05 5.2323e-05 4.28681e-05 3.46586e-05 2.74084e-05 2.11177e-05 1.57864e-05 1.14145e-05 8.0021e-06 5.54909e-06 4.0555e-06 3.10499e-06 2.28122e-06 1.58418e-06 1.01387e-06 5.70304e-07 2.53469e-07 6.33672e-08 0 0 6.01959e-06 2.40784e-05 5.41763e-05 9.63135e-05 0.00015049 0.000216705 0.00029496 0.000385254 0.000489378 0.000609123 0.000744488 0.000895475 0.00106208 0.00124431 0.00144216 0.00165563 0.00187896 0.00210637 0.00233787 0.00257346 0.00281313 0.0030569 0.00330475 0.00355669 0.00380708 0.0040503 0.00428633 0.00451519 0.00473686 0.00495135 0.00515867 0.0053588 0.00554884 0.00572587 0.00588989 0.0060409 0.00617889 0.00630388 0.00641585 0.00651481 0.00660039 0.00667221 0.00673026 0.00677456 0.00680509 0.00682187 0.00682488 0.00681414 0.00679107 0.00675713 0.00671232 0.00665662 0.00659005 0.00651261 0.00642429 0.00632509 0.00621735 0.00610338 0.0059832 0.00585679 0.00572417 0.00558533 0.00544027 0.00528899 0.00513384 0.00497718 0.00481901 0.00465932 0.00449812 0.00433541 0.00417118 0.00400544 0.00383998 0.00367658 0.00351524 0.00335597 0.00319877 0.00304363 0.00289055 0.00273954 0.00259158 0.00244767 0.00230781 0.00217199 0.00204022 0.00191249 0.00178881 0.00166917 0.00155385 0.00144312 0.00133699 0.00123544 0.00113848 0.00104611 0.000958327 0.000875137 0.000796353 0.000721792 0.000651454 0.000585338 0.000523446 0.000465776 0.00041233 0.000363106 0.000317716 0.000275772 0.000237272 0.000202218 0.000170609 0.000142445 0.000117727 9.64533e-05 7.79817e-05 6.16689e-05 4.75148e-05 3.55194e-05 2.56827e-05 1.80047e-05 1.24854e-05 9.12487e-06 6.98623e-06 5.13274e-06 3.5644e-06 2.28122e-06 1.28319e-06 5.70304e-07 1.42576e-07 0 0 1.07015e-05 4.2806e-05 9.63135e-05 0.000171224 0.000267537 0.000385254 0.000524373 0.000684896 0.000870005 0.00108288 0.00132353 0.00159196 0.00188815 0.00221211 0.00256384 0.00294334 0.00334037 0.00374465 0.00415621 0.00457503 0.00500113 0.00543448 0.00587511 0.006323 0.00676815 0.00720053 0.00762014 0.008027 0.00842108 0.00880241 0.00917097 0.00952676 0.00986461 0.0101793 0.0104709 0.0107394 0.0109847 0.0112069 0.011406 0.0115819 0.011734 0.0118617 0.0119649 0.0120437 0.0120979 0.0121278 0.0121331 0.012114 0.012073 0.0120127 0.011933 0.011834 0.0117157 0.011578 0.011421 0.0112446 0.0110531 0.0108505 0.0106368 0.0104121 0.0101763 0.00992948 0.00967159 0.00940265 0.00912683 0.00884832 0.00856713 0.00828324 0.00799666 0.00770739 0.00741544 0.00712079 0.00682663 0.00653614 0.00624932 0.00596618 0.0056867 0.00541089 0.00513876 0.00487029 0.00460726 0.00435142 0.00410277 0.00386131 0.00362705 0.00339998 0.0031801 0.00296742 0.00276241 0.00256555 0.00237686 0.00219633 0.00202396 0.00185975 0.00170369 0.0015558 0.00141574 0.00128319 0.00115814 0.0010406 0.00093057 0.000828047 0.000733031 0.000645522 0.000564829 0.000490261 0.000421818 0.000359499 0.000303305 0.000253236 0.000209292 0.000171472 0.000138634 0.000109634 8.44708e-05 6.31456e-05 4.56582e-05 3.20084e-05 2.21963e-05 1.6222e-05 1.242e-05 9.12487e-06 6.33672e-06 4.0555e-06 2.28122e-06 1.01387e-06 2.53469e-07 0 0 1.67211e-05 6.68844e-05 0.00015049 0.000267537 0.000418027 0.000601959 0.000819333 0.00107015 0.00135938 0.00169201 0.00206802 0.00248743 0.00295023 0.00345642 0.004006 0.00459897 0.00521932 0.00585102 0.00649408 0.00714849 0.00781426 0.00849138 0.00917986 0.00987969 0.0105752 0.0112508 0.0119065 0.0125422 0.0131579 0.0137538 0.0143296 0.0148856 0.0154135 0.0159052 0.0163608 0.0167803 0.0171636 0.0175108 0.0178218 0.0180967 0.0183344 0.0185339 0.0186952 0.0188182 0.018903 0.0189496 0.018958 0.0189282 0.0188641 0.0187698 0.0186453 0.0184906 0.0183057 0.0180906 0.0178452 0.0175697 0.0172704 0.0169538 0.01662 0.0162689 0.0159005 0.0155148 0.0151119 0.0146916 0.0142607 0.0138255 0.0133861 0.0129426 0.0124948 0.0120428 0.0115866 0.0111262 0.0106666 0.0102127 0.00976457 0.00932215 0.00888547 0.00845452 0.00802931 0.00760983 0.00719884 0.00679909 0.00641058 0.0060333 0.00566727 0.00531247 0.00496891 0.00463659 0.00431626 0.00400868 0.00371385 0.00343177 0.00316244 0.00290585 0.00266202 0.00243094 0.00221209 0.00200498 0.00180959 0.00162594 0.00145402 0.00129382 0.00114536 0.00100863 0.000882545 0.000766033 0.00065909 0.000561717 0.000473914 0.000395682 0.000327019 0.000267926 0.000216616 0.000171303 0.000131986 9.8665e-05 7.13409e-05 5.00131e-05 3.46818e-05 2.53469e-05 1.94062e-05 1.42576e-05 9.90112e-06 6.33672e-06 3.5644e-06 1.58418e-06 3.96045e-07 0 0 2.40784e-05 9.63135e-05 0.000216705 0.000385254 0.000601959 0.000866821 0.00117984 0.00154102 0.00195751 0.00243649 0.00297795 0.0035819 0.00424833 0.00497724 0.00576864 0.00662252 0.00751582 0.00842547 0.00935147 0.0102938 0.0112525 0.0122276 0.013219 0.0142268 0.0152283 0.0162012 0.0171453 0.0180607 0.0189474 0.0198054 0.0206347 0.0214352 0.0221954 0.0229035 0.0235596 0.0241636 0.0247156 0.0252155 0.0256634 0.0260593 0.0264016 0.0266888 0.0269211 0.0270982 0.0272204 0.0272875 0.0272995 0.0272565 0.0271643 0.0270285 0.0268493 0.0266265 0.0263602 0.0260504 0.0256972 0.0253004 0.0248694 0.0244135 0.0239328 0.0234272 0.0228967 0.0223413 0.0217611 0.021156 0.0205354 0.0199087 0.019276 0.0186373 0.0179925 0.0173416 0.0166847 0.0160218 0.0153599 0.0147063 0.014061 0.0134239 0.0127951 0.0121745 0.0115622 0.0109582 0.0103663 0.00979069 0.00923123 0.00868796 0.00816087 0.00764996 0.00715523 0.00667669 0.00621541 0.0057725 0.00534794 0.00494175 0.00455391 0.00418443 0.00383331 0.00350055 0.00318541 0.00288717 0.00260581 0.00234135 0.00209378 0.00186311 0.00164932 0.00145242 0.00127087 0.00110309 0.00094909 0.000808873 0.000682437 0.000569782 0.000470907 0.000385813 0.000311927 0.000246676 0.000190059 0.000142078 0.000102731 7.20189e-05 4.99418e-05 3.64995e-05 2.79449e-05 2.0531e-05 1.42576e-05 9.12487e-06 5.13274e-06 2.28122e-06 5.70304e-07 0 0 3.27733e-05 0.000131093 0.00029496 0.000524373 0.000819333 0.00117984 0.00160589 0.00209749 0.00266439 0.00331633 0.00405333 0.00487536 0.00578245 0.00677458 0.00785176 0.00901399 0.0102299 0.011468 0.0127284 0.014011 0.0153159 0.0166431 0.0179925 0.0193642 0.0207275 0.0220516 0.0233367 0.0245827 0.0257896 0.0269574 0.0280861 0.0291757 0.0302104 0.0311742 0.0320672 0.0328893 0.0336406 0.0343211 0.0349307 0.0354695 0.0359355 0.0363265 0.0366425 0.0368837 0.03705 0.0371413 0.0371577 0.0370992 0.0369736 0.0367888 0.0365448 0.0362416 0.0358792 0.0354575 0.0349767 0.0344366 0.03385 0.0332295 0.0325752 0.031887 0.0311649 0.030409 0.0296192 0.0287956 0.0279509 0.027098 0.0262368 0.0253674 0.0244898 0.0236039 0.0227098 0.0218074 0.0209065 0.0200169 0.0191386 0.0182714 0.0174155 0.0165709 0.0157374 0.0149153 0.0141097 0.0133262 0.0125647 0.0118253 0.0111078 0.0104124 0.00973906 0.00908771 0.00845987 0.00785701 0.00727914 0.00672627 0.00619838 0.00569547 0.00521756 0.00476464 0.0043357 0.00392976 0.0035468 0.00318684 0.00284987 0.00253589 0.00224491 0.00197691 0.00172979 0.00150142 0.00129182 0.00110097 0.000928872 0.000775536 0.000640957 0.000525135 0.000424567 0.000335753 0.000258692 0.000193383 0.000139828 9.80257e-05 6.79763e-05 4.96799e-05 3.80361e-05 2.79449e-05 1.94062e-05 1.242e-05 6.98623e-06 3.10499e-06 7.76248e-07 0 0 4.2806e-05 0.000171224 0.000385254 0.000684896 0.00107015 0.00154102 0.00209749 0.00273958 0.00348002 0.00433154 0.00529414 0.00636782 0.00755259 0.00884843 0.0102554 0.0117734 0.0133615 0.0149786 0.0166248 0.0183001 0.0200045 0.0217379 0.0235004 0.025292 0.0270726 0.0288021 0.0304806 0.032108 0.0336843 0.0352096 0.0366839 0.0381071 0.0394584 0.0407173 0.0418837 0.0429575 0.0439388 0.0448276 0.0456238 0.0463276 0.0469361 0.0474468 0.0478596 0.0481746 0.0483918 0.0485111 0.0485325 0.0484561 0.0482921 0.0480507 0.047732 0.047336 0.0468626 0.0463119 0.0456838 0.0449784 0.0442122 0.0434018 0.0425472 0.0416483 0.0407052 0.0397179 0.0386864 0.0376106 0.0365073 0.0353933 0.0342685 0.033133 0.0319867 0.0308296 0.0296617 0.0284831 0.0273065 0.0261446 0.0249973 0.0238647 0.0227468 0.0216436 0.020555 0.0194812 0.018429 0.0174057 0.0164111 0.0154453 0.0145082 0.0135999 0.0127204 0.0118697 0.0110496 0.0102622 0.00950745 0.00878533 0.00809584 0.00743899 0.00681477 0.0062232 0.00566295 0.00513274 0.00463256 0.00416241 0.00372228 0.00331219 0.00293212 0.00258209 0.00225932 0.00196104 0.00168727 0.001438 0.00121322 0.00101295 0.000837168 0.00068589 0.000554537 0.000438535 0.000337883 0.000252582 0.000182633 0.000128034 8.87854e-05 6.4888e-05 4.96799e-05 3.64995e-05 2.53469e-05 1.6222e-05 9.12487e-06 4.0555e-06 1.01387e-06 0 0 5.44546e-05 0.000217818 0.000490091 0.000871273 0.00136136 0.00196037 0.00266827 0.00348509 0.00442643 0.00550788 0.00672945 0.00809113 0.00959294 0.0112349 0.0130169 0.0149391 0.0169495 0.0189965 0.0210799 0.0231998 0.0253562 0.027549 0.0297784 0.0320442 0.034296 0.0364832 0.0386059 0.0406641 0.0426577 0.0445867 0.0464513 0.0482512 0.0499604 0.0515527 0.0530281 0.0543866 0.0556281 0.0567527 0.0577604 0.0586511 0.0594216 0.0600683 0.0605914 0.0609907 0.0612663 0.0614183 0.0614465 0.061351 0.0611448 0.0608407 0.0604388 0.059939 0.0593414 0.058646 0.0578528 0.0569617 0.0559936 0.0549696 0.0538895 0.0527534 0.0515613 0.0503132 0.049009 0.0476489 0.0462539 0.0448451 0.0434226 0.0419864 0.0405365 0.0390729 0.0375955 0.0361044 0.0346157 0.0331455 0.0316937 0.0302604 0.0288456 0.0274493 0.0260714 0.024712 0.02338 0.0220844 0.020825 0.019602 0.0184154 0.017265 0.016151 0.0150733 0.0140344 0.0130368 0.0120805 0.0111654 0.0102915 0.00945895 0.00866764 0.0079176 0.00720718 0.00653474 0.00590029 0.00530382 0.00474534 0.00422484 0.00374233 0.0032978 0.00288776 0.0025087 0.00216064 0.00184357 0.00155748 0.00130239 0.00107828 0.000885167 0.000717282 0.000568871 0.000439933 0.000330468 0.000240476 0.000169958 0.000118913 8.73409e-05 6.68703e-05 4.91292e-05 3.41175e-05 2.18352e-05 1.22823e-05 5.4588e-06 1.3647e-06 0 0 6.79974e-05 0.00027199 0.000611977 0.00108796 0.00169994 0.00244791 0.00333187 0.00435183 0.00552564 0.00687112 0.00838829 0.0100771 0.0119377 0.0139699 0.0161738 0.0185494 0.021033 0.0235607 0.0261326 0.0287486 0.0314089 0.0341134 0.036862 0.0396548 0.0424299 0.0451256 0.0477418 0.0502784 0.0527356 0.0551133 0.0574115 0.0596302 0.0617372 0.0637003 0.0655196 0.067195 0.0687266 0.0701143 0.0713581 0.0724581 0.07341 0.0742095 0.0748567 0.0753516 0.0756942 0.0758844 0.0759223 0.0758078 0.0755569 0.0751853 0.0746931 0.0740802 0.0733466 0.0724925 0.0715176 0.0704221 0.0692316 0.0679719 0.0666429 0.0652446 0.063777 0.0622401 0.0606339 0.0589585 0.0572398 0.0555038 0.0537507 0.0519803 0.0501928 0.0483879 0.0465659 0.0447267 0.0428901 0.041076 0.0392844 0.0375153 0.0357687 0.0340446 0.032343 0.030664 0.0290185 0.0274176 0.0258613 0.0243497 0.0228827 0.0214603 0.0200826 0.0187495 0.0174641 0.0162295 0.0150457 0.0139128 0.0128307 0.0117994 0.0108189 0.00988921 0.00900837 0.00817437 0.0073872 0.00664687 0.00595337 0.00530671 0.00470689 0.00415389 0.00364342 0.00317117 0.00273712 0.00234128 0.00198366 0.00166425 0.00138304 0.00114005 0.00092825 0.000740613 0.00057714 0.000437833 0.000322691 0.000231714 0.000164902 0.000122256 9.36019e-05 6.87687e-05 4.77561e-05 3.05639e-05 1.71922e-05 7.64097e-06 1.91024e-06 0 0 8.34344e-05 0.000333738 0.00075091 0.00133495 0.00208586 0.00300364 0.00408829 0.0053398 0.00677765 0.00842127 0.0102707 0.0123259 0.0145869 0.0170536 0.0197262 0.0226045 0.0256118 0.0286713 0.0317829 0.0349467 0.0381627 0.0414309 0.0447512 0.0481238 0.0514744 0.0547292 0.057888 0.060951 0.0639181 0.0667892 0.0695645 0.0722439 0.0747887 0.0771601 0.0793582 0.0813829 0.0832343 0.0849123 0.086417 0.0877484 0.0889012 0.0898703 0.0906557 0.0912573 0.0916752 0.0919094 0.0919598 0.0918265 0.0915284 0.0910845 0.0904949 0.0897594 0.0888782 0.0878512 0.0866784 0.0853598 0.0839263 0.0824088 0.0808073 0.0791217 0.0773522 0.0754986 0.073561 0.0715393 0.0694651 0.0673695 0.0652527 0.0631147 0.0609554 0.0587748 0.056573 0.0543499 0.0521296 0.049936 0.0477692 0.0456292 0.043516 0.0414296 0.0393699 0.037337 0.0353443 0.0334053 0.03152 0.0296883 0.0279102 0.0261858 0.0245151 0.0228981 0.0213385 0.0198402 0.0184032 0.0170276 0.0157132 0.0144602 0.0132685 0.012138 0.0110665 0.0100516 0.0090933 0.00819155 0.00734638 0.0065578 0.00582579 0.00515037 0.00452632 0.00394843 0.00341671 0.00293115 0.00249175 0.00209852 0.00175145 0.00145055 0.00118744 0.000953759 0.000749505 0.000574677 0.000429276 0.000313301 0.000226753 0.000169632 0.000129874 9.5418e-05 6.62625e-05 4.2408e-05 2.38545e-05 1.0602e-05 2.6505e-06 0 0 0.000100766 0.000403063 0.000906891 0.00161225 0.00251914 0.00362756 0.00493752 0.006449 0.00818246 0.0101583 0.0123766 0.0148373 0.0175404 0.0204859 0.0236739 0.0271042 0.030686 0.0343282 0.0380309 0.041794 0.0456176 0.0495017 0.0534462 0.0574511 0.0614294 0.0652939 0.0690447 0.0726818 0.0762051 0.0796146 0.0829104 0.0860924 0.0891149 0.091932 0.0945438 0.0969501 0.0991512 0.101147 0.102937 0.104522 0.105895 0.107051 0.107988 0.108708 0.10921 0.109493 0.109559 0.109407 0.109059 0.108538 0.107844 0.106977 0.105936 0.104722 0.103335 0.101775 0.100078 0.0982803 0.0963827 0.094385 0.0922869 0.0900887 0.0877902 0.0853915 0.0829297 0.0804422 0.0779288 0.0753895 0.0728244 0.0702335 0.0676167 0.0649741 0.0623342 0.0597256 0.0571483 0.0546023 0.0520876 0.0496042 0.047152 0.0447312 0.0423577 0.0400476 0.037801 0.0356177 0.033498 0.0314416 0.0294487 0.0275192 0.0256577 0.023869 0.022153 0.0205098 0.0189393 0.0174415 0.0160164 0.014664 0.0133817 0.0121665 0.0110186 0.00993786 0.00892437 0.0079781 0.00709905 0.00628723 0.00553644 0.00484049 0.0041994 0.00361315 0.00308175 0.00260521 0.00218351 0.00181665 0.00149485 0.00120831 0.000957028 0.000741001 0.000560232 0.00041472 0.000304467 0.00022947 0.000175688 0.000129077 8.96368e-05 5.73675e-05 3.22692e-05 1.43419e-05 3.58547e-06 0 0 0.000119991 0.000479965 0.00107992 0.00191986 0.00299978 0.00431968 0.00587957 0.00767943 0.00974008 0.0120823 0.0147061 0.0176114 0.0207984 0.0242669 0.028017 0.0320486 0.0362556 0.0405316 0.0448765 0.0492906 0.0537736 0.0583257 0.0629467 0.0676368 0.0722949 0.0768199 0.0812119 0.0854708 0.0895966 0.0935894 0.0974491 0.101176 0.104716 0.108016 0.111076 0.113897 0.116477 0.118818 0.120918 0.122779 0.124393 0.125751 0.126855 0.127703 0.128297 0.128636 0.12872 0.128549 0.12815 0.127547 0.126741 0.125732 0.12452 0.123106 0.121488 0.119667 0.117686 0.115586 0.113369 0.111034 0.108581 0.10601 0.103322 0.100515 0.0976338 0.0947218 0.0917787 0.0888047 0.0857998 0.0827639 0.0796971 0.0765993 0.073504 0.0704448 0.0674216 0.0644345 0.0614834 0.0585684 0.0556894 0.0528464 0.0500585 0.0473444 0.0447043 0.0421381 0.0396459 0.0372276 0.0348832 0.0326127 0.0304218 0.0283159 0.0262951 0.0243594 0.0225087 0.0207432 0.0190627 0.0174673 0.0159538 0.014519 0.013163 0.0118858 0.0106873 0.00956762 0.00852666 0.00756447 0.00667378 0.00584736 0.0050852 0.0043873 0.00375367 0.00318431 0.0026792 0.00223837 0.00185049 0.00150427 0.00119971 0.000936804 0.000715559 0.000535971 0.000398042 0.00030177 0.000231043 0.000169746 0.000117879 7.54426e-05 4.24364e-05 1.88606e-05 4.71516e-06 0 0 0.000141111 0.000564443 0.00127 0.00225777 0.00352777 0.00507999 0.00691443 0.00903109 0.0114505 0.0141932 0.0172591 0.0206483 0.0243608 0.0283965 0.0327555 0.0374377 0.0423205 0.0472813 0.0523198 0.0574363 0.0626307 0.0679029 0.073253 0.078681 0.084071 0.0893072 0.0943895 0.099318 0.104093 0.108714 0.113181 0.117494 0.121592 0.125412 0.128956 0.132223 0.135213 0.137925 0.140361 0.14252 0.144392 0.145971 0.147254 0.148243 0.148938 0.149338 0.149443 0.149253 0.148799 0.14811 0.147185 0.146026 0.144631 0.143001 0.141136 0.139036 0.13675 0.134327 0.131767 0.12907 0.126235 0.123264 0.120155 0.11691 0.113577 0.110208 0.106803 0.10336 0.0998816 0.0963662 0.0928141 0.0892254 0.085639 0.0820936 0.0785892 0.0751258 0.0717035 0.0683222 0.064982 0.0616828 0.0584467 0.0552957 0.05223 0.0492494 0.046354 0.0435437 0.0408187 0.0381788 0.0356306 0.0331809 0.0308294 0.0285764 0.0264217 0.0243653 0.0224073 0.0205477 0.0187828 0.0171092 0.0155267 0.0140354 0.0126353 0.0113264 0.0101086 0.00898209 0.00793835 0.00696902 0.00607411 0.0052536 0.00450751 0.00383582 0.00323855 0.00271569 0.00225435 0.00184163 0.00147755 0.00116209 0.000895257 0.000677054 0.000507479 0.000386532 0.000295939 0.000217424 0.000150989 9.6633e-05 5.43561e-05 2.41582e-05 6.03956e-06 0 0 0.000164125 0.000656499 0.00147712 0.002626 0.00410312 0.00590849 0.00804211 0.010504 0.0133137 0.0164909 0.0200357 0.0239479 0.0282275 0.0328747 0.0378894 0.0432715 0.0488809 0.0545773 0.0603608 0.0662313 0.0721888 0.0782333 0.0843649 0.0905835 0.0967576 0.102756 0.108578 0.114223 0.119693 0.124987 0.130105 0.135047 0.139742 0.144121 0.148183 0.151928 0.155357 0.158469 0.161265 0.163743 0.165895 0.16771 0.169188 0.170328 0.171132 0.171598 0.171727 0.17152 0.171008 0.170228 0.169177 0.167857 0.166268 0.164409 0.162281 0.159883 0.157271 0.154502 0.151575 0.148491 0.145249 0.141849 0.138291 0.134576 0.13076 0.126902 0.123001 0.119057 0.11507 0.11104 0.106968 0.102853 0.0987391 0.0946719 0.0906509 0.0866762 0.0827478 0.0788657 0.0750298 0.0712402 0.0675224 0.0639016 0.060378 0.0569516 0.0536223 0.0503902 0.0472552 0.0442173 0.0412843 0.0384639 0.035756 0.0331608 0.0306781 0.0283079 0.0260503 0.0239053 0.0218689 0.0199369 0.0181095 0.0163866 0.0147682 0.0132543 0.0118449 0.0105401 0.00933014 0.00820549 0.00716612 0.00621204 0.00534325 0.00455975 0.00386154 0.00324862 0.00270643 0.0022204 0.00179054 0.00141685 0.00109933 0.000837968 0.000632778 0.000483756 0.000370375 0.000272113 0.000188967 0.000120939 6.80281e-05 3.02347e-05 7.55868e-06 0 0 0.000189033 0.000756131 0.0017013 0.00302453 0.00472582 0.00680518 0.00926261 0.0120981 0.0153297 0.0189756 0.0230358 0.0275101 0.0323987 0.0377016 0.0434186 0.04955 0.0559366 0.0624198 0.0689994 0.0756755 0.082448 0.089317 0.0962824 0.103344 0.110355 0.117165 0.123776 0.130187 0.136399 0.14241 0.148222 0.153834 0.159167 0.164141 0.168757 0.173013 0.176911 0.18045 0.183629 0.186451 0.188901 0.190969 0.192655 0.193958 0.194879 0.195418 0.195574 0.195347 0.194777 0.1939 0.192717 0.191227 0.189432 0.18733 0.184921 0.182207 0.179249 0.176112 0.172795 0.169298 0.165622 0.161765 0.157729 0.153513 0.149182 0.144802 0.140372 0.135893 0.131364 0.126786 0.122158 0.117481 0.112804 0.10818 0.103607 0.0990858 0.0946164 0.0901988 0.0858329 0.0815188 0.0772855 0.073162 0.0691484 0.0652447 0.0614508 0.0577668 0.0541926 0.0507283 0.0473828 0.044165 0.0410749 0.0381125 0.0352779 0.0325709 0.0299917 0.0275402 0.0252119 0.0230023 0.0209115 0.0189394 0.0170861 0.0153515 0.0137356 0.0122385 0.0108492 0.00955675 0.00836124 0.00726263 0.00626091 0.0053561 0.00454818 0.00383716 0.00320673 0.00264057 0.00213869 0.00170109 0.00132776 0.00101871 0.000773939 0.000593441 0.000454353 0.000333811 0.000231813 0.00014836 8.34526e-05 3.70901e-05 9.27251e-06 0 0 0.000215337 0.000861348 0.00193803 0.00344539 0.00538343 0.00775213 0.0105515 0.0137816 0.0174583 0.0215978 0.0262 0.031265 0.0367927 0.0427831 0.0492363 0.0561521 0.0633524 0.0706585 0.0780706 0.0855885 0.0932124 0.100942 0.108778 0.11672 0.124602 0.13226 0.139693 0.146902 0.153887 0.160647 0.167183 0.173494 0.179491 0.185086 0.190278 0.195068 0.199454 0.203438 0.20702 0.210198 0.212961 0.215294 0.217197 0.218671 0.219716 0.220331 0.220516 0.220272 0.219641 0.218666 0.217346 0.215681 0.213672 0.211318 0.20862 0.205577 0.20226 0.198741 0.195018 0.191093 0.186965 0.182634 0.1781 0.173363 0.168496 0.163572 0.158592 0.153555 0.148462 0.143311 0.138104 0.13284 0.127577 0.12237 0.117221 0.11213 0.107095 0.102118 0.0971986 0.0923362 0.0875639 0.0829146 0.0783884 0.0739852 0.069705 0.0655478 0.0615137 0.0576025 0.0538246 0.0501902 0.0466992 0.0433517 0.0401477 0.0370871 0.03417 0.0313963 0.0287612 0.0262596 0.0238916 0.0216571 0.0195562 0.0175889 0.0157551 0.0140548 0.0124759 0.011006 0.00964502 0.0083931 0.00725018 0.00621627 0.00529137 0.00447548 0.00375051 0.00309836 0.00251905 0.00201257 0.00157892 0.0012181 0.000930118 0.000714962 0.000547393 0.000402166 0.000279282 0.00017874 0.000100542 4.46851e-05 1.11713e-05 0 0 0.000242539 0.000970156 0.00218285 0.00388063 0.00606348 0.00873141 0.0118844 0.0155225 0.0196592 0.0243081 0.0294692 0.0351424 0.0413278 0.0480254 0.0552351 0.0629571 0.0709926 0.0791434 0.0874092 0.0957902 0.104286 0.112898 0.121624 0.130465 0.13924 0.147764 0.156038 0.164063 0.171837 0.179362 0.186636 0.193661 0.200338 0.206566 0.212348 0.217682 0.222568 0.227007 0.230999 0.234544 0.237626 0.24023 0.242357 0.244007 0.245179 0.245873 0.24609 0.24583 0.245139 0.244064 0.242606 0.240764 0.238539 0.23593 0.232938 0.229562 0.225881 0.221973 0.217838 0.213477 0.208889 0.204075 0.199034 0.193766 0.188353 0.182875 0.177334 0.171728 0.166058 0.160323 0.154525 0.148662 0.142798 0.136997 0.131259 0.125584 0.119971 0.114421 0.108934 0.10351 0.0981855 0.0929972 0.0879453 0.0830296 0.0782504 0.0736075 0.0691009 0.0647306 0.0605083 0.0564454 0.0525421 0.0487983 0.0452139 0.0417891 0.0385237 0.0354179 0.0324661 0.029663 0.0270086 0.0245029 0.0221459 0.0199375 0.0178778 0.0159668 0.0141908 0.0125362 0.011003 0.00959119 0.00830075 0.00713169 0.00608403 0.00515774 0.00433301 0.00358998 0.00292866 0.00234905 0.00185115 0.00143495 0.00110047 0.000847692 0.000649014 0.000476827 0.00033113 0.000211923 0.000119207 5.29808e-05 1.32452e-05 0 0 0.000270639 0.00108256 0.00243575 0.00433023 0.00676598 0.00974301 0.0132613 0.0173209 0.0219324 0.0271065 0.0328431 0.0391423 0.0460041 0.0534284 0.0614153 0.0699647 0.0788575 0.0878744 0.0970153 0.10628 0.11567 0.125183 0.13482 0.144582 0.154267 0.163677 0.17281 0.181668 0.190249 0.198554 0.206584 0.214337 0.221706 0.228582 0.234965 0.240856 0.246253 0.251157 0.255568 0.259487 0.262895 0.265778 0.268134 0.269964 0.271267 0.272044 0.272295 0.27202 0.271269 0.270095 0.268498 0.266478 0.264034 0.261166 0.257876 0.254161 0.25011 0.245808 0.241254 0.23645 0.231395 0.226088 0.220531 0.214723 0.208753 0.202711 0.196597 0.190411 0.184153 0.177822 0.17142 0.164945 0.158468 0.15206 0.145719 0.139447 0.133243 0.127107 0.12104 0.11504 0.10915 0.10341 0.0978189 0.092378 0.087087 0.0819457 0.0769542 0.0721126 0.0674338 0.0629308 0.0586036 0.0544522 0.0504766 0.0466769 0.043053 0.0396049 0.0363267 0.0332127 0.0302627 0.0274768 0.0248551 0.0223974 0.0201038 0.0179744 0.0159939 0.0141476 0.0124352 0.0108569 0.00941261 0.00810236 0.00692614 0.00588395 0.00495423 0.00411542 0.00336752 0.00271053 0.00214444 0.00166926 0.00128499 0.000991632 0.000759218 0.000557793 0.000387356 0.000247908 0.000139448 6.1977e-05 1.54943e-05 0 0 0.000299637 0.00119855 0.00269673 0.00479419 0.00749093 0.0107869 0.0146822 0.0191768 0.0242779 0.029993 0.0363219 0.0432647 0.0508215 0.0589921 0.0677767 0.0771751 0.0869469 0.0968515 0.106889 0.117059 0.127362 0.137798 0.148367 0.159068 0.169685 0.179998 0.190009 0.199717 0.209123 0.218225 0.227025 0.235522 0.243598 0.251134 0.258131 0.264589 0.270508 0.275887 0.280727 0.285027 0.28877 0.291937 0.294528 0.296542 0.297981 0.298844 0.299131 0.298842 0.298032 0.296759 0.295022 0.292821 0.290156 0.287026 0.283433 0.279376 0.274949 0.270246 0.265267 0.260012 0.254481 0.248675 0.242592 0.236233 0.229697 0.22308 0.216382 0.209605 0.202746 0.195808 0.188789 0.18169 0.174587 0.167558 0.160602 0.15372 0.146912 0.140177 0.133515 0.126927 0.120458 0.114152 0.108009 0.10203 0.0962147 0.0905625 0.0850738 0.0797485 0.0746011 0.0696461 0.0648836 0.0603135 0.0559358 0.0517505 0.0477577 0.0439572 0.0403429 0.0369084 0.0336537 0.0305789 0.0276838 0.0249685 0.0224331 0.0200775 0.0178853 0.01584 0.0139416 0.0121902 0.0105858 0.00912827 0.00781771 0.0066541 0.00561418 0.00467469 0.00383563 0.003097 0.0024588 0.00192103 0.00148369 0.00114678 0.000878004 0.000645064 0.000447961 0.000286695 0.000161266 7.16738e-05 1.79185e-05 0 0 0.000329533 0.00131813 0.0029658 0.00527253 0.00823832 0.0118632 0.0161471 0.0210901 0.0266957 0.0329675 0.0399055 0.0475097 0.0557801 0.0647166 0.0743193 0.0845883 0.0952609 0.106075 0.11703 0.128127 0.139364 0.150743 0.162264 0.173925 0.185492 0.196729 0.207636 0.218212 0.228458 0.238374 0.24796 0.257215 0.266012 0.274222 0.281846 0.288883 0.295333 0.301197 0.306475 0.311165 0.31525 0.318707 0.321538 0.323743 0.325321 0.326273 0.326598 0.326296 0.325429 0.324056 0.322177 0.319794 0.316905 0.31351 0.309611 0.305206 0.300397 0.295287 0.289876 0.284163 0.278149 0.271833 0.265216 0.258297 0.251184 0.243981 0.236689 0.229309 0.221839 0.214281 0.206633 0.198897 0.191155 0.183492 0.175909 0.168403 0.160977 0.15363 0.146361 0.139171 0.132109 0.125224 0.118517 0.111987 0.105634 0.099458 0.0934595 0.0876383 0.0820103 0.0765916 0.0713822 0.0663822 0.0615914 0.05701 0.0526379 0.048475 0.0445148 0.0407503 0.0371817 0.033809 0.030632 0.0276509 0.0248657 0.0222762 0.0198648 0.0176134 0.0155222 0.0135912 0.0118202 0.0102094 0.00875875 0.0074682 0.00631286 0.00526779 0.004333 0.00350848 0.00279423 0.00219026 0.00169656 0.00131314 0.00100537 0.000738641 0.000512945 0.000328285 0.00018466 8.20712e-05 2.05178e-05 0 0 0.000360327 0.00144131 0.00324294 0.00576523 0.00900817 0.0129718 0.017656 0.0230609 0.0291858 0.0360302 0.043594 0.0518772 0.0608798 0.0706018 0.0810433 0.0922041 0.103799 0.115544 0.127439 0.139482 0.151676 0.164019 0.176511 0.189153 0.20169 0.213869 0.22569 0.237152 0.248255 0.259001 0.269388 0.279416 0.288948 0.297845 0.306108 0.313736 0.320729 0.327088 0.332812 0.337901 0.342334 0.346089 0.349166 0.351566 0.353287 0.35433 0.354696 0.354383 0.353458 0.351985 0.349964 0.347397 0.344281 0.340618 0.336408 0.33165 0.326455 0.320932 0.315081 0.308903 0.302397 0.295564 0.288403 0.280915 0.273214 0.265415 0.257518 0.249523 0.241431 0.23324 0.224952 0.216565 0.208172 0.199863 0.191638 0.183496 0.175439 0.167466 0.159576 0.151771 0.144103 0.136627 0.129341 0.122247 0.115344 0.108632 0.102111 0.0957819 0.0896613 0.0837671 0.0780995 0.0726583 0.0674435 0.0624553 0.0576935 0.0531582 0.0488423 0.0447384 0.0408467 0.0371672 0.0336998 0.0304446 0.0274015 0.0245706 0.0219325 0.019468 0.0171771 0.0150597 0.013116 0.0113458 0.00974925 0.00832625 0.00705026 0.00589471 0.00485961 0.00394495 0.00315073 0.00247694 0.00192361 0.00149071 0.00114132 0.000838523 0.000582308 0.000372677 0.000209631 9.31692e-05 2.32923e-05 0 0 0.000392018 0.00156807 0.00352816 0.00627229 0.00980046 0.0141127 0.0192089 0.0250892 0.0317483 0.039181 0.0473873 0.0563672 0.0661206 0.0766477 0.0879484 0.100023 0.112563 0.12526 0.138115 0.151127 0.164297 0.177624 0.191109 0.204751 0.218278 0.231418 0.244171 0.256536 0.268514 0.280106 0.291309 0.302126 0.312407 0.322005 0.330919 0.339149 0.346696 0.353559 0.359739 0.365235 0.370024 0.374083 0.377412 0.38001 0.381878 0.383017 0.383424 0.383102 0.382119 0.380546 0.378383 0.375629 0.372285 0.36835 0.363825 0.358709 0.353121 0.347179 0.340883 0.334232 0.327227 0.319868 0.312154 0.304086 0.295788 0.287382 0.278869 0.270249 0.261521 0.252687 0.2437