<?xml version="1.0"?> 
<VTKFile type="StructuredGrid" version="0.1"> 
<StructuredGrid WholeExtent="0 128 0 128 0 0"> 
<Piece Extent="0 128 0 128 0 0"> 
<PointData>
<DataArray type="Float32" Name="u" format="ascii" NumberOfComponents="1"> 
0 0 0 0 0 0 0 0 0 0 0 0 0 0 0 0 0 0 0 0 0 0 0 0 0 0 0 0 0 0 0 0 0 0 0 0 0 0 0 0 0 0 0 0 0 0 0 0 0 0 0 0 0 0 0 0 0 0 0 0 0 0 0 0 0 0 0 0 0 0 0 0 0 0 0 0 0 0 0 0 0 0 0 0 0 0 0 0 0 0 0 0 0 0 0 0 0 0 0 0 0 0 0 0 0 0 0 0 0 0 0 0 0 0 0 0 0 0 0 0 0 0 0 0 0 0 0 0 0 0 1.47884e-07 5.91534e-07 1.33095e-06 2.36614e-06 3.69709e-06 5.32381e-06 7.24629e-06 9.46455e-06 1.20238e-05 1.49692e-05 1.83009e-05 2.20188e-05 2.61229e-05 3.06132e-05 3.54898e-05 4.07525e-05 4.62564e-05 5.18562e-05 5.75521e-05 6.33439e-05 6.92318e-05 7.52156e-05 8.12955e-05 8.74714e-05 9.36091e-05 9.95746e-05 0.000105368 0.000110989 0.000116437 0.000121713 0.000126817 0.000131749 0.000136451 0.000140867 0.000144996 0.000148838 0.000152394 0.000155663 0.000158645 0.000161341 0.000163755 0.000165894 0.000167756 0.000169342 0.000170652 0.000171685 0.000172443 0.000172925 0.000173168 0.000173212 0.000173056 0.000172701 0.000172145 0.00017139 0.000170435 0.00016928 0.000167968 0.00016654 0.000164997 0.000163339 0.000161565 0.000159676 0.000157672 0.000155552 0.000153346 0.00015108 0.000148755 0.00014637 0.000143927 0.000141425 0.000138864 0.000136243 0.000133575 0.000130869 0.000128126 0.000125345 0.000122527 0.000119671 0.000116778 0.000113848 0.000110883 0.000107885 0.000104854 0.00010179 9.86929e-05 9.55632e-05 9.24008e-05 8.92054e-05 8.59844e-05 8.27448e-05 7.94867e-05 7.621e-05 7.29148e-05 6.9601e-05 6.62686e-05 6.29177e-05 5.95714e-05 5.62529e-05 5.29622e-05 4.96993e-05 4.64642e-05 4.3257e-05 4.00775e-05 3.69258e-05 3.38442e-05 3.08747e-05 2.80174e-05 2.52723e-05 2.26394e-05 2.01186e-05 1.77101e-05 1.54137e-05 1.32631e-05 1.12916e-05 9.4994e-06 7.88637e-06 6.45255e-06 5.19794e-06 4.12254e-06 3.22635e-06 2.47017e-06 1.81482e-06 1.26029e-06 8.06587e-07 4.53705e-07 2.01647e-07 5.04117e-08 0 0 5.91534e-07 2.36614e-06 5.32381e-06 9.46455e-06 1.47884e-05 2.12952e-05 2.89852e-05 3.78582e-05 4.80952e-05 5.9877e-05 7.32037e-05 8.80752e-05 0.000104492 0.000122453 0.000141959 0.00016301 0.000185025 0.000207425 0.000230208 0.000253376 0.000276927 0.000300863 0.000325182 0.000349886 0.000374436 0.000398298 0.000421471 0.000443954 0.000465749 0.000486854 0.00050727 0.000526997 0.000545806 0.000563468 0.000579984 0.000595353 0.000609576 0.000622652 0.000634581 0.000645364 0.000655021 0.000663574 0.000671023 0.000677367 0.000682606 0.000686741 0.000689772 0.000691698 0.000692673 0.000692848 0.000692225 0.000690802 0.000688581 0.00068556 0.00068174 0.000677121 0.000671872 0.000666162 0.00065999 0.000653357 0.000646262 0.000638706 0.000630689 0.00062221 0.000613382 0.000604318 0.000595018 0.000585482 0.000575709 0.0005657 0.000555455 0.000544974 0.0005343 0.000523476 0.000512502 0.000501379 0.000490107 0.000478685 0.000467114 0.000455393 0.000443531 0.000431538 0.000419414 0.000407159 0.000394771 0.000382253 0.000369603 0.000356822 0.000343938 0.000330979 0.000317947 0.00030484 0.000291659 0.000278404 0.000265074 0.000251671 0.000238285 0.000225012 0.000211849 0.000198797 0.000185857 0.000173028 0.00016031 0.000147703 0.000135377 0.000123499 0.00011207 0.000101089 9.05575e-05 8.04745e-05 7.08404e-05 6.1655e-05 5.30523e-05 4.51665e-05 3.79976e-05 3.15455e-05 2.58102e-05 2.07918e-05 1.64902e-05 1.29054e-05 9.88069e-06 7.25928e-06 5.04117e-06 3.22635e-06 1.81482e-06 8.06587e-07 2.01647e-07 0 0 1.33095e-06 5.32381e-06 1.19786e-05 2.12952e-05 3.32738e-05 4.79143e-05 6.52166e-05 8.51809e-05 0.000108214 0.000134723 0.000164708 0.000198169 0.000235106 0.000275519 0.000319408 0.000366772 0.000416307 0.000466706 0.000517969 0.000570095 0.000623086 0.000676941 0.00073166 0.000787242 0.000842482 0.000896171 0.000948309 0.000998897 0.00104793 0.00109542 0.00114136 0.00118574 0.00122806 0.0012678 0.00130496 0.00133955 0.00137155 0.00140097 0.00142781 0.00145207 0.0014738 0.00149304 0.0015098 0.00152408 0.00153586 0.00154517 0.00155199 0.00155632 0.00155851 0.00155891 0.00155751 0.0015543 0.00154931 0.00154251 0.00153391 0.00152352 0.00151171 0.00149886 0.00148498 0.00147005 0.00145409 0.00143709 0.00141905 0.00139997 0.00138011 0.00135972 0.00133879 0.00131733 0.00129535 0.00127283 0.00124977 0.00122619 0.00120217 0.00117782 0.00115313 0.0011281 0.00110274 0.00107704 0.00105101 0.00102463 0.000997945 0.000970961 0.000943682 0.000916107 0.000888236 0.000860069 0.000831607 0.000802849 0.00077386 0.000744704 0.00071538 0.00068589 0.000656233 0.000626409 0.000596417 0.000566259 0.000536142 0.000506276 0.00047666 0.000447294 0.000418178 0.000389313 0.000360697 0.000332332 0.000304597 0.000277872 0.000252156 0.000227451 0.000203754 0.000181068 0.000159391 0.000138724 0.000119368 0.000101625 8.54946e-05 7.09773e-05 5.8073e-05 4.67815e-05 3.71029e-05 2.90371e-05 2.22316e-05 1.63334e-05 1.13426e-05 7.25928e-06 4.08335e-06 1.81482e-06 4.53705e-07 0 0 2.36614e-06 9.46455e-06 2.12952e-05 3.78582e-05 5.91534e-05 8.51809e-05 0.000115941 0.000151433 0.000192381 0.000239508 0.000292815 0.000352301 0.000417967 0.000489812 0.000567836 0.00065204 0.000740102 0.000829699 0.000920833 0.0010135 0.00110771 0.00120345 0.00130073 0.00139954 0.00149775 0.00159319 0.00168588 0.00177582 0.00186299 0.00194742 0.00202908 0.00210799 0.00218322 0.00225387 0.00231994 0.00238141 0.0024383 0.00249061 0.00253833 0.00258146 0.00262009 0.0026543 0.00268409 0.00270947 0.00273042 0.00274697 0.00275909 0.00276679 0.00277069 0.00277139 0.0027689 0.00276321 0.00275432 0.00274224 0.00272696 0.00270848 0.00268749 0.00266465 0.00263996 0.00261343 0.00258505 0.00255482 0.00252275 0.00248884 0.00245353 0.00241727 0.00238007 0.00234193 0.00230284 0.0022628 0.00222182 0.0021799 0.0021372 0.0020939 0.00205001 0.00200552 0.00196043 0.00191474 0.00186845 0.00182157 0.00177413 0.00172615 0.00167766 0.00162863 0.00157909 0.00152901 0.00147841 0.00142729 0.00137575 0.00132392 0.00127179 0.00121936 0.00116664 0.00111362 0.0010603 0.00100668 0.000953142 0.000900046 0.000847395 0.000795189 0.000743428 0.000692111 0.00064124 0.000590813 0.000541507 0.000493995 0.000448278 0.000404357 0.00036223 0.000321898 0.000283361 0.00024662 0.000212209 0.000180666 0.00015199 0.000126182 0.000103241 8.3167e-05 6.59606e-05 5.16216e-05 3.95228e-05 2.90371e-05 2.01647e-05 1.29054e-05 7.25928e-06 3.22635e-06 8.06587e-07 0 0 3.69709e-06 1.47884e-05 3.32738e-05 5.91534e-05 9.24272e-05 0.000133095 0.000181157 0.000236614 0.000300595 0.000374231 0.000457523 0.00055047 0.000653073 0.000765331 0.000887244 0.00101881 0.00115641 0.00129641 0.0014388 0.0015836 0.00173079 0.00188039 0.00203239 0.00218678 0.00234023 0.00248936 0.00263419 0.00277471 0.00291093 0.00304284 0.00317044 0.00329373 0.00341129 0.00352168 0.0036249 0.00372096 0.00380985 0.00389158 0.00396613 0.00403353 0.00409388 0.00414734 0.00419389 0.00423354 0.00426629 0.00429213 0.00431108 0.00432311 0.00432921 0.0043303 0.00432641 0.00431751 0.00430363 0.00428475 0.00426087 0.00423201 0.0041992 0.00416351 0.00412494 0.00408348 0.00403914 0.00399191 0.0039418 0.00388881 0.00383364 0.00377699 0.00371886 0.00365926 0.00359818 0.00353563 0.00347159 0.00340609 0.00333937 0.00327172 0.00320314 0.00313362 0.00306317 0.00299178 0.00291946 0.0028462 0.00277207 0.00269712 0.00262134 0.00254474 0.00246732 0.00238908 0.00231002 0.00223014 0.00214961 0.00206862 0.00198717 0.00190525 0.00182287 0.00174002 0.00165671 0.00157294 0.00148928 0.00140632 0.00132405 0.00124248 0.00116161 0.00108142 0.00100194 0.000923146 0.000846104 0.000771867 0.000700435 0.000631807 0.000565984 0.000502966 0.000442752 0.000385343 0.000331577 0.000282291 0.000237485 0.000197159 0.000161314 0.000129949 0.000103063 8.06587e-05 6.17543e-05 4.53705e-05 3.15073e-05 2.01647e-05 1.13426e-05 5.04117e-06 1.26029e-06 0 0 5.32381e-06 2.12952e-05 4.79143e-05 8.51809e-05 0.000133095 0.000191657 0.000260867 0.000340724 0.000432856 0.000538893 0.000658833 0.000792677 0.000940425 0.00110208 0.00127763 0.00146709 0.00166523 0.00186682 0.00207187 0.00228038 0.00249234 0.00270776 0.00292664 0.00314897 0.00336993 0.00358468 0.00379324 0.00399559 0.00419174 0.00438169 0.00456543 0.00474297 0.00491225 0.00507122 0.00521986 0.00535818 0.00548618 0.00560387 0.00571123 0.00580828 0.00589519 0.00597217 0.0060392 0.0060963 0.00614346 0.00618067 0.00620795 0.00622529 0.00623406 0.00623564 0.00623002 0.00621722 0.00619722 0.00617004 0.00613566 0.00609409 0.00604685 0.00599545 0.00593991 0.00588021 0.00581636 0.00574835 0.0056762 0.00559989 0.00552044 0.00543886 0.00535516 0.00526934 0.00518138 0.0050913 0.0049991 0.00490476 0.0048087 0.00471128 0.00461252 0.00451242 0.00441096 0.00430817 0.00420402 0.00409853 0.00399178 0.00388385 0.00377473 0.00366443 0.00355294 0.00344028 0.00332643 0.0032114 0.00309544 0.00297881 0.00286152 0.00274356 0.00262493 0.00250563 0.00238567 0.00226504 0.00214457 0.0020251 0.00190664 0.00178918 0.00167271 0.00155725 0.00144279 0.00132933 0.00121839 0.00111149 0.00100863 0.000909802 0.000815017 0.000724271 0.000637563 0.000554895 0.000477471 0.000406499 0.000341978 0.000283909 0.000232292 0.000187126 0.000148411 0.000116149 8.89262e-05 6.53335e-05 4.53705e-05 2.90371e-05 1.63334e-05 7.25928e-06 1.81482e-06 0 0 7.24629e-06 2.89852e-05 6.52166e-05 0.000115941 0.000181157 0.000260867 0.000355068 0.000463763 0.000589166 0.000733493 0.000896745 0.00107892 0.00128002 0.00150005 0.001739 0.00199687 0.00226656 0.00254095 0.00282005 0.00310385 0.00339236 0.00368557 0.00398348 0.0042861 0.00458685 0.00487915 0.00516302 0.00543844 0.00570542 0.00596396 0.00621406 0.00645571 0.00668612 0.00690249 0.00710481 0.00729308 0.00746731 0.00762749 0.00777362 0.00790571 0.00802401 0.00812878 0.00822003 0.00829774 0.00836193 0.00841258 0.00844971 0.0084733 0.00848524 0.00848739 0.00847975 0.00846233 0.00843511 0.00839811 0.00835131 0.00829473 0.00823043 0.00816048 0.00808487 0.00800362 0.00791671 0.00782415 0.00772593 0.00762207 0.00751393 0.0074029 0.00728897 0.00717215 0.00705244 0.00692983 0.00680433 0.00667593 0.00654517 0.00641258 0.00627815 0.0061419 0.00600381 0.00586389 0.00572214 0.00557856 0.00543326 0.00528635 0.00513782 0.00498769 0.00483595 0.0046826 0.00452764 0.00437107 0.00421324 0.0040545 0.00389485 0.00373429 0.00357282 0.00341045 0.00324716 0.00308297 0.002919 0.00275639 0.00259515 0.00243527 0.00227675 0.00211959 0.0019638 0.00180937 0.00165836 0.00151286 0.00137285 0.00123834 0.00110933 0.000985813 0.000867795 0.000755273 0.000649891 0.00055329 0.000465471 0.000386432 0.000316175 0.000254699 0.000202004 0.000158091 0.000121038 8.89262e-05 6.17543e-05 3.95228e-05 2.22316e-05 9.88069e-06 2.47017e-06 0 0 9.46455e-06 3.78582e-05 8.51809e-05 0.000151433 0.000236614 0.000340724 0.000463763 0.000605731 0.000769523 0.000958032 0.00117126 0.0014092 0.00167187 0.00195925 0.00227134 0.00260816 0.00296041 0.0033188 0.00368333 0.00405401 0.00443083 0.0048138 0.00520291 0.00559817 0.00599098 0.00637277 0.00674353 0.00710327 0.00745198 0.00778966 0.00811632 0.00843195 0.0087329 0.00901549 0.00927975 0.00952566 0.00975322 0.00996243 0.0101533 0.0103258 0.0104803 0.0106172 0.0107364 0.0108379 0.0109217 0.0109879 0.0110364 0.0110672 0.0110828 0.0110856 0.0110756 0.0110528 0.0110173 0.010969 0.0109078 0.0108339 0.01075 0.0106586 0.0105598 0.0104537 0.0103402 0.0102193 0.010091 0.00995536 0.00981411 0.00966909 0.00952029 0.00936771 0.00921135 0.00905121 0.00888728 0.00871958 0.00854879 0.00837561 0.00820004 0.00802207 0.00784171 0.00765896 0.00747382 0.00728628 0.0070965 0.00690461 0.00671063 0.00651454 0.00631634 0.00611605 0.00591365 0.00570915 0.005503 0.00529567 0.00508715 0.00487744 0.00466654 0.00445446 0.00424119 0.00402673 0.00381257 0.00360018 0.00338958 0.00318076 0.00297371 0.00276845 0.00256496 0.00236325 0.00216603 0.00197598 0.00179311 0.00161743 0.00144892 0.00128759 0.00113345 0.000986479 0.000848837 0.000722665 0.000607961 0.000504728 0.000412963 0.000332668 0.000263843 0.000206486 0.000158091 0.000116149 8.06587e-05 5.16216e-05 2.90371e-05 1.29054e-05 3.22635e-06 0 0 1.20556e-05 4.82225e-05 0.000108501 0.00019289 0.000301391 0.000434003 0.000590726 0.00077156 0.000980048 0.00121973 0.00149061 0.00179269 0.00212596 0.00249043 0.0028861 0.00331296 0.00375928 0.00421331 0.00467505 0.00514451 0.00562169 0.00610658 0.00659918 0.0070995 0.0075967 0.00807998 0.00854931 0.00900471 0.00944617 0.0098737 0.0102873 0.0106869 0.011068 0.011426 0.0117607 0.0120722 0.0123605 0.0126257 0.0128677 0.0130864 0.0132825 0.0134561 0.0136074 0.0137363 0.0138429 0.0139271 0.013989 0.0140285 0.0140488 0.0140528 0.0140406 0.0140122 0.0139677 0.0139069 0.0138299 0.0137367 0.0136308 0.0135154 0.0133907 0.0132565 0.013113 0.0129602 0.0127979 0.0126263 0.0124475 0.0122639 0.0120755 0.0118823 0.0116843 0.0114814 0.0112738 0.0110613 0.0108448 0.0106253 0.0104028 0.0101772 0.00994855 0.00971685 0.00948211 0.00924431 0.00900365 0.00876033 0.00851434 0.00826569 0.00801438 0.0077604 0.00750375 0.00724444 0.00698305 0.00672017 0.00645579 0.00618992 0.00592255 0.00565369 0.00538334 0.00511149 0.00484003 0.00457082 0.00430386 0.00403916 0.00377672 0.00351654 0.00325861 0.00300294 0.00275292 0.00251197 0.00228008 0.00205726 0.0018435 0.0016388 0.00144316 0.00125658 0.00108179 0.000921495 0.000775699 0.000644402 0.000527604 0.000425305 0.000337506 0.000264205 0.000202282 0.000148615 0.000103205 6.60512e-05 3.71538e-05 1.65128e-05 4.1282e-06 0 0 1.50966e-05 6.03864e-05 0.000135869 0.000241546 0.000377415 0.000543478 0.000739733 0.000966182 0.00122686 0.00152582 0.00186305 0.00223855 0.00265232 0.00310437 0.00359468 0.00412328 0.00467568 0.00523744 0.00580855 0.00638901 0.00697883 0.007578 0.00818652 0.0088044 0.00941837 0.0100152 0.0105949 0.0111574 0.0117028 0.012231 0.0127421 0.013236 0.013707 0.0141496 0.0145636 0.014949 0.0153059 0.0156343 0.0159341 0.0162054 0.0164486 0.0166643 0.0168523 0.0170128 0.0171457 0.0172511 0.0173288 0.017379 0.0174054 0.0174117 0.0173979 0.0173641 0.0173102 0.0172362 0.0171422 0.0170281 0.0168982 0.0167565 0.0166032 0.0164382 0.0162615 0.0160731 0.015873 0.0156613 0.0154406 0.0152139 0.0149812 0.0147424 0.0144975 0.0142465 0.0139895 0.0137265 0.0134585 0.0131867 0.012911 0.0126315 0.0123482 0.012061 0.0117701 0.0114752 0.0111769 0.0108752 0.0105702 0.0102619 0.00995031 0.00963543 0.00931724 0.00899575 0.0086717 0.00834583 0.00801815 0.00768864 0.00735731 0.00702417 0.0066892 0.00635241 0.00601612 0.00568262 0.00535191 0.00502401 0.0046989 0.00437659 0.00405707 0.00374036 0.0034306 0.00313196 0.00284444 0.00256805 0.00230277 0.00204861 0.00180558 0.00157366 0.00135623 0.00115665 0.000974931 0.000811062 0.000665046 0.000536883 0.000426574 0.000334118 0.000255809 0.000187941 0.000130515 8.35294e-05 4.69853e-05 2.08824e-05 5.22059e-06 0 0 1.85875e-05 7.43498e-05 0.000167287 0.000297399 0.000464687 0.000669149 0.000910786 0.0011896 0.00150997 0.00187629 0.00228856 0.00274677 0.00325094 0.00380105 0.00439711 0.00503911 0.00570962 0.00639119 0.00708382 0.00778751 0.00850226 0.00922807 0.00996494 0.0107129 0.011456 0.0121784 0.0128802 0.0135613 0.0142218 0.0148615 0.0154806 0.016079 0.0166499 0.0171864 0.0176884 0.0181561 0.0185893 0.0189882 0.0193526 0.0196827 0.0199789 0.0202417 0.0204712 0.0206673 0.0208302 0.0209597 0.0210558 0.0211186 0.0211526 0.0211622 0.0211474 0.0211083 0.0210448 0.0209569 0.0208447 0.0207081 0.0205522 0.020382 0.0201975 0.0199987 0.0197856 0.0195582 0.0193164 0.0190604 0.0187935 0.0185191 0.0182372 0.0179478 0.0176509 0.0173465 0.0170346 0.0167153 0.0163898 0.0160596 0.0157247 0.0153851 0.0150407 0.0146915 0.0143377 0.0139791 0.0136161 0.0132491 0.0128782 0.0125032 0.0121241 0.0117411 0.0113541 0.0109631 0.0105689 0.0101727 0.00977421 0.0093736 0.00897082 0.00856587 0.00815876 0.00774949 0.00734084 0.00693558 0.00653374 0.00613529 0.00574024 0.0053486 0.00496036 0.00457552 0.00419906 0.00383595 0.00348619 0.00314979 0.00282674 0.00251704 0.0022207 0.00193771 0.00167216 0.00142814 0.00120566 0.00100471 0.000825288 0.000667401 0.000531047 0.000416224 0.000318672 0.000234126 0.000162588 0.000104056 5.85316e-05 2.6014e-05 6.50351e-06 0 0 2.25282e-05 9.01129e-05 0.000202754 0.000360451 0.000563205 0.000811016 0.00110388 0.00144181 0.00182937 0.00227115 0.00276715 0.00331737 0.00392182 0.00458048 0.00529336 0.00606046 0.00686109 0.00767456 0.00850086 0.00934 0.010192 0.0110568 0.0119344 0.0128249 0.0137096 0.0145697 0.0154054 0.0162165 0.0170032 0.0177653 0.0185029 0.0192161 0.0198966 0.0205363 0.0211353 0.0216934 0.0222108 0.0226874 0.0231232 0.0235183 0.0238731 0.0241884 0.0244639 0.0246999 0.0248962 0.0250529 0.0251699 0.0252473 0.0252904 0.0253043 0.0252891 0.0252449 0.0251715 0.025069 0.0249374 0.0247768 0.0245929 0.0243918 0.0241735 0.023938 0.0236853 0.0234153 0.0231281 0.0228236 0.022506 0.0221793 0.0218435 0.0214986 0.0211445 0.0207813 0.0204091 0.0200277 0.0196388 0.0192442 0.0188439 0.0184378 0.0180259 0.0176083 0.017185 0.0167558 0.0163214 0.0158822 0.0154382 0.0149895 0.0145359 0.0140775 0.0136144 0.0131464 0.0126748 0.0122007 0.011724 0.0112448 0.0107631 0.0102788 0.00979204 0.00930273 0.00881419 0.00832972 0.00784933 0.007373 0.00690075 0.00643257 0.00596846 0.00550842 0.00505829 0.00462393 0.00420532 0.00380248 0.0034154 0.00304408 0.00268852 0.00234872 0.00202957 0.00173596 0.00146788 0.00122534 0.00100833 0.00081686 0.000650925 0.000510525 0.000390871 0.000287171 0.000199424 0.000127631 7.17926e-05 3.19078e-05 7.97696e-06 0 0 2.69189e-05 0.000107675 0.00024227 0.000430702 0.000672971 0.000969079 0.00131902 0.00172281 0.00218505 0.00271039 0.00329882 0.00395034 0.00466495 0.00544266 0.00628345 0.00718733 0.0081301 0.00908755 0.0100597 0.0110465 0.012048 0.0130642 0.014095 0.0151405 0.0161791 0.017189 0.0181703 0.0191229 0.0200469 0.0209423 0.0218091 0.0226472 0.0234471 0.0241994 0.0249041 0.025561 0.0261703 0.026732 0.0272459 0.0277122 0.0281315 0.0285043 0.0288306 0.0291104 0.0293438 0.0295307 0.0296712 0.0297652 0.0298188 0.0298381 0.0298231 0.0297739 0.0296904 0.0295725 0.0294204 0.029234 0.0290202 0.028786 0.0285313 0.0282561 0.0279605 0.0276445 0.027308 0.026951 0.0265783 0.0261948 0.0258002 0.0253948 0.0249784 0.024551 0.0241128 0.0236636 0.0232055 0.0227405 0.0222686 0.0217897 0.021304 0.0208114 0.0203119 0.0198055 0.0192928 0.0187744 0.0182504 0.0177208 0.0171855 0.0166446 0.016098 0.0155458 0.0149892 0.0144298 0.0138675 0.0133022 0.0127341 0.012163 0.011589 0.0110121 0.0104362 0.00986503 0.00929869 0.00873716 0.00818043 0.0076285 0.00708137 0.00653905 0.00600831 0.0054959 0.00500185 0.00452613 0.00406876 0.00362973 0.00320905 0.00280671 0.00242847 0.0020801 0.0017616 0.00147295 0.00121417 0.000985259 0.000786208 0.00061702 0.000472406 0.000347074 0.000241024 0.000154255 8.67685e-05 3.85638e-05 9.64094e-06 0 0 3.17594e-05 0.000127038 0.000285834 0.00050815 0.000793985 0.00114334 0.00155621 0.0020326 0.00257703 0.00319402 0.00388357 0.00464568 0.00548035 0.00638758 0.00736737 0.00841972 0.00951665 0.0106302 0.0117603 0.012907 0.0140703 0.0152502 0.0164467 0.0176597 0.0188646 0.0200363 0.021175 0.0222806 0.0233531 0.0243926 0.025399 0.0263723 0.0273015 0.0281757 0.0289948 0.0297589 0.0304679 0.0311218 0.0317207 0.0322645 0.0327539 0.0331894 0.0335711 0.033899 0.034173 0.0343932 0.0345596 0.0346721 0.0347378 0.0347636 0.0347494 0.0346953 0.0346013 0.0344674 0.0342936 0.0340798 0.0338341 0.0335645 0.0332708 0.0329531 0.0326114 0.0322458 0.0318561 0.0314425 0.0310104 0.0305653 0.0301073 0.0296364 0.0291525 0.0286556 0.0281458 0.0276231 0.0270898 0.0265483 0.0259987 0.0254409 0.0248749 0.0243008 0.0237185 0.023128 0.0225302 0.0219258 0.0213148 0.0206972 0.0200731 0.0194423 0.018805 0.0181611 0.0175123 0.0168601 0.0162047 0.0155459 0.0148838 0.0142184 0.0135497 0.0128777 0.0122068 0.0115415 0.0108818 0.0102277 0.00957927 0.00893639 0.00829911 0.00766743 0.0070491 0.00645188 0.00587575 0.00532073 0.00478681 0.004274 0.00378228 0.00331167 0.00286886 0.00246058 0.00208681 0.00174755 0.00144282 0.0011726 0.000936895 0.00073571 0.000563278 0.000413837 0.000287387 0.000183927 0.000103459 4.59818e-05 1.14955e-05 0 0 3.70498e-05 0.000148199 0.000333448 0.000592797 0.000926245 0.00133379 0.00181544 0.00237119 0.0030053 0.00372204 0.0045214 0.00540339 0.00636801 0.00741526 0.00854513 0.00975763 0.0110207 0.0123024 0.0136026 0.0149215 0.0162589 0.0176148 0.0189894 0.0203825 0.021766 0.0231116 0.0244195 0.0256895 0.0269217 0.0281161 0.0292727 0.0303914 0.0314598 0.0324652 0.0334076 0.034287 0.0351035 0.035857 0.0365475 0.0371751 0.0377403 0.0382438 0.0386856 0.0390656 0.0393838 0.0396404 0.0398352 0.0399682 0.0400474 0.0400806 0.0400679 0.0400091 0.0399044 0.0397537 0.039557 0.0393143 0.0390347 0.0387273 0.038392 0.0380289 0.037638 0.0372192 0.0367726 0.0362981 0.0358021 0.035291 0.0347648 0.0342233 0.0336668 0.033095 0.0325082 0.0319061 0.0312918 0.0306678 0.0300343 0.0293913 0.0287387 0.0280765 0.0274048 0.0267235 0.0260337 0.0253362 0.0246312 0.0239187 0.0231985 0.0224707 0.0217354 0.0209925 0.0202439 0.0194916 0.0187356 0.0179758 0.0172123 0.0164451 0.0156741 0.0148994 0.014126 0.0133592 0.0125987 0.0118448 0.0110973 0.0103562 0.00962166 0.00889355 0.00818068 0.00749185 0.00682705 0.00618629 0.00556956 0.00497687 0.00440822 0.0038636 0.00335074 0.00287738 0.00244351 0.00204914 0.00169426 0.00137888 0.00110299 0.000866593 0.000663485 0.000487458 0.000338513 0.000216648 0.000121865 5.41621e-05 1.35405e-05 0 0 4.27901e-05 0.00017116 0.000385111 0.000684642 0.00106975 0.00154044 0.00209672 0.00273857 0.00346986 0.00429444 0.00521231 0.00622347 0.00732793 0.00852568 0.00981672 0.0112011 0.0126423 0.0141043 0.0155868 0.01709 0.0186137 0.0201581 0.0217232 0.0233088 0.0248833 0.026415 0.0279038 0.0293497 0.0307527 0.0321129 0.0334302 0.0347046 0.0359219 0.0370678 0.0381423 0.0391454 0.0400772 0.0409375 0.0417265 0.0424441 0.0430909 0.0436675 0.0441739 0.0446102 0.0449763 0.0452722 0.0454979 0.0456534 0.0457477 0.0457894 0.0457786 0.0457153 0.0455996 0.0454313 0.0452106 0.0449374 0.0446219 0.0442744 0.043895 0.0434835 0.0430401 0.0425646 0.0420572 0.0415178 0.0409536 0.0403719 0.0397726 0.0391557 0.0385213 0.0378694 0.0371998 0.0365128 0.0358114 0.0350989 0.0343754 0.0336408 0.0328952 0.0321385 0.0313707 0.0305919 0.0298032 0.0290058 0.0281998 0.0273851 0.0265618 0.0257298 0.0248892 0.0240399 0.0231842 0.0223243 0.0214602 0.020592 0.0197196 0.018843 0.0179622 0.0170773 0.0161939 0.015318 0.0144494 0.0135882 0.0127344 0.011888 0.011049 0.0102174 0.00940303 0.00861581 0.00785573 0.0071228 0.00641701 0.00573836 0.00508686 0.0044625 0.00387411 0.00333051 0.00283171 0.00237771 0.00196851 0.0016041 0.00128449 0.00100967 0.000773029 0.000567939 0.000394402 0.000252418 0.000141985 6.31044e-05 1.57761e-05 0 0 4.88804e-05 0.000195521 0.000439923 0.000782086 0.00122201 0.00175969 0.00239514 0.00312834 0.00396262 0.0049013 0.00594436 0.00709181 0.00834365 0.00969989 0.0111605 0.0127255 0.0143541 0.0160053 0.0176792 0.0193758 0.0210951 0.0228371 0.0246018 0.0263891 0.0281638 0.0298902 0.0315686 0.0331987 0.0347808 0.0363146 0.0378004 0.0392379 0.0406114 0.0419046 0.0431177 0.0442507 0.0453035 0.0462761 0.0471686 0.047981 0.0487137 0.0493675 0.0499423 0.050438 0.0508548 0.0511926 0.0514514 0.0516311 0.0517418 0.0517931 0.051785 0.0517177 0.051591 0.051405 0.0511596 0.050855 0.0505024 0.0501135 0.0496882 0.0492265 0.0487284 0.048194 0.0476231 0.0470158 0.0463803 0.0457247 0.045049 0.0443531 0.0436371 0.042901 0.0421447 0.0413684 0.0405756 0.0397702 0.0389521 0.0381213 0.0372778 0.0364217 0.0355529 0.0346714 0.0337786 0.0328761 0.0319638 0.0310417 0.0301098 0.0291681 0.0282166 0.0272553 0.0262868 0.0253137 0.0243359 0.0233536 0.0223665 0.0213749 0.0203786 0.0193778 0.0183787 0.0173881 0.0164057 0.0154317 0.0144661 0.0135088 0.0125599 0.0116193 0.0106981 0.00980727 0.00894678 0.00811665 0.00731689 0.00654749 0.00580845 0.00509978 0.00443146 0.00381349 0.00324586 0.00272858 0.00226164 0.00184505 0.00147881 0.00116291 0.00089035 0.000654135 0.00045426 0.000290727 0.000163534 7.26816e-05 1.81704e-05 0 0 5.52206e-05 0.000220882 0.000496985 0.000883529 0.00138051 0.00198794 0.00270581 0.00353412 0.00447552 0.00553269 0.00670561 0.00799429 0.00939872 0.0109189 0.0125549 0.0143066 0.0161285 0.0179752 0.0198465 0.0217426 0.0236633 0.0256088 0.027579 0.0295739 0.0315543 0.0334812 0.0353546 0.0371743 0.0389405 0.0406531 0.0423122 0.0439176 0.0454518 0.0468968 0.0482527 0.0495195 0.0506971 0.0517857 0.0527851 0.0536955 0.0545172 0.055251 0.0558967 0.0564543 0.056924 0.0573056 0.0575992 0.0578047 0.0579331 0.0579951 0.0579907 0.0579199 0.0577827 0.0575792 0.0573093 0.056973 0.0565831 0.0561522 0.0556803 0.0551674 0.0546136 0.0540188 0.0533831 0.0527064 0.0519978 0.0512664 0.0505121 0.049735 0.0489351 0.0481124 0.0472669 0.0463985 0.0455115 0.0446102 0.0436944 0.0427643 0.0418199 0.040861 0.0398878 0.0389002 0.0378999 0.0368886 0.0358664 0.0348332 0.033789 0.0327339 0.0316678 0.0305907 0.0295056 0.0284154 0.0273201 0.0262198 0.0251143 0.0240037 0.0228881 0.0217674 0.0206488 0.0195395 0.0184395 0.0173489 0.0162676 0.0151957 0.014133 0.0130797 0.0120479 0.0110497 0.0100852 0.00915425 0.00825695 0.00739329 0.00656326 0.00576686 0.00501531 0.00431983 0.0036804 0.00309705 0.00256975 0.00209853 0.00168336 0.00132427 0.00101389 0.000744899 0.000517291 0.000331066 0.000186225 8.27666e-05 2.06916e-05 0 0 6.18107e-05 0.000247243 0.000556297 0.000988972 0.00154527 0.00222519 0.00302873 0.00395589 0.00500856 0.00618861 0.00749607 0.00893091 0.0104931 0.0121828 0.0139998 0.0159442 0.0179656 0.0200138 0.0220886 0.0241901 0.0263183 0.0284732 0.0306548 0.032863 0.0350551 0.037188 0.0392618 0.0412764 0.0432319 0.0451283 0.0469656 0.0487437 0.0504431 0.0520442 0.0535471 0.0549518 0.0562581 0.0574662 0.058576 0.0595876 0.0605014 0.0613179 0.0620372 0.0626591 0.0631838 0.0636112 0.0639413 0.0641742 0.0643216 0.0643953 0.0643955 0.0643219 0.0641748 0.063954 0.0636596 0.0632916 0.0628638 0.0623904 0.0618712 0.0613063 0.0606957 0.0600393 0.0593373 0.0585895 0.057806 0.0569968 0.056162 0.0553016 0.0544154 0.0535036 0.0525662 0.0516031 0.050619 0.0496189 0.0486025 0.04757 0.0465213 0.0454565 0.0443754 0.0432783 0.0421669 0.0410434 0.0399077 0.0387597 0.0375996 0.0364273 0.0352428 0.0340462 0.0328406 0.0316295 0.0304128 0.0291906 0.0279628 0.0267295 0.0254906 0.0242461 0.023004 0.0217723 0.0205508 0.0193397 0.018139 0.0169485 0.0157684 0.0145986 0.0134524 0.0123432 0.0112709 0.0102356 0.00923719 0.00827576 0.00735128 0.00646374 0.00562566 0.00484953 0.00413535 0.00348312 0.00289285 0.00236453 0.00189816 0.00149375 0.00114365 0.000840233 0.000583495 0.000373437 0.000210058 9.33592e-05 2.33398e-05 0 0 6.86509e-05 0.000274604 0.000617858 0.00109841 0.00171627 0.00247143 0.00336389 0.00439366 0.00556172 0.00686907 0.00831572 0.00990167 0.0116269 0.0134914 0.0154953 0.0176384 0.0198655 0.0221212 0.0244055 0.0267185 0.0290601 0.0314303 0.0338291 0.0362566 0.038666 0.0410105 0.0432902 0.045505 0.047655 0.0497402 0.0517606 0.0537161 0.0555853 0.057347 0.0590011 0.0605475 0.0619864 0.0633177 0.0645413 0.0656573 0.0666662 0.0675683 0.0683637 0.0690524 0.0696343 0.0701094 0.0704778 0.0707395 0.0709072 0.0709939 0.0709994 0.0709239 0.0707672 0.0705294 0.0702105 0.0698105 0.0693447 0.0688281 0.068261 0.0676431 0.0669746 0.0662554 0.0654856 0.0646651 0.0638049 0.0629161 0.0619987 0.0610527 0.060078 0.0590747 0.0580427 0.0569821 0.0558982 0.0547962 0.0536762 0.0525382 0.0513821 0.050208 0.0490159 0.0478057 0.0465798 0.0453404 0.0440876 0.0428213 0.0415415 0.0402483 0.0389417 0.0376216 0.0362918 0.0349559 0.033614 0.0322661 0.0309121 0.0295521 0.028186 0.0268139 0.0254445 0.0240864 0.0227397 0.0214042 0.0200801 0.0187674 0.0174659 0.0161758 0.0149116 0.0136876 0.012504 0.0113606 0.0102576 0.00919491 0.00817251 0.00719042 0.0062625 0.00540259 0.00461069 0.0038868 0.00323092 0.00264305 0.0021232 0.00167135 0.00127963 0.000940136 0.000652872 0.000417838 0.000235034 0.00010446 2.61149e-05 0 0 7.5741e-05 0.000302964 0.000681669 0.00121186 0.00189353 0.00272668 0.00371131 0.00484742 0.00613501 0.00757407 0.00916459 0.0109066 0.0128 0.0148449 0.0170413 0.0193892 0.021828 0.0242974 0.0267973 0.0293277 0.0318886 0.0344801 0.0371021 0.0397546 0.042387 0.0449487 0.0474398 0.0498602 0.0522099 0.0544889 0.0566972 0.0588348 0.0608785 0.0628051 0.0646145 0.0663068 0.067882 0.06934 0.0706809 0.0719047 0.0730117 0.0740022 0.0748764 0.0756341 0.0762754 0.0768002 0.0772087 0.0775007 0.0776901 0.0777907 0.0778026 0.0777256 0.0775599 0.0773054 0.0769621 0.07653 0.0760256 0.0754655 0.0748496 0.0741778 0.0734503 0.0726671 0.071828 0.0709332 0.0699946 0.0690242 0.0680222 0.0669883 0.0659228 0.0648255 0.0636964 0.0625356 0.061349 0.0601423 0.0589157 0.057669 0.0564024 0.0551157 0.0538091 0.0524824 0.0511384 0.0497796 0.0484061 0.0470178 0.0456148 0.044197 0.0427644 0.0413171 0.0398591 0.0383946 0.0369236 0.0354461 0.0339621 0.0324716 0.0309745 0.0294709 0.0279702 0.0264819 0.025006 0.0235424 0.0220911 0.0206522 0.0192257 0.0178116 0.0164254 0.0150831 0.0137844 0.0125294 0.0113182 0.0101507 0.00902695 0.0079469 0.00692584 0.00597901 0.00510642 0.00430808 0.00358397 0.0029341 0.00235847 0.00185708 0.00142183 0.00104461 0.000725422 0.00046427 0.000261152 0.000116068 2.90169e-05 0 0 8.30811e-05 0.000332324 0.00074773 0.0013293 0.00207703 0.00299092 0.00407097 0.00531719 0.00672844 0.00830359 0.0100427 0.0119456 0.0140125 0.0162433 0.0186379 0.0211965 0.0238532 0.0265423 0.0292638 0.0320177 0.0348039 0.0376226 0.0404736 0.043357 0.0462182 0.0490028 0.0517106 0.0543418 0.0568964 0.0593742 0.0617754 0.0640999 0.0663226 0.0684185 0.0703875 0.0722296 0.0739449 0.0755334 0.0769949 0.0783297 0.0795378 0.0806196 0.0815751 0.0824043 0.0831071 0.0836837 0.0841339 0.0844578 0.0846701 0.0847859 0.0848049 0.0847273 0.0845529 0.0842819 0.0839143 0.0834499 0.0829067 0.0823024 0.081637 0.0809105 0.080123 0.0792743 0.0783646 0.0773938 0.076375 0.0753212 0.0742324 0.0731086 0.0719498 0.0707561 0.0695274 0.0682636 0.0669714 0.065657