<?xml version="1.0"?> 
<VTKFile type="StructuredGrid" version="0.1"> 
<StructuredGrid WholeExtent="0 128 0 128 0 0"> 
<Piece Extent="0 128 0 128 0 0"> 
<PointData>
<DataArray type="Float32" Name="u" format="ascii" NumberOfComponents="1"> 
0 0 0 0 0 0 0 0 0 0 0 0 0 0 0 0 0 0 0 0 0 0 0 0 0 0 0 0 0 0 0 0 0 0 0 0 0 0 0 0 0 0 0 0 0 0 0 0 0 0 0 0 0 0 0 0 0 0 0 0 0 0 0 0 0 0 0 0 0 0 0 0 0 0 0 0 0 0 0 0 0 0 0 0 0 0 0 0 0 0 0 0 0 0 0 0 0 0 0 0 0 0 0 0 0 0 0 0 0 0 0 0 0 0 0 0 0 0 0 0 0 0 0 0 0 0 0 0 0 0 1.93737e-07 7.7495e-07 1.74364e-06 3.0998e-06 4.84344e-06 6.97455e-06 9.49314e-06 1.23992e-05 1.57491e-05 1.95994e-05 2.39499e-05 2.88007e-05 3.41519e-05 4.00033e-05 4.6355e-05 5.3207e-05 6.03765e-05 6.76805e-05 7.51192e-05 8.26925e-05 9.04004e-05 9.82429e-05 0.00010622 0.000114332 0.000122407 0.000130276 0.000137937 0.000145392 0.00015264 0.000159681 0.000166514 0.000173141 0.00017948 0.000185451 0.000191052 0.000196285 0.000201149 0.000205644 0.00020977 0.000213528 0.000216911 0.000219912 0.000222533 0.000224771 0.000226629 0.000228106 0.000229201 0.000229915 0.000230287 0.000230355 0.000230119 0.00022958 0.000228738 0.000227592 0.000226143 0.00022439 0.000222387 0.00022019 0.000217798 0.000215211 0.000212429 0.000209452 0.000206279 0.000202912 0.000199398 0.000195786 0.000192076 0.000188267 0.000184359 0.000180354 0.000176249 0.000172047 0.000167779 0.00016348 0.00015915 0.000154788 0.000150395 0.00014597 0.000141514 0.000137026 0.000132528 0.000128039 0.000123561 0.000119092 0.000114634 0.000110186 0.000105748 0.00010132 9.69179e-05 9.25589e-05 8.82426e-05 8.3969e-05 7.97381e-05 7.55499e-05 7.14045e-05 6.73017e-05 6.32629e-05 5.93091e-05 5.54404e-05 5.16568e-05 4.79583e-05 4.43448e-05 4.08165e-05 3.73732e-05 3.40459e-05 3.08655e-05 2.7832e-05 2.49454e-05 2.22057e-05 1.9613e-05 1.71671e-05 1.48681e-05 1.27351e-05 1.07871e-05 9.02398e-06 7.44586e-06 6.05271e-06 4.84453e-06 3.82131e-06 2.98306e-06 2.28391e-06 1.67797e-06 1.16526e-06 7.45766e-07 4.19493e-07 1.86441e-07 4.66104e-08 0 0 7.7495e-07 3.0998e-06 6.97455e-06 1.23992e-05 1.93737e-05 2.78982e-05 3.79725e-05 4.95968e-05 6.29966e-05 7.83975e-05 9.57997e-05 0.000115203 0.000136607 0.000160013 0.00018542 0.000212828 0.000241506 0.000270722 0.000300477 0.00033077 0.000361601 0.000392971 0.00042488 0.000457327 0.000489629 0.000521103 0.00055175 0.000581568 0.000610559 0.000638722 0.000666058 0.000692565 0.000717921 0.000741802 0.000764208 0.000785139 0.000804595 0.000822576 0.000839082 0.000854112 0.000867643 0.000879649 0.00089013 0.000899086 0.000906517 0.000912423 0.000916804 0.00091966 0.000921146 0.000921419 0.000920477 0.000918322 0.000914952 0.000910368 0.000904571 0.000897559 0.00088955 0.000880761 0.000871193 0.000860844 0.000849715 0.000837807 0.000825118 0.000811649 0.000797594 0.000783145 0.000768303 0.000753067 0.000737437 0.000721414 0.000704997 0.000688187 0.000671117 0.000653922 0.0006366 0.000619153 0.000601579 0.00058388 0.000566055 0.000548104 0.00053011 0.000512157 0.000494243 0.00047637 0.000458537 0.000440744 0.000422991 0.000405279 0.000387672 0.000370236 0.00035297 0.000335876 0.000318952 0.0003022 0.000285618 0.000269207 0.000253052 0.000237236 0.000221762 0.000206627 0.000191833 0.000177379 0.000163266 0.000149493 0.000136183 0.000123462 0.000111328 9.97816e-05 8.88229e-05 7.84518e-05 6.86684e-05 5.94725e-05 5.09405e-05 4.31483e-05 3.60959e-05 2.97835e-05 2.42109e-05 1.93781e-05 1.52853e-05 1.19323e-05 9.13563e-06 6.71189e-06 4.66104e-06 2.98306e-06 1.67797e-06 7.45766e-07 1.86441e-07 0 0 1.74364e-06 6.97455e-06 1.56927e-05 2.78982e-05 4.35909e-05 6.27709e-05 8.54382e-05 0.000111593 0.000141742 0.000176394 0.000215549 0.000259207 0.000307367 0.00036003 0.000417195 0.000478863 0.000543388 0.000609125 0.000676073 0.000744232 0.000813603 0.000884186 0.00095598 0.00102899 0.00110166 0.00117248 0.00124144 0.00130853 0.00137376 0.00143713 0.00149863 0.00155827 0.00161532 0.00166905 0.00171947 0.00176656 0.00181034 0.0018508 0.00188793 0.00192175 0.0019522 0.00197921 0.00200279 0.00202294 0.00203966 0.00205295 0.00206281 0.00206923 0.00207258 0.00207319 0.00207107 0.00206622 0.00205864 0.00204833 0.00203528 0.00201951 0.00200149 0.00198171 0.00196018 0.0019369 0.00191186 0.00188506 0.00185652 0.00182621 0.00179459 0.00176208 0.00172868 0.0016944 0.00165923 0.00162318 0.00158624 0.00154842 0.00151001 0.00147132 0.00143235 0.00139309 0.00135355 0.00131373 0.00127362 0.00123323 0.00119275 0.00115235 0.00111205 0.00107183 0.00103171 0.000991674 0.00095173 0.000911877 0.000872261 0.00083303 0.000794183 0.000755721 0.000717643 0.000679949 0.00064264 0.000605716 0.000569366 0.000533782 0.000498964 0.000464911 0.000431625 0.000399104 0.000367348 0.000336359 0.000306413 0.000277789 0.000250488 0.000224509 0.000199851 0.000176517 0.000154504 0.000133813 0.000114616 9.70836e-05 8.12158e-05 6.70128e-05 5.44744e-05 4.36008e-05 3.43918e-05 2.68476e-05 2.05552e-05 1.51018e-05 1.04873e-05 6.71189e-06 3.77544e-06 1.67797e-06 4.19493e-07 0 0 3.0998e-06 1.23992e-05 2.78982e-05 4.95968e-05 7.7495e-05 0.000111593 0.00015189 0.000198387 0.000251986 0.00031359 0.000383199 0.000460812 0.00054643 0.000640053 0.00074168 0.000851312 0.000966023 0.00108289 0.00120191 0.00132308 0.00144641 0.00157189 0.00169952 0.00182931 0.00195852 0.00208441 0.002207 0.00232627 0.00244224 0.00255489 0.00266423 0.00277026 0.00287168 0.00296721 0.00305683 0.00314056 0.00321838 0.0032903 0.00335633 0.00341645 0.00347057 0.0035186 0.00356052 0.00359634 0.00362607 0.00364969 0.00366722 0.00367864 0.00368459 0.00368568 0.00368191 0.00367329 0.00365981 0.00364147 0.00361828 0.00359024 0.0035582 0.00352304 0.00348477 0.00344338 0.00339886 0.00335123 0.00330047 0.0032466 0.00319038 0.00313258 0.00307321 0.00301227 0.00294975 0.00288566 0.00281999 0.00275275 0.00268447 0.00261569 0.0025464 0.00247661 0.00240632 0.00233552 0.00226422 0.00219242 0.00212044 0.00204863 0.00197697 0.00190548 0.00183415 0.00176298 0.00169197 0.00162111 0.00155069 0.00148094 0.00141188 0.0013435 0.00127581 0.0012088 0.00114247 0.00107683 0.00101221 0.000948946 0.000887047 0.000826509 0.000767333 0.000709518 0.000653064 0.000597971 0.000544734 0.000493848 0.000445312 0.000399126 0.000355292 0.000313807 0.000274673 0.00023789 0.000203762 0.000172593 0.000144384 0.000119134 9.68434e-05 7.75125e-05 6.1141e-05 4.7729e-05 3.65425e-05 2.68476e-05 1.86441e-05 1.19323e-05 6.71189e-06 2.98306e-06 7.45766e-07 0 0 4.84344e-06 1.93737e-05 4.35909e-05 7.7495e-05 0.000121086 0.000174364 0.000237328 0.00030998 0.000393729 0.000489985 0.000598748 0.000720019 0.000853797 0.00100008 0.00115887 0.00133018 0.00150941 0.00169201 0.00187798 0.00206731 0.00226001 0.00245607 0.0026555 0.00285829 0.00306018 0.00325689 0.00344844 0.0036348 0.003816 0.00399201 0.00416286 0.00432853 0.00448701 0.00463626 0.0047763 0.00490712 0.00502872 0.0051411 0.00524426 0.0053382 0.00542277 0.00549781 0.00556331 0.00561929 0.00566573 0.00570264 0.00573002 0.00574787 0.00575716 0.00575887 0.00575298 0.00573951 0.00571845 0.0056898 0.00565357 0.00560974 0.00555969 0.00550476 0.00544495 0.00538027 0.00531072 0.00523629 0.00515699 0.00507281 0.00498496 0.00489466 0.00480189 0.00470667 0.00460898 0.00450884 0.00440623 0.00430117 0.00419448 0.00408701 0.00397875 0.0038697 0.00375987 0.00364925 0.00353784 0.00342565 0.00331319 0.00320098 0.00308902 0.00297731 0.00286586 0.00275465 0.0026437 0.00253299 0.00242295 0.00231397 0.00220606 0.00209922 0.00199345 0.00188875 0.00178511 0.00168254 0.00158157 0.00148273 0.00138601 0.00129142 0.00119896 0.00110862 0.00102041 0.000934329 0.000851147 0.000771637 0.0006958 0.000623635 0.000555143 0.000490324 0.000429177 0.000371703 0.000318378 0.000269677 0.0002256 0.000186147 0.000151318 0.000121113 9.55328e-05 7.45766e-05 5.70977e-05 4.19493e-05 2.91315e-05 1.86441e-05 1.04873e-05 4.66104e-06 1.16526e-06 0 0 6.97455e-06 2.78982e-05 6.27709e-05 0.000111593 0.000174364 0.000251084 0.000341753 0.000446371 0.000566969 0.000705578 0.000862197 0.00103683 0.00122947 0.00144012 0.00166878 0.00191545 0.00217355 0.0024365 0.00270429 0.00297693 0.00325441 0.00353674 0.00382392 0.00411594 0.00440666 0.00468993 0.00496575 0.00523412 0.00549503 0.0057485 0.00599452 0.00623309 0.00646129 0.00667622 0.00687787 0.00706625 0.00724135 0.00740318 0.00755173 0.00768701 0.00780879 0.00791684 0.00801117 0.00809177 0.00815865 0.00821181 0.00825123 0.00827694 0.00829032 0.00829277 0.00828429 0.00826489 0.00823457 0.00819331 0.00814113 0.00807803 0.00800595 0.00792685 0.00784073 0.00774759 0.00764744 0.00754026 0.00742606 0.00730484 0.00717835 0.00704831 0.00691472 0.0067776 0.00663693 0.00649273 0.00634498 0.00619369 0.00604006 0.00588529 0.0057294 0.00557237 0.00541421 0.00525492 0.00509449 0.00493294 0.00477099 0.00460941 0.00444819 0.00428733 0.00412683 0.0039667 0.00380692 0.00364751 0.00348905 0.00333212 0.00317673 0.00302288 0.00287057 0.0027198 0.00257056 0.00242286 0.00227746 0.00213513 0.00199586 0.00185965 0.0017265 0.00159641 0.00146939 0.00134543 0.00122565 0.00111116 0.00100195 0.000898034 0.000799406 0.000706066 0.000618015 0.000535253 0.000458464 0.000388334 0.000324863 0.000268051 0.000217898 0.000174403 0.000137567 0.00010739 8.22207e-05 6.0407e-05 4.19493e-05 2.68476e-05 1.51018e-05 6.71189e-06 1.67797e-06 0 0 9.49314e-06 3.79725e-05 8.54382e-05 0.00015189 0.000237328 0.000341753 0.000465164 0.000607561 0.000771708 0.00096037 0.00117355 0.00141124 0.00167344 0.00196016 0.00227139 0.00260714 0.00295845 0.00331635 0.00368084 0.00405193 0.00442962 0.0048139 0.00520478 0.00560225 0.00599795 0.00638351 0.00675893 0.00712421 0.00747935 0.00782435 0.00815921 0.00848392 0.00879453 0.00908708 0.00936155 0.00961795 0.00985629 0.0100766 0.0102788 0.0104629 0.0106286 0.0107757 0.0109041 0.0110138 0.0111048 0.0111772 0.0112308 0.0112658 0.011284 0.0112874 0.0112758 0.0112494 0.0112082 0.011152 0.011081 0.0109951 0.010897 0.0107893 0.0106721 0.0105453 0.010409 0.0102631 0.0101077 0.0099427 0.00977053 0.00959353 0.00941171 0.00922507 0.0090336 0.00883732 0.00863622 0.00843029 0.00822119 0.00801054 0.00779835 0.00758462 0.00736935 0.00715253 0.00693417 0.00671427 0.00649385 0.00627392 0.00605448 0.00583553 0.00561708 0.00539911 0.00518164 0.00496466 0.00474898 0.00453539 0.00432389 0.00411448 0.00390717 0.00370195 0.00349882 0.00329778 0.00309988 0.00290615 0.00271658 0.00253118 0.00234996 0.0021729 0.00200001 0.00183129 0.00166825 0.00151241 0.00136377 0.00122232 0.00108808 0.000961035 0.000841187 0.000728539 0.000624021 0.000528566 0.000442175 0.000364847 0.000296583 0.000237382 0.000187244 0.00014617 0.000111911 8.22207e-05 5.70977e-05 3.65425e-05 2.05552e-05 9.13563e-06 2.28391e-06 0 0 1.23992e-05 4.95968e-05 0.000111593 0.000198387 0.00030998 0.000446371 0.000607561 0.000793549 0.00100795 0.00125436 0.00153279 0.00184325 0.00218572 0.00256021 0.00296672 0.00340525 0.00386409 0.00433155 0.00480763 0.00529232 0.00578562 0.00628754 0.00679808 0.00731723 0.00783406 0.00833765 0.008828 0.00930509 0.00976895 0.0102196 0.0106569 0.011081 0.0114867 0.0118688 0.0122273 0.0125622 0.0128735 0.0131612 0.0134253 0.0136658 0.0138823 0.0140744 0.0142421 0.0143854 0.0145043 0.0145988 0.0146689 0.0147146 0.0147383 0.0147427 0.0147276 0.0146931 0.0146392 0.0145659 0.0144731 0.0143609 0.0142328 0.0140922 0.0139391 0.0137735 0.0135954 0.0134049 0.0132019 0.0129864 0.0127615 0.0125303 0.0122928 0.0120491 0.011799 0.0115426 0.01128 0.011011 0.0107379 0.0104627 0.0101856 0.00990644 0.00962527 0.00934208 0.00905688 0.00876966 0.00848176 0.00819451 0.00790789 0.00762192 0.00733659 0.0070519 0.00676786 0.00648446 0.00620275 0.00592377 0.00564752 0.00537401 0.00510324 0.00483519 0.00456989 0.00430731 0.00404882 0.00379578 0.00354819 0.00330604 0.00306933 0.00283807 0.00261225 0.00239188 0.00217894 0.00197539 0.00178125 0.00159651 0.00142117 0.00125523 0.00109869 0.000951561 0.000815047 0.000690372 0.000577535 0.000476535 0.000387374 0.00031005 0.000244564 0.000190916 0.00014617 0.00010739 7.45766e-05 4.7729e-05 2.68476e-05 1.19323e-05 2.98306e-06 0 0 1.57754e-05 6.31018e-05 0.000141979 0.000252407 0.000394386 0.000567916 0.000772997 0.00100963 0.00128223 0.00159523 0.00194861 0.00234239 0.00277656 0.00325112 0.00376607 0.00432141 0.00490236 0.00549413 0.00609672 0.00671013 0.00733436 0.00796941 0.00861528 0.00927197 0.0099257 0.0105627 0.011183 0.0117865 0.0123733 0.0129433 0.0134966 0.0140332 0.0145465 0.01503 0.0154837 0.0159075 0.0163015 0.0166657 0.0170001 0.0173047 0.0175789 0.0178223 0.0180348 0.0182164 0.0183672 0.0184872 0.0185763 0.0186346 0.0186651 0.0186711 0.0186524 0.0186092 0.0185414 0.018449 0.018332 0.0181904 0.0180287 0.0178511 0.0176577 0.0174485 0.0172234 0.0169826 0.0167259 0.0164534 0.016169 0.0158766 0.0155762 0.0152678 0.0149514 0.014627 0.0142946 0.0139542 0.0136085 0.0132603 0.0129094 0.012556 0.0122001 0.0118415 0.0114804 0.0111167 0.0107521 0.0103884 0.0100254 0.00966326 0.0093019 0.00894135 0.0085816 0.00822266 0.00786584 0.00751249 0.00716259 0.00681616 0.00647318 0.00613366 0.00579761 0.00546501 0.00513758 0.00481704 0.00450339 0.00419662 0.00389674 0.00360375 0.00331764 0.00303842 0.00276858 0.00251061 0.00226451 0.00203028 0.00180792 0.00159743 0.00139881 0.00121206 0.00103872 0.000880355 0.000736951 0.000608512 0.000495037 0.000396526 0.00031298 0.000244398 0.000187117 0.000137474 9.5468e-05 6.10995e-05 3.43685e-05 1.52749e-05 3.81872e-06 0 0 1.97046e-05 7.88184e-05 0.000177341 0.000315274 0.000492615 0.000709365 0.000965525 0.00126109 0.00160112 0.00199064 0.00242966 0.00291819 0.00345621 0.00404373 0.00468075 0.00536727 0.00608511 0.00681607 0.00756016 0.00831739 0.00908774 0.00987122 0.0106678 0.0114776 0.0122836 0.013069 0.0138338 0.0145781 0.0153018 0.0160048 0.0166873 0.0173492 0.0179825 0.0185791 0.019139 0.0196622 0.0201488 0.0205986 0.0210118 0.0213883 0.0217275 0.0220287 0.0222918 0.0225169 0.022704 0.0228532 0.0229643 0.0230373 0.0230762 0.0230848 0.023063 0.0230108 0.0229283 0.0228154 0.0226721 0.0224985 0.0222999 0.0220817 0.021844 0.0215866 0.0213096 0.0210131 0.0206969 0.0203612 0.0200107 0.0196502 0.0192798 0.0188994 0.018509 0.0181087 0.0176985 0.0172783 0.0168514 0.0164214 0.0159881 0.0155516 0.0151118 0.0146688 0.0142225 0.013773 0.0133224 0.0128728 0.0124241 0.0119763 0.0115296 0.0110837 0.0106389 0.010195 0.00975376 0.00931677 0.00888404 0.00845558 0.0080314 0.00761148 0.00719583 0.00678444 0.00637944 0.00598293 0.0055949 0.00521536 0.00484432 0.00448176 0.00412769 0.0037821 0.00344805 0.00312858 0.00282367 0.00253334 0.00225759 0.00199641 0.0017498 0.00151776 0.00130223 0.00110512 0.000926433 0.000766174 0.000624339 0.00050093 0.000395945 0.000309386 0.000236874 0.00017403 0.000120854 7.73465e-05 4.35074e-05 1.93366e-05 4.83416e-06 0 0 2.41866e-05 9.67466e-05 0.00021768 0.000386986 0.000604666 0.000870719 0.00118515 0.00154795 0.0019646 0.0024406 0.00297595 0.00357064 0.00422467 0.00493805 0.00571077 0.00654283 0.00741234 0.00829738 0.00919797 0.0101141 0.0110458 0.011993 0.0129557 0.013934 0.0149077 0.0158566 0.0167807 0.0176799 0.0185544 0.0194041 0.020229 0.0210291 0.0217946 0.0225161 0.0231933 0.0238264 0.0244152 0.0249599 0.0254605 0.0259168 0.0263281 0.0266936 0.0270132 0.0272869 0.0275147 0.0276966 0.0278327 0.0279229 0.0279717 0.0279839 0.0279593 0.0278979 0.0277998 0.027665 0.0274934 0.0272851 0.0270465 0.0267841 0.0264979 0.0261879 0.0258541 0.0254965 0.025115 0.0247098 0.0242866 0.0238512 0.0234036 0.0229439 0.022472 0.0219879 0.0214917 0.0209832 0.0204667 0.0199462 0.0194216 0.0188931 0.0183605 0.0178239 0.0172833 0.0167386 0.0161926 0.0156476 0.0151038 0.0145611 0.0140195 0.0134791 0.0129398 0.0124016 0.0118665 0.0113366 0.0108119 0.0102923 0.00977788 0.00926863 0.00876454 0.00826562 0.0077744 0.00729343 0.00682272 0.00636226 0.00591205 0.00547209 0.00504238 0.00462292 0.00421735 0.00382929 0.00345874 0.0031057 0.00277018 0.00245217 0.00215167 0.00186868 0.00160556 0.00136466 0.00114598 0.000949521 0.000775281 0.00062326 0.00049346 0.00038588 0.00029544 0.000217058 0.000150734 9.64701e-05 5.42644e-05 2.41175e-05 6.02938e-06 0 0 2.92216e-05 0.000116886 0.000262994 0.000467545 0.00073054 0.00105198 0.00143186 0.00187018 0.00237269 0.00294512 0.00358747 0.00429975 0.00508195 0.00593407 0.00685612 0.00784809 0.00888405 0.00993807 0.0110101 0.0121003 0.0132085 0.0143347 0.015479 0.0166414 0.0177981 0.0189254 0.0200234 0.021092 0.0221312 0.0231411 0.0241216 0.0250727 0.025983 0.026841 0.0276466 0.0283999 0.029101 0.0297497 0.0303461 0.0308901 0.0313808 0.0318171 0.0321989 0.0325262 0.0327991 0.0330176 0.0331816 0.0332911 0.0333516 0.0333683 0.0333413 0.0332706 0.0331561 0.0329979 0.0327959 0.0325502 0.0322685 0.0319582 0.0316195 0.0312524 0.0308568 0.0304327 0.0299802 0.0294992 0.0289967 0.0284796 0.0279478 0.0274013 0.0268402 0.0262645 0.0256741 0.0250691 0.0244543 0.0238346 0.02321 0.0225805 0.0219461 0.0213068 0.0206626 0.0200135 0.0193626 0.018713 0.0180647 0.0174176 0.0167719 0.0161274 0.0154842 0.0148423 0.0142041 0.013572 0.0129461 0.0123263 0.0117126 0.0111051 0.0105038 0.00990853 0.00932246 0.00874857 0.00818685 0.00763731 0.00709994 0.00657474 0.00606173 0.00556088 0.00507647 0.00461275 0.00416971 0.00374736 0.00334569 0.00296471 0.00260442 0.00226481 0.00194872 0.00165898 0.00139559 0.00115855 0.000947862 0.000763519 0.000605525 0.00047388 0.000362815 0.000266558 0.00018511 0.00011847 6.66394e-05 2.96175e-05 7.40438e-06 0 0 3.48094e-05 0.000139238 0.000313285 0.000556951 0.000870236 0.00125314 0.00170566 0.0022278 0.00282537 0.00350418 0.00426423 0.00510552 0.00602804 0.00703181 0.00811681 0.00928305 0.0105002 0.0117381 0.0129967 0.0142759 0.0155758 0.0168964 0.0182376 0.0195996 0.0209547 0.0222755 0.0235621 0.0248143 0.0260322 0.0272158 0.0283652 0.0294802 0.0305475 0.0315538 0.0324989 0.033383 0.0342059 0.0349678 0.0356686 0.0363083 0.0368855 0.0373991 0.0378489 0.038235 0.0385574 0.038816 0.0390109 0.0391421 0.0392158 0.0392381 0.0392091 0.0391288 0.0389971 0.038814 0.0385797 0.0382939 0.0379658 0.0376041 0.0372088 0.03678 0.0363177 0.0358218 0.0352924 0.0347295 0.0341411 0.0335353 0.0329122 0.0322716 0.0316137 0.0309385 0.0302458 0.0295358 0.0288142 0.0280866 0.0273532 0.0266139 0.0258687 0.0251176 0.0243606 0.0235977 0.0228326 0.0220689 0.0213067 0.0205459 0.0197865 0.0190286 0.0182722 0.0175171 0.0167664 0.0160229 0.0152866 0.0145576 0.0138357 0.013121 0.0124135 0.0117132 0.0110236 0.0103483 0.00968729 0.00904051 0.00840799 0.00778973 0.00718572 0.00659598 0.00602542 0.00547895 0.00495658 0.0044583 0.00398412 0.00353403 0.00310805 0.00270615 0.00233171 0.00198809 0.00167527 0.00139327 0.00114208 0.000921704 0.000732139 0.000573387 0.000438999 0.00032253 0.000223979 0.000143347 8.06325e-05 3.58367e-05 8.95916e-06 0 0 4.09502e-05 0.000163801 0.000368552 0.000655203 0.00102375 0.00147421 0.00200656 0.00262081 0.00332266 0.0041178 0.00500622 0.00598794 0.00706295 0.00823124 0.00949283 0.0108477 0.0122609 0.0136975 0.0151576 0.016641 0.0181478 0.019678 0.0212316 0.0228087 0.0243776 0.0259069 0.0273967 0.0288468 0.0302574 0.0316283 0.0329597 0.0342515 0.0354883 0.0366545 0.0377502 0.0387754 0.0397301 0.0406143 0.041428 0.0421712 0.0428423 0.0434396 0.0439633 0.0444132 0.0447895 0.045092 0.0453208 0.0454759 0.0455644 0.0455933 0.0455627 0.0454725 0.0453228 0.0451135 0.0448446 0.0445162 0.0441384 0.0437216 0.0432658 0.0427709 0.0422369 0.0416638 0.0410517 0.0404005 0.0397196 0.0390184 0.0382968 0.0375548 0.0367925 0.0360098 0.0352068 0.0343834 0.0335464 0.0327023 0.0318513 0.0309932 0.0301282 0.0292561 0.0283771 0.0274911 0.0266024 0.0257153 0.0248297 0.0239458 0.0230635 0.0221828 0.0213037 0.0204262 0.0195536 0.0186894 0.0178336 0.0169861 0.016147 0.0153162 0.0144937 0.0136796 0.0128779 0.0120927 0.011324 0.0105719 0.0098362 0.00911703 0.00841437 0.00772822 0.00706419 0.0064279 0.00581935 0.00523854 0.00468547 0.00416014 0.00366255 0.00319271 0.00275453 0.00235197 0.00198502 0.00165367 0.00135794 0.00109782 0.000873303 0.000684399 0.000523993 0.000384974 0.000267343 0.0001711 9.62436e-05 4.27749e-05 1.06937e-05 0 0 4.76438e-05 0.000190575 0.000428794 0.000762301 0.0011911 0.00171518 0.00233455 0.00304921 0.00386454 0.00478596 0.00581345 0.00694702 0.00818667 0.00953239 0.0109842 0.0125421 0.0141661 0.0158163 0.0174928 0.0191955 0.0209244 0.0226796 0.024461 0.0262686 0.0280667 0.0298196 0.0315272 0.0331895 0.0348067 0.0363786 0.0379052 0.0393867 0.0408052 0.0421431 0.0434005 0.0445773 0.0456736 0.0466893 0.0476244 0.048479 0.049251 0.0499387 0.050542 0.0510609 0.0514954 0.0518455 0.0521111 0.0522924 0.0523974 0.0524339 0.052402 0.0523018 0.0521331 0.0518961 0.0515907 0.051217 0.0507865 0.050311 0.0497904 0.0492249 0.0486143 0.0479587 0.047258 0.0465124 0.0457324 0.0449289 0.0441017 0.0432509 0.0423766 0.0414786 0.0405571 0.0396119 0.0386509 0.0376816 0.0367042 0.0357185 0.0347246 0.0337226 0.0327123 0.0316938 0.0306721 0.0296521 0.0286339 0.0276175 0.0266028 0.0255899 0.0245788 0.0235694 0.0225657 0.0215715 0.0205869 0.0196119 0.0186465 0.0176907 0.0167444 0.0158077 0.0148853 0.0139817 0.0130971 0.0122314 0.0113846 0.0105567 0.00974768 0.0089576 0.00819278 0.00745959 0.00675802 0.00608807 0.00544974 0.00484303 0.00426794 0.00372447 0.00321718 0.00275063 0.00232483 0.00193976 0.00159544 0.00129186 0.00102902 0.000806917 0.000617796 0.000453891 0.000315202 0.000201729 0.000113473 5.04323e-05 1.26081e-05 0 0 5.48904e-05 0.000219562 0.000494013 0.000878246 0.00137226 0.00197605 0.00268963 0.00351298 0.00445103 0.00550867 0.00668592 0.00798276 0.0093992 0.0109352 0.0125909 0.0143661 0.0162157 0.0180945 0.0200024 0.0219395 0.0239057 0.0259011 0.0279257 0.0299794 0.032022 0.0340135 0.0359536 0.0378425 0.0396802 0.0414666 0.0432017 0.0448856 0.0464983 0.0480197 0.0494498 0.0507887 0.0520363 0.0531926 0.0542577 0.0552315 0.0561118 0.0568963 0.057585 0.058178 0.0586751 0.0590764 0.059382 0.0595917 0.0597147 0.0597598 0.0597271 0.0596166 0.0594282 0.0591621 0.0588181 0.0583963 0.0579098 0.057372 0.0567827 0.056142 0.0554499 0.0547064 0.0539114 0.053065 0.0521794 0.0512667 0.0503269 0.0493599 0.0483659 0.0473448 0.0462966 0.0452213 0.0441277 0.0430246 0.0419119 0.0407898 0.0396581 0.0385168 0.0373661 0.0362058 0.0350417 0.0338795 0.0327192 0.0315609 0.0304045 0.02925 0.0280974 0.0269468 0.0258025 0.0246691 0.0235466 0.0224351 0.0213344 0.0202445 0.0191656 0.0180976 0.0170457 0.0160154 0.0150065 0.014019 0.0130531 0.0121086 0.0111856 0.0102841 0.00941121 0.00857403 0.0077726 0.00700689 0.00627693 0.0055827 0.0049242 0.00430144 0.00371966 0.00318408 0.0026947 0.00225154 0.00185458 0.00150383 0.00119928 0.000940941 0.000720408 0.000529279 0.000367555 0.000235235 0.00013232 5.88088e-05 1.47022e-05 0 0 6.25445e-05 0.000250178 0.000562901 0.00100071 0.00156361 0.0022516 0.00306468 0.00400285 0.00507037 0.00627152 0.0076063 0.0090747 0.0106767 0.0124124 0.0142816 0.0162845 0.0183703 0.0204882 0.0226382 0.0248203 0.0270345 0.0292808 0.0315592 0.0338698 0.0361676 0.038408 0.0405908 0.0427161 0.0447838 0.0467941 0.0487468 0.0506421 0.0524574 0.0541703 0.0557808 0.057289 0.0586947 0.0599981 0.0611992 0.0622978 0.0632914 0.0641774 0.0649557 0.0656264 0.0661894 0.0666447 0.0669924 0.0672324 0.0673748 0.0674295 0.0673965 0.0672758 0.0670675 0.0667714 0.0663877 0.0659163 0.065372 0.0647695 0.064109 0.0633903 0.0626134 0.0617785 0.0608853 0.0599341 0.0589384 0.0579119 0.0568547 0.0557666 0.0546478 0.0534982 0.0523177 0.0511065 0.0498745 0.0486315 0.0473775 0.0461127 0.0448369 0.0435501 0.0422524 0.0409438 0.0396307 0.0383198 0.0370108 0.035704 0.0343992 0.0330965 0.0317958 0.0304972 0.0292058 0.0279266 0.0266597 0.0254051 0.0241627 0.0229325 0.0217146 0.020509 0.0193215 0.0181582 0.017019 0.015904 0.0148131 0.0137464 0.0127038 0.0116854 0.010699 0.00975258 0.00884619 0.0079798 0.0071534 0.00636701 0.00562061 0.0049142 0.00425376 0.00364523 0.00308861 0.00258391 0.00213113 0.00173027 0.00138132 0.00108429 0.000830161 0.000609914 0.000423551 0.000271073 0.000152478 6.77682e-05 1.69421e-05 0 0 7.04609e-05 0.000281844 0.000634148 0.00112737 0.00176152 0.00253659 0.00345258 0.0045095 0.00571083 0.00706009 0.00855727 0.0102024 0.0119954 0.0139363 0.0160252 0.018262 0.0205903 0.0229535 0.0253518 0.0277851 0.0302534 0.0327568 0.0352951 0.0378685 0.0404274 0.0429224 0.0453534 0.0477205 0.0500237 0.0522629 0.0544382 0.0565496 0.0585722 0.0604811 0.0622762 0.0639577 0.0655255 0.0669796 0.06832 0.0695467 0.0706566 0.0716469 0.0725173 0.073268 0.073899 0.0744102 0.0748016 0.0750733 0.0752362 0.0753014 0.0752687 0.0751384 0.0749102 0.0745843 0.0741606 0.0736391 0.0730362 0.0723683 0.0716354 0.0708374 0.0699744 0.0690464 0.0680533 0.0669952 0.0658872 0.0647447 0.0635675 0.0623557 0.0611093 0.0598283 0.0585127 0.0571625 0.0557887 0.0544026 0.053004 0.051593 0.0501695 0.0487337 0.0472854 0.0458247 0.0443589 0.0428953 0.0414339 0.0399747 0.0385177 0.0370628 0.0356102 0.0341598 0.0327173 0.0312884 0.0298732 0.0284716 0.0270837 0.0257093 0.0243487 0.0230016 0.0216748 0.0203749 0.0191018 0.0178555 0.0166361 0.0154435 0.0142778 0.0131389 0.0120356 0.0109766 0.00996193 0.00899158 0.00806554 0.00718381 0.0063464 0.00555331 0.00481127 0.004127 0.00350052 0.00293181 0.00242089 0.00196774 0.00157237 0.00123479 0.000945384 0.000694568 0.000482339 0.000308697 0.000173642 7.71742e-05 1.92935e-05 0 0 7.86395e-05 0.000314558 0.000707756 0.00125823 0.00196599 0.00283102 0.00385334 0.00503293 0.00637241 0.00787438 0.00953884 0.0113658 0.0133552 0.0155072 0.0178216 0.0202985 0.0228756 0.0254906 0.0281434 0.0308341 0.0335626 0.0363291 0.0391333 0.0419755 0.0448013 0.0475567 0.0502415 0.0528559 0.0553997 0.0578731 0.0602759 0.0626083 0.0648428 0.066952 0.0689361 0.0707949 0.0725286 0.074137 0.0756202 0.0769782 0.0782075 0.0793047 0.0802699 0.0811029 0.0818039 0.0823728 0.0828096 0.0831143 0.0832989 0.0833754 0.0833439 0.0832042 0.0829565 0.0826006 0.0821367 0.0815647 0.0809026 0.0801684 0.079362 0.0784835 0.0775329 0.0765101 0.0754153 0.0742482 0.0730259 0.0717649 0.0704654 0.0691273 0.0677506 0.0663354 0.0648815 0.0633892 0.0618705 0.0603378 0.0587912 0.0572306 0.055656 0.0540675 0.052465 0.0508485 0.0492261 0.0476061 0.0459884 0.044373 0.0427599 0.0411491 0.0395406 0.0379344 0.0363369 0.0347545 0.033187 0.0316347 0.0300973 0.028575 0.0270678 0.0255756 0.0241057 0.0226654 0.0212546 0.0198735 0.0185219 0.0172 0.0159076 0.0146448 0.0134211 0.0122461 0.0111198 0.0100422 0.00901333 0.00803312 0.0071016 0.00621877 0.00539219 0.00462941 0.00393042 0.00329523 0.00272383 0.00221624 0.00177243 0.00139243 0.00106608 0.000783241 0.000543917 0.000348107 0.00019581 8.70268e-05 2.17567e-05 0 0 8.70804e-05 0.000348322 0.000783724 0.00139329 0.00217701 0.0031349 0.00426694 0.00557315 0.0070551 0.00871439 0.010551 0.0125649 0.0147562 0.0171248 0.0196708 0.022394 0.0252263 0.0280992 0.0310128 0.0339671 0.036962 0.0399976 0.0430739 0.0461908 0.0492895 0.0523109 0.0552551 0.0581221 0.0609119 0.0636245 0.0662599 0.068818 0.0712691 0.0735832 0.0757604 0.0778006 0.0797039 0.0814703 0.0830997 0.0845922 0.0859439 0.0871509 0.0882133 0.089131 0.0899041 0.0905325 0.0910163 0.0913554 0.0915628 0.0916516 0.0916218 0.0914734 0.0912063 0.0908206 0.0903162 0.0896932 0.0889712 0.0881697 0.0872889 0.0863286 0.0852889 0.0841698 0.0829712 0.0816933 0.0803543 0.0789726 0.0775483 0.0760813 0.0745716 0.0730193 0.0714242 0.0697866 0.0681197 0.0664373 0.0647393 0.0630257 0.0612964 0.0595516 0.0577911 0.0560151 0.0542324 0.0524522 0.0506743 0.0488989 0.0471258 0.0453552 0.0435869 0.0418211 0.0400647 0.0383247 0.0366012 0.0348942 0.0332037 0.0315296 0.029872 0.0282308 0.026614 0.0250297 0.0234776 0.021958 0.0204707 0.0190157 0.0175931 0.0162029 0.0148554 0.0135611 0.0123199 0.0111317 0.00999677 0.00891492 0.00788619 0.00691059 0.00599653 0.00515244 0.00437832 0.00367417 0.00303998 0.00247576 0.0019815 0.00155722 0.00119224 0.000875934 0.000608287 0.000389304 0.000218983 9.7326e-05 2.43315e-05 0 0 9.57836e-05 0.000383134 0.000862053 0.00153254 0.00239459 0.00344821 0.0046934 0.00613015 0.00775891 0.00958011 0.0115938 0.0137998 0.0161984 0.0187893 0.0215728 0.0245486 0.0276424 0.0307796 0.0339602 0.0371842 0.0404517 0.0437625 0.0471168 0.0505145 0.0538918 0.0571851 0.0603942 0.0635193 0.0665603 0.0695173 0.0723901 0.0751789 0.0778511 0.0803746 0.0827491 0.0849748 0.0870516 0.0889796 0.0907587 0.0923889 0.0938659 0.0951856 0.0963477 0.0973524 0.0981996 0.0988894 0.0994217 0.0997966 0.100028 0.10013 0.100103 0.0999458 0.0996596 0.099244 0.0986989 0.0980245 0.0972418 0.0963723 0.0954159 0.0943726 0.0932424 0.0920252 0.0907212 0.0893303 0.0878725 0.0863678 0.0848162 0.0832177 0.0815723 0.07988 0.0781408 0.0763547 0.0745365 0.072701 0.0708482 0.0689781 0.0670906 0.0651859 0.0632639 0.0613245 0.0593778 0.0574335 0.0554917 0.0535524 0.0516155 0.0496811 0.0477492 0.0458198 0.0439006 0.0419993 0.0401158 0.0382503 0.0364027 0.034573 0.0327612 0.0309673 0.0291999 0.0274678 0.0257708 0.0241089 0.0224823 0.0208908 0.0193345 0.0178134 0.0163386 0.0149215 0.013562 0.0122601 0.0110159 0.00982922 0.00870018 0.00762876 0.00662429 0.00569611 0.00484422 0.00406863 0.00336932 0.0027463 0.00219958 0.00172915 0.00132388 0.000972646 0.000675449 0.000432287 0.000243162 0.000108072 2.70179e-05 0 0 0.000104749 0.000418996 0.000942741 0.00167598 0.00261873 0.00377097 0.0051327 0.00670394 0.00848384 0.0104716 0.0126671 0.0150705 0.0176817 0.0205007 0.0235275 0.0267622 0.0301239 0.0335316 0.0369855 0.0404854 0.0440315 0.0476237 0.051262 0.0549464 0.0586083 0.0621791 0.0656588 0.0690474 0.0723449 0.0755513 0.0786666 0.0816908 0.0845889 0.0873261 0.0899022 0.0923174 0.0945716 0.0966648 0.0985969 0.100368 0.101974 0.103409 0.104673 0.105767 0.10669 0.107443 0.108026 0.108438 0.108695 0.108811 0.108786 0.108622 0.108316 0.107871 0.107285 0.106559 0.105715 0.104776 0.103743 0.102616 0.101393 0.100077 0.0986653 0.0971594 0.0955806 0.0939505 0.0922692 0.0905366 0.0887527 0.0869176 0.0850312 0.0830936 0.0811208 0.0791289 0.0771179 0.0750879 0.0730387 0.0709705 0.0688832 0.0667769 0.0646622 0.0625501 0.0604405 0.0583335 0.056229 0.054127 0.0520275 0.0499306 0.04784