<?xml version="1.0"?> 
<VTKFile type="StructuredGrid" version="0.1"> 
<StructuredGrid WholeExtent="0 128 0 128 0 0"> 
<Piece Extent="0 128 0 128 0 0"> 
<PointData>
<DataArray type="Float32" Name="u" format="ascii" NumberOfComponents="1"> 
0 0 0 0 0 0 0 0 0 0 0 0 0 0 0 0 0 0 0 0 0 0 0 0 0 0 0 0 0 0 0 0 0 0 0 0 0 0 0 0 0 0 0 0 0 0 0 0 0 0 0 0 0 0 0 0 0 0 0 0 0 0 0 0 0 0 0 0 0 0 0 0 0 0 0 0 0 0 0 0 0 0 0 0 0 0 0 0 0 0 0 0 0 0 0 0 0 0 0 0 0 0 0 0 0 0 0 0 0 0 0 0 0 0 0 0 0 0 0 0 0 0 0 0 0 0 0 0 0 0 1.58734e-07 6.34934e-07 1.4286e-06 2.53974e-06 3.96834e-06 5.71441e-06 7.77794e-06 1.01589e-05 1.29049e-05 1.60633e-05 1.96341e-05 2.36173e-05 2.8013e-05 3.2821e-05 3.80415e-05 4.36745e-05 4.95661e-05 5.55628e-05 6.16646e-05 6.78714e-05 7.41832e-05 8.06001e-05 8.7122e-05 9.3749e-05 0.000100339 0.000106749 0.00011298 0.000119032 0.000124905 0.000130598 0.000136112 0.000141447 0.000146539 0.000151328 0.000155812 0.000159992 0.000163867 0.000167438 0.000170705 0.000173668 0.000176328 0.000178689 0.00018075 0.000182511 0.000183973 0.000185135 0.000185997 0.000186559 0.00018686 0.000186936 0.000186787 0.000186415 0.000185818 0.000184997 0.000183951 0.000182682 0.000181232 0.000179647 0.000177926 0.00017607 0.000174078 0.000171951 0.000169688 0.00016729 0.000164788 0.000162217 0.000159575 0.000156863 0.00015408 0.000151228 0.000148304 0.000145311 0.000142264 0.000139179 0.000136056 0.000132896 0.000129698 0.000126462 0.000123189 0.000119878 0.000116537 0.000113173 0.000109784 0.000106373 0.000102938 9.94797e-05 9.5998e-05 9.24928e-05 8.8974e-05 8.54513e-05 8.19247e-05 7.83942e-05 7.48599e-05 7.13217e-05 6.77795e-05 6.42335e-05 6.07066e-05 5.72215e-05 5.37784e-05 5.03771e-05 4.70178e-05 4.37004e-05 4.0425e-05 3.71914e-05 3.40393e-05 3.1008e-05 2.80976e-05 2.53081e-05 2.26395e-05 2.00918e-05 1.76649e-05 1.53589e-05 1.32039e-05 1.12299e-05 9.43705e-06 7.8252e-06 6.39441e-06 5.14468e-06 4.076e-06 3.18838e-06 2.4411e-06 1.79346e-06 1.24546e-06 7.97095e-07 4.48366e-07 1.99274e-07 4.98184e-08 0 0 6.34934e-07 2.53974e-06 5.71441e-06 1.01589e-05 1.58734e-05 2.28576e-05 3.11118e-05 4.06358e-05 5.16196e-05 6.42531e-05 7.85363e-05 9.44692e-05 0.000112052 0.000131284 0.000152166 0.000174698 0.000198265 0.000222251 0.000246658 0.000271486 0.000296733 0.0003224 0.000348488 0.000374996 0.000401355 0.000426997 0.000451922 0.000476129 0.00049962 0.000522392 0.000544448 0.000565786 0.000586158 0.000605311 0.000623248 0.000639967 0.000655469 0.000669753 0.00068282 0.00069467 0.000705312 0.000714755 0.000722999 0.000730044 0.000735891 0.000740538 0.000743987 0.000746237 0.000747438 0.000747743 0.00074715 0.00074566 0.000743272 0.000739988 0.000735806 0.000730727 0.000724928 0.000718587 0.000711704 0.000704279 0.000696312 0.000687803 0.000678752 0.000669159 0.000659154 0.000648868 0.0006383 0.000627452 0.000616322 0.00060491 0.000593218 0.000581244 0.000569055 0.000556714 0.000544224 0.000531583 0.000518791 0.000505849 0.000492757 0.000479514 0.000466149 0.00045269 0.000439138 0.000425492 0.000411752 0.000397919 0.000383992 0.000369971 0.000355896 0.000341805 0.000327699 0.000313577 0.00029944 0.000285287 0.000271118 0.000256934 0.000242826 0.000228886 0.000215113 0.000201509 0.000188071 0.000174802 0.0001617 0.000148766 0.000136157 0.000124032 0.000112391 0.000101232 9.0558e-05 8.0367e-05 7.06596e-05 6.14357e-05 5.28156e-05 4.49198e-05 3.77482e-05 3.13008e-05 2.55777e-05 2.05787e-05 1.6304e-05 1.27535e-05 9.76441e-06 7.17385e-06 4.98184e-06 3.18838e-06 1.79346e-06 7.97095e-07 1.99274e-07 0 0 1.4286e-06 5.71441e-06 1.28574e-05 2.28576e-05 3.5715e-05 5.14297e-05 7.00015e-05 9.14305e-05 0.000116144 0.000144569 0.000176707 0.000212556 0.000252117 0.000295389 0.000342374 0.00039307 0.000446095 0.000500066 0.000554981 0.000610842 0.000667649 0.000725401 0.000784098 0.000843741 0.000903049 0.000960744 0.00101682 0.00107129 0.00112414 0.00117538 0.00122501 0.00127302 0.00131885 0.00136195 0.00140231 0.00143993 0.0014748 0.00150694 0.00153635 0.00156301 0.00158695 0.0016082 0.00162675 0.0016426 0.00165575 0.00166621 0.00167397 0.00167903 0.00168174 0.00168242 0.00168109 0.00167773 0.00167236 0.00166497 0.00165556 0.00164414 0.00163109 0.00161682 0.00160133 0.00158463 0.0015667 0.00154756 0.00152719 0.00150561 0.0014831 0.00145995 0.00143618 0.00141177 0.00138672 0.00136105 0.00133474 0.0013078 0.00128037 0.00125261 0.0012245 0.00119606 0.00116728 0.00113816 0.0011087 0.00107891 0.00104883 0.00101855 0.00098806 0.000957357 0.000926442 0.000895317 0.000863982 0.000832435 0.000800766 0.000769062 0.000737322 0.000705548 0.000673739 0.000641895 0.000610016 0.000578102 0.000546359 0.000514994 0.000484005 0.000453394 0.00042316 0.000393304 0.000363825 0.000334723 0.000306354 0.000279072 0.000252879 0.000227773 0.000203755 0.000180826 0.000158984 0.00013823 0.000118835 0.00010107 8.49334e-05 7.04268e-05 5.75497e-05 4.63021e-05 3.6684e-05 2.86954e-05 2.19699e-05 1.61412e-05 1.12091e-05 7.17385e-06 4.03529e-06 1.79346e-06 4.48366e-07 0 0 2.53974e-06 1.01589e-05 2.28576e-05 4.06358e-05 6.34934e-05 9.14305e-05 0.000124447 0.000162543 0.000206478 0.000257012 0.000314145 0.000377877 0.000448207 0.000525137 0.000608665 0.000698792 0.000793058 0.000889005 0.000986633 0.00108594 0.00118693 0.0012896 0.00139395 0.00149998 0.00160542 0.00170799 0.00180769 0.00190452 0.00199848 0.00208957 0.00217779 0.00226315 0.00234463 0.00242125 0.00249299 0.00255987 0.00262187 0.00267901 0.00273128 0.00277868 0.00282125 0.00285902 0.002892 0.00292018 0.00294356 0.00296215 0.00297595 0.00298495 0.00298975 0.00299097 0.0029886 0.00298264 0.00297309 0.00295995 0.00294322 0.00292291 0.00289971 0.00287435 0.00284682 0.00281712 0.00278525 0.00275121 0.00271501 0.00267663 0.00263662 0.00259547 0.0025532 0.00250981 0.00246529 0.00241964 0.00237287 0.00232498 0.00227622 0.00222686 0.0021769 0.00212633 0.00207517 0.0020234 0.00197103 0.00191806 0.0018646 0.00181076 0.00175655 0.00170197 0.00164701 0.00159168 0.00153597 0.00147988 0.00142358 0.00136722 0.0013108 0.00125431 0.00119776 0.00114115 0.00108447 0.00102774 0.000971305 0.000915544 0.000860454 0.000806034 0.000752285 0.000699207 0.0006468 0.000595063 0.000544628 0.000496128 0.000449562 0.00040493 0.000362232 0.000321468 0.000282638 0.000245743 0.000211262 0.000179679 0.000150993 0.000125203 0.000102311 8.23149e-05 6.5216e-05 5.10141e-05 3.90577e-05 2.86954e-05 1.99274e-05 1.27535e-05 7.17385e-06 3.18838e-06 7.97095e-07 0 0 3.96834e-06 1.58734e-05 3.5715e-05 6.34934e-05 9.92085e-05 0.00014286 0.000194449 0.000253974 0.000322622 0.000401582 0.000490852 0.000590433 0.000700324 0.000820526 0.000951038 0.00109186 0.00123915 0.00138907 0.00154161 0.00169678 0.00185458 0.002015 0.00217805 0.00234372 0.00250847 0.00266873 0.00282451 0.00297581 0.00312262 0.00326495 0.0034028 0.00353617 0.00366348 0.0037832 0.0038953 0.00399979 0.00409668 0.00418596 0.00426763 0.00434169 0.0044082 0.00446722 0.00451874 0.00456278 0.00459932 0.00462836 0.00464992 0.00466398 0.00467149 0.00467339 0.00466969 0.00466037 0.00464545 0.00462492 0.00459879 0.00456704 0.0045308 0.00449117 0.00444815 0.00440174 0.00435195 0.00429877 0.0042422 0.00418224 0.00411971 0.00405542 0.00398938 0.00392157 0.00385201 0.00378069 0.00370761 0.00363278 0.00355659 0.00347947 0.0034014 0.00332239 0.00324245 0.00316156 0.00307973 0.00299696 0.00291343 0.00282931 0.00274461 0.00265932 0.00257345 0.00248699 0.00239995 0.00231232 0.00222435 0.00213628 0.00204812 0.00195986 0.0018715 0.00178304 0.00169449 0.00160584 0.00151766 0.00143054 0.00134446 0.00125943 0.00117545 0.00109251 0.00101062 0.000929786 0.000850982 0.0007752 0.000702441 0.000632703 0.000565987 0.000502294 0.000441622 0.000383973 0.000330098 0.000280749 0.000235926 0.00019563 0.00015986 0.000128617 0.0001019 7.97095e-05 6.10276e-05 4.48366e-05 3.11365e-05 1.99274e-05 1.12091e-05 4.98184e-06 1.24546e-06 0 0 5.71441e-06 2.28576e-05 5.14297e-05 9.14305e-05 0.00014286 0.000205719 0.000280006 0.000365722 0.000464576 0.000578278 0.000706827 0.000850223 0.00100847 0.00118156 0.0013695 0.00157228 0.00178438 0.00200026 0.00221993 0.00244337 0.0026706 0.0029016 0.00313639 0.00337496 0.0036122 0.00384297 0.0040673 0.00428516 0.00449658 0.00470153 0.00490003 0.00509208 0.00527542 0.0054478 0.00560923 0.0057597 0.00589922 0.00602778 0.00614538 0.00625203 0.00634781 0.0064328 0.00650699 0.0065704 0.00662302 0.00666484 0.00669588 0.00671613 0.00672694 0.00672968 0.00672435 0.00671094 0.00668945 0.00665989 0.00662225 0.00657654 0.00652435 0.00646728 0.00640534 0.00633851 0.00626681 0.00619023 0.00610877 0.00602243 0.00593238 0.00583981 0.0057447 0.00564706 0.0055469 0.00544419 0.00533896 0.0052312 0.00512149 0.00501043 0.00489801 0.00478425 0.00466912 0.00455264 0.00443481 0.00431562 0.00419534 0.00407421 0.00395224 0.00382943 0.00370577 0.00358127 0.00345593 0.00332974 0.00320306 0.00307625 0.00294929 0.00282219 0.00269496 0.00256758 0.00244006 0.00231241 0.00218544 0.00205997 0.00193602 0.00181358 0.00169264 0.00157322 0.0014553 0.00133889 0.00122541 0.00111629 0.00101151 0.000911092 0.000815022 0.000723303 0.000635936 0.000552921 0.000475341 0.000404278 0.000339734 0.000281707 0.000230199 0.000185209 0.000146736 0.000114782 8.78797e-05 6.45647e-05 4.48366e-05 2.86954e-05 1.61412e-05 7.17385e-06 1.79346e-06 0 0 7.77794e-06 3.11118e-05 7.00015e-05 0.000124447 0.000194449 0.000280006 0.000381119 0.000497788 0.00063234 0.0007871 0.00096207 0.00115725 0.00137263 0.00160823 0.00186404 0.00214005 0.00242874 0.00272258 0.00302156 0.0033257 0.00363498 0.0039494 0.00426898 0.0045937 0.0049166 0.00523072 0.00553604 0.00583259 0.00612034 0.00639931 0.00666949 0.00693088 0.00718043 0.00741506 0.00763478 0.00783959 0.00802949 0.00820448 0.00836455 0.00850971 0.00864007 0.00875575 0.00885674 0.00894304 0.00901466 0.00907159 0.00911384 0.0091414 0.00915612 0.00915985 0.00915259 0.00913433 0.00910509 0.00906485 0.00901362 0.0089514 0.00888037 0.00880269 0.00871837 0.00862742 0.00852982 0.00842559 0.00831471 0.00819719 0.00807463 0.00794863 0.00781918 0.00768628 0.00754994 0.00741015 0.00726692 0.00712024 0.00697092 0.00681975 0.00666674 0.00651189 0.00635519 0.00619665 0.00603627 0.00587404 0.00571032 0.00554545 0.00537944 0.00521227 0.00504396 0.00487451 0.0047039 0.00453215 0.00435972 0.00418711 0.00401431 0.00384132 0.00366813 0.00349476 0.0033212 0.00314744 0.00297462 0.00280385 0.00263514 0.00246848 0.00230387 0.00214132 0.00198082 0.00182238 0.00166792 0.00151939 0.00137678 0.0012401 0.00110934 0.000984496 0.00086558 0.000752587 0.000646991 0.000550267 0.000462415 0.000383435 0.000313326 0.000252089 0.000199724 0.000156231 0.000119614 8.78797e-05 6.10276e-05 3.90577e-05 2.19699e-05 9.76441e-06 2.4411e-06 0 0 1.01589e-05 4.06358e-05 9.14305e-05 0.000162543 0.000253974 0.000365722 0.000497788 0.000650173 0.000825913 0.00102805 0.00125658 0.00151151 0.00179283 0.00210055 0.00243466 0.00279517 0.00317223 0.00355602 0.00394653 0.00434377 0.00474773 0.00515841 0.00557581 0.00599993 0.00642168 0.00683196 0.00723075 0.00761807 0.00799391 0.00835828 0.00871117 0.00905258 0.00937852 0.00968498 0.00997196 0.0102395 0.0104875 0.0107161 0.0109251 0.0111147 0.011285 0.0114361 0.011568 0.0116807 0.0117743 0.0118486 0.0119038 0.0119398 0.011959 0.0119639 0.0119544 0.0119306 0.0118924 0.0118398 0.0117729 0.0116916 0.0115988 0.0114974 0.0113873 0.0112685 0.011141 0.0110048 0.01086 0.0107065 0.0105465 0.0103819 0.0102128 0.0100392 0.00986115 0.00967857 0.00949149 0.00929991 0.00910487 0.00890743 0.00870758 0.00850532 0.00830066 0.00809359 0.00788411 0.00767222 0.00745838 0.00724304 0.00702621 0.00680787 0.00658803 0.0063667 0.00614387 0.00591954 0.00569433 0.00546888 0.00524318 0.00501723 0.00479103 0.00456459 0.00433789 0.00411095 0.00388522 0.00366218 0.00344181 0.00322414 0.00300914 0.00279683 0.0025872 0.00238025 0.00217851 0.00198451 0.00179825 0.00161972 0.00144893 0.00128587 0.00113055 0.000982971 0.00084505 0.000718717 0.000603971 0.000500813 0.000409243 0.00032926 0.000260864 0.000204056 0.000156231 0.000114782 7.97095e-05 5.10141e-05 2.86954e-05 1.27535e-05 3.18838e-06 0 0 1.29347e-05 5.17389e-05 0.000116413 0.000206956 0.000323368 0.000465651 0.000633802 0.000827823 0.00105143 0.00130835 0.00159858 0.00192211 0.00227895 0.0026691 0.00309255 0.00354932 0.00402696 0.00451304 0.00500756 0.00551052 0.00602193 0.00654178 0.00707007 0.0076068 0.0081405 0.0086597 0.0091644 0.00965459 0.0101303 0.0105915 0.0110381 0.0114703 0.0118829 0.0122709 0.0126343 0.0129731 0.0132873 0.0135768 0.0138417 0.0140821 0.0142979 0.0144895 0.0146569 0.0148 0.0149188 0.0150134 0.0150837 0.0151297 0.0151545 0.0151611 0.0151495 0.0151198 0.0150719 0.0150057 0.0149214 0.0148189 0.0147018 0.0145737 0.0144346 0.0142845 0.0141234 0.0139512 0.0137681 0.0135739 0.0133714 0.0131631 0.0129491 0.0127294 0.0125039 0.0122727 0.0120358 0.0117932 0.0115461 0.011296 0.0110428 0.0107866 0.0105272 0.0102648 0.00999936 0.00973082 0.0094598 0.00918687 0.00891205 0.00863532 0.00835669 0.00807616 0.00779372 0.00750939 0.00722395 0.0069382 0.00665215 0.00636579 0.00607911 0.00579214 0.00550485 0.00521726 0.00493121 0.00464855 0.0043693 0.00409344 0.00382098 0.00355192 0.00328626 0.00302399 0.0027683 0.00252238 0.00228622 0.00205983 0.00184321 0.00163635 0.00143925 0.00125192 0.0010768 0.000916326 0.000770498 0.000639317 0.000522784 0.000420898 0.00033366 0.000261069 0.000199881 0.000146851 0.00010198 6.52673e-05 3.67128e-05 1.63168e-05 4.0792e-06 0 0 1.61826e-05 6.47305e-05 0.000145644 0.000258922 0.000404566 0.000582575 0.000792949 0.00103569 0.00131503 0.00163523 0.00199627 0.00239816 0.00284089 0.00332448 0.00384891 0.00441419 0.00500501 0.00560607 0.00621737 0.00683891 0.00747069 0.0081127 0.00876495 0.00942744 0.0100861 0.010727 0.01135 0.0119551 0.0125424 0.0131119 0.0136635 0.0141972 0.0147069 0.0151863 0.0156355 0.0160543 0.0164428 0.0168011 0.017129 0.0174267 0.0176943 0.0179319 0.0181396 0.0183174 0.0184653 0.0185833 0.0186713 0.0187295 0.0187614 0.0187708 0.0187578 0.0187222 0.0186641 0.0185836 0.0184806 0.018355 0.0182114 0.0180541 0.0178831 0.0176984 0.0175 0.0172879 0.0170622 0.0168228 0.0165729 0.0163159 0.0160516 0.0157803 0.0155017 0.015216 0.0149231 0.014623 0.0143174 0.014008 0.0136947 0.0133776 0.0130566 0.0127317 0.012403 0.0120705 0.0117349 0.0113968 0.0110565 0.0107137 0.0103686 0.0100212 0.00967136 0.00931917 0.00896563 0.00861173 0.00825746 0.00790283 0.00754785 0.0071925 0.00683678 0.00648071 0.00612656 0.0057766 0.00543085 0.00508929 0.00475194 0.00441878 0.00408983 0.00376507 0.00344841 0.00314372 0.00285103 0.00257031 0.00230159 0.00204484 0.00180008 0.0015673 0.00134953 0.0011498 0.000968094 0.000804424 0.000658788 0.000531185 0.000421616 0.000330079 0.000252717 0.00018567 0.000128937 8.25198e-05 4.64174e-05 2.063e-05 5.15749e-06 0 0 1.99026e-05 7.96105e-05 0.000179124 0.000318442 0.000497566 0.000716495 0.000975229 0.00127377 0.00161672 0.00200868 0.00244966 0.00293966 0.00347867 0.00406669 0.00470373 0.00538978 0.0061064 0.00683513 0.00757597 0.00832892 0.00909399 0.00987116 0.0106604 0.0114618 0.0122586 0.0130337 0.0137874 0.0145196 0.0152303 0.0159195 0.0165872 0.0172333 0.0178505 0.0184312 0.0189753 0.019483 0.0199542 0.0203888 0.020787 0.0211486 0.021474 0.0217631 0.0220162 0.0222331 0.0224138 0.0225584 0.0226669 0.0227392 0.0227797 0.0227931 0.0227791 0.0227378 0.0226693 0.0225734 0.0224503 0.0222999 0.0221275 0.0219384 0.0217326 0.0215101 0.0212709 0.021015 0.0207424 0.0204531 0.020151 0.0198401 0.0195204 0.0191918 0.0188545 0.0185083 0.0181533 0.0177894 0.0174188 0.0170434 0.0166633 0.0162784 0.0158887 0.0154943 0.0150952 0.0146913 0.0142835 0.0138729 0.0134595 0.0130431 0.0126239 0.0122018 0.0117768 0.0113489 0.0109194 0.0104895 0.0100591 0.00962838 0.00919722 0.00876566 0.00833369 0.00790131 0.00747127 0.00704632 0.00662646 0.00621169 0.00580201 0.00539742 0.00499791 0.0046035 0.00421883 0.00384855 0.00349266 0.00315116 0.00282406 0.00251135 0.00221303 0.0019291 0.00166324 0.00141913 0.00119676 0.000996134 0.000817254 0.00066012 0.000524731 0.000411087 0.000314738 0.000231236 0.000160581 0.000102772 5.78091e-05 2.56929e-05 6.42323e-06 0 0 2.40947e-05 9.63789e-05 0.000216853 0.000385516 0.000602368 0.00086741 0.00118064 0.00154206 0.00195648 0.00242871 0.00295875 0.0035466 0.00419226 0.00489573 0.00565701 0.0064761 0.00733112 0.00820021 0.00908336 0.00998057 0.0108918 0.0118172 0.0127566 0.01371 0.0146578 0.01558 0.0164768 0.0173482 0.018194 0.0190143 0.0198092 0.0205786 0.0213136 0.0220054 0.022654 0.0232592 0.0238213 0.0243401 0.0248156 0.0252479 0.025637 0.0259833 0.0262865 0.0265469 0.0267643 0.0269387 0.0270702 0.0271587 0.0272095 0.0272278 0.0272135 0.0271666 0.0270872 0.0269752 0.0268307 0.0266536 0.0264502 0.0262267 0.0259832 0.0257197 0.0254361 0.0251324 0.0248087 0.0244649 0.0241057 0.0237359 0.0233553 0.0229641 0.0225622 0.0221496 0.0217264 0.0212924 0.0208502 0.0204022 0.0199485 0.019489 0.0190237 0.0185526 0.0180758 0.0175931 0.0171059 0.0166152 0.016121 0.0156235 0.0151224 0.0146179 0.0141099 0.0135985 0.0130852 0.0125714 0.0120571 0.0115424 0.0110273 0.0105116 0.00999557 0.00947906 0.00896535 0.00845771 0.00795613 0.00746063 0.00697119 0.00648782 0.00601051 0.00553928 0.00507957 0.00463685 0.00421112 0.00380238 0.00341063 0.00303587 0.0026781 0.00233732 0.00201793 0.00172432 0.00145649 0.00121445 0.000998183 0.000807703 0.000643006 0.000504092 0.000385945 0.000283552 0.000196911 0.000126023 7.08879e-05 3.15057e-05 7.87643e-06 0 0 2.87589e-05 0.000115036 0.00025883 0.000460143 0.000718974 0.00103532 0.00140919 0.00184057 0.00233433 0.00289532 0.00352354 0.004219 0.00498168 0.0058116 0.00670875 0.00767313 0.00867918 0.00970131 0.0107395 0.0117938 0.0128642 0.0139507 0.0150533 0.016172 0.0172838 0.0183659 0.0194182 0.0204407 0.0214334 0.0223964 0.0233296 0.0242331 0.0250964 0.0259091 0.0266713 0.027383 0.0280442 0.0286548 0.0292149 0.0297244 0.0301835 0.0305923 0.0309507 0.0312589 0.0315167 0.0317242 0.0318814 0.0319882 0.0320508 0.032075 0.0320609 0.0320086 0.0319179 0.0317889 0.0316216 0.031416 0.0311794 0.030919 0.0306349 0.0303271 0.0299955 0.0296401 0.029261 0.0288581 0.028437 0.0280032 0.0275565 0.0270971 0.026625 0.0261401 0.0256424 0.025132 0.0246117 0.0240845 0.0235504 0.0230094 0.0224614 0.0219066 0.0213448 0.0207761 0.0202019 0.0196236 0.0190412 0.0184548 0.0178642 0.0172696 0.0166709 0.0160681 0.0154631 0.0148575 0.0142515 0.0136449 0.0130379 0.0124304 0.0118224 0.0112139 0.0106088 0.0100108 0.00941987 0.00883611 0.00825949 0.00768999 0.00712763 0.0065724 0.00603062 0.00550863 0.00500641 0.00452396 0.0040613 0.00361841 0.0031953 0.00279197 0.0024136 0.00206537 0.00174729 0.00145936 0.00120157 0.000973934 0.000776441 0.000609094 0.000466338 0.000342615 0.000237927 0.000152274 8.56539e-05 3.80684e-05 9.51709e-06 0 0 3.38953e-05 0.000135581 0.000305057 0.000542324 0.000847381 0.00122023 0.00166087 0.0021693 0.00275026 0.00340851 0.00414403 0.00495684 0.00584693 0.0068143 0.00785896 0.00898089 0.0101506 0.0113384 0.0125445 0.0137687 0.0150112 0.0162718 0.0175507 0.0188477 0.0201366 0.0213912 0.0226114 0.0237972 0.0249486 0.0260657 0.0271484 0.0281967 0.0291987 0.0301423 0.0310275 0.0318544 0.0326229 0.033333 0.0339848 0.0345782 0.0351133 0.0355902 0.0360088 0.0363691 0.0366711 0.0369149 0.0371004 0.0372276 0.0373034 0.0373347 0.0373215 0.0372637 0.0371614 0.0370146 0.0368232 0.0365873 0.0363152 0.0360154 0.0356877 0.0353323 0.0349491 0.0345382 0.0340994 0.0336329 0.0331449 0.0326419 0.0321239 0.0315908 0.0310427 0.0304796 0.0299014 0.0293081 0.0287032 0.0280902 0.027469 0.0268396 0.026202 0.0255562 0.0249022 0.0242401 0.0235715 0.0228981 0.0222199 0.021537 0.0208493 0.0201569 0.0194596 0.0187576 0.018053 0.0173478 0.0166422 0.015936 0.0152292 0.014522 0.0138143 0.013106 0.0124016 0.0117055 0.0110177 0.0103381 0.00966689 0.00900393 0.00834926 0.00770287 0.007072 0.00646388 0.00587852 0.00531592 0.00477606 0.00425897 0.00376462 0.00329303 0.00285024 0.00244228 0.00206916 0.00173088 0.00142743 0.00115881 0.000925035 0.000726094 0.000555916 0.000408428 0.00028363 0.000181523 0.000102107 4.53809e-05 1.13452e-05 0 0 3.95037e-05 0.000158015 0.000355533 0.000632059 0.000987592 0.00142213 0.00193568 0.00252824 0.00320427 0.00396827 0.00482022 0.00576014 0.00678801 0.00790383 0.00910762 0.0103994 0.0117453 0.0131116 0.0144982 0.0159053 0.0173327 0.0187805 0.0202486 0.0217372 0.0232163 0.024656 0.0260565 0.0274177 0.0287396 0.0300222 0.0312655 0.0324695 0.0336205 0.0347048 0.0357224 0.0366732 0.0375573 0.0383747 0.0391254 0.0398094 0.0404266 0.040977 0.0414606 0.0418774 0.0422275 0.0425107 0.0427272 0.0428769 0.0429675 0.043007 0.0429951 0.0429321 0.0428177 0.0426522 0.0424354 0.0421673 0.0418576 0.0415157 0.0411416 0.0407354 0.0402971 0.0398266 0.0393239 0.0387891 0.0382294 0.0376523 0.0370575 0.0364453 0.0358155 0.0351681 0.0345032 0.0338208 0.0331248 0.0324193 0.0317042 0.0309795 0.0302453 0.0295015 0.0287481 0.0279852 0.0272147 0.0264388 0.0256573 0.0248703 0.0240777 0.0232797 0.0224762 0.0216671 0.020855 0.0200424 0.0192292 0.0184155 0.0176012 0.0167864 0.0159711 0.0151552 0.0143438 0.0135419 0.0127495 0.0119667 0.0111934 0.0104296 0.0096754 0.00893068 0.00820369 0.00750262 0.00682747 0.00617824 0.00555493 0.00495754 0.00438607 0.00384052 0.00332786 0.00285506 0.0024221 0.00202899 0.00167574 0.00136234 0.00108879 0.000855091 0.000654679 0.000480989 0.00033402 0.000213773 0.000120247 5.34432e-05 1.33608e-05 0 0 4.55842e-05 0.000182337 0.000410258 0.000729347 0.00113961 0.00164103 0.00223363 0.00291739 0.00369637 0.00457461 0.00555211 0.00662888 0.0078049 0.00908019 0.0104547 0.0119286 0.0134633 0.0150207 0.0166008 0.0182034 0.0198287 0.0214767 0.0231472 0.0248404 0.0265227 0.0281604 0.0297536 0.0313022 0.0328064 0.034266 0.035681 0.0370515 0.038362 0.0395968 0.040756 0.0418396 0.0428476 0.0437799 0.0446367 0.0454178 0.0461232 0.0467527 0.0473063 0.047784 0.0481858 0.0485118 0.0487619 0.0489361 0.0490431 0.0490917 0.0490819 0.0490136 0.0488869 0.0487017 0.0484582 0.0481561 0.0478065 0.04742 0.0469966 0.0465363 0.0460392 0.0455053 0.0449345 0.0443268 0.0436905 0.0430341 0.0423574 0.0416604 0.0409432 0.0402057 0.039448 0.0386701 0.0378765 0.0370718 0.0362561 0.0354293 0.0345914 0.0337425 0.0328825 0.0320114 0.0311316 0.0302456 0.0293532 0.0284545 0.0275494 0.0266381 0.0257204 0.0247965 0.0238691 0.0229411 0.0220126 0.0210835 0.0201538 0.0192236 0.0182928 0.0173615 0.0164353 0.01552 0.0146155 0.0137218 0.0128391 0.0119671 0.0111061 0.0102558 0.0094257 0.00862483 0.00785324 0.00711092 0.00639789 0.00571413 0.00505964 0.00443444 0.00384647 0.00330369 0.00280611 0.00235372 0.00194652 0.00158451 0.0012677 0.000996085 0.000762628 0.000560298 0.000389096 0.000249021 0.000140075 6.22553e-05 1.55638e-05 0 0 5.20254e-05 0.000208102 0.000468229 0.000832406 0.00130064 0.00187291 0.00254924 0.00332963 0.00421754 0.00521646 0.0063264 0.00754735 0.00887932 0.0103223 0.0118763 0.0135413 0.0152742 0.0170321 0.0188149 0.0206226 0.0224552 0.0243127 0.0261951 0.0281025 0.0299972 0.031842 0.0336368 0.0353816 0.0370764 0.0387212 0.040316 0.0418608 0.0433381 0.0447306 0.0460382 0.0472609 0.0483987 0.0494517 0.0504197 0.0513029 0.052101 0.0528137 0.053441 0.053983 0.0544396 0.0548108 0.0550967 0.0552971 0.0554219 0.0554808 0.0554736 0.0554005 0.0552615 0.0550564 0.0547854 0.0544484 0.0540575 0.0536247 0.0531502 0.0526338 0.0520756 0.0514755 0.0508337 0.05015 0.0494338 0.0486945 0.0479321 0.0471465 0.0463379 0.0455061 0.0446512 0.0437731 0.0428772 0.0419686 0.0410473 0.0401134 0.0391668 0.0382075 0.0372355 0.0362509 0.0352563 0.0342546 0.0332458 0.0322297 0.0312065 0.0301762 0.0291386 0.028094 0.0270454 0.0259963 0.0249466 0.0238963 0.0228454 0.021794 0.0207419 0.0196893 0.0186425 0.017608 0.0165857 0.0155756 0.0145778 0.0135922 0.0126188 0.0116577 0.0107191 0.00981321 0.0089401 0.00809973 0.00729212 0.00651727 0.00577516 0.00506581 0.00439823 0.00378142 0.0032154 0.00270015 0.00223569 0.001822 0.00145909 0.00114696 0.000878141 0.000645165 0.000448031 0.00028674 0.000161291 7.1685e-05 1.79213e-05 0 0 5.87159e-05 0.000234863 0.000528443 0.000939454 0.0014679 0.00211377 0.00287708 0.00375782 0.00475878 0.00588278 0.0071298 0.00849985 0.00999293 0.011609 0.0133482 0.0152103 0.0171476 0.0191119 0.0211035 0.0231221 0.0251679 0.0272409 0.029341 0.0314682 0.0335812 0.0356386 0.0376404 0.0395866 0.0414771 0.0433121 0.0450915 0.0468152 0.048464 0.0500184 0.0514785 0.0528443 0.0541158 0.0552929 0.0563757 0.0573642 0.0582579 0.0590566 0.0597602 0.0603688 0.0608822 0.0613006 0.0616239 0.0618522 0.061996 0.0620661 0.0620625 0.0619852 0.0618341 0.0616094 0.0613109 0.0609386 0.0605061 0.0600265 0.0595 0.0589265 0.058306 0.0576385 0.0569241 0.0561627 0.0553647 0.0545406 0.0536904 0.052814 0.0519115 0.0509828 0.0500281 0.0490472 0.048046 0.0470305 0.0460006 0.0449564 0.0438978 0.0428249 0.0417375 0.0406359 0.039523 0.0384021 0.0372731 0.0361361 0.0349911 0.033838 0.0326769 0.0315077 0.0303342 0.0291601 0.0279854 0.0268101 0.0256342 0.0244577 0.0232806 0.0221029 0.0209318 0.0197743 0.0186304 0.0175002 0.0163836 0.0152806 0.0141913 0.0131156 0.0120649 0.0110505 0.0100723 0.00913042 0.00822482 0.0073555 0.00652246 0.00572569 0.00497533 0.0042815 0.0036442 0.00306342 0.00253917 0.00207145 0.00166026 0.0013056 0.000999598 0.000734399 0.000509999 0.000326399 0.0001836 8.15998e-05 2.04e-05 0 0 6.56556e-05 0.000262622 0.0005909 0.00105049 0.00164139 0.0023636 0.00321712 0.00420196 0.0053201 0.00657355 0.0079623 0.00948637 0.0111457 0.0129404 0.0148704 0.0169357 0.0190833 0.0212602 0.0234665 0.0257021 0.027967 0.0302613 0.0325848 0.0349378 0.0372747 0.0395502 0.0417644 0.0439172 0.0460087 0.0480388 0.0500075 0.0519149 0.0537396 0.0554604 0.0570772 0.05859 0.0599988 0.0613037 0.0625046 0.0636015 0.0645939 0.0654814 0.0662638 0.0669413 0.0675137 0.0679812 0.0683437 0.0686011 0.0687652 0.0688477 0.0688484 0.0687675 0.0686049 0.0683606 0.0680346 0.0676269 0.0671523 0.0666253 0.066046 0.0654144 0.0647305 0.0639943 0.0632058 0.0623649 0.0614833 0.0605724 0.0596322 0.0586627 0.057664 0.056636 0.0555787 0.0544921 0.0533829 0.0522575 0.0511159 0.0499583 0.0487845 0.0475946 0.0463885 0.0451664 0.0439316 0.042688 0.0414353 0.0401737 0.0389032 0.0376236 0.0363351 0.0350377 0.0337354 0.0324325 0.0311291 0.029825 0.0285202 0.0272149 0.025909 0.0246024 0.0233031 0.0220188 0.0207496 0.0194955 0.0182564 0.0170324 0.0158234 0.0146296 0.0134631 0.0123366 0.0112498 0.010203 0.00919597 0.00822882 0.00730152 0.00641407 0.00557777 0.00480391 0.00409249 0.00344352 0.00285698 0.00233288 0.00187122 0.001472 0.001127 0.000827999 0.000574999 0.000367999 0.000207 9.19999e-05 2.3e-05 0 0 7.28446e-05 0.000291378 0.000655601 0.00116551 0.00182111 0.0026224 0.00356938 0.00466205 0.00590149 0.00728878 0.00882392 0.0105069 0.0123377 0.0143164 0.016443 0.0187174 0.0210814 0.0234769 0.0259039 0.0283624 0.0308523 0.0333738 0.0359267 0.038511 0.0410775 0.0435768 0.0460087 0.0483735 0.0506709 0.0529012 0.0550641 0.0571598 0.059165 0.0610564 0.062834 0.0644978 0.0660478 0.067484 0.0688063 0.0700149 0.071109 0.072088 0.0729518 0.0737005 0.0743341 0.0748525 0.0752558 0.075544 0.0757297 0.0758255 0.0758314 0.0757475 0.0755737 0.0753101 0.0749566 0.0745133 0.0739961 0.073421 0.0727882 0.0720975 0.0713491 0.0705428 0.0696786 0.0687567 0.0677895 0.0667899 0.0657576 0.0646928 0.0635955 0.0624655 0.0613031 0.0601081 0.0588878 0.0576495 0.0563933 0.055119 0.0538268 0.0525166 0.0511885 0.0498423 0.0484823 0.0471122 0.0457323 0.0443425 0.0429427 0.041533 0.0401134 0.0386839 0.0372491 0.0358136 0.0343776 0.0329409 0.0315035 0.0300656 0.028627 0.0271877 0.0257564 0.0243416 0.0229433 0.0215616 0.0201963 0.0188475 0.0175153 0.0161995 0.0149138 0.0136715 0.0124727 0.0113174 0.0102056 0.00913723 0.00811236 0.00713096 0.00620556 0.00534867 0.0045603 0.00384044 0.0031891 0.00260627 0.00209196 0.00164616 0.00126034 0.000925965 0.000643032 0.00041154 0.000231491 0.000102885 2.57213e-05 0 0 8.02828e-05 0.000321131 0.000722545 0.00128452 0.00200707 0.00289018 0.00393386 0.0051381 0.00650295 0.00802847 0.00971464 0.0115615 0.0135689 0.0157371 0.0180659 0.0205554 0.0231419 0.0257621 0.0284158 0.0311031 0.033824 0.0365784 0.0393665 0.0421881 0.0449898 0.0477183 0.0503735 0.0529554 0.0554639 0.0578993 0.0602613 0.06255 0.0647402 0.0668066 0.0687491 0.0705678 0.0722627 0.0738338 0.075281 0.0766044 0.0778032 0.0788765 0.0798243 0.0806465 0.0813434 0.0819147 0.0823605 0.0826808 0.0828893 0.0829995 0.0830115 0.0829252 0.0827407 0.0824579 0.0820769 0.0815976 0.0810374 0.0804138 0.0797266 0.0789759 0.0781617 0.077284 0.0763427 0.075338 0.0742835 0.073193 0.0720666 0.0709042 0.0697058 0.0684715 0.0672012 0.065895 0.0645608 0.0632067 0.0618326 0.0604387 0.0590248 0.0575911 0.0561374 0.0546638 0.0531748 0.0516749 0.0501641 0.0486424 0.0471097 0.0455662 0.0440117 0.0424464 0.0408752 0.0393034 0.0377309 0.0361578 0.0345841 0.0330096 0.0314346 0.0298588 0.0282918 0.0267427 0.0252116 0.0236984 0.0222032 0.020726 0.0192668 0.0178256 0.0164169 0.0150553 0.013741 0.0124737 0.0112537 0.0100807 0.00895497 0.00787635 0.00685868 0.00591577 0.0050476 0.00425419 0.00353554 0.00289164 0.00232248 0.00182809 0.00139963 0.0010283 0.000714096 0.000457022 0.000257075 0.000114255 2.85639e-05 0 0 8.79703e-05 0.000351881 0.000791733 0.00140752 0.00219926 0.00316693 0.00431054 0.0056301 0.00712449 0.00879261 0.0106345 0.01265 0.0148394 0.0172024 0.0197392 0.0224497 0.0252649 0.0281157 0.0310021 0.0339242 0.0368819 0.0398753 0.0429043 0.0459689 0.0490116 0.0519748 0.0548586 0.0576629 0.0603877 0.0630331 0.065599 0.0680854 0.0704651 0.0727108 0.0748224 0.0768 0.0786436 0.0803531 0.0819286 0.08337 0.0846764 0.0858468 0.0868811 0.0877793 0.0885415 0.0891676 0.0896576 0.0900116 0.0902441 0.0903698 0.0903886 0.0903006 0.0901057 0.089804 0.0893954 0.08888 0.0882764 0.0876035 0.0868612 0.0860495 0.0851684 0.0842179 0.083198 0.0821088 0.0809651 0.0797819 0.0785591 0.0772969 0.0759951 0.0746539 0.0732731 0.0718528 0.0704018 0.0689289 0.067434 0.0659172 0.0643785 0.0628179 0.0612353 0.0596308 0.0580094 0.056376 0.0547307 0.0530