<?xml version="1.0"?> 
<VTKFile type="StructuredGrid" version="0.1"> 
<StructuredGrid WholeExtent="0 128 0 128 0 0"> 
<Piece Extent="0 128 0 128 0 0"> 
<PointData>
<DataArray type="Float32" Name="u" format="ascii" NumberOfComponents="1"> 
0 0 0 0 0 0 0 0 0 0 0 0 0 0 0 0 0 0 0 0 0 0 0 0 0 0 0 0 0 0 0 0 0 0 0 0 0 0 0 0 0 0 0 0 0 0 0 0 0 0 0 0 0 0 0 0 0 0 0 0 0 0 0 0 0 0 0 0 0 0 0 0 0 0 0 0 0 0 0 0 0 0 0 0 0 0 0 0 0 0 0 0 0 0 0 0 0 0 0 0 0 0 0 0 0 0 0 0 0 0 0 0 0 0 0 0 0 0 0 0 0 0 0 0 0 0 0 0 0 0 2.27666e-07 9.10665e-07 2.049e-06 3.64266e-06 5.69166e-06 8.19599e-06 1.11556e-05 1.45706e-05 1.85069e-05 2.30305e-05 2.81413e-05 3.38393e-05 4.01246e-05 4.69972e-05 5.4457e-05 6.2504e-05 7.09254e-05 7.95083e-05 8.82526e-05 9.71584e-05 0.000106226 0.000115454 0.000124845 0.000134396 0.000143909 0.000153181 0.000162213 0.000171006 0.000179559 0.000187871 0.000195944 0.000203777 0.00021127 0.000218326 0.000224944 0.000231125 0.000236867 0.000242172 0.000247039 0.000251467 0.000255446 0.000258962 0.000262014 0.000264604 0.000266731 0.000268395 0.000269597 0.000270335 0.000270653 0.000270595 0.00027016 0.000269349 0.00026816 0.000266595 0.000264653 0.000262335 0.000259706 0.000256833 0.000253715 0.000250354 0.000246748 0.000242898 0.000238804 0.000234465 0.000229947 0.000225312 0.000220562 0.000215695 0.000210712 0.000205613 0.000200398 0.000195068 0.000189669 0.000184251 0.000178815 0.000173359 0.000167884 0.000162389 0.000156876 0.000151344 0.000145823 0.000140347 0.000134913 0.000129524 0.000124177 0.000118874 0.000113615 0.000108399 0.000103247 9.81794e-05 9.31959e-05 8.82967e-05 8.34817e-05 7.87511e-05 7.41046e-05 6.95425e-05 6.50834e-05 6.07461e-05 5.65305e-05 5.24368e-05 4.84648e-05 4.46147e-05 4.08863e-05 3.72797e-05 3.38184e-05 3.0526e-05 2.74023e-05 2.44475e-05 2.16614e-05 1.90442e-05 1.65958e-05 1.43162e-05 1.2215e-05 1.03017e-05 8.57626e-06 7.03875e-06 5.68914e-06 4.52744e-06 3.55364e-06 2.76775e-06 2.11906e-06 1.55686e-06 1.08115e-06 6.91938e-07 3.89215e-07 1.72985e-07 4.32462e-08 0 0 9.10665e-07 3.64266e-06 8.19599e-06 1.45706e-05 2.27666e-05 3.2784e-05 4.46226e-05 5.82826e-05 7.40277e-05 9.21219e-05 0.000112565 0.000135357 0.000160498 0.000187989 0.000217828 0.000250016 0.000283702 0.000318033 0.00035301 0.000388634 0.000424903 0.000461817 0.000499378 0.000537585 0.000575634 0.000612724 0.000648854 0.000684024 0.000718234 0.000751485 0.000783775 0.000815106 0.000845081 0.000873305 0.000899778 0.000924499 0.000947469 0.000968687 0.000988154 0.00100587 0.00102178 0.00103585 0.00104806 0.00105842 0.00106693 0.00107358 0.00107839 0.00108134 0.00108261 0.00108238 0.00108064 0.00107739 0.00107264 0.00106638 0.00105861 0.00104934 0.00103882 0.00102733 0.00101486 0.00100141 0.000986991 0.000971591 0.000955215 0.000937861 0.000919787 0.000901249 0.000882247 0.00086278 0.000842849 0.000822454 0.000801594 0.00078027 0.000758676 0.000737005 0.000715258 0.000693434 0.000671534 0.000649558 0.000627504 0.000605375 0.000583294 0.000561387 0.000539654 0.000518095 0.000496709 0.000475498 0.00045446 0.000433597 0.000412989 0.000392718 0.000372784 0.000353187 0.000333927 0.000315004 0.000296419 0.00027817 0.000260334 0.000242984 0.000226122 0.000209747 0.000193859 0.000178459 0.000163545 0.000149119 0.000135274 0.000122104 0.000109609 9.77899e-05 8.66458e-05 7.61769e-05 6.63833e-05 5.72649e-05 4.886e-05 4.12067e-05 3.43051e-05 2.8155e-05 2.27566e-05 1.81098e-05 1.42146e-05 1.1071e-05 8.47625e-06 6.22745e-06 4.32462e-06 2.76775e-06 1.55686e-06 6.91938e-07 1.72985e-07 0 0 2.049e-06 8.19599e-06 1.8441e-05 3.2784e-05 5.12249e-05 7.37639e-05 0.000100401 0.000131136 0.000166562 0.000207274 0.000253271 0.000304554 0.000361121 0.000422974 0.000490113 0.000562536 0.000638329 0.000715575 0.000794274 0.000874426 0.000956031 0.00103909 0.0011236 0.00120957 0.00129518 0.00137863 0.00145992 0.00153905 0.00161603 0.00169084 0.00176349 0.00183399 0.00190143 0.00196494 0.0020245 0.00208012 0.0021318 0.00217955 0.00222335 0.00226321 0.00229901 0.00233065 0.00235813 0.00238144 0.00240058 0.00241556 0.00242637 0.00243301 0.00243588 0.00243536 0.00243144 0.00242414 0.00241344 0.00239936 0.00238188 0.00236101 0.00233735 0.00231149 0.00228344 0.00225318 0.00222073 0.00218608 0.00214923 0.00211019 0.00206952 0.00202781 0.00198505 0.00194125 0.00189641 0.00185052 0.00180359 0.00175561 0.00170702 0.00165826 0.00160933 0.00156023 0.00151095 0.0014615 0.00141189 0.00136209 0.00131241 0.00126312 0.00121422 0.00116571 0.0011176 0.00106987 0.00102254 0.000975593 0.000929225 0.000883615 0.000838763 0.00079467 0.000751336 0.00070876 0.000666942 0.000625883 0.00058575 0.000546715 0.000508775 0.000471931 0.000436183 0.000401532 0.000367977 0.000335517 0.000304366 0.000274734 0.000246621 0.000220027 0.000194953 0.000171398 0.000149362 0.000128846 0.000109935 9.27151e-05 7.71864e-05 6.33488e-05 5.12023e-05 4.0747e-05 3.19828e-05 2.49098e-05 1.90716e-05 1.40118e-05 9.73038e-06 6.22745e-06 3.50294e-06 1.55686e-06 3.89215e-07 0 0 3.64266e-06 1.45706e-05 3.2784e-05 5.82826e-05 9.10665e-05 0.000131136 0.00017849 0.00023313 0.000296111 0.000368488 0.00045026 0.000541429 0.000641994 0.000751955 0.000871311 0.00100006 0.00113481 0.00127213 0.00141204 0.00155453 0.00169961 0.00184727 0.00199751 0.00215034 0.00230254 0.0024509 0.00259541 0.0027361 0.00287294 0.00300594 0.0031351 0.00326042 0.00338033 0.00349322 0.00359911 0.003698 0.00378988 0.00387475 0.00395262 0.00402348 0.00408714 0.00414339 0.00419223 0.00423367 0.0042677 0.00429433 0.00431355 0.00432536 0.00433045 0.00432952 0.00432256 0.00430958 0.00429056 0.00426552 0.00423445 0.00419736 0.00415529 0.00410932 0.00405944 0.00400566 0.00394797 0.00388637 0.00382086 0.00375145 0.00367915 0.003605 0.00352899 0.00345112 0.0033714 0.00328981 0.00320638 0.00312108 0.0030347 0.00294802 0.00286103 0.00277374 0.00268614 0.00259823 0.00251002 0.0024215 0.00233318 0.00224555 0.00215862 0.00207238 0.00198684 0.00190199 0.00181784 0.00173439 0.00165195 0.00157087 0.00149113 0.00141275 0.00133571 0.00126002 0.00118567 0.00111268 0.00104133 0.000971937 0.000904488 0.000838989 0.000775437 0.000713835 0.000654181 0.000596475 0.000541095 0.000488415 0.000438437 0.00039116 0.000346583 0.000304708 0.000265533 0.00022906 0.00019544 0.000164827 0.00013722 0.00011262 9.10263e-05 7.24391e-05 5.68583e-05 4.42841e-05 3.3905e-05 2.49098e-05 1.72985e-05 1.1071e-05 6.22745e-06 2.76775e-06 6.91938e-07 0 0 5.69166e-06 2.27666e-05 5.12249e-05 9.10665e-05 0.000142291 0.0002049 0.000278891 0.000364266 0.000462673 0.000575762 0.000703532 0.000845983 0.00100312 0.00117493 0.00136142 0.0015626 0.00177314 0.00198771 0.00220632 0.00242896 0.00265564 0.00288636 0.00312111 0.0033599 0.00359771 0.00382952 0.00405534 0.00427515 0.00448896 0.00469678 0.0048986 0.00509441 0.00528176 0.00545816 0.00562361 0.00577812 0.00592168 0.00605429 0.00617596 0.00628669 0.00638615 0.00647404 0.00655036 0.00661511 0.00666828 0.00670988 0.00673991 0.00675837 0.00676634 0.00676488 0.00675401 0.00673372 0.00670401 0.00666488 0.00661633 0.00655837 0.00649264 0.00642081 0.00634288 0.00625884 0.0061687 0.00607245 0.00597009 0.00586163 0.00574867 0.00563281 0.00551404 0.00539237 0.00526781 0.00514033 0.00500996 0.00487669 0.00474172 0.00460628 0.00447036 0.00433396 0.00419709 0.00405974 0.0039219 0.00378359 0.00364559 0.00350867 0.00337284 0.00323809 0.00310443 0.00297186 0.00284038 0.00270998 0.00258118 0.00245449 0.0023299 0.00220742 0.00208704 0.00196878 0.00185262 0.00173856 0.00162708 0.00151865 0.00141326 0.00131092 0.00121162 0.00111537 0.00102216 0.000931993 0.000845461 0.000763149 0.000685058 0.000611187 0.000541536 0.000476106 0.000414896 0.000357906 0.000305375 0.000257542 0.000214407 0.000175969 0.000142229 0.000113186 8.88411e-05 6.91938e-05 5.29765e-05 3.89215e-05 2.70288e-05 1.72985e-05 9.73038e-06 4.32462e-06 1.08115e-06 0 0 8.19599e-06 3.2784e-05 7.37639e-05 0.000131136 0.0002049 0.000295056 0.000401603 0.000524543 0.00066625 0.000829097 0.00101309 0.00121822 0.00144449 0.0016919 0.00196045 0.00225014 0.00255332 0.0028623 0.00317709 0.0034977 0.00382412 0.00415636 0.0044944 0.00483826 0.00518071 0.00551451 0.00583968 0.00615621 0.00646411 0.00676336 0.00705398 0.00733596 0.00760573 0.00785975 0.008098 0.00832049 0.00852722 0.00871818 0.00889339 0.00905283 0.00919605 0.00932262 0.00943252 0.00952575 0.00960233 0.00966223 0.00970548 0.00973206 0.00974352 0.00974143 0.00972577 0.00969655 0.00965377 0.00959743 0.00952752 0.00944405 0.00934941 0.00924597 0.00913375 0.00901273 0.00888292 0.00874432 0.00859693 0.00844075 0.00827809 0.00811124 0.00794022 0.00776502 0.00758564 0.00740208 0.00721435 0.00702243 0.00682808 0.00663305 0.00643732 0.00624091 0.00604381 0.00584602 0.00564754 0.00544837 0.00524965 0.00505248 0.00485688 0.00466285 0.00447038 0.00427948 0.00409014 0.00390237 0.0037169 0.00353446 0.00335505 0.00317868 0.00300534 0.00283504 0.00266777 0.00250353 0.002343 0.00218686 0.0020351 0.00188772 0.00174473 0.00160613 0.00147191 0.00134207 0.00121746 0.00109893 0.000986483 0.000880109 0.000779812 0.000685592 0.00059745 0.000515385 0.00043974 0.000370861 0.000308746 0.000253395 0.000204809 0.000162988 0.000127931 9.96391e-05 7.62862e-05 5.6047e-05 3.89215e-05 2.49098e-05 1.40118e-05 6.22745e-06 1.55686e-06 0 0 1.11556e-05 4.46226e-05 0.000100401 0.00017849 0.000278891 0.000401603 0.000546627 0.000713962 0.00090684 0.00112849 0.00137892 0.00165813 0.00196611 0.00230286 0.00266839 0.0030627 0.00347535 0.00389591 0.00432438 0.00476076 0.00520506 0.00565726 0.00611738 0.00658541 0.00705152 0.00750587 0.00794846 0.00837929 0.00879837 0.00920569 0.00960125 0.00998505 0.0103522 0.010698 0.0110223 0.0113251 0.0116065 0.0118664 0.0121049 0.0123219 0.0125169 0.0126891 0.0128387 0.0129656 0.0130698 0.0131514 0.0132102 0.0132464 0.013262 0.0132592 0.0132379 0.0131981 0.0131399 0.0130632 0.012968 0.0128544 0.0127256 0.0125848 0.012432 0.0122673 0.0120906 0.011902 0.0117014 0.0114888 0.0112674 0.0110403 0.0108075 0.0105691 0.0103249 0.0100751 0.00981953 0.00955831 0.00929378 0.00902831 0.00876191 0.00849457 0.00822629 0.00795708 0.00768693 0.00741584 0.00714535 0.00687699 0.00661076 0.00634666 0.00608469 0.00582485 0.00556714 0.00531156 0.00505911 0.00481079 0.0045666 0.00432654 0.00409061 0.0038588 0.00363113 0.00340758 0.00318909 0.00297656 0.00277 0.0025694 0.00237478 0.00218612 0.00200343 0.00182671 0.0016571 0.00149577 0.00134271 0.00119793 0.00106141 0.000933167 0.000813195 0.000701496 0.000598535 0.000504782 0.000420237 0.000344899 0.000278768 0.000221845 0.000174129 0.00013562 0.000103834 7.62862e-05 5.29765e-05 3.3905e-05 1.90716e-05 8.47625e-06 2.11906e-06 0 0 1.45706e-05 5.82826e-05 0.000131136 0.00023313 0.000364266 0.000524543 0.000713962 0.000932521 0.00118444 0.00147395 0.00180104 0.00216572 0.00256797 0.00300782 0.00348525 0.00400026 0.00453923 0.00508853 0.00564817 0.00621814 0.00679844 0.00738908 0.00799005 0.00860135 0.00921015 0.00980358 0.0103817 0.0109444 0.0114917 0.0120238 0.0125404 0.0130417 0.0135213 0.0139729 0.0143964 0.014792 0.0151595 0.015499 0.0158105 0.0160939 0.0163485 0.0165735 0.0167689 0.0169347 0.0170708 0.0171773 0.0172542 0.0173014 0.0173218 0.0173181 0.0172903 0.0172383 0.0171623 0.0170621 0.0169378 0.0167894 0.0166212 0.0164373 0.0162378 0.0160226 0.0157919 0.0155455 0.0152834 0.0150058 0.0147166 0.01442 0.0141159 0.0138045 0.0134856 0.0131593 0.0128255 0.0124843 0.0121388 0.0117921 0.0114441 0.011095 0.0107445 0.0103929 0.0100401 0.009686 0.0093327 0.00898219 0.00863446 0.00828951 0.00794735 0.00760797 0.00727137 0.00693755 0.00660782 0.00628348 0.00596454 0.00565099 0.00534283 0.00504007 0.0047427 0.00445072 0.00416534 0.00388775 0.00361795 0.00335595 0.00310175 0.00285534 0.00261672 0.0023859 0.00216438 0.00195366 0.00175375 0.00156464 0.00138633 0.00121883 0.00106213 0.000916239 0.00078176 0.000659308 0.000548881 0.00045048 0.000364105 0.000289756 0.000227433 0.000177136 0.00013562 9.96391e-05 6.91938e-05 4.42841e-05 2.49098e-05 1.1071e-05 2.76775e-06 0 0 1.85329e-05 7.41318e-05 0.000166796 0.000296527 0.000463323 0.000667186 0.000908114 0.00118611 0.00150634 0.00187397 0.00228902 0.00275147 0.00326132 0.00381858 0.00442325 0.00507532 0.00575759 0.00645283 0.00716106 0.00788226 0.00861644 0.00936361 0.0101237 0.0108969 0.0116668 0.0124173 0.0131484 0.0138601 0.0145524 0.0152253 0.0158787 0.0165128 0.0171195 0.0176908 0.0182266 0.0187271 0.0191921 0.0196218 0.020016 0.0203749 0.0206973 0.0209822 0.0212297 0.0214398 0.0216124 0.0217475 0.0218452 0.0219054 0.0219317 0.0219274 0.0218927 0.0218274 0.0217316 0.0216053 0.0214485 0.0212612 0.0210488 0.0208165 0.0205645 0.0202926 0.020001 0.0196895 0.0193583 0.0190072 0.0186416 0.0182665 0.017882 0.017488 0.0170846 0.0166718 0.0162496 0.0158179 0.0153807 0.014942 0.0145017 0.0140598 0.0136163 0.0131712 0.0127246 0.0122764 0.0118292 0.0113854 0.0109452 0.0105085 0.0100753 0.00964556 0.00921936 0.00879666 0.00837912 0.0079684 0.00756451 0.00716743 0.00677717 0.00639373 0.0060171 0.0056473 0.00528583 0.00493422 0.00459247 0.00426057 0.00393852 0.00362633 0.003324 0.00303152 0.00275079 0.00248371 0.00223026 0.00199047 0.00176431 0.0015518 0.00135293 0.0011677 0.0009969 0.000841304 0.000700913 0.000575728 0.000465748 0.000370974 0.000291405 0.000227042 0.000173829 0.000127711 8.86882e-05 5.67605e-05 3.19278e-05 1.41901e-05 3.54753e-06 0 0 2.31345e-05 9.2538e-05 0.00020821 0.000370152 0.000578362 0.000832842 0.00113359 0.00148061 0.0018798 0.00233707 0.00285242 0.00342586 0.00405737 0.00474696 0.00549463 0.00630038 0.00714305 0.00800147 0.00887564 0.00976555 0.0106712 0.0115926 0.0125298 0.0134827 0.0144316 0.0153566 0.0162577 0.017135 0.0179884 0.0188179 0.0196235 0.0204053 0.0211534 0.0218579 0.0225189 0.0231364 0.0237103 0.0242406 0.0247275 0.0251707 0.0255692 0.0259215 0.0262277 0.0264877 0.0267017 0.0268695 0.0269911 0.0270667 0.0271003 0.0270963 0.0270547 0.0269754 0.0268585 0.0267039 0.0265117 0.0262819 0.0260209 0.0257355 0.0254256 0.0250912 0.0247323 0.0243489 0.023941 0.0235087 0.0230582 0.022596 0.022122 0.0216364 0.021139 0.0206299 0.020109 0.0195765 0.0190371 0.0184956 0.0179522 0.0174067 0.0168592 0.0163097 0.0157581 0.0152046 0.0146522 0.014104 0.0135602 0.0130206 0.0124854 0.0119544 0.0114276 0.0109052 0.0103891 0.00988143 0.00938214 0.00889125 0.00840876 0.00793466 0.00746897 0.00701167 0.00656465 0.00612977 0.00570702 0.00529642 0.00489796 0.00451164 0.00413746 0.00377543 0.00342784 0.00309701 0.00278294 0.00248563 0.00220508 0.00194128 0.00169425 0.00146397 0.00125144 0.00105764 0.000882569 0.000726231 0.000588624 0.000469748 0.000369604 0.000288191 0.000220646 0.000162107 0.000112574 7.20477e-05 4.05268e-05 1.80119e-05 4.50298e-06 0 0 2.83753e-05 0.000113501 0.000255378 0.000454005 0.000709383 0.00102151 0.00139039 0.00181602 0.00230483 0.00286324 0.00349126 0.00418889 0.00495612 0.00579295 0.0066994 0.00767544 0.00869562 0.00973444 0.0107919 0.011868 0.0129628 0.0140762 0.0152083 0.016359 0.0175046 0.0186215 0.0197097 0.0207691 0.0217997 0.0228016 0.0237748 0.0247192 0.025623 0.0264744 0.0272734 0.0280199 0.028714 0.0293556 0.0299448 0.0304816 0.0309643 0.0313914 0.0317628 0.0320786 0.0323387 0.0325432 0.032692 0.0327852 0.0328278 0.0328249 0.0327764 0.0326824 0.032543 0.0323579 0.0321274 0.0318514 0.0315377 0.0311943 0.0308212 0.0304184 0.0299859 0.0295237 0.0290317 0.0285101 0.0279664 0.0274084 0.0268361 0.0262495 0.0256486 0.0250334 0.0244039 0.0237601 0.0231078 0.022453 0.0217957 0.0211357 0.0204733 0.0198083 0.0191407 0.0184706 0.0178018 0.017138 0.0164794 0.015826 0.0151776 0.0145344 0.0138962 0.0132632 0.0126378 0.0120226 0.0114174 0.0108225 0.0102376 0.00966288 0.0090983 0.00854385 0.00800179 0.00747438 0.00696163 0.00646353 0.00598007 0.00551127 0.00505712 0.00461762 0.00419552 0.00379357 0.00341177 0.00305013 0.00270863 0.00238728 0.00208609 0.00180504 0.00154538 0.00130831 0.00109385 0.000901989 0.000732733 0.00058608 0.00046203 0.000360583 0.000276071 0.000202828 0.000140853 9.01457e-05 5.07069e-05 2.25364e-05 5.6341e-06 0 0 3.42554e-05 0.000137022 0.000308299 0.000548087 0.000856385 0.00123319 0.00167852 0.00219235 0.00278142 0.00345249 0.00420553 0.00504056 0.00595757 0.00695656 0.00803754 0.0092005 0.0104153 0.0116517 0.0129099 0.0141897 0.0154911 0.0168143 0.0181591 0.0195255 0.0208858 0.022212 0.0235042 0.0247624 0.0259865 0.0271765 0.0283325 0.0294545 0.0305284 0.0315402 0.0324899 0.0333776 0.0342031 0.0349666 0.035668 0.0363073 0.0368826 0.0373918 0.0378351 0.0382123 0.0385235 0.0387687 0.0389478 0.039061 0.039114 0.039113 0.0390578 0.0389484 0.038785 0.0385674 0.0382956 0.0379697 0.0375991 0.0371929 0.0367513 0.0362743 0.0357618 0.0352138 0.0346304 0.0340115 0.0333663 0.0327039 0.0320243 0.0313275 0.0306136 0.0298825 0.0291342 0.0283687 0.027593 0.0268142 0.0260321 0.0252469 0.0244586 0.023667 0.0228723 0.0220744 0.0212779 0.0204874 0.0197029 0.0189245 0.018152 0.0173855 0.0166251 0.0158706 0.0151252 0.0143918 0.0136704 0.012961 0.0122637 0.0115784 0.0109051 0.0102438 0.00959725 0.00896807 0.00835628 0.00776187 0.00718485 0.00662521 0.00608296 0.0055581 0.00505384 0.00457339 0.00411677 0.00368396 0.00327497 0.0028898 0.00252845 0.00219092 0.00187871 0.00159332 0.00133475 0.001103 0.000898075 0.000719968 0.000568683 0.000444218 0.000340104 0.000249872 0.000173523 0.000111054 6.24681e-05 2.77636e-05 6.9409e-06 0 0 4.07748e-05 0.000163099 0.000366973 0.000652396 0.00101937 0.00146789 0.00199796 0.00260959 0.00330959 0.0041048 0.00499523 0.00598087 0.00706172 0.00823779 0.00950907 0.0108756 0.0123021 0.0137534 0.0152295 0.0167305 0.0182562 0.0198068 0.0213822 0.0229825 0.0245752 0.0261282 0.0276414 0.0291149 0.0305486 0.0319425 0.0332967 0.0346112 0.0358695 0.0370553 0.0381686 0.0392095 0.0401778 0.0410737 0.0418971 0.042648 0.0433241 0.0439229 0.0444445 0.0448889 0.045256 0.0455459 0.0457586 0.045894 0.0459591 0.0459607 0.0458988 0.0457734 0.0455845 0.0453322 0.0450163 0.044637 0.044205 0.0437313 0.0432159 0.0426588 0.0420599 0.0414193 0.040737 0.0400129 0.0392578 0.0384823 0.0376865 0.0368704 0.0360339 0.035177 0.0342998 0.0334023 0.0324926 0.031579 0.0306616 0.0297403 0.028815 0.0278859 0.0269529 0.026016 0.0250806 0.0241522 0.0232307 0.0223162 0.0214086 0.0205079 0.0196143 0.0187275 0.0178513 0.0169891 0.016141 0.015307 0.0144871 0.0136812 0.0128893 0.0121116 0.011351 0.0106108 0.00989098 0.00919147 0.0085123 0.00785348 0.007215 0.00659687 0.00600279 0.00543647 0.00489792 0.00438713 0.0039041 0.00344884 0.00302134 0.00262161 0.00225145 0.00191267 0.00160528 0.00132927 0.00108465 0.000871414 0.000689563 0.000539096 0.000412745 0.000303242 0.000210584 0.000134774 7.58104e-05 3.36935e-05 8.42338e-06 0 0 4.79334e-05 0.000191734 0.000431401 0.000766934 0.00119833 0.0017256 0.00234874 0.00306774 0.00388932 0.00482019 0.00586036 0.00700983 0.00826858 0.00963663 0.011114 0.0127006 0.0143559 0.0160394 0.0177509 0.0194905 0.0212582 0.0230539 0.0248778 0.0267297 0.0285728 0.0303699 0.0321212 0.0338266 0.0354861 0.0370997 0.0386674 0.0401892 0.0416463 0.0430197 0.0443095 0.0455156 0.0466381 0.0476769 0.0486321 0.0495037 0.0502888 0.0509846 0.0515911 0.0521083 0.0525362 0.0528749 0.0531242 0.0532843 0.0533629 0.053368 0.0532995 0.0531573 0.0529417 0.0526524 0.0522895 0.0518531 0.0513556 0.0508095 0.050215 0.0495719 0.0488803 0.0481402 0.0473515 0.0465143 0.0456409 0.0447438 0.0438228 0.042878 0.0419094 0.0409171 0.0399009 0.0388609 0.0378066 0.0367477 0.035684 0.0346157 0.0335427 0.0324649 0.0313825 0.0302954 0.0292099 0.0281323 0.0270627 0.026001 0.0249473 0.0239016 0.0228637 0.0218338 0.0208161 0.0198146 0.0188293 0.0178604 0.0169077 0.0159712 0.0150511 0.0141472 0.0132631 0.0124027 0.0115657 0.0107523 0.00996242 0.00919606 0.00845322 0.00773392 0.00704237 0.00638281 0.00575523 0.00515963 0.00459602 0.0040644 0.00356475 0.0030971 0.00266358 0.00226636 0.00190543 0.0015808 0.00129246 0.00104042 0.000824669 0.000645218 0.000493995 0.000362935 0.000252038 0.000161304 9.07337e-05 4.03261e-05 1.00815e-05 0 0 5.57313e-05 0.000222925 0.000501581 0.0008917 0.00139328 0.00200633 0.00273083 0.0035668 0.00452062 0.00559866 0.00680092 0.00812742 0.00957814 0.0111531 0.0128523 0.0146757 0.0165769 0.0185097 0.0204739 0.0224696 0.0244968 0.0265555 0.0286457 0.0307674 0.0328786 0.0349373 0.0369436 0.0388975 0.040799 0.042648 0.0444445 0.0461887 0.0478588 0.0494334 0.0509124 0.0522959 0.0535838 0.0547762 0.055873 0.0568742 0.0577766 0.0585768 0.0592748 0.0598706 0.0603642 0.0607556 0.0610449 0.0612319 0.0613256 0.0613349 0.0612598 0.0611003 0.0608563 0.060528 0.0601152 0.059618 0.0590507 0.0584275 0.0577485 0.0570137 0.0562229 0.0553764 0.054474 0.0535157 0.0525157 0.0514882 0.0504331 0.0493505 0.0482403 0.0471026 0.0459373 0.0447445 0.0435351 0.0423201 0.0410995 0.0398733 0.0386415 0.0374041 0.0361611 0.0349126 0.0336657 0.0324278 0.031199 0.0299791 0.0287682 0.0275664 0.0263735 0.0251896 0.0240196 0.0228681 0.0217353 0.0206211 0.0195255 0.0184486 0.0173902 0.0163505 0.0153336 0.0143436 0.0133805 0.0124444 0.0115352 0.010653 0.00979764 0.00896926 0.00817259 0.0074124 0.0066887 0.00600147 0.00535073 0.00473647 0.00415869 0.00361739 0.00311511 0.00265438 0.0022352 0.00185758 0.0015215 0.00122698 0.000974003 0.000762582 0.000583852 0.000428952 0.000297884 0.000190646 0.000107238 4.76614e-05 1.19153e-05 0 0 6.41684e-05 0.000256674 0.000577516 0.00102669 0.00160421 0.00231006 0.00314425 0.00410678 0.00520348 0.00644019 0.00781692 0.00933366 0.0109904 0.0127872 0.0147239 0.0168007 0.018965 0.0211643 0.0233986 0.025668 0.0279723 0.0303116 0.032686 0.0350954 0.0374925 0.0398303 0.0421087 0.0443276 0.0464872 0.0485874 0.0506281 0.0526095 0.054507 0.0562964 0.0579775 0.0595504 0.0610151 0.0623715 0.0636197 0.0647598 0.0657877 0.0666997 0.0674957 0.0681758 0.0687399 0.0691881 0.0695204 0.0697367 0.0698471 0.0698614 0.0697798 0.0696022 0.0693286 0.068959 0.0684934 0.0679318 0.0672904 0.0665853 0.0658165 0.064984 0.0640878 0.0631279 0.0621044 0.0610171 0.0598821 0.0587156 0.0575175 0.0562878 0.0550265 0.0537336 0.0524091 0.0510531 0.0496779 0.0482962 0.0469079 0.045513 0.0441115 0.0427034 0.0412888 0.0398676 0.0384481 0.0370387 0.0356395 0.0342503 0.0328713 0.0315024 0.0301435 0.0287948 0.0274617 0.0261498 0.0248589 0.0235892 0.0223406 0.0211132 0.0199069 0.0187217 0.0175623 0.0164336 0.0153354 0.0142677 0.0132307 0.0122242 0.0112482 0.0103029 0.00939344 0.00852526 0.00769832 0.00691265 0.00616823 0.00546506 0.00480315 0.00418249 0.00360604 0.00307674 0.0025946 0.00215961 0.00177177 0.00143109 0.00113756 0.00089119 0.000682317 0.000501294 0.000348121 0.000222797 0.000125324 5.56994e-05 1.39248e-05 0 0 7.30699e-05 0.000292279 0.000657629 0.00116912 0.00182675 0.00263051 0.00358042 0.00467647 0.00592377 0.00732745 0.00888749 0.0106039 0.0124767 0.0145059 0.0166914 0.0190333 0.0214727 0.0239506 0.0264671 0.0290222 0.0316158 0.034248 0.0369187 0.0396281 0.0423234 0.044952 0.0475139 0.0500093 0.0524379 0.0547999 0.0570952 0.0593239 0.0614586 0.0634719 0.0653638 0.0671343 0.0687835 0.0703113 0.0717176 0.0730027 0.0741619 0.0751908 0.0760895 0.076858 0.0774961 0.0780041 0.0783818 0.0786292 0.0787575 0.0787777 0.0786899 0.078494 0.07819 0.077778 0.077258 0.0766298 0.0759117 0.0751217 0.0742598 0.0733259 0.0723202 0.0712425 0.0700929 0.0688714 0.067596 0.0662848 0.0649377 0.0635548 0.062136 0.0606814 0.0591909 0.0576646 0.0561166 0.0545609 0.0529975 0.0514265 0.0498479 0.0482616 0.0466676 0.045066 0.0434662 0.0418777 0.0403003 0.0387343 0.0371794 0.0356358 0.0341035 0.0325824 0.0310787 0.0295988 0.0281427 0.0267102 0.0253015 0.0239166 0.0225554 0.0212179 0.0199094 0.0186353 0.0173955 0.0161901 0.015019 0.0138822 0.0127798 0.0117118 0.010684 0.00970237 0.00876697 0.00787778 0.00703479 0.006238 0.00548741 0.00478302 0.00412823 0.00352645 0.00297768 0.00248192 0.00203916 0.00164941 0.00131267 0.00102893 0.000787775 0.000578773 0.000401926 0.000257233 0.000144693 6.43081e-05 1.6077e-05 0 0 8.22606e-05 0.000329042 0.000740345 0.00131617 0.00205651 0.00296138 0.00403077 0.00526468 0.00666736 0.00824307 0.00999181 0.0119136 0.0140084 0.0162762 0.018717 0.0213309 0.0240523 0.0268158 0.0296213 0.0324689 0.0353586 0.0382903 0.0412641 0.0442799 0.0472797 0.0502055 0.0530571 0.0558347 0.0585382 0.0611676 0.063723 0.0662042 0.0685811 0.0708231 0.0729304 0.074903 0.0767407 0.0784437 0.080012 0.0814454 0.0827391 0.083888 0.084892 0.0857512 0.0864656 0.0870351 0.0874599 0.0877398 0.0878871 0.087914 0.0878205 0.0876067 0.0872724 0.0868178 0.0862428 0.0855473 0.0847516 0.0838754 0.082919 0.0818822 0.080765 0.0795675 0.0782897 0.0769315 0.075513 0.0740543 0.0725554 0.0710162 0.0694368 0.0678171 0.0661572 0.064457 0.0627323 0.0609989 0.0592566 0.0575056 0.0557458 0.0539772 0.0521998 0.0504137 0.0486293 0.0468573 0.0450977 0.0433504 0.0416155 0.039893 0.0381829 0.0364851 0.0348067 0.0331546 0.031529 0.0299297 0.0283568 0.0268102 0.0252901 0.0237963 0.0223348 0.0209114 0.0195262 0.0181792 0.0168704 0.0155997 0.0143672 0.0131728 0.0120232 0.0109247 0.00987751 0.00888149 0.00793669 0.00704311 0.00620074 0.00540958 0.00467354 0.00399651 0.0033785 0.00281951 0.00231953 0.00187857 0.00149662 0.00117369 0.000898608 0.000660202 0.000458473 0.000293423 0.00016505 7.33557e-05 1.83389e-05 0 0 9.17406e-05 0.000366962 0.000825665 0.00146785 0.00229351 0.00330266 0.00449529 0.0058714 0.00743424 0.00918706 0.0111299 0.0132626 0.0155854 0.0180981 0.0208008 0.0236935 0.026704 0.0297599 0.0328613 0.0360082 0.0392007 0.0424386 0.045722 0.0490508 0.0523617 0.0555908 0.0587382 0.061804 0.0647881 0.0676905 0.0705113 0.0732504 0.0758744 0.0783501 0.0806774 0.0828563 0.0848868 0.0867689 0.0885027 0.0900881 0.0915194 0.0927911 0.0939032 0.0948555 0.0956482 0.0962813 0.0967547 0.0970684 0.0972358 0.0972703 0.0971717 0.0969402 0.0965757 0.0960782 0.0954478 0.0946843 0.0938099 0.0928465 0.0917941 0.0906528 0.0894224 0.0881031 0.0866948 0.0851975 0.0836333 0.0820244 0.0803706 0.0786721 0.0769288 0.0751407 0.0733079 0.0714302 0.0695252 0.0676102 0.0656852 0.0637503 0.0618053 0.0598503 0.0578854 0.0559105 0.0539373 0.0519776 0.0500315 0.0480988 0.0461796 0.0442739 0.0423817 0.040503 0.0386456 0.0368172 0.0350178 0.0332476 0.0315063 0.0297942 0.0281111 0.026457 0.0248385 0.023262 0.0217276 0.0202352 0.0187849 0.0173766 0.0160103 0.0146861 0.0134111 0.0121924 0.0110299 0.00992379 0.00887394 0.00788039 0.00694314 0.00606219 0.00524197 0.00448693 0.00379707 0.00317239 0.00261289 0.00211857 0.00168943 0.00132548 0.00101482 0.00074558 0.000517764 0.000331369 0.000186395 8.28422e-05 2.07105e-05 0 0 0.00010151 0.00040604 0.000913589 0.00162416 0.00253775 0.00365436 0.00497399 0.00649663 0.00822441 0.0101594 0.0123016 0.0146511 0.0172078 0.0199717 0.0229428 0.0261212 0.0294276 0.0327829 0.0361871 0.0396401 0.043142 0.0466928 0.0502924 0.0539409 0.0575691 0.0611079 0.0645572 0.0679171 0.0711876 0.0743686 0.0774602 0.0804623 0.0833387 0.0860527 0.0886046 0.0909942 0.0932217 0.0952868 0.0971898 0.0989306 0.100503 0.1019 0.103123 0.104171 0.105044 0.105743 0.106266 0.106615 0.106804 0.106847 0.106743 0.106495 0.1061 0.105559 0.104873 0.104041 0.103087 0.102035 0.100885 0.0996378 0.0982924 0.0968492 0.0953082 0.0936693 0.0919568 0.0901948 0.0883834 0.0865225 0.0846121 0.0826523 0.0806431 0.0785843 0.0764952 0.0743949 0.0722833 0.0701604 0.0680263 0.065881 0.0637243 0.0615565 0.0593903 0.0572387 0.0551017 0.0529794 0.0508716 0.0487785 0.0467 0.0446361 0.0425954 0.0405864 0.0386093 0.0366639 0.0347502 0.0328684 0.0310183 0.0291999 0.0274205 0.025687 0.0239995 0.0223579 0.0207624 0.0192128 0.0177092 0.0162516 0.0148477 0.0135052 0.0122242 0.0110047 0.00984653 0.00874985 0.00771462 0.00674083 0.00583351 0.00499769 0.00423338 0.00354056 0.00291924 0.00236942 0.0018911 0.00148428 0.0011364 0.000834907 0.000579797 0.00037107 0.000208727 9.27675e-05 2.31919e-05 0 0 0.000111568 0.000446274 0.00100412 0.0017851 0.00278921 0.00401647 0.00546686 0.00714038 0.00903787 0.0111601 0.0135072 0.016079 0.0188755 0.0218969 0.025143 0.0286139 0.0322233 0.0358849 0.0395986 0.0433645 0.0471827 0.051053 0.0549754 0.0589501 0.0629021 0.0667568 0.0705141 0.0741741 0.0777367 0.0812019 0.0845697 0.0878402 0.0909738 0.0939311 0.0967122 0.0993169 0.101745 0.103998 0.106073 0.107973 0.109689 0.111215 0.112552 0.113697 0.114653 0.115419 0.115995 0.11638 0.116591 0.116643 0.116536 0.11627 0.115845 0.115261 0.114519 0.113617 0.112582 0.111441 0.110192 0.108837 0.107375 0.105806 0.10413 0.102347 0.100483 0.0985657 0.0965937 0.0945674 0.0924868 0.0903519 0.0881627 0.0859193 0.0836424 0.0813529 0.0790508 0.0767362 0.0744089 0.0720691 0.0697167 0.0673516 0.0649882 0.0626404 0.0603084 0.0579922 0.0556916 0.0534068 0.0511377 0.0488844 0.0466562 0.0444625 0.0423033 0.0401786 0.0380885 0.0360328 0.0340117 0.0320251 0.0300808 0.0281864 0.026342 0.0245475 0.022803 0.0211085 0.0194639 0.0178693 0.016333 0.0148634 0.0134604 0.0121241 0.0108545 0.00965149 0.00851517 0.00744551 0.00644818 0.00552881 0.00468742 0.00392401 0.00323857 0.00263111 0.00210162 0.00165011 0.00126336 0.000928185 0.000644573 0.000412527 0.000232046 0.000103132 2.57829e-05 0 0 0.000121916 0.000487666 0.00109725 0.00195066 0.00304791 0.00438899 0.0059739 0.00780265 0.00987462 0.0121892 0.0147464 0.0175462 0.0205887 0.0238737 0.0274014 0.0311717 0.035091 0.0390657 0.0430959 0.0471815 0.0513226 0.0555191 0.059771 0.0640784 0.0683607 0.0725376 0.076609 0.0805749 0.0844353 0.0881903 0.0918398 0.0953838 0.0987798 0.101985 0.105 0.107824 0.110458 0.112901 0.115153 0.117215 0.119079 0.120737 0.122189 0.123435 0.124476 0.12531 0.12594 0.126363 0.126597 0.126659 0.126549 0.126266 0.125811 0.125184 0.124384 0.123412 0.122296 0.121064 0.119716 0.118251 0.11667 0.114973 0.11316 0.11123 0.109213 0.107137 0.105002 0.102807 0.100553 0.0982394 0.0958668 0.0934351 0.0909667 0.0884843 0.0859879 0.0834775 0.0809531 0.0784147 0.0758623 0.0732959 0.070731 0.0681829 0.0656516 0.0631372 0.0606396 0.0581588 0.0556949 0.0532479 0.0508279 0.0484452 0.0460998 0.0437918 0.041521 0.0392876 0.0370914 0.0349326 0.0328194 0.0307602 0.028755 0.0268039 0.0249067 0.0230635 0.0212744 0.01