<?xml version="1.0"?> 
<VTKFile type="StructuredGrid" version="0.1"> 
<StructuredGrid WholeExtent="0 128 0 128 0 0"> 
<Piece Extent="0 128 0 128 0 0"> 
<PointData>
<DataArray type="Float32" Name="u" format="ascii" NumberOfComponents="1"> 
0 0 0 0 0 0 0 0 0 0 0 0 0 0 0 0 0 0 0 0 0 0 0 0 0 0 0 0 0 0 0 0 0 0 0 0 0 0 0 0 0 0 0 0 0 0 0 0 0 0 0 0 0 0 0 0 0 0 0 0 0 0 0 0 0 0 0 0 0 0 0 0 0 0 0 0 0 0 0 0 0 0 0 0 0 0 0 0 0 0 0 0 0 0 0 0 0 0 0 0 0 0 0 0 0 0 0 0 0 0 0 0 0 0 0 0 0 0 0 0 0 0 0 0 0 0 0 0 0 0 -1.53216e-07 -6.12865e-07 -1.37895e-06 -2.45146e-06 -3.8304e-06 -5.51578e-06 -7.50759e-06 -9.80584e-06 -1.22353e-05 -1.46207e-05 -1.69622e-05 -1.92596e-05 -2.1513e-05 -2.37224e-05 -2.58878e-05 -2.80091e-05 -2.99392e-05 -3.15307e-05 -3.27837e-05 -3.36981e-05 -3.42739e-05 -3.45112e-05 -3.44099e-05 -3.397e-05 -3.32988e-05 -3.25035e-05 -3.1584e-05 -3.05404e-05 -2.93727e-05 -2.80809e-05 -2.6665e-05 -2.51249e-05 -2.36536e-05 -2.24438e-05 -2.14957e-05 -2.08092e-05 -2.03843e-05 -2.02209e-05 -2.03192e-05 -2.06791e-05 -2.13377e-05 -2.23323e-05 -2.36628e-05 -2.53292e-05 -2.73315e-05 -2.96697e-05 -3.23439e-05 -3.5354e-05 -3.85273e-05 -4.16911e-05 -4.48454e-05 -4.79902e-05 -5.11255e-05 -5.42513e-05 -5.73676e-05 -6.04745e-05 -6.33791e-05 -6.58886e-05 -6.80031e-05 -6.97226e-05 -7.10471e-05 -7.19766e-05 -7.2511e-05 -7.26504e-05 -7.23985e-05 -7.17587e-05 -7.07312e-05 -6.93159e-05 -6.75128e-05 -6.5322e-05 -6.27434e-05 -5.9777e-05 -5.66149e-05 -5.3449e-05 -5.02794e-05 -4.71061e-05 -4.3929e-05 -4.07482e-05 -3.75637e-05 -3.43755e-05 -3.13461e-05 -2.86382e-05 -2.62518e-05 -2.41869e-05 -2.24435e-05 -2.10216e-05 -1.99211e-05 -1.91422e-05 -1.86467e-05 -1.83967e-05 -1.83921e-05 -1.86329e-05 -1.91192e-05 -1.9851e-05 -2.08282e-05 -2.20508e-05 -2.33435e-05 -2.4531e-05 -2.56131e-05 -2.65899e-05 -2.74615e-05 -2.82278e-05 -2.88887e-05 -2.94444e-05 -2.98017e-05 -2.98675e-05 -2.96419e-05 -2.91247e-05 -2.83161e-05 -2.7216e-05 -2.58244e-05 -2.41413e-05 -2.22953e-05 -2.0415e-05 -1.85005e-05 -1.65516e-05 -1.45684e-05 -1.25509e-05 -1.04991e-05 -8.41299e-06 -6.4412e-06 -4.73231e-06 -3.28633e-06 -2.10325e-06 -1.18308e-06 -5.25812e-07 -1.31453e-07 0 0 -6.12865e-07 -2.45146e-06 -5.51578e-06 -9.80584e-06 -1.53216e-05 -2.20631e-05 -3.00304e-05 -3.92233e-05 -4.89412e-05 -5.84829e-05 -6.78486e-05 -7.70383e-05 -8.60519e-05 -9.48895e-05 -0.000103551 -0.000112037 -0.000119757 -0.000126123 -0.000131135 -0.000134792 -0.000137096 -0.000138045 -0.000137639 -0.00013588 -0.000133195 -0.000130014 -0.000126336 -0.000122162 -0.000117491 -0.000112324 -0.00010666 -0.0001005 -9.46142e-05 -8.97753e-05 -8.59828e-05 -8.32367e-05 -8.1537e-05 -8.08837e-05 -8.12768e-05 -8.27163e-05 -8.53509e-05 -8.93291e-05 -9.4651e-05 -0.000101317 -0.000109326 -0.000118679 -0.000129376 -0.000141416 -0.000154109 -0.000166764 -0.000179381 -0.000191961 -0.000204502 -0.000217005 -0.000229471 -0.000241898 -0.000253516 -0.000263554 -0.000272013 -0.000278891 -0.000284188 -0.000287906 -0.000290044 -0.000290602 -0.000289594 -0.000287035 -0.000282925 -0.000277264 -0.000270051 -0.000261288 -0.000250973 -0.000239108 -0.000226459 -0.000213796 -0.000201118 -0.000188424 -0.000175716 -0.000162993 -0.000150255 -0.000137502 -0.000125384 -0.000114553 -0.000105007 -9.67477e-05 -8.9774e-05 -8.40863e-05 -7.96845e-05 -7.65687e-05 -7.45868e-05 -7.35866e-05 -7.35682e-05 -7.45317e-05 -7.64769e-05 -7.94039e-05 -8.33126e-05 -8.82032e-05 -9.33741e-05 -9.81238e-05 -0.000102452 -0.00010636 -0.000109846 -0.000112911 -0.000115555 -0.000117778 -0.000119207 -0.00011947 -0.000118568 -0.000116499 -0.000113264 -0.000108864 -0.000103298 -9.65652e-05 -8.91813e-05 -8.16601e-05 -7.40018e-05 -6.62063e-05 -5.82735e-05 -5.02035e-05 -4.19964e-05 -3.3652e-05 -2.57648e-05 -1.89292e-05 -1.31453e-05 -8.41299e-06 -4.73231e-06 -2.10325e-06 -5.25812e-07 0 0 -1.37895e-06 -5.51578e-06 -1.24105e-05 -2.20631e-05 -3.44736e-05 -4.9642e-05 -6.75683e-05 -8.82525e-05 -0.000110118 -0.000131587 -0.000152659 -0.000173336 -0.000193617 -0.000213501 -0.00023299 -0.000252082 -0.000269453 -0.000283777 -0.000295053 -0.000303283 -0.000308465 -0.000310601 -0.000309689 -0.00030573 -0.000299689 -0.000292531 -0.000284256 -0.000274864 -0.000264355 -0.000252728 -0.000239985 -0.000226124 -0.000212882 -0.000201994 -0.000193461 -0.000187283 -0.000183458 -0.000181988 -0.000182873 -0.000186112 -0.000192039 -0.00020099 -0.000212965 -0.000227962 -0.000245983 -0.000267027 -0.000291095 -0.000318186 -0.000346745 -0.00037522 -0.000403608 -0.000431912 -0.000460129 -0.000488262 -0.000516309 -0.00054427 -0.000570411 -0.000592997 -0.000612028 -0.000627504 -0.000639424 -0.000647789 -0.000652599 -0.000653854 -0.000651586 -0.000645828 -0.000636581 -0.000623843 -0.000607615 -0.000587898 -0.00056469 -0.000537993 -0.000509534 -0.000481041 -0.000452515 -0.000423955 -0.000395361 -0.000366734 -0.000338073 -0.000309379 -0.000282115 -0.000257744 -0.000236266 -0.000217682 -0.000201992 -0.000189194 -0.00017929 -0.00017228 -0.00016782 -0.00016557 -0.000165529 -0.000167696 -0.000172073 -0.000178659 -0.000187453 -0.000198457 -0.000210092 -0.000220779 -0.000230518 -0.000239309 -0.000247153 -0.00025405 -0.000259999 -0.000265 -0.000268216 -0.000268808 -0.000266777 -0.000262123 -0.000254845 -0.000244944 -0.000232419 -0.000217272 -0.000200658 -0.000183735 -0.000166504 -0.000148964 -0.000131115 -0.000112958 -9.44918e-05 -7.57169e-05 -5.79708e-05 -4.25908e-05 -2.95769e-05 -1.89292e-05 -1.06477e-05 -4.73231e-06 -1.18308e-06 0 0 -2.45146e-06 -9.80584e-06 -2.20631e-05 -3.92233e-05 -6.12865e-05 -8.82525e-05 -0.000120122 -0.000156893 -0.000195765 -0.000233932 -0.000271395 -0.000308153 -0.000344208 -0.000379558 -0.000414204 -0.000448146 -0.000479027 -0.000504492 -0.000524539 -0.000539169 -0.000548383 -0.000552179 -0.000550558 -0.00054352 -0.000532781 -0.000520055 -0.000505344 -0.000488647 -0.000469964 -0.000449294 -0.000426639 -0.000401998 -0.000378457 -0.000359101 -0.000343931 -0.000332947 -0.000326148 -0.000323535 -0.000325107 -0.000330865 -0.000341403 -0.000357316 -0.000378604 -0.000405266 -0.000437304 -0.000474715 -0.000517502 -0.000565663 -0.000616436 -0.000667057 -0.000717526 -0.000767843 -0.000818008 -0.000868021 -0.000917882 -0.000967592 -0.00101406 -0.00105422 -0.00108805 -0.00111556 -0.00113675 -0.00115163 -0.00116018 -0.00116241 -0.00115838 -0.00114814 -0.0011317 -0.00110905 -0.00108021 -0.00104515 -0.00100389 -0.000956432 -0.000905838 -0.000855184 -0.00080447 -0.000753697 -0.000702864 -0.000651972 -0.000601019 -0.000550007 -0.000501538 -0.000458211 -0.000420029 -0.000386991 -0.000359096 -0.000336345 -0.000318738 -0.000306275 -0.000298347 -0.000294346 -0.000294273 -0.000298127 -0.000305907 -0.000317615 -0.000333251 -0.000352813 -0.000373496 -0.000392495 -0.000409809 -0.000425439 -0.000439384 -0.000451644 -0.00046222 -0.000471111 -0.000476828 -0.000477881 -0.00047427 -0.000465996 -0.000453058 -0.000435456 -0.00041319 -0.000386261 -0.000356725 -0.000326641 -0.000296007 -0.000264825 -0.000233094 -0.000200814 -0.000167985 -0.000134608 -0.000103059 -7.57169e-05 -5.25812e-05 -3.3652e-05 -1.89292e-05 -8.41299e-06 -2.10325e-06 0 0 -3.8304e-06 -1.53216e-05 -3.44736e-05 -6.12865e-05 -9.57601e-05 -0.000137895 -0.00018769 -0.000245146 -0.000305882 -0.000365518 -0.000424054 -0.000481489 -0.000537825 -0.00059306 -0.000647194 -0.000700228 -0.00074848 -0.000788268 -0.000819592 -0.000842452 -0.000856848 -0.000862779 -0.000860247 -0.00084925 -0.00083247 -0.000812587 -0.0007896 -0.000763511 -0.000734318 -0.000702023 -0.000666624 -0.000628122 -0.000591339 -0.000561096 -0.000537393 -0.000520229 -0.000509606 -0.000505523 -0.00050798 -0.000516977 -0.000533443 -0.000558307 -0.000591569 -0.000633229 -0.000683287 -0.000741743 -0.000808597 -0.000883849 -0.000963181 -0.00104228 -0.00112113 -0.00119975 -0.00127814 -0.00135628 -0.00143419 -0.00151186 -0.00158448 -0.00164722 -0.00170008 -0.00174307 -0.00177618 -0.00179941 -0.00181278 -0.00181626 -0.00180996 -0.00179397 -0.00176828 -0.0017329 -0.00168782 -0.00163305 -0.00156858 -0.00149442 -0.00141537 -0.00133622 -0.00125698 -0.00117765 -0.00109823 -0.00101871 -0.000939093 -0.000859387 -0.000783652 -0.000715955 -0.000656296 -0.000604673 -0.000561088 -0.000525539 -0.000498028 -0.000478554 -0.000466167 -0.000459916 -0.000459802 -0.000465823 -0.00047798 -0.000496274 -0.000520704 -0.00055127 -0.000583588 -0.000613274 -0.000640327 -0.000664749 -0.000686537 -0.000705694 -0.000722219 -0.000736111 -0.000745043 -0.000746689 -0.000741047 -0.000728118 -0.000707902 -0.0006804 -0.000645609 -0.000603532 -0.000557383 -0.000510376 -0.000462511 -0.000413789 -0.000364209 -0.000313772 -0.000262477 -0.000210325 -0.00016103 -0.000118308 -8.21581e-05 -5.25812e-05 -2.95769e-05 -1.31453e-05 -3.28633e-06 0 0 -5.51578e-06 -2.20631e-05 -4.9642e-05 -8.82525e-05 -0.000137895 -0.000198568 -0.000270273 -0.00035301 -0.00044047 -0.000526346 -0.000610638 -0.000693345 -0.000774467 -0.000854006 -0.000931959 -0.00100833 -0.00107781 -0.00113511 -0.00118021 -0.00121313 -0.00123386 -0.0012424 -0.00123876 -0.00122292 -0.00119876 -0.00117012 -0.00113702 -0.00109946 -0.00105742 -0.00101091 -0.000959939 -0.000904496 -0.000851528 -0.000807978 -0.000773845 -0.00074913 -0.000733833 -0.000727953 -0.000731491 -0.000744447 -0.000768158 -0.000803962 -0.000851859 -0.00091185 -0.000983933 -0.00106811 -0.00116438 -0.00127274 -0.00138698 -0.00150088 -0.00161443 -0.00172765 -0.00184052 -0.00195305 -0.00206524 -0.00217708 -0.00228165 -0.00237199 -0.00244811 -0.00251002 -0.0025577 -0.00259116 -0.0026104 -0.00261542 -0.00260634 -0.00258331 -0.00254632 -0.00249537 -0.00243046 -0.00235159 -0.00225876 -0.00215197 -0.00203813 -0.00192416 -0.00181006 -0.00169582 -0.00158144 -0.00146694 -0.00135229 -0.00123752 -0.00112846 -0.00103098 -0.000945066 -0.000870729 -0.000807966 -0.000756777 -0.000717161 -0.000689118 -0.000671281 -0.000662279 -0.000662114 -0.000670785 -0.000688292 -0.000714635 -0.000749814 -0.000793829 -0.000840367 -0.000883114 -0.000922071 -0.000957238 -0.000988614 -0.0010162 -0.00103999 -0.00106 -0.00107286 -0.00107523 -0.00106711 -0.00104849 -0.00101938 -0.000979775 -0.000929678 -0.000869087 -0.000802631 -0.000734941 -0.000666016 -0.000595856 -0.000524462 -0.000451832 -0.000377967 -0.000302868 -0.000231883 -0.000170363 -0.000118308 -7.57169e-05 -4.25908e-05 -1.89292e-05 -4.73231e-06 0 0 -7.50759e-06 -3.00304e-05 -6.75683e-05 -0.000120122 -0.00018769 -0.000270273 -0.000367872 -0.000480486 -0.000599529 -0.000716416 -0.000831146 -0.000943719 -0.00105414 -0.0011624 -0.0012685 -0.00137245 -0.00146702 -0.00154501 -0.0016064 -0.00165121 -0.00167942 -0.00169105 -0.00168608 -0.00166453 -0.00163164 -0.00159267 -0.00154762 -0.00149648 -0.00143926 -0.00137596 -0.00130658 -0.00123112 -0.00115902 -0.00109975 -0.00105329 -0.00101965 -0.000998828 -0.000990825 -0.000995641 -0.00101327 -0.00104555 -0.00109428 -0.00115947 -0.00124113 -0.00133924 -0.00145382 -0.00158485 -0.00173234 -0.00188784 -0.00204286 -0.00219742 -0.00235152 -0.00250515 -0.00265831 -0.00281101 -0.00296325 -0.00310557 -0.00322854 -0.00333215 -0.00341641 -0.00348131 -0.00352685 -0.00355304 -0.00355987 -0.00354752 -0.00351618 -0.00346583 -0.00339648 -0.00330813 -0.00320078 -0.00307443 -0.00292907 -0.00277413 -0.002619 -0.00246369 -0.0023082 -0.00215252 -0.00199666 -0.00184062 -0.0016844 -0.00153596 -0.00140327 -0.00128634 -0.00118516 -0.00109973 -0.00103006 -0.000976135 -0.000937967 -0.000913688 -0.000901436 -0.000901211 -0.000913013 -0.000936842 -0.000972697 -0.00102058 -0.00108049 -0.00114383 -0.00120202 -0.00125504 -0.00130291 -0.00134561 -0.00138316 -0.00141555 -0.00144278 -0.00146028 -0.00146351 -0.00145245 -0.00142711 -0.00138749 -0.00133358 -0.00126539 -0.00118292 -0.00109247 -0.00100034 -0.000906522 -0.000811027 -0.00071385 -0.000614993 -0.000514455 -0.000412237 -0.000315619 -0.000231883 -0.00016103 -0.000103059 -5.79708e-05 -2.57648e-05 -6.4412e-06 0 0 -9.80584e-06 -3.92233e-05 -8.82525e-05 -0.000156893 -0.000245146 -0.00035301 -0.000480486 -0.000627574 -0.000783059 -0.000935727 -0.00108558 -0.00123261 -0.00137683 -0.00151823 -0.00165682 -0.00179258 -0.00191611 -0.00201797 -0.00209816 -0.00215668 -0.00219353 -0.00220871 -0.00220223 -0.00217408 -0.00213112 -0.00208022 -0.00202138 -0.00195459 -0.00187985 -0.00179718 -0.00170656 -0.00160799 -0.00151383 -0.00143641 -0.00137573 -0.00133179 -0.00130459 -0.00129414 -0.00130043 -0.00132346 -0.00136561 -0.00142927 -0.00151442 -0.00162107 -0.00174921 -0.00189886 -0.00207001 -0.00226265 -0.00246574 -0.00266823 -0.0028701 -0.00307137 -0.00327203 -0.00347208 -0.00367153 -0.00387037 -0.00405626 -0.00421687 -0.0043522 -0.00446225 -0.00454702 -0.0046065 -0.00464071 -0.00464963 -0.0046335 -0.00459256 -0.0045268 -0.00443622 -0.00432082 -0.00418061 -0.00401558 -0.00382573 -0.00362335 -0.00342074 -0.00321788 -0.00301479 -0.00281146 -0.00260789 -0.00240408 -0.00220003 -0.00200615 -0.00183285 -0.00168012 -0.00154796 -0.00143638 -0.00134538 -0.00127495 -0.0012251 -0.00119339 -0.00117739 -0.00117709 -0.00119251 -0.00122363 -0.00127046 -0.001333 -0.00141125 -0.00149399 -0.00156998 -0.00163924 -0.00170176 -0.00175754 -0.00180658 -0.00184888 -0.00188444 -0.00190731 -0.00191152 -0.00189708 -0.00186398 -0.00181223 -0.00174182 -0.00165276 -0.00154504 -0.0014269 -0.00130656 -0.00118403 -0.0010593 -0.000932376 -0.000803257 -0.000671942 -0.000538432 -0.000412237 -0.000302868 -0.000210325 -0.000134608 -7.57169e-05 -3.3652e-05 -8.41299e-06 0 0 -1.22358e-05 -4.89432e-05 -0.000110122 -0.000195773 -0.000305895 -0.000440489 -0.000599554 -0.000783091 -0.000976952 -0.00116699 -0.0013532 -0.00153559 -0.00171416 -0.0018889 -0.00205982 -0.00222692 -0.00237842 -0.00250255 -0.00259931 -0.0026687 -0.00271073 -0.00272538 -0.00271266 -0.00267258 -0.00261386 -0.00254526 -0.00246677 -0.00237839 -0.00228012 -0.00217196 -0.00205392 -0.00192598 -0.00180377 -0.00170289 -0.00162335 -0.00156514 -0.00152827 -0.00151273 -0.00151852 -0.00154565 -0.00159711 -0.00167588 -0.00178196 -0.00191535 -0.00207606 -0.00226408 -0.00247941 -0.00272206 -0.00297803 -0.00323332 -0.00348793 -0.00374186 -0.00399512 -0.0042477 -0.00449961 -0.00475083 -0.00498577 -0.00518881 -0.00535995 -0.00549919 -0.00560653 -0.00568196 -0.00572551 -0.00573715 -0.00571717 -0.00566588 -0.00558325 -0.00546931 -0.00532404 -0.00514744 -0.00493952 -0.00470027 -0.00444524 -0.00418997 -0.00393446 -0.00367871 -0.00342272 -0.00316648 -0.00291001 -0.00265329 -0.00240951 -0.00219184 -0.00200027 -0.00183482 -0.00169547 -0.00158223 -0.0014951 -0.00143407 -0.0013961 -0.00137811 -0.00138011 -0.00140211 -0.00144409 -0.00150605 -0.00158801 -0.00168996 -0.0017977 -0.00189704 -0.00198797 -0.0020705 -0.00214463 -0.00221036 -0.00226769 -0.00231661 -0.00234954 -0.00235889 -0.00234465 -0.00230684 -0.00224545 -0.00216047 -0.00205191 -0.00191978 -0.00177434 -0.0016259 -0.00147444 -0.00131998 -0.00116251 -0.00100203 -0.000838533 -0.00067203 -0.000514523 -0.000378017 -0.000262512 -0.000168008 -9.45042e-05 -4.20019e-05 -1.05005e-05 0 0 -1.46228e-05 -5.84911e-05 -0.000131605 -0.000233964 -0.000365569 -0.00052642 -0.000716516 -0.000935857 -0.0011671 -0.00139292 -0.00161329 -0.00182823 -0.00203774 -0.00224181 -0.00244044 -0.00263364 -0.0028073 -0.00294732 -0.0030537 -0.00312645 -0.00316555 -0.00317102 -0.00314285 -0.00308104 -0.00299653 -0.00290027 -0.00279226 -0.0026725 -0.00254099 -0.00239773 -0.00224271 -0.00207595 -0.00191668 -0.00178415 -0.00167836 -0.0015993 -0.00154699 -0.00152142 -0.00152259 -0.0015505 -0.00160878 -0.00170107 -0.00182737 -0.00198767 -0.00218198 -0.0024103 -0.00267263 -0.00296896 -0.00328201 -0.00359447 -0.00390635 -0.00421765 -0.00452837 -0.00483851 -0.00514807 -0.00545704 -0.00574617 -0.00599618 -0.00620709 -0.00637887 -0.00651155 -0.0066051 -0.00665955 -0.00667488 -0.00665144 -0.00658956 -0.00648923 -0.00635047 -0.00617327 -0.00595763 -0.00570355 -0.00541104 -0.00509924 -0.00478731 -0.00447525 -0.00416307 -0.00385076 -0.00353832 -0.00322576 -0.00291307 -0.00261652 -0.0023524 -0.00212069 -0.0019214 -0.00175453 -0.00162008 -0.00151806 -0.00144845 -0.00140753 -0.0013916 -0.00140063 -0.00143465 -0.00149364 -0.0015776 -0.00168654 -0.00182046 -0.00196185 -0.00209321 -0.00221455 -0.00232587 -0.00242716 -0.00251842 -0.00259966 -0.00267088 -0.00272256 -0.00274522 -0.00273884 -0.00270342 -0.00263898 -0.0025455 -0.00242299 -0.00227145 -0.00210322 -0.00193063 -0.00175368 -0.00157238 -0.00138672 -0.0011967 -0.00100233 -0.00080361 -0.000615264 -0.000452031 -0.00031391 -0.000200902 -0.000113008 -5.02256e-05 -1.25564e-05 0 0 -1.69668e-05 -6.7867e-05 -0.000152701 -0.000271468 -0.000424169 -0.000610803 -0.000831371 -0.00108587 -0.00135351 -0.0016135 -0.00186584 -0.00211052 -0.00234756 -0.00257693 -0.00279866 -0.00301273 -0.00320274 -0.00335227 -0.00346133 -0.00352991 -0.00355801 -0.00354563 -0.00349278 -0.00339945 -0.00327912 -0.00314525 -0.00299785 -0.00283693 -0.00266247 -0.00247447 -0.00227295 -0.0020579 -0.00185255 -0.00168017 -0.00154075 -0.00143428 -0.00136077 -0.00132022 -0.00131263 -0.001338 -0.00140064 -0.00150486 -0.00165065 -0.00183803 -0.00206699 -0.00233753 -0.00264965 -0.00300335 -0.00337768 -0.00375169 -0.00412537 -0.00449874 -0.00487179 -0.00524451 -0.00561692 -0.005989 -0.00633746 -0.006639 -0.00689362 -0.00710131 -0.00726208 -0.00737592 -0.00744284 -0.00746284 -0.0074363 -0.00736359 -0.00724473 -0.00707971 -0.00686853 -0.00661119 -0.00630769 -0.00595803 -0.00558534 -0.00521275 -0.00484026 -0.00446788 -0.0040956 -0.00372341 -0.00335133 -0.00297935 -0.00262718 -0.00231452 -0.00204136 -0.00180771 -0.00161357 -0.00145895 -0.00134383 -0.00126822 -0.00122769 -0.00121784 -0.00123865 -0.00129014 -0.00137229 -0.00148511 -0.00162859 -0.00180275 -0.00198643 -0.00215851 -0.00231899 -0.00246785 -0.00260511 -0.00273077 -0.00284481 -0.00294725 -0.00302639 -0.00307051 -0.00307963 -0.00305373 -0.00299283 -0.00289692 -0.002766 -0.00260007 -0.00241352 -0.00222074 -0.00202173 -0.00181648 -0.001605 -0.00138729 -0.00116335 -0.000933171 -0.000714459 -0.000524909 -0.00036452 -0.000233293 -0.000131227 -5.83232e-05 -1.45808e-05 0 0 -1.92677e-05 -7.7071e-05 -0.00017341 -0.000308284 -0.000481694 -0.000693639 -0.000944119 -0.00123314 -0.00153618 -0.00182875 -0.00211085 -0.00238247 -0.00264362 -0.00289429 -0.00313449 -0.00336421 -0.00356475 -0.00371741 -0.00382219 -0.00387908 -0.00388809 -0.00384922 -0.00376246 -0.00362782 -0.00346163 -0.0032802 -0.00308355 -0.00287166 -0.00264455 -0.0024022 -0.00214463 -0.00187182 -0.0016114 -0.00139097 -0.00121052 -0.00107007 -0.000969606 -0.000909133 -0.00088865 -0.000908157 -0.000972675 -0.00108723 -0.00125181 -0.00146643 -0.00173108 -0.00204576 -0.00241048 -0.00282523 -0.00326504 -0.00370497 -0.00414499 -0.00458513 -0.00502536 -0.00546571 -0.00590615 -0.00634671 -0.00675965 -0.00711726 -0.00741954 -0.00766649 -0.00785812 -0.00799441 -0.00807538 -0.00810102 -0.00807175 -0.00798799 -0.00784975 -0.00765702 -0.0074098 -0.0071081 -0.00675191 -0.00634124 -0.00590354 -0.0054663 -0.00502949 -0.00459313 -0.00415722 -0.00372175 -0.00328673 -0.00285215 -0.00244149 -0.0020782 -0.00176229 -0.00149375 -0.0012726 -0.00109881 -0.000972411 -0.000893384 -0.00085658 -0.000856842 -0.000894172 -0.000968569 -0.00108003 -0.00122856 -0.00141416 -0.00163683 -0.00187145 -0.00209293 -0.00230127 -0.00249645 -0.0026785 -0.00284739 -0.00300314 -0.00314574 -0.00326101 -0.00333477 -0.00336703 -0.00335777 -0.003307 -0.00321472 -0.00308094 -0.00290564 -0.00270526 -0.00249625 -0.0022786 -0.0020523 -0.00181737 -0.00157379 -0.00132157 -0.00106071 -0.000812109 -0.000596651 -0.000414341 -0.000265178 -0.000149163 -6.62946e-05 -1.65736e-05 0 0 -2.15257e-05 -8.6103e-05 -0.000193732 -0.000344412 -0.000538144 -0.000774927 -0.00105476 -0.00137765 -0.00171511 -0.00203867 -0.00234832 -0.00264408 -0.00292593 -0.00319388 -0.00344792 -0.00368807 -0.00389333 -0.00404274 -0.00413629 -0.00417398 -0.00415581 -0.00408178 -0.0039519 -0.00376615 -0.00354406 -0.00330512 -0.00304934 -0.00277671 -0.00248723 -0.00218091 -0.00185774 -0.00151773 -0.00119321 -0.000916531 -0.000687683 -0.00050667 -0.000373492 -0.000288149 -0.00025064 -0.000260967 -0.000324893 -0.000448184 -0.00063084 -0.000872861 -0.00117425 -0.001535 -0.00195511 -0.00243459 -0.0029441 -0.00345431 -0.00396521 -0.00447681 -0.0049891 -0.00550209 -0.00601578 -0.00653016 -0.00701272 -0.00743095 -0.00778485 -0.00807443 -0.00829967 -0.00846058 -0.00855716 -0.00858941 -0.00855779 -0.00846275 -0.00830428 -0.0080824 -0.0077971 -0.00744838 -0.00703624 -0.00656068 -0.00605386 -0.00554794 -0.00504293 -0.00453883 -0.00403563 -0.00353334 -0.00303195 -0.00253146 -0.00205944 -0.00164345 -0.00128347 -0.000979521 -0.000731594 -0.00053969 -0.000403809 -0.000323951 -0.000294191 -0.000308603 -0.000367188 -0.000469946 -0.000616876 -0.000807978 -0.00104325 -0.0013227 -0.00161691 -0.00189648 -0.0021614 -0.00241167 -0.0026473 -0.00286829 -0.00307463 -0.00326633 -0.00342643 -0.003538 -0.00360103 -0.00361553 -0.00358149 -0.00349891 -0.0033678 -0.00318815 -0.00297844 -0.00275715 -0.00252428 -0.00227983 -0.0020238 -0.0017562 -0.00147701 -0.00118624 -0.000908213 -0.000667258 -0.000463374 -0.000296559 -0.000166815 -7.41398e-05 -1.8535e-05 0 0 -2.37407e-05 -9.4963e-05 -0.000213667 -0.000379852 -0.000593519 -0.000854667 -0.0011633 -0.00151941 -0.00189029 -0.00224324 -0.00257826 -0.00289534 -0.00319448 -0.00347569 -0.00373896 -0.0039843 -0.00418848 -0.00432825 -0.00440362 -0.00441458 -0.00436115 -0.00424332 -0.00406108 -0.00381444 -0.00352642 -0.00322001 -0.00289523 -0.00255206 -0.00219052 -0.0018106 -0.0014123 -0.000995617 -0.000597994 -0.000256864 2.77732e-05 0.000255918 0.00042757 0.000542729 0.000601395 0.000603569 0.000542708 0.000412272 0.000212258 -5.73309e-05 -0.000396497 -0.000805238 -0.00128356 -0.00183145 -0.00241486 -0.00299972 -0.00358603 -0.00417379 -0.00476301 -0.00535367 -0.00594579 -0.00653935 -0.00709668 -0.00758009 -0.00798956 -0.00832511 -0.00858673 -0.00877443 -0.00888819 -0.00892803 -0.00889443 -0.00878786 -0.00860834 -0.00835586 -0.00803042 -0.00763202 -0.00716065 -0.00661633 -0.00603627 -0.00545769 -0.00488059 -0.00430497 -0.00373083 -0.00315817 -0.00258699 -0.00201729 -0.00148105 -0.00101026 -0.000604913 -0.000265018 9.42908e-06 0.000218429 0.00036198 0.000440084 0.000459472 0.000426877 0.000342297 0.000205733 1.7185e-05 -0.000223347 -0.000515862 -0.000860362 -0.0012228 -0.00156914 -0.00189938 -0.00221351 -0.00251154 -0.00279347 -0.0030593 -0.00330902 -0.00352265 -0.00368019 -0.00378165 -0.00382701 -0.00381629 -0.00374948 -0.00362658 -0.0034476 -0.00323305 -0.00300344 -0.00275878 -0.00249908 -0.00222432 -0.00193451 -0.00162965 -0.00130974 -0.00100277 -0.00073673 -0.000511618 -0.000327436 -0.000184182 -8.18589e-05 -2.04647e-05 0 0 -2.59128e-05 -0.000103651 -0.000233215 -0.000414604 -0.000647819 -0.000932859 -0.00126973 -0.00165842 -0.00206173 -0.00244248 -0.00280065 -0.00313625 -0.00344928 -0.00373973 -0.00400761 -0.00425292 -0.00445019 -0.00457394 -0.00462418 -0.00460091 -0.00450412 -0.00433382 -0.00409001 -0.00377269 -0.00340869 -0.00302487 -0.00262121 -0.00219773 -0.00175441 -0.00129127 -0.00080829 -0.000305483 0.000174257 0.000588033 0.000935845 0.00121769 0.00143358 0.0015835 0.00166746 0.00168545 0.00163013 0.00149414 0.00127748 0.000980162 0.000602172 0.000143516 -0.000395807 -0.0010158 -0.00167731 -0.00234119 -0.00300744 -0.00367607 -0.00434707 -0.00502044 -0.00569618 -0.0063743 -0.00701154 -0.00756466 -0.00803366 -0.00841854 -0.0087193 -0.00893595 -0.00906847 -0.00911687 -0.00908166 -0.00896334 -0.00876192 -0.00847739 -0.00810975 -0.00765901 -0.00712517 -0.00650822 -0.0058508 -0.00519555 -0.00454247 -0.00389156 -0.00324282 -0.00259625 -0.00195185 -0.00130962 -0.000706299 -0.00017863 0.000273389 0.000649756 0.000950474 0.00117554 0.00132496 0.00139872 0.00140441 0.0013496 0.00123428 0.00105847 0.000822149 0.00052533 0.000168008 -0.000249815 -0.00068913 -0.00111093 -0.0015152 -0.00190197 -0.00227121 -0.00262293 -0.00295714 -0.00327382 -0.00354967 -0.00376135 -0.00390887 -0.00399222 -0.00401141 -0.00396644 -0.0038573 -0.003684 -0.00346909 -0.00323512 -0.0029821 -0.00271003 -0.00241891 -0.00210874 -0.00177951 -0.00143123 -0.00109578 -0.000805066 -0.000559074 -0.000357807 -0.000201266 -8.94518e-05 -2.23629e-05 0 0 -2.80418e-05 -0.000112167 -0.000252376 -0.000448669 -0.000701045 -0.0010095 -0.00137405 -0.00179467 -0.00222943 -0.00263638 -0.00301551 -0.00336682 -0.00369032 -0.003986 -0.00425387 -0.00449392 -0.00467847 -0.00477982 -0.00479798 -0.00473295 -0.00458472 -0.00435331 -0.0040387 -0.00364089 -0.0031909 -0.0027197 -0.0022273 -0.00171371 -0.00117891 -0.000622916 -4.5722e-05 0.000552671 0.00112354 0.00161816 0.00203653 0.00237866 0.00264453 0.00283416 0.00294754 0.00298468 0.00293737 0.00279742 0.00256484 0.00223962 0.00182176 0.00131127 0.000708134 1.23651e-05 -0.000731451 -0.00147873 -0.00222946 -0.00298365 -0.0037413 -0.0045024 -0.00526697 -0.00603499 -0.00675729 -0.00738467 -0.00791715 -0.00835473 -0.00869739 -0.00894514 -0.00909799 -0.00915593 -0.00911948 -0.00898917 -0.00876501 -0.00844699 -0.00803511 -0.00752937 -0.00692978 -0.00623632 -0.00549742 -0.0047615 -0.00402856 -0.00329859 -0.00257159 -0.00184758 -0.00112653 -0.000408464 0.0002648 0.000851433 0.00135143 0.0017648 0.00209154 0.00233165 0.00248512 0.00255196 0.00254062 0.00245956 0.00230877 0.00208826 0.00179802 0.00143805 0.00100836 0.000508941 -1.58925e-05 -0.000521834 -0.00100888 -0.00147704 -0.0019263 -0.00235667 -0.00276815 -0.00316073 -0.00350749 -0.00378148 -0.0039827 -0.00411116 -0.00416685 -0.00414978 -0.00405994 -0.00389734 -0.00368656 -0.00345219 -0.00319424 -0.0029127 -0.00260758 -0.00227887 -0.00192658 -0.0015507 -0.00118725 -0.000872266 -0.000605741 -0.000387674 -0.000218067 -9.69185e-05 -2.42296e-05 0 0 -2.99058e-05 -0.000119623 -0.000269152 -0.000478493 -0.000747645 -0.00107661 -0.00146538 -0.00191397 -0.00237556 -0.00280333 -0.00319728 -0.00355742 -0.00388375 -0.00417626 -0.00443496 -0.00465984 -0.00482116 -0.00488914 -0.00486381 -0.00474514 -0.00453315 -0.00422784 -0.0038292 -0.00333723 -0.00278743 -0.00221529 -0.00162081 -0.00100399 -0.000364827 0.000296677 0.000980522 0.00168671 0.00236036 0.00294661 0.00344544 0.00385687 0.00418089 0.00441751 0.00456671 0.00462851 0.00459384 0.00445367 0.00420797 0.00385677 0.00340004 0.00283781 0.00217006 0.00139679 0.000568369 -0.000264864 -0.00110291 -0.00194575 -0.00279341 -0.00364588 -0.00450315 -0.00536523 -0.00617666 -0.00688199 -0.00748121 -0.00797433 -0.00836134 -0.00864224 -0.00881704 -0.00888574 -0.00884886 -0.00870695 -0.00845999 -0.008108 -0.00765097 -0.00708889 -0.00642178 -0.00564963 -0.00482694 -0.00400823 -0.00319349 -0.00238272 -0.00157593 -0.000773108 2.57416e-05 0.000820619 0.00156431 0.00220962 0.00275653 0.00320505 0.00355518 0.00380691 0.00396026 0.00401521 0.00398113 0.00386736 0.0036739 0.00340075 0.00304792 0.00261541 0.0021032 0.00151131 0.00088964 0.000288089 -0.000293342 -0.000854652 -0.00139584 -0.00191691 -0.00241786 -0.00289868 -0.00332854 -0.0036766 -0.00394284 -0.00412727 -0.0042299 -0.00425072 -0.00418972 -0.00404692 -0.00384882 -0.00362193 -0.00336625 -0.00308179 -0.00276854 -0.00242649 -0.00205566 -0.00165605 -0.00126791 -0.000931527 -0.000646893 -0.000414012 -0.000232882 -0.000103503 -2.58757e-05 0 0 -3.12827e-05 -0.000125131 -0.000281545 -0.000500524 -0.000782069 -0.00112618 -0.00153285 -0.0020021 -0.00248226 -0.0029217 -0.00332043 -0.00367843 -0.00399571 -0.00427228 -0.00450812 -0.00470324 -0.00482611 -0.00484518 -0.00476045 -0.00457193 -0.00427961 -0.00388349 -0.00338359 -0.00277988 -0.00211272 -0.00142245 -0.000709071 2.74204e-05 0.000787022 0.00156974 0.00237556 0.00320449 0.00399523 0.00468646 0.00527818 0.0057704 0.00616311 0.00645631 0.00665001 0.0067442 0.00672897 0.00659442 0.00634054 0.00596733 0.0054748 0.00486294 0.00413176 0.00328125 0.00236781 0.00144786 0.000521379 -0.000411619 -0.00135114 -0.00229718 -0.00324974 -0.00420882 -0.0051124 -0.00589846 -0.006567 -0.00711801 -0.00755151 -0.00786748 -0.00806592 -0.00814685 -0.00811078 -0.00795824 -0.00768923 -0.00730375 -0.0068018 -0.00618338 -0.00544848 -0.00459712 -0.00369014 -0.0027884 -0.00189189 -0.00100063 -0.000114596 0.000766196 0.00164175 0.00251207 0.0033243 0.00402561 0.00461598 0.00509542 0.00546394 0.00572152 0.00586817 0.00590389 0.00583894 0.00568358 0.0054378 0.00510161 0.00467501 0.00415799 0.00355055 0.00285271 0.0021202 0.00140879 0.00071848 4.92661e-05 -0.000598851 -0.00122587 -0.00183179 -0.00241662 -0.00294529 -0.00338274 -0.00372899 -0.00398403 -0.00414785 -0.00422046 -0.00420186 -0.00409204 -0.00391923 -0.00371161 -0.0034692 -0.00319199 -0.00287999 -0.00253318 -0.00215158 -0.00173518 -0.0013285 -0.000976041 -0.000677806 -0.000433796 -0.00024401 -0.000108449 -2.71123e-05 0 0 -3.21727e-05 -0.000128691 -0.000289554 -0.000514763 -0.000804317 -0.00115822 -0.00157646 -0.00205905 -0.00254955 -0.00299151 -0.00338494 -0.00372984 -0.00402621 -0.00427404 -0.00447335 -0.00462412 -0.00469332 -0.00464792 -0.00448791 -0.0042133 -0.00382409 -0.00332028 -0.00270186 -0.00196884 -0.00116676 -0.000341171 0.000507924 0.00138053 0.00227664 0.00319626 0.00413939 0.00510602 0.00602814 0.00683772 0.00753475 0.00811924 0.00859118 0.00895058 0.00919744 0.00933175 0.00934275 0.00921968 0.00896254 0.00857132 0.00804603 0.00738667 0.00659323 0.00566572 0.00466688 0.00365943 0.00264339 0.00161876 0.000585523 -0.000456308 -0.00150674 -0.00256576 -0.00356451 -0.00443409 -0.00517452 -0.00578579 -0.00626789 -0.00662084 -0.00684463 -0.00693926 -0.00690523 -0.00674305 -0.00645272 -0.00603424 -0.00548761 -0.00481282 -0.00400988 -0.00307879 -0.00208701 -0.001102 -0.000123764 0.000847707 0.00181241 0.00277034 0.0037215 0.00466589 0.00554477 0.0062994 0.00692979 0.00743593 0.00781782 0.00807546 0.00820886 0.008218 0.00811407 0.00790823 0.00760049 0.00719083 0.00667927 0.00606579 0.00535041 0.00453312 0.00367579 0.00284027 0.00202658 0.00123472 0.000464672 -0.000283551 -0.00100995 -0.00171453 -0.00235771 -0.00289992 -0.00334115 -0.00368141 -0.0039207 -0.00405901 -0.00409634 -0.00403271 -0.00389778 -0.00372124 -0.00350308 -0.00324331 -0.00294193 -0.00259894 -0.00221433 -0.00178811 -0.00136902 -0.00100581 -0.000698479 -0.000447027 -0.0002