<?xml version="1.0"?> 
<VTKFile type="StructuredGrid" version="0.1"> 
<StructuredGrid WholeExtent="0 128 0 128 0 0"> 
<Piece Extent="0 128 0 128 0 0"> 
<PointData>
<DataArray type="Float32" Name="u" format="ascii" NumberOfComponents="1"> 
0 0 0 0 0 0 0 0 0 0 0 0 0 0 0 0 0 0 0 0 0 0 0 0 0 0 0 0 0 0 0 0 0 0 0 0 0 0 0 0 0 0 0 0 0 0 0 0 0 0 0 0 0 0 0 0 0 0 0 0 0 0 0 0 0 0 0 0 0 0 0 0 0 0 0 0 0 0 0 0 0 0 0 0 0 0 0 0 0 0 0 0 0 0 0 0 0 0 0 0 0 0 0 0 0 0 0 0 0 0 0 0 0 0 0 0 0 0 0 0 0 0 0 0 0 0 0 0 0 0 2.80492e-07 1.12197e-06 2.52443e-06 4.48788e-06 7.01231e-06 1.00977e-05 1.37441e-05 1.79515e-05 2.28012e-05 2.83744e-05 3.46711e-05 4.16914e-05 4.94352e-05 5.79026e-05 6.70935e-05 7.7008e-05 8.73843e-05 9.79605e-05 0.000108737 0.000119713 0.000130889 0.000142266 0.000153842 0.000165618 0.000177345 0.000188774 0.000199904 0.000210735 0.000221268 0.000231502 0.000241438 0.000251074 0.000260286 0.000268946 0.000277055 0.000284611 0.000291616 0.000298069 0.00030397 0.00030932 0.000314098 0.000318286 0.000321883 0.000324889 0.000327304 0.000329129 0.000330364 0.000331007 0.000331113 0.000330735 0.000329872 0.000328526 0.000326694 0.000324379 0.000321579 0.000318295 0.000314614 0.000310624 0.000306323 0.000301713 0.000296792 0.000291562 0.000286023 0.000280173 0.000274102 0.000267898 0.000261562 0.000255092 0.000248489 0.000241753 0.000234885 0.000227883 0.000220818 0.000213759 0.000206705 0.000199658 0.000192616 0.00018558 0.000178549 0.000171525 0.00016455 0.00015767 0.000150885 0.000144193 0.000137596 0.000131094 0.000124686 0.000118372 0.000112176 0.000106124 0.000100214 9.44462e-05 8.88212e-05 8.33389e-05 7.79992e-05 7.28021e-05 6.77621e-05 6.28935e-05 5.81965e-05 5.36709e-05 4.93169e-05 4.51343e-05 4.11233e-05 3.72838e-05 3.36294e-05 3.01737e-05 2.69168e-05 2.38587e-05 2.09993e-05 1.83387e-05 1.58769e-05 1.36138e-05 1.15466e-05 9.67232e-06 7.99106e-06 6.50278e-06 5.20748e-06 4.10516e-06 3.19582e-06 2.47947e-06 1.89834e-06 1.3947e-06 9.68542e-07 6.19867e-07 3.48675e-07 1.54967e-07 3.87417e-08 0 0 1.12197e-06 4.48788e-06 1.00977e-05 1.79515e-05 2.80492e-05 4.03909e-05 5.49765e-05 7.18061e-05 9.12047e-05 0.000113497 0.000138684 0.000166766 0.000197741 0.00023161 0.000268374 0.000308032 0.000349537 0.000391842 0.000434947 0.000478852 0.000523558 0.000569063 0.000615368 0.000662474 0.000709382 0.000755096 0.000799615 0.000842941 0.000885071 0.000926008 0.00096575 0.0010043 0.00104114 0.00107579 0.00110822 0.00113844 0.00116646 0.00119228 0.00121588 0.00123728 0.00125639 0.00127314 0.00128753 0.00129956 0.00130922 0.00131652 0.00132145 0.00132403 0.00132445 0.00132294 0.00131949 0.0013141 0.00130678 0.00129752 0.00128632 0.00127318 0.00125846 0.00124249 0.00122529 0.00120685 0.00118717 0.00116625 0.00114409 0.00112069 0.00109641 0.00107159 0.00104625 0.00102037 0.000993956 0.000967014 0.000939539 0.000911533 0.000883273 0.000855036 0.000826821 0.000798631 0.000770463 0.000742318 0.000714197 0.000686099 0.000658201 0.000630681 0.000603538 0.000576773 0.000550385 0.000524375 0.000498742 0.000473487 0.000448706 0.000424495 0.000400855 0.000377785 0.000355285 0.000333356 0.000311997 0.000291209 0.000271048 0.000251574 0.000232786 0.000214684 0.000197268 0.000180537 0.000164493 0.000149135 0.000134517 0.000120695 0.000107667 9.54349e-05 8.39974e-05 7.33549e-05 6.35075e-05 5.44552e-05 4.61863e-05 3.86893e-05 3.19642e-05 2.60111e-05 2.08299e-05 1.64206e-05 1.27833e-05 9.91787e-06 7.59337e-06 5.5788e-06 3.87417e-06 2.47947e-06 1.3947e-06 6.19867e-07 1.54967e-07 0 0 2.52443e-06 1.00977e-05 2.27199e-05 4.03909e-05 6.31108e-05 9.08795e-05 0.000123697 0.000161564 0.00020521 0.000255369 0.00031204 0.000375223 0.000444917 0.000521124 0.000603842 0.000693072 0.000786458 0.000881645 0.000978631 0.00107742 0.001178 0.00128039 0.00138458 0.00149057 0.00159611 0.00169897 0.00179913 0.00189662 0.00199141 0.00208352 0.00217294 0.00225967 0.00234258 0.00242052 0.00249349 0.0025615 0.00262454 0.00268262 0.00273573 0.00278388 0.00282688 0.00286457 0.00289694 0.002924 0.00294574 0.00296216 0.00297327 0.00297906 0.00298002 0.00297661 0.00296885 0.00295673 0.00294025 0.00291941 0.00289421 0.00286466 0.00283153 0.00279561 0.00275691 0.00271541 0.00267113 0.00262406 0.0025742 0.00252156 0.00246692 0.00241109 0.00235405 0.00229583 0.0022364 0.00217578 0.00211396 0.00205095 0.00198736 0.00192383 0.00186035 0.00179692 0.00173354 0.00167022 0.00160694 0.00154372 0.00148095 0.00141903 0.00135796 0.00129774 0.00123837 0.00117984 0.00112217 0.00106535 0.00100959 0.000955114 0.000901923 0.000850015 0.000799391 0.00075005 0.000701993 0.000655219 0.000609859 0.000566042 0.000523768 0.000483038 0.000443852 0.000406209 0.00037011 0.000335554 0.000302664 0.000271564 0.000242252 0.000214728 0.000188994 0.000165049 0.000142892 0.000122524 0.000103919 8.70509e-05 7.19196e-05 5.8525e-05 4.68673e-05 3.69465e-05 2.87624e-05 2.23152e-05 1.70851e-05 1.25523e-05 8.71687e-06 5.5788e-06 3.13807e-06 1.3947e-06 3.48675e-07 0 0 4.48788e-06 1.79515e-05 4.03909e-05 7.18061e-05 0.000112197 0.000161564 0.000219906 0.000287224 0.000364819 0.00045399 0.000554738 0.000667062 0.000790964 0.000926442 0.0010735 0.00123213 0.00139815 0.00156737 0.00173979 0.00191541 0.00209423 0.00227625 0.00246147 0.00264989 0.00283753 0.00302038 0.00319846 0.00337176 0.00354029 0.00370403 0.003863 0.00401719 0.00416458 0.00430314 0.00443287 0.00455378 0.00466585 0.0047691 0.00486352 0.00494911 0.00502557 0.00509257 0.00515012 0.00519822 0.00523687 0.00526607 0.00528582 0.00529611 0.00529781 0.00529176 0.00527796 0.00525641 0.00522711 0.00519006 0.00514527 0.00509273 0.00503383 0.00496998 0.00490117 0.0048274 0.00474868 0.004665 0.00457636 0.00448277 0.00438564 0.00428637 0.00418498 0.00408147 0.00397583 0.00386806 0.00375816 0.00364613 0.00353309 0.00342014 0.00330729 0.00319452 0.00308185 0.00296927 0.00285679 0.0027444 0.0026328 0.00252272 0.00241415 0.00230709 0.00220154 0.0020975 0.00199497 0.00189395 0.00179482 0.00169798 0.00160342 0.00151114 0.00142114 0.00133342 0.00124799 0.00116483 0.00108419 0.0010063 0.000931144 0.000858735 0.00078907 0.00072215 0.000657973 0.00059654 0.00053807 0.00048278 0.000430669 0.000381739 0.00033599 0.00029342 0.00025403 0.000217821 0.000184745 0.000154757 0.000127857 0.000104044 8.33197e-05 6.56826e-05 5.11332e-05 3.96715e-05 3.03735e-05 2.23152e-05 1.54967e-05 9.91787e-06 5.5788e-06 2.47947e-06 6.19867e-07 0 0 7.01231e-06 2.80492e-05 6.31108e-05 0.000112197 0.000175308 0.000252443 0.000343603 0.000448788 0.000570029 0.000709359 0.000866778 0.00104228 0.00123588 0.00144757 0.00167734 0.0019252 0.00218461 0.00244901 0.00271842 0.00299283 0.00327224 0.00355664 0.00384605 0.00414046 0.00443364 0.00471935 0.0049976 0.00526838 0.0055317 0.00578755 0.00603594 0.00627686 0.00650716 0.00672366 0.00692636 0.00711528 0.0072904 0.00745172 0.00759925 0.00773299 0.00785245 0.00795714 0.00804706 0.00812222 0.00818261 0.00822823 0.00825909 0.00827518 0.00827783 0.00826837 0.00824681 0.00821314 0.00816736 0.00810948 0.00803948 0.00795738 0.00786536 0.00776559 0.00765807 0.00754281 0.00741981 0.00728906 0.00715057 0.00700433 0.00685256 0.00669746 0.00653904 0.0063773 0.00621223 0.00604384 0.00587212 0.00569708 0.00552046 0.00534397 0.00516763 0.00499144 0.00481539 0.00463949 0.00446373 0.00428812 0.00411376 0.00394176 0.00377211 0.00360483 0.00343991 0.00327734 0.00311714 0.00295929 0.00280441 0.00265309 0.00250534 0.00236115 0.00222053 0.00208347 0.00194998 0.00182005 0.00169405 0.00157234 0.00145491 0.00134177 0.00123292 0.00112836 0.00102808 0.000932094 0.000840734 0.000754343 0.000672921 0.000596468 0.000524984 0.000458468 0.000396922 0.000340345 0.000288664 0.000241808 0.000199777 0.00016257 0.000130187 0.000102629 7.98956e-05 6.19867e-05 4.74585e-05 3.48675e-05 2.42135e-05 1.54967e-05 8.71687e-06 3.87417e-06 9.68542e-07 0 0 1.00977e-05 4.03909e-05 9.08795e-05 0.000161564 0.000252443 0.000363518 0.000494789 0.000646254 0.000820842 0.00102148 0.00124816 0.00150089 0.00177967 0.00208449 0.00241537 0.00277229 0.00314583 0.00352658 0.00391453 0.00430967 0.00471202 0.00512157 0.00553831 0.00596226 0.00638444 0.00679586 0.00719654 0.00758647 0.00796564 0.00833407 0.00869175 0.00903868 0.0093703 0.00968207 0.00997396 0.010246 0.0104982 0.0107305 0.0109429 0.0111355 0.0113075 0.0114583 0.0115878 0.011696 0.011783 0.0118487 0.0118931 0.0119163 0.0119201 0.0119065 0.0118754 0.0118269 0.011761 0.0116776 0.0115769 0.0114586 0.0113261 0.0111824 0.0110276 0.0108617 0.0106845 0.0104962 0.0102968 0.0100862 0.00986768 0.00964434 0.00941622 0.0091833 0.00894561 0.00870312 0.00845586 0.0082038 0.00794946 0.00769532 0.00744139 0.00718768 0.00693417 0.00668087 0.00642777 0.00617489 0.00592381 0.00567613 0.00543184 0.00519096 0.00495347 0.00471938 0.00448868 0.00426138 0.00403835 0.00382046 0.00360769 0.00340006 0.00319756 0.0030002 0.00280797 0.00262088 0.00243943 0.00226417 0.00209507 0.00193215 0.00177541 0.00162484 0.00148044 0.00134222 0.00121066 0.00108625 0.000969006 0.000858914 0.000755976 0.000660194 0.000571568 0.000490096 0.000415676 0.000348204 0.000287678 0.0002341 0.000187469 0.000147786 0.00011505 8.92608e-05 6.83403e-05 5.02092e-05 3.48675e-05 2.23152e-05 1.25523e-05 5.5788e-06 1.3947e-06 0 0 1.37441e-05 5.49765e-05 0.000123697 0.000219906 0.000343603 0.000494789 0.000673462 0.000879624 0.00111726 0.00139034 0.00169888 0.00204288 0.00242233 0.00283723 0.00328758 0.00377339 0.00428183 0.00480007 0.0053281 0.00586594 0.00641358 0.00697102 0.00753826 0.0081153 0.00868993 0.00924992 0.00979529 0.010326 0.0108421 0.0113436 0.0118304 0.0123026 0.012754 0.0131784 0.0135757 0.0139459 0.0142892 0.0146054 0.0148945 0.0151567 0.0153908 0.015596 0.0157722 0.0159196 0.0160379 0.0161273 0.0161878 0.0162193 0.0162245 0.016206 0.0161637 0.0160978 0.016008 0.0158946 0.0157574 0.0155965 0.0154161 0.0152206 0.0150098 0.0147839 0.0145428 0.0142866 0.0140151 0.0137285 0.013431 0.013127 0.0128165 0.0124995 0.012176 0.0118459 0.0115094 0.0111663 0.0108201 0.0104742 0.0101286 0.00978322 0.00943817 0.0090934 0.00874891 0.00840471 0.00806296 0.00772584 0.00739334 0.00706547 0.00674222 0.00642359 0.00610959 0.00580022 0.00549665 0.00520006 0.00491047 0.00462786 0.00435224 0.00408361 0.00382196 0.0035673 0.00332034 0.00308178 0.00285163 0.00262988 0.00241653 0.00221158 0.00201504 0.00182691 0.00164784 0.00147851 0.00131893 0.00116908 0.00102897 0.000898598 0.000777967 0.000667076 0.000565782 0.000473944 0.000391562 0.000318636 0.000255167 0.000201153 0.000156595 0.000121494 9.30187e-05 6.83403e-05 4.74585e-05 3.03735e-05 1.70851e-05 7.59337e-06 1.89834e-06 0 0 1.79515e-05 7.18061e-05 0.000161564 0.000287224 0.000448788 0.000646254 0.000879624 0.0011489 0.00145927 0.00181596 0.00221895 0.00266825 0.00316385 0.00370577 0.00429399 0.00492851 0.00559259 0.00626947 0.00695916 0.00766164 0.00837692 0.00910501 0.00984589 0.0105996 0.0113501 0.0120815 0.0127938 0.013487 0.0141611 0.0148161 0.015452 0.0160688 0.0166583 0.0172126 0.0177315 0.0182151 0.0186634 0.0190764 0.0194541 0.0197965 0.0201023 0.0203703 0.0206005 0.0207929 0.0209475 0.0210643 0.0211433 0.0211845 0.0211912 0.021167 0.0211118 0.0210256 0.0209084 0.0207603 0.0205811 0.0203709 0.0201353 0.0198799 0.0196047 0.0193096 0.0189947 0.01866 0.0183055 0.0179311 0.0175425 0.0171455 0.0167399 0.0163259 0.0159033 0.0154722 0.0150326 0.0145845 0.0141324 0.0136806 0.0132291 0.0127781 0.0123274 0.0118771 0.0114272 0.0109776 0.0105312 0.0100909 0.00965661 0.00922837 0.00880616 0.00839 0.00797988 0.00757579 0.00717929 0.00679192 0.00641367 0.00604455 0.00568456 0.00533369 0.00499195 0.00465934 0.00433677 0.00402519 0.00372457 0.00343494 0.00315628 0.0028886 0.00263189 0.00238616 0.00215228 0.00193112 0.00172268 0.00152696 0.00134396 0.00117368 0.00101612 0.000871283 0.00073898 0.000619029 0.000511428 0.000416178 0.000333279 0.00026273 0.000204533 0.000158686 0.000121494 8.92608e-05 6.19867e-05 3.96715e-05 2.23152e-05 9.91787e-06 2.47947e-06 0 0 2.283e-05 9.132e-05 0.00020547 0.00036528 0.00057075 0.00082188 0.00111867 0.00146112 0.0018556 0.00230849 0.00281978 0.00338948 0.00401758 0.00470409 0.005449 0.00625232 0.00709288 0.00794952 0.00882223 0.00971102 0.0106159 0.0115368 0.0124739 0.013427 0.014376 0.015301 0.0162017 0.0170784 0.0179309 0.0187592 0.0195634 0.0203434 0.0210891 0.0217901 0.0224466 0.0230584 0.0236256 0.0241481 0.0246261 0.0250595 0.0254466 0.025786 0.0260775 0.0263213 0.0265173 0.0266655 0.0267659 0.0268185 0.0268276 0.0267975 0.0267282 0.0266197 0.026472 0.026285 0.0260588 0.0257935 0.0254959 0.0251733 0.0248256 0.0244527 0.0240547 0.0236317 0.0231835 0.0227102 0.0222189 0.0217169 0.021204 0.0206804 0.0201459 0.0196006 0.0190446 0.0184777 0.0179057 0.017334 0.0167629 0.0161921 0.0156218 0.0150519 0.0144825 0.0139135 0.0133485 0.0127912 0.0122415 0.0116994 0.0111649 0.010638 0.0101187 0.00960711 0.00910506 0.00861455 0.00813557 0.00766812 0.00721222 0.00676785 0.00633501 0.00591372 0.00550513 0.00511041 0.00472958 0.00436262 0.00400954 0.00367033 0.00334501 0.00303356 0.00273708 0.00245668 0.00219234 0.00194407 0.00171187 0.00149573 0.00129567 0.00111167 0.000943523 0.000790995 0.000654091 0.000532809 0.000427151 0.000337115 0.000262702 0.000203913 0.000156121 0.000114701 7.96534e-05 5.09782e-05 2.86752e-05 1.27446e-05 3.18614e-06 0 0 2.84897e-05 0.000113959 0.000256407 0.000455835 0.000712242 0.00102563 0.00139599 0.00182334 0.00231495 0.0028781 0.0035128 0.00421905 0.00499684 0.00584617 0.00676705 0.00775948 0.00879744 0.0098549 0.0109319 0.0120284 0.0131443 0.0142798 0.0154349 0.0166094 0.0177788 0.0189185 0.0200285 0.0211088 0.0221594 0.0231803 0.0241715 0.025133 0.0260522 0.0269165 0.027726 0.0284806 0.0291803 0.0298252 0.0304151 0.0309502 0.0314285 0.0318479 0.0322085 0.0325102 0.032753 0.032937 0.0330622 0.0331285 0.0331411 0.0331055 0.0330214 0.032889 0.0327083 0.0324791 0.0322016 0.0318757 0.0315102 0.0311136 0.0306859 0.0302272 0.0297374 0.0292166 0.0286648 0.0280819 0.0274768 0.0268582 0.0262263 0.0255809 0.024922 0.0242498 0.0235641 0.022865 0.0221593 0.0214542 0.0207495 0.0200452 0.0193414 0.018638 0.017935 0.0172325 0.0165349 0.0158466 0.0151677 0.0144981 0.0138379 0.013187 0.0125454 0.0119132 0.0112927 0.0106865 0.0100944 0.00951656 0.00895291 0.00840347 0.00786823 0.00734719 0.0068418 0.0063535 0.00588229 0.00542818 0.00499117 0.00457124 0.00416841 0.00378267 0.00341536 0.00306779 0.00273998 0.00243192 0.00214361 0.00187506 0.00162626 0.0013972 0.00118766 0.000997381 0.000826366 0.000674614 0.000542127 0.000428904 0.000334945 0.000260251 0.000199254 0.000146391 0.00010166 6.50627e-05 3.65978e-05 1.62657e-05 4.06642e-06 0 0 3.49306e-05 0.000139722 0.000314375 0.000558889 0.000873265 0.0012575 0.0017116 0.00223556 0.00283731 0.00352479 0.00429801 0.00515695 0.00610162 0.00713202 0.00824814 0.00945 0.0107063 0.0119856 0.0132881 0.0146136 0.0159623 0.017334 0.0187289 0.0201468 0.0215584 0.0229342 0.0242742 0.0255784 0.0268469 0.0280795 0.0292764 0.0304375 0.0315477 0.0325918 0.0335698 0.0344818 0.0353276 0.0361074 0.0368212 0.0374688 0.0380479 0.0385561 0.0389932 0.0393594 0.0396546 0.0398788 0.040032 0.0401143 0.0401318 0.0400909 0.0399915 0.0398336 0.0396173 0.0393426 0.0390094 0.0386177 0.038178 0.0377007 0.0371857 0.0366331 0.0360428 0.035415 0.0347494 0.0340463 0.0333161 0.0325696 0.0318067 0.0310274 0.0302317 0.0294196 0.0285911 0.0277463 0.0268934 0.026041 0.0251889 0.0243373 0.023486 0.0226351 0.0217847 0.0209346 0.0200903 0.0192573 0.0184354 0.0176247 0.0168252 0.0160369 0.0152599 0.014494 0.0137423 0.0130077 0.0122902 0.0115899 0.0109066 0.0102406 0.00959159 0.00895975 0.00834679 0.00775445 0.00718273 0.00663164 0.00610117 0.00559132 0.0051021 0.0046335 0.0041871 0.00376447 0.00336561 0.00299052 0.0026392 0.00231165 0.00200788 0.00172787 0.00147139 0.00123819 0.00102825 0.000841593 0.000678208 0.000538098 0.000421262 0.0003277 0.000250895 0.000184331 0.000128008 8.19249e-05 4.60828e-05 2.04812e-05 5.12031e-06 0 0 4.21527e-05 0.000168611 0.000379374 0.000674443 0.00105382 0.0015175 0.00206548 0.00269777 0.00342269 0.00424857 0.0051754 0.00620319 0.00733193 0.00856162 0.00989227 0.0113239 0.0128194 0.0143417 0.0158909 0.0174669 0.0190697 0.0206994 0.0223559 0.0240392 0.0257147 0.0273479 0.0289387 0.0304871 0.0319932 0.0334568 0.0348781 0.036257 0.0375755 0.0388159 0.039978 0.0410619 0.0420676 0.042995 0.0438442 0.0446152 0.0453049 0.0459105 0.0464319 0.0468691 0.0472221 0.0474909 0.0476755 0.047776 0.0477996 0.0477537 0.0476384 0.0474536 0.0471992 0.0468754 0.0464821 0.0460194 0.0454994 0.0449346 0.0443249 0.0436703 0.0429709 0.0422266 0.0414374 0.0406033 0.039737 0.038851 0.0379453 0.0370199 0.0360749 0.0351102 0.0341258 0.0331217 0.0321079 0.0310945 0.0300813 0.0290684 0.0280558 0.0270435 0.0260315 0.0250198 0.0240148 0.023023 0.0220444 0.0210791 0.0201269 0.0191879 0.0182621 0.0173495 0.0164537 0.0155782 0.0147229 0.013888 0.0130734 0.0122791 0.0115051 0.0107514 0.0100201 0.00931325 0.00863088 0.00797297 0.00733954 0.00673057 0.00614607 0.00558604 0.00505231 0.0045467 0.00406921 0.00361986 0.00319863 0.00280552 0.00244054 0.00210369 0.00179472 0.00151341 0.00125975 0.00103375 0.000835394 0.000664696 0.000521651 0.000406259 0.000311042 0.000228521 0.000158695 0.000101565 5.71302e-05 2.53912e-05 6.3478e-06 0 0 5.0156e-05 0.000200624 0.000451404 0.000802496 0.0012539 0.00180562 0.00245765 0.00320999 0.00407109 0.00504943 0.00614498 0.00735776 0.00868776 0.010135 0.0116994 0.0133811 0.0151368 0.0169231 0.0187402 0.0205881 0.0224666 0.0243759 0.0263159 0.0282866 0.0302479 0.0321598 0.0340221 0.035835 0.0375983 0.0393122 0.0409765 0.0425913 0.0441358 0.0455888 0.0469506 0.048221 0.0494001 0.0504878 0.0514842 0.0523893 0.0531994 0.0539111 0.0545244 0.0550392 0.0554555 0.0557733 0.0559927 0.0561136 0.0561446 0.0560941 0.0559621 0.0557487 0.0554539 0.0550776 0.0546199 0.0540807 0.0534745 0.0528154 0.0521036 0.051339 0.0505217 0.0496515 0.0487287 0.047753 0.0467393 0.0457023 0.0446421 0.0435585 0.0424516 0.0413214 0.0401679 0.0389912 0.0378028 0.0366146 0.0354265 0.0342385 0.0330507 0.031863 0.0306754 0.029488 0.0283083 0.0271439 0.0259949 0.0248612 0.0237429 0.0226398 0.0215522 0.0204798 0.019427 0.018398 0.0173926 0.0164111 0.0154532 0.0145191 0.0136088 0.0127221 0.0118617 0.0110299 0.0102267 0.0094522 0.00870628 0.00798899 0.00730033 0.0066403 0.00601098 0.00541449 0.0048508 0.00431994 0.00382189 0.00335666 0.00292424 0.00252464 0.00215764 0.00182305 0.00152086 0.00125107 0.00101368 0.000808698 0.000636114 0.00049593 0.000379697 0.000278961 0.000193723 0.000123983 6.97402e-05 3.09956e-05 7.74891e-06 0 0 5.89406e-05 0.000235762 0.000530465 0.000943049 0.00147351 0.00212186 0.00288809 0.0037722 0.00478251 0.00592736 0.00720675 0.00862067 0.0101691 0.0118521 0.0136696 0.0156217 0.0176584 0.0197299 0.0218362 0.0239772 0.026153 0.0283636 0.0306089 0.032889 0.035158 0.0373698 0.0395244 0.0416219 0.0436623 0.0456456 0.0475717 0.0494406 0.0512283 0.0529106 0.0544875 0.0559591 0.0573252 0.0585859 0.0597412 0.0607912 0.0617315 0.062558 0.0632708 0.0638696 0.0643547 0.064726 0.0649834 0.0651271 0.0651666 0.0651118 0.0649627 0.0647192 0.0643814 0.0639492 0.0634227 0.0628018 0.0621031 0.0613431 0.0605217 0.0596391 0.0586951 0.0576898 0.0566232 0.0554953 0.0543232 0.0531237 0.051897 0.0506431 0.0493619 0.0480534 0.0467177 0.0453547 0.0439781 0.0426014 0.0412246 0.0398477 0.0384707 0.0370937 0.0357165 0.0343393 0.0329708 0.03162 0.0302868 0.0289712 0.0276732 0.0263928 0.02513 0.0238849 0.0226622 0.021467 0.0202993 0.0191589 0.0180461 0.0169606 0.0159026 0.014872 0.0138717 0.0129044 0.0119703 0.0110693 0.0102014 0.00936659 0.00856487 0.00779627 0.00706313 0.00636783 0.00571038 0.00509076 0.00450899 0.00396506 0.00345897 0.00299073 0.00256016 0.00216711 0.00181158 0.00149357 0.00121308 0.000970105 0.000764649 0.000596712 0.000456858 0.000335651 0.000233091 0.000149178 8.39126e-05 3.72945e-05 9.32363e-06 0 0 6.85063e-05 0.000274025 0.000616557 0.0010961 0.00171266 0.00246623 0.00335681 0.0043844 0.00555695 0.00688238 0.0083607 0.00999191 0.011776 0.013713 0.0158029 0.0180456 0.0203843 0.022762 0.0251786 0.0276343 0.0301289 0.0326624 0.0352349 0.0378465 0.0404448 0.0429778 0.0454456 0.047848 0.0501852 0.052457 0.0546636 0.0568049 0.0588533 0.0607813 0.0625889 0.0642761 0.0658429 0.0672893 0.0686153 0.0698209 0.0709011 0.0718512 0.072671 0.0733606 0.0739199 0.074349 0.0746478 0.0748165 0.0748659 0.0748071 0.0746401 0.074365 0.0739816 0.0734901 0.0728904 0.0721825 0.0713853 0.0705176 0.0695793 0.0685705 0.0674912 0.0663414 0.0651211 0.0638303 0.0624885 0.0611151 0.0597101 0.0582737 0.0568057 0.0553061 0.053775 0.0522124 0.0506338 0.0490548 0.0474755 0.0458959 0.0443159 0.0427355 0.0411548 0.0395737 0.0380024 0.0364512 0.03492 0.0334089 0.0319178 0.0304467 0.0289956 0.0275646 0.0261593 0.0247854 0.0234429 0.0221317 0.0208519 0.0196035 0.0183865 0.0172009 0.0160499 0.0149368 0.0138616 0.0128243 0.0118249 0.0108634 0.00993971 0.00905395 0.00820874 0.00740673 0.00664793 0.00593233 0.00525993 0.00463074 0.00404475 0.00350196 0.00300227 0.00254559 0.00213192 0.00176125 0.00143358 0.00114892 0.000907258 0.000708605 0.000542526 0.00039859 0.000276799 0.000177151 9.96476e-05 4.42878e-05 1.1072e-05 0 0 7.88532e-05 0.000315413 0.000709679 0.00126165 0.00197133 0.00283872 0.00386381 0.00504661 0.0063944 0.00791448 0.00960685 0.0114715 0.0135084 0.0157177 0.0180992 0.0206529 0.0233145 0.0260195 0.0287677 0.0315593 0.0343942 0.0372724 0.040194 0.0431589 0.0461084 0.048984 0.0517856 0.0545133 0.0571669 0.0597466 0.0622523 0.064684 0.0670106 0.0692008 0.0712546 0.0731721 0.0749532 0.0765979 0.0781063 0.0794783 0.0807083 0.0817906 0.0827251 0.0835119 0.0841509 0.0846423 0.0849859 0.0851817 0.0852422 0.0851798 0.0849944 0.084686 0.0842547 0.0837004 0.0830232 0.082223 0.0813211 0.0803389 0.0792763 0.0781334 0.0769101 0.0756064 0.0742223 0.0727579 0.0712353 0.0696764 0.0680815 0.0664503 0.064783 0.0630795 0.0613399 0.0595641 0.0577699 0.055975 0.0541794 0.0523831 0.0505861 0.0487885 0.0469902 0.0451911 0.0434031 0.0416376 0.0398947 0.0381744 0.0364767 0.0348016 0.0331491 0.0315192 0.0299183 0.0283531 0.0268234 0.0253293 0.0238708 0.022448 0.0210607 0.0197089 0.0183965 0.0171271 0.0159006 0.0147172 0.0135767 0.0124793 0.0114248 0.0104133 0.00944782 0.0085312 0.00766347 0.00684464 0.00607471 0.00535369 0.00468156 0.00405833 0.00348398 0.00295849 0.00248186 0.00205409 0.00167518 0.00134513 0.00106394 0.000831609 0.0006367 0.00046778 0.000324847 0.000207902 0.000116945 5.19755e-05 1.29939e-05 0 0 8.97637e-05 0.000359055 0.000807873 0.00143622 0.00224409 0.00323149 0.00439842 0.00574487 0.00727728 0.00900207 0.0109192 0.0130288 0.0153307 0.017825 0.0205117 0.0233908 0.0263899 0.0294368 0.0325313 0.0356736 0.0388636 0.0421014 0.0453868 0.04872 0.0520355 0.055268 0.0584175 0.061484 0.0644674 0.0673678 0.0701852 0.0729196 0.075536 0.0779995 0.08031 0.0824676 0.0844722 0.0863239 0.0880227 0.0895685 0.0909549 0.0921754 0.09323 0.0941186 0.0948413 0.0953981 0.0957889 0.0960138 0.0960866 0.096021 0.095817 0.0954747 0.0949941 0.094375 0.0936176 0.0927219 0.0917116 0.0906107 0.0894191 0.0881368 0.0867638 0.0853002 0.083746 0.082101 0.0803902 0.0786384 0.0768456 0.0750117 0.0731368 0.0712209 0.0692639 0.0672659 0.0652469 0.0632268 0.0612056 0.0591834 0.05716 0.0551357 0.0531102 0.0510836 0.0490692 0.0470799 0.0451159 0.0431771 0.0412636 0.0393752 0.0375121 0.0356742 0.0338689 0.0321036 0.0303782 0.0286928 0.0270474 0.0254418 0.0238763 0.0223507 0.0208692 0.019436 0.0180512 0.0167146 0.0154263 0.0141863 0.0129945 0.0118511 0.0107592 0.00972219 0.00873993 0.00781249 0.00693985 0.00612202 0.005359 0.00465079 0.00399747 0.00339914 0.00285579 0.00236742 0.00193404 0.00155563 0.00123222 0.000963779 0.000737893 0.000542126 0.000376476 0.000240945 0.000135531 6.02362e-05 1.50591e-05 0 0 0.00010102 0.000404079 0.000909178 0.00161632 0.0025255 0.00363671 0.00494997 0.00646527 0.008188 0.0101236 0.012272 0.0146332 0.0172072 0.0199941 0.0229938 0.0262064 0.0295514 0.0329484 0.0363975 0.0398986 0.0434518 0.047057 0.0507142 0.0544235 0.0581126 0.0617095 0.0652142 0.0686265 0.0719466 0.0751744 0.0783099 0.0813531 0.0842653 0.0870077 0.0895804 0.0919832 0.0942162 0.0962794 0.0981728 0.0998964 0.101443 0.102805 0.103983 0.104976 0.105784 0.106409 0.106848 0.107104 0.10719 0.107122 0.1069 0.106523 0.105993 0.105309 0.10447 0.103478 0.102358 0.101136 0.0998138 0.09839 0.0968649 0.0952386 0.0935111 0.0916824 0.08978 0.0878316 0.0858371 0.0837966 0.08171 0.0795774 0.0773987 0.075174 0.0729254 0.0706754 0.0684238 0.0661707 0.0639161 0.06166 0.0594023 0.0571431 0.0548971 0.052679 0.0504888 0.0483264 0.0461919 0.0440853 0.0420066 0.0399557 0.037941 0.0359707 0.0340447 0.0321632 0.030326 0.0285332 0.0267848 0.0250808 0.0234259 0.0218246 0.0202769 0.018783 0.0173427 0.0159561 0.0146232 0.0133439 0.0121219 0.0109607 0.00986027 0.00882066 0.00784186 0.00692386 0.00606667 0.00527028 0.00453494 0.00386086 0.00324806 0.00269654 0.00220628 0.00177731 0.0014096 0.00110317 0.000844616 0.000620535 0.000430927 0.000275793 0.000155134 6.89483e-05 1.72371e-05 0 0 0.000112622 0.000450487 0.00101359 0.00180195 0.00281554 0.00405438 0.00551846 0.00720779 0.00912655 0.011279 0.013665 0.0162847 0.019138 0.0222249 0.0255455 0.0290997 0.0327989 0.0365544 0.0403662 0.0442342 0.0481586 0.0521392 0.0561761 0.0602693 0.0643398 0.0683086 0.0721756 0.0759408 0.0796044 0.0831662 0.0866262 0.0899846 0.0931986 0.0962256 0.0990657 0.101719 0.104185 0.106464 0.108557 0.110462 0.112172 0.113679 0.114983 0.116083 0.11698 0.117674 0.118164 0.118451 0.118552 0.118482 0.118242 0.117832 0.117252 0.116502 0.115582 0.114491 0.11326 0.111916 0.110461 0.108893 0.107213 0.105422 0.103518 0.101502 0.0994046 0.097256 0.0950561 0.092805 0.0905026 0.0881491 0.0857442 0.0832882 0.0808055 0.0783208 0.075834 0.0733452 0.0708544 0.0683615 0.0658666 0.0633696 0.060887 0.0584348 0.0560132 0.0536222 0.0512617 0.0489318 0.0466324 0.0443636 0.0421344 0.0399542 0.0378229 0.0357404 0.0337068 0.0317221 0.0297863 0.0278994 0.0260665 0.0242927 0.022578 0.0209225 0.0193261 0.0177888 0.0163107 0.0148917 0.0135358 0.0122467 0.0110245 0.00986916 0.00878074 0.00775921 0.00680457 0.00591681 0.00509637 0.00434366 0.00365868 0.00304144 0.00249193 0.00201015 0.0015961 0.00124979 0.000956869 0.000703006 0.000488199 0.000312447 0.000175752 7.81118e-05 1.95279e-05 0 0 0.000124569 0.000498277 0.00112112 0.00199311 0.00311423 0.00448449 0.00610389 0.00797243 0.0100929 0.0124682 0.0150983 0.0179833 0.021123 0.0245175 0.0281667 0.0320708 0.0361326 0.0402548 0.0444374 0.0486805 0.0529841 0.0573481 0.0617726 0.0662575 0.070717 0.0750651 0.0793018 0.083427 0.0874409 0.0913433 0.0951343 0.098814 0.102336 0.105653 0.108766 0.111675 0.114379 0.116879 0.119174 0.121265 0.123143 0.124798 0.126231 0.127441 0.128429 0.129194 0.129737 0.130057 0.130173 0.130102 0.129845 0.129401 0.128771 0.127954 0.126951 0.125762 0.124417 0.12295 0.121359 0.119646 0.117809 0.115849 0.113766 0.11156 0.109264 0.106912 0.104503 0.102037 0.0995147 0.0969359 0.0943005 0.0916086 0.088887 0.0861629 0.0834361 0.0807068 0.0779748 0.0752402 0.072503 0.0697632 0.0670387 0.0643474 0.0616894 0.0590646 0.056473 0.0539147 0.0513897 0.0488978 0.0464493 0.0440543 0.0417126 0.0394245 0.0371898 0.0350085 0.0328807 0.0308063 0.028791 0.0268403 0.0249544 0.0231331 0.0213764 0.0196845 0.0180572 0.0164946 0.0150008 0.0135802 0.0122325 0.010958 0.00975649 0.00862806 0.00757269 0.00659038 0.00568178 0.00484753 0.00408765 0.00340213 0.00279096 0.00225416 0.00179171 0.00140363 0.00107465 0.00078954 0.000548292 0.000350907 0.000197385 8.77267e-05 2.19317e-05 0 0 0.000136863 0.00054745 0.00123176 0.0021898 0.00342156 0.00492705 0.00670626 0.0087592 0.0110872 0.0136914 0.016572 0.0197289 0.0231621 0.0268717 0.0308575 0.0351197 0.0395523 0.0440494 0.0486112 0.0532374 0.0579283 0.0626837 0.0675036 0.0723881 0.0772443 0.0819791 0.0865927 0.091085 0.095456 0.0997057 0.103834 0.107841 0.111677 0.11529 0.118681 0.121851 0.124798 0.127523 0.130025 0.132306 0.134355 0.136162 0.137727 0.139049 0.14013 0.140969 0.141565 0.14192 0.142052 0.141981 0.141707 0.14123 0.140549 0.139666 0.138579 0.137289 0.13583 0.134237 0.13251 0.130648 0.128652 0.126521 0.124256 0.121856 0.119358 0.116798 0.114176 0.111492 0.108746 0.105938 0.103068 0.100135 0.0971701 0.0942018 0.0912302 0.0882554 0.0852773 0.082296 0.0793115 0.0763237 0.0733522 0.0704167 0.0675172 0.0646535 0.0618259 0.0590341 0.0562783 0.0535584 0.0508856 0.0482708 0.0457141 0.0432154 0.0407749 0.0383924 0.036068 0.0338016 0.0315994 0.0294676 0.027406 0.0254147 0.0234937 0.021643 0.0198626 0.0181525 0.0165171 0.0149612 0.0134845 0.0120871 0.0107691 0.00953042 0.00837104 0.00729098 0.00629115 0.00537248 0.00453497 0.00377861 0.0031034 0.00250934 0.00199644 0.00156469 0.00119797 0.000880138 0.000611207 0.000391172 0.000220034 9.77931e-05 2.44483e-05 0 0 0.000149502 0.000598006 0.00134551 0.00239203 0.00373754 0.00538206 0.00732558 0.0095681 0.0121092 0.0149485 0.018086 0.0215217 0.0252556 0.0292876 0.0336179 0.0382463 0.0430581 0.0479385 0.0528875 0.057905 0.0629912 0.0681459 0.0733692 0.0786611 0.0839216 0.0890507 0.0940484 0.0989148 0.10365 0.108253 0.112726 0.117067 0.121222 0.125137 0.128812 0.132246 0.135441 0.138396 0.14111 0.143585 0.145808 0.14777 0.14947 0.150908 0.152084 0.152998 0.153651 0.154041 0.154191 0.15412 0.153829 0.153319 0.152588 0.151637 0.150465 0.149074 0.147499 0.145779 0.143913 0.1419 0.139742 0.137437 0.134987 0.132391 0.129687 0.126916 0.124078 0.121171 0.118197 0.115155 0.112045 0.108868 0.105655 0.102437 0.0992162 0.0959911 0.0927621 0.0895291 0.0862921 0.0830512 0.0798277 0.0766428 0.0734966 0.0703891 0.0673202 0.0642899 0.0612984 0.0583455 0.0554433 0.0526038 0.0498272 0.0471133 0.0444621 0.0418737 0.0393481 0.0368853 0.0344918 0.0321743 0.0299329 0.0277674 0.0256779 0.0236644 0.0217269 0.0198654 0.0180847 0.0163897 0.0147803 0.0132566 0.0118186 0.0104663 0.00919961 0.00801861 0.0069245 0.00591851 0.00500063 0.00417087 0.00342922 0.00277569 0.00221027 0.00173297 0.00132681 0.000974797 0.0