<?xml version="1.0"?> 
<VTKFile type="StructuredGrid" version="0.1"> 
<StructuredGrid WholeExtent="0 128 0 128 0 0"> 
<Piece Extent="0 128 0 128 0 0"> 
<PointData>
<DataArray type="Float32" Name="u" format="ascii" NumberOfComponents="1"> 
0 0 0 0 0 0 0 0 0 0 0 0 0 0 0 0 0 0 0 0 0 0 0 0 0 0 0 0 0 0 0 0 0 0 0 0 0 0 0 0 0 0 0 0 0 0 0 0 0 0 0 0 0 0 0 0 0 0 0 0 0 0 0 0 0 0 0 0 0 0 0 0 0 0 0 0 0 0 0 0 0 0 0 0 0 0 0 0 0 0 0 0 0 0 0 0 0 0 0 0 0 0 0 0 0 0 0 0 0 0 0 0 0 0 0 0 0 0 0 0 0 0 0 0 0 0 0 0 0 0 -6.31513e-08 -2.52605e-07 -5.68361e-07 -1.01042e-06 -1.57878e-06 -2.27345e-06 -3.09441e-06 -4.04168e-06 -5.16279e-06 -6.50527e-06 -8.06914e-06 -9.85437e-06 -1.1861e-05 -1.4089e-05 -1.65383e-05 -1.92091e-05 -2.1993e-05 -2.4782e-05 -2.75759e-05 -3.03748e-05 -3.31788e-05 -3.59878e-05 -3.88017e-05 -4.16207e-05 -4.43417e-05 -4.68619e-05 -4.91812e-05 -5.12997e-05 -5.32173e-05 -5.49341e-05 -5.645e-05 -5.7765e-05 -5.89173e-05 -5.99451e-05 -6.08482e-05 -6.16267e-05 -6.22806e-05 -6.28099e-05 -6.32146e-05 -6.34947e-05 -6.37453e-05 -6.40614e-05 -6.4443e-05 -6.48901e-05 -6.54028e-05 -6.5981e-05 -6.66247e-05 -6.7334e-05 -6.80944e-05 -6.88918e-05 -6.97261e-05 -7.05974e-05 -7.15055e-05 -7.24506e-05 -7.34326e-05 -7.44515e-05 -7.54171e-05 -7.62393e-05 -7.69181e-05 -7.74534e-05 -7.78453e-05 -7.80937e-05 -7.81987e-05 -7.81603e-05 -7.79816e-05 -7.76658e-05 -7.7213e-05 -7.6623e-05 -7.5896e-05 -7.50319e-05 -7.40307e-05 -7.28925e-05 -7.17094e-05 -7.05737e-05 -6.94854e-05 -6.84445e-05 -6.7451e-05 -6.6505e-05 -6.56063e-05 -6.4755e-05 -6.39631e-05 -6.32423e-05 -6.25928e-05 -6.20144e-05 -6.15073e-05 -6.10713e-05 -6.07066e-05 -6.04131e-05 -6.00964e-05 -5.96624e-05 -5.91109e-05 -5.8442e-05 -5.76557e-05 -5.67519e-05 -5.57308e-05 -5.45922e-05 -5.33009e-05 -5.18219e-05 -5.0155e-05 -4.83003e-05 -4.62578e-05 -4.40275e-05 -4.16093e-05 -3.90033e-05 -3.63092e-05 -3.36267e-05 -3.09558e-05 -2.82964e-05 -2.56487e-05 -2.30126e-05 -2.0388e-05 -1.7775e-05 -1.52734e-05 -1.29829e-05 -1.09035e-05 -9.03526e-06 -7.37809e-06 -5.93202e-06 -4.69706e-06 -3.6732e-06 -2.8123e-06 -2.06618e-06 -1.43484e-06 -9.18301e-07 -5.16544e-07 -2.29575e-07 -5.73938e-08 0 0 -2.52605e-07 -1.01042e-06 -2.27345e-06 -4.04168e-06 -6.31513e-06 -9.09378e-06 -1.23776e-05 -1.61667e-05 -2.06512e-05 -2.60211e-05 -3.22765e-05 -3.94175e-05 -4.7444e-05 -5.63559e-05 -6.61534e-05 -7.68364e-05 -8.79721e-05 -9.91278e-05 -0.000110304 -0.000121499 -0.000132715 -0.000143951 -0.000155207 -0.000166483 -0.000177367 -0.000187448 -0.000196725 -0.000205199 -0.000212869 -0.000219736 -0.0002258 -0.00023106 -0.000235669 -0.00023978 -0.000243393 -0.000246507 -0.000249122 -0.00025124 -0.000252858 -0.000253979 -0.000254981 -0.000256245 -0.000257772 -0.00025956 -0.000261611 -0.000263924 -0.000266499 -0.000269336 -0.000272378 -0.000275567 -0.000278905 -0.000282389 -0.000286022 -0.000289802 -0.00029373 -0.000297806 -0.000301669 -0.000304957 -0.000307672 -0.000309814 -0.000311381 -0.000312375 -0.000312795 -0.000312641 -0.000311926 -0.000310663 -0.000308852 -0.000306492 -0.000303584 -0.000300128 -0.000296123 -0.00029157 -0.000286837 -0.000282295 -0.000277942 -0.000273778 -0.000269804 -0.00026602 -0.000262425 -0.00025902 -0.000255852 -0.000252969 -0.000250371 -0.000248058 -0.000246029 -0.000244285 -0.000242826 -0.000241652 -0.000240386 -0.00023865 -0.000236444 -0.000233768 -0.000230623 -0.000227008 -0.000222923 -0.000218369 -0.000213204 -0.000207288 -0.00020062 -0.000193201 -0.000185031 -0.00017611 -0.000166437 -0.000156013 -0.000145237 -0.000134507 -0.000123823 -0.000113186 -0.000102595 -9.20502e-05 -8.1552e-05 -7.11002e-05 -6.10938e-05 -5.19318e-05 -4.36142e-05 -3.61411e-05 -2.95124e-05 -2.37281e-05 -1.87882e-05 -1.46928e-05 -1.12492e-05 -8.26471e-06 -5.73938e-06 -3.6732e-06 -2.06618e-06 -9.18301e-07 -2.29575e-07 0 0 -5.68361e-07 -2.27345e-06 -5.11525e-06 -9.09378e-06 -1.4209e-05 -2.0461e-05 -2.78497e-05 -3.63751e-05 -4.64651e-05 -5.85475e-05 -7.26222e-05 -8.86894e-05 -0.000106749 -0.000126801 -0.000148845 -0.000172882 -0.000197937 -0.000223038 -0.000248183 -0.000273374 -0.000298609 -0.00032389 -0.000349215 -0.000374586 -0.000399075 -0.000421757 -0.000442631 -0.000461697 -0.000478956 -0.000494407 -0.00050805 -0.000519885 -0.000530256 -0.000539506 -0.000547634 -0.00055464 -0.000560525 -0.000565289 -0.000568932 -0.000571452 -0.000573707 -0.000576552 -0.000579987 -0.000584011 -0.000588625 -0.000593829 -0.000599622 -0.000606006 -0.00061285 -0.000620026 -0.000627535 -0.000635376 -0.00064355 -0.000652055 -0.000660893 -0.000670063 -0.000678754 -0.000686154 -0.000692263 -0.000697081 -0.000700608 -0.000702844 -0.000703789 -0.000703443 -0.000701834 -0.000698992 -0.000694917 -0.000689607 -0.000683064 -0.000675287 -0.000666276 -0.000656032 -0.000645384 -0.000635163 -0.000625368 -0.000616001 -0.000607059 -0.000598545 -0.000590457 -0.000582795 -0.000575668 -0.000569181 -0.000563335 -0.00055813 -0.000553565 -0.000549642 -0.000546359 -0.000543718 -0.000540868 -0.000536961 -0.000531998 -0.000525978 -0.000518901 -0.000510767 -0.000501577 -0.000491329 -0.000479708 -0.000466397 -0.000451395 -0.000434703 -0.00041632 -0.000396247 -0.000374484 -0.00035103 -0.000326783 -0.00030264 -0.000278602 -0.000254668 -0.000230838 -0.000207113 -0.000183492 -0.000159975 -0.000137461 -0.000116846 -9.81319e-05 -8.13174e-05 -6.64028e-05 -5.33882e-05 -4.22735e-05 -3.30588e-05 -2.53107e-05 -1.85956e-05 -1.29136e-05 -8.26471e-06 -4.6489e-06 -2.06618e-06 -5.16544e-07 0 0 -1.01042e-06 -4.04168e-06 -9.09378e-06 -1.61667e-05 -2.52605e-05 -3.63751e-05 -4.95106e-05 -6.46669e-05 -8.26046e-05 -0.000104084 -0.000129106 -0.00015767 -0.000189776 -0.000225424 -0.000264614 -0.000307345 -0.000351888 -0.000396511 -0.000441214 -0.000485998 -0.000530861 -0.000575804 -0.000620827 -0.000665931 -0.000709467 -0.00074979 -0.000786899 -0.000820795 -0.000851477 -0.000878945 -0.000903199 -0.00092424 -0.000942677 -0.000959121 -0.000973571 -0.000986027 -0.00099649 -0.00100496 -0.00101143 -0.00101592 -0.00101992 -0.00102498 -0.00103109 -0.00103824 -0.00104644 -0.0010557 -0.001066 -0.00107734 -0.00108951 -0.00110227 -0.00111562 -0.00112956 -0.00114409 -0.00115921 -0.00117492 -0.00119122 -0.00120667 -0.00121983 -0.00123069 -0.00123925 -0.00124552 -0.0012495 -0.00125118 -0.00125056 -0.00124771 -0.00124265 -0.00123541 -0.00122597 -0.00121434 -0.00120051 -0.00118449 -0.00116628 -0.00114735 -0.00112918 -0.00111177 -0.00109511 -0.00107922 -0.00106408 -0.0010497 -0.00103608 -0.00102341 -0.00101188 -0.00100148 -0.000992231 -0.000984116 -0.000977141 -0.000971306 -0.000966609 -0.000961543 -0.000954598 -0.000945774 -0.000935072 -0.000922491 -0.000908031 -0.000891692 -0.000873475 -0.000852815 -0.00082915 -0.000802481 -0.000772805 -0.000740125 -0.00070444 -0.000665749 -0.000624053 -0.000580947 -0.000538027 -0.000495292 -0.000452743 -0.000410379 -0.000368201 -0.000326208 -0.000284401 -0.000244375 -0.000207727 -0.000174457 -0.000144564 -0.000118049 -9.49123e-05 -7.51529e-05 -5.87712e-05 -4.49967e-05 -3.30588e-05 -2.29575e-05 -1.46928e-05 -8.26471e-06 -3.6732e-06 -9.18301e-07 0 0 -1.57878e-06 -6.31513e-06 -1.4209e-05 -2.52605e-05 -3.94695e-05 -5.68361e-05 -7.73603e-05 -0.000101042 -0.00012907 -0.000162632 -0.000201728 -0.000246359 -0.000296525 -0.000352224 -0.000413459 -0.000480227 -0.000549826 -0.000619549 -0.000689398 -0.000759371 -0.00082947 -0.000899694 -0.000970043 -0.00104052 -0.00110854 -0.00117155 -0.00122953 -0.00128249 -0.00133043 -0.00137335 -0.00141125 -0.00144413 -0.00147293 -0.00149863 -0.0015212 -0.00154067 -0.00155702 -0.00157025 -0.00158037 -0.00158737 -0.00159363 -0.00160153 -0.00161107 -0.00162225 -0.00163507 -0.00164952 -0.00166562 -0.00168335 -0.00170236 -0.0017223 -0.00174315 -0.00176493 -0.00178764 -0.00181126 -0.00183581 -0.00186129 -0.00188543 -0.00190598 -0.00192295 -0.00193634 -0.00194613 -0.00195234 -0.00195497 -0.00195401 -0.00194954 -0.00194165 -0.00193032 -0.00191558 -0.0018974 -0.0018758 -0.00185077 -0.00182231 -0.00179273 -0.00176434 -0.00173713 -0.00171111 -0.00168628 -0.00166262 -0.00164016 -0.00161888 -0.00159908 -0.00158106 -0.00156482 -0.00155036 -0.00153768 -0.00152678 -0.00151767 -0.00151033 -0.00150241 -0.00149156 -0.00147777 -0.00146105 -0.00144139 -0.0014188 -0.00139327 -0.0013648 -0.00133252 -0.00129555 -0.00125388 -0.00120751 -0.00115645 -0.00110069 -0.00104023 -0.000975083 -0.00090773 -0.000840667 -0.000773894 -0.000707411 -0.000641217 -0.000575314 -0.0005097 -0.000444376 -0.000381836 -0.000324573 -0.000272589 -0.000225882 -0.000184452 -0.0001483 -0.000117426 -9.18301e-05 -7.03074e-05 -5.16544e-05 -3.58711e-05 -2.29575e-05 -1.29136e-05 -5.73938e-06 -1.43484e-06 0 0 -2.27345e-06 -9.09378e-06 -2.0461e-05 -3.63751e-05 -5.68361e-05 -8.1844e-05 -0.000111399 -0.000145501 -0.00018586 -0.00023419 -0.000290489 -0.000354757 -0.000426996 -0.000507203 -0.00059538 -0.000691527 -0.000791749 -0.000892151 -0.000992733 -0.00109349 -0.00119444 -0.00129556 -0.00139686 -0.00149834 -0.0015963 -0.00168703 -0.00177052 -0.00184679 -0.00191582 -0.00197763 -0.0020322 -0.00207954 -0.00212102 -0.00215802 -0.00219053 -0.00221856 -0.0022421 -0.00226116 -0.00227573 -0.00228581 -0.00229483 -0.00230621 -0.00231995 -0.00233604 -0.0023545 -0.00237532 -0.00239849 -0.00242402 -0.0024514 -0.00248011 -0.00251014 -0.00254151 -0.0025742 -0.00260822 -0.00264357 -0.00268025 -0.00271502 -0.00274462 -0.00276905 -0.00278832 -0.00280243 -0.00281137 -0.00281515 -0.00281377 -0.00280734 -0.00279597 -0.00277967 -0.00275843 -0.00273226 -0.00270115 -0.00266511 -0.00262413 -0.00258154 -0.00254065 -0.00250147 -0.002464 -0.00242824 -0.00239418 -0.00236183 -0.00233118 -0.00230267 -0.00227672 -0.00225334 -0.00223252 -0.00221426 -0.00219857 -0.00218544 -0.00217487 -0.00216347 -0.00214785 -0.00212799 -0.00210391 -0.0020756 -0.00204307 -0.00200631 -0.00196532 -0.00191883 -0.00186559 -0.00180558 -0.00173881 -0.00166528 -0.00158499 -0.00149794 -0.00140412 -0.00130713 -0.00121056 -0.00111441 -0.00101867 -0.000923353 -0.000828452 -0.000733968 -0.000639902 -0.000549844 -0.000467386 -0.000392528 -0.00032527 -0.000265611 -0.000213553 -0.000169094 -0.000132235 -0.000101243 -7.43824e-05 -5.16544e-05 -3.30588e-05 -1.85956e-05 -8.26471e-06 -2.06618e-06 0 0 -3.09441e-06 -1.23776e-05 -2.78497e-05 -4.95106e-05 -7.73603e-05 -0.000111399 -0.000151626 -0.000198042 -0.000252977 -0.000318758 -0.000395388 -0.000482864 -0.000581188 -0.00069036 -0.000810379 -0.000941245 -0.00107766 -0.00121432 -0.00135122 -0.00148837 -0.00162576 -0.0017634 -0.00190128 -0.00203941 -0.00217274 -0.00229623 -0.00240988 -0.00251368 -0.00260765 -0.00269177 -0.00276605 -0.00283049 -0.00288695 -0.00293731 -0.00298156 -0.00301971 -0.00305175 -0.00307769 -0.00309752 -0.00311124 -0.00312352 -0.00313901 -0.00315771 -0.00317962 -0.00320474 -0.00323307 -0.00326461 -0.00329936 -0.00333663 -0.0033757 -0.00341658 -0.00345927 -0.00350377 -0.00355008 -0.0035982 -0.00364812 -0.00369544 -0.00373573 -0.00376899 -0.00379522 -0.00381442 -0.00382659 -0.00383174 -0.00382986 -0.0038211 -0.00380563 -0.00378344 -0.00375453 -0.0037189 -0.00367656 -0.00362751 -0.00357173 -0.00351376 -0.00345811 -0.00340478 -0.00335378 -0.0033051 -0.00325874 -0.00321471 -0.003173 -0.00313419 -0.00309887 -0.00306705 -0.00303871 -0.00301386 -0.0029925 -0.00297462 -0.00296024 -0.00294473 -0.00292346 -0.00289643 -0.00286366 -0.00282513 -0.00278084 -0.00273081 -0.00267502 -0.00261175 -0.00253927 -0.0024576 -0.00236672 -0.00226663 -0.00215735 -0.00203886 -0.00191116 -0.00177915 -0.00164771 -0.00151683 -0.00138653 -0.00125679 -0.00112761 -0.000999012 -0.000870977 -0.000748398 -0.000636164 -0.000534274 -0.000442728 -0.000361526 -0.000290669 -0.000230156 -0.000179987 -0.000137803 -0.000101243 -7.03074e-05 -4.49967e-05 -2.53107e-05 -1.12492e-05 -2.8123e-06 0 0 -4.04168e-06 -1.61667e-05 -3.63751e-05 -6.46669e-05 -0.000101042 -0.000145501 -0.000198042 -0.000258668 -0.000330419 -0.000416338 -0.000516425 -0.00063068 -0.000759103 -0.000901695 -0.00105845 -0.00122938 -0.00140755 -0.00158605 -0.00176486 -0.00194399 -0.00212344 -0.00230322 -0.00248331 -0.00266372 -0.00283787 -0.00299916 -0.0031476 -0.00328318 -0.00340591 -0.00351578 -0.0036128 -0.00369696 -0.00377071 -0.00383648 -0.00389428 -0.00394411 -0.00398596 -0.00401983 -0.00404574 -0.00406366 -0.0040797 -0.00409993 -0.00412435 -0.00415297 -0.00418578 -0.00422278 -0.00426398 -0.00430937 -0.00435804 -0.00440908 -0.00446247 -0.00451823 -0.00457635 -0.00463684 -0.00469969 -0.0047649 -0.0048267 -0.00487932 -0.00492276 -0.00495702 -0.0049821 -0.004998 -0.00500472 -0.00500226 -0.00499082 -0.00497061 -0.00494163 -0.00490387 -0.00485734 -0.00480204 -0.00473797 -0.00466512 -0.0045894 -0.00451671 -0.00444706 -0.00438045 -0.00431687 -0.00425632 -0.0041988 -0.00414432 -0.00409364 -0.00404751 -0.00400594 -0.00396892 -0.00393647 -0.00390857 -0.00388522 -0.00386644 -0.00384617 -0.00381839 -0.0037831 -0.00374029 -0.00368996 -0.00363212 -0.00356677 -0.0034939 -0.00341126 -0.0033166 -0.00320992 -0.00309122 -0.0029605 -0.00281776 -0.002663 -0.00249621 -0.00232379 -0.00215211 -0.00198117 -0.00181097 -0.00164152 -0.0014728 -0.00130483 -0.0011376 -0.0009775 -0.000830908 -0.000697827 -0.000578257 -0.000472198 -0.000379649 -0.000300612 -0.000235085 -0.000179987 -0.000132235 -9.18301e-05 -5.87712e-05 -3.30588e-05 -1.46928e-05 -3.6732e-06 0 0 -5.20527e-06 -2.08211e-05 -4.68474e-05 -8.32842e-05 -0.000130132 -0.00018739 -0.000255058 -0.000333137 -0.00042515 -0.000534622 -0.000661552 -0.000805941 -0.000967788 -0.00114709 -0.00134386 -0.00155808 -0.0017809 -0.00200346 -0.00222576 -0.0024478 -0.00266957 -0.00289109 -0.00311234 -0.00333333 -0.00354603 -0.00374239 -0.00392242 -0.00408611 -0.00423347 -0.0043645 -0.00447919 -0.00457755 -0.00466306 -0.00473921 -0.004806 -0.00486343 -0.0049115 -0.00495021 -0.00497957 -0.00499956 -0.00501796 -0.00504254 -0.0050733 -0.00511024 -0.00515336 -0.00520265 -0.00525812 -0.00531977 -0.00538608 -0.0054555 -0.00552806 -0.00560374 -0.00568255 -0.00576448 -0.00584954 -0.00593772 -0.00602131 -0.0060926 -0.00615157 -0.00619823 -0.00623258 -0.00625461 -0.00626434 -0.00626176 -0.00624712 -0.00622069 -0.00618247 -0.00613245 -0.00607063 -0.00599702 -0.00591162 -0.00581442 -0.00571331 -0.00561616 -0.00552298 -0.00543376 -0.00534851 -0.00526722 -0.0051899 -0.00511654 -0.00504847 -0.004987 -0.00493213 -0.00488387 -0.0048422 -0.00480714 -0.00477868 -0.00475682 -0.00473385 -0.00470206 -0.00466146 -0.00461203 -0.00455377 -0.0044867 -0.00441081 -0.0043261 -0.00422933 -0.00411727 -0.00398993 -0.00384729 -0.00368936 -0.00351615 -0.00332764 -0.00312385 -0.00291256 -0.00270158 -0.0024909 -0.00228052 -0.00207045 -0.00186068 -0.00165121 -0.00144205 -0.00124137 -0.00105734 -0.000889978 -0.000739268 -0.000605216 -0.000487821 -0.000387084 -0.000303004 -0.000231987 -0.00017044 -0.000118361 -7.5751e-05 -4.26099e-05 -1.89377e-05 -4.73444e-06 0 0 -6.67518e-06 -2.67007e-05 -6.00766e-05 -0.000106803 -0.000166879 -0.000240306 -0.000327084 -0.000427211 -0.000544137 -0.000681307 -0.000838723 -0.00101638 -0.00121429 -0.00143244 -0.00167084 -0.00192948 -0.00219716 -0.00246268 -0.00272603 -0.00298721 -0.00324624 -0.00350309 -0.00375778 -0.00401031 -0.00425158 -0.00447251 -0.00467309 -0.00485333 -0.00501322 -0.00515276 -0.00527196 -0.00537082 -0.00545474 -0.00552913 -0.005594 -0.00564934 -0.00569515 -0.00573144 -0.00575819 -0.00577543 -0.00579291 -0.00582043 -0.00585798 -0.00590557 -0.0059632 -0.00603086 -0.00610855 -0.00619628 -0.00629115 -0.00639025 -0.00649358 -0.00660115 -0.00671295 -0.00682898 -0.00694925 -0.00707376 -0.00719182 -0.00729277 -0.00737661 -0.00744334 -0.00749295 -0.00752546 -0.00754085 -0.00753912 -0.00752061 -0.00748562 -0.00743416 -0.00736623 -0.00728182 -0.00718094 -0.00706359 -0.00692977 -0.00679033 -0.00665614 -0.00652719 -0.00640348 -0.00628501 -0.00617178 -0.0060638 -0.00596105 -0.00586616 -0.00578173 -0.00570775 -0.00564424 -0.00559118 -0.00554858 -0.00551644 -0.00549475 -0.00547381 -0.00544388 -0.00540498 -0.00535709 -0.00530023 -0.00523438 -0.00515955 -0.00507575 -0.00497791 -0.00486098 -0.00472497 -0.00456988 -0.0043957 -0.00420244 -0.00399009 -0.00375866 -0.00351699 -0.00327394 -0.00302951 -0.00278369 -0.00253649 -0.00228791 -0.00203795 -0.0017866 -0.00154423 -0.0013212 -0.00111752 -0.000933172 -0.000768171 -0.000622511 -0.000496194 -0.000389218 -0.000297995 -0.000218935 -0.000152038 -9.73046e-05 -5.47338e-05 -2.43261e-05 -6.08153e-06 0 0 -8.45142e-06 -3.38057e-05 -7.60627e-05 -0.000135223 -0.000211285 -0.000304251 -0.000414119 -0.000540891 -0.000687377 -0.000856393 -0.00104794 -0.00126201 -0.00149861 -0.00175774 -0.00203939 -0.00234358 -0.00265633 -0.0029637 -0.00326567 -0.00356225 -0.00385343 -0.00413923 -0.00441963 -0.00469465 -0.00495452 -0.00518951 -0.0053996 -0.00558482 -0.00574514 -0.00588058 -0.00599112 -0.00607678 -0.00614576 -0.00620627 -0.00625829 -0.00630184 -0.00633691 -0.0063635 -0.00638162 -0.00639126 -0.00640454 -0.00643359 -0.0064784 -0.00653897 -0.00661531 -0.00670741 -0.00681528 -0.00693891 -0.00707326 -0.0072133 -0.00735903 -0.00751045 -0.00766756 -0.00783035 -0.00799883 -0.008173 -0.00833822 -0.00847985 -0.0085979 -0.00869236 -0.00876324 -0.00881053 -0.00883423 -0.00883435 -0.00881128 -0.0087654 -0.00869671 -0.00860521 -0.00849091 -0.00835381 -0.00819389 -0.00801117 -0.00782048 -0.00763665 -0.00745969 -0.00728959 -0.00712636 -0.00696999 -0.00682049 -0.00667785 -0.0065467 -0.00643169 -0.00633279 -0.00625003 -0.00618339 -0.00613288 -0.00609849 -0.00608023 -0.00606604 -0.00604385 -0.00601367 -0.00597549 -0.00592932 -0.00587516 -0.005813 -0.00574285 -0.00565699 -0.00554774 -0.00541507 -0.005259 -0.00507952 -0.00487663 -0.00465034 -0.00440064 -0.00413707 -0.00386919 -0.003597 -0.00332048 -0.00303965 -0.0027545 -0.00246503 -0.00217124 -0.00188608 -0.00162248 -0.00138044 -0.00115997 -0.000961063 -0.00078372 -0.000627942 -0.000493728 -0.00037801 -0.000277722 -0.000192862 -0.000123432 -6.94305e-05 -3.0858e-05 -7.7145e-06 0 0 -1.0534e-05 -4.21359e-05 -9.48058e-05 -0.000168544 -0.00026335 -0.000379223 -0.000516165 -0.000674175 -0.000854873 -0.00105988 -0.00128919 -0.00154281 -0.00182075 -0.00212298 -0.00244953 -0.00280039 -0.00315842 -0.00350652 -0.00384468 -0.00417289 -0.00449117 -0.0047995 -0.0050979 -0.00538635 -0.00565485 -0.00589339 -0.00610197 -0.00628058 -0.00642924 -0.00654793 -0.00663667 -0.00669544 -0.00673612 -0.0067706 -0.00679887 -0.00682092 -0.00683677 -0.00684641 -0.00684984 -0.00684706 -0.00685285 -0.00688201 -0.00693454 -0.00701043 -0.00710968 -0.0072323 -0.00737829 -0.00754764 -0.00773242 -0.00792468 -0.00812443 -0.00833166 -0.00854638 -0.00876858 -0.00899827 -0.00923545 -0.0094605 -0.00965382 -0.00981542 -0.00994528 -0.0100434 -0.0101098 -0.0101445 -0.0101475 -0.0101191 -0.01006 -0.00997012 -0.00984941 -0.00969791 -0.00951561 -0.00930251 -0.00905862 -0.00880374 -0.0085577 -0.00832049 -0.00809211 -0.00787256 -0.00766185 -0.00745997 -0.00726693 -0.0070901 -0.00693688 -0.00680726 -0.00670125 -0.00661884 -0.00656004 -0.00652485 -0.00651326 -0.00651054 -0.00650196 -0.00648752 -0.00646722 -0.00644106 -0.00640903 -0.00637115 -0.0063274 -0.00626659 -0.00617753 -0.00606021 -0.00591464 -0.00574081 -0.00553872 -0.00530838 -0.00504979 -0.00477281 -0.00448734 -0.00419336 -0.00389089 -0.00357991 -0.00326043 -0.00293246 -0.00259598 -0.00226691 -0.00196117 -0.00167875 -0.00141966 -0.00118389 -0.000971448 -0.000782328 -0.000616533 -0.000472033 -0.0003468 -0.000240833 -0.000154133 -8.66999e-05 -3.85333e-05 -9.63333e-06 0 0 -1.29229e-05 -5.16915e-05 -0.000116306 -0.000206766 -0.000323072 -0.000465224 -0.000633221 -0.000827064 -0.00104662 -0.00129176 -0.00156249 -0.0018588 -0.0021807 -0.00252818 -0.00290124 -0.00329989 -0.00370343 -0.00409115 -0.00446306 -0.00481916 -0.00515944 -0.00548391 -0.00579257 -0.00608541 -0.00635257 -0.00658415 -0.00678018 -0.00694063 -0.00706552 -0.00715484 -0.00720859 -0.00722678 -0.00722582 -0.00722214 -0.00721573 -0.0072066 -0.00719474 -0.00718016 -0.00716285 -0.00714282 -0.00713784 -0.00716571 -0.00722641 -0.00731995 -0.00744633 -0.00760554 -0.00779759 -0.00802249 -0.00826861 -0.00852437 -0.00878975 -0.00906476 -0.0093494 -0.00964367 -0.00994757 -0.0102611 -0.0105587 -0.0108147 -0.0110292 -0.0112021 -0.0113335 -0.0114234 -0.0114717 -0.0114784 -0.0114442 -0.0113695 -0.0112544 -0.0110988 -0.0109028 -0.0106663 -0.0103895 -0.0100721 -0.00974012 -0.00941928 -0.00910958 -0.00881103 -0.00852362 -0.00824737 -0.00798226 -0.00772829 -0.00749635 -0.0072973 -0.00713115 -0.0069979 -0.00689754 -0.00683007 -0.00679551 -0.00679384 -0.00680732 -0.00681822 -0.00682654 -0.00683228 -0.00683543 -0.006836 -0.00683399 -0.0068294 -0.00680669 -0.00675036 -0.0066604 -0.0065368 -0.00637957 -0.00618871 -0.00596423 -0.00570611 -0.0054242 -0.00512837 -0.00481861 -0.00449491 -0.00415728 -0.00380573 -0.00344024 -0.00306081 -0.00268674 -0.00233729 -0.00201245 -0.00171225 -0.00143666 -0.00118569 -0.000959353 -0.000757633 -0.000580063 -0.000426169 -0.000295951 -0.000189408 -0.000106542 -4.73521e-05 -1.1838e-05 0 0 -1.56181e-05 -6.24724e-05 -0.000140563 -0.00024989 -0.000390452 -0.000562252 -0.000765287 -0.000999558 -0.00126263 -0.00155205 -0.00186783 -0.00220997 -0.00257847 -0.00297332 -0.00339454 -0.0038421 -0.00429135 -0.00471758 -0.00512081 -0.00550103 -0.00585824 -0.00619245 -0.00650365 -0.00679184 -0.00704767 -0.0072618 -0.00743423 -0.00756495 -0.00765397 -0.00770129 -0.0077069 -0.00767081 -0.00761486 -0.00756088 -0.00750889 -0.00745886 -0.00741082 -0.00736475 -0.00732066 -0.00727855 -0.00725952 -0.00728467 -0.00735401 -0.00746753 -0.00762523 -0.00782712 -0.00807319 -0.00836344 -0.00868185 -0.00901237 -0.00935501 -0.00970977 -0.0100766 -0.0104556 -0.0108467 -0.01125 -0.0116327 -0.0119625 -0.0122392 -0.0124629 -0.0126335 -0.0127511 -0.0128157 -0.0128272 -0.0127864 -0.0126938 -0.0125495 -0.0123534 -0.0121056 -0.011806 -0.0114547 -0.0110517 -0.0106296 -0.0102214 -0.00982696 -0.00944635 -0.00907954 -0.00872653 -0.00838733 -0.00806194 -0.00776545 -0.00751296 -0.00730446 -0.00713997 -0.00701947 -0.00694297 -0.00691047 -0.00692196 -0.00695638 -0.00699263 -0.00703073 -0.00707067 -0.00711245 -0.00715608 -0.00720154 -0.00724885 -0.00727731 -0.00726623 -0.00721563 -0.00712549 -0.00699581 -0.00682661 -0.00661787 -0.00636959 -0.00609125 -0.00579229 -0.00547273 -0.00513255 -0.00477177 -0.00439037 -0.00398836 -0.00356575 -0.00314555 -0.00275082 -0.00238154 -0.00203772 -0.00171936 -0.00142646 -0.00115902 -0.000917029 -0.0007021 -0.000515829 -0.000358215 -0.000229257 -0.000128957 -5.73143e-05 -1.43286e-05 0 0 -1.86196e-05 -7.44786e-05 -0.000167577 -0.000297914 -0.000465491 -0.000670307 -0.000912363 -0.00119166 -0.00150289 -0.00184074 -0.00220522 -0.00259633 -0.00301406 -0.00345842 -0.0039294 -0.00442702 -0.00492218 -0.00538582 -0.00581793 -0.00621852 -0.00658758 -0.00692512 -0.00723114 -0.00750563 -0.00774017 -0.00792634 -0.00806413 -0.00815356 -0.00819461 -0.00818729 -0.0081316 -0.00802754 -0.00790324 -0.00778683 -0.00767833 -0.00757772 -0.007485 -0.00740019 -0.00732327 -0.00725425 -0.00721788 -0.00723891 -0.00731734 -0.00745317 -0.0076464 -0.00789704 -0.00820508 -0.00857051 -0.00897213 -0.00938869 -0.00982021 -0.0102667 -0.0107281 -0.0112044 -0.0116958 -0.012202 -0.0126827 -0.0130971 -0.0134454 -0.0137275 -0.0139434 -0.0140931 -0.0141766 -0.0141939 -0.0141458 -0.014033 -0.0138555 -0.0136132 -0.0133063 -0.0129347 -0.0124983 -0.0119972 -0.0114722 -0.010964 -0.0104726 -0.00999807 -0.0095403 -0.00909935 -0.00867521 -0.00826788 -0.00789741 -0.00758385 -0.0073272 -0.00712746 -0.00698464 -0.00689873 -0.00686972 -0.00689763 -0.0069577 -0.00702519 -0.00710008 -0.00718239 -0.00727211 -0.00736924 -0.00747379 -0.00758575 -0.00767843 -0.00772515 -0.0077259 -0.0076807 -0.00758953 -0.0074524 -0.00726931 -0.00704025 -0.00677395 -0.00647911 -0.00615573 -0.00580381 -0.00542336 -0.00501437 -0.00457684 -0.00411078 -0.00364336 -0.00320177 -0.00278602 -0.00239609 -0.002032 -0.00169374 -0.00138132 -0.00109472 -0.000838145 -0.00061578 -0.000427625 -0.00027368 -0.000153945 -6.842e-05 -1.7105e-05 0 0 -2.19275e-05 -8.77101e-05 -0.000197348 -0.00035084 -0.000548188 -0.000789391 -0.00107445 -0.00140336 -0.0017674 -0.00215783 -0.00257465 -0.00301786 -0.00348747 -0.00398346 -0.00450585 -0.00505463 -0.00559593 -0.00609586 -0.00655442 -0.00697162 -0.00734746 -0.00768193 -0.00797504 -0.00822678 -0.00843005 -0.00857775 -0.00866988 -0.00870644 -0.00868742 -0.00861284 -0.00848268 -0.00829695 -0.00809095 -0.00789998 -0.00772405 -0.00756316 -0.00741729 -0.00728647 -0.00717067 -0.00706991 -0.00701292 -0.00702841 -0.0071164 -0.00727688 -0.00750984 -0.0078153 -0.00819325 -0.0086437 -0.00913945 -0.00965333 -0.0101853 -0.0107355 -0.0113037 -0.0118901 -0.0124947 -0.0131173 -0.0137085 -0.0142187 -0.0146479 -0.014996 -0.0152632 -0.0154493 -0.0155544 -0.0155785 -0.0155224 -0.015387 -0.0151723 -0.0148783 -0.0145049 -0.0140522 -0.0135202 -0.0129089 -0.012268 -0.0116472 -0.0110466 -0.0104662 -0.00990593 -0.00936582 -0.00884588 -0.0083461 -0.00789222 -0.00750997 -0.00719936 -0.00696039 -0.00679305 -0.00669735 -0.00667328 -0.00672085 -0.00681131 -0.00691589 -0.0070346 -0.00716744 -0.00731441 -0.00747551 -0.00765074 -0.0078401 -0.00801006 -0.0081271 -0.00819123 -0.00820243 -0.00816072 -0.0080661 -0.00791855 -0.00771808 -0.0074723 -0.00718881 -0.00686761 -0.00650869 -0.00611206 -0.00567772 -0.00520567 -0.0046959 -0.00418015 -0.00369014 -0.00322588 -0.00278736 -0.00237458 -0.00198755 -0.00162626 -0.00129071 -0.000988198 -0.000726023 -0.000504182 -0.000322677 -0.000181506 -8.06692e-05 -2.01673e-05 0 0 -2.54696e-05 -0.000101878 -0.000229226 -0.000407514 -0.00063674 -0.000916906 -0.00124801 -0.00163005 -0.00205012 -0.0024953 -0.00296559 -0.00346099 -0.0039815 -0.00452712 -0.00509784 -0.00569368 -0.00627552 -0.00680424 -0.00727985 -0.00770234 -0.00807172 -0.00838798 -0.00865113 -0.00886117 -0.00901301 -0.00910156 -0.00912684 -0.00908884 -0.00898757 -0.00882301 -0.00859517 -0.00830405 -0.00799338 -0.00770688 -0.00744454 -0.00720637 -0.00699237 -0.00680254 -0.00663687 -0.00649538 -0.00641114 -0.00641724 -0.00651368 -0.00670047 -0.0069776 -0.00734507 -0.00780289 -0.00835105 -0.0089553 -0.0095814 -0.0102293 -0.0108991 -0.0115908 -0.0123043 -0.0130396 -0.0137968 -0.0145158 -0.0151368 -0.0156596 -0.0160844 -0.0164111 -0.0166397 -0.0167702 -0.0168026 -0.0167379 -0.0165771 -0.01632 -0.0159668 -0.0155174 -0.0149718 -0.0143301 -0.0135922 -0.0128182 -0.0120682 -0.0113423 -0.0106405 -0.00996261 -0.0093088 -0.00867902 -0.00807327 -0.00752405 -0.00706385 -0.00669266 -0.00641049 -0.00621734 -0.00611321 -0.00609809 -0.00617198 -0.00630175 -0.00645423 -0.00662943 -0.00682736 -0.007048 -0.00729136 -0.00755743 -0.00784623 -0.00811619 -0.00832575 -0.00847492 -0.00856368 -0.00859205 -0.00856003 -0.0084676 -0.00831478 -0.00810741 -0.00785134 -0.00754657 -0.00719309 -0.00679091 -0.00634003 -0.00584045 -0.00529217 -0.00473187 -0.00419625 -0.00368532 -0.00319906 -0.00273748 -0.00230058 -0.00188836 -0.00150081 -0.00114906 -0.000844208 -0.000586255 -0.000375203 -0.000211052 -9.38009e-05 -2.34502e-05 0 0 -2.91737e-05 -0.000116695 -0.000262564 -0.00046678 -0.000729344 -0.00105025 -0.00142951 -0.00186712 -0.00234502 -0.00284515 -0.00336752 -0.00391212 -0.00447896 -0.00506804 -0.00567935 -0.0063129 -0.00692388 -0.0074675 -0.00794377 -0.00835267 -0.00869421 -0.00896839 -0.00917521 -0.00931467 -0.00938471 -0.00938329 -0.00931039 -0.00916603 -0.00895019 -0.00866288 -0.00830411 -0.00787386 -0.00742592 -0.00701405 -0.00663826 -0.00629855 -0.00599491 -0.00572736 -0.00549588 -0.00530047 -0.00517903 -0.00516943 -0.00527169 -0.00548578 -0.00581173 -0.00624952 -0.00679916 -0.00746064 -0.00819119 -0.00894804 -0.00973119 -0.0105406 -0.0113764 -0.0122384 -0.0131267 -0.0140414 -0.0149101 -0.0156609 -0.0162937 -0.0168086 -0.0172054 -0.0174843 -0.0176452 -0.0176881 -0.0176141 -0.0174242 -0.0171185 -0.016697 -0.0161597 -0.0155065 -0.0147376 -0.0138527 -0.0129243 -0.0120245 -0.0111532 -0.0103106 -0.00949656 -0.00871113 -0.0079543 -0.00722607 -0.0065671 -0.00601802 -0.00557883 -0.00524955 -0.00503016 -0.00492067 -0.00492107 -0.00503138 -0.00521358 -0.0054297 -0.00567973 -0.00596366 -0.0062815 -0.00663326 -0.00701892 -0.00743849 -0.00784082 -0.00817475 -0.00844029 -0.00863743 -0.00876618 -0.00882653 -0.00881848 -0.00874204 -0.00860037 -0.00839662 -0.0081308 -0.00780291 -0.00741294 -0.00696091 -0.0064468 -0.00587061 -0.00527445 -0.00470042 -0.00414852 -0.00361874 -0.00311108 -0.00262555 -0.00216215 -0.00172087 -0.00131754 -0.000967987 -0.000672213 -0.000430216 -0.000241997 -0.000107554 -2.68885e-05 0 0 -3.304e-05 -0.00013216 -0.00029736 -0.000528639 -0.000825999 -0.00118944 -0.00161896 -0.00211456 -0.00265208 -0.00320737 -0.00378044 -0.00437127 -0.00497986 -0.00560623 -0.00625037 -0.00691227 -0.00754101 -0.00808565 -0.00854618 -0.00892261 -0.00921493 -0.00942315 -0.00954727 -0.00958729 -0.00954518 -0.00942292 -0.00922052 -0.00893798 -0.00857529 -0.00813246 -0.00760949 -0.00700636 -0.00638855 -0.0058215 -0.00530521 -0.00483969 -0.00442492 -0.00406092 -0.00374768 -0.0034852 -0.0033166 -0.003285 -0.00339041 -0.00363281 -0.00401222 -0.00452864 -0.00518205 -0.00597246 -0.00684712 -0.00775325 -0.00869086 -0.00965995 -0.0106605 -0.0116926 -0.0127561 -0.0138511 -0.0148915 -0.0157912 -0.0165502 -0.0171685 -0.0176461 -0.017983 -0.0181792 -0.0182348 -0.0181508 -0.0179285 -0.0175679 -0.017069 -0.0164319 -0.0156564 -0.0147426 -0.0136906 -0.0125863 -0.0115158 -0.0104793 -0.0094766 -0.00850777 -0.00757282 -0.00667172 -0.0058045 -0.00502134 -0.00437247 -0.00385787 -0.00347755 -0.0032315 -0.00311974 -0.00314225 -0.00329904 -0.00354682 -0.0038423 -0.00418548 -0.00457635 -0.00501493 -0.00550121 -0.00603519 -0.00661687 -0.00718395 -0.00767411 -0.00808735 -0.00842368 -0.0086831 -0.0088656 -0.00897119 -0.00899987 -0.00895118 -0.00882466 -0.00862032 -0.00833815 -0.00797816 -0.00754034 -0.0070247 -0.00643124 -0.0058079 -0.00520265 -0.00461548 -0.00404639 -0.00349538 -0.00296246 -0.00244762 -0.00195086 -0.00149363 -0.00109736 -0.000762056 -0.000487716 -0.00027434 -0.000121929 -3.04822e-05 0 0 -3.70683e-05 -0.000148273 -0.000333614 -0.000593092 -0.000926706 -0.00133446 -0.00181634 -0.00237237 -0.00297132 -0.00358197 -0.004204