<?xml version="1.0"?> 
<VTKFile type="StructuredGrid" version="0.1"> 
<StructuredGrid WholeExtent="0 128 0 128 0 0"> 
<Piece Extent="0 128 0 128 0 0"> 
<PointData>
<DataArray type="Float32" Name="u" format="ascii" NumberOfComponents="1"> 
0 0 0 0 0 0 0 0 0 0 0 0 0 0 0 0 0 0 0 0 0 0 0 0 0 0 0 0 0 0 0 0 0 0 0 0 0 0 0 0 0 0 0 0 0 0 0 0 0 0 0 0 0 0 0 0 0 0 0 0 0 0 0 0 0 0 0 0 0 0 0 0 0 0 0 0 0 0 0 0 0 0 0 0 0 0 0 0 0 0 0 0 0 0 0 0 0 0 0 0 0 0 0 0 0 0 0 0 0 0 0 0 0 0 0 0 0 0 0 0 0 0 0 0 0 0 0 0 0 0 1.46358e-09 5.85431e-09 1.31722e-08 2.34172e-08 3.65894e-08 5.26887e-08 7.17152e-08 9.36689e-08 2.00297e-07 4.73347e-07 9.12818e-07 1.51871e-06 2.29103e-06 3.22976e-06 4.33492e-06 5.6065e-06 7.02275e-06 8.56192e-06 1.0224e-05 1.2009e-05 1.39169e-05 1.59477e-05 1.81015e-05 2.03782e-05 2.26821e-05 2.49177e-05 2.70849e-05 2.91838e-05 3.12144e-05 3.31766e-05 3.50704e-05 3.68959e-05 3.85818e-05 4.0057e-05 4.13214e-05 4.23751e-05 4.3218e-05 4.38501e-05 4.42715e-05 4.44821e-05 4.44947e-05 4.43219e-05 4.39637e-05 4.34201e-05 4.26912e-05 4.17768e-05 4.06771e-05 3.93921e-05 3.80061e-05 3.66037e-05 3.51848e-05 3.37494e-05 3.22976e-05 3.08294e-05 2.93447e-05 2.78436e-05 2.64058e-05 2.51112e-05 2.39599e-05 2.29517e-05 2.20868e-05 2.1365e-05 2.07865e-05 2.03511e-05 2.00631e-05 1.99265e-05 1.99414e-05 2.01076e-05 2.04253e-05 2.08944e-05 2.15149e-05 2.22869e-05 2.31406e-05 2.40061e-05 2.48836e-05 2.57729e-05 2.66742e-05 2.75874e-05 2.85125e-05 2.94495e-05 3.03245e-05 3.10636e-05 3.16667e-05 3.21338e-05 3.2465e-05 3.26602e-05 3.27195e-05 3.26428e-05 3.24195e-05 3.2039e-05 3.15012e-05 3.08063e-05 2.99541e-05 2.89446e-05 2.77779e-05 2.6454e-05 2.50307e-05 2.35655e-05 2.20587e-05 2.05101e-05 1.89198e-05 1.72878e-05 1.56141e-05 1.38986e-05 1.22132e-05 1.06297e-05 9.14812e-06 7.76842e-06 6.49062e-06 5.31471e-06 4.24069e-06 3.26857e-06 2.40823e-06 1.66953e-06 1.05248e-06 5.57076e-07 1.83322e-07 -6.87845e-08 -1.99243e-07 -2.08054e-07 -1.59291e-07 -1.1703e-07 -8.12709e-08 -5.20134e-08 -2.92575e-08 -1.30033e-08 -3.25084e-09 0 0 5.85431e-09 2.34172e-08 5.26887e-08 9.36689e-08 1.46358e-07 2.10755e-07 2.86861e-07 3.74676e-07 8.01188e-07 1.89339e-06 3.65127e-06 6.07485e-06 9.16411e-06 1.29191e-05 1.73397e-05 2.2426e-05 2.8091e-05 3.42477e-05 4.0896e-05 4.8036e-05 5.56676e-05 6.3791e-05 7.2406e-05 8.15126e-05 9.07284e-05 9.96708e-05 0.00010834 0.000116735 0.000124857 0.000132706 0.000140282 0.000147584 0.000154327 0.000160228 0.000165286 0.0001695 0.000172872 0.000175401 0.000177086 0.000177929 0.000177979 0.000177288 0.000175855 0.00017368 0.000170765 0.000167107 0.000162709 0.000157568 0.000152024 0.000146415 0.000140739 0.000134998 0.000129191 0.000123318 0.000117379 0.000111374 0.000105623 0.000100445 9.58396e-05 9.1807e-05 8.83471e-05 8.54602e-05 8.3146e-05 8.14046e-05 8.02525e-05 7.97061e-05 7.97654e-05 8.04304e-05 8.17012e-05 8.35776e-05 8.60598e-05 8.91477e-05 9.25622e-05 9.60244e-05 9.95342e-05 0.000103092 0.000106697 0.00011035 0.00011405 0.000117798 0.000121298 0.000124254 0.000126667 0.000128535 0.00012986 0.000130641 0.000130878 0.000130571 0.000129678 0.000128156 0.000126005 0.000123225 0.000119816 0.000115778 0.000111112 0.000105816 0.000100123 9.42622e-05 8.82348e-05 8.20406e-05 7.56794e-05 6.91513e-05 6.24563e-05 5.55944e-05 4.88529e-05 4.25189e-05 3.65925e-05 3.10737e-05 2.59625e-05 2.12588e-05 1.69628e-05 1.30743e-05 9.63291e-06 6.67812e-06 4.20992e-06 2.22831e-06 7.33288e-07 -2.75138e-07 -7.96972e-07 -8.32214e-07 -6.37164e-07 -4.68121e-07 -3.25084e-07 -2.08054e-07 -1.1703e-07 -5.20134e-08 -1.30033e-08 0 0 1.31722e-08 5.26887e-08 1.1855e-07 2.10755e-07 3.29305e-07 4.74199e-07 6.45437e-07 8.4302e-07 1.80267e-06 4.26012e-06 8.21536e-06 1.36684e-05 2.06192e-05 2.90679e-05 3.90143e-05 5.04585e-05 6.32048e-05 7.70572e-05 9.2016e-05 0.000108081 0.000125252 0.00014353 0.000162913 0.000183403 0.000204139 0.000224259 0.000243764 0.000262654 0.000280929 0.000298589 0.000315634 0.000332063 0.000347237 0.000360513 0.000371893 0.000381376 0.000388962 0.000394651 0.000398444 0.000400339 0.000400452 0.000398897 0.000395673 0.000390781 0.00038422 0.000375992 0.000366094 0.000354529 0.000342055 0.000329433 0.000316663 0.000303745 0.000290679 0.000277465 0.000264102 0.000250592 0.000237652 0.000226001 0.000215639 0.000206566 0.000198781 0.000192285 0.000187078 0.00018316 0.000180568 0.000179339 0.000179472 0.000180968 0.000183828 0.00018805 0.000193635 0.000200582 0.000208265 0.000216055 0.000223952 0.000231956 0.000240068 0.000248287 0.000256613 0.000265046 0.000272921 0.000279572 0.000285 0.000289204 0.000292185 0.000293942 0.000294475 0.000293785 0.000291775 0.000288351 0.000283511 0.000277256 0.000269586 0.000260502 0.000250001 0.000238086 0.000225276 0.00021209 0.000198528 0.000184591 0.000170279 0.00015559 0.000140527 0.000125087 0.000109919 9.56675e-05 8.23331e-05 6.99158e-05 5.84155e-05 4.78324e-05 3.81662e-05 2.94172e-05 2.1674e-05 1.50258e-05 9.47231e-06 5.01369e-06 1.6499e-06 -6.1906e-07 -1.79319e-06 -1.87248e-06 -1.43362e-06 -1.05327e-06 -7.31438e-07 -4.68121e-07 -2.63318e-07 -1.1703e-07 -2.92575e-08 0 0 2.34172e-08 9.36689e-08 2.10755e-07 3.74676e-07 5.85431e-07 8.4302e-07 1.14744e-06 1.4987e-06 3.20475e-06 7.57355e-06 1.46051e-05 2.42994e-05 3.66564e-05 5.16762e-05 6.93587e-05 8.9704e-05 0.000112364 0.000136991 0.000163584 0.000192144 0.000222671 0.000255164 0.000289624 0.00032605 0.000362914 0.000398683 0.000433359 0.000466941 0.00049943 0.000530825 0.000561127 0.000590334 0.000617309 0.000640912 0.000661143 0.000678001 0.000691488 0.000701602 0.000708344 0.000711714 0.000711915 0.00070915 0.000703419 0.000694722 0.000683059 0.00066843 0.000650834 0.000630273 0.000608097 0.000585658 0.000562956 0.000539991 0.000516762 0.00049327 0.000469515 0.000445497 0.000422493 0.00040178 0.000383358 0.000367228 0.000353389 0.000341841 0.000332584 0.000325618 0.00032101 0.000318824 0.000319062 0.000321722 0.000326805 0.00033431 0.000344239 0.000356591 0.000370249 0.000384098 0.000398137 0.000412367 0.000426787 0.000441399 0.0004562 0.000471193 0.000485193 0.000497017 0.000506667 0.000514141 0.00051944 0.000522563 0.000523511 0.000522284 0.000518712 0.000512624 0.00050402 0.0004929 0.000479265 0.000463114 0.000444447 0.000423265 0.00040049 0.000377049 0.000352939 0.000328162 0.000302718 0.000276605 0.000249825 0.000222378 0.000195411 0.000170076 0.00014637 0.000124295 0.00010385 8.50353e-05 6.78511e-05 5.22972e-05 3.85316e-05 2.67125e-05 1.68397e-05 8.91322e-06 2.93315e-06 -1.10055e-06 -3.18789e-06 -3.32886e-06 -2.54866e-06 -1.87248e-06 -1.30033e-06 -8.32214e-07 -4.68121e-07 -2.08054e-07 -5.20134e-08 0 0 3.65894e-08 1.46358e-07 3.29305e-07 5.85431e-07 9.14735e-07 1.31722e-06 1.79288e-06 2.34172e-06 5.00742e-06 1.18337e-05 2.28205e-05 3.79678e-05 5.72757e-05 8.07441e-05 0.000108373 0.000140163 0.000175569 0.000214048 0.0002556 0.000300225 0.000347923 0.000398694 0.000452537 0.000509454 0.000567052 0.000622942 0.000677123 0.000729596 0.000780359 0.000829414 0.00087676 0.000922398 0.000964546 0.00100143 0.00103304 0.00105938 0.00108045 0.00109625 0.00110679 0.00111205 0.00111237 0.00110805 0.00109909 0.0010855 0.00106728 0.00104442 0.00101693 0.000984802 0.000950152 0.000915091 0.000879619 0.000843736 0.000807441 0.000770735 0.000733618 0.000696089 0.000660145 0.000627781 0.000598997 0.000573793 0.00055217 0.000534126 0.000519662 0.000508779 0.000501578 0.000498163 0.000498534 0.00050269 0.000510632 0.00052236 0.000537874 0.000557173 0.000578514 0.000600153 0.000622089 0.000644323 0.000666855 0.000689685 0.000712813 0.000736238 0.000758113 0.000776589 0.000791667 0.000803345 0.000811624 0.000816505 0.000817987 0.000816069 0.000810487 0.000800975 0.000787531 0.000770157 0.000748851 0.000723615 0.000694449 0.000661351 0.000625766 0.000589139 0.000551468 0.000512753 0.000472996 0.000432196 0.000390352 0.000347465 0.00030533 0.000265743 0.000228703 0.000194211 0.000162265 0.000132868 0.000106017 8.17143e-05 6.02057e-05 4.17382e-05 2.6312e-05 1.39269e-05 4.58305e-06 -1.71961e-06 -4.98107e-06 -5.20134e-06 -3.98228e-06 -2.92575e-06 -2.03177e-06 -1.30033e-06 -7.31438e-07 -3.25084e-07 -8.12709e-08 0 0 5.26887e-08 2.10755e-07 4.74199e-07 8.4302e-07 1.31722e-06 1.89679e-06 2.58175e-06 3.37208e-06 7.21069e-06 1.70405e-05 3.28615e-05 5.46736e-05 8.2477e-05 0.000116271 0.000156057 0.000201834 0.000252819 0.000308229 0.000368064 0.000432324 0.000501009 0.000574119 0.000651654 0.000733613 0.000816556 0.000897037 0.000975058 0.00105062 0.00112372 0.00119436 0.00126253 0.00132825 0.00138895 0.00144205 0.00148757 0.0015255 0.00155585 0.0015786 0.00159377 0.00160136 0.00160181 0.00159559 0.00158269 0.00156312 0.00153688 0.00150397 0.00146438 0.00141811 0.00136822 0.00131773 0.00126665 0.00121498 0.00116271 0.00110986 0.00105641 0.00100237 0.000950609 0.000904005 0.000862556 0.000826263 0.000795124 0.000769141 0.000748314 0.000732641 0.000722272 0.000717355 0.000717889 0.000723874 0.000735311 0.000752199 0.000774538 0.000802329 0.00083306 0.00086422 0.000895808 0.000927826 0.000960272 0.000993147 0.00102645 0.00106018 0.00109168 0.00111829 0.00114 0.00115682 0.00116874 0.00117577 0.0011779 0.00117514 0.0011671 0.0011534 0.00113404 0.00110903 0.00107835 0.00104201 0.00100001 0.000952345 0.000901104 0.00084836 0.000794113 0.000738365 0.000681114 0.000622362 0.000562107 0.00050035 0.000439676 0.00038267 0.000329332 0.000279663 0.000233662 0.000191329 0.000152665 0.000117669 8.66962e-05 6.0103e-05 3.78892e-05 2.00548e-05 6.59959e-06 -2.47624e-06 -7.17275e-06 -7.48993e-06 -5.73448e-06 -4.21308e-06 -2.92575e-06 -1.87248e-06 -1.05327e-06 -4.68121e-07 -1.1703e-07 0 0 7.17152e-08 2.86861e-07 6.45437e-07 1.14744e-06 1.79288e-06 2.58175e-06 3.51405e-06 4.58978e-06 9.81455e-06 2.3194e-05 4.47281e-05 7.44169e-05 0.00011226 0.000158258 0.000212411 0.000274719 0.000344115 0.000419534 0.000500976 0.000588441 0.000681929 0.000781439 0.000886973 0.000998529 0.00111142 0.00122097 0.00132716 0.00143001 0.0015295 0.00162565 0.00171845 0.0018079 0.00189051 0.00196279 0.00202475 0.00207638 0.00211768 0.00214866 0.0021693 0.00217962 0.00218024 0.00217177 0.00215422 0.00212759 0.00209187 0.00204707 0.00199318 0.00193021 0.0018623 0.00179358 0.00172405 0.00165372 0.00158258 0.00151064 0.00143789 0.00136434 0.00129388 0.00123045 0.00117403 0.00112464 0.00108225 0.00104689 0.00101854 0.000997206 0.000983093 0.0009764 0.000977126 0.000985273 0.00100084 0.00102383 0.00105423 0.00109206 0.00113389 0.0011763 0.00121929 0.00126287 0.00130704 0.00135178 0.00139711 0.00144303 0.0014859 0.00152212 0.00155167 0.00157456 0.00159078 0.00160035 0.00160325 0.0015995 0.00158856 0.00156991 0.00154356 0.00150951 0.00146775 0.00141829 0.00136112 0.00129625 0.0012265 0.00115471 0.00108088 0.001005 0.000927072 0.000847103 0.00076509 0.000681032 0.000598448 0.000520856 0.000448258 0.000380653 0.00031804 0.000260421 0.000207794 0.00016016 0.000118003 8.18069e-05 5.15715e-05 2.72967e-05 8.98278e-06 -3.37044e-06 -9.76291e-06 -1.01946e-05 -7.80526e-06 -5.73448e-06 -3.98228e-06 -2.54866e-06 -1.43362e-06 -6.37164e-07 -1.59291e-07 0 0 9.36689e-08 3.74676e-07 8.4302e-07 1.4987e-06 2.34172e-06 3.37208e-06 4.58978e-06 5.99481e-06 1.2819e-05 3.02942e-05 5.84204e-05 9.71975e-05 0.000146626 0.000206705 0.000277435 0.000358816 0.000449456 0.000547963 0.000654336 0.000768576 0.000890682 0.00102066 0.0011585 0.0013042 0.00145165 0.00159473 0.00173344 0.00186777 0.00199772 0.0021233 0.00224451 0.00236134 0.00246924 0.00256365 0.00264457 0.00271201 0.00276595 0.00280641 0.00283338 0.00284686 0.00284766 0.0028366 0.00281368 0.00277889 0.00273223 0.00267372 0.00260334 0.00252109 0.00243239 0.00234263 0.00225182 0.00215996 0.00206705 0.00197308 0.00187806 0.00178199 0.00168997 0.00160712 0.00153343 0.00146891 0.00141355 0.00136736 0.00133034 0.00130247 0.00128404 0.0012753 0.00127625 0.00128689 0.00130722 0.00133724 0.00137696 0.00142636 0.001481 0.00153639 0.00159255 0.00164947 0.00170715 0.00176559 0.0018248 0.00188477 0.00194077 0.00198807 0.00202667 0.00205656 0.00207776 0.00209025 0.00209405 0.00208914 0.00207485 0.00205049 0.00201608 0.0019716 0.00191706 0.00185246 0.00177779 0.00169306 0.00160196 0.00150819 0.00141176 0.00131265 0.00121087 0.00110642 0.000999301 0.000889511 0.000781646 0.000680302 0.00058548 0.000497179 0.000415399 0.000340141 0.000271404 0.000209189 0.000154127 0.00010685 6.73586e-05 3.56529e-05 1.17326e-05 -4.40221e-06 -1.27516e-05 -1.33154e-05 -1.01946e-05 -7.48993e-06 -5.20134e-06 -3.32886e-06 -1.87248e-06 -8.32214e-07 -2.08054e-07 0 0 2.53963e-07 1.01585e-06 2.28566e-06 4.0634e-06 6.34906e-06 9.14265e-06 1.24442e-05 1.62536e-05 2.70937e-05 5.14873e-05 8.94344e-05 0.000140935 0.000205989 0.000284596 0.000376757 0.000482472 0.000599903 0.000727216 0.00086441 0.00101149 0.00116844 0.00133528 0.001512 0.0016986 0.00188734 0.00207049 0.00224804 0.00242 0.00258636 0.00274712 0.00290229 0.00305186 0.00319009 0.00331123 0.00341527 0.00350223 0.00357209 0.00362486 0.00366053 0.00367912 0.00368163 0.00366911 0.00364154 0.00359893 0.00354128 0.00346859 0.00338085 0.00327807 0.00316706 0.00305465 0.00294082 0.00282558 0.00270892 0.00259086 0.00247138 0.00235049 0.00223463 0.00213024 0.00203733 0.00195589 0.00188592 0.00182743 0.00178041 0.00174486 0.00172112 0.00170953 0.00171009 0.00172279 0.00174765 0.00178465 0.0018338 0.0018951 0.00196293 0.00203166 0.00210131 0.00217186 0.00224332 0.00231569 0.00238897 0.00246315 0.00253228 0.00259041 0.00263752 0.00267363 0.00269872 0.0027128 0.00271588 0.00270794 0.00268814 0.00265561 0.00261036 0.00255239 0.00248169 0.00239827 0.00230213 0.00219326 0.00207633 0.001956 0.00183226 0.00170513 0.0015746 0.00144066 0.00130332 0.00116258 0.00102425 0.000894133 0.000772229 0.000658541 0.000553066 0.000455807 0.000366761 0.000285931 0.000214166 0.00015232 0.000100391 5.8381e-05 2.62884e-05 4.11386e-06 -8.14274e-06 -1.04814e-05 -8.02481e-06 -5.89578e-06 -4.09429e-06 -2.62035e-06 -1.47394e-06 -6.55086e-07 -1.63772e-07 0 0 6.88009e-07 2.75204e-06 6.19208e-06 1.10081e-05 1.72002e-05 2.47683e-05 3.37125e-05 4.40326e-05 6.35084e-05 9.99196e-05 0.000153266 0.000223548 0.000310765 0.000414918 0.000536006 0.00067403 0.000826517 0.000990995 0.00116747 0.00135593 0.00155638 0.00176883 0.00199327 0.00222969 0.00246858 0.0027004 0.00292514 0.00314281 0.00335341 0.00355694 0.00375339 0.00394277 0.00411804 0.00427214 0.00440509 0.00451688 0.00460752 0.00467699 0.00472531 0.00475247 0.00475972 0.00474834 0.0047183 0.00466962 0.0046023 0.00451633 0.00441172 0.00428846 0.0041549 0.00401937 0.00388188 0.00374243 0.00360101 0.00345764 0.0033123 0.00316499 0.00302361 0.00289605 0.0027823 0.00268237 0.00259625 0.00252394 0.00246545 0.00242077 0.00239034 0.00237457 0.00237349 0.00238707 0.00241533 0.00245826 0.00251586 0.00258813 0.00266823 0.00274929 0.00283131 0.0029143 0.00299825 0.00308317 0.00316906 0.0032559 0.00333644 0.00340339 0.00345676 0.00349653 0.00352273 0.00353533 0.00353435 0.00351978 0.00349058 0.00344571 0.00338517 0.00330895 0.00321705 0.00310949 0.00298625 0.00284733 0.00269845 0.00254531 0.00238791 0.00222625 0.00206034 0.00189016 0.00171573 0.00153704 0.00136124 0.00119547 0.00103974 0.000894036 0.000758368 0.000632733 0.000517131 0.000411563 0.000317223 0.000235305 0.000165811 0.000108739 6.40896e-05 3.18632e-05 1.20595e-05 4.67847e-06 3.58195e-06 2.63164e-06 1.82753e-06 1.16962e-06 6.5791e-07 2.92404e-07 7.31011e-08 0 0 1.39581e-06 5.58324e-06 1.25623e-05 2.23329e-05 3.48952e-05 5.02491e-05 6.83946e-05 8.93318e-05 0.000122063 0.000175591 0.000249916 0.000345037 0.000460956 0.000597671 0.000755182 0.000933491 0.0011293 0.0013393 0.0015635 0.0018019 0.0020545 0.0023213 0.00260229 0.00289749 0.00319537 0.00348446 0.00376474 0.00403621 0.00429888 0.00455275 0.00479781 0.00503406 0.00525307 0.00544639 0.00561403 0.00575598 0.00587224 0.00596282 0.0060277 0.00606691 0.00608193 0.00607428 0.00604396 0.00599096 0.0059153 0.00581696 0.00569594 0.00555226 0.00539588 0.0052368 0.00507502 0.00491052 0.00474333 0.00457342 0.00440082 0.0042255 0.00405693 0.00390455 0.00376835 0.00364835 0.00354453 0.0034569 0.00338546 0.00333021 0.00329169 0.00327043 0.00326644 0.00327972 0.00331025 0.00335806 0.00342313 0.00350546 0.0035969 0.00368927 0.00378256 0.00387679 0.00397196 0.00406805 0.00416507 0.00426303 0.00435324 0.00442702 0.00448437 0.00452529 0.00454978 0.00455783 0.00454946 0.00452466 0.00448219 0.0044208 0.0043405 0.00424128 0.00412315 0.00398611 0.00383015 0.00365527 0.00346832 0.00327613 0.00307869 0.00287601 0.0026681 0.00245494 0.00223654 0.00201289 0.00179262 0.00158432 0.00138801 0.00120366 0.0010313 0.000870919 0.000722513 0.000586085 0.000463295 0.000355806 0.000263616 0.000186726 0.000125136 7.88457e-05 4.7855e-05 3.21641e-05 2.46257e-05 1.80923e-05 1.25641e-05 8.04103e-06 4.52308e-06 2.01026e-06 5.02565e-07 0 0 2.37736e-06 9.50945e-06 2.13963e-05 3.80378e-05 5.9434e-05 8.5585e-05 0.000116491 0.000152151 0.000202758 0.000278502 0.000379383 0.000505402 0.000656559 0.000832853 0.00103429 0.00126085 0.00150824 0.00177213 0.00205252 0.00234941 0.0026628 0.00299269 0.00333908 0.00370197 0.00406772 0.00442267 0.00476683 0.00510019 0.00542277 0.00573455 0.00603554 0.00632573 0.00659519 0.00683398 0.00704208 0.00721951 0.00736626 0.00748233 0.00756772 0.00762244 0.00764825 0.00764694 0.00761851 0.00756295 0.00748027 0.00737046 0.00723352 0.00706947 0.00689003 0.00670694 0.00652022 0.00632986 0.00613586 0.00593822 0.00573694 0.00553202 0.00533457 0.00515573 0.00499548 0.00485382 0.00473077 0.00462631 0.00454045 0.00447318 0.00442518 0.00439711 0.00438895 0.00440073 0.00443243 0.00448406 0.00455561 0.00464709 0.00474894 0.00485159 0.00495506 0.00505933 0.00516442 0.00527032 0.00537702 0.00548453 0.00558268 0.00566129 0.00572036 0.00575988 0.00577987 0.00578031 0.00576122 0.00572258 0.00566295 0.00558087 0.00547635 0.00534939 0.00519998 0.00502813 0.00483383 0.00461709 0.00438594 0.00414845 0.00390461 0.00365442 0.00339787 0.00313498 0.00286573 0.00259013 0.00231838 0.00206068 0.00181703 0.00158743 0.00137187 0.00117037 0.000982907 0.000809496 0.000652385 0.000513822 0.000393808 0.000292344 0.000209428 0.000145061 9.9244e-05 7.19756e-05 5.51063e-05 4.04863e-05 2.81155e-05 1.79939e-05 1.01216e-05 4.49848e-06 1.12462e-06 0 0 3.63267e-06 1.45307e-05 3.2694e-05 5.81227e-05 9.08167e-05 0.000130776 0.000178001 0.000232491 0.000305592 0.000408652 0.000541669 0.000704644 0.000897576 0.00112047 0.00137331 0.00165612 0.00196335 0.00228949 0.00263452 0.00299845 0.00338128 0.003783 0.00420363 0.00464315 0.00508561 0.00551503 0.00593141 0.00633476 0.00672507 0.00710235 0.00746658 0.00781779 0.00814441 0.00843489 0.00868925 0.00890748 0.00908957 0.00923553 0.00934536 0.00941906 0.00945869 0.00946633 0.00944196 0.00938558 0.00929721 0.00917684 0.00902446 0.00884008 0.00863732 0.0084298 0.0082175 0.00800044 0.00777862 0.00755202 0.00732066 0.00708453 0.00685654 0.00664959 0.00646368 0.0062988 0.00615496 0.00603217 0.00593041 0.00584969 0.00579081 0.00575459 0.00574103 0.00575011 0.00578186 0.00583625 0.00591331 0.00601301 0.00612434 0.00623627 0.0063488 0.00646193 0.00657565 0.00668997 0.00680489 0.00692041 0.00702477 0.00710621 0.00716473 0.00720033 0.00721301 0.00720277 0.00716961 0.00711354 0.00703287 0.00692593 0.00679274 0.00663327 0.00644754 0.00623555 0.00599729 0.00573277 0.00545132 0.00516229 0.00486567 0.00456146 0.00424966 0.00393028 0.00360331 0.00326876 0.00293853 0.00262455 0.00232682 0.00204532 0.00178008 0.00153107 0.00129831 0.0010818 0.00088449 0.000709353 0.000556386 0.000425591 0.000316965 0.000230511 0.000166226 0.000124113 9.50239e-05 6.98135e-05 4.84816e-05 3.10282e-05 1.74534e-05 7.75705e-06 1.93926e-06 0 0 5.16173e-06 2.06469e-05 4.64555e-05 8.25876e-05 0.000129043 0.000185822 0.000252925 0.00033035 0.000430567 0.000566041 0.000736772 0.000942761 0.00118401 0.00146051 0.00177227 0.00211929 0.00249463 0.00289137 0.0033095 0.00374902 0.00420993 0.00469224 0.00519594 0.00572103 0.00624905 0.00676154 0.00725849 0.00773991 0.00820579 0.00865614 0.00909095 0.00951022 0.00990071 0.0102491 0.0105555 0.0108199 0.0110422 0.0112224 0.0113606 0.0114568 0.0115133 0.0115324 0.0115143 0.0114589 0.0113661 0.0112361 0.0110688 0.0108641 0.0106378 0.0104054 0.0101669 0.00992226 0.00967159 0.00941483 0.00915199 0.00888306 0.00862284 0.00838614 0.00817295 0.00798328 0.00781712 0.00767447 0.00755534 0.00745972 0.00738858 0.00734289 0.00732266 0.00732787 0.00735853 0.00741465 0.00749621 0.00760323 0.00772312 0.0078433 0.00796379 0.00808457 0.00820565 0.00832702 0.00844869 0.00857066 0.0086795 0.00876177 0.00881747 0.00884661 0.00884919 0.0088252 0.00877465 0.00869753 0.00859194 0.00845598 0.00828964 0.00809293 0.00786584 0.00760838 0.00732054 0.00700233 0.00666445 0.00631763 0.00596186 0.00559714 0.00522347 0.00484085 0.00444929 0.00404878 0.00365307 0.00327593 0.00291736 0.00257735 0.00225591 0.00195304 0.00166873 0.00140299 0.00115961 0.000942399 0.000751351 0.000586467 0.000447748 0.000335193 0.000248802 0.000188576 0.000144378 0.000106074 7.36625e-05 4.7144e-05 2.65185e-05 1.1786e-05 2.9465e-06 0 0 6.96454e-06 2.78581e-05 6.26808e-05 0.000111433 0.000174113 0.000250723 0.000341262 0.00044573 0.000577681 0.000750669 0.000964693 0.00121975 0.00151585 0.00185298 0.00223115 0.00265036 0.00310208 0.00357778 0.00407746 0.00460112 0.00514877 0.0057204 0.00631601 0.00693561 0.00755805 0.0081622 0.00874806 0.00931564 0.00986492 0.0103959 0.0109086 0.011403 0.0118641 0.0122767 0.0126409 0.0129567 0.0132241 0.013443 0.0136135 0.0137356 0.0138119 0.0138452 0.0138355 0.0137828 0.013687 0.0135482 0.0133664 0.0131416 0.0128914 0.0126336 0.0123683 0.0120953 0.0118148 0.0115266 0.0112309 0.0109276 0.0106335 0.0103654 0.0101233 0.00990726 0.00971723 0.00955323 0.00941524 0.00930328 0.00921849 0.00916201 0.00913384 0.00913399 0.00916246 0.00921924 0.00930433 0.00941774 0.00954526 0.00967269 0.00980002 0.00992726 0.0100544 0.0101815 0.0103084 0.0104353 0.0105469 0.010628 0.0106786 0.0106987 0.0106884 0.0106476 0.0105763 0.0104746 0.0103402 0.010171 0.00996707 0.00972836 0.00945487 0.0091466 0.00880357 0.00842575 0.00802533 0.00761448 0.00719319 0.00676146 0.00631929 0.00586669 0.00540366 0.00493018 0.004462 0.00401482 0.00358866 0.00318352 0.00279939 0.00243627 0.00209416 0.00177307 0.00147775 0.00121296 0.000978702 0.000774974 0.000601776 0.000459108 0.000346971 0.000265365 0.00020317 0.000149268 0.000103658 6.63412e-05 3.73169e-05 1.65853e-05 4.14633e-06 0 0 9.0411e-06 3.61644e-05 8.13699e-05 0.000144658 0.000226028 0.00032548 0.000443014 0.00057863 0.000746936 0.000962536 0.00122543 0.00153562 0.00189311 0.00229789 0.00274997 0.00324934 0.00378569 0.00434871 0.0049384 0.00555476 0.00619779 0.00686748 0.00756385 0.00828688 0.00901259 0.00971701 0.0104001 0.011062 0.0117025 0.0123217 0.0129196 0.0134962 0.0140346 0.0145177 0.0149455 0.015318 0.0156353 0.0158973 0.016104 0.0162555 0.0163547 0.0164048 0.0164057 0.0163574 0.0162599 0.0161132 0.0159174 0.0156724 0.0153982 0.0151146 0.0148218 0.0145196 0.0142082 0.0138875 0.0135574 0.0132181 0.0128884 0.0125873 0.0123147 0.0120707 0.0118553 0.0116684 0.0115101 0.0113804 0.0112805 0.0112119 0.0111746 0.0111685 0.0111936 0.01125 0.0113377 0.0114565 0.0115908 0.0117244 0.0118575 0.01199 0.0121219 0.0122533 0.0123841 0.0125143 0.0126269 0.0127048 0.0127481 0.0127567 0.0127307 0.01267 0.0125746 0.0124446 0.0122776 0.012071 0.011825 0.0115396 0.0112146 0.0108502 0.0104464 0.0100031 0.00953397 0.00905284 0.00855965 0.00805442 0.00753713 0.0070078 0.00646641 0.00591298 0.00536531 0.00484122 0.00434073 0.00386382 0.00341049 0.00298076 0.00257461 0.00219204 0.00183891 0.00152104 0.00123844 0.00099111 0.000779049 0.000602257 0.000460734 0.00035448 0.000271398 0.000199395 0.000138469 8.86199e-05 4.98487e-05 2.2155e-05 5.53874e-06 0 0 1.14636e-05 4.58544e-05 0.000103172 0.000183417 0.00028659 0.000412689 0.000561716 0.00073367 0.000944107 0.00120859 0.0015271 0.00189966 0.00232626 0.0028069 0.00334158 0.0039303 0.00456074 0.00522055 0.00590974 0.00662831 0.00737626 0.00815359 0.0089603 0.00979638 0.0106349 0.0114488 0.0122381 0.0130029 0.0137431 0.0144587 0.0151497 0.0158162 0.0164391 0.0169995 0.0174973 0.0179327 0.0183055 0.0186158 0.0188637 0.0190489 0.0191751 0.0192456 0.0192603 0.0192194 0.0191227 0.0189703 0.0187622 0.0184984 0.0182011 0.0178926 0.0175728 0.0172419 0.0168996 0.0165462 0.0161815 0.0158055 0.0154395 0.0151045 0.0148004 0.0145274 0.0142854 0.0140744 0.0138945 0.0137455 0.0136291 0.0135468 0.0134986 0.0134846 0.0135047 0.0135589 0.0136472 0.0137696 0.0139085 0.0140463 0.0141828 0.0143181 0.0144523 0.0145852 0.014717 0.0148476 0.0149581 0.0150295 0.0150618 0.015055 0.0150092 0.0149244 0.0148004 0.0146374 0.0144327 0.0141836 0.0138901 0.0135522 0.0131699 0.0127433 0.0122722 0.0117568 0.0112123 0.010654 0.0100819 0.00949598 0.00889631 0.00828285 0.0076556 0.00701457 0.00637976 0.0057712 0.00518888 0.0046328 0.00410296 0.00359936 0.00312201 0.00267089 0.0022531 0.00187569 0.00153868 0.00124205 0.000985819 0.000769976 0.000594524 0.000459463 0.000351777 0.000258448 0.000179478 0.000114866 6.4612e-05 2.87165e-05 7.17911e-06 0 0 1.43042e-05 5.72167e-05 0.000128738 0.000228867 0.000357604 0.00051495 0.000700904 0.000915467 0.00117497 0.00149576 0.00187783 0.00232117 0.0028258 0.00339171 0.00401889 0.00470736 0.00544249 0.00620966 0.00700888 0.00784015 0.00870346 0.00959882 0.0105262 0.0114857 0.0124471 0.0133803 0.0142855 0.0151625 0.0160113 0.0168321 0.0176247 0.0183891 0.0191045 0.0197497 0.0203248 0.0208298 0.0212646 0.0216294 0.021924 0.0221485 0.0223066 0.0224022 0.0224352 0.0224056 0.0223134 0.0221586 0.0219412 0.0216613 0.0213433 0.0210119 0.020667 0.0203087 0.0199369 0.0195516 0.0191529 0.0187407 0.0183385 0.0179694 0.0176336 0.017331 0.0170617 0.0168256 0.0166228 0.0164531 0.0163185 0.0162207 0.0161598 0.0161356 0.0161482 0.0161977 0.0162839 0.016407 0.0165474 0.0166859 0.0168224 0.0169569 0.0170895 0.01722 0.0173486 0.0174752 0.0175789 0.017639 0.0176555 0.0176282 0.0175573 0.0174428 0.0172846 0.0170827 0.0168343 0.0165363 0.0161889 0.015792 0.0153456 0.0148498 0.0143044 0.0137096 0.0130822 0.0124391 0.0117804 0.0111061 0.0104161 0.00971051 0.00898926 0.00825237 0.00752212 0.00682082 0.00614844 0.00550501 0.0048905 0.00430494 0.00374831 0.00322062 0.00273035 0.00228598 0.00188753 0.00153498 0.00122834 0.000967604 0.000752778 0.000583859 0.000447017 0.000328421 0.00022807 0.000145965 8.21052e-05 3.64912e-05 9.1228e-06 0 0 1.75628e-05 7.02514e-05 0.000158066 0.000281006 0.000439071 0.000632262 0.000860579 0.00112402 0.00143953 0.00182406 0.0022776 0.00280015 0.00339172 0.0040523 0.00478189 0.00558049 0.00643094 0.00731605 0.00823583 0.00919028 0.0101794 0.0112032 0.0122616 0.0133547 0.0144492 0.0155117 0.0165422 0.0175407 0.0185073 0.0194419 0.0203445 0.0212151 0.0220308 0.0227683 0.0234278 0.0240092 0.0245125 0.0249378 0.025285 0.0255541 0.0257492 0.0258746 0.0259302 0.025916 0.0258319 0.0256781 0.0254545 0.0251611 0.0248248 0.0244725 0.0241043 0.0237201 0.02332 0.0229038 0.0224718 0.0220237 0.0215853 0.0211822 0.0208142 0.0204816 0.0201841 0.0199219 0.019695 0.0195033 0.0193489 0.0192338 0.019158 0.0191215 0.0191243 0.0191664 0.0192478 0.0193686 0.0195075 0.0196434 0.0197764 0.0199065 0.0200335 0.0201576 0.0202788 0.020397 0.0204895 0.0205335 0.0205291 0.0204763 0.020375 0.0202252 0.020027 0.0197804 0.0194822 0.0191292 0.0187215 0.018259 0.0177417 0.0171697 0.0165429 0.0158613 0.0151436 0.0144083 0.0136553 0.0128848 0.0120966 0.0112908 0.0104674 0.00962638 0.00879239 0.00799007 0.00721943 0.00648045 0.00577313 0.00509749 0.00445352 0.00384121 0.00327065 0.00275191 0.00228499 0.00186989 0.0015066 0.00119514 0.000935494 0.000727668 0.000557121 0.000409313 0.000284245 0.000181917 0.000102328 4.54792e-05 1.13698e-05 0 0 2.12396e-05 8.49585e-05 0.000191157 0.000339834 0.00053099 0.000764626 0.00104074 0.00135934 0.00173779 0.00219348 0.00272642 0.0033366 0.00402402 0.00478868 0.00563057 0.00654972 0.0075261 0.00853972 0.00959059 0.0106787 0.0118041 0.0129666 0.0141665 0.0154036 0.0166412 0.0178428 0.0190082 0.0201376 0.0212309 0.0222881 0.0233092 0.0242942 0.025218 0.0260554 0.0268064 0.027471 0.0280493 0.0285411 0.0289466 0.0292657 0.029503 0.0296629 0.0297454 0.0297506 0.0296784 0.0295289 0.029302 0.0289978 0.0286455 0.0282744 0.0278847 0.0274761 0.0270488 0.0266028 0.026138 0.0256545 0.0251801 0.0247427 0.0243423 0.023979 0.0236527 0.0233634 0.0231112 0.022896 0.0227201 0.0225858 0.0224932 0.0224422 0.0224328 0.0224651 0.0225389 0.0226544 0.0227887 0.0229188 0.0230448 0.0231667 0.0232844 0.0233981 0.0235076 0.023613 0.0236897 0.0237129 0.0236827 0.0235991 0.0234621 0.0232717 0.0230278 0.0227306 0.0223765 0.0219622 0.0214877 0.020953 0.0203581 0.019703 0.0189877 0.0182122 0.0173967 0.0165615 0.0157066 0.014832 0.0139377 0.0130237 0.01209 0.0111366 0.0101906 0.00927898 0.00840183 0.00755912 0.00675085 0.00597702 0.00523763 0.00453268 0.00387402 0.00327348 0.00273107 0.00224678 0.00182062 0.00145258 0.00114267 0.000890888 0.000682086 0.000501125 0.000348003 0.000222722 0.000125281 5.56805e-05 1.39201e-05 0 0 2.53345e-05 0.000101338 0.00022801 0.000405352 0.000633362 0.000912041 0.00124139 0.00162141 0.00206974 0.00260404 0.00322429 0.00393051 0.0047227 0.00560084 0.00656495 0.00761502 0.00872796 0.00988067 0.0110732 0.0123054 0.0135774 0.0148892 0.0162408 0.0176322 0.0190232 0.0203737 0.0216837 0.0229532 0.0241822 0.0253707 0.0265188 0.0276263 0.0286661 0.0296109 0.0304606 0.0312152 0.0318748 0.0324394 0.032909 0.0332835 0.0335678 0.0337669 0.0338808 0.0339094 0.0338527 0.0337108 0.0334837 0.0331713 0.0328054 0.0324177 0.0320081 0.0315767 0.0311235 0.0306485 0.0301517 0.029633 0.0291227 0.028651 0.0282179 0.0278234 0.0274674 0.0271501 0.0268714 0.0266312 0.0264322 0.026277 0.0261655 0.0260978 0.0260739 0.0260936 0.0261572 0.0262645 0.026391 0.026512 0.0266275 0.0267376 0.0268422 0.0269414 0.0270351 0.0271234 0.0271796 0.0271773 0.0271163 0.0269969 0.0268188 0.0265822 0.026287 0.0259332 0.0255172 0.0250354 0.0244877 0.0238742 0.0231949 0.0224498 0.0216388 0.020762 0.0198413 0.0188987 0.01793