<?xml version="1.0"?> 
<VTKFile type="StructuredGrid" version="0.1"> 
<StructuredGrid WholeExtent="0 128 0 128 0 0"> 
<Piece Extent="0 128 0 128 0 0"> 
<PointData>
<DataArray type="Float32" Name="u" format="ascii" NumberOfComponents="1"> 
0 0 0 0 0 0 0 0 0 0 0 0 0 0 0 0 0 0 0 0 0 0 0 0 0 0 0 0 0 0 0 0 0 0 0 0 0 0 0 0 0 0 0 0 0 0 0 0 0 0 0 0 0 0 0 0 0 0 0 0 0 0 0 0 0 0 0 0 0 0 0 0 0 0 0 0 0 0 0 0 0 0 0 0 0 0 0 0 0 0 0 0 0 0 0 0 0 0 0 0 0 0 0 0 0 0 0 0 0 0 0 0 0 0 0 0 0 0 0 0 0 0 0 0 0 0 0 0 0 0 1.77498e-07 7.09992e-07 1.59748e-06 2.83997e-06 4.43745e-06 6.38993e-06 8.6974e-06 1.13599e-05 1.44294e-05 1.7958e-05 2.19458e-05 2.63927e-05 3.12986e-05 3.66637e-05 4.24879e-05 4.87713e-05 5.53447e-05 6.20391e-05 6.88545e-05 7.5791e-05 8.28485e-05 9.0027e-05 9.73265e-05 0.000104747 0.000112132 0.000119323 0.000126321 0.000133126 0.000139738 0.000146156 0.000152381 0.000158413 0.00016418 0.000169609 0.0001747 0.000179454 0.00018387 0.000187948 0.000191688 0.000195091 0.000198154 0.000200874 0.000203251 0.000205285 0.000206976 0.000208325 0.000209331 0.000209994 0.000210352 0.000210443 0.000210268 0.000209825 0.000209114 0.000208137 0.000206893 0.000205382 0.000203653 0.000201755 0.000199689 0.000197454 0.000195051 0.000192479 0.000189738 0.000186829 0.000183792 0.000180669 0.000177458 0.000174161 0.000170777 0.000167305 0.000163748 0.000160103 0.000156397 0.000152655 0.000148879 0.000145066 0.000141219 0.000137336 0.000133417 0.000129463 0.000125488 0.000121508 0.000117521 0.000113529 0.000109531 0.000105527 0.000101518 9.75022e-05 9.34945e-05 8.95083e-05 8.55435e-05 8.16002e-05 7.76784e-05 7.3778e-05 6.9899e-05 6.60415e-05 6.22276e-05 5.84794e-05 5.47968e-05 5.118e-05 4.76288e-05 4.41433e-05 4.07235e-05 3.73694e-05 3.41158e-05 3.09975e-05 2.80145e-05 2.51668e-05 2.24544e-05 1.98772e-05 1.74354e-05 1.51289e-05 1.29817e-05 1.10179e-05 9.23749e-06 7.64051e-06 6.22694e-06 4.99677e-06 3.95e-06 3.08664e-06 2.36321e-06 1.73623e-06 1.20572e-06 7.7166e-07 4.34059e-07 1.92915e-07 4.82287e-08 0 0 7.09992e-07 2.83997e-06 6.38993e-06 1.13599e-05 1.77498e-05 2.55597e-05 3.47896e-05 4.54395e-05 5.77176e-05 7.18321e-05 8.77832e-05 0.000105571 0.000125195 0.000146655 0.000169952 0.000195085 0.000221379 0.000248156 0.000275418 0.000303164 0.000331394 0.000360108 0.000389306 0.000418988 0.000448526 0.000477291 0.000505284 0.000532503 0.00055895 0.000584624 0.000609525 0.000633654 0.000656721 0.000678436 0.000698802 0.000717816 0.000735479 0.000751792 0.000766754 0.000780365 0.000792615 0.000803494 0.000813002 0.000821139 0.000827905 0.0008333 0.000837323 0.000839976 0.000841409 0.000841774 0.00084107 0.000839298 0.000836458 0.000832549 0.000827573 0.000821528 0.000814611 0.000807021 0.000798756 0.000789816 0.000780203 0.000769915 0.000758953 0.000747316 0.000735169 0.000722675 0.000709832 0.000696643 0.000683106 0.000669222 0.00065499 0.000640411 0.000625587 0.000610622 0.000595515 0.000580265 0.000564875 0.000549342 0.000533668 0.000517851 0.000501953 0.000486031 0.000470085 0.000454117 0.000438125 0.000422109 0.000406071 0.000390009 0.000373978 0.000358033 0.000342174 0.000326401 0.000310713 0.000295112 0.000279596 0.000264166 0.00024891 0.000233917 0.000219187 0.00020472 0.000190515 0.000176573 0.000162894 0.000149478 0.000136463 0.00012399 0.000112058 0.000100667 8.98174e-05 7.95089e-05 6.97416e-05 6.05154e-05 5.19266e-05 4.40715e-05 3.695e-05 3.0562e-05 2.49077e-05 1.99871e-05 1.58e-05 1.23466e-05 9.45283e-06 6.94494e-06 4.82287e-06 3.08664e-06 1.73623e-06 7.7166e-07 1.92915e-07 0 0 1.59748e-06 6.38993e-06 1.43773e-05 2.55597e-05 3.99371e-05 5.75094e-05 7.82766e-05 0.000102239 0.000129865 0.000161622 0.000197512 0.000237534 0.000281688 0.000329974 0.000382392 0.000438941 0.000498102 0.000558352 0.000619691 0.000682119 0.000745636 0.000810243 0.000875939 0.000942724 0.00100918 0.00107391 0.00113689 0.00119813 0.00125764 0.0013154 0.00137143 0.00142572 0.00147762 0.00152648 0.0015723 0.00161509 0.00165483 0.00169153 0.0017252 0.00175582 0.00178338 0.00180786 0.00182925 0.00184756 0.00186279 0.00187492 0.00188398 0.00188995 0.00189317 0.00189399 0.00189241 0.00188842 0.00188203 0.00187324 0.00186204 0.00184844 0.00183288 0.0018158 0.0017972 0.00177709 0.00175546 0.00173231 0.00170764 0.00168146 0.00165413 0.00162602 0.00159712 0.00156745 0.00153699 0.00150575 0.00147373 0.00144092 0.00140757 0.0013739 0.00133991 0.0013056 0.00127097 0.00123602 0.00120075 0.00116517 0.00112939 0.00109357 0.00105769 0.00102176 0.000985781 0.000949746 0.000913659 0.00087752 0.000841451 0.000805575 0.000769892 0.000734402 0.000699105 0.000664002 0.000629091 0.000594374 0.000560048 0.000526314 0.000493171 0.00046062 0.000428659 0.00039729 0.000366512 0.000336325 0.000307042 0.000278978 0.000252131 0.000226501 0.000202089 0.000178895 0.000156919 0.00013616 0.000116835 9.91609e-05 8.31374e-05 6.87646e-05 5.60424e-05 4.49709e-05 3.555e-05 2.77797e-05 2.12689e-05 1.56261e-05 1.08515e-05 6.94494e-06 3.90653e-06 1.73623e-06 4.34059e-07 0 0 2.83997e-06 1.13599e-05 2.55597e-05 4.54395e-05 7.09992e-05 0.000102239 0.000139158 0.000181758 0.00023087 0.000287329 0.000351133 0.000422283 0.000500778 0.00058662 0.000679807 0.00078034 0.000885515 0.000992625 0.00110167 0.00121266 0.00132558 0.00144043 0.00155722 0.00167595 0.00179411 0.00190917 0.00202114 0.00213001 0.0022358 0.0023385 0.0024381 0.00253462 0.00262688 0.00271375 0.00279521 0.00287126 0.00294192 0.00300717 0.00306702 0.00312146 0.00317046 0.00321398 0.00325201 0.00328456 0.00331162 0.0033332 0.00334929 0.0033599 0.00336564 0.00336709 0.00336428 0.00335719 0.00334583 0.0033302 0.00331029 0.00328611 0.00325844 0.00322808 0.00319502 0.00315927 0.00312081 0.00307966 0.00303581 0.00298927 0.00294068 0.0028907 0.00283933 0.00278657 0.00273242 0.00267689 0.00261996 0.00256164 0.00250235 0.00244249 0.00238206 0.00232106 0.0022595 0.00219737 0.00213467 0.00207141 0.00200781 0.00194412 0.00188034 0.00181647 0.0017525 0.00168844 0.00162428 0.00156004 0.00149591 0.00143213 0.0013687 0.0013056 0.00124285 0.00118045 0.00111838 0.00105666 0.000995641 0.00093567 0.000876749 0.000818879 0.000762061 0.000706293 0.000651576 0.000597911 0.000545853 0.00049596 0.000448232 0.000402669 0.00035927 0.000318036 0.000278966 0.000242062 0.000207707 0.000176286 0.0001478 0.000122248 9.9631e-05 7.99483e-05 6.32e-05 4.93862e-05 3.78113e-05 2.77797e-05 1.92915e-05 1.23466e-05 6.94494e-06 3.08664e-06 7.7166e-07 0 0 4.43745e-06 1.77498e-05 3.99371e-05 7.09992e-05 0.000110936 0.000159748 0.000217435 0.000283997 0.000360735 0.000448951 0.000548645 0.000659816 0.000782466 0.000916593 0.0010622 0.00121928 0.00138362 0.00155098 0.00172136 0.00189477 0.00207121 0.00225068 0.00243316 0.00261868 0.00280329 0.00298307 0.00315802 0.00332815 0.00349344 0.0036539 0.00380953 0.00396034 0.0041045 0.00424023 0.00436751 0.00448635 0.00459675 0.0046987 0.00479221 0.00487728 0.00495384 0.00502184 0.00508126 0.00513212 0.00517441 0.00520812 0.00523327 0.00524985 0.00525881 0.00526109 0.00525669 0.00524561 0.00522786 0.00520343 0.00517233 0.00513455 0.00509132 0.00504388 0.00499222 0.00493635 0.00487627 0.00481197 0.00474346 0.00467073 0.00459481 0.00451672 0.00443645 0.00435402 0.00426941 0.00418264 0.00409369 0.00400257 0.00390992 0.00381639 0.00372197 0.00362666 0.00353047 0.00343339 0.00333542 0.00323657 0.0031372 0.00303769 0.00293803 0.00283823 0.00273828 0.00263818 0.00253794 0.00243756 0.00233736 0.00223771 0.00213859 0.00204001 0.00194196 0.00184445 0.00174748 0.00165104 0.00155569 0.00146198 0.00136992 0.0012795 0.00119072 0.00110358 0.00101809 0.000934236 0.000852896 0.000774938 0.000700363 0.00062917 0.000561359 0.000496931 0.000435885 0.000378221 0.000324542 0.000275447 0.000230937 0.000191013 0.000155673 0.000124919 9.875e-05 7.7166e-05 5.90802e-05 4.34059e-05 3.0143e-05 1.92915e-05 1.08515e-05 4.82287e-06 1.20572e-06 0 0 6.38993e-06 2.55597e-05 5.75094e-05 0.000102239 0.000159748 0.000230037 0.000313106 0.000408955 0.000519458 0.000646489 0.000790048 0.000950136 0.00112675 0.00131989 0.00152957 0.00175577 0.00199241 0.00223341 0.00247876 0.00272848 0.00298255 0.00324097 0.00350376 0.0037709 0.00403674 0.00429562 0.00454755 0.00479253 0.00503055 0.00526162 0.00548573 0.00570289 0.00591049 0.00610593 0.00628921 0.00646034 0.00661931 0.00676613 0.00690078 0.00702328 0.00713354 0.00723145 0.00731702 0.00739025 0.00745114 0.0074997 0.00753591 0.00755978 0.00757268 0.00757596 0.00756963 0.00755368 0.00752812 0.00749295 0.00744815 0.00739375 0.0073315 0.00726318 0.0071888 0.00710835 0.00702183 0.00692923 0.00683058 0.00672585 0.00661652 0.00650407 0.00638849 0.00626979 0.00614795 0.006023 0.00589491 0.0057637 0.00563029 0.0054956 0.00535963 0.00522239 0.00508387 0.00494408 0.00480301 0.00466066 0.00451757 0.00437428 0.00423077 0.00408705 0.00394312 0.00379898 0.00365464 0.00351008 0.0033658 0.0032223 0.00307957 0.00293761 0.00279642 0.00265601 0.00251636 0.00237749 0.00224019 0.00210526 0.00197269 0.00184248 0.00171464 0.00158916 0.00146605 0.0013453 0.00122817 0.00111591 0.00100852 0.000906004 0.000808357 0.00071558 0.000627674 0.000544639 0.00046734 0.000396643 0.00033255 0.000275058 0.00022417 0.000179884 0.0001422 0.000111119 8.50755e-05 6.25044e-05 4.34059e-05 2.77797e-05 1.56261e-05 6.94494e-06 1.73623e-06 0 0 8.6974e-06 3.47896e-05 7.82766e-05 0.000139158 0.000217435 0.000313106 0.000426173 0.000556634 0.00070704 0.000879944 0.00107534 0.00129324 0.00153363 0.00179652 0.00208191 0.00238979 0.00271189 0.00303992 0.00337387 0.00371376 0.00405958 0.00441132 0.004769 0.00513261 0.00549445 0.00584682 0.00618973 0.00652317 0.00684714 0.00716165 0.00746669 0.00776226 0.00804483 0.00831085 0.00856032 0.00879324 0.00900962 0.00920945 0.00939273 0.00955947 0.00970953 0.0098428 0.00995928 0.010059 0.0101418 0.0102079 0.0102572 0.0102897 0.0103073 0.0103117 0.0103031 0.0102814 0.0102466 0.0101987 0.0101378 0.0100637 0.00997899 0.009886 0.00978476 0.00967525 0.00955748 0.00943146 0.00929717 0.00915463 0.00900582 0.00885276 0.00869545 0.00853388 0.00836805 0.00819797 0.00802363 0.00784503 0.00766344 0.00748012 0.00729505 0.00710825 0.00691971 0.00672944 0.00653743 0.00634368 0.00614892 0.00595388 0.00575855 0.00556293 0.00536703 0.00517084 0.00497437 0.00477761 0.00458123 0.00438591 0.00419163 0.00399841 0.00380624 0.00361512 0.00342505 0.00323603 0.00304915 0.00286549 0.00268504 0.00250782 0.00233381 0.00216302 0.00199545 0.0018311 0.00167168 0.00151888 0.00137271 0.00123317 0.00110026 0.000973984 0.000854334 0.000741314 0.000636101 0.000539876 0.000452637 0.000374385 0.00030512 0.000244842 0.00019355 0.000151245 0.000115797 8.50755e-05 5.90802e-05 3.78113e-05 2.12689e-05 9.45283e-06 2.36321e-06 0 0 1.13599e-05 4.54395e-05 0.000102239 0.000181758 0.000283997 0.000408955 0.000556634 0.000727032 0.000923481 0.00114931 0.00140453 0.00168913 0.00200311 0.00234648 0.00271923 0.00312136 0.00354206 0.0039705 0.00440669 0.00485062 0.0053023 0.00576173 0.0062289 0.00670382 0.00717642 0.00763666 0.00808454 0.00852006 0.0089432 0.00935399 0.00975241 0.0101385 0.0105075 0.010855 0.0111808 0.0114851 0.0117677 0.0120287 0.0122681 0.0124858 0.0126818 0.0128559 0.013008 0.0131382 0.0132465 0.0133328 0.0133972 0.0134396 0.0134625 0.0134684 0.0134571 0.0134288 0.0133833 0.0133208 0.0132412 0.0131444 0.0130338 0.0129123 0.0127801 0.0126371 0.0124832 0.0123186 0.0121432 0.0119571 0.0117627 0.0115628 0.0113573 0.0111463 0.0109297 0.0107075 0.0104798 0.0102466 0.0100094 0.00976995 0.00952823 0.00928425 0.00903799 0.00878947 0.00853868 0.00828562 0.00803124 0.00777649 0.00752137 0.00726587 0.00701 0.00675375 0.00649713 0.00624014 0.00598365 0.00572853 0.00547479 0.00522241 0.00497142 0.00472179 0.00447354 0.00422666 0.00398257 0.00374268 0.003507 0.00327552 0.00304824 0.00282517 0.00260631 0.00239164 0.00218341 0.00198384 0.00179293 0.00161067 0.00143708 0.00127214 0.00111587 0.000968247 0.000830826 0.000705144 0.000591199 0.000488993 0.000398524 0.000319793 0.0002528 0.000197545 0.000151245 0.000111119 7.7166e-05 4.93862e-05 2.77797e-05 1.23466e-05 3.08664e-06 0 0 1.44568e-05 5.78273e-05 0.000130111 0.000231309 0.000361421 0.000520446 0.000708385 0.000925237 0.00117508 0.001462 0.00178598 0.00214704 0.00254517 0.00298037 0.00345264 0.00396198 0.00449472 0.00503719 0.00558938 0.0061513 0.00672295 0.00730433 0.00789544 0.00849627 0.00909416 0.00967642 0.0102431 0.0107941 0.0113295 0.0118492 0.0123534 0.0128419 0.0133089 0.0137487 0.0141611 0.0145462 0.014904 0.0152345 0.0155377 0.0158136 0.0160619 0.0162825 0.0164754 0.0166405 0.0167779 0.0168875 0.0169694 0.0170236 0.0170531 0.0170609 0.0170471 0.0170116 0.0169545 0.0168757 0.0167754 0.0166533 0.0165137 0.0163603 0.0161932 0.0160125 0.0158181 0.01561 0.0153882 0.0151528 0.0149069 0.014654 0.0143941 0.014127 0.0138529 0.0135718 0.0132835 0.0129882 0.012688 0.0123848 0.0120787 0.0117698 0.0114579 0.0111432 0.0108255 0.010505 0.0101828 0.00986009 0.00953691 0.00921326 0.00888912 0.0085645 0.00823941 0.00791383 0.00758889 0.00726568 0.00694422 0.00662449 0.00630651 0.00599026 0.00567576 0.005363 0.00505377 0.00474985 0.00445126 0.00415798 0.00387003 0.00358739 0.00331007 0.00303807 0.0027742 0.00252125 0.00227924 0.00204816 0.00182801 0.00161879 0.0014205 0.00123314 0.00105866 0.000899027 0.000754227 0.000624264 0.000509138 0.000408849 0.000323397 0.000252783 0.000193537 0.00014219 9.87434e-05 6.31958e-05 3.55476e-05 1.57989e-05 3.94974e-06 0 0 1.80678e-05 7.22711e-05 0.00016261 0.000289084 0.000451694 0.00065044 0.000885321 0.00115634 0.00146814 0.00182539 0.00222808 0.00267621 0.00316978 0.00370879 0.00429325 0.00492315 0.00558167 0.00625199 0.00693411 0.00762803 0.00833376 0.00905129 0.00978062 0.0105217 0.0112592 0.0119774 0.0126763 0.0133561 0.0140166 0.014658 0.0152801 0.0158829 0.0164594 0.0170023 0.0175115 0.0179872 0.0184293 0.0188378 0.0192126 0.0195539 0.0198613 0.0201345 0.0203735 0.0205783 0.020749 0.0208854 0.0209877 0.0210557 0.0210933 0.0211042 0.0210883 0.0210457 0.0209763 0.0208802 0.0207574 0.0206078 0.0204364 0.020248 0.0200426 0.0198203 0.019581 0.0193248 0.0190515 0.0187613 0.0184582 0.0181464 0.0178256 0.0174961 0.0171578 0.0168107 0.0164547 0.0160899 0.015719 0.0153443 0.0149661 0.0145842 0.0141987 0.0138095 0.0134168 0.0130203 0.0126218 0.0122226 0.0118229 0.0114225 0.0110215 0.0106199 0.0102177 0.00981483 0.00941277 0.00901286 0.00861511 0.00821952 0.00782608 0.0074348 0.00704567 0.0066587 0.00627609 0.00590004 0.00553055 0.00516762 0.00481126 0.00446146 0.00411821 0.00378153 0.00345484 0.00314157 0.00284172 0.00255528 0.00228226 0.00202265 0.00177646 0.00154369 0.00132677 0.0011281 0.00094771 0.00078558 0.000641717 0.00051612 0.00040879 0.000319725 0.00024479 0.000179846 0.000124893 7.99313e-05 4.49614e-05 1.99828e-05 4.99571e-06 0 0 2.21927e-05 8.87708e-05 0.000199734 0.000355083 0.000554817 0.000798937 0.00108744 0.00142033 0.00180266 0.00223949 0.00273081 0.00327663 0.00387695 0.00453176 0.00524107 0.00600487 0.0068029 0.00761491 0.00844087 0.00928081 0.0101347 0.0110026 0.0118844 0.0127802 0.0136714 0.0145395 0.0153844 0.0162061 0.0170047 0.0177802 0.0185325 0.0192616 0.0199589 0.0206157 0.0212321 0.021808 0.0223434 0.0228384 0.0232928 0.0237068 0.02408 0.0244118 0.0247024 0.0249516 0.0251596 0.0253264 0.0254518 0.025536 0.0255833 0.0255983 0.0255808 0.025531 0.0254488 0.0253342 0.0251872 0.0250079 0.024802 0.0245755 0.0243283 0.0240605 0.023772 0.0234629 0.0231332 0.0227828 0.0224167 0.0220398 0.0216521 0.0212536 0.0208443 0.0204242 0.0199933 0.0195517 0.0191024 0.0186486 0.0181903 0.0177276 0.0172603 0.0167886 0.0163123 0.0158316 0.0153483 0.0148641 0.0143792 0.0138936 0.0134071 0.0129199 0.0124319 0.0119431 0.0114553 0.0109701 0.0104875 0.0100075 0.00953013 0.00905538 0.00858326 0.00811376 0.00764953 0.00719324 0.00674487 0.00630444 0.00587194 0.00544737 0.00503074 0.00462203 0.00422535 0.00384479 0.00348035 0.00313203 0.00279982 0.00248373 0.00218376 0.00189991 0.00163513 0.00139238 0.00117165 0.000972943 0.000796262 0.000641607 0.000508977 0.000398372 0.000305003 0.000224084 0.000155614 9.95929e-05 5.6021e-05 2.48982e-05 6.22456e-06 0 0 2.68316e-05 0.000107326 0.000241484 0.000429305 0.00067079 0.000965937 0.00131475 0.00171722 0.00217864 0.0027043 0.00329419 0.00394831 0.00466667 0.00544926 0.00629608 0.00720714 0.00815843 0.00912594 0.0101097 0.0111096 0.0121258 0.0131582 0.0142069 0.0152717 0.016331 0.0173628 0.0183672 0.0193442 0.0202938 0.0212159 0.0221106 0.0229779 0.0238074 0.0245891 0.0253228 0.0260086 0.0266464 0.0272363 0.0277783 0.0282723 0.0287179 0.0291144 0.0294619 0.0297604 0.0300099 0.0302104 0.0303619 0.0304644 0.0305231 0.0305432 0.0305247 0.0304676 0.0303719 0.0302377 0.0300649 0.0298535 0.0296104 0.0293427 0.0290502 0.028733 0.0283911 0.0280245 0.0276331 0.0272171 0.0267822 0.0263342 0.0258733 0.0253994 0.0249124 0.0244124 0.0238995 0.0233735 0.0228383 0.0222976 0.0217514 0.0211998 0.0206428 0.0200803 0.0195123 0.0189388 0.0183622 0.0177846 0.017206 0.0166265 0.016046 0.0154646 0.0148821 0.0142988 0.0137165 0.0131373 0.0125613 0.0119884 0.0114187 0.010852 0.0102885 0.00972817 0.00917409 0.00862944 0.00809422 0.00756843 0.00705207 0.00654514 0.00604764 0.00555957 0.00508573 0.00463092 0.00419515 0.00377841 0.0033807 0.00300203 0.0026424 0.00230179 0.00198376 0.00169184 0.00142604 0.00118635 0.000972773 0.00078531 0.000623959 0.000488722 0.000374178 0.000274906 0.000190907 0.00012218 6.87265e-05 3.05451e-05 7.63628e-06 0 0 3.19845e-05 0.000127938 0.00028786 0.000511752 0.000799612 0.00115144 0.00156724 0.00204701 0.00259609 0.00321982 0.00391821 0.00469125 0.00553895 0.0064613 0.00745831 0.00852997 0.00964825 0.0107851 0.0119405 0.0131145 0.0143071 0.0155182 0.0167479 0.0179962 0.0192378 0.0204473 0.0216248 0.0227703 0.0238837 0.0249651 0.0260144 0.0270317 0.028005 0.0289224 0.0297837 0.030589 0.0313383 0.0320317 0.032669 0.0332504 0.0337751 0.0342423 0.0346522 0.0350048 0.0352999 0.0355376 0.035718 0.0358409 0.0359126 0.0359388 0.0359198 0.0358554 0.0357457 0.0355907 0.0353903 0.0351447 0.0348617 0.0345496 0.0342083 0.0338379 0.0334382 0.0330094 0.0325514 0.0320642 0.0315547 0.0310298 0.0304894 0.0299335 0.0293621 0.0287753 0.028173 0.0275553 0.0269265 0.0262912 0.0256494 0.025001 0.0243461 0.0236846 0.0230166 0.022342 0.0216636 0.020984 0.0203032 0.0196213 0.0189381 0.0182538 0.0175684 0.0168817 0.0161963 0.0155146 0.0148366 0.0141623 0.0134917 0.0128247 0.0121615 0.0115019 0.0108498 0.0102087 0.0095786 0.00895959 0.00835165 0.00775475 0.00716891 0.00659413 0.00603596 0.00549995 0.00498611 0.00449442 0.00402491 0.00357755 0.00315236 0.00274933 0.00237265 0.00202651 0.00171089 0.0014258 0.00117125 0.000947227 0.000753736 0.000590776 0.000452313 0.000332312 0.000230772 0.000147694 8.30779e-05 3.69235e-05 9.23088e-06 0 0 3.76513e-05 0.000150605 0.000338862 0.000602421 0.000941283 0.00135545 0.00184492 0.00240969 0.00305499 0.00378605 0.00460287 0.00550544 0.00649378 0.00756788 0.00872773 0.00997335 0.0112724 0.0125924 0.0139334 0.0152954 0.0166785 0.0180826 0.0195077 0.0209537 0.0223919 0.023793 0.0251572 0.0264843 0.0277745 0.0290277 0.030244 0.0314232 0.0325517 0.0336155 0.0346147 0.0355492 0.0364191 0.0372244 0.037965 0.038641 0.0392515 0.0397956 0.0402733 0.0406846 0.0410294 0.0413079 0.04152 0.0416656 0.0417518 0.0417853 0.0417662 0.0416945 0.0415702 0.0413932 0.0411636 0.0408814 0.0405559 0.0401963 0.0398027 0.0393751 0.0389134 0.0384177 0.037888 0.0373243 0.0367344 0.0361264 0.0355003 0.034856 0.0341935 0.0335129 0.0328141 0.0320972 0.0313673 0.0306296 0.0298843 0.0291311 0.0283703 0.0276016 0.0268253 0.0260411 0.0252525 0.0244623 0.0236708 0.0228779 0.0220835 0.0212877 0.0204905 0.0196919 0.0188948 0.0181019 0.0173134 0.0165291 0.0157491 0.0149735 0.0142021 0.0134351 0.0126766 0.0119309 0.011198 0.0104779 0.00977067 0.00907622 0.00839457 0.00772573 0.00707606 0.00645189 0.00585323 0.00528007 0.00473243 0.00421029 0.00371366 0.00324254 0.00280181 0.00239636 0.00202619 0.0016913 0.00139169 0.00112736 0.000898308 0.000704535 0.000539409 0.000396301 0.000275209 0.000176134 9.90752e-05 4.40334e-05 1.10084e-05 0 0 4.38322e-05 0.000175329 0.00039449 0.000701315 0.0010958 0.00157796 0.00214778 0.00280526 0.00355535 0.00440298 0.00534817 0.00639089 0.00753117 0.00876899 0.0101044 0.0115373 0.0130307 0.0145478 0.0160883 0.0176524 0.0192401 0.0208513 0.022486 0.0241443 0.0257932 0.0273999 0.0289643 0.0304864 0.0319663 0.0334039 0.0347993 0.0361524 0.0374474 0.0386685 0.0398158 0.0408893 0.0418888 0.0428145 0.0436663 0.0444443 0.0451473 0.0457742 0.0463251 0.0467999 0.0471986 0.0475213 0.0477679 0.0479385 0.0480408 0.0480826 0.048064 0.0479849 0.0478453 0.0476453 0.0473848 0.0470638 0.0466929 0.0462828 0.0458334 0.0453447 0.0448167 0.0442495 0.043643 0.0429972 0.0423212 0.0416242 0.040906 0.0401668 0.0394065 0.0386251 0.0378226 0.0369991 0.0361604 0.0353127 0.034456 0.0335902 0.0327153 0.0318313 0.0309383 0.0300362 0.0291288 0.0282196 0.0273088 0.0263963 0.0254821 0.0245663 0.0236487 0.0227295 0.0218119 0.0208993 0.0199916 0.0190889 0.0181911 0.0172983 0.0164105 0.0155276 0.0146545 0.0137961 0.0129524 0.0121234 0.0113091 0.0105095 0.00972461 0.00895437 0.00820602 0.00748673 0.00679651 0.00613535 0.00550326 0.00490024 0.00432629 0.00378141 0.00327123 0.00280141 0.00237195 0.00198285 0.0016341 0.00132571 0.00105767 0.000829997 0.000635467 0.000466873 0.000324218 0.000207499 0.000116718 5.18748e-05 1.29687e-05 0 0 5.0527e-05 0.000202108 0.000454743 0.000808432 0.00126318 0.00181897 0.00247582 0.00323373 0.00409717 0.00507063 0.00615411 0.0073476 0.00865112 0.0100646 0.0115882 0.0132218 0.0149234 0.0166513 0.0184053 0.0201854 0.0219918 0.0238243 0.025683 0.0275678 0.0294418 0.0312679 0.0330462 0.0347765 0.036459 0.0380936 0.0396803 0.0412191 0.0426921 0.0440815 0.0453871 0.0466091 0.0477474 0.048802 0.0497729 0.0506601 0.0514623 0.0521781 0.0528076 0.0533507 0.0538074 0.0541778 0.0544618 0.0546595 0.0547795 0.0548307 0.054813 0.0547265 0.0545711 0.0543468 0.0540537 0.0536917 0.0532728 0.052809 0.0523003 0.0517466 0.0511481 0.0505046 0.0498162 0.049083 0.0483151 0.047523 0.0467066 0.045866 0.0450011 0.044112 0.0431986 0.042261 0.041306 0.0403405 0.0393646 0.0383781 0.0373811 0.0363737 0.0353557 0.0343273 0.0332926 0.0322559 0.0312173 0.0301766 0.029134 0.0280895 0.0270429 0.0259944 0.0249477 0.0239066 0.0228713 0.0218416 0.0208175 0.0197992 0.0187865 0.0177794 0.0167835 0.0158044 0.0148419 0.0138961 0.0129671 0.0120547 0.011159 0.01028 0.00942584 0.00860447 0.00781595 0.00706026 0.00633742 0.00564742 0.00499026 0.00436593 0.00378091 0.00324166 0.00274817 0.00230044 0.00189847 0.00154227 0.00123184 0.000967164 0.000740485 0.00054403 0.000377798 0.000241791 0.000136007 6.04477e-05 1.51119e-05 0 0 5.76057e-05 0.000230423 0.000518451 0.000921691 0.00144014 0.0020738 0.00282268 0.00368676 0.00466994 0.00577607 0.00700517 0.00835724 0.00983226 0.0114303 0.0131512 0.0149951 0.0169149 0.0188636 0.020841 0.0228472 0.0248823 0.0269462 0.0290389 0.0311604 0.0332695 0.0353248 0.0373264 0.0392742 0.0411683 0.0430086 0.0447952 0.0465281 0.0481871 0.0497522 0.0512234 0.0526008 0.0538842 0.0550737 0.0561693 0.057171 0.0580773 0.0588864 0.0595984 0.0602133 0.0607312 0.0611519 0.0614756 0.0617021 0.0618413 0.0619029 0.0618868 0.0617931 0.0616217 0.0613726 0.061046 0.0606416 0.0601731 0.0596537 0.0590834 0.0584624 0.0577904 0.0570677 0.0562941 0.0554696 0.0546059 0.0537147 0.0527958 0.0518493 0.0508753 0.0498736 0.0488443 0.0477875 0.0467108 0.0456221 0.0445214 0.0434087 0.0422839 0.0411471 0.0399983 0.0388375 0.0376695 0.0364992 0.0353267 0.0341518 0.0329746 0.0317951 0.0306133 0.0294292 0.0282472 0.0270716 0.0259024 0.0247395 0.0235831 0.022433 0.0212894 0.0201521 0.0190275 0.0179216 0.0168345 0.0157663 0.0147167 0.013686 0.0126741 0.0116809 0.0107156 0.00978692 0.00889503 0.00803989 0.0072215 0.00643985 0.00569496 0.00498681 0.00432274 0.00371009 0.00314885 0.00263902 0.00218061 0.00177361 0.00141803 0.00111386 0.000852795 0.000626544 0.0004351 0.000278464 0.000156636 6.9616e-05 1.7404e-05 0 0 6.49381e-05 0.000259752 0.000584443 0.00103901 0.00162345 0.00233777 0.00318197 0.00415604 0.00526314 0.00650641 0.00788585 0.00940147 0.0110533 0.0128412 0.0147654 0.0168257 0.0189698 0.0211453 0.0233523 0.0255906 0.0278604 0.0301615 0.0324941 0.0348581 0.037208 0.0394981 0.0417284 0.043899 0.0460098 0.0480609 0.0500523 0.0519839 0.0538334 0.0555787 0.0572196 0.0587563 0.0601886 0.0615166 0.0627403 0.0638597 0.0648729 0.0657781 0.0665752 0.0672643 0.0678453 0.0683182 0.0686832 0.06894 0.0690995 0.0691724 0.0691586 0.0690582 0.0688712 0.0685975 0.0682371 0.0677901 0.0672713 0.0666956 0.0660629 0.0653733 0.0646266 0.0638231 0.0629626 0.0620451 0.0610836 0.0600911 0.0590674 0.0580127 0.0569269 0.05581 0.054662 0.053483 0.0522816 0.0510666 0.0498379 0.0485957 0.0473398 0.0460702 0.0447871 0.0434903 0.0421854 0.0408778 0.0395676 0.0382547 0.0369392 0.0356211 0.0343003 0.0329769 0.0316557 0.0303416 0.0290347 0.0277349 0.0264423 0.0251568 0.0238785 0.0226073 0.0213501 0.0201139 0.0188985 0.017704 0.0165305 0.0153778 0.0142461 0.0131352 0.0120552 0.0110159 0.0100172 0.00905931 0.0081421 0.0072656 0.0064298 0.00563472 0.00488859 0.00419969 0.00356801 0.00299355 0.0024763 0.00201628 0.00161348 0.00126789 0.000970731 0.00071319 0.000495271 0.000316973 0.000178297 7.92433e-05 1.98108e-05 0 0 7.25243e-05 0.000290097 0.000652719 0.00116039 0.00181311 0.00261087 0.00355369 0.00464155 0.00587677 0.00726163 0.00879614 0.0104803 0.0123141 0.0142976 0.0164307 0.0187134 0.021088 0.0234965 0.025939 0.0284155 0.0309259 0.0334703 0.0360486 0.0386609 0.0412573 0.0437877 0.0462523 0.0486509 0.0509837 0.0532505 0.0554514 0.0575865 0.0596311 0.0615608 0.0633757 0.0650756 0.0666606 0.0681306 0.0694858 0.0707261 0.0718493 0.0728532 0.073738 0.0745034 0.0751497 0.0756767 0.0760845 0.0763731 0.0765541 0.0766393 0.0766286 0.076522 0.0763196 0.0760213 0.0756272 0.0751371 0.0745676 0.0739347 0.0732387 0.0724793 0.0716567 0.0707709 0.0698218 0.0688095 0.0677482 0.0666522 0.0655215 0.0643561 0.063156 0.0619212 0.0606517 0.0593476 0.0580184 0.0566739 0.0553141 0.053939 0.0525486 0.0511429 0.0497219 0.0482856 0.0468401 0.0453916 0.0439401 0.0424856 0.041028 0.0395674 0.0381038 0.0366372 0.035173 0.0337167 0.0322684 0.0308279 0.0293953 0.0279706 0.0265538 0.0251449 0.0237515 0.0223811 0.0210338 0.0197095 0.0184083 0.0171301 0.015875 0.0146429 0.0134447 0.0122913 0.0111825 0.0101185 0.00909922 0.00812464 0.00719479 0.00630965 0.00547847 0.00471047 0.00400565 0.00336401 0.00278555 0.00227028 0.00181819 0.00142928 0.00109429 0.000803968 0.000558311 0.000357319 0.000200992 8.93298e-05 2.23325e-05 0 0 8.03642e-05 0.000321457 0.000723278 0.00128583 0.00200911 0.00289311 0.00393785 0.00514331 0.00651083 0.00804174 0.00973605 0.0115937 0.0136148 0.0157993 0.0181472 0.0206584 0.0232696 0.0259172 0.0286013 0.0313219 0.034079 0.0368725 0.0397024 0.0425689 0.0454174 0.0481938 0.050898 0.05353 0.0560898 0.0585774 0.0609928 0.063336 0.0655802 0.0676987 0.0696916 0.0715587 0.0733001 0.0749158 0.0764059 0.0777702 0.0790063 0.0801118 0.0810866 0.0819309 0.0826445 0.0832274 0.0836797 0.0840014 0.0842051 0.0843035 0.0842967 0.0841845 0.083967 0.0836442 0.0832161 0.0826827 0.0820617 0.0813711 0.0806107 0.0797806 0.0788807 0.0779111 0.0768718 0.0757627 0.0745996 0.073398 0.072158 0.0708795 0.0695626 0.0682072 0.0668134 0.0653812 0.0639212 0.0624441 0.06095 0.0594388 0.0579106 0.0563652 0.0548029 0.0532234 0.0516337 0.0500406 0.0484441 0.0468442 0.0452408 0.0436341 0.0420239 0.0404103 0.0387993 0.037197 0.0356033 0.0340183 0.032442 0.0308743 0.0293153 0.0277649 0.0262315 0.0247233 0.0232404 0.0217827 0.0203502 0.0189429 0.0175609 0.016204 0.0148842 0.0136132 0.012391 0.0112175 0.0100929 0.009017 0.00798991 0.00701162 0.00609237 0.00524242 0.00446176 0.00375041 0.00310836 0.00253561 0.00203216 0.00159801 0.00122347 0.000898879 0.000624221 0.000399502 0.00022472 9.98754e-05 2.49689e-05 0 0 8.84579e-05 0.000353831 0.000796121 0.00141533 0.00221145 0.00318448 0.00433444 0.0056613 0.00716533 0.00884675 0.0107056 0.0127418 0.0149554 0.0173464 0.0199148 0.0226606 0.0255145 0.0284074 0.0313392 0.0343099 0.0373195 0.040368 0.0434555 0.0465819 0.0496884 0.0527163 0.0556656 0.0585362 0.0613281 0.0640415 0.0666762 0.0692323 0.0716807 0.0739924 0.0761674 0.0782057 0.0801073 0.0818722 0.0835004 0.084992 0.086344 0.0875538 0.0886213 0.0895466 0.0903295 0.0909703 0.0914687 0.0918249 0.0920525 0.0921652 0.0921628 0.0920455 0.0918133 0.091466 0.0910039 0.0904267 0.0897539 0.0890047 0.088179 0.087277 0.0862986 0.0852437 0.0841125 0.0829048 0.0816378 0.0803285 0.0789769 0.0775829 0.0761466 0.074668 0.0731471 0.0715838 0.0699899 0.0683772 0.0667455 0.065095 0.0634255 0.0617372 0.0600299 0.0583038 0.0565663 0.0548249 0.0530797 0.0513307 0.0495778 0.0478211 0.0460605 0.0442961 0.0425344 0.0407823 0.0390395 0.0373062 0.0355823 0.0338679 0.0321629 0.0304674 0.0287903 0.0271406 0.0255183 0.0239235 0.0223561 0.0208162 0.0193036 0.0178186 0.0163736 0.0149816 0.0136425 0.0123563 0.011123 0.00994265 0.00881518 0.00774061 0.00673029 0.00579554 0.00493636 0.00415276 0.00344473 0.00281227 0.00225539 0.00177408 0.00135828 0.000997922 0.000693001 0.000443521 0.00024948 0.00011088 2.772e-05 0 0 9.68053e-05 0.000387221 0.000871248 0.00154888 0.00242013 0.00348499 0.00474346 0.00619554 0.00784026 0.00967664 0.0117047 0.0139244 0.0163358 0.0189388 0.0217335 0.0247199 0.0278228 0.030967 0.0341525 0.0373794 0.0406475 0.0439571 0.0473079 0.0507 0.0540702 0.0573552 0.060555 0.0636695 0.0666988 0.0696429 0.0725018 0.0752754 0.0779325 0.0804417 0.082803 0.0850165 0.087082 0.0889997 0.0907695 0.0923915 0.0938624 0.0951792 0.0963419 0.0973505 0.0982049 0.0989053 0.0994515 0.0998437 0.100096 0.100224 0.100227 0.100105 0.0998585 0.0994869 0.0989905 0.0983693 0.097644 0.0968355 0.0959437 0.0949686 0.0939103 0.0927687 0.0915439 0.0902358 0.0888629 0.0874437 0.0859782 0.0844663 0.0829081 0.0813036 0.0796527 0.0779555 0.0762247 0.0744731 0.0727007 0.0709075 0.0690935 0.0672587 0.0654031 0.0635266 0.0616377 0.0597444 0.0578468 0.055945 0.