<?xml version="1.0"?> 
<VTKFile type="StructuredGrid" version="0.1"> 
<StructuredGrid WholeExtent="0 128 0 128 0 0"> 
<Piece Extent="0 128 0 128 0 0"> 
<PointData>
<DataArray type="Float32" Name="u" format="ascii" NumberOfComponents="1"> 
0 0 0 0 0 0 0 0 0 0 0 0 0 0 0 0 0 0 0 0 0 0 0 0 0 0 0 0 0 0 0 0 0 0 0 0 0 0 0 0 0 0 0 0 0 0 0 0 0 0 0 0 0 0 0 0 0 0 0 0 0 0 0 0 0 0 0 0 0 0 0 0 0 0 0 0 0 0 0 0 0 0 0 0 0 0 0 0 0 0 0 0 0 0 0 0 0 0 0 0 0 0 0 0 0 0 0 0 0 0 0 0 0 0 0 0 0 0 0 0 0 0 0 0 0 0 0 0 0 0 6.79356e-07 2.71742e-06 6.1142e-06 1.08697e-05 1.69839e-05 2.44568e-05 3.32884e-05 4.34788e-05 5.52298e-05 6.87436e-05 8.402e-05 0.000101059 0.000119861 0.000140426 0.000162753 0.000186843 0.000212044 0.000237706 0.000263829 0.000290411 0.000317454 0.000344958 0.000372922 0.000401346 0.000429594 0.000457031 0.000483655 0.000509468 0.000534469 0.000558658 0.000582034 0.000604599 0.000626024 0.000645978 0.000664462 0.000681477 0.000697021 0.000711096 0.000723701 0.000734836 0.000744459 0.000752529 0.000759045 0.000764008 0.000767417 0.000769272 0.000769574 0.000768323 0.000765681 0.000761813 0.000756717 0.000750395 0.000742845 0.000734069 0.000724066 0.000712836 0.000700642 0.000687748 0.000674154 0.000659859 0.000644863 0.000629168 0.000612771 0.000595675 0.000578144 0.000560444 0.000542575 0.000524537 0.000506331 0.000487956 0.000469413 0.000450701 0.000432022 0.000413578 0.00039537 0.000377397 0.000359659 0.000342157 0.00032489 0.000307858 0.000291174 0.000274948 0.000259181 0.000243872 0.000229022 0.000214632 0.000200699 0.000187226 0.000174241 0.000161776 0.000149831 0.000138405 0.000127498 0.00011711 0.000107242 9.78939e-05 8.90435e-05 8.06699e-05 7.27731e-05 6.53532e-05 5.84101e-05 5.19438e-05 4.59544e-05 4.04418e-05 3.53614e-05 3.06686e-05 2.63633e-05 2.24456e-05 1.89154e-05 1.57728e-05 1.30178e-05 1.06503e-05 8.59716e-06 6.78518e-06 5.21437e-06 3.88472e-06 2.79623e-06 1.9489e-06 1.34273e-06 9.77718e-07 7.48566e-07 5.49967e-07 3.81921e-07 2.4443e-07 1.37492e-07 6.11074e-08 1.52769e-08 0 0 2.71742e-06 1.08697e-05 2.44568e-05 4.34788e-05 6.79356e-05 9.78272e-05 0.000133154 0.000173915 0.000220919 0.000274974 0.00033608 0.000404237 0.000479444 0.000561703 0.000651012 0.000747372 0.000848178 0.000950826 0.00105531 0.00116165 0.00126982 0.00137983 0.00149169 0.00160538 0.00171838 0.00182812 0.00193462 0.00203787 0.00213787 0.00223463 0.00232814 0.0024184 0.00250409 0.00258391 0.00265785 0.00272591 0.00278809 0.00284438 0.0028948 0.00293934 0.00297784 0.00301012 0.00303618 0.00305603 0.00306967 0.00307709 0.0030783 0.00307329 0.00306272 0.00304725 0.00302687 0.00300158 0.00297138 0.00293628 0.00289626 0.00285134 0.00280257 0.00275099 0.00269662 0.00263944 0.00257945 0.00251667 0.00245109 0.0023827 0.00231257 0.00224177 0.0021703 0.00209815 0.00202533 0.00195183 0.00187765 0.0018028 0.00172809 0.00165431 0.00158148 0.00150959 0.00143864 0.00136863 0.00129956 0.00123143 0.00116469 0.00109979 0.00103672 0.000975489 0.00091609 0.000858526 0.000802797 0.000748903 0.000696966 0.000647106 0.000599323 0.000553619 0.000509991 0.000468442 0.00042897 0.000391576 0.000356174 0.00032268 0.000291092 0.000261413 0.00023364 0.000207775 0.000183818 0.000161767 0.000141446 0.000122674 0.000105453 8.97824e-05 7.56617e-05 6.30913e-05 5.20711e-05 4.26012e-05 3.43886e-05 2.71407e-05 2.08575e-05 1.55389e-05 1.11849e-05 7.79559e-06 5.37091e-06 3.91087e-06 2.99426e-06 2.19987e-06 1.52769e-06 9.77718e-07 5.49967e-07 2.4443e-07 6.11074e-08 0 0 6.1142e-06 2.44568e-05 5.50278e-05 9.78272e-05 0.000152855 0.000220111 0.000299596 0.000391309 0.000497068 0.000618692 0.00075618 0.000909533 0.00107875 0.00126383 0.00146478 0.00168159 0.0019084 0.00213936 0.00237446 0.0026137 0.00285709 0.00310462 0.00335629 0.00361211 0.00386635 0.00411328 0.0043529 0.00458521 0.00481022 0.00502792 0.00523831 0.0054414 0.00563421 0.0058138 0.00598016 0.00613329 0.00627319 0.00639986 0.00651331 0.00661352 0.00670013 0.00677276 0.0068314 0.00687607 0.00690675 0.00692345 0.00692617 0.00691491 0.00689113 0.00685631 0.00681045 0.00675355 0.00668561 0.00660662 0.00651659 0.00641552 0.00630578 0.00618973 0.00606738 0.00593873 0.00580377 0.00566251 0.00551494 0.00536107 0.00520329 0.00504399 0.00488317 0.00472084 0.00455698 0.00439161 0.00422472 0.00405631 0.00388819 0.0037222 0.00355833 0.00339657 0.00323693 0.00307941 0.00292401 0.00277072 0.00262056 0.00247453 0.00233262 0.00219485 0.0020612 0.00193168 0.00180629 0.00168503 0.00156817 0.00145599 0.00134848 0.00124564 0.00114748 0.00105399 0.000965182 0.000881045 0.000801391 0.000726029 0.000654958 0.000588179 0.000525691 0.000467494 0.00041359 0.000363976 0.000318253 0.000276017 0.00023727 0.00020201 0.000170239 0.000141955 0.00011716 9.58526e-05 7.73744e-05 6.10667e-05 4.69293e-05 3.49625e-05 2.51661e-05 1.75401e-05 1.20846e-05 8.79947e-06 6.73709e-06 4.9497e-06 3.43729e-06 2.19987e-06 1.23742e-06 5.49967e-07 1.37492e-07 0 0 1.08697e-05 4.34788e-05 9.78272e-05 0.000173915 0.000271742 0.000391309 0.000532615 0.00069566 0.000883677 0.0010999 0.00134432 0.00161695 0.00191778 0.00224681 0.00260405 0.00298949 0.00339271 0.0038033 0.00422126 0.00464658 0.00507927 0.00551932 0.00596675 0.00642153 0.00687351 0.00731249 0.00773848 0.00815149 0.0085515 0.00893852 0.00931255 0.00967359 0.0100164 0.0103356 0.0106314 0.0109036 0.0111523 0.0113775 0.0115792 0.0117574 0.0119113 0.0120405 0.0121447 0.0122241 0.0122787 0.0123084 0.0123132 0.0122932 0.0122509 0.012189 0.0121075 0.0120063 0.0118855 0.0117451 0.0115851 0.0114054 0.0112103 0.011004 0.0107865 0.0105577 0.0103178 0.0100667 0.00980434 0.0095308 0.0092503 0.0089671 0.0086812 0.0083926 0.0081013 0.0078073 0.00751061 0.00721121 0.00691235 0.00661725 0.00632591 0.00603835 0.00575454 0.00547451 0.00519824 0.00492573 0.00465878 0.00439916 0.00414689 0.00390195 0.00366436 0.0034341 0.00321119 0.00299561 0.00278786 0.00258842 0.00239729 0.00221447 0.00203997 0.00187377 0.00171588 0.0015663 0.0014247 0.00129072 0.00116437 0.00104565 0.000934561 0.000831101 0.00073527 0.000647069 0.000565783 0.000490697 0.000421813 0.000359129 0.000302647 0.000252365 0.000208284 0.000170405 0.000137554 0.000108563 8.34299e-05 6.21555e-05 4.47397e-05 3.11824e-05 2.14837e-05 1.56435e-05 1.19771e-05 8.79947e-06 6.11074e-06 3.91087e-06 2.19987e-06 9.77718e-07 2.4443e-07 0 0 1.69839e-05 6.79356e-05 0.000152855 0.000271742 0.000424597 0.00061142 0.000832211 0.00108697 0.00138075 0.00171859 0.0021005 0.00252648 0.00299653 0.00351064 0.00406882 0.00467107 0.00530111 0.00594266 0.00659572 0.00726028 0.00793636 0.00862395 0.00932304 0.0100336 0.0107399 0.0114258 0.0120914 0.0127367 0.0133617 0.0139664 0.0145509 0.015115 0.0156506 0.0161494 0.0166116 0.0170369 0.0174255 0.0177774 0.0180925 0.0183709 0.0186115 0.0188132 0.0189761 0.0191002 0.0191854 0.0192318 0.0192394 0.0192081 0.019142 0.0190453 0.0189179 0.0187599 0.0185711 0.0183517 0.0181017 0.0178209 0.0175161 0.0171937 0.0168538 0.0164965 0.0161216 0.0157292 0.0153193 0.0148919 0.0144536 0.0140111 0.0135644 0.0131134 0.0126583 0.0121989 0.0117353 0.0112675 0.0108005 0.0103394 0.00988424 0.00943492 0.00899147 0.00855392 0.00812224 0.00769645 0.00727934 0.00687369 0.00647951 0.0060968 0.00572556 0.00536579 0.00501748 0.00468065 0.00435604 0.00404441 0.00374577 0.00346012 0.00318745 0.00292776 0.00268106 0.00244735 0.00222609 0.00201675 0.00181933 0.00163383 0.00146025 0.0012986 0.00114886 0.00101105 0.000884035 0.000766715 0.000659083 0.00056114 0.000472886 0.000394321 0.000325444 0.000266257 0.000214929 0.00016963 0.000130359 9.7118e-05 6.99057e-05 4.87225e-05 3.35682e-05 2.4443e-05 1.87141e-05 1.37492e-05 9.54803e-06 6.11074e-06 3.43729e-06 1.52769e-06 3.81921e-07 0 0 2.44568e-05 9.78272e-05 0.000220111 0.000391309 0.00061142 0.000880445 0.00119838 0.00156524 0.00198827 0.00247477 0.00302472 0.00363813 0.004315 0.00505532 0.00585911 0.00672635 0.0076336 0.00855743 0.00949783 0.0104548 0.0114284 0.0124185 0.0134252 0.0144484 0.0154654 0.0164531 0.0174116 0.0183408 0.0192409 0.0201117 0.0209532 0.0217656 0.0225368 0.0232552 0.0239206 0.0245332 0.0250928 0.0255995 0.0260532 0.0264541 0.0268005 0.027091 0.0273256 0.0275043 0.027627 0.0276938 0.0277047 0.0276596 0.0275645 0.0274253 0.0272418 0.0270142 0.0267424 0.0264265 0.0260664 0.0256621 0.0252231 0.0247589 0.0242695 0.0237549 0.0232151 0.02265 0.0220598 0.0214443 0.0208132 0.020176 0.0195327 0.0188833 0.0182279 0.0175664 0.0168989 0.0162252 0.0155528 0.0148888 0.0142333 0.0135863 0.0129477 0.0123176 0.011696 0.0110829 0.0104822 0.00989812 0.0093305 0.0087794 0.00824481 0.00772673 0.00722518 0.00674013 0.00627269 0.00582395 0.00539391 0.00498257 0.00458992 0.00421598 0.00386073 0.00352418 0.00320557 0.00290412 0.00261983 0.00235271 0.00210276 0.00186998 0.00165436 0.00145591 0.00127301 0.00110407 0.000949079 0.000808041 0.000680956 0.000567822 0.00046864 0.00038341 0.000309498 0.000244267 0.000187717 0.00013985 0.000100664 7.01603e-05 4.83382e-05 3.51979e-05 2.69484e-05 1.97988e-05 1.37492e-05 8.79947e-06 4.9497e-06 2.19987e-06 5.49967e-07 0 0 3.32884e-05 0.000133154 0.000299596 0.000532615 0.000832211 0.00119838 0.00163113 0.00213046 0.00270626 0.00336843 0.00411698 0.0049519 0.00587319 0.00688086 0.00797489 0.0091553 0.0103902 0.0116476 0.0129276 0.0142302 0.0155553 0.0169029 0.0182732 0.0196659 0.0210501 0.0223945 0.0236991 0.0249639 0.026189 0.0273742 0.0285197 0.0296254 0.0306752 0.0316529 0.0325586 0.0333924 0.034154 0.0348437 0.0354613 0.036007 0.0364785 0.0368739 0.0371932 0.0374364 0.0376034 0.0376943 0.0377091 0.0376478 0.0375184 0.0373288 0.0370791 0.0367693 0.0363994 0.0359694 0.0354792 0.034929 0.0343315 0.0336997 0.0330335 0.0323331 0.0315983 0.0308292 0.0300258 0.0291881 0.028329 0.0274617 0.0265862 0.0257023 0.0248102 0.0239099 0.0230012 0.0220843 0.0211691 0.0202653 0.0193731 0.0184924 0.0176233 0.0167657 0.0159196 0.015085 0.0142675 0.0134724 0.0126998 0.0119497 0.0112221 0.0105169 0.00983427 0.00917407 0.00853783 0.00792704 0.00734171 0.00678183 0.00624739 0.00573841 0.00525488 0.0047968 0.00436313 0.00395282 0.00356588 0.00320231 0.00286209 0.00254525 0.00225177 0.00198165 0.00173271 0.00150276 0.0012918 0.00109983 0.000926856 0.000772869 0.000637871 0.000521864 0.000421261 0.000332474 0.000255504 0.000190351 0.000137015 9.5496e-05 6.57937e-05 4.79082e-05 3.66797e-05 2.69484e-05 1.87141e-05 1.19771e-05 6.73709e-06 2.99426e-06 7.48566e-07 0 0 4.34788e-05 0.000173915 0.000391309 0.00069566 0.00108697 0.00156524 0.00213046 0.00278264 0.00353471 0.00439959 0.00537728 0.00646779 0.00767111 0.00898724 0.0104162 0.0119579 0.0135708 0.0152132 0.016885 0.0185863 0.0203171 0.0220773 0.023867 0.0256861 0.027494 0.02925 0.0309539 0.0326059 0.034206 0.0357541 0.0372502 0.0386944 0.0400655 0.0413426 0.0425256 0.0436145 0.0446094 0.0455101 0.0463169 0.0470295 0.0476454 0.0481618 0.0485789 0.0488965 0.0491147 0.0492334 0.0492528 0.0491727 0.0490036 0.048756 0.0484299 0.0480253 0.0475421 0.0469804 0.0463402 0.0456215 0.0448411 0.0440159 0.0431458 0.042231 0.0412713 0.0402667 0.0392174 0.0381232 0.0370012 0.0358684 0.0347248 0.0335704 0.0324052 0.0312292 0.0300424 0.0288448 0.0276494 0.026469 0.0253037 0.0241534 0.0230182 0.021898 0.0207929 0.0197029 0.0186351 0.0175967 0.0165876 0.0156078 0.0146574 0.0137364 0.0128448 0.0119825 0.0111515 0.0103537 0.00958917 0.0088579 0.00815986 0.00749507 0.00686352 0.00626521 0.00569878 0.00516287 0.00465748 0.0041826 0.00373824 0.0033244 0.00294108 0.00258828 0.00226313 0.00196279 0.00168725 0.00143652 0.00121059 0.00100946 0.000833138 0.000681618 0.000550218 0.000434252 0.00033372 0.000248622 0.000178959 0.00012473 8.59346e-05 6.2574e-05 4.79082e-05 3.51979e-05 2.4443e-05 1.56435e-05 8.79947e-06 3.91087e-06 9.77718e-07 0 0 5.53106e-05 0.000221243 0.000497796 0.00088497 0.00138277 0.00199118 0.00271022 0.00353988 0.004496 0.00559442 0.00683515 0.00821818 0.0097435 0.0114111 0.0132211 0.0151733 0.0172152 0.019294 0.0214098 0.0235626 0.0257524 0.0279792 0.0302429 0.0325436 0.0348299 0.0370506 0.0392055 0.0412948 0.0433183 0.0452762 0.0471684 0.0489949 0.0507291 0.0523444 0.0538408 0.0552184 0.056477 0.0576168 0.0586377 0.0595398 0.0603195 0.0609736 0.0615019 0.0619046 0.0621815 0.0623328 0.0623584 0.0622583 0.0620457 0.0617337 0.0613224 0.0608118 0.0602019 0.0594926 0.058684 0.0577761 0.0567901 0.0557474 0.0546479 0.0534915 0.0522784 0.0510086 0.0496819 0.0482985 0.0468797 0.0454473 0.044001 0.042541 0.0410672 0.0395796 0.0380783 0.0365632 0.0350507 0.0335571 0.0320825 0.0306268 0.0291901 0.0277723 0.0263735 0.0249937 0.0236418 0.0223271 0.0210494 0.0198087 0.0186052 0.0174387 0.0163093 0.015217 0.0141642 0.0131534 0.0121847 0.011258 0.0103733 0.00953068 0.00873006 0.00797146 0.00725318 0.00657351 0.00593243 0.00532996 0.00476609 0.00424082 0.00375415 0.00330609 0.00289301 0.00251131 0.00216098 0.00184203 0.00155446 0.00129826 0.00107344 0.000879987 0.000712016 0.000563626 0.000434816 0.000325587 0.000235938 0.000165869 0.00011538 8.4472e-05 6.46739e-05 4.75155e-05 3.29969e-05 2.1118e-05 1.18789e-05 5.2795e-06 1.31987e-06 0 0 6.90669e-05 0.000276267 0.000621602 0.00110507 0.00172667 0.00248641 0.00338428 0.00442028 0.00561253 0.00697914 0.00852011 0.0102354 0.0121251 0.0141892 0.0164276 0.0188404 0.0213627 0.0239298 0.0265417 0.0291984 0.0318999 0.0346461 0.0374371 0.0402729 0.0430906 0.0458274 0.0484833 0.0510583 0.0535524 0.0559656 0.0582979 0.0605492 0.062687 0.0646785 0.0665238 0.0682227 0.0697754 0.0711818 0.072442 0.0735558 0.0745192 0.0753278 0.0759816 0.0764806 0.0768248 0.0770143 0.0770489 0.0769288 0.0766701 0.0762889 0.0757851 0.0751589 0.0744102 0.0735391 0.0725454 0.0714292 0.0702167 0.0689339 0.067581 0.0661578 0.0646643 0.0631007 0.0614668 0.0597627 0.0580148 0.0562497 0.0544673 0.0526675 0.0508505 0.0490162 0.0471647 0.0452958 0.0434298 0.0415869 0.0397672 0.0379704 0.0361968 0.0344463 0.0327189 0.0310145 0.0293445 0.02772 0.026141 0.0246076 0.0231197 0.0216773 0.0202805 0.0189293 0.0176267 0.0163758 0.0151767 0.0140294 0.0129338 0.01189 0.0108979 0.00995762 0.009067 0.00822397 0.00742855 0.00668072 0.00598049 0.00532786 0.00472282 0.00416538 0.00365108 0.00317547 0.00273855 0.00234032 0.00198078 0.00165992 0.00137776 0.00113428 0.000922303 0.000734624 0.000571246 0.00043217 0.000317395 0.000226921 0.000160749 0.000118879 9.10167e-05 6.68694e-05 4.64371e-05 2.97197e-05 1.67174e-05 7.42994e-06 1.85748e-06 0 0 8.47474e-05 0.00033899 0.000762727 0.00135596 0.00211869 0.00305091 0.00415262 0.00542383 0.00688429 0.00855373 0.0104322 0.0125196 0.014816 0.0173214 0.0200358 0.0229592 0.0260135 0.0291207 0.0322807 0.0354936 0.0387594 0.0420781 0.0454496 0.048874 0.0522761 0.0555805 0.0587873 0.0618966 0.0649082 0.0678222 0.0706386 0.0733574 0.0759393 0.078345 0.0805744 0.0826275 0.0845045 0.0862051 0.0877296 0.0890777 0.0902444 0.0912245 0.0920178 0.0926245 0.0930445 0.0932778 0.0933244 0.0931843 0.0928769 0.0924214 0.091818 0.0910666 0.0901671 0.0891197 0.0879242 0.0865808 0.0851207 0.0835755 0.0819452 0.0802296 0.078429 0.0765431 0.0745721 0.0725159 0.0704065 0.0682757 0.0661236 0.0639501 0.0617553 0.0595391 0.0573016 0.0550427 0.0527869 0.0505585 0.0483577 0.0461843 0.0440383 0.0419199 0.0398289 0.0377654 0.035743 0.0337753 0.0318625 0.0300043 0.0282009 0.0264523 0.0247585 0.0231194 0.0215389 0.0200208 0.0185652 0.017172 0.0158412 0.0145729 0.0133671 0.0122237 0.0111402 0.0101143 0.00914583 0.00823489 0.00738145 0.00658552 0.00584708 0.00516615 0.00453734 0.00395528 0.00341996 0.00293138 0.00248955 0.00209446 0.00174611 0.00144451 0.00118108 0.000947245 0.000743009 0.000568371 0.000423331 0.000307888 0.000222043 0.000165795 0.000126937 9.32597e-05 6.47637e-05 4.14487e-05 2.33149e-05 1.03622e-05 2.59055e-06 0 0 0.000102352 0.000409409 0.000921171 0.00163764 0.00255881 0.00368468 0.00501526 0.00655055 0.00831128 0.0103182 0.0125713 0.0150706 0.0178161 0.0208078 0.0240456 0.0275297 0.0311675 0.0348665 0.0386268 0.0424483 0.0463311 0.0502752 0.0542805 0.058347 0.0623863 0.0663098 0.0701176 0.0738095 0.0773857 0.0808461 0.0841907 0.0874195 0.090486 0.0933438 0.0959927 0.0984328 0.100664 0.102687 0.1045 0.106105 0.107495 0.108664 0.109611 0.110336 0.110841 0.111123 0.111185 0.111025 0.110666 0.110131 0.109421 0.108535 0.107473 0.106235 0.104821 0.103231 0.101502 0.0996722 0.0977405 0.0957072 0.0935723 0.0913358 0.0889977 0.0865581 0.0840546 0.0815252 0.0789699 0.0763886 0.0737813 0.0711481 0.068489 0.0658038 0.0631218 0.0604718 0.057854 0.0552682 0.0527146 0.0501931 0.0477036 0.0452463 0.0428374 0.0404932 0.0382137 0.035999 0.033849 0.0317637 0.0297431 0.0277873 0.0259008 0.0240884 0.0223501 0.0206859 0.0190957 0.0175796 0.0161376 0.0147696 0.0134729 0.0122444 0.0110843 0.00999247 0.00896898 0.00801381 0.00712695 0.00630841 0.0055518 0.00485073 0.0042052 0.00361521 0.00308076 0.00260185 0.00217849 0.00181066 0.00148834 0.00120149 0.000950105 0.00073419 0.000553745 0.000408768 0.000299259 0.00022522 0.000172434 0.000126686 8.79766e-05 5.6305e-05 3.16716e-05 1.40763e-05 3.51906e-06 0 0 0.000121882 0.000487526 0.00109693 0.00195011 0.00304704 0.00438774 0.0059722 0.00780042 0.00989351 0.0122726 0.0149376 0.0178885 0.0211254 0.0246483 0.0284572 0.0325519 0.0368247 0.0411674 0.04558 0.0500625 0.0546149 0.0592373 0.0639296 0.0686919 0.0734214 0.0780154 0.082474 0.0867972 0.0909849 0.0950372 0.098954 0.102735 0.106327 0.109675 0.112779 0.115639 0.118255 0.120627 0.122755 0.124639 0.126272 0.127645 0.12876 0.129616 0.130213 0.130551 0.13063 0.13045 0.130037 0.129419 0.128594 0.127563 0.126327 0.124884 0.123234 0.121379 0.119361 0.117224 0.114967 0.11259 0.110094 0.107479 0.104744 0.101889 0.0989593 0.0959984 0.0930063 0.0899831 0.0869288 0.0838434 0.0807269 0.0775793 0.0744346 0.0713269 0.0682562 0.0652224 0.0622257 0.0592659 0.0563431 0.0534573 0.0506277 0.0478736 0.0451949 0.0425916 0.0400638 0.0376114 0.0352344 0.0329329 0.0307125 0.0285787 0.0265315 0.024571 0.0226972 0.0209099 0.0192094 0.0175955 0.0160649 0.0146144 0.0132439 0.0119535 0.0107431 0.00961272 0.00856241 0.00759215 0.00669444 0.00586182 0.00509428 0.00439181 0.00375442 0.00318212 0.00267489 0.00223274 0.00184409 0.00149736 0.00119253 0.000929628 0.000708637 0.000529561 0.0003924 0.000297154 0.000227509 0.000167149 0.000116076 7.42885e-05 4.17873e-05 1.85721e-05 4.64303e-06 0 0 0.000143335 0.000573341 0.00129002 0.00229336 0.00358338 0.00516007 0.00702343 0.00917345 0.011631 0.0144168 0.0175309 0.0209733 0.024744 0.028843 0.0332703 0.0380259 0.0429851 0.0480232 0.0531402 0.0583361 0.0636109 0.0689645 0.0743971 0.0799086 0.0853812 0.0906972 0.0958567 0.10086 0.105706 0.110395 0.114929 0.119305 0.123463 0.127338 0.130932 0.134245 0.137276 0.140025 0.142492 0.144678 0.146574 0.14817 0.149466 0.150464 0.151162 0.151561 0.15166 0.15146 0.150991 0.150284 0.149337 0.148153 0.146729 0.145067 0.143166 0.141026 0.138698 0.136231 0.133624 0.130879 0.127995 0.124972 0.12181 0.118509 0.115121 0.111695 0.108233 0.104734 0.101198 0.0976249 0.0940153 0.0903689 0.0867252 0.0831236 0.0795642 0.0760468 0.0725715 0.0691384 0.0657473 0.0623984 0.0591139 0.0559164 0.0528058 0.0497821 0.0468453 0.0439954 0.0412325 0.0385564 0.0359739 0.0334916 0.0311094 0.0288274 0.0266456 0.024564 0.0225825 0.0207012 0.0189164 0.0172242 0.0156247 0.0141179 0.0127037 0.0113823 0.0101535 0.00901737 0.00796528 0.00698856 0.00608719 0.00526118 0.00451054 0.00383525 0.00323532 0.00271075 0.00224833 0.00183485 0.0014703 0.00115468 0.000888008 0.000670268 0.000501464 0.000381597 0.00029216 0.000214648 0.000149061 9.53993e-05 5.36621e-05 2.38498e-05 5.96245e-06 0 0 0.000166713 0.000666853 0.00150042 0.00266741 0.00416783 0.00600167 0.00816895 0.0106696 0.0135237 0.0167509 0.0203513 0.024325 0.0286718 0.0333919 0.0384851 0.0439516 0.0496488 0.0554341 0.0613076 0.0672692 0.0733189 0.0794568 0.0856829 0.0919971 0.0982658 0.104355 0.110266 0.115997 0.121548 0.126921 0.132115 0.137129 0.141892 0.146334 0.150454 0.154252 0.157727 0.160881 0.163713 0.166223 0.168401 0.170236 0.171729 0.172879 0.173687 0.174152 0.174275 0.174055 0.173527 0.172726 0.171651 0.170302 0.16868 0.166784 0.164615 0.162172 0.159512 0.156692 0.153713 0.150574 0.147275 0.143816 0.140197 0.136418 0.132538 0.128615 0.124649 0.12064 0.116588 0.112493 0.108354 0.104173 0.0999938 0.0958621 0.091778 0.0877413 0.0837521 0.0798104 0.0759162 0.0720695 0.0682961 0.0646218 0.0610466 0.0575706 0.0541936 0.0509159 0.0477372 0.0446577 0.0416851 0.0388271 0.0360838 0.0334551 0.0309411 0.0285417 0.0262569 0.0240869 0.0220272 0.0200738 0.0182266 0.0164857 0.0148509 0.0133224 0.0119001 0.0105841 0.00936431 0.00823094 0.00718394 0.00622333 0.0053491 0.00456125 0.00385978 0.00324469 0.00270106 0.00221396 0.00178339 0.00140936 0.00109186 0.000830889 0.000626453 0.000478549 0.000366389 0.000269184 0.000186933 0.000119637 6.7296e-05 2.99093e-05 7.47733e-06 0 0 0.000192015 0.000768062 0.00172814 0.00307225 0.00480039 0.00691256 0.00940876 0.012289 0.0155716 0.0192749 0.0233988 0.0279435 0.0329089 0.0382949 0.0441016 0.0503291 0.0568157 0.0634 0.070082 0.0768617 0.0837391 0.0907142 0.097787 0.104957 0.112075 0.11899 0.125701 0.132208 0.138513 0.144614 0.150512 0.156206 0.161617 0.166662 0.171343 0.175659 0.17961 0.183196 0.186418 0.189274 0.191754 0.193846 0.195548 0.196863 0.197789 0.198326 0.198475 0.198235 0.197646 0.196746 0.195535 0.194013 0.19218 0.190036 0.187581 0.184816 0.181804 0.178609 0.175233 0.171674 0.167933 0.16401 0.159904 0.155616 0.151213 0.146759 0.142256 0.137702 0.133099 0.128446 0.123744 0.118991 0.11424 0.109542 0.104898 0.100306 0.0957676 0.0912822 0.0868499 0.0824707 0.0781741 0.0739896 0.0699172 0.0659569 0.0621087 0.0583726 0.0547487 0.0512368 0.047846 0.0445852 0.0414546 0.038454 0.0355835 0.0328431 0.0302327 0.0277524 0.0253975 0.0231633 0.0210497 0.0190569 0.0171847 0.0154332 0.0138024 0.0122923 0.0108915 0.00958896 0.00838453 0.00727825 0.00627011 0.00536011 0.00454826 0.00383455 0.00320227 0.00263469 0.00213182 0.00169365 0.00132019 0.00101142 0.000767365 0.00058801 0.000450195 0.000330756 0.000229691 0.000147003 8.26889e-05 3.67506e-05 9.18766e-06 0 0 0.000218737 0.000874946 0.00196863 0.00349978 0.00546841 0.00787451 0.0107181 0.0139991 0.0177339 0.0219386 0.0266132 0.0317578 0.0373723 0.0434567 0.0500111 0.0570354 0.0643483 0.0717685 0.0792959 0.0869306 0.0946726 0.102522 0.110478 0.118542 0.126545 0.13432 0.141866 0.149183 0.156273 0.163133 0.169765 0.176169 0.182253 0.187928 0.193194 0.19805 0.202497 0.206535 0.210163 0.213381 0.216177 0.218536 0.220459 0.221946 0.222996 0.22361 0.223787 0.223529 0.222877 0.221875 0.220524 0.218823 0.216772 0.214371 0.211621 0.208521 0.205143 0.20156 0.19777 0.193776 0.189575 0.185169 0.180557 0.17574 0.170791 0.165785 0.160722 0.155602 0.150425 0.14519 0.139899 0.134551 0.129203 0.123915 0.118685 0.113514 0.108402 0.103348 0.0983535 0.0934177 0.0885741 0.083856 0.0792634 0.0747964 0.0704549 0.0662389 0.0621484 0.0581835 0.0543543 0.0506713 0.0471345 0.0437437 0.040499 0.0374005 0.034448 0.0316417 0.0289763 0.0264467 0.0240528 0.0217947 0.0196723 0.0176856 0.0158347 0.0141196 0.0125275 0.0110458 0.00967459 0.00841376 0.00726335 0.00622335 0.00529377 0.00447461 0.00374731 0.00309335 0.0025127 0.00200539 0.0015714 0.00121074 0.000923401 0.00070939 0.000543127 0.000399032 0.000277105 0.000177347 9.9758e-05 4.43369e-05 1.10842e-05 0 0 0.000246371 0.000985482 0.00221734 0.00394193 0.00615927 0.00886934 0.0120722 0.0157677 0.0199697 0.0246919 0.0299342 0.0356966 0.0419792 0.048782 0.0561048 0.0639479 0.0721093 0.0803872 0.0887818 0.0972929 0.105921 0.114665 0.123526 0.132503 0.141411 0.150066 0.158465 0.16661 0.174501 0.182138 0.18952 0.196648 0.203421 0.209739 0.215602 0.22101 0.225964 0.230462 0.234506 0.238095 0.241214 0.243848 0.245996 0.24766 0.248838 0.249532 0.24974 0.249463 0.248749 0.247646 0.246153 0.244271 0.242 0.239339 0.236289 0.232849 0.2291 0.225122 0.220913 0.216475 0.211807 0.206909 0.201782 0.196425 0.19092 0.185351 0.179717 0.174019 0.168256 0.162428 0.156536 0.150579 0.144622 0.138729 0.132901 0.127137 0.121438 0.115803 0.110233 0.104726 0.0993222 0.0940571 0.0889311 0.0839442 0.0790964 0.0743877 0.0698181 0.0653877 0.061108 0.0569907 0.0530359 0.0492436 0.0456137 0.0421462 0.0388412 0.0356987 0.0327129 0.0298782 0.0271947 0.0246622 0.0222809 0.0200507 0.0179716 0.0160437 0.0142527 0.0125848 0.0110397 0.0096177 0.00831861 0.00714248 0.00608931 0.00515911 0.00433152 0.0035862 0.00292316 0.0023424 0.00184391 0.0014277 0.00109376 0.000842098 0.000644732 0.00047368 0.000328945 0.000210525 0.00011842 5.26312e-05 1.31578e-05 0 0 0.000274918 0.00109967 0.00247426 0.00439868 0.00687294 0.00989704 0.013471 0.0175947 0.0222791 0.0275347 0.0333617 0.03976 0.0467297 0.0542706 0.0623829 0.0710665 0.0800985 0.0892562 0.0985395 0.107948 0.117483 0.127143 0.136929 0.14684 0.156674 0.166227 0.175499 0.18449 0.193199 0.201628 0.209776 0.217643 0.225119 0.232093 0.238566 0.244539 0.25001 0.254979 0.259448 0.263415 0.266865 0.269779 0.272159 0.274005 0.275315 0.276092 0.276333 0.27604 0.275264 0.274059 0.272424 0.270359 0.267864 0.26494 0.261586 0.257802 0.253676 0.249296 0.244661 0.239772 0.234628 0.22923 0.223578 0.217671 0.211601 0.205458 0.199243 0.192954 0.186594 0.18016 0.173654 0.167076 0.160496 0.153986 0.147546 0.141176 0.134877 0.128647 0.122487 0.116397 0.110419 0.104593 0.0989202 0.0934003 0.0880333 0.0828191 0.0777578 0.0728493 0.0681069 0.0635434 0.0591591 0.0549538 0.0509275 0.0470804 0.0434123 0.0399232 0.0366071 0.0334578 0.0304753 0.0276596 0.0250106 0.0225285 0.0202131 0.0180645 0.0160672 0.0142057 0.01248 0.0108901 0.00943589 0.0081175 0.00693489 0.00588805 0.00495488 0.00411326 0.0033632 0.00270468 0.00213772 0.00166231 0.00127845 0.000986136 0.00075501 0.000554701 0.000385209 0.000246534 0.000138675 6.16335e-05 1.54084e-05 0 0 0.000304378 0.00121751 0.0027394 0.00487005 0.00760945 0.0109576 0.0149145 0.0194802 0.024662 0.0304672 0.0368959 0.043948 0.0516237 0.0599227 0.0688452 0.0783912 0.0883161 0.0983755 0.108569 0.118897 0.12936 0.139957 0.150689 0.161554 0.172333 0.182804 0.192966 0.202821 0.212366 0.221604 0.230533 0.239154 0.247347 0.254991 0.262087 0.268635 0.274634 0.280085 0.284988 0.289342 0.293129 0.296332 0.298949 0.300981 0.302428 0.303289 0.303566 0.303257 0.302421 0.301113 0.299335 0.297085 0.294365 0.291174 0.287511 0.283378 0.27887 0.274081 0.269014 0.263666 0.258039 0.252132 0.245945 0.239479 0.232833 0.226105 0.219297 0.212408 0.205438 0.198386 0.191254 0.184041 0.176826 0.169685 0.162621 0.155631 0.148718 0.141879 0.135116 0.128429 0.121863 0.115463 0.109231 0.103165 0.0972655 0.0915331 0.0859674 0.0805685 0.075351 0.0703294 0.0655038 0.0608742 0.0564405 0.0522029 0.0481612 0.0443154 0.0406591 0.0371855 0.0338947 0.0307866 0.0278614 0.0251189 0.0225591 0.0201822 0.017971 0.0159088 0.0139954 0.0122309 0.0106152 0.00914841 0.00783049 0.00666144 0.00561741 0.00467453 0.00383281 0.00309224 0.00245282 0.00191456 0.00147745 0.0011415 0.000873962 0.000642094 0.000445899 0.000285375 0.000160524 7.13438e-05 1.7836e-05 0 0 0.000334751 0.00133901 0.00301276 0.00535602 0.00836878 0.012051 0.0164028 0.0214241 0.0271184 0.0334892 0.0405367 0.0482606 0.0566612 0.0657382 0.0754919 0.0859221 0.096762 0.107745 0.118871 0.13014 0.141552 0.153106 0.164804 0.176645 0.188389 0.199797 0.210868 0.221604 0.232003 0.242065 0.251792 0.261182 0.270106 0.278434 0.286165 0.2933 0.299838 0.30578 0.311126 0.315875 0.320008 0.323504 0.326364 0.328588 0.330175 0.331125 0.331439 0.331117 0.33022 0.32881 0.326887 0.324451 0.321502 0.31804 0.314066 0.309578 0.304681 0.299479 0.293971 0.288158 0.282039 0.275614 0.268884 0.261849 0.254616 0.247293 0.239881 0.232379 0.224787 0.217106 0.209336 0.201475 0.193611 0.185827 0.178124 0.170502 0.162961 0.155501 0.148121 0.140823 0.133655 0.126669 0.119863 0.113237 0.106793 0.10053 0.094447 0.0885452 0.0828403 0.0773487 0.0720702 0.0670048 0.0621527 0.0575137 0.0530879 0.0488753 0.0448687 0.0410613 0.0374528 0.0340435 0.0308332 0.0278219 0.0250097 0.0223966 0.0199641 0.0176939 0.0155858 0.0136401 0.0118565 0.0102352 0.00877613 0.00747928 0.0063191 0.00527001 0.00433199 0.00350507 0.00278922 0.00218446 0.00169079 0.0013082 0.00100159 0.00073586 0.000511014 0.000327049 0.000183965 8.17622e-05 2.04406e-05 0 0 0.000366038 0.00146415 0.00329434 0.0058566 0.00915094 0.0131774 0.0179358 0.0234264 0.0296483 0.0366009 0.044284 0.0526978 0.0618422 0.0717172 0.0823228 0.093659 0.105436 0.117365 0.129444 0.141675 0.154057 0.166591 0.179276 0.192112 0.204841 0.217205 0.229204 0.240838 0.252108 0.263012 0.273552 0.283726 0.293396 0.30242 0.310799 0.318533 0.325621 0.332064 0.337862 0.343015 0.347501 0.351298 0.354406 0.356826 0.358557 0.359599 0.359953 0.359618 0.35866 0.357148 0.355079 0.352455 0.349275 0.34554 0.341249 0.336402 0.331111 0.325489 0.319534 0.313247 0.306628 0.299678 0.292395 0.28478 0.27695 0.269021 0.260994 0.252868 0.244644 0.23632 0.227899 0.219378 0.210851 0.202411 0.194057 0.185789 0.177607 0.169511 0.161502 0.153579 0.145796 0.138208 0.130816 0.123619 0.116616 0.109809 0.103197 0.0967793 0.0905749 0.0846012 0.0788582 0.0733457 0.068064 0.0630129 0.0581925 0.0536027 0.0492361 0.0450851 0.0411498 0.0374301 0.0339261 0.0306377 0.0275649 0.0247078 0.0220465 0.019561 0.0172514 0.0151177 0.0131599 0.0113779 0.00977179 0.00834157 0.00705996 0.00589969 0.00486076 0.00394317 0.00314692 0.00247201 0.00191844 0.00148622 0.00113789 0.000835998 0.000580554 0.000371555 0.000209 9.28887e-05 2.32222e-05 0 0 0.000398237 0.00159295 0.00358413 0.0063718 0.00995593 0.0143365 0.0195136 0.0254872 0.0322518 0.0398021 0.048138 0.0572595 0.0671667 0.0778595 0.089338 0.101602 0.114339 0.127235 0.14029 0.153504 0.166878 0.180411 0.194103 0.207955 0.221689 0.235029 0.247974 0.260525 0.272682 0.284445 0.295813 0.306787 0.317216 0.326951 0.33599 0.344334 0.351984 0.358938 0.365197 0.370761 0.375607 0.379711 0.383074 0.385694 0.387573 0.388711 0.389106 0.38876 0.387743 0.386127 0.383912 0.381098 0.377685 0.373672 0.36906 0.363849 0.358159 0.35211 0.345702 0.338934 0.331807 0.324322 0.316477 0.308273 0.299836 0.29129 0.282637 0.273875 0.265