<?xml version="1.0"?> 
<VTKFile type="StructuredGrid" version="0.1"> 
<StructuredGrid WholeExtent="0 128 0 128 0 0"> 
<Piece Extent="0 128 0 128 0 0"> 
<PointData>
<DataArray type="Float32" Name="u" format="ascii" NumberOfComponents="1"> 
0 0 0 0 0 0 0 0 0 0 0 0 0 0 0 0 0 0 0 0 0 0 0 0 0 0 0 0 0 0 0 0 0 0 0 0 0 0 0 0 0 0 0 0 0 0 0 0 0 0 0 0 0 0 0 0 0 0 0 0 0 0 0 0 0 0 0 0 0 0 0 0 0 0 0 0 0 0 0 0 0 0 0 0 0 0 0 0 0 0 0 0 0 0 0 0 0 0 0 0 0 0 0 0 0 0 0 0 0 0 0 0 0 0 0 0 0 0 0 0 0 0 0 0 0 0 0 0 0 0 2.10612e-07 8.42446e-07 1.8955e-06 3.36978e-06 5.26529e-06 7.58201e-06 1.032e-05 1.34791e-05 1.71206e-05 2.13056e-05 2.6034e-05 3.13058e-05 3.71211e-05 4.34799e-05 5.03821e-05 5.78277e-05 6.56192e-05 7.35589e-05 8.16468e-05 8.98829e-05 9.82673e-05 0.0001068 0.000115481 0.00012431 0.000133102 0.000141671 0.000150017 0.00015814 0.000166041 0.000173719 0.000181175 0.000188407 0.000195327 0.000201844 0.000207959 0.000213672 0.000218981 0.000223889 0.000228393 0.000232495 0.000236185 0.000239453 0.0002423 0.000244725 0.000246728 0.000248309 0.000249468 0.000250206 0.000250563 0.000250579 0.000250255 0.00024959 0.000248585 0.00024724 0.000245554 0.000243528 0.000241221 0.000238694 0.000235947 0.000232979 0.000229791 0.000226382 0.000222753 0.000218904 0.00021489 0.000210769 0.000206539 0.000202201 0.000197755 0.000193201 0.000188539 0.000183769 0.000178931 0.000174068 0.000169179 0.000164265 0.000159324 0.000154357 0.000149365 0.000144347 0.000139329 0.000134338 0.000129373 0.000124435 0.000119524 0.00011464 0.000109782 0.000104951 0.000100166 9.54441e-05 9.07861e-05 8.61921e-05 8.16619e-05 7.71956e-05 7.27932e-05 6.84546e-05 6.42e-05 6.00492e-05 5.60024e-05 5.20596e-05 4.82207e-05 4.44857e-05 4.08546e-05 3.73275e-05 3.39314e-05 3.06935e-05 2.76138e-05 2.46922e-05 2.19287e-05 1.93234e-05 1.68763e-05 1.45873e-05 1.24706e-05 1.05403e-05 8.79652e-06 7.23912e-06 5.86815e-06 4.68361e-06 3.68551e-06 2.87383e-06 2.20028e-06 1.61653e-06 1.12259e-06 7.18459e-07 4.04133e-07 1.79615e-07 4.49037e-08 0 0 8.42446e-07 3.36978e-06 7.58201e-06 1.34791e-05 2.10612e-05 3.03281e-05 4.12799e-05 5.39165e-05 6.84826e-05 8.52224e-05 0.000104136 0.000125223 0.000148485 0.00017392 0.000201528 0.000231311 0.000262477 0.000294236 0.000326587 0.000359532 0.000393069 0.0004272 0.000461923 0.000497239 0.000532406 0.000566682 0.000600067 0.000632562 0.000664165 0.000694877 0.000724698 0.000753629 0.000781308 0.000807378 0.000831837 0.000854686 0.000875925 0.000895554 0.000913573 0.000929981 0.000944741 0.000957814 0.0009692 0.000978898 0.00098691 0.000993235 0.000997873 0.00100082 0.00100225 0.00100232 0.00100102 0.000998361 0.000994341 0.000988959 0.000982216 0.000974111 0.000964884 0.000954776 0.000943786 0.000931915 0.000919163 0.000905528 0.000891013 0.000875616 0.000859561 0.000843075 0.000826156 0.000808805 0.000791021 0.000772805 0.000754156 0.000735075 0.000715726 0.000696274 0.000676718 0.000657058 0.000637296 0.000617429 0.00059746 0.000577387 0.000557315 0.00053735 0.000517493 0.000497742 0.000478098 0.00045856 0.00043913 0.000419806 0.000400663 0.000381776 0.000363145 0.000344768 0.000326648 0.000308783 0.000291173 0.000273818 0.0002568 0.000240197 0.00022401 0.000208238 0.000192883 0.000177943 0.000163418 0.00014931 0.000135726 0.000122774 0.000110455 9.87686e-05 8.77149e-05 7.72937e-05 6.75051e-05 5.83492e-05 4.98824e-05 4.21614e-05 3.51861e-05 2.89565e-05 2.34726e-05 1.87345e-05 1.4742e-05 1.14953e-05 8.80112e-06 6.46613e-06 4.49037e-06 2.87383e-06 1.61653e-06 7.18459e-07 1.79615e-07 0 0 1.8955e-06 7.58201e-06 1.70595e-05 3.03281e-05 4.73876e-05 6.82381e-05 9.28797e-05 0.000121312 0.000154086 0.00019175 0.000234306 0.000281753 0.00033409 0.000391319 0.000453439 0.000520449 0.000590573 0.00066203 0.000734821 0.000808947 0.000884406 0.000961199 0.00103933 0.00111879 0.00119791 0.00127504 0.00135015 0.00142326 0.00149437 0.00156347 0.00163057 0.00169566 0.00175794 0.0018166 0.00187163 0.00192304 0.00197083 0.002015 0.00205554 0.00209246 0.00212567 0.00215508 0.0021807 0.00220252 0.00222055 0.00223478 0.00224521 0.00225185 0.00225506 0.00225521 0.00225229 0.00224631 0.00223727 0.00222516 0.00220999 0.00219175 0.00217099 0.00214825 0.00212352 0.00209681 0.00206812 0.00203744 0.00200478 0.00197014 0.00193401 0.00189692 0.00185885 0.00181981 0.0017798 0.00173881 0.00169685 0.00165392 0.00161038 0.00156662 0.00152261 0.00147838 0.00143392 0.00138922 0.00134428 0.00129912 0.00125396 0.00120904 0.00116436 0.00111992 0.00107572 0.00103176 0.000988042 0.000944563 0.000901492 0.000858996 0.000817075 0.000775729 0.000734957 0.000694761 0.000655139 0.000616092 0.0005778 0.000540443 0.000504022 0.000468536 0.000433986 0.000400371 0.000367692 0.000335948 0.000305383 0.000276242 0.000248524 0.000222229 0.000197358 0.000173911 0.000151887 0.000131286 0.000112235 9.48631e-05 7.91686e-05 6.51521e-05 5.28134e-05 4.21525e-05 3.31696e-05 2.58645e-05 1.98025e-05 1.45488e-05 1.01033e-05 6.46613e-06 3.6372e-06 1.61653e-06 4.04133e-07 0 0 3.36978e-06 1.34791e-05 3.03281e-05 5.39165e-05 8.42446e-05 0.000121312 0.000165119 0.000215666 0.00027393 0.00034089 0.000416544 0.000500894 0.000593938 0.000695678 0.000806113 0.000925243 0.00104991 0.00117694 0.00130635 0.00143813 0.00157228 0.0017088 0.00184769 0.00198896 0.00212962 0.00226673 0.00240027 0.00253025 0.00265666 0.00277951 0.00289879 0.00301451 0.00312523 0.00322951 0.00332735 0.00341875 0.0035037 0.00358222 0.00365429 0.00371992 0.00377896 0.00383125 0.0038768 0.00391559 0.00394764 0.00397294 0.00399149 0.0040033 0.004009 0.00400926 0.00400408 0.00399344 0.00397736 0.00395584 0.00392886 0.00389644 0.00385954 0.0038191 0.00377515 0.00372766 0.00367665 0.00362211 0.00356405 0.00350246 0.00343825 0.0033723 0.00330462 0.00323522 0.00316408 0.00309122 0.00301662 0.0029403 0.0028629 0.00278509 0.00270687 0.00262823 0.00254918 0.00246972 0.00238984 0.00230955 0.00222926 0.0021494 0.00206997 0.00199097 0.00191239 0.00183424 0.00175652 0.00167922 0.00160265 0.0015271 0.00145258 0.00137907 0.00130659 0.00123513 0.00116469 0.00109527 0.0010272 0.000960788 0.000896039 0.000832953 0.00077153 0.000711771 0.000653674 0.00059724 0.000542903 0.000491096 0.00044182 0.000395075 0.000350859 0.000309175 0.00027002 0.000233397 0.00019953 0.000168646 0.000140744 0.000115826 9.38904e-05 7.49378e-05 5.89681e-05 4.59814e-05 3.52045e-05 2.58645e-05 1.79615e-05 1.14953e-05 6.46613e-06 2.87383e-06 7.18459e-07 0 0 5.26529e-06 2.10612e-05 4.73876e-05 8.42446e-05 0.000131632 0.00018955 0.000257999 0.000336978 0.000428016 0.00053264 0.00065085 0.000782646 0.000928029 0.001087 0.00125955 0.00144569 0.00164048 0.00183897 0.00204117 0.00224707 0.00245668 0.00267 0.00288702 0.00310774 0.00332754 0.00354176 0.00375042 0.00395351 0.00415103 0.00434298 0.00452936 0.00471018 0.00488318 0.00504611 0.00519898 0.00534179 0.00547453 0.00559721 0.00570983 0.00581238 0.00590463 0.00598634 0.0060575 0.00611811 0.00616819 0.00620772 0.00623671 0.00625515 0.00626407 0.00626448 0.00625637 0.00623976 0.00621463 0.006181 0.00613885 0.00608819 0.00603053 0.00596735 0.00589867 0.00582447 0.00574477 0.00565955 0.00556883 0.0054726 0.00537226 0.00526922 0.00516347 0.00505503 0.00494388 0.00483003 0.00471347 0.00459422 0.00447329 0.00435171 0.00422949 0.00410661 0.0039831 0.00385893 0.00373412 0.00360867 0.00348322 0.00335844 0.00323433 0.00311089 0.00298811 0.002866 0.00274456 0.00262379 0.00250415 0.0023861 0.00226965 0.0021548 0.00204155 0.00192989 0.00181983 0.00171137 0.001605 0.00150123 0.00140006 0.00130149 0.00120552 0.00111214 0.00102137 0.000933188 0.000848286 0.000767338 0.000690344 0.000617304 0.000548218 0.000483085 0.000421907 0.000364682 0.000311765 0.000263509 0.000219913 0.000180978 0.000146704 0.00011709 9.21377e-05 7.18459e-05 5.5007e-05 4.04133e-05 2.80648e-05 1.79615e-05 1.01033e-05 4.49037e-06 1.12259e-06 0 0 7.58201e-06 3.03281e-05 6.82381e-05 0.000121312 0.00018955 0.000272953 0.000371519 0.000485249 0.000616343 0.000767002 0.000937224 0.00112701 0.00133636 0.00156528 0.00181375 0.0020818 0.00236229 0.00264812 0.00293928 0.00323579 0.00353762 0.0038448 0.00415731 0.00447515 0.00479166 0.00510014 0.00540061 0.00569305 0.00597748 0.00625389 0.00652229 0.00678266 0.00703178 0.0072664 0.00748654 0.00769218 0.00788333 0.00805999 0.00822215 0.00836983 0.00850267 0.00862032 0.0087228 0.00881009 0.00888219 0.00893912 0.00898086 0.00900742 0.00902026 0.00902084 0.00900917 0.00898525 0.00894907 0.00890063 0.00883994 0.008767 0.00868396 0.00859299 0.00849408 0.00838724 0.00827246 0.00814976 0.00801911 0.00788054 0.00773605 0.00758767 0.0074354 0.00727924 0.00711919 0.00695524 0.0067874 0.00661567 0.00644153 0.00626646 0.00609046 0.00591352 0.00573566 0.00555686 0.00537714 0.00519648 0.00501584 0.00483615 0.00465743 0.00447968 0.00430288 0.00412704 0.00395217 0.00377825 0.00360597 0.00343599 0.0032683 0.00310292 0.00293983 0.00277904 0.00262055 0.00246437 0.0023112 0.00216177 0.00201609 0.00187414 0.00173594 0.00160148 0.00147077 0.00134379 0.00122153 0.00110497 0.000994096 0.000888918 0.000789434 0.000695643 0.000607546 0.000525143 0.000448942 0.000379452 0.000316675 0.000260608 0.000211253 0.00016861 0.000132678 0.000103458 7.92101e-05 5.81952e-05 4.04133e-05 2.58645e-05 1.45488e-05 6.46613e-06 1.61653e-06 0 0 1.032e-05 4.12799e-05 9.28797e-05 0.000165119 0.000257999 0.000371519 0.000505678 0.000660478 0.000838912 0.00104397 0.00127567 0.00153399 0.00181894 0.00213051 0.00246872 0.00283356 0.00321534 0.00360439 0.00400069 0.00440426 0.0048151 0.0052332 0.00565856 0.00609118 0.00652198 0.00694186 0.00735083 0.00774888 0.00813602 0.00851224 0.00887756 0.00923195 0.00957103 0.00989038 0.01019 0.0104699 0.0107301 0.0109705 0.0111913 0.0113923 0.0115731 0.0117332 0.0118727 0.0119915 0.0120897 0.0121671 0.0122239 0.0122601 0.0122776 0.0122784 0.0122625 0.0122299 0.0121807 0.0121148 0.0120321 0.0119329 0.0118198 0.011696 0.0115614 0.011416 0.0112597 0.0110927 0.0109149 0.0107263 0.0105296 0.0103277 0.0101204 0.00990786 0.00969 0.00946686 0.00923841 0.00900467 0.00876764 0.00852935 0.00828979 0.00804896 0.00780687 0.00756351 0.00731888 0.00707299 0.00682711 0.00658254 0.00633929 0.00609734 0.00585669 0.00561736 0.00537934 0.00514262 0.00490813 0.00467676 0.00444852 0.00422341 0.00400143 0.00378259 0.00356687 0.00335428 0.0031458 0.00294241 0.00274412 0.00255092 0.00236281 0.0021798 0.00200188 0.00182905 0.00166264 0.00150398 0.00135307 0.00120992 0.00107451 0.000946848 0.000826938 0.000714778 0.00061106 0.000516477 0.000431029 0.000354717 0.000287539 0.000229497 0.00018059 0.000140818 0.000107814 7.92101e-05 5.5007e-05 3.52045e-05 1.98025e-05 8.80112e-06 2.20028e-06 0 0 1.34791e-05 5.39165e-05 0.000121312 0.000215666 0.000336978 0.000485249 0.000660478 0.000862665 0.00109572 0.00136356 0.00166618 0.00200357 0.00237575 0.00278271 0.00322445 0.00370097 0.00419963 0.00470777 0.0052254 0.00575251 0.00628911 0.00683519 0.00739077 0.00795582 0.0085185 0.00906692 0.00960108 0.010121 0.0106266 0.011118 0.0115952 0.0120581 0.0125009 0.012918 0.0133094 0.013675 0.0140148 0.0143289 0.0146172 0.0148797 0.0151159 0.015325 0.0155072 0.0156624 0.0157906 0.0158918 0.015966 0.0160132 0.016036 0.0160371 0.0160163 0.0159738 0.0159095 0.0158234 0.0157155 0.0155858 0.0154381 0.0152764 0.0151006 0.0149106 0.0147066 0.0144885 0.0142562 0.0140098 0.013753 0.0134892 0.0132185 0.0129409 0.0126563 0.0123649 0.0120665 0.0117612 0.0114516 0.0111404 0.0108275 0.0105129 0.0101967 0.00987887 0.00955935 0.00923818 0.00891704 0.00859761 0.00827988 0.00796387 0.00764956 0.00733696 0.00702607 0.00671689 0.00641061 0.00610842 0.00581031 0.00551629 0.00522636 0.00494052 0.00465876 0.0043811 0.0041088 0.00384315 0.00358416 0.00333181 0.00308612 0.00284708 0.0026147 0.00238896 0.00217161 0.00196439 0.00176728 0.0015803 0.00140344 0.0012367 0.00108008 0.000933587 0.000798119 0.000674582 0.000562977 0.000463304 0.000375562 0.000299751 0.000235873 0.000183925 0.000140818 0.000103458 7.18459e-05 4.59814e-05 2.58645e-05 1.14953e-05 2.87383e-06 0 0 1.71465e-05 6.8586e-05 0.000154319 0.000274344 0.000428663 0.000617274 0.000840179 0.00109738 0.00139366 0.00173381 0.00211783 0.00254573 0.0030175 0.00353314 0.00409265 0.00469604 0.00532731 0.00597051 0.00662562 0.00729264 0.00797158 0.00866243 0.0093652 0.0100799 0.0107915 0.0114851 0.0121608 0.0128184 0.0134579 0.0140795 0.0146831 0.0152686 0.0158289 0.0163566 0.0168518 0.0173144 0.0177444 0.0181419 0.0185069 0.0188393 0.0191384 0.0194033 0.0196341 0.0198308 0.0199933 0.0201218 0.0202161 0.0202763 0.0203056 0.0203073 0.0202815 0.0202282 0.0201472 0.0200387 0.0199026 0.0197389 0.0195525 0.0193483 0.0191261 0.0188861 0.0186282 0.0183525 0.0180589 0.0177474 0.0174226 0.017089 0.0167466 0.0163954 0.0160355 0.0156667 0.0152892 0.0149029 0.0145111 0.0141172 0.0137212 0.0133231 0.0129229 0.0125205 0.012116 0.0117094 0.0113028 0.0108984 0.0104961 0.010096 0.00969799 0.00930216 0.00890847 0.00851693 0.00812906 0.00774635 0.00736881 0.00699645 0.00662925 0.00626722 0.00591036 0.00555867 0.00521377 0.00487728 0.0045492 0.00422953 0.00391828 0.00361544 0.00332101 0.00303499 0.00275956 0.00249692 0.00224706 0.00200997 0.00178567 0.00157415 0.00137541 0.00118945 0.00101742 0.000860476 0.000718616 0.000591841 0.00048015 0.000383543 0.000302021 0.000235583 0.000180368 0.000132515 9.20246e-05 5.88957e-05 3.31289e-05 1.47239e-05 3.68098e-06 0 0 2.14091e-05 8.56362e-05 0.000192682 0.000342545 0.000535227 0.000770726 0.00104904 0.00137018 0.0017396 0.00216278 0.00263972 0.00317041 0.00375486 0.00439306 0.00508502 0.00583073 0.00661056 0.00740484 0.00821358 0.00903678 0.00987444 0.0107266 0.0115931 0.0124742 0.0133514 0.0142064 0.0150393 0.01585 0.0166385 0.0174049 0.0181492 0.0188713 0.0195623 0.0202132 0.0208242 0.021395 0.0219259 0.0224167 0.0228675 0.0232782 0.0236479 0.0239756 0.0242613 0.0245049 0.0247064 0.0248659 0.0249834 0.0250589 0.0250963 0.0250997 0.0250691 0.0250044 0.0249057 0.0247729 0.0246062 0.0244054 0.0241765 0.0239255 0.0236524 0.0233572 0.0230399 0.0227004 0.0223388 0.0219551 0.0215549 0.0211437 0.0207217 0.0202887 0.0198447 0.0193899 0.0189241 0.0184474 0.0179638 0.0174776 0.0169887 0.0164972 0.0160029 0.015506 0.0150063 0.014504 0.0140017 0.013502 0.0130049 0.0125104 0.0120185 0.0115293 0.0110426 0.0105586 0.0100791 0.00960594 0.00913916 0.00867875 0.00822472 0.00777705 0.00733576 0.00690083 0.00647428 0.00605809 0.00565226 0.00525679 0.0048717 0.00449696 0.00413259 0.00377859 0.00343761 0.00311233 0.00280274 0.00250885 0.00223066 0.00196815 0.00172135 0.00149024 0.00127626 0.00108087 0.000904045 0.000745801 0.000606134 0.000485043 0.00038253 0.000298593 0.00022861 0.000167959 0.000116638 7.46482e-05 4.19896e-05 1.86621e-05 4.66552e-06 0 0 2.62668e-05 0.000105067 0.000236401 0.000420269 0.00065667 0.000945604 0.00128707 0.00168107 0.00213356 0.00265048 0.00323183 0.00387761 0.00458783 0.00536247 0.00620156 0.00710507 0.00804936 0.00901076 0.00998929 0.0109849 0.0119977 0.0130276 0.0140746 0.0151387 0.016198 0.0172306 0.0182366 0.0192158 0.0201684 0.0210943 0.0219935 0.022866 0.0237011 0.0244879 0.0252266 0.025917 0.0265592 0.0271532 0.027699 0.0281965 0.0286446 0.029042 0.0293886 0.0296846 0.0299298 0.0301243 0.030268 0.0303611 0.0304082 0.0304141 0.0303789 0.0303025 0.0301849 0.0300262 0.0298263 0.0295853 0.0293102 0.0290083 0.0286795 0.0283239 0.0279415 0.0275322 0.027096 0.026633 0.0261499 0.0256535 0.0251437 0.0246205 0.0240841 0.0235343 0.0229711 0.0223946 0.0218097 0.0212215 0.02063 0.0200351 0.0194369 0.0188353 0.0182303 0.017622 0.0170136 0.0164083 0.0158061 0.0152071 0.0146111 0.0140183 0.0134285 0.0128419 0.0122607 0.0116872 0.0111214 0.0105632 0.0100128 0.00947002 0.00893496 0.00840759 0.00789033 0.00738557 0.00689333 0.00641359 0.00594637 0.00549165 0.00504945 0.00461976 0.00420575 0.00381061 0.00343434 0.00307693 0.00273839 0.00241871 0.0021179 0.00183596 0.00157465 0.00133575 0.00111926 0.000925184 0.000753513 0.000604251 0.000477399 0.000372955 0.000285544 0.000209787 0.000145686 9.32388e-05 5.24468e-05 2.33097e-05 5.82743e-06 0 0 3.17197e-05 0.000126879 0.000285477 0.000507515 0.000792992 0.00114191 0.00155427 0.00203006 0.00257553 0.00319689 0.00389416 0.00466734 0.00551641 0.00644138 0.00744226 0.00851904 0.00964372 0.0107883 0.0119527 0.0131371 0.0143413 0.0155655 0.0168095 0.0180734 0.0193314 0.0205579 0.0217527 0.022916 0.0240476 0.0251476 0.0262161 0.0272529 0.0282453 0.0291807 0.030059 0.0308802 0.0316443 0.0323514 0.0330013 0.0335942 0.0341284 0.0346024 0.0350162 0.0353699 0.0356634 0.0358967 0.0360698 0.0361828 0.0362411 0.0362505 0.036211 0.0361224 0.0359849 0.0357984 0.0355629 0.0352785 0.0349535 0.0345965 0.0342074 0.0337863 0.0333331 0.0328478 0.0323305 0.0317811 0.0312076 0.0306182 0.0300127 0.0293911 0.0287535 0.0280999 0.0274303 0.0267446 0.0260489 0.025349 0.024645 0.0239369 0.0232247 0.0225084 0.021788 0.0210634 0.0203386 0.0196174 0.0188999 0.018186 0.0174758 0.0167692 0.0160662 0.0153669 0.0146739 0.0139901 0.0133154 0.0126498 0.0119934 0.0113461 0.010708 0.0100789 0.00946192 0.00885974 0.00827241 0.00769993 0.0071423 0.00659951 0.00607158 0.0055585 0.00506399 0.00459177 0.00414185 0.00371421 0.00330887 0.00292582 0.00256507 0.00222661 0.00191258 0.00162514 0.00136427 0.00112999 0.000922288 0.000741167 0.000586628 0.00045867 0.000351169 0.000258002 0.000179168 0.000114668 6.45005e-05 2.86669e-05 7.16672e-06 0 0 3.77678e-05 0.000151071 0.00033991 0.000604285 0.000944195 0.00135964 0.00185062 0.00241714 0.0030655 0.00380203 0.00462673 0.00553959 0.00654061 0.00762979 0.00880714 0.0100726 0.0113936 0.0127374 0.0141039 0.0154933 0.0169054 0.0183402 0.0197979 0.0212783 0.0227517 0.0241881 0.0255877 0.0269503 0.0282761 0.0295649 0.0308168 0.0320318 0.033195 0.0342916 0.0353215 0.0362847 0.0371813 0.0380113 0.0387745 0.0394711 0.0400992 0.0406569 0.0411441 0.0415609 0.0419073 0.0421833 0.0423889 0.0425241 0.0425953 0.042609 0.0425654 0.0424642 0.0423056 0.0420896 0.041816 0.0414851 0.0411065 0.0406902 0.0402361 0.0397442 0.0392146 0.0386473 0.0380422 0.0373993 0.0367281 0.0360378 0.0353286 0.0346003 0.0338531 0.0330869 0.0323016 0.0314974 0.0306812 0.02986 0.0290338 0.0282026 0.0273665 0.0265254 0.0256792 0.0248281 0.0239767 0.0231293 0.0222862 0.0214473 0.0206125 0.019782 0.0189556 0.0181334 0.0173187 0.0165146 0.0157213 0.0149386 0.0141666 0.0134054 0.0126548 0.0119149 0.0111891 0.0104806 0.0097895 0.0091158 0.00845948 0.00782054 0.00719899 0.00659482 0.00601232 0.00545581 0.00492526 0.0044207 0.0039421 0.00348949 0.00306285 0.00266218 0.00229005 0.00194901 0.00163907 0.00136022 0.00111246 0.000895792 0.000710218 0.000555737 0.000425486 0.000312602 0.000217085 0.000138934 7.81506e-05 3.47336e-05 8.6834e-06 0 0 4.4411e-05 0.000177644 0.000399699 0.000710577 0.00111028 0.0015988 0.00217614 0.00284231 0.00360349 0.0044659 0.00542952 0.00649436 0.00766041 0.00892769 0.0102962 0.0117659 0.0132991 0.0148581 0.0164429 0.0180534 0.0196898 0.0213519 0.0230398 0.0247535 0.0264587 0.0281214 0.0297415 0.031319 0.0328538 0.0343461 0.0357958 0.0372029 0.0385502 0.0398205 0.041014 0.0421305 0.0431702 0.0441329 0.0450186 0.0458275 0.0465571 0.0472054 0.0477722 0.0482576 0.0486615 0.0489841 0.0492252 0.0493849 0.0494705 0.0494896 0.049442 0.0493279 0.0491471 0.0488997 0.0485857 0.048205 0.0477691 0.0472893 0.0467655 0.0461978 0.0455862 0.0449306 0.0442312 0.0434877 0.0427112 0.0419125 0.0410915 0.0402483 0.0393828 0.0384951 0.0375852 0.036653 0.0357067 0.0347545 0.0337963 0.0328322 0.0318622 0.0308861 0.0299042 0.0289163 0.0279278 0.026944 0.0259651 0.0249908 0.0240214 0.0230567 0.0220968 0.0211416 0.020195 0.0192608 0.018339 0.0174295 0.0165325 0.0156477 0.0147754 0.0139154 0.0130717 0.0122481 0.0114446 0.0106612 0.00989792 0.00915474 0.00843167 0.00772871 0.00705075 0.00640271 0.00578459 0.00519638 0.00463809 0.00410971 0.00361124 0.00314269 0.00270707 0.00230739 0.00194366 0.00161587 0.00132402 0.00106812 0.000848168 0.000664157 0.000508495 0.000373588 0.000259436 0.000166039 9.33971e-05 4.15098e-05 1.03775e-05 0 0 5.16495e-05 0.000206598 0.000464845 0.000826392 0.00129124 0.00185938 0.00253083 0.00330557 0.00418949 0.00518848 0.00630253 0.00753165 0.00887584 0.0103351 0.0119094 0.0135988 0.0153601 0.0171504 0.0189696 0.0208176 0.0226946 0.0246004 0.0265352 0.0284988 0.0304526 0.0323577 0.0342141 0.0360218 0.0377809 0.0394913 0.041153 0.042766 0.0443107 0.0457676 0.0471365 0.0484176 0.0496108 0.0507161 0.0517336 0.0526631 0.0535021 0.0542479 0.0549005 0.0554599 0.055926 0.056299 0.0565787 0.0567653 0.056867 0.0568922 0.056841 0.0567134 0.0565093 0.0562288 0.0558718 0.0554384 0.0549414 0.0543939 0.0537958 0.0531471 0.0524478 0.0516979 0.0508974 0.0500463 0.0491571 0.0482421 0.0473013 0.0463348 0.0453426 0.0443246 0.0432808 0.0422113 0.0411254 0.0400325 0.0389326 0.0378257 0.0367117 0.0355908 0.0344628 0.0333278 0.0321919 0.0310615 0.0299364 0.0288167 0.0277023 0.0265933 0.0254897 0.0243915 0.023303 0.0222287 0.0211686 0.0201226 0.0190909 0.0180733 0.0170698 0.0160806 0.0151099 0.0141623 0.0132377 0.0123362 0.0114576 0.0106021 0.00976963 0.00896017 0.00817928 0.0074325 0.00671983 0.00604127 0.00539682 0.00478648 0.00421025 0.00366812 0.00316363 0.00270026 0.00227803 0.00189694 0.00155699 0.00125816 0.00100048 0.000783929 0.000600196 0.00044096 0.000306222 0.000195982 0.00011024 4.89956e-05 1.22489e-05 0 0 5.94831e-05 0.000237932 0.000535348 0.00095173 0.00148708 0.00214139 0.00291467 0.00380692 0.0048235 0.00596979 0.00724578 0.00865147 0.0101869 0.011852 0.0136468 0.0155713 0.0175767 0.0196143 0.021684 0.0237858 0.0259198 0.0280858 0.0302841 0.0325144 0.0347333 0.036897 0.0390055 0.0410589 0.0430572 0.0450004 0.0468884 0.0487212 0.0504767 0.0521327 0.0536891 0.055146 0.0565033 0.0577612 0.0589194 0.0599781 0.0609342 0.0617845 0.062529 0.0631678 0.0637008 0.064128 0.0644495 0.0646652 0.0647845 0.0648169 0.0647623 0.0646208 0.0643923 0.0640768 0.0636744 0.0631851 0.0626234 0.0620039 0.0613268 0.0605919 0.0597993 0.0589489 0.0580409 0.0570751 0.0560656 0.0550267 0.0539581 0.0528601 0.0517325 0.0505754 0.0493887 0.0481725 0.0469374 0.0456941 0.0444427 0.043183 0.0419152 0.0406392 0.039355 0.0380627 0.0367692 0.0354817 0.0342003 0.0329248 0.0316553 0.0303919 0.0291344 0.0278829 0.0266425 0.0254182 0.02421 0.0230179 0.0218418 0.0206819 0.0195381 0.0184103 0.0173037 0.0162232 0.0151689 0.0141406 0.0131386 0.0121626 0.0112129 0.0102892 0.0093979 0.00854516 0.00773098 0.00695536 0.0062183 0.0055198 0.00485986 0.00423849 0.00365973 0.00312763 0.0026422 0.00220344 0.00181134 0.00146591 0.00116715 0.000915053 0.000700588 0.000514717 0.000357443 0.000228763 0.000128679 5.71908e-05 1.42977e-05 0 0 6.77515e-05 0.000271006 0.000609764 0.00108402 0.00169379 0.00243906 0.00331983 0.0043361 0.00549256 0.00679391 0.00824014 0.00983125 0.0115672 0.0134481 0.0154739 0.0176445 0.0199053 0.0222014 0.024533 0.0268999 0.0293023 0.03174 0.0342131 0.0367217 0.0392169 0.0416503 0.0440219 0.0463315 0.0485793 0.0507652 0.0528892 0.0549513 0.0569267 0.0587904 0.0605424 0.0621828 0.0637116 0.0651287 0.0664341 0.0676279 0.0687065 0.0696662 0.0705071 0.0712291 0.0718323 0.0723167 0.0726822 0.0729289 0.0730672 0.0731076 0.07305 0.0728946 0.0726412 0.0722899 0.0718406 0.0712935 0.0706648 0.0699708 0.0692117 0.0683873 0.0674978 0.066543 0.065523 0.0644379 0.0633033 0.0621352 0.0609336 0.0596984 0.0584297 0.0571275 0.0557917 0.0544224 0.0530316 0.0516314 0.0502217 0.0488026 0.0473741 0.0459361 0.0444887 0.0430319 0.0415736 0.040122 0.038677 0.0372387 0.035807 0.0343819 0.0329635 0.0315518 0.0301523 0.028771 0.0274078 0.0260627 0.0247356 0.0234267 0.0221358 0.020863 0.019614 0.0183943 0.017204 0.016043 0.0149115 0.0138093 0.0127365 0.011693 0.0106858 0.00972181 0.00880097 0.00792331 0.00708881 0.00629748 0.00554933 0.00484434 0.00418717 0.00358244 0.00303015 0.00253031 0.00208291 0.00168795 0.00134544 0.00105538 0.000808023 0.000593649 0.000412257 0.000263844 0.000148412 6.5961e-05 1.64903e-05 0 0 7.62944e-05 0.000305178 0.00068665 0.00122071 0.00190736 0.0027466 0.00373843 0.00488284 0.00618372 0.00764494 0.00926651 0.0110484 0.0129906 0.0150932 0.0173562 0.0197794 0.0223021 0.0248635 0.0274634 0.0301019 0.0327791 0.0354948 0.0382491 0.041042 0.0438199 0.0465289 0.0491692 0.0517407 0.0542435 0.0566774 0.0590426 0.061339 0.063539 0.0656151 0.0675672 0.0693953 0.0710994 0.0726796 0.0741357 0.0754679 0.0766721 0.077744 0.0786839 0.0794915 0.080167 0.0807104 0.0811216 0.0814006 0.081559 0.0816082 0.0815483 0.0813793 0.0811012 0.0807139 0.0802175 0.0796119 0.0789154 0.0781459 0.0773036 0.0763884 0.0754002 0.0743392 0.0732053 0.0719985 0.0707365 0.0694367 0.0680993 0.0667242 0.0653115 0.0638611 0.062373 0.0608473 0.0592973 0.0577366 0.0561651 0.0545829 0.0529899 0.0513861 0.0497716 0.0481463 0.0465193 0.0448995 0.043287 0.0416818 0.0400838 0.0384931 0.0369097 0.0353336 0.0337711 0.0322288 0.0307065 0.0292044 0.0277224 0.0262605 0.0248187 0.023397 0.0220017 0.0206391 0.0193091 0.0180117 0.016747 0.015515 0.0143155 0.0131488 0.0120223 0.0109436 0.00991275 0.00892977 0.00799462 0.00710732 0.00626787 0.00547625 0.00473775 0.00405762 0.00343587 0.0028725 0.00236749 0.00192087 0.00153262 0.00120275 0.000920852 0.000676544 0.000469823 0.000300686 0.000169136 7.51716e-05 1.87929e-05 0 0 8.51117e-05 0.000340447 0.000766006 0.00136179 0.00212779 0.00306402 0.00417047 0.00544715 0.00689698 0.00852289 0.0103249 0.012303 0.0144571 0.0167873 0.0192937 0.0219761 0.0247674 0.0276004 0.0304753 0.0333918 0.0363501 0.0393502 0.042392 0.0454755 0.048542 0.0515327 0.0544476 0.0572866 0.0600498 0.0627371 0.0653487 0.0678844 0.0703139 0.0726069 0.0747634 0.0767834 0.0786668 0.0804138 0.0820242 0.0834982 0.084831 0.086018 0.0870594 0.087955 0.0887049 0.0893091 0.0897676 0.0900803 0.0902599 0.0903189 0.0902573 0.0900751 0.0897723 0.089349 0.088805 0.0881405 0.0873753 0.0865293 0.0856025 0.084595 0.0835067 0.0823376 0.0810877 0.0797571 0.0783651 0.0769312 0.0754553 0.0739375 0.0723778 0.0707761 0.0691325 0.067447 0.0657344 0.0640097 0.0622728 0.0605237 0.0587625 0.0569892 0.0552037 0.053406 0.0516062 0.0498143 0.0480303 0.0462541 0.0444859 0.0427255 0.040973 0.0392284 0.0374988 0.0357914 0.0341062 0.0324431 0.0308022 0.0291834 0.0275868 0.0260124 0.024467 0.0229576 0.0214842 0.0200467 0.0186452 0.0172797 0.0159501 0.0146565 0.0134072 0.0122105 0.0110663 0.00997474 0.00893574 0.00794932 0.00701548 0.00613422 0.00531147 0.00455319 0.00385937 0.00323 0.0026651 0.00216466 0.00172868 0.00135716 0.00103908 0.000763403 0.000530141 0.00033929 0.000190851 8.48225e-05 2.12056e-05 0 0 9.42035e-05 0.000376814 0.000847831 0.00150726 0.00235509 0.00339133 0.00461597 0.00602902 0.00763233 0.00942774 0.0114153 0.0135949 0.0159666 0.0185305 0.0212864 0.0242344 0.027301 0.0304123 0.0335685 0.0367696 0.0400154 0.0433062 0.0466417 0.0500221 0.0533834 0.0566617 0.0598569 0.0629691 0.0659982 0.0689443 0.0718073 0.0745873 0.0772512 0.0797658 0.0821311 0.0843471 0.0864139 0.0883314 0.0900996 0.0917186 0.0931832 0.0944882 0.0956337 0.0966196 0.097446 0.0981129 0.0986202 0.098968 0.0991699 0.0992395 0.0991768 0.0989818 0.0986546 0.098195 0.0976032 0.0968791 0.0960444 0.0951209 0.0941085 0.0930072 0.0918171 0.0905381 0.0891703 0.0877136 0.0861893 0.0846186 0.0830017 0.0813383 0.0796287 0.0778726 0.0760703 0.0742216 0.0723429 0.0704506 0.0685447 0.0666252 0.0646921 0.0627453 0.0607849 0.058811 0.0568344 0.0548663 0.0529068 0.0509557 0.0490131 0.047079 0.0451534 0.0432363 0.0413355 0.039459 0.0376068 0.0357787 0.0339749 0.0321954 0.0304401 0.028709 0.0270097 0.0253498 0.0237292 0.0221479 0.020606 0.0191034 0.0176402 0.0162162 0.0148407 0.0135225 0.0122617 0.0110582 0.00991217 0.00882348 0.00779217 0.00681823 0.00590834 0.00506914 0.00430064 0.00360283 0.00297573 0.00241933 0.00193363 0.00151862 0.00116269 0.000854224 0.000593211 0.000379655 0.000213556 9.49138e-05 2.37285e-05 0 0 0.00010357 0.000414279 0.000932127 0.00165711 0.00258924 0.00372851 0.00507491 0.00662846 0.00838978 0.0103595 0.0125377 0.0149242 0.0175192 0.0203225 0.0233343 0.0265545 0.0299029 0.0332991 0.0367432 0.0402352 0.043775 0.0473628 0.0509984 0.0546819 0.0583441 0.0619159 0.0653973 0.0687882 0.0720888 0.0752989 0.0784187 0.081448 0.0843509 0.0870917 0.0896702 0.0920865 0.0943405 0.0964323 0.0983619 0.100129 0.101729 0.103154 0.104407 0.105485 0.10639 0.107122 0.10768 0.108064 0.108289 0.10837 0.108307 0.1081 0.107748 0.107252 0.106612 0.105828 0.104923 0.103921 0.102821 0.101625 0.100331 0.0989407 0.0974529 0.0958679 0.0942089 0.092499 0.0907383 0.0889266 0.0870641 0.0851506 0.0831863 0.0811711 0.0791229 0.0770595 0.074981 0.0728873 0.0707785 0.0686545 0.0665154 0.0643611 0.0622039 0.0600556 0.0579165 0.0557865 0.0536655 0.0515537 0.0494509 0.0473572 0.0452812 0.0432315 0.0412083 0.0392113 0.0372407 0.0352965 0.0333786 0.031487 0.02963 0.0278157 0.0260442 0.0243155 0.0226295 0.0209862 0.0193857 0.0178279 0.0163226 0.0148796 0.0134988 0.0121802 0.0109239 0.0097298 0.00859793 0.0075283 0.00652834 0.00560546 0.00475968 0.00399098 0.00329938 0.00268487 0.00214745 0.00168713 0.00129171 0.000949009 0.000659034 0.000421782 0.000237252 0.000105445 2.63614e-05 0 0 0.00011321 0.000452841 0.00101889 0.00181136 0.00283026 0.00407557 0.0055473 0.00724546 0.00916932 0.0113182 0.013692 0.0162909 0.0191148 0.0221636 0.0254375 0.0289364 0.0325731 0.0362608 0.0399993 0.0437887 0.0476289 0.05152 0.0554619 0.0594547 0.063424 0.0672953 0.0710686 0.074744 0.0783215 0.081801 0.0851826 0.0884662 0.0916131 0.0945847 0.0973808 0.100001 0.102447 0.104717 0.106811 0.10873 0.110467 0.112017 0.113378 0.114552 0.115538 0.116336 0.116945 0.117367 0.117617 0.117711 0.117648 0.117428 0.117052 0.11652 0.115832 0.114986 0.11401 0.112929 0.111741 0.110448 0.10905 0.107546 0.105936 0.10422 0.102424 0.100572 0.0986652 0.0967024 0.094684 0.0926101 0.0904806 0.0882955 0.0860742 0.0838362 0.0815815 0.07931 0.0770218 0.0747168 0.0723951 0.0700566 0.0677146 0.0653822 0.0630595 0.0607465 0.0584431 0.0561495 0.0538654 0.0515911 0.0493358 0.047109 0.0449107 0.0427408 0.0405995 0.0384866 0.0364022 0.0343463 0.0323277 0.0303554