<?xml version="1.0"?> 
<VTKFile type="StructuredGrid" version="0.1"> 
<StructuredGrid WholeExtent="0 128 0 128 0 0"> 
<Piece Extent="0 128 0 128 0 0"> 
<PointData>
<DataArray type="Float32" Name="u" format="ascii" NumberOfComponents="1"> 
0 0 0 0 0 0 0 0 0 0 0 0 0 0 0 0 0 0 0 0 0 0 0 0 0 0 0 0 0 0 0 0 0 0 0 0 0 0 0 0 0 0 0 0 0 0 0 0 0 0 0 0 0 0 0 0 0 0 0 0 0 0 0 0 0 0 0 0 0 0 0 0 0 0 0 0 0 0 0 0 0 0 0 0 0 0 0 0 0 0 0 0 0 0 0 0 0 0 0 0 0 0 0 0 0 0 0 0 0 0 0 0 0 0 0 0 0 0 0 0 0 0 0 0 0 0 0 0 0 0 3.88912e-07 1.55565e-06 3.50021e-06 6.22259e-06 9.7228e-06 1.40008e-05 1.90567e-05 2.48904e-05 3.16157e-05 3.93466e-05 4.8083e-05 5.78249e-05 6.85724e-05 8.03254e-05 9.30839e-05 0.000106848 0.000121252 0.00013593 0.000150883 0.00016611 0.000181611 0.000197387 0.000213438 0.000229762 0.000246008 0.000261823 0.000277207 0.00029216 0.000306682 0.000320773 0.000334432 0.000347661 0.000360275 0.000372094 0.000383115 0.000393341 0.00040277 0.000411402 0.000419238 0.000426278 0.000432492 0.000437852 0.000442358 0.00044601 0.000448808 0.000450752 0.000451842 0.000452078 0.00045154 0.000450308 0.000448382 0.000445762 0.000442448 0.000438441 0.000433739 0.000428343 0.000422388 0.000416007 0.000409199 0.000401967 0.000394308 0.000386223 0.000377713 0.000368777 0.000359553 0.000350179 0.000340654 0.000330979 0.000321154 0.000311179 0.000301054 0.000290778 0.00028046 0.000270207 0.00026002 0.000249898 0.000239842 0.000229851 0.000219925 0.000210065 0.000200336 0.000190802 0.000181463 0.000172321 0.000163374 0.000154622 0.000146067 0.000137707 0.00012957 0.000121683 0.000114048 0.000106663 9.9528e-05 9.2644e-05 8.60106e-05 7.96278e-05 7.35006e-05 6.76337e-05 6.20274e-05 5.66815e-05 5.1596e-05 4.6771e-05 4.22065e-05 3.79024e-05 3.38552e-05 3.00613e-05 2.65208e-05 2.32337e-05 2.01999e-05 1.74194e-05 1.48923e-05 1.26185e-05 1.05741e-05 8.73511e-06 7.10155e-06 5.67341e-06 4.45069e-06 3.43338e-06 2.6215e-06 2.01503e-06 1.54276e-06 1.13345e-06 7.87121e-07 5.03758e-07 2.83364e-07 1.25939e-07 3.14849e-08 0 0 1.55565e-06 6.22259e-06 1.40008e-05 2.48904e-05 3.88912e-05 5.60033e-05 7.62268e-05 9.95615e-05 0.000126463 0.000157386 0.000192332 0.0002313 0.00027429 0.000321302 0.000372336 0.000427392 0.000485008 0.000543721 0.000603532 0.00066444 0.000726446 0.000789549 0.00085375 0.000919048 0.000984033 0.00104729 0.00110883 0.00116864 0.00122673 0.00128309 0.00133773 0.00139064 0.0014411 0.00148837 0.00153246 0.00157336 0.00161108 0.00164561 0.00167695 0.00170511 0.00172997 0.00175141 0.00176943 0.00178404 0.00179523 0.00180301 0.00180737 0.00180831 0.00180616 0.00180123 0.00179353 0.00178305 0.00176979 0.00175376 0.00173496 0.00171337 0.00168955 0.00166403 0.0016368 0.00160787 0.00157723 0.00154489 0.00151085 0.00147511 0.00143821 0.00140071 0.00136262 0.00132392 0.00128462 0.00124472 0.00120421 0.00116311 0.00112184 0.00108083 0.00104008 0.000999593 0.000959368 0.000919404 0.000879702 0.000840261 0.000801343 0.000763207 0.000725854 0.000689283 0.000653495 0.00061849 0.000584267 0.000550827 0.000518279 0.000486734 0.000456191 0.00042665 0.000398112 0.000370576 0.000344043 0.000318511 0.000294002 0.000270535 0.00024811 0.000226726 0.000206384 0.000187084 0.000168826 0.00015161 0.000135421 0.000120245 0.000106083 9.29347e-05 8.07995e-05 6.96776e-05 5.95691e-05 5.0474e-05 4.22964e-05 3.49405e-05 2.84062e-05 2.26936e-05 1.78028e-05 1.37335e-05 1.0486e-05 8.06012e-06 6.17103e-06 4.53382e-06 3.14849e-06 2.01503e-06 1.13345e-06 5.03758e-07 1.25939e-07 0 0 3.50021e-06 1.40008e-05 3.15019e-05 5.60033e-05 8.75052e-05 0.000126008 0.00017151 0.000224013 0.000284542 0.00035412 0.000432747 0.000520425 0.000617152 0.000722928 0.000837755 0.000961631 0.00109127 0.00122337 0.00135795 0.00149499 0.0016345 0.00177649 0.00192094 0.00206786 0.00221407 0.00235641 0.00249487 0.00262944 0.00276014 0.00288695 0.00300989 0.00312895 0.00324248 0.00334884 0.00344804 0.00354007 0.00362493 0.00370262 0.00377314 0.0038365 0.00389243 0.00394067 0.00398122 0.00401409 0.00403928 0.00405677 0.00406658 0.0040687 0.00406386 0.00405277 0.00403544 0.00401186 0.00398203 0.00394596 0.00390365 0.00385509 0.00380149 0.00374406 0.0036828 0.0036177 0.00354877 0.00347601 0.00339942 0.00331899 0.00323598 0.00315161 0.00306589 0.00297881 0.00289039 0.00280061 0.00270948 0.002617 0.00252414 0.00243187 0.00234018 0.00224908 0.00215858 0.00206866 0.00197933 0.00189059 0.00180302 0.00171722 0.00163317 0.00155089 0.00147036 0.0013916 0.0013146 0.00123936 0.00116613 0.00109515 0.00102643 0.000959963 0.000895752 0.000833796 0.000774096 0.000716651 0.000661505 0.000608704 0.000558246 0.000510133 0.000464364 0.000420939 0.000379858 0.000341121 0.000304697 0.000270552 0.000238688 0.000209103 0.000181799 0.000156775 0.00013403 0.000113566 9.51668e-05 7.8616e-05 6.3914e-05 5.10607e-05 4.00562e-05 3.09005e-05 2.35935e-05 1.81353e-05 1.38848e-05 1.02011e-05 7.08409e-06 4.53382e-06 2.55027e-06 1.13345e-06 2.83364e-07 0 0 6.22259e-06 2.48904e-05 5.60033e-05 9.95615e-05 0.000155565 0.000224013 0.000304907 0.000398246 0.000505852 0.000629546 0.000769328 0.000925199 0.00109716 0.00128521 0.00148934 0.00170957 0.00194003 0.00217488 0.00241413 0.00265776 0.00290578 0.0031582 0.003415 0.00367619 0.00393613 0.00418917 0.00443532 0.00467456 0.00490691 0.00513236 0.00535092 0.00556257 0.00576441 0.0059535 0.00612985 0.00629345 0.00644431 0.00658243 0.00670781 0.00682044 0.00691987 0.00700563 0.00707773 0.00713617 0.00718094 0.00721204 0.00722948 0.00723325 0.00722464 0.00720493 0.00717411 0.00713219 0.00707917 0.00701505 0.00693982 0.00685349 0.0067582 0.0066561 0.00654719 0.00643147 0.00630893 0.00617957 0.00604341 0.00590043 0.00575285 0.00560286 0.00545047 0.00529567 0.00513847 0.00497887 0.00481686 0.00465245 0.00448736 0.00432332 0.00416032 0.00399837 0.00383747 0.00367762 0.00351881 0.00336104 0.00320537 0.00305283 0.00290342 0.00275713 0.00261398 0.00247396 0.00233707 0.00220331 0.00207312 0.00194694 0.00182476 0.0017066 0.00159245 0.0014823 0.00137617 0.00127405 0.00117601 0.00108214 0.000992438 0.000906904 0.000825536 0.000748336 0.000675304 0.000606438 0.000541683 0.000480981 0.000424333 0.000371739 0.000323198 0.00027871 0.000238276 0.000201896 0.000169185 0.000139762 0.000113625 9.07746e-05 7.1211e-05 5.49341e-05 4.1944e-05 3.22405e-05 2.46841e-05 1.81353e-05 1.25939e-05 8.06012e-06 4.53382e-06 2.01503e-06 5.03758e-07 0 0 9.7228e-06 3.88912e-05 8.75052e-05 0.000155565 0.00024307 0.000350021 0.000476417 0.000622259 0.000790393 0.000983665 0.00120208 0.00144562 0.00171431 0.00200813 0.0023271 0.0026712 0.0030313 0.00339826 0.00377207 0.00415275 0.00454029 0.00493468 0.00533594 0.00574405 0.00615021 0.00654558 0.00693018 0.00730401 0.00766705 0.00801932 0.00836081 0.00869152 0.00900688 0.00930234 0.00957788 0.00983352 0.0100692 0.0102851 0.010481 0.0106569 0.0108123 0.0109463 0.011059 0.0111503 0.0112202 0.0112688 0.0112961 0.011302 0.0112885 0.0112577 0.0112096 0.0111441 0.0110612 0.010961 0.0108435 0.0107086 0.0105597 0.0104002 0.01023 0.0100492 0.0098577 0.00965559 0.00944283 0.00921943 0.00898882 0.00875447 0.00851635 0.00827448 0.00802886 0.00777948 0.00752634 0.00726945 0.0070115 0.00675518 0.0065005 0.00624746 0.00599605 0.00574627 0.00549814 0.00525163 0.00500839 0.00477004 0.00453659 0.00430802 0.00408434 0.00386556 0.00365167 0.00344267 0.00323924 0.00304209 0.00285119 0.00266656 0.0024882 0.0023161 0.00215027 0.0019907 0.00183751 0.00169084 0.00155068 0.00141704 0.0012899 0.00116928 0.00105516 0.00094756 0.00084638 0.000751533 0.000663021 0.000580842 0.000504997 0.000435485 0.000372307 0.000315462 0.000264352 0.000218378 0.000177539 0.000141835 0.000111267 8.58346e-05 6.55375e-05 5.03758e-05 3.8569e-05 2.83364e-05 1.9678e-05 1.25939e-05 7.08409e-06 3.14849e-06 7.87121e-07 0 0 1.40008e-05 5.60033e-05 0.000126008 0.000224013 0.000350021 0.00050403 0.000686041 0.000896054 0.00113817 0.00141648 0.00173099 0.0020817 0.00246861 0.00289171 0.00335102 0.00384652 0.00436507 0.00489349 0.00543179 0.00597996 0.00653801 0.00710594 0.00768375 0.00827143 0.0088563 0.00942564 0.00997946 0.0105178 0.0110406 0.0115478 0.0120396 0.0125158 0.0129699 0.0133954 0.0137922 0.0141603 0.0144997 0.0148105 0.0150926 0.015346 0.0155697 0.0157627 0.0159249 0.0160564 0.0161571 0.0162271 0.0162663 0.0162748 0.0162554 0.0162111 0.0161418 0.0160474 0.0159281 0.0157839 0.0156146 0.0154204 0.015206 0.0149762 0.0147312 0.0144708 0.0141951 0.013904 0.0135977 0.013276 0.0129439 0.0126064 0.0122635 0.0119153 0.0115616 0.0112024 0.0108379 0.010468 0.0100966 0.00972746 0.00936072 0.00899634 0.00863431 0.00827463 0.00791731 0.00756235 0.00721208 0.00686886 0.00653268 0.00620355 0.00588146 0.00556641 0.0052584 0.00495744 0.00466451 0.0043806 0.00410572 0.00383985 0.00358301 0.00333518 0.00309638 0.0028666 0.00264602 0.00243481 0.00223299 0.00204053 0.00185746 0.00168376 0.00151943 0.00136449 0.00121879 0.00108221 0.00095475 0.000836412 0.000727195 0.000627098 0.000536122 0.000454266 0.000380667 0.000314464 0.000255656 0.000204243 0.000160225 0.000123602 9.43739e-05 7.25411e-05 5.55393e-05 4.08044e-05 2.83364e-05 1.81353e-05 1.02011e-05 4.53382e-06 1.13345e-06 0 0 1.90567e-05 7.62268e-05 0.00017151 0.000304907 0.000476417 0.000686041 0.000933778 0.00121963 0.00154917 0.00192798 0.00235607 0.00283342 0.00336005 0.00393594 0.00456111 0.00523555 0.00594134 0.00666058 0.00739326 0.00813939 0.00889896 0.00967198 0.0104584 0.0112583 0.0120544 0.0128293 0.0135832 0.0143159 0.0150274 0.0157179 0.0163872 0.0170354 0.0176535 0.0182326 0.0187727 0.0192737 0.0197357 0.0201587 0.0205427 0.0208876 0.0211921 0.0214548 0.0216756 0.0218545 0.0219916 0.0220869 0.0221403 0.0221518 0.0221255 0.0220651 0.0219707 0.0218423 0.02168 0.0214836 0.0212532 0.0209888 0.020697 0.0203843 0.0200508 0.0196964 0.0193211 0.0189249 0.0185079 0.0180701 0.0176181 0.0171588 0.016692 0.016218 0.0157366 0.0152478 0.0147516 0.0142481 0.0137425 0.0132402 0.012741 0.012245 0.0117523 0.0112627 0.0107763 0.0102932 0.00981645 0.00934928 0.00889171 0.00844372 0.00800532 0.0075765 0.00715727 0.00674763 0.00634892 0.00596249 0.00558834 0.00522647 0.00487687 0.00453956 0.00421452 0.00390176 0.00360153 0.00331405 0.00303934 0.00277739 0.0025282 0.00229178 0.00206812 0.00185722 0.0016589 0.00147301 0.00129952 0.00113845 0.000989793 0.00085355 0.000729721 0.000618306 0.000518131 0.000428021 0.000347976 0.000277997 0.000218084 0.000168236 0.000128453 9.87365e-05 7.55951e-05 5.55393e-05 3.8569e-05 2.46841e-05 1.38848e-05 6.17103e-06 1.54276e-06 0 0 2.48904e-05 9.95615e-05 0.000224013 0.000398246 0.000622259 0.000896054 0.00121963 0.00159298 0.00202341 0.00251818 0.00307731 0.0037008 0.00438863 0.00514082 0.00595737 0.00683827 0.00776012 0.00869953 0.00965651 0.010631 0.0116231 0.0126328 0.01366 0.0147048 0.0157445 0.0167567 0.0177413 0.0186983 0.0196276 0.0205294 0.0214037 0.0222503 0.0230576 0.023814 0.0245194 0.0251738 0.0257773 0.0263297 0.0268312 0.0272818 0.0276795 0.0280225 0.0283109 0.0285447 0.0287237 0.0288482 0.0289179 0.028933 0.0288986 0.0288197 0.0286964 0.0285288 0.0283167 0.0280602 0.0277593 0.027414 0.0270328 0.0266244 0.0261888 0.0257259 0.0252357 0.0247183 0.0241736 0.0236017 0.0230114 0.0224114 0.0218019 0.0211827 0.0205539 0.0199155 0.0192674 0.0186098 0.0179494 0.0172933 0.0166413 0.0159935 0.0153499 0.0147105 0.0140752 0.0134442 0.0128215 0.0122113 0.0116137 0.0110285 0.0104559 0.00989584 0.00934827 0.00881323 0.00829247 0.00778774 0.00729905 0.0068264 0.00636979 0.00592922 0.00550468 0.00509618 0.00470404 0.00432856 0.00396975 0.00362761 0.00330215 0.00299335 0.00270121 0.00242575 0.00216673 0.00192393 0.00169733 0.00148696 0.00129279 0.00111484 0.000953105 0.000807583 0.000676742 0.000559047 0.000454499 0.000363098 0.000284844 0.000219737 0.000167776 0.000128962 9.87365e-05 7.25411e-05 5.03758e-05 3.22405e-05 1.81353e-05 8.06012e-06 2.01503e-06 0 0 3.16559e-05 0.000126623 0.000284903 0.000506494 0.000791396 0.00113961 0.00155114 0.00202597 0.00257305 0.0032013 0.00391071 0.0047013 0.00557305 0.00652597 0.00756005 0.00867531 0.00984218 0.0110311 0.0122421 0.0134751 0.0147302 0.0160073 0.0173064 0.0186277 0.0199425 0.0212224 0.0224675 0.0236777 0.0248531 0.0259935 0.0270991 0.0281699 0.029191 0.0301476 0.0310399 0.0318678 0.0326313 0.0333303 0.033965 0.0345352 0.0350387 0.0354731 0.0358384 0.0361346 0.0363617 0.0365196 0.0366085 0.0366283 0.0365854 0.0364864 0.0363312 0.0361198 0.0358522 0.0355284 0.0351484 0.0347123 0.0342308 0.0337148 0.0331643 0.0325793 0.0319598 0.0313057 0.0306172 0.0298941 0.0291477 0.028389 0.0276181 0.0268351 0.0260398 0.0252322 0.0244125 0.0235806 0.0227451 0.0219149 0.02109 0.0202703 0.0194559 0.0186467 0.0178427 0.017044 0.0162558 0.0154835 0.0147269 0.0139861 0.0132612 0.012552 0.0118587 0.0111812 0.0105217 0.00988248 0.00926354 0.00866487 0.00808648 0.00752836 0.00699051 0.00647294 0.00597604 0.00550022 0.00504548 0.00461182 0.00419923 0.00380772 0.0034373 0.00308795 0.00275938 0.00245131 0.00216373 0.00189664 0.00165004 0.00142394 0.00121833 0.00103321 0.000866657 0.000716751 0.00058349 0.000466874 0.000366903 0.000283576 0.000216895 0.000166858 0.000127751 9.38576e-05 6.51789e-05 4.17145e-05 2.34644e-05 1.04286e-05 2.60715e-06 0 0 3.95071e-05 0.000158028 0.000355564 0.000632114 0.000987678 0.00142226 0.00193585 0.00252845 0.00321029 0.00399155 0.00487226 0.0058524 0.00693197 0.00811098 0.00938943 0.0107673 0.0122083 0.013676 0.0151705 0.0166917 0.0182396 0.0198143 0.0214158 0.023044 0.0246641 0.0262413 0.0277756 0.029267 0.0307155 0.0321211 0.0334837 0.0348035 0.0360622 0.0372416 0.0383419 0.0393629 0.0403047 0.0411672 0.0419506 0.0426547 0.0432767 0.0438135 0.0442653 0.044632 0.0449135 0.04511 0.0452214 0.0452477 0.0451968 0.0450766 0.0448871 0.0446283 0.0443003 0.0439029 0.0434363 0.0429003 0.0423084 0.0416738 0.0409966 0.0402767 0.0395141 0.0387088 0.0378609 0.0369703 0.0360508 0.035116 0.034166 0.0332009 0.0322205 0.0312248 0.030214 0.029188 0.0281575 0.0271333 0.0261155 0.025104 0.0240989 0.0231 0.0221075 0.0211214 0.0201481 0.0191942 0.0182597 0.0173447 0.016449 0.0155727 0.0147159 0.0138784 0.0130631 0.0122728 0.0115075 0.0107671 0.0100516 0.00936117 0.00869566 0.00805511 0.00744003 0.00685092 0.00628778 0.00575061 0.00523942 0.00475419 0.00429493 0.00386165 0.00345396 0.00307149 0.00271424 0.00238221 0.0020754 0.00179381 0.00153744 0.00130629 0.00109803 0.00091034 0.000743214 0.000596653 0.000470658 0.000365228 0.000280363 0.000216065 0.000165424 0.000121536 8.44002e-05 5.40161e-05 3.03841e-05 1.3504e-05 3.37601e-06 0 0 4.84441e-05 0.000193776 0.000435997 0.000775106 0.0012111 0.00174399 0.00237376 0.00310042 0.00393511 0.00488895 0.00596194 0.0071541 0.0084654 0.00989587 0.0114455 0.0131143 0.0148584 0.0166343 0.0184417 0.0202808 0.0221516 0.024054 0.025988 0.0279537 0.0299094 0.0318133 0.0336656 0.0354661 0.0372149 0.038912 0.0405574 0.0421511 0.0436712 0.0450959 0.0464252 0.0476591 0.0487975 0.0498405 0.0507881 0.0516402 0.0523933 0.0530438 0.0535916 0.0540368 0.0543794 0.0546193 0.0547566 0.0547912 0.0547326 0.0545903 0.0543643 0.0540545 0.053661 0.0531838 0.0526228 0.0519781 0.0512656 0.0505014 0.0496855 0.0488179 0.0478986 0.0469276 0.0459048 0.0448303 0.0437207 0.0425924 0.0414456 0.0402801 0.039096 0.0378933 0.0366719 0.035432 0.0341865 0.0329484 0.0317178 0.0304946 0.0292789 0.0280706 0.0268697 0.0256763 0.0244983 0.0233436 0.0222122 0.0211041 0.0200193 0.0189579 0.0179197 0.0169049 0.0159168 0.0149587 0.0140308 0.013133 0.0122653 0.0114277 0.0106201 0.00984271 0.00909601 0.00838066 0.00769666 0.00704401 0.0064227 0.00583274 0.00527412 0.00474686 0.00425046 0.00378447 0.00334887 0.00294366 0.00256886 0.00222445 0.00191044 0.00162683 0.00137086 0.00113981 0.000933669 0.000752434 0.000596108 0.000464691 0.000358182 0.000276582 0.000211758 0.000155577 0.00010804 6.91455e-05 3.88943e-05 1.72864e-05 4.32159e-06 0 0 5.84669e-05 0.000233868 0.000526202 0.00093547 0.00146167 0.00210481 0.00286488 0.00374188 0.00474752 0.00589348 0.00717977 0.0086064 0.0101733 0.0118806 0.0137282 0.0157162 0.0177927 0.0199059 0.0220558 0.0242426 0.026466 0.0287262 0.0310232 0.0333569 0.0356783 0.0379385 0.0401374 0.042275 0.0443514 0.0463665 0.0483203 0.0502128 0.0520182 0.0537106 0.0552899 0.0567563 0.0581097 0.05935 0.0604774 0.0614917 0.0623887 0.0631639 0.0638174 0.0643492 0.0647592 0.0650475 0.065214 0.0652588 0.0651929 0.0650276 0.0647627 0.0643983 0.0639344 0.0633709 0.0627079 0.0619455 0.0611024 0.0601976 0.0592312 0.0582032 0.0571134 0.055962 0.054749 0.0534742 0.0521575 0.0508183 0.0494567 0.0480727 0.0466663 0.0452375 0.0437863 0.0423127 0.0408322 0.0393602 0.0378968 0.0364421 0.0349959 0.0335583 0.0321293 0.0307088 0.0293065 0.0279316 0.0265843 0.0252645 0.0239723 0.0227075 0.0214703 0.0202607 0.0190826 0.0179403 0.0168336 0.0157627 0.0147274 0.0137278 0.0127639 0.0118357 0.010944 0.0100894 0.00927212 0.008492 0.00774908 0.00704337 0.00637487 0.00574358 0.0051489 0.00459025 0.00406762 0.00358101 0.00313043 0.00271587 0.00233733 0.00199482 0.00168516 0.00140517 0.00115486 0.000934218 0.000743254 0.000581965 0.00045035 0.00034841 0.000266752 0.000195981 0.000136098 8.71026e-05 4.89952e-05 2.17756e-05 5.44391e-06 0 0 6.95755e-05 0.000278302 0.000626179 0.00111321 0.00173939 0.00250472 0.0034092 0.00445283 0.00564751 0.00700515 0.00852575 0.0102093 0.0120558 0.0140653 0.0162377 0.018573 0.0210109 0.0234908 0.0260128 0.0285768 0.0311829 0.0338311 0.0365212 0.0392535 0.041971 0.0446168 0.0471911 0.0496938 0.0521248 0.0544843 0.0567722 0.0589885 0.061103 0.0630855 0.0649361 0.0666547 0.0682413 0.0696959 0.0710186 0.0722093 0.0732628 0.0741739 0.0749427 0.075569 0.076053 0.0763945 0.0765937 0.0766505 0.0765777 0.0763883 0.0760823 0.0756596 0.0751203 0.0744644 0.0736918 0.0728026 0.0718188 0.0707624 0.0696336 0.0684323 0.0671585 0.0658121 0.0643933 0.062902 0.0613611 0.0597936 0.0581995 0.0565788 0.0549315 0.0532576 0.0515571 0.04983 0.0480945 0.0463687 0.0446527 0.0429464 0.0412499 0.0395632 0.0378862 0.0362189 0.0345725 0.0329582 0.031376 0.0298258 0.0283077 0.0268217 0.0253677 0.0239458 0.0225607 0.0212174 0.0199159 0.0186561 0.017438 0.0162616 0.015127 0.0140342 0.0129839 0.0119773 0.0110141 0.0100946 0.00921856 0.00838609 0.00759718 0.00685181 0.00614927 0.00548883 0.00487048 0.00429424 0.0037601 0.00326806 0.00281811 0.00241027 0.00204091 0.00170641 0.00140678 0.001142 0.000912096 0.00071705 0.000556868 0.000431549 0.000330405 0.000242747 0.000168574 0.000107887 6.06866e-05 2.69718e-05 6.74296e-06 0 0 8.17698e-05 0.000327079 0.000735928 0.00130832 0.00204424 0.00294371 0.00400672 0.00523327 0.0066351 0.00822396 0.00999986 0.0119628 0.0141128 0.0164498 0.0189738 0.0216849 0.0245132 0.0273891 0.0303126 0.0332837 0.0363023 0.0393685 0.0424822 0.0456435 0.0487872 0.0518483 0.0548266 0.0577223 0.0605353 0.0632656 0.0659133 0.0684782 0.0709257 0.0732208 0.0753636 0.0773541 0.0791923 0.0808781 0.0824116 0.0837929 0.0850156 0.0860738 0.0869674 0.0876963 0.0882607 0.0886605 0.0888957 0.0889662 0.088887 0.0886726 0.0883232 0.0878386 0.0872189 0.0864642 0.0855743 0.0845494 0.0834147 0.0821959 0.0808927 0.0795054 0.0780338 0.0764779 0.0748379 0.0731135 0.0713315 0.0695183 0.0676738 0.0657982 0.0638914 0.0619535 0.0599843 0.0579839 0.0559735 0.0539739 0.0519853 0.0500077 0.048041 0.0460852 0.0441404 0.0422065 0.0402966 0.0384235 0.0365873 0.0347881 0.0330257 0.0313003 0.0296117 0.0279601 0.026351 0.0247902 0.0232776 0.0218132 0.020397 0.0190291 0.0177095 0.016438 0.0152159 0.0140441 0.0129228 0.0118518 0.0108311 0.0098609 0.00894104 0.00807155 0.00725156 0.0064802 0.00575747 0.00508336 0.00445788 0.00388102 0.00335279 0.00287318 0.00243812 0.00204354 0.00168943 0.00137579 0.00110263 0.000869948 0.000677736 0.000525999 0.000402718 0.000295875 0.000205468 0.0001315 7.39686e-05 3.2875e-05 8.21874e-06 0 0 9.50499e-05 0.000380199 0.000855449 0.0015208 0.00237625 0.0034218 0.00465744 0.00608319 0.00771027 0.00954992 0.0116021 0.0138669 0.0163442 0.0190341 0.0219366 0.0250516 0.0282996 0.0316008 0.0349553 0.0383631 0.0418241 0.0453384 0.048906 0.0525269 0.0561271 0.0596329 0.063044 0.0663607 0.0695828 0.0727104 0.0757434 0.078682 0.0814862 0.0841164 0.0865725 0.0888546 0.0909626 0.0928966 0.0946566 0.0962425 0.0976472 0.0988635 0.0998915 0.100731 0.101382 0.101845 0.10212 0.102206 0.102121 0.10188 0.101485 0.100935 0.10023 0.0993703 0.0983555 0.0971858 0.0958903 0.0944979 0.0930086 0.0914224 0.0897393 0.0879594 0.0860826 0.084109 0.0820688 0.0799924 0.0778798 0.0757311 0.0735462 0.0713252 0.0690679 0.0667745 0.0644691 0.0621759 0.0598948 0.0576258 0.055369 0.0531244 0.050892 0.0486717 0.0464785 0.0443274 0.0422183 0.0401513 0.0381263 0.0361434 0.0342025 0.0323037 0.0304535 0.0286585 0.0269187 0.025234 0.0236046 0.0220303 0.0205112 0.0190473 0.0176398 0.01629 0.0149979 0.0137635 0.0125868 0.0114678 0.0104064 0.0094028 0.00845579 0.00756438 0.00672857 0.00594837 0.00522376 0.00455475 0.00394135 0.00338354 0.00287679 0.00241655 0.00200281 0.00163559 0.00131487 0.00104066 0.000812954 0.00063176 0.000483691 0.000355365 0.000246781 0.00015794 8.88412e-05 3.9485e-05 9.87125e-06 0 0 0.000109416 0.000437663 0.000984742 0.00175065 0.00273539 0.00393897 0.00536137 0.00700261 0.00887303 0.010983 0.0133325 0.0159216 0.0187502 0.0218184 0.0251261 0.0286734 0.03237 0.0361258 0.0399408 0.043815 0.0477484 0.051741 0.0557928 0.0599038 0.0639907 0.0679706 0.0718433 0.0756089 0.0792673 0.0828186 0.0862627 0.0895997 0.0927846 0.0957723 0.0985628 0.101156 0.103552 0.105751 0.107753 0.109558 0.111157 0.112543 0.113715 0.114673 0.115418 0.115949 0.116266 0.11637 0.116279 0.116012 0.115569 0.114949 0.114154 0.113183 0.112035 0.110712 0.109245 0.107668 0.105981 0.104183 0.102275 0.100257 0.0981276 0.0958882 0.0935729 0.0912159 0.0888175 0.0863774 0.0838959 0.0813727 0.078808 0.0762017 0.0735814 0.0709745 0.068381 0.0658008 0.0632341 0.0606808 0.0581409 0.0556144 0.0531184 0.0506699 0.0482689 0.0459154 0.0436094 0.041351 0.03914 0.0369766 0.0348682 0.0328224 0.0308392 0.0289186 0.0270606 0.0252651 0.0235323 0.021862 0.0202557 0.018715 0.0172397 0.0158299 0.0144856 0.0132068 0.0119934 0.0108456 0.00976194 0.00874136 0.0077838 0.00688926 0.00605775 0.00528926 0.0045838 0.00394136 0.00335692 0.00282544 0.00234693 0.00192138 0.0015488 0.00122918 0.000962521 0.000748831 0.000573324 0.000421218 0.000292512 0.000187208 0.000105304 4.6802e-05 1.17005e-05 0 0 0.000124568 0.000498273 0.00112111 0.00199309 0.0031142 0.00448445 0.00610384 0.00797236 0.0100992 0.0124936 0.0151554 0.0180848 0.0212817 0.0247462 0.0284781 0.0324775 0.0366433 0.0408743 0.0451703 0.0495316 0.053958 0.0584495 0.0630062 0.0676281 0.0722224 0.0766964 0.0810501 0.0852836 0.0893967 0.0933896 0.0972622 0.101014 0.104596 0.107956 0.111096 0.114014 0.11671 0.119186 0.12144 0.123474 0.125276 0.126839 0.128162 0.129245 0.130087 0.13069 0.131053 0.131176 0.131079 0.130785 0.130293 0.129602 0.128714 0.127627 0.126342 0.12486 0.123216 0.121447 0.119554 0.117537 0.115394 0.113128 0.110736 0.10822 0.105619 0.10297 0.100274 0.09753 0.0947393 0.0919014 0.0890162 0.0860838 0.083135 0.0802009 0.0772815 0.0743767 0.0714865 0.0686109 0.06575 0.0629037 0.0600914 0.0573322 0.0546261 0.0519732 0.0493735 0.046827 0.0443336 0.0418934 0.0395149 0.0372066 0.0349687 0.032801 0.0307036 0.0286765 0.0267197 0.0248331 0.0230185 0.0212774 0.0196099 0.0180161 0.0164958 0.0150491 0.013676 0.0123765 0.0111491 0.00999252 0.00890665 0.00789152 0.00694714 0.00607349 0.00527059 0.00453843 0.00387151 0.00326432 0.00271687 0.00222915 0.00180117 0.00143292 0.00112441 0.000875634 0.000670407 0.000492544 0.000342044 0.000218908 0.000123136 5.47271e-05 1.36818e-05 0 0 0.000140208 0.000560832 0.00126187 0.00224333 0.0035052 0.00504749 0.00687019 0.00897331 0.0113646 0.014052 0.0170353 0.0203146 0.0238898 0.0277611 0.0319284 0.0363916 0.0410384 0.0457562 0.050545 0.0554048 0.0603356 0.0653374 0.0704102 0.0755541 0.0806666 0.0856453 0.0904903 0.0952015 0.099779 0.104223 0.108533 0.112709 0.116695 0.120436 0.123932 0.127181 0.130185 0.132944 0.135456 0.137724 0.139734 0.141478 0.142956 0.144166 0.14511 0.145787 0.146197 0.14634 0.146239 0.145918 0.145377 0.144615 0.143632 0.142429 0.141005 0.139361 0.137537 0.135574 0.133472 0.13123 0.12885 0.126331 0.123672 0.120875 0.117981 0.115035 0.112035 0.108982 0.105876 0.102717 0.0995042 0.0962387 0.0929546 0.0896863 0.0864338 0.0831972 0.0799763 0.0767713 0.073582 0.0704086 0.0672726 0.0641954 0.061177 0.0582176 0.055317 0.0524753 0.0496925 0.0469686 0.0443131 0.0417358 0.0392365 0.0368153 0.0344723 0.0322073 0.0300204 0.0279116 0.0258827 0.0239357 0.0220706 0.0202872 0.0185857 0.0169661 0.0154282 0.0139722 0.0125964 0.0112993 0.0100806 0.00894064 0.00787922 0.0068964 0.00599217 0.00516654 0.00441355 0.00372728 0.00310772 0.00255487 0.00206873 0.00164931 0.00129659 0.00101059 0.000773731 0.000568456 0.000394761 0.000252647 0.000142114 6.31617e-05 1.57904e-05 0 0 0.000156335 0.000625341 0.00140702 0.00250137 0.00390838 0.00562807 0.00766043 0.0100055 0.0126693 0.0156581 0.018972 0.0226107 0.0265745 0.0308632 0.035477 0.0404157 0.0455552 0.0507716 0.0560647 0.0614345 0.0668812 0.0724046 0.0780047 0.0836817 0.0893232 0.0948173 0.100164 0.105363 0.110414 0.115318 0.120074 0.124683 0.129083 0.133212 0.137071 0.140659 0.143977 0.147024 0.149801 0.152307 0.154531 0.156461 0.158097 0.159438 0.160486 0.161239 0.161698 0.161863 0.161759 0.161412 0.160821 0.159987 0.15891 0.157588 0.156024 0.154216 0.152209 0.150048 0.147733 0.145265 0.142642 0.139866 0.136935 0.133851 0.13066 0.12741 0.124101 0.120733 0.117305 0.113818 0.110272 0.106667 0.10304 0.0994307 0.0958381 0.0922624 0.0887037 0.0851619 0.081637 0.0781291 0.074662 0.0712595 0.0679216 0.0646485 0.0614399 0.0582961 0.0552168 0.0522023 0.049263 0.0464098 0.0436427 0.0409616 0.0383665 0.0358574 0.0334344 0.0310975 0.0288486 0.02669 0.0246216 0.0226434 0.0207554 0.0189577 0.0172501 0.0156328 0.0141039 0.0126616 0.0113058 0.0100366 0.00885401 0.00775798 0.00674854 0.00582568 0.00498305 0.00421432 0.00351948 0.00289854 0.00235149 0.00187833 0.00147906 0.00115369 0.000883297 0.000648953 0.000450662 0.000288423 0.000162238 7.21058e-05 1.80265e-05 0 0 0.00017295 0.0006918 0.00155655 0.0027672 0.00432375 0.0062262 0.00847455 0.0110688 0.0140132 0.0173122 0.0209655 0.0249734 0.0293357 0.0340526 0.0391238 0.0445496 0.0501938 0.0559204 0.0617295 0.0676209 0.0735948 0.0796511 0.0857898 0.0920109 0.0981924 0.104212 0.110071 0.115767 0.121302 0.126676 0.131887 0.136937 0.141759 0.146284 0.150514 0.154448 0.158086 0.161428 0.164475 0.167225 0.169667 0.171787 0.173585 0.175061 0.176215 0.177047 0.177557 0.177745 0.177639 0.177266 0.176626 0.17572 0.174546 0.173105 0.171398 0.169424 0.167231 0.16487 0.162339 0.15964 0.156771 0.153733 0.150526 0.14715 0.143656 0.140097 0.136473 0.132783 0.129027 0.125206 0.12132 0.117368 0.113392 0.109434 0.105494 0.101572 0.0976685 0.0937827 0.0899149 0.0860651 0.0822596 0.0785245 0.0748599 0.0712659 0.0677423 0.0642892 0.0609065 0.0575944 0.0543646 0.0512288 0.0481872 0.0452397 0.0423863 0.039627 0.0369618 0.0343907 0.0319161 0.0295402 0.027263 0.0250846 0.0230049 0.0210239 0.0191417 0.0173582 0.0156715 0.0140794 0.0125821 0.0111794 0.00987148 0.00865824 0.0075397 0.00651586 0.00558001 0.00472544 0.00395216 0.00326015 0.00264943 0.00211999 0.00167183 0.00130495 0.000999103 0.000734035 0.000509746 0.000326238 0.000183509 8.15594e-05 2.03899e-05 0 0 0.000190052 0.000760209 0.00171047 0.00304083 0.0047513 0.00684188 0.00931256 0.0121633 0.0153964 0.019014 0.023016 0.0274025 0.0321735 0.037329 0.042869 0.0487935 0.0549541 0.0612028 0.0675394 0.0739639 0.0804764 0.0870769 0.0937653 0.100542 0.107274 0.11383 0.120211 0.126415 0.132443 0.138295 0.143971 0.149471 0.154723 0.159652 0.16426 0.168547 0.172512 0.176155 0.179477 0.182477 0.185142 0.187456 0.18942 0.191033 0.192297 0.19321 0.193773 0.193986 0.193879 0.193481 0.192792 0.191812 0.190541 0.18898 0.187128 0.184985 0.182605 0.180039 0.17729 0.174355 0.171236 0.167932 0.164444 0.16077 0.156969 0.153095 0.14915 0.145132 0.141042 0.136881 0.132647 0.128341 0.124009 0.119696 0.115402 0.111127 0.106871 0.102634 0.0984157 0.0942167 0.0900654 0.0859905 0.0819919 0.0780698 0.074224 0.0704546 0.0667616 0.063145 0.0596177 0.0561927 0.0528701 0.0496497 0.0465317 0.0435159 0.0406025 0.0377914 0.0350851 0.0324862 0.0299948 0.0276107 0.025334 0.0231648 0.0211029 0.0191485 0.0172992 0.0155529 0.0139095 0.0123691 0.0109317 0.00959717 0.00836565 0.00723708 0.00620442 0.00526065 0.00440575 0.00363972 0.00296257 0.00237429 0.00187489 0.00146436 0.00112115 0.000823702 0.000572015 0.00036609 0.000205925 9.15224e-05 2.28806e-05 0 0 0.000207642 0.000830567 0.00186878 0.00332227 0.00519104 0.0074751 0.0101744 0.0132891 0.0168188 0.0207636 0.0251234 0.0298982 0.0350879 0.0406927 0.0467125 0.0531473 0.0598362 0.0666186 0.0734944 0.0804636 0.0875261 0.0946821 0.101931 0.109274 0.116568 0.123672 0.130584 0.137306 0.143837 0.150177 0.156326 0.162285 0.167975 0.173316 0.17831 0.182956 0.187255 0.191205 0.194808 0.198063 0.200955 0.203468 0.205602 0.207356 0.208732 0.209729 0.210347 0.210586 0.210478 0.210055 0.209317 0.208264 0.206896 0.205212 0.203214 0.2009 0.198329 0.195557 0.192584 0.189411 0.186038 0.182463 0.178688 0.174713 0.170598 0.166404 0.162132 0.15778 0.15335 0.148842 0.144254 0.139588 0.134893 0.130217 0.125562 0.120926 0.116311 0.111715 0.10714 0.102584 0.0980794 0.0936573 0.0893176 0.0850602 0.0808851 0.0767924 0.072782 0.068854 0.0650225 0.0613016 0.0576913 0.0541917 0.0508027 0.0475243 0.0443565 0.0412994 0.0383557 0.0355282 0.0328169 0.0302219 0.027743 0.0253803 0.0231338 0.0210035 0.018987 0.0170819 0.0152881 0.0136056 0.0120345 0.0105748 0.00922638 0.00798933 0.0068563 0.00581993 0.00488025 0.00403723 0.00329089 0.00264123 0.00208824 0.00163192 0.00124944 0.000917954 0.000637468 0.00040798 0.000229489 0.000101995 2.54987e-05 0 0 0.000225719 0.000902875 0.00203147 0.0036115 0.00564297 0.00812587 0.0110602 0.014446 0.0182805 0.0225611 0.0272876 0.0324602 0.0380789 0.0441435 0.0506542 0.057611 0.0648401 0.0721679 0.0795945 0.0871198 0.0947