<?xml version="1.0"?> 
<VTKFile type="StructuredGrid" version="0.1"> 
<StructuredGrid WholeExtent="0 128 0 128 0 0"> 
<Piece Extent="0 128 0 128 0 0"> 
<PointData>
<DataArray type="Float32" Name="u" format="ascii" NumberOfComponents="1"> 
0 0 0 0 0 0 0 0 0 0 0 0 0 0 0 0 0 0 0 0 0 0 0 0 0 0 0 0 0 0 0 0 0 0 0 0 0 0 0 0 0 0 0 0 0 0 0 0 0 0 0 0 0 0 0 0 0 0 0 0 0 0 0 0 0 0 0 0 0 0 0 0 0 0 0 0 0 0 0 0 0 0 0 0 0 0 0 0 0 0 0 0 0 0 0 0 0 0 0 0 0 0 0 0 0 0 0 0 0 0 0 0 0 0 0 0 0 0 0 0 0 0 0 0 0 0 0 0 0 0 5.52885e-07 2.21154e-06 4.97597e-06 8.84617e-06 1.38221e-05 1.99039e-05 2.70914e-05 3.53847e-05 4.49482e-05 5.59463e-05 6.83792e-05 8.22467e-05 9.75489e-05 0.000114286 0.000132457 0.000152063 0.000172578 0.000193476 0.000214756 0.000236419 0.000258464 0.000280892 0.000303703 0.000326897 0.00034996 0.00037238 0.000394156 0.00041529 0.00043578 0.000455627 0.000474831 0.000493391 0.000511042 0.000527516 0.000542812 0.000556933 0.000569876 0.000581643 0.000592232 0.000601645 0.000609844 0.000616789 0.000622482 0.000626922 0.000630109 0.000632044 0.000632726 0.000632155 0.000630458 0.00062776 0.000624063 0.000619365 0.000613667 0.000606969 0.000599271 0.000590573 0.000581082 0.000571006 0.000560346 0.000549101 0.000537271 0.000524856 0.000511856 0.000498271 0.000484313 0.000470193 0.000455911 0.000441467 0.00042686 0.000412092 0.000397161 0.000382069 0.000366976 0.000352046 0.000337278 0.000322672 0.000308227 0.000293946 0.000279826 0.000265868 0.000252164 0.000238806 0.000225794 0.000213129 0.000200809 0.000188835 0.000177207 0.000165925 0.000155019 0.000144516 0.000134419 0.000124725 0.000115436 0.000106551 9.80709e-05 8.9995e-05 8.23134e-05 7.50161e-05 6.81032e-05 6.15746e-05 5.54303e-05 4.96703e-05 4.42947e-05 3.93033e-05 3.46692e-05 3.0365e-05 2.6391e-05 2.27469e-05 1.94329e-05 1.64489e-05 1.37949e-05 1.1471e-05 9.42487e-06 7.60431e-06 6.0093e-06 4.63985e-06 3.49597e-06 2.57765e-06 1.88488e-06 1.41768e-06 1.08541e-06 7.97447e-07 5.53782e-07 3.54421e-07 1.99362e-07 8.86052e-08 2.21513e-08 0 0 2.21154e-06 8.84617e-06 1.99039e-05 3.53847e-05 5.52885e-05 7.96155e-05 0.000108366 0.000141539 0.000179793 0.000223785 0.000273517 0.000328987 0.000390195 0.000457143 0.000529829 0.000608254 0.000690313 0.000773903 0.000859024 0.000945675 0.00103386 0.00112357 0.00121481 0.00130759 0.00139984 0.00148952 0.00157663 0.00166116 0.00174312 0.00182251 0.00189932 0.00197357 0.00204417 0.00211006 0.00217125 0.00222773 0.0022795 0.00232657 0.00236893 0.00240658 0.00243937 0.00246716 0.00248993 0.00250769 0.00252044 0.00252818 0.0025309 0.00252862 0.00252183 0.00251104 0.00249625 0.00247746 0.00245467 0.00242788 0.00239708 0.00236229 0.00232433 0.00228403 0.00224138 0.0021964 0.00214908 0.00209942 0.00204742 0.00199309 0.00193725 0.00188077 0.00182364 0.00176587 0.00170744 0.00164837 0.00158865 0.00152828 0.00146791 0.00140818 0.00134911 0.00129069 0.00123291 0.00117578 0.0011193 0.00106347 0.00100866 0.000955225 0.000903178 0.000852515 0.000803236 0.00075534 0.000708829 0.000663701 0.000620075 0.000578066 0.000537674 0.0004989 0.000461744 0.000426205 0.000392284 0.00035998 0.000329254 0.000300065 0.000272413 0.000246298 0.000221721 0.000198681 0.000177179 0.000157213 0.000138677 0.00012146 0.000105564 9.09876e-05 7.77315e-05 6.57955e-05 5.51797e-05 4.5884e-05 3.76995e-05 3.04172e-05 2.40372e-05 1.85594e-05 1.39839e-05 1.03106e-05 7.53954e-06 5.67073e-06 4.34165e-06 3.18979e-06 2.21513e-06 1.41768e-06 7.97447e-07 3.54421e-07 8.86052e-08 0 0 4.97597e-06 1.99039e-05 4.47837e-05 7.96155e-05 0.000124399 0.000179135 0.000243822 0.000318462 0.000404534 0.000503517 0.000615413 0.00074022 0.00087794 0.00102857 0.00119211 0.00136857 0.0015532 0.00174128 0.0019328 0.00212777 0.00232618 0.00252803 0.00273333 0.00294207 0.00314964 0.00335142 0.00354741 0.00373761 0.00392202 0.00410064 0.00427348 0.00444052 0.00459938 0.00474764 0.00488531 0.00501239 0.00512888 0.00523478 0.00533009 0.00541481 0.00548859 0.0055511 0.00560234 0.0056423 0.00567099 0.0056884 0.00569453 0.0056894 0.00567412 0.00564984 0.00561656 0.00557428 0.005523 0.00546272 0.00539344 0.00531516 0.00522974 0.00513906 0.00504311 0.00494191 0.00483544 0.0047237 0.0046067 0.00448444 0.00435882 0.00423174 0.0041032 0.0039732 0.00384174 0.00370883 0.00357445 0.00343862 0.00330279 0.00316841 0.0030355 0.00290404 0.00277405 0.00264551 0.00251843 0.00239281 0.00226948 0.00214926 0.00203215 0.00191816 0.00180728 0.00169952 0.00159486 0.00149333 0.00139517 0.00130065 0.00120977 0.00112253 0.00103892 0.000958961 0.000882638 0.000809955 0.00074082 0.000675145 0.000612929 0.000554171 0.000498873 0.000447033 0.000398652 0.00035373 0.000312023 0.000273285 0.000237519 0.000204722 0.000174896 0.00014804 0.000124154 0.000103239 8.48239e-05 6.84388e-05 5.40837e-05 4.17587e-05 3.14637e-05 2.31988e-05 1.6964e-05 1.27591e-05 9.76872e-06 7.17702e-06 4.98404e-06 3.18979e-06 1.79425e-06 7.97447e-07 1.99362e-07 0 0 8.84617e-06 3.53847e-05 7.96155e-05 0.000141539 0.000221154 0.000318462 0.000433462 0.000566155 0.000719171 0.000895141 0.00109407 0.00131595 0.00156078 0.00182857 0.00211932 0.00243301 0.00276125 0.00309561 0.00343609 0.0037827 0.00413543 0.00449428 0.00485925 0.00523035 0.00559936 0.00595808 0.0063065 0.00664464 0.00697248 0.00729003 0.00759729 0.00789426 0.00817667 0.00844025 0.008685 0.00891092 0.00911802 0.00930628 0.00947572 0.00962633 0.0097575 0.00986863 0.00995971 0.0100308 0.0100818 0.0101127 0.0101236 0.0101145 0.0100873 0.0100442 0.009985 0.00990984 0.00981867 0.00971151 0.00958834 0.00944916 0.00929731 0.0091361 0.00896554 0.00878561 0.00859633 0.00839769 0.0081897 0.00797234 0.00774901 0.00752309 0.00729457 0.00706347 0.00682976 0.00659347 0.00635458 0.0061131 0.00587162 0.00563274 0.00539644 0.00516275 0.00493164 0.00470313 0.00447721 0.00425388 0.00403462 0.0038209 0.00361271 0.00341006 0.00321294 0.00302136 0.00283532 0.00265481 0.0024803 0.00231226 0.0021507 0.0019956 0.00184697 0.00170482 0.00156913 0.00143992 0.00131701 0.00120026 0.00108965 0.000985193 0.000886885 0.000794725 0.000708715 0.000628853 0.000554707 0.000485841 0.000422255 0.00036395 0.000310926 0.000263182 0.000220719 0.000183536 0.000150798 0.000121669 9.61488e-05 7.42377e-05 5.59355e-05 4.12423e-05 3.01581e-05 2.26829e-05 1.73666e-05 1.27591e-05 8.86052e-06 5.67073e-06 3.18979e-06 1.41768e-06 3.54421e-07 0 0 1.38221e-05 5.52885e-05 0.000124399 0.000221154 0.000345553 0.000497597 0.000677285 0.000884617 0.0011237 0.00139866 0.00170948 0.00205617 0.00243872 0.00285714 0.00331143 0.00380158 0.00431446 0.00483689 0.0053689 0.00591047 0.0064616 0.00702231 0.00759258 0.00817242 0.00874899 0.00930949 0.00985391 0.0103822 0.0108945 0.0113907 0.0118708 0.0123348 0.012776 0.0131879 0.0135703 0.0139233 0.0142469 0.0145411 0.0148058 0.0150411 0.0152461 0.0154197 0.0155621 0.0156731 0.0157527 0.0158011 0.0158181 0.0158039 0.0157614 0.015694 0.0156016 0.0154841 0.0153417 0.0151742 0.0149818 0.0147643 0.0145271 0.0142752 0.0140087 0.0137275 0.0134318 0.0131214 0.0127964 0.0124568 0.0121078 0.0117548 0.0113978 0.0110367 0.0106715 0.0103023 0.00992904 0.00955172 0.00917441 0.00880115 0.00843194 0.00806679 0.00770569 0.00734864 0.00699564 0.0066467 0.0063041 0.00597016 0.00564486 0.00532822 0.00502022 0.00472088 0.00443018 0.00414813 0.00387547 0.00361291 0.00336046 0.00311813 0.0028859 0.00266378 0.00245177 0.00224987 0.00205783 0.0018754 0.00170258 0.00153936 0.00138576 0.00124176 0.00110737 0.000982583 0.000866729 0.000759126 0.000659774 0.000568673 0.000485822 0.000411222 0.000344873 0.000286775 0.000235622 0.000190108 0.000150232 0.000115996 8.73992e-05 6.44412e-05 4.71221e-05 3.54421e-05 2.71353e-05 1.99362e-05 1.38446e-05 8.86052e-06 4.98404e-06 2.21513e-06 5.53782e-07 0 0 1.99039e-05 7.96155e-05 0.000179135 0.000318462 0.000497597 0.00071654 0.00097529 0.00127385 0.00161813 0.00201407 0.00246165 0.00296088 0.00351176 0.00411429 0.00476846 0.00547428 0.00621282 0.00696513 0.00773121 0.00851107 0.00930471 0.0101121 0.0109333 0.0117683 0.0125986 0.0134057 0.0141896 0.0149504 0.0156881 0.0164026 0.0170939 0.0177621 0.0183975 0.0189906 0.0195412 0.0200496 0.0205155 0.0209391 0.0213204 0.0216592 0.0219544 0.0222044 0.0224094 0.0225692 0.0226839 0.0227536 0.0227781 0.0227576 0.0226965 0.0225994 0.0224663 0.0222971 0.022092 0.0218509 0.0215738 0.0212606 0.020919 0.0205562 0.0201725 0.0197676 0.0193417 0.0188948 0.0184268 0.0179378 0.0174353 0.016927 0.0164128 0.0158928 0.015367 0.0148353 0.0142978 0.0137545 0.0132112 0.0126737 0.012142 0.0116162 0.0110962 0.010582 0.0100737 0.00957124 0.00907791 0.00859703 0.0081286 0.00767263 0.00722912 0.00679806 0.00637946 0.00597331 0.00558067 0.00520259 0.00483907 0.0044901 0.00415569 0.00383584 0.00353055 0.00323982 0.00296328 0.00270058 0.00245171 0.00221668 0.00199549 0.00178813 0.00159461 0.00141492 0.00124809 0.00109314 0.000950075 0.000818888 0.000699584 0.00059216 0.000496617 0.000412956 0.000339295 0.000273755 0.000216335 0.000167035 0.000125855 9.27953e-05 6.78558e-05 5.10366e-05 3.90749e-05 2.87081e-05 1.99362e-05 1.27591e-05 7.17702e-06 3.18979e-06 7.97447e-07 0 0 2.70914e-05 0.000108366 0.000243822 0.000433462 0.000677285 0.00097529 0.00132748 0.00173385 0.00220246 0.00274137 0.00335058 0.00403009 0.00477989 0.0056 0.0064904 0.00745111 0.00845633 0.00948031 0.010523 0.0115845 0.0126647 0.0137637 0.0148815 0.0160179 0.017148 0.0182466 0.0193137 0.0203492 0.0213532 0.0223257 0.0232667 0.0241762 0.025041 0.0258483 0.0265978 0.0272897 0.0279239 0.0285005 0.0290194 0.0294806 0.0298823 0.0302227 0.0305016 0.0307192 0.0308754 0.0309702 0.0310036 0.0309756 0.0308924 0.0307603 0.0305791 0.0303489 0.0300697 0.0297415 0.0293643 0.0289381 0.028473 0.0279793 0.027457 0.0269059 0.0263263 0.0257179 0.0250809 0.0244153 0.0237313 0.0230395 0.0223396 0.0216319 0.0209162 0.0201925 0.0194609 0.0187214 0.0179818 0.0172503 0.0165266 0.0158109 0.0151031 0.0144033 0.0137115 0.0130275 0.012356 0.0117015 0.0110639 0.0104433 0.00983963 0.00925292 0.00868315 0.00813034 0.00759592 0.0070813 0.00658651 0.00611153 0.00565636 0.00522101 0.00480547 0.00440975 0.00403336 0.00367579 0.00333706 0.00301715 0.00271608 0.00243385 0.00217044 0.00192586 0.00169879 0.00148789 0.00129316 0.0011146 0.000952211 0.000805995 0.000675951 0.000562079 0.000461819 0.000372611 0.000294456 0.000227353 0.000171303 0.000126305 9.23593e-05 6.94665e-05 5.31853e-05 3.90749e-05 2.71353e-05 1.73666e-05 9.76872e-06 4.34165e-06 1.08541e-06 0 0 3.53847e-05 0.000141539 0.000318462 0.000566155 0.000884617 0.00127385 0.00173385 0.00226462 0.00287668 0.00358057 0.00437627 0.00526379 0.00624313 0.00731428 0.00847726 0.00973206 0.011045 0.0123824 0.0137444 0.0151308 0.0165417 0.0179771 0.019437 0.0209214 0.0223974 0.0238323 0.025226 0.0265786 0.0278899 0.0291601 0.0303892 0.031577 0.0327067 0.033761 0.03474 0.0356437 0.0364721 0.0372251 0.0379029 0.0385053 0.03903 0.0394745 0.0398389 0.040123 0.040327 0.0404508 0.0404945 0.0404579 0.0403493 0.0401767 0.03994 0.0396394 0.0392747 0.038846 0.0383533 0.0377967 0.0371893 0.0365444 0.0358621 0.0351425 0.0343853 0.0335908 0.0327588 0.0318894 0.030996 0.0300924 0.0291783 0.0282539 0.0273191 0.0263739 0.0254183 0.0244524 0.0234865 0.0225309 0.0215858 0.020651 0.0197266 0.0188125 0.0179088 0.0170155 0.0161385 0.0152836 0.0144508 0.0136402 0.0128518 0.0120854 0.0113413 0.0106192 0.0099212 0.00924905 0.00860279 0.0079824 0.0073879 0.00681928 0.00627654 0.00575968 0.00526806 0.00480103 0.0043586 0.00394077 0.00354754 0.0031789 0.00283486 0.00251541 0.00221883 0.00194336 0.00168902 0.0014558 0.0012437 0.00105273 0.000882875 0.000734144 0.000603192 0.000486676 0.000384595 0.000296951 0.000223742 0.000164969 0.000120633 9.07317e-05 6.94665e-05 5.10366e-05 3.54421e-05 2.26829e-05 1.27591e-05 5.67073e-06 1.41768e-06 0 0 4.50105e-05 0.000180042 0.000405095 0.000720169 0.00112526 0.00162038 0.00220552 0.00288067 0.00365875 0.00455265 0.00556236 0.00668789 0.00792924 0.00928641 0.0107594 0.0123482 0.0140103 0.0157031 0.0174267 0.019181 0.0209661 0.0227819 0.0246284 0.0265057 0.0283724 0.030187 0.0319495 0.0336601 0.0353186 0.036925 0.0384794 0.0399818 0.0414106 0.0427442 0.0439826 0.0451258 0.0461739 0.0471268 0.0479845 0.0487471 0.0494114 0.0499743 0.0504359 0.0507961 0.0510549 0.0512124 0.0512685 0.0512233 0.0510869 0.0508695 0.0505711 0.0501918 0.0497315 0.0491902 0.048568 0.0478647 0.0470973 0.0462825 0.0454202 0.0445106 0.0435535 0.0425491 0.0414972 0.0403979 0.0392683 0.0381255 0.0369696 0.0358004 0.0346179 0.0334223 0.0322135 0.0309915 0.0297694 0.0285603 0.0273643 0.0261814 0.0250115 0.0238546 0.0227108 0.02158 0.0204697 0.0193874 0.0183331 0.0173067 0.0163082 0.0153378 0.0143953 0.0134807 0.0125965 0.0117451 0.0109263 0.0101403 0.00938694 0.00866634 0.00797846 0.0073233 0.00670006 0.00610792 0.00554689 0.00501698 0.00451817 0.00405047 0.00361388 0.0032084 0.00283183 0.00248198 0.00215883 0.00186239 0.00159266 0.00134965 0.00113334 0.000943744 0.000776653 0.000627861 0.000497369 0.000385175 0.00029128 0.000215685 0.000158388 0.000119391 9.14088e-05 6.71575e-05 4.66372e-05 2.98478e-05 1.67894e-05 7.46194e-06 1.86549e-06 0 0 5.61958e-05 0.000224783 0.000505762 0.000899133 0.00140489 0.00202305 0.00275359 0.00359653 0.00456662 0.00567861 0.00693251 0.00832831 0.00986602 0.0115456 0.0133672 0.0153306 0.0173836 0.0194739 0.0216014 0.0237662 0.0259683 0.0282076 0.0304842 0.032798 0.0350985 0.0373348 0.0395071 0.0416154 0.0436595 0.0456396 0.0475556 0.0494076 0.0511689 0.0528132 0.0543404 0.0557504 0.0570434 0.0582193 0.0592781 0.0602198 0.0610405 0.0617364 0.0623075 0.0627537 0.0630751 0.0632717 0.0633434 0.0632904 0.0631249 0.0628596 0.0624945 0.0620294 0.0614645 0.0607998 0.0600351 0.0591706 0.0582269 0.0572245 0.0561634 0.0550438 0.0538655 0.0526286 0.0513331 0.0499789 0.0485872 0.0471789 0.0457542 0.0443129 0.0428551 0.0413808 0.0398899 0.0383825 0.0368749 0.0353831 0.0339071 0.0324471 0.0310029 0.0295746 0.0281621 0.0267656 0.0253941 0.024057 0.0227543 0.0214859 0.0202518 0.0190521 0.0178867 0.0167557 0.015662 0.0146086 0.0135955 0.0126226 0.0116901 0.0107979 0.00994597 0.00913434 0.00836203 0.00762807 0.00693246 0.00627521 0.0056563 0.00507574 0.00453353 0.00402967 0.00356144 0.00312613 0.00272374 0.00235425 0.00201769 0.00171403 0.0014433 0.00120547 0.000995441 0.000808081 0.000643391 0.000501372 0.000382024 0.000285347 0.00021134 0.000160004 0.000122503 9.0002e-05 6.25014e-05 4.00009e-05 2.25005e-05 1.00002e-05 2.50005e-06 0 0 6.89404e-05 0.000275762 0.000620464 0.00110305 0.00172351 0.00248186 0.00337808 0.00441219 0.00560028 0.00695845 0.0084867 0.010185 0.0120535 0.014092 0.0163006 0.0186792 0.021165 0.0236947 0.0262686 0.0288864 0.0315483 0.0342543 0.0370043 0.0397983 0.0425757 0.0452759 0.0478988 0.0504444 0.0529128 0.0553039 0.0576178 0.0598543 0.0619818 0.0639681 0.0658133 0.0675175 0.0690806 0.0705026 0.0717835 0.0729234 0.0739174 0.0747608 0.0754537 0.0759959 0.0763876 0.0766287 0.0767192 0.0766592 0.0764635 0.0761471 0.0757101 0.0751523 0.0744738 0.0736747 0.0727548 0.0717143 0.0705779 0.0693704 0.0680918 0.0667421 0.0653213 0.0638294 0.0622664 0.0606324 0.0589526 0.0572525 0.0555322 0.0537915 0.0520305 0.0502491 0.0484475 0.0466256 0.0448029 0.0429991 0.0412141 0.039448 0.0377008 0.0359724 0.0342629 0.0325723 0.0309117 0.0292924 0.0277145 0.0261778 0.0246824 0.0232283 0.0218155 0.020444 0.0191175 0.0178396 0.0166103 0.0154295 0.0142974 0.0132139 0.0121791 0.0111928 0.010254 0.00936149 0.00851531 0.00771546 0.00696192 0.0062547 0.0055938 0.00497921 0.00440766 0.00387583 0.00338375 0.00293139 0.00251877 0.00214589 0.00181274 0.00151933 0.00125955 0.00102733 0.000822663 0.000645543 0.000495973 0.000373955 0.000279486 0.000212569 0.000162748 0.00011957 8.30347e-05 5.31422e-05 2.98925e-05 1.32856e-05 3.32139e-06 0 0 8.32445e-05 0.000332978 0.0007492 0.00133191 0.00208111 0.0029968 0.00407898 0.00532765 0.00675973 0.00839217 0.010225 0.0122581 0.0144916 0.0169254 0.0195596 0.0223941 0.0253544 0.0283657 0.0314281 0.0345416 0.0377062 0.0409219 0.0441887 0.0475065 0.0508041 0.0540101 0.0571245 0.0601472 0.0630784 0.0659179 0.0686658 0.0713221 0.073849 0.0762088 0.0784015 0.080427 0.0822854 0.0839767 0.0855009 0.0868579 0.088042 0.0890475 0.0898744 0.0905227 0.0909924 0.0912835 0.0913959 0.0913298 0.0911026 0.0907319 0.0902179 0.0895603 0.0887594 0.087815 0.0867271 0.0854958 0.0841504 0.0827202 0.0812052 0.0796054 0.0779208 0.0761514 0.0742972 0.0723583 0.0703646 0.0683464 0.0663035 0.0642361 0.0621441 0.0600275 0.0578863 0.0557205 0.0535535 0.0514084 0.0492854 0.0471843 0.0451053 0.0430482 0.0410132 0.0390001 0.0370225 0.0350937 0.0332137 0.0313825 0.0296001 0.0278665 0.0261818 0.0245458 0.0229631 0.0214381 0.0199707 0.018561 0.0172089 0.0159145 0.0146777 0.0134986 0.0123759 0.0113082 0.0102954 0.00933773 0.00843504 0.00758735 0.00679469 0.00605703 0.00537047 0.00473108 0.00413886 0.00359381 0.00309593 0.00264522 0.00224168 0.00188531 0.001569 0.00128562 0.00103518 0.000817687 0.000633128 0.000481509 0.000362829 0.000277087 0.000212145 0.000155862 0.000108237 6.92718e-05 3.89654e-05 1.7318e-05 4.32949e-06 0 0 9.91079e-05 0.000396432 0.000891971 0.00158573 0.0024777 0.00356788 0.00485629 0.00634291 0.00804499 0.00997977 0.0121473 0.0145474 0.0171803 0.0200459 0.0231442 0.0264753 0.0299518 0.0334868 0.0370801 0.0407319 0.044442 0.0482105 0.0520375 0.0559228 0.0597837 0.0635376 0.0671843 0.0707238 0.0741563 0.0774816 0.0806998 0.0838109 0.0867708 0.0895354 0.0921048 0.094479 0.0966579 0.0986416 0.10043 0.102023 0.103414 0.104597 0.10557 0.106334 0.10689 0.107236 0.107373 0.107302 0.107042 0.106614 0.106018 0.105254 0.104321 0.103221 0.101952 0.100515 0.0989444 0.0972739 0.0955037 0.0936338 0.0916641 0.0895947 0.0874255 0.0851566 0.0828232 0.0804604 0.0780682 0.0756468 0.073196 0.0707158 0.0682063 0.0656675 0.0631266 0.0606111 0.0581208 0.0556559 0.0532162 0.0508019 0.0484128 0.0460491 0.0437265 0.0414607 0.0392519 0.0370999 0.0350049 0.0329667 0.0309854 0.029061 0.0271988 0.0254041 0.0236768 0.0220169 0.0204245 0.0188995 0.017442 0.0160519 0.0147278 0.0134681 0.0122728 0.011142 0.0100756 0.0090737 0.0081362 0.00726313 0.00644989 0.00569187 0.00498907 0.0043415 0.00374915 0.00321202 0.00273011 0.00230342 0.00192376 0.00158294 0.00128095 0.0010178 0.000793489 0.00060801 0.000461366 0.000353559 0.000270693 0.000198877 0.000138109 8.83897e-05 4.97192e-05 2.20974e-05 5.52435e-06 0 0 0.000116531 0.000466123 0.00104878 0.00186449 0.00291327 0.00419511 0.00571001 0.00745797 0.00945603 0.0117212 0.0142536 0.0170531 0.0201198 0.0234536 0.0270545 0.0309227 0.0349573 0.0390579 0.0432245 0.0474571 0.0517556 0.0561201 0.0605506 0.065047 0.0695145 0.0738582 0.0780781 0.0821742 0.0861465 0.089995 0.0937198 0.0973207 0.100747 0.103948 0.106923 0.109673 0.112198 0.114497 0.116571 0.11842 0.120035 0.121408 0.12254 0.12343 0.124079 0.124486 0.124652 0.124576 0.124282 0.123794 0.12311 0.122232 0.121159 0.119892 0.118429 0.116772 0.11496 0.113032 0.110987 0.108827 0.106551 0.104159 0.101651 0.0990274 0.0963283 0.0935946 0.0908263 0.0880235 0.0851861 0.0823141 0.0794075 0.0764664 0.0735223 0.070607 0.0677205 0.0648627 0.0620337 0.0592334 0.056462 0.0537192 0.0510236 0.0483936 0.0458291 0.0433301 0.0408967 0.0385288 0.0362265 0.0339897 0.0318246 0.0297376 0.0277285 0.0257973 0.0239442 0.022169 0.0204718 0.0188526 0.0173097 0.0158413 0.0144475 0.0131283 0.0118838 0.0107137 0.00961833 0.0085975 0.00764591 0.0067582 0.00593439 0.00517447 0.00447843 0.00384628 0.00327803 0.00277366 0.00232386 0.00191929 0.00155997 0.00124589 0.000977055 0.000753456 0.000575099 0.000441983 0.000338393 0.000248615 0.00017265 0.000110496 6.21539e-05 2.76239e-05 6.90598e-06 0 0 0.000135513 0.000542052 0.00121962 0.00216821 0.00338782 0.00487847 0.00664013 0.00867283 0.0109929 0.0136166 0.016544 0.0197751 0.0233099 0.0271483 0.0312905 0.0357363 0.0403709 0.0450792 0.0498614 0.0547173 0.0596471 0.0646506 0.069728 0.0748791 0.0799964 0.084972 0.089806 0.0944983 0.0990491 0.103458 0.107726 0.111851 0.115778 0.119446 0.122857 0.12601 0.128906 0.131544 0.133924 0.136047 0.137902 0.139482 0.140784 0.141811 0.142561 0.143034 0.143231 0.143152 0.142823 0.14227 0.141495 0.140496 0.139273 0.137828 0.136159 0.134267 0.132197 0.129993 0.127656 0.125186 0.122582 0.119845 0.116974 0.113971 0.11088 0.107749 0.104578 0.101366 0.0981144 0.0948223 0.0914899 0.0881172 0.0847406 0.0813963 0.0780844 0.0748049 0.0715577 0.0683429 0.0651605 0.0620105 0.058914 0.0558923 0.0529453 0.0500731 0.0472756 0.0445529 0.0419049 0.0393317 0.0368405 0.0344386 0.0321258 0.0299023 0.0277681 0.025723 0.0237672 0.0219007 0.0201215 0.0184278 0.0168195 0.0152967 0.0138594 0.0125075 0.0112411 0.0100601 0.00895853 0.00793008 0.00697481 0.00609271 0.00528378 0.00454802 0.00388544 0.00329603 0.00276928 0.00229468 0.00187224 0.00150196 0.00118383 0.00091785 0.000704028 0.00054236 0.000415245 0.000305078 0.00021186 0.00013559 7.62694e-05 3.38975e-05 8.47438e-06 0 0 0.000156055 0.000624218 0.00140449 0.00249687 0.00390136 0.00561796 0.00764667 0.00998749 0.0126555 0.0156658 0.0190185 0.0227134 0.0267506 0.0311302 0.035852 0.0409162 0.0461924 0.0515506 0.0569906 0.0625126 0.0681164 0.0738021 0.0795698 0.0854193 0.0912294 0.096879 0.102368 0.107696 0.112864 0.117871 0.122717 0.127403 0.131863 0.13603 0.139906 0.14349 0.146781 0.149781 0.152489 0.154905 0.157018 0.158818 0.160303 0.161476 0.162335 0.16288 0.163111 0.163029 0.162664 0.162044 0.161171 0.160045 0.158664 0.15703 0.155142 0.153 0.150655 0.148159 0.14551 0.142709 0.139757 0.136652 0.133395 0.129986 0.126478 0.122924 0.119323 0.115675 0.111981 0.108241 0.104454 0.10062 0.0967814 0.0929789 0.0892125 0.0854823 0.0817882 0.0781303 0.0745085 0.0709228 0.0673975 0.0639567 0.0606005 0.0573288 0.0541416 0.0510389 0.0480208 0.0450872 0.0422465 0.039507 0.0368688 0.0343318 0.0318961 0.0295615 0.0273282 0.0251962 0.0231633 0.0212275 0.0193887 0.0176471 0.0160025 0.0144549 0.0130045 0.0116511 0.0103878 0.0092075 0.00811033 0.00709623 0.00616519 0.00531723 0.00455234 0.00387052 0.00326002 0.0027091 0.00221776 0.00178599 0.0014138 0.00110119 0.000848152 0.000654691 0.000501248 0.000368264 0.000255739 0.000163673 9.20659e-05 4.09182e-05 1.02295e-05 0 0 0.000177739 0.000710958 0.00159966 0.00284383 0.00444349 0.00639862 0.00870923 0.0113753 0.0144103 0.0178277 0.0216274 0.0258095 0.0303739 0.0353207 0.0406499 0.0463614 0.0523091 0.0583468 0.0644746 0.0706924 0.0770003 0.0833982 0.0898861 0.0964641 0.102997 0.109349 0.115521 0.121512 0.127323 0.132954 0.138404 0.143674 0.148689 0.153377 0.157737 0.16177 0.165475 0.168853 0.171903 0.174625 0.177007 0.179037 0.180715 0.18204 0.183014 0.183635 0.183903 0.18382 0.183417 0.18273 0.181756 0.180497 0.178953 0.177123 0.175008 0.172607 0.169978 0.167177 0.164204 0.16106 0.157745 0.154257 0.150599 0.146768 0.142826 0.13883 0.134781 0.130679 0.126524 0.122316 0.118055 0.113741 0.109421 0.10514 0.100899 0.0966983 0.0925375 0.0884166 0.0843358 0.0802948 0.0763212 0.0724423 0.068658 0.0649684 0.0613734 0.0578731 0.0544674 0.0511564 0.0479496 0.0448565 0.0418771 0.0390114 0.0362594 0.0336212 0.0310967 0.0286859 0.0263865 0.0241963 0.0221153 0.0201434 0.0182806 0.0165271 0.0148827 0.0133474 0.0119134 0.0105728 0.00932561 0.00817178 0.00711133 0.00614427 0.0052706 0.0044903 0.0037904 0.00315788 0.00259275 0.00209501 0.00166466 0.0013017 0.00100613 0.00077795 0.000595618 0.000437597 0.000303887 0.000194488 0.000109399 4.86219e-05 1.21555e-05 0 0 0.000200152 0.000800606 0.00180136 0.00320243 0.00500379 0.00720546 0.00980743 0.0128097 0.0162237 0.0200609 0.0243213 0.0290049 0.0341116 0.0396415 0.0455946 0.0519709 0.0586078 0.0653427 0.0721756 0.0791065 0.0861354 0.0932623 0.100487 0.10781 0.115082 0.122152 0.129022 0.135691 0.14216 0.148427 0.154494 0.16036 0.165944 0.171163 0.176019 0.18051 0.184638 0.188402 0.191801 0.194837 0.197495 0.199761 0.201636 0.203119 0.20421 0.20491 0.205218 0.205134 0.204696 0.203939 0.202865 0.201473 0.199763 0.197735 0.195389 0.192725 0.189806 0.186696 0.183394 0.179901 0.176216 0.172339 0.168271 0.164011 0.159625 0.155179 0.150674 0.146108 0.141483 0.136797 0.132052 0.127247 0.122434 0.117664 0.112938 0.108256 0.103618 0.0990231 0.0944721 0.089965 0.0855321 0.0812041 0.0769811 0.0728629 0.0688497 0.0649414 0.061138 0.0574395 0.0538566 0.0504002 0.0470702 0.0438666 0.0407895 0.0378387 0.0350144 0.0323165 0.0297425 0.0272901 0.0249591 0.0227495 0.0206615 0.018695 0.0168499 0.0151263 0.0135154 0.0120084 0.0106053 0.00930613 0.00811087 0.00701951 0.00603207 0.00514854 0.0043547 0.00363634 0.00299344 0.00242603 0.00193409 0.00151762 0.00117663 0.000911116 0.000697573 0.000512503 0.000355905 0.000227779 0.000128126 5.69447e-05 1.42362e-05 0 0 0.000223291 0.000893164 0.00200962 0.00357265 0.00558227 0.00803847 0.0109413 0.0142906 0.0180957 0.0223655 0.0271001 0.0322995 0.0379636 0.0440926 0.0506863 0.0577448 0.0650886 0.0725382 0.0800936 0.0877548 0.0955218 0.103395 0.111373 0.119458 0.127484 0.135289 0.142872 0.150233 0.157373 0.164291 0.170988 0.177462 0.183626 0.189388 0.19475 0.19971 0.20427 0.208428 0.212185 0.215542 0.218482 0.22099 0.223067 0.224711 0.225924 0.226705 0.227055 0.226972 0.226498 0.225673 0.224498 0.222971 0.221093 0.218864 0.216284 0.213353 0.210141 0.206716 0.20308 0.199231 0.195169 0.190896 0.186411 0.181713 0.176876 0.171972 0.167 0.161962 0.156856 0.151684 0.146444 0.141137 0.135821 0.130552 0.12533 0.120156 0.115029 0.10995 0.104918 0.0999332 0.0950301 0.0902423 0.0855698 0.0810126 0.0765706 0.0722439 0.0680326 0.0639365 0.0599677 0.0561383 0.0524482 0.0488975 0.0454861 0.0422141 0.0390814 0.036088 0.0332314 0.0305087 0.0279201 0.0254656 0.0231451 0.0209586 0.0189061 0.0169877 0.0151936 0.0135142 0.0119494 0.0104993 0.00916379 0.00794295 0.00683677 0.00584523 0.00495293 0.00414447 0.00341984 0.00277904 0.00222208 0.00174895 0.00135965 0.00105419 0.000807112 0.00059298 0.000411792 0.000263547 0.000148245 6.58867e-05 1.64717e-05 0 0 0.000247157 0.00098863 0.00222442 0.00395452 0.00617894 0.00889767 0.0121107 0.0158181 0.0200262 0.0247414 0.0299638 0.0356934 0.0419301 0.0486739 0.0559249 0.0636831 0.0717515 0.0799334 0.0882286 0.0966373 0.105159 0.113795 0.122544 0.131406 0.140204 0.148758 0.15707 0.165138 0.172963 0.180546 0.187885 0.194981 0.201736 0.208053 0.213931 0.21937 0.22437 0.228932 0.233055 0.236739 0.239968 0.242724 0.245007 0.246818 0.248156 0.249021 0.249414 0.249334 0.248826 0.247932 0.246654 0.244991 0.242944 0.240511 0.237694 0.234493 0.230982 0.227238 0.223261 0.21905 0.214606 0.20993 0.205019 0.199876 0.194579 0.189207 0.183761 0.17824 0.172645 0.166975 0.161231 0.155412 0.149582 0.143803 0.138074 0.132397 0.126771 0.121196 0.115672 0.1102 0.104815 0.0995568 0.0944241 0.0894172 0.0845361 0.0797807 0.0751512 0.0706475 0.0662829 0.0620708 0.0580111 0.054104 0.0503494 0.0467473 0.0432976 0.0400005 0.036853 0.0338524 0.0309985 0.0282915 0.0257313 0.0233179 0.0210514 0.0189317 0.0169482 0.0150902 0.0133579 0.0117512 0.0102701 0.00891459 0.00768468 0.00658037 0.00558509 0.00468228 0.00387193 0.00315405 0.00252863 0.00199568 0.00155519 0.00120716 0.000924235 0.00067903 0.000471548 0.000301791 0.000169757 7.54477e-05 1.88619e-05 0 0 0.000271751 0.001087 0.00244576 0.00434802 0.00679378 0.00978304 0.0133158 0.0173921 0.0220152 0.0271887 0.0329125 0.0391865 0.0460109 0.0533855 0.0613104 0.0697857 0.0785965 0.0875281 0.0965807 0.105754 0.115048 0.124463 0.133999 0.143656 0.153241 0.162561 0.171616 0.180406 0.188931 0.197191 0.205186 0.212916 0.220275 0.227157 0.233561 0.239489 0.24494 0.249913 0.25441 0.258429 0.261953 0.264962 0.267457 0.269438 0.270905 0.271858 0.272296 0.27222 0.271677 0.270716 0.269335 0.267535 0.265315 0.262677 0.259619 0.256143 0.252329 0.24826 0.243937 0.239359 0.234526 0.229439 0.224096 0.218499 0.212734 0.206886 0.200956 0.194943 0.188849 0.182672 0.176413 0.170072 0.163717 0.157417 0.151171 0.14498 0.138844 0.132763 0.126736 0.120764 0.114888 0.109148 0.103544 0.0980768 0.0927461 0.0875517 0.0824938 0.0775723 0.072802 0.0681975 0.0637589 0.0594862 0.0553793 0.0514383 0.0476632 0.0440539 0.0406075 0.0373209 0.0341942 0.0312273 0.0284202 0.025773 0.0232857 0.0209582 0.018779 0.0167365 0.0148309 0.013062 0.0114298 0.00993443 0.00857581 0.00735396 0.00625118 0.00524977 0.00434972 0.00355105 0.00285374 0.00225781 0.00176324 0.00137005 0.00104894 0.000770651 0.000535174 0.000342512 0.000192663 8.56279e-05 2.1407e-05 0 0 0.000297072 0.00118829 0.00267365 0.00475315 0.0074268 0.0106946 0.0145565 0.0190126 0.0240629 0.0297073 0.035946 0.0427789 0.050206 0.0582273 0.0668429 0.0760526 0.0856235 0.0953226 0.10515 0.115105 0.125188 0.1354 0.14574 0.156208 0.166596 0.176697 0.18651 0.196036 0.205275 0.214226 0.22289 0.231266 0.239241 0.2467 0.253642 0.260068 0.265978 0.271372 0.27625 0.280611 0.284436 0.287705 0.290417 0.292573 0.294172 0.295214 0.2957 0.29563 0.295054 0.294024 0.292539 0.2906 0.288208 0.28536 0.282059 0.278303 0.274182 0.269784 0.26511 0.260158 0.254929 0.249424 0.243642 0.237583 0.23134 0.225008 0.218585 0.212071 0.205468 0.198774 0.19199 0.185116 0.178226 0.171394 0.164621 0.157905 0.151248 0.14465 0.138109 0.131627 0.125247 0.119015 0.112929 0.106991 0.101201 0.0955569 0.0900605 0.0847112 0.0795252 0.0745187 0.0696916 0.065044 0.0605759 0.0562872 0.052178 0.0482482 0.0444948 0.0409144 0.0375071 0.0342729 0.0312118 0.0283239 0.025609 0.0230672 0.0206861 0.0184531 0.0163682 0.0144315 0.0126429 0.0110025 0.00951017 0.00816601 0.0069512 0.00584693 0.00485322 0.00397005 0.00319742 0.00253535 0.00198382 0.00154283 0.00118123 0.000867844 0.00060267 0.000385709 0.000216961 9.64272e-05 2.41068e-05 0 0 0.00032312 0.00129248 0.00290808 0.00516992 0.00807801 0.0116323 0.0158329 0.0206797 0.0261691 0.0322973 0.0390645 0.0464706 0.0545156 0.0631994 0.0725222 0.0824839 0.0928326 0.103317 0.113936 0.12469 0.13558 0.146605 0.157765 0.16906 0.180268 0.191166 0.201753 0.212029 0.221996 0.231652 0.240998 0.250033 0.258635 0.266682 0.274172 0.281107 0.287485 0.293308 0.298575 0.303286 0.307419 0.310953 0.313887 0.316221 0.317956 0.319092 0.319627 0.319563 0.318955 0.317856 0.31