<?xml version="1.0"?> 
<VTKFile type="StructuredGrid" version="0.1"> 
<StructuredGrid WholeExtent="0 128 0 128 0 0"> 
<Piece Extent="0 128 0 128 0 0"> 
<PointData>
<DataArray type="Float32" Name="u" format="ascii" NumberOfComponents="1"> 
0 0 0 0 0 0 0 0 0 0 0 0 0 0 0 0 0 0 0 0 0 0 0 0 0 0 0 0 0 0 0 0 0 0 0 0 0 0 0 0 0 0 0 0 0 0 0 0 0 0 0 0 0 0 0 0 0 0 0 0 0 0 0 0 0 0 0 0 0 0 0 0 0 0 0 0 0 0 0 0 0 0 0 0 0 0 0 0 0 0 0 0 0 0 0 0 0 0 0 0 0 0 0 0 0 0 0 0 0 0 0 0 0 0 0 0 0 0 0 0 0 0 0 0 0 0 0 0 0 0 1.50954e-07 6.03816e-07 1.35859e-06 2.41526e-06 3.77385e-06 5.43434e-06 7.39675e-06 9.66105e-06 1.22731e-05 1.52787e-05 1.86778e-05 2.24705e-05 2.66568e-05 3.12366e-05 3.621e-05 4.15769e-05 4.71898e-05 5.29013e-05 5.87113e-05 6.46198e-05 7.06269e-05 7.67325e-05 8.29366e-05 8.92392e-05 9.55039e-05 0.000101595 0.000107511 0.000113253 0.000118821 0.000124215 0.000129434 0.00013448 0.000139292 0.000143813 0.000148042 0.00015198 0.000155627 0.000158982 0.000162045 0.000164817 0.000167301 0.000169504 0.000171423 0.00017306 0.000174414 0.000175485 0.000176274 0.00017678 0.000177042 0.000177097 0.000176945 0.000176586 0.000176021 0.000175249 0.000174271 0.000173086 0.000171736 0.000170266 0.000168675 0.000166963 0.000165129 0.000163174 0.000161099 0.000158902 0.000156613 0.000154262 0.000151849 0.000149373 0.000146835 0.000144234 0.000141571 0.000138846 0.000136071 0.000133258 0.000130408 0.00012752 0.000124594 0.000121631 0.000118631 0.000115593 0.00011252 0.000109418 0.000106285 0.000103123 9.99294e-05 9.6706e-05 9.34523e-05 9.01684e-05 8.68622e-05 8.35416e-05 8.02065e-05 7.6857e-05 7.34931e-05 7.01147e-05 6.67219e-05 6.33147e-05 5.99162e-05 5.65495e-05 5.32146e-05 4.99115e-05 4.66402e-05 4.34007e-05 4.0193e-05 3.70171e-05 3.39145e-05 3.09265e-05 2.80531e-05 2.52945e-05 2.26505e-05 2.01211e-05 1.77064e-05 1.54064e-05 1.32536e-05 1.12806e-05 9.48737e-06 7.8739e-06 6.44022e-06 5.18631e-06 4.11219e-06 3.21784e-06 2.46366e-06 1.81003e-06 1.25697e-06 8.04459e-07 4.52508e-07 2.01115e-07 5.02787e-08 0 0 6.03816e-07 2.41526e-06 5.43434e-06 9.66105e-06 1.50954e-05 2.17374e-05 2.9587e-05 3.86442e-05 4.90924e-05 6.11148e-05 7.47114e-05 8.98822e-05 0.000106627 0.000124946 0.00014484 0.000166308 0.000188759 0.000211605 0.000234845 0.000258479 0.000282508 0.00030693 0.000331746 0.000356957 0.000382016 0.000406378 0.000430043 0.000453012 0.000475284 0.000496859 0.000517737 0.000537918 0.000557168 0.000575252 0.000592169 0.000607921 0.000622507 0.000635926 0.00064818 0.000659267 0.000669206 0.000678014 0.000685692 0.000692239 0.000697656 0.000701942 0.000705097 0.000707121 0.000708167 0.000708387 0.000707779 0.000706345 0.000704084 0.000700997 0.000697083 0.000692342 0.000686946 0.000681065 0.0006747 0.00066785 0.000660516 0.000652697 0.000644394 0.000635607 0.000626452 0.000617048 0.000607395 0.000597492 0.000587339 0.000576937 0.000566286 0.000555385 0.000544284 0.000533033 0.000521631 0.00051008 0.000498378 0.000486525 0.000474523 0.00046237 0.000450082 0.000437672 0.000425142 0.00041249 0.000399717 0.000386824 0.000373809 0.000360674 0.000347449 0.000334166 0.000320826 0.000307428 0.000293972 0.000280459 0.000266888 0.000253259 0.000239665 0.000226198 0.000212858 0.000199646 0.000186561 0.000173603 0.000160772 0.000148068 0.000135658 0.000123706 0.000112213 0.000101178 9.06019e-05 8.04845e-05 7.08258e-05 6.16257e-05 5.30145e-05 4.51224e-05 3.79495e-05 3.14956e-05 2.57609e-05 2.07452e-05 1.64487e-05 1.28713e-05 9.85462e-06 7.24013e-06 5.02787e-06 3.21784e-06 1.81003e-06 8.04459e-07 2.01115e-07 0 0 1.35859e-06 5.43434e-06 1.22273e-05 2.17374e-05 3.39646e-05 4.89091e-05 6.65707e-05 8.69495e-05 0.000110458 0.000137508 0.000168101 0.000202235 0.000239911 0.000281129 0.00032589 0.000374192 0.000424709 0.000476112 0.000528402 0.000581579 0.000635642 0.000690592 0.000746429 0.000803153 0.000859535 0.000914351 0.000967598 0.00101928 0.00106939 0.00111793 0.00116491 0.00121032 0.00125363 0.00129432 0.00133238 0.00136782 0.00140064 0.00143083 0.0014584 0.00148335 0.00150571 0.00152553 0.00154281 0.00155754 0.00156973 0.00157937 0.00158647 0.00159102 0.00159338 0.00159387 0.0015925 0.00158928 0.00158419 0.00157724 0.00156844 0.00155777 0.00154563 0.0015324 0.00151807 0.00150266 0.00148616 0.00146857 0.00144989 0.00143012 0.00140952 0.00138836 0.00136664 0.00134436 0.00132151 0.00129811 0.00127414 0.00124962 0.00122464 0.00119932 0.00117367 0.00114768 0.00112135 0.00109468 0.00106768 0.00104033 0.00101268 0.000984762 0.000956568 0.000928103 0.000899364 0.000870354 0.000841071 0.000811516 0.00078176 0.000751874 0.000721858 0.000691713 0.000661437 0.000631032 0.000600497 0.000569832 0.000539246 0.000508945 0.000478931 0.000449203 0.000419762 0.000390606 0.000361737 0.000333154 0.00030523 0.000278338 0.000252478 0.00022765 0.000203854 0.00018109 0.000159358 0.000138658 0.000119283 0.000101525 8.53863e-05 7.08651e-05 5.7962e-05 4.66768e-05 3.70097e-05 2.89605e-05 2.21729e-05 1.62903e-05 1.13127e-05 7.24013e-06 4.07257e-06 1.81003e-06 4.52508e-07 0 0 2.41526e-06 9.66105e-06 2.17374e-05 3.86442e-05 6.03816e-05 8.69495e-05 0.000118348 0.000154577 0.00019637 0.000244459 0.000298845 0.000359529 0.000426509 0.000499786 0.00057936 0.00066523 0.000755038 0.000846421 0.000939381 0.00103392 0.00113003 0.00122772 0.00132698 0.00142783 0.00152806 0.00162551 0.00172017 0.00181205 0.00190114 0.00198743 0.00207095 0.00215167 0.00222867 0.00230101 0.00236868 0.00243168 0.00249003 0.0025437 0.00259272 0.00263707 0.00267682 0.00271206 0.00274277 0.00276896 0.00279062 0.00280777 0.00282039 0.00282849 0.00283267 0.00283355 0.00283112 0.00282538 0.00281634 0.00280399 0.00278833 0.00276937 0.00274778 0.00272426 0.0026988 0.0026714 0.00264206 0.00261079 0.00257758 0.00254243 0.00250581 0.00246819 0.00242958 0.00238997 0.00234936 0.00230775 0.00226514 0.00222154 0.00217714 0.00213213 0.00208653 0.00204032 0.00199351 0.0019461 0.00189809 0.00184948 0.00180033 0.00175069 0.00170057 0.00164996 0.00159887 0.0015473 0.00149524 0.0014427 0.0013898 0.00133667 0.0012833 0.00122971 0.00117589 0.00112184 0.00106755 0.00101304 0.000958659 0.000904792 0.000851433 0.000798584 0.000746243 0.000694411 0.000643088 0.000592274 0.000542631 0.000494824 0.00044885 0.000404712 0.000362408 0.000321938 0.000283303 0.000246503 0.000212058 0.00018049 0.000151798 0.000125982 0.000103043 8.2981e-05 6.5795e-05 5.14854e-05 3.94185e-05 2.89605e-05 2.01115e-05 1.28713e-05 7.24013e-06 3.21784e-06 8.04459e-07 0 0 3.77385e-06 1.50954e-05 3.39646e-05 6.03816e-05 9.43462e-05 0.000135859 0.000184919 0.000241526 0.000306827 0.000381967 0.000466946 0.000561764 0.00066642 0.000780915 0.000905249 0.00103942 0.00117975 0.00132253 0.00146778 0.0016155 0.00176567 0.00191831 0.00207341 0.00223098 0.0023876 0.00253986 0.00268777 0.00283133 0.00297052 0.00310537 0.00323586 0.00336199 0.0034823 0.00359532 0.00370106 0.00379951 0.00389067 0.00397454 0.00405112 0.00412042 0.00418254 0.00423759 0.00428558 0.0043265 0.00436035 0.00438713 0.00440686 0.00441951 0.00442605 0.00442742 0.00442362 0.00441466 0.00440053 0.00438123 0.00435677 0.00432714 0.00429341 0.00425666 0.00421687 0.00417406 0.00412823 0.00407936 0.00402746 0.00397254 0.00391533 0.00385655 0.00379622 0.00373432 0.00367087 0.00360586 0.00353929 0.00347116 0.00340178 0.00333146 0.0032602 0.003188 0.00311486 0.00304078 0.00296577 0.00288981 0.00281301 0.00273545 0.00265713 0.00257806 0.00249823 0.00241765 0.00233631 0.00225421 0.00217156 0.00208854 0.00200516 0.00192142 0.00183733 0.00175287 0.00166805 0.00158287 0.00149791 0.00141374 0.00133036 0.00124779 0.001166 0.00108502 0.00100483 0.000925428 0.000847862 0.000773162 0.000701329 0.000632362 0.000566262 0.000503028 0.000442661 0.000385161 0.000331341 0.000282015 0.000237184 0.000196848 0.000161005 0.000129658 0.000102805 8.04459e-05 6.15914e-05 4.52508e-05 3.14242e-05 2.01115e-05 1.13127e-05 5.02787e-06 1.25697e-06 0 0 5.43434e-06 2.17374e-05 4.89091e-05 8.69495e-05 0.000135859 0.000195636 0.000266283 0.000347798 0.000441831 0.000550033 0.000672402 0.000808939 0.000959645 0.00112452 0.00130356 0.00149677 0.00169883 0.00190445 0.00211361 0.00232631 0.00254257 0.00276237 0.00298572 0.00321261 0.00343814 0.0036574 0.00387039 0.00407711 0.00427755 0.00447173 0.00465963 0.00484126 0.00501451 0.00517726 0.00532952 0.00547129 0.00560256 0.00572333 0.00583362 0.0059334 0.00602285 0.00610213 0.00617123 0.00623015 0.0062789 0.00631747 0.00634587 0.00636409 0.00637351 0.00637548 0.00637001 0.00635711 0.00633676 0.00630897 0.00627375 0.00623108 0.00618251 0.00612959 0.0060723 0.00601065 0.00594464 0.00587428 0.00579955 0.00572046 0.00563807 0.00555343 0.00546655 0.00537743 0.00528605 0.00519244 0.00509657 0.00499846 0.00489856 0.0047973 0.00469468 0.00459072 0.0044854 0.00437873 0.00427071 0.00416133 0.00405073 0.00393905 0.00382627 0.00371241 0.00359746 0.00348142 0.00336428 0.00324606 0.00312704 0.0030075 0.00288743 0.00276685 0.00264575 0.00252413 0.00240199 0.00227933 0.00215698 0.00203578 0.00191573 0.00179681 0.00167905 0.00156243 0.00144695 0.00133262 0.00122092 0.00111335 0.00100991 0.000910601 0.000815417 0.000724361 0.000637432 0.000554631 0.000477131 0.000406102 0.000341545 0.00028346 0.000231848 0.000186707 0.000148039 0.000115842 8.86916e-05 6.51612e-05 4.52508e-05 2.89605e-05 1.62903e-05 7.24013e-06 1.81003e-06 0 0 7.39675e-06 2.9587e-05 6.65707e-05 0.000118348 0.000184919 0.000266283 0.000362441 0.000473392 0.000601382 0.000748656 0.000915214 0.00110106 0.00130618 0.00153059 0.00177429 0.00203727 0.0023123 0.00259216 0.00287685 0.00316637 0.00346072 0.00375989 0.00406389 0.00437272 0.00467969 0.00497813 0.00526803 0.0055494 0.00582223 0.00608652 0.00634228 0.0065895 0.00682531 0.00704683 0.00725407 0.00744703 0.00762571 0.00779009 0.0079402 0.00807602 0.00819777 0.00830568 0.00839973 0.00847993 0.00854628 0.00859878 0.00863744 0.00866224 0.00867505 0.00867774 0.0086703 0.00865273 0.00862503 0.00858721 0.00853927 0.00848119 0.00841509 0.00834305 0.00826507 0.00818116 0.00809132 0.00799554 0.00789383 0.00778618 0.00767404 0.00755884 0.00744059 0.00731927 0.00719491 0.00706748 0.006937 0.00680346 0.00666748 0.00652965 0.00638998 0.00624848 0.00610513 0.00595994 0.00581291 0.00566403 0.0055135 0.00536148 0.00520798 0.005053 0.00489654 0.00473859 0.00457916 0.00441825 0.00425625 0.00409354 0.00393012 0.00376599 0.00360116 0.00343562 0.00326937 0.00310242 0.00293589 0.00277093 0.00260752 0.00244566 0.00228537 0.00212663 0.00196946 0.00181384 0.00166181 0.0015154 0.0013746 0.00123943 0.00110987 0.000985935 0.000867616 0.000754915 0.000649428 0.00055275 0.000464881 0.000385821 0.000315571 0.000254129 0.000201497 0.000157674 0.000120719 8.86916e-05 6.15914e-05 3.94185e-05 2.21729e-05 9.85462e-06 2.46366e-06 0 0 9.66105e-06 3.86442e-05 8.69495e-05 0.000154577 0.000241526 0.000347798 0.000473392 0.000618308 0.000785478 0.000977836 0.00119538 0.00143811 0.00170604 0.00199914 0.00231744 0.00266092 0.00302015 0.00338568 0.00375752 0.00413567 0.00452012 0.00491088 0.00530794 0.00571131 0.00611225 0.00650205 0.0068807 0.00724819 0.00760454 0.00794974 0.00828379 0.00860669 0.00891469 0.00920403 0.00947471 0.00972674 0.0099601 0.0101748 0.0103709 0.0105483 0.0107073 0.0108482 0.0109711 0.0110758 0.0111625 0.0112311 0.0112815 0.0113139 0.0113307 0.0113342 0.0113245 0.0113015 0.0112654 0.011216 0.0111533 0.0110775 0.0109911 0.010897 0.0107952 0.0106856 0.0105683 0.0104432 0.0103103 0.0101697 0.0100232 0.00987277 0.00971832 0.00955987 0.00939743 0.009231 0.00906057 0.00888616 0.00870854 0.00852853 0.0083461 0.00816128 0.00797404 0.00778441 0.00759237 0.00739792 0.0072013 0.00700275 0.00680226 0.00659984 0.00639548 0.00618918 0.00598095 0.00577078 0.00555918 0.00534666 0.00513321 0.00491885 0.00470356 0.00448734 0.0042702 0.00405214 0.00383464 0.00361917 0.00340573 0.00319434 0.00298497 0.00277764 0.00257235 0.0023691 0.00217053 0.00197929 0.0017954 0.00161885 0.00144963 0.00128775 0.00113321 0.000986011 0.000848232 0.000721959 0.000607191 0.00050393 0.000412174 0.000331924 0.00026318 0.000205942 0.000157674 0.000115842 8.04459e-05 5.14854e-05 2.89605e-05 1.28713e-05 3.21784e-06 0 0 1.23043e-05 4.92173e-05 0.000110739 0.000196869 0.000307608 0.000442956 0.000602912 0.000787477 0.00100024 0.00124479 0.00152113 0.00182925 0.00216916 0.00254086 0.00294435 0.00337963 0.00383475 0.0042978 0.00476876 0.00524764 0.00573443 0.00622914 0.00673177 0.00724232 0.00774978 0.00824315 0.00872243 0.00918762 0.00963872 0.0100757 0.0104986 0.0109075 0.0112974 0.0116639 0.0120067 0.0123259 0.0126216 0.0128937 0.0131422 0.0133671 0.0135688 0.0137476 0.0139035 0.0140366 0.0141467 0.014234 0.0142984 0.0143399 0.0143615 0.0143664 0.0143546 0.014326 0.0142806 0.0142185 0.0141396 0.014044 0.013935 0.0138162 0.0136876 0.0135491 0.0134007 0.0132425 0.0130745 0.0128966 0.0127113 0.0125208 0.0123253 0.0121247 0.011919 0.0117082 0.0114923 0.0112713 0.0110462 0.0108181 0.0105869 0.0103527 0.0101154 0.00987496 0.00963151 0.00938499 0.00913571 0.00888398 0.00862979 0.00837314 0.00811405 0.00785249 0.00758849 0.00732202 0.00705375 0.00678432 0.00651373 0.00624198 0.00596907 0.005695 0.00541977 0.00514339 0.00486771 0.00459461 0.00432408 0.00405614 0.00379078 0.003528 0.0032678 0.00301018 0.00275848 0.00251604 0.00228286 0.00205895 0.0018443 0.00163891 0.00144278 0.00125592 0.00108096 0.000920544 0.000774674 0.000643349 0.000526568 0.000424333 0.000336642 0.000263495 0.000201739 0.000148216 0.000102928 6.58738e-05 3.7054e-05 1.64685e-05 4.11712e-06 0 0 1.54036e-05 6.16144e-05 0.000138632 0.000246458 0.00038509 0.000554529 0.000754776 0.00098583 0.00125178 0.00155673 0.00190067 0.00228361 0.00270554 0.00316646 0.00366637 0.00420528 0.00476848 0.00534129 0.00592369 0.0065157 0.0071173 0.00772851 0.00834931 0.00897972 0.00960625 0.0102154 0.0108073 0.0113818 0.011939 0.0124788 0.0130013 0.0135064 0.0139884 0.0144413 0.0148653 0.0152602 0.015626 0.0159629 0.0162707 0.0165495 0.0167997 0.0170217 0.0172154 0.0173809 0.0175182 0.0176273 0.0177081 0.0177607 0.0177888 0.0177961 0.0177827 0.0177486 0.0176937 0.0176181 0.0175218 0.0174046 0.017271 0.0171252 0.016967 0.0167966 0.016614 0.0164191 0.0162119 0.0159925 0.0157637 0.0155286 0.015287 0.0150391 0.0147848 0.0145241 0.0142571 0.0139836 0.013705 0.0134226 0.0131363 0.0128462 0.0125523 0.0122544 0.0119528 0.0116472 0.0113383 0.0110263 0.0107112 0.0103931 0.010072 0.00974783 0.00942062 0.00909036 0.00875788 0.00842398 0.00808868 0.00775197 0.00741385 0.00707433 0.00673339 0.00639104 0.00604959 0.00571133 0.00537627 0.0050444 0.00471573 0.00439025 0.00406796 0.00374887 0.00343706 0.00313662 0.00284754 0.00256982 0.00230348 0.0020485 0.00180488 0.00157263 0.00135502 0.00115532 0.000973527 0.000809641 0.000663664 0.000535596 0.000425437 0.000333186 0.000255096 0.000187417 0.000130151 8.32965e-05 4.68543e-05 2.08241e-05 5.20603e-06 0 0 1.89589e-05 7.58355e-05 0.00017063 0.000303342 0.000473972 0.00068252 0.000928985 0.00121337 0.00154011 0.00191366 0.00233402 0.00280118 0.00331515 0.00387592 0.0044835 0.00513788 0.00582135 0.00651616 0.00722233 0.00793986 0.00866873 0.00940896 0.0101605 0.0109235 0.0116817 0.0124189 0.0131353 0.0138307 0.0145053 0.015159 0.0157917 0.0164036 0.0169875 0.0175365 0.0180504 0.0185294 0.0189734 0.0193824 0.0197565 0.0200955 0.0204 0.0206704 0.0209067 0.0211089 0.0212769 0.0214108 0.0215107 0.0215763 0.0216124 0.0216232 0.0216089 0.0215694 0.0215047 0.0214148 0.0212998 0.0211596 0.0209992 0.0208239 0.0206336 0.0204283 0.020208 0.0199728 0.0197225 0.0194573 0.0191806 0.018896 0.0186036 0.0183032 0.017995 0.017679 0.017355 0.0170231 0.016685 0.016342 0.0159944 0.0156419 0.0152847 0.0149228 0.0145561 0.0141847 0.013809 0.0134296 0.0130466 0.0126598 0.0122694 0.0118752 0.0114773 0.0110758 0.0106715 0.0102656 0.00985806 0.00944881 0.00903789 0.00862531 0.00821105 0.00779512 0.00738029 0.00696935 0.00656229 0.00615911 0.0057598 0.00536438 0.00497284 0.00458518 0.00420628 0.00384103 0.00348943 0.00315148 0.00282718 0.00251652 0.00221952 0.00193616 0.00167042 0.00142629 0.00120375 0.00100281 0.000823462 0.000665715 0.000529566 0.000415014 0.000317745 0.000233445 0.000162115 0.000103753 5.83613e-05 2.59384e-05 6.48459e-06 0 0 2.29702e-05 9.18807e-05 0.000206732 0.000367523 0.000574254 0.000826926 0.00112554 0.00147009 0.00186523 0.00231558 0.00282117 0.00338197 0.003998 0.00466926 0.00539573 0.00617743 0.00699334 0.00782242 0.00866468 0.00952011 0.0103887 0.0112705 0.0121655 0.0130736 0.013976 0.0148536 0.0157064 0.0165344 0.0173377 0.0181162 0.01887 0.019599 0.0202948 0.0209493 0.0215622 0.0221337 0.0226637 0.0231523 0.0235994 0.0240051 0.0243698 0.0246939 0.0249774 0.0252204 0.0254229 0.0255848 0.0257061 0.0257869 0.0258324 0.0258478 0.0258331 0.0257884 0.0257136 0.0256087 0.0254737 0.0253087 0.0251196 0.0249125 0.0246873 0.0244441 0.0241829 0.0239036 0.0236063 0.023291 0.0229619 0.0226232 0.0222749 0.021917 0.0215496 0.0211726 0.020786 0.0203898 0.019986 0.0195764 0.019161 0.0187398 0.0183128 0.0178801 0.0174416 0.0169973 0.0165479 0.0160941 0.0156359 0.0151732 0.0147061 0.0142346 0.0137587 0.0132783 0.0127948 0.0123093 0.0118219 0.0113325 0.0108412 0.0103479 0.00985275 0.00935561 0.00885982 0.00836866 0.00788214 0.00740026 0.00692301 0.0064504 0.00598243 0.0055191 0.00506613 0.00462928 0.00420854 0.00380391 0.00341539 0.00304298 0.00268668 0.00234649 0.00202716 0.00173345 0.00146534 0.00122285 0.00100596 0.00081469 0.000649028 0.000508978 0.000389686 0.0002863 0.00019882 0.000127245 7.15751e-05 3.18111e-05 7.95278e-06 0 0 2.74375e-05 0.00010975 0.000246937 0.000438999 0.000685937 0.000987749 0.00134444 0.001756 0.00222712 0.00276249 0.00336211 0.00402598 0.0047541 0.00554646 0.00640307 0.00732394 0.00828446 0.00926005 0.0102507 0.0112565 0.0122773 0.0133132 0.0143641 0.0154302 0.0164893 0.0175194 0.0185206 0.0194929 0.0204362 0.0213506 0.022236 0.0230925 0.0239103 0.0246797 0.0254006 0.026073 0.026697 0.0272725 0.0277996 0.0282782 0.0287089 0.029092 0.0294275 0.0297155 0.029956 0.030149 0.0302944 0.0303923 0.0304487 0.0304697 0.0304553 0.0304055 0.0303203 0.0301996 0.0300435 0.029852 0.0296321 0.0293908 0.0291281 0.028844 0.0285386 0.0282117 0.0278634 0.0274937 0.0271076 0.02671 0.026301 0.0258805 0.0254485 0.025005 0.0245501 0.0240837 0.0236081 0.0231256 0.0226362 0.0221398 0.0216365 0.0211263 0.0206092 0.0200851 0.019555 0.0190196 0.018479 0.0179332 0.0173822 0.016826 0.0162646 0.0156979 0.0151275 0.0145549 0.0139801 0.013403 0.0128238 0.0122422 0.0116585 0.0110725 0.0104882 0.00990926 0.00933583 0.00876786 0.00820536 0.00764832 0.00709674 0.00655063 0.00601663 0.00550137 0.00500487 0.00452712 0.00406812 0.00362787 0.00320638 0.00280363 0.00242524 0.0020768 0.0017583 0.00146976 0.00121116 0.000982519 0.000783824 0.00061508 0.00047092 0.000345982 0.000240265 0.00015377 8.64956e-05 3.84425e-05 9.61062e-06 0 0 3.23608e-05 0.000129443 0.000291247 0.000517772 0.000809019 0.00116499 0.00158568 0.00207109 0.0026258 0.00325439 0.00395686 0.00473321 0.00558343 0.00650754 0.00750552 0.00857739 0.00969471 0.0108291 0.0119805 0.0131489 0.0143344 0.0155369 0.0167565 0.0179931 0.0192215 0.0204164 0.021578 0.0227061 0.0238008 0.0248621 0.0258899 0.0268843 0.027834 0.0287278 0.0295655 0.0303473 0.0310732 0.0317431 0.032357 0.0329149 0.0334174 0.0338647 0.034257 0.0345943 0.0348765 0.0351036 0.0352756 0.0353926 0.0354615 0.0354891 0.0354756 0.0354208 0.0353248 0.0351876 0.0350092 0.0347896 0.0345368 0.034259 0.0339561 0.0336281 0.033275 0.0328969 0.0324937 0.0320654 0.0316178 0.0311566 0.0306819 0.0301936 0.0296917 0.0291763 0.0286473 0.0281048 0.0275514 0.0269898 0.02642 0.025842 0.0252558 0.0246614 0.0240588 0.0234481 0.0228302 0.0222062 0.0215761 0.02094 0.0202978 0.0196495 0.0189951 0.0183346 0.0176699 0.0170026 0.0163328 0.0156604 0.0149856 0.0143082 0.0136283 0.0129458 0.0122653 0.0115911 0.0109234 0.0102619 0.00960684 0.00895812 0.00831577 0.00767978 0.00705775 0.0064573 0.00587842 0.00532111 0.00478537 0.0042712 0.00377861 0.00330758 0.00286465 0.00245634 0.00208263 0.00174354 0.00143907 0.0011692 0.000933954 0.000733318 0.000561446 0.000412491 0.000286452 0.000183329 0.000103123 4.58324e-05 1.14581e-05 0 0 3.77401e-05 0.00015096 0.000339661 0.000603841 0.000943502 0.00135864 0.00184926 0.00241537 0.00306126 0.00379128 0.00460541 0.00550365 0.00648601 0.00755249 0.00870308 0.00993779 0.0112241 0.0125295 0.0138539 0.0151975 0.0165601 0.0179417 0.0193425 0.0207623 0.0221726 0.0235447 0.0248785 0.0261741 0.0274315 0.0286506 0.0298316 0.0309743 0.0320659 0.0330935 0.0340571 0.0349567 0.0357923 0.036564 0.0372716 0.0379152 0.0384953 0.0390122 0.039466 0.0398566 0.0401841 0.0404485 0.0406497 0.0407878 0.0408706 0.040906 0.0408938 0.0408343 0.0407272 0.0405727 0.0403708 0.0401214 0.0398337 0.0395169 0.0391711 0.0387962 0.0383923 0.0379592 0.0374971 0.037006 0.0364924 0.0359629 0.0354175 0.0348564 0.0342793 0.0336864 0.0330777 0.0324531 0.0318158 0.0311689 0.0305124 0.0298463 0.0291707 0.0284854 0.0277906 0.0270862 0.0263736 0.0256539 0.0249272 0.0241934 0.0234527 0.022705 0.0219502 0.0211884 0.0204218 0.0196522 0.0188799 0.0181047 0.0173267 0.0165458 0.0157621 0.0149756 0.0141913 0.0134143 0.0126447 0.0118824 0.0111274 0.0103798 0.00963951 0.00890654 0.00818951 0.00749706 0.00682918 0.00618587 0.00556713 0.00497296 0.00440337 0.00385834 0.0033454 0.00287207 0.00243833 0.0020442 0.00168967 0.00137474 0.00109942 0.000863693 0.000661265 0.000485827 0.00033738 0.000215923 0.000121457 5.39808e-05 1.34952e-05 0 0 4.35754e-05 0.000174302 0.000392179 0.000697206 0.00108939 0.00156871 0.00213519 0.00278883 0.00353351 0.00437315 0.00530776 0.00633732 0.00746183 0.00868131 0.00999574 0.0114051 0.0128726 0.0143612 0.0158711 0.0174021 0.0189543 0.0205277 0.0221223 0.023738 0.0253427 0.0269041 0.0284221 0.0298968 0.0313282 0.0327163 0.034061 0.0353624 0.0366059 0.0377769 0.0388753 0.0399011 0.0408544 0.0417352 0.0425434 0.043279 0.0439425 0.0445343 0.0450543 0.0455025 0.045879 0.0461837 0.0464167 0.0465779 0.0466761 0.0467202 0.0467101 0.0466459 0.0465275 0.0463549 0.0461282 0.0458473 0.0455227 0.0451647 0.0447733 0.0443485 0.0438903 0.0433988 0.0428738 0.0423155 0.0417314 0.0411288 0.040508 0.0398688 0.0392112 0.0385354 0.0378411 0.0371285 0.0364012 0.0356629 0.0349134 0.0341528 0.0333811 0.0325984 0.0318045 0.0309996 0.0301851 0.0293626 0.0285321 0.0276936 0.026847 0.0259925 0.0251299 0.0242593 0.0233832 0.0225039 0.0216214 0.0207358 0.019847 0.0189551 0.01806 0.0171617 0.0162661 0.0153788 0.0144999 0.0136294 0.0127672 0.0119134 0.011068 0.0102309 0.00941191 0.00862066 0.00785716 0.00712141 0.00641341 0.00573316 0.00508066 0.00445591 0.00386749 0.00332399 0.0028254 0.00237173 0.00196298 0.00159914 0.00128021 0.0010062 0.000770376 0.00056599 0.000393049 0.000251551 0.000141498 6.28878e-05 1.5722e-05 0 0 4.97635e-05 0.000199054 0.000447871 0.000796216 0.00124409 0.00179148 0.00243841 0.00318486 0.0040342 0.00498977 0.00605158 0.00721962 0.0084939 0.00987443 0.0113612 0.0129542 0.0146119 0.016293 0.0179974 0.0197251 0.0214761 0.0232504 0.025048 0.0268689 0.0286772 0.0304367 0.0321477 0.03381 0.0354236 0.0369886 0.038505 0.0399726 0.0413753 0.0426965 0.0439362 0.0450945 0.0461713 0.0471667 0.0480807 0.0489132 0.0496645 0.0503352 0.050925 0.0514341 0.0518625 0.05221 0.0524769 0.0526629 0.052778 0.0528319 0.0528246 0.0527561 0.0526264 0.0524356 0.0521835 0.0518702 0.0515074 0.0511066 0.0506679 0.0501913 0.0496767 0.0491242 0.0485337 0.0479053 0.0472474 0.0465685 0.0458687 0.0451478 0.0444059 0.043643 0.0428591 0.0420542 0.0412325 0.0403981 0.0395509 0.0386911 0.0378185 0.0369332 0.0360352 0.0351246 0.034203 0.0332724 0.0323327 0.0313839 0.0304261 0.0294592 0.0284832 0.0274982 0.0265069 0.0255121 0.0245138 0.023512 0.0225068 0.0214981 0.0204858 0.0194701 0.0184574 0.0174541 0.0164603 0.0154759 0.014501 0.0135355 0.0125795 0.0116329 0.0107066 0.00981134 0.00894711 0.00811392 0.00731177 0.00654066 0.0058006 0.00509158 0.00442332 0.00380553 0.00323822 0.00272138 0.00225502 0.00183914 0.00147373 0.00115879 0.000887199 0.00065182 0.000452653 0.000289698 0.000162955 7.24244e-05 1.81061e-05 0 0 5.6201e-05 0.000224804 0.000505809 0.000899217 0.00140503 0.00202324 0.00275385 0.00359687 0.00455497 0.00563087 0.00682454 0.008136 0.00956524 0.0111123 0.0127771 0.0145597 0.0164138 0.0182934 0.0201984 0.0221287 0.0240844 0.0260655 0.028072 0.0301039 0.0321214 0.0340848 0.0359941 0.0378493 0.0396503 0.0413972 0.04309 0.0447287 0.0462951 0.0477709 0.0491561 0.0504508 0.051655 0.0527686 0.0537917 0.0547242 0.0555665 0.0563188 0.0569812 0.0575535 0.0580359 0.0584282 0.0587307 0.0589431 0.0590763 0.0591411 0.0591374 0.0590654 0.0589248 0.0587159 0.0584385 0.0580927 0.0576913 0.0572472 0.0567604 0.056231 0.0556589 0.0550441 0.0543867 0.0536865 0.0529531 0.0521959 0.051415 0.0506102 0.0497817 0.0489293 0.0480532 0.0471532 0.0462342 0.0453007 0.0443529 0.0433906 0.042414 0.0414229 0.0404175 0.0393976 0.0383654 0.0373231 0.0362706 0.035208 0.0341352 0.0330522 0.0319591 0.0308558 0.0297456 0.0286315 0.0275135 0.0263918 0.0252662 0.0241368 0.0230036 0.0218666 0.0207329 0.0196098 0.0184972 0.0173952 0.0163037 0.0152228 0.0141525 0.0130927 0.0120553 0.0110523 0.0100838 0.00914958 0.00824977 0.00738435 0.0065533 0.00575664 0.00500528 0.00431012 0.00367115 0.0030884 0.00256184 0.00209149 0.00167734 0.00131939 0.00101016 0.000742156 0.000515386 0.000329847 0.000185539 8.24618e-05 2.06154e-05 0 0 6.28881e-05 0.000251552 0.000565993 0.00100621 0.0015722 0.00226397 0.00308152 0.00402484 0.00509585 0.00629645 0.00762665 0.00908644 0.0106758 0.0123948 0.0142434 0.0162216 0.0182783 0.0203624 0.0224739 0.0246129 0.0267793 0.0289731 0.0311944 0.033443 0.0356756 0.0378483 0.0399614 0.0420147 0.0440083 0.0459421 0.0478163 0.0496306 0.0513653 0.053 0.054535 0.0559701 0.0573054 0.0585409 0.0596765 0.0607123 0.0616485 0.0624853 0.0632227 0.0638606 0.0643992 0.0648383 0.065178 0.0654183 0.065571 0.0656478 0.0656486 0.0655736 0.0654227 0.0651959 0.0648932 0.0645146 0.0640743 0.0635864 0.0630508 0.0624677 0.061837 0.0611587 0.0604327 0.0596592 0.0588485 0.0580111 0.0571469 0.0562561 0.0553385 0.0543942 0.0534232 0.0524255 0.0514063 0.0503709 0.0493194 0.0482516 0.0471677 0.0460675 0.0449512 0.0438187 0.0426724 0.0415149 0.040346 0.0391659 0.0379744 0.0367717 0.0355576 0.0343323 0.0330992 0.031862 0.0306206 0.029375 0.0281253 0.0268714 0.0256133 0.0243511 0.0230927 0.0218458 0.0206107 0.0193872 0.0181754 0.0169753 0.0157869 0.0146101 0.013458 0.0123437 0.0112672 0.0102284 0.00922742 0.00826421 0.00733877 0.0064511 0.00561337 0.00483774 0.00412421 0.00347277 0.00288343 0.00235619 0.00189104 0.001488 0.00113925 0.000836998 0.000581249 0.000371999 0.000209249 9.29998e-05 2.32499e-05 0 0 6.98247e-05 0.000279299 0.000628422 0.00111719 0.00174562 0.00251369 0.00342141 0.00446878 0.00565681 0.00698652 0.0084579 0.010071 0.0118257 0.0137221 0.0157602 0.01794 0.0202053 0.0225 0.0248241 0.0271777 0.0295607 0.0319731 0.034415 0.0368863 0.0393395 0.0417272 0.0440495 0.0463063 0.0484976 0.0506233 0.0526836 0.0546785 0.0565859 0.058384 0.0600728 0.0616523 0.0631225 0.0644835 0.0657351 0.0668774 0.0679105 0.0688346 0.0696496 0.0703556 0.0709524 0.0714403 0.071819 0.0720887 0.0722621 0.0723519 0.0723582 0.0722809 0.0721201 0.0718756 0.0715477 0.0711362 0.0706565 0.0701242 0.0695391 0.0689014 0.0682109 0.0674677 0.0666719 0.0658233 0.0649335 0.0640139 0.0630646 0.0620854 0.0610765 0.0600378 0.0589693 0.057871 0.0567488 0.0556086 0.0544503 0.0532739 0.0520795 0.050867 0.0496364 0.0483878 0.047124 0.0458476 0.0445588 0.0432575 0.0419437 0.0406175 0.0392788 0.0379276 0.0365679 0.0352037 0.033835 0.0324617 0.031084 0.0297018 0.028315 0.0269237 0.0255366 0.0241623 0.0228008 0.021452 0.0201161 0.018793 0.0174827 0.0161852 0.0149146 0.0136853 0.0124973 0.0113504 0.0102447 0.00918024 0.00815699 0.00717496 0.00624761 0.00538841 0.00459738 0.00387451 0.0032198 0.00263324 0.00211485 0.00166462 0.00127447 0.000936346 0.00065024 0.000416154 0.000234087 0.000104038 2.60096e-05 0 0 7.70107e-05 0.000308043 0.000693096 0.00123217 0.00192527 0.00277239 0.00377352 0.00492869 0.00623787 0.00770107 0.0093183 0.0110895 0.0130148 0.0150941 0.0173274 0.0197148 0.0221948 0.0247062 0.027249 0.0298232 0.0324287 0.0350656 0.0377339 0.0404336 0.0431133 0.0457216 0.0482585 0.050724 0.0531181 0.0554408 0.0576922 0.0598721 0.0619569 0.0639227 0.0657696 0.0674975 0.0691064 0.0705964 0.0719674 0.0732194 0.0743525 0.0753667 0.0762619 0.0770382 0.0776956 0.0782341 0.0786536 0.0789542 0.0791496 0.0792536 0.0792661 0.0791872 0.0790169 0.0787551 0.0784019 0.0779573 0.0774379 0.0768606 0.0762253 0.0755319 0.0747807 0.0739714 0.0731041 0.0721789 0.0712082 0.0702045 0.0691678 0.0680982 0.0669956 0.06586 0.0646914 0.0634899 0.0622618 0.0610137 0.0597457 0.0584576 0.0571495 0.0558213 0.0544732 0.0531051 0.0517201 0.0503214 0.048909 0.0474829 0.0460431 0.0445896 0.0431225 0.0416416 0.0401515 0.0386565 0.0371567 0.0356519 0.0341424 0.0326279 0.0311086 0.0295844 0.0280648 0.0265591 0.0250674 0.0235896 0.0221257 0.0206759 0.0192399 0.0178179 0.0164253 0.0150773 0.0137741 0.0125155 0.0113016 0.0101325 0.00900798 0.00792821 0.00690797 0.00596213 0.00509067 0.00429361 0.00357093 0.00292265 0.00234875 0.00184925 0.00141583 0.0010402 0.000722362 0.000462312 0.00026005 0.000115578 2.88945e-05 0 0 8.44463e-05 0.000337785 0.000760016 0.00135114 0.00211116 0.00304007 0.00413787 0.00540456 0.00683902 0.00844011 0.0102078 0.0121422 0.0142432 0.0165108 0.0189451 0.021546 0.0242469 0.026981 0.0297485 0.0325492 0.0353832 0.0382505 0.0411511 0.044085 0.0469969 0.0498313 0.0525882 0.0552678 0.0578699 0.0603946 0.0628418 0.0652117 0.0674784 0.0696163 0.0716254 0.0735056 0.0752571 0.0768797 0.0783735 0.0797385 0.0809745 0.0820816 0.0830597 0.0839087 0.0846287 0.0852197 0.0856818 0.0860148 0.0862335 0.0863527 0.0863724 0.0862925 0.0861132 0.0858343 0.0854558 0.0849779 0.0844185 0.0837956 0.0831093 0.0823595 0.0815463 0.0806696 0.0797295 0.078726 0.0776725 0.0765828 0.0754568 0.0742944 0.0730958 0.0718608 0.0705895 0.069282 0.0679452 0.0665864 0.0652055 0.0638026 0.0623776 0.