<?xml version="1.0"?> 
<VTKFile type="StructuredGrid" version="0.1"> 
<StructuredGrid WholeExtent="0 128 0 128 0 0"> 
<Piece Extent="0 128 0 128 0 0"> 
<PointData>
<DataArray type="Float32" Name="u" format="ascii" NumberOfComponents="1"> 
0 0 0 0 0 0 0 0 0 0 0 0 0 0 0 0 0 0 0 0 0 0 0 0 0 0 0 0 0 0 0 0 0 0 0 0 0 0 0 0 0 0 0 0 0 0 0 0 0 0 0 0 0 0 0 0 0 0 0 0 0 0 0 0 0 0 0 0 0 0 0 0 0 0 0 0 0 0 0 0 0 0 0 0 0 0 0 0 0 0 0 0 0 0 0 0 0 0 0 0 0 0 0 0 0 0 0 0 0 0 0 0 0 0 0 0 0 0 0 0 0 0 0 0 0 0 0 0 0 0 -7.88404e-09 -3.15362e-08 -7.09564e-08 -1.26145e-07 -1.97101e-07 -2.83826e-07 -3.86318e-07 -5.04579e-07 -6.13435e-07 -6.87714e-07 -7.27416e-07 -7.3254e-07 -7.03087e-07 -6.39058e-07 -5.4045e-07 -4.07266e-07 -2.02496e-07 1.10867e-07 5.32824e-07 1.06338e-06 1.70252e-06 2.45026e-06 3.30659e-06 4.27152e-06 5.3242e-06 6.44378e-06 7.63027e-06 8.88368e-06 1.0204e-05 1.15912e-05 1.30453e-05 1.45664e-05 1.60702e-05 1.74728e-05 1.8774e-05 1.9974e-05 2.10727e-05 2.20702e-05 2.29663e-05 2.37611e-05 2.44035e-05 2.48423e-05 2.50775e-05 2.5109e-05 2.4937e-05 2.45613e-05 2.3982e-05 2.31991e-05 2.22827e-05 2.13031e-05 2.02603e-05 1.91541e-05 1.79847e-05 1.6752e-05 1.54561e-05 1.40969e-05 1.27927e-05 1.1662e-05 1.07047e-05 9.92088e-06 9.31045e-06 8.87345e-06 8.60988e-06 8.51974e-06 8.60301e-06 8.85967e-06 9.28974e-06 9.8932e-06 1.06701e-05 1.16203e-05 1.2744e-05 1.4041e-05 1.53932e-05 1.66823e-05 1.79083e-05 1.90712e-05 2.0171e-05 2.12077e-05 2.21813e-05 2.30918e-05 2.38693e-05 2.44437e-05 2.48153e-05 2.49839e-05 2.49495e-05 2.47122e-05 2.42719e-05 2.36286e-05 2.28337e-05 2.19384e-05 2.09426e-05 1.98465e-05 1.865e-05 1.7353e-05 1.59557e-05 1.44579e-05 1.29436e-05 1.14963e-05 1.01163e-05 8.8034e-06 7.55768e-06 6.37911e-06 5.2677e-06 4.22346e-06 3.26675e-06 2.41796e-06 1.67709e-06 1.04413e-06 5.19095e-07 1.01976e-07 -2.07225e-07 -4.08509e-07 -5.38831e-07 -6.35146e-07 -6.97455e-07 -7.25758e-07 -7.20054e-07 -6.80344e-07 -6.06628e-07 -4.98905e-07 -3.81974e-07 -2.80634e-07 -1.94885e-07 -1.24726e-07 -7.01585e-08 -3.11815e-08 -7.79538e-09 0 0 -3.15362e-08 -1.26145e-07 -2.83826e-07 -5.04579e-07 -7.88404e-07 -1.1353e-06 -1.54527e-06 -2.01832e-06 -2.45374e-06 -2.75086e-06 -2.90966e-06 -2.93016e-06 -2.81235e-06 -2.55623e-06 -2.1618e-06 -1.62906e-06 -8.09986e-07 4.43469e-07 2.1313e-06 4.2535e-06 6.81008e-06 9.80104e-06 1.32264e-05 1.70861e-05 2.12968e-05 2.57751e-05 3.05211e-05 3.55347e-05 4.08159e-05 4.63648e-05 5.21813e-05 5.82655e-05 6.42808e-05 6.98911e-05 7.50962e-05 7.98961e-05 8.42909e-05 8.82806e-05 9.18651e-05 9.50445e-05 9.76141e-05 9.93692e-05 0.00010031 0.000100436 9.97478e-05 9.82451e-05 9.5928e-05 9.27964e-05 8.9131e-05 8.52125e-05 8.1041e-05 7.66165e-05 7.19388e-05 6.70081e-05 6.18243e-05 5.63874e-05 5.11709e-05 4.6648e-05 4.28189e-05 3.96835e-05 3.72418e-05 3.54938e-05 3.44395e-05 3.40789e-05 3.4412e-05 3.54387e-05 3.7159e-05 3.95728e-05 4.26803e-05 4.64813e-05 5.09759e-05 5.61641e-05 6.1573e-05 6.67294e-05 7.16334e-05 7.62849e-05 8.06841e-05 8.48309e-05 8.87252e-05 9.23672e-05 9.5477e-05 9.7775e-05 9.92612e-05 9.99355e-05 9.9798e-05 9.88487e-05 9.70875e-05 9.45145e-05 9.13348e-05 8.77535e-05 8.37706e-05 7.9386e-05 7.45999e-05 6.94121e-05 6.38227e-05 5.78317e-05 5.17742e-05 4.59854e-05 4.04652e-05 3.52136e-05 3.02307e-05 2.55164e-05 2.10708e-05 1.68938e-05 1.3067e-05 9.67183e-06 6.70834e-06 4.17653e-06 2.07638e-06 4.07904e-07 -8.28902e-07 -1.63404e-06 -2.15532e-06 -2.54059e-06 -2.78982e-06 -2.90303e-06 -2.88022e-06 -2.72138e-06 -2.42651e-06 -1.99562e-06 -1.5279e-06 -1.12254e-06 -7.79538e-07 -4.98905e-07 -2.80634e-07 -1.24726e-07 -3.11815e-08 0 0 -7.09564e-08 -2.83826e-07 -6.38608e-07 -1.1353e-06 -1.77391e-06 -2.55443e-06 -3.47686e-06 -4.54121e-06 -5.52091e-06 -6.18942e-06 -6.54674e-06 -6.59286e-06 -6.32779e-06 -5.75152e-06 -4.86405e-06 -3.6654e-06 -1.82247e-06 9.97804e-07 4.79542e-06 9.57038e-06 1.53227e-05 2.20523e-05 2.97593e-05 3.84437e-05 4.79178e-05 5.7994e-05 6.86725e-05 7.99531e-05 9.18359e-05 0.000104321 0.000117408 0.000131097 0.000144632 0.000157255 0.000168966 0.000179766 0.000189655 0.000198631 0.000206697 0.00021385 0.000219632 0.000223581 0.000225697 0.000225981 0.000224433 0.000221052 0.000215838 0.000208792 0.000200545 0.000191728 0.000182342 0.000172387 0.000161862 0.000150768 0.000139105 0.000126872 0.000115134 0.000104958 9.63426e-05 8.92879e-05 8.3794e-05 7.98611e-05 7.74889e-05 7.66776e-05 7.7427e-05 7.97371e-05 8.36076e-05 8.90388e-05 9.60306e-05 0.000104583 0.000114696 0.000126369 0.000138539 0.000150141 0.000161175 0.000171641 0.000181539 0.000190869 0.000199632 0.000207826 0.000214823 0.000219994 0.000223338 0.000224855 0.000224545 0.000222409 0.000218447 0.000212658 0.000205503 0.000197445 0.000188484 0.000178619 0.00016785 0.000156177 0.000143601 0.000130121 0.000116492 0.000103467 9.10466e-05 7.92306e-05 6.80191e-05 5.7412e-05 4.74093e-05 3.80111e-05 2.94007e-05 2.17616e-05 1.50938e-05 9.39719e-06 4.67186e-06 9.17784e-07 -1.86503e-06 -3.67658e-06 -4.84948e-06 -5.71632e-06 -6.2771e-06 -6.53182e-06 -6.48049e-06 -6.1231e-06 -5.45965e-06 -4.49014e-06 -3.43776e-06 -2.5257e-06 -1.75396e-06 -1.12254e-06 -6.31426e-07 -2.80634e-07 -7.01585e-08 0 0 -1.26145e-07 -5.04579e-07 -1.1353e-06 -2.01832e-06 -3.15362e-06 -4.54121e-06 -6.18109e-06 -8.07326e-06 -9.81496e-06 -1.10034e-05 -1.16386e-05 -1.17206e-05 -1.12494e-05 -1.02249e-05 -8.64721e-06 -6.51626e-06 -3.23994e-06 1.77387e-06 8.52519e-06 1.7014e-05 2.72403e-05 3.92041e-05 5.29055e-05 6.83443e-05 8.51871e-05 0.0001031 0.000122084 0.000142139 0.000163264 0.000185459 0.000208725 0.000233062 0.000257123 0.000279564 0.000300385 0.000319585 0.000337164 0.000353122 0.00036746 0.000380178 0.000390456 0.000397477 0.000401239 0.000401744 0.000398991 0.000392981 0.000383712 0.000371185 0.000356524 0.00034085 0.000324164 0.000306466 0.000287755 0.000268032 0.000247297 0.00022555 0.000204684 0.000186592 0.000171276 0.000158734 0.000148967 0.000141975 0.000137758 0.000136316 0.000137648 0.000141755 0.000148636 0.000158291 0.000170721 0.000185925 0.000203904 0.000224657 0.000246292 0.000266917 0.000286533 0.00030514 0.000322736 0.000339324 0.000354901 0.000369469 0.000381908 0.0003911 0.000397045 0.000399742 0.000399192 0.000395395 0.00038835 0.000378058 0.000365339 0.000351014 0.000335082 0.000317544 0.000298399 0.000277648 0.000255291 0.000231327 0.000207097 0.000183942 0.000161861 0.000140854 0.000120923 0.000102066 8.42832e-05 6.75753e-05 5.2268e-05 3.86873e-05 2.68334e-05 1.67061e-05 8.30552e-06 1.63162e-06 -3.31561e-06 -6.53615e-06 -8.6213e-06 -1.01623e-05 -1.11593e-05 -1.16121e-05 -1.15209e-05 -1.08855e-05 -9.70604e-06 -7.98247e-06 -6.11158e-06 -4.49014e-06 -3.11815e-06 -1.99562e-06 -1.12254e-06 -4.98905e-07 -1.24726e-07 0 0 -1.97101e-07 -7.88404e-07 -1.77391e-06 -3.15362e-06 -4.92753e-06 -7.09564e-06 -9.65795e-06 -1.26145e-05 -1.53359e-05 -1.71928e-05 -1.81854e-05 -1.83135e-05 -1.75772e-05 -1.59764e-05 -1.35113e-05 -1.01817e-05 -5.06241e-06 2.77168e-06 1.33206e-05 2.65844e-05 4.2563e-05 6.12565e-05 8.26648e-05 0.000106788 0.000133105 0.000161095 0.000190757 0.000222092 0.0002551 0.00028978 0.000326133 0.000364159 0.000401755 0.000436819 0.000469351 0.000499351 0.000526818 0.000551754 0.000574157 0.000594028 0.000610088 0.000621057 0.000626937 0.000627725 0.000623424 0.000614032 0.00059955 0.000579977 0.000557069 0.000532578 0.000506506 0.000478853 0.000449618 0.0004188 0.000386402 0.000352421 0.000319818 0.00029155 0.000267618 0.000248022 0.000232761 0.000221836 0.000215247 0.000212993 0.000215075 0.000221492 0.000232243 0.00024733 0.000266752 0.000290508 0.0003186 0.000351026 0.000384831 0.000417059 0.000447709 0.000476781 0.000504276 0.000530193 0.000554533 0.000577295 0.000596731 0.000611094 0.000620382 0.000624597 0.000623737 0.000617804 0.000606797 0.000590716 0.000570843 0.000548459 0.000523566 0.000496163 0.000466249 0.000433826 0.000398892 0.000361448 0.000323589 0.000287409 0.000252907 0.000220085 0.000188942 0.000159478 0.000131693 0.000105586 8.16687e-05 6.0449e-05 4.19272e-05 2.61033e-05 1.29774e-05 2.5494e-06 -5.18064e-06 -1.02127e-05 -1.34708e-05 -1.58787e-05 -1.74364e-05 -1.8144e-05 -1.80014e-05 -1.70086e-05 -1.51657e-05 -1.24726e-05 -9.54935e-06 -7.01585e-06 -4.87212e-06 -3.11815e-06 -1.75396e-06 -7.79538e-07 -1.94885e-07 0 0 -2.83826e-07 -1.1353e-06 -2.55443e-06 -4.54121e-06 -7.09564e-06 -1.02177e-05 -1.39075e-05 -1.81648e-05 -2.20837e-05 -2.47577e-05 -2.6187e-05 -2.63714e-05 -2.53111e-05 -2.30061e-05 -1.94562e-05 -1.46616e-05 -7.28987e-06 3.99122e-06 1.91817e-05 3.82815e-05 6.12907e-05 8.82093e-05 0.000119037 0.000153775 0.000191671 0.000231976 0.00027469 0.000319812 0.000367344 0.000417283 0.000469632 0.000524389 0.000578528 0.00062902 0.000675866 0.000719065 0.000758618 0.000794525 0.000826786 0.0008554 0.000878527 0.000894323 0.000902789 0.000903925 0.00089773 0.000884206 0.000863352 0.000835167 0.000802179 0.000766913 0.000729369 0.000689548 0.000647449 0.000603073 0.000556419 0.000507487 0.000460538 0.000419832 0.00038537 0.000357152 0.000335176 0.000319444 0.000309956 0.00030671 0.000309708 0.000318948 0.000334431 0.000356155 0.000384122 0.000418332 0.000458783 0.000505477 0.000554157 0.000600564 0.0006447 0.000686565 0.000726157 0.000763478 0.000798527 0.000831305 0.000859293 0.000879975 0.00089335 0.000899419 0.000898182 0.000889638 0.000873788 0.000850631 0.000822013 0.000789781 0.000753935 0.000714474 0.000671399 0.000624709 0.000574404 0.000520485 0.000465968 0.000413868 0.000364187 0.000316923 0.000272076 0.000229648 0.000189637 0.000152044 0.000117603 8.70465e-05 6.03751e-05 3.75887e-05 1.86874e-05 3.67114e-06 -7.46012e-06 -1.47063e-05 -1.93979e-05 -2.28653e-05 -2.51084e-05 -2.61273e-05 -2.5922e-05 -2.44924e-05 -2.18386e-05 -1.79606e-05 -1.37511e-05 -1.01028e-05 -7.01585e-06 -4.49014e-06 -2.5257e-06 -1.12254e-06 -2.80634e-07 0 0 -3.86318e-07 -1.54527e-06 -3.47686e-06 -6.18109e-06 -9.65795e-06 -1.39075e-05 -1.89296e-05 -2.47244e-05 -3.00583e-05 -3.3698e-05 -3.56434e-05 -3.58945e-05 -3.44513e-05 -3.13138e-05 -2.64821e-05 -1.9956e-05 -9.92233e-06 5.43249e-06 2.61084e-05 5.21054e-05 8.34235e-05 0.000120063 0.000162023 0.000209304 0.000260886 0.000315745 0.000373883 0.0004353 0.000499995 0.000567969 0.000639221 0.000713752 0.00078744 0.000856166 0.000919928 0.000978728 0.00103256 0.00108144 0.00112535 0.0011643 0.00119577 0.00121727 0.0012288 0.00123034 0.00122191 0.0012035 0.00117512 0.00113676 0.00109185 0.00104385 0.000992753 0.000938552 0.00088125 0.000820849 0.000757348 0.000690746 0.000626843 0.000571439 0.000524532 0.000486123 0.000456212 0.000434799 0.000421884 0.000417467 0.000421547 0.000434124 0.000455197 0.000484767 0.000522833 0.000569396 0.000624455 0.000688011 0.000754269 0.000817435 0.000877509 0.000934491 0.000988381 0.00103918 0.00108688 0.0011315 0.00116959 0.00119774 0.00121595 0.00122421 0.00122253 0.0012109 0.00118932 0.0011578 0.00111885 0.00107498 0.00102619 0.000972479 0.000913848 0.000850298 0.000781828 0.000708438 0.000634234 0.000563321 0.000495698 0.000431367 0.000370326 0.000312576 0.000258117 0.000206949 0.000160071 0.00011848 8.21772e-05 5.11625e-05 2.54357e-05 4.99682e-06 -1.0154e-05 -2.0017e-05 -2.64027e-05 -3.11222e-05 -3.41753e-05 -3.55621e-05 -3.52827e-05 -3.33369e-05 -2.97248e-05 -2.44463e-05 -1.87167e-05 -1.37511e-05 -9.54935e-06 -6.11158e-06 -3.43776e-06 -1.5279e-06 -3.81974e-07 0 0 -5.04579e-07 -2.01832e-06 -4.54121e-06 -8.07326e-06 -1.26145e-05 -1.81648e-05 -2.47244e-05 -3.2293e-05 -3.92598e-05 -4.40137e-05 -4.65546e-05 -4.68826e-05 -4.49976e-05 -4.08997e-05 -3.45888e-05 -2.6065e-05 -1.29598e-05 7.0955e-06 3.41008e-05 6.8056e-05 0.000108961 0.000156817 0.000211622 0.000273377 0.000340749 0.000412402 0.000488338 0.000568555 0.000653055 0.000741837 0.000834901 0.000932247 0.00102849 0.00111826 0.00120154 0.00127834 0.00134866 0.00141249 0.00146984 0.00152071 0.00156183 0.00158991 0.00160496 0.00160698 0.00159597 0.00157192 0.00153485 0.00148474 0.0014261 0.0013634 0.00129666 0.00122586 0.00115102 0.00107213 0.000989189 0.000902199 0.000818734 0.000746369 0.000685103 0.000634936 0.000595869 0.000567901 0.000551032 0.000545263 0.000550592 0.000567019 0.000594543 0.000633165 0.000682884 0.000743701 0.000815615 0.000898626 0.000985167 0.00106767 0.00114613 0.00122056 0.00129095 0.00135729 0.0014196 0.00147787 0.00152763 0.0015644 0.00158818 0.00159897 0.00159677 0.00158158 0.0015534 0.00151223 0.00146136 0.00140406 0.00134033 0.00127018 0.0011936 0.00111059 0.00102116 0.000925307 0.000828387 0.000735766 0.000647443 0.000563418 0.000483691 0.000408263 0.000337133 0.000270301 0.000209072 0.000154749 0.000107334 6.68244e-05 3.32221e-05 6.52646e-06 -1.32624e-05 -2.61446e-05 -3.44852e-05 -4.06494e-05 -4.46371e-05 -4.64485e-05 -4.60835e-05 -4.3542e-05 -3.88242e-05 -3.19299e-05 -2.44463e-05 -1.79606e-05 -1.24726e-05 -7.98247e-06 -4.49014e-06 -1.99562e-06 -4.98905e-07 0 0 -6.13535e-07 -2.45414e-06 -5.52182e-06 -9.81657e-06 -1.53384e-05 -2.20873e-05 -3.00632e-05 -3.92663e-05 -4.76615e-05 -5.32142e-05 -5.59243e-05 -5.57918e-05 -5.28167e-05 -4.6999e-05 -3.83387e-05 -2.68359e-05 -9.80882e-06 1.5424e-05 4.88626e-05 9.0507e-05 0.000140357 0.000198413 0.000264675 0.000339142 0.000420012 0.000505482 0.000595552 0.000690221 0.00078949 0.000893359 0.00100183 0.0011149 0.00122642 0.00133026 0.0014264 0.00151486 0.00159563 0.00166872 0.00173411 0.00179182 0.00183826 0.00186987 0.00188664 0.00188857 0.00187566 0.00184792 0.00180533 0.00174791 0.00168079 0.0016091 0.00153284 0.00145202 0.00136663 0.00127667 0.00118215 0.00108306 0.000988004 0.000905587 0.000835809 0.000778669 0.000734168 0.000702306 0.000683081 0.000676495 0.000682548 0.00070124 0.000732571 0.00077654 0.000833149 0.000902397 0.000984283 0.00107881 0.00117738 0.00127139 0.00136086 0.00144577 0.00152613 0.00160193 0.00167318 0.00173988 0.00179691 0.00183914 0.00186659 0.00187924 0.00187709 0.00186016 0.00182843 0.00178192 0.00172419 0.00165884 0.00158587 0.00150527 0.00141705 0.00132121 0.00121774 0.00110665 0.000994059 0.000886091 0.000782746 0.000684024 0.000589925 0.000500449 0.000415595 0.000335364 0.000261522 0.000195837 0.000138308 8.89361e-05 4.772e-05 1.46603e-05 -1.02431e-05 -2.69902e-05 -3.82605e-05 -4.67337e-05 -5.24097e-05 -5.52886e-05 -5.53704e-05 -5.2655e-05 -4.71425e-05 -3.88328e-05 -2.97314e-05 -2.18435e-05 -1.51691e-05 -9.70821e-06 -5.46087e-06 -2.42705e-06 -6.06763e-07 0 0 -6.88116e-07 -2.75246e-06 -6.19304e-06 -1.10099e-05 -1.72029e-05 -2.47722e-05 -3.37177e-05 -4.40394e-05 -5.32367e-05 -5.8809e-05 -6.07562e-05 -5.90782e-05 -5.37753e-05 -4.48472e-05 -3.22941e-05 -1.61159e-05 6.12392e-06 3.68618e-05 7.60977e-05 0.000123832 0.000180064 0.000244794 0.000318022 0.000399748 0.000487429 0.000578522 0.000673026 0.000770942 0.000872268 0.000977007 0.00108516 0.00119672 0.00130595 0.00140712 0.00150023 0.00158527 0.00166225 0.00173116 0.00179201 0.00184479 0.00188667 0.0019148 0.0019292 0.00192986 0.00191677 0.00188994 0.00184937 0.00179506 0.00173183 0.0016645 0.00159308 0.00151756 0.00143795 0.00135424 0.00126644 0.00117454 0.00108645 0.00101006 0.000945377 0.000892402 0.000851132 0.000821569 0.000803712 0.00079756 0.000803119 0.000820393 0.000849381 0.000890085 0.000942502 0.00100663 0.00108248 0.00117004 0.00126143 0.00134873 0.00143196 0.00151111 0.00158619 0.00165719 0.00172412 0.00178697 0.00184092 0.00188117 0.00190772 0.00192056 0.00191969 0.00190512 0.00187683 0.00183485 0.001782 0.00172116 0.00165231 0.00157546 0.0014906 0.00139775 0.00129689 0.00118802 0.00107688 0.000969184 0.000864936 0.000764135 0.000666781 0.000572874 0.000482414 0.000395401 0.000314338 0.000241726 0.000177567 0.000121859 7.46027e-05 3.57985e-05 5.44601e-06 -1.64546e-05 -3.23438e-05 -4.46618e-05 -5.34088e-05 -5.85846e-05 -6.01893e-05 -5.82229e-05 -5.26854e-05 -4.35768e-05 -3.33635e-05 -2.45119e-05 -1.70222e-05 -1.08942e-05 -6.12798e-06 -2.72355e-06 -6.80887e-07 0 0 -7.2832e-07 -2.91328e-06 -6.55488e-06 -1.16531e-05 -1.8208e-05 -2.62195e-05 -3.56877e-05 -4.66125e-05 -5.59854e-05 -6.0798e-05 -6.10501e-05 -5.67419e-05 -4.78733e-05 -3.44442e-05 -1.64548e-05 6.095e-06 3.48385e-05 7.14088e-05 0.000115806 0.00016803 0.000228081 0.000295959 0.000371664 0.000455196 0.000543 0.000631521 0.00072076 0.000810716 0.000901389 0.00099278 0.00108489 0.00117771 0.00126709 0.00134886 0.00142301 0.00148956 0.00154849 0.00159981 0.00164352 0.00167962 0.00170704 0.00172471 0.00173265 0.00173084 0.00171928 0.00169799 0.00166695 0.00162617 0.0015792 0.0015296 0.00147736 0.00142248 0.00136498 0.00130483 0.00124205 0.00117664 0.00111406 0.00105978 0.00101381 0.000976133 0.000946761 0.000925691 0.000912924 0.000908458 0.000912306 0.000924478 0.000944975 0.000973797 0.00101094 0.00105641 0.00111021 0.00117233 0.00123731 0.00129968 0.00135944 0.0014166 0.00147114 0.00152308 0.00157241 0.00161913 0.00165968 0.00169049 0.00171158 0.00172293 0.00172455 0.00171644 0.0016986 0.00167103 0.00163481 0.00159102 0.00153966 0.00148075 0.00141426 0.00134021 0.0012586 0.00116942 0.00107685 0.000985043 0.00089401 0.000803749 0.000714258 0.000625539 0.00053759 0.000450413 0.000367518 0.000292417 0.000225108 0.000165593 0.00011387 6.9941e-05 3.3805e-05 5.46207e-06 -1.67351e-05 -3.44339e-05 -4.76344e-05 -5.63365e-05 -6.05403e-05 -6.02457e-05 -5.54529e-05 -4.61616e-05 -3.53425e-05 -2.59659e-05 -1.80319e-05 -1.15404e-05 -6.49148e-06 -2.8851e-06 -7.21275e-07 0 0 -7.34149e-07 -2.9366e-06 -6.60734e-06 -1.17464e-05 -1.83537e-05 -2.64294e-05 -3.59733e-05 -4.69855e-05 -5.59076e-05 -5.91812e-05 -5.68062e-05 -4.87827e-05 -3.51107e-05 -1.57901e-05 9.17903e-06 3.97967e-05 7.63348e-05 0.000119065 0.000167988 0.000223103 0.00028441 0.000351909 0.000425601 0.000505485 0.000586724 0.00066448 0.000738754 0.000809545 0.000876853 0.000940679 0.00100102 0.00105788 0.00110984 0.00115546 0.00119476 0.00122773 0.00125436 0.00127467 0.00128865 0.0012963 0.00129937 0.00129959 0.00129697 0.00129151 0.00128321 0.00127207 0.00125808 0.00124126 0.00122292 0.00120439 0.00118568 0.00116679 0.00114771 0.00112845 0.001109 0.00108936 0.00107085 0.00105476 0.0010411 0.00102986 0.00102105 0.00101467 0.00101072 0.00100919 0.00101011 0.0010135 0.00101935 0.00102768 0.00103847 0.00105174 0.00106747 0.00108567 0.00110503 0.00112424 0.0011433 0.00116222 0.00118098 0.00119959 0.00121805 0.00123636 0.00125317 0.0012671 0.00127816 0.00128636 0.00129169 0.00129415 0.00129374 0.00129046 0.00128259 0.00126841 0.00124793 0.00122113 0.00118803 0.00114861 0.00110289 0.00105086 0.000993965 0.000933671 0.000869971 0.000802867 0.000732357 0.000658443 0.000581124 0.0005004 0.000421064 0.000347908 0.000280933 0.000220137 0.000165522 0.000117088 7.48338e-05 3.87599e-05 8.56562e-06 -1.60498e-05 -3.50865e-05 -4.85443e-05 -5.64233e-05 -5.87235e-05 -5.54449e-05 -4.65874e-05 -3.56685e-05 -2.62054e-05 -1.81982e-05 -1.16469e-05 -6.55136e-06 -2.91171e-06 -7.27929e-07 0 0 -7.05601e-07 -2.8224e-06 -6.35041e-06 -1.12896e-05 -1.764e-05 -2.54016e-05 -3.45744e-05 -4.51585e-05 -5.30033e-05 -5.39587e-05 -4.80245e-05 -3.52008e-05 -1.54875e-05 1.11152e-05 4.46075e-05 8.49893e-05 0.000130613 0.000179831 0.000232643 0.000289049 0.000349049 0.000412644 0.000479832 0.000550615 0.000618601 0.000677398 0.000727007 0.000767428 0.00079866 0.000820704 0.000833559 0.000837226 0.00083419 0.000826937 0.000815466 0.000799778 0.000779872 0.000755749 0.000727409 0.000694851 0.000663665 0.000639442 0.000622182 0.000611884 0.000608548 0.000612175 0.000622765 0.000640317 0.000662976 0.00068889 0.000718058 0.000750479 0.000786154 0.000825083 0.000867266 0.000912702 0.000956805 0.000994988 0.00102725 0.00105359 0.00107401 0.00108851 0.00109709 0.00109975 0.00109653 0.00108745 0.00107251 0.00105173 0.00102509 0.000992601 0.000954258 0.000910062 0.00086459 0.000822418 0.000783545 0.000747972 0.000715699 0.000686725 0.000661051 0.000638676 0.000621393 0.000610993 0.000607476 0.000610842 0.000621091 0.000638224 0.000662239 0.000693138 0.00072536 0.000753346 0.000777097 0.000796612 0.000811892 0.000822936 0.000829745 0.000832317 0.000828232 0.000815065 0.000792817 0.000761488 0.000721078 0.000671587 0.000613015 0.000545362 0.000474974 0.000408201 0.00034504 0.000285493 0.00022956 0.000177239 0.000128532 8.34389e-05 4.35583e-05 1.04903e-05 -1.57651e-05 -3.52081e-05 -4.78384e-05 -5.36562e-05 -5.26615e-05 -4.48542e-05 -3.43415e-05 -2.52305e-05 -1.75212e-05 -1.12136e-05 -6.30762e-06 -2.80339e-06 -7.00847e-07 0 0 -6.42677e-07 -2.57071e-06 -5.78409e-06 -1.02828e-05 -1.60669e-05 -2.31364e-05 -3.14912e-05 -4.11313e-05 -4.72725e-05 -4.51303e-05 -3.47048e-05 -1.5996e-05 1.09962e-05 4.62717e-05 8.98305e-05 0.000141673 0.000197673 0.000253706 0.000309771 0.000365869 0.000421999 0.000478163 0.000534358 0.000590587 0.000638632 0.000670276 0.000685521 0.000684365 0.00066681 0.000632854 0.000582498 0.000515742 0.000440149 0.000363278 0.000285132 0.00020571 0.000125011 4.30362e-05 -4.02148e-05 -0.000124742 -0.000200073 -0.000255734 -0.000291727 -0.00030805 -0.000304705 -0.00028169 -0.000239006 -0.000176653 -0.000100625 -1.69147e-05 7.44772e-05 0.000173551 0.000280306 0.000394744 0.000516863 0.000646664 0.000771936 0.000880469 0.000972264 0.00104732 0.00110563 0.00114721 0.00117205 0.00118015 0.00117156 0.00114633 0.00110446 0.00104595 0.000970797 0.000879006 0.000770576 0.000645506 0.000515986 0.000394206 0.000280166 0.000173866 7.53062e-05 -1.55138e-05 -9.85937e-05 -0.000173934 -0.000235642 -0.000277826 -0.000300486 -0.000303623 -0.000287236 -0.000251326 -0.000195892 -0.000120934 -3.68862e-05 4.58172e-05 0.000127176 0.000207191 0.000285862 0.000363189 0.000439171 0.00051381 0.000579647 0.000629227 0.000662549 0.000679614 0.000680421 0.000664971 0.000633263 0.000585298 0.00052925 0.000473294 0.000417431 0.00036166 0.000305981 0.000250395 0.000194901 0.000139499 8.8243e-05 4.51866e-05 1.03297e-05 -1.63277e-05 -3.47855e-05 -4.50439e-05 -4.71027e-05 -4.09619e-05 -3.13615e-05 -2.30411e-05 -1.60008e-05 -1.02405e-05 -5.76027e-06 -2.56012e-06 -6.4003e-07 0 0 -5.45377e-07 -2.18151e-06 -4.90839e-06 -8.72603e-06 -1.36344e-05 -1.96336e-05 -2.67235e-05 -3.49041e-05 -3.87152e-05 -3.26962e-05 -1.68473e-05 8.83156e-06 4.43404e-05 8.96793e-05 0.000144848 0.000209847 0.000277514 0.00034069 0.000399372 0.000453563 0.000503261 0.000548466 0.000589179 0.0006254 0.000646816 0.000643114 0.000614294 0.000560357 0.000481302 0.00037713 0.00024784 9.34324e-05 -7.22867e-05 -0.000235511 -0.000396241 -0.000554477 -0.000710218 -0.000863465 -0.00101422 -0.00116247 -0.00129185 -0.00138594 -0.00144475 -0.00146829 -0.00145655 -0.00140953 -0.00132723 -0.00120965 -0.00106789 -0.000913021 -0.000745057 -0.000563994 -0.000369833 -0.000162572 5.77875e-05 0.000291246 0.000516239 0.000711204 0.000876139 0.00101104 0.00111592 0.00119077 0.00123559 0.00125038 0.00123521 0.00119014 0.00111518 0.00101033 0.000875591 0.000710954 0.000516425 0.000292002 5.92191e-05 -0.000160393 -0.000366834 -0.000560103 -0.000740201 -0.000907127 -0.00106088 -0.00120147 -0.00131794 -0.00139936 -0.00144572 -0.00145704 -0.0014333 -0.0013745 -0.00128066 -0.00115176 -0.00100415 -0.000854174 -0.000701836 -0.000547132 -0.000390064 -0.00023063 -6.88317e-05 9.53319e-05 0.000248211 0.000376156 0.000479167 0.000557243 0.000610386 0.000638594 0.000641869 0.000620209 0.000583891 0.000543189 0.000498105 0.000448638 0.000394788 0.000336555 0.000273939 0.00020694 0.00014262 8.8039e-05 4.3198e-05 8.09676e-06 -1.72647e-05 -3.28864e-05 -3.87684e-05 -3.49106e-05 -2.67285e-05 -1.96372e-05 -1.3637e-05 -8.72766e-06 -4.90931e-06 -2.18191e-06 -5.45479e-07 0 0 -4.13701e-07 -1.6548e-06 -3.72331e-06 -6.61921e-06 -1.03425e-05 -1.48932e-05 -2.02713e-05 -2.64769e-05 -2.73313e-05 -1.66564e-05 5.54805e-06 3.92819e-05 8.45453e-05 0.000141338 0.00020966 0.000289512 0.000370138 0.000440783 0.000501447 0.00055213 0.000592833 0.000623554 0.000644295 0.000655054 0.000643153 0.00059591 0.000513327 0.000395403 0.000242138 5.35313e-05 -0.000170416 -0.000429704 -0.000703115 -0.000969432 -0.00122865 -0.00148078 -0.00172582 -0.00196375 -0.0021946 -0.00241835 -0.00261165 -0.00275117 -0.0028369 -0.00286883 -0.00284698 -0.00277134 -0.0026419 -0.00245868 -0.0022388 -0.00199943 -0.00174054 -0.00146216 -0.00116426 -0.000846864 -0.000509961 -0.000153551 0.000189715 0.000487191 0.000738876 0.00094477 0.00110487 0.00121919 0.00128771 0.00131044 0.00128747 0.00121889 0.0011047 0.00094489 0.000739473 0.000488444 0.000191803 -0.000150449 -0.000505711 -0.000841379 -0.00115745 -0.00145393 -0.00173082 -0.00198812 -0.00222582 -0.00244392 -0.0026255 -0.0027536 -0.00282823 -0.00284939 -0.00281709 -0.0027313 -0.00259205 -0.00239933 -0.00217642 -0.00194663 -0.00170994 -0.00146636 -0.00121589 -0.000958521 -0.000694264 -0.000423116 -0.000166076 5.58521e-05 0.00024267 0.000394376 0.000510972 0.000592457 0.000638831 0.000650095 0.000638896 0.000617886 0.000587062 0.000546427 0.000495979 0.000435719 0.000365647 0.000285763 0.000206688 0.000139047 8.28398e-05 3.80653e-05 4.72405e-06 -1.7184e-05 -2.76587e-05 -2.67003e-05 -2.04424e-05 -1.50189e-05 -1.04298e-05 -6.67507e-06 -3.75473e-06 -1.66877e-06 -4.17192e-07 0 0 -1.91447e-07 -7.6579e-07 -1.72303e-06 -3.06316e-06 -4.78618e-06 -6.89211e-06 -9.38092e-06 -1.22526e-05 -8.92541e-06 7.18258e-06 3.60713e-05 7.77409e-05 0.000132191 0.000199422 0.000279434 0.000372227 0.000463189 0.000537711 0.000595793 0.000637434 0.000662634 0.000671394 0.000663713 0.000639591 0.00058498 0.000485831 0.000342142 0.000153915 -7.88505e-05 -0.000356155 -0.000677998 -0.00104438 -0.00142673 -0.00179648 -0.00215363 -0.00249819 -0.00283014 -0.0031495 -0.00345625 -0.00375041 -0.00400271 -0.00418391 -0.00429401 -0.004333 -0.00430089 -0.00419767 -0.00402336 -0.00377793 -0.00348378 -0.00316327 -0.00281639 -0.00244316 -0.00204356 -0.00161761 -0.00116529 -0.000686619 -0.000225509 0.000174111 0.00051224 0.00078888 0.00100403 0.00115769 0.00124986 0.00128053 0.00124983 0.00115785 0.00100459 0.000790057 0.000514249 0.000177165 -0.000221194 -0.00068083 -0.00115787 -0.00160846 -0.00203259 -0.00243026 -0.00280147 -0.00314623 -0.00346452 -0.00375636 -0.00399962 -0.00417218 -0.00427404 -0.00430519 -0.00426565 -0.0041554 -0.00397445 -0.0037228 -0.00342964 -0.00312416 -0.00280636 -0.00247623 -0.00213378 -0.00177901 -0.00141192 -0.00103251 -0.000669071 -0.000349908 -7.50201e-05 0.000155593 0.000341931 0.000483995 0.000581784 0.000635298 0.000658571 0.000665635 0.00065649 0.000631138 0.000589577 0.000531807 0.000457829 0.000367643 0.000275695 0.000196432 0.000129855 7.59618e-05 3.4754e-05 6.23123e-06 -9.6065e-06 -1.27592e-05 -9.76877e-06 -7.17706e-06 -4.98407e-06 -3.1898e-06 -1.79426e-06 -7.97451e-07 -1.99363e-07 0 0 1.77585e-07 7.10339e-07 1.59826e-06 2.84136e-06 4.43962e-06 6.39306e-06 8.70166e-06 1.13654e-05 2.06982e-05 4.3014e-05 7.83126e-05 0.000126594 0.000187859 0.000262106 0.000349336 0.000449549 0.000544314 0.0006152 0.000662207 0.000685335 0.000684583 0.000659952 0.000611442 0.000539053 0.000429635 0.000270038 6.02613e-05 -0.000199694 -0.000509828 -0.000870142 -0.00128063 -0.00174131 -0.00221752 -0.00267466 -0.00311271 -0.00353168 -0.00393156 -0.00431235 -0.00467407 -0.0050167 -0.00530822 -0.00551663 -0.00564193 -0.0056841 -0.00564316 -0.0055191 -0.00531192 -0.00502163 -0.00467321 -0.00429167 -0.00387701 -0.00342923 -0.00294832 -0.00243428 -0.00188713 -0.00130685 -0.000747304 -0.000262355 0.000148 0.00048376 0.000744925 0.000931496 0.00104347 0.00108085 0.00104376 0.000932295 0.00074647 0.00048628 0.000151726 -0.000257192 -0.000740474 -0.00129812 -0.00187634 -0.00242134 -0.00293313 -0.00341171 -0.00385706 -0.00426921 -0.00464813 -0.00499384 -0.00528161 -0.00548671 -0.00560915 -0.00564892 -0.00560602 -0.00548046 -0.00527223 -0.00498133 -0.00463973 -0.00427939 -0.00390032 -0.0035025 -0.00308594 -0.00265064 -0.0021966 -0.00172382 -0.00126663 -0.000859349 -0.000501982 -0.000194527 6.30141e-05 0.000270643 0.000428359 0.000536162 0.000607217 0.000654689 0.000678577 0.000678881 0.000655601 0.000608737 0.00053829 0.000444259 0.000344887 0.000258414 0.000184842 0.00012417 7.63983e-05 4.15268e-05 1.95554e-05 1.04842e-05 8.02699e-06 5.89738e-06 4.0954e-06 2.62106e-06 1.47434e-06 6.55264e-07 1.63816e-07 0 0 6.93396e-07 2.77358e-06 6.24056e-06 1.10943e-05 1.73349e-05 2.49622e-05 3.39764e-05 4.43773e-05 6.15396e-05 9.08378e-05 0.000132272 0.000185842 0.000251548 0.000329389 0.000419367 0.00052148 0.000613514 0.00067325 0.00070069 0.000695833 0.00065868 0.000589229 0.000487483 0.000353439 0.000177117 -5.14683e-05 -0.000332315 -0.000665425 -0.0010508 -0.00148843 -0.00197833 -0.00252048 -0.0030755 -0.00360396 -0.00410588 -0.00458124 -0.00503006 -0.00545233 -0.00584805 -0.00621722 -0.0065282 -0.00674934 -0.00688066 -0.00692214 -0.00687379 -0.00673561 -0.0065076 -0.00618975 -0.0058071 -0.00538464 -0.0049224 -0.00442035 -0.00387852 -0.00329689 -0.00267546 -0.00201424 -0.00137567 -0.000822207 -0.000353847 2.94102e-05 0.000327564 0.000540614 0.000668561 0.000711405 0.000669258 0.000542235 0.000330334 3.35572e-05 -0.000348097 -0.000814628 -0.00136604 -0.00200232 -0.00266111 -0.00328003 -0.00385909 -0.00439828 -0.0048976 -0.00535705 -0.00577664 -0.00615636 -0.00647147 -0.0066972 -0.00683357 -0.00688058 -0.00683821 -0.00670648 -0.00648538 -0.00617492 -0.00580669 -0.00541233 -0.00499181 -0.00454515 -0.00407235 -0.00357339 -0.0030483 -0.00249705 -0.00195875 -0.00147247 -0.00103821 -0.000655985 -0.00032578 -4.75994e-05 0.000178556 0.000352687 0.000484837 0.000585048 0.000653321 0.000689656 0.000694052 0.00066651 0.00060703 0.000515611 0.000414263 0.000324993 0.000247802 0.00018269 0.000129657 8.87026e-05 5.9827e-05 4.303e-05 3.29449e-05 2.42044e-05 1.68086e-05 1.07575e-05 6.0511e-06 2.68938e-06 6.72345e-07 0 0 1.35599e-06 5.42394e-06 1.22039e-05 2.16958e-05 3.38996e-05 4.88155e-05 6.64433e-05 8.67831e-05 0.000113599 0.000150654 0.000197949 0.000255484 0.000323258 0.000401272 0.000489526 0.00058802 0.000670786 0.00071186 0.000711241 0.000668929 0.000584924 0.000459226 0.000291834 8.27501e-05 -0.000172575 -0.000478687 -0.000835588 -0.00124328 -0.00170175 -0.00221102 -0.00277107 -0.00338191 -0.00400065 -0.00458439 -0.00513314 -0.0056469 -0.00612566 -0.00656942 -0.00697819 -0.00735197 -0.00766263 -0