<?xml version="1.0"?> 
<VTKFile type="StructuredGrid" version="0.1"> 
<StructuredGrid WholeExtent="0 128 0 128 0 0"> 
<Piece Extent="0 128 0 128 0 0"> 
<PointData>
<DataArray type="Float32" Name="u" format="ascii" NumberOfComponents="1"> 
0 0 0 0 0 0 0 0 0 0 0 0 0 0 0 0 0 0 0 0 0 0 0 0 0 0 0 0 0 0 0 0 0 0 0 0 0 0 0 0 0 0 0 0 0 0 0 0 0 0 0 0 0 0 0 0 0 0 0 0 0 0 0 0 0 0 0 0 0 0 0 0 0 0 0 0 0 0 0 0 0 0 0 0 0 0 0 0 0 0 0 0 0 0 0 0 0 0 0 0 0 0 0 0 0 0 0 0 0 0 0 0 0 0 0 0 0 0 0 0 0 0 0 0 0 0 0 0 0 0 -1.59481e-07 -6.37923e-07 -1.43533e-06 -2.55169e-06 -3.98702e-06 -5.7413e-06 -7.81455e-06 -1.02068e-05 -1.27883e-05 -1.54294e-05 -1.81302e-05 -2.08905e-05 -2.37106e-05 -2.65902e-05 -2.95295e-05 -3.25284e-05 -3.54103e-05 -3.79985e-05 -4.02931e-05 -4.22941e-05 -4.40015e-05 -4.54152e-05 -4.65353e-05 -4.73617e-05 -4.79423e-05 -4.83247e-05 -4.85091e-05 -4.84953e-05 -4.82834e-05 -4.78734e-05 -4.72654e-05 -4.64592e-05 -4.56356e-05 -4.49755e-05 -4.44788e-05 -4.41455e-05 -4.39756e-05 -4.39692e-05 -4.41262e-05 -4.44465e-05 -4.50011e-05 -4.58608e-05 -4.70254e-05 -4.84951e-05 -5.02698e-05 -5.23495e-05 -5.47342e-05 -5.74239e-05 -6.02705e-05 -6.31256e-05 -6.59894e-05 -6.88618e-05 -7.17428e-05 -7.46325e-05 -7.75307e-05 -8.04376e-05 -8.31591e-05 -8.55012e-05 -8.74641e-05 -8.90476e-05 -9.02518e-05 -9.10767e-05 -9.15223e-05 -9.15885e-05 -9.12803e-05 -9.06025e-05 -8.95552e-05 -8.81383e-05 -8.63518e-05 -8.41957e-05 -8.16701e-05 -7.87748e-05 -7.57058e-05 -7.26586e-05 -6.96333e-05 -6.66299e-05 -6.36483e-05 -6.06887e-05 -5.77509e-05 -5.4835e-05 -5.2081e-05 -4.96292e-05 -4.74793e-05 -4.56315e-05 -4.40858e-05 -4.28421e-05 -4.19005e-05 -4.12609e-05 -4.0851e-05 -4.05985e-05 -4.05034e-05 -4.05657e-05 -4.07854e-05 -4.11625e-05 -4.1697e-05 -4.23888e-05 -4.30695e-05 -4.35705e-05 -4.38917e-05 -4.40332e-05 -4.39951e-05 -4.37771e-05 -4.33795e-05 -4.28022e-05 -4.2005e-05 -4.09479e-05 -3.96309e-05 -3.8054e-05 -3.62172e-05 -3.41204e-05 -3.17637e-05 -2.91471e-05 -2.64304e-05 -2.37731e-05 -2.11755e-05 -1.86374e-05 -1.61588e-05 -1.37398e-05 -1.13803e-05 -9.08046e-06 -6.95222e-06 -5.10776e-06 -3.54705e-06 -2.27011e-06 -1.27694e-06 -5.67528e-07 -1.41882e-07 0 0 -6.37923e-07 -2.55169e-06 -5.7413e-06 -1.02068e-05 -1.59481e-05 -2.29652e-05 -3.12582e-05 -4.0827e-05 -5.11531e-05 -6.17176e-05 -7.25206e-05 -8.35622e-05 -9.48422e-05 -0.000106361 -0.000118118 -0.000130113 -0.000141641 -0.000151994 -0.000161173 -0.000169177 -0.000176006 -0.000181661 -0.000186141 -0.000189447 -0.000191769 -0.000193299 -0.000194036 -0.000193981 -0.000193134 -0.000191494 -0.000189061 -0.000185837 -0.000182542 -0.000179902 -0.000177915 -0.000176582 -0.000175903 -0.000175877 -0.000176505 -0.000177786 -0.000180005 -0.000183443 -0.000188102 -0.00019398 -0.000201079 -0.000209398 -0.000218937 -0.000229696 -0.000241082 -0.000252503 -0.000263958 -0.000275447 -0.000286971 -0.00029853 -0.000310123 -0.00032175 -0.000332636 -0.000342005 -0.000349856 -0.00035619 -0.000361007 -0.000364307 -0.000366089 -0.000366354 -0.000365121 -0.00036241 -0.000358221 -0.000352553 -0.000345407 -0.000336783 -0.00032668 -0.000315099 -0.000302823 -0.000290634 -0.000278533 -0.000266519 -0.000254593 -0.000242755 -0.000231004 -0.00021934 -0.000208324 -0.000198517 -0.000189917 -0.000182526 -0.000176343 -0.000171368 -0.000167602 -0.000165044 -0.000163404 -0.000162394 -0.000162014 -0.000162263 -0.000163142 -0.00016465 -0.000166788 -0.000169555 -0.000172278 -0.000174282 -0.000175567 -0.000176133 -0.00017598 -0.000175109 -0.000173518 -0.000171209 -0.00016802 -0.000163792 -0.000158524 -0.000152216 -0.000144869 -0.000136482 -0.000127055 -0.000116589 -0.000105721 -9.50925e-05 -8.47019e-05 -7.45494e-05 -6.46352e-05 -5.49592e-05 -4.55214e-05 -3.63218e-05 -2.78089e-05 -2.0431e-05 -1.41882e-05 -9.08046e-06 -5.10776e-06 -2.27011e-06 -5.67528e-07 0 0 -1.43533e-06 -5.7413e-06 -1.29179e-05 -2.29652e-05 -3.58831e-05 -5.16717e-05 -7.0331e-05 -9.18609e-05 -0.000115094 -0.000138865 -0.000163171 -0.000188015 -0.000213395 -0.000239312 -0.000265765 -0.000292755 -0.000318692 -0.000341987 -0.000362638 -0.000380647 -0.000396013 -0.000408737 -0.000418817 -0.000426255 -0.00043148 -0.000434922 -0.000436581 -0.000436458 -0.000434551 -0.000430861 -0.000425388 -0.000418132 -0.000410721 -0.000404779 -0.000400309 -0.00039731 -0.000395781 -0.000395723 -0.000397135 -0.000400019 -0.00040501 -0.000412747 -0.000423229 -0.000436456 -0.000452428 -0.000471145 -0.000492608 -0.000516815 -0.000542434 -0.000568131 -0.000593905 -0.000619756 -0.000645686 -0.000671692 -0.000697776 -0.000723938 -0.000748432 -0.000769511 -0.000787177 -0.000801429 -0.000812266 -0.00081969 -0.000823701 -0.000824297 -0.000821523 -0.000815423 -0.000805997 -0.000793244 -0.000777166 -0.000757761 -0.000735031 -0.000708974 -0.000681352 -0.000653927 -0.0006267 -0.000599669 -0.000572835 -0.000546198 -0.000519758 -0.000493515 -0.000468729 -0.000446662 -0.000427314 -0.000410684 -0.000396772 -0.000385579 -0.000377104 -0.000371348 -0.000367659 -0.000365387 -0.000364531 -0.000365092 -0.000367069 -0.000370462 -0.000375273 -0.000381499 -0.000387625 -0.000392134 -0.000395025 -0.000396299 -0.000395955 -0.000393994 -0.000390416 -0.00038522 -0.000378045 -0.000368531 -0.000356678 -0.000342486 -0.000325955 -0.000307084 -0.000285874 -0.000262324 -0.000237873 -0.000213958 -0.000190579 -0.000167736 -0.000145429 -0.000123658 -0.000102423 -8.17241e-05 -6.257e-05 -4.59698e-05 -3.19235e-05 -2.0431e-05 -1.14925e-05 -5.10776e-06 -1.27694e-06 0 0 -2.55169e-06 -1.02068e-05 -2.29652e-05 -4.0827e-05 -6.37923e-05 -9.18609e-05 -0.000125033 -0.000163308 -0.000204612 -0.00024687 -0.000290083 -0.000334249 -0.000379369 -0.000425443 -0.000472472 -0.000520454 -0.000566564 -0.000607976 -0.00064469 -0.000676706 -0.000704024 -0.000726643 -0.000744564 -0.000757787 -0.000767076 -0.000773195 -0.000776145 -0.000775925 -0.000772535 -0.000765975 -0.000756246 -0.000743347 -0.00073017 -0.000719608 -0.000711661 -0.000706328 -0.00070361 -0.000703507 -0.000706018 -0.000711145 -0.000720018 -0.000733772 -0.000752407 -0.000775921 -0.000804316 -0.000837591 -0.000875747 -0.000918783 -0.000964328 -0.00101001 -0.00105583 -0.00110179 -0.00114789 -0.00119412 -0.00124049 -0.001287 -0.00133054 -0.00136802 -0.00139943 -0.00142476 -0.00144403 -0.00145723 -0.00146436 -0.00146542 -0.00146049 -0.00144964 -0.00143288 -0.00141021 -0.00138163 -0.00134713 -0.00130672 -0.0012604 -0.00121129 -0.00116254 -0.00111413 -0.00106608 -0.00101837 -0.000971019 -0.000924014 -0.00087736 -0.000833297 -0.000794067 -0.000759669 -0.000730105 -0.000705373 -0.000685474 -0.000670408 -0.000660174 -0.000653616 -0.000649577 -0.000648055 -0.000649052 -0.000652567 -0.0006586 -0.000667151 -0.000678221 -0.000689112 -0.000697127 -0.000702267 -0.000704532 -0.000703921 -0.000700434 -0.000694072 -0.000684835 -0.00067208 -0.000655167 -0.000634095 -0.000608864 -0.000579475 -0.000545927 -0.00050822 -0.000466354 -0.000422886 -0.00038037 -0.000338807 -0.000298198 -0.000258541 -0.000219837 -0.000182086 -0.000145287 -0.000111236 -8.17241e-05 -5.67528e-05 -3.63218e-05 -2.0431e-05 -9.08046e-06 -2.27011e-06 0 0 -3.98702e-06 -1.59481e-05 -3.58831e-05 -6.37923e-05 -9.96754e-05 -0.000143533 -0.000195364 -0.000255169 -0.000319707 -0.000385735 -0.000453254 -0.000522264 -0.000592764 -0.000664755 -0.000738237 -0.000813209 -0.000885257 -0.000949963 -0.00100733 -0.00105735 -0.00110004 -0.00113538 -0.00116338 -0.00118404 -0.00119856 -0.00120812 -0.00121273 -0.00121238 -0.00120709 -0.00119684 -0.00118163 -0.00116148 -0.00114089 -0.00112439 -0.00111197 -0.00110364 -0.00109939 -0.00109923 -0.00110315 -0.00111116 -0.00112503 -0.00114652 -0.00117564 -0.00121238 -0.00125674 -0.00130874 -0.00136835 -0.0014356 -0.00150676 -0.00157814 -0.00164974 -0.00172155 -0.00179357 -0.00186581 -0.00193827 -0.00201094 -0.00207898 -0.00213753 -0.0021866 -0.00222619 -0.0022563 -0.00227692 -0.00228806 -0.00228971 -0.00228201 -0.00226506 -0.00223888 -0.00220346 -0.00215879 -0.00210489 -0.00204175 -0.00196937 -0.00189264 -0.00181646 -0.00174083 -0.00166575 -0.00159121 -0.00151722 -0.00144377 -0.00137087 -0.00130203 -0.00124073 -0.00118698 -0.00114079 -0.00110215 -0.00107105 -0.00104751 -0.00103152 -0.00102128 -0.00101496 -0.00101259 -0.00101414 -0.00101964 -0.00102906 -0.00104242 -0.00105972 -0.00107674 -0.00108926 -0.00109729 -0.00110083 -0.00109988 -0.00109443 -0.00108449 -0.00107005 -0.00105013 -0.0010237 -0.000990773 -0.00095135 -0.000905429 -0.00085301 -0.000794093 -0.000728678 -0.000660759 -0.000594328 -0.000529387 -0.000465934 -0.00040397 -0.000343495 -0.000284509 -0.000227011 -0.000173806 -0.000127694 -8.86763e-05 -5.67528e-05 -3.19235e-05 -1.41882e-05 -3.54705e-06 0 0 -5.7413e-06 -2.29652e-05 -5.16717e-05 -9.18609e-05 -0.000143533 -0.000206687 -0.000281324 -0.000367443 -0.000460378 -0.000555458 -0.000652686 -0.00075206 -0.00085358 -0.000957247 -0.00106306 -0.00117102 -0.00127477 -0.00136795 -0.00145055 -0.00152259 -0.00158405 -0.00163495 -0.00167527 -0.00170502 -0.00172592 -0.00173969 -0.00174633 -0.00174583 -0.0017382 -0.00172344 -0.00170155 -0.00167253 -0.00164288 -0.00161912 -0.00160124 -0.00158924 -0.00158312 -0.00158289 -0.00158854 -0.00160008 -0.00162004 -0.00165099 -0.00169291 -0.00174582 -0.00180971 -0.00188458 -0.00197043 -0.00206726 -0.00216974 -0.00227252 -0.00237562 -0.00247903 -0.00258274 -0.00268677 -0.00279111 -0.00289575 -0.00299373 -0.00307804 -0.00314871 -0.00320571 -0.00324907 -0.00327876 -0.0032948 -0.00329719 -0.00328609 -0.00326169 -0.00322399 -0.00317298 -0.00310866 -0.00303105 -0.00294012 -0.00283589 -0.00272541 -0.00261571 -0.0025068 -0.00239868 -0.00229134 -0.00218479 -0.00207903 -0.00197406 -0.00187492 -0.00178665 -0.00170926 -0.00164274 -0.00158709 -0.00154232 -0.00150842 -0.00148539 -0.00147064 -0.00146155 -0.00145812 -0.00146037 -0.00146828 -0.00148185 -0.00150109 -0.001526 -0.0015505 -0.00156854 -0.0015801 -0.0015852 -0.00158382 -0.00157598 -0.00156166 -0.00154088 -0.00151218 -0.00147413 -0.00142671 -0.00136994 -0.00130382 -0.00122833 -0.00114349 -0.0010493 -0.000951493 -0.000855833 -0.000762317 -0.000670945 -0.000581717 -0.000494633 -0.000409693 -0.000326896 -0.00025028 -0.000183879 -0.000127694 -8.17241e-05 -4.59698e-05 -2.0431e-05 -5.10776e-06 0 0 -7.81455e-06 -3.12582e-05 -7.0331e-05 -0.000125033 -0.000195364 -0.000281324 -0.000382913 -0.000500131 -0.000626625 -0.00075604 -0.000888378 -0.00102364 -0.00116182 -0.00130292 -0.00144694 -0.00159389 -0.0017351 -0.00186193 -0.00197436 -0.00207241 -0.00215607 -0.00222534 -0.00228023 -0.00232072 -0.00234917 -0.00236791 -0.00237694 -0.00237627 -0.00236589 -0.0023458 -0.002316 -0.0022765 -0.00223615 -0.0022038 -0.00217946 -0.00216313 -0.00215481 -0.00215449 -0.00216218 -0.00217788 -0.00220506 -0.00224718 -0.00230425 -0.00237626 -0.00246322 -0.00256512 -0.00268197 -0.00281377 -0.00295325 -0.00309316 -0.00323348 -0.00337423 -0.0035154 -0.00365699 -0.003799 -0.00394144 -0.00407479 -0.00418956 -0.00428574 -0.00436333 -0.00442234 -0.00446276 -0.00448459 -0.00448784 -0.00447274 -0.00443952 -0.0043882 -0.00431878 -0.00423124 -0.00412559 -0.00400183 -0.00385997 -0.00370958 -0.00356027 -0.00341203 -0.00326486 -0.00311877 -0.00297374 -0.00282979 -0.00268691 -0.00255197 -0.00243183 -0.00232649 -0.00223595 -0.0021602 -0.00209926 -0.00205312 -0.00202178 -0.0020017 -0.00198933 -0.00198467 -0.00198772 -0.00199849 -0.00201696 -0.00204315 -0.00207705 -0.00211041 -0.00213495 -0.00215069 -0.00215763 -0.00215576 -0.00214508 -0.0021256 -0.00209731 -0.00205825 -0.00200645 -0.00194192 -0.00186465 -0.00177464 -0.0016719 -0.00155642 -0.00142821 -0.00129509 -0.00116488 -0.0010376 -0.00091323 -0.000791781 -0.00067325 -0.000557637 -0.000444942 -0.000340659 -0.00025028 -0.000173806 -0.000111236 -6.257e-05 -2.78089e-05 -6.95222e-06 0 0 -1.02068e-05 -4.0827e-05 -9.18609e-05 -0.000163308 -0.000255169 -0.000367443 -0.000500131 -0.000653233 -0.000818449 -0.000987481 -0.00116033 -0.00133699 -0.00151748 -0.00170177 -0.00188989 -0.00208182 -0.00226626 -0.00243191 -0.00257876 -0.00270682 -0.00281609 -0.00290657 -0.00297826 -0.00303115 -0.0030683 -0.00309278 -0.00310458 -0.0031037 -0.00309014 -0.0030639 -0.00302498 -0.00297339 -0.00292068 -0.00287843 -0.00284664 -0.00282531 -0.00281444 -0.00281403 -0.00282407 -0.00284458 -0.00288007 -0.00293509 -0.00300963 -0.00310368 -0.00321726 -0.00335037 -0.00350299 -0.00367513 -0.00385731 -0.00404004 -0.00422332 -0.00440716 -0.00459154 -0.00477648 -0.00496197 -0.005148 -0.00532218 -0.00547208 -0.0055977 -0.00569905 -0.00577612 -0.00582891 -0.00585743 -0.00586167 -0.00584194 -0.00579856 -0.00573153 -0.00564085 -0.00552651 -0.00538852 -0.00522688 -0.00504159 -0.00484517 -0.00465015 -0.00445653 -0.00426431 -0.00407349 -0.00388407 -0.00369606 -0.00350944 -0.00333319 -0.00317627 -0.00303868 -0.00292042 -0.00282149 -0.0027419 -0.00268163 -0.0026407 -0.00261447 -0.00259831 -0.00259222 -0.00259621 -0.00261027 -0.0026344 -0.00266861 -0.00271288 -0.00275645 -0.00278851 -0.00280907 -0.00281813 -0.00281568 -0.00280174 -0.00277629 -0.00273934 -0.00268832 -0.00262067 -0.00253638 -0.00243546 -0.0023179 -0.00218371 -0.00203288 -0.00186542 -0.00169154 -0.00152148 -0.00135523 -0.00119279 -0.00103416 -0.000879347 -0.000728342 -0.000581149 -0.000444942 -0.000326896 -0.000227011 -0.000145287 -8.17241e-05 -3.63218e-05 -9.08046e-06 0 0 -1.28224e-05 -5.12895e-05 -0.000115401 -0.000205158 -0.000320559 -0.000461605 -0.000628296 -0.000820631 -0.00102801 -0.00123983 -0.0014561 -0.0016768 -0.00190195 -0.00213155 -0.00236558 -0.00260406 -0.00283277 -0.00303751 -0.00321828 -0.00337507 -0.00350789 -0.00361674 -0.00370162 -0.00376252 -0.00380348 -0.00382854 -0.00383769 -0.00383093 -0.00380826 -0.00376969 -0.0037152 -0.00364481 -0.00357328 -0.00351535 -0.00347104 -0.00344034 -0.00342326 -0.00341979 -0.00342993 -0.00345368 -0.00349677 -0.00356491 -0.00365811 -0.00377636 -0.00391966 -0.00408801 -0.00428143 -0.00449989 -0.00473127 -0.00496345 -0.00519641 -0.00543017 -0.00566471 -0.00590004 -0.00613617 -0.00637308 -0.00659495 -0.00678595 -0.00694608 -0.00707533 -0.00717372 -0.00724123 -0.00727787 -0.00728364 -0.00725893 -0.00720412 -0.00711923 -0.00700425 -0.00685917 -0.00668401 -0.00647875 -0.0062434 -0.00599393 -0.0057463 -0.0055005 -0.00525654 -0.00501442 -0.00477414 -0.0045357 -0.00429909 -0.0040758 -0.00387727 -0.00370352 -0.00355455 -0.00343035 -0.00333092 -0.00325627 -0.00320639 -0.00317544 -0.00315758 -0.0031528 -0.0031611 -0.00318249 -0.00321696 -0.00326451 -0.00332515 -0.00338511 -0.00343062 -0.00346169 -0.00347832 -0.0034805 -0.00346823 -0.00344152 -0.00340037 -0.00334137 -0.00326113 -0.00315965 -0.00303693 -0.00289297 -0.00272777 -0.00254133 -0.00233365 -0.00211758 -0.00190598 -0.00169885 -0.00149619 -0.00129799 -0.00110427 -0.00091501 -0.00073022 -0.000559075 -0.000410749 -0.000285242 -0.000182555 -0.000102687 -4.56388e-05 -1.14097e-05 0 0 -1.55658e-05 -6.22632e-05 -0.000140092 -0.000249053 -0.000389145 -0.000560369 -0.000762724 -0.000996211 -0.00124747 -0.00150314 -0.00176323 -0.00202773 -0.00229665 -0.00256998 -0.00284772 -0.00312987 -0.00339918 -0.00363837 -0.00384744 -0.0040264 -0.00417524 -0.00429396 -0.00438257 -0.00444106 -0.00447487 -0.00448942 -0.00448472 -0.00446076 -0.00441755 -0.00435509 -0.00427337 -0.0041724 -0.00407073 -0.0039869 -0.00392092 -0.00387278 -0.00384249 -0.00383005 -0.00383546 -0.00385871 -0.00390683 -0.00398684 -0.00409874 -0.00424253 -0.00441821 -0.00462578 -0.00486524 -0.0051366 -0.00542451 -0.00571365 -0.00600402 -0.00629562 -0.00658845 -0.00688251 -0.00717779 -0.0074743 -0.00775217 -0.00799152 -0.00819235 -0.00835466 -0.00847846 -0.00856373 -0.00861049 -0.00861873 -0.00858892 -0.00852153 -0.00841656 -0.00827402 -0.00809389 -0.00787619 -0.00762091 -0.00732805 -0.00701763 -0.00670966 -0.00640414 -0.00610108 -0.00580047 -0.00550231 -0.0052066 -0.00491334 -0.00463703 -0.00439216 -0.00417873 -0.00399673 -0.00384617 -0.00372705 -0.00363937 -0.00358313 -0.00355114 -0.00353624 -0.00353842 -0.00355768 -0.00359401 -0.00364743 -0.00371793 -0.00380551 -0.00389287 -0.00396271 -0.00401502 -0.00404982 -0.00406709 -0.00406684 -0.00404907 -0.00401378 -0.00395635 -0.00387219 -0.00376128 -0.00362363 -0.00345925 -0.00326812 -0.00305025 -0.00280564 -0.00254993 -0.00229875 -0.0020521 -0.00180998 -0.0015724 -0.00133936 -0.00111084 -0.000886859 -0.000679002 -0.000498858 -0.000346429 -0.000221715 -0.000124715 -5.54287e-05 -1.38572e-05 0 0 -1.8437e-05 -7.37482e-05 -0.000165933 -0.000294993 -0.000460926 -0.000663734 -0.000903415 -0.00117997 -0.00147683 -0.00177742 -0.00208173 -0.00238978 -0.00270156 -0.00301706 -0.0033363 -0.00365927 -0.00396549 -0.00423448 -0.00446625 -0.0046608 -0.00481813 -0.00493823 -0.00502111 -0.00506677 -0.00508246 -0.00507542 -0.00504567 -0.00499321 -0.00491802 -0.00482012 -0.00469949 -0.00455615 -0.00441303 -0.00429307 -0.00419627 -0.00412263 -0.00407215 -0.00404482 -0.00404066 -0.00405965 -0.00411024 -0.00420086 -0.00433151 -0.0045022 -0.00471292 -0.00496366 -0.00525445 -0.00558526 -0.00593702 -0.00629065 -0.00664615 -0.00700352 -0.00736276 -0.00772386 -0.00808683 -0.00845167 -0.00879384 -0.00908879 -0.00933652 -0.00953704 -0.00969034 -0.00979642 -0.00985528 -0.00986693 -0.00983191 -0.00975078 -0.00962353 -0.00945016 -0.00923068 -0.00896508 -0.00865336 -0.00829553 -0.00791627 -0.00754024 -0.00716746 -0.00679792 -0.00643162 -0.00606857 -0.00570875 -0.00535218 -0.00501689 -0.00472093 -0.00446428 -0.00424696 -0.00406896 -0.00393029 -0.00383094 -0.00377091 -0.00374157 -0.00373429 -0.00374908 -0.00378593 -0.00384485 -0.00392582 -0.00402886 -0.00415396 -0.00427973 -0.00438476 -0.00446906 -0.00453263 -0.00457547 -0.00459757 -0.00459893 -0.00457957 -0.00453327 -0.00445383 -0.00434126 -0.00419556 -0.00401672 -0.00380474 -0.00355963 -0.00328139 -0.00298858 -0.00269977 -0.00241497 -0.00213418 -0.00185739 -0.00158461 -0.00131584 -0.00105107 -0.000804723 -0.000591225 -0.000410573 -0.000262767 -0.000147806 -6.56916e-05 -1.64229e-05 0 0 -2.14361e-05 -8.57445e-05 -0.000192925 -0.000342978 -0.000535903 -0.000771701 -0.00105037 -0.00137191 -0.00171609 -0.00206265 -0.0024116 -0.00276295 -0.00311668 -0.00347281 -0.00383133 -0.00419223 -0.00453169 -0.00482585 -0.00507472 -0.00527829 -0.00543657 -0.00554956 -0.00561725 -0.00563965 -0.00562625 -0.00558655 -0.00552056 -0.00542826 -0.00530966 -0.00516476 -0.00499357 -0.00479607 -0.0046002 -0.00443387 -0.0042971 -0.00418988 -0.00411222 -0.0040641 -0.00404553 -0.00405651 -0.00410701 -0.00420699 -0.00435644 -0.00455537 -0.00480378 -0.00510166 -0.00544903 -0.00584587 -0.0062688 -0.00669445 -0.0071228 -0.00755386 -0.00798763 -0.00842411 -0.0088633 -0.0093052 -0.00971996 -0.0100778 -0.0103786 -0.0106225 -0.0108094 -0.0109393 -0.0110123 -0.0110282 -0.0109879 -0.0108919 -0.0107401 -0.0105327 -0.0102695 -0.00995067 -0.00957611 -0.00914585 -0.00868984 -0.00823804 -0.00779045 -0.00734707 -0.00690789 -0.00647292 -0.00604216 -0.00561561 -0.00521538 -0.00486357 -0.0045602 -0.00430525 -0.00409872 -0.00394063 -0.00383096 -0.00376972 -0.00374672 -0.00375174 -0.00378479 -0.00384587 -0.00393498 -0.00405213 -0.0041973 -0.00437051 -0.00454569 -0.00469679 -0.00482382 -0.00492676 -0.00500562 -0.00506041 -0.00509112 -0.00509774 -0.00507212 -0.00500607 -0.0048996 -0.00475271 -0.00456539 -0.00433764 -0.00406948 -0.00376089 -0.00343353 -0.00310906 -0.00278747 -0.00246877 -0.00215296 -0.00184003 -0.00152999 -0.00122284 -0.000936238 -0.000687848 -0.000477672 -0.00030571 -0.000171962 -7.64276e-05 -1.91069e-05 0 0 -2.4563e-05 -9.82521e-05 -0.000221067 -0.000393008 -0.000614076 -0.000884269 -0.00120359 -0.00157203 -0.00196524 -0.00235884 -0.00275284 -0.00314724 -0.00354203 -0.00393721 -0.0043328 -0.00472878 -0.00509779 -0.00541247 -0.00567283 -0.00587886 -0.00603056 -0.00612794 -0.00617098 -0.0061597 -0.00610625 -0.00602281 -0.00590936 -0.00576592 -0.00559247 -0.00538903 -0.00515559 -0.00489214 -0.00463221 -0.0044093 -0.00422341 -0.00407455 -0.0039627 -0.00388788 -0.00385008 -0.0038493 -0.00389714 -0.00400522 -0.00417352 -0.00440204 -0.0046908 -0.00503978 -0.00544899 -0.00591843 -0.00641986 -0.00692504 -0.00743396 -0.00794664 -0.00846307 -0.00898325 -0.00950718 -0.0100349 -0.0105305 -0.0109584 -0.0113186 -0.0116109 -0.0118355 -0.0119923 -0.0120814 -0.0121027 -0.0120569 -0.0119448 -0.0117663 -0.0115216 -0.0112104 -0.010833 -0.0103891 -0.009879 -0.00933835 -0.00880306 -0.00827311 -0.00774852 -0.00722927 -0.00671538 -0.00620683 -0.00570364 -0.00523249 -0.0048201 -0.00446646 -0.00417158 -0.00393545 -0.00375808 -0.00363945 -0.00357959 -0.00356659 -0.00358857 -0.00364554 -0.00373749 -0.00386443 -0.00402635 -0.00422326 -0.00445515 -0.00469075 -0.00489879 -0.00507928 -0.0052322 -0.00535757 -0.00545537 -0.00552562 -0.0055683 -0.00557291 -0.0055289 -0.00543629 -0.00529508 -0.00510526 -0.00486683 -0.00457979 -0.00424415 -0.00388479 -0.00352661 -0.0031696 -0.00281377 -0.00245911 -0.00210563 -0.00175332 -0.00140218 -0.00107355 -0.000788728 -0.000547728 -0.000350546 -0.000197182 -8.76365e-05 -2.19091e-05 0 0 -2.78178e-05 -0.000111271 -0.00025036 -0.000445084 -0.000695444 -0.00100144 -0.00136307 -0.00178034 -0.00222429 -0.002666 -0.00310545 -0.00354264 -0.00397759 -0.00441028 -0.00484071 -0.00526889 -0.00566379 -0.00599435 -0.00626059 -0.00646251 -0.0066001 -0.00667336 -0.0066823 -0.00662692 -0.00652246 -0.00638418 -0.00621209 -0.00600618 -0.00576646 -0.00549292 -0.00518556 -0.00484438 -0.00450908 -0.00421935 -0.0039752 -0.00377662 -0.0036236 -0.00351616 -0.0034543 -0.003438 -0.00348063 -0.00359554 -0.00378274 -0.00404222 -0.00437397 -0.00477802 -0.00525434 -0.00580294 -0.00639019 -0.00698242 -0.00757965 -0.00818187 -0.00878908 -0.00940129 -0.0100185 -0.0106407 -0.0112256 -0.0117308 -0.0121564 -0.0125024 -0.0127688 -0.0129556 -0.0130627 -0.0130902 -0.0130389 -0.0129096 -0.0127022 -0.0124168 -0.0120534 -0.011612 -0.0110925 -0.010495 -0.0098618 -0.00923529 -0.00861545 -0.00800228 -0.00739577 -0.00679593 -0.00620276 -0.00561625 -0.00506823 -0.00459051 -0.00418309 -0.00384597 -0.00357915 -0.00338263 -0.00325641 -0.00320049 -0.00320118 -0.00324479 -0.00333133 -0.00346079 -0.00363318 -0.00384849 -0.00410672 -0.00440788 -0.00471491 -0.00499076 -0.00523545 -0.00544895 -0.00563129 -0.00578245 -0.00590243 -0.00599125 -0.00603563 -0.00602233 -0.00595134 -0.00582268 -0.00563632 -0.00539229 -0.00509057 -0.00473117 -0.00434236 -0.00395242 -0.00356135 -0.00316916 -0.00277584 -0.00238138 -0.0019858 -0.00158909 -0.00121665 -0.000893865 -0.00062074 -0.000397273 -0.000223466 -9.93184e-05 -2.48296e-05 0 0 -3.12003e-05 -0.000124801 -0.000280803 -0.000499205 -0.000780008 -0.00112321 -0.00152882 -0.00199682 -0.00249325 -0.00298411 -0.00346942 -0.00394917 -0.00442336 -0.004892 -0.00535507 -0.00581259 -0.00622968 -0.00657149 -0.00683801 -0.00702924 -0.00714519 -0.00718585 -0.00715122 -0.0070413 -0.00687487 -0.00667069 -0.00642875 -0.00614906 -0.00583162 -0.00547642 -0.00508348 -0.00465278 -0.00423081 -0.00386403 -0.00355246 -0.00329609 -0.00309492 -0.00294896 -0.00285819 -0.00282262 -0.00285748 -0.00297797 -0.00318411 -0.00347589 -0.00385331 -0.00431637 -0.00486507 -0.00549941 -0.00617979 -0.0068666 -0.00755985 -0.00825954 -0.00896566 -0.00967822 -0.0103972 -0.0111226 -0.011805 -0.0123949 -0.0128922 -0.013297 -0.0136093 -0.013829 -0.0139562 -0.0139909 -0.0139339 -0.0137862 -0.0135477 -0.0132184 -0.0127984 -0.0122876 -0.0116861 -0.0109938 -0.0102602 -0.00953475 -0.00881746 -0.00810834 -0.00740738 -0.00671458 -0.00602994 -0.00535346 -0.00472259 -0.0041748 -0.00371007 -0.00332841 -0.00302981 -0.00281428 -0.00268182 -0.00263243 -0.0026505 -0.00272041 -0.00284217 -0.00301578 -0.00324124 -0.00351854 -0.0038477 -0.0042287 -0.00461817 -0.00497271 -0.00529233 -0.00557702 -0.00582679 -0.00604164 -0.00622157 -0.00636657 -0.00646028 -0.00648634 -0.00644475 -0.0063355 -0.00615859 -0.00591403 -0.00560181 -0.00522194 -0.00480623 -0.00438649 -0.00396273 -0.00353495 -0.00310314 -0.00266731 -0.00222745 -0.00178357 -0.00136555 -0.00100326 -0.000696708 -0.000445893 -0.000250815 -0.000111473 -2.78683e-05 0 0 -3.47107e-05 -0.000138843 -0.000312396 -0.000555371 -0.000867767 -0.00124958 -0.00170082 -0.00222148 -0.0027721 -0.00331319 -0.00384476 -0.00436682 -0.00487936 -0.00538237 -0.00587587 -0.00635985 -0.00679547 -0.00714387 -0.00740507 -0.00757905 -0.00766582 -0.00766538 -0.00757772 -0.00740286 -0.00716349 -0.00688231 -0.00655933 -0.00619454 -0.00578795 -0.00533955 -0.00484935 -0.00431734 -0.00379738 -0.00334334 -0.0029552 -0.00263298 -0.00237666 -0.00218625 -0.00206175 -0.00200316 -0.00202768 -0.0021525 -0.00237763 -0.00270306 -0.00312879 -0.00365483 -0.00428118 -0.00500782 -0.00578866 -0.00657758 -0.00737458 -0.00817965 -0.00899281 -0.00981405 -0.0106434 -0.0114808 -0.012269 -0.0129507 -0.0135259 -0.0139946 -0.0143569 -0.0146126 -0.0147619 -0.0148047 -0.0147419 -0.0145747 -0.0143028 -0.0139264 -0.0134455 -0.01286 -0.01217 -0.0113754 -0.0105335 -0.00970142 -0.00887915 -0.00806671 -0.0072641 -0.00647132 -0.00568837 -0.00491526 -0.00419558 -0.00357296 -0.0030474 -0.00261889 -0.00228744 -0.00205304 -0.0019157 -0.00187541 -0.00191453 -0.00201541 -0.00217805 -0.00240245 -0.0026886 -0.00303651 -0.00344619 -0.00391762 -0.00440052 -0.00484462 -0.00524991 -0.0056164 -0.00594408 -0.00623295 -0.00648302 -0.00669428 -0.00684688 -0.00692095 -0.00691651 -0.00683354 -0.00667205 -0.00643205 -0.00611352 -0.00571647 -0.00527641 -0.00482883 -0.00437374 -0.00391114 -0.00344103 -0.0029634 -0.00247827 -0.00198562 -0.00152024 -0.00111691 -0.000775632 -0.000496405 -0.000279228 -0.000124101 -3.10253e-05 0 0 -3.81406e-05 -0.000152562 -0.000343265 -0.00061025 -0.000953515 -0.00137306 -0.00186889 -0.002441 -0.00304403 -0.00363263 -0.00420681 -0.00476654 -0.00531185 -0.00584273 -0.00635917 -0.00686119 -0.0073059 -0.00765044 -0.00789482 -0.00803903 -0.00808307 -0.00802694 -0.00787065 -0.00761418 -0.00728473 -0.00690945 -0.00648836 -0.00602145 -0.00550872 -0.00495018 -0.00434582 -0.00369564 -0.00306154 -0.00250543 -0.00202731 -0.00162718 -0.00130504 -0.00106088 -0.000894711 -0.00080653 -0.000815608 -0.000941216 -0.00118335 -0.00154202 -0.00201722 -0.00260895 -0.00331721 -0.00414199 -0.00503007 -0.00592819 -0.00683635 -0.00775456 -0.00868281 -0.0096211 -0.0105694 -0.0115278 -0.0124305 -0.0132116 -0.0138713 -0.0144095 -0.0148261 -0.0151213 -0.015295 -0.0153472 -0.0152789 -0.0150913 -0.0147842 -0.0143578 -0.013812 -0.0131468 -0.0123621 -0.0114581 -0.0105003 -0.00955429 -0.00862002 -0.00769751 -0.00678678 -0.00588782 -0.00500062 -0.0041252 -0.0033119 -0.00261109 -0.00202276 -0.00154691 -0.00118355 -0.000932678 -0.000794288 -0.000768383 -0.000835171 -0.000974864 -0.00118746 -0.00147296 -0.00183137 -0.00226268 -0.00276689 -0.00334401 -0.00393623 -0.00448575 -0.00499257 -0.00545669 -0.00587811 -0.00625684 -0.00659286 -0.00688618 -0.00711298 -0.00724941 -0.00729549 -0.0072512 -0.00711656 -0.00689155 -0.00657618 -0.00617045 -0.00571361 -0.0052449 -0.00476432 -0.00427188 -0.00376756 -0.00325138 -0.00272333 -0.00218341 -0.00167167 -0.00122817 -0.000852895 -0.000545853 -0.000307042 -0.000136463 -3.41158e-05 0 0 -4.12818e-05 -0.000165127 -0.000371536 -0.000660508 -0.00103204 -0.00148614 -0.00202281 -0.00264203 -0.00329224 -0.00392186 -0.00453088 -0.00511931 -0.00568714 -0.00623438 -0.00676102 -0.00726707 -0.00770571 -0.00803012 -0.00824031 -0.00833627 -0.00831801 -0.00818552 -0.00793881 -0.00757787 -0.00713501 -0.00664251 -0.00610038 -0.00550861 -0.00486722 -0.00417619 -0.00343553 -0.00264524 -0.00187599 -0.00119847 -0.000612681 -0.000118616 0.000283723 0.000594334 0.000813219 0.000940377 0.000954383 0.000833812 0.000578664 0.000188939 -0.000335364 -0.000994243 -0.0017877 -0.00271573 -0.00371728 -0.00473127 -0.00575771 -0.0067966 -0.00784793 -0.00891171 -0.00998794 -0.0110766 -0.0121027 -0.0129913 -0.0137423 -0.0143558 -0.0148317 -0.01517 -0.0153708 -0.0154341 -0.0153609 -0.0151524 -0.0148086 -0.0143295 -0.0137151 -0.0129654 -0.0120804 -0.0110601 -0.0099792 -0.00891236 -0.00785959 -0.00682089 -0.00579627 -0.00478571 -0.00378923 -0.00280682 -0.00189624 -0.00111523 -0.000463798 5.80587e-05 0.000450339 0.000713043 0.000846172 0.000849724 0.000745721 0.000556184 0.000281113 -7.94922e-05 -0.000525631 -0.0010573 -0.00167451 -0.00237725 -0.00309952 -0.00377532 -0.00440464 -0.00498748 -0.00552385 -0.00601374 -0.00645716 -0.0068541 -0.00717617 -0.00739499 -0.00751056 -0.00752287 -0.00743193 -0.00723773 -0.00694028 -0.00653958 -0.00607856 -0.00560018 -0.00510443 -0.0045913 -0.00406081 -0.00351295 -0.00294772 -0.00236513 -0.0018108 -0.00133038 -0.000923878 -0.000591282 -0.000332596 -0.00014782 -3.69551e-05 0 0 -4.41341e-05 -0.000176537 -0.000397207 -0.000706146 -0.00110335 -0.00158883 -0.00216257 -0.00282458 -0.00351673 -0.00418086 -0.00481699 -0.00542511 -0.00600522 -0.00655732 -0.00708141 -0.0075775 -0.00799489 -0.0082829 -0.00844153 -0.00847077 -0.00837064 -0.00814111 -0.00778221 -0.00729393 -0.00671432 -0.00608147 -0.00539538 -0.00465603 -0.00386343 -0.00301758 -0.00211849 -0.00116615 -0.00024074 0.000577539 0.00128869 0.00189272 0.00238962 0.00277939 0.00306204 0.00323756 0.00328229 0.00317258 0.00290842 0.00248982 0.00191678 0.00118928 0.000307346 -0.000729037 -0.00185029 -0.00298683 -0.00413866 -0.00530578 -0.00648818 -0.00768588 -0.00889887 -0.0101272 -0.0112857 -0.0122897 -0.0131389 -0.0138335 -0.0143735 -0.0147587 -0.0149894 -0.0150653 -0.0149878 -0.014758 -0.0143759 -0.0138416 -0.0131549 -0.012316 -0.0113248 -0.0101814 -0.00897012 -0.00777562 -0.00659786 -0.00543684 -0.00429256 -0.00316501 -0.00205421 -0.000960139 5.13954e-05 0.0009146 0.00162947 0.00219602 0.00261424 0.00288412 0.00300568 0.0029789 0.00282814 0.00257773 0.00222767 0.00177796 0.00122861 0.0005796 -0.000169054 -0.00101736 -0.00189042 -0.00271334 -0.00348613 -0.00420878 -0.00488129 -0.00550367 -0.00607591 -0.00659802 -0.00703645 -0.00735769 -0.00756172 -0.00764855 -0.00761818 -0.00747061 -0.00720583 -0.00682385 -0.00637127 -0.00589467 -0.00539405 -0.00486942 -0.00432078 -0.00374813 -0.00315145 -0.00253077 -0.00193762 -0.00142356 -0.000988582 -0.000632692 -0.000355889 -0.000158173 -3.95433e-05 0 0 -4.66978e-05 -0.000186791 -0.00042028 -0.000747164 -0.00116744 -0.00168112 -0.00228819 -0.00298866 -0.00371749 -0