<?xml version="1.0"?> 
<VTKFile type="StructuredGrid" version="0.1"> 
<StructuredGrid WholeExtent="0 128 0 128 0 0"> 
<Piece Extent="0 128 0 128 0 0"> 
<PointData>
<DataArray type="Float32" Name="u" format="ascii" NumberOfComponents="1"> 
0 0 0 0 0 0 0 0 0 0 0 0 0 0 0 0 0 0 0 0 0 0 0 0 0 0 0 0 0 0 0 0 0 0 0 0 0 0 0 0 0 0 0 0 0 0 0 0 0 0 0 0 0 0 0 0 0 0 0 0 0 0 0 0 0 0 0 0 0 0 0 0 0 0 0 0 0 0 0 0 0 0 0 0 0 0 0 0 0 0 0 0 0 0 0 0 0 0 0 0 0 0 0 0 0 0 0 0 0 0 0 0 0 0 0 0 0 0 0 0 0 0 0 0 0 0 0 0 0 0 6.41284e-08 2.56514e-07 5.77155e-07 1.02605e-06 1.60321e-06 2.30862e-06 3.14229e-06 4.10422e-06 5.24511e-06 6.61568e-06 8.21593e-06 1.00459e-05 1.21055e-05 1.43948e-05 1.69137e-05 1.96624e-05 2.25617e-05 2.55327e-05 2.85753e-05 3.16896e-05 3.48755e-05 3.81331e-05 4.14623e-05 4.48632e-05 4.8239e-05 5.14929e-05 5.46248e-05 5.76348e-05 6.05229e-05 6.32891e-05 6.59334e-05 6.84558e-05 7.08128e-05 7.29611e-05 7.49007e-05 7.66315e-05 7.81537e-05 7.94671e-05 8.05717e-05 8.14677e-05 8.21737e-05 8.27088e-05 8.30728e-05 8.32658e-05 8.32878e-05 8.31387e-05 8.28186e-05 8.23275e-05 8.17211e-05 8.10551e-05 8.03296e-05 7.95445e-05 7.86999e-05 7.77957e-05 7.68319e-05 7.58086e-05 7.47745e-05 7.37783e-05 7.28201e-05 7.18999e-05 7.10176e-05 7.01732e-05 6.93668e-05 6.85984e-05 6.78764e-05 6.72092e-05 6.6597e-05 6.60397e-05 6.55374e-05 6.50899e-05 6.46973e-05 6.43596e-05 6.40458e-05 6.37249e-05 6.33969e-05 6.30617e-05 6.27194e-05 6.23699e-05 6.20133e-05 6.16496e-05 6.12397e-05 6.07446e-05 6.01642e-05 5.94986e-05 5.87478e-05 5.79118e-05 5.69905e-05 5.5984e-05 5.48808e-05 5.36693e-05 5.23494e-05 5.09213e-05 4.93849e-05 4.77402e-05 4.59872e-05 4.41259e-05 4.21869e-05 4.02004e-05 3.81667e-05 3.60857e-05 3.39573e-05 3.17816e-05 2.95586e-05 2.72883e-05 2.50298e-05 2.28423e-05 2.07258e-05 1.86804e-05 1.67059e-05 1.48024e-05 1.29699e-05 1.12084e-05 9.5567e-06 8.05345e-06 6.69869e-06 5.49243e-06 4.43465e-06 3.52536e-06 2.76456e-06 2.15226e-06 1.64782e-06 1.21064e-06 8.40725e-07 5.38064e-07 3.02661e-07 1.34516e-07 3.3629e-08 0 0 2.56514e-07 1.02605e-06 2.30862e-06 4.10422e-06 6.41284e-06 9.23449e-06 1.25692e-05 1.64169e-05 2.09804e-05 2.64627e-05 3.28637e-05 4.01835e-05 4.84219e-05 5.75791e-05 6.76549e-05 7.86495e-05 9.02468e-05 0.000102131 0.000114301 0.000126758 0.000139502 0.000152532 0.000165849 0.000179453 0.000192956 0.000205972 0.000218499 0.000230539 0.000242092 0.000253157 0.000263734 0.000273823 0.000283251 0.000291844 0.000299603 0.000306526 0.000312615 0.000317868 0.000322287 0.000325871 0.000328695 0.000330835 0.000332291 0.000333063 0.000333151 0.000332555 0.000331274 0.00032931 0.000326884 0.000324221 0.000321318 0.000318178 0.0003148 0.000311183 0.000307328 0.000303234 0.000299098 0.000295113 0.000291281 0.000287599 0.00028407 0.000280693 0.000277467 0.000274393 0.000271505 0.000268837 0.000266388 0.000264159 0.000262149 0.000260359 0.000258789 0.000257438 0.000256183 0.0002549 0.000253587 0.000252247 0.000250877 0.00024948 0.000248053 0.000246598 0.000244959 0.000242978 0.000240657 0.000237995 0.000234991 0.000231647 0.000227962 0.000223936 0.000219523 0.000214677 0.000209398 0.000203685 0.00019754 0.000190961 0.000183949 0.000176504 0.000168747 0.000160802 0.000152667 0.000144343 0.000135829 0.000127127 0.000118234 0.000109153 0.000100119 9.13693e-05 8.29034e-05 7.47214e-05 6.68235e-05 5.92096e-05 5.18797e-05 4.48337e-05 3.82268e-05 3.22138e-05 2.67948e-05 2.19697e-05 1.77386e-05 1.41014e-05 1.10583e-05 8.60902e-06 6.59128e-06 4.84257e-06 3.3629e-06 2.15226e-06 1.21064e-06 5.38064e-07 1.34516e-07 0 0 5.77155e-07 2.30862e-06 5.1944e-06 9.23449e-06 1.44289e-05 2.07776e-05 2.82806e-05 3.6938e-05 4.7206e-05 5.95411e-05 7.39434e-05 9.04128e-05 0.000108949 0.000129553 0.000152224 0.000176961 0.000203055 0.000229794 0.000257178 0.000285206 0.00031388 0.000343198 0.000373161 0.000403769 0.000434151 0.000463436 0.000491623 0.000518714 0.000544706 0.000569602 0.000593401 0.000616102 0.000637315 0.00065665 0.000674106 0.000689684 0.000703383 0.000715203 0.000725146 0.000733209 0.000739564 0.000744379 0.000747655 0.000749392 0.00074959 0.000748248 0.000745367 0.000740947 0.00073549 0.000729496 0.000722966 0.000715901 0.000708299 0.000700161 0.000691487 0.000682278 0.000672971 0.000664005 0.000655381 0.000647099 0.000639158 0.000631559 0.000624301 0.000617385 0.000610887 0.000604883 0.000599373 0.000594358 0.000589836 0.000585809 0.000582276 0.000579237 0.000576413 0.000573524 0.000570572 0.000567555 0.000564474 0.000561329 0.00055812 0.000554846 0.000551157 0.000546701 0.000541478 0.000535488 0.00052873 0.000521206 0.000512915 0.000503856 0.000493927 0.000483023 0.000471145 0.000458292 0.000444464 0.000429662 0.000413885 0.000397133 0.000379682 0.000361804 0.0003435 0.000324771 0.000305616 0.000286035 0.000266028 0.000245595 0.000225268 0.000205581 0.000186533 0.000168123 0.000150353 0.000133222 0.000116729 0.000100876 8.60103e-05 7.24811e-05 6.02882e-05 4.94318e-05 3.99119e-05 3.17283e-05 2.48811e-05 1.93703e-05 1.48304e-05 1.08958e-05 7.56652e-06 4.84257e-06 2.72395e-06 1.21064e-06 3.02661e-07 0 0 1.02605e-06 4.10422e-06 9.23449e-06 1.64169e-05 2.56514e-05 3.6938e-05 5.02767e-05 6.56675e-05 8.39218e-05 0.000105851 0.000131455 0.000160734 0.000193688 0.000230316 0.00027062 0.000314598 0.000360987 0.000408523 0.000457205 0.000507033 0.000558008 0.00061013 0.000663398 0.000717812 0.000771824 0.000823886 0.000873997 0.000922157 0.000968367 0.00101263 0.00105493 0.00109529 0.001133 0.00116738 0.00119841 0.0012261 0.00125046 0.00127147 0.00128915 0.00130348 0.00131478 0.00132334 0.00132916 0.00133225 0.0013326 0.00133022 0.0013251 0.00131724 0.00130754 0.00129688 0.00128527 0.00127271 0.0012592 0.00124473 0.00122931 0.00121294 0.00119639 0.00118045 0.00116512 0.0011504 0.00113628 0.00112277 0.00110987 0.00109757 0.00108602 0.00107535 0.00106555 0.00105664 0.0010486 0.00104144 0.00103516 0.00102975 0.00102473 0.0010196 0.00101435 0.00100899 0.00100351 0.000997919 0.000992213 0.000986394 0.000979835 0.000971913 0.000962627 0.000951978 0.000939965 0.000926589 0.000911848 0.000895745 0.000878093 0.000858708 0.000837591 0.000814741 0.000790158 0.000763843 0.000735795 0.000706015 0.00067499 0.000643207 0.000610668 0.000577371 0.000543317 0.000508506 0.000472938 0.000436613 0.000400477 0.000365477 0.000331613 0.000298886 0.000267294 0.000236838 0.000207519 0.000179335 0.000152907 0.000128855 0.000107179 8.78788e-05 7.09544e-05 5.64058e-05 4.4233e-05 3.44361e-05 2.63651e-05 1.93703e-05 1.34516e-05 8.60902e-06 4.84257e-06 2.15226e-06 5.38064e-07 0 0 1.60321e-06 6.41284e-06 1.44289e-05 2.56514e-05 4.00802e-05 5.77155e-05 7.85573e-05 0.000102605 0.000131128 0.000165392 0.000205398 0.000251147 0.000302637 0.000359869 0.000422843 0.000491559 0.000564042 0.000638317 0.000714382 0.000792239 0.000871888 0.000953327 0.00103656 0.00112158 0.00120598 0.00128732 0.00136562 0.00144087 0.00151307 0.00158223 0.00164834 0.00171139 0.00177032 0.00182403 0.00187252 0.00191579 0.00195384 0.00198668 0.00201429 0.00203669 0.00205434 0.00206772 0.00207682 0.00208164 0.00208219 0.00207847 0.00207047 0.00205819 0.00204303 0.00202638 0.00200824 0.00198861 0.0019675 0.00194489 0.0019208 0.00189522 0.00186936 0.00184446 0.0018205 0.0017975 0.00177544 0.00175433 0.00173417 0.00171496 0.00169691 0.00168023 0.00166493 0.00165099 0.00163843 0.00162725 0.00161743 0.00160899 0.00160115 0.00159312 0.00158492 0.00157654 0.00156798 0.00155925 0.00155033 0.00154124 0.00153099 0.00151861 0.00150411 0.00148747 0.0014687 0.00144779 0.00142476 0.0013996 0.00137202 0.00134173 0.00130874 0.00127303 0.00123462 0.00119351 0.00114968 0.00110315 0.00105467 0.00100501 0.000954168 0.000902142 0.000848933 0.000794541 0.000738965 0.000682207 0.000625745 0.000571058 0.000518146 0.000467009 0.000417647 0.00037006 0.000324248 0.000280211 0.000238917 0.000201336 0.000167467 0.000137311 0.000110866 8.81341e-05 6.91141e-05 5.38064e-05 4.11955e-05 3.02661e-05 2.10181e-05 1.34516e-05 7.56652e-06 3.3629e-06 8.40725e-07 0 0 2.30862e-06 9.23449e-06 2.07776e-05 3.6938e-05 5.77155e-05 8.31104e-05 0.000113122 0.000147752 0.000188824 0.000238165 0.000295774 0.000361651 0.000435797 0.000518211 0.000608894 0.000707846 0.000812221 0.000919176 0.00102871 0.00114082 0.00125552 0.00137279 0.00149264 0.00161508 0.0017366 0.00185374 0.00196649 0.00207485 0.00217883 0.00227841 0.0023736 0.00246441 0.00254926 0.0026266 0.00269642 0.00275873 0.00281353 0.00286081 0.00290058 0.00293284 0.00295825 0.00297752 0.00299062 0.00299757 0.00299836 0.00299299 0.00298147 0.00296379 0.00294196 0.00291798 0.00289187 0.0028636 0.0028332 0.00280064 0.00276595 0.00272911 0.00269188 0.00265602 0.00262152 0.0025884 0.00255663 0.00252624 0.00249721 0.00246954 0.00244355 0.00241953 0.00239749 0.00237743 0.00235934 0.00234324 0.0023291 0.00231695 0.00230565 0.0022941 0.00228229 0.00227022 0.0022579 0.00224532 0.00223248 0.00221939 0.00220463 0.0021868 0.00216591 0.00214195 0.00211492 0.00208482 0.00205166 0.00201543 0.00197571 0.00193209 0.00188458 0.00183317 0.00177786 0.00171865 0.00165554 0.00158853 0.00151873 0.00144722 0.001374 0.00129908 0.00122246 0.00114414 0.00106411 0.000982379 0.000901073 0.000822324 0.00074613 0.000672493 0.000601412 0.000532886 0.000466917 0.000403504 0.000344041 0.000289924 0.000241153 0.000197727 0.000159647 0.000126913 9.95243e-05 7.74812e-05 5.93215e-05 4.35832e-05 3.02661e-05 1.93703e-05 1.08958e-05 4.84257e-06 1.21064e-06 0 0 3.14229e-06 1.25692e-05 2.82806e-05 5.02767e-05 7.85573e-05 0.000113122 0.000153972 0.000201107 0.00025701 0.000324168 0.000402581 0.000492247 0.000593168 0.000705343 0.000828773 0.000963456 0.00110552 0.0012511 0.00140019 0.00155279 0.0017089 0.00186852 0.00203165 0.0021983 0.00236371 0.00252315 0.00267662 0.00282411 0.00296562 0.00310117 0.00323074 0.00335433 0.00346983 0.00357509 0.00367013 0.00375494 0.00382953 0.00389389 0.00394801 0.00399192 0.00402651 0.00405273 0.00407057 0.00408002 0.0040811 0.0040738 0.00405811 0.00403405 0.00400433 0.0039717 0.00393615 0.00389768 0.00385629 0.00381199 0.00376476 0.00371462 0.00366395 0.00361514 0.00356819 0.00352309 0.00347986 0.00343849 0.00339897 0.00336132 0.00332594 0.00329325 0.00326325 0.00323595 0.00321133 0.0031894 0.00317017 0.00315362 0.00313825 0.00312252 0.00310645 0.00309002 0.00307325 0.00305613 0.00303865 0.00302083 0.00300075 0.00297648 0.00294805 0.00291543 0.00287864 0.00283768 0.00279254 0.00274322 0.00268916 0.00262979 0.00256512 0.00249514 0.00241986 0.00233927 0.00225337 0.00216217 0.00206716 0.00196982 0.00187017 0.0017682 0.00166391 0.0015573 0.00144837 0.00133713 0.00122646 0.00111927 0.00101557 0.000915338 0.000818588 0.000725317 0.000635526 0.000549213 0.000468278 0.000394619 0.000328236 0.000269129 0.000217298 0.000172743 0.000135464 0.000105461 8.07432e-05 5.93215e-05 4.11955e-05 2.63651e-05 1.48304e-05 6.59128e-06 1.64782e-06 0 0 4.10422e-06 1.64169e-05 3.6938e-05 6.56675e-05 0.000102605 0.000147752 0.000201107 0.00026267 0.000335687 0.000423404 0.00052582 0.000642935 0.00077475 0.000921265 0.00108248 0.00125839 0.00144395 0.00163409 0.00182882 0.00202813 0.00223203 0.00244052 0.00265359 0.00287125 0.0030873 0.00329554 0.00349599 0.00368863 0.00387347 0.0040505 0.00421974 0.00438117 0.00453202 0.00466951 0.00479364 0.00490442 0.00500183 0.00508589 0.00515659 0.00521393 0.00525912 0.00529336 0.00531666 0.00532901 0.00533042 0.00532088 0.00530039 0.00526896 0.00523015 0.00518753 0.00514109 0.00509085 0.00503679 0.00497892 0.00491724 0.00485175 0.00478557 0.00472181 0.00466049 0.00460159 0.00454512 0.00449109 0.00443948 0.0043903 0.00434409 0.00430139 0.00426221 0.00422654 0.00419439 0.00416575 0.00414063 0.00411902 0.00409893 0.0040784 0.0040574 0.00403595 0.00401404 0.00399167 0.00396885 0.00394557 0.00391934 0.00388765 0.00385051 0.00380791 0.00375986 0.00370635 0.00364739 0.00358298 0.00351237 0.00343483 0.00335036 0.00325896 0.00316063 0.00305537 0.00294318 0.00282406 0.00269996 0.00257283 0.00244267 0.00230948 0.00217327 0.00203402 0.00189175 0.00174645 0.00160191 0.00146191 0.00132645 0.00119554 0.00106918 0.000947353 0.000830074 0.00071734 0.000611629 0.000515421 0.000428716 0.000351515 0.000283818 0.000225623 0.000176932 0.000137744 0.000105461 7.74812e-05 5.38064e-05 3.44361e-05 1.93703e-05 8.60902e-06 2.15226e-06 0 0 5.29705e-06 2.11882e-05 4.76735e-05 8.47528e-05 0.000132426 0.000190694 0.000259555 0.000339011 0.000433071 0.000545745 0.000677034 0.000826936 0.000995453 0.00118258 0.00138833 0.00161269 0.00184923 0.00209153 0.00233958 0.00259338 0.00285293 0.00311824 0.0033893 0.00366612 0.00394086 0.00420571 0.00446068 0.00470575 0.00494093 0.00516621 0.00538161 0.00558711 0.00577921 0.0059544 0.00611268 0.00625405 0.00637851 0.00648605 0.00657669 0.00665041 0.00670873 0.00675318 0.00678375 0.00680044 0.00680325 0.00679218 0.00676723 0.00672841 0.0066802 0.0066271 0.00656912 0.00650625 0.00643849 0.00636585 0.00628831 0.0062059 0.00612253 0.00604215 0.00596475 0.00589034 0.00581892 0.00575048 0.00568503 0.00562257 0.00556378 0.00550936 0.00545931 0.00541363 0.00537231 0.00533536 0.00530277 0.00527456 0.00524821 0.00522125 0.00519366 0.00516545 0.00513662 0.00510716 0.00507708 0.00504639 0.00501192 0.00497055 0.00492228 0.00486709 0.004805 0.004736 0.0046601 0.00457729 0.00448664 0.00438724 0.00427909 0.00416217 0.00403651 0.00390208 0.00375891 0.00360697 0.00344875 0.00328669 0.00312081 0.0029511 0.00277757 0.0026002 0.00241901 0.00223399 0.00204992 0.00187159 0.00169898 0.00153211 0.00137096 0.00121555 0.00106587 0.00092192 0.000786859 0.000663846 0.000552882 0.000453966 0.000367099 0.000292281 0.000229511 0.000178789 0.000136886 0.000100569 6.98395e-05 4.46973e-05 2.51422e-05 1.11743e-05 2.79358e-06 0 0 6.82344e-06 2.72938e-05 6.1411e-05 0.000109175 0.000170586 0.000245644 0.000334349 0.0004367 0.00055738 0.000701068 0.000867765 0.00105747 0.00127019 0.00150591 0.00176464 0.00204638 0.00234311 0.00264679 0.00295744 0.00327505 0.00359962 0.00393115 0.00426965 0.0046151 0.0049579 0.00528845 0.00560675 0.00591278 0.00620656 0.00648808 0.00675735 0.00701436 0.00725479 0.00747433 0.00767299 0.00785075 0.00800761 0.00814359 0.00825868 0.00835287 0.00842802 0.00848596 0.00852669 0.00855022 0.00855654 0.00854565 0.00851756 0.00847227 0.00841527 0.00835206 0.00828264 0.00820702 0.00812519 0.00803715 0.00794291 0.00784246 0.00774062 0.00764224 0.00754729 0.00745579 0.00736774 0.00728313 0.00720196 0.00712424 0.00705083 0.00698258 0.00691951 0.0068616 0.00680886 0.0067613 0.0067189 0.00668167 0.00664658 0.0066106 0.00657373 0.00653597 0.00649732 0.00645778 0.00641735 0.00637603 0.00633 0.00627543 0.00621232 0.00614068 0.00606049 0.00597177 0.00587451 0.00576871 0.00565327 0.00552705 0.00539007 0.00524232 0.00508381 0.00491453 0.00473449 0.00454368 0.00434513 0.00414187 0.0039339 0.00372122 0.00350383 0.00328172 0.00305491 0.00282339 0.00259302 0.00236967 0.00215334 0.00194403 0.00174174 0.00154647 0.00135822 0.00117699 0.00100673 0.000851412 0.000711021 0.000585562 0.000475036 0.000379442 0.000298781 0.000233052 0.00017843 0.000131092 9.10358e-05 5.82629e-05 3.27729e-05 1.45657e-05 3.64143e-06 0 0 8.68339e-06 3.47336e-05 7.81505e-05 0.000138934 0.000217085 0.000312602 0.000425486 0.000555737 0.000708613 0.000889372 0.00109801 0.00133454 0.00159895 0.00189124 0.00221141 0.00255947 0.00292557 0.00329989 0.00368241 0.00407315 0.0044721 0.00487925 0.00529462 0.00571819 0.00613843 0.00654376 0.0069342 0.00730974 0.00767038 0.00801612 0.00834696 0.0086629 0.00895875 0.0092293 0.00947455 0.0096945 0.00988915 0.0100585 0.0102026 0.0103213 0.010417 0.0104917 0.0105455 0.0105783 0.0105903 0.0105813 0.0105514 0.0105005 0.0104354 0.0103624 0.0102817 0.0101932 0.0100969 0.00999284 0.00988102 0.00976143 0.00963986 0.00952208 0.00940812 0.00929795 0.00919159 0.00908903 0.00899027 0.00889532 0.00880522 0.00872105 0.0086428 0.00857047 0.00850406 0.00844357 0.008389 0.00834035 0.00829404 0.00824646 0.00819762 0.00814752 0.00809616 0.00804354 0.00798966 0.00793452 0.00787357 0.00780228 0.00772064 0.00762866 0.00752633 0.00741366 0.00729063 0.00715727 0.00701225 0.00685426 0.00668332 0.00649941 0.00630255 0.00609272 0.00586993 0.00563418 0.00538911 0.00513836 0.00488193 0.00461983 0.00435205 0.00407859 0.00379946 0.00351464 0.0032312 0.00295616 0.00268953 0.00243132 0.00218151 0.00194012 0.00170713 0.00148255 0.00127126 0.00107812 0.000903133 0.000746303 0.000607628 0.000487108 0.000384742 0.000300532 0.000230095 0.000169049 0.000117395 7.5133e-05 4.22623e-05 1.87832e-05 4.69581e-06 0 0 1.08769e-05 4.35076e-05 9.78921e-05 0.00017403 0.000271922 0.000391568 0.000532968 0.000696122 0.000886771 0.00111066 0.00136778 0.00165814 0.00198174 0.00233857 0.00272865 0.00315196 0.00359663 0.00405081 0.00451449 0.00498767 0.00547036 0.00596254 0.00646422 0.0069754 0.00748243 0.00797164 0.00844303 0.00889661 0.00933237 0.00975031 0.0101504 0.0105328 0.0108911 0.0112193 0.0115174 0.0117853 0.0120231 0.0122308 0.0124083 0.0125558 0.0126756 0.0127704 0.0128401 0.0128848 0.0129045 0.0128991 0.0128687 0.0128132 0.0127405 0.0126581 0.0125662 0.0124647 0.0123536 0.0122329 0.0121026 0.0119628 0.0118202 0.0116817 0.0115472 0.0114168 0.0112905 0.0111682 0.01105 0.0109358 0.010827 0.0107248 0.0106292 0.0105402 0.0104579 0.0103822 0.0103131 0.0102506 0.0101906 0.0101288 0.0100653 0.0100001 0.00993313 0.00986444 0.009794 0.00972184 0.00964264 0.00955111 0.00944725 0.00933105 0.00920252 0.00906166 0.00890847 0.00874294 0.00856358 0.00836888 0.00815883 0.00793344 0.00769271 0.00743664 0.00716523 0.00687847 0.00658068 0.00627616 0.00596491 0.00564694 0.00532224 0.0049908 0.00465264 0.00430776 0.00396445 0.00363106 0.00330756 0.00299396 0.00269027 0.00239648 0.00211259 0.0018386 0.00158042 0.00134396 0.00112922 0.000936188 0.000764874 0.000615276 0.000487395 0.00038123 0.000291879 0.000214442 0.000148918 9.53074e-05 5.36104e-05 2.38268e-05 5.95671e-06 0 0 1.3404e-05 5.36159e-05 0.000120636 0.000214463 0.000335099 0.000482543 0.000656794 0.000857854 0.00109185 0.00136492 0.00167706 0.00202828 0.00241856 0.00284792 0.00331634 0.00382384 0.00435629 0.00489957 0.00545368 0.00601863 0.0065944 0.00718101 0.00777845 0.00838673 0.00898991 0.00957208 0.0101332 0.0106734 0.0111925 0.0116907 0.0121678 0.0126239 0.0130518 0.0134443 0.0138015 0.0141232 0.0144095 0.0146605 0.014876 0.0150562 0.0152039 0.015322 0.0154106 0.0154697 0.0154991 0.0154991 0.0154695 0.0154103 0.0153306 0.0152392 0.0151362 0.0150216 0.0148953 0.0147574 0.0146078 0.0144466 0.0142817 0.0141211 0.0139646 0.0138124 0.0136644 0.0135206 0.013381 0.0132457 0.0131161 0.0129937 0.0128787 0.0127709 0.0126704 0.0125771 0.0124911 0.0124124 0.0123362 0.0122577 0.0121768 0.0120937 0.0120082 0.0119205 0.0118304 0.011738 0.0116372 0.0115219 0.0113921 0.0112478 0.0110891 0.0109158 0.010728 0.0105257 0.0103073 0.0100709 0.0098166 0.00954441 0.00925431 0.0089463 0.00862038 0.00827656 0.00791985 0.00755528 0.00718284 0.00680254 0.00641438 0.00601836 0.00561447 0.00520272 0.00479279 0.00439435 0.00400741 0.00363197 0.00326802 0.00291556 0.00257461 0.00224514 0.00193424 0.00164895 0.00138928 0.00115522 0.000946775 0.000763949 0.000606739 0.000475145 0.000363783 0.000267269 0.000185603 0.000118786 6.68172e-05 2.96966e-05 7.42414e-06 0 0 1.62646e-05 6.50584e-05 0.000146381 0.000260233 0.000406615 0.000585525 0.000796965 0.00104093 0.00132386 0.00165217 0.00202587 0.00244495 0.00290941 0.00341926 0.0039745 0.00457512 0.00520453 0.00584615 0.00649997 0.007166 0.00784424 0.00853467 0.00923732 0.00995216 0.0106609 0.0113451 0.0120048 0.0126401 0.0132509 0.0138372 0.014399 0.0149364 0.0154409 0.0159044 0.0163268 0.0167081 0.0170484 0.0173475 0.0176056 0.0178226 0.0180018 0.0181466 0.018257 0.0183328 0.0183743 0.0183812 0.0183538 0.0182919 0.0182057 0.0181057 0.0179917 0.0178638 0.017722 0.0175662 0.0173965 0.0172128 0.0170244 0.0168402 0.0166603 0.0164846 0.0163133 0.0161462 0.0159834 0.0158249 0.0156725 0.0155279 0.0153913 0.0152624 0.0151415 0.0150284 0.0149232 0.0148258 0.0147309 0.0146331 0.0145322 0.0144283 0.0143215 0.0142116 0.0140988 0.013983 0.0138573 0.0137147 0.0135553 0.013379 0.013186 0.012976 0.0127493 0.0125057 0.0122433 0.0119603 0.0116566 0.0113323 0.0109873 0.0106217 0.0102354 0.00982844 0.00940661 0.00897571 0.00853572 0.00808665 0.00762849 0.00716126 0.00668495 0.00619955 0.00571621 0.00524606 0.0047891 0.00434533 0.00391475 0.00349737 0.00309318 0.00270218 0.0023327 0.00199308 0.00168331 0.00140339 0.00115333 0.000933126 0.000742775 0.000582278 0.000445806 0.000327531 0.000227452 0.000145569 8.18828e-05 3.63924e-05 9.09809e-06 0 0 1.94588e-05 7.78351e-05 0.000175129 0.00031134 0.000486469 0.000700516 0.00095348 0.00124536 0.00158279 0.0019724 0.00241419 0.00290815 0.00345429 0.00405261 0.00470311 0.00540579 0.00614137 0.00689056 0.00765338 0.00842981 0.00921986 0.0100235 0.0108408 0.0116717 0.0124953 0.0132907 0.0140578 0.0147967 0.0155074 0.0161899 0.0168441 0.0174701 0.0180584 0.0185995 0.0190934 0.0195401 0.0199396 0.0202919 0.0205971 0.020855 0.0210695 0.0212442 0.0213791 0.0214744 0.0215298 0.0215456 0.0215215 0.0214578 0.0213659 0.0212576 0.0211327 0.0209914 0.0208337 0.0206594 0.0204687 0.0202615 0.0200481 0.0198391 0.0196342 0.0194336 0.0192372 0.0190451 0.0188572 0.0186736 0.0184963 0.0183274 0.0181669 0.0180149 0.0178712 0.017736 0.0176092 0.0174908 0.0173748 0.0172549 0.0171313 0.017004 0.0168728 0.0167379 0.0165993 0.0164568 0.0163028 0.0161294 0.0159367 0.0157246 0.0154932 0.0152424 0.0149722 0.0146827 0.0143717 0.0140371 0.0136789 0.0132972 0.0128918 0.0124628 0.0120103 0.0115341 0.011041 0.0105374 0.0100235 0.00949924 0.00896457 0.00841951 0.00786406 0.00729823 0.0067347 0.00618616 0.00565261 0.00513405 0.00463048 0.0041419 0.0036683 0.0032097 0.0027758 0.00237634 0.00201131 0.00168071 0.00138454 0.00112281 0.000895501 0.000702628 0.00053795 0.000395228 0.000274464 0.000175657 9.88071e-05 4.39143e-05 1.09786e-05 0 0 2.29865e-05 9.19461e-05 0.000206879 0.000367784 0.000574663 0.000827515 0.00112634 0.00147114 0.00186865 0.00232561 0.00284202 0.00341789 0.0040532 0.00474797 0.00550219 0.00631586 0.0071668 0.0080328 0.00891388 0.00981004 0.0107213 0.0116476 0.0125889 0.0135454 0.0144932 0.0154088 0.0162922 0.0171433 0.0179621 0.0187487 0.0195031 0.0202252 0.0209043 0.0215296 0.0221013 0.0226192 0.0230833 0.0234937 0.0238504 0.0241534 0.0244068 0.0246147 0.0247772 0.0248942 0.0249659 0.0249921 0.0249728 0.0249081 0.0248111 0.0246948 0.0245592 0.0244044 0.0242303 0.024037 0.0238244 0.0235925 0.023353 0.0231177 0.0228864 0.0226593 0.0224362 0.0222173 0.0220024 0.0217917 0.0215874 0.0213921 0.0212057 0.0210282 0.0208596 0.0207 0.0205492 0.0204074 0.0202677 0.0201233 0.0199743 0.0198206 0.0196623 0.0194994 0.0193318 0.0191595 0.0189739 0.0187662 0.0185364 0.0182846 0.0180108 0.0177149 0.0173969 0.0170569 0.0166925 0.0163013 0.0158835 0.0154389 0.0149677 0.0144697 0.013945 0.0133936 0.0128229 0.0122405 0.0116463 0.0110403 0.0104226 0.00979309 0.00915182 0.00849877 0.00784828 0.00721468 0.00659796 0.00599814 0.0054152 0.00484915 0.00429999 0.00376771 0.00326356 0.00279875 0.00237329 0.00198717 0.00164041 0.00133299 0.00106492 0.000836197 0.000640213 0.000470361 0.000326639 0.000209049 0.00011759 5.22623e-05 1.30656e-05 0 0 2.68474e-05 0.00010739 0.000241627 0.000429559 0.000671186 0.000966508 0.00131552 0.00171824 0.00218137 0.00271167 0.00330912 0.00397372 0.00470549 0.0055044 0.00637048 0.00730371 0.00827878 0.00927038 0.0102785 0.0113032 0.0123444 0.0134021 0.0144763 0.0155671 0.0166479 0.0176921 0.0186999 0.0196711 0.0206058 0.021504 0.0223657 0.0231908 0.0239674 0.0246834 0.0253387 0.0259335 0.0264676 0.026941 0.0273539 0.0277061 0.0280023 0.0282471 0.0284404 0.0285822 0.0286725 0.0287115 0.0286989 0.0286349 0.028534 0.0284108 0.0282654 0.0280976 0.0279075 0.0276951 0.0274605 0.0272035 0.0269373 0.0266749 0.0264163 0.0261615 0.0259105 0.0256633 0.0254199 0.0251804 0.0249474 0.0247236 0.0245092 0.0243041 0.0241083 0.0239218 0.0237446 0.0235766 0.0234105 0.0232388 0.0230614 0.0228783 0.0226896 0.0224952 0.0222951 0.0220894 0.0218684 0.0216225 0.0213517 0.021056 0.0207354 0.0203899 0.0200195 0.0196242 0.0192015 0.0187487 0.018266 0.0177534 0.0172107 0.0166381 0.0160356 0.015403 0.0147489 0.0140815 0.0134009 0.0127071 0.012 0.0112798 0.0105463 0.00979957 0.00905567 0.00833064 0.00762447 0.00693715 0.0062687 0.0056191 0.00498837 0.0043765 0.00379634 0.00326076 0.00276975 0.00232332 0.00192147 0.00156419 0.00125149 0.00098336 0.000752885 0.00055314 0.000384125 0.00024584 0.000138285 6.146e-05 1.5365e-05 0 0 3.10412e-05 0.000124165 0.000279371 0.000496659 0.00077603 0.00111748 0.00152102 0.00198664 0.00252092 0.00313044 0.00381521 0.00457522 0.00541048 0.00632098 0.00730672 0.00836771 0.00947529 0.0106008 0.0117443 0.0129057 0.014085 0.0152823 0.0164976 0.0177308 0.0189524 0.0201331 0.0212728 0.0223715 0.0234292 0.0244459 0.0254216 0.0263564 0.0272367 0.0280493 0.0287941 0.0294712 0.0300804 0.0306219 0.0310957 0.0315016 0.0318448 0.0321302 0.0323579 0.0325279 0.03264 0.0326945 0.0326912 0.0326301 0.0325274 0.0323991 0.0322452 0.0320657 0.0318606 0.03163 0.0313738 0.031092 0.0307991 0.0305094 0.0302231 0.0299401 0.0296603 0.0293839 0.0291108 0.0288409 0.0285775 0.0283236 0.0280792 0.0278443 0.0276189 0.027403 0.0271966 0.0269998 0.0268042 0.0266019 0.0263928 0.0261769 0.0259541 0.0257246 0.0254882 0.025245 0.0249845 0.0246961 0.0243799 0.0240358 0.0236638 0.023264 0.0228363 0.0223807 0.0218946 0.0213751 0.0208223 0.0202362 0.0196168 0.018964 0.0182779 0.0175586 0.0168151 0.016057 0.0152842 0.0144966 0.0136943 0.0128773 0.0120455 0.011199 0.0103556 0.0095331 0.00873145 0.00795067 0.00719078 0.00645175 0.0057336 0.00503633 0.00437454 0.00376284 0.00320123 0.0026897 0.00222827 0.00181692 0.00145566 0.00114449 0.000876254 0.000643778 0.000447068 0.000286124 0.000160945 7.15309e-05 1.78827e-05 0 0 3.55678e-05 0.000142271 0.00032011 0.000569084 0.000889195 0.00128044 0.00174282 0.00227634 0.00288728 0.00358193 0.0043603 0.00522239 0.00616818 0.00719769 0.00831092 0.00950786 0.0107563 0.0120241 0.0133112 0.0146176 0.0159433 0.0172884 0.0186527 0.0200364 0.0214069 0.0227318 0.0240109 0.0252444 0.0264323 0.0275744 0.0286709 0.0297218 0.0307122 0.0316274 0.0324674 0.0332323 0.0339219 0.0345364 0.0350757 0.0355398 0.0359341 0.0362642 0.0365299 0.0367313 0.0368684 0.0369411 0.0369496 0.0368937 0.0367912 0.0366595 0.0364987 0.0363088 0.0360897 0.0358416 0.0355644 0.035258 0.0349384 0.0346213 0.0343069 0.033995 0.0336857 0.033379 0.0330749 0.0327733 0.0324778 0.0321919 0.0319155 0.0316487 0.0313914 0.0311436 0.0309054 0.0306767 0.0304488 0.0302127 0.0299686 0.0297164 0.029456 0.0291876 0.028911 0.0286263 0.0283222 0.027987 0.027621 0.027224 0.026796 0.0263371 0.0258472 0.0253264 0.0247718 0.0241804 0.0235522 0.0228873 0.0221857 0.0214473 0.0206721 0.0198602 0.0190218 0.0181671 0.0172961 0.0164089 0.0155054 0.0145856 0.0136495 0.0126971 0.0117481 0.0108221 0.00991891 0.0090387 0.00818143 0.00734709 0.00653569 0.00574722 0.00499816 0.00430499 0.0036677 0.00308631 0.0025608 0.00209118 0.00167745 0.0013196 0.00101032 0.000742276 0.00051547 0.000329901 0.000185569 8.24751e-05 2.06188e-05 0 0 4.04272e-05 0.000161709 0.000363845 0.000646835 0.00101068 0.00145538 0.00198093 0.00258734 0.00328046 0.00406614 0.0049444 0.00591521 0.0069786 0.00813455 0.00938307 0.0107242 0.0121219 0.0135402 0.0149792 0.0164389 0.0179192 0.0194201 0.0209418 0.022484 0.0240114 0.0254881 0.0269143 0.02829 0.0296151 0.0308896 0.0321136 0.0332871 0.0343938 0.0354177 0.0363587 0.0372168 0.0379921 0.0386845 0.039294 0.0398207 0.0402704 0.0406489 0.0409563 0.0411925 0.0413575 0.0414514 0.0414742 0.0414258 0.0413254 0.0411921 0.0410259 0.0408268 0.0405948 0.0403299 0.0400322 0.0397015 0.0393552 0.0390106 0.0386676 0.0383263 0.0379866 0.0376486 0.0373123 0.0369776 0.0366484 0.0363286 0.0360183 0.0357173 0.0354258 0.0351436 0.0348709 0.0346076 0.0343442 0.0340712 0.0337888 0.0334968 0.0331952 0.0328841 0.0325635 0.0322333 0.0318813 0.0314952 0.0310749 0.0306205 0.0301319 0.0296092 0.0290523 0.0284613 0.0278331 0.0271647 0.0264559 0.0257069 0.0249176 0.024088 0.0232181 0.022308 0.0213688 0.0204117 0.0194368 0.0184439 0.0174333 0.0164047 0.0153582 0.0142939 0.0132332 0.0121975 0.0111869 0.0102012 0.00924066 0.00830512 0.00739462 0.00650915 0.00566719 0.0048872 0.00416918 0.00351314 0.00291907 0.00238697 0.00191684 0.00150868 0.00115508 0.000848633 0.000589329 0.00037717 0.000212158 9.42926e-05 2.35732e-05 0 0 4.56194e-05 0.000182478 0.000410575 0.000729911 0.00114049 0.0016423 0.00223535 0.00291964 0.00370045 0.00458307 0.00556749 0.00665371 0.00784173 0.00913156 0.0105232 0.0120166 0.0135719 0.0151492 0.0167484 0.0183695 0.0200126 0.0216777 0.0233647 0.0250736 0.0267657 0.0284022 0.029983 0.0315081 0.0329776 0.0343915 0.0357497 0.0370523 0.0382816 0.0394201 0.0404678 0.0414247 0.0422909 0.0430662 0.0437507 0.0443443 0.0448535 0.0452844 0.045637 0.0459114 0.0461075 0.0462254 0.046265 0.0462263 0.0461301 0.0459969 0.0458268 0.0456198 0.0453758 0.045095 0.0447772 0.0444225 0.0440496 0.0436772 0.0433053 0.042934 0.0425631 0.0421928 0.041823 0.0414537 0.0410892 0.0407337 0.0403874 0.0400502 0.0397221 0.039403 0.0390931 0.0387922 0.0384904 0.0381774 0.0378533 0.0375181 0.0371718 0.0368143 0.0364457 0.036066 0.0356621 0.0352206 0.0347417 0.0342254 0.0336716 0.0330803 0.0324516 0.0317854 0.0310786 0.0303279 0.0295333 0.0286948 0.0278124 0.0268861 0.025916 0.0249019 0.0238562 0.0227909 0.0217061 0.0206018 0.019478 0.0183346 0.0171718 0.0159894 0.0148108 0.0136595 0.0125353 0.0114383 0.0103685 0.00932584 0.0083104 0.00732214 0.00638164 0.00550948 0.00470567 0.0039702 0.00330307 0.00270428 0.00217384 0.00171173 0.00131055 0.00096285 0.000668646 0.000427933 0.000240713 0.000106983 2.67458e-05 0 0 5.11445e-05 0.000204578 0.0004603 0.000818311 0.00127861 0.0018412 0.00250608 0.00327325 0.00414727 0.00513271 0.00622958 0.00743786 0.00875757 0.0101887 0.0117313 0.0133852 0.0151065 0.016851 0.0186187 0.0204096 0.0222237 0.024061 0.0259215 0.0278052 0.02967 0.0314739 0.0332169 0.0348989 0.03651