<?xml version="1.0"?> 
<VTKFile type="StructuredGrid" version="0.1"> 
<StructuredGrid WholeExtent="0 128 0 128 0 0"> 
<Piece Extent="0 128 0 128 0 0"> 
<PointData>
<DataArray type="Float32" Name="u" format="ascii" NumberOfComponents="1"> 
0 0 0 0 0 0 0 0 0 0 0 0 0 0 0 0 0 0 0 0 0 0 0 0 0 0 0 0 0 0 0 0 0 0 0 0 0 0 0 0 0 0 0 0 0 0 0 0 0 0 0 0 0 0 0 0 0 0 0 0 0 0 0 0 0 0 0 0 0 0 0 0 0 0 0 0 0 0 0 0 0 0 0 0 0 0 0 0 0 0 0 0 0 0 0 0 0 0 0 0 0 0 0 0 0 0 0 0 0 0 0 0 0 0 0 0 0 0 0 0 0 0 0 0 0 0 0 0 0 0 4.84767e-07 1.93907e-06 4.3629e-06 7.75627e-06 1.21192e-05 1.74516e-05 2.37536e-05 3.10251e-05 3.94096e-05 4.90505e-05 5.99479e-05 7.21017e-05 8.5512e-05 0.000100179 0.000116102 0.000133282 0.000151259 0.000169574 0.000188228 0.00020722 0.00022655 0.000246219 0.000266226 0.000286572 0.000306809 0.000326493 0.000345622 0.000364198 0.000382219 0.000399687 0.0004166 0.00043296 0.000448533 0.000463088 0.000476625 0.000489143 0.000500644 0.000511126 0.00052059 0.000529036 0.000536429 0.000542734 0.000547952 0.000552082 0.000555124 0.000557079 0.000557946 0.000557725 0.000556524 0.000554448 0.000551498 0.000547673 0.000542975 0.000537402 0.000530955 0.000523634 0.000515615 0.000507076 0.000498017 0.000488438 0.000478338 0.000467719 0.000456579 0.000444919 0.000432919 0.000420762 0.000408447 0.000395973 0.000383342 0.000370552 0.000357605 0.000344499 0.000331375 0.000318373 0.000305492 0.000292734 0.000280096 0.000267581 0.000255187 0.000242915 0.000230846 0.000219061 0.000207559 0.000196342 0.000185408 0.000174759 0.000164393 0.000154311 0.000144541 0.000135113 0.000126026 0.000117281 0.000108876 0.000100813 9.30907e-05 8.57098e-05 7.86664e-05 7.19566e-05 6.55804e-05 5.95379e-05 5.38289e-05 4.84536e-05 4.34119e-05 3.87038e-05 3.43118e-05 3.02185e-05 2.64237e-05 2.29276e-05 1.97301e-05 1.68312e-05 1.42309e-05 1.19292e-05 9.88548e-06 8.05889e-06 6.44946e-06 5.05721e-06 3.88213e-06 2.92422e-06 2.18349e-06 1.65992e-06 1.27088e-06 9.33706e-07 6.48407e-07 4.1498e-07 2.33426e-07 1.03745e-07 2.59363e-08 0 0 1.93907e-06 7.75627e-06 1.74516e-05 3.10251e-05 4.84767e-05 6.98064e-05 9.50143e-05 0.0001241 0.000157638 0.000196202 0.000239792 0.000288407 0.000342048 0.000400715 0.000464408 0.000533126 0.000605034 0.000678296 0.000752911 0.000828879 0.000906201 0.000984876 0.0010649 0.00114629 0.00122724 0.00130597 0.00138249 0.00145679 0.00152888 0.00159875 0.0016664 0.00173184 0.00179413 0.00185235 0.0019065 0.00195657 0.00200258 0.0020445 0.00208236 0.00211614 0.00214571 0.00217094 0.00219181 0.00220833 0.0022205 0.00222831 0.00223178 0.0022309 0.00222609 0.00221779 0.00220599 0.00219069 0.0021719 0.00214961 0.00212382 0.00209453 0.00206246 0.0020283 0.00199207 0.00195375 0.00191335 0.00187087 0.00182631 0.00177967 0.00173168 0.00168305 0.00163379 0.00158389 0.00153337 0.00148221 0.00143042 0.001378 0.0013255 0.00127349 0.00122197 0.00117093 0.00112039 0.00107032 0.00102075 0.000971661 0.000923385 0.000876243 0.000830238 0.000785368 0.000741633 0.000699034 0.000657571 0.000617243 0.000578165 0.000540453 0.000504105 0.000469122 0.000435504 0.000403251 0.000372363 0.000342839 0.000314666 0.000287826 0.000262322 0.000238151 0.000215316 0.000193814 0.000173648 0.000154815 0.000137247 0.000120874 0.000105695 9.17103e-05 7.89203e-05 6.73247e-05 5.69236e-05 4.7717e-05 3.95419e-05 3.22355e-05 2.57979e-05 2.02289e-05 1.55285e-05 1.16969e-05 8.73395e-06 6.63969e-06 5.08351e-06 3.73482e-06 2.59363e-06 1.65992e-06 9.33706e-07 4.1498e-07 1.03745e-07 0 0 4.3629e-06 1.74516e-05 3.92661e-05 6.98064e-05 0.000109073 0.000157064 0.000213782 0.000279226 0.000354686 0.000441455 0.000539531 0.000648916 0.000769608 0.000901609 0.00104492 0.00119953 0.00136133 0.00152617 0.00169405 0.00186498 0.00203895 0.00221597 0.00239604 0.00257914 0.00276128 0.00293844 0.0031106 0.00327778 0.00343997 0.00359718 0.0037494 0.00389664 0.0040368 0.00416779 0.00428962 0.00440229 0.00450579 0.00460013 0.00468531 0.00476132 0.00482786 0.00488461 0.00493156 0.00496873 0.00499612 0.00501371 0.00502151 0.00501953 0.00500871 0.00499003 0.00496348 0.00492906 0.00488677 0.00483662 0.00477859 0.0047127 0.00464053 0.00456368 0.00448215 0.00439594 0.00430504 0.00420947 0.00410921 0.00400427 0.00389628 0.00378686 0.00367602 0.00356376 0.00345008 0.00333497 0.00321844 0.00310049 0.00298238 0.00286536 0.00274943 0.0026346 0.00252087 0.00240823 0.00229669 0.00218624 0.00207762 0.00197155 0.00186803 0.00176708 0.00166867 0.00157283 0.00147953 0.0013888 0.00130087 0.00121602 0.00113424 0.00105552 0.000979884 0.000907315 0.000837816 0.000771389 0.000707998 0.00064761 0.000590224 0.000535841 0.00048446 0.000436082 0.000390707 0.000348334 0.000308806 0.000271966 0.000237813 0.000206348 0.000177571 0.000151481 0.000128078 0.000107363 8.89693e-05 7.253e-05 5.80452e-05 4.55149e-05 3.49392e-05 2.6318e-05 1.96514e-05 1.49393e-05 1.14379e-05 8.40335e-06 5.83566e-06 3.73482e-06 2.10084e-06 9.33706e-07 2.33426e-07 0 0 7.75627e-06 3.10251e-05 6.98064e-05 0.0001241 0.000193907 0.000279226 0.000380057 0.000496401 0.000630553 0.000784808 0.000959166 0.00115363 0.00136819 0.00160286 0.00185763 0.0021325 0.00242014 0.00271318 0.00301164 0.00331552 0.0036248 0.0039395 0.00425962 0.00458515 0.00490895 0.00522389 0.00552996 0.00582717 0.00611551 0.00639499 0.0066656 0.00692735 0.00717653 0.00740941 0.007626 0.00782629 0.0080103 0.00817802 0.00832944 0.00846457 0.00858286 0.00868374 0.00876723 0.00883331 0.00888198 0.00891326 0.00892713 0.0089236 0.00890438 0.00887117 0.00882397 0.00876278 0.0086876 0.00859843 0.00849528 0.00837814 0.00824984 0.00811322 0.00796827 0.007815 0.00765341 0.0074835 0.00730526 0.0071187 0.00692671 0.00673219 0.00653515 0.00633557 0.00613347 0.00592884 0.00572167 0.00551198 0.005302 0.00509397 0.00488788 0.00468374 0.00448154 0.0042813 0.004083 0.00388665 0.00369354 0.00350497 0.00332095 0.00314147 0.00296653 0.00279614 0.00263028 0.00246897 0.00231266 0.00216181 0.00201642 0.00187649 0.00174202 0.001613 0.00148945 0.00137136 0.00125866 0.00115131 0.00104929 0.000952606 0.000861263 0.000775257 0.00069459 0.000619261 0.000548989 0.000483495 0.000422779 0.000366841 0.000315681 0.000269299 0.000227694 0.000190868 0.000158168 0.000128942 0.000103191 8.09154e-05 6.21141e-05 4.67876e-05 3.49358e-05 2.65587e-05 2.0334e-05 1.49393e-05 1.03745e-05 6.63969e-06 3.73482e-06 1.65992e-06 4.1498e-07 0 0 1.21192e-05 4.84767e-05 0.000109073 0.000193907 0.000302979 0.00043629 0.000593839 0.000775627 0.000985239 0.00122626 0.0014987 0.00180254 0.0021378 0.00250447 0.00290255 0.00333204 0.00378146 0.00423935 0.00470569 0.00518049 0.00566376 0.00615547 0.00665565 0.00716429 0.00767023 0.00816232 0.00864056 0.00910495 0.00955549 0.00999217 0.010415 0.010824 0.0112133 0.0115772 0.0119156 0.0122286 0.0125161 0.0127782 0.0130148 0.0132259 0.0134107 0.0135683 0.0136988 0.013802 0.0138781 0.013927 0.0139486 0.0139431 0.0139131 0.0138612 0.0137874 0.0136918 0.0135744 0.0134351 0.0132739 0.0130908 0.0128904 0.0126769 0.0124504 0.0122109 0.0119585 0.011693 0.0114145 0.011123 0.010823 0.0105191 0.0102112 0.00989933 0.00958355 0.00926381 0.00894012 0.00861247 0.00828438 0.00795932 0.00763731 0.00731834 0.00700241 0.00668953 0.00637968 0.00607288 0.00577115 0.00547652 0.00518899 0.00490855 0.00463521 0.00436896 0.00410982 0.00385777 0.00361353 0.00337783 0.00315066 0.00293201 0.0027219 0.00252032 0.00232727 0.00214275 0.00196666 0.00179892 0.00163951 0.00148845 0.00134572 0.00121134 0.0010853 0.000967595 0.000857795 0.000755461 0.000660593 0.00057319 0.000493252 0.00042078 0.000355773 0.000298231 0.000247137 0.000201472 0.000161237 0.00012643 9.70533e-05 7.31056e-05 5.45872e-05 4.1498e-05 3.17719e-05 2.33426e-05 1.62102e-05 1.03745e-05 5.83566e-06 2.59363e-06 6.48407e-07 0 0 1.74516e-05 6.98064e-05 0.000157064 0.000279226 0.00043629 0.000628258 0.000855129 0.0011169 0.00141874 0.00176582 0.00215812 0.00259566 0.00307843 0.00360644 0.00417967 0.00479814 0.00544531 0.00610466 0.0067762 0.00745991 0.00815581 0.00886388 0.00958414 0.0103166 0.0110451 0.0117537 0.0124424 0.0131111 0.0137599 0.0143887 0.0149976 0.0155865 0.0161472 0.0166712 0.0171585 0.0176092 0.0180232 0.0184005 0.0187412 0.0190453 0.0193114 0.0195384 0.0197263 0.0198749 0.0199845 0.0200548 0.020086 0.0200781 0.0200349 0.0199601 0.0198539 0.0197162 0.0195471 0.0193465 0.0191144 0.0188508 0.0185621 0.0182547 0.0179286 0.0175838 0.0172202 0.0168379 0.0164368 0.0160171 0.0155851 0.0151474 0.0147041 0.014255 0.0138003 0.0133399 0.0128738 0.012402 0.0119295 0.0114614 0.0109977 0.0105384 0.0100835 0.00963292 0.00918675 0.00874495 0.00831046 0.00788619 0.00747214 0.00706831 0.0066747 0.00629131 0.00591814 0.00555519 0.00520349 0.00486407 0.00453694 0.0042221 0.00391954 0.00362926 0.00335126 0.00308555 0.00283199 0.00259044 0.0023609 0.00214336 0.00193784 0.00174433 0.00156283 0.00139334 0.00123523 0.00108786 0.000951253 0.000825393 0.000710283 0.000605922 0.000512313 0.000429453 0.000355877 0.00029012 0.000232181 0.00018206 0.000139757 0.000105272 7.86056e-05 5.97572e-05 4.57516e-05 3.36134e-05 2.33426e-05 1.49393e-05 8.40335e-06 3.73482e-06 9.33706e-07 0 0 2.37536e-05 9.50143e-05 0.000213782 0.000380057 0.000593839 0.000855129 0.00116393 0.00152023 0.00193107 0.00240348 0.00293745 0.00353299 0.00419009 0.00490876 0.00568899 0.0065308 0.00741167 0.00830912 0.00922316 0.0101538 0.011101 0.0120647 0.0130451 0.014042 0.0150337 0.0159982 0.0169355 0.0178457 0.0187288 0.0195847 0.0204134 0.021215 0.0219781 0.0226913 0.0233546 0.023968 0.0245315 0.0250452 0.0255089 0.0259228 0.026285 0.026594 0.0268496 0.027052 0.0272011 0.0272969 0.0273393 0.0273285 0.0272697 0.0271679 0.0270234 0.026836 0.0266058 0.0263327 0.0260168 0.025658 0.0252651 0.0248467 0.0244028 0.0239334 0.0234386 0.0229182 0.0223724 0.021801 0.0212131 0.0206173 0.0200139 0.0194027 0.0187838 0.0181571 0.0175226 0.0168804 0.0162374 0.0156003 0.0149691 0.0143439 0.0137247 0.0131115 0.0125042 0.0119029 0.0113115 0.010734 0.0101704 0.00962075 0.009085 0.00856317 0.00805524 0.00756123 0.00708253 0.00662055 0.00617529 0.00574675 0.00533492 0.00493982 0.00456144 0.00419978 0.00385465 0.00352587 0.00321344 0.00291736 0.00263762 0.00237423 0.00212718 0.00189649 0.00168128 0.0014807 0.00129476 0.00112345 0.000966774 0.000824728 0.000697314 0.000584533 0.000484389 0.000394885 0.000316024 0.000247803 0.000190225 0.000143287 0.000106991 8.13362e-05 6.2273e-05 4.57516e-05 3.17719e-05 2.0334e-05 1.14379e-05 5.08351e-06 1.27088e-06 0 0 3.10251e-05 0.0001241 0.000279226 0.000496401 0.000775627 0.0011169 0.00152023 0.0019856 0.00252221 0.00313923 0.00383667 0.00461451 0.00547277 0.00641144 0.00743052 0.00853002 0.00968055 0.0108527 0.0120466 0.0132621 0.0144992 0.015758 0.0170385 0.0183406 0.0196358 0.0208955 0.0221198 0.0233087 0.024462 0.02558 0.0266624 0.0277094 0.0287061 0.0296376 0.030504 0.0313052 0.0320412 0.0327121 0.0333178 0.0338583 0.0343314 0.034735 0.0350689 0.0353332 0.0355279 0.035653 0.0357085 0.0356944 0.0356175 0.0354847 0.0352959 0.0350511 0.0347504 0.0343937 0.0339811 0.0335125 0.0329994 0.0324529 0.0318731 0.03126 0.0306137 0.029934 0.029221 0.0284748 0.0277068 0.0269288 0.0261406 0.0253423 0.0245339 0.0237153 0.0228867 0.0220479 0.021208 0.0203759 0.0195515 0.0187349 0.0179262 0.0171252 0.016332 0.0155466 0.0147742 0.0140199 0.0132838 0.0125659 0.0118661 0.0111845 0.0105211 0.00987589 0.00925065 0.00864724 0.00806568 0.00750595 0.00696807 0.00645202 0.0059578 0.00548543 0.00503465 0.00460522 0.00419715 0.00381042 0.00344505 0.00310103 0.00277836 0.00247704 0.00219596 0.00193398 0.00169112 0.00146737 0.00126272 0.0010772 0.000910778 0.000763472 0.000632671 0.000515769 0.000412766 0.000323662 0.000248457 0.00018715 0.000139743 0.000106235 8.13362e-05 5.97572e-05 4.1498e-05 2.65587e-05 1.49393e-05 6.63969e-06 1.65992e-06 0 0 3.94623e-05 0.000157849 0.000355161 0.000631397 0.000986557 0.00142064 0.00193365 0.00252559 0.0032077 0.00399124 0.0048762 0.0058626 0.00695042 0.00813967 0.00943035 0.0108225 0.0122789 0.0137625 0.0152733 0.0168113 0.0183764 0.0199688 0.0215883 0.0232351 0.024873 0.0264661 0.0280144 0.0295178 0.0309765 0.0323903 0.0337593 0.0350835 0.0363441 0.0375224 0.0386183 0.0396319 0.0405631 0.041412 0.0421785 0.0428627 0.0434617 0.0439727 0.0443957 0.0447307 0.0449777 0.0451367 0.0452077 0.0451907 0.0450944 0.0449272 0.0446892 0.0443805 0.0440009 0.0435506 0.0430295 0.0424376 0.0417893 0.0410987 0.040366 0.0395912 0.0387741 0.037915 0.0370136 0.0360701 0.035099 0.0341151 0.0331183 0.0321087 0.0310861 0.0300507 0.0290025 0.0279414 0.0268787 0.0258258 0.0247827 0.0237494 0.0227259 0.0217122 0.0207082 0.019714 0.0187363 0.0177814 0.0168495 0.0159405 0.0150545 0.0141914 0.0133513 0.0125341 0.0117422 0.0109779 0.0102411 0.00953205 0.00885056 0.00819667 0.0075704 0.00697173 0.00640037 0.00585601 0.00533865 0.0048483 0.00438494 0.0039486 0.00353925 0.00315691 0.00280015 0.00246756 0.00215912 0.00187485 0.00161475 0.0013788 0.00116702 0.000979403 0.000812671 0.000663549 0.000532037 0.000418135 0.000321843 0.000243161 0.00018209 0.000138628 0.000106137 7.79781e-05 5.41514e-05 3.46569e-05 1.94945e-05 8.66423e-06 2.16606e-06 0 0 4.92614e-05 0.000197046 0.000443353 0.000788183 0.00123154 0.00177341 0.00241381 0.00315273 0.00400305 0.00497763 0.00607649 0.00729961 0.008647 0.0101187 0.0117146 0.0134348 0.0152336 0.0170654 0.0189301 0.0208278 0.0227585 0.0247221 0.0267187 0.0287482 0.0307667 0.03273 0.0346381 0.036491 0.0382888 0.0400314 0.0417188 0.0433511 0.0449051 0.0463579 0.0477093 0.0489594 0.0501082 0.0511557 0.0521019 0.0529468 0.0536868 0.0543185 0.0548417 0.0552567 0.0555632 0.0557614 0.0558511 0.0558325 0.0557161 0.0555124 0.0552213 0.054843 0.0543773 0.0538244 0.0531842 0.0524566 0.0516593 0.0508099 0.0499084 0.0489547 0.0479488 0.0468908 0.0457807 0.0446185 0.0434221 0.0422097 0.0409812 0.0397366 0.038476 0.0371993 0.0359065 0.0345977 0.0332867 0.0319877 0.0307005 0.0294253 0.0281619 0.0269104 0.0256709 0.0244432 0.0232355 0.022056 0.0209047 0.0197815 0.0186866 0.0176198 0.0165812 0.0155708 0.0145914 0.0136461 0.0127347 0.0118574 0.011014 0.0102046 0.00942927 0.00868791 0.00798018 0.00730574 0.00666458 0.0060567 0.0054821 0.00494078 0.00443275 0.00395799 0.00351476 0.00310129 0.00271758 0.00236363 0.00203945 0.00174502 0.00148036 0.00124546 0.00103634 0.000849005 0.000683468 0.000539725 0.000417775 0.000317619 0.000239257 0.000182688 0.000139871 0.000102762 7.13626e-05 4.56721e-05 2.56905e-05 1.1418e-05 2.8545e-06 0 0 6.04225e-05 0.00024169 0.000543802 0.000966759 0.00151056 0.00217521 0.0029607 0.00386704 0.00490826 0.00609842 0.00743751 0.00892554 0.0105625 0.0123484 0.0142832 0.016367 0.0185447 0.0207614 0.023017 0.0253117 0.0276453 0.0300179 0.0324295 0.0348801 0.0373169 0.0396872 0.041991 0.0442282 0.046399 0.0485032 0.050541 0.0525122 0.0543891 0.056144 0.0577769 0.0592877 0.0606765 0.0619432 0.0630878 0.0641105 0.0650067 0.0657722 0.066407 0.066911 0.0672843 0.0675269 0.0676387 0.0676198 0.0674828 0.0672403 0.0668922 0.0664387 0.0658796 0.0652151 0.064445 0.0635695 0.0626095 0.0615864 0.0605 0.0593505 0.0581377 0.0568617 0.0555224 0.05412 0.0526761 0.0512125 0.0497292 0.0482261 0.0467034 0.0451609 0.0435987 0.0420168 0.0404321 0.0388615 0.037305 0.0357626 0.0342343 0.0327201 0.0312199 0.0297339 0.0282719 0.0268437 0.0254494 0.0240889 0.0227624 0.0214697 0.0202108 0.0189859 0.0177984 0.0166519 0.0155464 0.0144819 0.0134584 0.0124759 0.0115344 0.010634 0.00977411 0.00895443 0.00817494 0.00743563 0.00673651 0.00607759 0.00545884 0.00488029 0.00433978 0.00383518 0.00336649 0.00293371 0.00253683 0.00217586 0.0018508 0.00156164 0.00130366 0.00107214 0.000867059 0.000688431 0.000536253 0.000410524 0.000311246 0.000238417 0.000182538 0.000134109 9.31315e-05 5.96042e-05 3.35273e-05 1.4901e-05 3.72526e-06 0 0 7.29454e-05 0.000291782 0.000656509 0.00116713 0.00182363 0.00262603 0.00357432 0.0046685 0.00592334 0.0073536 0.00895928 0.0107404 0.0126969 0.0148289 0.0171362 0.019619 0.0222121 0.0248505 0.0275341 0.0302629 0.033037 0.0358563 0.0387208 0.0416306 0.0445236 0.0473377 0.050073 0.0527295 0.0553071 0.0578058 0.0602257 0.0625668 0.0647961 0.0668809 0.0688212 0.0706168 0.0722679 0.0737745 0.0751364 0.0763538 0.0774214 0.0783339 0.0790914 0.0796938 0.0801411 0.0804333 0.0805705 0.0805525 0.0803944 0.0801109 0.0797019 0.0791676 0.0785078 0.0777227 0.0768121 0.0757762 0.0746399 0.0734282 0.0721411 0.0707786 0.0693407 0.0678274 0.0662387 0.0645747 0.062861 0.0611236 0.0593623 0.0575772 0.0557684 0.0539357 0.0520792 0.0501989 0.0483149 0.0464473 0.0445961 0.0427614 0.040943 0.039141 0.0373555 0.0355863 0.0338453 0.0321444 0.0304835 0.0288627 0.0272818 0.025741 0.0242402 0.0227795 0.0213631 0.0199953 0.0186761 0.0174056 0.0161837 0.0150105 0.0138859 0.0128099 0.0117821 0.0108021 0.00986972 0.0089851 0.00814819 0.00735901 0.00661755 0.0059238 0.00527522 0.00466924 0.00410586 0.00358507 0.00310689 0.00267131 0.00227833 0.00192795 0.00161466 0.00133294 0.00108281 0.000864254 0.000677276 0.000521876 0.000398055 0.000305813 0.000234138 0.00017202 0.000119458 7.64532e-05 4.30049e-05 1.91133e-05 4.77833e-06 0 0 8.68302e-05 0.000347321 0.000781472 0.00138928 0.00217076 0.00312589 0.00425468 0.00555713 0.00704829 0.00874317 0.0106418 0.0127442 0.0150502 0.0175601 0.0202736 0.0231909 0.026236 0.0293328 0.0324813 0.0356815 0.0389335 0.0422372 0.0455927 0.0489998 0.0523868 0.0556816 0.0588842 0.0619947 0.065013 0.0679391 0.0707731 0.0735149 0.0761261 0.0785685 0.0808421 0.0829468 0.0848826 0.0866495 0.0882476 0.0896769 0.090931 0.0920037 0.092895 0.0936049 0.0941335 0.0944806 0.0946464 0.0946307 0.0944509 0.0941241 0.0936504 0.0930296 0.0922619 0.0913472 0.0902855 0.0890769 0.0877504 0.0863353 0.0848315 0.083239 0.0815579 0.0797881 0.0779296 0.0759825 0.0739769 0.0719429 0.0698806 0.0677899 0.0656709 0.0635236 0.0613479 0.0591439 0.0569351 0.0547451 0.0525739 0.0504216 0.048288 0.0461733 0.0440774 0.0420003 0.039956 0.0379583 0.0360072 0.0341028 0.032245 0.0304339 0.0286694 0.0269515 0.0252855 0.0236763 0.022124 0.0206285 0.01919 0.0178084 0.0164836 0.0152158 0.0140043 0.0128487 0.0117489 0.0107051 0.00971713 0.00878505 0.00790885 0.00708853 0.00632107 0.00560345 0.00493567 0.00431773 0.00374964 0.00323138 0.00276296 0.00234438 0.00196932 0.00163143 0.00133072 0.00106719 0.000840844 0.000651675 0.000499686 0.000384877 0.000294672 0.000216493 0.000150343 9.62193e-05 5.41233e-05 2.40548e-05 6.0137e-06 0 0 0.000102077 0.000408308 0.000918693 0.00163323 0.00255192 0.00367477 0.00500177 0.00653293 0.00828309 0.0102671 0.0124851 0.0149368 0.0176225 0.020542 0.0236955 0.0270827 0.0306162 0.0342081 0.0378586 0.0415674 0.0453348 0.0491606 0.0530449 0.0569877 0.0609065 0.0647188 0.0684246 0.072024 0.0755168 0.0789032 0.082183 0.0853564 0.0883791 0.0912068 0.0938396 0.0962775 0.0985204 0.100568 0.102421 0.10408 0.105535 0.106781 0.107818 0.108645 0.109262 0.109669 0.109866 0.109854 0.109652 0.10928 0.108738 0.108025 0.107142 0.106089 0.104865 0.103471 0.101941 0.100308 0.0985712 0.0967317 0.0947892 0.0927437 0.0905951 0.0883434 0.0860236 0.0836705 0.081284 0.0788642 0.0764111 0.0739246 0.0714048 0.0688517 0.0662926 0.0637548 0.0612383 0.0587432 0.0562694 0.0538169 0.0513858 0.048976 0.0466037 0.0442852 0.0420204 0.0398093 0.0376519 0.0355482 0.0334983 0.0315021 0.0295656 0.0276949 0.0258899 0.0241507 0.0224773 0.0208696 0.0193276 0.0178515 0.0164405 0.0150942 0.0138126 0.0125956 0.0114433 0.0103557 0.00933276 0.00837447 0.00747733 0.00663782 0.00585594 0.00513169 0.00446506 0.00385606 0.00330469 0.00281094 0.00236764 0.00196759 0.00161079 0.00129725 0.00102696 0.000799921 0.000616138 0.000475609 0.000364138 0.00026753 0.000185785 0.000118902 6.68825e-05 2.97256e-05 7.43139e-06 0 0 0.000118686 0.000474742 0.00106817 0.00189897 0.00296714 0.00427268 0.0058156 0.00759588 0.00962777 0.0119255 0.0144891 0.0173185 0.0204137 0.0237748 0.0274017 0.0312944 0.0353528 0.0394767 0.043666 0.0479207 0.0522409 0.0566266 0.0610777 0.0655943 0.0700827 0.0744494 0.0786942 0.0828172 0.0868185 0.0906979 0.0944556 0.0980915 0.101555 0.104796 0.107814 0.110609 0.113181 0.115531 0.117658 0.119562 0.121235 0.122667 0.12386 0.124813 0.125525 0.125998 0.126231 0.126224 0.125999 0.125579 0.124964 0.124153 0.123148 0.121947 0.120551 0.11896 0.117212 0.115345 0.11336 0.111257 0.109035 0.106694 0.104235 0.101658 0.0990013 0.0963063 0.0935726 0.0908 0.0879888 0.0851387 0.0822499 0.0793224 0.0763874 0.0734764 0.0705893 0.0677262 0.0648871 0.0620719 0.0592806 0.0565133 0.0537886 0.0511252 0.048523 0.0459821 0.0435024 0.041084 0.0387269 0.036431 0.0342034 0.0320511 0.0299739 0.0279721 0.0260455 0.0241941 0.0224179 0.0207171 0.0190908 0.0175387 0.0160606 0.0146567 0.0133268 0.012071 0.0108893 0.00978163 0.00874401 0.00777236 0.00686666 0.00602693 0.00525316 0.00454536 0.00390351 0.00332763 0.00280963 0.00234142 0.00192302 0.00155442 0.00123562 0.000966614 0.000747411 0.000578009 0.000442538 0.00032513 0.000225785 0.000144502 8.12825e-05 3.61256e-05 9.03139e-06 0 0 0.000136656 0.000546625 0.00122991 0.0021865 0.0034164 0.00491962 0.00669615 0.00874599 0.0110823 0.0137182 0.0166538 0.019889 0.0234238 0.0272582 0.0313923 0.035826 0.0404458 0.0451383 0.0499035 0.0547414 0.0596519 0.0646351 0.069691 0.0748196 0.0799154 0.0848732 0.0896929 0.0943745 0.098918 0.103323 0.107591 0.11172 0.115654 0.119336 0.122765 0.125941 0.128866 0.131538 0.133957 0.136124 0.138029 0.139661 0.141021 0.142109 0.142925 0.143468 0.143739 0.143738 0.14349 0.14302 0.142328 0.141415 0.140279 0.138922 0.137343 0.135542 0.133563 0.131448 0.129199 0.126814 0.124294 0.12164 0.11885 0.115925 0.11291 0.10985 0.106746 0.103597 0.100404 0.097166 0.0938833 0.090556 0.0872196 0.08391 0.080627 0.0773707 0.0741411 0.0709381 0.0677619 0.0646123 0.0615106 0.0584782 0.0555151 0.0526213 0.0497967 0.0470414 0.0443553 0.0417385 0.039199 0.0367449 0.0343761 0.0320927 0.0298946 0.0277819 0.0257545 0.0238125 0.0219553 0.0201822 0.0184931 0.0168883 0.0153675 0.0139309 0.0125784 0.01131 0.0101211 0.00900705 0.00796784 0.00700347 0.00611395 0.00529927 0.00455943 0.00389444 0.00329528 0.00275293 0.00226741 0.00183871 0.00146682 0.00115175 0.000893506 0.000692077 0.000529871 0.000389293 0.000270343 0.000173019 9.73233e-05 4.32548e-05 1.08137e-05 0 0 0.000155621 0.000622483 0.00140059 0.00248993 0.00389052 0.00560235 0.00762541 0.00995972 0.012617 0.0156089 0.0189355 0.0225967 0.0265926 0.0309231 0.0355883 0.0405882 0.0457953 0.0510824 0.0564495 0.0618965 0.0674234 0.0730303 0.0787171 0.0844839 0.0902132 0.0957873 0.101206 0.10647 0.111579 0.116533 0.121331 0.125975 0.130399 0.13454 0.138398 0.141973 0.145264 0.148273 0.150997 0.153439 0.155586 0.157428 0.158963 0.160193 0.161117 0.161735 0.162047 0.162053 0.161782 0.161261 0.160491 0.159471 0.158201 0.156682 0.154913 0.152894 0.150675 0.148303 0.145778 0.143102 0.140272 0.137291 0.134157 0.13087 0.127482 0.124043 0.120553 0.117012 0.11342 0.109778 0.106084 0.10234 0.0985849 0.0948594 0.0911632 0.0874965 0.0838591 0.0802513 0.0766728 0.0731237 0.0696282 0.0662101 0.0628697 0.0596067 0.0564213 0.0533135 0.0502832 0.0473304 0.0444644 0.0416942 0.0390199 0.0364414 0.0339588 0.0315721 0.0292813 0.0270863 0.0249866 0.0229814 0.0210708 0.0192548 0.0175333 0.0159065 0.0143742 0.0129365 0.0115881 0.0103238 0.00914362 0.00804751 0.00703549 0.00610756 0.00526371 0.00450396 0.00381835 0.00319693 0.00263971 0.00214669 0.00171786 0.00135323 0.00105279 0.000816557 0.000625176 0.000459313 0.000318967 0.000204139 0.000114828 5.10348e-05 1.27587e-05 0 0 0.000175211 0.000700845 0.0015769 0.00280338 0.00438028 0.00630761 0.00858535 0.0112135 0.0142021 0.017561 0.0212902 0.0253898 0.0298598 0.0347001 0.0399108 0.0454918 0.0513015 0.0571983 0.0631822 0.0692532 0.0754112 0.0816563 0.0879885 0.0944078 0.100784 0.106988 0.11302 0.118879 0.124565 0.130079 0.13542 0.140589 0.145514 0.150125 0.154421 0.158402 0.162069 0.165421 0.168458 0.171181 0.173577 0.175632 0.177348 0.178723 0.179758 0.180454 0.180809 0.180824 0.18053 0.179959 0.179109 0.177982 0.176576 0.174893 0.172931 0.170692 0.168229 0.165595 0.162791 0.159817 0.156672 0.153358 0.149873 0.146218 0.142449 0.138623 0.13474 0.130799 0.1268 0.122745 0.118632 0.114462 0.110279 0.106128 0.10201 0.0979233 0.0938689 0.0898467 0.0858566 0.0818986 0.0779996 0.0741866 0.0704595 0.0668183 0.063263 0.0597937 0.0564103 0.0531128 0.0499116 0.0468169 0.0438288 0.0409473 0.0381723 0.0355039 0.0329421 0.0304868 0.0281374 0.0258932 0.0237543 0.0217206 0.0197921 0.0179688 0.0162508 0.014638 0.0131245 0.0117046 0.0103782 0.00914526 0.00800586 0.00695998 0.00600762 0.00514877 0.00437258 0.00366821 0.00303566 0.00247493 0.00198602 0.00156893 0.00122365 0.000950193 0.000727491 0.000534483 0.000371169 0.000237548 0.000133621 5.9387e-05 1.48468e-05 0 0 0.000195428 0.000781711 0.00175885 0.00312685 0.0048857 0.0070354 0.00957597 0.0125074 0.0158376 0.0195745 0.0237181 0.0282684 0.0332255 0.0385892 0.0443597 0.0505369 0.0569644 0.063486 0.0701017 0.0768115 0.0836153 0.0905132 0.0975051 0.104591 0.111629 0.118476 0.125133 0.1316 0.137876 0.143962 0.149858 0.155563 0.160999 0.166089 0.170832 0.175229 0.179279 0.182983 0.18634 0.18935 0.192 0.194274 0.196174 0.197699 0.19885 0.199625 0.200025 0.200051 0.199735 0.199113 0.198184 0.196948 0.195405 0.193556 0.191399 0.188935 0.186224 0.183325 0.180236 0.17696 0.173495 0.169841 0.165999 0.161969 0.157812 0.153592 0.149307 0.144958 0.140545 0.136068 0.131527 0.126922 0.122302 0.117717 0.113167 0.108651 0.10417 0.0997245 0.0953133 0.0909369 0.086625 0.0824076 0.0782846 0.074256 0.0703218 0.066482 0.0627367 0.0590857 0.0555407 0.0521131 0.048803 0.0456103 0.042535 0.0395772 0.0367369 0.0340139 0.0314078 0.0289177 0.0265436 0.0242857 0.0221438 0.0201179 0.0182082 0.0164145 0.0147303 0.0131493 0.0116715 0.0102967 0.00902507 0.00785655 0.00679115 0.00582886 0.00495798 0.00416679 0.00345527 0.00282345 0.0022713 0.00179885 0.00140607 0.00109298 0.000836817 0.000614804 0.000426947 0.000273246 0.000153701 6.83116e-05 1.70779e-05 0 0 0.000216271 0.000865082 0.00194643 0.00346033 0.00540676 0.00778574 0.0105973 0.0138413 0.0175235 0.0216494 0.0262191 0.0312325 0.0366896 0.0425904 0.048935 0.0557233 0.062784 0.0699455 0.077208 0.0845714 0.0920357 0.0996009 0.107267 0.115034 0.122747 0.130252 0.137547 0.144634 0.151513 0.158182 0.164643 0.170895 0.176854 0.182433 0.187633 0.192454 0.196895 0.200958 0.204642 0.207946 0.210855 0.213355 0.215444 0.217122 0.21839 0.219248 0.219696 0.219733 0.219397 0.218724 0.217715 0.21637 0.214688 0.21267 0.210315 0.207624 0.204662 0.201492 0.198115 0.194531 0.190739 0.186741 0.182535 0.178123 0.173571 0.168948 0.164254 0.159489 0.154653 0.149747 0.144769 0.13972 0.134654 0.129625 0.124634 0.11968 0.114764 0.109885 0.105043 0.100239 0.0955044 0.0908732 0.086345 0.0819198 0.0775976 0.0733785 0.0692623 0.0652491 0.0613517 0.0575827 0.0539423 0.0504304 0.047047 0.0437921 0.0406657 0.0376678 0.0347977 0.0320547 0.0294389 0.0269501 0.0245884 0.0223538 0.0202463 0.0182659 0.0164056 0.0146581 0.0130235 0.0115019 0.0100931 0.00879725 0.0076143 0.00654425 0.00557455 0.00469265 0.00389854 0.00319223 0.00257371 0.00204299 0.00160006 0.00124493 0.000953152 0.000700275 0.000486302 0.000311233 0.000175069 7.78083e-05 1.94521e-05 0 0 0.000237739 0.000950957 0.00213965 0.00380383 0.00594348 0.00855861 0.0116492 0.0152153 0.0192598 0.0237858 0.0287932 0.034282 0.0402522 0.0467038 0.0536368 0.0610513 0.0687602 0.0765768 0.084501 0.0925329 0.100672 0.108919 0.117274 0.125736 0.134139 0.142314 0.150261 0.157981 0.165474 0.172739 0.179777 0.186587 0.193078 0.199156 0.204822 0.210076 0.214917 0.219347 0.223364 0.226968 0.230144 0.232873 0.235155 0.236991 0.238381 0.239324 0.239821 0.239871 0.239515 0.238792 0.237703 0.236247 0.234425 0.232236 0.229681 0.226759 0.223541 0.220097 0.216426 0.212529 0.208406 0.204057 0.199481 0.194679 0.189725 0.184693 0.179582 0.174393 0.169126 0.163781 0.158357 0.152855 0.147334 0.141853 0.136412 0.13101 0.125649 0.120327 0.115045 0.109804 0.104638 0.0995833 0.0946407 0.0898098 0.0850905 0.080483 0.0759871 0.0716029 0.0673445 0.0632258 0.0592468 0.0554077 0.0517082 0.0481485 0.0447286 0.0414484 0.0383072 0.0353044 0.0324399 0.0297138 0.0271259 0.0246764 0.0223653 0.0201924 0.0181502 0.0162309 0.0144344 0.0127607 0.01121 0.00978209 0.00847707 0.00729493 0.00622229 0.0052458 0.00436547 0.00358128 0.00289324 0.00230136 0.00180562 0.00140604 0.0010765 0.000790896 0.000549234 0.000351509 0.000197724 8.78774e-05 2.19693e-05 0 0 0.000259834 0.00103934 0.00233851 0.00415734 0.00649585 0.00935402 0.0127319 0.0166294 0.0210466 0.0259836 0.0314403 0.0374169 0.0439132 0.0509292 0.058465 0.0665206 0.0748932 0.0833799 0.0919809 0.100696 0.109525 0.118469 0.127526 0.136698 0.145804 0.154663 0.163275 0.171641 0.17976 0.187633 0.195259 0.202639 0.209672 0.216259 0.2224 0.228096 0.233345 0.238149 0.242506 0.246418 0.249865 0.252829 0.255309 0.257307 0.258821 0.259852 0.2604 0.260465 0.260089 0.259317 0.258147 0.25658 0.254615 0.252254 0.249495 0.24634 0.242862 0.239139 0.23517 0.230956 0.226495 0.221789 0.216837 0.211639 0.206275 0.200826 0.195291 0.18967 0.183963 0.178171 0.172293 0.166329 0.160343 0.1544 0.1485 0.142641 0.136825 0.131052 0.125321 0.119632 0.114025 0.108538 0.103172 0.0979258 0.0928005 0.0877956 0.0829112 0.0781473 0.0735192 0.0690423 0.0647166 0.060542 0.0565187 0.0526465 0.0489255 0.0453556 0.0419363 0.0386667 0.0355468 0.0325768 0.0297564 0.0270858 0.024565 0.022194 0.0199643 0.0178676 0.0159039 0.0140733 0.0123757 0.0108111 0.00937947 0.00808089 0.00690119 0.00582624 0.00485605 0.0039906 0.0032299 0.00257395 0.00202275 0.0015763 0.00120685 0.000886668 0.000615742 0.000394075 0.000221667 9.85187e-05 2.46297e-05 0 0 0.000282555 0.00113022 0.00254299 0.00452088 0.00706387 0.010172 0.0138452 0.0180835 0.0228838 0.0282428 0.0341606 0.0406372 0.0476726 0.0552668 0.0634197 0.0721314 0.0811828 0.0903549 0.0996475 0.109061 0.118595 0.128249 0.138024 0.14792 0.157742 0.167299 0.17659 0.185614 0.194372 0.202864 0.21109 0.219049 0.226636 0.233742 0.240368 0.246513 0.252179 0.257364 0.262069 0.266294 0.270018 