<?xml version="1.0"?> 
<VTKFile type="StructuredGrid" version="0.1"> 
<StructuredGrid WholeExtent="0 128 0 128 0 0"> 
<Piece Extent="0 128 0 128 0 0"> 
<PointData>
<DataArray type="Float32" Name="u" format="ascii" NumberOfComponents="1"> 
0 0 0 0 0 0 0 0 0 0 0 0 0 0 0 0 0 0 0 0 0 0 0 0 0 0 0 0 0 0 0 0 0 0 0 0 0 0 0 0 0 0 0 0 0 0 0 0 0 0 0 0 0 0 0 0 0 0 0 0 0 0 0 0 0 0 0 0 0 0 0 0 0 0 0 0 0 0 0 0 0 0 0 0 0 0 0 0 0 0 0 0 0 0 0 0 0 0 0 0 0 0 0 0 0 0 0 0 0 0 0 0 0 0 0 0 0 0 0 0 0 0 0 0 0 0 0 0 0 0 1.56801e-07 6.27203e-07 1.41121e-06 2.50881e-06 3.92002e-06 5.64483e-06 7.68324e-06 1.00353e-05 1.27479e-05 1.58683e-05 1.93964e-05 2.33321e-05 2.76756e-05 3.24268e-05 3.75857e-05 4.31523e-05 4.89744e-05 5.49e-05 6.0929e-05 6.70613e-05 7.32971e-05 7.96363e-05 8.60789e-05 9.26249e-05 9.91336e-05 0.000105464 0.000111617 0.000117592 0.000123388 0.000129007 0.000134448 0.00013971 0.000144733 0.000149455 0.000153876 0.000157996 0.000161815 0.000165332 0.000168549 0.000171464 0.000174082 0.000176403 0.00017843 0.000180161 0.000181596 0.000182736 0.000183581 0.00018413 0.000184422 0.000184493 0.000184345 0.000183977 0.000183389 0.000182581 0.000181553 0.000180305 0.000178882 0.000177326 0.000175638 0.000173818 0.000171867 0.000169783 0.000167568 0.00016522 0.000162772 0.000160256 0.000157672 0.000155019 0.000152297 0.000149508 0.000146649 0.000143723 0.000140743 0.000137726 0.000134671 0.000131579 0.000128448 0.00012528 0.000122075 0.000118832 0.000115557 0.000112257 0.000108932 0.000105582 0.000102207 9.88065e-05 9.5381e-05 9.19303e-05 8.84639e-05 8.49909e-05 8.15114e-05 7.80254e-05 7.45328e-05 7.10338e-05 6.75283e-05 6.40162e-05 6.05206e-05 5.70645e-05 5.36477e-05 5.02704e-05 4.69324e-05 4.36339e-05 4.03748e-05 3.71551e-05 3.40148e-05 3.09938e-05 2.80922e-05 2.53099e-05 2.26469e-05 2.01033e-05 1.76791e-05 1.53742e-05 1.32193e-05 1.12452e-05 9.45191e-06 7.83934e-06 6.40753e-06 5.15647e-06 4.08617e-06 3.19663e-06 2.44742e-06 1.79811e-06 1.24869e-06 7.99159e-07 4.49527e-07 1.9979e-07 4.99474e-08 0 0 6.27203e-07 2.50881e-06 5.64483e-06 1.00353e-05 1.56801e-05 2.25793e-05 3.0733e-05 4.0141e-05 5.09917e-05 6.34732e-05 7.75854e-05 9.33286e-05 0.000110702 0.000129707 0.000150343 0.000172609 0.000195898 0.0002196 0.000243716 0.000268245 0.000293189 0.000318545 0.000344316 0.0003705 0.000396535 0.000421857 0.000446468 0.000470367 0.000493553 0.000516028 0.00053779 0.000558841 0.000578933 0.000597821 0.000615504 0.000631984 0.000647258 0.000661329 0.000674195 0.000685857 0.000696326 0.000705613 0.000713719 0.000720643 0.000726385 0.000730945 0.000734324 0.000736521 0.000737687 0.000737974 0.000737381 0.000735908 0.000733556 0.000730324 0.000726212 0.000721221 0.000715526 0.000709303 0.000702552 0.000695274 0.000687467 0.000679133 0.00067027 0.00066088 0.000651089 0.000641025 0.000630687 0.000620075 0.000609189 0.00059803 0.000586598 0.000574892 0.000562973 0.000550904 0.000538684 0.000526314 0.000513793 0.000501121 0.000488299 0.000475326 0.000462228 0.000449028 0.000435729 0.000422328 0.000408828 0.000395226 0.000381524 0.000367721 0.000353855 0.000339963 0.000326045 0.000312101 0.000298131 0.000284135 0.000270113 0.000256065 0.000242083 0.000228258 0.000214591 0.000201081 0.00018773 0.000174536 0.000161499 0.00014862 0.000136059 0.000123975 0.000112369 0.000101239 9.05877e-05 8.04133e-05 7.07164e-05 6.14967e-05 5.28773e-05 4.4981e-05 3.78077e-05 3.13574e-05 2.56301e-05 2.06259e-05 1.63447e-05 1.27865e-05 9.78969e-06 7.19243e-06 4.99474e-06 3.19663e-06 1.79811e-06 7.99159e-07 1.9979e-07 0 0 1.41121e-06 5.64483e-06 1.27009e-05 2.25793e-05 3.52802e-05 5.08035e-05 6.91492e-05 9.03173e-05 0.000114731 0.000142815 0.000174567 0.000209989 0.000249081 0.000291841 0.000338271 0.000388371 0.00044077 0.0004941 0.000548361 0.000603552 0.000659674 0.000716727 0.00077471 0.000833624 0.000892203 0.000949179 0.00100455 0.00105833 0.00111049 0.00116106 0.00121003 0.00125739 0.0013026 0.0013451 0.00138488 0.00142196 0.00145633 0.00148799 0.00151694 0.00154318 0.00156673 0.00158763 0.00160587 0.00162145 0.00163437 0.00164463 0.00165223 0.00165717 0.0016598 0.00166044 0.00165911 0.00165579 0.0016505 0.00164323 0.00163398 0.00162275 0.00160993 0.00159593 0.00158074 0.00156437 0.0015468 0.00152805 0.00150811 0.00148698 0.00146495 0.00144231 0.00141904 0.00139517 0.00137068 0.00134557 0.00131984 0.00129351 0.00126669 0.00123953 0.00121204 0.00118421 0.00115603 0.00112752 0.00109867 0.00106948 0.00104001 0.00101031 0.00098039 0.000950239 0.000919862 0.000889259 0.000858429 0.000827373 0.000796175 0.000764918 0.000733602 0.000702228 0.000670796 0.000639304 0.000607754 0.000576146 0.000544686 0.00051358 0.000482829 0.000452433 0.000422392 0.000392705 0.000363373 0.000334396 0.000306133 0.000278944 0.000252829 0.000227789 0.000203822 0.00018093 0.000159112 0.000138368 0.000118974 0.000101207 8.50672e-05 7.05541e-05 5.76677e-05 4.64082e-05 3.67756e-05 2.87697e-05 2.20268e-05 1.6183e-05 1.12382e-05 7.19243e-06 4.04574e-06 1.79811e-06 4.49527e-07 0 0 2.50881e-06 1.00353e-05 2.25793e-05 4.0141e-05 6.27203e-05 9.03173e-05 0.000122932 0.000160564 0.000203967 0.000253893 0.000310342 0.000373314 0.00044281 0.000518829 0.000601371 0.000690437 0.000783591 0.0008784 0.000974863 0.00107298 0.00117275 0.00127418 0.00137726 0.001482 0.00158614 0.00168743 0.00178587 0.00188147 0.00197421 0.00206411 0.00215116 0.00223536 0.00231573 0.00239128 0.00246202 0.00252793 0.00258903 0.00264532 0.00269678 0.00274343 0.0027853 0.00282245 0.00285488 0.00288257 0.00290554 0.00292378 0.0029373 0.00294608 0.00295075 0.0029519 0.00294952 0.00294363 0.00293422 0.0029213 0.00290485 0.00288488 0.0028621 0.00283721 0.00281021 0.00278109 0.00274987 0.00271653 0.00268108 0.00264352 0.00260436 0.0025641 0.00252275 0.0024803 0.00243676 0.00239212 0.00234639 0.00229957 0.00225189 0.00220362 0.00215474 0.00210526 0.00205517 0.00200449 0.0019532 0.0019013 0.00184891 0.00179611 0.00174291 0.00168931 0.00163531 0.0015809 0.0015261 0.00147089 0.00141542 0.00135985 0.00130418 0.00124841 0.00119253 0.00113654 0.00108045 0.00102426 0.00096833 0.000913032 0.000858363 0.000804326 0.000750919 0.000698142 0.000645997 0.000594481 0.000544236 0.000495901 0.000449474 0.000404958 0.000362351 0.000321653 0.000282865 0.000245987 0.000211509 0.000179924 0.000151231 0.000125429 0.00010252 8.25035e-05 6.53788e-05 5.11462e-05 3.91588e-05 2.87697e-05 1.9979e-05 1.27865e-05 7.19243e-06 3.19663e-06 7.99159e-07 0 0 3.92002e-06 1.56801e-05 3.52802e-05 6.27203e-05 9.80005e-05 0.000141121 0.000192081 0.000250881 0.000318698 0.000396707 0.000484909 0.000583303 0.000691891 0.00081067 0.000939642 0.00107881 0.00122436 0.0013725 0.00152322 0.00167653 0.00183243 0.00199091 0.00215197 0.00231562 0.00247834 0.00263661 0.00279043 0.00293979 0.00308471 0.00322517 0.00336119 0.00349275 0.00361833 0.00373638 0.0038469 0.0039499 0.00404537 0.00413331 0.00421372 0.00428661 0.00435204 0.00441008 0.00446074 0.00450402 0.0045399 0.00456841 0.00458952 0.00460326 0.00461055 0.00461234 0.00460863 0.00459943 0.00458473 0.00456453 0.00453883 0.00450763 0.00447204 0.00443314 0.00439095 0.00434546 0.00429667 0.00424458 0.00418919 0.0041305 0.00406931 0.0040064 0.00394179 0.00387547 0.00380743 0.00373769 0.00366624 0.00359307 0.00351858 0.00344315 0.00336678 0.00328946 0.00321121 0.00313201 0.00305187 0.00297079 0.00288892 0.00280643 0.0027233 0.00263955 0.00255517 0.00247016 0.00238453 0.00229826 0.0022116 0.00212477 0.00203778 0.00195063 0.00186332 0.00177585 0.00168821 0.00160041 0.00151302 0.00142661 0.00134119 0.00125676 0.00117331 0.00109085 0.00100937 0.000928877 0.000850369 0.000774845 0.000702304 0.000632747 0.000566173 0.000502583 0.000441977 0.000384355 0.000330483 0.000281131 0.000236298 0.000195984 0.000160188 0.000128912 0.000102154 7.99159e-05 6.11856e-05 4.49527e-05 3.12171e-05 1.9979e-05 1.12382e-05 4.99474e-06 1.24869e-06 0 0 5.64483e-06 2.25793e-05 5.08035e-05 9.03173e-05 0.000141121 0.000203214 0.000276597 0.000361269 0.000458925 0.000571258 0.000698269 0.000839957 0.000996322 0.00116736 0.00135309 0.00155348 0.00176308 0.0019764 0.00219344 0.00241421 0.0026387 0.00286691 0.00309884 0.0033345 0.00356881 0.00379672 0.00401821 0.0042333 0.00444198 0.00464425 0.00484011 0.00502957 0.0052104 0.00538039 0.00553954 0.00568785 0.00582533 0.00595196 0.00606776 0.00617271 0.00626693 0.00635052 0.00642347 0.00648578 0.00653746 0.00657851 0.00660892 0.00662869 0.00663919 0.00664177 0.00663643 0.00662318 0.006602 0.00657292 0.00653591 0.00649099 0.00643974 0.00638373 0.00632297 0.00625746 0.0061872 0.00611219 0.00603243 0.00594792 0.0058598 0.00576922 0.00567618 0.00558067 0.0054827 0.00538227 0.00527938 0.00517402 0.00506676 0.00495814 0.00484816 0.00473683 0.00462414 0.00451009 0.00439469 0.00427794 0.00416005 0.00404126 0.00392156 0.00380096 0.00367945 0.00355703 0.00343372 0.00330949 0.0031847 0.00305967 0.00293441 0.00280891 0.00268318 0.00255722 0.00243102 0.00230458 0.00217874 0.00205432 0.00193132 0.00180973 0.00168957 0.00157082 0.00145349 0.00133758 0.00122453 0.00111578 0.00101132 0.000911155 0.000815289 0.00072372 0.000636447 0.000553471 0.000475896 0.000404829 0.000340269 0.000282216 0.000230671 0.000185633 0.000147102 0.000115079 8.81072e-05 6.47319e-05 4.49527e-05 2.87697e-05 1.6183e-05 7.19243e-06 1.79811e-06 0 0 7.68324e-06 3.0733e-05 6.91492e-05 0.000122932 0.000192081 0.000276597 0.000376479 0.000491727 0.000624648 0.000777546 0.000950422 0.00114327 0.00135611 0.00158891 0.0018417 0.00211446 0.00239975 0.0026901 0.00298552 0.00328601 0.00359156 0.00390218 0.00421787 0.00453862 0.00485755 0.00516775 0.00546923 0.00576199 0.00604603 0.00632134 0.00658793 0.0068458 0.00709193 0.0073233 0.00753993 0.0077418 0.00792892 0.00810128 0.00825889 0.00840175 0.00852999 0.00864376 0.00874305 0.00882787 0.00889821 0.00895408 0.00899547 0.00902238 0.00903667 0.00904018 0.00903292 0.00901488 0.00898606 0.00894647 0.0088961 0.00883496 0.0087652 0.00868896 0.00860627 0.0085171 0.00842147 0.00831938 0.00821081 0.00809578 0.00797584 0.00785255 0.00772591 0.00759592 0.00746257 0.00732587 0.00718582 0.00704242 0.00689642 0.00674857 0.00659888 0.00644735 0.00629396 0.00613874 0.00598166 0.00582275 0.00566229 0.0055006 0.00533768 0.00517352 0.00500814 0.00484152 0.00467367 0.00450459 0.00433473 0.00416455 0.00399406 0.00382324 0.00365211 0.00348066 0.00330889 0.0031368 0.00296551 0.00279616 0.00262874 0.00246325 0.00229969 0.00213806 0.00197836 0.0018206 0.00166672 0.0015187 0.00137652 0.00124018 0.0011097 0.000985064 0.000866275 0.000753335 0.000647748 0.000551017 0.000463144 0.000384128 0.000313969 0.000252667 0.000200222 0.000156635 0.000119924 8.81072e-05 6.11856e-05 3.91588e-05 2.20268e-05 9.78969e-06 2.44742e-06 0 0 1.00353e-05 4.0141e-05 9.03173e-05 0.000160564 0.000250881 0.000361269 0.000491727 0.000642256 0.000815867 0.00101557 0.00124137 0.00149326 0.00177124 0.00207532 0.00240548 0.00276175 0.00313436 0.0035136 0.00389945 0.00429193 0.00469102 0.00509672 0.00550905 0.005928 0.00634455 0.00674972 0.00714349 0.00752587 0.00789685 0.00825645 0.00860464 0.00894145 0.00926293 0.00956513 0.00984807 0.0101117 0.0103561 0.0105813 0.0107871 0.0109737 0.0111412 0.0112898 0.0114195 0.0115303 0.0116222 0.0116951 0.0117492 0.0117843 0.011803 0.0118076 0.0117981 0.0117745 0.0117369 0.0116852 0.0116194 0.0115395 0.0114484 0.0113489 0.0112408 0.0111244 0.0109995 0.0108661 0.0107243 0.0105741 0.0104174 0.0102564 0.010091 0.0099212 0.00974703 0.00956849 0.00938556 0.00919826 0.00900757 0.00881447 0.00861895 0.00842102 0.00822069 0.00801794 0.00781279 0.00760522 0.00739564 0.00718446 0.00697166 0.00675725 0.00654124 0.00632362 0.00610438 0.00588354 0.00566169 0.00543942 0.00521673 0.00499362 0.0047701 0.00454616 0.00432181 0.00409704 0.00387332 0.00365213 0.00343345 0.0032173 0.00300367 0.00279257 0.00258399 0.00237793 0.00217694 0.0019836 0.0017979 0.00161983 0.0014494 0.00128661 0.00113146 0.000983948 0.000846038 0.000719696 0.000604922 0.000501718 0.000410082 0.000330014 0.000261515 0.000204585 0.000156635 0.000115079 7.99159e-05 5.11462e-05 2.87697e-05 1.27865e-05 3.19663e-06 0 0 1.27781e-05 5.11123e-05 0.000115003 0.000204449 0.000319452 0.000460011 0.000626126 0.000817797 0.00103871 0.00129255 0.00157932 0.00189901 0.00225164 0.00263718 0.00305566 0.00350707 0.00397909 0.00445942 0.00494807 0.00544502 0.00595029 0.00646386 0.00698575 0.00751594 0.0080431 0.00855585 0.00905421 0.00953816 0.0100077 0.0104629 0.0109036 0.01133 0.011737 0.0121196 0.0124779 0.0128119 0.0131214 0.0134067 0.0136675 0.0139041 0.0141164 0.0143049 0.0144695 0.0146101 0.0147268 0.0148196 0.0148885 0.0149335 0.0149576 0.0149638 0.0149523 0.0149229 0.0148756 0.0148106 0.0147277 0.014627 0.014512 0.0143863 0.0142498 0.0141027 0.0139448 0.0137762 0.0135968 0.0134068 0.0132086 0.0130048 0.0127954 0.0125805 0.0123599 0.0121339 0.0119022 0.0116649 0.0114234 0.0111787 0.010931 0.0106802 0.0104264 0.0101694 0.00990941 0.00964632 0.00938068 0.009113 0.00884328 0.00857151 0.00829771 0.00802186 0.00774397 0.00746403 0.00718282 0.00690109 0.00661884 0.00633607 0.00605277 0.00576896 0.00548463 0.00519978 0.00491626 0.00463594 0.00435882 0.00408488 0.00381415 0.00354661 0.00328226 0.00302111 0.00276638 0.00252128 0.00228583 0.00206002 0.00184385 0.00163732 0.00144044 0.00125319 0.00107808 0.00091759 0.000771724 0.000640481 0.000523862 0.000421867 0.000334495 0.000261746 0.0002004 0.000147232 0.000102245 6.54366e-05 3.68081e-05 1.63591e-05 4.08979e-06 0 0 1.59889e-05 6.39558e-05 0.0001439 0.000255823 0.000399723 0.000575602 0.000783458 0.00102329 0.00129931 0.00161571 0.00197249 0.00236965 0.0028072 0.00328513 0.00380345 0.00436215 0.00494608 0.00554009 0.00614418 0.00675834 0.00738259 0.00801691 0.00866131 0.00931579 0.00996645 0.0105994 0.0112146 0.0118121 0.0123919 0.012954 0.0134983 0.014025 0.0145278 0.0150006 0.0154435 0.0158564 0.0162393 0.0165922 0.0169152 0.0172082 0.0174715 0.0177053 0.0179096 0.0180844 0.0182297 0.0183456 0.0184319 0.0184887 0.0185198 0.0185288 0.0185157 0.0184806 0.0184234 0.0183442 0.0182429 0.0181196 0.0179785 0.0178241 0.0176564 0.0174754 0.017281 0.0170732 0.0168522 0.0166178 0.0163732 0.0161217 0.0158632 0.0155977 0.0153252 0.0150457 0.0147593 0.0144658 0.014167 0.0138643 0.0135577 0.0132473 0.012933 0.0126149 0.0122929 0.011967 0.011638 0.0113064 0.0109723 0.0106357 0.0102965 0.00995477 0.00961052 0.00926374 0.00891539 0.00856641 0.0082168 0.00786658 0.00751574 0.00716427 0.00681218 0.00645947 0.00610842 0.00576132 0.00541817 0.00507898 0.00474373 0.00441244 0.00408509 0.0037617 0.0034462 0.00314252 0.00285068 0.00257068 0.0023025 0.00204615 0.00180164 0.00156895 0.00135119 0.00115142 0.000969666 0.000805912 0.000660163 0.000532417 0.000422676 0.000330939 0.000253375 0.000186153 0.000129273 8.27348e-05 4.65383e-05 2.06837e-05 5.17093e-06 0 0 1.96678e-05 7.86713e-05 0.00017701 0.000314685 0.000491696 0.000708042 0.000963723 0.00125874 0.00159766 0.00198503 0.00242087 0.00290518 0.00343794 0.00401916 0.00464885 0.005327 0.00603534 0.0067556 0.00748779 0.00823189 0.00898792 0.00975587 0.0105357 0.0113275 0.0121146 0.0128803 0.0136247 0.0143477 0.0150494 0.0157297 0.0163887 0.0170263 0.0176352 0.018208 0.0187447 0.0192452 0.0197097 0.020138 0.0205302 0.0208862 0.0212064 0.021491 0.02174 0.0219532 0.0221309 0.0222729 0.0223793 0.0224501 0.0224896 0.0225024 0.0224885 0.0224477 0.0223803 0.022286 0.022165 0.0220172 0.021848 0.0216624 0.0214606 0.0212424 0.021008 0.0207573 0.0204904 0.0202071 0.0199114 0.0196072 0.0192943 0.0189728 0.0186427 0.0183041 0.0179568 0.0176009 0.0172384 0.0168711 0.016499 0.0161222 0.0157406 0.0153543 0.0149632 0.0145673 0.0141676 0.0137647 0.0133587 0.0129497 0.0125376 0.0121223 0.011704 0.0112827 0.0108594 0.0104354 0.0100106 0.00958517 0.00915899 0.00873209 0.00830446 0.00787611 0.00744979 0.00702827 0.00661153 0.00619958 0.00579243 0.00539006 0.00499248 0.00459969 0.00421641 0.00384733 0.00349246 0.00315179 0.00282534 0.00251309 0.00221506 0.00193123 0.00166536 0.0014212 0.00119875 0.000998011 0.000818983 0.000661666 0.00052606 0.000412164 0.000315563 0.000231842 0.000161001 0.000103041 5.79605e-05 2.57602e-05 6.44006e-06 0 0 2.38147e-05 9.52589e-05 0.000214333 0.000381036 0.000595368 0.000857331 0.00116692 0.00152414 0.00193376 0.00240054 0.00292448 0.00350558 0.00414385 0.00483927 0.00559186 0.00640161 0.00724687 0.00810596 0.00897889 0.00986567 0.0107663 0.0116807 0.012609 0.0135512 0.0144876 0.0153987 0.0162845 0.017145 0.0179802 0.0187902 0.0195748 0.0203341 0.0210594 0.0217419 0.0223816 0.0229785 0.0235326 0.0240439 0.0245124 0.0249381 0.0253212 0.025662 0.0259605 0.0262166 0.0264303 0.0266018 0.0267308 0.0268176 0.0268671 0.0268848 0.0268705 0.0268243 0.0267461 0.026636 0.026494 0.0263201 0.0261204 0.0259011 0.0256623 0.0254039 0.025126 0.0248285 0.0245114 0.0241748 0.0238232 0.0234612 0.0230887 0.0227059 0.0223126 0.0219089 0.0214948 0.0210703 0.0206376 0.0201992 0.019755 0.019305 0.0188493 0.0183877 0.0179204 0.0174473 0.0169694 0.0164878 0.0160026 0.0155136 0.015021 0.0145246 0.0140245 0.0135208 0.0130148 0.012508 0.0120003 0.0114918 0.0109825 0.0104724 0.00996147 0.00944971 0.00894039 0.00843678 0.00793888 0.0074467 0.00696023 0.00647947 0.00600443 0.0055351 0.00507701 0.00463569 0.00421115 0.00380338 0.00341238 0.00303815 0.0026807 0.00234002 0.00202059 0.00172691 0.00145897 0.00121678 0.00100032 0.000809613 0.000644645 0.000505419 0.000386961 0.000284298 0.000197429 0.000126355 7.10745e-05 3.15887e-05 7.89717e-06 0 0 2.84297e-05 0.000113719 0.000255867 0.000454875 0.000710742 0.00102347 0.00139305 0.0018195 0.00230762 0.00286222 0.0034833 0.00417087 0.00492493 0.00574546 0.00663249 0.00758599 0.00858066 0.00959116 0.0106175 0.0116597 0.0127177 0.0137915 0.0148812 0.0159867 0.0170854 0.0181544 0.019194 0.020204 0.0211844 0.0221352 0.0230565 0.0239483 0.0248003 0.0256022 0.0263542 0.0270561 0.027708 0.0283099 0.0288619 0.0293638 0.0298158 0.0302183 0.0305712 0.0308744 0.031128 0.031332 0.0314864 0.0315911 0.0316523 0.0316759 0.0316618 0.0316102 0.0315211 0.0313943 0.0312299 0.031028 0.0307957 0.0305402 0.0302616 0.0299598 0.0296348 0.0292866 0.0289153 0.0285208 0.0281085 0.0276837 0.0272465 0.0267969 0.0263348 0.0258603 0.0253733 0.0248738 0.0243647 0.0238486 0.0233257 0.0227957 0.0222589 0.0217151 0.0211644 0.0206068 0.0200435 0.0194758 0.0189038 0.0183274 0.0177466 0.0171615 0.016572 0.0159782 0.0153816 0.0147842 0.0141858 0.0135866 0.0129864 0.0123853 0.0117832 0.0111803 0.0105802 0.00998685 0.00940023 0.00882033 0.00824714 0.00768068 0.00712093 0.0065679 0.006028 0.00550761 0.00500676 0.00452542 0.00406361 0.00362132 0.00319856 0.00279532 0.00241689 0.00206857 0.00175034 0.00146221 0.00120419 0.000976259 0.000778432 0.000610706 0.000467571 0.000343522 0.000238557 0.000152676 8.58805e-05 3.81691e-05 9.54227e-06 0 0 3.35127e-05 0.000134051 0.000301614 0.000536202 0.000837816 0.00120646 0.00164212 0.00214481 0.00271923 0.00337007 0.00409734 0.00490105 0.00578118 0.00673774 0.00777072 0.00888014 0.0100367 0.0112112 0.0124036 0.0136139 0.0148421 0.0160882 0.0173522 0.0186341 0.0199079 0.0211476 0.0223531 0.0235246 0.0246618 0.025765 0.026834 0.0278689 0.0288578 0.029789 0.0306624 0.0314781 0.032236 0.0329362 0.0335786 0.0341633 0.0346903 0.0351599 0.0355721 0.0359267 0.0362239 0.0364637 0.036646 0.0367708 0.0368451 0.0368756 0.0368625 0.0368056 0.036705 0.0365607 0.0363728 0.0361411 0.035874 0.0355798 0.0352584 0.03491 0.0345345 0.0341318 0.033702 0.0332451 0.0327673 0.0322749 0.0317677 0.0312459 0.0307093 0.0301581 0.0295922 0.0290116 0.0284196 0.0278193 0.0272109 0.0265943 0.0259695 0.0253365 0.0246953 0.0240459 0.0233898 0.0227287 0.0220624 0.0213911 0.0207147 0.0200331 0.0193465 0.0186547 0.0179599 0.0172641 0.0165672 0.0158694 0.0151705 0.0144706 0.0137697 0.0130678 0.0123692 0.0116785 0.0109956 0.0103205 0.00965317 0.00899367 0.00834199 0.00769812 0.00706938 0.0064631 0.00587928 0.00531793 0.00477904 0.00426261 0.00376865 0.00329714 0.00285426 0.00244616 0.00207285 0.00173431 0.00143057 0.0011616 0.000927421 0.000728023 0.000557393 0.000409513 0.000284384 0.000182006 0.000102378 4.55015e-05 1.13754e-05 0 0 3.90637e-05 0.000156255 0.000351573 0.000625018 0.000976591 0.00140629 0.00191412 0.00250007 0.00316859 0.0039241 0.0047666 0.0056961 0.0067126 0.00781609 0.00900657 0.010284 0.011615 0.0129661 0.0143372 0.0157284 0.0171396 0.0185708 0.0200221 0.0214935 0.0229553 0.0243782 0.025762 0.0271068 0.0284126 0.0296794 0.0309071 0.0320958 0.033232 0.0343022 0.0353063 0.0362445 0.0371165 0.0379226 0.0386626 0.0393366 0.0399446 0.0404868 0.0409631 0.0413736 0.0417181 0.0419968 0.0422097 0.0423566 0.0424455 0.0424841 0.0424724 0.0424103 0.042298 0.0421354 0.0419225 0.0416593 0.0413552 0.0410197 0.0406529 0.0402546 0.039825 0.039364 0.0388716 0.0383478 0.0377997 0.0372345 0.0366522 0.0360527 0.0354362 0.0348024 0.0341516 0.0334836 0.0328022 0.0321113 0.0314108 0.0307007 0.0299811 0.0292518 0.028513 0.0277646 0.0270085 0.0262464 0.0254785 0.0247047 0.023925 0.0231394 0.0223479 0.0215505 0.0207496 0.0199476 0.0191445 0.0183403 0.0175349 0.0167285 0.0159209 0.0151122 0.0143075 0.0135117 0.0127249 0.0119471 0.0111783 0.0104185 0.00966761 0.00892573 0.00820115 0.00750214 0.00682873 0.00618091 0.00555867 0.00496202 0.00439095 0.00384548 0.00333269 0.0028597 0.00242649 0.00203308 0.00167947 0.00136564 0.00109161 0.000857372 0.000656426 0.000482272 0.000334911 0.000214343 0.000120568 5.35858e-05 1.33964e-05 0 0 4.50827e-05 0.000180331 0.000405744 0.000721323 0.00112707 0.00162298 0.00220905 0.00288529 0.00365571 0.0045243 0.00549108 0.00655605 0.00771919 0.00898052 0.01034 0.0117977 0.0133156 0.0148558 0.0164183 0.018003 0.01961 0.0212393 0.0228909 0.0245647 0.0262275 0.0278462 0.0294206 0.0309507 0.0324367 0.0338784 0.0352759 0.0366292 0.037923 0.0391419 0.040286 0.0413552 0.0423496 0.0432692 0.0441139 0.0448838 0.0455788 0.046199 0.0467444 0.0472149 0.0476106 0.0479314 0.0481774 0.0483485 0.0484536 0.0485012 0.0484916 0.0484245 0.0483001 0.0481183 0.0478791 0.0475826 0.0472393 0.0468601 0.0464449 0.0459937 0.0455065 0.0449832 0.044424 0.0438288 0.0432056 0.0425627 0.0419 0.0412176 0.0405153 0.0397933 0.0390514 0.0382898 0.0375127 0.0367246 0.0359254 0.0351151 0.0342936 0.0334612 0.0326176 0.0317629 0.0308993 0.030029 0.029152 0.0282681 0.0273776 0.0264803 0.0255763 0.0246655 0.0237507 0.0228348 0.0219176 0.0209992 0.0200796 0.0191588 0.0182368 0.0173136 0.0163949 0.0154865 0.0145883 0.0137003 0.0128225 0.011955 0.0110978 0.0102508 0.0094233 0.00862475 0.0078551 0.00711434 0.00640249 0.00571954 0.00506548 0.00444033 0.00385218 0.00330917 0.00281128 0.00235852 0.00195089 0.00158838 0.001271 0.000998753 0.00076467 0.000561798 0.000390138 0.000249688 0.00014045 6.2422e-05 1.56055e-05 0 0 5.14603e-05 0.000205841 0.000463143 0.000823365 0.00128651 0.00185257 0.00252156 0.00329346 0.00417173 0.00515982 0.00625772 0.00746544 0.00878297 0.0102103 0.0117475 0.0133944 0.0151086 0.0168472 0.0186104 0.020398 0.0222102 0.0240469 0.0259081 0.0277938 0.0296669 0.0314904 0.0332642 0.0349883 0.0366628 0.0382877 0.0398629 0.0413884 0.0428472 0.0442219 0.0455126 0.0467193 0.047842 0.0488806 0.0498353 0.050706 0.0514925 0.0521949 0.052813 0.0533469 0.0537966 0.0541622 0.0544435 0.0546406 0.0547632 0.054821 0.054814 0.0547423 0.0546058 0.0544045 0.0541384 0.0538076 0.0534239 0.0529994 0.052534 0.0520277 0.0514805 0.0508925 0.0502636 0.0495939 0.0488924 0.0481683 0.0474216 0.0466522 0.0458603 0.0450458 0.0442086 0.0433488 0.0424714 0.0415813 0.0406785 0.039763 0.0388348 0.0378939 0.0369403 0.0359741 0.0349976 0.0340135 0.0330218 0.0320224 0.0310154 0.0300007 0.0289784 0.0279485 0.0269141 0.0258784 0.0248413 0.023803 0.0227634 0.0217225 0.0206802 0.0196367 0.0185983 0.0175714 0.0165561 0.0155523 0.0145601 0.0135794 0.0126103 0.0116527 0.010717 0.00981374 0.00894275 0.0081041 0.00729778 0.00652378 0.00578212 0.00507279 0.00440497 0.00378787 0.00322146 0.00270577 0.00224078 0.0018265 0.00146293 0.00115006 0.000880514 0.000646908 0.000449242 0.000287515 0.000161727 7.18787e-05 1.79697e-05 0 0 5.80872e-05 0.000232349 0.000522784 0.000929394 0.00145218 0.00209114 0.00284627 0.00371758 0.00470783 0.00581979 0.00705346 0.00840884 0.00988594 0.0114847 0.0132053 0.0150475 0.0169639 0.018907 0.0208769 0.0228734 0.0248967 0.0269466 0.0290233 0.0311266 0.0332157 0.0352496 0.0372282 0.0391516 0.0410198 0.0428328 0.0445905 0.046293 0.0479212 0.0494561 0.0508975 0.0522456 0.0535004 0.0546617 0.0557298 0.0567044 0.0575854 0.0583727 0.0590662 0.0596659 0.0601718 0.0605839 0.0609022 0.0611267 0.0612681 0.0613372 0.0613338 0.061258 0.0611099 0.0608893 0.0605963 0.0602309 0.0598064 0.0593359 0.0588195 0.0582572 0.057649 0.0569949 0.0562949 0.0555489 0.0547672 0.0539599 0.0531271 0.0522686 0.0513847 0.0504751 0.04954 0.0485793 0.0475987 0.0466036 0.0455942 0.0445704 0.0435322 0.0424796 0.0414126 0.0403313 0.0392384 0.038137 0.037027 0.0359084 0.0347813 0.0336455 0.0325012 0.0313483 0.0301905 0.0290312 0.0278705 0.0267084 0.0255449 0.02438 0.0232138 0.0220461 0.0208841 0.0197351 0.0185989 0.0174756 0.0163651 0.0152676 0.0141829 0.013111 0.0120636 0.0110519 0.0100761 0.00913602 0.00823179 0.00736337 0.00653076 0.00573396 0.00498328 0.00428906 0.00365129 0.00306997 0.0025451 0.00207668 0.00166471 0.00130918 0.00100234 0.000736416 0.0005114 0.000327296 0.000184104 8.1824e-05 2.0456e-05 0 0 6.49632e-05 0.000259853 0.000584669 0.00103941 0.00162408 0.00233867 0.0031832 0.00415764 0.00526399 0.00650421 0.0078783 0.00938626 0.0110281 0.0128038 0.0147134 0.0167568 0.0188817 0.0210353 0.0232178 0.0254292 0.0276695 0.0299385 0.0322365 0.0345633 0.036874 0.0391238 0.0413127 0.0434406 0.0455076 0.0475136 0.0494587 0.0513429 0.0531451 0.0548444 0.0564408 0.0579343 0.0593249 0.0606125 0.0617972 0.062879 0.0638576 0.0647325 0.0655039 0.0661717 0.0667359 0.0671965 0.0675536 0.067807 0.0679685 0.0680498 0.0680509 0.0679717 0.0678122 0.0675726 0.0672527 0.0668525 0.0663867 0.0658697 0.0653016 0.0646824 0.0640119 0.0632904 0.0625177 0.0616938 0.06083 0.0599376 0.0590165 0.0580668 0.0570884 0.0560814 0.0550456 0.0539813 0.0528945 0.0517915 0.0506724 0.0495372 0.0483857 0.0472182 0.0460344 0.0448345 0.0436218 0.0423995 0.0411676 0.0399262 0.0386752 0.0374147 0.0361446 0.034865 0.0335798 0.0322932 0.031005 0.0297154 0.0284242 0.0271316 0.0258374 0.0245418 0.0232525 0.0219775 0.0207166 0.01947 0.0182376 0.0170195 0.0158155 0.0146258 0.0134629 0.0123393 0.011255 0.0102101 0.00920454 0.0082383 0.00731139 0.00642383 0.00558712 0.00481276 0.00410076 0.00345112 0.00286384 0.00233891 0.00187634 0.00147613 0.00113016 0.000830323 0.000576613 0.000369032 0.000207581 9.22581e-05 2.30645e-05 0 0 7.20884e-05 0.000288354 0.000648796 0.00115341 0.00180221 0.00259518 0.00353233 0.00461366 0.00584022 0.00721308 0.00873224 0.0103977 0.0122095 0.0141675 0.0162719 0.0185225 0.0208618 0.023232 0.0256333 0.0280654 0.0305285 0.0330226 0.0355477 0.0381037 0.0406418 0.0431131 0.0455176 0.0478553 0.0501262 0.0523303 0.0544676 0.0565381 0.0585189 0.060387 0.0621424 0.0637852 0.0653154 0.0667329 0.0680377 0.0692299 0.0703089 0.0712744 0.0721262 0.0728645 0.0734891 0.0740001 0.0743976 0.0746814 0.0748643 0.0749589 0.0749652 0.0748832 0.074713 0.0744544 0.0741076 0.0736725 0.073165 0.0726009 0.0719802 0.071303 0.0705693 0.0697789 0.0689321 0.0680286 0.067081 0.0661014 0.06509 0.0640467 0.0629715 0.0618644 0.0607255 0.0595546 0.0583589 0.057145 0.0559132 0.0546634 0.0533955 0.0521096 0.0508057 0.0494838 0.0481476 0.0468009 0.0454435 0.0440756 0.0426972 0.0413082 0.0399086 0.0384984 0.0370822 0.0356644 0.034245 0.0328239 0.0314013 0.0299771 0.0285513 0.0271239 0.0257034 0.0242986 0.0229094 0.0215357 0.0201777 0.0188352 0.0175083 0.016197 0.014915 0.0136759 0.0124797 0.0113264 0.010216 0.00914856 0.00812403 0.00714242 0.00621647 0.00535896 0.00456988 0.00384922 0.003197 0.0026132 0.00209783 0.0016509 0.00126397 0.000928629 0.000644881 0.000412724 0.000232157 0.000103181 2.57952e-05 0 0 7.94628e-05 0.000317851 0.000715165 0.0012714 0.00198657 0.00286066 0.00389368 0.00508562 0.00643652 0.00794641 0.00961529 0.0114432 0.01343 0.0155759 0.0178807 0.0203445 0.0229044 0.0254972 0.0281231 0.030782 0.033474 0.0361989 0.0389569 0.0417479 0.0445191 0.0472174 0.0498429 0.0523957 0.0548756 0.0572827 0.0596171 0.0618786 0.0640425 0.0660837 0.0680024 0.0697985 0.071472 0.0730229 0.0744512 0.075757 0.0769395 0.0779982 0.0789331 0.0797441 0.0804313 0.0809947 0.0814342 0.0817499 0.0819554 0.0820644 0.0820768 0.0819927 0.081812 0.0815348 0.081161 0.0806907 0.0801411 0.0795293 0.0788553 0.0781192 0.077321 0.0764606 0.075538 0.0745534 0.07352 0.0724513 0.0713475 0.0702084 0.069034 0.0678244 0.0665796 0.0652995 0.0639918 0.0626641 0.0613165 0.059949 0.0585615 0.057154 0.0557266 0.0542792 0.052816 0.0513413 0.0498549 0.0483569 0.0468472 0.045326 0.0437932 0.0422487 0.0406976 0.0391448 0.0375903 0.0360341 0.0344762 0.0329166 0.0313553 0.0297923 0.0282369 0.0266985 0.0251771 0.0236726 0.0221852 0.0207147 0.0192612 0.0178246 0.0164199 0.0150616 0.0137499 0.0124848 0.0112662 0.0100942 0.00896867 0.00788971 0.00687135 0.00592766 0.00505864 0.00426428 0.00354458 0.00289955 0.00232918 0.00183348 0.00140376 0.00103133 0.000716204 0.00045837 0.000257833 0.000114593 2.86481e-05 0 0 8.70864e-05 0.000348346 0.000783778 0.00139338 0.00217716 0.00313511 0.00426723 0.00557353 0.00705288 0.00870419 0.0105274 0.0125226 0.0146898 0.0170288 0.0195399 0.0222228 0.0250093 0.0278308 0.0306874 0.033579 0.0365057 0.0394674 0.0424641 0.0454959 0.0485058 0.0514367 0.0542887 0.0570617 0.0597558 0.062371 0.0649072 0.0673645 0.0697159 0.0719346 0.0740207 0.075974 0.0777946 0.0794826 0.0810378 0.0824603 0.0837493 0.0849041 0.0859245 0.0868107 0.0875626 0.0881802 0.0886635 0.0890126 0.089242 0.0893664 0.0893857 0.0893001 0.0891094 0.0888137 0.088413 0.0879073 0.0873151 0.086655 0.0859269 0.085131 0.0842671 0.0833353 0.0823356 0.081268 0.080147 0.0789874 0.0777889 0.0765518 0.0752759 0.0739612 0.0726079 0.0712158 0.0697933 0.0683489 0.0668824 0.065394 0.0638836 0.0623513 0.0607969 0.0592206 0.0