<?xml version="1.0"?> 
<VTKFile type="StructuredGrid" version="0.1"> 
<StructuredGrid WholeExtent="0 128 0 128 0 0"> 
<Piece Extent="0 128 0 128 0 0"> 
<PointData>
<DataArray type="Float32" Name="u" format="ascii" NumberOfComponents="1"> 
0 0 0 0 0 0 0 0 0 0 0 0 0 0 0 0 0 0 0 0 0 0 0 0 0 0 0 0 0 0 0 0 0 0 0 0 0 0 0 0 0 0 0 0 0 0 0 0 0 0 0 0 0 0 0 0 0 0 0 0 0 0 0 0 0 0 0 0 0 0 0 0 0 0 0 0 0 0 0 0 0 0 0 0 0 0 0 0 0 0 0 0 0 0 0 0 0 0 0 0 0 0 0 0 0 0 0 0 0 0 0 0 0 0 0 0 0 0 0 0 0 0 0 0 0 0 0 0 0 0 2.21636e-07 8.86544e-07 1.99472e-06 3.54618e-06 5.5409e-06 7.9789e-06 1.08602e-05 1.41847e-05 1.80168e-05 2.24206e-05 2.73961e-05 3.29434e-05 3.90624e-05 4.57532e-05 5.30158e-05 6.08501e-05 6.90486e-05 7.7404e-05 8.59163e-05 9.45854e-05 0.000103411 0.000112394 0.000121534 0.00013083 0.000140088 0.000149112 0.000157903 0.00016646 0.000174783 0.000182872 0.000190727 0.000198349 0.000205641 0.000212508 0.00021895 0.000224967 0.000230558 0.000235724 0.000240465 0.00024478 0.000248659 0.000252089 0.000255071 0.000257605 0.000259691 0.000261328 0.000262516 0.000263257 0.000263591 0.000263561 0.000263168 0.00026241 0.000261288 0.000259803 0.000257953 0.000255739 0.000253226 0.000250476 0.00024749 0.000244269 0.000240811 0.000237118 0.000233188 0.000229023 0.000224683 0.000220229 0.000215662 0.000210982 0.000206188 0.000201281 0.00019626 0.000191126 0.000185924 0.000180701 0.000175456 0.00017019 0.000164902 0.000159592 0.000154261 0.000148908 0.000143563 0.000138255 0.000132986 0.000127753 0.000122559 0.000117401 0.000112282 0.0001072 0.000102175 9.72277e-05 9.23574e-05 8.75642e-05 8.28482e-05 7.82094e-05 7.36477e-05 6.91632e-05 6.4775e-05 6.05025e-05 5.63456e-05 5.23043e-05 4.83785e-05 4.45684e-05 4.08739e-05 3.7295e-05 3.38564e-05 3.0583e-05 2.74747e-05 2.45315e-05 2.17534e-05 1.91404e-05 1.66926e-05 1.44099e-05 1.23034e-05 1.03843e-05 8.65254e-06 7.10819e-06 5.75122e-06 4.58163e-06 3.59942e-06 2.80458e-06 2.14726e-06 1.57758e-06 1.09554e-06 7.01145e-07 3.94394e-07 1.75286e-07 4.38216e-08 0 0 8.86544e-07 3.54618e-06 7.9789e-06 1.41847e-05 2.21636e-05 3.19156e-05 4.34407e-05 5.67388e-05 7.2067e-05 8.96822e-05 0.000109584 0.000131774 0.00015625 0.000183013 0.000212063 0.0002434 0.000276195 0.000309616 0.000343665 0.000378342 0.000413645 0.000449576 0.000486135 0.00052332 0.000560352 0.000596449 0.000631611 0.000665838 0.00069913 0.000731487 0.000762909 0.000793397 0.000822566 0.000850034 0.000875801 0.000899867 0.000922232 0.000942896 0.000961859 0.000979121 0.000994636 0.00100836 0.00102029 0.00103042 0.00103876 0.00104531 0.00105007 0.00105303 0.00105436 0.00105425 0.00105267 0.00104964 0.00104515 0.00103921 0.00103181 0.00102296 0.0010129 0.0010019 0.000989961 0.000977075 0.000963245 0.000948471 0.000932753 0.000916092 0.000898731 0.000880917 0.000862649 0.000843928 0.000824753 0.000805123 0.000785041 0.000764504 0.000743697 0.000722804 0.000701825 0.000680759 0.000659606 0.000638368 0.000617042 0.000595631 0.000574251 0.000553021 0.000531942 0.000511013 0.000490234 0.000469606 0.000449127 0.000428799 0.000408701 0.000388911 0.00036943 0.000350257 0.000331393 0.000312837 0.000294591 0.000276653 0.0002591 0.00024201 0.000225382 0.000209217 0.000193514 0.000178274 0.000163496 0.00014918 0.000135426 0.000122332 0.000109899 9.8126e-05 8.70137e-05 7.65618e-05 6.67704e-05 5.76395e-05 4.92135e-05 4.15371e-05 3.46102e-05 2.84328e-05 2.30049e-05 1.83265e-05 1.43977e-05 1.12183e-05 8.58903e-06 6.31031e-06 4.38216e-06 2.80458e-06 1.57758e-06 7.01145e-07 1.75286e-07 0 0 1.99472e-06 7.9789e-06 1.79525e-05 3.19156e-05 4.98681e-05 7.18101e-05 9.77415e-05 0.000127662 0.000162151 0.000201785 0.000246565 0.000296491 0.000351562 0.000411779 0.000477142 0.00054765 0.000621438 0.000696636 0.000773247 0.000851268 0.000930702 0.00101155 0.0010938 0.00117747 0.00126079 0.00134201 0.00142113 0.00149814 0.00157304 0.00164585 0.00171655 0.00178514 0.00185077 0.00191258 0.00197055 0.0020247 0.00207502 0.00212152 0.00216418 0.00220302 0.00223793 0.0022688 0.00229564 0.00231845 0.00233722 0.00235195 0.00236265 0.00236931 0.00237232 0.00237205 0.00236851 0.00236169 0.0023516 0.00233822 0.00232158 0.00230165 0.00227903 0.00225428 0.00222741 0.00219842 0.0021673 0.00213406 0.0020987 0.00206121 0.00202215 0.00198206 0.00194096 0.00189884 0.00185569 0.00181153 0.00176634 0.00172013 0.00167332 0.00162631 0.00157911 0.00153171 0.00148411 0.00143633 0.00138835 0.00134017 0.00129206 0.0012443 0.00119687 0.00114978 0.00110303 0.00105661 0.00101054 0.000964799 0.000919577 0.000875049 0.000831216 0.000788078 0.000745634 0.000703884 0.000662829 0.000622469 0.000582975 0.000544523 0.00050711 0.000470738 0.000435407 0.000401116 0.000367865 0.000335655 0.000304708 0.000275247 0.000247272 0.000220783 0.000195781 0.000172264 0.000150233 0.000129689 0.00011073 9.34584e-05 7.78729e-05 6.39737e-05 5.1761e-05 4.12347e-05 3.23947e-05 2.52412e-05 1.93253e-05 1.41982e-05 9.85986e-06 6.31031e-06 3.54955e-06 1.57758e-06 3.94394e-07 0 0 3.54618e-06 1.41847e-05 3.19156e-05 5.67388e-05 8.86544e-05 0.000127662 0.000173763 0.000226955 0.000288268 0.000358729 0.000438338 0.000527094 0.000624999 0.000732052 0.000848252 0.000973601 0.00110478 0.00123846 0.00137466 0.00151337 0.00165458 0.0017983 0.00194454 0.00209328 0.00224141 0.0023858 0.00252644 0.00266335 0.00279652 0.00292595 0.00305164 0.00317359 0.00329026 0.00340014 0.0035032 0.00359947 0.00368893 0.00377158 0.00384744 0.00391648 0.00397854 0.00403343 0.00408114 0.00412168 0.00415505 0.00418124 0.00420026 0.00421211 0.00421746 0.00421698 0.00421068 0.00419856 0.00418061 0.00415684 0.00412725 0.00409183 0.00405161 0.00400762 0.00395985 0.0039083 0.00385298 0.00379388 0.00373101 0.00366437 0.00359493 0.00352367 0.0034506 0.00337571 0.00329901 0.00322049 0.00314016 0.00305802 0.00297479 0.00289122 0.0028073 0.00272303 0.00263843 0.00255347 0.00246817 0.00238252 0.002297 0.00221209 0.00212777 0.00204405 0.00196094 0.00187842 0.00179651 0.0017152 0.0016348 0.00155564 0.00147772 0.00140103 0.00132557 0.00125135 0.00117836 0.00110661 0.0010364 0.00096804 0.000901529 0.000836868 0.000774057 0.000713095 0.000653982 0.00059672 0.000541703 0.000489328 0.000439595 0.000392504 0.000348055 0.000306247 0.000267082 0.000230558 0.000196854 0.000166148 0.000138441 0.000113731 9.20196e-05 7.33061e-05 5.75907e-05 4.48733e-05 3.43561e-05 2.52412e-05 1.75286e-05 1.12183e-05 6.31031e-06 2.80458e-06 7.01145e-07 0 0 5.5409e-06 2.21636e-05 4.98681e-05 8.86544e-05 0.000138522 0.000199472 0.000271504 0.000354618 0.000450419 0.000560514 0.000684902 0.000823585 0.000976561 0.00114383 0.00132539 0.00152125 0.00172622 0.0019351 0.00214791 0.00236463 0.00258528 0.00280985 0.00303834 0.00327075 0.0035022 0.00372781 0.00394757 0.00416149 0.00436956 0.0045718 0.00476818 0.00495873 0.00514104 0.00531271 0.00547376 0.00562417 0.00576395 0.0058931 0.00601162 0.00611951 0.00621648 0.00630224 0.00637679 0.00644013 0.00649227 0.00653319 0.00656291 0.00658142 0.00658978 0.00658904 0.00657919 0.00656025 0.00653221 0.00649507 0.00644882 0.00639348 0.00633064 0.0062619 0.00618726 0.00610672 0.00602028 0.00592795 0.00582971 0.00572557 0.00561707 0.00550573 0.00539156 0.00527455 0.0051547 0.00503202 0.0049065 0.00477815 0.00464811 0.00451753 0.0043864 0.00425474 0.00412254 0.0039898 0.00385651 0.00372269 0.00358907 0.00345638 0.00332464 0.00319383 0.00306396 0.00293504 0.00280705 0.00268 0.00255438 0.00243069 0.00230893 0.00218911 0.00207121 0.00195523 0.00184119 0.00172908 0.00161938 0.00151256 0.00140864 0.00130761 0.00120946 0.00111421 0.00102185 0.000932375 0.000846411 0.000764575 0.000686867 0.000613287 0.000543835 0.000478511 0.000417315 0.000360247 0.000307584 0.000259607 0.000216314 0.000177705 0.000143781 0.000114541 8.99854e-05 7.01145e-05 5.36814e-05 3.94394e-05 2.73885e-05 1.75286e-05 9.85986e-06 4.38216e-06 1.09554e-06 0 0 7.9789e-06 3.19156e-05 7.18101e-05 0.000127662 0.000199472 0.00028724 0.000390966 0.000510649 0.000648603 0.00080714 0.00098626 0.00118596 0.00140625 0.00164712 0.00190857 0.0021906 0.00248575 0.00278655 0.00309299 0.00340507 0.00372281 0.00404619 0.00437521 0.00470988 0.00504317 0.00536804 0.0056845 0.00599254 0.00629217 0.00658339 0.00686618 0.00714057 0.00740309 0.0076503 0.00788221 0.0080988 0.00830009 0.00848607 0.00865673 0.00881209 0.00895172 0.00907522 0.00918257 0.00927379 0.00934886 0.0094078 0.00945059 0.00947725 0.00948928 0.00948821 0.00947404 0.00944676 0.00940638 0.0093529 0.00928631 0.00920661 0.00911612 0.00901713 0.00890965 0.00879368 0.00866921 0.00853624 0.00839478 0.00824483 0.00808858 0.00792826 0.00776385 0.00759535 0.00742277 0.00724611 0.00706537 0.00688054 0.00669328 0.00650524 0.00631642 0.00612683 0.00593646 0.00574531 0.00555338 0.00536068 0.00516826 0.00497719 0.00478748 0.00459912 0.00441211 0.00422645 0.00404215 0.00385919 0.00367831 0.0035002 0.00332487 0.00315231 0.00298254 0.00281554 0.00265132 0.00248987 0.0023319 0.00217809 0.00202844 0.00188295 0.00174163 0.00160446 0.00147146 0.00134262 0.00121883 0.00110099 0.000989089 0.000883134 0.000783123 0.000689056 0.000600934 0.000518755 0.000442922 0.000373834 0.000311492 0.000255895 0.000207044 0.000164939 0.000129579 0.000100965 7.73013e-05 5.67928e-05 3.94394e-05 2.52412e-05 1.41982e-05 6.31031e-06 1.57758e-06 0 0 1.08602e-05 4.34407e-05 9.77415e-05 0.000173763 0.000271504 0.000390966 0.000532148 0.00069505 0.000882821 0.00109861 0.00134241 0.00161423 0.00191406 0.00224191 0.00259777 0.00298165 0.00338338 0.0037928 0.0042099 0.00463468 0.00506715 0.00550731 0.00595515 0.00641067 0.00686431 0.0073065 0.00773724 0.00815652 0.00856434 0.00896072 0.00934564 0.00971911 0.0100764 0.0104129 0.0107286 0.0110234 0.0112973 0.0115505 0.0117828 0.0119942 0.0121843 0.0123524 0.0124985 0.0126227 0.0127248 0.0128051 0.0128633 0.0128996 0.012916 0.0129145 0.0128952 0.0128581 0.0128031 0.0127303 0.0126397 0.0125312 0.0124081 0.0122733 0.012127 0.0119692 0.0117998 0.0116188 0.0114262 0.0112221 0.0110095 0.0107912 0.0105675 0.0103381 0.0101032 0.00986276 0.00961675 0.00936517 0.00911029 0.00885435 0.00859735 0.00833929 0.00808018 0.00782 0.00755877 0.00729648 0.00703457 0.00677451 0.00651629 0.00625991 0.00600537 0.00575267 0.00550181 0.00525279 0.00500658 0.00476416 0.00452551 0.00429065 0.00405956 0.00383226 0.00360874 0.003389 0.00317398 0.00296462 0.00276093 0.00256291 0.00237055 0.00218385 0.00200282 0.00182745 0.00165897 0.00149857 0.00134626 0.00120204 0.00106592 0.000937882 0.000817937 0.000706083 0.000602866 0.000508829 0.000423975 0.000348301 0.00028181 0.0002245 0.000176371 0.000137424 0.000105216 7.73013e-05 5.36814e-05 3.43561e-05 1.93253e-05 8.58903e-06 2.14726e-06 0 0 1.41847e-05 5.67388e-05 0.000127662 0.000226955 0.000354618 0.000510649 0.00069505 0.000907821 0.00115307 0.00143492 0.00175335 0.00210838 0.0025 0.00292821 0.00339301 0.0038944 0.00441911 0.00495386 0.00549864 0.00605346 0.00661832 0.00719322 0.00777815 0.00837313 0.00896564 0.00954319 0.0101058 0.0106534 0.0111861 0.0117038 0.0122065 0.0126943 0.0131611 0.0136005 0.0140128 0.0143979 0.0147557 0.0150863 0.0153897 0.0156659 0.0159142 0.0161337 0.0163246 0.0164867 0.0166202 0.016725 0.0168011 0.0168484 0.0168698 0.0168679 0.0168427 0.0167942 0.0167225 0.0166274 0.016509 0.0163673 0.0162064 0.0160305 0.0158394 0.0156332 0.0154119 0.0151755 0.0149241 0.0146575 0.0143797 0.0140947 0.0138024 0.0135028 0.013196 0.012882 0.0125606 0.0122321 0.0118992 0.0115649 0.0112292 0.0108921 0.0105537 0.0102139 0.00987268 0.00953009 0.00918801 0.00884834 0.00851107 0.00817621 0.00784375 0.00751369 0.00718604 0.00686079 0.00653921 0.00622257 0.00591087 0.00560411 0.00530229 0.0050054 0.00471345 0.00442644 0.0041456 0.00387216 0.00360612 0.00334747 0.00309623 0.00285238 0.00261593 0.00238688 0.00216681 0.00195731 0.00175838 0.00157002 0.00139222 0.00122499 0.00106833 0.000922231 0.000787416 0.000664593 0.000553763 0.000454924 0.000368078 0.000293224 0.000230363 0.000179493 0.000137424 0.000100965 7.01145e-05 4.48733e-05 2.52412e-05 1.12183e-05 2.80458e-06 0 0 1.80427e-05 7.21706e-05 0.000162384 0.000288682 0.000451066 0.000649535 0.00088409 0.00115473 0.00146649 0.00182441 0.00222848 0.0026787 0.00317508 0.00371762 0.00430631 0.00494116 0.00560538 0.00628222 0.00697166 0.00767371 0.00838837 0.00911564 0.00985551 0.010608 0.0113573 0.0120878 0.0127993 0.0134919 0.0141656 0.0148205 0.0154564 0.0160734 0.0166638 0.0172198 0.0177414 0.0182286 0.0186814 0.0190999 0.0194839 0.0198336 0.0201479 0.020426 0.0206677 0.0208732 0.0210425 0.0211754 0.0212721 0.0213325 0.02136 0.0213581 0.0213266 0.0212657 0.0211753 0.0210555 0.0209061 0.0207273 0.0205242 0.0203019 0.0200605 0.0198 0.0195203 0.0192215 0.0189036 0.0185666 0.0182153 0.0178549 0.0174852 0.0171063 0.0167182 0.0163209 0.0159144 0.0154986 0.0150774 0.0146544 0.0142296 0.013803 0.0133747 0.0129445 0.0125126 0.012079 0.0116459 0.0112159 0.0107889 0.0103649 0.00994397 0.00952606 0.00911117 0.00869932 0.00829209 0.00789111 0.00749638 0.00710789 0.00672564 0.00634964 0.00597988 0.00561637 0.00526066 0.0049143 0.00457729 0.00424965 0.00393135 0.00362241 0.00332283 0.0030326 0.00275372 0.00248819 0.002236 0.00199715 0.00177165 0.00155949 0.00136068 0.00117521 0.00100399 0.000847932 0.000707039 0.000581308 0.000470739 0.000375332 0.000295087 0.000230005 0.000176098 0.000129378 8.98457e-05 5.75013e-05 3.23445e-05 1.43753e-05 3.59383e-06 0 0 2.25241e-05 9.00966e-05 0.000202717 0.000360386 0.000563104 0.000810869 0.00110368 0.00144155 0.00183021 0.00227542 0.00277718 0.00333549 0.00395034 0.00462175 0.00534971 0.00613421 0.00695464 0.00779037 0.0086414 0.00950773 0.0103894 0.0112863 0.0121985 0.013126 0.0140496 0.0149499 0.0158269 0.0166807 0.0175113 0.0183186 0.0191026 0.0198634 0.0205915 0.0212772 0.0219206 0.0225218 0.0230807 0.0235972 0.0240715 0.0245035 0.024892 0.0252358 0.0255349 0.0257894 0.0259992 0.0261643 0.0262847 0.0263604 0.0263956 0.0263945 0.0263569 0.026283 0.0261727 0.026026 0.025843 0.0256235 0.0253741 0.025101 0.0248042 0.0244837 0.0241395 0.0237717 0.0233802 0.0229651 0.0225324 0.0220882 0.0216325 0.0211654 0.0206868 0.0201968 0.0196953 0.0191824 0.0186626 0.0181405 0.0176161 0.0170895 0.0165607 0.0160296 0.0154962 0.0149605 0.0144256 0.0138943 0.0133668 0.0128429 0.0123228 0.0118063 0.0112936 0.0107845 0.0102811 0.00978545 0.00929747 0.00881717 0.00834457 0.00787967 0.00742245 0.00697293 0.00653302 0.00610463 0.00568777 0.00528243 0.00488862 0.00450633 0.00413557 0.00377633 0.00343105 0.00310216 0.00278966 0.00249355 0.00221383 0.0019505 0.00170356 0.00147301 0.00125999 0.00106565 0.000889986 0.000732996 0.000594681 0.000475043 0.00037408 0.000291794 0.000223405 0.000164134 0.000113982 7.29485e-05 4.10335e-05 1.82371e-05 4.55928e-06 0 0 2.76292e-05 0.000110517 0.000248663 0.000442067 0.00069073 0.000994651 0.00135383 0.00176827 0.00224422 0.00278795 0.00339945 0.00407873 0.00482578 0.0056406 0.0065232 0.00747358 0.00846689 0.00947832 0.0105079 0.0115555 0.0126213 0.0137052 0.0148072 0.0159273 0.0170424 0.0181296 0.0191887 0.0202199 0.021223 0.0221982 0.0231453 0.0240644 0.0249441 0.0257728 0.0265506 0.0272775 0.0279534 0.0285785 0.0291525 0.0296757 0.0301464 0.0305633 0.0309262 0.0312352 0.0314903 0.0316915 0.0318388 0.0319322 0.0319767 0.0319772 0.0319336 0.0318461 0.0317146 0.0315391 0.0313196 0.0310561 0.0307562 0.0304277 0.0300704 0.0296844 0.0292696 0.0288261 0.028354 0.027853 0.0273308 0.0267945 0.0262443 0.02568 0.0251018 0.0245096 0.0239034 0.0232832 0.0226546 0.0220232 0.0213889 0.0207517 0.0201118 0.0194689 0.0188233 0.0181747 0.017527 0.0168837 0.0162448 0.0156103 0.0149802 0.0143545 0.0137332 0.0131163 0.0125063 0.0119056 0.0113141 0.010732 0.0101591 0.00959548 0.00904116 0.00849612 0.00796269 0.00744316 0.00693754 0.00644582 0.00596802 0.00550413 0.00505414 0.00461807 0.0041988 0.00379924 0.00341938 0.00305922 0.00271877 0.00239803 0.00209699 0.00181565 0.00155544 0.00131775 0.0011026 0.000909988 0.000739906 0.000592357 0.000467342 0.00036486 0.000279346 0.000205234 0.000142523 9.1215e-05 5.13084e-05 2.28037e-05 5.70094e-06 0 0 3.33578e-05 0.000133431 0.00030022 0.000533725 0.000833945 0.00120088 0.00163453 0.0021349 0.00270854 0.00336201 0.00409531 0.00490843 0.00580139 0.00677418 0.0078268 0.00895924 0.0101421 0.0113461 0.012571 0.0138171 0.0150842 0.0163723 0.0176815 0.0190117 0.0203358 0.0216268 0.0228847 0.0241093 0.0253009 0.0264592 0.0275844 0.0286764 0.0297217 0.0307066 0.0316313 0.0324957 0.0332998 0.0340435 0.034727 0.0353502 0.0359112 0.0364083 0.0368415 0.0372107 0.0375159 0.0377572 0.0379346 0.0380479 0.0381032 0.0381061 0.0380567 0.037955 0.037801 0.0375946 0.0373359 0.0370249 0.0366706 0.036282 0.0358591 0.035402 0.0349105 0.0343848 0.0338248 0.0332304 0.0326106 0.031974 0.0313205 0.0306503 0.0299632 0.0292593 0.0285387 0.0278012 0.0270536 0.0263025 0.0255478 0.0247896 0.0240279 0.0232627 0.0224939 0.0217217 0.0209502 0.0201839 0.0194228 0.0186669 0.0179161 0.0171705 0.0164301 0.0156948 0.0149677 0.0142515 0.0135464 0.0128523 0.0121692 0.0114971 0.010836 0.010186 0.00954966 0.00892988 0.0083266 0.00773983 0.00716956 0.00661581 0.00607855 0.00555781 0.00505696 0.0045794 0.00412513 0.00369415 0.00328646 0.00290206 0.00254095 0.00220312 0.00189031 0.00160423 0.00134489 0.00111228 0.000906412 0.000727274 0.000574871 0.000449203 0.000343921 0.000252677 0.00017547 0.000112301 6.31692e-05 2.80752e-05 7.0188e-06 0 0 3.97099e-05 0.00015884 0.000357389 0.000635359 0.000992748 0.00142956 0.00194579 0.00254144 0.00322315 0.00399758 0.00486473 0.0058246 0.00687718 0.00802247 0.00926048 0.0105912 0.0119804 0.0133936 0.0148309 0.0162924 0.017778 0.0192876 0.0208214 0.0223793 0.0239298 0.0254417 0.0269148 0.0283491 0.0297448 0.0311017 0.0324198 0.0336993 0.0349242 0.0360787 0.0371627 0.0381764 0.0391196 0.0399925 0.0407949 0.041527 0.0421864 0.042771 0.0432808 0.0437158 0.0440759 0.0443613 0.0445718 0.0447075 0.0447751 0.0447814 0.0447263 0.0446098 0.0444319 0.0441926 0.043892 0.04353 0.0431172 0.042664 0.0421704 0.0416365 0.0410622 0.0404476 0.0397926 0.0390973 0.0383718 0.0376265 0.0368612 0.036076 0.035271 0.034446 0.0336011 0.0327364 0.0318595 0.0309783 0.0300929 0.0292032 0.0283091 0.0274108 0.0265082 0.0256013 0.0246952 0.0237951 0.022901 0.0220128 0.0211307 0.0202545 0.0193842 0.01852 0.0176652 0.0168232 0.0159942 0.0151781 0.0143748 0.0135844 0.012807 0.0120424 0.0112939 0.0105648 0.00985496 0.00916444 0.00849325 0.00784136 0.0072088 0.00659556 0.00600554 0.00544267 0.00490694 0.00439835 0.00391691 0.0034626 0.00303545 0.00263543 0.00226462 0.0019251 0.00161685 0.00133989 0.0010942 0.000879794 0.000696669 0.000544823 0.00041713 0.000306463 0.000212821 0.000136206 7.66157e-05 3.40514e-05 8.51286e-06 0 0 4.66856e-05 0.000186742 0.00042017 0.00074697 0.00116714 0.00168068 0.00228759 0.00298788 0.00378807 0.00469468 0.00570774 0.00682722 0.00805314 0.00938549 0.0108243 0.0123695 0.0139816 0.0156209 0.0172876 0.0189815 0.0207027 0.0224512 0.024227 0.02603 0.0278244 0.029574 0.031279 0.0329392 0.0345548 0.0361256 0.0376517 0.0391332 0.0405516 0.0418889 0.0431448 0.0443196 0.0454131 0.0464253 0.0473563 0.0482061 0.0489719 0.0496513 0.0502442 0.0507506 0.0511704 0.0515038 0.0517506 0.051911 0.0519925 0.0520029 0.0519422 0.0518103 0.0516073 0.0513332 0.0509879 0.0505714 0.050096 0.0495736 0.0490043 0.048388 0.0477248 0.0470147 0.0462576 0.0454536 0.0446144 0.043752 0.0428664 0.0419574 0.0410251 0.0400696 0.0390907 0.0380886 0.0370723 0.0360508 0.0350242 0.0339924 0.0329554 0.0319133 0.030866 0.0298136 0.0287619 0.0277172 0.0266792 0.0256481 0.0246238 0.0236063 0.0225956 0.0215918 0.0205988 0.0196207 0.0186576 0.0177094 0.016776 0.0158576 0.0149541 0.0140655 0.0131955 0.0123479 0.0115226 0.0107197 0.00993907 0.00918081 0.00844489 0.00773131 0.00704454 0.00638903 0.00576479 0.00517181 0.0046101 0.00407966 0.00358048 0.00311257 0.00267837 0.00228034 0.00191848 0.00159279 0.00130327 0.00104992 0.000832735 0.00065172 0.000498973 0.000366593 0.000254578 0.00016293 9.16481e-05 4.07325e-05 1.01831e-05 0 0 5.42848e-05 0.000217139 0.000488564 0.000868557 0.00135712 0.00195425 0.00265996 0.00347423 0.00440328 0.00545331 0.00662431 0.0079163 0.00932927 0.0108632 0.0125182 0.0142941 0.0161458 0.018028 0.0199409 0.0218843 0.0238584 0.025863 0.0278982 0.029964 0.0320195 0.0340239 0.0359773 0.0378796 0.0397308 0.041531 0.04328 0.044978 0.046604 0.0481373 0.0495777 0.0509252 0.05218 0.053342 0.0544111 0.0553874 0.0562678 0.0570492 0.0577316 0.058315 0.0587993 0.0591847 0.059471 0.0596583 0.0597554 0.0597707 0.0597045 0.0595567 0.0593272 0.0590161 0.0586235 0.0581491 0.057607 0.0570108 0.0563607 0.0556564 0.0548982 0.0540859 0.0532196 0.0522993 0.0513385 0.0503507 0.049336 0.0482943 0.0472257 0.0461301 0.0450075 0.0438581 0.042692 0.0415199 0.0403416 0.0391572 0.0379667 0.0367701 0.0355674 0.0343585 0.0331505 0.0319501 0.0307575 0.0295726 0.0283955 0.027226 0.0260643 0.0249102 0.0237686 0.0226441 0.0215366 0.0204462 0.0193728 0.0183166 0.0172774 0.0162552 0.0152544 0.0142792 0.0133296 0.0124055 0.011507 0.0106341 0.00978681 0.00896507 0.00817395 0.00741849 0.00669869 0.00601454 0.00536605 0.00475322 0.00417605 0.00363454 0.00313155 0.00266997 0.00224978 0.001871 0.00153362 0.00123764 0.000983069 0.000769894 0.00058945 0.000433066 0.00030074 0.000192474 0.000108266 4.81184e-05 1.20296e-05 0 0 6.25076e-05 0.00025003 0.000562569 0.00100012 0.00156269 0.00225027 0.00306287 0.00400049 0.00506879 0.00627345 0.00761447 0.00909185 0.0107056 0.0124557 0.0143421 0.016365 0.0184729 0.0206149 0.022791 0.025001 0.027245 0.029523 0.031835 0.0341811 0.0365152 0.0387914 0.0410098 0.0431703 0.045273 0.0473178 0.0493047 0.0512338 0.0530814 0.0548239 0.0564612 0.0579934 0.0594205 0.0607425 0.0619593 0.0630711 0.0640741 0.0649647 0.0657431 0.066409 0.0669627 0.067404 0.0677329 0.0679496 0.0680636 0.0680849 0.0680133 0.0678489 0.0675917 0.0672416 0.0667988 0.0662631 0.0656502 0.0649757 0.0642396 0.0634418 0.0625824 0.0616614 0.0606787 0.0596344 0.0585439 0.0574224 0.0562701 0.0550868 0.0538726 0.0526275 0.0513515 0.0500446 0.0487187 0.0473855 0.0460452 0.0446978 0.0433431 0.0419813 0.0406123 0.0392362 0.0378608 0.036494 0.0351359 0.0337865 0.0324457 0.0311136 0.0297901 0.0284754 0.0271746 0.0258932 0.0246311 0.0233885 0.0221652 0.0209613 0.0197767 0.0186116 0.0174706 0.0163587 0.0152758 0.014222 0.0131971 0.0122013 0.0112346 0.0102968 0.00939378 0.00853105 0.00770863 0.00692654 0.00618476 0.0054833 0.00482216 0.00420134 0.00362417 0.00309397 0.00261075 0.00217452 0.00178526 0.00144297 0.00114767 0.000899346 0.000688561 0.000505882 0.000351307 0.000224836 0.00012647 5.62091e-05 1.40523e-05 0 0 7.11841e-05 0.000284736 0.000640657 0.00113895 0.0017796 0.00256263 0.00348802 0.00455578 0.00577088 0.00713827 0.00865796 0.0103299 0.0121542 0.0141308 0.0162597 0.0185409 0.020917 0.0233305 0.0257815 0.0282699 0.0307958 0.0333591 0.03596 0.0385982 0.0412228 0.0437824 0.0462771 0.0487068 0.0510716 0.0533715 0.0556065 0.0577765 0.0598551 0.0618158 0.0636586 0.0653835 0.0669905 0.0684796 0.0698507 0.071104 0.0722352 0.0732402 0.074119 0.0748716 0.075498 0.0759982 0.0763721 0.0766199 0.0767523 0.0767802 0.0767036 0.0765225 0.076237 0.0758469 0.0753523 0.0747532 0.0740671 0.0733114 0.0724861 0.0715912 0.0706267 0.0695926 0.068489 0.0673157 0.0660902 0.0648295 0.0635338 0.062203 0.0608371 0.0594361 0.0580001 0.056529 0.0550362 0.0535351 0.0520257 0.050508 0.0489819 0.0474476 0.045905 0.044354 0.0428037 0.041263 0.039732 0.0382105 0.0366987 0.0351965 0.0337039 0.032221 0.0307537 0.0293082 0.0278844 0.0264824 0.0251022 0.0237438 0.0224071 0.0210922 0.0198045 0.0185493 0.0173269 0.016137 0.0149797 0.0138551 0.0127631 0.0117036 0.0106831 0.00970774 0.0087775 0.00789242 0.00705249 0.0062577 0.00550806 0.00480357 0.00414805 0.00354534 0.00299543 0.00249833 0.00205402 0.00166253 0.00132384 0.00103795 0.000794678 0.000583845 0.000405448 0.000259487 0.000145961 6.48717e-05 1.62179e-05 0 0 8.01443e-05 0.000320577 0.000721299 0.00128231 0.00200361 0.0028852 0.00392707 0.00512924 0.00649581 0.00803091 0.00973454 0.0116067 0.0136474 0.0158566 0.0182344 0.0207806 0.0234316 0.0261234 0.0288561 0.0316296 0.034444 0.0372992 0.0401953 0.0431323 0.0460535 0.0489027 0.0516796 0.0543844 0.057017 0.0595775 0.0620658 0.0644819 0.0667965 0.0689802 0.071033 0.0729549 0.0747458 0.0764058 0.077935 0.0793332 0.0805958 0.081718 0.0826999 0.0835415 0.0842428 0.0848037 0.0852243 0.0855045 0.0856564 0.0856918 0.0856108 0.0854134 0.0850995 0.0846692 0.0841225 0.0834593 0.082699 0.081861 0.0809452 0.0799516 0.0788803 0.0777313 0.0765045 0.0751999 0.0738367 0.0724342 0.0709923 0.069511 0.0679903 0.0664302 0.0648308 0.063192 0.0615287 0.0598559 0.0581736 0.0564818 0.0547805 0.0530697 0.0513493 0.0496195 0.0478902 0.0461714 0.0444632 0.0427656 0.0410786 0.0394021 0.0377362 0.0360809 0.0344429 0.0328292 0.0312396 0.0296742 0.028133 0.026616 0.0251232 0.0236546 0.0222162 0.0208141 0.0194482 0.0181186 0.0168252 0.015568 0.0143471 0.0131625 0.012021 0.0109296 0.00988818 0.00889682 0.00795551 0.00706423 0.006223 0.00543181 0.00469504 0.00401705 0.00339784 0.00283742 0.00233578 0.00189293 0.00150886 0.00118357 0.000906172 0.000665759 0.000462332 0.000295893 0.00016644 7.39732e-05 1.84933e-05 0 0 8.93884e-05 0.000357553 0.000804495 0.00143021 0.00223471 0.00321798 0.00438003 0.00572085 0.00724359 0.00895138 0.0108442 0.0129221 0.0151851 0.0176331 0.0202661 0.0230842 0.0260169 0.0289938 0.0320149 0.0350802 0.0381896 0.0413433 0.0445411 0.0477832 0.0510075 0.0541523 0.0572175 0.0602032 0.0631093 0.0659358 0.0686828 0.0713502 0.0739057 0.0763171 0.0785844 0.0807075 0.0826865 0.0845214 0.0862121 0.0877586 0.0891558 0.0903982 0.0914858 0.0924188 0.0931971 0.0938206 0.0942894 0.0946035 0.0947759 0.0948197 0.0947348 0.0945214 0.0941793 0.0937086 0.0931093 0.0923813 0.091546 0.0906245 0.0896169 0.0885232 0.0873433 0.0860773 0.0847251 0.0832869 0.0817836 0.0802365 0.0786456 0.0770108 0.0753322 0.0736098 0.0718436 0.0700335 0.0681962 0.066348 0.0644891 0.0626193 0.0607388 0.0588475 0.0569454 0.0550326 0.0531201 0.0512191 0.0493296 0.0474517 0.0455853 0.0437304 0.041887 0.0400551 0.0382423 0.0364561 0.0346966 0.0329638 0.0312576 0.029578 0.0279251 0.0262989 0.0247059 0.0231529 0.0216398 0.0201667 0.0187335 0.0173402 0.0159869 0.0146735 0.0134075 0.0121966 0.0110407 0.00993974 0.00889382 0.0079029 0.00696699 0.00608608 0.00526513 0.0045091 0.00381798 0.00319179 0.00263052 0.00213417 0.00170273 0.00133622 0.00102304 0.000751623 0.00052196 0.000334055 0.000187906 8.35136e-05 2.08784e-05 0 0 9.89162e-05 0.000395665 0.000890246 0.00158266 0.0024729 0.00356098 0.00484689 0.00633064 0.00801423 0.00989968 0.011987 0.0142762 0.0167672 0.0194601 0.0223549 0.0254515 0.0286729 0.0319416 0.0352578 0.0386215 0.0420327 0.0454913 0.0489974 0.052551 0.0560847 0.0595313 0.0628908 0.0661631 0.0693483 0.0724464 0.0754574 0.0783812 0.0811827 0.0838266 0.0863128 0.0886415 0.0908126 0.0928261 0.094682 0.0963803 0.0979152 0.0992806 0.100477 0.101503 0.102361 0.103049 0.103567 0.103917 0.104111 0.104164 0.104076 0.103847 0.103476 0.102965 0.102313 0.101519 0.100608 0.099602 0.0985012 0.0973057 0.0960156 0.0946306 0.093151 0.0915767 0.0899307 0.0882364 0.0864937 0.0847025 0.0828629 0.0809749 0.0790385 0.0770536 0.0750385 0.0730113 0.070972 0.0689205 0.0668569 0.0647812 0.0626933 0.0605933 0.0584935 0.0564062 0.0543313 0.0522688 0.0502188 0.0481813 0.0461562 0.0441436 0.0421518 0.0401891 0.0382556 0.0363512 0.0344759 0.0326298 0.0308128 0.029025 0.0272736 0.0255658 0.0239018 0.0222814 0.0207046 0.0191716 0.0176822 0.0162365 0.0148426 0.0135088 0.012235 0.0110212 0.00986743 0.00877371 0.00774002 0.00676636 0.00585832 0.00502149 0.00425586 0.00356145 0.00293825 0.00238625 0.00190546 0.00149589 0.00114529 0.000841437 0.000584331 0.000373972 0.000210359 9.3493e-05 2.33733e-05 0 0 0.000108728 0.000434911 0.00097855 0.00173964 0.0027182 0.0039142 0.00532766 0.00695858 0.00880771 0.0108758 0.0131629 0.0156689 0.0183939 0.0213379 0.0245008 0.0278827 0.0313994 0.0349669 0.038585 0.0422537 0.0459732 0.0497433 0.0535642 0.0574357 0.0612851 0.0650396 0.0686993 0.0722642 0.0757342 0.0791093 0.0823896 0.085575 0.0886274 0.0915085 0.0942183 0.0967568 0.0991241 0.10132 0.103345 0.105198 0.106874 0.108365 0.109673 0.110795 0.111734 0.112488 0.113058 0.113444 0.113661 0.113724 0.113633 0.113389 0.112991 0.112439 0.111733 0.110873 0.109885 0.108793 0.107598 0.106299 0.104897 0.103391 0.101782 0.100069 0.0982782 0.0964339 0.0945365 0.092586 0.0905823 0.0885254 0.0864155 0.0842523 0.0820559 0.0798459 0.0776223 0.0753853 0.0731347 0.0708706 0.0685929 0.0663017 0.0640105 0.0617326 0.0594681 0.057217 0.0549793 0.052755 0.050544 0.0483465 0.0461714 0.0440281 0.0419164 0.0398364 0.037788 0.0357713 0.0337863 0.031833 0.0299192 0.0280529 0.026234 0.0244626 0.0227386 0.0210621 0.0194331 0.0178515 0.0163263 0.0148661 0.013471 0.0121411 0.0108763 0.00967665 0.00854209 0.00747266 0.00647461 0.00555422 0.00471148 0.00394639 0.00325896 0.00264918 0.00211705 0.00166258 0.00127291 0.000935202 0.000649446 0.000415645 0.000233801 0.000103911 2.59778e-05 0 0 0.000118823 0.000475293 0.00106941 0.00190117 0.00297058 0.00427764 0.00582234 0.00760469 0.00962404 0.0118798 0.0143718 0.0171003 0.0200651 0.0232663 0.0267038 0.0303777 0.0341967 0.0380695 0.0419962 0.0459767 0.0500111 0.0540993 0.0582413 0.0624372 0.0666086 0.0706773 0.0746433 0.0785064 0.0822669 0.0859245 0.0894794 0.0929316 0.0962398 0.0993629 0.102301 0.105053 0.107621 0.110003 0.112201 0.114213 0.116032 0.117653 0.119073 0.120295 0.121317 0.122139 0.122762 0.123186 0.123427 0.123501 0.123408 0.123148 0.122722 0.122129 0.12137 0.120443 0.119377 0.118199 0.116908 0.115504 0.113988 0.112359 0.110618 0.108765 0.106826 0.104829 0.102774 0.100661 0.0984904 0.0962615 0.0939745 0.0916296 0.0892481 0.0868517 0.0844402 0.0820137 0.0795723 0.0771158 0.0746443 0.0721578 0.0696709 0.0671984 0.0647401 0.0622962 0.0598666 0.0574513 0.0550503 0.0526636 0.0503012 0.047973 0.0456791 0.0434194 0.0411939 0.0390026 0.0368456 0.0347228 0.0326427 0.030614 0.0286365 0.0267104 0.0248355 0.0230119 0.