<?xml version="1.0"?> 
<VTKFile type="StructuredGrid" version="0.1"> 
<StructuredGrid WholeExtent="0 128 0 128 0 0"> 
<Piece Extent="0 128 0 128 0 0"> 
<PointData>
<DataArray type="Float32" Name="u" format="ascii" NumberOfComponents="1"> 
0 0 0 0 0 0 0 0 0 0 0 0 0 0 0 0 0 0 0 0 0 0 0 0 0 0 0 0 0 0 0 0 0 0 0 0 0 0 0 0 0 0 0 0 0 0 0 0 0 0 0 0 0 0 0 0 0 0 0 0 0 0 0 0 0 0 0 0 0 0 0 0 0 0 0 0 0 0 0 0 0 0 0 0 0 0 0 0 0 0 0 0 0 0 0 0 0 0 0 0 0 0 0 0 0 0 0 0 0 0 0 0 0 0 0 0 0 0 0 0 0 0 0 0 0 0 0 0 0 0 5.95155e-07 2.38062e-06 5.35639e-06 9.52247e-06 1.48789e-05 2.14256e-05 2.91626e-05 3.80899e-05 4.83848e-05 6.02246e-05 7.36092e-05 8.85386e-05 0.000105013 0.000123032 0.000142596 0.000163705 0.000185791 0.000208287 0.000231191 0.000254506 0.000278229 0.000302362 0.000326905 0.000351857 0.000376664 0.000400772 0.00042418 0.000446889 0.0004689 0.000490211 0.000510822 0.000530735 0.00054966 0.000567311 0.000583686 0.000598786 0.000612611 0.000625161 0.000636436 0.000646436 0.000655121 0.000662452 0.000668428 0.00067305 0.000676318 0.000678232 0.000678791 0.000677996 0.000675985 0.000672897 0.000668733 0.000663491 0.000657172 0.000649776 0.000641303 0.000631753 0.000621352 0.000610327 0.000598679 0.000586406 0.000573509 0.000559987 0.000545842 0.000531073 0.000515909 0.000500581 0.000485089 0.000469433 0.000453612 0.000437627 0.000421478 0.000405165 0.000388862 0.000372747 0.000356819 0.000341078 0.000325523 0.000310156 0.000294976 0.000279982 0.000265274 0.000250951 0.000237011 0.000223455 0.000210284 0.000197496 0.000185093 0.000173074 0.000161469 0.000150306 0.000139587 0.000129311 0.000119478 0.000110089 0.000101142 9.2639e-05 8.4565e-05 7.69064e-05 6.96633e-05 6.28356e-05 5.64234e-05 5.04266e-05 4.48452e-05 3.96793e-05 3.48958e-05 3.04616e-05 2.63768e-05 2.26413e-05 1.92551e-05 1.62183e-05 1.35308e-05 1.11927e-05 9.14463e-06 7.32731e-06 5.74076e-06 4.38497e-06 3.25994e-06 2.36567e-06 1.70217e-06 1.26943e-06 9.71909e-07 7.14055e-07 4.95872e-07 3.17358e-07 1.78514e-07 7.93395e-08 1.98349e-08 0 0 2.38062e-06 9.52247e-06 2.14256e-05 3.80899e-05 5.95155e-05 8.57023e-05 0.00011665 0.00015236 0.000193539 0.000240898 0.000294437 0.000354155 0.000420052 0.000492129 0.000570385 0.00065482 0.000743164 0.000833146 0.000924765 0.00101802 0.00111292 0.00120945 0.00130762 0.00140743 0.00150665 0.00160309 0.00169672 0.00178756 0.0018756 0.00196084 0.00204329 0.00212294 0.00219864 0.00226924 0.00233474 0.00239514 0.00245045 0.00250064 0.00254574 0.00258574 0.00262048 0.00264981 0.00267371 0.0026922 0.00270527 0.00271293 0.00271516 0.00271198 0.00270394 0.00269159 0.00267493 0.00265396 0.00262869 0.0025991 0.00256521 0.00252701 0.00248541 0.00244131 0.00239471 0.00234562 0.00229403 0.00223995 0.00218337 0.00212429 0.00206364 0.00200233 0.00194036 0.00187773 0.00181445 0.00175051 0.00168591 0.00162066 0.00155545 0.00149099 0.00142728 0.00136431 0.00130209 0.00124062 0.0011799 0.00111993 0.0010611 0.0010038 0.000948043 0.000893821 0.000841135 0.000789986 0.000740373 0.000692296 0.000645875 0.000601225 0.000558349 0.000517245 0.000477914 0.000440355 0.000404569 0.000370556 0.00033826 0.000307626 0.000278653 0.000251342 0.000225693 0.000201706 0.000179381 0.000158717 0.000139583 0.000121846 0.000105507 9.05651e-05 7.70205e-05 6.48732e-05 5.41233e-05 4.47708e-05 3.65785e-05 2.93092e-05 2.2963e-05 1.75399e-05 1.30398e-05 9.46269e-06 6.80868e-06 5.07773e-06 3.88764e-06 2.85622e-06 1.98349e-06 1.26943e-06 7.14055e-07 3.17358e-07 7.93395e-08 0 0 5.35639e-06 2.14256e-05 4.82075e-05 8.57023e-05 0.00013391 0.00019283 0.000262463 0.000342809 0.000435463 0.000542021 0.000662483 0.000796848 0.000945117 0.00110729 0.00128337 0.00147335 0.00167212 0.00187458 0.00208072 0.00229055 0.00250406 0.00272126 0.00294214 0.00316671 0.00338997 0.00360694 0.00381762 0.00402201 0.0042201 0.0044119 0.0045974 0.00477662 0.00494694 0.0051058 0.00525317 0.00538908 0.0055135 0.00562645 0.00572793 0.00581792 0.00589609 0.00596207 0.00601585 0.00605745 0.00608686 0.00610409 0.00610912 0.00610196 0.00608387 0.00605608 0.00601859 0.00597142 0.00591455 0.00584798 0.00577173 0.00568577 0.00559217 0.00549295 0.00538811 0.00527765 0.00516158 0.00503989 0.00491258 0.00477966 0.00464318 0.00450523 0.0043658 0.0042249 0.00408251 0.00393865 0.0037933 0.00364648 0.00349976 0.00335473 0.00321137 0.0030697 0.00292971 0.0027914 0.00265478 0.00251984 0.00238747 0.00225855 0.0021331 0.0020111 0.00189255 0.00177747 0.00166584 0.00155767 0.00145322 0.00135276 0.00125628 0.0011638 0.00107531 0.000990799 0.00091028 0.000833751 0.000761085 0.000692158 0.000626969 0.00056552 0.00050781 0.000453839 0.000403607 0.000357114 0.000314062 0.000274154 0.000237391 0.000203771 0.000173296 0.000145965 0.000121778 0.000100734 8.23016e-05 6.59458e-05 5.16668e-05 3.94647e-05 2.93394e-05 2.12911e-05 1.53195e-05 1.14249e-05 8.74718e-06 6.4265e-06 4.46285e-06 2.85622e-06 1.60662e-06 7.14055e-07 1.78514e-07 0 0 9.52247e-06 3.80899e-05 8.57023e-05 0.00015236 0.000238062 0.000342809 0.000466601 0.000609438 0.000774157 0.000963593 0.00117775 0.00141662 0.00168021 0.00196851 0.00228154 0.00261928 0.00297266 0.00333258 0.00369906 0.00407209 0.00445167 0.0048378 0.00523048 0.00562971 0.00602662 0.00641234 0.00678688 0.00715023 0.00750239 0.00784337 0.00817316 0.00849176 0.00879457 0.00907697 0.00933898 0.00958058 0.00980178 0.0100026 0.010183 0.010343 0.0104819 0.0105992 0.0106949 0.0107688 0.0108211 0.0108517 0.0108607 0.0108479 0.0108158 0.0107664 0.0106997 0.0106159 0.0105147 0.0103964 0.0102608 0.010108 0.00994163 0.00976524 0.00957886 0.00938249 0.00917614 0.0089598 0.00873347 0.00849717 0.00825455 0.0080093 0.00776143 0.00751093 0.0072578 0.00700204 0.00674365 0.00648263 0.0062218 0.00596396 0.0057091 0.00545724 0.00520837 0.0049625 0.00471961 0.00447972 0.00424439 0.00401521 0.00379217 0.00357528 0.00336454 0.00315994 0.00296149 0.00276919 0.0025835 0.0024049 0.00223339 0.00206898 0.00191165 0.00176142 0.00161828 0.00148222 0.00135304 0.0012305 0.00111461 0.00100537 0.000902774 0.000806825 0.000717523 0.000634869 0.000558333 0.000487386 0.000422028 0.00036226 0.000308082 0.000259493 0.000216493 0.000179083 0.000146314 0.000117237 9.18521e-05 7.01595e-05 5.2159e-05 3.78508e-05 2.72347e-05 2.03109e-05 1.55505e-05 1.14249e-05 7.93395e-06 5.07773e-06 2.85622e-06 1.26943e-06 3.17358e-07 0 0 1.48789e-05 5.95155e-05 0.00013391 0.000238062 0.000371972 0.000535639 0.000729064 0.000952247 0.00120962 0.00150561 0.00184023 0.00221347 0.00262532 0.0030758 0.0035649 0.00409263 0.00464478 0.00520716 0.00577978 0.00636264 0.00695573 0.00755906 0.00817262 0.00879642 0.00941659 0.0100193 0.0106045 0.0111722 0.0117225 0.0122553 0.0127706 0.0132684 0.0137415 0.0141828 0.0145922 0.0149697 0.0153153 0.015629 0.0159109 0.0161609 0.016378 0.0165613 0.0167107 0.0168263 0.016908 0.0169558 0.0169698 0.0169499 0.0168996 0.0168224 0.0167183 0.0165873 0.0164293 0.0162444 0.0160326 0.0157938 0.0155338 0.0152582 0.014967 0.0146601 0.0143377 0.0139997 0.0136461 0.0132768 0.0128977 0.0125145 0.0121272 0.0117358 0.0113403 0.0109407 0.010537 0.0101291 0.00972156 0.00931868 0.00892048 0.00852694 0.00813809 0.0077539 0.00737439 0.00699956 0.00663186 0.00627376 0.00592527 0.00558638 0.0052571 0.00493741 0.00462733 0.00432685 0.00403672 0.00375766 0.00348968 0.00323278 0.00298696 0.00275222 0.00252856 0.00231597 0.00211412 0.00192266 0.00174158 0.00157089 0.00141058 0.00126066 0.00112113 0.000991983 0.000872395 0.00076154 0.000659419 0.000566032 0.000481378 0.000405458 0.000338271 0.000279818 0.000228616 0.000183183 0.000143519 0.000109624 8.14985e-05 5.91418e-05 4.25543e-05 3.17358e-05 2.42977e-05 1.78514e-05 1.23968e-05 7.93395e-06 4.46285e-06 1.98349e-06 4.95872e-07 0 0 2.14256e-05 8.57023e-05 0.00019283 0.000342809 0.000535639 0.00077132 0.00104985 0.00137124 0.00174185 0.00216808 0.00264993 0.00318739 0.00378047 0.00442916 0.00513346 0.00589338 0.00668848 0.00749832 0.00832289 0.0091622 0.0100163 0.010885 0.0117686 0.0126668 0.0135599 0.0144278 0.0152705 0.016088 0.0168804 0.0176476 0.0183896 0.0191065 0.0197878 0.0204232 0.0210127 0.0215563 0.022054 0.0225058 0.0229117 0.0232717 0.0235844 0.0238483 0.0240634 0.0242298 0.0243475 0.0244163 0.0244365 0.0244079 0.0243355 0.0242243 0.0240744 0.0238857 0.0236582 0.0233919 0.0230869 0.0227431 0.0223687 0.0219718 0.0215524 0.0211106 0.0206463 0.0201595 0.0196503 0.0191186 0.0185727 0.0180209 0.0174632 0.0168996 0.01633 0.0157546 0.0151732 0.0145859 0.013999 0.0134189 0.0128455 0.0122788 0.0117188 0.0111656 0.0106191 0.0100794 0.00954987 0.00903422 0.00853239 0.00804439 0.00757022 0.00710987 0.00666336 0.00623067 0.00581287 0.00541103 0.00502514 0.0046552 0.00430122 0.00396319 0.00364112 0.003335 0.00304434 0.00276863 0.00250788 0.00226208 0.00203124 0.00181536 0.00161443 0.00142845 0.00125625 0.00109662 0.000949564 0.000815086 0.000693184 0.000583859 0.00048711 0.000402937 0.000329207 0.000263783 0.000206667 0.000157859 0.000117358 8.51642e-05 6.12782e-05 4.56995e-05 3.49887e-05 2.5706e-05 1.78514e-05 1.14249e-05 6.4265e-06 2.85622e-06 7.14055e-07 0 0 2.91626e-05 0.00011665 0.000262463 0.000466601 0.000729064 0.00104985 0.00142897 0.00186641 0.00237086 0.002951 0.00360685 0.00433839 0.00514564 0.00602858 0.00698721 0.00802155 0.00910376 0.010206 0.0113284 0.0124708 0.0136332 0.0148158 0.0160183 0.017241 0.0184565 0.0196378 0.0207848 0.0218976 0.0229761 0.0240203 0.0250303 0.026006 0.0269334 0.0277982 0.0286006 0.0293405 0.030018 0.0306329 0.0311854 0.0316754 0.0321009 0.0324601 0.032753 0.0329795 0.0331396 0.0332334 0.0332608 0.0332218 0.0331233 0.032972 0.0327679 0.032511 0.0322014 0.031839 0.0314238 0.0309559 0.0304463 0.029906 0.0293352 0.0287339 0.0281019 0.0274394 0.0267463 0.0260226 0.0252796 0.0245285 0.0237694 0.0230022 0.022227 0.0214437 0.0206524 0.0198531 0.0190543 0.0182646 0.0174841 0.0167128 0.0159506 0.0151976 0.0144538 0.0137191 0.0129984 0.0122966 0.0116135 0.0109493 0.0103039 0.00967733 0.00906957 0.00848063 0.00791196 0.00736501 0.00683977 0.00633625 0.00585444 0.00539435 0.00495597 0.00453931 0.00414368 0.00376841 0.0034135 0.00307894 0.00276474 0.0024709 0.00219742 0.00194429 0.00170989 0.00149262 0.00129246 0.00110942 0.000943501 0.000794697 0.000663011 0.000548443 0.000448087 0.000359038 0.000281297 0.000214863 0.000159737 0.000115918 8.34064e-05 6.22022e-05 4.76235e-05 3.49887e-05 2.42977e-05 1.55505e-05 8.74718e-06 3.88764e-06 9.71909e-07 0 0 3.80899e-05 0.00015236 0.000342809 0.000609438 0.000952247 0.00137124 0.00186641 0.00243775 0.00309663 0.00385437 0.00471099 0.00566647 0.00672083 0.00787406 0.00912616 0.0104771 0.0118906 0.0133303 0.0147962 0.0162884 0.0178067 0.0193512 0.0209219 0.0225188 0.0241065 0.0256494 0.0271475 0.0286009 0.0300096 0.0313735 0.0326926 0.033967 0.0351783 0.0363079 0.0373559 0.0383223 0.0392071 0.0400103 0.0407319 0.0413719 0.0419277 0.0423969 0.0427794 0.0430752 0.0432844 0.0434068 0.0434426 0.0433917 0.0432631 0.0430654 0.0427989 0.0424634 0.042059 0.0415857 0.0410434 0.0404322 0.0397665 0.039061 0.0383154 0.03753 0.0367045 0.0358392 0.0349339 0.0339887 0.0330182 0.0320372 0.0310457 0.0300437 0.0290312 0.0280082 0.0269746 0.0259305 0.0248872 0.0238558 0.0228364 0.021829 0.0208335 0.01985 0.0188784 0.0179189 0.0169776 0.0160608 0.0151687 0.0143011 0.0134582 0.0126398 0.011846 0.0110767 0.010334 0.0096196 0.00893358 0.00827592 0.00764662 0.00704568 0.0064731 0.00592889 0.00541216 0.00492201 0.00445845 0.00402148 0.00361109 0.0032273 0.00287009 0.00253948 0.00223333 0.00194954 0.00168811 0.00144904 0.00123233 0.00103797 0.000865973 0.000716333 0.000585256 0.000468948 0.000367408 0.000280638 0.000208636 0.000151403 0.000108939 8.12436e-05 6.22022e-05 4.56995e-05 3.17358e-05 2.03109e-05 1.14249e-05 5.07773e-06 1.26943e-06 0 0 4.84533e-05 0.000193813 0.00043608 0.000775253 0.00121133 0.00174432 0.00237421 0.00310101 0.00393862 0.00490094 0.00598798 0.00719974 0.0085362 0.00999738 0.0115833 0.0132939 0.0150833 0.0169056 0.0187608 0.0206489 0.0225699 0.0245237 0.0265105 0.0285301 0.0305379 0.0324891 0.0343838 0.0362219 0.0380034 0.0397284 0.0413968 0.0430086 0.0445406 0.0459694 0.0472951 0.0485177 0.0496372 0.0506535 0.0515667 0.0523768 0.0530805 0.0536747 0.0541593 0.0545343 0.0547997 0.0549555 0.0550018 0.0549385 0.0547768 0.0545279 0.0541918 0.0537685 0.053258 0.0526603 0.0519754 0.0512033 0.0503623 0.0494707 0.0485285 0.0475357 0.0464923 0.0453984 0.0442538 0.0430587 0.0418315 0.040591 0.0393371 0.0380697 0.036789 0.0354949 0.0341874 0.0328665 0.0315465 0.0302415 0.0289515 0.0276766 0.0264167 0.0251719 0.0239422 0.0227275 0.0215358 0.0203752 0.0192456 0.0181471 0.0170796 0.0160432 0.0150378 0.0140634 0.0131225 0.0122175 0.0113483 0.010515 0.00971752 0.00895591 0.00823016 0.00754026 0.00688511 0.00626359 0.00567569 0.00512143 0.0046008 0.0041138 0.00366043 0.00324068 0.0028519 0.00249138 0.00215915 0.00185519 0.0015795 0.0013321 0.00111297 0.000922111 0.000754757 0.000606131 0.00047623 0.000365056 0.000272608 0.000198886 0.000143891 0.000107622 8.23984e-05 6.05376e-05 4.204e-05 2.69056e-05 1.51344e-05 6.7264e-06 1.6816e-06 0 0 6.04985e-05 0.000241994 0.000544487 0.000967976 0.00151246 0.00217795 0.00296443 0.0038719 0.00491629 0.00611348 0.00746348 0.00896629 0.0106219 0.0124303 0.0143916 0.0165056 0.018716 0.0209662 0.0232563 0.0255863 0.027956 0.0303657 0.0328152 0.0353045 0.037779 0.0401838 0.0425189 0.0447844 0.0469802 0.0491064 0.0511629 0.0531497 0.0550383 0.0568 0.0584348 0.0599427 0.0613238 0.0625779 0.0637052 0.0647056 0.0655751 0.0663096 0.0669092 0.0673738 0.0677035 0.0678982 0.067958 0.0678829 0.0676865 0.0673825 0.066971 0.066452 0.0658254 0.0650913 0.0642496 0.0633004 0.0622661 0.0611693 0.0600099 0.0587879 0.0575034 0.0561563 0.0547466 0.0532743 0.0517624 0.0502337 0.0486882 0.047126 0.045547 0.0439512 0.0423386 0.0407093 0.0390807 0.0374705 0.0358786 0.034305 0.0327497 0.0312128 0.0296942 0.0281939 0.0267218 0.0252879 0.0238921 0.0225345 0.021215 0.0199336 0.0186903 0.0174852 0.0163212 0.0152014 0.0141257 0.0130943 0.0121069 0.0111638 0.0102648 0.00940991 0.00859788 0.00782731 0.0070982 0.00641056 0.00576437 0.00515964 0.00459638 0.00407457 0.00359093 0.00314213 0.00272819 0.0023491 0.00200487 0.00169548 0.00142095 0.00118128 0.000970634 0.000783205 0.00061899 0.000477991 0.000360205 0.000265635 0.000194279 0.000146137 0.000111886 8.22021e-05 5.70848e-05 3.65343e-05 2.05505e-05 9.13357e-06 2.28339e-06 0 0 7.42256e-05 0.000296902 0.00066803 0.00118761 0.00185564 0.00267212 0.00363705 0.00475044 0.00602962 0.00749197 0.00913747 0.0109661 0.0129779 0.0151729 0.017551 0.0201123 0.0227887 0.0255122 0.0282828 0.0311005 0.0339652 0.0368771 0.039836 0.0428421 0.0458297 0.0487332 0.0515528 0.0542883 0.0569399 0.0595074 0.0619909 0.0643904 0.0666715 0.0687997 0.070775 0.0725974 0.0742669 0.0757836 0.0771473 0.0783582 0.0794113 0.0803016 0.0810291 0.0815938 0.0819957 0.0822349 0.0823113 0.0822248 0.0819921 0.0816293 0.0811366 0.080514 0.0797613 0.0788787 0.0778662 0.0767236 0.0754782 0.0741569 0.0727597 0.0712866 0.0697377 0.0681129 0.0664122 0.0646357 0.0628108 0.0609654 0.0590993 0.0572125 0.055305 0.0533769 0.0514282 0.0494588 0.0474899 0.0455429 0.0436176 0.0417141 0.0398324 0.0379725 0.0361344 0.0343181 0.0325356 0.030799 0.0291082 0.0274632 0.0258641 0.0243109 0.0228035 0.021342 0.01993 0.0185713 0.0172659 0.0160137 0.0148148 0.0136692 0.0125769 0.0115379 0.0105505 0.00961319 0.00872598 0.00788885 0.0071018 0.00636484 0.00567795 0.00504115 0.00445043 0.00390179 0.00339525 0.00293079 0.00250842 0.00212814 0.00178994 0.00149383 0.00123288 0.00100017 0.00079569 0.000619442 0.000471428 0.000351648 0.000260101 0.000196787 0.000150665 0.000110693 7.68701e-05 4.91969e-05 2.76732e-05 1.22992e-05 3.0748e-06 0 0 8.96344e-05 0.000358538 0.00080671 0.00143415 0.00224086 0.00322684 0.00439209 0.0057366 0.00727863 0.00903642 0.01101 0.0131992 0.0156043 0.0182251 0.0210617 0.024114 0.0273015 0.0305436 0.0338403 0.0371916 0.0405975 0.044058 0.0475731 0.0511428 0.05469 0.0581375 0.0614855 0.0647338 0.0678825 0.0709315 0.0738809 0.0767307 0.0794401 0.0819684 0.0843156 0.0864816 0.0884666 0.0902704 0.0918931 0.0933347 0.0945892 0.0956507 0.096519 0.0971943 0.0976764 0.0979655 0.0980615 0.0979645 0.0976936 0.0972683 0.0966886 0.0959544 0.0950657 0.0940226 0.092825 0.0914729 0.0899984 0.0884334 0.0867779 0.0850318 0.0831953 0.0812683 0.0792507 0.0771427 0.0749768 0.072786 0.0705701 0.0683292 0.0660632 0.0637721 0.0614561 0.059115 0.0567741 0.0544586 0.0521686 0.049904 0.0476649 0.0454512 0.0432629 0.0411001 0.0389771 0.0369083 0.0348937 0.0329333 0.0310271 0.0291752 0.0273774 0.0256338 0.0239489 0.0223272 0.0207687 0.0192733 0.0178412 0.0164723 0.0151666 0.0139241 0.0127429 0.0116212 0.010559 0.00955632 0.0086131 0.00772938 0.00690514 0.0061404 0.00543039 0.00477036 0.00416031 0.00360025 0.00309016 0.00263005 0.00221992 0.00185978 0.00154151 0.00125703 0.00100633 0.000789411 0.000606277 0.000456926 0.000341358 0.000259574 0.000198736 0.00014601 0.000101396 6.48934e-05 3.65025e-05 1.62234e-05 4.05584e-06 0 0 0.000106725 0.000426901 0.000960526 0.0017076 0.00266813 0.0038421 0.00522953 0.00683041 0.00866331 0.0107468 0.0130809 0.0156657 0.018501 0.0215869 0.0249235 0.0285106 0.0322542 0.0360603 0.0399287 0.0438595 0.0478527 0.0519083 0.0560263 0.0602066 0.0643599 0.0683967 0.072317 0.0761207 0.0798079 0.0833787 0.0868329 0.0901705 0.0933442 0.0963062 0.0990567 0.101596 0.103923 0.106039 0.107943 0.109635 0.111109 0.112357 0.113379 0.114175 0.114746 0.11509 0.115209 0.115102 0.114791 0.114299 0.113627 0.112773 0.111739 0.110523 0.109126 0.107548 0.105827 0.103999 0.102064 0.100024 0.0978762 0.0956224 0.0932621 0.0907953 0.0882604 0.0856955 0.0831008 0.0804761 0.0778214 0.0751369 0.0724224 0.0696779 0.0669332 0.0642178 0.0615316 0.0588747 0.0562471 0.0536487 0.0510797 0.0485399 0.0460464 0.043616 0.0412489 0.0389449 0.036704 0.0345264 0.0324119 0.0303606 0.0283778 0.026469 0.0246341 0.0228732 0.0211861 0.019573 0.0180338 0.0165686 0.0151752 0.0138514 0.0125973 0.011413 0.0102983 0.00925326 0.00827795 0.00737233 0.00653082 0.00574784 0.00502339 0.00435747 0.00375008 0.00320123 0.0027109 0.00227911 0.00189651 0.00155378 0.0012509 0.000987896 0.000764751 0.00058147 0.000438051 0.000334496 0.000256098 0.000188154 0.000130662 8.36239e-05 4.70384e-05 2.0906e-05 5.22649e-06 0 0 0.000125498 0.000501991 0.00112948 0.00200796 0.00313744 0.00451792 0.00614939 0.00803185 0.0101837 0.0126232 0.0153504 0.0183654 0.021668 0.0252584 0.0291364 0.0333022 0.037647 0.0420623 0.0465481 0.0511043 0.0557309 0.0604281 0.0651956 0.0700336 0.0748395 0.0795107 0.0840473 0.0884491 0.0927164 0.0968489 0.100847 0.10471 0.108384 0.111813 0.114998 0.117939 0.120636 0.123088 0.125296 0.127259 0.12897 0.13042 0.131609 0.132537 0.133203 0.133609 0.133753 0.133637 0.133285 0.132723 0.131952 0.13097 0.12978 0.128379 0.126769 0.12495 0.122963 0.120853 0.118619 0.116262 0.11378 0.111175 0.108446 0.105594 0.102662 0.0996941 0.0966913 0.0936532 0.0905798 0.087471 0.084327 0.0811476 0.0779673 0.0748203 0.0717065 0.0686261 0.065579 0.0625652 0.0595847 0.0566376 0.0537434 0.0509221 0.0481735 0.0454977 0.0428948 0.0403645 0.0379071 0.0355225 0.0332169 0.0309969 0.0288623 0.0268132 0.0248495 0.0229714 0.0211786 0.0194714 0.0178472 0.0163037 0.0148409 0.0134588 0.0121573 0.0109365 0.00979638 0.00873695 0.00775172 0.00683423 0.00598448 0.00520247 0.0044882 0.00384167 0.00326288 0.00275183 0.00229788 0.00189042 0.00152942 0.0012149 0.000946851 0.000725278 0.000550179 0.000421553 0.000322752 0.000237124 0.000164669 0.000105388 5.92809e-05 2.63471e-05 6.58677e-06 0 0 0.000145952 0.000583808 0.00131357 0.00233523 0.0036488 0.00525427 0.00715165 0.00934093 0.0118397 0.0146655 0.0178184 0.0212984 0.0251054 0.0292394 0.0337006 0.0384888 0.0434799 0.0485498 0.0536985 0.058926 0.0642322 0.0696173 0.0750811 0.0806237 0.0861287 0.0914796 0.0966764 0.101719 0.106608 0.111342 0.115923 0.120349 0.124559 0.128489 0.13214 0.135512 0.138605 0.141418 0.143953 0.146207 0.148173 0.149841 0.151209 0.152279 0.153049 0.153521 0.153695 0.153569 0.153174 0.152538 0.151663 0.150546 0.14919 0.147593 0.145755 0.143677 0.141408 0.138997 0.136443 0.133746 0.130908 0.127927 0.124803 0.121538 0.11818 0.114781 0.111342 0.107861 0.104338 0.100775 0.09717 0.0935241 0.0898763 0.0862661 0.0826934 0.0791583 0.0756607 0.0722006 0.068778 0.065393 0.0620682 0.0588265 0.0556677 0.052592 0.0495993 0.0466897 0.043863 0.0411194 0.0384662 0.0359108 0.0334532 0.0310934 0.0288314 0.0266673 0.024601 0.0226325 0.0207591 0.0189782 0.0172897 0.0156937 0.0141902 0.0127791 0.0114604 0.0102342 0.00909308 0.00802953 0.00704358 0.00613524 0.0053045 0.00455137 0.00387585 0.00327794 0.00274563 0.00226695 0.00184187 0.00147042 0.00115258 0.000888351 0.000677741 0.000520747 0.000398697 0.00029292 0.000203417 0.000130187 7.323e-05 3.25467e-05 8.13667e-06 0 0 0.000168088 0.000672353 0.00151279 0.00268941 0.00420221 0.00605118 0.00823632 0.0107576 0.0136314 0.0168738 0.0204849 0.0244646 0.028813 0.0335301 0.0386159 0.0440703 0.0497527 0.0555226 0.0613798 0.0673245 0.0733565 0.0794759 0.0856828 0.091977 0.0982275 0.104303 0.110204 0.11593 0.121482 0.126859 0.13206 0.137088 0.141869 0.146334 0.150483 0.154315 0.157831 0.16103 0.163913 0.166479 0.168718 0.170618 0.172179 0.173401 0.174284 0.174828 0.175033 0.174899 0.174459 0.173746 0.17276 0.1715 0.169968 0.168162 0.166083 0.163731 0.161161 0.158429 0.155534 0.152478 0.149258 0.145877 0.142333 0.138627 0.134816 0.130958 0.127052 0.123098 0.119097 0.115048 0.110951 0.106807 0.10266 0.0985554 0.0944923 0.0904712 0.0864921 0.0825548 0.0786595 0.0748062 0.0710207 0.0673292 0.0637315 0.0602277 0.0568178 0.0535017 0.0502796 0.0471513 0.0441255 0.0412106 0.0384067 0.0357138 0.0331318 0.0306609 0.0283009 0.0260519 0.0239108 0.0218748 0.0199438 0.0181179 0.0163969 0.014781 0.0132701 0.0118642 0.0105549 0.00933373 0.00820069 0.00715577 0.00619899 0.00533034 0.00454982 0.00385744 0.00323976 0.00268337 0.00218827 0.00175445 0.00138193 0.00107069 0.000820739 0.000632076 0.000483933 0.000355543 0.000246905 0.000158019 8.88857e-05 3.95048e-05 9.87619e-06 0 0 0.00019146 0.000765841 0.00172314 0.00306337 0.00478651 0.00689257 0.00938156 0.0122535 0.0155227 0.0192038 0.0232967 0.0278015 0.032718 0.0380464 0.0437866 0.0499386 0.0563445 0.0628465 0.0694445 0.0761386 0.0829287 0.0898148 0.096797 0.103875 0.110903 0.117735 0.12437 0.130809 0.137052 0.143098 0.148948 0.154601 0.159979 0.165001 0.169669 0.173981 0.177938 0.181541 0.184788 0.187679 0.190203 0.192347 0.194109 0.195491 0.196492 0.197112 0.197352 0.19721 0.196725 0.195933 0.194833 0.193425 0.191711 0.189689 0.187359 0.184722 0.18184 0.178775 0.175527 0.172095 0.168481 0.164683 0.160702 0.156537 0.152254 0.147917 0.143525 0.139079 0.134578 0.130024 0.125414 0.12075 0.116083 0.111461 0.106886 0.102358 0.0978759 0.0934402 0.089051 0.0847081 0.080441 0.076279 0.0722222 0.0682705 0.0644239 0.0606825 0.0570462 0.053515 0.0500988 0.0468071 0.0436402 0.0405979 0.0376803 0.0348873 0.032219 0.0296753 0.027253 0.0249489 0.0227628 0.0206949 0.018745 0.0169133 0.0151997 0.0136042 0.0121173 0.0107295 0.00944079 0.00825119 0.0071607 0.00616932 0.00527703 0.00448385 0.0037749 0.00313533 0.00256512 0.00206429 0.00163283 0.00127074 0.000978013 0.000754663 0.000577788 0.000424498 0.00029479 0.000188666 0.000106124 4.71664e-05 1.17916e-05 0 0 0.000215622 0.00086249 0.0019406 0.00344996 0.00539056 0.00776241 0.0105655 0.0137998 0.0174777 0.0216114 0.0262008 0.0312461 0.0367472 0.0427041 0.0491168 0.0559853 0.063134 0.0703872 0.0777448 0.085207 0.0927736 0.100445 0.10822 0.116101 0.123924 0.131528 0.138914 0.146082 0.15303 0.159761 0.166272 0.172566 0.178552 0.184144 0.189342 0.194145 0.198553 0.202567 0.206187 0.209411 0.212227 0.21462 0.21659 0.218136 0.219258 0.219958 0.220234 0.220087 0.219557 0.218684 0.21747 0.215913 0.214014 0.211773 0.20919 0.206264 0.203065 0.199661 0.196053 0.19224 0.188223 0.184001 0.179574 0.174943 0.170178 0.165353 0.160465 0.155517 0.150506 0.145435 0.140302 0.135107 0.129907 0.124758 0.119659 0.114612 0.109615 0.104669 0.0997739 0.0949296 0.090169 0.0855249 0.0809974 0.0765863 0.0722918 0.0681138 0.0640523 0.0601073 0.0562899 0.0526111 0.0490709 0.0456692 0.0424062 0.0392817 0.0362959 0.0334486 0.0307363 0.0281555 0.0257062 0.0233883 0.0212019 0.019147 0.0172235 0.0154314 0.0137603 0.0121994 0.0107489 0.00940861 0.00817868 0.00705905 0.00604973 0.00515071 0.00434572 0.00361847 0.00296897 0.00239721 0.0019032 0.00148693 0.00114841 0.000887627 0.000679589 0.00049929 0.000346729 0.000221907 0.000124823 5.54767e-05 1.38692e-05 0 0 0.000240574 0.000962298 0.00216517 0.00384919 0.00601436 0.00866068 0.0117881 0.0153968 0.0194963 0.0240964 0.0291972 0.0347986 0.0409007 0.0475034 0.0546067 0.0622106 0.0701213 0.0781447 0.0862808 0.0945297 0.102891 0.111366 0.119953 0.128653 0.137288 0.145683 0.153836 0.161747 0.169418 0.176846 0.184034 0.19098 0.197589 0.203762 0.209501 0.214805 0.219675 0.22411 0.22811 0.231676 0.23479 0.237439 0.23962 0.241335 0.242583 0.243365 0.24368 0.243528 0.242954 0.242002 0.240672 0.238964 0.236879 0.234416 0.231575 0.228356 0.224834 0.221087 0.217112 0.212912 0.208484 0.203831 0.19895 0.193843 0.188588 0.183265 0.177872 0.172411 0.166881 0.161282 0.155614 0.149877 0.144133 0.138444 0.132811 0.127232 0.121709 0.116241 0.110828 0.105471 0.100205 0.0950668 0.0900569 0.085175 0.0804212 0.0757955 0.0712978 0.0669281 0.0626989 0.0586224 0.0546987 0.0509278 0.0473096 0.0438442 0.0405316 0.0373717 0.0343608 0.0314949 0.0287741 0.0261983 0.0237676 0.021482 0.0193414 0.0173459 0.0154838 0.0137435 0.0121249 0.010628 0.00925291 0.00799953 0.0068679 0.00585801 0.0049522 0.00413279 0.0033998 0.00275321 0.00219304 0.00171927 0.00133192 0.00103097 0.000789336 0.00057992 0.000402722 0.000257742 0.00014498 6.44356e-05 1.61089e-05 0 0 0.000266316 0.00106527 0.00239685 0.00426106 0.00665791 0.00958739 0.0130495 0.0170443 0.0215785 0.026659 0.0322858 0.0384589 0.0451784 0.0524441 0.0602561 0.0686144 0.0773063 0.086119 0.0950525 0.104107 0.113282 0.122578 0.131995 0.141532 0.150998 0.160199 0.169135 0.177806 0.186213 0.194355 0.202233 0.209846 0.217089 0.223856 0.230147 0.235963 0.241304 0.246169 0.250558 0.254472 0.257892 0.260802 0.263201 0.265089 0.266466 0.267333 0.267689 0.267534 0.266916 0.265884 0.264438 0.262578 0.260304 0.257616 0.254514 0.250997 0.247149 0.243052 0.238705 0.23411 0.229266 0.224173 0.21883 0.213239 0.207485 0.201654 0.195746 0.189762 0.183701 0.177564 0.17135 0.16506 0.15876 0.152521 0.14634 0.14022 0.134158 0.128157 0.122214 0.116331 0.110548 0.104905 0.0994009 0.0940367 0.0888124 0.0837277 0.0787827 0.0739775 0.0693257 0.0648412 0.0605238 0.0563736 0.0523906 0.0485747 0.0449261 0.0414447 0.0381263 0.0349669 0.0319664 0.0291248 0.0264421 0.0239184 0.0215536 0.0193477 0.017288 0.0153618 0.0135689 0.0119094 0.0103834 0.00899077 0.00773156 0.00660576 0.00559435 0.0046783 0.00385762 0.0031323 0.00250235 0.00196777 0.00152854 0.00118469 0.000907028 0.000666388 0.000462769 0.000296172 0.000166597 7.40431e-05 1.85108e-05 0 0 0.000292848 0.00117139 0.00263564 0.00468557 0.00732121 0.0105425 0.0143496 0.0187423 0.0237243 0.0292991 0.0354667 0.0422271 0.0495803 0.0575263 0.0660651 0.0751968 0.0846891 0.0943102 0.10406 0.113938 0.123945 0.134081 0.144345 0.154738 0.165051 0.175076 0.184812 0.194259 0.203417 0.212288 0.220869 0.229162 0.237052 0.244425 0.25128 0.257619 0.26344 0.268744 0.273531 0.2778 0.281533 0.28471 0.287332 0.289398 0.290908 0.291863 0.292261 0.292104 0.291444 0.290332 0.288769 0.286756 0.284291 0.281374 0.278007 0.274188 0.270008 0.265556 0.260832 0.255836 0.250567 0.245027 0.239214 0.23313 0.226867 0.220519 0.214087 0.20757 0.200968 0.194282 0.187511 0.180656 0.17379 0.166988 0.160249 0.153574 0.146963 0.140416 0.133932 0.127512 0.121199 0.115039 0.109029 0.103171 0.0974651 0.0919104 0.0865071 0.0812554 0.0761704 0.0712673 0.066546 0.0620066 0.057649 0.0534733 0.0494795 0.0456675 0.042033 0.0385715 0.0352831 0.0321678 0.0292254 0.0264562 0.02386 0.0214368 0.0191729 0.0170542 0.0150809 0.0132529 0.0115702 0.0100328 0.0086407 0.00739395 0.00627216 0.00525499 0.00434242 0.00353447 0.00283113 0.00223241 0.00173829 0.00134879 0.00103267 0.000758693 0.00052687 0.000337197 0.000189673 8.42993e-05 2.10748e-05 0 0 0.00032017 0.00128068 0.00288153 0.00512273 0.00800426 0.0115261 0.0156883 0.0204909 0.0259337 0.0320167 0.0387398 0.046103 0.0541064 0.06275 0.0720337 0.0819576 0.0922697 0.102718 0.113303 0.124024 0.134881 0.145875 0.157005 0.168271 0.179449 0.190314 0.200866 0.211105 0.22103 0.230643 0.239942 0.248929 0.257479 0.265469 0.2729 0.279771 0.286083 0.291835 0.297028 0.301661 0.305713 0.309164 0.312013 0.314261 0.315908 0.316953 0.317397 0.31724 0.316537 0.315345 0.313665 0.311496 0.308838 0.305691 0.302055 0.29793 0.293413 0.2886 0.283492 0.278088 0.272388 0.266393 0.260102 0.253516 0.246735 0.239861 0.232894 0.225834 0.218681 0.211436 0.204097 0.196665 0.189221 0.181845 0.174536 0.167295 0.160123 0.153018 0.145981 0.139012 0.132158 0.125468 0.118942 0.112579 0.10638 0.100343 0.094471 0.0887619 0.083233 0.0779008 0.0727654 0.0678268 0.063085 0.0585399 0.0541917 0.0500402 0.0460808 0.0423088 0.0387243 0.0353272 0.0321176 0.0290953 0.0262606 0.0236132 0.0211383 0.0188208 0.0166608 0.0146583 0.0128132 0.0111255 0.00959532 0.00822258 0.00698565 0.00586286 0.00485422 0.00395973 0.00317939 0.0025132 0.00196116 0.00152326 0.00116625 0.000856836 0.000595025 0.000380816 0.000214209 9.52041e-05 2.3801e-05 0 0 0.000348282 0.00139313 0.00313454 0.00557252 0.00870706 0.0125382 0.0170658 0.0222901 0.0282068 0.0348118 0.0421051 0.0500868 0.0587569 0.0681152 0.0781619 0.088897 0.100048 0.111343 0.122782 0.134364 0.14609 0.15796 0.169974 0.182131 0.194192 0.205914 0.217298 0.228344 0.239052 0.249421 0.259453 0.269146 0.278369 0.286989 0.295007 0.302421 0.309233 0.315443 0.321049 0.326053 0.330432 0.334162 0.337245 0.33968 0.341467 0.342606 0.343097 0.34294 0.342196 0.340924 0.339125 0.336799 0.333945 0.330565 0.326657 0.322221 0.317362 0.312184 0.306685 0.300867 0.294