<?xml version="1.0"?> 
<VTKFile type="StructuredGrid" version="0.1"> 
<StructuredGrid WholeExtent="0 128 0 128 0 0"> 
<Piece Extent="0 128 0 128 0 0"> 
<PointData>
<DataArray type="Float32" Name="u" format="ascii" NumberOfComponents="1"> 
0 0 0 0 0 0 0 0 0 0 0 0 0 0 0 0 0 0 0 0 0 0 0 0 0 0 0 0 0 0 0 0 0 0 0 0 0 0 0 0 0 0 0 0 0 0 0 0 0 0 0 0 0 0 0 0 0 0 0 0 0 0 0 0 0 0 0 0 0 0 0 0 0 0 0 0 0 0 0 0 0 0 0 0 0 0 0 0 0 0 0 0 0 0 0 0 0 0 0 0 0 0 0 0 0 0 0 0 0 0 0 0 0 0 0 0 0 0 0 0 0 0 0 0 0 0 0 0 0 0 -1.64431e-07 -6.57723e-07 -1.47988e-06 -2.63089e-06 -4.11077e-06 -5.9195e-06 -8.0571e-06 -1.05236e-05 -1.31475e-05 -1.57574e-05 -1.83534e-05 -2.09353e-05 -2.35033e-05 -2.60574e-05 -2.85974e-05 -3.11235e-05 -3.34704e-05 -3.54726e-05 -3.71303e-05 -3.84434e-05 -3.9412e-05 -4.0036e-05 -4.03155e-05 -4.02504e-05 -3.99359e-05 -3.94672e-05 -3.88444e-05 -3.80674e-05 -3.71363e-05 -3.6051e-05 -3.48115e-05 -3.34178e-05 -3.20692e-05 -3.09646e-05 -3.01043e-05 -2.94881e-05 -2.9116e-05 -2.89881e-05 -2.91044e-05 -2.94648e-05 -3.01178e-05 -3.11118e-05 -3.24469e-05 -3.41229e-05 -3.61399e-05 -3.8498e-05 -4.11971e-05 -4.42372e-05 -4.7445e-05 -5.06474e-05 -5.38443e-05 -5.70357e-05 -6.02216e-05 -6.3402e-05 -6.6577e-05 -6.97464e-05 -7.27096e-05 -7.52657e-05 -7.74146e-05 -7.91565e-05 -8.04912e-05 -8.14188e-05 -8.19393e-05 -8.20528e-05 -8.17634e-05 -8.10758e-05 -7.99898e-05 -7.85055e-05 -7.66228e-05 -7.43418e-05 -7.16624e-05 -6.85847e-05 -6.53098e-05 -6.20389e-05 -5.8772e-05 -5.5509e-05 -5.225e-05 -4.8995e-05 -4.57439e-05 -4.24968e-05 -3.94171e-05 -3.66682e-05 -3.42501e-05 -3.21627e-05 -3.04062e-05 -2.89804e-05 -2.78854e-05 -2.71212e-05 -2.6638e-05 -2.6386e-05 -2.63652e-05 -2.65757e-05 -2.70174e-05 -2.76903e-05 -2.85944e-05 -2.97298e-05 -3.09135e-05 -3.19625e-05 -3.2877e-05 -3.36569e-05 -3.43021e-05 -3.48128e-05 -3.51888e-05 -3.54303e-05 -3.54543e-05 -3.51782e-05 -3.46019e-05 -3.37254e-05 -3.25487e-05 -3.10718e-05 -2.92948e-05 -2.72175e-05 -2.49864e-05 -2.27476e-05 -2.05011e-05 -1.8247e-05 -1.59853e-05 -1.37159e-05 -1.14388e-05 -9.15412e-06 -7.00862e-06 -5.14919e-06 -3.57583e-06 -2.28853e-06 -1.2873e-06 -5.72132e-07 -1.43033e-07 0 0 -6.57723e-07 -2.63089e-06 -5.9195e-06 -1.05236e-05 -1.64431e-05 -2.3678e-05 -3.22284e-05 -4.20942e-05 -5.25899e-05 -6.30296e-05 -7.34134e-05 -8.37413e-05 -9.40134e-05 -0.00010423 -0.00011439 -0.000124494 -0.000133881 -0.00014189 -0.000148521 -0.000153774 -0.000157648 -0.000160144 -0.000161262 -0.000161001 -0.000159744 -0.000157869 -0.000155378 -0.00015227 -0.000148545 -0.000144204 -0.000139246 -0.000133671 -0.000128277 -0.000123859 -0.000120417 -0.000117952 -0.000116464 -0.000115953 -0.000116418 -0.000117859 -0.000120471 -0.000124447 -0.000129787 -0.000136492 -0.00014456 -0.000153992 -0.000164788 -0.000176949 -0.00018978 -0.00020259 -0.000215377 -0.000228143 -0.000240886 -0.000253608 -0.000266308 -0.000278986 -0.000290838 -0.000301063 -0.000309658 -0.000316626 -0.000321965 -0.000325675 -0.000327757 -0.000328211 -0.000327054 -0.000324303 -0.000319959 -0.000314022 -0.000306491 -0.000297367 -0.00028665 -0.000274339 -0.000261239 -0.000248156 -0.000235088 -0.000222036 -0.000209 -0.00019598 -0.000182976 -0.000169987 -0.000157669 -0.000146673 -0.000137 -0.000128651 -0.000121625 -0.000115922 -0.000111542 -0.000108485 -0.000106552 -0.000105544 -0.000105461 -0.000106303 -0.000108069 -0.000110761 -0.000114378 -0.000118919 -0.000123654 -0.00012785 -0.000131508 -0.000134627 -0.000137208 -0.000139251 -0.000140755 -0.000141721 -0.000141817 -0.000140713 -0.000138407 -0.000134901 -0.000130195 -0.000124287 -0.000117179 -0.00010887 -9.99455e-05 -9.09903e-05 -8.20045e-05 -7.29881e-05 -6.39411e-05 -5.48635e-05 -4.57553e-05 -3.66165e-05 -2.80345e-05 -2.05968e-05 -1.43033e-05 -9.15412e-06 -5.14919e-06 -2.28853e-06 -5.72132e-07 0 0 -1.47988e-06 -5.9195e-06 -1.33189e-05 -2.3678e-05 -3.69969e-05 -5.32755e-05 -7.25139e-05 -9.4712e-05 -0.000118327 -0.000141817 -0.00016518 -0.000188418 -0.00021153 -0.000234516 -0.000257377 -0.000280112 -0.000301233 -0.000319254 -0.000334173 -0.000345991 -0.000354708 -0.000360324 -0.000362839 -0.000362253 -0.000359423 -0.000355205 -0.0003496 -0.000342607 -0.000334227 -0.000324459 -0.000313303 -0.00030076 -0.000288622 -0.000278682 -0.000270939 -0.000265393 -0.000262044 -0.000260893 -0.00026194 -0.000265183 -0.00027106 -0.000280006 -0.000292022 -0.000307106 -0.00032526 -0.000346482 -0.000370774 -0.000398135 -0.000427005 -0.000455827 -0.000484599 -0.000513321 -0.000541994 -0.000570618 -0.000599193 -0.000627718 -0.000654386 -0.000677391 -0.000696731 -0.000712408 -0.000724421 -0.000732769 -0.000737454 -0.000738475 -0.000735871 -0.000729682 -0.000719908 -0.000706549 -0.000689605 -0.000669076 -0.000644962 -0.000617262 -0.000587788 -0.00055835 -0.000528948 -0.000499581 -0.00047025 -0.000440955 -0.000411695 -0.000382472 -0.000354754 -0.000330014 -0.000308251 -0.000289465 -0.000273655 -0.000260823 -0.000250968 -0.000244091 -0.000239742 -0.000237474 -0.000237287 -0.000239181 -0.000243156 -0.000249213 -0.00025735 -0.000267568 -0.000278221 -0.000287663 -0.000295893 -0.000302912 -0.000308719 -0.000313315 -0.000316699 -0.000318872 -0.000319089 -0.000316604 -0.000311417 -0.000303528 -0.000292938 -0.000279646 -0.000263653 -0.000244958 -0.000224877 -0.000204728 -0.00018451 -0.000164223 -0.000143867 -0.000123443 -0.000102949 -8.23871e-05 -6.30776e-05 -4.63427e-05 -3.21824e-05 -2.05968e-05 -1.15857e-05 -5.14919e-06 -1.2873e-06 0 0 -2.63089e-06 -1.05236e-05 -2.3678e-05 -4.20942e-05 -6.57723e-05 -9.4712e-05 -0.000128914 -0.000168377 -0.000210359 -0.000252118 -0.000293654 -0.000334965 -0.000376054 -0.000416918 -0.000457559 -0.000497977 -0.000535526 -0.000567562 -0.000594085 -0.000615095 -0.000630592 -0.000640576 -0.000645048 -0.000644006 -0.000638974 -0.000631476 -0.000621511 -0.000609079 -0.00059418 -0.000576815 -0.000556984 -0.000534685 -0.000513106 -0.000495434 -0.000481669 -0.000471809 -0.000465857 -0.00046381 -0.000465671 -0.000471437 -0.000481885 -0.000497789 -0.00051915 -0.000545966 -0.000578239 -0.000615968 -0.000659153 -0.000707795 -0.000759121 -0.000810359 -0.000861509 -0.000912571 -0.000963546 -0.00101443 -0.00106523 -0.00111594 -0.00116335 -0.00120425 -0.00123863 -0.0012665 -0.00128786 -0.0013027 -0.00131103 -0.00131284 -0.00130822 -0.00129721 -0.00127984 -0.00125609 -0.00122596 -0.00118947 -0.0011466 -0.00109736 -0.00104496 -0.000992623 -0.000940352 -0.000888144 -0.000836 -0.00078392 -0.000731903 -0.00067995 -0.000630674 -0.000586692 -0.000548001 -0.000514604 -0.000486499 -0.000463686 -0.000446166 -0.000433939 -0.000426207 -0.000422176 -0.000421843 -0.000425211 -0.000432278 -0.000443045 -0.000457511 -0.000475677 -0.000494615 -0.000511401 -0.000526032 -0.00053851 -0.000548834 -0.000557004 -0.000563021 -0.000566884 -0.000567269 -0.000562851 -0.00055363 -0.000539606 -0.000520779 -0.000497149 -0.000468716 -0.00043548 -0.000399782 -0.000363961 -0.000328018 -0.000291952 -0.000255764 -0.000219454 -0.000183021 -0.000146466 -0.000112138 -8.23871e-05 -5.72132e-05 -3.66165e-05 -2.05968e-05 -9.15412e-06 -2.28853e-06 0 0 -4.11077e-06 -1.64431e-05 -3.69969e-05 -6.57723e-05 -0.000102769 -0.000147988 -0.000201428 -0.000263089 -0.000328687 -0.000393935 -0.000458834 -0.000523383 -0.000587584 -0.000651435 -0.000714936 -0.000778088 -0.000836759 -0.000886815 -0.000928258 -0.000961086 -0.000985301 -0.0010009 -0.00100789 -0.00100626 -0.000998397 -0.000986681 -0.00097111 -0.000951686 -0.000928407 -0.000901274 -0.000870287 -0.000835445 -0.000801729 -0.000774116 -0.000752607 -0.000737202 -0.000727901 -0.000724704 -0.00072761 -0.000736621 -0.000752946 -0.000777796 -0.000811171 -0.000853072 -0.000903499 -0.00096245 -0.00102993 -0.00110593 -0.00118613 -0.00126619 -0.00134611 -0.00142589 -0.00150554 -0.00158505 -0.00166442 -0.00174366 -0.00181774 -0.00188164 -0.00193537 -0.00197891 -0.00201228 -0.00203547 -0.00204848 -0.00205132 -0.00204409 -0.00202689 -0.00199975 -0.00196264 -0.00191557 -0.00185854 -0.00179156 -0.00171462 -0.00163275 -0.00155097 -0.0014693 -0.00138773 -0.00130625 -0.00122487 -0.0011436 -0.00106242 -0.000985429 -0.000916706 -0.000856252 -0.000804068 -0.000760154 -0.00072451 -0.000697135 -0.000678029 -0.000665949 -0.000659649 -0.00065913 -0.000664392 -0.000675434 -0.000692257 -0.000714861 -0.000743245 -0.000772837 -0.000799063 -0.000821925 -0.000841422 -0.000857553 -0.000870319 -0.00087972 -0.000885756 -0.000886358 -0.000879454 -0.000865046 -0.000843134 -0.000813717 -0.000776795 -0.000732369 -0.000680438 -0.000624659 -0.000568689 -0.000512528 -0.000456176 -0.000399632 -0.000342897 -0.000285971 -0.000228853 -0.000175216 -0.00012873 -8.93957e-05 -5.72132e-05 -3.21824e-05 -1.43033e-05 -3.57583e-06 0 0 -5.9195e-06 -2.3678e-05 -5.32755e-05 -9.4712e-05 -0.000147988 -0.000213102 -0.000290056 -0.000378848 -0.000473309 -0.000567266 -0.000660721 -0.000753672 -0.00084612 -0.000938066 -0.00102951 -0.00112045 -0.00120493 -0.00127701 -0.00133669 -0.00138396 -0.00141883 -0.0014413 -0.00145136 -0.00144901 -0.00143769 -0.00142082 -0.0013984 -0.00137043 -0.00133691 -0.00129783 -0.00125321 -0.00120304 -0.00115449 -0.00111473 -0.00108375 -0.00106157 -0.00104818 -0.00104357 -0.00104776 -0.00106073 -0.00108424 -0.00112003 -0.00116809 -0.00122842 -0.00130104 -0.00138593 -0.0014831 -0.00159254 -0.00170802 -0.00182331 -0.00193839 -0.00205329 -0.00216798 -0.00228247 -0.00239677 -0.00251087 -0.00261755 -0.00270956 -0.00278693 -0.00284963 -0.00289768 -0.00293108 -0.00294982 -0.0029539 -0.00294348 -0.00291873 -0.00287963 -0.0028262 -0.00275842 -0.0026763 -0.00257985 -0.00246905 -0.00235115 -0.0022334 -0.00211579 -0.00199832 -0.001881 -0.00176382 -0.00164678 -0.00152989 -0.00141902 -0.00132006 -0.001233 -0.00115786 -0.00109462 -0.00104329 -0.00100387 -0.000976362 -0.000958966 -0.000949895 -0.000949148 -0.000956724 -0.000972625 -0.00099685 -0.0010294 -0.00107027 -0.00111288 -0.00115065 -0.00118357 -0.00121165 -0.00123488 -0.00125326 -0.0012668 -0.00127549 -0.00127636 -0.00126641 -0.00124567 -0.00121411 -0.00117175 -0.00111858 -0.00105461 -0.000979831 -0.00089951 -0.000818913 -0.000738041 -0.000656893 -0.00057547 -0.000493771 -0.000411798 -0.000329548 -0.00025231 -0.000185371 -0.00012873 -8.23871e-05 -4.63427e-05 -2.05968e-05 -5.14919e-06 0 0 -8.0571e-06 -3.22284e-05 -7.25139e-05 -0.000128914 -0.000201428 -0.000290056 -0.000394798 -0.000515654 -0.000644226 -0.000772112 -0.000899314 -0.00102583 -0.00115166 -0.00127681 -0.00140127 -0.00152505 -0.00164005 -0.00173816 -0.00181939 -0.00188373 -0.00193119 -0.00196177 -0.00197546 -0.00197227 -0.00195686 -0.00193389 -0.00190338 -0.0018653 -0.00181968 -0.0017665 -0.00170576 -0.00163747 -0.00157139 -0.00151727 -0.00147511 -0.00144492 -0.00142669 -0.00142042 -0.00142612 -0.00144378 -0.00147577 -0.00152448 -0.0015899 -0.00167202 -0.00177086 -0.0018864 -0.00201866 -0.00216762 -0.00232481 -0.00248172 -0.00263837 -0.00279475 -0.00295086 -0.0031067 -0.00326227 -0.00341758 -0.00356277 -0.00368802 -0.00379332 -0.00387867 -0.00394407 -0.00398952 -0.00401503 -0.00402059 -0.00400641 -0.00397271 -0.0039195 -0.00384677 -0.00375452 -0.00364275 -0.00351146 -0.00336065 -0.00320018 -0.00303991 -0.00287983 -0.00271994 -0.00256025 -0.00240075 -0.00224145 -0.00208235 -0.00193144 -0.00179674 -0.00167825 -0.00157597 -0.0014899 -0.00142004 -0.00136638 -0.00132894 -0.00130526 -0.00129291 -0.0012919 -0.00130221 -0.00132385 -0.00135682 -0.00140113 -0.00145676 -0.00151476 -0.00156616 -0.00161097 -0.00164919 -0.0016808 -0.00170583 -0.00172425 -0.00173608 -0.00173726 -0.00172373 -0.00169549 -0.00165254 -0.00159488 -0.00152252 -0.00143544 -0.00133366 -0.00122433 -0.00111463 -0.00100456 -0.000894104 -0.000783279 -0.000672078 -0.000560502 -0.000448552 -0.000343422 -0.00025231 -0.000175216 -0.000112138 -6.30776e-05 -2.80345e-05 -7.00862e-06 0 0 -1.05236e-05 -4.20942e-05 -9.4712e-05 -0.000168377 -0.000263089 -0.000378848 -0.000515654 -0.000673508 -0.000841438 -0.00100847 -0.00117461 -0.00133986 -0.00150421 -0.00166767 -0.00183024 -0.00199191 -0.0021421 -0.00227025 -0.00237634 -0.00246038 -0.00252237 -0.00256231 -0.00258019 -0.00257602 -0.0025559 -0.0025259 -0.00248604 -0.00243632 -0.00237672 -0.00230726 -0.00222793 -0.00213874 -0.00205243 -0.00198174 -0.00192667 -0.00188724 -0.00186343 -0.00185524 -0.00186268 -0.00188575 -0.00192754 -0.00199116 -0.0020766 -0.00218387 -0.00231296 -0.00246387 -0.00263661 -0.00283118 -0.00303648 -0.00324143 -0.00344603 -0.00365028 -0.00385418 -0.00405773 -0.00426093 -0.00446377 -0.00465341 -0.004817 -0.00495453 -0.00506601 -0.00515144 -0.0052108 -0.00524412 -0.00525138 -0.00523286 -0.00518885 -0.00511935 -0.00502435 -0.00490386 -0.00475787 -0.00458639 -0.00438942 -0.00417983 -0.00397049 -0.00376141 -0.00355258 -0.003344 -0.00313568 -0.00292761 -0.0027198 -0.0025227 -0.00234677 -0.00219201 -0.00205841 -0.00194599 -0.00185474 -0.00178466 -0.00173575 -0.00170483 -0.0016887 -0.00168737 -0.00170084 -0.00172911 -0.00177218 -0.00183004 -0.00190271 -0.00197846 -0.0020456 -0.00210413 -0.00215404 -0.00219534 -0.00222802 -0.00225208 -0.00226754 -0.00226908 -0.0022514 -0.00221452 -0.00215842 -0.00208311 -0.0019886 -0.00187486 -0.00174192 -0.00159913 -0.00145584 -0.00131207 -0.00116781 -0.00102306 -0.000877816 -0.000732085 -0.000585863 -0.000448552 -0.000329548 -0.000228853 -0.000146466 -8.23871e-05 -3.66165e-05 -9.15412e-06 0 0 -1.3161e-05 -5.26441e-05 -0.000118449 -0.000210576 -0.000329025 -0.000473797 -0.00064489 -0.000842305 -0.00105216 -0.00126059 -0.00146759 -0.00167315 -0.00187728 -0.00207997 -0.00228123 -0.00248106 -0.00266622 -0.00282346 -0.00295279 -0.0030542 -0.0031277 -0.00317329 -0.00319096 -0.00318071 -0.00315035 -0.00310767 -0.00305267 -0.00298534 -0.0029057 -0.00281373 -0.00270945 -0.00259284 -0.00248006 -0.00238727 -0.00231446 -0.00226164 -0.00222881 -0.00221595 -0.00222309 -0.0022502 -0.00230121 -0.00238 -0.00248658 -0.00262094 -0.0027831 -0.00297304 -0.00319077 -0.00343629 -0.00369552 -0.0039544 -0.00421293 -0.00447111 -0.00472893 -0.0049864 -0.00524352 -0.00550029 -0.00574041 -0.00594759 -0.00612183 -0.00626313 -0.0063715 -0.00644692 -0.00648941 -0.00649896 -0.00647592 -0.00642064 -0.00633312 -0.00621335 -0.00606135 -0.00587711 -0.00566062 -0.0054119 -0.00514725 -0.00488298 -0.00461909 -0.00435559 -0.00409247 -0.00382973 -0.00356737 -0.0033054 -0.00305709 -0.00283569 -0.00264122 -0.00247366 -0.00233303 -0.00221932 -0.00213254 -0.00207267 -0.00203572 -0.00201766 -0.00201851 -0.00203825 -0.00207689 -0.00213444 -0.00221088 -0.00230622 -0.00240562 -0.00249426 -0.00257212 -0.00263921 -0.00269553 -0.00274108 -0.00277585 -0.00279985 -0.0028063 -0.00278842 -0.00274619 -0.00267963 -0.00258873 -0.0024735 -0.00233392 -0.00217001 -0.00199349 -0.00181607 -0.00163777 -0.00145857 -0.00127848 -0.00109749 -0.000915617 -0.000732851 -0.000561089 -0.000412228 -0.00028627 -0.000183213 -0.000103057 -4.58032e-05 -1.14508e-05 0 0 -1.58116e-05 -6.32464e-05 -0.000142304 -0.000252985 -0.00039529 -0.000569217 -0.000774768 -0.00101194 -0.00126363 -0.00151271 -0.00175919 -0.00200307 -0.00224435 -0.00248303 -0.00271911 -0.00295258 -0.00316752 -0.00334798 -0.00349397 -0.00360548 -0.00368251 -0.00372508 -0.00373316 -0.00370677 -0.00365577 -0.00359002 -0.00350952 -0.00341427 -0.00330427 -0.00317952 -0.00304001 -0.00288576 -0.00273676 -0.002613 -0.0025145 -0.00244124 -0.00239323 -0.00237047 -0.00237296 -0.0024007 -0.00245844 -0.00255094 -0.00267821 -0.00284025 -0.00303705 -0.00326861 -0.00353493 -0.00383602 -0.0041544 -0.00447259 -0.00479061 -0.00510844 -0.00542609 -0.00574355 -0.00606084 -0.00637794 -0.00667467 -0.00693084 -0.00714644 -0.00732148 -0.00745596 -0.00754988 -0.00760323 -0.00761602 -0.00758866 -0.00752157 -0.00741475 -0.00726819 -0.0070819 -0.00685587 -0.00659011 -0.00628462 -0.00595958 -0.00563518 -0.00531143 -0.00498832 -0.00466586 -0.00434404 -0.00402286 -0.00370233 -0.00339891 -0.00312908 -0.00289285 -0.0026902 -0.00252115 -0.00238569 -0.00228382 -0.00221555 -0.00217597 -0.00216019 -0.00216822 -0.00220005 -0.00225568 -0.00233512 -0.00243836 -0.0025654 -0.00269788 -0.00281742 -0.00292403 -0.0030177 -0.00309844 -0.00316624 -0.00322111 -0.00326304 -0.00328345 -0.00327375 -0.00323395 -0.00316404 -0.00306402 -0.0029339 -0.00277367 -0.00258333 -0.00237701 -0.00216884 -0.00195881 -0.00174693 -0.0015332 -0.00131761 -0.00110017 -0.00088088 -0.000674424 -0.000495495 -0.000344094 -0.00022022 -0.000123874 -5.5055e-05 -1.37637e-05 0 0 -1.84753e-05 -7.39012e-05 -0.000166278 -0.000295605 -0.000461882 -0.000665111 -0.000905289 -0.00118242 -0.00147582 -0.00176483 -0.00204943 -0.00232964 -0.00260544 -0.00287685 -0.00314385 -0.00340646 -0.003646 -0.0038438 -0.00399987 -0.00411421 -0.00418681 -0.00421767 -0.00420681 -0.0041542 -0.00407216 -0.00397296 -0.0038566 -0.00372309 -0.00357243 -0.00340461 -0.00321964 -0.00301751 -0.00282251 -0.00265893 -0.00252677 -0.00242603 -0.0023567 -0.00231879 -0.0023123 -0.00233722 -0.00239923 -0.00250399 -0.00265151 -0.00284178 -0.0030748 -0.00335057 -0.00366909 -0.00403037 -0.00441311 -0.004796 -0.00517906 -0.00556227 -0.00594565 -0.00632918 -0.00671288 -0.00709674 -0.00745621 -0.00776675 -0.00802837 -0.00824106 -0.00840483 -0.00851967 -0.00858558 -0.00860256 -0.0085711 -0.00849166 -0.00836425 -0.00818886 -0.0079655 -0.00769417 -0.00737486 -0.00700758 -0.00661683 -0.00622712 -0.00583844 -0.00545079 -0.00506418 -0.00467861 -0.00429407 -0.00391056 -0.00354816 -0.00322694 -0.0029469 -0.00270804 -0.00251035 -0.00235385 -0.00223853 -0.00216438 -0.00212558 -0.00211629 -0.00213651 -0.00218624 -0.00226548 -0.00237423 -0.00251249 -0.00268026 -0.00285523 -0.0030151 -0.00315986 -0.00328952 -0.00340407 -0.00350351 -0.00358786 -0.00365709 -0.00370051 -0.00370741 -0.00367779 -0.00361165 -0.00350899 -0.0033698 -0.00319409 -0.00298186 -0.00274969 -0.00251413 -0.00227521 -0.00203291 -0.00178723 -0.00153818 -0.00128575 -0.00102995 -0.000788557 -0.000579348 -0.000402325 -0.000257488 -0.000144837 -6.4372e-05 -1.6093e-05 0 0 -2.11521e-05 -8.46085e-05 -0.000190369 -0.000338434 -0.000528803 -0.000761476 -0.00103645 -0.00135374 -0.00168876 -0.00201695 -0.00233831 -0.00265284 -0.00296055 -0.00326143 -0.00355548 -0.0038427 -0.00410166 -0.00431093 -0.0044705 -0.00458039 -0.00464058 -0.00465108 -0.00461189 -0.004523 -0.00439951 -0.00425648 -0.00409391 -0.00391181 -0.00371018 -0.00348902 -0.00324832 -0.00298808 -0.00273733 -0.00252506 -0.00235129 -0.00221601 -0.00211922 -0.00206092 -0.00204111 -0.00205979 -0.00212359 -0.00223915 -0.00240646 -0.00262553 -0.00289635 -0.00321893 -0.00359326 -0.00401935 -0.00447165 -0.00492463 -0.00537828 -0.00583261 -0.00628761 -0.00674329 -0.00719964 -0.00765667 -0.00808502 -0.00845534 -0.00876762 -0.00902188 -0.0092181 -0.00935629 -0.00943645 -0.00945858 -0.00942322 -0.00933089 -0.00918161 -0.00897536 -0.00871216 -0.00839199 -0.00801487 -0.00758079 -0.007119 -0.00665878 -0.00620011 -0.00574299 -0.00528744 -0.00483344 -0.00438099 -0.00393011 -0.00350484 -0.00312926 -0.00280337 -0.00252716 -0.00230063 -0.00212379 -0.00199664 -0.00191917 -0.00188455 -0.00188596 -0.00192338 -0.00199682 -0.00210628 -0.00225176 -0.00243327 -0.00265079 -0.00287768 -0.00308728 -0.00327961 -0.00345465 -0.00361242 -0.0037529 -0.00387609 -0.00398201 -0.0040575 -0.0040894 -0.00407772 -0.00402247 -0.00392363 -0.00378121 -0.0035952 -0.00336562 -0.00311152 -0.00285197 -0.00258695 -0.00231649 -0.00204057 -0.00175919 -0.00147235 -0.00118007 -0.000903488 -0.000663787 -0.000460963 -0.000295016 -0.000165947 -7.37541e-05 -1.84385e-05 0 0 -2.38421e-05 -9.53683e-05 -0.000214579 -0.000381473 -0.000596052 -0.000858315 -0.00116826 -0.00152589 -0.00190242 -0.00226907 -0.00262582 -0.00297269 -0.00330967 -0.00363677 -0.00395398 -0.0042613 -0.0045345 -0.00474936 -0.00490586 -0.00500402 -0.00504383 -0.0050253 -0.00494841 -0.00481317 -0.00463782 -0.00444058 -0.00422145 -0.00398043 -0.00371753 -0.00343273 -0.00312605 -0.00279748 -0.0024812 -0.00221139 -0.00198805 -0.00181118 -0.00168078 -0.00159685 -0.00155938 -0.00156839 -0.00163151 -0.00175641 -0.00194307 -0.00219151 -0.00250172 -0.00287369 -0.00330744 -0.00380296 -0.00433004 -0.00485848 -0.00538829 -0.00591946 -0.00645199 -0.00698588 -0.00752113 -0.00805775 -0.00856111 -0.00899659 -0.00936419 -0.00966392 -0.00989578 -0.0100598 -0.0101559 -0.0101841 -0.010145 -0.0100393 -0.00986683 -0.0096277 -0.00932187 -0.00894935 -0.00851014 -0.00800424 -0.00746609 -0.00693016 -0.00639644 -0.00586492 -0.00533562 -0.00480853 -0.00428364 -0.00376097 -0.00326896 -0.00283605 -0.00246226 -0.00214757 -0.001892 -0.00169553 -0.00155817 -0.00147992 -0.00145289 -0.00146919 -0.00152883 -0.0016318 -0.00177809 -0.00196773 -0.00220069 -0.00247698 -0.00276521 -0.00303398 -0.00328328 -0.00351311 -0.00372348 -0.00391438 -0.00408582 -0.0042378 -0.0043544 -0.00441971 -0.00443374 -0.00439648 -0.00430794 -0.00416811 -0.003977 -0.0037346 -0.00346252 -0.00318233 -0.00289405 -0.00259768 -0.00229321 -0.00198064 -0.00165998 -0.00133122 -0.00101922 -0.000748812 -0.000520009 -0.000332805 -0.000187203 -8.32014e-05 -2.08003e-05 0 0 -2.65452e-05 -0.000106181 -0.000238906 -0.000424723 -0.000663629 -0.000955626 -0.00130071 -0.00169889 -0.00211682 -0.00252118 -0.00291197 -0.00328918 -0.00365281 -0.00400287 -0.00433935 -0.00466226 -0.00494453 -0.00515909 -0.00530595 -0.00538511 -0.00539657 -0.00534032 -0.00521637 -0.00502471 -0.0047871 -0.00452527 -0.00423922 -0.00392895 -0.00359446 -0.00323576 -0.00285284 -0.00244571 -0.00205414 -0.00171792 -0.00143706 -0.00121155 -0.00104139 -0.00092658 -0.000867126 -0.000863024 -0.000922998 -0.00105577 -0.00126134 -0.00153971 -0.00189088 -0.00231485 -0.00281162 -0.00338118 -0.00398826 -0.00459755 -0.00520907 -0.00582281 -0.00643877 -0.00705695 -0.00767734 -0.00829997 -0.00888447 -0.0093905 -0.00981808 -0.0101672 -0.0104379 -0.0106301 -0.0107438 -0.0107791 -0.0107365 -0.0106168 -0.0104199 -0.0101459 -0.00979464 -0.00936624 -0.00886067 -0.00827793 -0.0076581 -0.00704127 -0.00642743 -0.00581658 -0.00520873 -0.00460388 -0.00400201 -0.00340315 -0.0028405 -0.00234731 -0.00192357 -0.00156928 -0.00128444 -0.00106905 -0.000923111 -0.000846625 -0.000830588 -0.000865998 -0.000952856 -0.00109116 -0.00128091 -0.00152211 -0.00181476 -0.00215885 -0.00251785 -0.00285518 -0.00317086 -0.00346489 -0.00373726 -0.00398798 -0.00421704 -0.00442445 -0.00459121 -0.00469834 -0.00474584 -0.0047337 -0.00466193 -0.00453052 -0.00433948 -0.00408881 -0.00380267 -0.00350523 -0.0031965 -0.00287648 -0.00254516 -0.00220254 -0.00184863 -0.00148342 -0.00113574 -0.000834424 -0.000579461 -0.000370855 -0.000208606 -9.27138e-05 -2.31784e-05 0 0 -2.92614e-05 -0.000117045 -0.000263352 -0.000468182 -0.000731534 -0.00105341 -0.00143381 -0.00187273 -0.00233196 -0.0027733 -0.00319675 -0.0036023 -0.00398996 -0.00435973 -0.0047116 -0.00504558 -0.00533173 -0.00554013 -0.00567077 -0.00572365 -0.00569878 -0.00559615 -0.00541577 -0.00515762 -0.00484734 -0.00451054 -0.00414721 -0.00375736 -0.00334099 -0.0028981 -0.00242869 -0.00193276 -0.00145613 -0.00104465 -0.000698305 -0.000417102 -0.00020104 -5.01185e-05 3.56624e-05 5.63026e-05 1.95234e-06 -0.000137238 -0.00036127 -0.000670142 -0.00106385 -0.00154241 -0.0021058 -0.00275403 -0.00344631 -0.00414185 -0.00484063 -0.00554266 -0.00624795 -0.00695649 -0.00766828 -0.00838332 -0.0090551 -0.00963709 -0.0101293 -0.0105317 -0.0108443 -0.0110672 -0.0112002 -0.0112435 -0.0111977 -0.0110635 -0.0108409 -0.0105299 -0.0101305 -0.00964266 -0.00906646 -0.00840186 -0.00769502 -0.0069921 -0.00629308 -0.00559797 -0.00490677 -0.00421948 -0.00353611 -0.00285664 -0.00221948 -0.00166303 -0.0011873 -0.000792273 -0.00047796 -0.000244358 -9.14678e-05 -1.92886e-05 -1.76477e-05 -7.63724e-05 -0.000195463 -0.000374918 -0.00061474 -0.000914926 -0.00127548 -0.0016964 -0.00213557 -0.0025509 -0.00294237 -0.00330999 -0.00365376 -0.00397368 -0.00426975 -0.00454197 -0.00476795 -0.0049253 -0.00501403 -0.00503412 -0.00498559 -0.00486843 -0.00468265 -0.00442823 -0.00413198 -0.00382067 -0.0034943 -0.00315289 -0.00279641 -0.00242488 -0.0020383 -0.00163666 -0.00125307 -0.000920622 -0.000639321 -0.000409165 -0.000230156 -0.000102291 -2.55728e-05 0 0 -3.19907e-05 -0.000127963 -0.000287916 -0.000511851 -0.000799767 -0.00115166 -0.00156754 -0.0020474 -0.00254783 -0.00302542 -0.00348017 -0.00391207 -0.00432113 -0.00470735 -0.00507073 -0.00541126 -0.00569612 -0.00589247 -0.00600032 -0.00601965 -0.00595048 -0.00579279 -0.0055466 -0.0052119 -0.00481855 -0.00439639 -0.00394543 -0.00346568 -0.00295712 -0.00241976 -0.0018536 -0.00125863 -0.000687187 -0.000191574 0.000228205 0.00057215 0.000840261 0.00103254 0.00114898 0.00118959 0.00114334 0.00099919 0.000757145 0.000417205 -2.06308e-05 -0.000556362 -0.00118999 -0.00192151 -0.00270421 -0.00349136 -0.00428296 -0.00507903 -0.00587954 -0.00668451 -0.00749394 -0.00830782 -0.00907301 -0.00973634 -0.0102978 -0.0107574 -0.0111152 -0.0113712 -0.0115252 -0.0115775 -0.0115286 -0.0113793 -0.0111297 -0.0107797 -0.0103293 -0.0097786 -0.00912751 -0.00837604 -0.00757687 -0.00678265 -0.00599339 -0.00520909 -0.00442974 -0.00365535 -0.00288592 -0.00212144 -0.00140589 -0.000783222 -0.000253446 0.00018344 0.000527437 0.000778544 0.000936762 0.00100209 0.000985931 0.000899684 0.000743352 0.000516932 0.000220427 -0.000146166 -0.000582844 -0.00108961 -0.00161839 -0.00212112 -0.00259779 -0.00304841 -0.00347298 -0.00387149 -0.00424395 -0.00459036 -0.00488461 -0.00510059 -0.0052383 -0.00529775 -0.00527893 -0.00518185 -0.0050065 -0.00475288 -0.00445045 -0.00412864 -0.00378746 -0.0034269 -0.00304697 -0.00264767 -0.00222899 -0.00179094 -0.00137119 -0.00100741 -0.000699588 -0.000447736 -0.000251852 -0.000111934 -2.79835e-05 0 0 -3.45056e-05 -0.000138022 -0.000310551 -0.00055209 -0.000862641 -0.0012422 -0.00169078 -0.00220836 -0.00274614 -0.00325531 -0.00373587 -0.00418781 -0.00461114 -0.00500586 -0.00537196 -0.00570945 -0.0059827 -0.00615606 -0.00622953 -0.00620313 -0.00607684 -0.00585068 -0.00552463 -0.00509869 -0.00460737 -0.00408515 -0.00353203 -0.00294802 -0.0023331 -0.00168728 -0.00101057 -0.000302961 0.000376323 0.000968053 0.00147223 0.00188885 0.00221792 0.00245944 0.0026134 0.0026798 0.00264641 0.00250097 0.00224349 0.00187395 0.00139237 0.000798749 9.30772e-05 -0.000724641 -0.00160135 -0.002484 -0.00337258 -0.00426709 -0.00516754 -0.00607393 -0.00698625 -0.00790451 -0.00876848 -0.00951795 -0.0101529 -0.0106733 -0.0110793 -0.0113707 -0.0115476 -0.01161 -0.0115587 -0.0113944 -0.0111172 -0.010727 -0.0102239 -0.00960786 -0.00887885 -0.00803688 -0.00714155 -0.00625244 -0.00536953 -0.00449284 -0.00362237 -0.00275811 -0.00190006 -0.00104823 -0.000252527 0.000437141 0.00102077 0.00149836 0.00186992 0.00213543 0.00229491 0.00234835 0.00230843 0.0021878 0.00198648 0.00170446 0.00134175 0.000898334 0.000374224 -0.000230583 -0.000861667 -0.00146461 -0.0020394 -0.00258606 -0.00310456 -0.00359493 -0.00405715 -0.00449122 -0.00486698 -0.00515424 -0.00535299 -0.00546325 -0.00548501 -0.00541827 -0.00526303 -0.0050193 -0.00471909 -0.00439446 -0.00404541 -0.00367192 -0.003274 -0.00285165 -0.00240488 -0.00193367 -0.00148047 -0.00108769 -0.000755342 -0.000483419 -0.000271923 -0.000120855 -3.02137e-05 0 0 -3.65786e-05 -0.000146314 -0.000329208 -0.000585258 -0.000914465 -0.00131683 -0.00179235 -0.00234103 -0.00290859 -0.00344075 -0.00393751 -0.00439886 -0.00482482 -0.00521538 -0.00557054 -0.0058903 -0.00613646 -0.00627081 -0.00629337 -0.00620413 -0.00600308 -0.00569024 -0.00526559 -0.00472915 -0.00412047 -0.00347914 -0.00280515 -0.00209851 -0.00135921 -0.000587252 0.000217362 0.00105463 0.00185802 0.00256098 0.00316353 0.00366564 0.00406734 0.00436861 0.00456946 0.00466989 0.00465641 0.00451556 0.00424734 0.00385173 0.00332875 0.00267839 0.00190065 0.000995538 2.28365e-05 -0.000957664 -0.00194596 -0.00294206 -0.00394596 -0.00495765 -0.00597715 -0.00700444 -0.00797183 -0.0088116 -0.00952377 -0.0101083 -0.0105653 -0.0108946 -0.0110963 -0.0111704 -0.0111177 -0.010939 -0.0106343 -0.0102036 -0.00964692 -0.00896422 -0.00815552 -0.00722082 -0.006227 -0.00524095 -0.00426266 -0.00329213 -0.00232937 -0.00137438 -0.000427147 0.00051232 0.0013878 0.00214307 0.00277814 0.00329299 0.00368764 0.00396208 0.00411632 0.00415034 0.00407812 0.00391361 0.00365682 0.00330774 0.00286638 0.00233274 0.00170681 0.000988595 0.00023924 -0.000480112 -0.00116946 -0.00182881 -0.00245816 -0.0030575 -0.00362684 -0.00416618 -0.00464087 -0.0050163 -0.00529244 -0.00546931 -0.0055469 -0.00552522 -0.00540425 -0.00518402 -0.00489894 -0.00458347 -0.00423759 -0.00386132 -0.00345465 -0.00301759 -0.00255012 -0.00205226 -0.00157126 -0.00115439 -0.000801662 -0.000513064 -0.000288598 -0.000128266 -3.20665e-05 0 0 -3.82097e-05 -0.000152839 -0.000343887 -0.000611355 -0.000955242 -0.00137555 -0.00187227 -0.00244542 -0.00303517 -0.00358173 -0.00408508 -0.00454522 -0.00496217 -0.00533591 -0.00566646 -0.0059538 -0.0061574 -0.00623675 -0.00619183 -0.00602264 -0.00572919 -0.00531148 -0.0047695 -0.00410326 -0.00335785 -0.00257836 -0.0017648 -0.000917162 -3.5448e-05 0.000880341 0.00183021 0.00281415 0.0037579 0.00458722 0.00530209 0.00590253 0.00638852 0.00676007 0.00701718 0.00715985 0.00717335 0.00704297 0.0067687 0.00635054 0.00578849 0.00508256 0.00423274 0.00323903 0.00216835 0.00108764 -3.12683e-06 -0.00110393 -0.00221479 -0.00333568 -0.00446662 -0.00560761 -0.00668304 -0.00761731 -0.00841042 -0.00906237 -0.00957317 -0.00994281 -0.0101713 -0.0102586 -0.0102056 -0.010013 -0.00968099 -0.0092094 -0.0085983 -0.00784767 -0.00695752 -0.00592785 -0.00483321 -0.00374819 -0.00267277 -0.00160696 -0.000550759 0.000495838 0.00153283 0.00256021 0.0035151 0.00433458 0.00501866 0.00556734 0.00598062 0.00625849 0.00640097 0.00640805 0.006295 0.00607711 0.00575437 0.00532677 0.00479433 0.00415705 0.00341491 0.00256792 0.00168433 0.000832364 1.20282e-05 -0.000776679 -0.00153376 -0.0022592 -0.00295302 -0.00361521 -0.00420629 -0.00468676 -0.00505664 -0.00531592 -0.0054646 -0.00550268 -0.00543016 -0.00524704 -0.00498998 -0.00469564 -0.00436402 -0.00399512 -0.00358893 -0.00314547 -0.00266472 -0.00214669 -0.00164356 -0.00120751 -0.000838549 -0.000536672 -0.000301878 -0.000134168 -3.3542e-05 0 0 -3.93988e-05 -0.000157595 -0.000354589 -0.000630381 -0.00098497 -0.00