<?xml version="1.0"?> 
<VTKFile type="StructuredGrid" version="0.1"> 
<StructuredGrid WholeExtent="0 128 0 128 0 0"> 
<Piece Extent="0 128 0 128 0 0"> 
<PointData>
<DataArray type="Float32" Name="u" format="ascii" NumberOfComponents="1"> 
0 0 0 0 0 0 0 0 0 0 0 0 0 0 0 0 0 0 0 0 0 0 0 0 0 0 0 0 0 0 0 0 0 0 0 0 0 0 0 0 0 0 0 0 0 0 0 0 0 0 0 0 0 0 0 0 0 0 0 0 0 0 0 0 0 0 0 0 0 0 0 0 0 0 0 0 0 0 0 0 0 0 0 0 0 0 0 0 0 0 0 0 0 0 0 0 0 0 0 0 0 0 0 0 0 0 0 0 0 0 0 0 0 0 0 0 0 0 0 0 0 0 0 0 0 0 0 0 0 0 7.00691e-08 2.80276e-07 6.30622e-07 1.12111e-06 1.75173e-06 2.52249e-06 3.43339e-06 4.48442e-06 5.72434e-06 7.20186e-06 8.917e-06 1.08698e-05 1.30601e-05 1.54881e-05 1.81537e-05 2.10569e-05 2.41137e-05 2.724e-05 3.04358e-05 3.37011e-05 3.7036e-05 4.04404e-05 4.39143e-05 4.74578e-05 5.09729e-05 5.43618e-05 5.76245e-05 6.0761e-05 6.37713e-05 6.66555e-05 6.94134e-05 7.20451e-05 7.45084e-05 7.6761e-05 7.88029e-05 8.06341e-05 8.22546e-05 8.36644e-05 8.48635e-05 8.58519e-05 8.66484e-05 8.72719e-05 8.77222e-05 8.79995e-05 8.81037e-05 8.80348e-05 8.77929e-05 8.73778e-05 8.68434e-05 8.62431e-05 8.55771e-05 8.48453e-05 8.40478e-05 8.31844e-05 8.22553e-05 8.12604e-05 8.02465e-05 7.92605e-05 7.83022e-05 7.73718e-05 7.64691e-05 7.55943e-05 7.47472e-05 7.3928e-05 7.31457e-05 7.24094e-05 7.17192e-05 7.1075e-05 7.04769e-05 6.99248e-05 6.94187e-05 6.89587e-05 6.85169e-05 6.80654e-05 6.76042e-05 6.71334e-05 6.66529e-05 6.61627e-05 6.56629e-05 6.51535e-05 6.45983e-05 6.39617e-05 6.32434e-05 6.24435e-05 6.15621e-05 6.05991e-05 5.95545e-05 5.84283e-05 5.72097e-05 5.58877e-05 5.44623e-05 5.29337e-05 5.13017e-05 4.95664e-05 4.77277e-05 4.57857e-05 4.37694e-05 4.17077e-05 3.96007e-05 3.74483e-05 3.52506e-05 3.30076e-05 3.07192e-05 2.83855e-05 2.60645e-05 2.38143e-05 2.1635e-05 1.95266e-05 1.74889e-05 1.55221e-05 1.36261e-05 1.18009e-05 1.00868e-05 8.52384e-06 7.11207e-06 5.85148e-06 4.74208e-06 3.78386e-06 2.97684e-06 2.32099e-06 1.77701e-06 1.30556e-06 9.06638e-07 5.80248e-07 3.2639e-07 1.45062e-07 3.62655e-08 0 0 2.80276e-07 1.12111e-06 2.52249e-06 4.48442e-06 7.00691e-06 1.009e-05 1.37335e-05 1.79377e-05 2.28973e-05 2.88075e-05 3.5668e-05 4.3479e-05 5.22405e-05 6.19524e-05 7.26148e-05 8.42276e-05 9.64547e-05 0.00010896 0.000121743 0.000134805 0.000148144 0.000161762 0.000175657 0.000189831 0.000203891 0.000217447 0.000230498 0.000243044 0.000255085 0.000266622 0.000277654 0.000288181 0.000298034 0.000307044 0.000315212 0.000322536 0.000329018 0.000334658 0.000339454 0.000343408 0.000346594 0.000349087 0.000350889 0.000351998 0.000352415 0.000352139 0.000351171 0.000349511 0.000347373 0.000344972 0.000342308 0.000339381 0.000336191 0.000332738 0.000329021 0.000325042 0.000320986 0.000317042 0.000313209 0.000309487 0.000305876 0.000302377 0.000298989 0.000295712 0.000292583 0.000289638 0.000286877 0.0002843 0.000281907 0.000279699 0.000277675 0.000275835 0.000274067 0.000272261 0.000270417 0.000268534 0.000266612 0.000264651 0.000262652 0.000260614 0.000258393 0.000255847 0.000252974 0.000249774 0.000246248 0.000242396 0.000238218 0.000233713 0.000228839 0.000223551 0.000217849 0.000211735 0.000205207 0.000198265 0.000190911 0.000183143 0.000175077 0.000166831 0.000158403 0.000149793 0.000141002 0.00013203 0.000122877 0.000113542 0.000104258 9.52574e-05 8.65401e-05 7.81062e-05 6.99556e-05 6.20884e-05 5.45044e-05 4.72038e-05 4.03472e-05 3.40954e-05 2.84483e-05 2.34059e-05 1.89683e-05 1.51355e-05 1.19073e-05 9.28398e-06 7.10804e-06 5.22224e-06 3.62655e-06 2.32099e-06 1.30556e-06 5.80248e-07 1.45062e-07 0 0 6.30622e-07 2.52249e-06 5.6756e-06 1.009e-05 1.57656e-05 2.27024e-05 3.09005e-05 4.03598e-05 5.1519e-05 6.48168e-05 8.0253e-05 9.78278e-05 0.000117541 0.000139393 0.000163383 0.000189512 0.000217023 0.00024516 0.000273922 0.00030331 0.000333324 0.000363964 0.000395229 0.00042712 0.000458756 0.000489256 0.00051862 0.000546849 0.000573942 0.000599899 0.00062472 0.000648406 0.000670576 0.000690849 0.000709226 0.000725707 0.000740292 0.00075298 0.000763772 0.000772667 0.000779836 0.000785447 0.0007895 0.000791996 0.000792933 0.000792313 0.000790136 0.0007864 0.00078159 0.000776188 0.000770194 0.000763608 0.00075643 0.00074866 0.000740298 0.000731344 0.000722219 0.000713344 0.00070472 0.000696346 0.000688222 0.000680348 0.000672725 0.000665352 0.000658311 0.000651685 0.000645473 0.000639675 0.000634292 0.000629323 0.000624768 0.000620628 0.000616652 0.000612588 0.000608438 0.0006042 0.000599876 0.000595465 0.000590966 0.000586381 0.000581385 0.000575655 0.000569191 0.000561992 0.000554059 0.000545392 0.00053599 0.000525855 0.000514887 0.000502989 0.000490161 0.000476403 0.000461715 0.000446097 0.000429549 0.000412071 0.000393924 0.000375369 0.000356406 0.000337035 0.000317255 0.000297068 0.000276473 0.000255469 0.00023458 0.000214329 0.000194715 0.000175739 0.0001574 0.000139699 0.000122635 0.000106209 9.07812e-05 7.67146e-05 6.40086e-05 5.26633e-05 4.26787e-05 3.40548e-05 2.67915e-05 2.08889e-05 1.59931e-05 1.175e-05 8.15974e-06 5.22224e-06 2.93751e-06 1.30556e-06 3.2639e-07 0 0 1.12111e-06 4.48442e-06 1.009e-05 1.79377e-05 2.80276e-05 4.03598e-05 5.49342e-05 7.17508e-05 9.15894e-05 0.00011523 0.000142672 0.000173916 0.000208962 0.00024781 0.000290459 0.00033691 0.000385819 0.00043584 0.000486973 0.000539218 0.000592576 0.000647046 0.000702629 0.000759324 0.000815566 0.000869788 0.000921992 0.000972176 0.00102034 0.00106649 0.00111061 0.00115272 0.00119213 0.00122818 0.00126085 0.00129015 0.00131607 0.00133863 0.00135782 0.00137363 0.00138638 0.00139635 0.00140356 0.00140799 0.00140966 0.00140856 0.00140469 0.00139805 0.00138949 0.00137989 0.00136923 0.00135753 0.00134476 0.00133095 0.00131608 0.00130017 0.00128394 0.00126817 0.00125284 0.00123795 0.00122351 0.00120951 0.00119596 0.00118285 0.00117033 0.00115855 0.00114751 0.0011372 0.00112763 0.0011188 0.0011107 0.00110334 0.00109627 0.00108905 0.00108167 0.00107413 0.00106645 0.0010586 0.00105061 0.00104246 0.00103357 0.00102339 0.00101189 0.000999097 0.000984994 0.000969585 0.000952872 0.000934853 0.000915354 0.000894203 0.000871398 0.000846939 0.000820827 0.000793062 0.000763643 0.000732571 0.00070031 0.000667323 0.000633611 0.000599173 0.00056401 0.000528121 0.000491507 0.000454167 0.000417032 0.00038103 0.000346161 0.000312425 0.000279822 0.000248353 0.000218018 0.000188815 0.000161389 0.000136381 0.000113793 9.36237e-05 7.58732e-05 6.05418e-05 4.76294e-05 3.71359e-05 2.84322e-05 2.08889e-05 1.45062e-05 9.28398e-06 5.22224e-06 2.32099e-06 5.80248e-07 0 0 1.75173e-06 7.00691e-06 1.57656e-05 2.80276e-05 4.37932e-05 6.30622e-05 8.58347e-05 0.000112111 0.000143108 0.000180047 0.000222925 0.000271744 0.000326503 0.000387202 0.000453842 0.000526422 0.000602842 0.000680999 0.000760895 0.000842528 0.0009259 0.00101101 0.00109786 0.00118644 0.00127432 0.00135904 0.00144061 0.00151902 0.00159428 0.00166639 0.00173533 0.00180113 0.00186271 0.00191903 0.00197007 0.00201585 0.00205637 0.00209161 0.00212159 0.0021463 0.00216621 0.0021818 0.00219306 0.00219999 0.00220259 0.00220087 0.00219482 0.00218445 0.00217108 0.00215608 0.00213943 0.00212113 0.00210119 0.00207961 0.00205638 0.00203151 0.00200616 0.00198151 0.00195756 0.00193429 0.00191173 0.00188986 0.00186868 0.0018482 0.00182864 0.00181024 0.00179298 0.00177688 0.00176192 0.00174812 0.00173547 0.00172397 0.00171292 0.00170163 0.00169011 0.00167833 0.00166632 0.00165407 0.00164157 0.00162884 0.00161496 0.00159904 0.00158108 0.00156109 0.00153905 0.00151498 0.00148886 0.00146071 0.00143024 0.00139719 0.00136156 0.00132334 0.00128254 0.00123916 0.00119319 0.00114464 0.00109423 0.00104269 0.000990017 0.000936208 0.000881265 0.000825189 0.00076798 0.000709637 0.000651612 0.000595359 0.000540876 0.000488164 0.000437223 0.000388052 0.000340653 0.000295024 0.00025217 0.000213096 0.000177802 0.000146287 0.000118552 9.45966e-05 7.44209e-05 5.80248e-05 4.44253e-05 3.2639e-05 2.2666e-05 1.45062e-05 8.15974e-06 3.62655e-06 9.06638e-07 0 0 2.52249e-06 1.009e-05 2.27024e-05 4.03598e-05 6.30622e-05 9.08096e-05 0.000123602 0.000161439 0.000206076 0.000259267 0.000321012 0.000391311 0.000470164 0.000557572 0.000653533 0.000758048 0.000868092 0.000980639 0.00109569 0.00121324 0.0013333 0.00145585 0.00158092 0.00170848 0.00183502 0.00195702 0.00207448 0.0021874 0.00229577 0.0023996 0.00249888 0.00259362 0.0026823 0.0027634 0.0028369 0.00290283 0.00296117 0.00301192 0.00305509 0.00309067 0.00311934 0.00314179 0.003158 0.00316798 0.00317173 0.00316925 0.00316054 0.0031456 0.00312636 0.00310475 0.00308078 0.00305443 0.00302572 0.00299464 0.00296119 0.00292537 0.00288888 0.00285338 0.00281888 0.00278538 0.00275289 0.00272139 0.0026909 0.00266141 0.00263324 0.00260674 0.00258189 0.0025587 0.00253717 0.00251729 0.00249907 0.00248251 0.00246661 0.00245035 0.00243375 0.0024168 0.0023995 0.00238186 0.00236387 0.00234552 0.00232554 0.00230262 0.00227676 0.00224797 0.00221624 0.00218157 0.00214396 0.00210342 0.00205955 0.00201196 0.00196064 0.00190561 0.00184686 0.00178439 0.0017182 0.00164829 0.0015757 0.00150148 0.00142562 0.00134814 0.00126902 0.00118827 0.00110589 0.00102188 0.000938322 0.000857316 0.000778861 0.000702956 0.000629601 0.000558795 0.00049054 0.000424834 0.000363125 0.000306858 0.000256034 0.000210653 0.000170715 0.000136219 0.000107166 8.35558e-05 6.39724e-05 4.70001e-05 3.2639e-05 2.08889e-05 1.175e-05 5.22224e-06 1.30556e-06 0 0 3.43339e-06 1.37335e-05 3.09005e-05 5.49342e-05 8.58347e-05 0.000123602 0.000168236 0.000219737 0.000280492 0.000352891 0.000436933 0.000532618 0.000639946 0.000758917 0.000889531 0.00103179 0.00118157 0.00133476 0.00149135 0.00165136 0.00181476 0.00198158 0.0021518 0.00232543 0.00249767 0.00266373 0.0028236 0.00297729 0.00312479 0.00326612 0.00340126 0.00353021 0.00365091 0.00376129 0.00386134 0.00395107 0.00403048 0.00409956 0.00415831 0.00420674 0.00424577 0.00427632 0.00429839 0.00431198 0.00431708 0.00431371 0.00430185 0.00428151 0.00425532 0.00422591 0.00419328 0.00415742 0.00411834 0.00407604 0.00403051 0.00398176 0.00393208 0.00388376 0.00383681 0.00379122 0.00374699 0.00370412 0.00366261 0.00362247 0.00358414 0.00354806 0.00351424 0.00348268 0.00345337 0.00342631 0.00340152 0.00337898 0.00335733 0.0033352 0.00331261 0.00328954 0.00326599 0.00324197 0.00321748 0.00319252 0.00316532 0.00313412 0.00309893 0.00305973 0.00301654 0.00296936 0.00291817 0.00286299 0.00280327 0.0027385 0.00266866 0.00259375 0.00251378 0.00242875 0.00233866 0.0022435 0.0021447 0.00204368 0.00194043 0.00183497 0.00172728 0.00161737 0.00150524 0.00139089 0.00127716 0.0011669 0.00106012 0.000956801 0.000856956 0.000760582 0.000667679 0.000578246 0.000494253 0.000417668 0.000348491 0.000286722 0.000232362 0.000185409 0.000145865 0.000113729 8.70735e-05 6.39724e-05 4.44253e-05 2.84322e-05 1.59931e-05 7.10804e-06 1.77701e-06 0 0 4.48442e-06 1.79377e-05 4.03598e-05 7.17508e-05 0.000112111 0.000161439 0.000219737 0.000287003 0.000366358 0.000460919 0.000570688 0.000695664 0.000835848 0.000991238 0.00116184 0.00134764 0.00154328 0.00174336 0.00194789 0.00215687 0.0023703 0.00258819 0.00281052 0.0030373 0.00326226 0.00347915 0.00368797 0.0038887 0.00408136 0.00426595 0.00444246 0.00461089 0.00476854 0.00491271 0.00504339 0.00516058 0.0052643 0.00535452 0.00543127 0.00549452 0.0055455 0.0055854 0.00561422 0.00563197 0.00563864 0.00563423 0.00561874 0.00559218 0.00555798 0.00551956 0.00547693 0.0054301 0.00537906 0.0053238 0.00526434 0.00520067 0.00513578 0.00507267 0.00501134 0.00495179 0.00489402 0.00483803 0.00478382 0.00473139 0.00468132 0.0046342 0.00459003 0.0045488 0.00451052 0.00447519 0.0044428 0.00441336 0.00438508 0.00435618 0.00432667 0.00429654 0.00426579 0.00423442 0.00420243 0.00416982 0.00413429 0.00409355 0.00404758 0.00399639 0.00393997 0.00387834 0.00381149 0.00373941 0.00366142 0.00357681 0.00348559 0.00338776 0.00328331 0.00317225 0.00305457 0.00293029 0.00280124 0.00266929 0.00253444 0.00239669 0.00225604 0.00211248 0.00196603 0.00181667 0.00166813 0.00152412 0.00138464 0.0012497 0.00111929 0.000993414 0.00087207 0.000755261 0.000645555 0.000545526 0.000455172 0.000374495 0.000303493 0.000242167 0.000190517 0.000148544 0.000113729 8.35558e-05 5.80248e-05 3.71359e-05 2.08889e-05 9.28398e-06 2.32099e-06 0 0 5.77532e-06 2.31013e-05 5.19779e-05 9.24051e-05 0.000144383 0.000207911 0.000282991 0.00036962 0.000471651 0.000592931 0.000733462 0.000893243 0.00107227 0.00127056 0.00148809 0.00172487 0.00197407 0.00222885 0.00248921 0.00275515 0.00302668 0.00330378 0.00358647 0.00387474 0.00416068 0.00443639 0.00470186 0.0049571 0.00520211 0.00543688 0.00566141 0.00587571 0.00607636 0.00625994 0.00642646 0.0065759 0.00670827 0.00682357 0.00692181 0.00700297 0.00706858 0.00712014 0.00715766 0.00718114 0.00719057 0.00718596 0.0071673 0.0071346 0.00709218 0.00704438 0.00699119 0.0069326 0.00686863 0.00679928 0.00672453 0.00664439 0.00656265 0.00648307 0.00640567 0.00633043 0.00625736 0.00618645 0.00611772 0.00605115 0.0059875 0.00592749 0.00587114 0.00581844 0.0057694 0.00572401 0.00568227 0.00564418 0.00560751 0.00557001 0.00553168 0.00549253 0.00545256 0.00541176 0.00537013 0.00532768 0.00528151 0.00522873 0.00516933 0.00510333 0.00503071 0.00495148 0.00486564 0.00477318 0.00467325 0.00456495 0.00444831 0.00432331 0.00418995 0.00404824 0.00389818 0.00373976 0.00357533 0.00340724 0.00323548 0.00306005 0.00288096 0.0026982 0.00251178 0.00232169 0.00213263 0.00194928 0.00177166 0.00159975 0.00143356 0.00127308 0.00111833 0.000969292 0.000829247 0.000701464 0.000585944 0.000482687 0.000391694 0.000312963 0.000246496 0.000192291 0.000147223 0.000108164 7.51138e-05 4.80728e-05 2.7041e-05 1.20182e-05 3.00455e-06 0 0 7.40579e-06 2.96232e-05 6.66521e-05 0.000118493 0.000185145 0.000266609 0.000362884 0.000473971 0.000604351 0.000758508 0.00093644 0.00113815 0.00136363 0.00161289 0.00188593 0.00218274 0.00249482 0.00281364 0.00313923 0.00347156 0.00381065 0.00415649 0.00450908 0.00486842 0.00522481 0.00556852 0.00589957 0.00621795 0.00652365 0.00681669 0.00709705 0.00736475 0.00761557 0.00784531 0.00805397 0.00824155 0.00840805 0.00855346 0.0086778 0.00878106 0.00886507 0.00893168 0.00898088 0.00901267 0.00902706 0.00902403 0.00900361 0.00896577 0.00891582 0.00885906 0.00879547 0.00872506 0.00864784 0.00856379 0.00847293 0.00837525 0.00827538 0.00817795 0.00808297 0.00799043 0.00790034 0.00781269 0.00772749 0.00764473 0.00756535 0.00749026 0.00741947 0.00735297 0.00729078 0.00723288 0.00717928 0.00712997 0.00708225 0.00703338 0.00698339 0.00693225 0.00687998 0.00682657 0.00677203 0.00671635 0.00665601 0.0065875 0.00651082 0.00642596 0.00633293 0.00623173 0.00612235 0.0060048 0.00587802 0.00574098 0.00559366 0.00543608 0.00526823 0.0050901 0.0049017 0.00470304 0.00449698 0.00428642 0.00407135 0.00385178 0.0036277 0.00339911 0.00316601 0.00292841 0.00269206 0.00246271 0.00224037 0.00202504 0.00181671 0.00161539 0.00142107 0.00123376 0.00105754 0.000896514 0.000750673 0.000620017 0.000504549 0.000404267 0.000319171 0.000249262 0.000190841 0.00014021 9.73681e-05 6.23156e-05 3.50525e-05 1.55789e-05 3.89472e-06 0 0 9.37584e-06 3.75034e-05 8.43826e-05 0.000150013 0.000234396 0.00033753 0.000459416 0.000600054 0.000764459 0.000957649 0.00117962 0.00143038 0.00170992 0.00201825 0.00235535 0.00272125 0.00310551 0.00349774 0.00389794 0.00430609 0.00472221 0.00514629 0.00557834 0.00601834 0.00645464 0.00687556 0.00728109 0.00767124 0.008046 0.00840538 0.00874938 0.00907799 0.00938616 0.0096688 0.00992593 0.0101575 0.0103636 0.0105442 0.0106992 0.0108288 0.010935 0.01102 0.0110839 0.0111266 0.0111481 0.0111485 0.0111277 0.0110857 0.0110289 0.0109636 0.0108898 0.0108075 0.0107167 0.0106174 0.0105095 0.0103932 0.010274 0.0101573 0.0100432 0.00993181 0.00982298 0.00971675 0.00961314 0.00951214 0.00941488 0.0093225 0.00923501 0.00915239 0.00907465 0.0090018 0.00893382 0.00887073 0.0088093 0.00874632 0.00868178 0.00861569 0.00854806 0.00847886 0.00840812 0.00833582 0.0082578 0.00816987 0.00807203 0.00796429 0.00784664 0.00771908 0.00758162 0.00743425 0.00727575 0.00710489 0.00692166 0.00672608 0.00651813 0.00629782 0.00606515 0.00582012 0.0055662 0.00530685 0.00504208 0.00477188 0.00449626 0.00421521 0.00392874 0.00363684 0.00334643 0.00306441 0.0027908 0.00252557 0.00226875 0.00202032 0.00178029 0.00154866 0.00133044 0.00113068 0.000949358 0.000786485 0.000642058 0.000516078 0.000408544 0.000319457 0.000244584 0.000179694 0.000124788 7.98642e-05 4.49236e-05 1.9966e-05 4.99151e-06 0 0 1.16855e-05 4.67419e-05 0.000105169 0.000186968 0.000292137 0.000420677 0.000572588 0.00074787 0.000951975 0.00119035 0.00146301 0.00176994 0.00211114 0.00248662 0.00289637 0.00334039 0.00380616 0.00428114 0.00476534 0.00525875 0.00576137 0.0062732 0.00679425 0.00732451 0.00785018 0.00835749 0.00884642 0.00931697 0.00976915 0.010203 0.0106184 0.0110154 0.0113881 0.0117304 0.0120423 0.0123239 0.012575 0.0127958 0.0129861 0.0131461 0.0132783 0.0133851 0.0134666 0.0135228 0.0135537 0.0135592 0.0135395 0.0134944 0.0134314 0.013358 0.0132741 0.0131799 0.0130751 0.01296 0.0128344 0.0126983 0.0125584 0.0124211 0.0122865 0.0121546 0.0120253 0.0118986 0.0117747 0.0116534 0.0115361 0.0114242 0.0113178 0.0112167 0.011121 0.0110308 0.0109459 0.0108665 0.0107887 0.0107088 0.0106269 0.0105429 0.0104568 0.0103686 0.0102784 0.0101861 0.0100869 0.00997583 0.00985297 0.0097183 0.00957183 0.00941354 0.00924345 0.00906155 0.00886642 0.00865667 0.0084323 0.0081933 0.00793966 0.00767141 0.00738852 0.00709101 0.00678298 0.00646852 0.00614765 0.00582035 0.00548664 0.0051465 0.00479995 0.00444697 0.00409573 0.00375438 0.00342292 0.00310136 0.00278968 0.00248789 0.002196 0.00191399 0.00164795 0.00140395 0.001182 0.000982091 0.000804223 0.000648397 0.000514614 0.000402874 0.000308451 0.000226617 0.000157373 0.000100719 5.66542e-05 2.51797e-05 6.29491e-06 0 0 1.43347e-05 5.73387e-05 0.000129012 0.000229355 0.000358367 0.000516048 0.000702399 0.000917419 0.0011669 0.00145662 0.0017866 0.00215682 0.00256729 0.003018 0.00350897 0.00404018 0.00459676 0.00516385 0.00574144 0.00632953 0.00692812 0.00753721 0.00815681 0.00878691 0.00941143 0.0100143 0.0105956 0.0111552 0.0116931 0.0122094 0.0127041 0.0131771 0.0136215 0.0140302 0.0144032 0.0147405 0.0150422 0.0153082 0.0155385 0.0157331 0.015895 0.016027 0.0161291 0.0162014 0.0162438 0.0162563 0.016239 0.0161918 0.0161233 0.0160422 0.0159485 0.0158422 0.0157232 0.0155916 0.0154474 0.0152905 0.0151287 0.0149694 0.0148127 0.0146587 0.0145072 0.0143583 0.0142121 0.0140684 0.013929 0.0137954 0.0136677 0.0135459 0.0134299 0.0133198 0.0132155 0.0131171 0.0130203 0.0129208 0.0128186 0.0127137 0.0126062 0.0124959 0.0123829 0.0122672 0.0121432 0.0120054 0.0118536 0.011688 0.0115085 0.0113151 0.0111078 0.0108867 0.01065 0.0103963 0.0101256 0.00983774 0.00953283 0.00921086 0.00887182 0.00851571 0.00814732 0.00777144 0.00738806 0.0069972 0.00659884 0.00619299 0.00577964 0.00535881 0.00493997 0.00453262 0.00413676 0.00375238 0.00337949 0.00301809 0.00266818 0.00232976 0.00201006 0.00171634 0.0014486 0.00120683 0.000991041 0.000801224 0.000637382 0.000499516 0.000382442 0.000280978 0.000195123 0.000124879 7.02444e-05 3.12197e-05 7.80493e-06 0 0 1.73235e-05 6.92938e-05 0.000155911 0.000277175 0.000433087 0.000623645 0.00084885 0.0011087 0.00140923 0.00175646 0.00215039 0.00259103 0.00307837 0.00361241 0.00419315 0.0048206 0.00547731 0.00614586 0.00682623 0.00751844 0.00822247 0.00893833 0.00966602 0.0104055 0.0111384 0.011846 0.0125285 0.0131858 0.0138179 0.0144248 0.0150065 0.015563 0.0160862 0.016568 0.0170085 0.0174075 0.0177652 0.0180814 0.0183563 0.0185898 0.0187851 0.0189457 0.0190714 0.0191624 0.0192185 0.0192398 0.0192263 0.019178 0.0191047 0.0190164 0.018913 0.0187945 0.0186609 0.0185123 0.0183486 0.0181699 0.0179848 0.0178022 0.0176219 0.0174442 0.0172688 0.0170959 0.0169254 0.0167573 0.0165936 0.0164361 0.0162849 0.01614 0.0160013 0.0158689 0.0157427 0.0156228 0.0155043 0.0153824 0.0152571 0.0151284 0.0149962 0.0148606 0.0147216 0.0145791 0.0144269 0.0142585 0.014074 0.0138734 0.0136567 0.0134238 0.0131748 0.0129097 0.0126266 0.0123239 0.0120015 0.0116594 0.0112976 0.0109162 0.010515 0.0100942 0.00965922 0.00921559 0.00876332 0.00830241 0.00783286 0.00735466 0.00686783 0.00637235 0.00587914 0.00539913 0.00493229 0.00447865 0.0040382 0.00361093 0.00319685 0.00279596 0.00241678 0.00206785 0.00174916 0.00146071 0.00120251 0.000974559 0.000776848 0.00060938 0.000466557 0.000342776 0.000238039 0.000152345 8.56941e-05 3.80863e-05 9.52157e-06 0 0 2.06518e-05 8.26073e-05 0.000185866 0.000330429 0.000516296 0.000743466 0.00101194 0.00132172 0.00167897 0.00208986 0.00255439 0.00307256 0.00364438 0.00426983 0.00494893 0.00568166 0.00644782 0.00722717 0.00801972 0.00882547 0.00964441 0.0104766 0.0113219 0.0121804 0.013031 0.0138527 0.0146453 0.0154088 0.0161434 0.016849 0.0175255 0.0181731 0.0187823 0.019344 0.0198582 0.0203249 0.020744 0.0211155 0.0214396 0.021716 0.0219487 0.0221412 0.0222935 0.0224057 0.0224777 0.0225096 0.0225013 0.0224529 0.0223755 0.0222803 0.0221674 0.0220367 0.0218883 0.0217221 0.0215381 0.0213364 0.0211268 0.0209194 0.0207141 0.020511 0.02031 0.0201112 0.0199145 0.01972 0.0195298 0.0193463 0.0191693 0.0189989 0.0188351 0.018678 0.0185274 0.0183834 0.0182406 0.0180936 0.0179423 0.0177867 0.0176269 0.0174628 0.0172944 0.0171218 0.0169378 0.0167352 0.0165141 0.0162745 0.0160163 0.0157396 0.0154443 0.0151305 0.0147961 0.0144393 0.01406 0.0136583 0.0132341 0.0127873 0.0123182 0.0118265 0.0113187 0.010801 0.0102734 0.009736 0.0091887 0.00863153 0.0080645 0.00748759 0.00691325 0.0063539 0.00580954 0.00528017 0.00476579 0.0042664 0.003782 0.00331259 0.0028681 0.00245846 0.00208367 0.00174373 0.00143864 0.0011684 0.00093301 0.000732468 0.000560796 0.000412013 0.00028612 0.000183117 0.000103003 4.57793e-05 1.14448e-05 0 0 2.43198e-05 9.72791e-05 0.000218878 0.000389116 0.000607994 0.000875511 0.00119167 0.00155646 0.00197611 0.00245682 0.00299859 0.00360142 0.00426532 0.00499027 0.00577629 0.00662336 0.00750827 0.00840779 0.0093219 0.0102506 0.0111939 0.0121519 0.0131244 0.0141115 0.0150894 0.0160342 0.0169458 0.0178244 0.0186698 0.0194821 0.0202613 0.0210073 0.0217098 0.0223582 0.0229524 0.0234925 0.0239786 0.0244105 0.0247883 0.025112 0.0253856 0.0256134 0.0257953 0.0259314 0.0260215 0.0260657 0.0260641 0.0260165 0.0259357 0.0258342 0.0257119 0.0255689 0.0254052 0.0252209 0.0250158 0.0247899 0.0245546 0.0243211 0.0240893 0.0238593 0.0236309 0.0234044 0.0231796 0.0229565 0.0227378 0.0225259 0.0223209 0.0221228 0.0219315 0.0217471 0.0215697 0.021399 0.0212293 0.0210543 0.0208741 0.0206888 0.0204982 0.0203024 0.0201015 0.0198953 0.019676 0.0194356 0.019174 0.0188913 0.0185874 0.0182625 0.0179164 0.0175491 0.0171586 0.0167426 0.0163012 0.0158344 0.0153421 0.0148244 0.0142812 0.0137126 0.0131257 0.0125276 0.0119184 0.011298 0.0106664 0.0100236 0.00936965 0.00870454 0.00804229 0.00739694 0.00676849 0.00615693 0.00556226 0.0049845 0.00442363 0.00387966 0.00336403 0.00288819 0.00245214 0.00205589 0.00169943 0.00138275 0.00110587 0.00086878 0.00066516 0.000488689 0.000339367 0.000217195 0.000122172 5.42987e-05 1.35747e-05 0 0 2.83197e-05 0.000113279 0.000254878 0.000453116 0.000707993 0.00101951 0.00138767 0.00181246 0.00230003 0.00285651 0.0034819 0.0041762 0.00493941 0.00577153 0.00667255 0.00764249 0.00865489 0.00968329 0.0107277 0.0117881 0.0128646 0.013957 0.0150655 0.0161899 0.0173037 0.01838 0.0194188 0.0204202 0.0213841 0.0223106 0.0231996 0.0240511 0.0248534 0.0255947 0.026275 0.0268942 0.0274524 0.0279496 0.0283858 0.028761 0.0290796 0.0293463 0.0295611 0.0297239 0.0298347 0.0298936 0.0299005 0.0298554 0.0297725 0.0296656 0.0295348 0.0293801 0.0292015 0.028999 0.0287726 0.0285223 0.0282607 0.0280002 0.0277409 0.0274828 0.0272259 0.0269702 0.0267157 0.0264623 0.0262131 0.0259709 0.0257357 0.0255076 0.0252866 0.0250725 0.0248655 0.0246655 0.024466 0.0242601 0.024048 0.0238297 0.0236051 0.0233742 0.0231371 0.0228937 0.0226353 0.022353 0.0220469 0.0217169 0.021363 0.0209853 0.0205837 0.0201583 0.0197066 0.0192264 0.0187177 0.0181805 0.0176147 0.0170204 0.0163976 0.0157462 0.0150743 0.0143898 0.0136928 0.0129833 0.0122613 0.0115267 0.0107795 0.0100199 0.0092634 0.00852579 0.00780705 0.00710719 0.00642621 0.0057641 0.00512087 0.00449652 0.00390412 0.00335677 0.00285445 0.00239717 0.00198492 0.00161772 0.00129555 0.00101843 0.000779734 0.000572866 0.000397824 0.000254607 0.000143216 6.36518e-05 1.59129e-05 0 0 3.26442e-05 0.000130577 0.000293798 0.000522307 0.000816104 0.00117519 0.00159956 0.00208923 0.0026501 0.0032881 0.00400323 0.00479549 0.00566488 0.0066114 0.00763505 0.00873583 0.00988386 0.0110493 0.0122321 0.0134322 0.0146498 0.0158847 0.017137 0.0184066 0.019664 0.0208794 0.0220527 0.0231841 0.0242735 0.0253209 0.0263262 0.0272896 0.0281979 0.029038 0.0298099 0.0305136 0.0311491 0.0317165 0.0322156 0.0326465 0.0330142 0.0333237 0.0335748 0.0337676 0.0339021 0.0339784 0.0339964 0.033956 0.0338729 0.0337624 0.0336246 0.0334594 0.0332668 0.033047 0.0327998 0.0325252 0.0322372 0.0319496 0.0316624 0.0313756 0.0310893 0.0308034 0.0305179 0.0302328 0.0299515 0.0296772 0.0294099 0.0291496 0.0288964 0.0286502 0.028411 0.0281788 0.0279465 0.0277066 0.0274593 0.0272046 0.0269424 0.0266728 0.0263957 0.0261111 0.0258095 0.0254811 0.0251261 0.0247444 0.0243359 0.0239008 0.023439 0.0229505 0.0224327 0.0218833 0.0213022 0.0206893 0.0200447 0.0193685 0.0186605 0.0179208 0.0171583 0.0163818 0.0155914 0.0147871 0.0139688 0.0131366 0.0122904 0.0114303 0.0105737 0.00973797 0.00892315 0.00812923 0.00735621 0.00660408 0.00587286 0.00516254 0.00448795 0.00386392 0.00329045 0.00276754 0.0022952 0.00187341 0.00150219 0.00118153 0.000904606 0.000664609 0.000461534 0.000295382 0.000166152 7.38454e-05 1.84614e-05 0 0 3.72931e-05 0.000149172 0.000335638 0.00059669 0.000932328 0.00134255 0.00182736 0.00238676 0.00302631 0.00375158 0.00456258 0.00545929 0.00644173 0.00750989 0.00866377 0.00990338 0.0111952 0.0125057 0.0138349 0.0151829 0.0165495 0.0179349 0.0193389 0.0207617 0.0221704 0.0235324 0.0248477 0.0261162 0.027338 0.028513 0.0296413 0.0307229 0.0317433 0.0326881 0.0335572 0.0343507 0.0350687 0.035711 0.0362776 0.0367687 0.0371895 0.0375454 0.0378365 0.0380626 0.0382239 0.0383202 0.0383517 0.0383183 0.0382369 0.0381245 0.0379811 0.0378067 0.0376012 0.0373647 0.0370971 0.0367985 0.0364842 0.0361692 0.0358538 0.0355377 0.0352212 0.034904 0.0345864 0.0342681 0.033953 0.0336448 0.0333434 0.0330488 0.0327611 0.0324802 0.0322062 0.031939 0.0316708 0.0313938 0.0311081 0.0308135 0.0305102 0.0301981 0.0298771 0.0295474 0.0291985 0.0288199 0.0284116 0.0279738 0.0275062 0.0270091 0.0264822 0.0259258 0.025337 0.0247132 0.0240545 0.0233609 0.0226322 0.0218686 0.02107 0.0202365 0.0193778 0.0185037 0.0176142 0.0167093 0.015789 0.0148533 0.0139023 0.0129358 0.0119732 0.0110335 0.0101168 0.00922303 0.00835225 0.00750444 0.00667959 0.00587772 0.00511551 0.00440965 0.00376016 0.00316702 0.00263025 0.00214983 0.00172577 0.00135808 0.00103978 0.000763918 0.000530498 0.000339519 0.000190979 8.48797e-05 2.12199e-05 0 0 4.22665e-05 0.000169066 0.000380399 0.000676264 0.00105666 0.00152159 0.00207106 0.00270506 0.00342866 0.00424696 0.00515994 0.0061676 0.00726996 0.008467 0.00975872 0.0111451 0.0125889 0.0140526 0.0155364 0.0170401 0.0185638 0.0201076 0.0216713 0.023255 0.0248229 0.026339 0.0278036 0.0292164 0.0305775 0.031887 0.0331448 0.0343509 0.0354895 0.0365448 0.0375169 0.0384056 0.039211 0.0399331 0.0405719 0.0411274 0.0416054 0.0420117 0.0423461 0.0426089 0.0427998 0.0429191 0.0429665 0.0429423 0.0428646 0.042752 0.0426045 0.042422 0.0422045 0.0419521 0.0416647 0.0413423 0.0410016 0.0406592 0.040315 0.0399691 0.0396215 0.0392721 0.038921 0.0385681 0.0382177 0.0378737 0.0375362 0.0372051 0.0368806 0.0365626 0.036251 0.0359459 0.035639 0.0353217 0.0349942 0.0346565 0.0343084 0.0339501 0.0335815 0.0332027 0.0328023 0.0323693 0.0319035 0.0314051 0.0308739 0.03031 0.0297134 0.0290842 0.0284194 0.0277163 0.0269749 0.0261951 0.0253771 0.0245208 0.0236262 0.0226933 0.0217327 0.0207553 0.0197611 0.0187499 0.0177219 0.0166769 0.0156151 0.0145364 0.0134619 0.0124124 0.0113879 0.0103886 0.00941434 0.00846516 0.00754107 0.00664205 0.00578679 0.00499397 0.00426357 0.00359561 0.00299008 0.00244698 0.00196631 0.00154808 0.00118524 0.000870792 0.000604717 0.000387019 0.000217698 9.67547e-05 2.41887e-05 0 0 4.75644e-05 0.000190258 0.000428079 0.00076103 0.00118911 0.00171232 0.00233065 0.00304412 0.00385716 0.00477423 0.00579532 0.00692043 0.00814956 0.00948272 0.0109199 0.0124611 0.0140649 0.01569 0.0173364 0.0190039 0.0206927 0.0224028 0.0241341 0.0258866 0.0276214 0.0292993 0.0309204 0.0324847 0.0339922 0.0354428 0.0368367 0.0381737 0.0394366 0.0406084 0.0416889 0.0426781 0.0435761 0.0443829 0.0450984 0.0457227 0.046262 0.0467223 0.0471038 0.0474064 0.0476301 0.0477749 0.0478409 0.0478279 0.047756 0.0476449 0.0474947 0.0473053 0.0470769 0.0468093 0.0465025 0.0461566 0.0457896 0.0454195 0.0450462 0.0446698 0.0442902 0.0439076 0.0435218 0.0431329 0.0427454 0.0423638 0.0419882 0.0416186 0.0412549 0.0408972 0.0405455 0.0401997 0.039851 0.0394903 0.0391178 0.0387334 0.0383371 0.0379289 0.0375089 0.0370769 0.0366211 0.0361294 0.0356018 0.0350383 0.034439 0.0338037 0.0331326 0.0324256 0.0316799 0.0308923 0.0300631 0.0291922 0.0282795 0.0273251 0.0263289 0.0252911 0.0242232 0.0231368 0.0220321 0.0209089 0.0197674 0.0186074 0.017429 0.0162321 0.0150397 0.0138746 0.0127366 0.0116259 0.0105425 0.00948627 0.00845729 0.00745554 0.00650181 0.00561686 0.00480068 0.00405329 0.00337468 0.00276485 0.0022238 0.00175152 0.00134101 0.000985233 0.000684189 0.000437881 0.000246308 0.00010947 2.73676e-05 0 0 5.31867e-05 0.000212747 0.000478681 0.000850988 0.00132967 0.00191472 0.00260615 0.00340395 0.00431181 0.00533339 0.00646871 0.00771776 0.00908055 0.0105571 0.0121473 0.0138513 0.0156234 0.0174179 0.0192349 0.0210743 0.0229362 0.0248205 0.0267273 0.0286566 0.030566 0.0324132 0.0341983 0.0359212 0.0375819 0.0391805 0.0407169 0.0421912 0.0435846 0.0448786 0.04607