<?xml version="1.0"?> 
<VTKFile type="StructuredGrid" version="0.1"> 
<StructuredGrid WholeExtent="0 128 0 128 0 0"> 
<Piece Extent="0 128 0 128 0 0"> 
<PointData>
<DataArray type="Float32" Name="u" format="ascii" NumberOfComponents="1"> 
0 0 0 0 0 0 0 0 0 0 0 0 0 0 0 0 0 0 0 0 0 0 0 0 0 0 0 0 0 0 0 0 0 0 0 0 0 0 0 0 0 0 0 0 0 0 0 0 0 0 0 0 0 0 0 0 0 0 0 0 0 0 0 0 0 0 0 0 0 0 0 0 0 0 0 0 0 0 0 0 0 0 0 0 0 0 0 0 0 0 0 0 0 0 0 0 0 0 0 0 0 0 0 0 0 0 0 0 0 0 0 0 0 0 0 0 0 0 0 0 0 0 0 0 0 0 0 0 0 0 4.93452e-07 1.97381e-06 4.44107e-06 7.89523e-06 1.23363e-05 1.77643e-05 2.41791e-05 3.15809e-05 4.01158e-05 4.99298e-05 6.1023e-05 7.33954e-05 8.7047e-05 0.000101978 0.000118188 0.000135677 0.000153978 0.000172623 0.000191612 0.000210945 0.000230622 0.000250643 0.000271008 0.000291718 0.000312316 0.00033235 0.000351818 0.00037072 0.000389058 0.00040683 0.000424036 0.000440677 0.000456517 0.000471318 0.000485081 0.000497805 0.000509491 0.000520138 0.000529747 0.000538317 0.000545814 0.000552203 0.000557482 0.000561653 0.000564715 0.000566668 0.000567513 0.000567248 0.000565984 0.00056383 0.000560785 0.00055685 0.000552024 0.000546308 0.000539702 0.000532205 0.000523999 0.000515264 0.000506 0.000496208 0.000485888 0.000475038 0.000463661 0.000451754 0.000439505 0.000427096 0.000414529 0.000401803 0.000388919 0.000375876 0.000362675 0.000349314 0.000335938 0.000322689 0.000309567 0.000296571 0.000283702 0.000270961 0.000258346 0.000245858 0.000233579 0.000221592 0.000209897 0.000198494 0.000187382 0.000176563 0.000166035 0.000155799 0.000145884 0.000136318 0.000127101 0.000118234 0.000109716 0.000101547 9.37281e-05 8.62582e-05 7.91329e-05 7.23478e-05 6.59027e-05 5.97979e-05 5.40331e-05 4.86085e-05 4.3524e-05 3.87796e-05 3.43566e-05 3.02363e-05 2.64186e-05 2.29036e-05 1.96912e-05 1.67815e-05 1.41744e-05 1.18699e-05 9.82594e-06 8.00019e-06 6.39268e-06 5.00341e-06 3.83238e-06 2.87959e-06 2.14504e-06 1.62874e-06 1.247e-06 9.16164e-07 6.36225e-07 4.07184e-07 2.29041e-07 1.01796e-07 2.5449e-08 0 0 1.97381e-06 7.89523e-06 1.77643e-05 3.15809e-05 4.93452e-05 7.10571e-05 9.67166e-05 0.000126324 0.000160463 0.000199719 0.000244092 0.000293582 0.000348188 0.000407911 0.000472751 0.000542708 0.000615912 0.000690491 0.000766447 0.000843779 0.000922488 0.00100257 0.00108403 0.00116687 0.00124927 0.0013294 0.00140727 0.00148288 0.00155623 0.00162732 0.00169614 0.00176271 0.00182607 0.00188527 0.00194032 0.00199122 0.00203796 0.00208055 0.00211899 0.00215327 0.00218326 0.00220881 0.00222993 0.00224661 0.00225886 0.00226667 0.00227005 0.00226899 0.00226394 0.00225532 0.00224314 0.0022274 0.0022081 0.00218523 0.00215881 0.00212882 0.00209599 0.00206105 0.002024 0.00198483 0.00194355 0.00190015 0.00185464 0.00180702 0.00175802 0.00170838 0.00165812 0.00160721 0.00155568 0.0015035 0.0014507 0.00139726 0.00134375 0.00129076 0.00123827 0.00118628 0.00113481 0.00108384 0.00103338 0.00098343 0.000934315 0.000886367 0.000839587 0.000793974 0.000749529 0.000706251 0.00066414 0.000623196 0.000583535 0.000545272 0.000508405 0.000472936 0.000438864 0.00040619 0.000374913 0.000345033 0.000316532 0.000289391 0.000263611 0.000239191 0.000216132 0.000194434 0.000174096 0.000155118 0.000137427 0.000120945 0.000105675 9.16144e-05 7.87648e-05 6.71259e-05 5.66975e-05 4.74798e-05 3.93038e-05 3.20008e-05 2.55707e-05 2.00136e-05 1.53295e-05 1.15184e-05 8.58017e-06 6.51495e-06 4.98801e-06 3.66466e-06 2.5449e-06 1.62874e-06 9.16164e-07 4.07184e-07 1.01796e-07 0 0 4.44107e-06 1.77643e-05 3.99696e-05 7.10571e-05 0.000111027 0.000159878 0.000217612 0.000284228 0.000361042 0.000449368 0.000549207 0.000660559 0.000783423 0.000917801 0.00106369 0.00122109 0.0013858 0.00155361 0.00172451 0.0018985 0.0020756 0.00225579 0.00243907 0.00262546 0.00281085 0.00299115 0.00316636 0.00333648 0.00350152 0.00366147 0.00381633 0.0039661 0.00410865 0.00424186 0.00436572 0.00448024 0.00458541 0.00468124 0.00476772 0.00484486 0.00491233 0.00496982 0.00501734 0.00505488 0.00508243 0.00510001 0.00510761 0.00510523 0.00509386 0.00507447 0.00504707 0.00501165 0.00496822 0.00491678 0.00485732 0.00478985 0.00471599 0.00463737 0.004554 0.00446587 0.00437299 0.00427535 0.00417295 0.00406579 0.00395554 0.00384387 0.00373076 0.00361623 0.00350027 0.00338289 0.00326407 0.00314383 0.00302344 0.0029042 0.0027861 0.00266914 0.00255332 0.00243865 0.00232511 0.00221272 0.00210221 0.00199433 0.00188907 0.00178644 0.00168644 0.00158906 0.00149431 0.00140219 0.00131295 0.00122686 0.00114391 0.00106411 0.000987445 0.000913927 0.000843553 0.000776323 0.000712196 0.00065113 0.000593125 0.000538181 0.000486298 0.000437476 0.000391716 0.000349017 0.00030921 0.000272127 0.000237768 0.000206132 0.000177221 0.000151033 0.000127569 0.000106829 8.84335e-05 7.20017e-05 5.75341e-05 4.50306e-05 3.44914e-05 2.59163e-05 1.93054e-05 1.46586e-05 1.1223e-05 8.24548e-06 5.72603e-06 3.66466e-06 2.06137e-06 9.16164e-07 2.29041e-07 0 0 7.89523e-06 3.15809e-05 7.10571e-05 0.000126324 0.000197381 0.000284228 0.000386866 0.000505295 0.000641852 0.000798877 0.000976368 0.00117433 0.00139275 0.00163165 0.00189101 0.00217083 0.00246365 0.00276196 0.00306579 0.00337512 0.00368995 0.00401029 0.00433613 0.00466748 0.00499706 0.00531759 0.00562908 0.00593152 0.00622492 0.00650927 0.00678458 0.00705084 0.00730427 0.00754109 0.00776129 0.00796488 0.00815185 0.00832221 0.00847595 0.00861308 0.00873303 0.00883524 0.00891971 0.00898645 0.00903544 0.00906669 0.0090802 0.00907597 0.00905575 0.00902128 0.00897256 0.0089096 0.00883239 0.00874094 0.00863523 0.00851528 0.00838398 0.00824422 0.008096 0.00793933 0.0077742 0.00760061 0.00741857 0.00722807 0.00703207 0.00683354 0.00663247 0.00642885 0.00622271 0.00601402 0.00580279 0.00558903 0.00537501 0.00516302 0.00495307 0.00474514 0.00453924 0.00433537 0.00413353 0.00393372 0.00373726 0.00354547 0.00335835 0.0031759 0.00299811 0.002825 0.00265656 0.00249279 0.00233414 0.00218109 0.00203362 0.00189174 0.00175546 0.00162476 0.00149965 0.00138013 0.00126613 0.00115756 0.00105444 0.000956766 0.00086453 0.000777736 0.000696384 0.000620474 0.000549706 0.000483781 0.000422698 0.000366457 0.000315059 0.000268503 0.00022679 0.000189919 0.000157215 0.000128003 0.000102283 8.00545e-05 6.1318e-05 4.60734e-05 3.43207e-05 2.60598e-05 1.9952e-05 1.46586e-05 1.01796e-05 6.51495e-06 3.66466e-06 1.62874e-06 4.07184e-07 0 0 1.23363e-05 4.93452e-05 0.000111027 0.000197381 0.000308407 0.000444107 0.000604479 0.000789523 0.00100289 0.00124824 0.00152558 0.00183489 0.00217618 0.00254945 0.0029547 0.00339193 0.00384945 0.00431557 0.00479029 0.00527362 0.00576555 0.00626608 0.00677521 0.00729294 0.00780791 0.00830874 0.00879544 0.00926801 0.00972644 0.0101707 0.0106009 0.0110169 0.0114129 0.0117829 0.012127 0.0124451 0.0127373 0.0130034 0.0132437 0.0134579 0.0136454 0.0138051 0.0139371 0.0140413 0.0141179 0.0141667 0.0141878 0.0141812 0.0141496 0.0140958 0.0140196 0.0139213 0.0138006 0.0136577 0.0134925 0.0133051 0.0131 0.0128816 0.01265 0.0124052 0.0121472 0.011876 0.0115915 0.0112939 0.0109876 0.0106774 0.0103632 0.0100451 0.00972298 0.0093969 0.00906686 0.00873286 0.00839846 0.00806723 0.00773917 0.00741428 0.00709256 0.00677402 0.00645864 0.00614644 0.00583947 0.0055398 0.00524742 0.00496234 0.00468455 0.00441407 0.00415087 0.00389498 0.0036471 0.00340795 0.00317753 0.00295585 0.0027429 0.00253869 0.0023432 0.00215645 0.00197832 0.00180869 0.00164757 0.00149495 0.00135083 0.00121521 0.0010881 0.000969491 0.000858916 0.000755908 0.000660466 0.00057259 0.00049228 0.000419537 0.000354359 0.000296748 0.000245649 0.000200005 0.000159817 0.000125085 9.58094e-05 7.19897e-05 5.3626e-05 4.07184e-05 3.1175e-05 2.29041e-05 1.59056e-05 1.01796e-05 5.72603e-06 2.5449e-06 6.36225e-07 0 0 1.77643e-05 7.10571e-05 0.000159878 0.000284228 0.000444107 0.000639514 0.000870449 0.00113691 0.00144417 0.00179747 0.00219683 0.00264224 0.00313369 0.0036712 0.00425476 0.00488437 0.0055432 0.00621442 0.00689802 0.00759401 0.00830239 0.00902315 0.0097563 0.0105018 0.0112434 0.0119646 0.0126654 0.0133459 0.0140061 0.0146459 0.0152653 0.0158644 0.0164346 0.0169674 0.0174629 0.017921 0.0183417 0.018725 0.0190709 0.0193794 0.0196493 0.0198793 0.0200694 0.0202195 0.0203297 0.0204001 0.0204305 0.0204209 0.0203754 0.0202979 0.0201883 0.0200466 0.0198729 0.0196671 0.0194293 0.0191594 0.018864 0.0185495 0.018216 0.0178635 0.017492 0.0171014 0.0166918 0.0162632 0.0158222 0.0153755 0.014923 0.0144649 0.0140011 0.0135315 0.0130563 0.0125753 0.0120938 0.0116168 0.0111444 0.0106766 0.0102133 0.00975458 0.00930044 0.00885087 0.00840884 0.00797731 0.00755628 0.00714577 0.00674576 0.00635626 0.00597726 0.00560877 0.00525182 0.00490745 0.00457565 0.00425643 0.00394978 0.00365571 0.00337421 0.00310529 0.00284878 0.00260452 0.0023725 0.00215272 0.00194519 0.00174991 0.00156686 0.00139607 0.00123684 0.00108851 0.000951071 0.000824529 0.000708883 0.000604133 0.000510278 0.000427318 0.000353734 0.000288007 0.000230136 0.000180123 0.000137966 0.000103665 7.72215e-05 5.86345e-05 4.48921e-05 3.29819e-05 2.29041e-05 1.46586e-05 8.24548e-06 3.66466e-06 9.16164e-07 0 0 2.41791e-05 9.67166e-05 0.000217612 0.000386866 0.000604479 0.000870449 0.00118478 0.00154747 0.00196567 0.00244656 0.00299013 0.00359638 0.0042653 0.00499691 0.0057912 0.00664818 0.00754492 0.00845852 0.00938898 0.0103363 0.0113005 0.0122815 0.0132794 0.0142942 0.0153035 0.0162851 0.0172391 0.0181653 0.0190638 0.0199346 0.0207778 0.0215932 0.0223693 0.0230946 0.0237689 0.0243924 0.024965 0.0254868 0.0259576 0.0263776 0.0267449 0.0270579 0.0273166 0.027521 0.027671 0.0277667 0.0278081 0.0277952 0.0277332 0.0276277 0.0274785 0.0272857 0.0270492 0.0267691 0.0264454 0.026078 0.0256759 0.0252479 0.024794 0.0243142 0.0238085 0.0232769 0.0227194 0.022136 0.0215357 0.0209277 0.0203119 0.0196884 0.019057 0.0184179 0.0177711 0.0171164 0.016461 0.0158118 0.0151688 0.014532 0.0139014 0.0132771 0.0126589 0.012047 0.0114454 0.010858 0.0102849 0.00972618 0.00918173 0.00865157 0.00813571 0.00763416 0.00714831 0.00667958 0.00622797 0.00579347 0.00537609 0.00497583 0.00459268 0.00422665 0.00387751 0.00354504 0.00322923 0.0029301 0.00264762 0.00238182 0.00213268 0.0019002 0.00168348 0.00148158 0.00129451 0.00112228 0.000964869 0.000822292 0.000694545 0.000581627 0.000481471 0.000392009 0.000313241 0.000245167 0.000187786 0.0001411 0.000105107 7.98081e-05 6.11031e-05 4.48921e-05 3.1175e-05 1.9952e-05 1.1223e-05 4.98801e-06 1.247e-06 0 0 3.15809e-05 0.000126324 0.000284228 0.000505295 0.000789523 0.00113691 0.00154747 0.00202118 0.00256741 0.00319551 0.00390547 0.00469731 0.00557101 0.00652658 0.00756402 0.00868333 0.00985458 0.0110479 0.0122632 0.0135005 0.0147598 0.0160412 0.0173445 0.0186699 0.0199882 0.0212704 0.0225163 0.0237261 0.0248997 0.0260371 0.0271383 0.0282034 0.0292171 0.0301643 0.0310452 0.0318595 0.0326074 0.0332888 0.0339038 0.0344523 0.0349321 0.035341 0.0356789 0.0359458 0.0361418 0.0362668 0.0363208 0.0363039 0.036223 0.0360851 0.0358903 0.0356384 0.0353296 0.0349637 0.0345409 0.0340611 0.0335359 0.0329769 0.032384 0.0317573 0.0310968 0.0304025 0.0296743 0.0289123 0.0281283 0.0273342 0.0265299 0.0257154 0.0248908 0.0240561 0.0232112 0.0223561 0.0215 0.0206521 0.0198123 0.0189806 0.018157 0.0173415 0.0165341 0.0157349 0.014949 0.0141819 0.0134334 0.0127036 0.0119925 0.0113 0.0106262 0.00997114 0.00933657 0.00872435 0.00813448 0.00756698 0.00702183 0.00649904 0.0059986 0.00552052 0.0050645 0.00463026 0.00421778 0.00382706 0.00345812 0.00311094 0.00278554 0.0024819 0.00219883 0.00193512 0.00169079 0.00146583 0.00126024 0.00107401 0.00090716 0.000759676 0.00062886 0.000512012 0.000409131 0.000320218 0.000245272 0.000184294 0.000137283 0.000104239 7.98081e-05 5.86345e-05 4.07184e-05 2.60598e-05 1.46586e-05 6.51495e-06 1.62874e-06 0 0 4.01697e-05 0.000160679 0.000361527 0.000642715 0.00100424 0.00144611 0.00196831 0.00257086 0.00326521 0.00406282 0.0049637 0.00596784 0.00707525 0.00828592 0.00959985 0.0110171 0.0124997 0.01401 0.015548 0.0171136 0.0187068 0.0203277 0.0219763 0.0236524 0.0253196 0.026941 0.0285167 0.0300466 0.0315308 0.0329693 0.0343621 0.0357091 0.0369912 0.0381894 0.0393036 0.0403338 0.0412801 0.0421423 0.0429206 0.0436149 0.0442223 0.0447401 0.0451681 0.0455064 0.045755 0.0459139 0.0459831 0.0459626 0.0458612 0.0456877 0.045442 0.0451243 0.0447345 0.0442726 0.0437386 0.0431326 0.042469 0.0417626 0.0410134 0.0402213 0.0393864 0.0385086 0.037588 0.0366246 0.0356332 0.034629 0.0336118 0.0325818 0.0315388 0.0304829 0.029414 0.0283323 0.0272492 0.0261763 0.0251136 0.0240611 0.0230189 0.0219868 0.0209649 0.0199532 0.0189585 0.0179873 0.0170397 0.0161156 0.0152152 0.0143383 0.0134851 0.0126554 0.0118516 0.0110761 0.0103289 0.00960994 0.00891924 0.0082568 0.00762262 0.00701671 0.00643869 0.00588821 0.00536525 0.00486983 0.00440193 0.00396157 0.00354873 0.00316343 0.00280413 0.00246933 0.00215901 0.00187319 0.00161185 0.00137501 0.00116265 0.000974784 0.000808012 0.000658938 0.000527562 0.000413884 0.000317904 0.000239622 0.000179037 0.000136151 0.00010424 7.65847e-05 5.31838e-05 3.40376e-05 1.91462e-05 8.50941e-06 2.12735e-06 0 0 5.01455e-05 0.000200582 0.00045131 0.000802328 0.00125364 0.00180524 0.00245713 0.00320931 0.0040749 0.00506701 0.00618564 0.00743078 0.00880245 0.0103006 0.0119253 0.0136766 0.0155078 0.0173726 0.0192709 0.0212027 0.023168 0.0251668 0.0271992 0.029265 0.0313195 0.0333177 0.0352596 0.0371452 0.0389745 0.0407475 0.0424642 0.0441246 0.0457052 0.0471825 0.0485564 0.0498271 0.0509944 0.0520584 0.0530191 0.0538765 0.054627 0.055267 0.0557965 0.0562155 0.056524 0.0567221 0.0568097 0.0567868 0.0566642 0.0564527 0.0561522 0.0557629 0.0552846 0.0547175 0.0540614 0.0533163 0.0525004 0.0516314 0.0507095 0.0497346 0.0487067 0.0476259 0.0464921 0.0453053 0.0440839 0.0428464 0.0415928 0.040323 0.0390372 0.0377351 0.036417 0.0350827 0.0337466 0.0324229 0.0311115 0.0298126 0.0285261 0.0272519 0.0259902 0.0247408 0.0235122 0.0223125 0.0211417 0.02 0.0188872 0.0178033 0.0167485 0.0157226 0.0147286 0.0137693 0.0128449 0.0119553 0.0111006 0.0102806 0.00949539 0.00874501 0.00802901 0.00734693 0.00669879 0.00608458 0.0055043 0.00495796 0.00444555 0.00396707 0.00352063 0.00310437 0.00271827 0.00236234 0.00203657 0.00174097 0.00147554 0.00124027 0.00103104 0.000843711 0.00067829 0.000534774 0.000413164 0.000313459 0.000235659 0.000179765 0.000137633 0.000101118 7.02208e-05 4.49413e-05 2.52795e-05 1.12353e-05 2.80883e-06 0 0 6.15084e-05 0.000246034 0.000553576 0.000984135 0.00153771 0.0022143 0.00301391 0.00393654 0.00499649 0.00620807 0.00757129 0.00908614 0.0107526 0.0125707 0.0145405 0.0166619 0.0188789 0.0211355 0.0234318 0.0257677 0.0281433 0.0305584 0.0330133 0.0355077 0.037988 0.0404005 0.0427451 0.0450218 0.0472306 0.0493716 0.0514447 0.0534499 0.055359 0.0571435 0.0588036 0.0603393 0.0617504 0.0630371 0.0641993 0.0652371 0.066146 0.0669216 0.0675639 0.0680729 0.0684487 0.0686912 0.0688005 0.0687765 0.0686321 0.0683802 0.0680209 0.0675541 0.0669799 0.0662982 0.065509 0.0646124 0.06363 0.0625833 0.0614724 0.0602973 0.0590579 0.0577543 0.0563864 0.0549544 0.0534803 0.0519864 0.0504727 0.0489393 0.047386 0.045813 0.0442201 0.0426075 0.0409923 0.0393918 0.037806 0.0362349 0.0346786 0.0331369 0.0316099 0.0300977 0.0286102 0.0271575 0.0257396 0.0243566 0.0230084 0.021695 0.0204164 0.0191727 0.0179673 0.016804 0.0156826 0.0146032 0.0135658 0.0125703 0.0116169 0.0107054 0.00983544 0.00900643 0.00821839 0.00747133 0.00676524 0.00610012 0.00547598 0.00489282 0.00434834 0.00384026 0.00336857 0.00293329 0.0025344 0.00217191 0.00184583 0.00155613 0.00129794 0.00106633 0.000861314 0.000682888 0.000531052 0.000405805 0.000307149 0.000235083 0.000179986 0.000132234 9.18295e-05 5.87709e-05 3.30586e-05 1.46927e-05 3.67318e-06 0 0 7.42584e-05 0.000297033 0.000668325 0.00118813 0.00185646 0.0026733 0.00363866 0.00475254 0.00602997 0.00748601 0.00912065 0.0109339 0.0129258 0.0150962 0.0174453 0.0199729 0.0226129 0.0252989 0.0280308 0.0308087 0.0336327 0.0365026 0.0394185 0.0423805 0.0453251 0.0481894 0.0509731 0.0536764 0.0562993 0.0588416 0.0613035 0.063685 0.0659525 0.0680725 0.0700452 0.0718703 0.0735481 0.0750784 0.0764613 0.0776967 0.0787793 0.0797039 0.0804704 0.0810788 0.0815291 0.0818214 0.0819555 0.0819316 0.0817648 0.0814702 0.0810479 0.080498 0.0798203 0.0790148 0.0780817 0.0770209 0.0758578 0.0746182 0.073302 0.0719092 0.0704398 0.0688938 0.0672711 0.0655719 0.0638224 0.062049 0.0602517 0.0584305 0.0565854 0.0547163 0.0528234 0.0509065 0.0489862 0.0470831 0.0451971 0.0433282 0.0414764 0.0396417 0.0378242 0.0360237 0.0342524 0.0325223 0.0308333 0.0291855 0.0275788 0.0260133 0.0244889 0.0230057 0.021568 0.02018 0.0188418 0.0175535 0.0163149 0.0151261 0.0139872 0.012898 0.011858 0.0108667 0.00992406 0.00903007 0.00818474 0.00738806 0.00664004 0.00594068 0.00528724 0.00467698 0.00410992 0.00358604 0.00310534 0.00266783 0.00227351 0.00192238 0.00160871 0.0013268 0.00107664 0.000858225 0.000671567 0.000516661 0.000393507 0.000302105 0.000231299 0.000169934 0.00011801 7.55262e-05 4.24835e-05 1.88816e-05 4.72039e-06 0 0 8.83954e-05 0.000353582 0.000795558 0.00141433 0.00220988 0.00318223 0.00433137 0.0056573 0.00717535 0.00890082 0.0108337 0.0129741 0.0153219 0.0178771 0.0206397 0.0236098 0.0267099 0.0298626 0.0330679 0.0363258 0.0396362 0.0429993 0.046415 0.0498833 0.0533308 0.0566843 0.0599437 0.0631091 0.0661804 0.0691576 0.0720408 0.0748299 0.0774858 0.0799695 0.0822811 0.0844204 0.0863874 0.0881823 0.0898049 0.0912553 0.0925271 0.093614 0.094516 0.0952331 0.0957652 0.0961125 0.0962748 0.0962522 0.0960623 0.0957227 0.0952334 0.0945945 0.0938058 0.0928674 0.0917794 0.0905416 0.089184 0.0877362 0.0861984 0.0845705 0.0828525 0.0810443 0.0791461 0.0771578 0.0751103 0.0730342 0.0709297 0.0687966 0.0666351 0.0644452 0.0622267 0.0599798 0.0577284 0.0554967 0.0532847 0.0510923 0.0489195 0.0467664 0.0446329 0.0425191 0.040439 0.038407 0.0364229 0.0344867 0.0325985 0.0307583 0.028966 0.0272217 0.0255304 0.0238974 0.0223227 0.0208062 0.0193479 0.0179479 0.0166062 0.0153226 0.0140967 0.0129278 0.0118158 0.0107608 0.0097628 0.00882177 0.00793772 0.00711065 0.00633734 0.00561455 0.0049423 0.00432058 0.00374939 0.00322873 0.0027586 0.002339 0.00196336 0.00162511 0.00132425 0.00106079 0.000834711 0.000646026 0.000494733 0.00038083 0.000291573 0.000214217 0.000148762 9.52074e-05 5.35542e-05 2.38019e-05 5.95046e-06 0 0 0.000103919 0.000415678 0.000935275 0.00166271 0.00259799 0.0037411 0.00509205 0.00665085 0.00843262 0.0104525 0.0127105 0.0152067 0.0179409 0.0209133 0.0241238 0.0275724 0.0311698 0.0348267 0.038543 0.0423187 0.0461539 0.0500486 0.0540026 0.0580162 0.0620051 0.0658853 0.0696569 0.0733197 0.076874 0.0803195 0.0836563 0.0868845 0.0899589 0.0928345 0.0955113 0.0979893 0.100268 0.102349 0.10423 0.105913 0.107389 0.108652 0.109701 0.110536 0.111157 0.111565 0.111758 0.111738 0.111525 0.111138 0.110577 0.109844 0.108936 0.107856 0.106602 0.105175 0.103608 0.101937 0.100162 0.0982811 0.0962959 0.094206 0.0920115 0.0897122 0.0873438 0.084942 0.0825066 0.0800378 0.0775354 0.0749996 0.0724302 0.0698274 0.0672189 0.0646327 0.0620689 0.0595272 0.0570079 0.0545109 0.0520361 0.0495836 0.0471699 0.0448114 0.0425082 0.0402602 0.0380674 0.0359299 0.0338476 0.0318205 0.0298548 0.0279563 0.0261252 0.0243614 0.0226649 0.0210357 0.0194739 0.0179794 0.0165515 0.0151896 0.0138936 0.0126635 0.0114994 0.0104012 0.00936902 0.00840274 0.00749864 0.00665297 0.00586573 0.00513692 0.00446654 0.0038546 0.00330108 0.002806 0.00236188 0.00196127 0.00160417 0.00129057 0.00102048 0.000793901 0.000610826 0.000471258 0.000360807 0.000265082 0.000184085 0.000117814 6.62706e-05 2.94536e-05 7.3634e-06 0 0 0.000120831 0.000483322 0.00108748 0.00193329 0.00302077 0.0043499 0.0059207 0.00773316 0.00980178 0.0121411 0.014751 0.0176317 0.020783 0.0242049 0.0278976 0.0318609 0.0359928 0.0401912 0.0444562 0.0487877 0.0531858 0.0576503 0.0621815 0.0667791 0.0713479 0.0757924 0.0801126 0.0843085 0.08838 0.0923273 0.0961503 0.0998489 0.103372 0.106667 0.109736 0.112577 0.115191 0.117578 0.119737 0.12167 0.123366 0.124817 0.126024 0.126987 0.127705 0.128178 0.128406 0.12839 0.128152 0.127715 0.12708 0.126245 0.125212 0.12398 0.12255 0.12092 0.119131 0.117221 0.115191 0.113041 0.11077 0.108379 0.105867 0.103235 0.100523 0.0977723 0.0949826 0.0921538 0.0892861 0.0863795 0.0834338 0.0804492 0.0774577 0.0744911 0.0715496 0.0686331 0.0657417 0.0628752 0.0600338 0.0572175 0.0544451 0.0517357 0.0490894 0.046506 0.0439856 0.0415282 0.0391338 0.0368023 0.0345409 0.0323566 0.0302493 0.028219 0.0262657 0.0243895 0.0225904 0.0208683 0.0192224 0.0176522 0.0161574 0.0147382 0.0133946 0.0121265 0.0109339 0.00981693 0.00877113 0.00779222 0.0068802 0.00603506 0.00525681 0.00454544 0.00390096 0.00332337 0.00280427 0.00233528 0.00191638 0.00154758 0.00122888 0.000960284 0.000741787 0.000573389 0.000439001 0.000322531 0.00022398 0.000143347 8.06329e-05 3.58368e-05 8.95921e-06 0 0 0.000139129 0.000556515 0.00125216 0.00222606 0.00347822 0.00500864 0.00681731 0.00890425 0.0112828 0.0139665 0.0169553 0.0202491 0.023848 0.0277519 0.031961 0.0364751 0.0411787 0.0459561 0.0508074 0.0557326 0.0607317 0.0658047 0.0709515 0.0761722 0.0813593 0.0864056 0.0913108 0.0960752 0.100699 0.105181 0.109523 0.113723 0.117725 0.121468 0.124955 0.128184 0.131155 0.133869 0.136326 0.138525 0.140457 0.142111 0.143487 0.144586 0.145408 0.145952 0.146218 0.146207 0.145944 0.145455 0.14474 0.1438 0.142633 0.141241 0.139622 0.137778 0.135752 0.133589 0.131288 0.12885 0.126275 0.123563 0.120713 0.117726 0.114648 0.111525 0.108358 0.105145 0.101887 0.0985849 0.0952376 0.0918454 0.0884447 0.0850718 0.0817269 0.0784099 0.0751207 0.0718594 0.068626 0.0654205 0.0622646 0.0591799 0.0561663 0.0532241 0.050353 0.0475531 0.0448245 0.0421671 0.039589 0.0370983 0.0346949 0.032379 0.0301505 0.0280093 0.0259556 0.0239893 0.0221095 0.0203155 0.0186074 0.016985 0.0154483 0.0139975 0.0126325 0.0113532 0.0101548 0.00903232 0.00798571 0.00701499 0.00612018 0.00530126 0.00455825 0.00389113 0.00329054 0.00274713 0.00226088 0.00183181 0.00145991 0.00114518 0.000887615 0.000687224 0.000526156 0.000386563 0.000268447 0.000171806 9.66409e-05 4.29515e-05 1.07379e-05 0 0 0.00015844 0.00063376 0.00142596 0.00253504 0.003961 0.00570384 0.00776356 0.0101402 0.0128456 0.0158917 0.0192786 0.0230063 0.0270747 0.0314838 0.0362337 0.0413244 0.046626 0.0520089 0.057473 0.0630184 0.0686451 0.074353 0.0801422 0.0860127 0.0918446 0.0975182 0.103034 0.108391 0.113589 0.11863 0.123512 0.128236 0.132736 0.136947 0.140869 0.144503 0.147847 0.150903 0.15367 0.156148 0.158325 0.160191 0.161745 0.162988 0.163918 0.164537 0.164844 0.164839 0.164551 0.164009 0.163213 0.162163 0.160858 0.159299 0.157486 0.155419 0.153147 0.15072 0.148139 0.145402 0.142511 0.139464 0.136263 0.132907 0.129447 0.125937 0.122376 0.118763 0.115099 0.111384 0.107618 0.103801 0.0999731 0.0961763 0.0924104 0.0886752 0.0849708 0.0812971 0.0776542 0.0740421 0.0704853 0.0670082 0.0636108 0.0602932 0.0570553 0.0538971 0.0508187 0.04782 0.0449103 0.0420987 0.0393853 0.03677 0.0342529 0.031834 0.0295132 0.0272906 0.0251652 0.0231364 0.021204 0.019368 0.0176285 0.0159854 0.0144388 0.0129886 0.0116293 0.0103552 0.00916647 0.008063 0.00704481 0.0061119 0.00526427 0.00450191 0.00381451 0.0031917 0.0026335 0.0021399 0.0017109 0.00134651 0.00104672 0.000811536 0.000621332 0.000456489 0.000317006 0.000202884 0.000114122 5.0721e-05 1.26802e-05 0 0 0.00017839 0.00071356 0.00160551 0.00285424 0.00445975 0.00642204 0.00874111 0.011417 0.0144598 0.0178796 0.0216766 0.0258507 0.0304019 0.0353301 0.0406355 0.046318 0.0522332 0.058237 0.0643293 0.07051 0.0767793 0.083137 0.0895833 0.096118 0.102609 0.108924 0.115063 0.121025 0.126812 0.132422 0.137856 0.143114 0.148124 0.152813 0.157181 0.161228 0.164954 0.168359 0.171443 0.174206 0.176635 0.178718 0.180454 0.181844 0.182887 0.183583 0.183933 0.183935 0.183624 0.183029 0.18215 0.180989 0.179545 0.177818 0.175807 0.173514 0.170992 0.168298 0.16543 0.162389 0.159176 0.155789 0.15223 0.148497 0.14465 0.140744 0.136781 0.13276 0.128681 0.124545 0.120351 0.1161 0.111836 0.107606 0.10341 0.0992468 0.0951176 0.091022 0.08696 0.0829316 0.0789641 0.0750851 0.0712944 0.0675921 0.0639781 0.0604525 0.0570153 0.0536664 0.0504162 0.0472752 0.0442433 0.0413205 0.0385068 0.0358022 0.0332067 0.0307204 0.0283422 0.0260714 0.0239079 0.0218516 0.0199027 0.0180611 0.0163268 0.0146999 0.013174 0.0117429 0.0104067 0.00916536 0.00801885 0.00696718 0.00601036 0.00514839 0.00436998 0.00366386 0.00303002 0.00246847 0.0019792 0.00156222 0.00121751 0.000945098 0.000723591 0.000531618 0.000369179 0.000236275 0.000132904 5.90686e-05 1.47672e-05 0 0 0.000198979 0.000795916 0.00179081 0.00318366 0.00497448 0.00716325 0.00974997 0.0127347 0.0161254 0.0199302 0.0241492 0.0287823 0.0338295 0.0392909 0.0451664 0.0514559 0.0580004 0.0646404 0.0713761 0.0782073 0.0851341 0.0921566 0.0992746 0.106488 0.113652 0.120622 0.127398 0.133979 0.140366 0.146558 0.152556 0.15836 0.16389 0.169066 0.173889 0.178358 0.182473 0.186236 0.189644 0.192699 0.195386 0.197692 0.199614 0.201155 0.202314 0.20309 0.203484 0.203496 0.203161 0.202513 0.201553 0.20028 0.198695 0.196797 0.194586 0.192063 0.189287 0.186321 0.183162 0.179813 0.176271 0.172539 0.168614 0.164498 0.160255 0.155946 0.151573 0.147136 0.142635 0.138068 0.133438 0.128743 0.124034 0.119361 0.114725 0.110125 0.105561 0.101034 0.0965432 0.0920888 0.0877012 0.0834106 0.0792172 0.0751208 0.0711215 0.0672193 0.0634142 0.0597062 0.0561069 0.0526278 0.049269 0.0460304 0.0429121 0.039914 0.0370362 0.0342787 0.0316404 0.0291206 0.0267191 0.0244359 0.0222712 0.0202248 0.0182968 0.0164871 0.014789 0.0131954 0.0117064 0.0103221 0.00904229 0.00786712 0.00679654 0.00583056 0.00495698 0.00416362 0.00345046 0.00281753 0.0022648 0.00179229 0.0014 0.00108791 0.000832932 0.00061195 0.000424965 0.000271978 0.000152988 6.79944e-05 1.69986e-05 0 0 0.000220207 0.000880828 0.00198186 0.00352331 0.00550517 0.00792745 0.0107901 0.0140932 0.0178425 0.0220435 0.0266964 0.0318011 0.0373577 0.043366 0.0498262 0.0567383 0.0639275 0.0712192 0.0786135 0.0861104 0.0937098 0.101412 0.109216 0.117123 0.124975 0.132614 0.140039 0.147252 0.154252 0.161038 0.167612 0.173972 0.180033 0.185706 0.190993 0.195894 0.200407 0.204534 0.208274 0.211628 0.214579 0.217111 0.219226 0.220921 0.222199 0.223058 0.223499 0.223522 0.223164 0.222464 0.221421 0.220035 0.218307 0.216236 0.213822 0.211066 0.208033 0.20479 0.201336 0.197672 0.193797 0.189712 0.185416 0.18091 0.176262 0.171544 0.166753 0.161892 0.156958 0.151954 0.146877 0.14173 0.136566 0.131441 0.126355 0.121309 0.116301 0.111333 0.106404 0.101514 0.0966963 0.0919847 0.087379 0.0828793 0.0784855 0.0741976 0.0700156 0.0659395 0.0619822 0.0581565 0.0544624 0.0508998 0.0474689 0.0441695 0.0410017 0.0379655 0.0350599 0.0322839 0.0296376 0.0271209 0.0247338 0.0224763 0.0203485 0.0183503 0.0164742 0.0147127 0.0130656 0.0115331 0.0101151 0.0088117 0.00762279 0.00654841 0.00557549 0.00469096 0.00389482 0.00318707 0.00256771 0.00203674 0.00159416 0.00123997 0.000949356 0.000697486 0.000484365 0.000309994 0.000174371 7.74984e-05 1.93746e-05 0 0 0.000242074 0.000968294 0.00217866 0.00387318 0.00605184 0.00871465 0.0118616 0.0154927 0.019611 0.0242195 0.0293182 0.0349071 0.0409863 0.0475556 0.0546152 0.0621649 0.0700145 0.0779734 0.0860416 0.0942192 0.102506 0.110902 0.119408 0.128023 0.136577 0.144898 0.152987 0.160844 0.168469 0.175862 0.183022 0.189951 0.196553 0.202734 0.208495 0.213835 0.218755 0.223255 0.227333 0.230992 0.234212 0.236978 0.239288 0.241143 0.242543 0.243488 0.243977 0.244012 0.243632 0.242879 0.241753 0.240254 0.238381 0.236135 0.233516 0.230523 0.227229 0.223705 0.21995 0.215966 0.211752 0.207309 0.202635 0.197731 0.192673 0.187536 0.18232 0.177026 0.171653 0.166201 0.16067 0.15506 0.149432 0.143846 0.138302 0.132799 0.127338 0.121919 0.116542 0.111207 0.10595 0.100807 0.0957801 0.0908676 0.08607 0.0813872 0.0768193 0.0723663 0.0680422 0.0638613 0.0598234 0.0559287 0.0521771 0.0485685 0.0451031 0.0417808 0.0386006 0.0355614 0.0326634 0.0299064 0.0272905 0.0248158 0.0224821 0.0202895 0.0182298 0.0162947 0.0144843 0.0127985 0.0112374 0.00980093 0.00848912 0.00730195 0.00622551 0.00524589 0.00436309 0.0035771 0.00288792 0.00229556 0.00180002 0.00140129 0.00107286 0.000788225 0.000547379 0.000350322 0.000197056 8.75806e-05 2.18951e-05 0 0 0.000264579 0.00105832 0.00238121 0.00423327 0.00661448 0.00952485 0.0129644 0.0169331 0.021431 0.0264582 0.0320146 0.0381003 0.0447153 0.0518596 0.0595331 0.0677359 0.0762614 0.0849029 0.0936603 0.102534 0.111523 0.120629 0.12985 0.139188 0.148457 0.157475 0.166241 0.174756 0.183018 0.191029 0.198788 0.206296 0.21345 0.220149 0.226393 0.232182 0.237517 0.242396 0.246821 0.250791 0.254287 0.25729 0.259801 0.261819 0.263345 0.264378 0.264919 0.264966 0.264566 0.263761 0.262551 0.260936 0.258918 0.256494 0.253666 0.250434 0.246874 0.243065 0.239006 0.234697 0.230138 0.225329 0.220271 0.214963 0.209486 0.203924 0.198275 0.192539 0.186718 0.18081 0.174816 0.168735 0.162634 0.156577 0.150564 0.144596 0.138672 0.132793 0.126958 0.121167 0.115461 0.109879 0.10442 0.0990857 0.093875 0.0887883 0.0838254 0.0789865 0.0742869 0.0697422 0.0653522 0.0611171 0.0570367 0.0531112 0.0493405 0.0457246 0.0422625 0.0389531 0.0357965 0.0327926 0.0299415 0.0272431 0.0246975 0.0223046 0.0200556 0.0179415 0.0159624 0.0141183 0.0124091 0.0108348 0.00939552 0.00809118 0.00690705 0.00582842 0.00485527 0.00398761 0.00322544 0.00256876 0.00201756 0.00157185 0.00120345 0.000884168 0.000614006 0.000392964 0.000221042 9.82409e-05 2.45602e-05 0 0 0.000287724 0.00115089 0.00258951 0.00460358 0.00719309 0.0103581 0.0140985 0.0184143 0.0233024 0.0287595 0.0347856 0.0413807 0.0485449 0.056278 0.0645801 0.0734513 0.0826682 0.0920077 0.10147 0.111054 0.120761 0.130591 0.140543 0.150617 0.160617 0.170345 0.179802 0.188986 0.197899 0.20654 0.21491 0.223007 0.230724 0.237951 0.244688 0.250935 0.256693 0.26196 0.266738 0.271025 0.274803 0.2