<?xml version="1.0"?> 
<VTKFile type="StructuredGrid" version="0.1"> 
<StructuredGrid WholeExtent="0 128 0 128 0 0"> 
<Piece Extent="0 128 0 128 0 0"> 
<PointData>
<DataArray type="Float32" Name="u" format="ascii" NumberOfComponents="1"> 
0 0 0 0 0 0 0 0 0 0 0 0 0 0 0 0 0 0 0 0 0 0 0 0 0 0 0 0 0 0 0 0 0 0 0 0 0 0 0 0 0 0 0 0 0 0 0 0 0 0 0 0 0 0 0 0 0 0 0 0 0 0 0 0 0 0 0 0 0 0 0 0 0 0 0 0 0 0 0 0 0 0 0 0 0 0 0 0 0 0 0 0 0 0 0 0 0 0 0 0 0 0 0 0 0 0 0 0 0 0 0 0 0 0 0 0 0 0 0 0 0 0 0 0 0 0 0 0 0 0 6.95901e-08 2.7836e-07 6.26311e-07 1.11344e-06 1.73975e-06 2.50524e-06 3.40991e-06 4.45376e-06 5.68568e-06 7.15456e-06 8.8604e-06 1.08032e-05 1.29829e-05 1.53996e-05 1.80533e-05 2.09439e-05 2.39879e-05 2.71015e-05 3.02848e-05 3.35377e-05 3.68604e-05 4.02527e-05 4.37146e-05 4.72463e-05 5.07499e-05 5.41276e-05 5.73794e-05 6.05054e-05 6.35055e-05 6.63798e-05 6.91283e-05 7.17508e-05 7.42052e-05 7.64491e-05 7.84824e-05 8.03052e-05 8.19175e-05 8.33193e-05 8.45106e-05 8.54913e-05 8.62803e-05 8.68965e-05 8.73397e-05 8.76101e-05 8.77076e-05 8.76322e-05 8.73839e-05 8.69627e-05 8.64225e-05 8.5817e-05 8.51462e-05 8.44102e-05 8.36089e-05 8.27424e-05 8.18106e-05 8.08136e-05 7.97983e-05 7.88116e-05 7.78535e-05 7.6924e-05 7.60232e-05 7.5151e-05 7.43074e-05 7.34924e-05 7.27152e-05 7.19846e-05 7.13009e-05 7.06639e-05 7.00736e-05 6.95301e-05 6.90334e-05 6.85834e-05 6.81521e-05 6.77113e-05 6.7261e-05 6.68013e-05 6.63322e-05 6.58535e-05 6.53655e-05 6.48679e-05 6.43247e-05 6.36997e-05 6.29927e-05 6.22039e-05 6.13332e-05 6.03807e-05 5.93462e-05 5.823e-05 5.70209e-05 5.5708e-05 5.42914e-05 5.27711e-05 5.11471e-05 4.94193e-05 4.75877e-05 4.56524e-05 4.36425e-05 4.15871e-05 3.94861e-05 3.73397e-05 3.51477e-05 3.29102e-05 3.06271e-05 2.82986e-05 2.59827e-05 2.37376e-05 2.15634e-05 1.946e-05 1.74274e-05 1.54656e-05 1.35747e-05 1.17545e-05 1.00453e-05 8.48704e-06 7.07975e-06 5.82343e-06 4.71808e-06 3.7637e-06 2.96029e-06 2.30784e-06 1.76694e-06 1.29816e-06 9.01501e-07 5.76961e-07 3.2454e-07 1.4424e-07 3.606e-08 0 0 2.7836e-07 1.11344e-06 2.50524e-06 4.45376e-06 6.95901e-06 1.0021e-05 1.36397e-05 1.78151e-05 2.27427e-05 2.86182e-05 3.54416e-05 4.32128e-05 5.19318e-05 6.15986e-05 7.22132e-05 8.37757e-05 9.59515e-05 0.000108406 0.000121139 0.000134151 0.000147441 0.000161011 0.000174859 0.000188985 0.000202999 0.00021651 0.000229518 0.000242022 0.000254022 0.000265519 0.000276513 0.000287003 0.000296821 0.000305796 0.00031393 0.000321221 0.00032767 0.000333277 0.000338042 0.000341965 0.000345121 0.000347586 0.000349359 0.00035044 0.00035083 0.000350529 0.000349535 0.000347851 0.00034569 0.000343268 0.000340585 0.000337641 0.000334436 0.00033097 0.000327243 0.000323254 0.000319193 0.000315246 0.000311414 0.000307696 0.000304093 0.000300604 0.000297229 0.00029397 0.000290861 0.000287939 0.000285204 0.000282656 0.000280295 0.000278121 0.000276134 0.000274334 0.000272608 0.000270845 0.000269044 0.000267205 0.000265329 0.000263414 0.000261462 0.000259472 0.000257299 0.000254799 0.000251971 0.000248816 0.000245333 0.000241523 0.000237385 0.00023292 0.000228083 0.000222832 0.000217166 0.000211084 0.000204588 0.000197677 0.000190351 0.00018261 0.00017457 0.000166348 0.000157945 0.000149359 0.000140591 0.000131641 0.000122509 0.000113194 0.000103931 9.49505e-05 8.62535e-05 7.78399e-05 6.97095e-05 6.18624e-05 5.42986e-05 4.70181e-05 4.01812e-05 3.39482e-05 2.8319e-05 2.32937e-05 1.88723e-05 1.50548e-05 1.18411e-05 9.23137e-06 7.06777e-06 5.19264e-06 3.606e-06 2.30784e-06 1.29816e-06 5.76961e-07 1.4424e-07 0 0 6.26311e-07 2.50524e-06 5.6368e-06 1.0021e-05 1.56578e-05 2.25472e-05 3.06892e-05 4.00839e-05 5.11712e-05 6.43911e-05 7.97436e-05 9.72287e-05 0.000116846 0.000138597 0.00016248 0.000188495 0.000215891 0.000243913 0.000272563 0.000301839 0.000331743 0.000362274 0.000393432 0.000425217 0.000456749 0.000487148 0.000516415 0.000544549 0.00057155 0.000597418 0.000622154 0.000645757 0.000667847 0.000688042 0.000706342 0.000722747 0.000737258 0.000749874 0.000760595 0.000769422 0.000776523 0.000782068 0.000786057 0.000788491 0.000789368 0.000788689 0.000786455 0.000782664 0.000777802 0.000772353 0.000766316 0.000759692 0.00075248 0.000744682 0.000736296 0.000727322 0.000718184 0.000709304 0.000700681 0.000692316 0.000684208 0.000676359 0.000668766 0.000661432 0.000654436 0.000647862 0.000641708 0.000635975 0.000630663 0.000625771 0.000621301 0.000617251 0.000613369 0.000609402 0.000605349 0.000601212 0.000596989 0.000592682 0.000588289 0.000583811 0.000578923 0.000573297 0.000566934 0.000559835 0.000551999 0.000543426 0.000534116 0.00052407 0.000513188 0.000501372 0.000488623 0.00047494 0.000460323 0.000444773 0.000428289 0.000410872 0.000392783 0.000374284 0.000355375 0.000336057 0.000316329 0.000296192 0.000275644 0.000254687 0.000233844 0.000213639 0.00019407 0.00017514 0.000156846 0.00013919 0.000122172 0.000105791 9.04077e-05 7.63834e-05 6.37178e-05 5.24109e-05 4.24628e-05 3.38733e-05 2.66426e-05 2.07706e-05 1.59025e-05 1.16835e-05 8.11351e-06 5.19264e-06 2.92086e-06 1.29816e-06 3.2454e-07 0 0 1.11344e-06 4.45376e-06 1.0021e-05 1.78151e-05 2.7836e-05 4.00839e-05 5.45586e-05 7.12602e-05 9.0971e-05 0.000114473 0.000141766 0.000172851 0.000207727 0.000246394 0.000288853 0.000335103 0.000383806 0.000433624 0.000484556 0.000536604 0.000589766 0.000644043 0.000699434 0.000755941 0.000811998 0.000866041 0.000918071 0.000968086 0.00101609 0.00106208 0.00110605 0.00114801 0.00118728 0.00122319 0.00125572 0.00128488 0.00131068 0.00133311 0.00135217 0.00136786 0.00138049 0.00139034 0.00139744 0.00140176 0.00140332 0.00140211 0.00139814 0.0013914 0.00138276 0.00137307 0.00136234 0.00135056 0.00133774 0.00132388 0.00130897 0.00129302 0.00127677 0.00126098 0.00124566 0.00123078 0.00121637 0.00120242 0.00118892 0.00117588 0.00116344 0.00115175 0.00114081 0.00113062 0.00112118 0.00111248 0.00110453 0.00109733 0.00109043 0.00108338 0.00107618 0.00106882 0.00106131 0.00105366 0.00104585 0.00103789 0.0010292 0.00101919 0.00100788 0.000995262 0.000981332 0.000966091 0.00094954 0.000931679 0.000912334 0.000891328 0.000868663 0.000844338 0.000818353 0.000790708 0.000761403 0.000730439 0.00069828 0.000665393 0.000631778 0.000597435 0.000562363 0.000526563 0.000490034 0.000452778 0.000415723 0.000379802 0.000345014 0.000311359 0.000278838 0.00024745 0.000217194 0.000188072 0.000160725 0.000135793 0.000113276 9.3175e-05 7.54893e-05 6.02192e-05 4.73646e-05 3.69255e-05 2.82711e-05 2.07706e-05 1.4424e-05 9.23137e-06 5.19264e-06 2.30784e-06 5.76961e-07 0 0 1.73975e-06 6.95901e-06 1.56578e-05 2.7836e-05 4.34938e-05 6.26311e-05 8.52478e-05 0.000111344 0.000142142 0.000178864 0.00022151 0.00027008 0.000324573 0.000384991 0.000451333 0.000523598 0.000599697 0.000677537 0.000757119 0.000838443 0.000921509 0.00100632 0.00109287 0.00118116 0.00126875 0.00135319 0.00143449 0.00151264 0.00158764 0.0016595 0.00172821 0.00179377 0.00185513 0.00191123 0.00196206 0.00200763 0.00204794 0.00208298 0.00211276 0.00213728 0.00215701 0.00217241 0.00218349 0.00219025 0.00219269 0.0021908 0.0021846 0.00217407 0.00216056 0.00214542 0.00212866 0.00211025 0.00209022 0.00206856 0.00204527 0.00202034 0.00199496 0.00197029 0.00194634 0.0019231 0.00190058 0.00187877 0.00185768 0.00183731 0.00181788 0.00179962 0.00178252 0.0017666 0.00175184 0.00173825 0.00172583 0.00171459 0.0017038 0.00169278 0.00168153 0.00167003 0.0016583 0.00164634 0.00163414 0.0016217 0.00160812 0.00159249 0.00157482 0.0015551 0.00153333 0.00150952 0.00148366 0.00145575 0.00142552 0.0013927 0.00135729 0.00131928 0.00127868 0.00123548 0.00118969 0.00114131 0.00109106 0.00103968 0.000987153 0.000933492 0.000878692 0.000822754 0.000765679 0.000707465 0.000649568 0.000593441 0.000539085 0.000486499 0.000435684 0.00038664 0.000339366 0.000293863 0.000251133 0.000212176 0.000176994 0.000145586 0.000117952 9.40925e-05 7.40072e-05 5.76961e-05 4.41735e-05 3.2454e-05 2.25375e-05 1.4424e-05 8.11351e-06 3.606e-06 9.01501e-07 0 0 2.50524e-06 1.0021e-05 2.25472e-05 4.00839e-05 6.26311e-05 9.01887e-05 0.000122757 0.000160336 0.000204685 0.000257564 0.000318974 0.000388915 0.000467386 0.000554387 0.000649919 0.000753981 0.000863563 0.000975653 0.00109025 0.00120736 0.00132697 0.0014491 0.00157373 0.00170087 0.00182699 0.00194859 0.00206566 0.00217819 0.0022862 0.00238967 0.00248862 0.00258303 0.00267139 0.00275217 0.00282537 0.00289099 0.00294903 0.00299949 0.00304238 0.00307769 0.00310609 0.00312827 0.00314423 0.00315396 0.00315747 0.00315476 0.00314582 0.00313066 0.00311121 0.00308941 0.00306526 0.00303877 0.00300992 0.00297873 0.00294518 0.00290929 0.00287274 0.00283722 0.00280272 0.00276926 0.00273683 0.00270543 0.00267507 0.00264573 0.00261775 0.00259145 0.00256683 0.0025439 0.00252265 0.00250309 0.0024852 0.002469 0.00245347 0.00243761 0.0024214 0.00240485 0.00238796 0.00237073 0.00235316 0.00233525 0.00231569 0.00229319 0.00226774 0.00223934 0.002208 0.0021737 0.00213646 0.00209628 0.00205275 0.00200549 0.00195449 0.00189976 0.00184129 0.00177909 0.00171316 0.00164349 0.00157113 0.00149714 0.0014215 0.00134423 0.00126532 0.00118477 0.00110258 0.00101875 0.000935377 0.000854555 0.000776282 0.000700559 0.000627385 0.000556762 0.000488687 0.000423163 0.000361631 0.000305534 0.000254871 0.000209644 0.000169851 0.000135493 0.00010657 8.30823e-05 6.36099e-05 4.67338e-05 3.2454e-05 2.07706e-05 1.16835e-05 5.19264e-06 1.29816e-06 0 0 3.40991e-06 1.36397e-05 3.06892e-05 5.45586e-05 8.52478e-05 0.000122757 0.000167086 0.000218234 0.000278599 0.000350574 0.000434159 0.000529356 0.000636164 0.000754583 0.000884612 0.00102625 0.00117541 0.00132797 0.00148395 0.00164335 0.00180616 0.00197238 0.00214202 0.00231507 0.00248674 0.00265225 0.00281159 0.00296476 0.00311177 0.00325261 0.00338728 0.00351579 0.00363606 0.003746 0.00384564 0.00393496 0.00401396 0.00408265 0.00414102 0.00418907 0.00422774 0.00425793 0.00427965 0.00429289 0.00429767 0.00429398 0.00428181 0.00426117 0.0042347 0.00420503 0.00417216 0.0041361 0.00409684 0.00405438 0.00400872 0.00395987 0.00391012 0.00386177 0.00381482 0.00376928 0.00372514 0.0036824 0.00364106 0.00360113 0.00356304 0.00352725 0.00349374 0.00346253 0.00343361 0.00340698 0.00338264 0.00336059 0.00333945 0.00331785 0.00329579 0.00327326 0.00325028 0.00322682 0.00320291 0.00317853 0.00315191 0.00312128 0.00308664 0.00304799 0.00300533 0.00295865 0.00290797 0.00285327 0.00279402 0.00272969 0.00266028 0.00258578 0.00250621 0.00242154 0.0023318 0.00223697 0.00213848 0.00203777 0.00193482 0.00182964 0.00172224 0.0016126 0.00150073 0.00138663 0.00127315 0.00116314 0.00105661 0.000953538 0.000853941 0.000757814 0.000665158 0.000575972 0.00049222 0.000415865 0.000346908 0.000285348 0.000231186 0.000184421 0.000145054 0.000113084 8.65801e-05 6.36099e-05 4.41735e-05 2.82711e-05 1.59025e-05 7.06777e-06 1.76694e-06 0 0 4.45376e-06 1.78151e-05 4.00839e-05 7.12602e-05 0.000111344 0.000160336 0.000218234 0.000285041 0.000363884 0.000457892 0.000567065 0.000691404 0.000830908 0.000985577 0.00115541 0.00134041 0.00153522 0.00173449 0.00193822 0.00214641 0.00235906 0.00257617 0.00279774 0.00302376 0.00324799 0.00346416 0.00367228 0.00387235 0.00406435 0.00424831 0.00442421 0.00459205 0.00474913 0.00489274 0.00502287 0.00513953 0.00524272 0.00533244 0.00540868 0.00547144 0.00552194 0.00556137 0.00558974 0.00560705 0.00561328 0.00560846 0.00559257 0.00556561 0.00553104 0.00549229 0.00544936 0.00540225 0.00535097 0.00529551 0.00523588 0.00517207 0.00510709 0.00504394 0.00498262 0.00492314 0.00486548 0.00480966 0.00475567 0.00470351 0.00465377 0.00460702 0.00456326 0.00452249 0.00448471 0.00444993 0.00441814 0.00438934 0.00436173 0.00433352 0.00430471 0.00427528 0.00424526 0.00421463 0.00418339 0.00415155 0.00411678 0.00407678 0.00403153 0.00398105 0.00392533 0.00386436 0.00379816 0.00372672 0.00364933 0.00356531 0.00347465 0.00337735 0.00327341 0.00316283 0.00304561 0.00292176 0.00279312 0.00266157 0.00252711 0.00238974 0.00224945 0.00210625 0.00196014 0.00181111 0.00166289 0.00151921 0.00138006 0.00124544 0.00111535 0.000989798 0.000868778 0.00075229 0.000642899 0.000543171 0.000453104 0.0003727 0.000301957 0.000240877 0.000189458 0.000147702 0.000113084 8.30823e-05 5.76961e-05 3.69255e-05 2.07706e-05 9.23137e-06 2.30784e-06 0 0 5.73675e-06 2.2947e-05 5.16307e-05 9.1788e-05 0.000143419 0.000206523 0.000281101 0.000367152 0.000468539 0.000589123 0.000728906 0.000887886 0.00106606 0.00126344 0.00148001 0.00171578 0.00196395 0.00221771 0.00247706 0.00274201 0.00301255 0.00328869 0.00357041 0.00385773 0.00414275 0.00441756 0.00468216 0.00493655 0.00518074 0.00541471 0.00563849 0.00585205 0.00605198 0.00623486 0.00640068 0.00654945 0.00668116 0.00679582 0.00689342 0.00697397 0.00703897 0.00708995 0.0071269 0.00714982 0.00715871 0.00715357 0.0071344 0.00710121 0.00705833 0.0070101 0.00695652 0.0068976 0.00683334 0.00676372 0.00668876 0.00660845 0.00652659 0.00644696 0.00636957 0.00629441 0.00622149 0.0061508 0.00608234 0.00601612 0.00595287 0.00589334 0.00583751 0.00578539 0.00573698 0.00569228 0.00565129 0.00561402 0.00557819 0.00554155 0.00550411 0.00546586 0.00542679 0.00538692 0.00534624 0.00530476 0.00525955 0.0052077 0.00514922 0.0050841 0.00501235 0.00493397 0.00484894 0.00475729 0.00465812 0.00455056 0.00443462 0.00431029 0.00417757 0.00403647 0.00388698 0.0037291 0.00356518 0.00339759 0.00322632 0.00305136 0.00287273 0.00269042 0.00250442 0.00231475 0.00212609 0.00194315 0.00176593 0.00159442 0.00142864 0.00126857 0.00111422 0.000965582 0.000825929 0.000698522 0.00058336 0.000480444 0.000389774 0.00031135 0.000245172 0.000191239 0.000146417 0.000107572 7.47028e-05 4.78098e-05 2.6893e-05 1.19524e-05 2.98811e-06 0 0 7.35882e-06 2.94353e-05 6.62294e-05 0.000117741 0.000183971 0.000264918 0.000360582 0.000470965 0.000600562 0.000753872 0.000930894 0.00113163 0.00135608 0.00160423 0.00187611 0.00217169 0.00248251 0.00280011 0.00312446 0.00345559 0.00379348 0.00413815 0.00448957 0.00484777 0.00520303 0.00554565 0.00587564 0.00619299 0.0064977 0.00678977 0.00706921 0.00733601 0.00758596 0.00781485 0.00802267 0.00820943 0.00837512 0.00851975 0.00864332 0.00874583 0.0088291 0.00889499 0.0089435 0.00897461 0.00898834 0.00898468 0.00896363 0.00892519 0.00887468 0.0088174 0.00875335 0.00868253 0.00860494 0.00852059 0.00842946 0.00833157 0.00823156 0.00813407 0.00803911 0.00794667 0.00785676 0.00776938 0.00768452 0.00760219 0.0075233 0.00744878 0.00737863 0.00731284 0.00725143 0.00719438 0.0071417 0.00709338 0.00704669 0.00699889 0.00694996 0.00689993 0.00684877 0.0067965 0.00674311 0.00668861 0.00662945 0.00656208 0.00648651 0.00640274 0.00631077 0.00621059 0.00610222 0.00598564 0.0058598 0.00572365 0.00557719 0.00542042 0.00525334 0.00507595 0.00488825 0.00469024 0.00448481 0.00427486 0.00406038 0.00384137 0.00361784 0.00338979 0.00315721 0.0029201 0.00268423 0.00245537 0.00223352 0.00201867 0.00181082 0.00160998 0.00141614 0.00122931 0.00105357 0.000892989 0.000747576 0.000617328 0.000502247 0.000402332 0.000317583 0.000248 0.000189875 0.0001395 9.68749e-05 6.2e-05 3.4875e-05 1.55e-05 3.875e-06 0 0 9.31998e-06 3.72799e-05 8.38798e-05 0.00014912 0.000232999 0.000335519 0.000456679 0.000596479 0.000759953 0.000952137 0.00117303 0.00142263 0.00170094 0.00200796 0.0023437 0.00270814 0.00309092 0.00348169 0.00388043 0.00428716 0.00470186 0.00512455 0.00555522 0.00599387 0.00642883 0.00684845 0.00725273 0.00764166 0.00801525 0.00837349 0.00871639 0.00904394 0.00935107 0.0096327 0.00988883 0.0101195 0.0103246 0.0105042 0.0106584 0.010787 0.0108923 0.0109765 0.0110395 0.0110814 0.0111022 0.0111018 0.0110802 0.0110376 0.0109801 0.0109142 0.0108398 0.010757 0.0106658 0.0105661 0.010458 0.0103414 0.010222 0.0101053 0.00999123 0.00987992 0.0097713 0.0096654 0.0095622 0.00946171 0.00936505 0.00927335 0.00918662 0.00910486 0.00902805 0.00895622 0.00888934 0.00882743 0.00876724 0.00870552 0.00864227 0.0085775 0.00851119 0.00844336 0.008374 0.00830311 0.00822648 0.00813992 0.00804341 0.00793696 0.00782057 0.00769425 0.00755798 0.00741176 0.00725438 0.00708458 0.00690237 0.00670776 0.00650073 0.00628129 0.00604945 0.00580519 0.005552 0.00529337 0.00502929 0.00475976 0.00448479 0.00420436 0.00391849 0.00362717 0.00333733 0.00305588 0.00278282 0.00251817 0.0022619 0.00201403 0.00177456 0.00154349 0.00132582 0.00112657 0.00094575 0.000783351 0.000639375 0.000513822 0.000406691 0.000317984 0.000243457 0.000178866 0.000124213 7.9496e-05 4.47165e-05 1.9874e-05 4.9685e-06 0 0 1.16202e-05 4.64809e-05 0.000104582 0.000185924 0.000290506 0.000418328 0.000569391 0.000743694 0.000946712 0.00118392 0.00145531 0.0017609 0.00210067 0.00247463 0.00288278 0.00332512 0.00378916 0.00426245 0.00474496 0.00523671 0.00573769 0.0062479 0.00676735 0.00729603 0.00782016 0.00832596 0.00881343 0.00928257 0.00973338 0.0101659 0.01058 0.0109758 0.0113473 0.0116884 0.0119992 0.0122796 0.0125296 0.0127493 0.0129386 0.0130975 0.0132287 0.0133345 0.013415 0.0134703 0.0135002 0.0135049 0.0134843 0.0134383 0.0133746 0.0133005 0.013216 0.0131211 0.0130159 0.0129003 0.0127743 0.012638 0.0124979 0.0123605 0.0122259 0.0120941 0.0119651 0.0118389 0.0117154 0.0115947 0.0114781 0.0113671 0.0112615 0.0111614 0.0110669 0.0109778 0.0108942 0.0108162 0.0107398 0.0106615 0.010581 0.0104986 0.0104141 0.0103275 0.0102389 0.0101482 0.0100507 0.00994121 0.00981991 0.00968677 0.00954177 0.00938492 0.00921622 0.00903567 0.00884186 0.00863335 0.00841016 0.00817229 0.00791973 0.00765249 0.00737056 0.00707394 0.00676676 0.00645313 0.00613306 0.00580653 0.00547356 0.00513414 0.00478828 0.00443596 0.00408537 0.00374466 0.00341385 0.00309292 0.00278188 0.00248073 0.00218947 0.0019081 0.00164268 0.00139927 0.00117788 0.000978514 0.000801159 0.00064582 0.000512498 0.000401192 0.000307162 0.00022567 0.000156716 0.000100298 5.64176e-05 2.50745e-05 6.26862e-06 0 0 1.42596e-05 5.70382e-05 0.000128336 0.000228153 0.000356489 0.000513344 0.000698718 0.000912611 0.00116084 0.00144922 0.00177775 0.00214642 0.00255525 0.00300423 0.00349336 0.00402263 0.00457725 0.00514239 0.00571805 0.00630424 0.00690096 0.0075082 0.00812596 0.00875425 0.00937701 0.00997817 0.0105577 0.0111157 0.0116521 0.0121669 0.0126601 0.0131317 0.0135747 0.013982 0.0143537 0.0146897 0.0149901 0.0152549 0.0154839 0.0156774 0.0158381 0.0159689 0.01607 0.0161411 0.0161825 0.016194 0.0161756 0.0161275 0.0160581 0.0159762 0.0158818 0.0157748 0.0156552 0.0155231 0.0153785 0.0152213 0.0150592 0.0148999 0.0147432 0.0145894 0.0144382 0.0142898 0.0141441 0.0140011 0.0138625 0.0137299 0.0136032 0.0134825 0.0133678 0.0132591 0.0131564 0.0130596 0.0129645 0.0128667 0.0127662 0.0126631 0.0125574 0.0124489 0.0123378 0.012224 0.012102 0.011966 0.011816 0.0116522 0.0114744 0.0112826 0.011077 0.0108574 0.0106222 0.01037 0.0101006 0.00981402 0.00951034 0.00918953 0.00885158 0.0084965 0.00812908 0.00775414 0.00737168 0.00698169 0.00658417 0.00617913 0.00576656 0.00534647 0.00492836 0.00452173 0.00412659 0.00374293 0.00337076 0.00301007 0.00266087 0.00232315 0.00200414 0.00171109 0.00144398 0.00120282 0.000987598 0.000798327 0.000635002 0.000497623 0.000380992 0.000279913 0.000194384 0.000124406 6.99782e-05 3.11014e-05 7.77536e-06 0 0 1.7238e-05 6.89519e-05 0.000155142 0.000275808 0.000430949 0.000620567 0.000844661 0.00110323 0.00140233 0.00174803 0.00214032 0.00257921 0.00306469 0.00359676 0.00417543 0.00480069 0.00545517 0.00612152 0.00679971 0.00748977 0.00819167 0.00890544 0.00963106 0.0103685 0.0110994 0.0118051 0.0124857 0.0131411 0.0137714 0.0143766 0.0149566 0.0155115 0.0160332 0.0165135 0.0169524 0.01735 0.0177062 0.018021 0.0182945 0.0185266 0.0187206 0.0188798 0.0190043 0.019094 0.0191489 0.0191691 0.0191544 0.019105 0.0190307 0.0189414 0.0188372 0.018718 0.0185838 0.0184346 0.0182705 0.0180913 0.017906 0.0177233 0.0175431 0.0173656 0.0171905 0.0170181 0.0168483 0.016681 0.0165182 0.0163618 0.0162118 0.0160682 0.015931 0.0158002 0.0156757 0.0155577 0.0154412 0.0153212 0.0151979 0.0150712 0.0149411 0.0148076 0.0146707 0.0145305 0.0143804 0.0142142 0.0140317 0.0138331 0.0136183 0.0133873 0.0131402 0.0128768 0.0125955 0.0122944 0.0119736 0.0116329 0.0112726 0.0108924 0.0104925 0.0100729 0.00963897 0.0091964 0.00874515 0.00828522 0.00781661 0.00733932 0.00685335 0.00635869 0.00586629 0.00538708 0.00492104 0.00446819 0.00402853 0.00360205 0.00318875 0.00278864 0.00241022 0.00206202 0.00174403 0.00145626 0.00119869 0.000971342 0.000774203 0.000607277 0.000464947 0.000341594 0.000237218 0.000151819 8.53984e-05 3.79548e-05 9.48871e-06 0 0 2.05555e-05 8.22219e-05 0.000184999 0.000328888 0.000513887 0.000739997 0.00100722 0.00131555 0.0016712 0.00208036 0.00254305 0.00305926 0.00362898 0.00425223 0.004929 0.00565928 0.00642294 0.00719982 0.00798993 0.00879327 0.00960984 0.0104396 0.0112826 0.0121389 0.0129873 0.0138067 0.0145972 0.0153587 0.0160913 0.0167949 0.0174696 0.0181153 0.0187228 0.0192828 0.0197953 0.0202602 0.0206777 0.0210477 0.0213701 0.0216451 0.0218762 0.0220672 0.0222181 0.0223289 0.0223996 0.0224302 0.0224206 0.0223709 0.0222924 0.0221962 0.0220823 0.0219508 0.0218016 0.0216348 0.0214503 0.0212481 0.0210383 0.0208308 0.0206256 0.0204227 0.0202222 0.0200239 0.019828 0.0196344 0.0194453 0.0192629 0.0190873 0.0189185 0.0187564 0.018601 0.0184524 0.0183105 0.0181699 0.0180251 0.017876 0.0177228 0.0175653 0.0174036 0.0172377 0.0170675 0.016886 0.0166858 0.0164671 0.0162297 0.0159737 0.0156991 0.0154059 0.0150941 0.0147617 0.0144067 0.0140292 0.0136291 0.0132064 0.0127612 0.0122934 0.011803 0.0112964 0.0107799 0.0102535 0.00971714 0.00917089 0.00861472 0.00804863 0.00747264 0.00689918 0.0063407 0.00579721 0.00526871 0.0047552 0.00425667 0.00377312 0.00330457 0.00286091 0.00245207 0.00207805 0.00173884 0.00143444 0.00116486 0.000930102 0.000730156 0.000559025 0.000410713 0.000285217 0.000182539 0.000102678 4.56347e-05 1.14087e-05 0 0 2.42121e-05 9.68483e-05 0.000217909 0.000387393 0.000605302 0.000871634 0.00118639 0.00154957 0.00196743 0.00244621 0.00298593 0.00358657 0.00424814 0.00497063 0.00575406 0.00659841 0.00748054 0.00837731 0.00928872 0.0102148 0.0111554 0.0121108 0.0130807 0.0140653 0.0150407 0.015983 0.0168923 0.0177686 0.0186118 0.0194219 0.020199 0.0209431 0.0216436 0.02229 0.0228823 0.0234206 0.0239048 0.0243349 0.0247109 0.0250329 0.0253049 0.0255311 0.0257114 0.0258459 0.0259345 0.0259772 0.0259742 0.0259252 0.0258431 0.0257404 0.0256171 0.0254732 0.0253087 0.0251236 0.0249179 0.0246916 0.024456 0.0242224 0.0239907 0.0237609 0.0235331 0.0233072 0.0230832 0.0228612 0.0226436 0.0224331 0.0222297 0.0220333 0.0218439 0.0216615 0.0214862 0.021318 0.0211507 0.0209782 0.0208006 0.0206178 0.0204299 0.0202368 0.0200386 0.0198353 0.0196187 0.0193809 0.019122 0.0188418 0.0185404 0.0182179 0.0178741 0.0175091 0.0171207 0.0167068 0.0162674 0.0158024 0.0153119 0.0147958 0.0142542 0.013687 0.0131014 0.0125047 0.0118967 0.0112774 0.010647 0.0100053 0.00935242 0.0086883 0.00802701 0.00738261 0.0067551 0.00614449 0.00555076 0.00497393 0.00441399 0.00387094 0.00335621 0.00288124 0.00244602 0.00205056 0.00169485 0.0013789 0.0011027 0.000866257 0.000663228 0.00048727 0.000338382 0.000216564 0.000121817 5.41411e-05 1.35353e-05 0 0 2.82008e-05 0.000112803 0.000253807 0.000451212 0.000705019 0.00101523 0.00138184 0.00180485 0.00229044 0.0028448 0.00346792 0.00415981 0.00492046 0.00574987 0.00664805 0.00761499 0.00862433 0.00964973 0.0106912 0.0117486 0.0128222 0.0139118 0.0150174 0.016139 0.01725 0.0183237 0.0193599 0.0203588 0.0213202 0.0222443 0.0231311 0.0239804 0.0247805 0.0255197 0.0261979 0.0268151 0.0273713 0.0278665 0.0283007 0.028674 0.0289908 0.0292556 0.0294686 0.0296297 0.0297388 0.0297961 0.0298014 0.0297549 0.0296705 0.0295623 0.0294303 0.0292746 0.0290951 0.0288919 0.0286648 0.028414 0.028152 0.0278914 0.0276323 0.0273745 0.0271181 0.0268631 0.0266095 0.0263573 0.0261095 0.0258688 0.0256354 0.0254092 0.0251902 0.0249784 0.0247738 0.0245765 0.0243797 0.0241766 0.0239674 0.0237519 0.0235303 0.0233024 0.0230683 0.022828 0.0225727 0.0222934 0.0219901 0.021663 0.0213118 0.0209368 0.0205378 0.0201148 0.0196656 0.0191877 0.0186811 0.0181459 0.0175821 0.0169896 0.0163684 0.0157186 0.0150482 0.0143652 0.0136695 0.0129613 0.0122405 0.0115071 0.0107611 0.0100025 0.00924705 0.00851046 0.00779274 0.00709389 0.00641391 0.00575279 0.00511055 0.00448718 0.00389574 0.00334931 0.00284787 0.00239144 0.00198001 0.00161358 0.00129215 0.00101572 0.000777658 0.000571341 0.000396764 0.000253929 0.000142835 6.34823e-05 1.58706e-05 0 0 3.25146e-05 0.000130059 0.000292632 0.000520234 0.000812866 0.00117053 0.00159322 0.00208094 0.00263966 0.00327535 0.00398802 0.00477765 0.00564427 0.00658785 0.00760841 0.00870594 0.00985066 0.0110128 0.0121924 0.0133893 0.0146037 0.0158355 0.0170848 0.0183514 0.0196058 0.0208183 0.0219888 0.0231175 0.0242042 0.025249 0.0262519 0.0272129 0.0281188 0.0289566 0.0297262 0.0304277 0.031061 0.0316262 0.0321232 0.0325521 0.0329177 0.0332252 0.0334743 0.0336653 0.033798 0.0338725 0.0338887 0.0338467 0.033762 0.0336501 0.033511 0.0333447 0.0331512 0.0329305 0.0326826 0.0324075 0.0321191 0.0318314 0.0315443 0.0312579 0.0309722 0.0306871 0.0304026 0.0301188 0.029839 0.0295664 0.029301 0.0290428 0.0287919 0.0285482 0.0283117 0.0280824 0.0278531 0.0276163 0.0273721 0.0271206 0.0268616 0.0265953 0.0263215 0.0260403 0.0257421 0.025417 0.0250652 0.0246865 0.0242811 0.0238489 0.0233899 0.0229041 0.022389 0.021842 0.0212633 0.0206526 0.0200102 0.0193358 0.0186297 0.0178917 0.0171308 0.0163558 0.0155669 0.014764 0.013947 0.013116 0.0122711 0.0114121 0.0105565 0.00972189 0.00890814 0.00811527 0.0073433 0.00659222 0.00586203 0.00515273 0.00447915 0.00385608 0.00328354 0.00276152 0.00229002 0.00186905 0.0014986 0.00117867 0.000902418 0.000663001 0.000460417 0.000294667 0.00016575 7.36668e-05 1.84167e-05 0 0 3.71536e-05 0.000148615 0.000334383 0.000594458 0.000928841 0.00133753 0.00182053 0.00237783 0.00301507 0.00373786 0.0045462 0.0054401 0.00641956 0.00748457 0.00863513 0.00987125 0.0111595 0.0124665 0.0137923 0.0151368 0.0165001 0.0178821 0.0192829 0.0207024 0.0221079 0.0234668 0.0247791 0.0260447 0.0272636 0.0284359 0.0295615 0.0306405 0.0316584 0.0326007 0.0334674 0.0342585 0.034974 0.035614 0.0361784 0.0366672 0.0370858 0.0374396 0.0377286 0.0379527 0.038112 0.0382064 0.038236 0.0382008 0.0381178 0.0380038 0.037859 0.0376833 0.0374768 0.0372394 0.0369711 0.0366719 0.0363572 0.0360421 0.0357268 0.0354112 0.0350952 0.034779 0.0344625 0.0341457 0.0338322 0.0335258 0.0332265 0.0329342 0.032649 0.0323708 0.0320998 0.0318357 0.0315708 0.0312972 0.0310149 0.0307238 0.030424 0.0301154 0.0297981 0.0294721 0.0291269 0.0287518 0.0283471 0.0279126 0.0274483 0.0269543 0.0264305 0.025877 0.025291 0.02467 0.0240138 0.0233225 0.0225961 0.0218346 0.021038 0.0202063 0.0193492 0.0184768 0.0175888 0.0166854 0.0157665 0.0148321 0.0138823 0.012917 0.0119555 0.0110169 0.0101013 0.00920865 0.00833894 0.0074922 0.00666842 0.0058676 0.00510641 0.00440155 0.00375301 0.00316079 0.00262489 0.00214531 0.00172205 0.00135511 0.00103751 0.000762251 0.000529341 0.000338778 0.000190563 8.46945e-05 2.11736e-05 0 0 4.21178e-05 0.000168471 0.00037906 0.000673885 0.00105294 0.00151624 0.00206377 0.00269554 0.00341668 0.00423233 0.00514249 0.00614716 0.00724634 0.00844002 0.00972822 0.0111109 0.0125509 0.0140109 0.015491 0.0169911 0.0185113 0.0200514 0.0216117 0.0231919 0.0247564 0.0262693 0.0277306 0.0291403 0.0304985 0.031805 0.03306 0.0342633 0.0353992 0.0364519 0.0374213 0.0383075 0.0391104 0.03983 0.0404664 0.0410195 0.0414951 0.0418991 0.0422313 0.0424919 0.0426807 0.0427979 0.0428434 0.0428171 0.0427377 0.0426234 0.0424744 0.0422906 0.042072 0.0418186 0.0415304 0.0412074 0.0408663 0.0405238 0.0401798 0.0398343 0.0394874 0.039139 0.0387891 0.0384378 0.0380891 0.0377471 0.0374118 0.0370833 0.0367615 0.0364464 0.036138 0.0358364 0.035533 0.0352194 0.0348956 0.0345616 0.0342174 0.0338629 0.0334983 0.0331234 0.032727 0.0322978 0.0318358 0.031341 0.0308133 0.0302529 0.0296596 0.0290334 0.0283717 0.0276714 0.0269327 0.0261556 0.02534 0.0244859 0.0235933 0.0226623 0.0217036 0.0207279 0.0197352 0.0187256 0.017699 0.0166554 0.0155949 0.0145174 0.0134439 0.0123956 0.0113722 0.010374 0.00940084 0.00845275 0.00752972 0.00663177 0.00577755 0.00498572 0.00425629 0.00358925 0.00298461 0.00244236 0.00196251 0.00154505 0.00118293 0.00086909 0.000603535 0.000386262 0.000217272 9.65655e-05 2.41414e-05 0 0 4.74071e-05 0.000189628 0.000426664 0.000758513 0.00118518 0.00170666 0.00232295 0.00303405 0.00384449 0.00475876 0.00577687 0.00689881 0.0081246 0.00945422 0.0108877 0.012425 0.0140248 0.015646 0.0172885 0.0189522 0.0206372 0.0223436 0.0240712 0.0258201 0.0275513 0.0292258 0.0308435 0.0324045 0.0339088 0.0353564 0.0367472 0.0380813 0.0393414 0.0405103 0.0415881 0.0425746 0.0434699 0.0442741 0.044987 0.0456088 0.0461455 0.0466034 0.0469825 0.0472828 0.0475043 0.0476469 0.0477107 0.0476957 0.0476218 0.047509 0.0473572 0.0471664 0.0469367 0.0466681 0.0463605 0.046014 0.0456466 0.0452763 0.0449032 0.0445273 0.0441485 0.0437669 0.0433825 0.0429952 0.0426096 0.0422302 0.0418571 0.0414901 0.0411294 0.0407749 0.0404266 0.0400845 0.0397396 0.0393829 0.0390143 0.0386339 0.0382417 0.0378377 0.0374219 0.0369942 0.0365426 0.036055 0.0355315 0.0349719 0.0343763 0.0337447 0.0330771 0.0323735 0.0316309 0.0308465 0.0300201 0.0291518 0.0282417 0.0272896 0.0262957 0.0252598 0.0241938 0.0231092 0.0220061 0.0208845 0.0197444 0.0185858 0.0174087 0.0162131 0.0150218 0.0138578 0.012721 0.0116114 0.010529 0.00947385 0.00844594 0.00744525 0.00649255 0.00560859 0.00479338 0.00404691 0.00336918 0.0027602 0.00221997 0.00174848 0.00133868 0.000983518 0.000682999 0.000437119 0.00024588 0.00010928 2.732e-05 0 0 5.30215e-05 0.000212086 0.000477194 0.000848345 0.00132554 0.00190878 0.00259806 0.00339338 0.00429849 0.00531715 0.00644934 0.00769507 0.00905435 0.0105272 0.0121135 0.0138134 0.0155813 0.0173717 0.0191847 0.0210201 0.022878 0.0247585 0.0266614 0.0285869 0.0304926 0.0323362 0.0341177 0.0358372 0.0374946 0.0390899 0.0406232 0.0420944 0.0434849 0.0447759 0.0459676 0