<?xml version="1.0"?> 
<VTKFile type="StructuredGrid" version="0.1"> 
<StructuredGrid WholeExtent="0 128 0 128 0 0"> 
<Piece Extent="0 128 0 128 0 0"> 
<PointData>
<DataArray type="Float32" Name="u" format="ascii" NumberOfComponents="1"> 
0 0 0 0 0 0 0 0 0 0 0 0 0 0 0 0 0 0 0 0 0 0 0 0 0 0 0 0 0 0 0 0 0 0 0 0 0 0 0 0 0 0 0 0 0 0 0 0 0 0 0 0 0 0 0 0 0 0 0 0 0 0 0 0 0 0 0 0 0 0 0 0 0 0 0 0 0 0 0 0 0 0 0 0 0 0 0 0 0 0 0 0 0 0 0 0 0 0 0 0 0 0 0 0 0 0 0 0 0 0 0 0 0 0 0 0 0 0 0 0 0 0 0 0 0 0 0 0 0 0 7.91007e-08 3.16403e-07 7.11906e-07 1.26561e-06 1.97752e-06 2.84763e-06 3.87593e-06 5.06245e-06 6.45332e-06 8.09474e-06 9.98669e-06 1.21292e-05 1.45222e-05 1.71658e-05 2.00599e-05 2.32045e-05 2.65081e-05 2.98792e-05 3.33176e-05 3.68236e-05 4.03969e-05 4.40377e-05 4.77459e-05 5.15216e-05 5.52647e-05 5.88755e-05 6.23539e-05 6.56999e-05 6.89135e-05 7.19947e-05 7.49435e-05 7.77599e-05 8.04029e-05 8.28311e-05 8.50448e-05 8.70438e-05 8.88282e-05 9.03979e-05 9.1753e-05 9.28935e-05 9.38378e-05 9.46044e-05 9.51934e-05 9.56046e-05 9.58382e-05 9.58941e-05 9.57723e-05 9.54729e-05 9.50465e-05 9.45438e-05 9.3965e-05 9.33099e-05 9.25787e-05 9.17712e-05 9.08875e-05 8.99276e-05 8.89357e-05 8.79561e-05 8.69886e-05 8.60334e-05 8.50903e-05 8.41595e-05 8.32409e-05 8.23346e-05 8.14506e-05 8.05994e-05 7.97809e-05 7.8995e-05 7.82418e-05 7.75213e-05 7.68335e-05 7.61784e-05 7.55328e-05 7.48735e-05 7.42005e-05 7.35138e-05 7.28135e-05 7.20995e-05 7.13719e-05 7.06305e-05 6.98442e-05 6.89815e-05 6.80424e-05 6.70271e-05 6.59354e-05 6.47673e-05 6.3523e-05 6.22022e-05 6.07956e-05 5.92934e-05 5.76956e-05 5.60023e-05 5.42134e-05 5.23289e-05 5.03489e-05 4.82734e-05 4.61294e-05 4.39442e-05 4.17176e-05 3.94497e-05 3.71406e-05 3.47902e-05 3.23984e-05 2.99654e-05 2.75475e-05 2.52013e-05 2.29267e-05 2.07238e-05 1.85925e-05 1.65329e-05 1.45449e-05 1.26285e-05 1.08256e-05 9.178e-06 7.68567e-06 6.34861e-06 5.16684e-06 4.14034e-06 3.26912e-06 2.55319e-06 1.95478e-06 1.43617e-06 9.97338e-07 6.38297e-07 3.59042e-07 1.59574e-07 3.98935e-08 0 0 3.16403e-07 1.26561e-06 2.84763e-06 5.06245e-06 7.91007e-06 1.13905e-05 1.55037e-05 2.02498e-05 2.58133e-05 3.2379e-05 3.99468e-05 4.85167e-05 5.80888e-05 6.86631e-05 8.02394e-05 9.2818e-05 0.000106032 0.000119517 0.000133271 0.000147294 0.000161588 0.000176151 0.000190984 0.000206086 0.000221059 0.000235502 0.000249416 0.0002628 0.000275654 0.000287979 0.000299774 0.00031104 0.000321611 0.000331325 0.000340179 0.000348175 0.000355313 0.000361592 0.000367012 0.000371574 0.000375351 0.000378418 0.000380774 0.000382419 0.000383353 0.000383577 0.000383089 0.000381891 0.000380186 0.000378175 0.00037586 0.00037324 0.000370315 0.000367085 0.00036355 0.000359711 0.000355743 0.000351824 0.000347954 0.000344133 0.000340361 0.000336638 0.000332964 0.000329338 0.000325803 0.000322398 0.000319123 0.00031598 0.000312967 0.000310085 0.000307334 0.000304714 0.000302131 0.000299494 0.000296802 0.000294055 0.000291254 0.000288398 0.000285487 0.000282522 0.000279377 0.000275926 0.00027217 0.000268108 0.000263741 0.000259069 0.000254092 0.000248809 0.000243182 0.000237173 0.000230782 0.000224009 0.000216853 0.000209316 0.000201396 0.000193094 0.000184518 0.000175777 0.00016687 0.000157799 0.000148562 0.000139161 0.000129594 0.000119862 0.00011019 0.000100805 9.17069e-05 8.28952e-05 7.43701e-05 6.61315e-05 5.81795e-05 5.05141e-05 4.33025e-05 3.6712e-05 3.07427e-05 2.53944e-05 2.06673e-05 1.65614e-05 1.30765e-05 1.02127e-05 7.81913e-06 5.74467e-06 3.98935e-06 2.55319e-06 1.43617e-06 6.38297e-07 1.59574e-07 0 0 7.11906e-07 2.84763e-06 6.40716e-06 1.13905e-05 1.77977e-05 2.56286e-05 3.48834e-05 4.5562e-05 5.80799e-05 7.28527e-05 8.98802e-05 0.000109163 0.0001307 0.000154492 0.000180539 0.00020884 0.000238573 0.000268912 0.000299859 0.000331412 0.000363572 0.000396339 0.000429713 0.000463694 0.000497382 0.000529879 0.000561185 0.000591299 0.000620221 0.000647952 0.000674492 0.000699839 0.000723626 0.00074548 0.000765403 0.000783394 0.000799454 0.000813581 0.000825777 0.000836041 0.00084454 0.00085144 0.00085674 0.000860442 0.000862544 0.000863047 0.000861951 0.000859256 0.000855418 0.000850895 0.000845685 0.00083979 0.000833208 0.000825941 0.000817988 0.000809349 0.000800422 0.000791605 0.000782898 0.0007743 0.000765813 0.000757436 0.000749168 0.000741011 0.000733056 0.000725395 0.000718028 0.000710955 0.000704176 0.000697692 0.000691501 0.000685605 0.000679795 0.000673861 0.000667804 0.000661625 0.000655322 0.000648896 0.000642347 0.000635675 0.000628597 0.000620833 0.000612382 0.000603244 0.000593418 0.000582906 0.000571707 0.00055982 0.00054716 0.00053364 0.00051926 0.00050402 0.00048792 0.00047096 0.000453141 0.000434461 0.000415165 0.000395497 0.000375458 0.000355048 0.000334265 0.000313111 0.000291586 0.000269688 0.000247928 0.000226812 0.000206341 0.000186514 0.000167333 0.000148796 0.000130904 0.000113657 9.74306e-05 8.2602e-05 6.9171e-05 5.71375e-05 4.65015e-05 3.72631e-05 2.94221e-05 2.29787e-05 1.7593e-05 1.29255e-05 8.97604e-06 5.74467e-06 3.23138e-06 1.43617e-06 3.59042e-07 0 0 1.26561e-06 5.06245e-06 1.13905e-05 2.02498e-05 3.16403e-05 4.5562e-05 6.2015e-05 8.09991e-05 0.000103253 0.000129516 0.000159787 0.000194067 0.000232355 0.000274652 0.000320958 0.000371272 0.00042413 0.000478067 0.000533082 0.000589177 0.000646351 0.000704603 0.000763934 0.000824345 0.000884235 0.000942008 0.000997662 0.0010512 0.00110262 0.00115192 0.0011991 0.00124416 0.00128645 0.0013253 0.00136072 0.0013927 0.00142125 0.00144637 0.00146805 0.0014863 0.0015014 0.00151367 0.00152309 0.00152967 0.00153341 0.00153431 0.00153236 0.00152757 0.00152074 0.0015127 0.00150344 0.00149296 0.00148126 0.00146834 0.0014542 0.00143884 0.00142297 0.0014073 0.00139182 0.00137653 0.00136145 0.00134655 0.00133186 0.00131735 0.00130321 0.00128959 0.00127649 0.00126392 0.00125187 0.00124034 0.00122934 0.00121885 0.00120852 0.00119798 0.00118721 0.00117622 0.00116502 0.00115359 0.00114195 0.00113009 0.00111751 0.0011037 0.00108868 0.00107243 0.00105497 0.00103628 0.00101637 0.000995236 0.000972729 0.000948694 0.000923129 0.000896036 0.000867414 0.000837263 0.000805583 0.000772374 0.000738071 0.000703107 0.000667482 0.000631196 0.00059425 0.000556642 0.000518375 0.000479446 0.00044076 0.000403221 0.000366828 0.000331581 0.00029748 0.000264526 0.000232718 0.000202056 0.00017321 0.000146848 0.000122971 0.000101578 8.26694e-05 6.62454e-05 5.2306e-05 4.0851e-05 3.12765e-05 2.29787e-05 1.59574e-05 1.02127e-05 5.74467e-06 2.55319e-06 6.38297e-07 0 0 1.97752e-06 7.91007e-06 1.77977e-05 3.16403e-05 4.94379e-05 7.11906e-05 9.68984e-05 0.000126561 0.000161333 0.000202369 0.000249667 0.000303229 0.000363055 0.000429144 0.000501497 0.000580112 0.000662703 0.000746979 0.000832941 0.000920589 0.00100992 0.00110094 0.00119365 0.00128804 0.00138162 0.00147189 0.00155885 0.0016425 0.00172284 0.00179987 0.00187359 0.001944 0.00201007 0.00207078 0.00212612 0.00217609 0.0022207 0.00225995 0.00229383 0.00232234 0.00234595 0.00236511 0.00237983 0.00239012 0.00239596 0.00239735 0.00239431 0.00238682 0.00237616 0.0023636 0.00234912 0.00233275 0.00231447 0.00229428 0.00227219 0.00224819 0.00222339 0.0021989 0.00217472 0.00215083 0.00212726 0.00210399 0.00208102 0.00205836 0.00203627 0.00201499 0.00199452 0.00197487 0.00195605 0.00193803 0.00192084 0.00190446 0.00188832 0.00187184 0.00185501 0.00183785 0.00182034 0.00180249 0.0017843 0.00176576 0.0017461 0.00172454 0.00170106 0.00167568 0.00164838 0.00161918 0.00158807 0.00155506 0.00151989 0.00148233 0.00144239 0.00140006 0.00135533 0.00130822 0.00125872 0.00120683 0.00115324 0.0010986 0.00104294 0.000986244 0.000928515 0.000869754 0.00080996 0.000749134 0.000688688 0.000630033 0.000573168 0.000518095 0.000464813 0.000413322 0.000363622 0.000315713 0.00027064 0.00022945 0.000192142 0.000158715 0.000129171 0.000103508 8.17281e-05 6.38297e-05 4.88696e-05 3.59042e-05 2.49335e-05 1.59574e-05 8.97604e-06 3.98935e-06 9.97338e-07 0 0 2.84763e-06 1.13905e-05 2.56286e-05 4.5562e-05 7.11906e-05 0.000102515 0.000139534 0.000182248 0.00023232 0.000291411 0.000359521 0.00043665 0.000522799 0.000617967 0.000722155 0.000835362 0.000954292 0.00107565 0.00119944 0.00132565 0.00145429 0.00158536 0.00171885 0.00185478 0.00198953 0.00211952 0.00224474 0.0023652 0.00248089 0.00259181 0.00269797 0.00279936 0.0028945 0.00298192 0.00306161 0.00313358 0.00319781 0.00325432 0.00330311 0.00334417 0.00337816 0.00340576 0.00342696 0.00344177 0.00345018 0.00345219 0.0034478 0.00343702 0.00342167 0.00340358 0.00338274 0.00335916 0.00333283 0.00330376 0.00327195 0.0032374 0.00320169 0.00316642 0.00313159 0.0030972 0.00306325 0.00302974 0.00299667 0.00296404 0.00293222 0.00290158 0.00287211 0.00284382 0.0028167 0.00279077 0.00276601 0.00274242 0.00271918 0.00269544 0.00267122 0.0026465 0.00262129 0.00259558 0.00256939 0.0025427 0.00251439 0.00248333 0.00244953 0.00241297 0.00237367 0.00233162 0.00228683 0.00223928 0.00218864 0.00213456 0.00207704 0.00201608 0.00195168 0.00188384 0.00181256 0.00173784 0.00166066 0.00158199 0.00150183 0.00142019 0.00133706 0.00125245 0.00116634 0.00107875 0.000991711 0.000907247 0.000825362 0.000746057 0.000669331 0.000595183 0.000523615 0.000454627 0.000389722 0.000330408 0.000276684 0.00022855 0.000186006 0.000149052 0.000117688 9.19147e-05 7.03722e-05 5.1702e-05 3.59042e-05 2.29787e-05 1.29255e-05 5.74467e-06 1.43617e-06 0 0 3.87593e-06 1.55037e-05 3.48834e-05 6.2015e-05 9.68984e-05 0.000139534 0.000189921 0.00024806 0.000316213 0.000396642 0.000489348 0.00059433 0.000711588 0.000841122 0.000982933 0.00113702 0.0012989 0.00146408 0.00163256 0.00180435 0.00197945 0.00215785 0.00233955 0.00252456 0.00270797 0.0028849 0.00305534 0.00321929 0.00337676 0.00352774 0.00367223 0.00381024 0.00393974 0.00405873 0.00416719 0.00426515 0.00435258 0.0044295 0.0044959 0.00455178 0.00459805 0.00463562 0.00466448 0.00468463 0.00469607 0.00469881 0.00469284 0.00467817 0.00465728 0.00463265 0.00460428 0.00457219 0.00453636 0.00449679 0.00445349 0.00440645 0.00435785 0.00430985 0.00426244 0.00421564 0.00416943 0.00412382 0.00407881 0.00403439 0.00399108 0.00394937 0.00390926 0.00387075 0.00383385 0.00379854 0.00376484 0.00373274 0.00370111 0.0036688 0.00363582 0.00360218 0.00356786 0.00353288 0.00349722 0.0034609 0.00342236 0.00338009 0.00333408 0.00328433 0.00323083 0.0031736 0.00311262 0.00304791 0.00297898 0.00290537 0.00282708 0.00274411 0.00265646 0.00256412 0.0024671 0.0023654 0.00226034 0.00215326 0.00204416 0.00193304 0.00181989 0.00170472 0.00158752 0.0014683 0.00134983 0.00123486 0.00112341 0.00101547 0.000911033 0.000810111 0.000712699 0.000618797 0.000530455 0.000449722 0.000376598 0.000311082 0.000253175 0.000202877 0.000160187 0.000125106 9.57844e-05 7.03722e-05 4.88696e-05 3.12765e-05 1.7593e-05 7.81913e-06 1.95478e-06 0 0 5.06245e-06 2.02498e-05 4.5562e-05 8.09991e-05 0.000126561 0.000182248 0.00024806 0.000323996 0.000413013 0.000518063 0.000639148 0.000776267 0.000929421 0.00109861 0.00128383 0.00148509 0.00169652 0.00191227 0.00213233 0.00235671 0.0025854 0.00281841 0.00305574 0.00329738 0.00353694 0.00376803 0.00399065 0.00420479 0.00441046 0.00460766 0.00479638 0.00497664 0.00514578 0.00530119 0.00544287 0.0055708 0.005685 0.00578547 0.00587219 0.00594518 0.00600562 0.00605468 0.00609238 0.0061187 0.00613365 0.00613722 0.00612943 0.00611026 0.00608297 0.00605081 0.00601376 0.00597184 0.00592504 0.00587336 0.0058168 0.00575537 0.00569189 0.00562919 0.00556727 0.00550614 0.00544578 0.00538621 0.00532742 0.00526941 0.00521284 0.00515836 0.00510597 0.00505568 0.00500748 0.00496136 0.00491734 0.00487542 0.0048341 0.0047919 0.00474883 0.00470489 0.00466007 0.00461437 0.0045678 0.00452035 0.00447003 0.00441481 0.00435472 0.00428973 0.00421986 0.00414511 0.00406547 0.00398094 0.00389092 0.00379477 0.00369252 0.00358414 0.00346966 0.00334905 0.00322233 0.0030895 0.00295228 0.00281243 0.00266993 0.00252478 0.002377 0.00222657 0.0020735 0.00191778 0.00176304 0.00161288 0.00146731 0.00132632 0.00118992 0.0010581 0.000930872 0.000808225 0.00069284 0.000587392 0.000491883 0.000406311 0.000330677 0.000264982 0.000209224 0.000163404 0.000125106 9.19147e-05 6.38297e-05 4.0851e-05 2.29787e-05 1.02127e-05 2.55319e-06 0 0 6.50259e-06 2.60104e-05 5.85233e-05 0.000104041 0.000162565 0.000234093 0.000318627 0.000416166 0.000530351 0.000664822 0.000819581 0.000994626 0.00118996 0.00140558 0.00164148 0.00189768 0.00216672 0.00244117 0.00272104 0.00300633 0.00329702 0.00359313 0.00389466 0.00420159 0.00450587 0.00479942 0.00508223 0.00535432 0.00561567 0.0058663 0.00610619 0.00633535 0.00655045 0.00674817 0.0069285 0.00709145 0.00723701 0.00736519 0.00747598 0.00756939 0.0076469 0.00771 0.00775868 0.00779294 0.00781279 0.00781822 0.00780924 0.00778585 0.00775213 0.00771218 0.00766601 0.0076136 0.00755496 0.0074901 0.007419 0.00734167 0.00726169 0.00718261 0.00710445 0.0070272 0.00695086 0.00687543 0.00680091 0.0067273 0.00665544 0.00658615 0.00651944 0.00645531 0.00639375 0.00633477 0.00627837 0.00622454 0.00617142 0.00611716 0.00606175 0.00600519 0.00594749 0.00588863 0.00582863 0.00576749 0.00570267 0.00563167 0.00555448 0.0054711 0.00538154 0.00528578 0.00518384 0.00507572 0.00496064 0.00483783 0.0047073 0.00456905 0.00442307 0.00426937 0.00410794 0.00393879 0.00376411 0.0035861 0.00340474 0.00322005 0.00303203 0.00284067 0.00264597 0.00244793 0.00225112 0.0020601 0.00187486 0.0016954 0.00152173 0.00135384 0.00119174 0.00103542 0.000888286 0.000753744 0.00063179 0.000522426 0.00042565 0.000341463 0.000269866 0.000210857 0.000161437 0.000118607 8.2366e-05 5.27142e-05 2.96517e-05 1.31786e-05 3.29464e-06 0 0 8.2918e-06 3.31672e-05 7.46262e-05 0.000132669 0.000207295 0.000298505 0.000406298 0.000530675 0.000675858 0.000846067 0.0010413 0.00126157 0.00150686 0.00177718 0.00207252 0.0023929 0.00272906 0.00307177 0.00342103 0.00377683 0.00413919 0.00450809 0.00488355 0.00526555 0.00564419 0.00600956 0.00636167 0.0067005 0.00702607 0.00733837 0.0076374 0.00792316 0.00819156 0.00843849 0.00866397 0.00886798 0.00905054 0.00921163 0.00935126 0.00946943 0.00956794 0.00964859 0.00971138 0.00975632 0.00978339 0.00979261 0.00978397 0.00975747 0.00971812 0.00967092 0.00961587 0.00955297 0.00948223 0.00940363 0.00931719 0.0092229 0.00912514 0.00902828 0.00893234 0.00883731 0.00874318 0.00864997 0.00855766 0.00846626 0.00837681 0.00829035 0.00820686 0.00812636 0.00804884 0.00797431 0.00790276 0.00783419 0.00776635 0.00769698 0.00762609 0.00755367 0.00747972 0.00740424 0.00732724 0.00724871 0.00716559 0.00707482 0.0069764 0.00687033 0.00675662 0.00663525 0.00650624 0.00636958 0.00622434 0.00606962 0.0059054 0.00573169 0.00554849 0.00535579 0.00515361 0.00494193 0.00472346 0.00450089 0.00427423 0.00404347 0.00380862 0.00356967 0.00332663 0.00307949 0.00283384 0.00259529 0.00236383 0.00213946 0.00192218 0.00171199 0.00150889 0.00131288 0.00112821 0.000959102 0.000805571 0.000667613 0.000545229 0.000438417 0.000347179 0.000271514 0.000207878 0.000152726 0.00010606 6.78784e-05 3.81816e-05 1.69696e-05 4.2424e-06 0 0 1.04301e-05 4.17203e-05 9.38707e-05 0.000166881 0.000260752 0.000375483 0.000511074 0.000667525 0.000849534 0.0010618 0.00130432 0.00157709 0.00188012 0.00221341 0.00257695 0.00297075 0.00338354 0.00380404 0.00423227 0.00466822 0.0051119 0.00556329 0.00602241 0.00648924 0.0069519 0.00739847 0.00782895 0.00824335 0.00864166 0.00902389 0.00939003 0.00974008 0.0100691 0.0103722 0.0106493 0.0109004 0.0111256 0.0113248 0.011498 0.0116453 0.0117687 0.0118705 0.0119505 0.0120088 0.0120455 0.0120604 0.0120536 0.0120251 0.0119809 0.011927 0.0118633 0.01179 0.0117068 0.011614 0.0115114 0.011399 0.0112822 0.0111662 0.011051 0.0109365 0.0108228 0.0107098 0.0105977 0.0104863 0.010377 0.0102709 0.0101682 0.0100688 0.00997275 0.00987998 0.00979052 0.00970438 0.00961888 0.00953138 0.00944185 0.00935031 0.00925676 0.0091612 0.00906361 0.00896402 0.00885878 0.00874427 0.00862049 0.00848744 0.00834511 0.00819352 0.00803265 0.00786251 0.00768203 0.00749012 0.0072868 0.00707206 0.0068459 0.00660832 0.00635932 0.0060989 0.00583032 0.00555681 0.00527838 0.00499503 0.00470677 0.00441358 0.00411547 0.00381244 0.00351121 0.00321848 0.00293424 0.00265852 0.00239129 0.00213257 0.00188234 0.00164062 0.0014126 0.00120347 0.00101323 0.000841874 0.000689413 0.000555843 0.000441164 0.000345375 0.000264427 0.000194273 0.000134912 8.63437e-05 4.85683e-05 2.15859e-05 5.39648e-06 0 0 1.29174e-05 5.16697e-05 0.000116257 0.000206679 0.000322936 0.000465027 0.000632954 0.000826715 0.00105138 0.00131202 0.00160862 0.0019412 0.00230975 0.00271428 0.00315477 0.00363124 0.00413015 0.004638 0.00515479 0.0056805 0.00621515 0.00675872 0.00731124 0.00787268 0.00842899 0.00896613 0.00948408 0.00998285 0.0104624 0.0109228 0.0113641 0.0117861 0.0121831 0.0125492 0.0128844 0.0131887 0.0134621 0.0137046 0.0139163 0.014097 0.0142493 0.0143756 0.014476 0.0145505 0.014599 0.0146216 0.0146182 0.0145888 0.0145406 0.0144805 0.0144084 0.0143245 0.0142288 0.0141211 0.0140015 0.0138701 0.013733 0.0135964 0.0134603 0.0133247 0.0131896 0.013055 0.012921 0.0127874 0.0126559 0.0125279 0.0124035 0.0122827 0.0121655 0.0120518 0.0119417 0.0118351 0.011729 0.0116203 0.011509 0.0113951 0.0112786 0.0111595 0.0110378 0.0109134 0.0107822 0.01064 0.0104867 0.0103224 0.010147 0.00996058 0.00976308 0.00955453 0.0093337 0.00909936 0.00885152 0.00859017 0.00831532 0.00802696 0.00772509 0.00740972 0.00708469 0.00675385 0.0064172 0.00607474 0.00572647 0.0053724 0.00501251 0.00464681 0.00428321 0.00392964 0.00358609 0.00325256 0.00292905 0.00261556 0.00231209 0.00201864 0.00174147 0.00148684 0.00125475 0.00104521 0.000858204 0.000693742 0.00055182 0.000432439 0.000331086 0.000243247 0.000168922 0.00010811 6.08118e-05 2.70275e-05 6.75687e-06 0 0 1.57538e-05 6.30154e-05 0.000141785 0.000252061 0.000393846 0.000567138 0.000771938 0.00100825 0.00128139 0.00159672 0.00195422 0.0023539 0.00279575 0.00327977 0.00380598 0.00437436 0.00496891 0.00557365 0.00618857 0.00681366 0.00744894 0.0080944 0.00875003 0.00941585 0.0100755 0.0107125 0.0113271 0.011919 0.0124884 0.0130352 0.0135595 0.0140612 0.0145335 0.0149696 0.0153694 0.0157329 0.0160602 0.0163512 0.016606 0.0168245 0.0170096 0.0171641 0.017288 0.0173813 0.017444 0.0174761 0.0174776 0.0174486 0.0173971 0.0173313 0.0172511 0.0171567 0.017048 0.016925 0.0167877 0.0166361 0.0164774 0.0163188 0.0161603 0.016002 0.0158437 0.0156856 0.0155275 0.0153696 0.0152136 0.0150613 0.0149128 0.014768 0.014627 0.0144897 0.0143562 0.0142264 0.0140968 0.0139639 0.0138276 0.0136881 0.0135453 0.0133991 0.0132497 0.0130969 0.012936 0.0127621 0.0125752 0.0123752 0.0121623 0.0119364 0.0116975 0.0114456 0.0111794 0.0108973 0.0105995 0.010286 0.00995673 0.0096117 0.00925091 0.00887438 0.00848658 0.00809202 0.00769069 0.0072826 0.00686774 0.00644612 0.00601773 0.00558258 0.00514986 0.00472879 0.00431937 0.00392159 0.00353545 0.00316097 0.00279812 0.00244692 0.00211481 0.00180922 0.00153015 0.00127762 0.0010516 0.000852112 0.000679148 0.000532708 0.000407855 0.000299648 0.000208089 0.000133177 7.49121e-05 3.32943e-05 8.32357e-06 0 0 1.89393e-05 7.57573e-05 0.000170454 0.000303029 0.000473483 0.000681815 0.000928027 0.00121212 0.00153958 0.00191591 0.00234111 0.00281517 0.00333811 0.00390991 0.00453057 0.00520011 0.00589981 0.00661098 0.00733361 0.00806771 0.00881328 0.00957031 0.0103388 0.0111188 0.0118914 0.0126377 0.0133579 0.0140518 0.0147196 0.0153611 0.0159764 0.0165655 0.0171204 0.0176333 0.0181042 0.018533 0.0189198 0.0192645 0.0195672 0.0198278 0.0200496 0.0202358 0.0203863 0.0205012 0.0205804 0.020624 0.020632 0.0206043 0.0205504 0.0204794 0.0203915 0.0202865 0.0201646 0.0200257 0.0198699 0.019697 0.0195155 0.0193335 0.0191511 0.0189683 0.0187851 0.0186014 0.0184173 0.0182328 0.0180501 0.0178711 0.017696 0.0175248 0.0173574 0.0171938 0.017034 0.0168781 0.0167221 0.0165619 0.0163977 0.0162293 0.0160568 0.0158801 0.0156994 0.0155145 0.01532 0.0151104 0.0148857 0.014646 0.0143911 0.0141211 0.013836 0.0135358 0.013219 0.012884 0.0125309 0.0121596 0.0117702 0.0113625 0.0109368 0.0104929 0.010036 0.00957131 0.00909885 0.00861861 0.00813057 0.00763475 0.00713114 0.00661975 0.00611115 0.00561593 0.00513408 0.00466561 0.00421051 0.00376879 0.00334045 0.00292548 0.00253262 0.00217061 0.00183943 0.0015391 0.0012696 0.00103096 0.000823147 0.000646181 0.000494732 0.000363477 0.000252414 0.000161545 9.08692e-05 4.03863e-05 1.00966e-05 0 0 2.24739e-05 8.98955e-05 0.000202265 0.000359582 0.000561847 0.000809059 0.00110122 0.00143833 0.00182593 0.00226959 0.00276929 0.00332503 0.00393683 0.00460467 0.00532856 0.00610849 0.00692285 0.00774999 0.00858992 0.00944264 0.0103082 0.0111865 0.0120775 0.0129814 0.0138766 0.0147417 0.0155766 0.0163813 0.0171559 0.0179004 0.0186146 0.0192988 0.0199437 0.0205404 0.0210888 0.021589 0.0220409 0.0224445 0.0227999 0.023107 0.0233694 0.0235908 0.0237711 0.0239103 0.0240084 0.0240654 0.0240813 0.0240562 0.0240005 0.0239249 0.0238294 0.0237139 0.0235786 0.0234233 0.023248 0.0230528 0.0228472 0.0226404 0.0224326 0.0222237 0.0220137 0.0218026 0.0215904 0.0213772 0.0211653 0.0209573 0.0207532 0.0205529 0.0203565 0.020164 0.0199753 0.0197905 0.0196051 0.0194146 0.0192191 0.0190186 0.018813 0.0186024 0.0183868 0.0181662 0.0179343 0.0176851 0.0174185 0.0171345 0.0168332 0.0165145 0.0161785 0.0158251 0.0154526 0.0150594 0.0146455 0.0142109 0.0137556 0.0132795 0.0127827 0.0122652 0.0117329 0.0111917 0.0106417 0.0100828 0.00951496 0.00893829 0.00835275 0.00775833 0.00716708 0.00659105 0.00603023 0.00548462 0.00495422 0.00443904 0.00393907 0.00345431 0.00299491 0.002571 0.00218258 0.00182965 0.00151221 0.00123027 0.000983818 0.000772858 0.000591719 0.000434732 0.000301897 0.000193214 0.000108683 4.83036e-05 1.20759e-05 0 0 2.63575e-05 0.00010543 0.000237217 0.00042172 0.000658937 0.000948869 0.00129152 0.00168688 0.00214046 0.00265775 0.00323875 0.00388348 0.00459191 0.00536406 0.00619993 0.00709951 0.00803802 0.00899069 0.0099575 0.0109385 0.0119336 0.0129428 0.0139663 0.0150038 0.0160313 0.0170244 0.0179831 0.0189074 0.0197974 0.0206531 0.0214743 0.0222612 0.0230035 0.0236909 0.0243233 0.0249009 0.0254235 0.0258912 0.0263041 0.026662 0.026969 0.0272291 0.0274422 0.0276085 0.0277277 0.0278001 0.0278255 0.027804 0.0277475 0.0276678 0.0275649 0.027439 0.0272898 0.0271176 0.0269222 0.0267036 0.0264725 0.0262396 0.0260048 0.0257681 0.0255295 0.0252891 0.0250468 0.0248026 0.0245594 0.0243199 0.0240843 0.0238525 0.0236245 0.0234003 0.0231799 0.0229633 0.0227456 0.0225218 0.022292 0.0220561 0.0218141 0.0215661 0.021312 0.0210519 0.0207789 0.020486 0.0201734 0.019841 0.0194888 0.0191168 0.018725 0.0183134 0.0178802 0.0174236 0.0169435 0.01644 0.015913 0.0153626 0.0147887 0.0141914 0.0135773 0.0129533 0.0123192 0.0116751 0.0110209 0.0103567 0.00968254 0.00899831 0.00831765 0.00765415 0.0070078 0.00637861 0.00576658 0.0051717 0.00459398 0.00403342 0.00350167 0.0030104 0.0025596 0.00214928 0.00177943 0.00145006 0.00116116 0.000912738 0.000698815 0.000513415 0.000356538 0.000228185 0.000128354 5.70461e-05 1.42615e-05 0 0 3.05716e-05 0.000122286 0.000275145 0.000489146 0.00076429 0.00110058 0.00149801 0.00195658 0.00248163 0.00307848 0.00374714 0.0044876 0.00529987 0.00618394 0.00713982 0.0081675 0.00923883 0.0103257 0.011428 0.0125459 0.0136793 0.0148282 0.0159926 0.0171725 0.0183407 0.0194702 0.0205608 0.0216126 0.0226256 0.0235998 0.0245352 0.0254317 0.0262779 0.0270623 0.0277847 0.0284452 0.0290439 0.0295807 0.0300556 0.0304686 0.0308241 0.0311265 0.0313758 0.0315719 0.031715 0.031805 0.0318419 0.0318256 0.0317695 0.0316868 0.0315775 0.0314416 0.031279 0.0310899 0.0308741 0.0306317 0.0303746 0.0301147 0.0298519 0.0295863 0.0293178 0.0290466 0.0287724 0.0284955 0.0282189 0.027946 0.0276767 0.027411 0.0271489 0.0268905 0.0266357 0.0263845 0.0261315 0.0258714 0.025604 0.0253294 0.0250476 0.0247587 0.0244625 0.0241591 0.0238409 0.0235004 0.0231376 0.0227524 0.0223449 0.021915 0.0214628 0.0209882 0.0204893 0.0199642 0.0194127 0.018835 0.018231 0.0176007 0.0169441 0.0162612 0.0155596 0.0148468 0.0141227 0.0133874 0.0126408 0.0118831 0.0111141 0.0103339 0.00955761 0.00880055 0.00806265 0.00734394 0.00664439 0.00596403 0.00530284 0.00466082 0.00405127 0.00348747 0.00296943 0.00249715 0.00207062 0.00168984 0.00135482 0.00106555 0.000815815 0.000599374 0.000416232 0.000266389 0.000149844 6.65972e-05 1.66493e-05 0 0 3.50977e-05 0.000140391 0.00031588 0.000561564 0.000877443 0.00126352 0.00171979 0.00224625 0.00284794 0.00352988 0.00429207 0.00513451 0.00605721 0.00706015 0.00814334 0.00930678 0.0105188 0.0117476 0.0129932 0.0142557 0.015535 0.0168312 0.0181442 0.019474 0.0207905 0.0220635 0.0232931 0.0244793 0.0256219 0.0267212 0.0277769 0.0287893 0.0297453 0.0306322 0.03145 0.0321987 0.0328783 0.0334888 0.0340302 0.0345024 0.0349103 0.0352587 0.0355476 0.0357769 0.0359467 0.0360569 0.0361076 0.0360988 0.036045 0.0359609 0.0358465 0.0357018 0.0355267 0.0353214 0.0350857 0.0348197 0.0345365 0.0342494 0.0339582 0.033663 0.0333639 0.0330607 0.0327535 0.0324423 0.0321308 0.0318225 0.0315176 0.0312159 0.0309174 0.0306223 0.0303304 0.0300419 0.0297507 0.029451 0.0291429 0.0288263 0.0285012 0.0281676 0.0278256 0.0274751 0.0271078 0.0267155 0.0262983 0.025856 0.0253887 0.0248965 0.0243792 0.0238369 0.0232675 0.022669 0.0220412 0.0213843 0.0206981 0.0199828 0.0192383 0.0184645 0.01767 0.016863 0.0160435 0.0152115 0.0143671 0.0135103 0.0126409 0.0117591 0.0108817 0.0100255 0.00919061 0.00837691 0.00758446 0.00681325 0.00606327 0.00533454 0.00464207 0.0040009 0.00341102 0.00287243 0.00238514 0.00194915 0.00156445 0.00123104 0.000942514 0.000692459 0.000480874 0.00030776 0.000173115 7.69399e-05 1.9235e-05 0 0 3.99358e-05 0.000159743 0.000359423 0.000638973 0.000998396 0.00143769 0.00195686 0.00255589 0.00323939 0.00401195 0.00487355 0.00582421 0.00686392 0.00799269 0.0092105 0.0105174 0.0118778 0.0132564 0.0146531 0.0160679 0.0175008 0.0189519 0.020421 0.0219083 0.0233805 0.0248044 0.02618 0.0275073 0.0287864 0.0300172 0.0311996 0.0323338 0.0334056 0.0344007 0.0353193 0.0361613 0.0369268 0.0376156 0.0382279 0.0387636 0.0392278 0.0396259 0.0399577 0.0402233 0.0404227 0.0405558 0.0406227 0.0406234 0.0405738 0.04049 0.0403719 0.0402195 0.0400329 0.039812 0.0395569 0.0392675 0.0389582 0.0386436 0.0383236 0.0379983 0.0376676 0.0373314 0.03699 0.0366431 0.036295 0.0359496 0.0356069 0.0352671 0.03493 0.0345957 0.0342641 0.0339354 0.033603 0.0332608 0.0329087 0.0325467 0.0321748 0.031793 0.0314013 0.0309998 0.0305794 0.0301313 0.0296554 0.0291517 0.0286203 0.0280611 0.0274742 0.0268595 0.0262148 0.025538 0.024829 0.0240878 0.0233145 0.0225089 0.0216712 0.0208013 0.0199085 0.0190019 0.0180816 0.0171476 0.0161998 0.0152383 0.0142631 0.0132741 0.0122899 0.0113291 0.0103917 0.00947755 0.00858678 0.00771936 0.00687529 0.00605457 0.00527407 0.00455066 0.00388435 0.00327513 0.002723 0.00222797 0.00179003 0.00140919 0.00107891 0.000792669 0.000550465 0.000352297 0.000198167 8.80743e-05 2.20186e-05 0 0 4.50859e-05 0.000180344 0.000405773 0.000721375 0.00112715 0.00162309 0.00220921 0.0028855 0.00365598 0.00452467 0.00549157 0.00655669 0.00772002 0.00898155 0.0103413 0.0117993 0.013316 0.0148521 0.0164076 0.0179824 0.0195766 0.0211902 0.0228231 0.0244754 0.0261108 0.0276928 0.0292215 0.0306969 0.032119 0.0334878 0.0348032 0.0360654 0.0372588 0.0383678 0.0393926 0.0403331 0.0411893 0.0419612 0.0426487 0.043252 0.0437766 0.044228 0.0446062 0.0449112 0.045143 0.0453017 0.0453872 0.0453995 0.045356 0.0452741 0.0451537 0.0449949 0.0447976 0.0445619 0.0442877 0.0439751 0.0436397 0.0432975 0.0429482 0.0425921 0.0422289 0.0418588 0.0414818 0.0410978 0.0407114 0.0403271 0.0399449 0.0395647 0.0391867 0.0388107 0.0384368 0.038065 0.0376885 0.0373006 0.0369013 0.0364906 0.0360684 0.0356348 0.0351897 0.0347332 0.0342558 0.0337476 0.0332089 0.0326396 0.0320396 0.031409 0.0307478 0.030056 0.0293312 0.0285712 0.027776 0.0269456 0.0260799 0.025179 0.0242429 0.0232716 0.0222751 0.0212636 0.0202371 0.0191955 0.0181389 0.0170672 0.0159805 0.0148788 0.0137823 0.0127113 0.0116658 0.0106458 0.00965136 0.00868237 0.00773889 0.00682092 0.00594727 0.00513677 0.00438943 0.00370524 0.0030842 0.00252632 0.00203159 0.00160001 0.00122501 0.000900005 0.000625003 0.000400002 0.000225001 0.000100001 2.50001e-05 0 0 5.0548e-05 0.000202192 0.000454932 0.000808768 0.0012637 0.00181973 0.00247685 0.00323507 0.0040977 0.00506806 0.00614614 0.00733195 0.00862549 0.0100268 0.0115357 0.0131525 0.0148333 0.0165348 0.0182568 0.0199993 0.0217625 0.0235462 0.0253505 0.0271754 0.0289813 0.0307287 0.0324175 0.0340478 0.0356197 0.037133 0.0385877 0.039984 0.0413049 0.0425335 0.0436699 0.044714 0.0456658 0.0465254 0.0472927 0.0479678 0.0485565 0.0490649 0.0494929 0.0498405 0.0501077 0.0502946 0.0504011 0.0504272 0.0503916 0.0503132 0.0501919 0.0500278 0.0498208 0.0495709 0.0492781 0.0489425 0.0485811 0.0482109 0.047832 0.0474443 0.047048 0.0466429 0.0462291 0.0458065 0.0453802 0.0449551 0.0445313 0.0441087 0.0436874 0.0432673 0.0428484 0.0424308 0.0420072 0.0415706 0.0411208 0.040658 0.040182 0.0396929 0.0391908 0.0386755 0.0381369 0.0375647 0.0369589 0.0363195 0.0356466 0.0349401 0.0342 0.0334263 0.0326166 0.0317686 0.0308823 0.0299576 0.0289946 0.0279932 0.0269534 0.0258753 0.0247699 0.0236481 0.0225099 0.0213553 0.0201843 0.018997 0.0177933 0.0165732 0.0153588 0.0141721 0.0130131 0.0118818 0.0107782 0.00970228 0.00865408 0.00763358 0.00666167 0.00575923 0.00492626 0.00416276 0.00346874 0.00284419 0.0022891 0.00180349 0.0013808 0.00101447 0.00070449 0.000450874 0.000253616 0.000112718 2.81796e-05 0 0 5.6322e-05 0.000225288 0.000506898 0.000901153 0.00140805 0.00202759 0.00275978 0.00360461 0.00456456 0.00564211 0.00683726 0.00815 0.00958034 0.0111283 0.0127938 0.014577 0.0164298 0.0183043 0.0202006 0.0221186 0.0240584 0.0260199 0.0280032 0.0300082 0.0319921 0.0339121 0.0357681 0.0375603 0.0392885 0.0409528 0.0425532 0.0440896 0.0455439 0.0468977 0.0481511 0.0493039 0.0503564 0.0513083 0.0521598 0.0529108 0.0535677 0.0541367 0.0546179 0.055