<?xml version="1.0"?> 
<VTKFile type="StructuredGrid" version="0.1"> 
<StructuredGrid WholeExtent="0 128 0 128 0 0"> 
<Piece Extent="0 128 0 128 0 0"> 
<PointData>
<DataArray type="Float32" Name="u" format="ascii" NumberOfComponents="1"> 
0 0 0 0 0 0 0 0 0 0 0 0 0 0 0 0 0 0 0 0 0 0 0 0 0 0 0 0 0 0 0 0 0 0 0 0 0 0 0 0 0 0 0 0 0 0 0 0 0 0 0 0 0 0 0 0 0 0 0 0 0 0 0 0 0 0 0 0 0 0 0 0 0 0 0 0 0 0 0 0 0 0 0 0 0 0 0 0 0 0 0 0 0 0 0 0 0 0 0 0 0 0 0 0 0 0 0 0 0 0 0 0 0 0 0 0 0 0 0 0 0 0 0 0 0 0 0 0 0 0 -6.14811e-08 -2.45924e-07 -5.5333e-07 -9.83698e-07 -1.53703e-06 -2.21332e-06 -3.01257e-06 -3.93479e-06 -4.80162e-06 -5.43471e-06 -5.83406e-06 -5.99967e-06 -5.93154e-06 -5.62967e-06 -5.09406e-06 -4.32471e-06 -3.29758e-06 -1.9886e-06 -3.97784e-07 1.47487e-06 3.62936e-06 6.0657e-06 8.78387e-06 1.17839e-05 1.48984e-05 1.79601e-05 2.09691e-05 2.39252e-05 2.68286e-05 2.96791e-05 3.24768e-05 3.52218e-05 3.77565e-05 3.99235e-05 4.17229e-05 4.31546e-05 4.42186e-05 4.4915e-05 4.52437e-05 4.52047e-05 4.4807e-05 4.40593e-05 4.29617e-05 4.15142e-05 3.97167e-05 3.75694e-05 3.50721e-05 3.2225e-05 2.91936e-05 2.61437e-05 2.30754e-05 1.99886e-05 1.68833e-05 1.37595e-05 1.06173e-05 7.45653e-06 4.43819e-06 1.72311e-06 -6.88695e-07 -2.79724e-06 -4.60251e-06 -6.10452e-06 -7.30326e-06 -8.19873e-06 -8.78401e-06 -9.05216e-06 -9.00317e-06 -8.63705e-06 -7.95381e-06 -6.95343e-06 -5.63592e-06 -4.00128e-06 -2.18568e-06 -3.25279e-07 1.57992e-06 3.52992e-06 5.52471e-06 7.5643e-06 9.64869e-06 1.17779e-05 1.38184e-05 1.56368e-05 1.7233e-05 1.86072e-05 1.97591e-05 2.0689e-05 2.13967e-05 2.18823e-05 2.21385e-05 2.21581e-05 2.19411e-05 2.14874e-05 2.07971e-05 1.98702e-05 1.87067e-05 1.73066e-05 1.57755e-05 1.42191e-05 1.26375e-05 1.10306e-05 9.39839e-06 7.74094e-06 6.05821e-06 4.35021e-06 2.71597e-06 1.25452e-06 -3.41477e-08 -1.15003e-06 -2.09312e-06 -2.86343e-06 -3.46095e-06 -3.88569e-06 -4.16195e-06 -4.31407e-06 -4.34203e-06 -4.24583e-06 -4.02549e-06 -3.68099e-06 -3.21233e-06 -2.61953e-06 -2.00558e-06 -1.47348e-06 -1.02325e-06 -6.54882e-07 -3.68371e-07 -1.63721e-07 -4.09301e-08 0 0 -2.45924e-07 -9.83698e-07 -2.21332e-06 -3.93479e-06 -6.14811e-06 -8.85328e-06 -1.20503e-05 -1.57392e-05 -1.92065e-05 -2.17388e-05 -2.33362e-05 -2.39987e-05 -2.37261e-05 -2.25187e-05 -2.03762e-05 -1.72988e-05 -1.31903e-05 -7.9544e-06 -1.59114e-06 5.89948e-06 1.45175e-05 2.42628e-05 3.51355e-05 4.71355e-05 5.95936e-05 7.18406e-05 8.38763e-05 9.57009e-05 0.000107314 0.000118716 0.000129907 0.000140887 0.000151026 0.000159694 0.000166892 0.000172618 0.000176875 0.00017966 0.000180975 0.000180819 0.000179228 0.000176237 0.000171847 0.000166057 0.000158867 0.000150278 0.000140289 0.0001289 0.000116774 0.000104575 9.23016e-05 7.99543e-05 6.75332e-05 5.50381e-05 4.2469e-05 2.98261e-05 1.77527e-05 6.89245e-06 -2.75478e-06 -1.11889e-05 -1.841e-05 -2.44181e-05 -2.9213e-05 -3.27949e-05 -3.5136e-05 -3.62086e-05 -3.60127e-05 -3.45482e-05 -3.18152e-05 -2.78137e-05 -2.25437e-05 -1.60051e-05 -8.74272e-06 -1.30112e-06 6.31968e-06 1.41197e-05 2.20988e-05 3.02572e-05 3.85948e-05 4.71115e-05 5.52736e-05 6.25471e-05 6.89322e-05 7.44286e-05 7.90366e-05 8.2756e-05 8.55869e-05 8.75292e-05 8.8554e-05 8.86324e-05 8.77642e-05 8.59496e-05 8.31885e-05 7.94809e-05 7.48268e-05 6.92262e-05 6.31019e-05 5.68764e-05 5.05499e-05 4.41223e-05 3.75936e-05 3.09637e-05 2.42328e-05 1.74009e-05 1.08639e-05 5.01808e-06 -1.36591e-07 -4.60012e-06 -8.37249e-06 -1.14537e-05 -1.38438e-05 -1.55428e-05 -1.66478e-05 -1.72563e-05 -1.73681e-05 -1.69833e-05 -1.61019e-05 -1.47239e-05 -1.28493e-05 -1.04781e-05 -8.02231e-06 -5.89394e-06 -4.09301e-06 -2.61953e-06 -1.47348e-06 -6.54882e-07 -1.63721e-07 0 0 -5.5333e-07 -2.21332e-06 -4.97997e-06 -8.85328e-06 -1.38332e-05 -1.99199e-05 -2.71132e-05 -3.54131e-05 -4.32146e-05 -4.89124e-05 -5.25065e-05 -5.3997e-05 -5.33838e-05 -5.0667e-05 -4.58465e-05 -3.89224e-05 -2.96782e-05 -1.78974e-05 -3.58006e-06 1.32738e-05 3.26643e-05 5.45913e-05 7.90548e-05 0.000106055 0.000134086 0.000161641 0.000188722 0.000215327 0.000241457 0.000267112 0.000292292 0.000316996 0.000339808 0.000359312 0.000375506 0.000388391 0.000397968 0.000404235 0.000407193 0.000406843 0.000403263 0.000396534 0.000386655 0.000373628 0.000357451 0.000338125 0.000315649 0.000290025 0.000262742 0.000235294 0.000207679 0.000179897 0.00015195 0.000123836 9.55553e-05 6.71087e-05 3.99437e-05 1.5508e-05 -6.19826e-06 -2.51751e-05 -4.14226e-05 -5.49407e-05 -6.57293e-05 -7.37886e-05 -7.90561e-05 -8.14694e-05 -8.10285e-05 -7.77335e-05 -7.15843e-05 -6.25809e-05 -5.07233e-05 -3.60115e-05 -1.96711e-05 -2.92751e-06 1.42193e-05 3.17692e-05 4.97224e-05 6.80787e-05 8.68382e-05 0.000106001 0.000124366 0.000140731 0.000155097 0.000167464 0.000177832 0.000186201 0.00019257 0.000196941 0.000199247 0.000199423 0.00019747 0.000193387 0.000187174 0.000178832 0.00016836 0.000155759 0.000141979 0.000127972 0.000113737 9.92751e-05 8.45855e-05 6.96684e-05 5.45239e-05 3.91519e-05 2.44438e-05 1.12907e-05 -3.07329e-07 -1.03503e-05 -1.88381e-05 -2.57709e-05 -3.11486e-05 -3.49712e-05 -3.74576e-05 -3.88266e-05 -3.90782e-05 -3.82125e-05 -3.62294e-05 -3.31289e-05 -2.8911e-05 -2.35758e-05 -1.80502e-05 -1.32614e-05 -9.20928e-06 -5.89394e-06 -3.31534e-06 -1.47348e-06 -3.68371e-07 0 0 -9.83698e-07 -3.93479e-06 -8.85328e-06 -1.57392e-05 -2.45924e-05 -3.54131e-05 -4.82012e-05 -6.29566e-05 -7.68259e-05 -8.69553e-05 -9.33449e-05 -9.59947e-05 -9.49046e-05 -9.00747e-05 -8.15049e-05 -6.91954e-05 -5.27612e-05 -3.18176e-05 -6.36455e-06 2.35979e-05 5.80698e-05 9.70511e-05 0.000140542 0.000188542 0.000238375 0.000287362 0.000335505 0.000382803 0.000429257 0.000474866 0.000519629 0.000563548 0.000604104 0.000638777 0.000667566 0.000690474 0.000707498 0.00071864 0.000723899 0.000723276 0.000716911 0.000704949 0.000687387 0.000664227 0.000635468 0.00060111 0.000561154 0.000515599 0.000467097 0.0004183 0.000369206 0.000319817 0.000270133 0.000220152 0.000169876 0.000119304 7.1011e-05 2.75698e-05 -1.10191e-05 -4.47558e-05 -7.36402e-05 -9.76723e-05 -0.000116852 -0.00013118 -0.000140544 -0.000144834 -0.000144051 -0.000138193 -0.000127261 -0.000111255 -9.01747e-05 -6.40205e-05 -3.49709e-05 -5.20447e-06 2.52787e-05 5.64787e-05 8.83954e-05 0.000121029 0.000154379 0.000188446 0.000221094 0.000250189 0.000275729 0.000297715 0.000316146 0.000331024 0.000342347 0.000350117 0.000354216 0.000354529 0.000351057 0.000343798 0.000332754 0.000317924 0.000299307 0.000276905 0.000252408 0.000227506 0.0002022 0.000176489 0.000150374 0.000123855 9.69314e-05 6.96034e-05 4.34556e-05 2.00723e-05 -5.46363e-07 -1.84005e-05 -3.349e-05 -4.58149e-05 -5.53753e-05 -6.2171e-05 -6.65913e-05 -6.90251e-05 -6.94724e-05 -6.79333e-05 -6.44078e-05 -5.88958e-05 -5.13974e-05 -4.19125e-05 -3.20892e-05 -2.35758e-05 -1.63721e-05 -1.04781e-05 -5.89394e-06 -2.61953e-06 -6.54882e-07 0 0 -1.53703e-06 -6.14811e-06 -1.38332e-05 -2.45924e-05 -3.84257e-05 -5.5333e-05 -7.53143e-05 -9.83698e-05 -0.00012004 -0.000135868 -0.000145851 -0.000149992 -0.000148288 -0.000140742 -0.000127351 -0.000108118 -8.24394e-05 -4.9715e-05 -9.9446e-06 3.68718e-05 9.07341e-05 0.000151642 0.000219597 0.000294597 0.00037246 0.000449004 0.000524227 0.00059813 0.000670714 0.000741977 0.000811921 0.000880545 0.000943912 0.000998088 0.00104307 0.00107887 0.00110547 0.00112288 0.00113109 0.00113012 0.00112017 0.00110148 0.00107404 0.00103785 0.000992919 0.000939235 0.000876803 0.000805624 0.00072984 0.000653593 0.000576885 0.000499715 0.000422082 0.000343988 0.000265431 0.000186413 0.000110955 4.30778e-05 -1.72174e-05 -6.99309e-05 -0.000115063 -0.000152613 -0.000182581 -0.000204968 -0.0002196 -0.000226304 -0.000225079 -0.000215926 -0.000198845 -0.000173836 -0.000140898 -0.000100032 -5.4642e-05 -8.13198e-06 3.9498e-05 8.82479e-05 0.000138118 0.000189108 0.000241217 0.000294447 0.00034546 0.00039092 0.000430826 0.000465179 0.000493979 0.000517225 0.000534918 0.000547057 0.000553463 0.000553952 0.000548526 0.000537185 0.000519928 0.000496756 0.000467668 0.000432664 0.000394387 0.000355478 0.000315937 0.000275764 0.00023496 0.000193523 0.000151455 0.000108755 6.78993e-05 3.1363e-05 -8.53692e-07 -2.87507e-05 -5.23281e-05 -7.15858e-05 -8.65238e-05 -9.71422e-05 -0.000104049 -0.000107852 -0.000108551 -0.000106146 -0.000100637 -9.20247e-05 -8.03084e-05 -6.54882e-05 -5.01394e-05 -3.68371e-05 -2.55813e-05 -1.63721e-05 -9.20928e-06 -4.09301e-06 -1.02325e-06 0 0 -2.21332e-06 -8.85328e-06 -1.99199e-05 -3.54131e-05 -5.5333e-05 -7.96795e-05 -0.000108453 -0.000141652 -0.000172858 -0.000195649 -0.000210026 -0.000215988 -0.000213535 -0.000202668 -0.000183386 -0.00015569 -0.000118713 -7.15896e-05 -1.43202e-05 5.30953e-05 0.000130657 0.000218365 0.000316219 0.00042422 0.000536343 0.000646565 0.000754887 0.000861308 0.000965828 0.00106845 0.00116917 0.00126798 0.00135923 0.00143725 0.00150202 0.00155357 0.00159187 0.00161694 0.00162877 0.00162737 0.00161305 0.00158613 0.00154662 0.00149451 0.0014298 0.0013525 0.0012626 0.0011601 0.00105097 0.000941174 0.000830714 0.000719589 0.000607798 0.000495342 0.000382221 0.000268435 0.000159775 6.2032e-05 -2.4793e-05 -0.0001007 -0.00016569 -0.000219763 -0.000262917 -0.000295154 -0.000316224 -0.000325878 -0.000324114 -0.000310934 -0.000286337 -0.000250323 -0.000202893 -0.000144046 -7.86845e-05 -1.171e-05 5.68771e-05 0.000127077 0.00019889 0.000272315 0.000347353 0.000424004 0.000497462 0.000562924 0.000620389 0.000669858 0.000711329 0.000744804 0.000770282 0.000787763 0.000796986 0.000797691 0.000789878 0.000773546 0.000748696 0.000715328 0.000673441 0.000623036 0.000567917 0.000511888 0.000454949 0.0003971 0.000338342 0.000278674 0.000218096 0.000156608 9.77751e-05 4.51627e-05 -1.22932e-06 -4.1401e-05 -7.53524e-05 -0.000103084 -0.000124594 -0.000139885 -0.00014983 -0.000155306 -0.000156313 -0.00015285 -0.000144918 -0.000132516 -0.000115644 -9.4303e-05 -7.22008e-05 -5.30455e-05 -3.68371e-05 -2.35758e-05 -1.32614e-05 -5.89394e-06 -1.47348e-06 0 0 -3.01257e-06 -1.20503e-05 -2.71132e-05 -4.82012e-05 -7.53143e-05 -0.000108453 -0.000147616 -0.000192805 -0.000235279 -0.000266301 -0.000285869 -0.000293984 -0.000290645 -0.000275854 -0.000249609 -0.000211911 -0.000161581 -9.74414e-05 -1.94914e-05 7.22686e-05 0.000177839 0.000297219 0.00043041 0.00057741 0.000730022 0.000880047 0.00102748 0.00117234 0.0013146 0.00145428 0.00159136 0.00172587 0.00185007 0.00195625 0.00204442 0.00211458 0.00216671 0.00220084 0.00221694 0.00221503 0.00219554 0.0021589 0.00210512 0.00203419 0.00194612 0.0018409 0.00171853 0.00157902 0.00143049 0.00128104 0.00113069 0.000979441 0.000827281 0.000674216 0.000520246 0.00036537 0.000217471 8.44325e-05 -3.37461e-05 -0.000137065 -0.000225523 -0.000299121 -0.00035786 -0.000401738 -0.000430416 -0.000443556 -0.000441155 -0.000423216 -0.000389737 -0.000340718 -0.00027616 -0.000196063 -0.000107098 -1.59387e-05 7.74161e-05 0.000172966 0.000270711 0.000370651 0.000472786 0.000577116 0.000677102 0.000766202 0.000844419 0.000911751 0.000968198 0.00101376 0.00104844 0.00107223 0.00108479 0.00108575 0.00107511 0.00105288 0.00101906 0.000973641 0.000916628 0.000848021 0.000772998 0.000696736 0.000619236 0.000540498 0.000460521 0.000379306 0.000296852 0.000213161 0.000133083 6.14715e-05 -1.67324e-06 -5.63514e-05 -0.000102563 -0.000140308 -0.000169587 -0.000190399 -0.000203936 -0.000211389 -0.000212759 -0.000208046 -0.000197249 -0.000180368 -0.000157404 -0.000128357 -9.82733e-05 -7.22008e-05 -5.01394e-05 -3.20892e-05 -1.80502e-05 -8.02231e-06 -2.00558e-06 0 0 -3.93479e-06 -1.57392e-05 -3.54131e-05 -6.29566e-05 -9.83698e-05 -0.000141652 -0.000192805 -0.000251827 -0.000307304 -0.000347821 -0.00037338 -0.000383979 -0.000379618 -0.000360299 -0.00032602 -0.000276782 -0.000211045 -0.00012727 -2.54582e-05 9.43917e-05 0.000232279 0.000388205 0.000562168 0.000754168 0.000953498 0.00114945 0.00134202 0.00153121 0.00171703 0.00189946 0.00207852 0.00225419 0.00241642 0.00255511 0.00267027 0.00276189 0.00282999 0.00287456 0.0028956 0.0028931 0.00286765 0.00281979 0.00274955 0.00265691 0.00254187 0.00240444 0.00224462 0.0020624 0.00186839 0.0016732 0.00147683 0.00127927 0.00108053 0.000880609 0.000679505 0.000477218 0.000284044 0.000110279 -4.40765e-05 -0.000179023 -0.000294561 -0.000390689 -0.000467409 -0.000524719 -0.000562177 -0.000579338 -0.000576203 -0.000552771 -0.000509044 -0.000445019 -0.000360699 -0.000256082 -0.000139884 -2.08179e-05 0.000101115 0.000225915 0.000353581 0.000484115 0.000617516 0.000753784 0.000884378 0.00100075 0.00110291 0.00119086 0.00126459 0.0013241 0.00136939 0.00140047 0.00141686 0.00141812 0.00140423 0.00137519 0.00133102 0.00127169 0.00119723 0.00110762 0.00100963 0.000910023 0.000808798 0.000705956 0.000601497 0.00049542 0.000387726 0.000278414 0.000173822 8.02893e-05 -2.18545e-06 -7.36018e-05 -0.00013396 -0.00018326 -0.000221501 -0.000248684 -0.000266365 -0.0002761 -0.00027789 -0.000271733 -0.000257631 -0.000235583 -0.000205589 -0.00016765 -0.000128357 -9.4303e-05 -6.54882e-05 -4.19125e-05 -2.35758e-05 -1.04781e-05 -2.61953e-06 0 0 -4.71479e-06 -1.88592e-05 -4.24331e-05 -7.54367e-05 -0.00011787 -0.000169733 -0.000231025 -0.000301747 -0.00036763 -0.000414406 -0.000442075 -0.000450636 -0.000440091 -0.000410439 -0.000361679 -0.000293812 -0.000205068 -9.36759e-05 4.03641e-05 0.000197052 0.000376388 0.000578371 0.000803003 0.00105028 0.00130666 0.00155858 0.00180604 0.00204904 0.00228759 0.00252168 0.00275132 0.0029765 0.00318452 0.00336267 0.00351096 0.00362938 0.00371794 0.00377663 0.00380545 0.00380441 0.00377424 0.00371565 0.00362865 0.00351325 0.00336943 0.00319721 0.00299657 0.00276753 0.00252346 0.00227775 0.0020304 0.00178141 0.00153077 0.0012785 0.00102459 0.000769041 0.000524846 0.000305002 0.000109511 -6.16273e-05 -0.000208414 -0.000330848 -0.000428931 -0.000502661 -0.00055146 -0.000574749 -0.000572528 -0.000544797 -0.000491557 -0.000412807 -0.000308546 -0.000178776 -3.44655e-05 0.000113416 0.000264869 0.000419894 0.000578489 0.000740655 0.000906393 0.0010757 0.00123782 0.00138199 0.0015082 0.00161646 0.00170677 0.00177913 0.00183353 0.00186999 0.0018879 0.00188669 0.00186635 0.00182688 0.00176828 0.00169056 0.00159371 0.00147773 0.00135116 0.0012225 0.00109176 0.000958952 0.000824062 0.000687094 0.000548048 0.000406924 0.000271734 0.000150489 4.31901e-05 -5.01633e-05 -0.000129571 -0.000195033 -0.000246549 -0.00028412 -0.00030963 -0.000324963 -0.00033012 -0.0003251 -0.000309904 -0.000284531 -0.000248982 -0.000203256 -0.000155618 -0.000114332 -7.9397e-05 -5.08141e-05 -2.85829e-05 -1.27035e-05 -3.17588e-06 0 0 -5.08741e-06 -2.03496e-05 -4.57867e-05 -8.13985e-05 -0.000127185 -0.000183147 -0.000249283 -0.000325594 -0.000394957 -0.000440249 -0.00046147 -0.000458621 -0.0004317 -0.000380709 -0.000305647 -0.000206513 -8.1615e-05 7.07428e-05 0.00025056 0.000457837 0.000692573 0.000954769 0.00124442 0.00156154 0.00188938 0.00221123 0.00252708 0.00283692 0.00314077 0.00343862 0.00373047 0.00401631 0.00428061 0.00450781 0.0046979 0.00485088 0.00496677 0.00504555 0.00508722 0.0050918 0.00506019 0.00499332 0.0048912 0.00475382 0.00458118 0.00437328 0.00413013 0.00385171 0.00355446 0.00325479 0.00295269 0.00264818 0.00234124 0.00203188 0.0017201 0.0014059 0.00110523 0.000834033 0.000592314 0.000380072 0.000197307 4.40186e-05 -7.97923e-05 -0.000174126 -0.000238221 -0.000271313 -0.000273402 -0.00024449 -0.000184575 -9.36581e-05 2.82612e-05 0.000181183 0.00035173 0.000526528 0.000705575 0.000888873 0.00107642 0.00126822 0.00146427 0.00166456 0.00185596 0.00202531 0.0021726 0.00229785 0.00240104 0.00248218 0.00254127 0.00257831 0.00259257 0.00258333 0.00255058 0.00249433 0.00241457 0.00231131 0.00218454 0.00203427 0.00187092 0.00170492 0.00153626 0.00136496 0.00119101 0.00101441 0.000835151 0.000653247 0.000478556 0.000320943 0.000180409 5.69534e-05 -4.94241e-05 -0.000138723 -0.000210944 -0.000266087 -0.000306243 -0.000333503 -0.000347867 -0.000349335 -0.000337908 -0.000313584 -0.000276365 -0.000226251 -0.000173223 -0.000127266 -8.83791e-05 -5.65627e-05 -3.18165e-05 -1.41407e-05 -3.53517e-06 0 0 -5.05263e-06 -2.02105e-05 -4.54737e-05 -8.08421e-05 -0.000126316 -0.000181895 -0.000247579 -0.000323368 -0.000389285 -0.000425351 -0.000431567 -0.000407932 -0.000354446 -0.00027111 -0.000157923 -1.48852e-05 0.000159314 0.000365986 0.00060513 0.000876747 0.00118084 0.0015174 0.00188643 0.00228794 0.00270168 0.00310741 0.00350514 0.00389485 0.00427656 0.00465026 0.00501596 0.00537364 0.0057047 0.00599052 0.00623109 0.00642641 0.00657649 0.00668132 0.00674091 0.00675525 0.0067255 0.00665281 0.00653718 0.00637862 0.00617711 0.00593267 0.00564528 0.00531496 0.00496141 0.00460433 0.00424372 0.00387959 0.00351193 0.00314075 0.00276604 0.0023878 0.00202519 0.00169737 0.00140433 0.00114607 0.000922601 0.000733912 0.000580006 0.000460884 0.000377541 0.000330971 0.000321174 0.000348152 0.000411902 0.000512426 0.000649723 0.000823794 0.0010187 0.00121852 0.00142323 0.00163285 0.00184738 0.0020668 0.00229113 0.00252037 0.0027388 0.00293071 0.00309612 0.00323501 0.00334739 0.00343325 0.0034926 0.00352544 0.00353089 0.00350806 0.00345694 0.00337756 0.00326989 0.00313394 0.00296972 0.00277722 0.00256892 0.00235728 0.0021423 0.00192399 0.00170234 0.00147735 0.00124904 0.00101738 0.00079429 0.000591653 0.000409472 0.000247748 0.000106481 -1.43308e-05 -0.000114686 -0.000194584 -0.000256203 -0.000301718 -0.000331129 -0.000344437 -0.000341642 -0.000322742 -0.000287739 -0.000236633 -0.000181172 -0.000133106 -9.24347e-05 -5.91582e-05 -3.32765e-05 -1.47896e-05 -3.69739e-06 0 0 -4.61046e-06 -1.84419e-05 -4.14942e-05 -7.37674e-05 -0.000115262 -0.000165977 -0.000225913 -0.00029507 -0.000350614 -0.000369712 -0.000352364 -0.000298569 -0.000208328 -8.16408e-05 8.14927e-05 0.000281073 0.000517719 0.000792053 0.00110407 0.00145378 0.00184118 0.00226626 0.00272903 0.00322948 0.00374354 0.00424712 0.00474022 0.00522283 0.00569497 0.00615662 0.00660779 0.00704848 0.00745679 0.0078108 0.00811053 0.00835596 0.0085471 0.00868395 0.00876651 0.00879477 0.00877017 0.00869411 0.0085666 0.00838764 0.00815723 0.00787536 0.00754204 0.00715727 0.00674429 0.00632636 0.00590347 0.00547564 0.00504284 0.00460509 0.00416239 0.00371474 0.00328474 0.00289501 0.00254556 0.00223638 0.00196747 0.00173883 0.00155046 0.00140237 0.00129582 0.0012321 0.0012112 0.00123313 0.00129787 0.00140545 0.00155584 0.00174906 0.00196646 0.00218938 0.00241784 0.00265183 0.00289136 0.00313641 0.003387 0.00364312 0.00388633 0.00409821 0.00427875 0.00442795 0.00454581 0.00463234 0.00468753 0.00471138 0.00470284 0.00466086 0.00458543 0.00447655 0.00433423 0.00415846 0.00394925 0.0037066 0.00344515 0.00317957 0.00290986 0.00263602 0.00235805 0.00207594 0.0017897 0.00149933 0.00121893 0.000962617 0.000730379 0.000522221 0.000338143 0.000178145 4.22265e-05 -6.9612e-05 -0.000159511 -0.000229609 -0.000279908 -0.000310407 -0.000321106 -0.000312005 -0.000283104 -0.000234403 -0.000179465 -0.000131852 -9.15637e-05 -5.86008e-05 -3.29629e-05 -1.46502e-05 -3.66255e-06 0 0 -3.76091e-06 -1.50436e-05 -3.38482e-05 -6.01745e-05 -9.40227e-05 -0.000135393 -0.000184285 -0.000240698 -0.000278944 -0.000273331 -0.000223861 -0.000130533 6.65342e-06 0.000187698 0.0004126 0.00068136 0.0009936 0.00134894 0.00174739 0.00218894 0.00267359 0.00320135 0.00377221 0.00438617 0.00501497 0.00563036 0.00623232 0.00682086 0.00739599 0.00795769 0.00850597 0.00904084 0.00953687 0.00996866 0.0103362 0.0106395 0.0108786 0.0110534 0.011164 0.0112104 0.0111942 0.0111172 0.0109795 0.0107809 0.0105215 0.0102014 0.0098204 0.00937863 0.00890311 0.00842089 0.00793196 0.00743632 0.00693398 0.00642493 0.00590917 0.00538671 0.00488387 0.00442697 0.00401601 0.00365099 0.00333191 0.00305878 0.00283158 0.00265033 0.00251663 0.00243208 0.00239668 0.00241044 0.00247334 0.0025854 0.00274661 0.00295698 0.00319498 0.00343913 0.0036894 0.00394581 0.00420836 0.00447704 0.00475186 0.00503281 0.00529856 0.00552779 0.00572049 0.00587667 0.00599632 0.00607945 0.00612605 0.00613612 0.00610843 0.00604173 0.00593603 0.00579132 0.0056076 0.00538487 0.00512313 0.00482239 0.00449962 0.00417182 0.00383897 0.00350107 0.00315814 0.00281017 0.00245715 0.00209909 0.00175249 0.00143384 0.00114313 0.000880372 0.000645563 0.000438704 0.000259792 0.00010883 -1.61658e-05 -0.000117177 -0.000194203 -0.000247244 -0.000276301 -0.000281372 -0.000262459 -0.000219561 -0.000168102 -0.000123503 -8.57661e-05 -5.48903e-05 -3.08758e-05 -1.37226e-05 -3.43064e-06 0 0 -2.50396e-06 -1.00159e-05 -2.25357e-05 -4.00634e-05 -6.25991e-05 -9.01427e-05 -0.000122694 -0.000160254 -0.000174274 -0.000136209 -4.6059e-05 9.6177e-05 0.000290498 0.000536906 0.000835398 0.00118598 0.00158696 0.00203666 0.00253508 0.00308222 0.00367809 0.00432267 0.00501598 0.005758 0.00651597 0.00725712 0.00798145 0.00868895 0.00937962 0.0100535 0.0107105 0.0113507 0.0119449 0.0124641 0.0129082 0.0132771 0.013571 0.0137898 0.0139334 0.014002 0.0139976 0.0139222 0.0137758 0.0135584 0.01327 0.0129107 0.0124804 0.0119791 0.0114379 0.0108879 0.0103292 0.00976164 0.00918533 0.00860025 0.00800638 0.00740372 0.00682258 0.00629322 0.00581566 0.0053899 0.00501593 0.00469375 0.00442336 0.00420477 0.00403996 0.0039309 0.00387761 0.00388008 0.0039383 0.00405229 0.00422204 0.00444755 0.00470429 0.00496775 0.00523792 0.0055148 0.00579839 0.00608869 0.00638571 0.00668944 0.00697549 0.00721946 0.00742135 0.00758117 0.00769891 0.00777457 0.00780816 0.00779967 0.00774766 0.00765069 0.00750875 0.00732185 0.00708999 0.00681316 0.00649136 0.0061246 0.00573233 0.005334 0.0049296 0.00451914 0.00410262 0.00368003 0.00325138 0.00281667 0.00239496 0.00200531 0.00164772 0.0013222 0.00102874 0.000767345 0.000538012 0.000340741 0.000173831 3.55797e-05 -7.40137e-05 -0.000154949 -0.000207226 -0.000230845 -0.000225805 -0.000192107 -0.000147082 -0.00010806 -7.50419e-05 -4.80268e-05 -2.70151e-05 -1.20067e-05 -3.00168e-06 0 0 -8.3963e-07 -3.35852e-06 -7.55667e-06 -1.34341e-05 -2.09907e-05 -3.02267e-05 -4.11419e-05 -5.37363e-05 -3.66058e-05 4.16537e-05 0.000181042 0.00038156 0.000643207 0.000965983 0.00134989 0.00179492 0.00229779 0.0028552 0.00346715 0.00413363 0.00485466 0.00563023 0.00646033 0.00734498 0.00824654 0.00912742 0.0099876 0.0108271 0.0116459 0.012444 0.0132214 0.0139781 0.014681 0.0152971 0.0158263 0.0162687 0.0166243 0.0168929 0.0170748 0.0171698 0.0171803 0.0171089 0.0169555 0.0167201 0.0164027 0.0160033 0.0155219 0.0149585 0.0143486 0.0137274 0.0130951 0.0124516 0.0117969 0.011131 0.010454 0.00976577 0.00910087 0.00849379 0.00794454 0.00745311 0.00701952 0.00664375 0.0063258 0.00606569 0.00586581 0.00572858 0.00565399 0.00564205 0.00569276 0.00580612 0.00598212 0.00622077 0.00649438 0.00677525 0.00706338 0.00735878 0.00766144 0.00797137 0.00828856 0.00861302 0.00891711 0.00917321 0.00938133 0.00954145 0.00965358 0.00971772 0.00973387 0.00970203 0.00962053 0.00948772 0.0093036 0.00906816 0.0087814 0.00844333 0.00805394 0.00761324 0.00714328 0.00666612 0.00618177 0.00569022 0.00519147 0.00468553 0.00417239 0.00365206 0.00314634 0.00267704 0.00224416 0.00184771 0.00148768 0.00116407 0.000876885 0.000626122 0.000410481 0.00022866 8.06594e-05 -3.35212e-05 -0.000113882 -0.000160422 -0.000173142 -0.000152041 -0.000116407 -8.55233e-05 -5.93912e-05 -3.80103e-05 -2.13808e-05 -9.50259e-06 -2.37565e-06 0 0 1.23209e-06 4.92838e-06 1.10888e-05 1.97135e-05 3.08023e-05 4.43554e-05 6.03726e-05 7.8854e-05 0.000134062 0.000260258 0.000457443 0.000725617 0.00106478 0.00147493 0.00195607 0.0025082 0.0031261 0.00380456 0.00454358 0.00534317 0.00620331 0.00712401 0.00810527 0.00914709 0.0102067 0.0112412 0.0122508 0.0132353 0.0141947 0.0151292 0.0160386 0.016923 0.0177451 0.0184677 0.0190908 0.0196144 0.0200384 0.020363 0.020588 0.0207136 0.0207425 0.0206775 0.0205187 0.020266 0.0199195 0.0194792 0.0189451 0.0183171 0.0176352 0.0169394 0.0162298 0.0155062 0.0147687 0.0140173 0.013252 0.0124729 0.0117187 0.0110287 0.0104026 0.00984063 0.00934268 0.00890877 0.0085389 0.00823308 0.00799418 0.0078251 0.00772582 0.00769636 0.00773672 0.00784688 0.00802686 0.00827665 0.00856524 0.00886162 0.0091658 0.00947776 0.00979752 0.0101251 0.0104604 0.0108035 0.0111234 0.0113891 0.0116004 0.0117575 0.0118603 0.0119089 0.0119032 0.0118432 0.011727 0.0115528 0.0113206 0.0110302 0.0106818 0.0102754 0.00981087 0.00928829 0.00873246 0.00816818 0.00759547 0.00701431 0.00642471 0.00582667 0.00522018 0.00460526 0.00400663 0.00344902 0.00293244 0.00245689 0.00202237 0.00162888 0.00127641 0.000964973 0.000693783 0.000462064 0.000269816 0.000117039 3.73237e-06 -7.01036e-05 -0.000104469 -9.93633e-05 -7.6075e-05 -5.58919e-05 -3.88138e-05 -2.48408e-05 -1.3973e-05 -6.21021e-06 -1.55255e-06 0 0 3.90647e-06 1.56259e-05 3.51582e-05 6.25035e-05 9.76618e-05 0.000140633 0.000191417 0.000250014 0.000353376 0.000538455 0.00080525 0.00115376 0.00158399 0.00209594 0.0026896 0.00336498 0.00411452 0.00493066 0.00581341 0.00676276 0.00777871 0.00886127 0.0100104 0.0112262 0.0124603 0.0136645 0.0148387 0.015983 0.0170974 0.0181819 0.0192364 0.020261 0.0212141 0.0220542 0.0227813 0.0233953 0.0238963 0.0242843 0.0245592 0.0247212 0.0247733 0.024719 0.0245583 0.024291 0.0239173 0.0234372 0.0228505 0.0221574 0.0214026 0.0206307 0.0198417 0.0190357 0.0182127 0.0173726 0.0165155 0.0156413 0.0147937 0.0140163 0.0133091 0.0126722 0.0121054 0.0116088 0.0111824 0.0108262 0.0105437 0.0103382 0.0102097 0.0101582 0.0101838 0.0102864 0.010466 0.0107227 0.011022 0.0113295 0.0116452 0.0119692 0.0123013 0.0126417 0.0129903 0.0133472 0.0136777 0.0139474 0.0141563 0.0143043 0.0143915 0.0144179 0.0143835 0.0142882 0.0141299 0.0139066 0.0136181 0.0132645 0.0128458 0.012362 0.0118131 0.0111991 0.0105476 0.00988631 0.00921524 0.00853437 0.0078437 0.00714323 0.00643297 0.0057129 0.00501084 0.0043546 0.00374418 0.00317957 0.00266078 0.0021878 0.00176064 0.00137929 0.00104369 0.000753732 0.000509434 0.000310792 0.000157804 5.04723e-05 -1.12043e-05 -2.72256e-05 -2.08446e-05 -1.53144e-05 -1.0635e-05 -6.8064e-06 -3.8286e-06 -1.7016e-06 -4.254e-07 0 0 7.37876e-06 2.9515e-05 6.64089e-05 0.00011806 0.000184469 0.000265635 0.000361559 0.000472241 0.000636984 0.000895093 0.00124657 0.00169141 0.00222962 0.00286119 0.00358613 0.00440444 0.00530567 0.0062794 0.00732562 0.00844433 0.00963554 0.0108992 0.0122354 0.0136441 0.0150713 0.016463 0.0178192 0.0191399 0.0204251 0.0216748 0.0228891 0.0240678 0.0251651 0.0261351 0.0269777 0.0276929 0.0282808 0.0287413 0.0290744 0.0292802 0.0293623 0.0293247 0.0291672 0.0288899 0.0284927 0.0279758 0.027339 0.0265823 0.0257554 0.0249078 0.0240395 0.0231505 0.0222408 0.0213104 0.0203593 0.0193875 0.0184433 0.0175753 0.0167833 0.0160674 0.0154275 0.0148638 0.0143761 0.0139644 0.0136329 0.0133854 0.013222 0.0131427 0.0131475 0.0132364 0.0134093 0.0136663 0.0139696 0.0142814 0.0146016 0.0149304 0.0152676 0.0156133 0.0159675 0.0163302 0.0166633 0.0169288 0.0171267 0.0172569 0.0173196 0.0173147 0.0172422 0.017102 0.0168919 0.0166094 0.0162546 0.0158273 0.0153278 0.0147558 0.0141115 0.0133949 0.0126364 0.0118666 0.0110856 0.0102934 0.00948982 0.00867501 0.00784894 0.00701161 0.006194 0.00542713 0.00471097 0.00404555 0.00343084 0.00286687 0.00235362 0.00189109 0.00148014 0.0011216 0.000815491 0.000561797 0.000360523 0.000211668 0.000115234 7.12193e-05 5.45273e-05 4.00609e-05 2.782e-05 1.78048e-05 1.00152e-05 4.45121e-06 1.1128e-06 0 0 1.1649e-05 4.65959e-05 0.000104841 0.000186383 0.000291224 0.000419363 0.000570799 0.000745534 0.000984886 0.00133017 0.0017814 0.00233856 0.00300166 0.0037707 0.00464567 0.00562658 0.00669957 0.00785079 0.00908023 0.0103879 0.0117738 0.0132379 0.0147803 0.0164008 0.0180397 0.0196368 0.0211922 0.0227059 0.0241778 0.0256081 0.0269966 0.0283434 0.0295981 0.0307103 0.03168 0.0325071 0.0331918 0.0337339 0.0341335 0.0343906 0.0345095 0.0344945 0.0343455 0.0340626 0.0336458 0.033095 0.0324104 0.0315918 0.0306938 0.0297709 0.0288231 0.0278505 0.026853 0.0258307 0.0247834 0.0237113 0.0226676 0.0217055 0.0208251 0.0200263 0.0193092 0.0186737 0.0181199 0.0176477 0.0172619 0.0169669 0.016763 0.01665 0.016628 0.0166969 0.0168567 0.0171076 0.0174082 0.0177174 0.0180351 0.0183614 0.0186963 0.0190398 0.0193918 0.0197524 0.0200801 0.0203331 0.0205115 0.0206153 0.0206446 0.0205992 0.0204793 0.0202847 0.020013 0.0196614 0.01923 0.0187188 0.0181277 0.0174569 0.0167062 0.0158757 0.0149988 0.0141092 0.0132066 0.0122913 0.0113631 0.010422 0.00946811 0.00850138 0.00755611 0.00666659 0.00583283 0.00505483 0.00433258 0.00366608 0.00305534 0.00250036 0.00200314 0.00156568 0.00118799 0.000870054 0.000611888 0.000413485 0.000274846 0.000195971 0.000150041 0.000110234 7.65513e-05 4.89929e-05 2.75585e-05 1.22482e-05 3.06205e-06 0 0 1.67171e-05 6.68684e-05 0.000150454 0.000267473 0.000417927 0.000601815 0.000819137 0.00106989 0.00139708 0.0018437 0.00240974 0.00309522 0.00390012 0.00482445 0.00586821 0.0070314 0.0082962 0.00964481 0.0110772 0.0125935 0.0141935 0.0158773 0.017645 0.0194964 0.0213654 0.0231859 0.0249577 0.0266809 0.0283556 0.0299816 0.031559 0.0330878 0.0345131 0.0357799 0.0368882 0.037838 0.0386294 0.0392622 0.0397366 0.0400526 0.0402149 0.0402284 0.0400932 0.0398092 0.0393765 0.038795 0.0380648 0.0371858 0.0362176 0.0352199 0.0341926 0.0331358 0.0320494 0.0309334 0.0297879 0.0286128 0.0274665 0.026407 0.0254345 0.0245489 0.0237503 0.0230386 0.0224139 0.021876 0.0214305 0.0210827 0.0208325 0.02068 0.0206251 0.0206679 0.0208084 0.0210465 0.0213377 0.0216374 0.0219456 0.0222623 0.0225875 0.0229212 0.0232634 0.023614 0.0239281 0.0241603 0.0243108 0.0243795 0.0243664 0.0242714 0.0240947 0.0238363 0.0234931 0.0230625 0.0225444 0.0219388 0.0212457 0.0204652 0.0195971 0.0186415 0.017635 0.0166139 0.0155782 0.0145281 0.0134634 0.0123842 0.0112905 0.0101822 0.00909716 0.008073 0.00710975 0.00620741 0.00536597 0.00458544 0.00386582 0.0032071 0.00261269 0.00208596 0.00162692 0.00123556 0.000911899 0.000655922 0.000467632 0.000347031 0.000265695 0.000195205 0.000135559 8.67577e-05 4.88012e-05 2.16894e-05 5.42236e-06 0 0 2.25831e-05 9.03325e-05 0.000203248 0.00036133 0.000564578 0.000812993 0.00110657 0.00144532 0.00187357 0.00243566 0.0031316 0.0