<?xml version="1.0"?> 
<VTKFile type="StructuredGrid" version="0.1"> 
<StructuredGrid WholeExtent="0 128 0 128 0 0"> 
<Piece Extent="0 128 0 128 0 0"> 
<PointData>
<DataArray type="Float32" Name="u" format="ascii" NumberOfComponents="1"> 
0 0 0 0 0 0 0 0 0 0 0 0 0 0 0 0 0 0 0 0 0 0 0 0 0 0 0 0 0 0 0 0 0 0 0 0 0 0 0 0 0 0 0 0 0 0 0 0 0 0 0 0 0 0 0 0 0 0 0 0 0 0 0 0 0 0 0 0 0 0 0 0 0 0 0 0 0 0 0 0 0 0 0 0 0 0 0 0 0 0 0 0 0 0 0 0 0 0 0 0 0 0 0 0 0 0 0 0 0 0 0 0 0 0 0 0 0 0 0 0 0 0 0 0 0 0 0 0 0 0 3.23517e-06 1.29407e-05 2.91165e-05 5.17627e-05 8.08793e-05 0.000116466 0.000158523 0.000207051 0.000262012 0.000323371 0.000391126 0.000465279 0.000545829 0.000632776 0.00072612 0.000825861 0.000928489 0.00103049 0.00113187 0.00123263 0.00133276 0.00143227 0.00153115 0.00162941 0.00172459 0.00181421 0.00189829 0.00197681 0.00204979 0.00211721 0.00217909 0.00223542 0.00228572 0.00232953 0.00236685 0.00239766 0.00242198 0.0024398 0.00245113 0.00245596 0.00245506 0.00244919 0.00243836 0.00242256 0.0024018 0.00237607 0.00234538 0.00230972 0.00227027 0.00222821 0.00218353 0.00213623 0.00208632 0.00203379 0.00197864 0.00192087 0.00186157 0.00180178 0.00174152 0.00168079 0.00161958 0.0015579 0.00149574 0.00143311 0.00137075 0.00130941 0.00124908 0.00118976 0.00113146 0.00107418 0.00101791 0.000962652 0.000908771 0.00085662 0.000806199 0.000757508 0.000710548 0.000665318 0.000621818 0.000580048 0.000540031 0.000501789 0.000465322 0.00043063 0.000397712 0.000366569 0.000337201 0.000309608 0.000283614 0.000259041 0.00023589 0.000214161 0.000193855 0.00017497 0.000157507 0.000141466 0.000126624 0.000112761 9.98747e-05 8.79663e-05 7.70356e-05 6.70825e-05 5.8107e-05 5.01092e-05 4.2912e-05 3.63383e-05 3.03882e-05 2.50617e-05 2.03587e-05 1.62793e-05 1.28235e-05 9.99124e-06 7.62899e-06 5.58322e-06 3.85393e-06 2.44112e-06 1.34479e-06 5.64928e-07 1.01549e-07 -4.53517e-08 -3.47224e-08 -2.55103e-08 -1.77155e-08 -1.13379e-08 -6.37759e-09 -2.83448e-09 -7.08621e-10 0 0 1.29407e-05 5.17627e-05 0.000116466 0.000207051 0.000323517 0.000465865 0.000634093 0.000828204 0.00104805 0.00129348 0.00156451 0.00186112 0.00218332 0.0025311 0.00290448 0.00330344 0.00371396 0.00412197 0.00452749 0.00493052 0.00533104 0.00572908 0.00612461 0.00651765 0.00689834 0.00725684 0.00759314 0.00790724 0.00819915 0.00846885 0.00871637 0.00894168 0.0091429 0.00931813 0.00946738 0.00959065 0.00968792 0.00975921 0.00980452 0.00982383 0.00982023 0.00979676 0.00975343 0.00969025 0.0096072 0.00950429 0.00938152 0.00923889 0.0090811 0.00891284 0.00873411 0.00854492 0.00834527 0.00813514 0.00791455 0.0076835 0.00744626 0.00720712 0.00696609 0.00672316 0.00647833 0.0062316 0.00598297 0.00573245 0.00548301 0.00523762 0.0049963 0.00475904 0.00452584 0.0042967 0.00407163 0.00385061 0.00363508 0.00342648 0.00322479 0.00303003 0.00284219 0.00266127 0.00248727 0.00232019 0.00216013 0.00200716 0.00186129 0.00172252 0.00159085 0.00146628 0.00134881 0.00123843 0.00113445 0.00103616 0.000943561 0.000856646 0.000775418 0.000699878 0.000630026 0.000565862 0.000506497 0.000451043 0.000399499 0.000351865 0.000308142 0.00026833 0.000232428 0.000200437 0.000171648 0.000145353 0.000121553 0.000100247 8.1435e-05 6.51174e-05 5.1294e-05 3.9965e-05 3.0516e-05 2.23329e-05 1.54157e-05 9.76448e-06 5.37914e-06 2.25971e-06 4.06197e-07 -1.81407e-07 -1.3889e-07 -1.02041e-07 -7.08621e-08 -4.53517e-08 -2.55103e-08 -1.13379e-08 -2.83448e-09 0 0 2.91165e-05 0.000116466 0.000262049 0.000465865 0.000727913 0.0010482 0.00142671 0.00186346 0.00235811 0.00291034 0.00352014 0.00418751 0.00491246 0.00569498 0.00653508 0.00743275 0.0083564 0.00927444 0.0101869 0.0110937 0.0119948 0.0128904 0.0137804 0.0146647 0.0155213 0.0163279 0.0170846 0.0177913 0.0184481 0.0190549 0.0196118 0.0201188 0.0205715 0.0209658 0.0213016 0.021579 0.0217978 0.0219582 0.0220602 0.0221036 0.0220955 0.0220427 0.0219452 0.0218031 0.0216162 0.0213847 0.0211084 0.0207875 0.0204325 0.0200539 0.0196518 0.0192261 0.0187768 0.0183041 0.0178077 0.0172879 0.0167541 0.016216 0.0156737 0.0151271 0.0145762 0.0140211 0.0134617 0.012898 0.0123368 0.0117847 0.0112417 0.0107078 0.0101831 0.00966758 0.00916116 0.00866387 0.00817894 0.00770958 0.00725579 0.00681757 0.00639493 0.00598786 0.00559636 0.00522044 0.00486028 0.0045161 0.0041879 0.00387567 0.00357941 0.00329912 0.00303481 0.00278648 0.00255252 0.00233137 0.00212301 0.00192745 0.00174469 0.00157473 0.00141756 0.00127319 0.00113962 0.00101485 0.000898872 0.000791697 0.00069332 0.000603743 0.000522963 0.000450983 0.000386208 0.000327045 0.000273494 0.000225555 0.000183229 0.000146514 0.000115412 8.99212e-05 6.86609e-05 5.0249e-05 3.46854e-05 2.19701e-05 1.21031e-05 5.08436e-06 9.13944e-07 -4.08166e-07 -3.12502e-07 -2.29593e-07 -1.5944e-07 -1.02041e-07 -5.73983e-08 -2.55103e-08 -6.37759e-09 0 0 5.17627e-05 0.000207051 0.000465865 0.000828204 0.00129407 0.00186346 0.00253637 0.00331281 0.0041922 0.00517393 0.00625802 0.00744446 0.00873326 0.0101244 0.0116179 0.0132138 0.0148558 0.0164879 0.01811 0.0197221 0.0213242 0.0229163 0.0244984 0.0260706 0.0275934 0.0290274 0.0303726 0.031629 0.0327966 0.0338754 0.0348655 0.0357667 0.0365716 0.0372725 0.0378695 0.0383626 0.0387517 0.0390368 0.0392181 0.0392953 0.0392809 0.039187 0.0390137 0.038761 0.0384288 0.0380172 0.0375261 0.0369556 0.0363244 0.0356514 0.0349365 0.0341797 0.0333811 0.0325406 0.0316582 0.030734 0.029785 0.0288285 0.0278644 0.0268926 0.0259133 0.0249264 0.0239319 0.0229298 0.021932 0.0209505 0.0199852 0.0190362 0.0181034 0.0171868 0.0162865 0.0154024 0.0145403 0.0137059 0.0128992 0.0121201 0.0113688 0.0106451 0.00994909 0.00928077 0.0086405 0.00802863 0.00744515 0.00689007 0.00636339 0.00586511 0.00539522 0.00495373 0.00453782 0.00414466 0.00377424 0.00342658 0.00310167 0.00279951 0.00252011 0.00226345 0.00202599 0.00180417 0.00159799 0.00140746 0.00123257 0.00107332 0.000929713 0.000801747 0.000686592 0.000581413 0.000486212 0.000400987 0.00032574 0.000260469 0.000205176 0.00015986 0.000122064 8.93316e-05 6.16629e-05 3.90579e-05 2.15166e-05 9.03885e-06 1.62479e-06 -7.25628e-07 -5.55559e-07 -4.08166e-07 -2.83448e-07 -1.81407e-07 -1.02041e-07 -4.53517e-08 -1.13379e-08 0 0 8.08793e-05 0.000323517 0.000727913 0.00129407 0.00202198 0.00291165 0.00396308 0.00517627 0.00655031 0.00808427 0.00977816 0.011632 0.0136457 0.0158194 0.018153 0.0206465 0.0232122 0.0257623 0.0282968 0.0308157 0.033319 0.0358067 0.0382788 0.0407353 0.0431147 0.0453553 0.0474571 0.0494203 0.0512447 0.0529303 0.0544773 0.0558855 0.0571431 0.0582383 0.0591711 0.0599415 0.0605495 0.0609951 0.0612782 0.061399 0.0613764 0.0612298 0.060959 0.060564 0.060045 0.0594018 0.0586345 0.0577431 0.0567569 0.0557052 0.0545882 0.0534058 0.0521579 0.0508446 0.049466 0.0480219 0.0465391 0.0450445 0.0435381 0.0420197 0.0404896 0.0389475 0.0373936 0.0358278 0.0342688 0.0327352 0.0312269 0.029744 0.0282865 0.0268544 0.0254477 0.0240663 0.0227193 0.0214155 0.020155 0.0189377 0.0177637 0.0166329 0.0155454 0.0145012 0.0135008 0.0125447 0.0116331 0.0107657 0.0099428 0.00916423 0.00843004 0.00774021 0.00709034 0.00647602 0.00589726 0.00535403 0.00484636 0.00437424 0.00393766 0.00353664 0.00316561 0.00281902 0.00249687 0.00219916 0.00192589 0.00167706 0.00145268 0.00125273 0.0010728 0.000908458 0.000759706 0.000626543 0.000508969 0.000406984 0.000320588 0.000249781 0.000190725 0.000139581 9.63483e-05 6.1028e-05 3.36196e-05 1.41232e-05 2.53873e-06 -1.13379e-06 -8.6806e-07 -6.37759e-07 -4.42888e-07 -2.83448e-07 -1.5944e-07 -7.08621e-08 -1.77155e-08 0 0 0.000116466 0.000465865 0.0010482 0.00186346 0.00291165 0.00419278 0.00570684 0.00745383 0.00943244 0.0116413 0.0140805 0.01675 0.0196498 0.0227799 0.0261403 0.029731 0.0334256 0.0370977 0.0407474 0.0443746 0.0479794 0.0515617 0.0551215 0.0586589 0.0620851 0.0653116 0.0683383 0.0711652 0.0737923 0.0762197 0.0784473 0.0804751 0.0822861 0.0838632 0.0852065 0.0863158 0.0871913 0.0878329 0.0882406 0.0884145 0.088382 0.0881708 0.0877809 0.0872122 0.0864648 0.0855386 0.0844337 0.08315 0.0817299 0.0802156 0.078607 0.0769043 0.0751074 0.0732163 0.071231 0.0691515 0.0670163 0.0648641 0.0626948 0.0605084 0.058305 0.0560844 0.0538468 0.051592 0.0493471 0.0471386 0.0449667 0.0428314 0.0407326 0.0386703 0.0366446 0.0346555 0.0327157 0.0308383 0.0290232 0.0272703 0.0255797 0.0239514 0.0223854 0.0208817 0.0194411 0.0180644 0.0167516 0.0155027 0.0143176 0.0131965 0.0121393 0.0111459 0.0102101 0.00932548 0.00849205 0.00770981 0.00697876 0.0062989 0.00567024 0.00509276 0.00455847 0.00405938 0.00359549 0.00316679 0.00277328 0.00241497 0.00209185 0.00180393 0.00154483 0.00130818 0.00109398 0.000902221 0.000732915 0.000586056 0.000461646 0.000359685 0.000274644 0.000200996 0.000138742 8.78803e-05 4.84123e-05 2.03374e-05 3.65578e-06 -1.63266e-06 -1.25001e-06 -9.18372e-07 -6.37759e-07 -4.08166e-07 -2.29593e-07 -1.02041e-07 -2.55103e-08 0 0 0.000158523 0.000634093 0.00142671 0.00253637 0.00396308 0.00570684 0.00776765 0.0101455 0.0128386 0.0158452 0.0191652 0.0227987 0.0267456 0.031006 0.0355799 0.0404672 0.045496 0.0504942 0.0554618 0.0603988 0.0653053 0.0701812 0.0750265 0.0798412 0.0845047 0.0888963 0.093016 0.0968637 0.10044 0.103743 0.106775 0.109536 0.112001 0.114147 0.115975 0.117485 0.118677 0.11955 0.120105 0.120342 0.120298 0.12001 0.11948 0.118706 0.117688 0.116428 0.114924 0.113176 0.111243 0.109182 0.106993 0.104675 0.10223 0.0996555 0.0969533 0.0941229 0.0912167 0.0882873 0.0853346 0.0823587 0.0793595 0.0763371 0.0732914 0.0702225 0.0671668 0.0641609 0.0612047 0.0582983 0.0554416 0.0526346 0.0498774 0.04717 0.0445298 0.0419744 0.0395037 0.0371179 0.0348168 0.0326006 0.0304691 0.0284224 0.0264615 0.0245877 0.0228008 0.0211009 0.0194879 0.0179619 0.0165229 0.0151708 0.0138971 0.012693 0.0115586 0.0104939 0.00949887 0.00857351 0.00771782 0.00693181 0.00620459 0.00552527 0.00489386 0.00431035 0.00377474 0.00328704 0.00284725 0.00245535 0.00210269 0.00178058 0.00148902 0.00122802 0.000997578 0.000797688 0.000628352 0.000489571 0.000373821 0.000273578 0.000188843 0.000119615 6.58945e-05 2.76815e-05 4.97592e-06 -2.22223e-06 -1.7014e-06 -1.25001e-06 -8.6806e-07 -5.55559e-07 -3.12502e-07 -1.3889e-07 -3.47224e-08 0 0 0.000207051 0.000828204 0.00186346 0.00331281 0.00517627 0.00745383 0.0101455 0.0132513 0.0167688 0.0206957 0.0250321 0.0297779 0.034933 0.0404977 0.0464717 0.0528551 0.0594233 0.0659516 0.0724399 0.0788882 0.0852967 0.0916652 0.0979938 0.104282 0.110374 0.116109 0.12149 0.126516 0.131186 0.135502 0.139462 0.143067 0.146286 0.14909 0.151478 0.15345 0.155007 0.156147 0.156872 0.157181 0.157124 0.156748 0.156055 0.155044 0.153715 0.152069 0.150104 0.147822 0.145298 0.142605 0.139746 0.136719 0.133524 0.130162 0.126633 0.122936 0.11914 0.115314 0.111457 0.107571 0.103653 0.0997056 0.0957276 0.0917192 0.0877281 0.083802 0.0799408 0.0761447 0.0724135 0.0687473 0.065146 0.0616097 0.0581613 0.0548237 0.0515967 0.0484805 0.0454751 0.0425803 0.0397963 0.0371231 0.034562 0.0321145 0.0297806 0.0275603 0.0254536 0.0234604 0.0215809 0.0198149 0.0181513 0.0165786 0.015097 0.0137063 0.0124067 0.0111981 0.0100804 0.00905379 0.00810395 0.00721668 0.00639198 0.00562984 0.00493028 0.00429328 0.00371885 0.00320699 0.00274637 0.00232565 0.00194485 0.00160395 0.00130296 0.00104188 0.000820705 0.000639439 0.000488256 0.000357326 0.000246652 0.000156232 8.60663e-05 3.61554e-05 6.49916e-06 -2.90251e-06 -2.22223e-06 -1.63266e-06 -1.13379e-06 -7.25628e-07 -4.08166e-07 -1.81407e-07 -4.53517e-08 0 0 0.000262655 0.00105062 0.00236389 0.00420248 0.00656637 0.00945557 0.0128701 0.0168099 0.0212701 0.0262457 0.0317367 0.0377431 0.0442649 0.0513021 0.0588547 0.0669227 0.0752226 0.0834709 0.0916675 0.0998126 0.107906 0.115948 0.123938 0.131877 0.139565 0.146806 0.153598 0.159941 0.165837 0.171284 0.176283 0.180833 0.184898 0.188438 0.191453 0.193945 0.195912 0.197354 0.198273 0.198667 0.198598 0.198129 0.197259 0.195988 0.194317 0.192244 0.189771 0.186897 0.183717 0.180326 0.176723 0.172908 0.168881 0.164643 0.160193 0.155532 0.150745 0.14592 0.141055 0.136151 0.131208 0.126226 0.121206 0.116146 0.111107 0.106149 0.101273 0.0964785 0.091765 0.0871328 0.0825819 0.0781122 0.073753 0.069533 0.0654525 0.0615114 0.0577096 0.0540472 0.0505241 0.0471405 0.0438982 0.0407992 0.0378436 0.0350313 0.0323624 0.0298368 0.0274546 0.0252157 0.023106 0.0211114 0.0192319 0.0174674 0.0158181 0.0142838 0.0128646 0.0115604 0.0103535 0.00922574 0.00817728 0.00720807 0.00631811 0.0055074 0.00477595 0.00412375 0.00353647 0.00299979 0.00251371 0.00207823 0.00169335 0.00135907 0.00107539 0.000842311 0.000647429 0.000478344 0.000335057 0.000217569 0.000125878 5.9985e-05 1.989e-05 5.59285e-06 4.28202e-06 3.14598e-06 2.18471e-06 1.39821e-06 7.86494e-07 3.49553e-07 8.73882e-08 0 0 0.000325941 0.00130376 0.00293347 0.00521506 0.00814853 0.0117339 0.0159711 0.0208602 0.0263896 0.0325477 0.0393344 0.0467497 0.0547938 0.0634664 0.0727678 0.0826978 0.0929087 0.103053 0.113131 0.123141 0.133086 0.142963 0.152774 0.162518 0.171954 0.180839 0.189174 0.19696 0.204195 0.21088 0.217015 0.222599 0.227588 0.231935 0.235639 0.238702 0.241122 0.242901 0.244038 0.244532 0.24446 0.243897 0.242844 0.241299 0.239264 0.236737 0.23372 0.230212 0.226328 0.222184 0.21778 0.213115 0.20819 0.203004 0.197558 0.191852 0.18599 0.180079 0.174118 0.168107 0.162046 0.155936 0.149776 0.143565 0.137379 0.131291 0.1253 0.119408 0.113613 0.107916 0.102316 0.0968148 0.0914472 0.0862494 0.0812216 0.0763636 0.0716756 0.0671575 0.0628093 0.058631 0.0546256 0.050796 0.0471422 0.0436643 0.0403621 0.0372357 0.0342852 0.0315105 0.0288945 0.0264204 0.0240881 0.0218976 0.0198488 0.0179419 0.0161768 0.0145534 0.01305 0.0116446 0.0103372 0.00912783 0.00801647 0.00700314 0.00608782 0.00527052 0.00453359 0.00385937 0.00324788 0.00269911 0.00221305 0.00178972 0.0014291 0.00113121 0.000880819 0.000662734 0.000476949 0.000323464 0.00020228 0.000113396 5.68129e-05 3.25302e-05 2.49059e-05 1.82982e-05 1.27071e-05 8.13254e-06 4.57456e-06 2.03314e-06 5.08284e-07 0 0 0.00039691 0.00158764 0.00357219 0.00635056 0.00992275 0.0142888 0.0194486 0.0254022 0.0321274 0.0396017 0.0478252 0.0567979 0.0665198 0.0769908 0.088211 0.10018 0.112482 0.124698 0.136829 0.148875 0.160836 0.172711 0.184501 0.196206 0.207539 0.21821 0.228221 0.237571 0.246261 0.254289 0.261657 0.268365 0.274358 0.279581 0.284036 0.287722 0.290639 0.292788 0.294167 0.294777 0.294709 0.294053 0.292809 0.290977 0.288556 0.285547 0.281951 0.277766 0.27313 0.268181 0.262917 0.257341 0.25145 0.245245 0.238727 0.231895 0.224875 0.217793 0.210647 0.203439 0.196168 0.188834 0.181438 0.173979 0.166545 0.159227 0.152022 0.144932 0.137957 0.131096 0.12435 0.117718 0.111244 0.104973 0.0989038 0.0930373 0.0873731 0.0819113 0.0766519 0.0715948 0.0667444 0.062105 0.0576765 0.0534591 0.0494527 0.0456572 0.0420727 0.0386993 0.0355169 0.0325057 0.0296656 0.0269967 0.024499 0.0221724 0.020017 0.0180328 0.0161936 0.0144732 0.0128717 0.0113891 0.0100254 0.00878048 0.00765446 0.00664731 0.00573772 0.0049044 0.00414735 0.00346657 0.00286206 0.00233381 0.00188183 0.00150612 0.00118843 0.000910496 0.000672326 0.000473918 0.000315272 0.000196389 0.000117268 7.79095e-05 5.96494e-05 4.38241e-05 3.04334e-05 1.94774e-05 1.0956e-05 4.86934e-06 1.21734e-06 0 0 0.000475561 0.00190224 0.00428005 0.00760897 0.011889 0.0171202 0.0233025 0.0304359 0.0384834 0.0474078 0.0572092 0.0678875 0.0794428 0.0918751 0.105184 0.119371 0.133942 0.148406 0.162763 0.177013 0.191156 0.205192 0.21912 0.232942 0.24632 0.258918 0.270737 0.281775 0.292034 0.301512 0.310211 0.31813 0.325206 0.331378 0.336644 0.341006 0.344463 0.347014 0.348661 0.349403 0.349346 0.348597 0.347155 0.345021 0.342194 0.338675 0.334463 0.329559 0.324123 0.318315 0.312136 0.305585 0.298662 0.291367 0.283701 0.275663 0.267401 0.25906 0.250642 0.242146 0.233573 0.224921 0.216192 0.207385 0.198605 0.189956 0.181439 0.173052 0.164797 0.156674 0.148681 0.14082 0.133143 0.125703 0.118499 0.111532 0.104802 0.0983087 0.0920519 0.0860318 0.0802545 0.074726 0.0694465 0.0644158 0.0596341 0.0551012 0.0508172 0.0467821 0.042973 0.0393671 0.0359644 0.0327649 0.0297685 0.0269753 0.0243853 0.0219985 0.0197842 0.0177116 0.0157809 0.0139919 0.0123448 0.0108394 0.00947587 0.00825411 0.00714887 0.00613488 0.00521213 0.00438063 0.00364037 0.00299136 0.00243359 0.00196706 0.00157026 0.00122163 0.000921188 0.00066893 0.000464855 0.000308963 0.000201255 0.000141731 0.000108513 7.97235e-05 5.53636e-05 3.54327e-05 1.99309e-05 8.85817e-06 2.21454e-06 0 0 0.000561894 0.00224758 0.00505705 0.00899031 0.0140474 0.0202282 0.0275328 0.0359612 0.0454576 0.0559659 0.0674863 0.0800186 0.093563 0.108119 0.123688 0.140268 0.157289 0.174177 0.190932 0.207555 0.224046 0.240405 0.256631 0.272725 0.288298 0.302964 0.316722 0.329573 0.341515 0.352549 0.362676 0.371895 0.380134 0.387324 0.393463 0.398553 0.402592 0.405581 0.40752 0.408408 0.40837 0.407528 0.405882 0.403431 0.400177 0.396119 0.391257 0.385592 0.379307 0.372588 0.365434 0.357847 0.349825 0.341369 0.332479 0.323155 0.313566 0.303882 0.294103 0.284229 0.274261 0.264197 0.254038 0.243785 0.233558 0.22348 0.21355 0.203768 0.194134 0.184649 0.175312 0.166123 0.157145 0.14844 0.140008 0.131849 0.123963 0.11635 0.109009 0.101942 0.0951558 0.0886592 0.0824521 0.0765345 0.0709064 0.0655678 0.0605186 0.055759 0.051263 0.0470049 0.0429846 0.0392021 0.0356575 0.0323507 0.0292817 0.0264506 0.0238218 0.0213598 0.0190646 0.0169363 0.0149747 0.01318 0.0115521 0.0100909 0.00876705 0.0075508 0.00644222 0.00544128 0.00454799 0.00376235 0.00308436 0.00251403 0.0020263 0.00159614 0.00122354 0.0009085 0.000651027 0.000451119 0.000308774 0.000223994 0.000171495 0.000125997 8.74976e-05 5.59985e-05 3.14992e-05 1.39996e-05 3.49991e-06 0 0 0.00065591 0.00262364 0.00590319 0.0104946 0.0163978 0.0236128 0.0321396 0.0419782 0.05305 0.065276 0.0786565 0.0931912 0.10888 0.125724 0.143722 0.162874 0.182522 0.20201 0.221337 0.240502 0.259507 0.278351 0.297033 0.315555 0.333473 0.350348 0.366177 0.380963 0.394703 0.4074 0.419051 0.429659 0.439142 0.44742 0.454493 0.460363 0.465027 0.468487 0.470743 0.471794 0.471781 0.470846 0.468989 0.466209 0.462506 0.457881 0.452334 0.445864 0.438682 0.430998 0.422814 0.414128 0.40494 0.395252 0.385061 0.37437 0.363371 0.352257 0.34103 0.329688 0.318232 0.306662 0.294977 0.283178 0.271405 0.259797 0.248355 0.237078 0.225967 0.215021 0.204241 0.193626 0.18325 0.173184 0.16343 0.153987 0.144855 0.136034 0.127524 0.119325 0.111449 0.103905 0.0966934 0.0898151 0.0832695 0.0770568 0.0711769 0.0656299 0.0603868 0.0554188 0.050726 0.0463083 0.0421658 0.0382984 0.0347062 0.0313891 0.0283065 0.0254178 0.022723 0.0202222 0.0179152 0.0158022 0.013883 0.0121578 0.0105922 0.00915218 0.0078376 0.00664852 0.00558491 0.0046468 0.00383416 0.00314702 0.00255656 0.00203401 0.00157937 0.00119263 0.00087379 0.000622856 0.000439826 0.000324699 0.000248598 0.000182643 0.000126836 8.11748e-05 4.56608e-05 2.02937e-05 5.07342e-06 0 0 0.000757608 0.00303043 0.00681847 0.0121217 0.0189402 0.0272739 0.0371228 0.0484869 0.0612606 0.0753382 0.0907198 0.107405 0.125395 0.144688 0.165285 0.187186 0.209643 0.231907 0.253977 0.275854 0.297538 0.319029 0.340327 0.361432 0.381845 0.401068 0.419102 0.435946 0.4516 0.466064 0.479338 0.491422 0.502228 0.511665 0.519735 0.526436 0.531769 0.535734 0.538331 0.539559 0.53958 0.538552 0.536477 0.533353 0.52918 0.52396 0.517691 0.510375 0.502247 0.493547 0.484273 0.474427 0.464007 0.453014 0.441448 0.429309 0.416816 0.404187 0.391423 0.378522 0.365486 0.352315 0.339008 0.325565 0.312145 0.298909 0.285855 0.272984 0.260296 0.247791 0.235469 0.223329 0.211457 0.199936 0.188765 0.177946 0.167478 0.157362 0.147596 0.138182 0.129133 0.120462 0.11217 0.104258 0.0967236 0.0895685 0.0827922 0.0763948 0.0703444 0.064609 0.0591888 0.0540836 0.0492935 0.0448186 0.0406587 0.0368139 0.0332382 0.0298856 0.026756 0.0238496 0.0211662 0.0187059 0.0164687 0.0144546 0.0126244 0.010939 0.0093983 0.00800235 0.00675114 0.00564469 0.00468299 0.00386603 0.00316105 0.00253527 0.00198869 0.00152131 0.00113314 0.000824175 0.000594409 0.000443846 0.00033982 0.000249664 0.000173377 0.000110962 6.24159e-05 2.77404e-05 6.9351e-06 0 0 0.000866989 0.00346796 0.0078029 0.0138718 0.0216747 0.0312116 0.0424825 0.0554873 0.0700895 0.0861525 0.103676 0.122661 0.143106 0.165012 0.188379 0.213207 0.238651 0.263866 0.288852 0.31361 0.33814 0.36244 0.386512 0.410356 0.433413 0.455127 0.475496 0.494522 0.512204 0.528541 0.543536 0.557186 0.569394 0.580061 0.589187 0.596772 0.602816 0.60732 0.610283 0.611705 0.611766 0.610646 0.608345 0.604863 0.6002 0.594356 0.587331 0.579125 0.570004 0.560234 0.549814 0.538744 0.527025 0.514657 0.50164 0.487973 0.473901 0.459671 0.445281 0.430732 0.416024 0.401157 0.38613 0.370945 0.355779 0.340815 0.32605 0.311486 0.297122 0.282959 0.268996 0.255233 0.241767 0.228694 0.216014 0.203727 0.191834 0.180333 0.169226 0.158512 0.148208 0.138332 0.128883 0.119862 0.111268 0.103103 0.0953644 0.0880537 0.0811357 0.0745754 0.0683728 0.0625279 0.0570406 0.0519111 0.0471392 0.0427251 0.0386169 0.0347631 0.0311636 0.0278185 0.0247277 0.0218913 0.0193092 0.0169815 0.0148637 0.0129113 0.0111243 0.00950277 0.00804668 0.00675604 0.00563083 0.00467106 0.00383974 0.00309989 0.00245149 0.00189456 0.00142909 0.00105508 0.000772525 0.000581435 0.000445162 0.000327057 0.000227123 0.000145359 8.17644e-05 3.63397e-05 9.08493e-06 0 0 0.00098141 0.00392564 0.00883269 0.0157026 0.0245353 0.0353308 0.0480891 0.0628102 0.0793235 0.0974582 0.117214 0.138592 0.161591 0.186211 0.212453 0.240316 0.268856 0.297128 0.325133 0.35287 0.380339 0.407541 0.434475 0.461142 0.486923 0.511201 0.533975 0.555246 0.575014 0.593279 0.61004 0.625299 0.638946 0.650876 0.661089 0.669583 0.67636 0.68142 0.684761 0.686385 0.686492 0.685282 0.682756 0.678913 0.673754 0.667278 0.659485 0.650376 0.640245 0.629385 0.617798 0.605483 0.592439 0.578668 0.564168 0.54894 0.533256 0.517388 0.501335 0.485097 0.468674 0.452067 0.435275 0.418298 0.401337 0.384594 0.368067 0.351757 0.335664 0.319788 0.304128 0.288686 0.27357 0.258889 0.244643 0.230833 0.217459 0.204519 0.192015 0.179947 0.168335 0.157201 0.146544 0.136365 0.126664 0.11744 0.108694 0.100426 0.092597 0.0851702 0.0781453 0.0715222 0.0653011 0.0594819 0.0540645 0.0490491 0.0443781 0.0399941 0.0358972 0.0320873 0.0285644 0.0253285 0.0223796 0.0197178 0.0172931 0.0150555 0.0130051 0.0111419 0.0094659 0.00797705 0.00667537 0.00556086 0.00459222 0.0037281 0.00296852 0.00231347 0.00176295 0.00131697 0.000975518 0.000738601 0.000565492 0.000415463 0.000288516 0.00018465 0.000103866 4.61626e-05 1.15406e-05 0 0 0.00109823 0.00439292 0.00988408 0.0175717 0.0274558 0.0395363 0.0538133 0.0702868 0.0887496 0.108995 0.131022 0.154832 0.180424 0.207798 0.236955 0.267894 0.299569 0.330934 0.361988 0.392732 0.423165 0.453289 0.483101 0.512604 0.541119 0.567969 0.593154 0.616675 0.638531 0.658723 0.677249 0.694111 0.709194 0.722383 0.733679 0.743081 0.75059 0.756205 0.759927 0.761755 0.761911 0.760616 0.757871 0.753676 0.74803 0.740933 0.732386 0.722389 0.711263 0.69933 0.68659 0.673044 0.658692 0.643532 0.627566 0.610793 0.593511 0.576018 0.558312 0.540394 0.522265 0.503923 0.48537 0.466605 0.447849 0.429325 0.411032 0.392971 0.375141 0.357542 0.340175 0.323038 0.306256 0.28995 0.274121 0.258768 0.243892 0.229492 0.215568 0.202121 0.189176 0.176758 0.164868 0.153505 0.14267 0.132362 0.122582 0.11333 0.104564 0.0962453 0.0883731 0.0809477 0.0739688 0.0674367 0.0613512 0.0557124 0.0504571 0.0455223 0.040908 0.0366141 0.0326406 0.0289876 0.025655 0.0226429 0.0198958 0.0173583 0.0150304 0.012912 0.0110032 0.00930394 0.00781427 0.00653418 0.00541801 0.00442012 0.00354049 0.00277914 0.00213607 0.00161126 0.00120474 0.000916479 0.000701679 0.000515519 0.000358 0.00022912 0.00012888 5.72799e-05 1.432e-05 0 0 0.00121745 0.0048698 0.0109571 0.0194792 0.0304363 0.0438282 0.0596551 0.0779168 0.0983678 0.120762 0.1451 0.171382 0.199606 0.229775 0.261887 0.295942 0.330791 0.365283 0.399418 0.433196 0.466618 0.499683 0.532391 0.564742 0.596001 0.625431 0.653034 0.678808 0.702754 0.724872 0.745162 0.763624 0.780137 0.794582 0.806958 0.817266 0.825506 0.831677 0.835779 0.837814 0.838022 0.836648 0.833691 0.829151 0.823028 0.815323 0.806034 0.795163 0.783057 0.770067 0.756191 0.74143 0.725783 0.709251 0.691834 0.673532 0.654666 0.63556 0.616213 0.596625 0.576796 0.556727 0.536416 0.515865 0.495315 0.475009 0.454947 0.435128 0.415553 0.396222 0.377135 0.358291 0.339827 0.321879 0.304447 0.287532 0.271133 0.25525 0.239883 0.225033 0.210729 0.197002 0.183853 0.171281 0.159286 0.147869 0.137028 0.126765 0.117037 0.107801 0.0990565 0.0908042 0.0830439 0.0757756 0.0689993 0.062715 0.056854 0.0513477 0.046196 0.0413989 0.0369565 0.0328686 0.0291355 0.0257569 0.022672 0.0198197 0.0172 0.0148129 0.0126585 0.0107367 0.00904755 0.00759101 0.00631714 0.00517594 0.00416742 0.00329159 0.00254844 0.00193796 0.00146018 0.00111507 0.000853724 0.000627226 0.000435573 0.000278767 0.000156806 6.96917e-05 1.74229e-05 0 0 0.00133907 0.00535628 0.0120516 0.0214251 0.0334767 0.0482065 0.0656144 0.0857005 0.108178 0.132761 0.159448 0.18824 0.219138 0.25214 0.287247 0.324459 0.36252 0.400175 0.437422 0.474263 0.510696 0.546723 0.582343 0.617556 0.651569 0.683588 0.713614 0.741646 0.767684 0.791728 0.813779 0.833836 0.851775 0.867472 0.880926 0.892138 0.901107 0.907835 0.91232 0.914562 0.914827 0.913377 0.910215 0.905339 0.898749 0.890446 0.880429 0.868698 0.855629 0.841596 0.826599 0.810638 0.793713 0.775825 0.756972 0.737155 0.716721 0.696015 0.675037 0.653789 0.632268 0.610477 0.588414 0.566079 0.543736 0.521646 0.499811 0.478229 0.456902 0.435828 0.415008 0.394443 0.374281 0.354674 0.335622 0.317125 0.299182 0.281795 0.264961 0.248683 0.232995 0.217934 0.2035 0.189693 0.176513 0.163959 0.152033 0.140733 0.130016 0.119837 0.110195 0.101092 0.0925262 0.0844985 0.0770088 0.0700569 0.0635688 0.0574703 0.0517613 0.0464418 0.041512 0.0369716 0.0328209 0.0290597 0.0256214 0.0224395 0.019514 0.0168448 0.0144319 0.0122754 0.0103752 0.00873136 0.00728958 0.00599557 0.0048493 0.0038508 0.00300006 0.00229707 0.00174184 0.00133437 0.00102163 0.000750582 0.000521238 0.000333592 0.000187646 8.3398e-05 2.08495e-05 0 0 0.00146309 0.00585235 0.0131678 0.0234094 0.0365772 0.0526712 0.0716913 0.0936376 0.11818 0.14499 0.174066 0.205409 0.239018 0.274894 0.313037 0.353446 0.394758 0.43561 0.476001 0.515932 0.555401 0.59441 0.632959 0.671047 0.707824 0.742439 0.774894 0.805187 0.833319 0.85929 0.883099 0.904748 0.924108 0.941053 0.955582 0.967696 0.977395 0.984679 0.989547 0.992 0.992324 0.990805 0.987443 0.982239 0.975192 0.966303 0.95557 0.942996 0.928978 0.913918 0.897816 0.88067 0.862483 0.843252 0.822979 0.801664 0.779675 0.757382 0.734786 0.711886 0.688682 0.665174 0.641362 0.617246 0.59311 0.569236 0.545623 0.522273 0.499185 0.476359 0.453796 0.431494 0.409619 0.388337 0.367646 0.347547 0.32804 0.309125 0.290802 0.273071 0.255974 0.239553 0.223809 0.208741 0.19435 0.180634 0.167595 0.155233 0.143501 0.132353 0.121789 0.11181 0.102416 0.0936055 0.0853796 0.0777381 0.0706014 0.06389 0.0576038 0.0517428 0.0463071 0.0412966 0.0367113 0.0325513 0.0287443 0.0252179 0.0219723 0.0190075 0.0163233 0.0139199 0.0117972 0.00995522 0.00833536 0.006879 0.00558614 0.00445678 0.00349093 0.00268858 0.00204973 0.00157438 0.00120539 0.000885589 0.000614992 0.000393595 0.000221397 9.83988e-05 2.45997e-05 0 0 0.00158951 0.00635802 0.0143055 0.0254321 0.0397376 0.0572222 0.0778858 0.101728 0.128375 0.15745 0.188954 0.222886 0.259247 0.298037 0.339255 0.382902 0.427505 0.471589 0.515155 0.558203 0.600733 0.642744 0.684238 0.725213 0.764764 0.801985 0.836874 0.869433 0.899661 0.927558 0.953124 0.97636 0.997136 1.01533 1.03093 1.04394 1.05437 1.06221 1.06746 1.07013 1.07051 1.06893 1.06538 1.05985 1.05236 1.04289 1.03146 1.01805 1.0031 0.987033 0.96984 0.951526 0.932091 0.911534 0.889856 0.867058 0.843529 0.819663 0.795458 0.770916 0.746036 0.720817 0.695261 0.669367 0.643438 0.617778 0.592385 0.567261 0.542404 0.517816 0.493497 0.469445 0.445841 0.422866 0.400518 0.378798 0.357706 0.337242 0.317406 0.298198 0.279666 0.26186 0.24478 0.228426 0.212797 0.197894 0.183716 0.170265 0.157491 0.145349 0.133839 0.12296 0.112713 0.103097 0.0941119 0.0857586 0.0779519 0.0706069 0.0637236 0.0573019 0.0513418 0.0458435 0.0408068 0.0362318 0.0320405 0.0281549 0.0245751 0.0213011 0.0183328 0.0156703 0.0133136 0.0112626 0.00945446 0.00782623 0.00637792 0.00510953 0.00402105 0.00311249 0.00238384 0.0018351 0.001405 0.00103225 0.000716838 0.000458776 0.000258062 0.000114694 2.86735e-05 0 0 0.00171832 0.00687329 0.0154649 0.0274932 0.0429581 0.0618596 0.0841978 0.109973 0.138761 0.170141 0.204111 0.240673 0.279825 0.321568 0.365903 0.412828 0.460759 0.508111 0.554883 0.601076 0.64669 0.691725 0.73618 0.780056 0.822391 0.862224 0.899555 0.934383 0.966708 0.996532 1.02385 1.04867 1.07086 1.09029 1.10696 1.12087 1.13203 1.14043 1.14606 1.14894 1.1494 1.14775 1.14401 1.13818 1.13025 1.12022 1.10809 1.09387 1.07801 1.06094 1.04267 1.0232 1.00254 0.980671 0.957604 0.933337 0.908283 0.882855 0.857054 0.830879 0.80433 0.777408 0.750112 0.722442 0.694721 0.667272 0.640096 0.613191 0.586559 0.560199 0.534111 0.508295 0.482947 0.458261 0.434238 0.410878 0.38818 0.366145 0.344772 0.324062 0.304071 0.284855 0.266413 0.248746 0.231855 0.215738 0.200395 0.185828 0.171988 0.158826 0.146344 0.134541 0.123417 0.112972 0.103205 0.0941184 0.0856203 0.077621 0.0701206 0.063119 0.0566162 0.0506123 0.0451073 0.0401011 0.03551 0.0312504 0.0273223 0.0237256 0.0204604 0.0175266 0.0149243 0.0126535 0.0106469 0.00883728 0.00722466 0.00580905 0.00459043 0.0035688 0.00274417 0.00211654 0.00162048 0.00119055 0.000826773 0.000529135 0.000297638 0.000132284 3.30709e-05 0 0 0.00184954 0.00739815 0.0166458 0.0295926 0.0462385 0.0665834 0.0906274 0.11837 0.14934 0.183063 0.219539 0.258769 0.300752 0.345489 0.392979 0.443223 0.494522 0.545176 0.595186 0.644552 0.693274 0.741352 0.788786 0.835575 0.880704 0.923158 0.962935 1.00004 1.03446