<?xml version="1.0"?> 
<VTKFile type="StructuredGrid" version="0.1"> 
<StructuredGrid WholeExtent="0 128 0 128 0 0"> 
<Piece Extent="0 128 0 128 0 0"> 
<PointData>
<DataArray type="Float32" Name="u" format="ascii" NumberOfComponents="1"> 
0 0 0 0 0 0 0 0 0 0 0 0 0 0 0 0 0 0 0 0 0 0 0 0 0 0 0 0 0 0 0 0 0 0 0 0 0 0 0 0 0 0 0 0 0 0 0 0 0 0 0 0 0 0 0 0 0 0 0 0 0 0 0 0 0 0 0 0 0 0 0 0 0 0 0 0 0 0 0 0 0 0 0 0 0 0 0 0 0 0 0 0 0 0 0 0 0 0 0 0 0 0 0 0 0 0 0 0 0 0 0 0 0 0 0 0 0 0 0 0 0 0 0 0 0 0 0 0 0 0 8.14167e-07 3.25667e-06 7.3275e-06 1.30267e-05 2.03542e-05 2.931e-05 3.98942e-05 5.21067e-05 6.6049e-05 8.18225e-05 9.94272e-05 0.000118863 0.00014013 0.000163229 0.000188158 0.000214919 0.000242616 0.000270355 0.000298134 0.000325955 0.000353817 0.00038172 0.000409664 0.000437649 0.000464961 0.000490883 0.000515415 0.000538559 0.000560313 0.000580677 0.000599653 0.000617239 0.000633237 0.000647451 0.000659879 0.000670522 0.000679379 0.000686451 0.000691738 0.000695239 0.000697138 0.000697616 0.000696672 0.000694309 0.000690524 0.000685318 0.000678692 0.000670645 0.000661517 0.000651647 0.000641036 0.000629684 0.000617591 0.000604756 0.00059118 0.000576863 0.000562113 0.000547239 0.000532241 0.000517118 0.000501872 0.000486501 0.000471005 0.000455386 0.000439824 0.000424502 0.00040942 0.000394577 0.000379973 0.00036561 0.000351485 0.000337601 0.000324009 0.000310764 0.000297865 0.000285313 0.000273107 0.000261248 0.000249735 0.000238569 0.000227727 0.000217187 0.00020695 0.000197015 0.000187382 0.000178052 0.000169024 0.000160298 0.000151839 0.000143608 0.000135607 0.000127836 0.000120294 0.000112982 0.000105899 9.90458e-05 9.24111e-05 8.59841e-05 7.97649e-05 7.37535e-05 6.79498e-05 6.23539e-05 5.69658e-05 5.17854e-05 4.68354e-05 4.21382e-05 3.76939e-05 3.35025e-05 2.95639e-05 2.58782e-05 2.24454e-05 1.92654e-05 1.63476e-05 1.37014e-05 1.13266e-05 9.22338e-06 7.39166e-06 5.83146e-06 4.54278e-06 3.52562e-06 2.6993e-06 1.98316e-06 1.3772e-06 8.81405e-07 4.9579e-07 2.20351e-07 5.50878e-08 0 0 3.25667e-06 1.30267e-05 2.931e-05 5.21067e-05 8.14167e-05 0.00011724 0.000159577 0.000208427 0.000264196 0.00032729 0.000397709 0.000475453 0.000560522 0.000652915 0.000752634 0.000859677 0.000970466 0.00108142 0.00119254 0.00130382 0.00141527 0.00152688 0.00163866 0.0017506 0.00185984 0.00196353 0.00206166 0.00215424 0.00224125 0.00232271 0.00239861 0.00246896 0.00253295 0.0025898 0.00263952 0.00268209 0.00271752 0.0027458 0.00276695 0.00278096 0.00278855 0.00279046 0.00278669 0.00277723 0.0027621 0.00274127 0.00271477 0.00268258 0.00264607 0.00260659 0.00256415 0.00251874 0.00247036 0.00241903 0.00236472 0.00230745 0.00224845 0.00218896 0.00212896 0.00206847 0.00200749 0.001946 0.00188402 0.00182154 0.0017593 0.00169801 0.00163768 0.00157831 0.00151989 0.00146244 0.00140594 0.0013504 0.00129604 0.00124305 0.00119146 0.00114125 0.00109243 0.00104499 0.000998939 0.000954274 0.000910906 0.000868748 0.000827799 0.000788059 0.000749529 0.000712208 0.000676096 0.000641193 0.000607354 0.000574433 0.00054243 0.000511345 0.000481177 0.000451928 0.000423597 0.000396183 0.000369644 0.000343936 0.00031906 0.000295014 0.000271799 0.000249416 0.000227863 0.000207142 0.000187342 0.000168553 0.000150776 0.00013401 0.000118256 0.000103513 8.97815e-05 7.70616e-05 6.53905e-05 5.48054e-05 4.53064e-05 3.68935e-05 2.95666e-05 2.33259e-05 1.81711e-05 1.41025e-05 1.07972e-05 7.93264e-06 5.50878e-06 3.52562e-06 1.98316e-06 8.81405e-07 2.20351e-07 0 0 7.3275e-06 2.931e-05 6.59475e-05 0.00011724 0.000183188 0.00026379 0.000359048 0.00046896 0.000594441 0.000736402 0.000894845 0.00106977 0.00126117 0.00146906 0.00169343 0.00193427 0.00218355 0.00243319 0.00268321 0.00293359 0.00318435 0.00343548 0.00368698 0.00393885 0.00418465 0.00441795 0.00463874 0.00484703 0.00504282 0.0052261 0.00539688 0.00555515 0.00569914 0.00582706 0.00593891 0.00603469 0.00611441 0.00617806 0.00622564 0.00625716 0.00627424 0.00627854 0.00627005 0.00624878 0.00621471 0.00616786 0.00610823 0.0060358 0.00595365 0.00586482 0.00576933 0.00566716 0.00555832 0.00544281 0.00532062 0.00519177 0.00505902 0.00492515 0.00479017 0.00465406 0.00451684 0.00437851 0.00423905 0.00409848 0.00395842 0.00382052 0.00368478 0.00355119 0.00341976 0.00329049 0.00316337 0.00303841 0.00291608 0.00279687 0.00268078 0.00256781 0.00245796 0.00235123 0.00224761 0.00214712 0.00204954 0.00195468 0.00186255 0.00177313 0.00168644 0.00160247 0.00152122 0.00144268 0.00136655 0.00129247 0.00122047 0.00115053 0.00108265 0.00101684 0.000953093 0.000891412 0.0008317 0.000773857 0.000717884 0.000663781 0.000611548 0.000561185 0.000512692 0.000466069 0.000421519 0.000379244 0.000339245 0.000301523 0.000266075 0.000232904 0.000202008 0.000173389 0.000147129 0.000123312 0.000101939 8.30104e-05 6.6525e-05 5.24832e-05 4.0885e-05 3.17306e-05 2.42937e-05 1.78484e-05 1.23948e-05 7.93264e-06 4.46211e-06 1.98316e-06 4.9579e-07 0 0 1.30267e-05 5.21067e-05 0.00011724 0.000208427 0.000325667 0.00046896 0.000638307 0.000833707 0.00105678 0.00130916 0.00159084 0.00190181 0.00224209 0.00261166 0.00301054 0.00343871 0.00388186 0.00432568 0.00477015 0.00521528 0.00566107 0.00610752 0.00655462 0.00700239 0.00743937 0.00785412 0.00824665 0.00861694 0.008965 0.00929084 0.00959444 0.00987582 0.0101318 0.0103592 0.0105581 0.0107283 0.0108701 0.0109832 0.0110678 0.0111238 0.0111542 0.0111618 0.0111468 0.0111089 0.0110484 0.0109651 0.0108591 0.0107303 0.0105843 0.0104264 0.0102566 0.0100749 0.00988145 0.0096761 0.00945889 0.00922981 0.00899381 0.00875583 0.00851585 0.00827389 0.00802994 0.00778401 0.00753609 0.00728618 0.00703719 0.00679204 0.00655072 0.00631323 0.00607958 0.00584975 0.00562377 0.00540161 0.00518414 0.00497222 0.00476584 0.004565 0.00436971 0.00417996 0.00399576 0.0038171 0.00364363 0.00347499 0.0033112 0.00315224 0.00299812 0.00284883 0.00270438 0.00256477 0.00242942 0.00229773 0.00216972 0.00204538 0.00192471 0.00180771 0.00169439 0.00158473 0.00147858 0.00137575 0.00127624 0.00118006 0.0010872 0.000997663 0.000911453 0.000828567 0.000749367 0.000674212 0.000603103 0.00053604 0.000473023 0.000414052 0.000359126 0.000308247 0.000261562 0.000219222 0.000181226 0.000147574 0.000118267 9.33034e-05 7.26845e-05 5.64099e-05 4.31888e-05 3.17306e-05 2.20351e-05 1.41025e-05 7.93264e-06 3.52562e-06 8.81405e-07 0 0 2.03542e-05 8.14167e-05 0.000183188 0.000325667 0.000508854 0.00073275 0.000997354 0.00130267 0.00165122 0.00204556 0.00248568 0.00297158 0.00350326 0.00408072 0.00470396 0.00537298 0.00606541 0.00675887 0.00745336 0.00814887 0.00884542 0.009543 0.0102416 0.0109412 0.011624 0.0122721 0.0128854 0.013464 0.0140078 0.0145169 0.0149913 0.015431 0.0158309 0.0161863 0.016497 0.016763 0.0169845 0.0171613 0.0172934 0.017381 0.0174284 0.0174404 0.0174168 0.0173577 0.0172631 0.017133 0.0169673 0.0167661 0.0165379 0.0162912 0.0160259 0.0157421 0.0154398 0.0151189 0.0147795 0.0144216 0.0140528 0.013681 0.013306 0.012928 0.0125468 0.0121625 0.0117751 0.0113847 0.0109956 0.0106126 0.0102355 0.00986442 0.00949934 0.00914024 0.00878713 0.00844002 0.00810022 0.00776909 0.00744662 0.00713282 0.00682767 0.00653119 0.00624337 0.00596421 0.00569317 0.00542968 0.00517374 0.00492537 0.00468456 0.0044513 0.0042256 0.00400746 0.00379596 0.00359021 0.00339019 0.0031959 0.00300736 0.00282455 0.00264748 0.00247615 0.00231028 0.0021496 0.00199412 0.00184384 0.00169875 0.00155885 0.00142414 0.00129464 0.00117089 0.00105346 0.000942348 0.000837563 0.000739098 0.000646956 0.000561135 0.000481635 0.000408691 0.000342534 0.000283165 0.000230584 0.000184792 0.000145787 0.00011357 8.81405e-05 6.74826e-05 4.9579e-05 3.44299e-05 2.20351e-05 1.23948e-05 5.50878e-06 1.3772e-06 0 0 2.931e-05 0.00011724 0.00026379 0.00046896 0.00073275 0.00105516 0.00143619 0.00187584 0.00237776 0.00294561 0.00357938 0.00427907 0.00504469 0.00587624 0.00677371 0.0077371 0.00873419 0.00973277 0.0107328 0.0117344 0.0127374 0.0137419 0.0147479 0.0157554 0.0167386 0.0176718 0.018555 0.0193881 0.0201713 0.0209044 0.0215875 0.0222206 0.0227965 0.0233082 0.0237556 0.0241388 0.0244576 0.0247122 0.0249026 0.0250286 0.025097 0.0251142 0.0250802 0.0249951 0.0248589 0.0246715 0.0244329 0.0241432 0.0238146 0.0234593 0.0230773 0.0226686 0.0222333 0.0217712 0.0212825 0.0207671 0.0202361 0.0197006 0.0191607 0.0186163 0.0180674 0.017514 0.0169562 0.0163939 0.0158337 0.0152821 0.0147391 0.0142048 0.013679 0.0131619 0.0126535 0.0121536 0.0116643 0.0111875 0.0107231 0.0102713 0.00983185 0.00940491 0.00899045 0.00858847 0.00819816 0.00781873 0.00745019 0.00709253 0.00674576 0.00640987 0.00608486 0.00577074 0.00546619 0.0051699 0.00488187 0.0046021 0.0043306 0.00406735 0.00381237 0.00356565 0.0033268 0.00309543 0.00287154 0.00265513 0.00244619 0.00224474 0.00205077 0.00186428 0.00168607 0.00151698 0.00135698 0.00120609 0.0010643 0.000931616 0.000808034 0.000693555 0.000588514 0.000493249 0.000407758 0.000332042 0.0002661 0.000209933 0.00016354 0.000126922 9.71749e-05 7.13938e-05 4.9579e-05 3.17306e-05 1.78484e-05 7.93264e-06 1.98316e-06 0 0 3.98942e-05 0.000159577 0.000359048 0.000638307 0.000997354 0.00143619 0.00195481 0.00255323 0.0032364 0.0040093 0.00487193 0.0058243 0.00686639 0.00799821 0.00921977 0.010531 0.0118882 0.0132474 0.0146086 0.0159718 0.017337 0.0187043 0.0200735 0.0214448 0.0227831 0.0240533 0.0252554 0.0263894 0.0274553 0.0284532 0.029383 0.0302447 0.0310286 0.0317251 0.0323341 0.0328556 0.0332896 0.0336361 0.0338952 0.0340667 0.0341598 0.0341832 0.034137 0.0340211 0.0338357 0.0335806 0.0332559 0.0328616 0.0324143 0.0319307 0.0314108 0.0308545 0.030262 0.0296331 0.0289678 0.0282663 0.0275435 0.0268147 0.0260798 0.0253388 0.0245917 0.0238385 0.0230793 0.0223139 0.0215514 0.0208006 0.0200616 0.0193343 0.0186187 0.0179149 0.0172228 0.0165424 0.0158764 0.0152274 0.0145954 0.0139803 0.0133822 0.0128011 0.012237 0.0116899 0.0111586 0.0106422 0.0101405 0.00965373 0.00918173 0.00872454 0.00828217 0.00785462 0.00744009 0.00703681 0.00664477 0.00626397 0.00589442 0.00553612 0.00518906 0.00485325 0.00452814 0.00421322 0.00390848 0.00361392 0.00332954 0.00305534 0.00279132 0.00253749 0.00229494 0.00206477 0.001847 0.00164162 0.00144863 0.00126803 0.00109982 0.000944005 0.000801034 0.000671367 0.000555004 0.000451945 0.000362191 0.000285742 0.000222596 0.000172755 0.000132266 9.71749e-05 6.74826e-05 4.31888e-05 2.42937e-05 1.07972e-05 2.6993e-06 0 0 5.21067e-05 0.000208427 0.00046896 0.000833707 0.00130267 0.00187584 0.00255323 0.00333483 0.00422713 0.00523664 0.00636334 0.00760724 0.00896834 0.0104466 0.0120421 0.0137548 0.0155275 0.0173027 0.0190806 0.0208611 0.0226443 0.0244301 0.0262185 0.0280096 0.0297575 0.0314165 0.0329866 0.0344678 0.03586 0.0371634 0.0383778 0.0395033 0.0405272 0.0414369 0.0422322 0.0429134 0.0434803 0.0439329 0.0442712 0.0444953 0.0446168 0.0446474 0.044587 0.0444357 0.0441935 0.0438604 0.0434363 0.0429213 0.0423371 0.0417054 0.0410263 0.0402998 0.0395258 0.0387044 0.0378355 0.0369192 0.0359752 0.0350233 0.0340634 0.0330956 0.0321198 0.031136 0.0301444 0.0291447 0.0281488 0.0271682 0.0262029 0.0252529 0.0243183 0.023399 0.0224951 0.0216064 0.0207366 0.0198889 0.0190634 0.01826 0.0174788 0.0167198 0.015983 0.0152684 0.0145745 0.0139 0.0132448 0.0126089 0.0119925 0.0113953 0.0108175 0.0102591 0.00971767 0.00919093 0.00867888 0.00818152 0.00769884 0.00723085 0.00677755 0.00633893 0.00591431 0.00550298 0.00510495 0.00472022 0.00434879 0.00399065 0.00364581 0.00331427 0.00299747 0.00269685 0.00241241 0.00214416 0.00189209 0.00165621 0.0014365 0.00123299 0.00104625 0.000876887 0.000724903 0.000590296 0.000473066 0.000373214 0.000290738 0.00022564 0.000172755 0.000126922 8.81405e-05 5.64099e-05 3.17306e-05 1.41025e-05 3.52562e-06 0 0 6.6292e-05 0.000265168 0.000596628 0.00106067 0.0016573 0.00238651 0.00324831 0.00424269 0.00537727 0.0066597 0.00808996 0.00966805 0.011394 0.0132677 0.0152893 0.0174588 0.0197037 0.0219516 0.0242027 0.0264568 0.0287139 0.0309742 0.0332375 0.0355039 0.0377156 0.039815 0.041802 0.0436766 0.0454388 0.0470887 0.0486261 0.0500512 0.0513479 0.0525002 0.0535081 0.0543715 0.0550905 0.055665 0.0560952 0.0563809 0.0565369 0.0565778 0.0565037 0.0563145 0.0560102 0.0555909 0.0550566 0.0544072 0.0536701 0.0528729 0.0520156 0.051098 0.0501203 0.0490824 0.0479844 0.0468261 0.0456327 0.044429 0.043215 0.0419907 0.0407562 0.0395115 0.0382564 0.0369911 0.0357303 0.0344888 0.0332664 0.0320633 0.0308794 0.0297147 0.0285693 0.0274431 0.0263405 0.0252658 0.0242192 0.0232005 0.0222098 0.021247 0.0203122 0.0194055 0.0185249 0.0176688 0.0168372 0.0160301 0.0152475 0.0144893 0.0137557 0.0130465 0.0123589 0.0116899 0.0110396 0.0104079 0.00979486 0.00920043 0.00862465 0.0080675 0.00752811 0.00700559 0.00649996 0.0060112 0.00553932 0.00508431 0.00464618 0.00422494 0.00382237 0.00344028 0.00307869 0.00273758 0.00241695 0.00211681 0.00183715 0.00157798 0.00134006 0.00112416 0.000930279 0.000758414 0.000608567 0.000480739 0.000374928 0.000291135 0.0002229 0.000163763 0.000113725 7.27838e-05 4.09409e-05 1.81959e-05 4.54898e-06 0 0 8.27945e-05 0.000331178 0.00074515 0.00132471 0.00206986 0.0029806 0.00405693 0.00529885 0.00671413 0.00831056 0.0100881 0.0120469 0.0141867 0.0165077 0.0190099 0.0216932 0.0244686 0.027247 0.0300286 0.0328132 0.0356008 0.0383915 0.0411853 0.0439821 0.0467113 0.0493022 0.0517548 0.0540692 0.0562452 0.0582829 0.0601824 0.0619435 0.0635466 0.0649719 0.0662194 0.0672891 0.068181 0.0688951 0.0694314 0.0697899 0.0699886 0.0700453 0.06996 0.0697328 0.0693636 0.0688524 0.0681993 0.0674042 0.0665009 0.0655228 0.0644702 0.0633429 0.0621409 0.0608643 0.0595131 0.0580872 0.0566173 0.0551343 0.053638 0.0521285 0.0506057 0.0490697 0.0475205 0.0459581 0.0444007 0.0428665 0.0413556 0.0398679 0.0384035 0.0369623 0.0355444 0.0341497 0.0327838 0.0314522 0.0301549 0.0288918 0.0276631 0.0264686 0.0253084 0.0241825 0.0230888 0.0220254 0.0209921 0.0199891 0.0190163 0.0180738 0.0171614 0.0162793 0.0154238 0.0145915 0.0137824 0.0129964 0.0122335 0.0114938 0.0107772 0.0100837 0.00941235 0.00876193 0.00813249 0.00752401 0.00693651 0.00636997 0.0058244 0.0052998 0.00479834 0.00432217 0.00387131 0.00344574 0.00304548 0.00267051 0.00232084 0.00199647 0.00169838 0.00142754 0.00118396 0.00096762 0.000778537 0.000616706 0.000482128 0.000374801 0.000286957 0.000210826 0.000146407 9.37003e-05 5.27064e-05 2.34251e-05 5.85627e-06 0 0 0.000101614 0.000406457 0.000914528 0.00162583 0.00254036 0.00365811 0.0049791 0.00650331 0.00823771 0.0101892 0.0123579 0.0147437 0.0173466 0.0201666 0.0232038 0.026458 0.0298222 0.033189 0.0365583 0.0399303 0.0433049 0.046682 0.0500618 0.0534442 0.0567445 0.0598782 0.0628452 0.0656455 0.0682792 0.0707461 0.0730464 0.07518 0.0771231 0.0788518 0.0803662 0.0816662 0.0827518 0.0836231 0.08428 0.0847225 0.084972 0.0850499 0.0849561 0.0846907 0.0842536 0.0836449 0.0828645 0.0819125 0.0808292 0.0796551 0.0783901 0.0770343 0.0755876 0.07405 0.0724216 0.0707023 0.0689292 0.0671392 0.0653324 0.0635087 0.0616682 0.0598109 0.0579366 0.0560456 0.0541598 0.0523014 0.0504704 0.0486668 0.0468906 0.0451418 0.0434204 0.0417264 0.0400667 0.0384481 0.0368705 0.0353341 0.0338388 0.0323846 0.0309714 0.0295994 0.0282662 0.0269696 0.0257095 0.024486 0.023299 0.0221486 0.0210347 0.0199574 0.0189124 0.0178957 0.0169072 0.0159468 0.0150147 0.0141108 0.0132351 0.0123876 0.011567 0.010772 0.0100025 0.00925867 0.00854036 0.00784762 0.00718046 0.00653887 0.00592538 0.00534251 0.00479027 0.00426866 0.00377767 0.00331731 0.00288758 0.00248847 0.00212121 0.00178703 0.00148593 0.00121791 0.000982976 0.000781117 0.000612338 0.000476639 0.000364926 0.000268109 0.000186187 0.00011916 6.70273e-05 2.97899e-05 7.44748e-06 0 0 0.000122751 0.000491005 0.00110476 0.00196402 0.00306878 0.00441905 0.00601481 0.00785608 0.009948 0.0122957 0.0148992 0.0177584 0.0208735 0.0242443 0.027871 0.0317534 0.0357645 0.0397774 0.0437919 0.0478082 0.0518261 0.0558458 0.0598671 0.0638902 0.0678153 0.0715429 0.075073 0.0784056 0.0815407 0.0844783 0.0872183 0.0897608 0.0920775 0.0941401 0.0959485 0.0975028 0.0988029 0.0998489 0.100641 0.101178 0.101487 0.101592 0.101492 0.101188 0.10068 0.0999682 0.0990521 0.0979319 0.0966552 0.0952697 0.0937754 0.0921723 0.0904603 0.0886396 0.08671 0.0846717 0.0825683 0.0804439 0.0782983 0.0761316 0.0739438 0.0717348 0.0695047 0.0672535 0.0650076 0.0627934 0.0606108 0.0584599 0.0563407 0.0542532 0.0521974 0.0501732 0.0481891 0.0462534 0.0443661 0.0425273 0.0407369 0.038995 0.0373014 0.0356563 0.0340572 0.0325015 0.0309894 0.0295207 0.0280955 0.0267138 0.0253755 0.0240808 0.0228247 0.0216024 0.020414 0.0192594 0.0181386 0.0170516 0.0159985 0.0149792 0.0139922 0.0130358 0.0121101 0.0112152 0.0103509 0.00951727 0.00871436 0.00794214 0.00720349 0.0065013 0.00583558 0.00520633 0.00461354 0.00405721 0.00353735 0.00305395 0.00260854 0.00220262 0.00183621 0.0015093 0.00122188 0.000973971 0.000765559 0.000596647 0.000456808 0.000335614 0.000233065 0.000149162 8.39035e-05 3.72904e-05 9.32261e-06 0 0 0.000146206 0.000584822 0.00131585 0.00233929 0.00365514 0.0052634 0.00716407 0.00935716 0.011845 0.01463 0.017712 0.0210912 0.0247675 0.028741 0.0330115 0.0375792 0.0422955 0.0470123 0.0517294 0.0564468 0.0611646 0.0658827 0.0706012 0.07532 0.0799236 0.0842964 0.0884383 0.0923495 0.0960298 0.0994794 0.102698 0.105686 0.10841 0.110837 0.112966 0.114799 0.116334 0.117573 0.118514 0.119158 0.119534 0.11967 0.119567 0.119225 0.118644 0.117823 0.116762 0.115462 0.113979 0.112367 0.110626 0.108757 0.106759 0.104633 0.102378 0.0999951 0.0975347 0.0950481 0.0925356 0.089997 0.0874323 0.0848416 0.0822248 0.079582 0.0769442 0.0743425 0.0717769 0.0692474 0.0667539 0.0642965 0.0618752 0.05949 0.0571509 0.0548681 0.0526416 0.0504714 0.0483574 0.0462997 0.0442983 0.0423532 0.0404617 0.0386212 0.0368317 0.0350932 0.0334058 0.0317693 0.0301839 0.0286495 0.0271606 0.0257117 0.0243028 0.0229339 0.021605 0.0203162 0.0190673 0.0178584 0.0166877 0.0155533 0.0144553 0.0133935 0.0123681 0.0113789 0.0104261 0.0095096 0.00863267 0.00779855 0.00700724 0.00625875 0.00555308 0.00489022 0.00427017 0.00369294 0.00316038 0.00267433 0.00223479 0.00184177 0.00149526 0.00119527 0.00094179 0.000734826 0.000562601 0.00041334 0.000287041 0.000183707 0.000103335 4.59266e-05 1.14817e-05 0 0 0.000171977 0.000687908 0.00154779 0.00275163 0.00429943 0.00619117 0.00842688 0.0110065 0.0139287 0.017192 0.0207965 0.024742 0.0290287 0.0336565 0.0386254 0.0439354 0.0494153 0.0548937 0.0603706 0.0658461 0.0713202 0.0767928 0.082264 0.0877337 0.0930694 0.0981386 0.102941 0.107477 0.111747 0.115749 0.119486 0.122955 0.12612 0.128942 0.13142 0.133555 0.135346 0.136794 0.137899 0.138661 0.139112 0.139286 0.139183 0.138802 0.138143 0.137208 0.135995 0.134504 0.1328 0.130946 0.128942 0.126788 0.124484 0.12203 0.119426 0.116673 0.113828 0.110952 0.108044 0.105105 0.102134 0.0991312 0.096097 0.093031 0.0899696 0.0869488 0.0839686 0.081029 0.0781301 0.0752717 0.0724539 0.0696768 0.0669523 0.0642924 0.0616971 0.0591664 0.0567004 0.0542989 0.0519621 0.04969 0.0474797 0.0453285 0.0432365 0.0412036 0.0392299 0.0373153 0.0354599 0.0336636 0.0319202 0.0302236 0.0285737 0.0269705 0.0254141 0.0239045 0.0224415 0.0210253 0.0196537 0.0183246 0.0170379 0.0157937 0.0145919 0.0134326 0.0123157 0.0112413 0.0102129 0.00923424 0.00830524 0.00742592 0.00659628 0.00581632 0.00508603 0.00440543 0.00377672 0.00320213 0.00268167 0.00221533 0.00180311 0.00144501 0.00114103 0.000891176 0.000682307 0.000501287 0.000348116 0.000222794 0.000125322 5.56985e-05 1.39246e-05 0 0 0.000200066 0.000800263 0.00180059 0.00320105 0.00500165 0.00720237 0.00980323 0.0128042 0.0161992 0.0199819 0.0241525 0.0287108 0.0336569 0.0389909 0.0447126 0.0508221 0.0571237 0.0634216 0.0697157 0.0760062 0.0822931 0.0885762 0.0948556 0.101131 0.107253 0.11307 0.118581 0.123789 0.128691 0.133288 0.137581 0.141569 0.145208 0.148455 0.151309 0.15377 0.155838 0.157514 0.158797 0.159687 0.160222 0.160439 0.160338 0.159918 0.15918 0.158124 0.15675 0.155057 0.153119 0.151008 0.148723 0.146266 0.143635 0.140831 0.137854 0.134705 0.131449 0.128156 0.124824 0.121455 0.118048 0.114604 0.111121 0.107601 0.104084 0.100612 0.097186 0.093805 0.0904692 0.0871788 0.0839336 0.0807337 0.0775931 0.074526 0.0715324 0.0686123 0.0657657 0.0629926 0.0602929 0.0576667 0.0551112 0.0526236 0.0502038 0.0478519 0.0455678 0.0433517 0.0412034 0.0391229 0.0371035 0.035138 0.0332266 0.0313692 0.0295658 0.0278165 0.0261212 0.0244799 0.0228902 0.0213496 0.0198581 0.0184157 0.0170224 0.0156782 0.0143831 0.0131371 0.0119442 0.0108084 0.00972959 0.00870785 0.00774316 0.00683552 0.00598494 0.00519141 0.00445757 0.00378605 0.00317685 0.00262997 0.00214542 0.00172319 0.00136328 0.0010657 0.000815925 0.000599455 0.000416288 0.000266424 0.000149864 6.66061e-05 1.66515e-05 0 0 0.000230472 0.000921887 0.00207425 0.00368755 0.0057618 0.00829699 0.0112931 0.0147502 0.0186563 0.0229996 0.02778 0.0329976 0.0386523 0.0447441 0.0512731 0.0582393 0.0654208 0.0725959 0.0797647 0.0869271 0.0940831 0.101233 0.108376 0.115513 0.122474 0.129089 0.135359 0.141284 0.146863 0.152096 0.156984 0.161527 0.165674 0.169376 0.172633 0.175444 0.17781 0.179731 0.181207 0.182237 0.182864 0.183129 0.183032 0.182574 0.181753 0.180571 0.179027 0.177121 0.174936 0.172552 0.16997 0.16719 0.164212 0.161036 0.157662 0.15409 0.150397 0.146659 0.142876 0.139048 0.135176 0.131259 0.127297 0.123291 0.119287 0.115333 0.111429 0.107575 0.103771 0.100018 0.0963141 0.0926605 0.0890734 0.0855692 0.0821477 0.0788092 0.0755534 0.0723806 0.0692906 0.0662834 0.0633562 0.0605063 0.0577335 0.055038 0.0524196 0.0498784 0.0474144 0.0450276 0.0427104 0.040455 0.0382615 0.0361299 0.0340601 0.0320522 0.0301063 0.0282221 0.0263971 0.0246283 0.0229158 0.0212595 0.0196596 0.0181158 0.0166284 0.0151972 0.0138266 0.012521 0.0112803 0.0101045 0.0089937 0.00794782 0.00696688 0.00605089 0.00520292 0.00442607 0.00372033 0.00308571 0.0025222 0.00202982 0.00160855 0.00125839 0.000963455 0.000707844 0.000491558 0.000314597 0.000176961 7.86494e-05 1.96623e-05 0 0 0.000262654 0.00105062 0.00236389 0.00420247 0.00656635 0.00945555 0.01287 0.0168099 0.0212565 0.0261916 0.0316151 0.0375271 0.0439274 0.0508162 0.0581934 0.066059 0.0741641 0.0822595 0.0903455 0.0984218 0.106489 0.114546 0.122594 0.130632 0.138471 0.145922 0.152986 0.159662 0.165949 0.171849 0.177361 0.182485 0.187165 0.191344 0.195024 0.198204 0.200884 0.203063 0.204743 0.205923 0.206648 0.206967 0.206878 0.206382 0.205479 0.204168 0.20245 0.200324 0.197883 0.195218 0.192328 0.189214 0.185876 0.182313 0.178526 0.174515 0.170366 0.166165 0.161911 0.157605 0.153247 0.148836 0.144373 0.139859 0.135345 0.130886 0.126482 0.122133 0.117838 0.113599 0.109414 0.105283 0.101227 0.097263 0.0933915 0.0896125 0.085926 0.082332 0.0788305 0.0754215 0.0721022 0.0688698 0.0657244 0.0626659 0.0596943 0.0568096 0.0540118 0.051301 0.0486687 0.0461066 0.0436146 0.0411927 0.0388409 0.0365594 0.0343479 0.0322066 0.0301322 0.0281217 0.026175 0.0242921 0.022473 0.0207178 0.0190263 0.0173987 0.0158396 0.0143536 0.0129409 0.0116014 0.0103351 0.00914204 0.00802215 0.00697548 0.0060056 0.00511612 0.00430704 0.00357836 0.00293007 0.00236218 0.00187469 0.00146759 0.00112363 0.000825521 0.000573278 0.000366898 0.00020638 9.17246e-05 2.29311e-05 0 0 0.000296072 0.00118429 0.00266464 0.00473715 0.00740179 0.0106586 0.0145075 0.0189486 0.0239562 0.0295046 0.0355939 0.0422241 0.0493951 0.0571071 0.0653598 0.0741535 0.0832109 0.0922551 0.101286 0.110304 0.119308 0.128299 0.137277 0.146241 0.154983 0.163294 0.171173 0.178621 0.185637 0.192222 0.198376 0.204098 0.209326 0.213998 0.218114 0.221674 0.224679 0.227127 0.229019 0.230355 0.231186 0.231564 0.231487 0.230956 0.229972 0.228533 0.226641 0.224294 0.221595 0.218645 0.215443 0.21199 0.208285 0.20433 0.200122 0.195664 0.19105 0.186375 0.18164 0.176845 0.17199 0.167074 0.162098 0.157062 0.152025 0.147048 0.14213 0.137271 0.132471 0.127731 0.12305 0.118428 0.113887 0.109449 0.105112 0.100878 0.0967457 0.0927158 0.088788 0.0849624 0.0812364 0.0776072 0.0740749 0.0706395 0.0673009 0.0640592 0.0609144 0.0578664 0.0549062 0.0520247 0.0492219 0.0464977 0.0438522 0.0412854 0.0387973 0.0363878 0.0340535 0.0317908 0.0295997 0.0274803 0.0254325 0.0234563 0.0215517 0.0197188 0.0179625 0.016288 0.0146951 0.013184 0.0117546 0.010407 0.00914102 0.00795679 0.00685844 0.00585016 0.00493193 0.00410376 0.00336564 0.00271759 0.00215959 0.00169165 0.00129517 0.000951552 0.0006608 0.000422912 0.000237888 0.000105728 2.6432e-05 0 0 0.000330724 0.0013229 0.00297652 0.00529159 0.00826811 0.0119061 0.0162055 0.0211664 0.0267552 0.0329385 0.0397163 0.0470886 0.0550554 0.0636167 0.0727724 0.0825226 0.0925614 0.102583 0.112586 0.122572 0.132541 0.142492 0.152426 0.162342 0.172011 0.181204 0.189921 0.198162 0.205927 0.213216 0.220029 0.226366 0.232158 0.237337 0.241903 0.245856 0.249195 0.251922 0.254035 0.255535 0.256478 0.256919 0.256858 0.256296 0.255232 0.253667 0.2516 0.249031 0.246072 0.242833 0.239315 0.235518 0.231441 0.227086 0.222451 0.217536 0.212448 0.207291 0.202064 0.196769 0.191405 0.185973 0.180471 0.1749 0.169327 0.163818 0.158372 0.152989 0.14767 0.142415 0.137223 0.132095 0.127055 0.122126 0.11731 0.112605 0.108013 0.103532 0.0991631 0.0949063 0.0907589 0.0867185 0.0827852 0.0789589 0.0752396 0.0716273 0.0681221 0.0647239 0.0614229 0.0582094 0.0550834 0.0520449 0.0490939 0.0462304 0.0434543 0.0407658 0.0381608 0.0356356 0.03319 0.0308241 0.0285379 0.0263314 0.0242046 0.0221575 0.0201955 0.018324 0.0165429 0.0148524 0.0132523 0.0117426 0.0103235 0.00899482 0.00776144 0.00662816 0.00559498 0.0046619 0.00382891 0.00309603 0.00246324 0.00193055 0.00147808 0.00108594 0.000754123 0.000482638 0.000271484 0.00012066 3.01649e-05 0 0 0.000366613 0.00146645 0.00329951 0.0058658 0.00916531 0.0131981 0.017964 0.0234632 0.0296536 0.0364934 0.0439824 0.0521206 0.0609082 0.070345 0.0804311 0.0911665 0.102215 0.113242 0.124246 0.135228 0.146188 0.157125 0.16804 0.178933 0.189553 0.199652 0.209229 0.218285 0.226818 0.23483 0.242321 0.249289 0.255661 0.261361 0.26639 0.270747 0.274433 0.277448 0.279791 0.281462 0.282523 0.283033 0.282993 0.282402 0.281261 0.279569 0.277327 0.274534 0.271312 0.267782 0.263944 0.259798 0.255344 0.250581 0.245511 0.240132 0.234561 0.228911 0.223183 0.217378 0.211494 0.205532 0.199492 0.193374 0.187251 0.181196 0.175208 0.169288 0.163436 0.157651 0.151934 0.146284 0.140729 0.135296 0.129984 0.124795 0.119727 0.11478 0.109956 0.105253 0.10067 0.0962037 0.0918552 0.087624 0.0835103 0.0795139 0.0756349 0.0718733 0.0682187 0.0646607 0.0611992 0.0578343 0.054566 0.0513943 0.0483191 0.0453405 0.0424542 0.039656 0.0369457 0.0343235 0.0317893 0.0293432 0.026985 0.0247149 0.0225386 0.0204617 0.0184843 0.0166064 0.014828 0.013149 0.0115695 0.0100896 0.00871459 0.00745013 0.0062962 0.00525278 0.00431988 0.00349751 0.00278565 0.00218431 0.00167236 0.00122868 0.000853247 0.000546078 0.000307169 0.000136519 3.41299e-05 0 0 0.000403736 0.00161494 0.00363362 0.00645977 0.0100934 0.0145345 0.0197831 0.0258391 0.0326515 0.0401691 0.048392 0.0573201 0.0669535 0.0772921 0.088336 0.100085 0.112173 0.124233 0.136266 0.148271 0.160248 0.172198 0.18412 0.196015 0.207611 0.218639 0.229098 0.238989 0.248311 0.257065 0.265251 0.272867 0.279834 0.28607 0.291576 0.29635 0.300393 0.303705 0.306286 0.308137 0.309321 0.309906 0.30989 0.309273 0.308057 0.30624 0.303822 0.300804 0.297318 0.293493 0.289331 0.284831 0.279993 0.274817 0.269304 0.263452 0.257388 0.251237 0.244997 0.23867 0.232255 0.225752 0.219162 0.212484 0.205798 0.199183 0.192639 0.186168 0.179767 0.173438 0.167181 0.160995 0.15491 0.148957 0.143136 0.137446 0.131888 0.126461 0.121166 0.116003 0.110969 0.106063 0.101285 0.0966349 0.0921129 0.0877189 0.0834529 0.0793148 0.0752937 0.0713785 0.0675692 0.0638659 0.0602685 0.0567771 0.0533916 0.050112 0.0469337 0.043852 0.040867 0.0379785 0.0351867 0.0324915 0.0298929 0.0273909 0.0249916 0.0227011 0.0205192 0.0184461 0.0164817 0.0146261 0.0128792 0.011241 0.0097179 0.00831608 0.00703559 0.00587641 0.00483856 0.00392202 0.00312681 0.00245292 0.00187802 0.00137977 0.000958172 0.00061323 0.000344942 0.000153307 3.83269e-05 0 0 0.000442095 0.00176838 0.00397885 0.00707351 0.0110524 0.0159154 0.0216626 0.028294 0.0357488 0.0439658 0.0529453 0.0626872 0.0731914 0.084458 0.096487 0.109278 0.122434 0.135557 0.148645 0.161701 0.174723 0.187711 0.200666 0.213587 0.226184 0.238164 0.249528 0.260275 0.270406 0.279921 0.288819 0.297101 0.304679 0.311465 0.31746 0.322663 0.327074 0.330694 0.333522 0.335559 0.336873 0.337537 0.337549 0.33691 0.33562 0.333679 0.331086 0.327841 0.324087 0.319965 0.315474 0.310615 0.305388 0.299792 0.293828 0.287496 0.280931 0.274267 0.267506 0.260646 0.253689 0.246633 0.23948 0.232228 0.224966 0.217778 0.210665 0.203627 0.196665 0.189777 0.182965 0.176228 0.169598 0.163111 0.156765 0.15056 0.144496 0.138575 0.132794 0.127155 0.121656 0.116296 0.111074 0.105992 0.101048 0.0962424 0.091576 0.0870483 0.0826478 0.0783629 0.0741935 0.0701397 0.0662015 0.0623789 0.0586718 0.0550803 0.0515993 0.0482238 0.0449538 0.0417892 0.0387301 0.0357764 0.0329283 0.0301856 0.0275547 0.0250421 0.0226477 0.0203716 0.0182136 0.0161739 0.0142525 0.0124492 0.0107714 0.009226 0.00781314 0.00653278 0.00538493 0.00436958 0.00348673 0.00273638 0.00209504 0.00153921 0.0010689 0.000684095 0.000384803 0.000171024 4.27559e-05 0 0 0.000481688 0.00192675 0.0043352 0.00770701 0.0120422 0.0173408 0.0236027 0.0308281 0.0389454 0.0478835 0.0576422 0.0682217 0.0796218 0.0918427 0.104884 0.118746 0.132999 0.147212 0.161385 0.175518 0.189611 0.203664 0.217677 0.231651 0.245272 0.258227 0.270518 0.282143 0.293102 0.303397 0.313026 0.32199 0.330194 0.337545 0.344043 0.349687 0.354477 0.358414 0.361498 0.363728 0.365179 0.365927 0.365972 0.365313 0.363951 0.361886 0.359117 0.355645 0.351622 0.347198 0.342375 0.337152 0.33153 0.325507 0.319085 0.312263 0.305187 0.298003 0.290709 0.283306 0.275795 0.268175 0.260446 0.252608 0.244756 0.236981 0.229285 0.221668 0.214129 0.206668 0.199286 0.191982 0.1