<?xml version="1.0"?> 
<VTKFile type="StructuredGrid" version="0.1"> 
<StructuredGrid WholeExtent="0 128 0 128 0 0"> 
<Piece Extent="0 128 0 128 0 0"> 
<PointData>
<DataArray type="Float32" Name="u" format="ascii" NumberOfComponents="1"> 
0 0 0 0 0 0 0 0 0 0 0 0 0 0 0 0 0 0 0 0 0 0 0 0 0 0 0 0 0 0 0 0 0 0 0 0 0 0 0 0 0 0 0 0 0 0 0 0 0 0 0 0 0 0 0 0 0 0 0 0 0 0 0 0 0 0 0 0 0 0 0 0 0 0 0 0 0 0 0 0 0 0 0 0 0 0 0 0 0 0 0 0 0 0 0 0 0 0 0 0 0 0 0 0 0 0 0 0 0 0 0 0 0 0 0 0 0 0 0 0 0 0 0 0 0 0 0 0 0 0 2.21165e-06 8.8466e-06 1.99049e-05 3.53864e-05 5.52913e-05 7.96194e-05 0.000108371 0.000141546 0.000179248 0.000221583 0.000268549 0.000320148 0.000376378 0.000437241 0.000502736 0.000572863 0.000645215 0.000717384 0.000789371 0.000861176 0.000932798 0.00100424 0.0010755 0.00114657 0.00121565 0.00128093 0.00134239 0.00140005 0.00145391 0.00150396 0.0015502 0.00159263 0.00163082 0.0016643 0.00169309 0.00171717 0.00173656 0.00175125 0.00176124 0.00176654 0.00176763 0.00176503 0.00175874 0.00174874 0.00173505 0.00171766 0.00169658 0.0016718 0.0016442 0.00161465 0.00158315 0.00154971 0.00151432 0.00147699 0.00143771 0.00139648 0.00135412 0.00131145 0.00126847 0.00122517 0.00118155 0.00113763 0.00109339 0.00104883 0.0010045 0.000960942 0.000918147 0.000876118 0.000834856 0.00079436 0.000754631 0.000715668 0.000677695 0.000640938 0.000605396 0.00057107 0.000537958 0.000506062 0.000475381 0.000445915 0.00041765 0.000390571 0.000364677 0.00033997 0.000316448 0.000294112 0.000272962 0.000252998 0.00023409 0.00021611 0.000199058 0.000182933 0.000167736 0.000153466 0.000140124 0.000127709 0.000116087 0.000105123 9.48157e-05 8.51663e-05 7.61744e-05 6.784e-05 6.01632e-05 5.3144e-05 4.66915e-05 4.0715e-05 3.52144e-05 3.01898e-05 2.56411e-05 2.15685e-05 1.79717e-05 1.4851e-05 1.21224e-05 9.70237e-06 7.59078e-06 5.78767e-06 4.29302e-06 3.10685e-06 2.22916e-06 1.65994e-06 1.27089e-06 9.33715e-07 6.48413e-07 4.14984e-07 2.33429e-07 1.03746e-07 2.59365e-08 0 0 8.8466e-06 3.53864e-05 7.96194e-05 0.000141546 0.000221165 0.000318478 0.000433483 0.000566182 0.000716992 0.00088633 0.0010742 0.00128059 0.00150551 0.00174896 0.00201094 0.00229145 0.00258086 0.00286954 0.00315748 0.0034447 0.00373119 0.00401695 0.00430198 0.00458628 0.0048626 0.0051237 0.00536957 0.00560022 0.00581564 0.00601583 0.00620079 0.00637053 0.00652326 0.0066572 0.00677234 0.00686869 0.00694625 0.00700501 0.00704498 0.00706615 0.00707053 0.00706013 0.00703494 0.00699497 0.0069402 0.00687065 0.00678632 0.0066872 0.00657679 0.00645859 0.00633261 0.00619885 0.00605729 0.00590796 0.00575083 0.00558592 0.00541649 0.0052458 0.00507386 0.00490067 0.00472621 0.00455051 0.00437354 0.00419533 0.00401802 0.00384377 0.00367259 0.00350447 0.00333942 0.00317744 0.00301852 0.00286267 0.00271078 0.00256375 0.00242159 0.00228428 0.00215183 0.00202425 0.00190152 0.00178366 0.0016706 0.00156228 0.00145871 0.00135988 0.00126579 0.00117645 0.00109185 0.00101199 0.00093636 0.00086444 0.000796231 0.000731732 0.000670943 0.000613864 0.000560495 0.000510837 0.000464349 0.000420491 0.000379263 0.000340665 0.000304698 0.00027136 0.000240653 0.000212576 0.000186766 0.00016286 0.000140858 0.000120759 0.000102565 8.62738e-05 7.18869e-05 5.94039e-05 4.84898e-05 3.88095e-05 3.03631e-05 2.31507e-05 1.71721e-05 1.24274e-05 8.91663e-06 6.63975e-06 5.08356e-06 3.73486e-06 2.59365e-06 1.65994e-06 9.33715e-07 4.14984e-07 1.03746e-07 0 0 1.99049e-05 7.96194e-05 0.000179144 0.000318478 0.000497621 0.000716575 0.000975338 0.00127391 0.00161323 0.00199424 0.00241694 0.00288133 0.00338741 0.00393517 0.00452462 0.00515577 0.00580693 0.00645646 0.00710434 0.00775058 0.00839518 0.00903814 0.00967946 0.0103191 0.0109409 0.0115283 0.0120815 0.0126005 0.0130852 0.0135356 0.0139518 0.0143337 0.0146773 0.0149787 0.0152378 0.0154546 0.0156291 0.0157613 0.0158512 0.0158988 0.0159087 0.0158853 0.0158286 0.0157387 0.0156155 0.015459 0.0152692 0.0150462 0.0147978 0.0145318 0.0142484 0.0139474 0.0136289 0.0132929 0.0129394 0.0125683 0.0121871 0.0118031 0.0114162 0.0110265 0.010634 0.0102386 0.00984048 0.00943949 0.00904054 0.00864848 0.00826332 0.00788507 0.0075137 0.00714924 0.00679168 0.00644101 0.00609926 0.00576844 0.00544857 0.00513963 0.00484162 0.00455456 0.00427843 0.00401324 0.00375885 0.00351514 0.00328209 0.00305973 0.00284803 0.00264701 0.00245666 0.00227698 0.00210681 0.00194499 0.00179152 0.0016464 0.00150962 0.00138119 0.00126111 0.00114938 0.00104478 0.000946104 0.000853341 0.000766496 0.000685569 0.00061056 0.000541469 0.000478296 0.000420224 0.000366435 0.00031693 0.000271708 0.00023077 0.000194116 0.000161746 0.000133659 0.000109102 8.73214e-05 6.8317e-05 5.2089e-05 3.86372e-05 2.79617e-05 2.00624e-05 1.49394e-05 1.1438e-05 8.40343e-06 5.83572e-06 3.73486e-06 2.10086e-06 9.33715e-07 2.33429e-07 0 0 3.53864e-05 0.000141546 0.000318478 0.000566182 0.00088466 0.00127391 0.00173393 0.00226473 0.00286797 0.00354532 0.00429679 0.00512236 0.00602205 0.00699586 0.00804378 0.00916581 0.0103234 0.0114781 0.0126299 0.0137788 0.0149248 0.0160678 0.0172079 0.0183451 0.0194504 0.0204948 0.0214783 0.0224009 0.0232625 0.0240633 0.0248032 0.0254821 0.0260931 0.0266288 0.0270894 0.0274748 0.027785 0.02802 0.0281799 0.0282646 0.0282821 0.0282405 0.0281398 0.0279799 0.0277608 0.0274826 0.0271453 0.0267488 0.0263071 0.0258344 0.0253305 0.0247954 0.0242292 0.0236318 0.0230033 0.0223437 0.021666 0.0209832 0.0202954 0.0196027 0.0189049 0.018202 0.0174942 0.0167813 0.0160721 0.0153751 0.0146904 0.0140179 0.0133577 0.0127098 0.0120741 0.0114507 0.0108431 0.010255 0.00968634 0.00913711 0.00860733 0.00809699 0.0076061 0.00713464 0.0066824 0.00624913 0.00583483 0.00543951 0.00506316 0.00470579 0.00436739 0.00404796 0.00374544 0.00345776 0.00318492 0.00292693 0.00268377 0.00245545 0.00224198 0.00204335 0.00185739 0.00168196 0.00151705 0.00136266 0.00121879 0.00108544 0.000962612 0.000850304 0.000747064 0.000651439 0.00056343 0.000483037 0.000410258 0.000345095 0.000287548 0.000237616 0.000193959 0.000155238 0.000121453 9.26027e-05 6.86884e-05 4.97097e-05 3.56665e-05 2.6559e-05 2.03342e-05 1.49394e-05 1.03746e-05 6.63975e-06 3.73486e-06 1.65994e-06 4.14984e-07 0 0 5.52913e-05 0.000221165 0.000497621 0.00088466 0.00138228 0.00199049 0.00270927 0.00353864 0.0044812 0.00553956 0.00671373 0.00800369 0.00940946 0.010931 0.0125684 0.0143216 0.0161304 0.0179346 0.0197343 0.0215294 0.0233199 0.0251059 0.0268874 0.0286643 0.0303913 0.0320231 0.0335598 0.0350014 0.0363477 0.0375989 0.038755 0.0398158 0.0407704 0.0416075 0.0423272 0.0429293 0.0434141 0.0437813 0.0440311 0.0441634 0.0441908 0.0441258 0.0439684 0.0437185 0.0433763 0.0429416 0.0424145 0.041795 0.0411049 0.0403662 0.0395788 0.0387428 0.0378581 0.0369247 0.0359427 0.034912 0.0338531 0.0327863 0.0317116 0.0306292 0.0295388 0.0284407 0.0273347 0.0262208 0.0251126 0.0240236 0.0229537 0.021903 0.0208714 0.019859 0.0188658 0.0178917 0.0169424 0.0160235 0.0151349 0.0142767 0.013449 0.0126515 0.0118845 0.0111479 0.0104413 0.00976427 0.00911693 0.00849924 0.00791119 0.0073528 0.00682404 0.00632494 0.00585225 0.00540275 0.00497644 0.00457332 0.00419339 0.00383665 0.00350309 0.00319273 0.00290218 0.00262807 0.00237039 0.00212916 0.00190436 0.001696 0.00150408 0.0013286 0.00116729 0.00101787 0.00088036 0.000754745 0.000641028 0.000539211 0.000449293 0.000371274 0.000303061 0.000242559 0.00018977 0.000144692 0.000107326 7.76713e-05 5.5729e-05 4.14984e-05 3.17722e-05 2.33429e-05 1.62103e-05 1.03746e-05 5.83572e-06 2.59365e-06 6.48413e-07 0 0 7.96194e-05 0.000318478 0.000716575 0.00127391 0.00199049 0.0028663 0.00390135 0.00509564 0.00645293 0.00797697 0.00966777 0.0115253 0.0135496 0.0157407 0.0180985 0.0206231 0.0232277 0.0258258 0.0284174 0.0310023 0.0335807 0.0361526 0.0387178 0.0412765 0.0437634 0.0461133 0.0483261 0.050402 0.0523407 0.0541424 0.0558071 0.0573348 0.0587094 0.0599148 0.0609511 0.0618182 0.0625162 0.0630451 0.0634048 0.0635954 0.0636348 0.0635412 0.0633145 0.0629547 0.0624618 0.0618359 0.0610769 0.0601848 0.0591911 0.0581273 0.0569935 0.0557896 0.0545156 0.0531716 0.0517575 0.0502733 0.0487484 0.0472122 0.0456648 0.044106 0.0425359 0.0409546 0.0393619 0.0377579 0.0361621 0.0345939 0.0330533 0.0315403 0.0300548 0.028597 0.0271667 0.025764 0.024397 0.0230738 0.0217943 0.0205585 0.0193665 0.0182182 0.0171137 0.0160529 0.0150354 0.0140605 0.0131284 0.0122389 0.0113921 0.010588 0.00982662 0.00910791 0.00842724 0.00777996 0.00716608 0.00658558 0.00603848 0.00552477 0.00504446 0.00459753 0.00417914 0.00378441 0.00341336 0.00306599 0.00274228 0.00244224 0.00216588 0.00191318 0.00168089 0.00146574 0.00126772 0.00108683 0.000923081 0.000776464 0.000646982 0.000534635 0.000436408 0.000349285 0.000273268 0.000208356 0.000154549 0.000111847 8.02497e-05 5.97577e-05 4.5752e-05 3.36137e-05 2.33429e-05 1.49394e-05 8.40343e-06 3.73486e-06 9.33715e-07 0 0 0.000108371 0.000433483 0.000975338 0.00173393 0.00270927 0.00390135 0.00531017 0.00693574 0.00878315 0.0108575 0.0131589 0.0156872 0.0184425 0.0214248 0.0246341 0.0280703 0.0316155 0.0351518 0.0386792 0.0421976 0.0457071 0.0492077 0.0526993 0.056182 0.0595669 0.0627653 0.0657773 0.0686027 0.0712415 0.0736939 0.0759597 0.078039 0.07991 0.0815507 0.0829612 0.0841415 0.0850915 0.0858114 0.086301 0.0865603 0.086614 0.0864866 0.086178 0.0856883 0.0850175 0.0841655 0.0831324 0.0819181 0.0805656 0.0791178 0.0775745 0.0759359 0.0742018 0.0723725 0.0704477 0.0684275 0.066352 0.0642611 0.0621548 0.0600331 0.0578961 0.0557437 0.0535759 0.0513928 0.0492207 0.0470862 0.0449892 0.0429298 0.0409079 0.0389236 0.0369769 0.0350677 0.0332071 0.031406 0.0296644 0.0279824 0.02636 0.024797 0.0232937 0.0218498 0.0204649 0.019138 0.0178692 0.0166585 0.0155059 0.0144115 0.0133751 0.0123969 0.0114704 0.0105894 0.00975383 0.00896371 0.00821905 0.00751983 0.00686606 0.00625775 0.00568827 0.00515101 0.00464597 0.00417315 0.00373254 0.00332416 0.002948 0.00260406 0.00228788 0.00199503 0.00172551 0.0014793 0.00125642 0.00105685 0.000880615 0.000727698 0.000594 0.000475416 0.000371948 0.000283596 0.000210358 0.000152236 0.000109229 8.13369e-05 6.22736e-05 4.5752e-05 3.17722e-05 2.03342e-05 1.1438e-05 5.08356e-06 1.27089e-06 0 0 0.000141546 0.000566182 0.00127391 0.00226473 0.00353864 0.00509564 0.00693574 0.00905892 0.0114719 0.0141813 0.0171871 0.0204895 0.0240882 0.0279834 0.0321751 0.0366632 0.0412937 0.0459126 0.0505197 0.0551152 0.0596991 0.0642712 0.0688317 0.0733805 0.0778017 0.0819792 0.0859132 0.0896035 0.0930502 0.0962532 0.0992127 0.101929 0.104372 0.106515 0.108358 0.109899 0.11114 0.11208 0.11272 0.113058 0.113129 0.112962 0.112559 0.111919 0.111043 0.10993 0.108581 0.106995 0.105229 0.103337 0.101322 0.0991815 0.0969167 0.0945273 0.0920133 0.0893747 0.0866638 0.0839328 0.0811818 0.0784106 0.0756194 0.0728081 0.0699767 0.0671252 0.0642882 0.0615003 0.0587614 0.0560716 0.0534308 0.050839 0.0482964 0.0458027 0.0433725 0.04102 0.0387454 0.0365485 0.0344293 0.032388 0.0304244 0.0285386 0.0267296 0.0249965 0.0233393 0.021758 0.0202527 0.0188232 0.0174696 0.0161918 0.0149818 0.013831 0.0127397 0.0117077 0.0107351 0.00982182 0.00896792 0.00817339 0.00742958 0.00672785 0.0060682 0.00545064 0.00487516 0.00434176 0.00385045 0.00340122 0.00298826 0.00260576 0.00225372 0.00193215 0.00164103 0.00138038 0.00115019 0.000950463 0.000775836 0.000620952 0.00048581 0.000370411 0.000274753 0.000198839 0.000142666 0.000106236 8.13369e-05 5.97577e-05 4.14984e-05 2.6559e-05 1.49394e-05 6.63975e-06 1.65994e-06 0 0 0.000179747 0.000718988 0.00161772 0.00287595 0.00449367 0.00647089 0.0088076 0.0115038 0.0145665 0.0180027 0.0218124 0.0259956 0.0305524 0.0354826 0.0407863 0.0464636 0.0523198 0.0581605 0.0639857 0.0697954 0.0755896 0.0813683 0.0871315 0.0928791 0.0984652 0.103744 0.108714 0.113377 0.117733 0.12178 0.12552 0.128952 0.132041 0.13475 0.13708 0.139029 0.1406 0.14179 0.142602 0.143033 0.143125 0.142919 0.142414 0.14161 0.140507 0.139105 0.137405 0.135406 0.133179 0.130794 0.128251 0.125551 0.122693 0.119678 0.116504 0.113174 0.109751 0.106303 0.102829 0.0993285 0.0958026 0.0922509 0.0886733 0.0850699 0.0814843 0.0779602 0.0744976 0.0710966 0.0677571 0.0644792 0.0612627 0.0581078 0.0550327 0.0520556 0.0491765 0.0463955 0.0437125 0.0411275 0.0386405 0.0362516 0.0339596 0.0317635 0.0296633 0.0276589 0.0257505 0.0239379 0.0222212 0.0206004 0.0190651 0.017605 0.0162199 0.01491 0.0136753 0.0125157 0.0114312 0.0104219 0.00947676 0.008585 0.00774657 0.00696147 0.00622971 0.00555128 0.00492619 0.00435443 0.00382864 0.00334147 0.0028929 0.00248293 0.00211158 0.00177883 0.0014847 0.00122917 0.00100548 0.000806889 0.00063338 0.000484957 0.000361621 0.000263371 0.000190209 0.000142132 0.00010882 7.99494e-05 5.55204e-05 3.5533e-05 1.99873e-05 8.88326e-06 2.22082e-06 0 0 0.000223578 0.000894312 0.0020122 0.00357725 0.00558945 0.00804881 0.0109553 0.014309 0.0181145 0.0223764 0.0270947 0.0322695 0.0379007 0.0439884 0.0505325 0.057533 0.0647512 0.0719481 0.0791239 0.0862784 0.0934118 0.100524 0.107615 0.114685 0.121555 0.128047 0.134161 0.139897 0.145255 0.150234 0.154836 0.15906 0.162861 0.166197 0.169067 0.171471 0.173409 0.174881 0.175888 0.176428 0.176552 0.176309 0.175699 0.174721 0.173377 0.171665 0.169587 0.167141 0.164415 0.161494 0.158378 0.155068 0.151564 0.147865 0.143971 0.139883 0.135681 0.131446 0.127178 0.122877 0.118543 0.114175 0.109775 0.105341 0.100928 0.0965897 0.0923256 0.088136 0.0840208 0.07998 0.0760137 0.0721218 0.0683271 0.0646523 0.0610974 0.0576624 0.0543473 0.0511521 0.0480767 0.0451213 0.0422848 0.0395662 0.0369655 0.0344826 0.0321177 0.0298706 0.0277415 0.0257302 0.0238243 0.0220112 0.0202908 0.0186632 0.0171284 0.0156863 0.0143371 0.0130806 0.0119035 0.0107925 0.00974756 0.00876864 0.00785577 0.00700895 0.00622819 0.00551347 0.00485568 0.00424571 0.00368356 0.00316922 0.00270271 0.002284 0.00191312 0.00159005 0.00130651 0.00105422 0.000833183 0.000643391 0.000484847 0.000357551 0.000261503 0.000196703 0.000150601 0.000110645 7.68371e-05 4.91757e-05 2.76613e-05 1.22939e-05 3.07348e-06 0 0 0.000273039 0.00109215 0.00245735 0.00436862 0.00682597 0.00982939 0.0133789 0.0174745 0.0221157 0.0273022 0.033034 0.039311 0.0461332 0.0535008 0.0614135 0.0698715 0.0785878 0.0872754 0.0959342 0.104564 0.113166 0.121738 0.130282 0.138797 0.14707 0.154889 0.162253 0.169162 0.175616 0.181616 0.187161 0.192251 0.196833 0.200856 0.20432 0.207224 0.209568 0.211353 0.212578 0.213243 0.213408 0.213131 0.212413 0.211254 0.209653 0.20761 0.205126 0.2022 0.198937 0.195437 0.191703 0.187733 0.183529 0.179089 0.174413 0.169503 0.164454 0.159363 0.15423 0.149056 0.143839 0.138581 0.133281 0.127939 0.12262 0.117389 0.112245 0.10719 0.102222 0.0973416 0.0925493 0.0878447 0.0832557 0.0788101 0.0745079 0.0703491 0.0663337 0.0624617 0.058733 0.0551478 0.0517052 0.0484046 0.0452459 0.0422291 0.0393542 0.0366213 0.0340303 0.0315813 0.0292593 0.0270496 0.0249523 0.0229672 0.0210943 0.0193338 0.0176856 0.0161496 0.0147099 0.0133504 0.0120712 0.0108722 0.00975335 0.00871478 0.00775644 0.00687833 0.00606937 0.0053185 0.00462571 0.00399102 0.00341441 0.00289589 0.00243545 0.00203311 0.00167892 0.00136296 0.00108522 0.000845712 0.00064443 0.000481376 0.000356548 0.000269948 0.000206679 0.000151846 0.000105448 6.7487e-05 3.79614e-05 1.68717e-05 4.21794e-06 0 0 0.000328129 0.00131252 0.00295316 0.00525007 0.00820323 0.0118127 0.0160783 0.0210003 0.0265703 0.0327803 0.0396302 0.0471201 0.05525 0.0640198 0.0734295 0.0834792 0.0938298 0.104142 0.114417 0.124653 0.134851 0.145011 0.155133 0.165217 0.175012 0.18427 0.192991 0.201173 0.208818 0.215924 0.222494 0.228525 0.233957 0.238728 0.242838 0.246288 0.249077 0.251205 0.252672 0.253479 0.253694 0.253387 0.252558 0.251207 0.249334 0.24694 0.244023 0.240584 0.236744 0.232625 0.228226 0.223547 0.218588 0.213349 0.207831 0.202033 0.196069 0.190053 0.183985 0.177865 0.171692 0.165468 0.159192 0.152863 0.14656 0.140357 0.134257 0.128258 0.12236 0.116564 0.110869 0.105276 0.0998185 0.0945291 0.0894081 0.0844557 0.0796718 0.0750563 0.0706094 0.066331 0.0622208 0.0582787 0.0545045 0.0508983 0.0474601 0.0441899 0.0410877 0.0381535 0.0353701 0.0327204 0.0302044 0.0278219 0.0255732 0.0234581 0.0214767 0.0196289 0.0178959 0.0162587 0.0147174 0.013272 0.0119225 0.0106688 0.00951095 0.00844901 0.0074697 0.00655982 0.00571936 0.00494831 0.00424669 0.00361449 0.00305171 0.00255834 0.0021227 0.00173309 0.00138949 0.00109192 0.000840372 0.000634848 0.000475346 0.000361867 0.000277055 0.00020355 0.000141354 9.04669e-05 5.08876e-05 2.26167e-05 5.65418e-06 0 0 0.00038885 0.0015554 0.00349965 0.00622159 0.00972124 0.0139986 0.0190536 0.0248864 0.0314782 0.0388106 0.0468835 0.0556969 0.0652509 0.0755454 0.0865804 0.0983559 0.110477 0.122549 0.134571 0.146544 0.158468 0.170342 0.182167 0.193943 0.20538 0.216191 0.226374 0.23593 0.244859 0.25316 0.260835 0.267882 0.274232 0.279812 0.284622 0.288663 0.291935 0.294437 0.296171 0.297134 0.297409 0.297075 0.296133 0.294582 0.292422 0.289654 0.286277 0.282292 0.277838 0.273056 0.267946 0.262508 0.256742 0.250647 0.244225 0.237474 0.230527 0.223517 0.216442 0.209304 0.202103 0.194837 0.187508 0.180114 0.172747 0.165496 0.15836 0.15134 0.144436 0.137647 0.130974 0.124417 0.118016 0.111809 0.105798 0.0999822 0.0943615 0.0889361 0.0837059 0.0786709 0.0738316 0.0691884 0.0647413 0.0604903 0.0564353 0.0525765 0.0489137 0.045447 0.0421568 0.0390235 0.0360471 0.0332276 0.0305649 0.0280592 0.0257104 0.0235184 0.0214614 0.0195174 0.0176863 0.0159682 0.0143631 0.0128709 0.0114917 0.0102255 0.00905669 0.00796968 0.00696449 0.00604111 0.00519955 0.0044398 0.00376187 0.00316576 0.00263787 0.00216461 0.001746 0.00138202 0.00107267 0.000817966 0.000617895 0.000472461 0.000361728 0.00026576 0.000184555 0.000118115 6.64399e-05 2.95288e-05 7.38221e-06 0 0 0.0004552 0.0018208 0.0040968 0.00728319 0.01138 0.0163872 0.0223048 0.0291328 0.0368395 0.0453931 0.0547938 0.0650414 0.076136 0.0880776 0.100866 0.114502 0.128529 0.142495 0.156398 0.170238 0.184016 0.197732 0.211385 0.224976 0.238174 0.25065 0.262402 0.273432 0.283739 0.293324 0.302185 0.310324 0.317658 0.324107 0.329671 0.33435 0.338143 0.341051 0.343073 0.34421 0.344554 0.344196 0.343137 0.341377 0.338916 0.335753 0.331889 0.327324 0.322217 0.316731 0.310864 0.304617 0.297989 0.290982 0.283593 0.275825 0.267828 0.259754 0.251603 0.243374 0.235069 0.226687 0.218228 0.209692 0.201183 0.192803 0.184555 0.176436 0.168448 0.160591 0.152864 0.145267 0.137847 0.13065 0.123678 0.116928 0.110403 0.104101 0.0980224 0.0921676 0.0865377 0.0811339 0.0759564 0.0710051 0.0662799 0.061781 0.0575083 0.0534617 0.0496193 0.0459589 0.0424804 0.039184 0.0360695 0.0331371 0.0303867 0.0278182 0.0254065 0.0231264 0.0209778 0.0189607 0.0170752 0.0153212 0.0136987 0.0122078 0.0108303 0.00954808 0.00836111 0.00726941 0.00627299 0.00537184 0.00456596 0.00385535 0.00322441 0.00265754 0.00215474 0.001716 0.00134133 0.00103073 0.000784196 0.00060173 0.000460699 0.000338473 0.000235051 0.000150432 8.46183e-05 3.76081e-05 9.40203e-06 0 0 0.000527179 0.00210872 0.00474462 0.00843487 0.0131795 0.0189785 0.0258318 0.0337395 0.042654 0.0525279 0.063361 0.0751535 0.0879053 0.101616 0.116287 0.131917 0.147987 0.163981 0.179897 0.195735 0.211497 0.227181 0.242787 0.258316 0.273395 0.287648 0.301077 0.313681 0.32546 0.336414 0.346543 0.355848 0.364236 0.371615 0.377986 0.383347 0.3877 0.391044 0.39338 0.394706 0.395128 0.39475 0.393572 0.391594 0.388816 0.385237 0.380858 0.37568 0.369883 0.36365 0.35698 0.349874 0.342332 0.334353 0.325938 0.317087 0.307971 0.298764 0.289465 0.280075 0.270593 0.261019 0.251353 0.241596 0.231866 0.222281 0.212841 0.203547 0.194399 0.185395 0.176537 0.167825 0.159312 0.151053 0.143047 0.135295 0.127796 0.120551 0.113559 0.106821 0.100339 0.0941151 0.0881497 0.0824426 0.0769939 0.0718035 0.0668714 0.0621977 0.0577576 0.0535265 0.0495044 0.0456912 0.042087 0.0386918 0.0355055 0.0325283 0.0297312 0.0270858 0.0245919 0.0222496 0.0200588 0.0180197 0.016132 0.014396 0.0127906 0.011295 0.00990922 0.00863322 0.00746701 0.00641058 0.00546396 0.00462712 0.00388233 0.00321186 0.00261571 0.00209387 0.00164635 0.00127314 0.000974249 0.000749673 0.000573968 0.000421691 0.000292841 0.000187418 0.000105423 4.68545e-05 1.17136e-05 0 0 0.000604789 0.00241916 0.0054431 0.00967662 0.0151197 0.0217724 0.0296347 0.0387065 0.0489219 0.0602148 0.0725853 0.0860333 0.100559 0.116162 0.132842 0.150601 0.16885 0.187006 0.205068 0.223035 0.240908 0.258688 0.276373 0.293964 0.311041 0.327185 0.342396 0.356675 0.37002 0.382432 0.39391 0.404456 0.413966 0.422336 0.429566 0.435656 0.440607 0.444419 0.44709 0.448623 0.449132 0.448737 0.447437 0.445232 0.442121 0.438106 0.433186 0.42736 0.420834 0.413812 0.406294 0.398279 0.389768 0.380761 0.371258 0.361259 0.350957 0.340548 0.330031 0.319406 0.308673 0.297832 0.286884 0.275827 0.264797 0.253928 0.24322 0.232672 0.222286 0.212061 0.201996 0.192092 0.182412 0.173016 0.163906 0.155081 0.14654 0.138286 0.130316 0.122631 0.115235 0.108132 0.101321 0.0948029 0.0885771 0.0826439 0.0770031 0.0716548 0.0665717 0.0617264 0.057119 0.0527493 0.0486174 0.0447233 0.041067 0.0376486 0.0344356 0.0313956 0.0285287 0.0258348 0.023314 0.0209663 0.0187916 0.0167899 0.0149375 0.0132105 0.0116088 0.0101325 0.0087816 0.00755605 0.00645587 0.00548106 0.00461163 0.00382758 0.00312892 0.00251563 0.00198772 0.0015452 0.00118805 0.00091629 0.000701535 0.000515413 0.000357926 0.000229073 0.000128853 5.72681e-05 1.4317e-05 0 0 0.000686332 0.00274533 0.00617699 0.0109813 0.0171583 0.024708 0.0336303 0.0439253 0.0555062 0.0682866 0.0822662 0.0974452 0.113824 0.131401 0.150178 0.170154 0.190674 0.211081 0.231374 0.251555 0.271623 0.291578 0.311421 0.33115 0.3503 0.368404 0.385463 0.401476 0.416444 0.430366 0.443243 0.455074 0.465745 0.475141 0.483263 0.49011 0.495682 0.49998 0.503003 0.504752 0.505357 0.504948 0.503527 0.501092 0.497644 0.493183 0.487708 0.481221 0.473948 0.466116 0.457726 0.448778 0.439271 0.429206 0.418583 0.407401 0.395877 0.384228 0.372453 0.360553 0.348528 0.336377 0.324101 0.3117 0.299323 0.287123 0.275099 0.263251 0.25158 0.240084 0.228764 0.217621 0.206724 0.196145 0.185883 0.175938 0.166311 0.157001 0.148008 0.139333 0.130981 0.122956 0.115259 0.10789 0.100849 0.0941356 0.0877501 0.0816924 0.0759325 0.0704405 0.0652164 0.0602601 0.0555718 0.0511513 0.0469986 0.0431138 0.0394608 0.0360033 0.0327414 0.0296751 0.0268044 0.0241293 0.0216497 0.0193657 0.0172504 0.0152768 0.013445 0.0117549 0.0102065 0.00879983 0.00753492 0.00641173 0.00540798 0.00450135 0.00369185 0.00297947 0.00236422 0.0018461 0.0014251 0.00110123 0.000843131 0.000619443 0.000430169 0.000275308 0.000154861 6.8827e-05 1.72068e-05 0 0 0.000770113 0.00308045 0.00693101 0.0123218 0.0192528 0.0277241 0.0377355 0.0492872 0.0622702 0.0765757 0.0922035 0.109154 0.127427 0.147022 0.167939 0.190179 0.213014 0.235714 0.258281 0.280714 0.303013 0.325178 0.347209 0.369107 0.390358 0.410448 0.429378 0.447148 0.463758 0.479208 0.493498 0.506627 0.518471 0.528905 0.537928 0.545541 0.551743 0.556535 0.559916 0.561887 0.562592 0.562175 0.560637 0.557976 0.554194 0.549291 0.543265 0.536118 0.5281 0.51946 0.510199 0.500316 0.489812 0.478687 0.46694 0.454572 0.441821 0.428926 0.415887 0.402704 0.389377 0.375905 0.362289 0.348529 0.334792 0.321246 0.30789 0.294724 0.281748 0.268963 0.256368 0.243963 0.231828 0.220042 0.208606 0.197519 0.186781 0.176392 0.166353 0.156663 0.147329 0.138359 0.129752 0.121509 0.113629 0.106112 0.098959 0.0921694 0.0857107 0.0795506 0.0736889 0.0681258 0.0628613 0.0578952 0.0532277 0.0488587 0.0447483 0.0408566 0.0371837 0.0337294 0.0304938 0.027477 0.0246788 0.0220994 0.0197086 0.0174764 0.0154028 0.0134878 0.0117314 0.0101335 0.00869431 0.00741367 0.00626704 0.00522981 0.004302 0.00348361 0.00277462 0.00217505 0.0016849 0.00130415 0.000998491 0.000733585 0.000509434 0.000326038 0.000183396 8.15095e-05 2.03774e-05 0 0 0.00085613 0.00342452 0.00770517 0.0136981 0.0214033 0.0308207 0.0419504 0.0547923 0.0692138 0.0850821 0.102397 0.121159 0.141368 0.163023 0.186126 0.210675 0.235869 0.260906 0.285787 0.31051 0.335077 0.359486 0.383739 0.407835 0.431214 0.453316 0.474142 0.49369 0.511962 0.528957 0.544674 0.559116 0.572145 0.583627 0.593561 0.601949 0.608789 0.614083 0.617829 0.620028 0.620838 0.620418 0.618767 0.615885 0.611773 0.60643 0.599856 0.592052 0.58329 0.573843 0.563711 0.552894 0.541391 0.529203 0.516331 0.502773 0.48879 0.474643 0.460333 0.445858 0.431218 0.416415 0.401448 0.386316 0.371204 0.356296 0.341591 0.327089 0.312791 0.298697 0.284806 0.271119 0.257723 0.244709 0.232075 0.219823 0.207951 0.19646 0.185349 0.17462 0.16428 0.15434 0.1448 0.135658 0.126916 0.118573 0.11063 0.103086 0.0959063 0.0890566 0.0825366 0.0763463 0.0704859 0.0649552 0.0597543 0.0548831 0.0502981 0.0459555 0.0418553 0.0379976 0.0343823 0.0310094 0.0278789 0.0249909 0.0223121 0.0198092 0.0174823 0.0153313 0.0133562 0.0115572 0.00993405 0.00848688 0.0071888 0.00601297 0.00495938 0.00402803 0.00321892 0.00253205 0.00196743 0.00152505 0.00116761 0.000857839 0.000595722 0.000381262 0.00021446 9.53155e-05 2.38289e-05 0 0 0.000944385 0.00377754 0.00849947 0.0151102 0.0236096 0.0339979 0.0462749 0.0604407 0.0763371 0.0938059 0.112847 0.133461 0.155647 0.179406 0.204738 0.231641 0.25924 0.286657 0.313892 0.340945 0.367815 0.394504 0.42101 0.447334 0.472869 0.497009 0.519753 0.541102 0.561055 0.579612 0.596774 0.61254 0.626766 0.639307 0.650163 0.659335 0.666822 0.672624 0.676742 0.679175 0.680095 0.679676 0.677917 0.674818 0.670379 0.6646 0.657481 0.649023 0.639519 0.629266 0.618263 0.606511 0.594008 0.580756 0.566754 0.552003 0.536784 0.521379 0.505789 0.490014 0.474054 0.457908 0.441576 0.42506 0.408558 0.392273 0.376203 0.360348 0.34471 0.329287 0.314079 0.299088 0.28441 0.270145 0.256291 0.24285 0.22982 0.217203 0.204997 0.193204 0.181835 0.170901 0.160402 0.150339 0.140711 0.131519 0.122763 0.114442 0.106519 0.0989585 0.0917593 0.0849216 0.0784456 0.0723312 0.0665784 0.0611872 0.0561102 0.0512999 0.0467564 0.0424797 0.0384697 0.0347265 0.03125 0.0280403 0.0250608 0.0222752 0.0196834 0.0172853 0.0150811 0.0130707 0.0112541 0.00963136 0.00817328 0.00685082 0.00566397 0.00461274 0.00369711 0.0029171 0.00227271 0.00176392 0.0013505 0.000992205 0.000689031 0.00044098 0.000248051 0.000110245 2.75612e-05 0 0 0.00103488 0.00413951 0.0093139 0.016558 0.0258719 0.0372556 0.050709 0.0662322 0.0836399 0.102747 0.123554 0.14606 0.170265 0.19617 0.223775 0.253079 0.283127 0.312967 0.342597 0.372017 0.401228 0.43023 0.459022 0.487604 0.515324 0.541527 0.566213 0.589384 0.611037 0.631174 0.649795 0.666899 0.682334 0.695945 0.707733 0.717698 0.72584 0.732159 0.736655 0.739327 0.740364 0.73995 0.738087 0.734775 0.730013 0.723802 0.716141 0.70703 0.696787 0.685729 0.673856 0.661167 0.647664 0.633345 0.618211 0.602262 0.585802 0.569133 0.552257 0.535174 0.517882 0.500383 0.482675 0.464761 0.446855 0.429177 0.411725 0.3945 0.377503 0.360732 0.344188 0.327871 0.311889 0.296349 0.281253 0.2666 0.252389 0.238622 0.225297 0.212416 0.199992 0.188039 0.176559 0.165551 0.155015 0.14495 0.135358 0.126237 0.11755 0.109256 0.101357 0.0938518 0.0867405 0.0800232 0.0737 0.0677709 0.0621845 0.0568899 0.051887 0.0471757 0.0427561 0.0386282 0.034792 0.0312475 0.0279548 0.0248744 0.0220061 0.01935 0.016906 0.0146742 0.0126546 0.0108471 0.00922047 0.00774337 0.00641579 0.00523774 0.00420921 0.0033302 0.00260072 0.00202077 0.00154715 0.00113668 0.000789362 0.000505192 0.00028417 0.000126298 3.15745e-05 0 0 0.00112761 0.00451043 0.0101485 0.0180417 0.0281902 0.0405939 0.0552528 0.0721669 0.0911224 0.111906 0.134517 0.158955 0.185222 0.213316 0.243237 0.274987 0.307531 0.339835 0.371901 0.403728 0.435316 0.466664 0.497774 0.528645 0.558577 0.586869 0.613522 0.638535 0.661909 0.683644 0.703739 0.722195 0.73885 0.753542 0.766272 0.77704 0.785845 0.792688 0.797568 0.800486 0.801643 0.80124 0.799278 0.795756 0.790675 0.784034 0.775834 0.766074 0.755093 0.743231 0.730488 0.716863 0.702357 0.68697 0.670701 0.653551 0.635844 0.617906 0.599737 0.581336 0.562704 0.54384 0.524745 0.505418 0.486095 0.467008 0.448158 0.429546 0.411171 0.393032 0.375131 0.357467 0.340159 0.323323 0.306962 0.291073 0.275658 0.260717 0.246249 0.232255 0.218752 0.205757 0.193271 0.181294 0.169825 0.158866 0.148415 0.138472 0.128998 0.11995 0.11133 0.103137 0.0953705 0.0880313 0.0811192 0.0746341 0.0685212 0.0627255 0.0572469 0.0520856 0.0472416 0.0427147 0.038505 0.0346125 0.0309942 0.0276068 0.0244505 0.0215252 0.0188309 0.0163676 0.0141354 0.0121341 0.0103304 0.00869061 0.00721483 0.00590302 0.00475519 0.00377135 0.00295148 0.00229559 0.00175756 0.00129127 0.000896716 0.000573898 0.000322818 0.000143475 3.58686e-05 0 0 0.00122257 0.0048903 0.0110032 0.0195612 0.0305644 0.0440127 0.0599061 0.0782448 0.0987846 0.121282 0.145736 0.172147 0.200516 0.230842 0.263125 0.297366 0.332449 0.367263 0.401805 0.436077 0.470078 0.503808 0.537268 0.570457 0.602629 0.633036 0.661679 0.688557 0.713671 0.73702 0.758605 0.778425 0.796312 0.812097 0.825779 0.837358 0.846835 0.854209 0.859481 0.86265 0.863933 0.863546 0.861489 0.857762 0.852365 0.845298 0.836561 0.826154 0.814438 0.801773 0.78816 0.773599 0.758089 0.741631 0.724224 0.705869 0.686911 0.667698 0.648228 0.628501 0.608519 0.58828 0.567785 0.547033 0.526277 0.505766 0.485503 0.465485 0.445714 0.426189 0.40691 0.387877 0.36922 0.351066 0.333416 0.31627 0.299627 0.283488 0.267853 0.252721 0.238114 0.224053 0.210538 0.197568 0.185144 0.173266 0.161933 0.151147 0.140863 0.13104 0.121678 0.112776 0.104336 0.0963554 0.0888358 0.081777 0.0751201 0.0688066 0.0628364 0.0572095 0.051926 0.0469858 0.0423889 0.0381354 0.0341788 0.0304725 0.0270165 0.023811 0.0208558 0.018151 0.0156965 0.0134924 0.011503 0.00969255 0.00806108 0.00660859 0.00533508 0.00424054 0.00332498 0.00258839 0.00198174 0.00145597 0.00101109 0.000647098 0.000363993 0.000161775 4.04437e-05 0 0 0.00131978 0.00527911 0.011878 0.0211165 0.0329945 0.047512 0.0646691 0.0844658 0.106626 0.130875 0.157211 0.185636 0.216149 0.24875 0.2834