<?xml version="1.0"?> 
<VTKFile type="StructuredGrid" version="0.1"> 
<StructuredGrid WholeExtent="0 128 0 128 0 0"> 
<Piece Extent="0 128 0 128 0 0"> 
<PointData>
<DataArray type="Float32" Name="u" format="ascii" NumberOfComponents="1"> 
0 0 0 0 0 0 0 0 0 0 0 0 0 0 0 0 0 0 0 0 0 0 0 0 0 0 0 0 0 0 0 0 0 0 0 0 0 0 0 0 0 0 0 0 0 0 0 0 0 0 0 0 0 0 0 0 0 0 0 0 0 0 0 0 0 0 0 0 0 0 0 0 0 0 0 0 0 0 0 0 0 0 0 0 0 0 0 0 0 0 0 0 0 0 0 0 0 0 0 0 0 0 0 0 0 0 0 0 0 0 0 0 0 0 0 0 0 0 0 0 0 0 0 0 0 0 0 0 0 0 1.70046e-06 6.80185e-06 1.53042e-05 2.72074e-05 4.25116e-05 6.12166e-05 8.33227e-05 0.00010883 0.000137863 0.00017055 0.000206889 0.00024688 0.000290524 0.000337821 0.000388771 0.000443373 0.000499775 0.000556124 0.00061242 0.000668663 0.000724853 0.000780991 0.000837076 0.000893107 0.000947653 0.00099928 0.00104799 0.00109378 0.00113665 0.0011766 0.00121363 0.00124775 0.00127856 0.0013057 0.00132916 0.00134893 0.00136503 0.00137745 0.00138619 0.00139125 0.00139301 0.00139185 0.00138776 0.00138074 0.00137079 0.00135793 0.00134213 0.00132341 0.00130246 0.00127996 0.00125591 0.00123033 0.0012032 0.00117453 0.00114431 0.00111255 0.00107989 0.00104698 0.00101383 0.000980417 0.000946759 0.000912851 0.000878693 0.000844285 0.000810043 0.000776385 0.000743311 0.000710821 0.000678915 0.000647592 0.000616853 0.000586698 0.000557288 0.000528785 0.000501189 0.0004745 0.000448717 0.000423842 0.000399873 0.00037681 0.000354636 0.000333328 0.000312889 0.000293317 0.000274613 0.000256777 0.000239809 0.000223708 0.00020838 0.000193729 0.000179755 0.000166458 0.000153838 0.000141895 0.000130629 0.000120041 0.000110041 0.000100541 9.15418e-05 8.30429e-05 7.50444e-05 6.75462e-05 6.05483e-05 5.40508e-05 4.8005e-05 4.2362e-05 3.71219e-05 3.22847e-05 2.78503e-05 2.38189e-05 2.01903e-05 1.69646e-05 1.40914e-05 1.15201e-05 9.25079e-06 7.28346e-06 5.61809e-06 4.2547e-06 3.19328e-06 2.43384e-06 1.86341e-06 1.36903e-06 9.50717e-07 6.08459e-07 3.42258e-07 1.52115e-07 3.80287e-08 0 0 6.80185e-06 2.72074e-05 6.12166e-05 0.00010883 0.000170046 0.000244867 0.000333291 0.000435318 0.000551453 0.000682198 0.000827554 0.000987521 0.0011621 0.00135128 0.00155508 0.00177349 0.0019991 0.00222449 0.00244968 0.00267465 0.00289941 0.00312396 0.0033483 0.00357243 0.00379061 0.00399712 0.00419195 0.00437511 0.00454659 0.0047064 0.00485453 0.00499099 0.00511425 0.00522279 0.00531662 0.00539573 0.00546013 0.00550981 0.00554477 0.00556502 0.00557205 0.00556739 0.00555102 0.00552295 0.00548318 0.0054317 0.00536852 0.00529364 0.00520982 0.00511983 0.00502366 0.00492131 0.0048128 0.0046981 0.00457724 0.00445019 0.00431956 0.00418793 0.0040553 0.00392167 0.00378704 0.0036514 0.00351477 0.00337714 0.00324017 0.00310554 0.00297324 0.00284328 0.00271566 0.00259037 0.00246741 0.00234679 0.00222915 0.00211514 0.00200476 0.001898 0.00179487 0.00169537 0.00159949 0.00150724 0.00141854 0.00133331 0.00125156 0.00117327 0.00109845 0.00102711 0.000959236 0.000894833 0.00083352 0.000774915 0.000719019 0.000665831 0.000615351 0.00056758 0.000522517 0.000480162 0.000440162 0.000402164 0.000366167 0.000332172 0.000300177 0.000270185 0.000242193 0.000216203 0.00019202 0.000169448 0.000148488 0.000129139 0.000111401 9.52756e-05 8.07613e-05 6.78586e-05 5.63655e-05 4.60804e-05 3.70032e-05 2.91338e-05 2.24724e-05 1.70188e-05 1.27731e-05 9.73535e-06 7.45362e-06 5.47613e-06 3.80287e-06 2.43384e-06 1.36903e-06 6.08459e-07 1.52115e-07 0 0 1.53042e-05 6.12166e-05 0.000137737 0.000244867 0.000382604 0.00055095 0.000749904 0.000979466 0.00124077 0.00153495 0.001862 0.00222192 0.00261472 0.00304039 0.00349894 0.00399035 0.00449797 0.00500511 0.00551178 0.00601797 0.00652368 0.00702892 0.00753368 0.00803797 0.00852888 0.00899352 0.0094319 0.009844 0.0102298 0.0105894 0.0109227 0.0112297 0.0115071 0.0117513 0.0119624 0.0121404 0.0122853 0.0123971 0.0124757 0.0125213 0.0125371 0.0125266 0.0124898 0.0124266 0.0123371 0.0122213 0.0120792 0.0119107 0.0117221 0.0115196 0.0113032 0.011073 0.0108288 0.0105707 0.0102988 0.0100129 0.00971902 0.00942285 0.00912443 0.00882376 0.00852083 0.00821566 0.00790824 0.00759856 0.00729039 0.00698747 0.0066898 0.00639739 0.00611023 0.00582833 0.00555168 0.00528028 0.00501559 0.00475907 0.0045107 0.0042705 0.00403846 0.00381457 0.00359885 0.00339129 0.00319172 0.00299996 0.002816 0.00263986 0.00247152 0.002311 0.00215828 0.00201337 0.00187542 0.00174356 0.00161779 0.00149812 0.00138454 0.00127705 0.00117566 0.00108036 0.000990365 0.000904869 0.000823876 0.000747386 0.000675399 0.000607916 0.000544935 0.000486458 0.000432045 0.000381258 0.000334097 0.000290562 0.000250653 0.00021437 0.000181713 0.000152682 0.000126822 0.000103681 8.32571e-05 6.55511e-05 5.05628e-05 3.82923e-05 2.87395e-05 2.19045e-05 1.67707e-05 1.23213e-05 8.55646e-06 5.47613e-06 3.08032e-06 1.36903e-06 3.42258e-07 0 0 2.72074e-05 0.00010883 0.000244867 0.000435318 0.000680185 0.000979466 0.00133316 0.00174127 0.00220581 0.00272879 0.00331022 0.00395008 0.00464839 0.00540514 0.00622033 0.00709396 0.00799639 0.00889798 0.00979872 0.0106986 0.0115977 0.0124959 0.0133932 0.0142897 0.0151625 0.0159885 0.0167678 0.0175004 0.0181864 0.0188256 0.0194181 0.019964 0.020457 0.0208912 0.0212665 0.0215829 0.0218405 0.0220392 0.0221791 0.0222601 0.0222882 0.0222696 0.0222041 0.0220918 0.0219327 0.0217268 0.0214741 0.0211746 0.0208393 0.0204793 0.0200946 0.0196853 0.0192512 0.0187924 0.0183089 0.0178008 0.0172783 0.0167517 0.0162212 0.0156867 0.0151481 0.0146056 0.0140591 0.0135086 0.0129607 0.0124222 0.011893 0.0113731 0.0108626 0.0103615 0.00986965 0.00938717 0.00891661 0.00846057 0.00801903 0.007592 0.00717948 0.00678146 0.00639796 0.00602897 0.00567417 0.00533325 0.00500622 0.00469308 0.00439382 0.00410844 0.00383694 0.00357933 0.00333408 0.00309966 0.00287607 0.00266332 0.0024614 0.00227032 0.00209007 0.00192065 0.00176065 0.00160866 0.00146467 0.00132869 0.00120071 0.00108074 0.000968773 0.000864814 0.00076808 0.000677792 0.00059395 0.000516555 0.000445605 0.000381102 0.000323045 0.000271434 0.000225462 0.000184322 0.000148013 0.000116535 8.98895e-05 6.80752e-05 5.10925e-05 3.89414e-05 2.98145e-05 2.19045e-05 1.52115e-05 9.73535e-06 5.47613e-06 2.43384e-06 6.08459e-07 0 0 4.25116e-05 0.000170046 0.000382604 0.000680185 0.00106279 0.00153042 0.00208307 0.00272074 0.00344658 0.00426374 0.00517221 0.006172 0.00726311 0.00844553 0.00971926 0.0110843 0.0124944 0.0139031 0.0153105 0.0167166 0.0181213 0.0195248 0.0209269 0.0223277 0.0236913 0.024982 0.0261997 0.0273444 0.0284162 0.029415 0.0303408 0.0311937 0.0319641 0.0326425 0.0332289 0.0337233 0.0341258 0.0344363 0.0346548 0.0347814 0.0348253 0.0347962 0.0346939 0.0345184 0.0342699 0.0339481 0.0335533 0.0330853 0.0325614 0.0319989 0.0313979 0.0307582 0.03008 0.0293631 0.0286077 0.0278137 0.0269973 0.0261746 0.0253456 0.0245104 0.023669 0.0228213 0.0219673 0.0211071 0.0202511 0.0194096 0.0185828 0.0177705 0.0169729 0.0161898 0.0154213 0.0146675 0.0139322 0.0132196 0.0125297 0.0118625 0.0112179 0.010596 0.00999681 0.00942026 0.00886589 0.00833321 0.00782223 0.00733293 0.00686534 0.00641943 0.00599522 0.00559271 0.0052095 0.00484322 0.00449387 0.00416144 0.00384594 0.00354737 0.00326573 0.00300101 0.00275101 0.00251353 0.00228854 0.00207607 0.00187611 0.00168865 0.00151371 0.00135127 0.00120012 0.00105905 0.000928047 0.000807117 0.000696259 0.000595472 0.000504758 0.000424116 0.000352285 0.000288003 0.00023127 0.000182086 0.000140452 0.000106368 7.9832e-05 6.08459e-05 4.65851e-05 3.42258e-05 2.37679e-05 1.52115e-05 8.55646e-06 3.80287e-06 9.50717e-07 0 0 6.12166e-05 0.000244867 0.00055095 0.000979466 0.00153042 0.0022038 0.00299962 0.00391787 0.00496308 0.00613979 0.00744799 0.00888769 0.0104589 0.0121616 0.0139957 0.0159614 0.0179919 0.0200205 0.0220471 0.0240719 0.0260947 0.0281157 0.0301347 0.0321519 0.0341155 0.0359741 0.0377276 0.039376 0.0409193 0.0423576 0.0436908 0.0449189 0.0460282 0.0470051 0.0478496 0.0485616 0.0491412 0.0495883 0.0499029 0.0500852 0.0501485 0.0501065 0.0499592 0.0497066 0.0493486 0.0488853 0.0483167 0.0476428 0.0468884 0.0460784 0.0452129 0.0442918 0.0433152 0.0422829 0.0411951 0.0400517 0.0388761 0.0376914 0.0364977 0.035295 0.0340833 0.0328626 0.0316329 0.0303942 0.0291615 0.0279499 0.0267592 0.0255896 0.0244409 0.0233133 0.0222067 0.0211211 0.0200624 0.0190363 0.0180428 0.017082 0.0161538 0.0152583 0.0143954 0.0135652 0.0127669 0.0119998 0.011264 0.0105594 0.00988609 0.00924398 0.00863312 0.0080535 0.00750168 0.00697424 0.00647117 0.00599248 0.00553816 0.00510822 0.00470265 0.00432146 0.00396146 0.00361948 0.0032955 0.00298954 0.0027016 0.00243166 0.00217974 0.00194583 0.00172818 0.00152503 0.00133639 0.00116225 0.00100261 0.00085748 0.000726852 0.000610727 0.00050729 0.000414724 0.000333029 0.000262204 0.000202251 0.000153169 0.000114958 8.76181e-05 6.70826e-05 4.92852e-05 3.42258e-05 2.19045e-05 1.23213e-05 5.47613e-06 1.36903e-06 0 0 8.33227e-05 0.000333291 0.000749904 0.00133316 0.00208307 0.00299962 0.00408281 0.00533265 0.0067553 0.00835693 0.0101375 0.0120971 0.0142357 0.0165532 0.0190498 0.0217253 0.024489 0.0272501 0.0300086 0.0327645 0.0355178 0.0382686 0.0410167 0.0437623 0.046435 0.0489647 0.0513514 0.0535951 0.0556958 0.0576534 0.059468 0.0611396 0.0626496 0.0639792 0.0651286 0.0660977 0.0668866 0.0674951 0.0679234 0.0681715 0.0682577 0.0682005 0.068 0.0676561 0.0671689 0.0665383 0.0657644 0.0648471 0.0638203 0.0627179 0.0615398 0.0602861 0.0589568 0.0575518 0.0560711 0.0545149 0.0529146 0.0513022 0.0496774 0.0480405 0.0463912 0.0447297 0.043056 0.0413699 0.0396921 0.0380429 0.0364222 0.0348302 0.0332668 0.031732 0.0302258 0.0287482 0.0273071 0.0259105 0.0245583 0.0232505 0.0219871 0.0207682 0.0195938 0.0184637 0.0173771 0.0163331 0.0153316 0.0143726 0.0134561 0.0125821 0.0117506 0.0109617 0.0102106 0.00949271 0.00880798 0.00815643 0.00753805 0.00695285 0.00640083 0.00588199 0.00539199 0.00492651 0.00448555 0.0040691 0.00367717 0.00330976 0.00296687 0.00264849 0.00235224 0.00207574 0.00181897 0.00158195 0.00136467 0.00116713 0.000989326 0.000831267 0.000690478 0.000564485 0.000453289 0.000356889 0.000275286 0.00020848 0.000156471 0.000119258 9.13069e-05 6.70826e-05 4.65851e-05 2.98145e-05 1.67707e-05 7.45362e-06 1.86341e-06 0 0 0.00010883 0.000435318 0.000979466 0.00174127 0.00272074 0.00391787 0.00533265 0.00696509 0.00882325 0.0109152 0.0132409 0.0158003 0.0185936 0.0216206 0.0248813 0.0283758 0.0319856 0.0355919 0.0391949 0.0427944 0.0463906 0.0499834 0.0535728 0.0571589 0.0606498 0.0639539 0.0670713 0.0700018 0.0727455 0.0753024 0.0776725 0.0798558 0.081828 0.0835647 0.0850659 0.0863317 0.0873621 0.0881569 0.0887163 0.0890403 0.0891529 0.0890782 0.0888163 0.0883672 0.0877308 0.0869072 0.0858964 0.0846983 0.0833572 0.0819172 0.0803785 0.078741 0.0770047 0.0751696 0.0732358 0.0712031 0.069113 0.0670069 0.0648848 0.0627467 0.0605926 0.0584225 0.0562363 0.0540342 0.0518428 0.0496887 0.0475719 0.0454925 0.0434505 0.0414459 0.0394786 0.0375487 0.0356665 0.0338423 0.0320761 0.030368 0.0287179 0.0271259 0.0255918 0.0241159 0.0226967 0.021333 0.0200249 0.0187723 0.0175753 0.0164337 0.0153478 0.0143173 0.0133363 0.0123986 0.0115043 0.0106533 0.00984562 0.00908127 0.00836027 0.00768259 0.0070426 0.00643462 0.00585867 0.00531474 0.00480284 0.00432295 0.00387509 0.00345925 0.00307232 0.00271117 0.0023758 0.00206622 0.00178242 0.00152441 0.00129218 0.00108574 0.000901849 0.000737286 0.000592051 0.000466141 0.000359558 0.000272301 0.00020437 0.000155766 0.000119258 8.76181e-05 6.08459e-05 3.89414e-05 2.19045e-05 9.73535e-06 2.43384e-06 0 0 0.000138273 0.000553094 0.00124446 0.00221237 0.00345684 0.00497784 0.0067754 0.0088495 0.0112092 0.0138635 0.0168125 0.0200562 0.0235945 0.0274274 0.031555 0.0359772 0.0405443 0.0451066 0.049664 0.0542166 0.0587644 0.0633073 0.0678454 0.0723787 0.0767915 0.0809684 0.0849093 0.0886141 0.0920831 0.095316 0.0983129 0.101074 0.103568 0.105765 0.107665 0.109267 0.110571 0.111579 0.112289 0.112701 0.112847 0.112756 0.112428 0.111864 0.111063 0.110026 0.108752 0.107241 0.105549 0.103732 0.101791 0.0997236 0.0975316 0.0952145 0.0927722 0.0902049 0.0875647 0.0849039 0.0822225 0.0795206 0.076798 0.0740548 0.071291 0.0685066 0.0657354 0.063011 0.0603336 0.0577031 0.0551194 0.0525827 0.0500929 0.0476499 0.045267 0.0429574 0.0407209 0.0385575 0.0364674 0.0344505 0.0325068 0.0306362 0.0288374 0.0271087 0.0254503 0.023862 0.022344 0.0208961 0.0195185 0.018211 0.0169661 0.0157761 0.0146409 0.0135606 0.0125352 0.0115646 0.010649 0.00978819 0.00897514 0.00820268 0.00747082 0.00677955 0.00612888 0.0055188 0.00494932 0.00442043 0.00392817 0.00346858 0.00304166 0.00264741 0.00228582 0.00195691 0.00166066 0.00139708 0.00116209 0.000951638 0.000765715 0.000604321 0.000467456 0.000355122 0.000267317 0.000204042 0.000156219 0.000114773 7.97037e-05 5.10104e-05 2.86933e-05 1.27526e-05 3.18815e-06 0 0 0.00017219 0.000688761 0.00154971 0.00275504 0.00430475 0.00619885 0.00843732 0.0110202 0.0139554 0.0172511 0.0209071 0.0249235 0.0293004 0.0340376 0.0391352 0.0445932 0.0502277 0.0558547 0.0614741 0.067086 0.0726905 0.0782874 0.0838768 0.0894587 0.0948918 0.100035 0.104888 0.10945 0.113723 0.117705 0.121398 0.1248 0.127875 0.130584 0.132927 0.134906 0.136519 0.137766 0.138648 0.139165 0.139353 0.13925 0.138856 0.138171 0.137195 0.135928 0.134369 0.132519 0.130447 0.128219 0.125837 0.123301 0.12061 0.117764 0.114764 0.111609 0.108363 0.105092 0.101793 0.0984688 0.0951178 0.0917405 0.0883368 0.0849067 0.0814918 0.0781338 0.0748326 0.0715883 0.0684008 0.0652701 0.0621963 0.0591793 0.0562356 0.0533815 0.050617 0.0479422 0.045357 0.0428615 0.0404556 0.0381394 0.0359112 0.0337694 0.031714 0.0297451 0.0278626 0.0260664 0.0243568 0.0227335 0.0211873 0.019709 0.0182985 0.0169559 0.0156811 0.0144741 0.013335 0.0122637 0.0112515 0.0102895 0.00937792 0.0085166 0.00770558 0.00694486 0.00623444 0.00557433 0.00495958 0.00438525 0.00385135 0.00335787 0.00290482 0.0024922 0.00212 0.00178822 0.0014919 0.00122605 0.000990681 0.000785789 0.000611373 0.000467434 0.000353972 0.000270987 0.000207474 0.00015243 0.000105854 6.77467e-05 3.81075e-05 1.69367e-05 4.23417e-06 0 0 0.00021058 0.000842319 0.00189522 0.00336928 0.0052645 0.00758087 0.0103184 0.0134771 0.0170619 0.0210777 0.0255245 0.0304024 0.0357113 0.0414512 0.0476221 0.054224 0.0610358 0.0678361 0.0746251 0.0814027 0.0881688 0.0949236 0.101667 0.108399 0.114951 0.121153 0.127006 0.13251 0.137665 0.142471 0.146927 0.151035 0.154747 0.158021 0.160855 0.163249 0.165203 0.166719 0.167794 0.16843 0.168671 0.168561 0.1681 0.167289 0.166126 0.164613 0.162749 0.160534 0.158049 0.155378 0.152519 0.149473 0.146239 0.142819 0.13921 0.135415 0.131509 0.12757 0.123597 0.119591 0.115552 0.11148 0.107374 0.103234 0.0991122 0.095057 0.0910691 0.0871483 0.0832947 0.0795083 0.075789 0.0721369 0.0685721 0.0651147 0.0617646 0.058522 0.0553868 0.0523589 0.0494384 0.0466254 0.0439181 0.041315 0.0388161 0.0364214 0.034131 0.0319447 0.0298626 0.0278847 0.026 0.0241975 0.0224772 0.0208392 0.0192833 0.0178097 0.0164183 0.0151091 0.0138716 0.0126952 0.01158 0.0105259 0.00953295 0.00860114 0.00773047 0.00692095 0.00616653 0.00546116 0.00480486 0.00419761 0.00363941 0.00313028 0.0026702 0.00225918 0.00189127 0.00156052 0.00126695 0.00101055 0.000791307 0.000609237 0.000464335 0.000356601 0.000273023 0.000200588 0.000139297 8.91503e-05 5.0147e-05 2.22876e-05 5.57189e-06 0 0 0.000253442 0.00101377 0.00228098 0.00405508 0.00633606 0.00912393 0.0124187 0.0162203 0.0205287 0.0253435 0.0306649 0.0364928 0.0428272 0.0496681 0.0570156 0.0648695 0.0729685 0.081051 0.089117 0.0971665 0.105199 0.113216 0.121216 0.129199 0.136968 0.144323 0.151265 0.157794 0.16391 0.169612 0.174901 0.179777 0.184187 0.188076 0.191446 0.194296 0.196626 0.198437 0.199727 0.200498 0.200801 0.200689 0.20016 0.199217 0.197857 0.196082 0.193891 0.191284 0.188358 0.185208 0.181836 0.17824 0.17442 0.170378 0.166112 0.161623 0.157001 0.152338 0.147634 0.142888 0.138101 0.133272 0.128402 0.12349 0.118596 0.113781 0.109043 0.104383 0.0998011 0.095297 0.0908709 0.0865226 0.0822766 0.0781569 0.0741637 0.0702969 0.0665566 0.0629427 0.0594552 0.0560941 0.0528581 0.0497456 0.0467566 0.0438911 0.0411492 0.0385308 0.0360359 0.0336646 0.0314041 0.0292415 0.027177 0.0252104 0.0233419 0.0215714 0.0198989 0.0183244 0.0168355 0.0154197 0.014077 0.0128074 0.011611 0.0104876 0.00943741 0.0084603 0.00754903 0.00669633 0.00590219 0.00516661 0.0044896 0.00387115 0.00331126 0.00280994 0.0023602 0.00195506 0.00159452 0.00127859 0.00100726 0.000780532 0.000598407 0.000460885 0.000352865 0.000259248 0.000180033 0.000115221 6.48119e-05 2.88053e-05 7.20132e-06 0 0 0.000300778 0.00120311 0.002707 0.00481245 0.00751945 0.010828 0.0147381 0.0192498 0.0243557 0.0300485 0.0363281 0.0431947 0.0506481 0.0586885 0.0673157 0.0765298 0.0860259 0.0954993 0.10495 0.114377 0.123782 0.133164 0.142524 0.15186 0.160944 0.169545 0.177665 0.185302 0.192457 0.199129 0.20532 0.211028 0.216192 0.22075 0.224702 0.228047 0.230787 0.23292 0.234447 0.235368 0.235743 0.235633 0.235036 0.233955 0.232387 0.230334 0.227795 0.22477 0.221371 0.21771 0.213787 0.209601 0.205153 0.200442 0.195469 0.190233 0.184841 0.179398 0.173904 0.168359 0.162764 0.157118 0.151421 0.145673 0.139944 0.134305 0.128754 0.123293 0.11792 0.112636 0.107442 0.102337 0.097349 0.0925082 0.0878142 0.0832669 0.0788665 0.0746128 0.0705059 0.0665457 0.0627312 0.059061 0.0555353 0.0521541 0.0489172 0.0458248 0.0428768 0.0400733 0.0373996 0.034841 0.0323978 0.0300697 0.0278568 0.0257592 0.0237768 0.0219097 0.0201432 0.018463 0.016869 0.0153612 0.0139397 0.0126043 0.0113552 0.0101924 0.00910708 0.00809074 0.00714334 0.00626489 0.00545538 0.00471481 0.00404319 0.00344051 0.00289869 0.00240965 0.0019734 0.00158992 0.00125923 0.000981319 0.000756188 0.000583838 0.000447001 0.000328409 0.000228062 0.000145959 8.21022e-05 3.64898e-05 9.12246e-06 0 0 0.000352586 0.00141034 0.00317328 0.00564138 0.00881466 0.0126931 0.0172767 0.0225655 0.028543 0.0351925 0.0425143 0.0505081 0.0591741 0.0685122 0.0785224 0.0892048 0.100208 0.111181 0.122123 0.133036 0.143917 0.154769 0.16559 0.176381 0.186878 0.19682 0.206205 0.215034 0.223306 0.231023 0.238183 0.244787 0.250764 0.256042 0.260621 0.264502 0.267685 0.270168 0.271954 0.27304 0.273497 0.273393 0.272728 0.271503 0.269716 0.267369 0.264461 0.260992 0.257091 0.252884 0.248373 0.243557 0.238436 0.233011 0.22728 0.221245 0.215027 0.208748 0.202407 0.196005 0.189542 0.183017 0.176431 0.169784 0.163156 0.156629 0.150203 0.143877 0.137651 0.131527 0.125502 0.119579 0.113789 0.108169 0.102716 0.0974321 0.0923165 0.0873693 0.0825905 0.0779801 0.0735373 0.0692615 0.0651525 0.0612104 0.0574351 0.0538268 0.0503853 0.0471107 0.0439865 0.0409961 0.0381396 0.0354169 0.0328281 0.0303731 0.028052 0.0258648 0.0237947 0.0218251 0.0199559 0.0181872 0.016519 0.0149513 0.013484 0.0121172 0.0108407 0.00964441 0.00852832 0.00749244 0.00653675 0.00566127 0.00486598 0.00415089 0.00350675 0.00292431 0.00240358 0.00194455 0.00154722 0.0012116 0.000937676 0.00072546 0.00055543 0.000408071 0.000283383 0.000181365 0.000102018 4.53412e-05 1.13353e-05 0 0 0.000408867 0.00163547 0.00367981 0.00654188 0.0102217 0.0147192 0.0200345 0.0261675 0.0330905 0.0407758 0.0492233 0.058433 0.068405 0.0791393 0.0906358 0.102894 0.115515 0.128096 0.140638 0.153141 0.165605 0.17803 0.190415 0.202762 0.214771 0.226146 0.236885 0.246989 0.256458 0.265292 0.273491 0.281054 0.287902 0.293952 0.299205 0.303662 0.307321 0.310182 0.312247 0.313515 0.314063 0.31397 0.313236 0.311861 0.309845 0.307188 0.30389 0.29995 0.295515 0.29073 0.285594 0.280108 0.274271 0.268084 0.261547 0.25466 0.24756 0.240388 0.233143 0.225825 0.218434 0.21097 0.203433 0.195822 0.188232 0.180754 0.173389 0.166136 0.158995 0.151967 0.145052 0.138249 0.131598 0.125138 0.118869 0.112792 0.106907 0.101212 0.095709 0.0903973 0.0852766 0.0803468 0.075608 0.07106 0.0667029 0.0625366 0.0585613 0.0547769 0.0511648 0.0477067 0.0444025 0.0412521 0.0382557 0.0354132 0.0327245 0.0301898 0.02779 0.025506 0.0233378 0.0212855 0.019349 0.0175284 0.0158236 0.0142347 0.0127498 0.0113573 0.0100571 0.00884926 0.00773372 0.00671051 0.00577963 0.00494107 0.00418436 0.00349903 0.00288506 0.00234246 0.00187123 0.00147137 0.00114287 0.000885751 0.000678153 0.000498235 0.000345996 0.000221438 0.000124559 5.53594e-05 1.38399e-05 0 0 0.000469622 0.00187849 0.00422659 0.00751395 0.0117405 0.0169064 0.0230115 0.0300558 0.0379984 0.0467982 0.0564552 0.0669695 0.078341 0.0905697 0.103656 0.117599 0.131946 0.146244 0.160494 0.174694 0.188845 0.202947 0.216999 0.231003 0.244623 0.257524 0.269705 0.281168 0.291912 0.301937 0.311243 0.31983 0.327606 0.334481 0.340454 0.345525 0.349694 0.352962 0.355327 0.356791 0.357441 0.357364 0.35656 0.35503 0.352774 0.34979 0.346081 0.341644 0.336645 0.331247 0.325449 0.319253 0.312657 0.305663 0.298269 0.290476 0.282441 0.274319 0.266112 0.257819 0.24944 0.240976 0.232425 0.223789 0.215172 0.206679 0.198312 0.19007 0.181952 0.173959 0.166091 0.158347 0.150774 0.143416 0.136274 0.129348 0.122637 0.116141 0.109862 0.103797 0.097949 0.0923171 0.0869018 0.0817029 0.0767204 0.0719544 0.0674049 0.0630718 0.0589346 0.0549728 0.0511864 0.0475753 0.0441396 0.0408793 0.0377944 0.0348848 0.032129 0.0295057 0.0270146 0.024656 0.0224297 0.0203357 0.0183742 0.0165449 0.0148345 0.0132295 0.0117298 0.0103354 0.00904629 0.00786255 0.00678414 0.00581107 0.00493154 0.0041338 0.00341784 0.00278366 0.00223125 0.00176063 0.00137178 0.00106471 0.00081517 0.0005989 0.000415903 0.000266178 0.000149725 6.65445e-05 1.66361e-05 0 0 0.000533591 0.00213437 0.00480232 0.00853746 0.0133398 0.0192093 0.026146 0.0341498 0.043165 0.0531356 0.0640615 0.0759428 0.0887796 0.102572 0.117319 0.133022 0.149173 0.165263 0.181292 0.197262 0.213171 0.229019 0.244807 0.260535 0.27583 0.290318 0.304 0.316876 0.328945 0.340209 0.350666 0.360317 0.36906 0.376792 0.383515 0.389227 0.393929 0.397621 0.400302 0.401974 0.402732 0.402676 0.401805 0.400118 0.397616 0.3943 0.390168 0.385221 0.379642 0.373613 0.367133 0.360204 0.352825 0.344995 0.336716 0.327987 0.318983 0.309879 0.300675 0.291372 0.281968 0.272465 0.262862 0.25316 0.243475 0.233928 0.224518 0.215245 0.206109 0.19711 0.188248 0.179523 0.170987 0.162691 0.154636 0.146821 0.139246 0.131912 0.124818 0.117965 0.111353 0.104984 0.0988586 0.0929758 0.0873359 0.0819391 0.0767852 0.0718744 0.0671839 0.0626912 0.0583963 0.0542992 0.0503999 0.0466984 0.0431947 0.0398888 0.0367567 0.0337742 0.0309415 0.0282584 0.0257249 0.0233412 0.0211072 0.0190228 0.0170727 0.0152416 0.0135295 0.0119364 0.0104623 0.00910708 0.00787088 0.00675365 0.00574231 0.00482377 0.00399804 0.0032651 0.00262496 0.00207762 0.00162308 0.00126135 0.000965719 0.000709508 0.000492714 0.000315337 0.000177377 7.88342e-05 1.97085e-05 0 0 0.000599519 0.00239808 0.00539567 0.00959231 0.014988 0.0215827 0.0293765 0.0383692 0.0484891 0.0596639 0.0718937 0.0851786 0.0995184 0.114913 0.131363 0.148868 0.166864 0.184787 0.202636 0.220413 0.238116 0.255747 0.273304 0.290788 0.307788 0.323893 0.339102 0.353417 0.366835 0.379359 0.390987 0.40172 0.411445 0.420051 0.427536 0.433902 0.439148 0.443274 0.44628 0.448166 0.44904 0.449009 0.448074 0.446234 0.443489 0.43984 0.435287 0.429829 0.423667 0.417004 0.409839 0.402172 0.394003 0.385332 0.37616 0.366485 0.356502 0.346405 0.336193 0.325866 0.315425 0.304869 0.294198 0.283412 0.272644 0.262024 0.251553 0.24123 0.231056 0.221031 0.211155 0.201427 0.191906 0.18265 0.17366 0.164934 0.156474 0.148279 0.140349 0.132685 0.125288 0.11816 0.111303 0.104715 0.0983976 0.0923497 0.0865717 0.0810635 0.0758006 0.0707584 0.065937 0.0613364 0.0569565 0.0527973 0.0488589 0.0451413 0.0416178 0.0382618 0.0350733 0.0320522 0.0291987 0.0265127 0.0239941 0.0216431 0.0194423 0.0173746 0.0154398 0.0136381 0.0119695 0.0104338 0.00903121 0.00776162 0.0066107 0.00556408 0.00462176 0.00378373 0.00305002 0.0024206 0.00189548 0.00147466 0.00112904 0.000829498 0.00057604 0.000368666 0.000207375 9.21665e-05 2.30416e-05 0 0 0.000667406 0.00266962 0.00600665 0.0106785 0.0166851 0.0240266 0.0327029 0.042714 0.0539705 0.0663831 0.0799519 0.0946767 0.110558 0.127595 0.145788 0.165137 0.18502 0.204817 0.224526 0.244148 0.263682 0.28313 0.30249 0.321763 0.340499 0.358249 0.375013 0.39079 0.405582 0.419387 0.432206 0.444039 0.454763 0.464256 0.472519 0.47955 0.485351 0.489921 0.49326 0.495368 0.496363 0.496363 0.495367 0.493377 0.490392 0.486412 0.481436 0.475466 0.468721 0.461421 0.453566 0.445156 0.436192 0.426673 0.416599 0.405971 0.394999 0.383898 0.372665 0.361303 0.349809 0.338186 0.326431 0.314547 0.302676 0.290966 0.279415 0.268024 0.256793 0.245721 0.23481 0.224058 0.21353 0.203293 0.193346 0.183688 0.17432 0.165243 0.156455 0.147957 0.139753 0.131845 0.124235 0.116922 0.109905 0.103186 0.0967641 0.0906391 0.0847847 0.0791745 0.0738086 0.0686869 0.0638093 0.0591761 0.054787 0.0506421 0.0467123 0.0429683 0.0394101 0.0360376 0.032851 0.0298502 0.0270352 0.0244059 0.0219433 0.0196283 0.0174606 0.0154405 0.0135679 0.0118428 0.0102651 0.00883497 0.0075367 0.00635471 0.005289 0.00433957 0.00350642 0.00278955 0.00218897 0.00170466 0.00130513 0.000958872 0.000665883 0.000426165 0.000239718 0.000106541 2.66353e-05 0 0 0.00073725 0.002949 0.00663525 0.011796 0.0184313 0.026541 0.0361253 0.047184 0.0596093 0.0732933 0.0882359 0.104437 0.121897 0.140615 0.160593 0.181828 0.203642 0.225353 0.246961 0.268466 0.289868 0.311168 0.332365 0.353459 0.373962 0.393386 0.411731 0.428997 0.445185 0.460293 0.474323 0.487273 0.499013 0.509409 0.518462 0.526172 0.532539 0.537562 0.541242 0.543579 0.544701 0.544737 0.543686 0.541549 0.538325 0.534014 0.528617 0.522134 0.514803 0.506863 0.498314 0.489157 0.479392 0.469018 0.458035 0.446443 0.434474 0.422357 0.410093 0.397681 0.385123 0.372417 0.359563 0.346563 0.333574 0.320755 0.308106 0.295628 0.283319 0.271181 0.259213 0.247416 0.23586 0.22462 0.213694 0.203082 0.192785 0.182803 0.173135 0.163782 0.154748 0.146039 0.137654 0.129595 0.121859 0.114449 0.107363 0.100601 0.0941363 0.0879396 0.082011 0.0763507 0.0709585 0.0658346 0.0609789 0.0563914 0.0520403 0.0478938 0.0439518 0.0402145 0.0366818 0.0333537 0.0302302 0.0273112 0.0245758 0.0220027 0.019592 0.0173436 0.0152576 0.0133339 0.0115726 0.0099737 0.00852031 0.00719567 0.00599976 0.0049326 0.00399417 0.00318449 0.00250354 0.00195134 0.00149399 0.00109763 0.000762242 0.000487835 0.000274407 0.000121959 3.04897e-05 0 0 0.000809053 0.00323621 0.00728148 0.0129449 0.0202263 0.0291259 0.0396436 0.0517794 0.0654056 0.0803944 0.0967458 0.11446 0.133537 0.153976 0.175778 0.198943 0.222729 0.246395 0.269941 0.293368 0.316674 0.339861 0.362928 0.385876 0.408176 0.429303 0.449257 0.468037 0.485644 0.502077 0.517337 0.531423 0.544194 0.555509 0.565366 0.573767 0.58071 0.586197 0.590227 0.592801 0.594056 0.594132 0.593029 0.590748 0.587287 0.582648 0.576829 0.569831 0.561913 0.55333 0.544085 0.534175 0.523602 0.512366 0.500466 0.487903 0.474925 0.461782 0.448475 0.435002 0.421364 0.407561 0.393594 0.379461 0.365335 0.35139 0.337625 0.32404 0.310635 0.29741 0.284366 0.271501 0.258896 0.246631 0.234704 0.223117 0.211868 0.200959 0.190389 0.180159 0.170274 0.160741 0.151561 0.142734 0.134259 0.126137 0.118367 0.11095 0.103855 0.0970535 0.0905443 0.0843278 0.078404 0.072773 0.0674346 0.062389 0.0576016 0.0530382 0.0486986 0.0445829 0.0406911 0.0370232 0.0335792 0.030359 0.0273396 0.0244979 0.0218338 0.0193473 0.0170385 0.0149073 0.0129537 0.0111778 0.00956154 0.00808696 0.00675405 0.00556282 0.00451327 0.0036054 0.00283921 0.0022147 0.00169563 0.00124577 0.000865116 0.000553675 0.000311442 0.000138419 3.46047e-05 0 0 0.000882814 0.00353126 0.00794533 0.014125 0.0220704 0.0317813 0.0432579 0.0565001 0.0713592 0.0876864 0.105482 0.124745 0.145477 0.167676 0.191344 0.21648 0.24228 0.267943 0.293467 0.318853 0.344101 0.36921 0.394181 0.419014 0.443143 0.466002 0.487591 0.50791 0.52696 0.544739 0.561249 0.576489 0.590308 0.602555 0.613231 0.622335 0.629867 0.635827 0.640215 0.643032 0.644426 0.644548 0.643398 0.640975 0.63728 0.632312 0.626072 0.61856 0.610051 0.600823 0.590876 0.58021 0.568824 0.556719 0.543894 0.53035 0.516354 0.502175 0.487812 0.473265 0.458534 0.44362 0.428522 0.41324 0.397962 0.382872 0.367972 0.353262 0.338741 0.324409 0.310267 0.296314 0.282638 0.269325 0.256376 0.243791 0.23157 0.219712 0.208218 0.197088 0.18633 0.175953 0.165956 0.15634 0.147105 0.138251 0.129778 0.121685 0.113942 0.106516 0.0994084 0.0926183 0.0861459 0.0799912 0.0741542 0.068635 0.0633964 0.0584015 0.0536503 0.0491428 0.0448789 0.0408587 0.0370822 0.0335493 0.0302349 0.0271139 0.0241861 0.0214517 0.0189106 0.0165629 0.0144084 0.0124473 0.0106604 0.00902858 0.00755186 0.00623025 0.00506372 0.0040523 0.00319597 0.00249474 0.00191003 0.00140329 0.000974507 0.000623685 0.000350823 0.000155921 3.89803e-05 0 0 0.000958534 0.00383413 0.0086268 0.0153365 0.0239633 0.0345072 0.0469682 0.0613462 0.0774702 0.0951693 0.114443 0.135293 0.157717 0.181716 0.20729 0.234439 0.262297 0.289997 0.317538 0.344922 0.372147 0.399214 0.426123 0.452874 0.478861 0.503481 0.526733 0.548616 0.569132 0.588279 0.606059 0.62247 0.637354 0.650549 0.662057 0.671876 0.680007 0.68645 0.691205 0.694272 0.695812 0.695985 0.694791 0.69223 0.688302 0.683007 0.676346 0.668318 0.659218 0.649342 0.63869 0.627261 0.615056 0.602075 0.588318 0.573784 0.55876 0.543533 0.528103 0.512469 0.496633 0.480592 0.464349 0.447902 0.431452 0.415201 0.399148 0.383293 0.367636 0.352177 0.336917 0.321854 0.307085 0.292704 0.278711 0.265106 0.25189 0.239062 0.226622 0.21457 0.202916 0.191673 0.180838 0.170413 0.160398 0.150792 0.141595 0.132807 0.124396 0.116328 0.108603 0.101222 0.094184 0.0874892 0.0811376 0.0751293 0.0694246 0.0639839 0.0588071 0.0538942 0.0492453 0.0448603 0.0407392 0.0368821 0.0332616 0.0298506 0.026649 0.0236568 0.020874 0.0183006 0.0159367 0.0137822 0.0118168 0.0100205 0.0083932 0.00693486 0.00564552 0.00452518 0.00357382 0.00279146 0.00213721 0.0015702 0.00109041 0.000697865 0.000392549 0.000174466 4.