<?xml version="1.0"?> 
<VTKFile type="StructuredGrid" version="0.1"> 
<StructuredGrid WholeExtent="0 128 0 128 0 0"> 
<Piece Extent="0 128 0 128 0 0"> 
<PointData>
<DataArray type="Float32" Name="u" format="ascii" NumberOfComponents="1"> 
0 0 0 0 0 0 0 0 0 0 0 0 0 0 0 0 0 0 0 0 0 0 0 0 0 0 0 0 0 0 0 0 0 0 0 0 0 0 0 0 0 0 0 0 0 0 0 0 0 0 0 0 0 0 0 0 0 0 0 0 0 0 0 0 0 0 0 0 0 0 0 0 0 0 0 0 0 0 0 0 0 0 0 0 0 0 0 0 0 0 0 0 0 0 0 0 0 0 0 0 0 0 0 0 0 0 0 0 0 0 0 0 0 0 0 0 0 0 0 0 0 0 0 0 0 0 0 0 0 0 2.70016e-06 1.08007e-05 2.43015e-05 4.32026e-05 6.75041e-05 9.72059e-05 0.000132308 0.000172811 0.000218767 0.00027023 0.0003272 0.000389677 0.000457661 0.000531152 0.00061015 0.000694655 0.000781732 0.000868445 0.000954794 0.00104078 0.0011264 0.00121166 0.00129655 0.00138109 0.00146311 0.00154049 0.00161323 0.00168132 0.00174476 0.00180356 0.00185771 0.00190722 0.00195161 0.0019904 0.00202359 0.00205118 0.00207317 0.00208957 0.00210037 0.00210557 0.0021058 0.00210168 0.00209321 0.00208039 0.00206323 0.00204172 0.00201586 0.00198565 0.00195213 0.00191632 0.00187822 0.00183783 0.00179515 0.00175018 0.00170293 0.00165339 0.00160251 0.00155125 0.0014996 0.00144757 0.00139516 0.00134236 0.00128918 0.00123562 0.00118231 0.00112992 0.00107843 0.00102784 0.000978167 0.000929396 0.000881533 0.000834575 0.000788811 0.000744527 0.000701724 0.0006604 0.000620556 0.000582193 0.00054531 0.000509907 0.000475982 0.000443532 0.000412559 0.000383062 0.000355041 0.000328496 0.000303426 0.000279833 0.00025756 0.000236451 0.000216506 0.000197726 0.00018011 0.000163658 0.000148371 0.000134248 0.000121111 0.000108782 9.72617e-05 8.65491e-05 7.66448e-05 6.75485e-05 5.92604e-05 5.17804e-05 4.49769e-05 3.87182e-05 3.30045e-05 2.78356e-05 2.32117e-05 1.91325e-05 1.55983e-05 1.2609e-05 1.00483e-05 7.79999e-06 5.8641e-06 4.24061e-06 2.92952e-06 1.93084e-06 1.24456e-06 8.7069e-07 6.66622e-07 4.89763e-07 3.40113e-07 2.17672e-07 1.22441e-07 5.44181e-08 1.36045e-08 0 0 1.08007e-05 4.32026e-05 9.72059e-05 0.000172811 0.000270016 0.000388824 0.000529232 0.000691242 0.000875066 0.00108092 0.0013088 0.00155871 0.00183064 0.00212461 0.0024406 0.00277862 0.00312693 0.00347378 0.00381918 0.00416312 0.00450561 0.00484664 0.00518622 0.00552434 0.00585245 0.00616197 0.00645291 0.00672527 0.00697905 0.00721424 0.00743086 0.00762889 0.00780643 0.00796158 0.00809434 0.00820471 0.00829269 0.00835828 0.00840147 0.00842227 0.00842318 0.0084067 0.00837283 0.00832157 0.00825292 0.00816688 0.00806344 0.00794262 0.00780852 0.00766527 0.00751287 0.00735131 0.0071806 0.00700074 0.00681172 0.00661355 0.00641004 0.00620499 0.00599841 0.00579029 0.00558064 0.00536945 0.00515673 0.00494247 0.00472926 0.00451967 0.00431371 0.00411137 0.00391267 0.00371759 0.00352613 0.0033383 0.00315524 0.00297811 0.00280689 0.0026416 0.00248223 0.00232877 0.00218124 0.00203963 0.00190393 0.00177413 0.00165024 0.00153225 0.00142016 0.00131398 0.00121371 0.00111933 0.00103024 0.000945804 0.000866026 0.000790905 0.000720441 0.000654634 0.000593484 0.000536992 0.000484444 0.000435129 0.000389047 0.000346197 0.000306579 0.000270194 0.000237041 0.000207121 0.000179907 0.000154873 0.000132018 0.000111343 9.28466e-05 7.65302e-05 6.23933e-05 5.04359e-05 4.01931e-05 3.12e-05 2.34564e-05 1.69624e-05 1.17181e-05 7.72337e-06 4.97826e-06 3.48276e-06 2.66649e-06 1.95905e-06 1.36045e-06 8.7069e-07 4.89763e-07 2.17672e-07 5.44181e-08 0 0 2.43015e-05 9.72059e-05 0.000218713 0.000388824 0.000607537 0.000874853 0.00119077 0.00155529 0.0019689 0.00243207 0.0029448 0.00350709 0.00411895 0.00478037 0.00549135 0.0062519 0.00703559 0.007816 0.00859315 0.00936702 0.0101376 0.0109049 0.011669 0.0124298 0.013168 0.0138644 0.0145191 0.0151319 0.0157029 0.016232 0.0167194 0.017165 0.0175645 0.0179136 0.0182123 0.0184606 0.0186586 0.0188061 0.0189033 0.0189501 0.0189522 0.0189151 0.0188389 0.0187235 0.0185691 0.0183755 0.0181427 0.0178709 0.0175692 0.0172469 0.016904 0.0165404 0.0161564 0.0157517 0.0153264 0.0148805 0.0144226 0.0139612 0.0134964 0.0130282 0.0125564 0.0120813 0.0116026 0.0111206 0.0106408 0.0101693 0.00970585 0.00925059 0.0088035 0.00836457 0.00793379 0.00751118 0.0070993 0.00670075 0.00631551 0.0059436 0.00558501 0.00523974 0.00490779 0.00458916 0.00428383 0.00399179 0.00371303 0.00344756 0.00319537 0.00295646 0.00273084 0.0025185 0.00231804 0.00212806 0.00194856 0.00177954 0.00162099 0.00147293 0.00133534 0.00120823 0.00109 0.000979041 0.000875355 0.000778942 0.000689803 0.000607936 0.000533343 0.000466023 0.000404792 0.000348464 0.00029704 0.000250521 0.000208905 0.000172193 0.000140385 0.000113481 9.04346e-05 7.01999e-05 5.27769e-05 3.81655e-05 2.63657e-05 1.73776e-05 1.12011e-05 7.83621e-06 5.9996e-06 4.40787e-06 3.06102e-06 1.95905e-06 1.10197e-06 4.89763e-07 1.22441e-07 0 0 4.32026e-05 0.000172811 0.000388824 0.000691242 0.00108007 0.00155529 0.00211693 0.00276497 0.00350027 0.00432368 0.0052352 0.00623483 0.00732258 0.00849843 0.0097624 0.0111145 0.0125077 0.0138951 0.0152767 0.0166525 0.0180224 0.0193866 0.0207449 0.0220974 0.0234098 0.0246479 0.0258116 0.0269011 0.0279162 0.028857 0.0297234 0.0305155 0.0312257 0.0318463 0.0323774 0.0328189 0.0331708 0.0334331 0.0336059 0.0336891 0.0336927 0.0336268 0.0334913 0.0332863 0.0330117 0.0326675 0.0322538 0.0317705 0.0312341 0.0306611 0.0300515 0.0294052 0.0287224 0.028003 0.0272469 0.0264542 0.0256402 0.02482 0.0239936 0.0231612 0.0223225 0.0214778 0.0206269 0.0197699 0.018917 0.0180787 0.0172548 0.0164455 0.0156507 0.0148703 0.0141045 0.0133532 0.012621 0.0119124 0.0112276 0.0105664 0.0099289 0.00931509 0.00872496 0.00815851 0.00761571 0.00709652 0.00660095 0.00612899 0.00568066 0.00525593 0.00485482 0.00447733 0.00412096 0.00378322 0.0034641 0.00316362 0.00288176 0.00261854 0.00237394 0.00214797 0.00193778 0.00174052 0.00155619 0.00138479 0.00122632 0.00108078 0.000948166 0.000828486 0.00071963 0.000619492 0.000528072 0.00044537 0.000371386 0.000306121 0.000249573 0.000201744 0.000160773 0.0001248 9.38256e-05 6.78497e-05 4.68724e-05 3.08935e-05 1.9913e-05 1.3931e-05 1.06659e-05 7.83621e-06 5.44181e-06 3.48276e-06 1.95905e-06 8.7069e-07 2.17672e-07 0 0 6.75041e-05 0.000270016 0.000607537 0.00108007 0.0016876 0.00243015 0.0033077 0.00432026 0.00546917 0.00675574 0.00818 0.00974192 0.0114415 0.0132788 0.0152538 0.0173664 0.0195433 0.0217111 0.0238699 0.0260195 0.02816 0.0302915 0.0324139 0.0345271 0.0365778 0.0385123 0.0403307 0.0420329 0.043619 0.045089 0.0464428 0.0476805 0.0487902 0.0497599 0.0505897 0.0512795 0.0518293 0.0522392 0.0525092 0.0526392 0.0526449 0.0525419 0.0523302 0.0520098 0.0515807 0.051043 0.0503965 0.0496414 0.0488033 0.0479079 0.0469554 0.0459457 0.0448788 0.0437546 0.0425733 0.0413347 0.0400628 0.0387812 0.0374901 0.0361893 0.034879 0.0335591 0.0322295 0.0308904 0.0295578 0.0282479 0.0269607 0.0256961 0.0244542 0.0232349 0.0220383 0.0208644 0.0197203 0.0186132 0.0175431 0.01651 0.0155139 0.0145548 0.0136327 0.0127477 0.0118995 0.0110883 0.010314 0.00957655 0.00887602 0.00821239 0.00758566 0.00699583 0.006439 0.00591128 0.00541266 0.00494315 0.00450275 0.00409146 0.00370928 0.0033562 0.00302778 0.00271956 0.00243154 0.00216373 0.00191612 0.00168871 0.00148151 0.00129451 0.00112442 0.000967956 0.000825112 0.000695891 0.000580291 0.000478314 0.000389958 0.000315225 0.000251207 0.000195 0.000146602 0.000106015 7.32381e-05 4.8271e-05 3.11141e-05 2.17672e-05 1.66655e-05 1.22441e-05 8.50283e-06 5.44181e-06 3.06102e-06 1.36045e-06 3.40113e-07 0 0 9.72059e-05 0.000388824 0.000874853 0.00155529 0.00243015 0.00349941 0.00476309 0.00622118 0.0078756 0.00972827 0.0117792 0.0140284 0.0164758 0.0191215 0.0219654 0.0250076 0.0281423 0.031264 0.0343726 0.0374681 0.0405505 0.0436198 0.046676 0.0497191 0.052672 0.0554577 0.0580762 0.0605274 0.0628114 0.0649282 0.0668777 0.06866 0.0702579 0.0716543 0.0728491 0.0738424 0.0746342 0.0752245 0.0756132 0.0758004 0.0758086 0.0756603 0.0753555 0.0748941 0.0742763 0.0735019 0.072571 0.0714836 0.0702767 0.0689874 0.0676158 0.0661618 0.0646254 0.0630066 0.0613055 0.059522 0.0576904 0.0558449 0.0539857 0.0521126 0.0502257 0.048325 0.0464105 0.0444822 0.0425633 0.040677 0.0388234 0.0370024 0.035214 0.0334583 0.0317352 0.0300447 0.0283972 0.026803 0.025262 0.0237744 0.02234 0.020959 0.0196312 0.0183566 0.0171353 0.0159672 0.0148521 0.0137902 0.0127815 0.0118258 0.0109234 0.010074 0.00927216 0.00851224 0.00779423 0.00711814 0.00648397 0.00589171 0.00534136 0.00483293 0.00436 0.00391616 0.00350142 0.00311577 0.00275921 0.00243175 0.00213337 0.00186409 0.00161917 0.00139386 0.00118816 0.00100208 0.000835619 0.000688772 0.00056154 0.000453924 0.000361738 0.0002808 0.000211108 0.000152662 0.000105463 6.95103e-05 4.48043e-05 3.13448e-05 2.39984e-05 1.76315e-05 1.22441e-05 7.83621e-06 4.40787e-06 1.95905e-06 4.89763e-07 0 0 0.000132308 0.000529232 0.00119077 0.00211693 0.0033077 0.00476309 0.00648309 0.00846771 0.0107196 0.0132413 0.0160328 0.0190942 0.0224254 0.0260264 0.0298974 0.0340381 0.0383049 0.0425538 0.0467849 0.0509982 0.0551937 0.0593713 0.0635312 0.0676732 0.0716925 0.0754841 0.0790482 0.0823846 0.0854933 0.0883745 0.091028 0.0934539 0.0956288 0.0975294 0.0991557 0.100508 0.101585 0.102389 0.102918 0.103173 0.103184 0.102982 0.102567 0.101939 0.101098 0.100044 0.0987772 0.0972971 0.0956544 0.0938996 0.0920326 0.0900536 0.0879624 0.085759 0.0834436 0.081016 0.078523 0.0760112 0.0734805 0.0709311 0.0683628 0.0657758 0.0631699 0.0605452 0.0579334 0.0553659 0.0528429 0.0503643 0.0479302 0.0455404 0.0431951 0.0408942 0.0386517 0.0364818 0.0343845 0.0323596 0.0304073 0.0285275 0.0267202 0.0249854 0.0233231 0.0217331 0.0202154 0.01877 0.017397 0.0160963 0.0148679 0.0137118 0.0126204 0.0115861 0.0106088 0.00968858 0.0088254 0.00801927 0.00727018 0.00657815 0.00593444 0.00533033 0.00476582 0.00424091 0.00375559 0.00330988 0.00290376 0.00253724 0.00220387 0.00189719 0.00161722 0.00136395 0.00113737 0.000937495 0.000764318 0.00061784 0.000492366 0.0003822 0.000287341 0.00020779 0.000143547 9.46113e-05 6.09836e-05 4.26638e-05 3.26645e-05 2.39984e-05 1.66655e-05 1.06659e-05 5.9996e-06 2.66649e-06 6.66622e-07 0 0 0.000172811 0.000691242 0.00155529 0.00276497 0.00432026 0.00622118 0.00846771 0.0110599 0.0140011 0.0172947 0.0209408 0.0249393 0.0292903 0.0339937 0.0390496 0.0444579 0.0500308 0.0555805 0.0611068 0.0666099 0.0720897 0.0775462 0.0829795 0.0883895 0.0936392 0.0985915 0.103247 0.107604 0.111665 0.115428 0.118894 0.122062 0.124903 0.127385 0.12951 0.131275 0.132683 0.133732 0.134424 0.134756 0.134771 0.134507 0.133965 0.133145 0.132047 0.13067 0.129015 0.127082 0.124936 0.122644 0.120206 0.117621 0.11489 0.112012 0.108988 0.105817 0.102561 0.0992799 0.0959745 0.0926446 0.0892902 0.0859112 0.0825076 0.0790795 0.0756681 0.0723147 0.0690193 0.065782 0.0626027 0.0594814 0.0564181 0.0534128 0.0504839 0.0476497 0.0449103 0.0422656 0.0397156 0.0372604 0.0348998 0.032634 0.0304628 0.0283861 0.0264038 0.024516 0.0227226 0.0210237 0.0194193 0.0179093 0.0164838 0.0151329 0.0138564 0.0126545 0.0115271 0.0104741 0.00949575 0.00859187 0.00775111 0.00696207 0.00622475 0.00553915 0.00490526 0.0043231 0.00379266 0.00331394 0.00287852 0.00247797 0.00211229 0.00178148 0.00148555 0.00122448 0.000998293 0.000806975 0.00064309 0.000499199 0.000375302 0.000271399 0.00018749 0.000123574 7.96521e-05 5.57241e-05 4.26638e-05 3.13448e-05 2.17672e-05 1.3931e-05 7.83621e-06 3.48276e-06 8.7069e-07 0 0 0.00021934 0.00087736 0.00197406 0.00350944 0.0054835 0.00789624 0.0107477 0.0140378 0.0177691 0.0219444 0.0265635 0.0316266 0.0371335 0.0430842 0.0494789 0.0563174 0.0633627 0.0703776 0.0773622 0.0843164 0.0912402 0.0981336 0.104997 0.111829 0.118459 0.124714 0.130593 0.136096 0.141224 0.145977 0.150355 0.154357 0.157945 0.161081 0.163766 0.165998 0.167778 0.169106 0.169982 0.170406 0.170429 0.1701 0.16942 0.168389 0.167007 0.165273 0.163189 0.160753 0.158049 0.15516 0.152086 0.148826 0.145381 0.141752 0.137936 0.133936 0.129827 0.125687 0.121515 0.117312 0.113077 0.10881 0.104512 0.100182 0.0958725 0.0916359 0.0874719 0.0833807 0.0793622 0.0754164 0.0715433 0.0677429 0.0640385 0.0604534 0.0569876 0.0536412 0.050414 0.0473062 0.0443177 0.0414485 0.0386986 0.036068 0.0335567 0.0311646 0.0288918 0.0267383 0.0247041 0.0227891 0.0209809 0.019267 0.0176474 0.016122 0.0146909 0.0133541 0.0121115 0.0109633 0.00989489 0.00889205 0.00795474 0.00708296 0.00627671 0.00553599 0.00486081 0.00425116 0.00369637 0.0031858 0.00271944 0.00229728 0.00191934 0.0015856 0.00129607 0.00105075 0.000840257 0.000655194 0.000495566 0.000361373 0.000252615 0.000169291 0.000111402 7.89479e-05 6.04445e-05 4.44082e-05 3.0839e-05 1.9737e-05 1.11021e-05 4.93425e-06 1.23356e-06 0 0 0.000272523 0.00109009 0.00245271 0.00436037 0.00681308 0.00981084 0.0133536 0.0174415 0.0220728 0.0272461 0.0329614 0.0392186 0.0460178 0.0533589 0.061242 0.069667 0.078343 0.0869789 0.0955749 0.104131 0.112647 0.121123 0.129559 0.137954 0.1461 0.153784 0.161007 0.16777 0.174071 0.179911 0.185291 0.190209 0.19462 0.198476 0.201779 0.204527 0.206721 0.208361 0.209446 0.209978 0.210016 0.209624 0.208802 0.207548 0.205864 0.203749 0.201203 0.198226 0.194919 0.191385 0.187622 0.183631 0.179412 0.174965 0.170289 0.165385 0.160347 0.155269 0.15015 0.144991 0.139791 0.134551 0.12927 0.123949 0.118652 0.113442 0.10832 0.103286 0.0983395 0.0934808 0.0887099 0.0840267 0.0794602 0.0750394 0.0707644 0.0666351 0.0626515 0.0588136 0.0551215 0.051575 0.0481747 0.0449208 0.0418135 0.0388526 0.0360382 0.0333703 0.0308489 0.0284739 0.0262304 0.0241031 0.0220921 0.0201974 0.018419 0.0167569 0.0152111 0.0137815 0.0124507 0.011201 0.0100323 0.00894481 0.0079384 0.0070131 0.00616891 0.00540582 0.00471068 0.00407032 0.00348474 0.00295395 0.00247794 0.00205671 0.00169027 0.0013786 0.00111021 0.000873579 0.000668708 0.000495597 0.000354247 0.000244657 0.000166827 0.000120757 9.24548e-05 6.7926e-05 4.71708e-05 3.01893e-05 1.69815e-05 7.54733e-06 1.88683e-06 0 0 0.000332361 0.00132944 0.00299124 0.00531777 0.00830901 0.011965 0.0162857 0.0212711 0.0269122 0.0331999 0.0401344 0.0477155 0.0559433 0.0648177 0.0743388 0.0845066 0.0949716 0.105384 0.115745 0.126053 0.136309 0.146513 0.156665 0.166765 0.176561 0.185803 0.194491 0.202625 0.210205 0.217231 0.223702 0.229619 0.234927 0.239571 0.243549 0.246863 0.249512 0.251496 0.252816 0.25347 0.253534 0.253081 0.25211 0.250623 0.248618 0.246096 0.243056 0.2395 0.235547 0.231319 0.226815 0.222036 0.216982 0.211651 0.206046 0.200165 0.19412 0.188025 0.181879 0.175681 0.169433 0.163133 0.156783 0.150381 0.144005 0.137733 0.131564 0.125498 0.119534 0.113675 0.107918 0.102264 0.096749 0.0914079 0.0862406 0.0812473 0.076428 0.0717825 0.067311 0.0630135 0.058891 0.0549445 0.0511741 0.0475799 0.0441617 0.0409196 0.0378536 0.0349637 0.0322321 0.029641 0.0271906 0.0248807 0.0227113 0.0206825 0.0187943 0.0170467 0.0154185 0.0138888 0.0124575 0.0111247 0.00989035 0.00875444 0.00771696 0.00677794 0.00592144 0.00513153 0.00440821 0.00375148 0.00316135 0.00263782 0.00218087 0.00179052 0.00145295 0.00115435 0.000894727 0.000674071 0.000492385 0.00034967 0.000245926 0.000181152 0.000138695 0.000101898 7.07625e-05 4.5288e-05 2.54745e-05 1.1322e-05 2.8305e-06 0 0 0.000398851 0.00159541 0.00358966 0.00638162 0.00997129 0.0143587 0.0195437 0.0255265 0.0322871 0.0398058 0.0480825 0.0571172 0.0669099 0.0774606 0.0887694 0.100836 0.113249 0.125594 0.137872 0.150084 0.162228 0.174306 0.186316 0.19826 0.209842 0.22077 0.231044 0.240662 0.249626 0.257934 0.265588 0.272588 0.278868 0.284364 0.289077 0.293006 0.296151 0.298513 0.300091 0.300885 0.300982 0.300469 0.299346 0.297612 0.295268 0.292314 0.28875 0.284576 0.279933 0.274962 0.269665 0.264041 0.25809 0.251812 0.245206 0.238274 0.231147 0.223956 0.216701 0.209384 0.202002 0.194558 0.187049 0.179478 0.171934 0.164509 0.157203 0.150016 0.142947 0.135998 0.129167 0.122455 0.115905 0.109559 0.103416 0.0974779 0.0917435 0.086213 0.0808865 0.075764 0.0708474 0.066139 0.0616387 0.0573465 0.0532623 0.0493862 0.0457183 0.0422584 0.0389861 0.0358809 0.0329428 0.0301718 0.0275679 0.025131 0.0228613 0.0207586 0.0187983 0.0169556 0.0152303 0.0136227 0.0121326 0.01076 0.00950498 0.00836751 0.00732864 0.00636942 0.00548983 0.00468988 0.00396958 0.00332891 0.00276789 0.00228651 0.00186848 0.00149752 0.00117362 0.000896793 0.000667029 0.000484331 0.000348699 0.000260133 0.000199164 0.000146325 0.000101614 6.50331e-05 3.65811e-05 1.62583e-05 4.06457e-06 0 0 0.000471996 0.00188799 0.00424797 0.00755194 0.0117999 0.0169919 0.0231278 0.0302078 0.0381977 0.0470637 0.0568057 0.0674237 0.0789177 0.0912877 0.104534 0.118656 0.133174 0.147607 0.161957 0.176222 0.190403 0.2045 0.218512 0.23244 0.245945 0.258686 0.270665 0.281881 0.292333 0.302023 0.31095 0.319114 0.326441 0.332857 0.338362 0.342955 0.346638 0.34941 0.351271 0.352221 0.35236 0.351789 0.350508 0.348517 0.345816 0.342405 0.338284 0.333453 0.328075 0.322315 0.316172 0.309646 0.302737 0.295445 0.287771 0.279714 0.271426 0.263061 0.254618 0.246098 0.2375 0.228824 0.220071 0.21124 0.202437 0.19377 0.185238 0.17684 0.168578 0.16045 0.152458 0.1446 0.136928 0.129492 0.122291 0.115327 0.108598 0.102105 0.0958478 0.0898264 0.0840442 0.0785044 0.0732071 0.0681524 0.0633401 0.0587702 0.0544429 0.0503581 0.0464924 0.0428226 0.0393487 0.0360707 0.0329886 0.0301024 0.027412 0.0249175 0.0225902 0.0204013 0.0183508 0.0164387 0.014665 0.0130298 0.0115329 0.0101745 0.0089323 0.00778399 0.00672961 0.00576915 0.00490261 0.00413001 0.00345132 0.00286657 0.0023568 0.00190308 0.0015054 0.00116377 0.000878179 0.00064864 0.000475146 0.000357698 0.000273863 0.000201205 0.000139726 8.94246e-05 5.03013e-05 2.23562e-05 5.58904e-06 0 0 0.000551795 0.00220718 0.00496615 0.00882872 0.0137949 0.0198646 0.0270379 0.0353149 0.0446439 0.0549736 0.066304 0.078635 0.0919666 0.106299 0.121632 0.137966 0.154747 0.171425 0.187999 0.204468 0.220834 0.237095 0.253252 0.269306 0.284867 0.29955 0.313355 0.326281 0.338328 0.349497 0.359787 0.369198 0.377647 0.385049 0.391404 0.396712 0.400974 0.404189 0.406357 0.407478 0.407668 0.407041 0.405597 0.403337 0.400261 0.396367 0.391658 0.386131 0.379976 0.373377 0.366335 0.35885 0.350923 0.342552 0.333739 0.324483 0.314959 0.305341 0.295629 0.285824 0.275925 0.265932 0.255846 0.245666 0.235515 0.225516 0.215668 0.205971 0.196426 0.187032 0.17779 0.168699 0.159819 0.151208 0.142866 0.134794 0.126992 0.119459 0.112195 0.105201 0.0984811 0.0920407 0.0858795 0.0799976 0.0743949 0.0690716 0.0640275 0.0592627 0.054751 0.0504663 0.0464084 0.0425775 0.0389736 0.0355965 0.0324464 0.0295232 0.026794 0.0242259 0.0218188 0.0195727 0.0174877 0.0155638 0.0138009 0.012199 0.0107324 0.00937525 0.00812754 0.00698928 0.00596046 0.00504109 0.00423117 0.0035307 0.0029179 0.00237102 0.00189005 0.00147499 0.00112584 0.000842597 0.000625268 0.00047385 0.000362791 0.000266541 0.000185098 0.000118462 6.66351e-05 2.96156e-05 7.4039e-06 0 0 0.000638247 0.00255299 0.00574423 0.010212 0.0159562 0.0229769 0.0312741 0.0408478 0.0516257 0.0635356 0.0765774 0.0907511 0.106057 0.122494 0.140064 0.158765 0.177969 0.197047 0.215998 0.234823 0.253521 0.272093 0.290538 0.308856 0.32661 0.343363 0.359114 0.373863 0.38761 0.400355 0.412098 0.42284 0.432485 0.44094 0.448203 0.454276 0.459157 0.462848 0.465348 0.466657 0.466905 0.466224 0.464613 0.462073 0.458602 0.454202 0.448872 0.442612 0.435633 0.428148 0.420155 0.411655 0.402648 0.393133 0.383112 0.372583 0.361745 0.350795 0.339734 0.328562 0.317278 0.305882 0.294376 0.282758 0.271168 0.259747 0.248493 0.237408 0.226492 0.215743 0.205163 0.194751 0.184576 0.174706 0.16514 0.15588 0.146924 0.138274 0.129928 0.121887 0.114158 0.106748 0.0996557 0.0928821 0.086427 0.0802903 0.0744721 0.0689723 0.063762 0.0588118 0.0541219 0.0496922 0.0455227 0.0416135 0.0379646 0.0345758 0.0314099 0.0284294 0.0256344 0.0230248 0.0206007 0.018362 0.0163088 0.0144409 0.012729 0.0111432 0.00968363 0.00835027 0.00714312 0.00606217 0.00510743 0.0042789 0.0035518 0.00290136 0.00232758 0.00183046 0.00141 0.0010662 0.000799064 0.000608587 0.000465949 0.00034233 0.000237729 0.000152147 8.55825e-05 3.80367e-05 9.50917e-06 0 0 0.000731353 0.00292541 0.00658218 0.0117017 0.0182838 0.0263287 0.0358363 0.0468066 0.0591432 0.0727496 0.0876259 0.103772 0.121188 0.139874 0.15983 0.181055 0.20284 0.224473 0.245955 0.267285 0.288464 0.309491 0.330367 0.351092 0.371174 0.390124 0.407941 0.424626 0.440178 0.454598 0.467885 0.48004 0.490957 0.50053 0.50876 0.515646 0.521189 0.525388 0.528244 0.529757 0.530073 0.52934 0.527556 0.524723 0.52084 0.515908 0.509925 0.502893 0.495048 0.486628 0.477631 0.468059 0.457911 0.447187 0.435888 0.424012 0.411783 0.399424 0.386933 0.374311 0.361558 0.348675 0.33566 0.322514 0.309395 0.296462 0.283715 0.271152 0.258775 0.246584 0.234578 0.222757 0.211201 0.199986 0.189114 0.178584 0.168396 0.15855 0.149047 0.139886 0.131076 0.122626 0.114536 0.106806 0.0994361 0.0924263 0.0857766 0.0794869 0.0735252 0.0678592 0.0624891 0.0574147 0.0526362 0.0481534 0.0439664 0.0400752 0.0364378 0.0330119 0.0297976 0.026795 0.0240039 0.0214245 0.0190566 0.0169003 0.014922 0.0130878 0.0113979 0.00985213 0.00845059 0.00719324 0.0060801 0.00511117 0.00425848 0.00349408 0.00281798 0.00223018 0.00173067 0.00131945 0.000996534 0.000761909 0.000583337 0.000428574 0.000297621 0.000190477 0.000107143 4.76193e-05 1.19048e-05 0 0 0.000828976 0.00331591 0.00746079 0.0132636 0.0207244 0.0298432 0.0406198 0.0530545 0.0670239 0.0824048 0.0991973 0.117401 0.137017 0.158044 0.180483 0.204333 0.228799 0.253086 0.277194 0.301123 0.324873 0.348444 0.371835 0.395048 0.417536 0.438757 0.45871 0.477394 0.49481 0.510958 0.525839 0.539451 0.551678 0.562406 0.571633 0.579361 0.585588 0.590315 0.593541 0.595268 0.595658 0.594875 0.592919 0.589791 0.585489 0.580015 0.573369 0.565549 0.556819 0.547443 0.53742 0.52675 0.515434 0.503471 0.490861 0.477604 0.463948 0.450139 0.436179 0.422066 0.407801 0.393383 0.378814 0.364092 0.349396 0.334901 0.320608 0.306517 0.292629 0.278942 0.265457 0.252175 0.239183 0.226571 0.21434 0.202489 0.191017 0.179926 0.169215 0.158884 0.148944 0.139407 0.130273 0.121542 0.113214 0.105289 0.0977664 0.090647 0.0838954 0.0774766 0.0713906 0.0656374 0.0602169 0.0551293 0.0503745 0.0459524 0.0418163 0.0379191 0.0342609 0.0308417 0.0276615 0.0247203 0.022018 0.0195547 0.0172925 0.0151934 0.0132574 0.0114845 0.00987472 0.00842803 0.00714445 0.00602398 0.0050354 0.00414749 0.00336025 0.00267368 0.00208779 0.00160257 0.00121803 0.000934151 0.00071521 0.00052546 0.000364903 0.000233538 0.000131365 5.83845e-05 1.45961e-05 0 0 0.000928979 0.00371592 0.00836081 0.0148637 0.0232245 0.0334433 0.04552 0.0594547 0.0750954 0.0922903 0.111039 0.131342 0.1532 0.176611 0.201577 0.228096 0.255288 0.28227 0.309043 0.335605 0.361958 0.388102 0.414035 0.439759 0.464675 0.488185 0.51029 0.530988 0.550281 0.568168 0.584649 0.599724 0.613268 0.625155 0.635385 0.643957 0.650873 0.656131 0.659733 0.661677 0.662145 0.661318 0.659195 0.655777 0.651064 0.645055 0.637751 0.629151 0.619544 0.60922 0.598177 0.586416 0.573937 0.560739 0.546824 0.53219 0.517109 0.501854 0.486424 0.470819 0.455039 0.439084 0.422954 0.40665 0.390366 0.3743 0.35845 0.342818 0.327403 0.312205 0.297224 0.28246 0.268014 0.253984 0.240372 0.227177 0.214399 0.202038 0.190095 0.178568 0.167473 0.156824 0.146621 0.136864 0.127552 0.118687 0.110267 0.102293 0.0947273 0.0875319 0.080707 0.0742524 0.0681683 0.0624545 0.0571111 0.0521382 0.0474839 0.0430968 0.0389766 0.0351235 0.0315375 0.0282185 0.0251666 0.0223817 0.0198217 0.0174442 0.0152493 0.0132371 0.0114074 0.00976026 0.00829575 0.00701382 0.00588002 0.00485986 0.00395336 0.00316051 0.00248132 0.00191577 0.00146388 0.00112565 0.000861823 0.000633176 0.000439706 0.000281412 0.000158294 7.03529e-05 1.75882e-05 0 0 0.00103136 0.00412545 0.00928226 0.0165018 0.025784 0.037129 0.0505367 0.0660071 0.0833577 0.102406 0.123152 0.145595 0.169736 0.195575 0.223111 0.252345 0.282306 0.312024 0.341499 0.370731 0.399719 0.428465 0.456967 0.485226 0.51259 0.538409 0.562682 0.585409 0.606591 0.626227 0.644317 0.660862 0.675727 0.688777 0.700014 0.709436 0.717045 0.722839 0.726819 0.728985 0.729536 0.728669 0.726384 0.722682 0.717563 0.711026 0.703071 0.693699 0.683224 0.671958 0.659902 0.647056 0.633419 0.618993 0.603776 0.58777 0.571268 0.554568 0.537669 0.52057 0.503273 0.485776 0.46808 0.450186 0.432307 0.414659 0.397241 0.380055 0.363098 0.346373 0.329879 0.313615 0.297693 0.282225 0.26721 0.252649 0.238541 0.224887 0.211687 0.19894 0.186664 0.174877 0.16358 0.152771 0.142451 0.13262 0.123278 0.114425 0.106021 0.0980252 0.0904382 0.0832599 0.0764901 0.070129 0.0641765 0.0586325 0.0534408 0.0485449 0.0439448 0.0396405 0.035632 0.0319193 0.0285024 0.0253813 0.0225095 0.0198403 0.0173737 0.0151098 0.0130485 0.0111899 0.00953398 0.00808069 0.00679233 0.00563121 0.00459732 0.00369067 0.00291125 0.00225906 0.00173411 0.00133639 0.00102318 0.000751722 0.000522029 0.000334099 0.000187931 8.35247e-05 2.08812e-05 0 0 0.00113612 0.0045445 0.0102251 0.018178 0.0284031 0.0409005 0.0556701 0.0727119 0.0918109 0.112752 0.135535 0.16016 0.186627 0.214936 0.245087 0.27708 0.309854 0.342349 0.374565 0.4065 0.438156 0.469533 0.50063 0.531448 0.561282 0.589428 0.615886 0.640657 0.66374 0.685135 0.704843 0.722863 0.739053 0.753272 0.76552 0.775797 0.784103 0.790437 0.7948 0.797193 0.79783 0.796928 0.794486 0.790506 0.784987 0.777928 0.769331 0.759194 0.747857 0.735657 0.722594 0.708669 0.693882 0.678231 0.661719 0.644344 0.626425 0.608281 0.589913 0.57132 0.552502 0.53346 0.514193 0.494701 0.475218 0.455978 0.436981 0.418227 0.399715 0.381447 0.363421 0.345638 0.328221 0.311293 0.294854 0.278905 0.263444 0.248473 0.233991 0.219998 0.206516 0.193566 0.181149 0.169263 0.15791 0.147089 0.1368 0.127043 0.117776 0.108956 0.100584 0.0926598 0.0851825 0.0781528 0.0715704 0.0654355 0.0596869 0.0542635 0.0491654 0.0443926 0.0399449 0.0358226 0.0320254 0.0285535 0.0253559 0.0223815 0.0196305 0.0171027 0.0147982 0.012717 0.0108592 0.00922457 0.00777234 0.00646152 0.00529212 0.00426414 0.00337758 0.00263243 0.00202871 0.0015664 0.00119927 0.000881098 0.000611874 0.000391599 0.000220275 9.78998e-05 2.4475e-05 0 0 0.00124327 0.00497306 0.0111894 0.0198923 0.0310816 0.0447576 0.06092 0.079569 0.100455 0.123328 0.148189 0.175036 0.203872 0.234694 0.267504 0.302301 0.337932 0.373245 0.408238 0.442913 0.477269 0.511307 0.545025 0.578425 0.61075 0.641242 0.669903 0.696732 0.721728 0.744893 0.766226 0.785727 0.803248 0.81864 0.831904 0.84304 0.852047 0.858926 0.863677 0.866299 0.867027 0.866094 0.863502 0.859249 0.853336 0.845763 0.836529 0.825636 0.813444 0.800317 0.786255 0.771257 0.755324 0.738455 0.720651 0.701912 0.682578 0.662993 0.643157 0.623068 0.602727 0.582135 0.561291 0.540195 0.5191 0.498258 0.47767 0.457335 0.437253 0.417425 0.39785 0.378529 0.359597 0.341188 0.323304 0.305944 0.289107 0.272795 0.257007 0.241744 0.22703 0.212891 0.199328 0.186341 0.173929 0.162093 0.150832 0.140147 0.129993 0.120326 0.111145 0.102452 0.0942455 0.0865258 0.079293 0.072547 0.0662222 0.0602527 0.0546385 0.0493798 0.0444763 0.0399283 0.0357356 0.0318983 0.0283609 0.025068 0.0220196 0.0192158 0.0166564 0.0143416 0.0122713 0.0104455 0.00882004 0.0073508 0.00603777 0.00488094 0.00388031 0.00303589 0.00234767 0.00181565 0.00139011 0.0010213 0.000709239 0.000453913 0.000255326 0.000113478 2.83696e-05 0 0 0.00135279 0.00541115 0.0121751 0.0216446 0.0338197 0.0487004 0.0662866 0.0865784 0.10929 0.134135 0.161113 0.190225 0.22147 0.254849 0.290361 0.328007 0.366539 0.40471 0.442521 0.47997 0.517058 0.553786 0.590152 0.626158 0.660994 0.693852 0.724732 0.753633 0.780556 0.8055 0.828467 0.849455 0.868311 0.884881 0.899166 0.911165 0.920878 0.928305 0.933447 0.936304 0.937127 0.936169 0.93343 0.92891 0.92261 0.914529 0.904666 0.893023 0.879985 0.865939 0.850883 0.834819 0.817746 0.799664 0.780573 0.760474 0.73973 0.718705 0.6974 0.675814 0.653949 0.631802 0.609375 0.586668 0.563952 0.541498 0.519307 0.497378 0.475712 0.454309 0.433168 0.412289 0.391821 0.371911 0.352559 0.333766 0.315531 0.297854 0.280736 0.264176 0.248204 0.232852 0.218119 0.204004 0.190509 0.177632 0.165375 0.153737 0.142671 0.132133 0.122121 0.112637 0.103679 0.0952481 0.0873442 0.0799671 0.0730466 0.0665123 0.0603641 0.0546021 0.0492262 0.0442365 0.039633 0.0354156 0.0315245 0.0278997 0.0245412 0.021449 0.0186232 0.0160636 0.0137704 0.0117434 0.00993544 0.00829906 0.00683426 0.00554106 0.00441944 0.00346942 0.002691 0.00208416 0.00159569 0.00117234 0.000814125 0.00052104 0.000293085 0.00013026 3.2565e-05 0 0 0.00146469 0.00585876 0.0131822 0.023435 0.0366172 0.0527288 0.0717698 0.0937401 0.118315 0.145171 0.174308 0.205725 0.239423 0.275401 0.31366 0.354199 0.395676 0.436747 0.477411 0.51767 0.557523 0.59697 0.636011 0.674646 0.712015 0.747257 0.780372 0.81136 0.840222 0.866957 0.891564 0.914046 0.934242 0.951995 0.967305 0.980171 0.990595 0.998576 1.00411 1.00721 1.00813 1.00715 1.00427 0.999491 0.992809 0.984226 0.973742 0.961358 0.947481 0.932522 0.91648 0.899355 0.881148 0.861858 0.841485 0.82003 0.797878 0.775416 0.752643 0.729559 0.706165 0.682461 0.658446 0.63412 0.609774 0.585699 0.561893 0.538358 0.515093 0.492098 0.469372 0.446918 0.424894 0.403461 0.382621 0.362372 0.342715 0.32365 0.305177 0.287295 0.27004 0.253449 0.237519 0.222253 0.207649 0.193707 0.180429 0.167813 0.155812 0.144378 0.133512 0.123214 0.113483 0.10432 0.095724 0.0876959 0.0801603 0.0730424 0.0663421 0.0600595 0.0541945 0.0487472 0.0437176 0.0391056 0.0348468 0.0308766 0.0271952 0.0238025 0.0206984 0.017883 0.0153564 0.0131184 0.0111185 0.00930628 0.0076816 0.0062445 0.00499498 0.00393305 0.00305869 0.00237192 0.001816 0.00133421 0.000926532 0.000592981 0.000333552 0.000148245 3.70613e-05 0 0 0.00157897 0.00631588 0.0142107 0.0252635 0.0394743 0.0568429 0.0773696 0.101054 0.127532 0.156438 0.187773 0.221537 0.257729 0.29635 0.337399 0.380877 0.425342 0.469353 0.512911 0.556014 0.598664 0.64086 0.682602 0.72389 0.763813 0.801458 0.836825 0.869915 0.900727 0.929262 0.9