<?xml version="1.0"?> 
<VTKFile type="StructuredGrid" version="0.1"> 
<StructuredGrid WholeExtent="0 128 0 128 0 0"> 
<Piece Extent="0 128 0 128 0 0"> 
<PointData>
<DataArray type="Float32" Name="u" format="ascii" NumberOfComponents="1"> 
0 0 0 0 0 0 0 0 0 0 0 0 0 0 0 0 0 0 0 0 0 0 0 0 0 0 0 0 0 0 0 0 0 0 0 0 0 0 0 0 0 0 0 0 0 0 0 0 0 0 0 0 0 0 0 0 0 0 0 0 0 0 0 0 0 0 0 0 0 0 0 0 0 0 0 0 0 0 0 0 0 0 0 0 0 0 0 0 0 0 0 0 0 0 0 0 0 0 0 0 0 0 0 0 0 0 0 0 0 0 0 0 0 0 0 0 0 0 0 0 0 0 0 0 0 0 0 0 0 0 3.73299e-07 1.4932e-06 3.3597e-06 5.97279e-06 9.33249e-06 1.34388e-05 1.82917e-05 2.38912e-05 3.03233e-05 3.7674e-05 4.59435e-05 5.51315e-05 6.52382e-05 7.62636e-05 8.82076e-05 0.00010107 0.000114423 0.000127836 0.000141311 0.000154847 0.000168445 0.000182103 0.000195823 0.000209603 0.000223079 0.000235885 0.00024802 0.000259484 0.000270277 0.0002804 0.000289852 0.000298634 0.000306641 0.000313769 0.000320019 0.000325391 0.000329884 0.000333498 0.000336234 0.000338092 0.000339169 0.000339566 0.000339282 0.000338317 0.000336671 0.000334345 0.000331337 0.000327648 0.000323461 0.000318957 0.000314137 0.000309 0.000303547 0.000297777 0.000291691 0.000285289 0.000278725 0.000272156 0.000265582 0.000259003 0.000252418 0.000245828 0.000239233 0.000232632 0.000226098 0.000219701 0.000213441 0.000207319 0.000201335 0.000195489 0.00018978 0.000184208 0.000178767 0.00017345 0.000168256 0.000163185 0.000158238 0.000153415 0.000148714 0.000144138 0.000139645 0.000135196 0.000130791 0.00012643 0.000122113 0.000117841 0.000113613 0.000109428 0.000105265 0.0001011 9.69328e-05 9.27638e-05 8.85928e-05 8.44198e-05 8.0245e-05 7.60682e-05 7.19089e-05 6.77866e-05 6.37014e-05 5.96533e-05 5.56421e-05 5.1668e-05 4.7731e-05 4.3831e-05 4.00245e-05 3.63681e-05 3.28619e-05 2.95057e-05 2.62996e-05 2.32436e-05 2.03377e-05 1.75819e-05 1.50151e-05 1.26762e-05 1.05653e-05 8.68225e-06 7.02715e-06 5.59998e-06 4.40074e-06 3.42942e-06 2.62565e-06 1.92905e-06 1.33962e-06 8.57355e-07 4.82262e-07 2.14339e-07 5.35847e-08 0 0 1.4932e-06 5.97279e-06 1.34388e-05 2.38912e-05 3.73299e-05 5.37551e-05 7.31667e-05 9.55647e-05 0.000121293 0.000150696 0.000183774 0.000220526 0.000260953 0.000305054 0.00035283 0.000404281 0.000457691 0.000511346 0.000565246 0.00061939 0.000673779 0.000728412 0.000783291 0.000838414 0.000892318 0.000943539 0.000992078 0.00103793 0.00108111 0.0011216 0.00115941 0.00119453 0.00122656 0.00125508 0.00128008 0.00130156 0.00131953 0.00133399 0.00134494 0.00135237 0.00135668 0.00135826 0.00135713 0.00135327 0.00134669 0.00133738 0.00132535 0.00131059 0.00129384 0.00127583 0.00125655 0.001236 0.00121419 0.00119111 0.00116676 0.00114115 0.0011149 0.00108863 0.00106233 0.00103601 0.00100967 0.000983312 0.000956931 0.000930528 0.00090439 0.000878802 0.000853765 0.000829278 0.000805341 0.000781955 0.000759119 0.000736833 0.00071507 0.0006938 0.000673024 0.000652742 0.000632953 0.000613658 0.000594857 0.00057655 0.000558578 0.000540782 0.000523163 0.00050572 0.000488454 0.000471364 0.00045445 0.000437713 0.00042106 0.0004044 0.000387731 0.000371055 0.000354371 0.000337679 0.00032098 0.000304273 0.000287636 0.000271147 0.000254806 0.000238613 0.000222569 0.000206672 0.000190924 0.000175324 0.000160098 0.000145473 0.000131447 0.000118023 0.000105198 9.29744e-05 8.13508e-05 7.03276e-05 6.00604e-05 5.07049e-05 4.22611e-05 3.4729e-05 2.81086e-05 2.23999e-05 1.7603e-05 1.37177e-05 1.05026e-05 7.71619e-06 5.35847e-06 3.42942e-06 1.92905e-06 8.57355e-07 2.14339e-07 0 0 3.3597e-06 1.34388e-05 3.02373e-05 5.37551e-05 8.39924e-05 0.000120949 0.000164625 0.000215021 0.00027291 0.000339066 0.000413491 0.000496184 0.000587144 0.000686372 0.000793868 0.000909632 0.0010298 0.00115053 0.0012718 0.00139363 0.001516 0.00163893 0.0017624 0.00188643 0.00200772 0.00212296 0.00223218 0.00233535 0.00243249 0.0025236 0.00260867 0.0026877 0.00275977 0.00282392 0.00288017 0.00292852 0.00296895 0.00300148 0.00302611 0.00304282 0.00305252 0.0030561 0.00305354 0.00304485 0.00303004 0.0030091 0.00298203 0.00294883 0.00291115 0.00287061 0.00282723 0.002781 0.00273192 0.00268 0.00262522 0.0025676 0.00250853 0.00244941 0.00239024 0.00233103 0.00227176 0.00221245 0.00215309 0.00209369 0.00203488 0.00197731 0.00192097 0.00186588 0.00181202 0.0017594 0.00170802 0.00165787 0.00160891 0.00156105 0.0015143 0.00146867 0.00142414 0.00138073 0.00133843 0.00129724 0.0012568 0.00121676 0.00117712 0.00113787 0.00109902 0.00106057 0.00102251 0.000984854 0.000947385 0.000909899 0.000872395 0.000834874 0.000797335 0.000759779 0.000722205 0.000684613 0.00064718 0.00061008 0.000573313 0.000536879 0.000500779 0.000465012 0.000429579 0.000394479 0.000360221 0.000327313 0.000295757 0.000265551 0.000236696 0.000209192 0.000183039 0.000158237 0.000135136 0.000114086 9.50874e-05 7.81402e-05 6.32444e-05 5.03998e-05 3.96066e-05 3.08648e-05 2.36308e-05 1.73614e-05 1.20566e-05 7.71619e-06 4.34036e-06 1.92905e-06 4.82262e-07 0 0 5.97279e-06 2.38912e-05 5.37551e-05 9.55647e-05 0.00014932 0.000215021 0.000292667 0.000382259 0.000485173 0.000602785 0.000735095 0.000882104 0.00104381 0.00122022 0.00141132 0.00161712 0.00183076 0.00204538 0.00226098 0.00247756 0.00269512 0.00291365 0.00313316 0.00335366 0.00356927 0.00377416 0.00396831 0.00415174 0.00432443 0.0044864 0.00463763 0.00477814 0.00490625 0.00502031 0.00512031 0.00520625 0.00527814 0.00533597 0.00537975 0.00540947 0.00542671 0.00543306 0.00542851 0.00541308 0.00538674 0.00534951 0.00530139 0.00524237 0.00517537 0.00510331 0.00502619 0.004944 0.00485675 0.00476444 0.00466706 0.00456462 0.0044596 0.0043545 0.00424932 0.00414404 0.00403869 0.00393325 0.00382772 0.00372211 0.00361756 0.00351521 0.00341506 0.00331711 0.00322136 0.00312782 0.00303648 0.00294733 0.00286028 0.0027752 0.0026921 0.00261097 0.00253181 0.00245463 0.00237943 0.0023062 0.00223431 0.00216313 0.00209265 0.00202288 0.00195382 0.00188546 0.0018178 0.00175085 0.00168424 0.0016176 0.00155092 0.00148422 0.00141748 0.00135072 0.00128392 0.00121709 0.00115054 0.00108459 0.00101922 0.000954452 0.000890274 0.000826689 0.000763696 0.000701295 0.000640392 0.00058189 0.00052579 0.000472091 0.000420794 0.000371898 0.000325403 0.00028131 0.000240241 0.000202819 0.000169044 0.000138916 0.000112434 8.95997e-05 7.04118e-05 5.48707e-05 4.20104e-05 3.08648e-05 2.14339e-05 1.37177e-05 7.71619e-06 3.42942e-06 8.57355e-07 0 0 9.33249e-06 3.73299e-05 8.39924e-05 0.00014932 0.000233312 0.00033597 0.000457292 0.000597279 0.000758082 0.000941851 0.00114859 0.00137829 0.00163096 0.00190659 0.00220519 0.00252676 0.00286057 0.00319591 0.00353278 0.00387119 0.00421112 0.00455258 0.00489557 0.00524009 0.00557699 0.00589712 0.00620049 0.00648709 0.00675693 0.00701 0.0072463 0.00746584 0.00766602 0.00784423 0.00800048 0.00813477 0.00824709 0.00833745 0.00840585 0.00845229 0.00847923 0.00848916 0.00848205 0.00845793 0.00841678 0.00835861 0.00828342 0.00819121 0.00808652 0.00797393 0.00785342 0.007725 0.00758868 0.00744443 0.00729228 0.00713222 0.00696813 0.00680391 0.00663956 0.00647507 0.00631045 0.0061457 0.00598082 0.0058158 0.00565244 0.00549251 0.00533603 0.00518299 0.00503338 0.00488722 0.00474449 0.00460521 0.00446919 0.00433625 0.0042064 0.00407964 0.00395596 0.00383536 0.00371786 0.00360344 0.00349111 0.00337989 0.00326977 0.00316075 0.00305284 0.00294602 0.00284031 0.00273571 0.00263163 0.0025275 0.00242332 0.00231909 0.00221482 0.0021105 0.00200612 0.0019017 0.00179772 0.00169467 0.00159254 0.00149133 0.00139105 0.0012917 0.00119327 0.00109577 0.00100061 0.000909203 0.000821547 0.000737642 0.00065749 0.00058109 0.000508443 0.000439547 0.000375377 0.000316905 0.000264132 0.000217056 0.000175679 0.00014 0.000110018 8.57355e-05 6.56412e-05 4.82262e-05 3.34904e-05 2.14339e-05 1.20566e-05 5.35847e-06 1.33962e-06 0 0 1.34388e-05 5.37551e-05 0.000120949 0.000215021 0.00033597 0.000483796 0.0006585 0.000860082 0.00109164 0.00135627 0.00165396 0.00198473 0.00234858 0.00274549 0.00317547 0.00363853 0.00411922 0.00460211 0.00508721 0.00557451 0.00606401 0.00655571 0.00704962 0.00754572 0.00803086 0.00849185 0.00892871 0.00934141 0.00972998 0.0100944 0.0104347 0.0107508 0.0110391 0.0112957 0.0115207 0.0117141 0.0118758 0.0120059 0.0121044 0.0121713 0.0122101 0.0122244 0.0122142 0.0121794 0.0121202 0.0120364 0.0119281 0.0117953 0.0116446 0.0114825 0.0113089 0.011124 0.0109277 0.01072 0.0105009 0.0102704 0.0100341 0.00979763 0.00956096 0.0093241 0.00908705 0.00884981 0.00861238 0.00837475 0.00813951 0.00790922 0.00768388 0.0074635 0.00724807 0.00703759 0.00683207 0.0066315 0.00643563 0.0062442 0.00605722 0.00587467 0.00569658 0.00552293 0.00535372 0.00518895 0.0050272 0.00486704 0.00470847 0.00455148 0.00439608 0.00424227 0.00409005 0.00393942 0.00378954 0.0036396 0.00348958 0.0033395 0.00318934 0.00303911 0.00288882 0.00273845 0.00258872 0.00244032 0.00229325 0.00214752 0.00200312 0.00186005 0.00171832 0.00157791 0.00144088 0.00130925 0.00118303 0.0010622 0.000946786 0.00083677 0.000732157 0.000632948 0.000540543 0.000456344 0.00038035 0.000312561 0.000252977 0.000201599 0.000158427 0.000123459 9.45234e-05 6.94457e-05 4.82262e-05 3.08648e-05 1.73614e-05 7.71619e-06 1.92905e-06 0 0 1.82917e-05 7.31667e-05 0.000164625 0.000292667 0.000457292 0.0006585 0.000896292 0.00117067 0.00148584 0.00184603 0.00225123 0.00270144 0.00319667 0.00373691 0.00432217 0.00495244 0.00560672 0.00626399 0.00692426 0.00758753 0.00825379 0.00892305 0.00959531 0.0102706 0.0109309 0.0115584 0.012153 0.0127147 0.0132436 0.0137396 0.0142028 0.0146331 0.0150254 0.0153747 0.0156809 0.0159441 0.0161643 0.0163414 0.0164755 0.0165665 0.0166193 0.0166387 0.0166248 0.0165775 0.0164969 0.0163829 0.0162355 0.0160548 0.0158496 0.0156289 0.0153927 0.015141 0.0148738 0.0145911 0.0142929 0.0139791 0.0136575 0.0133357 0.0130135 0.0126911 0.0123685 0.0120456 0.0117224 0.011399 0.0110788 0.0107653 0.0104586 0.0101587 0.00986543 0.00957895 0.00929921 0.00902621 0.0087596 0.00849905 0.00824454 0.00799608 0.00775368 0.00751731 0.007287 0.00706274 0.00684258 0.00662458 0.00640875 0.00619507 0.00598356 0.00577421 0.00556701 0.00536198 0.00515799 0.0049539 0.00474971 0.00454542 0.00434105 0.00413657 0.003932 0.00372734 0.00352354 0.00332155 0.00312137 0.00292301 0.00272646 0.00253173 0.00233882 0.00214772 0.0019612 0.00178204 0.00161023 0.00144578 0.00128868 0.00113894 0.000996547 0.000861513 0.00073574 0.000621135 0.000517698 0.00042543 0.00034433 0.000274399 0.000215636 0.000168042 0.000128657 9.45234e-05 6.56412e-05 4.20104e-05 2.36308e-05 1.05026e-05 2.62565e-06 0 0 2.38912e-05 9.55647e-05 0.000215021 0.000382259 0.000597279 0.000860082 0.00117067 0.00152903 0.00194069 0.00241114 0.00294038 0.00352842 0.00417525 0.00488087 0.00564528 0.00646849 0.00732306 0.00818154 0.00904393 0.00991024 0.0107805 0.0116546 0.0125327 0.0134146 0.0142771 0.0150966 0.0158733 0.016607 0.0172977 0.0179456 0.0185505 0.0191126 0.019625 0.0200812 0.0204812 0.020825 0.0211126 0.0213439 0.021519 0.0216379 0.0217068 0.0217322 0.0217141 0.0216523 0.021547 0.0213981 0.0212056 0.0209695 0.0207015 0.0204133 0.0201048 0.019776 0.019427 0.0190577 0.0186682 0.0182585 0.0178384 0.017418 0.0169973 0.0165762 0.0161548 0.015733 0.0153109 0.0148884 0.0144702 0.0140608 0.0136602 0.0132684 0.0128855 0.0125113 0.0121459 0.0117893 0.0114411 0.0111008 0.0107684 0.0104439 0.0101272 0.00981853 0.00951772 0.0092248 0.00893725 0.00865252 0.00837061 0.00809152 0.00781526 0.00754182 0.0072712 0.00700341 0.00673696 0.00647039 0.0062037 0.00593688 0.00566994 0.00540287 0.00513568 0.00486836 0.00460217 0.00433834 0.00407689 0.00381781 0.0035611 0.00330675 0.00305478 0.00280518 0.00256157 0.00232756 0.00210316 0.00188836 0.00168317 0.00148759 0.00130161 0.00112524 0.000960966 0.000811278 0.000676177 0.000555664 0.000449738 0.000358399 0.000281647 0.000219483 0.000168042 0.000123459 8.57355e-05 5.48707e-05 3.08648e-05 1.37177e-05 3.42942e-06 0 0 3.04922e-05 0.000121969 0.00027443 0.000487876 0.000762306 0.00109772 0.00149412 0.0019515 0.00247651 0.00307576 0.00374927 0.00449703 0.00531904 0.0062153 0.00718582 0.00823059 0.00931488 0.010404 0.0114979 0.0125965 0.0137 0.0148083 0.0159213 0.0170392 0.0181323 0.0191711 0.0201556 0.0210858 0.0219617 0.0227833 0.0235506 0.0242636 0.0249139 0.025493 0.026001 0.0264379 0.0268036 0.0270982 0.0273217 0.027474 0.0275631 0.0275971 0.0275758 0.0274993 0.0273676 0.0271807 0.0269386 0.0266413 0.0263034 0.0259399 0.0255505 0.0251354 0.0246945 0.0242278 0.0237354 0.0232171 0.0226858 0.0221538 0.0216212 0.021088 0.0205543 0.0200199 0.019485 0.0189495 0.0184191 0.0178998 0.0173916 0.0168943 0.0164081 0.0159328 0.0154686 0.0150154 0.0145727 0.01414 0.0137171 0.0133043 0.0129013 0.0125083 0.0121253 0.0117522 0.0113859 0.0110231 0.010664 0.0103084 0.00995646 0.00960807 0.00926328 0.00892208 0.00858262 0.00824305 0.00790338 0.00756361 0.00722373 0.00688375 0.00654366 0.00620347 0.00586475 0.00552907 0.00519644 0.00486685 0.0045403 0.0042168 0.00389634 0.00357892 0.0032691 0.00297144 0.00268594 0.00241259 0.0021514 0.00190236 0.00166548 0.00144075 0.00123135 0.00104043 0.000867994 0.000714043 0.000578576 0.000461594 0.000363096 0.000283083 0.000216736 0.000159234 0.000110579 7.07708e-05 3.98086e-05 1.76927e-05 4.42317e-06 0 0 3.83499e-05 0.0001534 0.000345149 0.000613598 0.000958747 0.0013806 0.00187914 0.00245439 0.00311361 0.00386405 0.00470573 0.00563865 0.00666279 0.00777817 0.00898478 0.0102826 0.0116288 0.0129805 0.0143377 0.0157003 0.0170684 0.018442 0.0198211 0.0212057 0.0225595 0.0238463 0.0250661 0.026219 0.0273048 0.0283237 0.0292756 0.0301605 0.030968 0.0316877 0.0323197 0.032864 0.0333205 0.0336892 0.0339702 0.0341634 0.0342786 0.0343254 0.034304 0.0342142 0.0340561 0.0338297 0.0335349 0.0331718 0.0327585 0.032313 0.0318353 0.0313254 0.0307833 0.0302091 0.0296026 0.0289639 0.0283086 0.0276521 0.0269944 0.0263355 0.0256755 0.0250143 0.0243519 0.0236883 0.0230307 0.0223864 0.0217554 0.0211376 0.0205331 0.0199418 0.0193638 0.018799 0.018247 0.017707 0.0171792 0.0166635 0.0161599 0.0156685 0.0151892 0.014722 0.0142631 0.0138087 0.0133588 0.0129134 0.0124724 0.0120359 0.0116039 0.0111764 0.0107511 0.0103258 0.00990057 0.00947534 0.00905013 0.00862494 0.00819976 0.00777461 0.0073514 0.00693207 0.00651662 0.00610505 0.00569736 0.00529354 0.0048936 0.00449754 0.00411092 0.00373931 0.00338269 0.00304108 0.00271448 0.00240287 0.00210627 0.00182467 0.00156202 0.00132224 0.00110535 0.000911347 0.000740222 0.000591979 0.00046662 0.000364143 0.000278797 0.00020483 0.000142243 9.10357e-05 5.12076e-05 2.27589e-05 5.68973e-06 0 0 4.74641e-05 0.000189856 0.000427177 0.000759425 0.0011866 0.00170871 0.00232574 0.0030377 0.00385199 0.00477602 0.00580978 0.00695327 0.0082065 0.00956946 0.0110422 0.0126246 0.0142649 0.0159111 0.0175633 0.0192215 0.0208857 0.0225558 0.0242319 0.025914 0.0275586 0.0291222 0.0306048 0.0320064 0.0333271 0.0345667 0.0357254 0.0368031 0.0377873 0.0386654 0.0394374 0.0401033 0.0406632 0.0411169 0.0414645 0.0417061 0.0418532 0.0419173 0.0418986 0.0417969 0.0416124 0.0413449 0.0409945 0.0405612 0.0400667 0.0395327 0.0389592 0.0383462 0.0376936 0.0370015 0.03627 0.0354989 0.034707 0.033913 0.0331169 0.0323187 0.0315184 0.030716 0.0299115 0.0291049 0.028305 0.0275207 0.0267518 0.0259984 0.0252606 0.0245383 0.0238315 0.0231402 0.0224638 0.021802 0.0211545 0.0205216 0.0199031 0.019299 0.0187094 0.0181342 0.017569 0.0170093 0.0164551 0.0159064 0.0153631 0.0148254 0.0142931 0.0137663 0.0132424 0.0127187 0.0121953 0.0116721 0.0111491 0.0106264 0.010104 0.00958178 0.00906213 0.00854735 0.00803745 0.00753242 0.00703227 0.00653699 0.00604658 0.00556105 0.00508703 0.00463116 0.00419343 0.00377385 0.00337242 0.00298913 0.00262399 0.002277 0.00195297 0.00165672 0.00138826 0.00114758 0.000934675 0.000749556 0.000592218 0.000462662 0.000354225 0.000260247 0.000180727 0.000115665 6.50618e-05 2.89163e-05 7.22909e-06 0 0 5.78349e-05 0.000231339 0.000520514 0.000925358 0.00144587 0.00208205 0.00283391 0.00370143 0.00469167 0.00581166 0.00706141 0.00844091 0.00995018 0.0115892 0.013358 0.0152565 0.017223 0.0191958 0.0211749 0.0231603 0.0251518 0.0271497 0.0291538 0.0311642 0.0331296 0.0349987 0.0367716 0.0384481 0.0400284 0.0415124 0.0429002 0.0441916 0.0453719 0.046426 0.0473541 0.0481559 0.0488317 0.0493813 0.0498048 0.0501021 0.0502869 0.0503728 0.0503596 0.0502475 0.0500365 0.0497264 0.0493174 0.0488094 0.0482281 0.047599 0.0469222 0.0461976 0.0454253 0.0446052 0.0437374 0.0428219 0.0418808 0.0409364 0.0399886 0.0390374 0.0380829 0.0371251 0.0361639 0.0351993 0.034242 0.0333024 0.0323807 0.0314767 0.0305906 0.0297222 0.0288716 0.0280388 0.0272234 0.0264248 0.0256432 0.0248785 0.0241307 0.0233999 0.0226859 0.0219889 0.0213036 0.0206249 0.0199529 0.0192874 0.0186286 0.0179764 0.0173308 0.0166919 0.0160565 0.0154217 0.0147875 0.0141538 0.0135208 0.0128883 0.0122563 0.011625 0.0109969 0.0103749 0.00975892 0.00914896 0.00854504 0.00794714 0.00735528 0.00676944 0.00619742 0.00564699 0.00511814 0.00461088 0.00412521 0.00366113 0.00321863 0.00279773 0.00240421 0.00204387 0.00171671 0.00142273 0.00116194 0.000934322 0.00073989 0.00057864 0.000443021 0.000325485 0.000226031 0.00014466 8.13712e-05 3.6165e-05 9.04124e-06 0 0 6.94622e-05 0.000277849 0.00062516 0.00111139 0.00173655 0.00250064 0.00340365 0.00444558 0.00563263 0.00697097 0.00846062 0.0101016 0.0118938 0.0138374 0.0159322 0.0181784 0.0205033 0.0228347 0.0251724 0.0275164 0.0298669 0.0322236 0.0345868 0.0369563 0.0392726 0.0414759 0.0435665 0.0455441 0.0474089 0.0491608 0.0507998 0.0523259 0.0537217 0.0549696 0.0560696 0.0570218 0.057826 0.0584824 0.0589909 0.0593514 0.0595798 0.0596917 0.0596871 0.059566 0.0593284 0.0589742 0.0585036 0.0579164 0.0572426 0.0565118 0.0557242 0.0548798 0.0539784 0.0530202 0.0520051 0.0509331 0.0498302 0.0487223 0.0476096 0.0464919 0.0453692 0.0442416 0.0431091 0.0419716 0.0408417 0.0397318 0.0386421 0.0375725 0.036523 0.0354935 0.0344842 0.033495 0.0325255 0.0315756 0.0306452 0.0297343 0.0288429 0.0279711 0.0271187 0.0262859 0.0254667 0.0246555 0.0238521 0.0230565 0.0222689 0.0214891 0.0207171 0.0199531 0.0191934 0.0184348 0.0176772 0.0169206 0.016165 0.0154104 0.0146568 0.0139042 0.0131558 0.0124147 0.011681 0.0109547 0.0102357 0.009524 0.00881969 0.00812272 0.0074421 0.0067868 0.00615683 0.00555218 0.00497286 0.00441887 0.0038902 0.00338686 0.00291573 0.00248367 0.0020907 0.00173681 0.001422 0.00114628 0.000909637 0.000712077 0.000545184 0.000400543 0.000278155 0.000178019 0.000100136 4.45048e-05 1.11262e-05 0 0 8.23461e-05 0.000329384 0.000741115 0.00131754 0.00205865 0.00296446 0.00403496 0.00527015 0.00667487 0.00825395 0.0100074 0.0119352 0.0140374 0.0163139 0.0187649 0.0213901 0.0241057 0.0268276 0.0295557 0.0322901 0.0350307 0.0377776 0.0405308 0.0432903 0.0459874 0.0485539 0.0509895 0.0532944 0.0554684 0.0575118 0.0594243 0.0612061 0.0628368 0.0642961 0.0655842 0.0667008 0.0676462 0.0684201 0.0690228 0.0694541 0.0697319 0.0698743 0.0698811 0.0697523 0.0694881 0.0690883 0.068553 0.0678822 0.0671102 0.0662712 0.0653654 0.0643926 0.0633529 0.0622463 0.0610728 0.0598324 0.058555 0.0572709 0.0559798 0.0546819 0.0533771 0.0520655 0.050747 0.0494216 0.048104 0.0468088 0.0455361 0.0442858 0.0430578 0.0418524 0.0406693 0.0395086 0.0383703 0.0372543 0.0361605 0.0350889 0.0340396 0.0330126 0.0320078 0.0310253 0.0300585 0.029101 0.0281527 0.0272137 0.0262839 0.0253633 0.024452 0.0235499 0.0226532 0.0217581 0.0208644 0.0199724 0.0190818 0.0181928 0.0173054 0.0164195 0.0155388 0.0146669 0.0138038 0.0129495 0.0121041 0.0112676 0.0104398 0.00962089 0.00882106 0.0080506 0.0073095 0.00659776 0.00591538 0.00526236 0.0046387 0.00404441 0.00348753 0.00297614 0.00251024 0.00208982 0.00171488 0.00138543 0.00110146 0.000862973 0.000660714 0.000485422 0.000337099 0.000215743 0.000121356 5.39358e-05 1.3484e-05 0 0 9.64865e-05 0.000385946 0.000868379 0.00154378 0.00241216 0.00347352 0.00472784 0.00617514 0.0078184 0.00966061 0.0117018 0.0139419 0.016381 0.019019 0.0218559 0.0248919 0.0280302 0.0311746 0.0343249 0.0374812 0.0406435 0.0438117 0.0469859 0.0501661 0.0532743 0.0562324 0.0590407 0.0616989 0.0642071 0.0665654 0.0687737 0.070832 0.0727171 0.0744056 0.0758976 0.0771932 0.0782921 0.0791946 0.0799006 0.08041 0.0807432 0.0809203 0.0809414 0.0808065 0.0805156 0.0800687 0.0794658 0.0787068 0.0778309 0.0768772 0.0758456 0.0747361 0.0735488 0.0722837 0.0709406 0.0695198 0.0680554 0.0665819 0.0650993 0.0636076 0.0621067 0.0605968 0.0590777 0.0575494 0.0560291 0.0545334 0.0530626 0.0516165 0.0501952 0.0487986 0.0474268 0.0460798 0.0447578 0.0434608 0.042189 0.0409424 0.0397209 0.0385245 0.0373533 0.0362072 0.035079 0.0339615 0.0328548 0.0317589 0.0306736 0.0295992 0.0285354 0.0274824 0.0264358 0.0253914 0.0243492 0.0233091 0.0222713 0.0212356 0.0202021 0.0191708 0.0181458 0.0171312 0.0161272 0.0151336 0.0141505 0.0131778 0.0122156 0.0112639 0.0103343 0.00943838 0.00857614 0.0077476 0.00695275 0.00619159 0.00546412 0.00477035 0.00411962 0.00352128 0.00297532 0.00248175 0.00204056 0.00165177 0.00131535 0.00103133 0.000789611 0.000580123 0.000402863 0.000257832 0.000145031 6.44581e-05 1.61145e-05 0 0 0.000111884 0.000447534 0.00100695 0.00179014 0.00279709 0.00402781 0.0054823 0.00716055 0.00906322 0.0111909 0.0135437 0.0161216 0.0189245 0.0219524 0.0252055 0.0286835 0.0322769 0.0358757 0.03948 0.0430898 0.0467051 0.0503258 0.0539521 0.0575838 0.061133 0.0645117 0.0677199 0.0707577 0.0736249 0.0763217 0.078848 0.0812038 0.0833626 0.085298 0.0870101 0.0884987 0.0897639 0.0908058 0.0916242 0.0922192 0.0926135 0.0928299 0.0928682 0.0927286 0.092411 0.0919154 0.0912418 0.0903902 0.0894048 0.0883297 0.0871649 0.0859104 0.0845661 0.0831322 0.0816086 0.0799953 0.0783313 0.0766555 0.0749681 0.0732689 0.071558 0.0698354 0.0681011 0.0663551 0.0646168 0.0629056 0.0612216 0.0595647 0.0579349 0.0563323 0.0547569 0.0532085 0.0516878 0.0501953 0.0487309 0.0472947 0.0458867 0.0445067 0.043155 0.0418314 0.0405281 0.0392371 0.0379584 0.0366921 0.0354382 0.0341966 0.0329673 0.0317505 0.0305412 0.0293349 0.0281314 0.0269309 0.0257334 0.0245387 0.0233469 0.0221581 0.0209769 0.0198079 0.0186512 0.0175068 0.0163747 0.0152548 0.0141472 0.0130519 0.0119818 0.0109501 0.00995676 0.00900171 0.00808497 0.00720656 0.00636647 0.00556471 0.004812 0.00411908 0.00348595 0.00291261 0.00239906 0.0019453 0.00155132 0.00121714 0.000931876 0.000684643 0.000475447 0.000304286 0.000171161 7.60715e-05 1.90179e-05 0 0 0.000128353 0.00051341 0.00115517 0.00205364 0.00320881 0.00462069 0.00628927 0.00821456 0.0103944 0.0128266 0.0155112 0.0184482 0.0216375 0.0250793 0.0287734 0.0327199 0.0367949 0.0408747 0.0449593 0.0490486 0.0531426 0.0572414 0.0613449 0.0654532 0.0694679 0.0732905 0.0769211 0.0803596 0.0836062 0.0866607 0.0895232 0.0921937 0.0946424 0.0968395 0.098785 0.100479 0.101921 0.103112 0.104051 0.104739 0.1052 0.105461 0.10552 0.105378 0.105035 0.104491 0.103745 0.102799 0.101701 0.1005 0.0991978 0.0977927 0.0962854 0.0946757 0.0929637 0.0911494 0.0892766 0.0873891 0.0854869 0.08357 0.0816385 0.0796923 0.0777314 0.0757558 0.0737876 0.0718488 0.0699394 0.0680595 0.066209 0.0643878 0.0625962 0.0608339 0.0591019 0.0574012 0.0557317 0.0540934 0.0524864 0.0509106 0.049366 0.0478526 0.0463618 0.0448852 0.0434225 0.041974 0.0405395 0.039119 0.0377126 0.0363203 0.0349368 0.0335572 0.0321813 0.0308092 0.0294408 0.0280762 0.0267154 0.0253583 0.0240103 0.0226764 0.0213568 0.0200514 0.0187602 0.0174832 0.0162205 0.014972 0.0137522 0.0125756 0.0114421 0.0103519 0.00930479 0.00830092 0.00734022 0.00642272 0.00556062 0.00476615 0.0040393 0.00338009 0.00278851 0.00226455 0.00180823 0.00141953 0.00108683 0.000798486 0.000554504 0.000354883 0.000199622 8.87207e-05 2.21802e-05 0 0 0.000145709 0.000582835 0.00131138 0.00233134 0.00364272 0.00524551 0.00713973 0.00932536 0.011797 0.0145493 0.0175821 0.0208956 0.0244897 0.0283644 0.0325197 0.0369556 0.0415337 0.0461155 0.050701 0.0552903 0.0598832 0.0644798 0.0690802 0.0736843 0.078183 0.0824675 0.0865377 0.0903936 0.0940351 0.0974624 0.100675 0.103674 0.106425 0.108896 0.111086 0.112995 0.114624 0.115972 0.11704 0.117827 0.118361 0.11867 0.118754 0.118613 0.118248 0.117657 0.116841 0.115799 0.114588 0.113261 0.111819 0.110261 0.108587 0.106798 0.104893 0.102872 0.100785 0.0986799 0.0965566 0.0944152 0.0922557 0.0900781 0.0878825 0.0856688 0.0834619 0.0812864 0.0791424 0.0770299 0.074949 0.0728995 0.0708815 0.068895 0.0669414 0.065022 0.0631369 0.0612861 0.0594695 0.0576871 0.055939 0.0542252 0.0525364 0.0508634 0.0492063 0.0475649 0.0459394 0.0443298 0.0427359 0.0411579 0.0395901 0.0380271 0.0364688 0.0349153 0.0333664 0.0318223 0.0302829 0.0287483 0.0272242 0.0257163 0.0242248 0.0227495 0.0212906 0.019848 0.0184216 0.0170116 0.0156338 0.0143043 0.0130229 0.0117898 0.010605 0.00946829 0.00837985 0.00733963 0.00636144 0.00545909 0.00463258 0.00388191 0.00320708 0.00260808 0.00208492 0.0016376 0.00125379 0.000921152 0.000639689 0.000409401 0.000230288 0.00010235 2.55875e-05 0 0 0.000163952 0.000655808 0.00147557 0.00262323 0.0040988 0.00590227 0.00803365 0.0104929 0.013271 0.0163589 0.0197565 0.0234639 0.027481 0.0318078 0.0364445 0.0413908 0.0464933 0.0515981 0.0567053 0.0618148 0.0669268 0.0720411 0.0771578 0.0822769 0.0872785 0.0920428 0.0965698 0.100859 0.104912 0.108727 0.112305 0.115645 0.118712 0.121468 0.123913 0.126048 0.127872 0.129386 0.13059 0.131483 0.132096 0.132459 0.132572 0.132436 0.132049 0.131413 0.130527 0.129392 0.128067 0.126612 0.125028 0.123314 0.121471 0.119498 0.117396 0.115165 0.112857 0.110528 0.108177 0.105804 0.10341 0.100993 0.0985545 0.0960942 0.0936396 0.0912184 0.0888305 0.0864761 0.084155 0.0818673 0.0796129 0.0773919 0.0752063 0.0730578 0.0709466 0.0688727 0.066836 0.0648365 0.0628742 0.0609493 0.0590517 0.0571718 0.0553096 0.053465 0.0516381 0.0498288 0.0480372 0.0462633 0.0445011 0.0427447 0.0409941 0.0392492 0.0375102 0.035777 0.0340496 0.032328 0.0306186 0.0289276 0.0272552 0.0256013 0.0239659 0.022349 0.0207506 0.0191707 0.0176268 0.0161363 0.0146992 0.0133156 0.0119854 0.0107087 0.00948535 0.00831545 0.00721448 0.00619792 0.00526578 0.00441806 0.00365476 0.00297588 0.00238141 0.00187136 0.00143276 0.00105264 0.000731 0.00046784 0.00026316 0.00011696 2.924e-05 0 0 0.000183083 0.000732331 0.00164774 0.00292932 0.00457707 0.00659098 0.00897105 0.0117173 0.0148165 0.0182555 0.0220344 0.026153 0.0306114 0.0354096 0.0405476 0.0460254 0.0516735 0.0573223 0.0629719 0.0686223 0.0742734 0.0799252 0.0855778 0.0912311 0.0967543 0.102016 0.107017 0.111757 0.116236 0.120454 0.124411 0.128106 0.131501 0.134554 0.137266 0.139637 0.141666 0.143354 0.144701 0.145707 0.146404 0.146826 0.146973 0.146844 0.14644 0.145761 0.144806 0.143576 0.142136 0.140553 0.138825 0.136953 0.134937 0.132777 0.130474 0.128026 0.125493 0.122934 0.120349 0.117737 0.1151 0.112437 0.109747 0.107032 0.104321 0.101645 0.0990038 0.0963979 0.093827 0.0912912 0.0887904 0.0863246 0.0838965 0.0815085 0.0791608 0.0768532 0.0745858 0.0723586 0.0701716 0.0680248 0.0659078 0.0638104 0.0617325 0.0596742 0.0576355 0.0556163 0.0536166 0.0516365 0.0496697 0.0477098 0.045757 0.0438111 0.0418722 0.0399403 0.0380154 0.0360975 0.0341935 0.0323103 0.030448 0.0286066 0.026786 0.0249862 0.0232073 0.0214493 0.019731 0.0180716 0.016471 0.0149292 0.0134463 0.0120221 0.0106567 0.00935018 0.00811972 0.00698263 0.0059389 0.00498855 0.00413156 0.00336794 0.00269769 0.0021208 0.00162374 0.00119295 0.000828438 0.0005302 0.000298238 0.00013255 3.31375e-05 0 0 0.000203101 0.000812402 0.00182791 0.00324961 0.00507752 0.00731162 0.00995193 0.0129984 0.0164334 0.0202392 0.0244157 0.0289629 0.0338809 0.0391697 0.0448292 0.0508594 0.0570745 0.0632884 0.0695011 0.0757126 0.081923 0.0881321 0.0943401 0.100547 0.10661 0.112388 0.117881 0.123087 0.128008 0.132644 0.136994 0.141058 0.144794 0.148156 0.151145 0.153762 0.156005 0.157876 0.159374 0.160499 0.161286 0.161772 0.161956 0.161839 0.16142 0.160699 0.159676 0.158352 0.156797 0.155083 0.15321 0.151178 0.148986 0.146635 0.144125 0.141456 0.138692 0.135897 0.133071 0.130215 0.127327 0.12441 0.121461 0.118482 0.115505 0.112566 0.109662 0.106795 0.103965 0.101171 0.0984139 0.0956931 0.0930121 0.0903742 0.0877794 0.0852277 0.082719 0.0802535 0.0778311 0.0754517 0.0731047 0.0707792 0.0684751 0.0661926 0.0639316 0.0616921 0.059474 0.0572775 0.0550959 0.0529226 0.0507576 0.0486008 0.0464524 0.0443122 0.0421803 0.0400567 0.0379489 0.0358644 0.0338033 0.0317654 0.0297509 0.0277597 0.0257919 0.0238473 0.0219466 0.0201103 0.0183383 0.0166307 0.0149874 0.0134085 0.011894 0.0104438 0.00907717 0.00781322 0.00665195 0.00559337 0.00463747 0.00378427 0.00303375 0.00238593 0.00182673 0.00134208 0.000932003 0.000596482 0.000335521 0.00014912 3.72801e-05 0 0 0.000224006 0.000896023 0.00201605 0.00358409 0.00560014 0.00806421 0.0109763 0.0143364 0.0181218 0.0223098 0.0269004 0.0318937 0.0372896 0.043088 0.0492892 0.0558929 0.0626962 0.0694962 0.0762927 0.0830858 0.0898756 0.0966619 0.103445 0.110224 0.116847 0.123158 0.129159 0.134849 0.140228 0.145297 0.150054 0.154501 0.158589 0.162273 0.16555 0.168423 0.17089 0.172951 0.174608 0.175859 0.176742 0.177297 0.177523 0.17742 0.176988 0.176228 0.175138 0.17372 0.172049 0.170204 0.168183 0.165988 0.163617 0.161072 0.158351 0.155455 0.152454 0.149417 0.146344 0.143236 0.140091 0.136911 0.133696 0.130444 0.127194 0.123981 0.120806 0.117669 0.114569 0.111507 0.108483 0.105497 0.102553 0.0996548 0.0968024 0.093996 0.0912356 0.0885212 0.0858527 0.0832301 0.0806423 0.0780781 0.0755373 0.0730201 0.0705264 0.0680562 0.0656095 0.0631864 0.0607798 0.058383 0.0559958 0.0536184 0.0512507 0.0488926 0.0465443 0.0442056 0.0418848 0.0395899 0.0373209 0.0350779 0.0328607 0.0306695 0.0285042 0.0263649 0.0242735 0.0222522 0.020301 0.0184199 0.0166089 0.014868 0.0131971 0.0115964 0.0100868 0.00868968 0.00740491 0.00623252 0.0051725 0.00422487 0.00338961 0.00266674 0.00204172 0.00150004 0.0010417 0.000666685 0.00037501 0.000166671 4.16678e-05 0 0 0.000245798 0.000983192 0.00221218 0.00393277 0.00614495 0.00884873 0.0120441 0.0157311 0.