<?xml version="1.0"?> 
<VTKFile type="StructuredGrid" version="0.1"> 
<StructuredGrid WholeExtent="0 128 0 128 0 0"> 
<Piece Extent="0 128 0 128 0 0"> 
<PointData>
<DataArray type="Float32" Name="u" format="ascii" NumberOfComponents="1"> 
0 0 0 0 0 0 0 0 0 0 0 0 0 0 0 0 0 0 0 0 0 0 0 0 0 0 0 0 0 0 0 0 0 0 0 0 0 0 0 0 0 0 0 0 0 0 0 0 0 0 0 0 0 0 0 0 0 0 0 0 0 0 0 0 0 0 0 0 0 0 0 0 0 0 0 0 0 0 0 0 0 0 0 0 0 0 0 0 0 0 0 0 0 0 0 0 0 0 0 0 0 0 0 0 0 0 0 0 0 0 0 0 0 0 0 0 0 0 0 0 0 0 0 0 0 0 0 0 0 0 1.95544e-06 7.82177e-06 1.7599e-05 3.12871e-05 4.88861e-05 7.0396e-05 9.58167e-05 0.000125148 0.00015851 0.000196021 0.000237681 0.00028349 0.000333448 0.000387555 0.000445811 0.000508217 0.000572642 0.000636957 0.000701163 0.000765258 0.000829244 0.00089312 0.000956887 0.00102054 0.00108246 0.00114102 0.00119622 0.00124805 0.00129652 0.00134163 0.00138338 0.00142176 0.00145636 0.00148677 0.00151298 0.00153499 0.00155281 0.00156643 0.00157585 0.00158107 0.00158254 0.00158069 0.00157551 0.00156701 0.00155519 0.00154005 0.00152159 0.0014998 0.00147549 0.00144942 0.0014216 0.00139202 0.0013607 0.00132763 0.00129281 0.00125624 0.00121865 0.00118078 0.00114263 0.0011042 0.00106549 0.00102649 0.000987218 0.000947662 0.000908305 0.000869627 0.000831627 0.000794307 0.000757665 0.000721702 0.000686418 0.000651813 0.000618079 0.000585409 0.000553803 0.000523261 0.000493784 0.00046537 0.00043802 0.000411734 0.000386495 0.000362283 0.000339099 0.000316944 0.000295816 0.000275717 0.000256645 0.000238602 0.000221473 0.000205147 0.000189624 0.000174903 0.000160985 0.000147869 0.000135555 0.000124044 0.000113224 0.000102983 9.33209e-05 8.42377e-05 7.57336e-05 6.78085e-05 6.04625e-05 5.36954e-05 4.74378e-05 4.16199e-05 3.62418e-05 3.13035e-05 2.68049e-05 2.27461e-05 1.91271e-05 1.59478e-05 1.31413e-05 1.06405e-05 8.44535e-06 6.55592e-06 4.97218e-06 3.69415e-06 2.72181e-06 2.05517e-06 1.57349e-06 1.15603e-06 8.02799e-07 5.13792e-07 2.89008e-07 1.28448e-07 3.2112e-08 0 0 7.82177e-06 3.12871e-05 7.0396e-05 0.000125148 0.000195544 0.000281584 0.000383267 0.000500593 0.00063404 0.000784083 0.000950723 0.00113396 0.00133379 0.00155022 0.00178324 0.00203287 0.00229057 0.00254783 0.00280465 0.00306103 0.00331698 0.00357248 0.00382755 0.00408217 0.00432986 0.00456409 0.00478487 0.0049922 0.00518609 0.00536652 0.0055335 0.00568704 0.00582545 0.00594708 0.00605192 0.00613997 0.00621123 0.00626571 0.0063034 0.0063243 0.00633016 0.00632274 0.00630203 0.00626804 0.00622076 0.0061602 0.00608635 0.00599922 0.00590194 0.00579766 0.00568638 0.0055681 0.00544281 0.00531053 0.00517124 0.00502495 0.0048746 0.00472312 0.00457052 0.00441679 0.00426194 0.00410597 0.00394887 0.00379065 0.00363322 0.00347851 0.00332651 0.00317723 0.00303066 0.00288681 0.00274567 0.00260725 0.00247232 0.00234164 0.00221521 0.00209305 0.00197513 0.00186148 0.00175208 0.00164694 0.00154598 0.00144913 0.0013564 0.00126778 0.00118327 0.00110287 0.00102658 0.000954406 0.000885893 0.000820589 0.000758496 0.000699612 0.000643939 0.000591475 0.000542221 0.000496178 0.000452897 0.000411932 0.000373283 0.000336951 0.000302935 0.000271234 0.00024185 0.000214782 0.000189751 0.00016648 0.000144967 0.000125214 0.00010722 9.09845e-05 7.65083e-05 6.37913e-05 5.25652e-05 4.25619e-05 3.37814e-05 2.62237e-05 1.98887e-05 1.47766e-05 1.08872e-05 8.22067e-06 6.29395e-06 4.62413e-06 3.2112e-06 2.05517e-06 1.15603e-06 5.13792e-07 1.28448e-07 0 0 1.7599e-05 7.0396e-05 0.000158391 0.000281584 0.000439975 0.000633564 0.00086235 0.00112634 0.00142659 0.00176419 0.00213913 0.00255141 0.00300103 0.00348799 0.0040123 0.00457395 0.00515378 0.00573261 0.00631046 0.00688733 0.0074632 0.00803808 0.00861198 0.00918489 0.00974218 0.0102692 0.010766 0.0112325 0.0116687 0.0120747 0.0124504 0.0127958 0.0131073 0.0133809 0.0136168 0.0138149 0.0139753 0.0140978 0.0141826 0.0142297 0.0142429 0.0142262 0.0141796 0.0141031 0.0139967 0.0138605 0.0136943 0.0134982 0.0132794 0.0130447 0.0127944 0.0125282 0.0122463 0.0119487 0.0116353 0.0113061 0.0109678 0.010627 0.0102837 0.00993779 0.00958938 0.00923843 0.00888496 0.00852896 0.00817474 0.00782664 0.00748465 0.00714876 0.00681899 0.00649532 0.00617776 0.00586631 0.00556271 0.00526868 0.00498423 0.00470935 0.00444405 0.00418833 0.00394218 0.00370561 0.00347845 0.00326055 0.0030519 0.00285249 0.00266235 0.00248145 0.00230981 0.00214741 0.00199326 0.00184633 0.00170662 0.00157413 0.00144886 0.00133082 0.00122 0.0011164 0.00101902 0.000926847 0.000839888 0.00075814 0.000681603 0.000610277 0.000544162 0.000483259 0.00042694 0.000374579 0.000326176 0.000281731 0.000241244 0.000204715 0.000172144 0.00014353 0.000118272 9.57643e-05 7.60081e-05 5.90032e-05 4.47496e-05 3.32473e-05 2.44963e-05 1.84965e-05 1.41614e-05 1.04043e-05 7.2252e-06 4.62413e-06 2.60107e-06 1.15603e-06 2.89008e-07 0 0 3.12871e-05 0.000125148 0.000281584 0.000500593 0.000782177 0.00112634 0.00153307 0.00200237 0.00253616 0.00313633 0.00380289 0.00453583 0.00533516 0.00620088 0.00713298 0.00813147 0.00916227 0.0101913 0.0112186 0.0122441 0.0132679 0.0142899 0.0153102 0.0163287 0.0173194 0.0182564 0.0191395 0.0199688 0.0207443 0.0214661 0.022134 0.0227482 0.0233018 0.0237883 0.0242077 0.0245599 0.0248449 0.0250628 0.0252136 0.0252972 0.0253207 0.025291 0.0252081 0.0250722 0.0248831 0.0246408 0.0243454 0.0239969 0.0236078 0.0231906 0.0227455 0.0222724 0.0217713 0.0212421 0.020685 0.0200998 0.0194984 0.0188925 0.0182821 0.0176672 0.0170478 0.0164239 0.0157955 0.0151626 0.0145329 0.013914 0.013306 0.0127089 0.0121226 0.0115472 0.0109827 0.010429 0.00988926 0.00936654 0.00886085 0.00837218 0.00790054 0.00744592 0.00700832 0.00658775 0.00618392 0.00579653 0.00542559 0.0050711 0.00473306 0.00441147 0.00410632 0.00381762 0.00354357 0.00328236 0.00303398 0.00279845 0.00257576 0.0023659 0.00216889 0.00198471 0.00181159 0.00164773 0.00149313 0.0013478 0.00121174 0.00108494 0.0009674 0.000859127 0.000759005 0.000665919 0.000579869 0.000500856 0.000428879 0.000363938 0.000306033 0.000255165 0.000210261 0.000170248 0.000135126 0.000104895 7.95549e-05 5.91063e-05 4.35489e-05 3.28827e-05 2.51758e-05 1.84965e-05 1.28448e-05 8.22067e-06 4.62413e-06 2.05517e-06 5.13792e-07 0 0 4.88861e-05 0.000195544 0.000439975 0.000782177 0.00122215 0.0017599 0.00239542 0.00312871 0.00396275 0.00490052 0.00594202 0.00708724 0.00833619 0.00968887 0.0111453 0.0127054 0.014316 0.0159239 0.0175291 0.0191315 0.0207311 0.022328 0.0239222 0.0255136 0.0270616 0.0285256 0.0299054 0.0312013 0.032413 0.0335408 0.0345844 0.035544 0.0364091 0.0371692 0.0378245 0.0383748 0.0388202 0.0391607 0.0393962 0.0395269 0.0395635 0.0395171 0.0393877 0.0391753 0.0388798 0.0385013 0.0380397 0.0374951 0.0368871 0.0362354 0.0355399 0.0348006 0.0340176 0.0331908 0.0323203 0.0314059 0.0304662 0.0295195 0.0285658 0.027605 0.0266372 0.0256623 0.0246804 0.0236915 0.0227076 0.0217407 0.0207907 0.0198577 0.0189416 0.0180426 0.0171605 0.0162953 0.015452 0.0146352 0.0138451 0.0130815 0.0123446 0.0116342 0.0109505 0.0102934 0.00966237 0.00905708 0.00847749 0.0079236 0.00739541 0.00689292 0.00641613 0.00596504 0.00553683 0.00512868 0.0047406 0.00437258 0.00402462 0.00369672 0.00338888 0.00310111 0.00283061 0.00257458 0.00233302 0.00210594 0.00189334 0.00169521 0.00151156 0.00134239 0.00118594 0.0010405 0.000906045 0.000782587 0.000670123 0.000568653 0.000478177 0.000398696 0.000328533 0.000266012 0.000211134 0.000163898 0.000124305 9.23536e-05 6.80452e-05 5.13792e-05 3.93372e-05 2.89008e-05 2.007e-05 1.28448e-05 7.2252e-06 3.2112e-06 8.02799e-07 0 0 7.0396e-05 0.000281584 0.000633564 0.00112634 0.0017599 0.00253425 0.0034494 0.00450534 0.00570636 0.00705675 0.0085565 0.0102056 0.0120041 0.013952 0.0160492 0.0182958 0.0206151 0.0229305 0.0252419 0.0275493 0.0298528 0.0321523 0.0344479 0.0367396 0.0389687 0.0410768 0.0430638 0.0449298 0.0466748 0.0482987 0.0498015 0.0511833 0.0524291 0.0535237 0.0544673 0.0552597 0.0559011 0.0563914 0.0567306 0.0569187 0.0569715 0.0569047 0.0567183 0.0564124 0.0559869 0.0554418 0.0547772 0.053993 0.0531175 0.052179 0.0511774 0.0501129 0.0489853 0.0477948 0.0465412 0.0452246 0.0438714 0.0425081 0.0411347 0.0397512 0.0383575 0.0369537 0.0355398 0.0341158 0.032699 0.0313066 0.0299386 0.028595 0.0272759 0.0259813 0.024711 0.0234653 0.0222508 0.0210747 0.0199369 0.0188374 0.0177762 0.0167533 0.0157687 0.0148224 0.0139138 0.0130422 0.0122076 0.01141 0.0106494 0.0099258 0.00923922 0.00858965 0.00797303 0.0073853 0.00682646 0.00629651 0.00579545 0.00532328 0.00487999 0.0044656 0.00407607 0.00370739 0.00335955 0.00303256 0.00272641 0.00244111 0.00217665 0.00193304 0.00170776 0.00149832 0.00130471 0.00112693 0.000964977 0.00081886 0.000688575 0.000574122 0.000473087 0.000383057 0.000304032 0.000236013 0.000178999 0.000132989 9.79851e-05 7.3986e-05 5.66455e-05 4.16171e-05 2.89008e-05 1.84965e-05 1.04043e-05 4.62413e-06 1.15603e-06 0 0 9.58167e-05 0.000383267 0.00086235 0.00153307 0.00239542 0.0034494 0.00469502 0.00613227 0.00776699 0.00960502 0.0116464 0.013891 0.0163389 0.0189902 0.0218448 0.0249026 0.0280594 0.0312109 0.034357 0.0374977 0.040633 0.0437629 0.0468875 0.0500066 0.0530407 0.0559101 0.0586147 0.0611545 0.0635296 0.0657399 0.0677854 0.0696662 0.0713618 0.0728517 0.074136 0.0752146 0.0760876 0.076755 0.0772166 0.0774727 0.0775445 0.0774536 0.0771999 0.0767835 0.0762044 0.0754625 0.0745578 0.0734904 0.0722988 0.0710214 0.0696582 0.0682092 0.0666745 0.065054 0.0633477 0.0615557 0.0597138 0.0578582 0.0559889 0.0541057 0.0522088 0.0502981 0.0483737 0.0464354 0.0445069 0.0426117 0.0407497 0.038921 0.0371256 0.0353634 0.0336345 0.0319388 0.0302859 0.028685 0.0271364 0.0256398 0.0241954 0.0228031 0.021463 0.020175 0.0189382 0.0177519 0.0166159 0.0155302 0.014495 0.0135101 0.0125756 0.0116915 0.0108522 0.0100522 0.00929157 0.00857025 0.00788825 0.00724557 0.00664221 0.00607818 0.00554799 0.00504617 0.00457272 0.00412765 0.00371095 0.00332262 0.00296266 0.00263108 0.00232445 0.00203938 0.00177585 0.00153387 0.00131344 0.00111456 0.000937227 0.000781444 0.000643924 0.000521383 0.000413822 0.00032124 0.000243637 0.000181013 0.000133369 0.000100703 7.71009e-05 5.66455e-05 3.93372e-05 2.51758e-05 1.41614e-05 6.29395e-06 1.57349e-06 0 0 0.000125148 0.000500593 0.00112634 0.00200237 0.00312871 0.00450534 0.00613227 0.0080095 0.0101446 0.0125453 0.0152116 0.0181433 0.0213407 0.0248035 0.0285319 0.0325259 0.0366491 0.0407653 0.0448744 0.0489765 0.0530716 0.0571597 0.0612408 0.0653148 0.0692777 0.0730254 0.0765579 0.0798753 0.0829774 0.0858643 0.0885361 0.0909926 0.0932072 0.0951533 0.0968307 0.0982395 0.0993798 0.100251 0.100854 0.101189 0.101283 0.101164 0.100833 0.100289 0.0995322 0.0985632 0.0973816 0.0959875 0.0944311 0.0927626 0.0909821 0.0890896 0.087085 0.0849685 0.0827399 0.0803992 0.0779936 0.0755699 0.0731283 0.0706687 0.0681911 0.0656955 0.0631819 0.0606504 0.0581315 0.0556561 0.0532242 0.0508356 0.0484906 0.0461889 0.0439308 0.041716 0.039557 0.0374662 0.0354434 0.0334887 0.0316021 0.0297837 0.0280333 0.026351 0.0247357 0.0231861 0.0217024 0.0202844 0.0189322 0.0176459 0.0164253 0.0152705 0.0141743 0.0131294 0.0121359 0.0111938 0.010303 0.0094636 0.00867554 0.00793884 0.00724635 0.00659091 0.00597254 0.00539122 0.00484695 0.00433975 0.0038696 0.00343651 0.00303602 0.00266367 0.00231948 0.00200342 0.00171551 0.00145575 0.00122413 0.00102066 0.000841043 0.00068099 0.000540502 0.000419579 0.00031822 0.000236425 0.000174196 0.000131531 0.000100703 7.3986e-05 5.13792e-05 3.28827e-05 1.84965e-05 8.22067e-06 2.05517e-06 0 0 0.000158966 0.000635863 0.00143069 0.00254345 0.00397414 0.00572276 0.00778932 0.0101738 0.0128846 0.01593 0.01931 0.0230246 0.0270739 0.0314578 0.0361764 0.0412296 0.0464453 0.0516515 0.0568481 0.0620352 0.0672128 0.0723808 0.0775393 0.0826882 0.0876965 0.0924329 0.0968976 0.10109 0.105011 0.108661 0.112038 0.115143 0.117943 0.120404 0.122526 0.124309 0.125752 0.126856 0.127621 0.128047 0.128169 0.128023 0.127608 0.126924 0.125972 0.124752 0.123263 0.121505 0.119542 0.117437 0.115191 0.112803 0.110273 0.107601 0.104787 0.101831 0.0987935 0.0957323 0.0926481 0.0895406 0.08641 0.0832563 0.0800794 0.0768793 0.0736949 0.0705651 0.0674897 0.0644689 0.0615026 0.0585908 0.0557336 0.0529308 0.0501982 0.0475516 0.0449907 0.0425157 0.0401266 0.0378233 0.0356059 0.0334744 0.0314273 0.0294634 0.0275827 0.025785 0.0240706 0.0224392 0.020891 0.019426 0.018035 0.016709 0.0154481 0.0142522 0.0131213 0.0120554 0.0110546 0.0101188 0.00923893 0.00840608 0.00762019 0.00688128 0.00618934 0.00554437 0.00494638 0.00439535 0.00388565 0.00341161 0.00297323 0.00257053 0.00220348 0.00187211 0.0015764 0.00131636 0.00108657 0.000881629 0.000701534 0.000546286 0.000415884 0.000310329 0.00022962 0.000173758 0.000133033 9.77387e-05 6.78741e-05 4.34394e-05 2.44347e-05 1.08599e-05 2.71496e-06 0 0 0.000197843 0.000791373 0.00178059 0.00316549 0.00494608 0.00712236 0.00969432 0.012662 0.016032 0.0198112 0.0239995 0.0285969 0.0336034 0.0390191 0.0448439 0.0510778 0.0575094 0.0639275 0.0703321 0.076723 0.0831004 0.0894642 0.0958145 0.102151 0.108314 0.114143 0.119637 0.124798 0.129625 0.134117 0.138275 0.142099 0.145548 0.148581 0.151197 0.153396 0.155179 0.156545 0.157495 0.158029 0.158189 0.158018 0.157518 0.156687 0.155527 0.154036 0.152215 0.150063 0.147659 0.14508 0.142326 0.139397 0.136293 0.133013 0.129558 0.125929 0.122196 0.118435 0.114643 0.110822 0.106971 0.103091 0.0991807 0.095241 0.0913194 0.0874639 0.0836744 0.0799509 0.0762934 0.072702 0.0691766 0.0657172 0.0623433 0.0590746 0.0559109 0.0528524 0.0498989 0.0470505 0.0443072 0.041669 0.0391345 0.0367023 0.0343724 0.0321447 0.0300194 0.0279963 0.0260756 0.0242571 0.0225299 0.0208831 0.0193166 0.0178305 0.0164246 0.0150991 0.0138539 0.0126891 0.0115935 0.0105561 0.0095769 0.00865587 0.00779303 0.00698838 0.00624191 0.00555363 0.00491652 0.00432357 0.00377477 0.00327012 0.00280964 0.00239331 0.00202113 0.00169311 0.00140263 0.00114305 0.000914379 0.000716619 0.000549769 0.000413828 0.000308796 0.000234673 0.000179672 0.000132004 9.16692e-05 5.86683e-05 3.30009e-05 1.46671e-05 3.66677e-06 0 0 0.000241781 0.000967125 0.00217603 0.0038685 0.00604453 0.00870412 0.0118473 0.015474 0.019587 0.024189 0.0292801 0.0348601 0.0409292 0.0474872 0.0545343 0.0620704 0.0698415 0.0775934 0.0853262 0.09304 0.100735 0.10841 0.116066 0.123704 0.13113 0.138155 0.144778 0.150998 0.156817 0.162234 0.167248 0.171861 0.176022 0.179683 0.182843 0.185502 0.187661 0.189319 0.190476 0.191132 0.19134 0.19115 0.190563 0.189578 0.188195 0.186415 0.184238 0.181663 0.178783 0.175692 0.172388 0.168873 0.165145 0.161205 0.157054 0.152691 0.148202 0.143677 0.139113 0.134513 0.129875 0.125199 0.120486 0.115735 0.111005 0.106353 0.101778 0.0972816 0.0928631 0.0885225 0.0842598 0.0800752 0.0759923 0.0720353 0.0682041 0.0644987 0.060919 0.0574652 0.0541372 0.0509349 0.0478572 0.0449027 0.0420715 0.0393635 0.0367787 0.0343172 0.031979 0.0297639 0.0276592 0.0256517 0.0237415 0.0219286 0.020213 0.0185946 0.0170736 0.0156498 0.0143101 0.013041 0.0118427 0.010715 0.00965802 0.00867176 0.0077562 0.00691134 0.00612864 0.00539955 0.00472408 0.00410222 0.00353397 0.00301934 0.00255833 0.00215093 0.00178921 0.00146525 0.00117904 0.000930578 0.000719874 0.000546922 0.000411723 0.000314277 0.000240618 0.000176781 0.000122764 7.85693e-05 4.41952e-05 1.96423e-05 4.91058e-06 0 0 0.00029078 0.00116312 0.00261702 0.00465247 0.00726949 0.0104681 0.0142482 0.0186099 0.0235495 0.0290635 0.0351517 0.0418143 0.0490511 0.0568623 0.0652478 0.0742076 0.0834415 0.0926491 0.101831 0.110986 0.120115 0.129218 0.138295 0.147346 0.156145 0.16447 0.172318 0.179691 0.186589 0.19301 0.198957 0.204428 0.209365 0.21371 0.217464 0.220626 0.223197 0.225176 0.226563 0.227359 0.227624 0.227418 0.226742 0.225595 0.223978 0.22189 0.219332 0.216304 0.212914 0.209271 0.205377 0.201229 0.19683 0.192178 0.187274 0.182117 0.176811 0.171458 0.166059 0.160613 0.15512 0.149581 0.143995 0.138362 0.132752 0.127231 0.121801 0.116461 0.111212 0.106052 0.100983 0.0960047 0.0911452 0.0864337 0.0818702 0.0774546 0.073187 0.0690674 0.0650957 0.0612721 0.0575954 0.0540647 0.05068 0.0474413 0.0443486 0.0414019 0.0386012 0.0359464 0.0334226 0.0310147 0.0287227 0.0265466 0.0244864 0.022542 0.0207136 0.019001 0.0173886 0.0158608 0.0144174 0.0130586 0.0117843 0.0105945 0.00948925 0.00846849 0.007522 0.00663956 0.00582117 0.00506681 0.00437649 0.00375022 0.00318799 0.00268981 0.00224633 0.00184823 0.00149551 0.00118816 0.000926198 0.00070961 0.000538401 0.00041257 0.000315874 0.00023207 0.00016116 0.000103142 5.80176e-05 2.57856e-05 6.4464e-06 0 0 0.000344838 0.00137935 0.00310354 0.00551741 0.00862095 0.0124142 0.0168971 0.0220696 0.0279196 0.0344345 0.0416144 0.0494594 0.0579693 0.0671443 0.0769842 0.0874892 0.0983093 0.109095 0.119845 0.130561 0.141242 0.151889 0.1625 0.173077 0.183359 0.193086 0.202259 0.210877 0.218939 0.226448 0.233401 0.239799 0.245576 0.250663 0.255061 0.258769 0.261788 0.264117 0.265758 0.266708 0.26704 0.266822 0.266055 0.26474 0.262875 0.260461 0.257498 0.253985 0.25005 0.245819 0.241291 0.236468 0.231347 0.225931 0.220218 0.214209 0.208023 0.20178 0.19548 0.189123 0.182708 0.176237 0.169708 0.163122 0.156559 0.1501 0.143743 0.137489 0.131339 0.125291 0.119347 0.113506 0.107802 0.10227 0.0969092 0.0917202 0.0867028 0.0818571 0.077183 0.0726805 0.0683491 0.0641882 0.0601979 0.0563782 0.052729 0.0492503 0.0459422 0.0428046 0.0398204 0.0369723 0.0342603 0.0316845 0.0292448 0.0269413 0.0247739 0.0227426 0.0208292 0.0190154 0.0173013 0.0156868 0.0141719 0.0127567 0.0114411 0.0102251 0.00909661 0.0080436 0.00706603 0.00616389 0.0053372 0.00458594 0.00391012 0.00330974 0.00277397 0.00229199 0.00186379 0.00148937 0.00116874 0.000901894 0.00068883 0.000529551 0.000405437 0.000297872 0.000206856 0.000132388 7.44681e-05 3.30969e-05 8.27423e-06 0 0 0.000403957 0.00161583 0.00363561 0.00646332 0.0100989 0.0145425 0.0197939 0.0258533 0.0326971 0.0403021 0.0486682 0.0577954 0.0676837 0.0783332 0.0897437 0.101915 0.114445 0.12693 0.13937 0.151765 0.164116 0.176421 0.188682 0.200898 0.212772 0.224006 0.2346 0.244555 0.25387 0.262545 0.270581 0.277977 0.284656 0.290541 0.295633 0.29993 0.303434 0.306143 0.308059 0.30918 0.309588 0.309363 0.308504 0.307011 0.304886 0.302127 0.298734 0.294708 0.290193 0.285335 0.280133 0.274587 0.268697 0.262464 0.255887 0.248966 0.241838 0.234642 0.227376 0.220042 0.212639 0.205166 0.197625 0.190015 0.182428 0.174958 0.167604 0.160366 0.153245 0.14624 0.139351 0.132579 0.125963 0.119544 0.113321 0.107295 0.101466 0.0958343 0.0903989 0.0851602 0.0801183 0.0752733 0.0706253 0.0661741 0.0619198 0.0578625 0.054002 0.0503385 0.0468524 0.0435243 0.0403543 0.0373423 0.0344883 0.0317924 0.0292545 0.0268746 0.0246317 0.0225049 0.0204942 0.0185995 0.0168208 0.0151582 0.0136116 0.0121811 0.0108525 0.00961167 0.00845867 0.00739348 0.00641608 0.0055265 0.00472472 0.00401074 0.00337215 0.00279653 0.00228389 0.00183421 0.00144751 0.00112377 0.000863011 0.00066522 0.000509309 0.000374186 0.000259852 0.000166305 9.35466e-05 4.15763e-05 1.03941e-05 0 0 0.000468137 0.00187255 0.00421323 0.00749019 0.0117034 0.0168529 0.0229387 0.0299607 0.0378822 0.0466663 0.0563131 0.0668224 0.0781944 0.0904289 0.103526 0.117486 0.131849 0.146155 0.160405 0.174599 0.188736 0.202817 0.216841 0.230808 0.244383 0.257227 0.269341 0.280725 0.291379 0.301303 0.310496 0.318959 0.326605 0.333345 0.33918 0.34411 0.348134 0.351253 0.353467 0.354775 0.355269 0.355039 0.354087 0.352411 0.350011 0.346888 0.343042 0.338472 0.333343 0.327819 0.321901 0.315588 0.30888 0.301777 0.294279 0.286387 0.278256 0.270043 0.261748 0.253371 0.244911 0.23637 0.227746 0.21904 0.210358 0.201806 0.193384 0.185092 0.17693 0.168897 0.160995 0.153223 0.145627 0.138255 0.131106 0.12418 0.117478 0.110999 0.104743 0.0987111 0.092903 0.08732 0.081962 0.0768291 0.0719212 0.0672384 0.0627807 0.058548 0.0545186 0.0506708 0.0470046 0.04352 0.0402169 0.0370953 0.0341554 0.031397 0.0287963 0.0263293 0.0239961 0.0217967 0.019731 0.0177991 0.0160009 0.0143365 0.0127896 0.0113438 0.00999909 0.00875555 0.00761315 0.0065719 0.00563178 0.0047928 0.00404086 0.00336186 0.00275579 0.00222267 0.00176249 0.00137525 0.00106094 0.000819578 0.00062749 0.000461013 0.000320148 0.000204895 0.000115253 5.12236e-05 1.28059e-05 0 0 0.000537376 0.00214951 0.00483639 0.00859802 0.0134344 0.0193455 0.0263314 0.0343921 0.0434749 0.0535272 0.064549 0.0765404 0.0895012 0.103432 0.118332 0.134201 0.15052 0.16677 0.182951 0.199061 0.215102 0.231074 0.246976 0.262808 0.278193 0.292751 0.306483 0.319388 0.331467 0.34272 0.353147 0.362747 0.371422 0.379074 0.385703 0.391308 0.395889 0.399447 0.401981 0.403492 0.404082 0.403853 0.402804 0.400937 0.39825 0.394745 0.39042 0.385277 0.379499 0.373272 0.366596 0.35947 0.351895 0.34387 0.335396 0.326473 0.317277 0.307984 0.298595 0.289109 0.279526 0.269847 0.260071 0.250198 0.240349 0.230644 0.221083 0.211666 0.202393 0.193264 0.18428 0.175439 0.166796 0.158404 0.150264 0.142375 0.134737 0.127351 0.120217 0.113333 0.106703 0.100328 0.0942081 0.0883431 0.0827331 0.0773781 0.0722782 0.0674332 0.0628192 0.0584118 0.0542113 0.0502175 0.0464304 0.0428502 0.0394766 0.0363098 0.0333228 0.0304886 0.0278071 0.0252784 0.0229025 0.0206794 0.018609 0.0166914 0.0149079 0.0132399 0.0116873 0.0102501 0.00892841 0.00772214 0.00663131 0.00565592 0.00478009 0.00398796 0.00327952 0.00265476 0.00211369 0.00165632 0.00128263 0.000992625 0.000759979 0.000558352 0.000387744 0.000248156 0.000139588 6.20391e-05 1.55098e-05 0 0 0.000610203 0.00244081 0.00549183 0.00976325 0.0152551 0.0219673 0.0298999 0.039053 0.0493562 0.0607392 0.073202 0.0867447 0.101367 0.11707 0.133852 0.151714 0.170074 0.188349 0.20654 0.224647 0.242669 0.260607 0.278461 0.29623 0.313495 0.329832 0.345244 0.359729 0.373288 0.38592 0.397627 0.408407 0.418151 0.426749 0.434202 0.440509 0.445671 0.449687 0.452557 0.454282 0.454975 0.45475 0.453608 0.451547 0.448569 0.444672 0.439858 0.434126 0.427682 0.420732 0.413275 0.405313 0.396844 0.387869 0.378388 0.368401 0.358105 0.347696 0.337175 0.326542 0.315796 0.304938 0.293968 0.282885 0.271825 0.260923 0.250179 0.239593 0.229165 0.218894 0.208782 0.198827 0.189092 0.179637 0.170461 0.161566 0.152951 0.144616 0.136561 0.128787 0.121295 0.11409 0.10717 0.100537 0.0941891 0.0881277 0.0823523 0.076863 0.0716332 0.0666365 0.0618728 0.0573421 0.0530445 0.0489799 0.0451484 0.0415499 0.0381543 0.0349314 0.0318812 0.0290038 0.026299 0.023767 0.0214077 0.0192211 0.0171861 0.0152815 0.0135074 0.0118637 0.0103505 0.00896781 0.00771553 0.00659372 0.00558467 0.0046707 0.00385182 0.00312802 0.00249931 0.00196568 0.00152714 0.00118368 0.000906253 0.000665818 0.000462374 0.000295919 0.000166455 7.39798e-05 1.84949e-05 0 0 0.000685143 0.00274057 0.00616629 0.0109623 0.0171286 0.0246652 0.033572 0.0438492 0.0554072 0.0681569 0.0820981 0.0972308 0.113555 0.131071 0.149778 0.169677 0.190122 0.210465 0.230708 0.250849 0.27089 0.29083 0.310669 0.330407 0.349581 0.367726 0.384843 0.400932 0.415993 0.430025 0.443029 0.455005 0.465832 0.475391 0.48368 0.490701 0.496453 0.500936 0.50415 0.506095 0.506897 0.506681 0.505448 0.503198 0.49993 0.495645 0.490342 0.484022 0.476912 0.469237 0.460999 0.452196 0.44283 0.4329 0.422406 0.411349 0.399944 0.388411 0.376748 0.364957 0.353036 0.340986 0.328807 0.316499 0.304212 0.292096 0.28015 0.268376 0.256773 0.245341 0.23408 0.22299 0.21214 0.201599 0.191366 0.181442 0.171826 0.162519 0.153521 0.144832 0.136455 0.128396 0.120654 0.11323 0.106123 0.0993333 0.0928611 0.0867062 0.0808401 0.0752338 0.0698874 0.064801 0.0599744 0.0554077 0.0511009 0.047054 0.0432337 0.0396065 0.0361726 0.0329318 0.0298843 0.0270299 0.0243688 0.0219009 0.0196025 0.01745 0.0154435 0.0135829 0.0118683 0.0102995 0.0088767 0.00759981 0.00644938 0.00540594 0.00446948 0.00364002 0.00291754 0.00230205 0.00179356 0.00139205 0.00106579 0.000783028 0.00054377 0.000348012 0.000195757 8.70031e-05 2.17508e-05 0 0 0.000762197 0.00304879 0.00685978 0.0121952 0.0190549 0.0274391 0.0373477 0.0487806 0.0616281 0.0757803 0.0912372 0.107999 0.126065 0.145436 0.166112 0.188092 0.210665 0.233119 0.255454 0.277669 0.299765 0.321742 0.3436 0.365339 0.386452 0.406433 0.425281 0.442998 0.459582 0.475034 0.489354 0.502542 0.514467 0.524999 0.534137 0.541882 0.548234 0.553193 0.556758 0.55893 0.559847 0.559646 0.558327 0.55589 0.552336 0.547663 0.541874 0.534966 0.527188 0.518788 0.509765 0.50012 0.489853 0.478962 0.46745 0.455315 0.442795 0.430128 0.417314 0.404353 0.391245 0.37799 0.364588 0.351039 0.337508 0.324161 0.310996 0.298016 0.285219 0.272605 0.260174 0.247927 0.23594 0.22429 0.212977 0.202001 0.191362 0.181061 0.171096 0.161468 0.152183 0.143247 0.13466 0.126423 0.118534 0.110995 0.103804 0.0969629 0.0904398 0.0842039 0.0782553 0.0725941 0.0672201 0.0621335 0.0573342 0.0528221 0.0485609 0.0445139 0.0406811 0.0370626 0.0336583 0.0304682 0.0274924 0.0247308 0.0221573 0.0197456 0.0174957 0.0154077 0.0134816 0.0117173 0.0101148 0.00867421 0.00737423 0.00619366 0.00513249 0.00419073 0.00336838 0.00266543 0.00208188 0.00161774 0.00123859 0.000909981 0.000631932 0.000404436 0.000227495 0.000101109 2.52773e-05 0 0 0.000841365 0.00336546 0.00757228 0.0134618 0.0210341 0.0302891 0.0412269 0.0538473 0.0680188 0.0836095 0.100619 0.119049 0.138897 0.160165 0.182851 0.206957 0.231703 0.25631 0.280778 0.305106 0.329295 0.353344 0.377254 0.401025 0.424107 0.445952 0.466558 0.485926 0.504056 0.520947 0.536601 0.551017 0.564054 0.575573 0.585572 0.594053 0.601015 0.606458 0.610383 0.612788 0.613825 0.613643 0.612242 0.609623 0.605784 0.600727 0.594452 0.586957 0.578512 0.569385 0.559576 0.549085 0.537912 0.526056 0.513519 0.5003 0.486656 0.472847 0.458871 0.44473 0.430423 0.415949 0.40131 0.386505 0.371714 0.357118 0.342717 0.328512 0.314501 0.300685 0.287064 0.273638 0.260492 0.247711 0.235296 0.223245 0.21156 0.20024 0.189285 0.178695 0.168479 0.158643 0.149189 0.140116 0.131423 0.123112 0.115182 0.107633 0.100432 0.0935467 0.0869764 0.0807215 0.0747818 0.0691573 0.0638482 0.0588543 0.054136 0.0496535 0.0454069 0.041396 0.037621 0.0340818 0.0307784 0.0277109 0.0248503 0.022168 0.0196639 0.0173381 0.0151905 0.013221 0.0114299 0.0098169 0.00835922 0.00703388 0.00584086 0.00478018 0.00385182 0.00305581 0.00239212 0.00186076 0.00142465 0.00104668 0.00072686 0.00046519 0.000261669 0.000116298 2.90744e-05 0 0 0.000922646 0.00369058 0.00830381 0.0147623 0.0230661 0.0332153 0.0452097 0.0590493 0.0745793 0.0916444 0.110245 0.13038 0.152051 0.175257 0.199998 0.226274 0.253237 0.280039 0.30668 0.333159 0.359478 0.385635 0.411631 0.437466 0.462548 0.486283 0.508673 0.529716 0.549414 0.567765 0.584771 0.600431 0.614595 0.627113 0.637986 0.647214 0.654796 0.660732 0.665023 0.667669 0.668831 0.668673 0.667195 0.664396 0.660277 0.654837 0.648076 0.639995 0.630883 0.621028 0.61043 0.59909 0.587007 0.574182 0.560614 0.546304 0.531529 0.516568 0.501421 0.486088 0.47057 0.454865 0.438974 0.422897 0.40683 0.390969 0.375313 0.359864 0.34462 0.329582 0.314749 0.300123 0.285795 0.271861 0.258321 0.245173 0.232419 0.220057 0.208089 0.196514 0.185343 0.174584 0.164239 0.154308 0.14479 0.135686 0.126994 0.118717 0.110818 0.103262 0.0960508 0.0891831 0.0826592 0.0764792 0.070643 0.0651506 0.059959 0.0550255 0.0503499 0.0459322 0.0417725 0.0378707 0.0342269 0.0308411 0.0276817 0.0247174 0.0219482 0.019374 0.0169949 0.0148109 0.0128218 0.0110279 0.00940435 0.00792658 0.00659458 0.00540835 0.00436788 0.00347319 0.00272426 0.0021211 0.00162397 0.00119312 0.000828554 0.000530275 0.000298279 0.000132569 3.31422e-05 0 0 0.00100604 0.00402416 0.00905437 0.0160967 0.025151 0.0362175 0.049296 0.0643866 0.0813095 0.099885 0.120113 0.141993 0.165527 0.190712 0.21755 0.246041 0.275265 0.304305 0.33316 0.36183 0.390315 0.418616 0.446731 0.474662 0.501773 0.527427 0.551626 0.574369 0.595656 0.615488 0.633863 0.650783 0.666088 0.67962 0.691379 0.701364 0.709576 0.716015 0.72068 0.723572 0.724866 0.724737 0.723185 0.72021 0.715812 0.709991 0.702748 0.694081 0.684301 0.673716 0.662328 0.650136 0.63714 0.623339 0.608735 0.593327 0.577413 0.561292 0.544964 0.528428 0.511686 0.494736 0.477579 0.460216 0.442856 0.425712 0.408784 0.392072 0.375576 0.359295 0.343231 0.327382 0.311851 0.296741 0.282053 0.267785 0.253938 0.240513 0.227508 0.214924 0.202774 0.19107 0.179812 0.169 0.158635 0.148715 0.139241 0.130214 0.121596 0.113351 0.105478 0.097979 0.0908526 0.0840991 0.0777185 0.0717108 0.0660299 0.0606297 0.05551 0.050671 0.0461127 0.041835 0.0378379 0.0341214 0.0306514 0.0273938 0.0243485 0.0215156 0.018895 0.0164867 0.0142908 0.0123072 0.0105096 0.00887178 0.00739366 0.00607524 0.00491655 0.00391757 0.00307831 0.00239876 0.00183655 0.0013493 0.000937015 0.000599689 0.000337325 0.000149922 3.74806e-05 0 0 0.00109155 0.0043662 0.00982394 0.0174648 0.0272887 0.0392958 0.0534859 0.0698591 0.0882096 0.108331 0.130224 0.153889 0.179324 0.206531 0.23551 0.266259 0.297789 0.329109 0.360219 0.391118 0.421807 0.452286 0.482554 0.512613 0.541782 0.569384 0.595418 0.619884 0.642783 0.664114 0.683878 0.702074 0.718535 0.733093 0.74575 0.756504 0.765356 0.772306 0.777353 0.780498 0.781929 0.781834 0.780213 0.777065 0.772392 0.766192 0.758466 0.749214 0.738765 0.727451 0.71527 0.702222 0.688308 0.673528 0.657881 0.641369 0.624308 0.607018 0.589498 0.571749 0.553771 0.535563 0.517127 0.49846 0.479792 0.461349 0.44313 0.425137 0.407369 0.389826 0.372508 0.355414 0.338658 0.322351 0.306492 0.291081 0.276119 0.261606 0.247542 0.233926 0.220774 0.208101 0.195907 0.184192 0.172957 0.1622 0.151923 0.142124 0.132767 0.123812 0.115259 0.107109 0.0993618 0.092017 0.0850748 0.0785352 0.0723487 0.0664662 0.0608874 0.0556126 0.0506416 0.0459745 0.0416113 0.0375519 0.0337595 0.0301971 0.0268649 0.0237627 0.0208906 0.0182486 0.0158366 0.0136548 0.011675 0.00986947 0.00823808 0.00678087 0.00549782 0.00438896 0.00345426 0.00269374 0.00206239 0.00151523 0.00105224 0.000673435 0.000378807 0.000168359 4.20897e-05 0 0 0.00117917 0.00471668 0.0106125 0.0188667 0.0294793 0.0424502 0.0577794