<?xml version="1.0"?> 
<VTKFile type="StructuredGrid" version="0.1"> 
<StructuredGrid WholeExtent="0 128 0 128 0 0"> 
<Piece Extent="0 128 0 128 0 0"> 
<PointData>
<DataArray type="Float32" Name="u" format="ascii" NumberOfComponents="1"> 
0 0 0 0 0 0 0 0 0 0 0 0 0 0 0 0 0 0 0 0 0 0 0 0 0 0 0 0 0 0 0 0 0 0 0 0 0 0 0 0 0 0 0 0 0 0 0 0 0 0 0 0 0 0 0 0 0 0 0 0 0 0 0 0 0 0 0 0 0 0 0 0 0 0 0 0 0 0 0 0 0 0 0 0 0 0 0 0 0 0 0 0 0 0 0 0 0 0 0 0 0 0 0 0 0 0 0 0 0 0 0 0 0 0 0 0 0 0 0 0 0 0 0 0 0 0 0 0 0 0 -9.18095e-08 -3.67238e-07 -8.26286e-07 -1.46895e-06 -2.29524e-06 -3.30514e-06 -4.49867e-06 -5.87581e-06 -7.24262e-06 -8.40513e-06 -9.36336e-06 -1.01173e-05 -1.06669e-05 -1.10123e-05 -1.11533e-05 -1.10901e-05 -1.07655e-05 -1.01223e-05 -9.16065e-06 -7.88047e-06 -6.28179e-06 -4.36459e-06 -2.12888e-06 4.25344e-07 3.13252e-06 5.82709e-06 8.50904e-06 1.11784e-05 1.38351e-05 1.64793e-05 1.91108e-05 2.17297e-05 2.41605e-05 2.62277e-05 2.79313e-05 2.92713e-05 3.02476e-05 3.08604e-05 3.11095e-05 3.0995e-05 3.05177e-05 2.96781e-05 2.84764e-05 2.69124e-05 2.49863e-05 2.26981e-05 2.00476e-05 1.70349e-05 1.38369e-05 1.06305e-05 7.41551e-06 4.19207e-06 9.60132e-07 -2.28029e-06 -5.5292e-06 -8.7866e-06 -1.1878e-05 -1.46289e-05 -1.70393e-05 -1.91091e-05 -2.08385e-05 -2.22274e-05 -2.32757e-05 -2.39836e-05 -2.43472e-05 -2.43628e-05 -2.40305e-05 -2.33501e-05 -2.23217e-05 -2.09454e-05 -1.92211e-05 -1.71487e-05 -1.48825e-05 -1.25764e-05 -1.02306e-05 -7.84484e-06 -5.4193e-06 -2.95394e-06 -4.4875e-07 2.09626e-06 4.53513e-06 6.72186e-06 8.65647e-06 1.0339e-05 1.17693e-05 1.29475e-05 1.38736e-05 1.45476e-05 1.49687e-05 1.51361e-05 1.50499e-05 1.471e-05 1.41165e-05 1.32693e-05 1.21685e-05 1.0814e-05 9.32794e-06 7.83241e-06 6.32741e-06 4.81292e-06 3.28897e-06 1.75553e-06 2.12622e-07 -1.33977e-06 -2.79838e-06 -4.05997e-06 -5.12455e-06 -5.9921e-06 -6.66262e-06 -7.13613e-06 -7.41261e-06 -7.49208e-06 -7.41628e-06 -7.22699e-06 -6.92422e-06 -6.50794e-06 -5.97818e-06 -5.33493e-06 -4.57818e-06 -3.70794e-06 -2.83889e-06 -2.08572e-06 -1.44841e-06 -9.26985e-07 -5.21429e-07 -2.31746e-07 -5.79366e-08 0 0 -3.67238e-07 -1.46895e-06 -3.30514e-06 -5.87581e-06 -9.18095e-06 -1.32206e-05 -1.79947e-05 -2.35032e-05 -2.89705e-05 -3.36205e-05 -3.74534e-05 -4.04692e-05 -4.26677e-05 -4.40491e-05 -4.46133e-05 -4.43604e-05 -4.30618e-05 -4.04892e-05 -3.66426e-05 -3.15219e-05 -2.51272e-05 -1.74584e-05 -8.51552e-06 1.70138e-06 1.25301e-05 2.33083e-05 3.40362e-05 4.47136e-05 5.53405e-05 6.59171e-05 7.64432e-05 8.69188e-05 9.6642e-05 0.000104911 0.000111725 0.000117085 0.00012099 0.000123441 0.000124438 0.00012398 0.000122071 0.000118712 0.000113905 0.00010765 9.99453e-05 9.07922e-05 8.01903e-05 6.81397e-05 5.53478e-05 4.25219e-05 2.96621e-05 1.67683e-05 3.84053e-06 -9.12116e-06 -2.21168e-05 -3.51464e-05 -4.75119e-05 -5.85155e-05 -6.8157e-05 -7.64365e-05 -8.3354e-05 -8.89095e-05 -9.31029e-05 -9.59344e-05 -9.73888e-05 -9.74513e-05 -9.61219e-05 -9.34004e-05 -8.9287e-05 -8.37816e-05 -7.68843e-05 -6.8595e-05 -5.953e-05 -5.03058e-05 -4.09222e-05 -3.13794e-05 -2.16772e-05 -1.18158e-05 -1.795e-06 8.38506e-06 1.81405e-05 2.68875e-05 3.46259e-05 4.13558e-05 4.70772e-05 5.17901e-05 5.54945e-05 5.81904e-05 5.98747e-05 6.05445e-05 6.01996e-05 5.88401e-05 5.64659e-05 5.30772e-05 4.86739e-05 4.32559e-05 3.73117e-05 3.13296e-05 2.53096e-05 1.92517e-05 1.31559e-05 7.02213e-06 8.50489e-07 -5.35906e-06 -1.11935e-05 -1.62399e-05 -2.04982e-05 -2.39684e-05 -2.66505e-05 -2.85445e-05 -2.96505e-05 -2.99683e-05 -2.96651e-05 -2.8908e-05 -2.76969e-05 -2.60318e-05 -2.39127e-05 -2.13397e-05 -1.83127e-05 -1.48318e-05 -1.13556e-05 -8.34287e-06 -5.79366e-06 -3.70794e-06 -2.08572e-06 -9.26985e-07 -2.31746e-07 0 0 -8.26286e-07 -3.30514e-06 -7.43657e-06 -1.32206e-05 -2.06571e-05 -2.97463e-05 -4.0488e-05 -5.28823e-05 -6.51836e-05 -7.56462e-05 -8.42702e-05 -9.10556e-05 -9.60024e-05 -9.91105e-05 -0.00010038 -9.98109e-05 -9.68891e-05 -9.11008e-05 -8.24458e-05 -7.09243e-05 -5.65361e-05 -3.92813e-05 -1.91599e-05 3.8281e-06 2.81927e-05 5.24438e-05 7.65814e-05 0.000100606 0.000124516 0.000148313 0.000171997 0.000195567 0.000217445 0.000236049 0.000251382 0.000263441 0.000272229 0.000277743 0.000279985 0.000278955 0.000274659 0.000267103 0.000256287 0.000242212 0.000224877 0.000204282 0.000180428 0.000153314 0.000124533 9.56743e-05 6.67396e-05 3.77286e-05 8.64119e-06 -2.05226e-05 -4.97628e-05 -7.90794e-05 -0.000106902 -0.00013166 -0.000153353 -0.000171982 -0.000187547 -0.000200046 -0.000209482 -0.000215852 -0.000219125 -0.000219265 -0.000216274 -0.000210151 -0.000200896 -0.000188509 -0.00017299 -0.000154339 -0.000133943 -0.000113188 -9.2075e-05 -7.06036e-05 -4.87737e-05 -2.65855e-05 -4.03875e-06 1.88664e-05 4.08161e-05 6.04968e-05 7.79082e-05 9.30506e-05 0.000105924 0.000116528 0.000124863 0.000130928 0.000134718 0.000136225 0.000135449 0.00013239 0.000127048 0.000119424 0.000109516 9.73259e-05 8.39514e-05 7.04917e-05 5.69466e-05 4.33163e-05 2.96007e-05 1.57998e-05 1.9136e-06 -1.20579e-05 -2.51854e-05 -3.65398e-05 -4.61209e-05 -5.39289e-05 -5.99636e-05 -6.42252e-05 -6.67135e-05 -6.74287e-05 -6.67465e-05 -6.50429e-05 -6.23179e-05 -5.85715e-05 -5.38036e-05 -4.80143e-05 -4.12036e-05 -3.33715e-05 -2.555e-05 -1.87714e-05 -1.30357e-05 -8.34287e-06 -4.69286e-06 -2.08572e-06 -5.21429e-07 0 0 -1.46895e-06 -5.87581e-06 -1.32206e-05 -2.35032e-05 -3.67238e-05 -5.28823e-05 -7.19787e-05 -9.4013e-05 -0.000115882 -0.000134482 -0.000149814 -0.000161877 -0.000170671 -0.000176196 -0.000178453 -0.000177442 -0.000172247 -0.000161957 -0.00014657 -0.000126088 -0.000100509 -6.98334e-05 -3.40621e-05 6.80551e-06 5.01203e-05 9.32334e-05 0.000136145 0.000178854 0.000221362 0.000263668 0.000305773 0.000347675 0.000386568 0.000419643 0.000446901 0.00046834 0.000483962 0.000493766 0.000497752 0.00049592 0.000488282 0.00047485 0.000455622 0.000430599 0.000399781 0.000363169 0.000320761 0.000272559 0.000221391 0.000170088 0.000118648 6.70731e-05 1.53621e-05 -3.64846e-05 -8.84672e-05 -0.000140586 -0.000190048 -0.000234062 -0.000272628 -0.000305746 -0.000333416 -0.000355638 -0.000372412 -0.000383738 -0.000389555 -0.000389805 -0.000384487 -0.000373602 -0.000357148 -0.000335126 -0.000307537 -0.00027438 -0.00023812 -0.000201223 -0.000163689 -0.000125517 -8.67088e-05 -4.7263e-05 -7.18e-06 3.35402e-05 7.2562e-05 0.00010755 0.000138504 0.000165423 0.000188309 0.000207161 0.000221978 0.000232762 0.000239499 0.000242178 0.000240798 0.00023536 0.000225864 0.000212309 0.000194696 0.000173024 0.000149247 0.000125319 0.000101238 7.70068e-05 5.26235e-05 2.80885e-05 3.40195e-06 -2.14363e-05 -4.47741e-05 -6.49596e-05 -8.19927e-05 -9.58735e-05 -0.000106602 -0.000114178 -0.000118602 -0.000119873 -0.00011866 -0.000115632 -0.000110787 -0.000104127 -9.56509e-05 -8.53588e-05 -7.32509e-05 -5.9327e-05 -4.54223e-05 -3.33715e-05 -2.31746e-05 -1.48318e-05 -8.34287e-06 -3.70794e-06 -9.26985e-07 0 0 -2.29524e-06 -9.18095e-06 -2.06571e-05 -3.67238e-05 -5.7381e-05 -8.26286e-05 -0.000112467 -0.000146895 -0.000181065 -0.000210128 -0.000234084 -0.000252932 -0.000266673 -0.000275307 -0.000278833 -0.000277252 -0.000269137 -0.000253058 -0.000229016 -0.000197012 -0.000157045 -0.000109115 -5.3222e-05 1.06336e-05 7.8313e-05 0.000145677 0.000212726 0.00027946 0.000345878 0.000411982 0.00047777 0.000543243 0.000604013 0.000655693 0.000698282 0.000731781 0.00075619 0.000771509 0.000777737 0.000774876 0.000762941 0.000741952 0.000711909 0.000672811 0.000624658 0.000567451 0.00050119 0.000425873 0.000345924 0.000265762 0.000185388 0.000104802 2.40033e-05 -5.70072e-05 -0.00013823 -0.000219665 -0.00029695 -0.000365722 -0.000425981 -0.000477728 -0.000520963 -0.000555684 -0.000581893 -0.00059959 -0.00060868 -0.000609071 -0.000600762 -0.000583753 -0.000558044 -0.000523635 -0.000480527 -0.000428718 -0.000372063 -0.000314411 -0.000255764 -0.000196121 -0.000135483 -7.38485e-05 -1.12188e-05 5.24066e-05 0.000113378 0.000168047 0.000216412 0.000258474 0.000294233 0.000323688 0.000346841 0.00036369 0.000374217 0.000378403 0.000376247 0.00036775 0.000352912 0.000331733 0.000304212 0.00027035 0.000233198 0.00019581 0.000158185 0.000120323 8.22242e-05 4.38883e-05 5.31555e-06 -3.34941e-05 -6.99595e-05 -0.000101499 -0.000128114 -0.000149802 -0.000166566 -0.000178403 -0.000185315 -0.000187302 -0.000185407 -0.000180675 -0.000173105 -0.000162699 -0.000149455 -0.000133373 -0.000114454 -9.26985e-05 -7.09723e-05 -5.21429e-05 -3.62104e-05 -2.31746e-05 -1.30357e-05 -5.79366e-06 -1.44841e-06 0 0 -3.30514e-06 -1.32206e-05 -2.97463e-05 -5.28823e-05 -8.26286e-05 -0.000118985 -0.000161952 -0.000211529 -0.000260734 -0.000302585 -0.000337081 -0.000364222 -0.000384009 -0.000396442 -0.00040152 -0.000399244 -0.000387557 -0.000364403 -0.000329783 -0.000283697 -0.000226144 -0.000157125 -7.66396e-05 1.53124e-05 0.000112771 0.000209775 0.000306326 0.000402422 0.000498065 0.000593254 0.000687988 0.000782269 0.000869778 0.000944197 0.00100553 0.00105377 0.00108891 0.00111097 0.00111994 0.00111582 0.00109864 0.00106841 0.00102515 0.000968848 0.000899508 0.00081713 0.000721713 0.000613258 0.00049813 0.000382697 0.000266959 0.000150914 3.45648e-05 -8.20904e-05 -0.000199051 -0.000316317 -0.000427607 -0.000526639 -0.000613413 -0.000687929 -0.000750186 -0.000800185 -0.000837926 -0.00086341 -0.0008765 -0.000877062 -0.000865097 -0.000840604 -0.000803583 -0.000754035 -0.000691958 -0.000617355 -0.00053577 -0.000452752 -0.0003683 -0.000282414 -0.000195095 -0.000106342 -1.6155e-05 7.54655e-05 0.000163265 0.000241987 0.000311633 0.000372202 0.000423695 0.000466111 0.000499451 0.000523714 0.000538873 0.0005449 0.000541796 0.000529561 0.000508193 0.000477695 0.000438065 0.000389304 0.000335806 0.000281967 0.000227787 0.000173265 0.000118403 6.31992e-05 7.6544e-06 -4.82316e-05 -0.000100742 -0.000146159 -0.000184484 -0.000215715 -0.000239854 -0.000256901 -0.000266854 -0.000269715 -0.000266986 -0.000260172 -0.000249272 -0.000234286 -0.000215215 -0.000192057 -0.000164814 -0.000133486 -0.0001022 -7.50858e-05 -5.21429e-05 -3.33715e-05 -1.87714e-05 -8.34287e-06 -2.08572e-06 0 0 -4.49867e-06 -1.79947e-05 -4.0488e-05 -7.19787e-05 -0.000112467 -0.000161952 -0.000220435 -0.000287915 -0.000354888 -0.000411852 -0.000458804 -0.000495747 -0.000522679 -0.000539602 -0.000546513 -0.000543415 -0.000527508 -0.000495993 -0.000448872 -0.000386143 -0.000307808 -0.000213865 -0.000104315 2.08419e-05 0.000153493 0.000285527 0.000416943 0.000547741 0.000677922 0.000807484 0.000936429 0.00106476 0.00118386 0.00128516 0.00136863 0.00143429 0.00148213 0.00151216 0.00152437 0.00151876 0.00149536 0.00145423 0.00139534 0.00131871 0.00122433 0.0011122 0.000982332 0.000834712 0.00067801 0.000520893 0.00036336 0.000205411 4.70465e-05 -0.000111734 -0.000270931 -0.000430543 -0.000582021 -0.000716815 -0.000834923 -0.000936347 -0.00102109 -0.00108914 -0.00114051 -0.0011752 -0.00119301 -0.00119378 -0.00117749 -0.00114416 -0.00109377 -0.00102632 -0.000941832 -0.000840288 -0.000729243 -0.000616246 -0.000501297 -0.000384397 -0.000265546 -0.000144743 -2.19888e-05 0.000102717 0.000222221 0.000329371 0.000424167 0.000506609 0.000576696 0.000634429 0.000679808 0.000712833 0.000733466 0.00074167 0.000737445 0.000720791 0.000691708 0.000650196 0.000596255 0.000529885 0.000457069 0.000383788 0.000310043 0.000235833 0.000161159 8.60211e-05 1.04185e-05 -6.56485e-05 -0.000137121 -0.000198939 -0.000251103 -0.000293613 -0.000326469 -0.00034967 -0.000363218 -0.000367112 -0.000363398 -0.000354123 -0.000339287 -0.000318889 -0.000292931 -0.000261411 -0.000224331 -0.000181689 -0.000139106 -0.0001022 -7.09723e-05 -4.54223e-05 -2.555e-05 -1.13556e-05 -2.83889e-06 0 0 -5.87581e-06 -2.35032e-05 -5.28823e-05 -9.4013e-05 -0.000146895 -0.000211529 -0.000287915 -0.000376052 -0.000463528 -0.000537929 -0.000599255 -0.000647506 -0.000682683 -0.000704786 -0.000713813 -0.000709766 -0.000688989 -0.000647828 -0.000586282 -0.00050435 -0.000402034 -0.000279334 -0.000136248 2.7222e-05 0.000200481 0.000372933 0.000544579 0.000715417 0.000885448 0.00105467 0.00122309 0.0013907 0.00154627 0.00167857 0.0017876 0.00187336 0.00193585 0.00197506 0.00199101 0.00198368 0.00195313 0.0018994 0.00182249 0.0017224 0.00159913 0.00145268 0.00128305 0.00109024 0.000885565 0.00068035 0.000474593 0.000268292 6.14485e-05 -0.000145939 -0.000353869 -0.000562342 -0.000760191 -0.000936248 -0.00109051 -0.00122298 -0.00133366 -0.00142255 -0.00148965 -0.00153495 -0.00155822 -0.00155922 -0.00153795 -0.00149441 -0.00142859 -0.00134051 -0.00123015 -0.00109752 -0.00095248 -0.000804892 -0.000654755 -0.00050207 -0.000346835 -0.000189052 -2.872e-05 0.000134161 0.000290248 0.000430199 0.000554014 0.000661693 0.000753236 0.000828642 0.000887912 0.000931047 0.000957996 0.000968711 0.000963193 0.000941441 0.000903455 0.000849236 0.000778782 0.000692095 0.000596988 0.000501274 0.000404954 0.000308027 0.000210494 0.000112354 1.36078e-05 -8.5745e-05 -0.000179096 -0.000259838 -0.000327971 -0.000383494 -0.000426408 -0.000456712 -0.000474407 -0.000479493 -0.000474642 -0.000462528 -0.00044315 -0.000416508 -0.000382604 -0.000341435 -0.000293003 -0.000237308 -0.000181689 -0.000133486 -9.26985e-05 -5.9327e-05 -3.33715e-05 -1.48318e-05 -3.70794e-06 0 0 -7.16738e-06 -2.86695e-05 -6.45064e-05 -0.000114678 -0.000179184 -0.000258026 -0.000351201 -0.000458712 -0.000565017 -0.000654577 -0.000727391 -0.00078346 -0.000822784 -0.000845361 -0.000851194 -0.00084028 -0.000808188 -0.000750483 -0.000667164 -0.000558232 -0.000423688 -0.00026353 -7.77592e-05 0.000133625 0.000357206 0.00057957 0.000800717 0.00102065 0.00123936 0.00145685 0.00167313 0.00188819 0.00208787 0.00225801 0.0023986 0.00250965 0.00259116 0.00264312 0.00266554 0.00265841 0.00262182 0.00255582 0.00246042 0.00233562 0.00218141 0.0019978 0.0017848 0.00154239 0.00128486 0.0010265 0.000767311 0.000507292 0.000246442 -1.52396e-05 -0.000277752 -0.000541094 -0.00079117 -0.00101388 -0.00120923 -0.00137721 -0.00151783 -0.00163109 -0.00171698 -0.00177551 -0.00180635 -0.00180918 -0.00178401 -0.00173084 -0.00164965 -0.00154046 -0.00140327 -0.00123807 -0.00105728 -0.000873316 -0.000686187 -0.000495888 -0.00030242 -0.000105782 9.40257e-05 0.000297003 0.000491374 0.000665364 0.000818972 0.0009522 0.00106505 0.00115751 0.0012296 0.0012813 0.00131255 0.00132329 0.00131352 0.00128323 0.00123243 0.00116111 0.00106927 0.000956927 0.000833914 0.000710088 0.000585446 0.000459991 0.000333721 0.000206636 7.87376e-05 -4.99757e-05 -0.000171146 -0.000276415 -0.000365784 -0.000439253 -0.00049682 -0.000538487 -0.000564254 -0.000574119 -0.00057137 -0.000559291 -0.000537882 -0.000507143 -0.000467074 -0.000417676 -0.000358948 -0.00029089 -0.000222713 -0.000163626 -0.000113629 -7.27226e-05 -4.09065e-05 -1.81807e-05 -4.54516e-06 0 0 -8.10417e-06 -3.24167e-05 -7.29375e-05 -0.000129667 -0.000202604 -0.00029175 -0.000397104 -0.000518667 -0.000637723 -0.000735559 -0.000812174 -0.000867569 -0.000901742 -0.000914696 -0.000906428 -0.00087694 -0.000821289 -0.000734532 -0.00061667 -0.000467703 -0.00028763 -7.64518e-05 0.000165832 0.000439221 0.000727141 0.00101301 0.00129684 0.00157863 0.00185837 0.00213606 0.00241171 0.00268531 0.00293953 0.00315703 0.0033378 0.00348184 0.00358916 0.00365976 0.00369363 0.00369077 0.00365132 0.00357538 0.00346297 0.00331408 0.00312871 0.00290686 0.00264853 0.00235372 0.00203996 0.00172477 0.00140817 0.00109014 0.000770697 0.000449827 0.000127535 -0.00019618 -0.000504013 -0.000778662 -0.00102013 -0.00122841 -0.00140351 -0.00154542 -0.00165415 -0.0017297 -0.00177162 -0.00177946 -0.00175323 -0.00169292 -0.00159854 -0.00147008 -0.00130755 -0.00111094 -0.000895421 -0.00067614 -0.000453102 -0.000226307 4.24569e-06 0.000238556 0.000476623 0.000718447 0.000949626 0.00115576 0.00133684 0.00149287 0.00162386 0.0017298 0.00181069 0.00186653 0.00189723 0.00190268 0.0018829 0.00183788 0.00176761 0.00167211 0.00155136 0.00140537 0.0012462 0.00108589 0.000924447 0.000761868 0.000598155 0.000433306 0.000267323 0.000100205 -5.77463e-05 -0.000196228 -0.000315239 -0.000414781 -0.000494853 -0.000555456 -0.000596589 -0.000618252 -0.000624233 -0.000618316 -0.000600502 -0.000570792 -0.000529185 -0.000475681 -0.000410281 -0.000332983 -0.00025494 -0.000187303 -0.000130072 -8.32458e-05 -4.68258e-05 -2.08115e-05 -5.20286e-06 0 0 -8.68619e-06 -3.47448e-05 -7.81757e-05 -0.000138979 -0.000217155 -0.000312703 -0.000425623 -0.000555916 -0.000681645 -0.000780874 -0.000853603 -0.000899831 -0.00091956 -0.000912788 -0.000879517 -0.000819745 -0.000728292 -0.000599978 -0.000434801 -0.000232762 6.13814e-06 0.000281901 0.000594525 0.000944012 0.00131028 0.00167327 0.00203296 0.00238936 0.00274247 0.00309229 0.00343882 0.00378207 0.00410125 0.00437563 0.00460519 0.00478993 0.00492986 0.00502498 0.00507528 0.00508076 0.00504163 0.00495809 0.00483014 0.00465778 0.00444101 0.00417983 0.00387423 0.00352423 0.00315086 0.00277517 0.00239717 0.00201685 0.00163421 0.00124926 0.000861989 0.000472402 0.000101282 -0.000230588 -0.000523206 -0.000776574 -0.00099069 -0.00116556 -0.00130117 -0.00139754 -0.00145403 -0.00147006 -0.0014456 -0.00138067 -0.00127526 -0.00112937 -0.000943001 -0.000716156 -0.000466917 -0.000213366 4.44975e-05 0.000306673 0.00057316 0.00084396 0.00111907 0.00139849 0.00166501 0.00190138 0.00210762 0.00228372 0.00242968 0.0025455 0.00263119 0.00268674 0.00271202 0.00270688 0.00267134 0.00260538 0.00250901 0.00238223 0.00222504 0.00203744 0.00183384 0.00162868 0.00142196 0.00121366 0.0010038 0.000792364 0.000579364 0.000364796 0.000161102 -1.92747e-05 -0.000176335 -0.00031008 -0.000420507 -0.000507619 -0.000571414 -0.000611892 -0.00063323 -0.000639603 -0.000631012 -0.000607456 -0.000568936 -0.000515451 -0.000447001 -0.000363587 -0.000278371 -0.000204517 -0.000142026 -9.08966e-05 -5.11294e-05 -2.27242e-05 -5.68104e-06 0 0 -8.91343e-06 -3.56537e-05 -8.02209e-05 -0.000142615 -0.000222836 -0.000320884 -0.000436758 -0.00057046 -0.000696783 -0.000790522 -0.000851677 -0.000880248 -0.000876236 -0.00083964 -0.00077046 -0.000668696 -0.000529198 -0.000346818 -0.000121556 0.000146589 0.000457617 0.000811528 0.00120832 0.001648 0.00210664 0.00256033 0.00300906 0.00345284 0.00389167 0.00432555 0.00475448 0.00517845 0.00557304 0.00591381 0.00620077 0.00643392 0.00661326 0.00673877 0.00681048 0.00682837 0.00679276 0.00670395 0.00656194 0.00636673 0.00611832 0.00581672 0.00546192 0.00505392 0.00461757 0.0041777 0.00373431 0.00328741 0.00283699 0.00238306 0.00192561 0.00146465 0.00102471 0.000630342 0.000281536 -2.17042e-05 -0.000279378 -0.000491487 -0.00065803 -0.000779007 -0.000853594 -0.000880966 -0.000861124 -0.000794068 -0.000679798 -0.000518313 -0.000309614 -5.37009e-05 0.000228236 0.000515008 0.000806613 0.00110305 0.00140432 0.00171043 0.00202137 0.00233715 0.00263751 0.00290223 0.0031313 0.00332472 0.0034825 0.00360462 0.0036911 0.00374193 0.00375692 0.00373589 0.00367883 0.00358574 0.00345662 0.00329148 0.00309031 0.00285311 0.00259685 0.00233847 0.00207797 0.00181536 0.00155064 0.00128381 0.00101486 0.000743798 0.0004854 0.000254443 5.0927e-05 -0.000125148 -0.000273782 -0.000394975 -0.000488727 -0.000555038 -0.000598362 -0.000623153 -0.000629411 -0.000617135 -0.000586326 -0.000536984 -0.000469109 -0.0003827 -0.000293005 -0.000215269 -0.000149492 -9.56751e-05 -5.38172e-05 -2.39188e-05 -5.97969e-06 0 0 -8.7859e-06 -3.51436e-05 -7.90731e-05 -0.000140574 -0.000219648 -0.000316293 -0.000430509 -0.000562298 -0.000683136 -0.000764503 -0.000806397 -0.00080882 -0.000771771 -0.00069525 -0.000579256 -0.000423791 -0.000224007 2.49457e-05 0.000323065 0.000670352 0.00106681 0.00151243 0.00200722 0.00255118 0.0031162 0.00367419 0.00422515 0.00476908 0.00530597 0.00583584 0.00635867 0.00687446 0.00735488 0.00777158 0.00812456 0.00841381 0.00863935 0.00880116 0.00889924 0.00893361 0.0089047 0.00881294 0.00865835 0.00844092 0.00816065 0.00781753 0.00741158 0.0069428 0.00644008 0.00593234 0.00541959 0.00490182 0.00437903 0.00385123 0.00331841 0.00278057 0.00226628 0.00180413 0.0013941 0.0010362 0.000730427 0.000476784 0.00027527 0.000125884 2.9704e-05 -1.21908e-05 1.99171e-07 6.6874e-05 0.000187834 0.000363078 0.000592608 0.000876422 0.00119004 0.00150898 0.00183324 0.00216283 0.00249774 0.00283797 0.00318352 0.0035344 0.00386715 0.00415831 0.0044079 0.0046159 0.00478232 0.00490716 0.00499042 0.0050321 0.00503195 0.00498971 0.00490537 0.00477896 0.00461045 0.00439986 0.00414718 0.00385241 0.00353521 0.00321524 0.0028925 0.00256698 0.0022387 0.00190764 0.00157381 0.00123721 0.000915147 0.000624926 0.000366548 0.000140013 -5.46778e-05 -0.000217526 -0.00034853 -0.000447691 -0.000519629 -0.000568965 -0.000595698 -0.000599829 -0.000581356 -0.000540282 -0.000476604 -0.000390325 -0.000298842 -0.000219558 -0.000152471 -9.75811e-05 -5.48894e-05 -2.43953e-05 -6.09882e-06 0 0 -8.3036e-06 -3.32144e-05 -7.47324e-05 -0.000132858 -0.00020759 -0.00029893 -0.000406876 -0.00053143 -0.000640706 -0.000702817 -0.000717764 -0.000685546 -0.000606164 -0.000479618 -0.000305907 -8.50325e-05 0.000187283 0.000515314 0.000899062 0.00133853 0.00183371 0.0023846 0.00299122 0.00365355 0.00433897 0.00501487 0.00568123 0.00633806 0.00698537 0.00762315 0.00825139 0.00887011 0.00944679 0.00994893 0.0103765 0.0107296 0.0110081 0.0112121 0.0113416 0.0113965 0.0113774 0.0112851 0.0111194 0.0108803 0.010568 0.0101823 0.00972323 0.00919085 0.00861839 0.00803911 0.00745301 0.00686008 0.00626034 0.00565376 0.00504037 0.00442015 0.00382599 0.00329076 0.00281448 0.00239713 0.00203873 0.00173926 0.00149873 0.00131714 0.00119586 0.00113627 0.00113837 0.00120216 0.00132764 0.00151481 0.00176366 0.00207421 0.00241849 0.00276855 0.00312439 0.00348601 0.0038534 0.00422657 0.00460552 0.00499025 0.00535391 0.00566962 0.0059374 0.00615724 0.00632915 0.00645312 0.00652916 0.00655725 0.00653709 0.00646833 0.00635098 0.00618503 0.00597049 0.00570736 0.00539564 0.00503532 0.00464893 0.004259 0.00386553 0.00346852 0.00306796 0.00266386 0.00225622 0.00184504 0.00145034 0.00109217 0.000770528 0.000485405 0.000236806 2.47301e-05 -0.000150822 -0.000289851 -0.000397031 -0.000477039 -0.000529874 -0.000555537 -0.000554026 -0.000525343 -0.000469488 -0.000386459 -0.000295883 -0.000217383 -0.000150961 -9.66148e-05 -5.43458e-05 -2.41537e-05 -6.03843e-06 0 0 -7.46652e-06 -2.98661e-05 -6.71987e-05 -0.000119464 -0.000186663 -0.000268795 -0.00036586 -0.000477858 -0.000569491 -0.000605464 -0.000585776 -0.000510427 -0.000379416 -0.000192745 4.95875e-05 0.000347581 0.00070467 0.00112429 0.00160644 0.00215111 0.00275832 0.00342805 0.00416032 0.00495511 0.00577495 0.00658235 0.0073773 0.0081598 0.00892986 0.00968748 0.0104327 0.0111654 0.0118488 0.0124459 0.0129567 0.0133813 0.0137196 0.0139717 0.0141374 0.014217 0.014211 0.0141204 0.013945 0.013685 0.0133403 0.0129109 0.0123969 0.0117981 0.0111525 0.010498 0.00983457 0.0091622 0.0084809 0.00779067 0.0070915 0.0063834 0.00570383 0.00509026 0.00454268 0.0040611 0.00364552 0.00329593 0.00301234 0.00279475 0.00264487 0.00256441 0.00255339 0.00261179 0.00273962 0.00293687 0.00320356 0.00353967 0.00391359 0.00429372 0.00468005 0.00507258 0.00547131 0.00587624 0.00628738 0.00670471 0.00709779 0.00743616 0.00771981 0.00794875 0.00812298 0.0082425 0.0083073 0.00831739 0.00827235 0.00817176 0.00801563 0.00780396 0.00753675 0.00721399 0.00683569 0.00640184 0.00593801 0.00546975 0.00499707 0.00451996 0.00403843 0.00355247 0.00306208 0.00256727 0.00209099 0.00165619 0.00126287 0.000911026 0.000600669 0.000331792 0.000104397 -8.15168e-05 -0.000230568 -0.000347376 -0.00043194 -0.00048426 -0.000504336 -0.000492169 -0.000447759 -0.000371104 -0.000284127 -0.000208746 -0.000144963 -9.27761e-05 -5.21866e-05 -2.3194e-05 -5.79851e-06 0 0 -6.27467e-06 -2.50987e-05 -5.64721e-05 -0.000100395 -0.000156867 -0.000225888 -0.000307459 -0.000401579 -0.000469493 -0.000472445 -0.000410434 -0.000283462 -9.15271e-05 0.00016537 0.000487228 0.000874049 0.00132815 0.00185187 0.00244518 0.00310811 0.00384064 0.00464278 0.00551452 0.00645588 0.00742414 0.00837663 0.00931335 0.0102343 0.0111395 0.0120288 0.0129025 0.0137603 0.0145608 0.0152624 0.0158651 0.0163689 0.0167738 0.0170798 0.0172869 0.0173951 0.0174054 0.0173188 0.0171353 0.0168549 0.0164777 0.0160035 0.0154325 0.0147645 0.0140424 0.013309 0.0125643 0.0118082 0.0110407 0.0102619 0.0094718 0.00867031 0.00789981 0.0072026 0.0065787 0.0060281 0.00555081 0.00514681 0.00481612 0.00455872 0.00437673 0.00427224 0.00424525 0.00429576 0.00442377 0.00462928 0.00491228 0.00527279 0.00567535 0.00608449 0.00650023 0.00692255 0.00735147 0.00778698 0.00822908 0.00867778 0.00909881 0.00945793 0.00975513 0.00999043 0.0101638 0.0102753 0.0103248 0.0103125 0.0102377 0.0101 0.00989935 0.00963575 0.00930922 0.00891975 0.00846733 0.00795198 0.00740245 0.0068475 0.00628712 0.00572132 0.0051501 0.00457346 0.0039914 0.00340392 0.00283708 0.00231696 0.00184356 0.00141688 0.00103691 0.00070366 0.000417127 0.000177311 -2.02395e-05 -0.000179974 -0.000301894 -0.000385998 -0.000432286 -0.00044076 -0.000411418 -0.00034426 -0.000263574 -0.000193646 -0.000134477 -8.60651e-05 -4.84116e-05 -2.15163e-05 -5.37907e-06 0 0 -4.50696e-06 -1.80278e-05 -4.05626e-05 -7.21113e-05 -0.000112674 -0.00016225 -0.000220841 -0.000288445 -0.000322987 -0.00028239 -0.000166654 2.42216e-05 0.000290236 0.000631389 0.00104768 0.00153911 0.00210649 0.00275062 0.00347151 0.00426915 0.00514355 0.0060947 0.00712261 0.00822727 0.00936048 0.010474 0.011568 0.0126422 0.0136969 0.0147318 0.0157472 0.0167428 0.0176725 0.0184897 0.0191945 0.0197869 0.0202669 0.0206345 0.0208896 0.0210324 0.021064 0.0209856 0.0207974 0.0204993 0.0200912 0.0195732 0.0189454 0.0182076 0.0174078 0.0165938 0.0157656 0.0149233 0.0140668 0.0131961 0.0123113 0.0114123 0.0105465 0.00976137 0.0090568 0.00843284 0.00788948 0.00742672 0.00704457 0.00674302 0.0065246 0.00639185 0.00634478 0.00638337 0.00650763 0.00671756 0.00701316 0.00739443 0.00782197 0.00825639 0.00869768 0.00914585 0.00960089 0.0100628 0.0105316 0.0110073 0.0114517 0.0118266 0.0121321 0.0123681 0.0125347 0.0126318 0.0126595 0.0126177 0.0125059 0.0123233 0.0120701 0.0117462 0.0113516 0.0108863 0.0103503 0.00974367 0.00909839 0.00844656 0.0077882 0.00712329 0.00645185 0.00577385 0.00508932 0.00439825 0.00372998 0.00311387 0.00254991 0.00203812 0.00157848 0.001171 0.000815677 0.000512511 0.000257398 4.62295e-05 -0.000120993 -0.000244269 -0.0003236 -0.000358985 -0.000350424 -0.000297918 -0.000228093 -0.000167579 -0.000116374 -7.44794e-05 -4.18947e-05 -1.86199e-05 -4.65496e-06 0 0 -1.94228e-06 -7.76912e-06 -1.74805e-05 -3.10765e-05 -4.8557e-05 -6.9922e-05 -9.51717e-05 -0.000124306 -0.000112251 -1.39319e-05 0.00017065 0.000441496 0.000798605 0.00124198 0.00177161 0.00238751 0.00308843 0.00387314 0.00474162 0.00569388 0.00672992 0.00784974 0.00905335 0.0103407 0.0116579 0.0129509 0.0142197 0.0154643 0.0166848 0.017881 0.0190531 0.020201 0.0212734 0.022219 0.0230379 0.02373 0.0242953 0.0247338 0.0250455 0.0252305 0.0252902 0.0252262 0.0250385 0.0247272 0.0242921 0.0237334 0.0230509 0.0222448 0.021368 0.0204738 0.0195621 0.0186328 0.0176861 0.0167218 0.0157401 0.0147408 0.0137766 0.0129001 0.0121112 0.01141 0.0107964 0.0102705 0.00983221 0.00948157 0.00922161 0.00905534 0.00898278 0.00900391 0.00911874 0.00932727 0.00962949 0.0100254 0.0104717 0.0109249 0.0113852 0.0118524 0.0123266 0.0128078 0.0132959 0.0137911 0.0142511 0.0146338 0.0149393 0.0151676 0.0153186 0.0153924 0.0153889 0.0153081 0.0151494 0.014912 0.0145959 0.0142011 0.0137276 0.0131753 0.0125444 0.0118348 0.011082 0.0103213 0.00955284 0.00877657 0.00799251 0.00720065 0.00640099 0.00559352 0.00481102 0.00408625 0.00341921 0.0028099 0.00225833 0.00176448 0.00132836 0.000949965 0.000625786 0.0003523 0.000129507 -4.25935e-05 -0.000164001 -0.000234716 -0.000254738 -0.000224068 -0.000171552 -0.000126038 -8.75265e-05 -5.6017e-05 -3.15095e-05 -1.40042e-05 -3.50106e-06 0 0 1.41936e-06 5.67744e-06 1.27742e-05 2.27098e-05 3.5484e-05 5.1097e-05 6.95487e-05 9.08391e-05 0.000162716 0.000332929 0.000601477 0.000968361 0.00143358 0.00199713 0.00265902 0.00341925 0.00427398 0.0052194 0.0062555 0.00738229 0.00859976 0.00990791 0.0113067 0.0127963 0.0143164 0.0158072 0.0172686 0.0187006 0.0201033 0.0214765 0.0228204 0.0241348 0.0253636 0.0264504 0.0273952 0.028198 0.0288588 0.0293776 0.0297545 0.0299893 0.030084 0.0300405 0.0298587 0.0295387 0.0290804 0.0284839 0.0277491 0.0268761 0.0259233 0.0249491 0.0239536 0.0229368 0.0218986 0.020839 0.0197581 0.0186558 0.0175901 0.0166189 0.015742 0.0149596 0.0142717 0.0136781 0.013179 0.0127744 0.0124678 0.0122627 0.0121593 0.0121574 0.0122571 0.0124584 0.0127613 0.0131658 0.0136245 0.0140901 0.0145627 0.0150422 0.0155285 0.0160218 0.016522 0.0170291 0.017497 0.0178797 0.0181769 0.0183889 0.0185156 0.018557 0.018513 0.0183838 0.0181684 0.017866 0.0174767 0.0170004 0.0164371 0.0157869 0.0150497 0.0142255 0.0133532 0.0124717 0.011581 0.0106812 0.0097721 0.00885385 0.00792639 0.00698975 0.00608022 0.00523412 0.00445146 0.00373224 0.00307645 0.00248409 0.00195516 0.00148967 0.00108493 0.000738238 0.000449606 0.000219029 4.65097e-05 -6.79536e-05 -0.000124361 -0.000122711 -9.39506e-05 -6.90249e-05 -4.7934e-05 -3.06777e-05 -1.72562e-05 -7.66944e-06 -1.91736e-06 0 0 5.57796e-06 2.23118e-05 5.02016e-05 8.92474e-05 0.000139449 0.000200807 0.00027332 0.000356989 0.000501914 0.000758194 0.00112583 0.00160482 0.00219516 0.00289686 0.00370991 0.00463432 0.00566314 0.00678942 0.00801317 0.00933438 0.0107531 0.0122692 0.0138828 0.0155939 0.017336 0.019043 0.0207146 0.0223511 0.0239522 0.0255182 0.0270488 0.0285443 0.029943 0.0311838 0.0322664 0.033191 0.0339576 0.0345661 0.0350165 0.0353089 0.0354455 0.0354285 0.0352579 0.0349338 0.0344561 0.0338248 0.03304 0.0321016 0.0310735 0.0300198 0.0289403 0.0278352 0.0267043 0.0255477 0.0243654 0.0231574 0.021987 0.0209176 0.0199491 0.0190817 0.0183152 0.0176496 0.0170851 0.0166215 0.0162631 0.016014 0.0158742 0.0158438 0.0159227 0.016111 0.0164085 0.0168155 0.0172804 0.017752 0.0182302 0.0187152 0.0192067 0.019705 0.0202099 0.0207215 0.0211896 0.021564 0.0218449 0.0220321 0.0221257 0.0221256 0.022032 0.0218447 0.0215628 0.0211854 