<?xml version="1.0"?> 
<VTKFile type="StructuredGrid" version="0.1"> 
<StructuredGrid WholeExtent="0 128 0 128 0 0"> 
<Piece Extent="0 128 0 128 0 0"> 
<PointData>
<DataArray type="Float32" Name="u" format="ascii" NumberOfComponents="1"> 
0 0 0 0 0 0 0 0 0 0 0 0 0 0 0 0 0 0 0 0 0 0 0 0 0 0 0 0 0 0 0 0 0 0 0 0 0 0 0 0 0 0 0 0 0 0 0 0 0 0 0 0 0 0 0 0 0 0 0 0 0 0 0 0 0 0 0 0 0 0 0 0 0 0 0 0 0 0 0 0 0 0 0 0 0 0 0 0 0 0 0 0 0 0 0 0 0 0 0 0 0 0 0 0 0 0 0 0 0 0 0 0 0 0 0 0 0 0 0 0 0 0 0 0 0 0 0 0 0 0 9.80786e-07 3.92315e-06 8.82708e-06 1.56926e-05 2.45197e-05 3.53083e-05 4.80585e-05 6.27703e-05 7.95534e-05 9.85175e-05 0.000119663 0.000142989 0.000168496 0.000196184 0.000226053 0.000258104 0.000291261 0.000324452 0.000357676 0.000390933 0.000424224 0.000457548 0.000490906 0.000524296 0.000556868 0.000587767 0.000616994 0.000644548 0.000670431 0.000694641 0.000717179 0.000738045 0.000757002 0.000773815 0.000788482 0.000801004 0.000811381 0.000819613 0.000825699 0.000829641 0.000831654 0.000831954 0.000830542 0.000827417 0.000822579 0.000816029 0.000807766 0.000797791 0.000786509 0.000774326 0.000761243 0.000747259 0.000732374 0.000716588 0.000699902 0.000682315 0.000664201 0.000645932 0.00062751 0.000608933 0.000590203 0.000571318 0.00055228 0.000533087 0.000513967 0.000495146 0.000476625 0.000458404 0.000440482 0.000422859 0.000405536 0.000388512 0.000371863 0.000355661 0.000339908 0.000324603 0.000309746 0.000295337 0.000281376 0.000267864 0.000254779 0.000242101 0.000229831 0.000217969 0.000206513 0.000195465 0.000184824 0.000174591 0.000164718 0.000155162 0.000145921 0.000136995 0.000128384 0.00012009 0.00011211 0.000104446 9.70734e-05 8.99673e-05 8.31281e-05 7.65556e-05 7.02498e-05 6.42109e-05 5.84388e-05 5.29334e-05 4.77042e-05 4.27604e-05 3.81021e-05 3.37293e-05 2.96419e-05 2.584e-05 2.23236e-05 1.90927e-05 1.61448e-05 1.34777e-05 1.10912e-05 8.98553e-06 7.16054e-06 5.61627e-06 4.35272e-06 3.36989e-06 2.58007e-06 1.89556e-06 1.31636e-06 8.42473e-07 4.73891e-07 2.10618e-07 5.26545e-08 0 0 3.92315e-06 1.56926e-05 3.53083e-05 6.27703e-05 9.80786e-05 0.000141233 0.000192234 0.000251081 0.000318214 0.00039407 0.000478651 0.000571955 0.000673984 0.000784737 0.000904214 0.00103241 0.00116504 0.00129781 0.0014307 0.00156373 0.0016969 0.00183019 0.00196362 0.00209719 0.00222747 0.00235107 0.00246797 0.00257819 0.00268172 0.00277856 0.00286872 0.00295218 0.00302801 0.00309526 0.00315393 0.00320401 0.00324552 0.00327845 0.0033028 0.00331856 0.00332662 0.00332782 0.00332217 0.00330967 0.00329032 0.00326412 0.00323107 0.00319116 0.00314604 0.0030973 0.00304497 0.00298903 0.00292949 0.00286635 0.00279961 0.00272926 0.0026568 0.00258373 0.00251004 0.00243573 0.00236081 0.00228527 0.00220912 0.00213235 0.00205587 0.00198059 0.0019065 0.00183361 0.00176193 0.00169144 0.00162214 0.00155405 0.00148745 0.00142264 0.00135963 0.00129841 0.00123898 0.00118135 0.0011255 0.00107145 0.00101912 0.000968406 0.000919325 0.000871874 0.000826052 0.00078186 0.000739296 0.000698362 0.000658874 0.000620647 0.000583682 0.000547979 0.000513538 0.000480358 0.000448441 0.000417785 0.000388294 0.000359869 0.000332512 0.000306222 0.000280999 0.000256844 0.000233755 0.000211734 0.000190817 0.000171042 0.000152408 0.000134917 0.000118568 0.00010336 8.92945e-05 7.63707e-05 6.45792e-05 5.39106e-05 4.43649e-05 3.59421e-05 2.86422e-05 2.24651e-05 1.74109e-05 1.34796e-05 1.03203e-05 7.58225e-06 5.26545e-06 3.36989e-06 1.89556e-06 8.42473e-07 2.10618e-07 0 0 8.82708e-06 3.53083e-05 7.94437e-05 0.000141233 0.000220677 0.000317775 0.000432527 0.000564933 0.000715981 0.000886658 0.00107696 0.0012869 0.00151646 0.00176566 0.00203448 0.00232293 0.00262135 0.00292007 0.00321908 0.0035184 0.00381802 0.00411793 0.00441815 0.00471867 0.00501181 0.0052899 0.00555294 0.00580094 0.00603388 0.00625177 0.00645461 0.00664241 0.00681302 0.00696433 0.00709634 0.00720903 0.00730243 0.00737651 0.00743129 0.00746677 0.00748489 0.00748759 0.00747488 0.00744675 0.00740321 0.00734426 0.0072699 0.00718012 0.00707858 0.00696893 0.00685118 0.00672533 0.00659136 0.00644929 0.00629912 0.00614084 0.00597781 0.00581339 0.00564759 0.0054804 0.00531183 0.00514186 0.00497052 0.00479778 0.0046257 0.00445632 0.00428963 0.00412563 0.00396433 0.00380573 0.00364982 0.00349661 0.00334676 0.00320095 0.00305917 0.00292142 0.00278771 0.00265803 0.00253238 0.00241077 0.00229301 0.00217891 0.00206848 0.00196172 0.00185862 0.00175918 0.00166342 0.00157132 0.00148247 0.00139646 0.00131329 0.00123295 0.00115546 0.00108081 0.00100899 0.000940016 0.000873661 0.000809706 0.000748152 0.000689 0.000632249 0.000577898 0.000525949 0.000476401 0.000429338 0.000384844 0.000342919 0.000303564 0.000266777 0.00023256 0.000200913 0.000171834 0.000145303 0.000121299 9.98211e-05 8.08698e-05 6.44449e-05 5.05465e-05 3.91745e-05 3.0329e-05 2.32207e-05 1.70601e-05 1.18473e-05 7.58225e-06 4.26502e-06 1.89556e-06 4.73891e-07 0 0 1.56926e-05 6.27703e-05 0.000141233 0.000251081 0.000392315 0.000564933 0.000768936 0.00100433 0.00127285 0.00157628 0.0019146 0.00228782 0.00269594 0.00313895 0.00361685 0.00412966 0.00466018 0.00519123 0.00572281 0.00625493 0.00678758 0.00732077 0.00785449 0.00838874 0.00890988 0.00940427 0.0098719 0.0103128 0.0107269 0.0111143 0.0114749 0.0118087 0.012112 0.012381 0.0126157 0.0128161 0.0129821 0.0131138 0.0132112 0.0132743 0.0133065 0.0133113 0.0132887 0.0132387 0.0131613 0.0130565 0.0129243 0.0127647 0.0125841 0.0123892 0.0121799 0.0119561 0.011718 0.0114654 0.0111984 0.010917 0.0106272 0.0103349 0.0100402 0.00974294 0.00944325 0.00914109 0.00883647 0.00852939 0.00822347 0.00792234 0.007626 0.00733446 0.00704771 0.00676575 0.00648858 0.0062162 0.0059498 0.00569058 0.00543853 0.00519364 0.00495593 0.00472539 0.00450202 0.00428582 0.00407646 0.00387362 0.0036773 0.0034875 0.00330421 0.00312744 0.00295719 0.00279345 0.0026355 0.00248259 0.00233473 0.00219192 0.00205415 0.00192143 0.00179376 0.00167114 0.00155317 0.00143948 0.00133005 0.00122489 0.001124 0.00102737 0.00093502 0.000846935 0.000763267 0.000684167 0.000609634 0.000539669 0.000474271 0.000413441 0.000357178 0.000305483 0.000258317 0.000215643 0.00017746 0.000143768 0.000114569 8.98604e-05 6.96436e-05 5.39183e-05 4.12812e-05 3.0329e-05 2.10618e-05 1.34796e-05 7.58225e-06 3.36989e-06 8.42473e-07 0 0 2.45197e-05 9.80786e-05 0.000220677 0.000392315 0.000612991 0.000882708 0.00120146 0.00156926 0.00198884 0.00246294 0.00299157 0.00357472 0.0042124 0.0049046 0.00565134 0.00645259 0.00728153 0.0081113 0.0089419 0.00977333 0.0106056 0.0114387 0.0122726 0.0131074 0.0139217 0.0146942 0.0154248 0.0161137 0.0167608 0.017366 0.0179295 0.0184511 0.0189251 0.0193454 0.019712 0.0200251 0.0202845 0.0204903 0.0206425 0.020741 0.0207913 0.0207989 0.0207635 0.0206854 0.0205645 0.0204007 0.0201942 0.0199448 0.0196627 0.0193582 0.0190311 0.0186815 0.0183093 0.0179147 0.0174975 0.0170579 0.016605 0.0161483 0.0156877 0.0152233 0.0147551 0.014283 0.013807 0.0133272 0.0128492 0.0123787 0.0119156 0.0114601 0.011012 0.0105715 0.0101384 0.00971281 0.00929657 0.00889153 0.0084977 0.00811507 0.00774364 0.00738342 0.0070344 0.00669659 0.00636947 0.00605254 0.00574578 0.00544921 0.00516283 0.00488662 0.0046206 0.00436477 0.00411796 0.00387905 0.00364801 0.00342487 0.00320961 0.00300224 0.00280276 0.00261116 0.00242683 0.00224918 0.0020782 0.00191389 0.00175625 0.00160527 0.00146097 0.00132334 0.0011926 0.00106901 0.000952553 0.000843232 0.000741048 0.000646001 0.00055809 0.000477317 0.00040362 0.000336941 0.000277281 0.000224638 0.000179014 0.000140407 0.000108818 8.42473e-05 6.45018e-05 4.73891e-05 3.29091e-05 2.10618e-05 1.18473e-05 5.26545e-06 1.31636e-06 0 0 3.53083e-05 0.000141233 0.000317775 0.000564933 0.000882708 0.0012711 0.00173011 0.00225973 0.00286392 0.00354663 0.00430786 0.0051476 0.00606586 0.00706263 0.00813792 0.00929173 0.0104854 0.0116803 0.0128763 0.0140736 0.0152721 0.0164717 0.0176726 0.0188747 0.0200472 0.0211596 0.0222118 0.0232037 0.0241355 0.0250071 0.0258185 0.0265696 0.0272521 0.0278573 0.0283853 0.0288361 0.0292097 0.0295061 0.0297252 0.0298671 0.0299395 0.0299504 0.0298995 0.029787 0.0296129 0.029377 0.0290796 0.0287205 0.0283143 0.0278757 0.0274047 0.0269013 0.0263655 0.0257972 0.0251965 0.0245633 0.0239112 0.0232536 0.0225904 0.0219216 0.0212473 0.0205675 0.0198821 0.0191911 0.0185028 0.0178253 0.0171585 0.0165025 0.0158573 0.0152229 0.0145993 0.0139864 0.0133871 0.0128038 0.0122367 0.0116857 0.0111508 0.0106321 0.0101295 0.00964309 0.00917204 0.00871565 0.00827393 0.00784687 0.00743447 0.00703674 0.00665367 0.00628526 0.00592987 0.00558582 0.00525314 0.00493181 0.00462184 0.00432323 0.00403597 0.00376006 0.00349464 0.00323882 0.00299261 0.002756 0.00252899 0.00231159 0.0021038 0.0019056 0.00171735 0.00153938 0.00137168 0.00121425 0.00106711 0.000930241 0.00080365 0.000687336 0.000581213 0.000485196 0.000399284 0.000323479 0.00025778 0.000202186 0.000156698 0.000121316 9.28826e-05 6.82403e-05 4.73891e-05 3.0329e-05 1.70601e-05 7.58225e-06 1.89556e-06 0 0 4.80585e-05 0.000192234 0.000432527 0.000768936 0.00120146 0.00173011 0.00235487 0.00307575 0.00389812 0.00482736 0.00586347 0.00700645 0.0082563 0.00961303 0.0110766 0.0126471 0.0142718 0.0158981 0.0175261 0.0191557 0.020787 0.0224199 0.0240544 0.0256905 0.0272865 0.0288006 0.0302327 0.0315829 0.0328511 0.0340374 0.0351418 0.0361642 0.0370931 0.0379169 0.0386356 0.0392492 0.0397577 0.040161 0.0404593 0.0406524 0.040751 0.0407658 0.0406965 0.0405434 0.0403064 0.0399854 0.0395805 0.0390918 0.0385389 0.037942 0.0373009 0.0366157 0.0358863 0.0351128 0.0342952 0.0334334 0.0325458 0.0316507 0.030748 0.0298377 0.0289199 0.0279946 0.0270617 0.0261213 0.0251844 0.0242622 0.0233546 0.0224618 0.0215836 0.0207201 0.0198713 0.0190371 0.0182213 0.0174274 0.0166555 0.0159055 0.0151775 0.0144715 0.0137874 0.0131253 0.0124842 0.011863 0.0112617 0.0106805 0.0101191 0.00957778 0.00905638 0.00855494 0.00807121 0.00760293 0.00715011 0.00671275 0.00629084 0.00588439 0.0054934 0.00511787 0.0047566 0.0044084 0.00407327 0.00375122 0.00344224 0.00314634 0.0028635 0.00259374 0.0023375 0.00209526 0.001867 0.00165274 0.00145245 0.00126616 0.00109386 0.00093554 0.000791095 0.000660405 0.000543471 0.000440291 0.000350867 0.000275197 0.000213283 0.000165125 0.000126424 9.28826e-05 6.45018e-05 4.12812e-05 2.32207e-05 1.03203e-05 2.58007e-06 0 0 6.27703e-05 0.000251081 0.000564933 0.00100433 0.00156926 0.00225973 0.00307575 0.0040173 0.00509142 0.00630512 0.00765841 0.00915128 0.0107837 0.0125558 0.0144674 0.0165186 0.0186407 0.0207649 0.0228913 0.0250197 0.0271503 0.0292831 0.031418 0.033555 0.0356395 0.0376171 0.0394876 0.0412511 0.0429076 0.044457 0.0458995 0.0472349 0.0484482 0.0495241 0.0504628 0.0512642 0.0519284 0.0524552 0.0528448 0.053097 0.0532258 0.0532451 0.0531547 0.0529547 0.0526451 0.0522259 0.051697 0.0510586 0.0503366 0.0495569 0.0487195 0.0478245 0.0468719 0.0458616 0.0447937 0.0436682 0.0425088 0.0413397 0.0401606 0.0389717 0.037773 0.0365644 0.0353459 0.0341176 0.0328939 0.0316894 0.030504 0.0293378 0.0281908 0.027063 0.0259543 0.0248648 0.0237992 0.0227623 0.0217541 0.0207746 0.0198237 0.0189016 0.0180081 0.0171433 0.0163058 0.0154945 0.0147092 0.01395 0.0132168 0.0125098 0.0118287 0.0111738 0.010542 0.00993036 0.00933892 0.00876767 0.00821661 0.00768574 0.00717505 0.00668456 0.0062127 0.00575791 0.0053202 0.00489956 0.00449599 0.0041095 0.00374008 0.00338774 0.00305307 0.00273667 0.00243854 0.00215867 0.00189708 0.00165376 0.00142871 0.00122193 0.00103327 0.00086257 0.000709839 0.000575074 0.000458275 0.000359442 0.000278574 0.000215673 0.000165125 0.000121316 8.42473e-05 5.39183e-05 3.0329e-05 1.34796e-05 3.36989e-06 0 0 7.98276e-05 0.00031931 0.000718448 0.00127724 0.00199569 0.00287379 0.00391155 0.00510896 0.00647422 0.00801553 0.00973287 0.0116262 0.0136957 0.0159411 0.0183626 0.0209602 0.0236469 0.0263361 0.0290276 0.0317215 0.0344178 0.0371165 0.0398176 0.0425211 0.0451581 0.0476599 0.0500264 0.0522578 0.0543538 0.0563147 0.0581403 0.0598306 0.0613666 0.0627291 0.0639181 0.0649336 0.0657756 0.0664441 0.0669391 0.0672606 0.067426 0.0674528 0.0673409 0.0670904 0.0667012 0.0661734 0.0655069 0.0647018 0.0637908 0.0628067 0.0617496 0.0606193 0.059416 0.0581396 0.0567902 0.0553676 0.0539022 0.052424 0.0509332 0.0494296 0.0479134 0.0463844 0.0448427 0.0432884 0.0417397 0.040215 0.0387144 0.0372379 0.0357854 0.0343569 0.0329526 0.0315722 0.030222 0.028908 0.0276302 0.0263885 0.0251831 0.0240138 0.0228807 0.0217838 0.0207215 0.0196922 0.0186959 0.0177325 0.0168021 0.0159047 0.0150402 0.0142088 0.0134066 0.01263 0.0118791 0.0111537 0.0104539 0.00977974 0.00913116 0.00850818 0.00790883 0.00733115 0.00677512 0.00624075 0.00572805 0.005237 0.00476762 0.00431989 0.00389456 0.00349236 0.0031133 0.00275736 0.00242455 0.00211488 0.00182833 0.00156492 0.00132445 0.00110676 0.000911831 0.000739676 0.000590292 0.000463677 0.000359833 0.000278758 0.000213424 0.000156801 0.00010889 6.96895e-05 3.92004e-05 1.74224e-05 4.3556e-06 0 0 9.96141e-05 0.000398456 0.000896527 0.00159383 0.00249035 0.00358611 0.00488109 0.0063753 0.00807693 0.00999418 0.012127 0.0144755 0.0170396 0.0198193 0.0228146 0.0260255 0.0293453 0.0326671 0.035991 0.039317 0.0426451 0.0459753 0.0493075 0.0526418 0.055894 0.0589798 0.0618992 0.0646522 0.0672389 0.0696591 0.071913 0.0740005 0.075898 0.077582 0.0790526 0.0803096 0.0813532 0.0821832 0.0827997 0.0832027 0.0834135 0.0834534 0.0833222 0.0830201 0.082547 0.0819029 0.0810879 0.0801019 0.0789852 0.0777778 0.0764799 0.0750914 0.0736124 0.0720428 0.0703826 0.0686319 0.0668277 0.0650073 0.0631705 0.0613174 0.059448 0.0575623 0.0556603 0.0537419 0.05183 0.0499472 0.0480936 0.0462691 0.0444736 0.0427074 0.0409702 0.0392622 0.0375909 0.0359639 0.0343814 0.0328432 0.0313493 0.0298998 0.0284947 0.0271339 0.0258157 0.0245381 0.0233012 0.022105 0.0209494 0.0198345 0.0187603 0.0177268 0.0167295 0.0157639 0.01483 0.0139279 0.0130575 0.0122189 0.011412 0.0106368 0.0098909 0.0091719 0.00847979 0.00781457 0.00717622 0.00656476 0.00598018 0.00542248 0.00489251 0.00439112 0.00391831 0.00347407 0.00305841 0.00267133 0.00231283 0.0019829 0.00168137 0.00140803 0.00116289 0.000945947 0.000757206 0.000596664 0.000464321 0.000360177 0.00027576 0.0002026 0.000140694 9.00442e-05 5.06499e-05 2.25111e-05 5.62776e-06 0 0 0.00012213 0.00048852 0.00109917 0.00195408 0.00305325 0.00439668 0.00598437 0.00781632 0.00989955 0.0122411 0.0148409 0.017699 0.0208155 0.0241902 0.0278233 0.0317146 0.0357357 0.039758 0.0437815 0.0478063 0.0518322 0.0558594 0.0598877 0.0639173 0.0678473 0.0715768 0.0751059 0.0784345 0.0815626 0.0844903 0.0872176 0.0897444 0.0920423 0.0940829 0.0958662 0.0973923 0.098661 0.0996725 0.100427 0.100924 0.101188 0.101247 0.101099 0.100744 0.100183 0.0994146 0.0984401 0.0972591 0.0959197 0.0944702 0.0929106 0.0912409 0.0894611 0.0875711 0.0855711 0.083461 0.0812855 0.0790893 0.0768725 0.074635 0.0723768 0.070098 0.0677985 0.0654783 0.063165 0.0608861 0.0586416 0.0564314 0.0542556 0.0521142 0.0500072 0.0479346 0.0459057 0.0439301 0.0420077 0.0401384 0.0383224 0.0365595 0.0348499 0.0331935 0.0315882 0.0300321 0.0285252 0.0270674 0.0256588 0.0242993 0.022989 0.0217279 0.0205106 0.0193319 0.0181918 0.0170903 0.0160274 0.0150031 0.0140174 0.0130703 0.0121589 0.0112802 0.0104342 0.00962099 0.00884051 0.00809277 0.00737777 0.0066955 0.00604692 0.00543294 0.00485357 0.00430882 0.00379867 0.00332314 0.00288221 0.0024759 0.00210401 0.00176638 0.00146301 0.00119389 0.000959017 0.000758401 0.000592038 0.000459929 0.000352133 0.00025871 0.00017966 0.000114982 6.46776e-05 2.87456e-05 7.1864e-06 0 0 0.000147375 0.000589501 0.00132638 0.002358 0.00368438 0.00530551 0.00722138 0.00943201 0.0119421 0.0147562 0.0178745 0.0212969 0.0250234 0.029054 0.0333886 0.0380275 0.0428182 0.0476087 0.0523991 0.0571892 0.0619791 0.0667688 0.0715583 0.0763475 0.081018 0.0854509 0.0896465 0.0936045 0.0973252 0.100808 0.104054 0.107062 0.109799 0.112232 0.114359 0.116182 0.117699 0.118912 0.11982 0.120423 0.120751 0.120833 0.12067 0.120262 0.119608 0.118708 0.117563 0.116173 0.114594 0.112884 0.111042 0.109068 0.106962 0.104725 0.102356 0.099855 0.0972755 0.0946703 0.0920393 0.0893825 0.0867 0.0839916 0.0812575 0.0784975 0.0757446 0.0730315 0.0703583 0.0677249 0.0651313 0.0625775 0.0600636 0.0575895 0.0551666 0.0528065 0.0505091 0.0482743 0.0461023 0.043993 0.0419464 0.0399626 0.0380392 0.0361744 0.0343679 0.0326199 0.0309303 0.0292991 0.0277263 0.026212 0.02475 0.0233341 0.0219645 0.020641 0.0193637 0.0181326 0.0169476 0.0158089 0.0147128 0.013656 0.0126384 0.01166 0.0107209 0.00982103 0.00896038 0.00813896 0.00735777 0.00661782 0.00591909 0.00526159 0.00464532 0.00407028 0.00353647 0.00304389 0.00259239 0.00218183 0.00181219 0.00148349 0.00119572 0.000948889 0.000742986 0.000578016 0.000442543 0.000325134 0.000225787 0.000144504 8.12834e-05 3.6126e-05 9.03149e-06 0 0 0.00017535 0.000701398 0.00157815 0.00280559 0.00438374 0.00631259 0.00859213 0.0112224 0.0142045 0.0175396 0.0212278 0.025269 0.0296632 0.0344105 0.0395108 0.0449641 0.0505928 0.0562194 0.0618437 0.0674658 0.0730858 0.0787035 0.0843191 0.0899324 0.095406 0.100602 0.105521 0.110162 0.114526 0.118613 0.122422 0.125954 0.129169 0.132028 0.134531 0.136677 0.138468 0.139902 0.140979 0.141701 0.1421 0.142212 0.142037 0.141573 0.140823 0.139784 0.138458 0.136844 0.135009 0.133019 0.130873 0.128572 0.126115 0.123503 0.120736 0.117814 0.114798 0.11175 0.108671 0.10556 0.102417 0.099243 0.0960371 0.0927995 0.0895688 0.0863836 0.0832438 0.0801495 0.0771007 0.0740973 0.0711393 0.0682268 0.0653735 0.0625931 0.0598856 0.0572509 0.0546891 0.0522002 0.0497842 0.0474411 0.0451687 0.0429648 0.0408293 0.0387623 0.0367638 0.0348338 0.0329722 0.0311792 0.0294476 0.0277705 0.0261479 0.0245798 0.0230662 0.0216071 0.0202025 0.0188523 0.0175526 0.0162993 0.0150923 0.0139317 0.0128174 0.0117496 0.010728 0.00975286 0.00882509 0.00794576 0.00711486 0.00633239 0.00559837 0.00491277 0.00427562 0.00368689 0.00314651 0.00265436 0.00221044 0.00181477 0.00146733 0.00116813 0.000917163 0.000714435 0.00054699 0.00040187 0.000279076 0.000178609 0.000100467 4.46522e-05 1.11631e-05 0 0 0.000206053 0.000824214 0.00185448 0.00329685 0.00515134 0.00741792 0.0100966 0.0131874 0.0166868 0.0205913 0.0249008 0.0296154 0.0347351 0.0402598 0.0461896 0.0525245 0.0590596 0.0655899 0.0721154 0.0786362 0.0851523 0.0916636 0.0981702 0.104672 0.111011 0.11703 0.122729 0.128108 0.133166 0.137905 0.142323 0.14642 0.150152 0.153473 0.156382 0.15888 0.160966 0.162641 0.163905 0.164757 0.165237 0.165385 0.165198 0.164679 0.163827 0.162642 0.161124 0.159272 0.157164 0.154875 0.152404 0.149753 0.146921 0.143907 0.140713 0.137337 0.133852 0.130329 0.126767 0.123167 0.119529 0.115852 0.112137 0.108384 0.104638 0.100942 0.0972981 0.0937053 0.0901637 0.0866734 0.0832344 0.0798467 0.0765264 0.0732899 0.0701372 0.0670681 0.0640828 0.0611812 0.0583633 0.0556292 0.0529766 0.0504033 0.0479094 0.0454947 0.0431594 0.0409034 0.0387267 0.0366294 0.0346035 0.0326411 0.0307422 0.0289069 0.0271351 0.0254268 0.023782 0.0222008 0.0206784 0.0192101 0.017796 0.016436 0.0151301 0.0138783 0.0126807 0.0115372 0.0104489 0.00941675 0.00844088 0.00752123 0.00665781 0.00585061 0.00509964 0.0044049 0.00376635 0.00318397 0.00265776 0.00218771 0.00177383 0.00141612 0.00111457 0.000869189 0.000665473 0.000488919 0.000339527 0.000217297 0.00012223 5.43243e-05 1.35811e-05 0 0 0.000239487 0.000957946 0.00215538 0.00383178 0.00598716 0.00862151 0.0117348 0.0153271 0.019389 0.0239112 0.0288935 0.0343361 0.0402389 0.0466019 0.0534252 0.0607087 0.0682184 0.0757202 0.0832142 0.0907003 0.0981786 0.105649 0.113112 0.120566 0.127834 0.134736 0.141272 0.147441 0.153245 0.158683 0.163755 0.168461 0.172748 0.176566 0.179912 0.182789 0.185195 0.187132 0.188597 0.189593 0.190162 0.190349 0.190155 0.189579 0.188622 0.187282 0.185561 0.183458 0.181059 0.178452 0.175636 0.172612 0.169378 0.165936 0.162285 0.158426 0.154439 0.150406 0.146328 0.142204 0.138035 0.13382 0.129559 0.125252 0.120951 0.116708 0.112521 0.108392 0.104321 0.100306 0.0963489 0.092449 0.0886254 0.084897 0.0812639 0.077726 0.0742833 0.0709359 0.0676837 0.0645268 0.0614629 0.0584901 0.0556081 0.0528171 0.0501171 0.047508 0.0449899 0.0425627 0.0402176 0.0379458 0.0357473 0.0336221 0.0315702 0.0295916 0.0276863 0.0258542 0.0240901 0.0223885 0.0207494 0.0191729 0.0176588 0.0162074 0.0148184 0.013492 0.0122291 0.0110308 0.00989715 0.00882809 0.00782364 0.00688379 0.00600855 0.00519791 0.00445193 0.00377067 0.00315414 0.00260232 0.00211523 0.00169286 0.00133521 0.00104228 0.000797993 0.00058628 0.000407139 0.000260569 0.00014657 6.51423e-05 1.62856e-05 0 0 0.000275649 0.0011026 0.00248084 0.00441038 0.00689122 0.00992336 0.0135068 0.0176415 0.0223112 0.0274993 0.0332059 0.0394311 0.0461747 0.0534369 0.0612175 0.0695167 0.0780693 0.0866104 0.09514 0.103658 0.112165 0.12066 0.129143 0.137615 0.145874 0.153718 0.161148 0.168163 0.174763 0.180948 0.186719 0.192075 0.196957 0.201306 0.205122 0.208405 0.211155 0.213372 0.215056 0.216206 0.216874 0.217107 0.216907 0.216273 0.215206 0.213704 0.211769 0.2094 0.206694 0.203751 0.200568 0.197148 0.193488 0.18959 0.185454 0.181079 0.176558 0.171983 0.167354 0.162671 0.157935 0.153145 0.1483 0.143402 0.138509 0.133679 0.128913 0.12421 0.119571 0.114995 0.110483 0.106034 0.10167 0.0974143 0.0932657 0.0892245 0.0852907 0.0814643 0.0777454 0.0741339 0.0706277 0.067225 0.0639256 0.0607295 0.0576368 0.0546475 0.0517616 0.048979 0.04629 0.0436847 0.0411633 0.0387256 0.0363717 0.0341016 0.0319152 0.0298126 0.0277877 0.0258344 0.0239526 0.0221424 0.0204037 0.0187366 0.0171411 0.0156172 0.0141658 0.0127879 0.0114837 0.010253 0.00909587 0.00801232 0.00700233 0.00606592 0.00520324 0.00441446 0.00369958 0.0030586 0.00249152 0.00199835 0.00157907 0.0012337 0.000944549 0.000693955 0.000481913 0.000308424 0.000173489 7.71061e-05 1.92765e-05 0 0 0.000313867 0.00125547 0.00282481 0.00502188 0.00784669 0.0112992 0.0153795 0.0200875 0.0253989 0.0312892 0.0377585 0.0448068 0.052434 0.0606403 0.0694254 0.0787896 0.0884354 0.0980653 0.107679 0.117278 0.12686 0.136427 0.145978 0.155513 0.164808 0.173637 0.182001 0.189899 0.197331 0.204298 0.2108 0.216836 0.222341 0.227246 0.231554 0.235264 0.238375 0.240887 0.242802 0.244118 0.244891 0.245176 0.244973 0.244282 0.243103 0.241436 0.239281 0.236638 0.233616 0.230324 0.226763 0.222932 0.21883 0.21446 0.209819 0.204908 0.199831 0.194692 0.18949 0.184225 0.178897 0.173507 0.168054 0.162539 0.157027 0.151584 0.146211 0.140908 0.135674 0.13051 0.125416 0.120391 0.115461 0.110652 0.105962 0.101392 0.0969415 0.0926114 0.0884012 0.0843111 0.080339 0.0764833 0.0727438 0.0691207 0.0656139 0.0622233 0.0589491 0.0557911 0.0527387 0.0497811 0.0469183 0.0441503 0.0414771 0.0388986 0.036415 0.0340261 0.0317252 0.0295053 0.0273665 0.0253088 0.0233322 0.0214366 0.0196221 0.0178887 0.0162373 0.0146688 0.0131833 0.0117808 0.0104613 0.00922468 0.00807105 0.00700038 0.00601299 0.00510919 0.00428899 0.00355237 0.00289935 0.00232992 0.00184407 0.00144182 0.0011039 0.000811025 0.000563212 0.000360456 0.000202756 9.01139e-05 2.25285e-05 0 0 0.000353469 0.00141387 0.00318122 0.0056555 0.00883672 0.0127249 0.01732 0.022622 0.0285979 0.0352144 0.0424717 0.0503697 0.0589084 0.0680878 0.0779079 0.0883687 0.0991396 0.10989 0.120619 0.131328 0.142016 0.152683 0.163329 0.173955 0.184312 0.194151 0.203472 0.212276 0.220563 0.228332 0.235584 0.242318 0.248461 0.253939 0.258752 0.262901 0.266385 0.269203 0.271357 0.272846 0.273731 0.274073 0.273871 0.273126 0.271837 0.270006 0.26763 0.264712 0.26137 0.257727 0.253782 0.249534 0.244985 0.240133 0.23498 0.229524 0.223882 0.218167 0.21238 0.206521 0.20059 0.194587 0.188511 0.182364 0.176218 0.170148 0.164153 0.158234 0.15239 0.146622 0.140929 0.135312 0.129799 0.124418 0.11917 0.114055 0.109072 0.104222 0.0995041 0.094919 0.0904649 0.0861402 0.0819451 0.0778795 0.0739433 0.0701367 0.0664595 0.0629119 0.059482 0.0561583 0.0529407 0.0498293 0.046824 0.0439248 0.0411318 0.0384449 0.0358565 0.0333589 0.0309523 0.0286366 0.0264117 0.0242777 0.0222347 0.0202825 0.018422 0.0166542 0.0149791 0.0133965 0.0119066 0.0105094 0.00920473 0.00799274 0.00687391 0.00584875 0.00491727 0.00407946 0.00333534 0.00268489 0.00212812 0.00166502 0.00127478 0.000936576 0.0006504 0.000416256 0.000234144 0.000104064 2.6016e-05 0 0 0.000394453 0.00157781 0.00355007 0.00631124 0.00986132 0.0142003 0.0193282 0.025245 0.0319081 0.0392749 0.0473455 0.0561197 0.0655977 0.0757795 0.0866649 0.0982541 0.110182 0.122084 0.133959 0.145808 0.15763 0.169426 0.181196 0.19294 0.204385 0.215259 0.225563 0.235296 0.244458 0.253049 0.26107 0.26852 0.275318 0.281384 0.286717 0.291317 0.295185 0.29832 0.300722 0.302392 0.303395 0.303798 0.303602 0.302805 0.301409 0.299413 0.296817 0.293621 0.289957 0.285958 0.281624 0.276955 0.271951 0.266612 0.260937 0.254927 0.248709 0.242408 0.236025 0.22956 0.223013 0.216384 0.209672 0.202878 0.196084 0.18937 0.182738 0.176187 0.169718 0.163329 0.157022 0.150795 0.144682 0.138715 0.132892 0.127215 0.121683 0.116296 0.111054 0.105958 0.101005 0.0961958 0.0915294 0.0870059 0.0826253 0.0783877 0.074293 0.0703412 0.0665198 0.0628163 0.0592305 0.0557626 0.0524124 0.0491801 0.0460656 0.0430688 0.0401815 0.0373952 0.0347099 0.0321256 0.0296423 0.02726 0.0249787 0.0227985 0.02072 0.0187441 0.0168708 0.0151001 0.0134319 0.0118664 0.0104034 0.009043 0.00778598 0.00663312 0.00558442 0.00463987 0.00379949 0.00306327 0.0024312 0.0019033 0.00145721 0.00107061 0.000743476 0.000475825 0.000267652 0.000118956 2.97391e-05 0 0 0.00043682 0.00174728 0.00393138 0.00698911 0.0109205 0.0157255 0.0214042 0.0279565 0.0353296 0.0434707 0.0523798 0.062057 0.0725021 0.0837153 0.0956964 0.108446 0.121563 0.134647 0.147699 0.160718 0.173704 0.186658 0.19958 0.212468 0.225028 0.236963 0.248273 0.258957 0.269016 0.27845 0.287259 0.295443 0.302913 0.309581 0.315447 0.320512 0.324775 0.328237 0.330896 0.332754 0.333882 0.334352 0.334165 0.33332 0.331818 0.329658 0.32684 0.323365 0.319377 0.315019 0.310292 0.305195 0.29973 0.293895 0.287691 0.281117 0.274313 0.267416 0.260426 0.253342 0.246166 0.238898 0.231536 0.224081 0.216623 0.209252 0.201967 0.194769 0.187657 0.180632 0.173694 0.166842 0.160112 0.153541 0.147127 0.140871 0.134773 0.128833 0.123051 0.117427 0.11196 0.10665 0.101497 0.0964998 0.0916597 0.0869762 0.0824493 0.0780792 0.0738522 0.069755 0.0657877 0.0619501 0.0582424 0.0546645 0.0512164 0.047898 0.0447004 0.0416141 0.0386393 0.0357759 0.0330239 0.0303834 0.0278544 0.0254367 0.0231312 0.0209385 0.0188586 0.0168915 0.0150372 0.0132957 0.011667 0.0101512 0.00874921 0.00746231 0.00629044 0.0052336 0.00429181 0.00346505 0.00275333 0.00215665 0.00165119 0.00121312 0.000842442 0.000539163 0.000303279 0.000134791 3.36977e-05 0 0 0.000480569 0.00192228 0.00432512 0.00768911 0.0120142 0.0173005 0.0235479 0.0307564 0.0388623 0.0478018 0.0575748 0.0681814 0.0796215 0.0918952 0.105003 0.118943 0.133281 0.14758 0.161838 0.176058 0.190238 0.204378 0.218479 0.23254 0.246242 0.259262 0.271601 0.28326 0.294238 0.304534 0.31415 0.323085 0.331244 0.33853 0.344944 0.350486 0.355156 0.358954 0.361879 0.363933 0.365192 0.365734 0.365561 0.36467 0.363064 0.36074 0.357701 0.353945 0.349628 0.344908 0.339783 0.334254 0.32832 0.321983 0.315241 0.308094 0.300694 0.293189 0.28558 0.277867 0.27005 0.262129 0.254103 0.245973 0.237837 0.229793 0.22184 0.213979 0.206209 0.198532 0.190946 0.183451 0.176088 0.168896 0.161874 0.155023 0.148343 0.141834 0.135495 0.129327 0.12333 0.117503 0.111847 0.106361 0.101047 0.0959023 0.0909287 0.0861257 0.0814791 0.0769746 0.0726122 0.068392 0.0643139 0.060378 0.0565842 0.0529325 0.049413 0.0460157 0.0427405 0.0395875 0.0365567 0.033648 0.0308615 0.0281972 0.0256556 0.0232373 0.0209424 0.0187707 0.0167224 0.0147974 0.0129956 0.0113172 0.0097636 0.00833631 0.00703532 0.00586065 0.00481229 0.00389024 0.0030945 0.00242508 0.0018567 0.00136411 0.000947296 0.00060627 0.000341027 0.000151567 3.78919e-05 0 0 0.000525702 0.00210281 0.00473132 0.00841123 0.0131425 0.0189253 0.0257594 0.0336449 0.0425063 0.0522682 0.0629304 0.074493 0.086956 0.100319 0.114583 0.129747 0.145338 0.160882 0.176379 0.191828 0.207231 0.222586 0.237895 0.253156 0.268025 0.282156 0.295549 0.308205 0.320122 0.331302 0.341744 0.351448 0.360312 0.368231 0.375207 0.381239 0.386327 0.390471 0.393672 0.395929 0.397325 0.397945 0.397789 0.396856 0.395147 0.392661 0.389399 0.38536 0.380713 0.375626 0.370098 0.364131 0.357723 0.350875 0.343587 0.335858 0.327852 0.319729 0.31149 0.303135 0.294664 0.286077 0.277374 0.268554 0.259725 0.250992 0.242356 0.233816 0.225373 0.217027 0.208777 0.200624 0.192611 0.184781 0.177135 0.169672 0.162393 0.155298 0.148386 0.141658 0.135114 0.128755 0.12258 0.116591 0.110786 0.105166 0.099731 0.0944808 0.0894004 0.0844749 0.0797041 0.0750881 0.070627 0.0663206 0.062169 0.0581722 0.0543194 0.0505998 0.0470135 0.0435603 0.0402404 0.0370537 0.0340002 0.0310799 0.0282933 0.0256407 0.0231222 0.0207379 0.0184876 0.0163713 0.0143892 0.0125412 0.0108292 0.00925513 0.00781908 0.00652102 0.00536094 0.00433884 0.00345472 0.00270858 0.00207376 0.00152358 0.00105804 0.000677145 0.000380894 0.000169286 4.23216e-05 0 0 0.000572217 0.00228887 0.00514995 0.00915547 0.0143054 0.0205998 0.0280386 0.0366219 0.0462616 0.0568698 0.0684465 0.0809917 0.0945054 0.108988 0.124438 0.140857 0.157733 0.174554 0.191319 0.208029 0.224683 0.241282 0.257826 0.274315 0.290378 0.305645 0.320116 0.333791 0.34667 0.358753 0.370041 0.380532 0.390117 0.398685 0.406236 0.412771 0.418289 0.42279 0.426274 0.428741 0.430282 0.430984 0.430849 0.429877 0.428067 0.425419 0.421933 0.41761 0.41263 0.407173 0.401238 0.394827 0.387938 0.380572 0.372729 0.364409 0.355787 0.347035 0.338155 0.329146 0.320009 0.310742 0.301348 0.291824 0.282287 0.272851 0.263516 0.254282 0.24515 0.236118 0.227188 0.218359 0.209679 0.201196 0.192908 0.184818 0.176923 0.169226 0.161724 0.154419 0.147312 0.140405 0.133696 0.127187 0.120878 0.114767 0.108856 0.1031