<?xml version="1.0"?> 
<VTKFile type="StructuredGrid" version="0.1"> 
<StructuredGrid WholeExtent="0 128 0 128 0 0"> 
<Piece Extent="0 128 0 128 0 0"> 
<PointData>
<DataArray type="Float32" Name="u" format="ascii" NumberOfComponents="1"> 
0 0 0 0 0 0 0 0 0 0 0 0 0 0 0 0 0 0 0 0 0 0 0 0 0 0 0 0 0 0 0 0 0 0 0 0 0 0 0 0 0 0 0 0 0 0 0 0 0 0 0 0 0 0 0 0 0 0 0 0 0 0 0 0 0 0 0 0 0 0 0 0 0 0 0 0 0 0 0 0 0 0 0 0 0 0 0 0 0 0 0 0 0 0 0 0 0 0 0 0 0 0 0 0 0 0 0 0 0 0 0 0 0 0 0 0 0 0 0 0 0 0 0 0 0 0 0 0 0 0 -1.93437e-07 -7.73748e-07 -1.74093e-06 -3.09499e-06 -4.83592e-06 -6.96373e-06 -9.47841e-06 -1.238e-05 -1.5517e-05 -1.8738e-05 -2.20431e-05 -2.54323e-05 -2.89055e-05 -3.24627e-05 -3.6104e-05 -3.98293e-05 -4.3423e-05 -4.66694e-05 -4.95685e-05 -5.21203e-05 -5.43247e-05 -5.61819e-05 -5.76917e-05 -5.88542e-05 -5.97187e-05 -6.03343e-05 -6.07011e-05 -6.08191e-05 -6.06882e-05 -6.03085e-05 -5.968e-05 -5.88027e-05 -5.78864e-05 -5.71412e-05 -5.65671e-05 -5.6164e-05 -5.5932e-05 -5.5871e-05 -5.59811e-05 -5.62622e-05 -5.67985e-05 -5.76741e-05 -5.88889e-05 -6.04431e-05 -6.23365e-05 -6.45692e-05 -6.71411e-05 -7.00524e-05 -7.31345e-05 -7.62191e-05 -7.93061e-05 -8.23956e-05 -8.54875e-05 -8.85819e-05 -9.16787e-05 -9.4778e-05 -9.76631e-05 -0.000100117 -0.000102141 -0.000103733 -0.000104894 -0.000105625 -0.000105925 -0.000105794 -0.000105245 -0.000104292 -0.000102935 -0.000101174 -9.90082e-05 -9.64386e-05 -9.34648e-05 -9.00868e-05 -8.65266e-05 -8.3006e-05 -7.95249e-05 -7.60835e-05 -7.26817e-05 -6.93195e-05 -6.59969e-05 -6.27139e-05 -5.96176e-05 -5.68551e-05 -5.44264e-05 -5.23315e-05 -5.05704e-05 -4.91431e-05 -4.80496e-05 -4.72898e-05 -4.67758e-05 -4.64193e-05 -4.62205e-05 -4.61791e-05 -4.62954e-05 -4.65692e-05 -4.70006e-05 -4.75896e-05 -4.81579e-05 -4.85271e-05 -4.86974e-05 -4.86686e-05 -4.84408e-05 -4.8014e-05 -4.73881e-05 -4.65633e-05 -4.5509e-05 -4.41947e-05 -4.26205e-05 -4.07863e-05 -3.86921e-05 -3.6338e-05 -3.3724e-05 -3.085e-05 -2.78867e-05 -2.50045e-05 -2.22036e-05 -1.94839e-05 -1.68453e-05 -1.4288e-05 -1.1812e-05 -9.41708e-06 -7.20995e-06 -5.29711e-06 -3.67855e-06 -2.35427e-06 -1.32428e-06 -5.88568e-07 -1.47142e-07 0 0 -7.73748e-07 -3.09499e-06 -6.96373e-06 -1.238e-05 -1.93437e-05 -2.78549e-05 -3.79136e-05 -4.95199e-05 -6.20679e-05 -7.49522e-05 -8.81726e-05 -0.000101729 -0.000115622 -0.000129851 -0.000144416 -0.000159317 -0.000173692 -0.000186678 -0.000198274 -0.000208481 -0.000217299 -0.000224728 -0.000230767 -0.000235417 -0.000238875 -0.000241337 -0.000242804 -0.000243276 -0.000242753 -0.000241234 -0.00023872 -0.000235211 -0.000231546 -0.000228565 -0.000226268 -0.000224656 -0.000223728 -0.000223484 -0.000223924 -0.000225049 -0.000227194 -0.000230696 -0.000235556 -0.000241772 -0.000249346 -0.000258277 -0.000268565 -0.00028021 -0.000292538 -0.000304876 -0.000317224 -0.000329582 -0.00034195 -0.000354328 -0.000366715 -0.000379112 -0.000390652 -0.000400469 -0.000408562 -0.000414932 -0.000419578 -0.0004225 -0.000423699 -0.000423174 -0.000420979 -0.000417168 -0.000411739 -0.000404694 -0.000396033 -0.000385754 -0.000373859 -0.000360347 -0.000346106 -0.000332024 -0.0003181 -0.000304334 -0.000290727 -0.000277278 -0.000263988 -0.000250856 -0.00023847 -0.00022742 -0.000217706 -0.000209326 -0.000202282 -0.000196572 -0.000192198 -0.000189159 -0.000187103 -0.000185677 -0.000184882 -0.000184717 -0.000185182 -0.000186277 -0.000188003 -0.000190358 -0.000192632 -0.000194108 -0.000194789 -0.000194674 -0.000193763 -0.000192056 -0.000189552 -0.000186253 -0.000182036 -0.000176779 -0.000170482 -0.000163145 -0.000154769 -0.000145352 -0.000134896 -0.0001234 -0.000111547 -0.000100018 -8.88143e-05 -7.79354e-05 -6.73814e-05 -5.71522e-05 -4.72478e-05 -3.76683e-05 -2.88398e-05 -2.11884e-05 -1.47142e-05 -9.41708e-06 -5.29711e-06 -2.35427e-06 -5.88568e-07 0 0 -1.74093e-06 -6.96373e-06 -1.56684e-05 -2.78549e-05 -4.35233e-05 -6.26736e-05 -8.53057e-05 -0.00011142 -0.000139653 -0.000168642 -0.000198388 -0.000228891 -0.000260149 -0.000292165 -0.000324936 -0.000358464 -0.000390807 -0.000420025 -0.000446117 -0.000469083 -0.000488923 -0.000505637 -0.000519225 -0.000529688 -0.000537468 -0.000543009 -0.00054631 -0.000547372 -0.000546194 -0.000542777 -0.00053712 -0.000529224 -0.000520978 -0.000514271 -0.000509104 -0.000505476 -0.000503388 -0.000502839 -0.00050383 -0.00050636 -0.000511186 -0.000519067 -0.00053 -0.000543987 -0.000561028 -0.000581122 -0.00060427 -0.000630472 -0.000658211 -0.000685972 -0.000713755 -0.00074156 -0.000769388 -0.000797237 -0.000825109 -0.000853002 -0.000878968 -0.000901055 -0.000919265 -0.000933596 -0.00094405 -0.000950625 -0.000953323 -0.000952142 -0.000947203 -0.000938627 -0.000926414 -0.000910562 -0.000891074 -0.000867947 -0.000841183 -0.000810782 -0.000778739 -0.000747054 -0.000715724 -0.000684752 -0.000654135 -0.000623875 -0.000593972 -0.000564425 -0.000536558 -0.000511696 -0.000489838 -0.000470983 -0.000455133 -0.000442288 -0.000432446 -0.000425609 -0.000420982 -0.000417774 -0.000415984 -0.000415612 -0.000416659 -0.000419123 -0.000423006 -0.000428307 -0.000433421 -0.000436744 -0.000438276 -0.000438017 -0.000435967 -0.000432126 -0.000426493 -0.00041907 -0.000409581 -0.000397752 -0.000383584 -0.000367076 -0.000348229 -0.000327042 -0.000303516 -0.00027765 -0.00025098 -0.000225041 -0.000199832 -0.000175355 -0.000151608 -0.000128592 -0.000106308 -8.47537e-05 -6.48896e-05 -4.7674e-05 -3.31069e-05 -2.11884e-05 -1.19185e-05 -5.29711e-06 -1.32428e-06 0 0 -3.09499e-06 -1.238e-05 -2.78549e-05 -4.95199e-05 -7.73748e-05 -0.00011142 -0.000151655 -0.000198079 -0.000248272 -0.000299809 -0.00035269 -0.000406917 -0.000462488 -0.000519404 -0.000577664 -0.00063727 -0.000694769 -0.000746711 -0.000793096 -0.000833924 -0.000869196 -0.00089891 -0.000923067 -0.000941668 -0.000955499 -0.000965349 -0.000971218 -0.000973105 -0.000971011 -0.000964936 -0.00095488 -0.000940842 -0.000926183 -0.00091426 -0.000905074 -0.000898624 -0.000894912 -0.000893936 -0.000895697 -0.000900195 -0.000908776 -0.000922785 -0.000942223 -0.000967089 -0.000997383 -0.00103311 -0.00107426 -0.00112084 -0.00117015 -0.00121951 -0.0012689 -0.00131833 -0.0013678 -0.00141731 -0.00146686 -0.00151645 -0.00156261 -0.00160188 -0.00163425 -0.00165973 -0.00167831 -0.00169 -0.0016948 -0.0016927 -0.00168392 -0.00166867 -0.00164696 -0.00161878 -0.00158413 -0.00154302 -0.00149544 -0.00144139 -0.00138443 -0.0013281 -0.0012724 -0.00121734 -0.00116291 -0.00110911 -0.00105595 -0.00100342 -0.000953882 -0.000909682 -0.000870822 -0.000837304 -0.000809126 -0.000786289 -0.000768793 -0.000756637 -0.000748413 -0.00074271 -0.000739527 -0.000738866 -0.000740727 -0.000745108 -0.00075201 -0.000761434 -0.000770526 -0.000776434 -0.000779158 -0.000778697 -0.000775052 -0.000768223 -0.00075821 -0.000745013 -0.000728143 -0.000707115 -0.000681927 -0.00065258 -0.000619074 -0.000581409 -0.000539584 -0.0004936 -0.000446187 -0.000400072 -0.000355257 -0.000311742 -0.000269526 -0.000228609 -0.000188991 -0.000150673 -0.000115359 -8.47537e-05 -5.88568e-05 -3.76683e-05 -2.11884e-05 -9.41708e-06 -2.35427e-06 0 0 -4.83592e-06 -1.93437e-05 -4.35233e-05 -7.73748e-05 -0.000120898 -0.000174093 -0.00023696 -0.000309499 -0.000387924 -0.000468451 -0.000551079 -0.000635807 -0.000722637 -0.000811568 -0.0009026 -0.000995734 -0.00108558 -0.00116674 -0.00123921 -0.00130301 -0.00135812 -0.00140455 -0.00144229 -0.00147136 -0.00149297 -0.00150836 -0.00151753 -0.00152048 -0.00151721 -0.00150771 -0.001492 -0.00147007 -0.00144716 -0.00142853 -0.00141418 -0.0014041 -0.0013983 -0.00139678 -0.00139953 -0.00140656 -0.00141996 -0.00144185 -0.00147222 -0.00151108 -0.00155841 -0.00161423 -0.00167853 -0.00175131 -0.00182836 -0.00190548 -0.00198265 -0.00205989 -0.00213719 -0.00221455 -0.00229197 -0.00236945 -0.00244158 -0.00250293 -0.00255351 -0.00259332 -0.00262236 -0.00264063 -0.00264812 -0.00264484 -0.00263112 -0.0026073 -0.00257337 -0.00252934 -0.0024752 -0.00241096 -0.00233662 -0.00225217 -0.00216317 -0.00207515 -0.00198812 -0.00190209 -0.00181704 -0.00173299 -0.00164992 -0.00156785 -0.00149044 -0.00142138 -0.00136066 -0.00130829 -0.00126426 -0.00122858 -0.00120124 -0.00118225 -0.0011694 -0.00116048 -0.00115551 -0.00115448 -0.00115739 -0.00116423 -0.00117502 -0.00118974 -0.00120395 -0.00121318 -0.00121743 -0.00121671 -0.00121102 -0.00120035 -0.0011847 -0.00116408 -0.00113772 -0.00110487 -0.00106551 -0.00101966 -0.000967303 -0.000908451 -0.0008431 -0.000771251 -0.000697167 -0.000625113 -0.00055509 -0.000487096 -0.000421134 -0.000357201 -0.000295299 -0.000235427 -0.000180249 -0.000132428 -9.19637e-05 -5.88568e-05 -3.31069e-05 -1.47142e-05 -3.67855e-06 0 0 -6.96373e-06 -2.78549e-05 -6.26736e-05 -0.00011142 -0.000174093 -0.000250694 -0.000341223 -0.000445679 -0.000558611 -0.000674569 -0.000793553 -0.000915563 -0.0010406 -0.00116866 -0.00129974 -0.00143386 -0.00156323 -0.0016801 -0.00178447 -0.00187633 -0.00195569 -0.00202255 -0.0020769 -0.00211875 -0.00214987 -0.00217204 -0.00218524 -0.00218949 -0.00218478 -0.00217111 -0.00214848 -0.0021169 -0.00208391 -0.00205708 -0.00203642 -0.0020219 -0.00201355 -0.00201136 -0.00201532 -0.00202544 -0.00204475 -0.00207627 -0.00212 -0.00217595 -0.00224411 -0.00232449 -0.00241708 -0.00252189 -0.00263284 -0.00274389 -0.00285502 -0.00296624 -0.00307755 -0.00318895 -0.00330043 -0.00341201 -0.00351587 -0.00360422 -0.00367706 -0.00373439 -0.0037762 -0.0038025 -0.00381329 -0.00380857 -0.00378881 -0.00375451 -0.00370565 -0.00364225 -0.00356429 -0.00347179 -0.00336473 -0.00324313 -0.00311496 -0.00298821 -0.0028629 -0.00273901 -0.00261654 -0.0024955 -0.00237589 -0.0022577 -0.00214623 -0.00204678 -0.00195935 -0.00188393 -0.00182053 -0.00176915 -0.00172978 -0.00170243 -0.00168393 -0.0016711 -0.00166394 -0.00166245 -0.00166663 -0.00167649 -0.00169202 -0.00171323 -0.00173368 -0.00174698 -0.0017531 -0.00175207 -0.00174387 -0.0017285 -0.00170597 -0.00167628 -0.00163832 -0.00159101 -0.00153434 -0.00146831 -0.00139292 -0.00130817 -0.00121406 -0.0011106 -0.00100392 -0.000900163 -0.000799329 -0.000701419 -0.000606432 -0.00051437 -0.00042523 -0.000339015 -0.000259558 -0.000190696 -0.000132428 -8.47537e-05 -4.7674e-05 -2.11884e-05 -5.29711e-06 0 0 -9.47841e-06 -3.79136e-05 -8.53057e-05 -0.000151655 -0.00023696 -0.000341223 -0.000464442 -0.000606618 -0.000760332 -0.000918164 -0.00108011 -0.00124618 -0.00141637 -0.00159067 -0.0017691 -0.00195164 -0.00212773 -0.0022868 -0.00242886 -0.00255389 -0.00266191 -0.00275291 -0.00282689 -0.00288386 -0.00292622 -0.00295638 -0.00297435 -0.00298013 -0.00297372 -0.00295512 -0.00292432 -0.00288133 -0.00283643 -0.00279992 -0.00277179 -0.00275204 -0.00274067 -0.00273768 -0.00274307 -0.00275685 -0.00278313 -0.00282603 -0.00288556 -0.00296171 -0.00305449 -0.00316389 -0.00328992 -0.00343257 -0.00358359 -0.00373474 -0.003886 -0.00403738 -0.00418889 -0.00434051 -0.00449226 -0.00464412 -0.00478549 -0.00490575 -0.00500489 -0.00508291 -0.00513983 -0.00517563 -0.00519031 -0.00518388 -0.005157 -0.0051103 -0.00504381 -0.00495751 -0.0048514 -0.00472549 -0.00457977 -0.00441426 -0.0042398 -0.00406729 -0.00389672 -0.00372809 -0.0035614 -0.00339666 -0.00323385 -0.00307298 -0.00292126 -0.0027859 -0.00266689 -0.00256424 -0.00247795 -0.00240801 -0.00235443 -0.0023172 -0.00229201 -0.00227455 -0.0022648 -0.00226278 -0.00226847 -0.00228189 -0.00230303 -0.00233189 -0.00235974 -0.00237783 -0.00238617 -0.00238476 -0.0023736 -0.00235268 -0.00232202 -0.0022816 -0.00222994 -0.00216554 -0.0020884 -0.00199853 -0.00189591 -0.00178056 -0.00165248 -0.00151165 -0.00136645 -0.00122522 -0.00108798 -0.000954709 -0.000825422 -0.000700114 -0.000578786 -0.000461437 -0.000353288 -0.000259558 -0.000180249 -0.000115359 -6.48896e-05 -2.88398e-05 -7.20995e-06 0 0 -1.238e-05 -4.95199e-05 -0.00011142 -0.000198079 -0.000309499 -0.000445679 -0.000606618 -0.000792318 -0.000993087 -0.00119923 -0.00141076 -0.00162767 -0.00184995 -0.00207761 -0.00231066 -0.00254908 -0.00277908 -0.00298684 -0.00317238 -0.0033357 -0.00347678 -0.00359564 -0.00369227 -0.00376667 -0.003822 -0.0038614 -0.00388487 -0.00389242 -0.00388405 -0.00385975 -0.00381952 -0.00376337 -0.00370473 -0.00365704 -0.00362029 -0.0035945 -0.00357965 -0.00357574 -0.00358279 -0.00360078 -0.0036351 -0.00369114 -0.00376889 -0.00386836 -0.00398953 -0.00413243 -0.00429703 -0.00448335 -0.00468061 -0.00487802 -0.00507559 -0.00527332 -0.0054712 -0.00566924 -0.00586744 -0.00606579 -0.00625044 -0.00640751 -0.006537 -0.00663891 -0.00671324 -0.00676 -0.00677918 -0.00677079 -0.00673567 -0.00667468 -0.00658783 -0.00647511 -0.00633652 -0.00617207 -0.00598175 -0.00576556 -0.0055377 -0.00531238 -0.0050896 -0.00486935 -0.00465163 -0.00443645 -0.0042238 -0.00401369 -0.00381553 -0.00363873 -0.00348329 -0.00334922 -0.0032365 -0.00314516 -0.00307517 -0.00302655 -0.00299365 -0.00297084 -0.00295811 -0.00295547 -0.00296291 -0.00298043 -0.00300804 -0.00304574 -0.0030821 -0.00310574 -0.00311663 -0.00311479 -0.00310021 -0.00307289 -0.00303284 -0.00298005 -0.00291257 -0.00282846 -0.00272771 -0.00261032 -0.0024763 -0.00232564 -0.00215834 -0.0019744 -0.00178475 -0.00160029 -0.00142103 -0.00124697 -0.0010781 -0.000914435 -0.000755965 -0.000602693 -0.000461437 -0.000339015 -0.000235427 -0.000150673 -8.47537e-05 -3.76683e-05 -9.41708e-06 0 0 -1.55635e-05 -6.22538e-05 -0.000140071 -0.000249015 -0.000389086 -0.000560284 -0.000762609 -0.000996061 -0.00124824 -0.00150673 -0.00177155 -0.00204268 -0.00232014 -0.00260392 -0.00289402 -0.00319044 -0.00347582 -0.00373281 -0.00396141 -0.00416161 -0.00433343 -0.00447685 -0.00459188 -0.00467852 -0.00474097 -0.00478344 -0.00480593 -0.00480843 -0.00479096 -0.0047535 -0.00469606 -0.00461863 -0.0045384 -0.00447252 -0.004421 -0.00438384 -0.00436104 -0.0043526 -0.00435851 -0.00437879 -0.00442022 -0.0044896 -0.00458694 -0.00471223 -0.00486548 -0.00504668 -0.00525584 -0.00549295 -0.0057442 -0.00599577 -0.00624767 -0.00649989 -0.00675244 -0.0070053 -0.0072585 -0.00751201 -0.00774814 -0.00794915 -0.00811506 -0.00824585 -0.00834154 -0.00840212 -0.00842759 -0.00841795 -0.00837427 -0.00829762 -0.00818801 -0.00804543 -0.00786989 -0.00766138 -0.0074199 -0.00714545 -0.00685616 -0.00657012 -0.00628736 -0.00600786 -0.00573162 -0.00545865 -0.00518894 -0.0049225 -0.0046714 -0.00444769 -0.00425139 -0.00408249 -0.003941 -0.0038269 -0.00374021 -0.00368092 -0.00364191 -0.00361606 -0.00360335 -0.0036038 -0.0036174 -0.00364415 -0.00368406 -0.00373712 -0.00378875 -0.00382436 -0.00384395 -0.00384752 -0.00383508 -0.00380662 -0.00376215 -0.00370165 -0.0036225 -0.00352204 -0.00340027 -0.0032572 -0.00309283 -0.00290714 -0.00270016 -0.00247187 -0.00223601 -0.00200634 -0.00178284 -0.00156552 -0.00135438 -0.00114943 -0.000950645 -0.000758045 -0.000580378 -0.0004264 -0.000296111 -0.000189511 -0.0001066 -4.73778e-05 -1.18444e-05 0 0 -1.89239e-05 -7.56957e-05 -0.000170315 -0.000302783 -0.000473098 -0.000681261 -0.000927272 -0.00121113 -0.00151714 -0.00182961 -0.00214853 -0.00247391 -0.00280574 -0.00314403 -0.00348877 -0.00383997 -0.00417651 -0.00447728 -0.00474228 -0.00497151 -0.00516497 -0.00532266 -0.00544458 -0.00553073 -0.0055869 -0.00561888 -0.00562666 -0.00561026 -0.00556966 -0.00550488 -0.0054159 -0.00530274 -0.00518703 -0.00509045 -0.00501298 -0.00495463 -0.0049154 -0.00489529 -0.00489429 -0.00491242 -0.00495801 -0.00503942 -0.00515664 -0.00530969 -0.00549856 -0.00572324 -0.00598374 -0.00628006 -0.00659467 -0.00691002 -0.00722611 -0.00754295 -0.00786054 -0.00817887 -0.00849795 -0.00881777 -0.00911601 -0.00937033 -0.00958074 -0.00974723 -0.0098698 -0.00994846 -0.00998321 -0.00997403 -0.00992224 -0.00982911 -0.00969465 -0.00951885 -0.00930173 -0.00904327 -0.00874348 -0.00840236 -0.00804266 -0.00768716 -0.00733584 -0.00698872 -0.00664578 -0.00630703 -0.00597247 -0.0056421 -0.00533124 -0.00505523 -0.00481405 -0.00460772 -0.00443622 -0.00429957 -0.00419775 -0.00413077 -0.00408988 -0.00406629 -0.00406003 -0.00407107 -0.00409943 -0.00414511 -0.0042081 -0.00428841 -0.00436762 -0.00442735 -0.00446759 -0.00448834 -0.0044896 -0.00447137 -0.00443365 -0.00437644 -0.00429599 -0.00418854 -0.00405411 -0.00389268 -0.00370427 -0.00348886 -0.00324646 -0.00297706 -0.00269744 -0.00242433 -0.00215776 -0.00189771 -0.00164418 -0.00139718 -0.0011567 -0.000922752 -0.000706482 -0.000519048 -0.00036045 -0.000230688 -0.000129762 -5.7672e-05 -1.4418e-05 0 0 -2.24614e-05 -8.98456e-05 -0.000202153 -0.000359382 -0.000561535 -0.00080861 -0.00110061 -0.00143753 -0.0017998 -0.00216786 -0.0025417 -0.00292133 -0.00330674 -0.00369794 -0.00409491 -0.00449768 -0.00488115 -0.00522026 -0.00551501 -0.00576539 -0.00597141 -0.00613307 -0.00625037 -0.0063233 -0.00635978 -0.0063677 -0.00634707 -0.0062979 -0.00622017 -0.00611389 -0.00597906 -0.00581568 -0.00565064 -0.00551082 -0.00539623 -0.00530687 -0.00524273 -0.00520382 -0.00519013 -0.00520167 -0.00524847 -0.00534058 -0.005478 -0.00566073 -0.00588876 -0.0061621 -0.00648074 -0.00684469 -0.00723201 -0.00762075 -0.00801091 -0.0084025 -0.00879551 -0.00918994 -0.00958579 -0.00998307 -0.0103541 -0.010671 -0.010934 -0.011143 -0.011298 -0.011399 -0.011446 -0.011439 -0.0113796 -0.0112691 -0.0111077 -0.0108954 -0.010632 -0.0103177 -0.00995249 -0.00953627 -0.00909722 -0.00866348 -0.00823505 -0.00781192 -0.0073941 -0.00698159 -0.00657438 -0.00617248 -0.00579507 -0.00546133 -0.00517127 -0.00492489 -0.00472218 -0.00456314 -0.00444778 -0.0043761 -0.00433754 -0.00432155 -0.00432813 -0.00435728 -0.004409 -0.0044833 -0.00458016 -0.00469959 -0.00481873 -0.00491472 -0.00498755 -0.00503723 -0.00506376 -0.00506713 -0.00504734 -0.0050044 -0.00493304 -0.00482798 -0.00468922 -0.00451677 -0.00431062 -0.00407077 -0.00379723 -0.00348999 -0.00316902 -0.00285428 -0.00254578 -0.00224352 -0.00194749 -0.0016577 -0.00137414 -0.00109682 -0.00083975 -0.000616959 -0.000428444 -0.000274204 -0.00015424 -6.8551e-05 -1.71378e-05 0 0 -2.61758e-05 -0.000104703 -0.000235583 -0.000418813 -0.000654396 -0.00094233 -0.00128262 -0.00167525 -0.00209622 -0.00252149 -0.00295107 -0.00338496 -0.00382315 -0.00426565 -0.00471245 -0.00516356 -0.00558974 -0.00596175 -0.00627958 -0.00654325 -0.00675275 -0.00690808 -0.00700924 -0.00705623 -0.00705961 -0.00702992 -0.00696717 -0.00687135 -0.00674247 -0.00658054 -0.00638553 -0.00615747 -0.00592921 -0.00573364 -0.00557075 -0.00544055 -0.00534302 -0.00527818 -0.00524602 -0.00524654 -0.00529161 -0.0053931 -0.00555101 -0.00576534 -0.00603609 -0.00636326 -0.00674684 -0.00718684 -0.00765623 -0.00812798 -0.00860208 -0.00907853 -0.00955734 -0.0100385 -0.010522 -0.0110079 -0.0114623 -0.0118513 -0.012175 -0.0124333 -0.0126262 -0.0127538 -0.0128161 -0.012813 -0.0127463 -0.0126177 -0.0124273 -0.012175 -0.0118608 -0.0114848 -0.0110469 -0.0105472 -0.0100198 -0.0094991 -0.00898498 -0.00847748 -0.00797659 -0.00748232 -0.00699467 -0.00651364 -0.00606287 -0.005666 -0.00532305 -0.005034 -0.00479886 -0.00461763 -0.00449031 -0.0044169 -0.0043849 -0.00438182 -0.00440766 -0.00446243 -0.00454611 -0.00465871 -0.00480024 -0.00497068 -0.00514208 -0.00528646 -0.00540384 -0.0054942 -0.00555756 -0.0055939 -0.00560323 -0.00558555 -0.00553366 -0.00544034 -0.00530561 -0.00512945 -0.00491188 -0.00465289 -0.00435247 -0.00401064 -0.00365075 -0.00329618 -0.00294691 -0.00260296 -0.00226431 -0.00193098 -0.00160295 -0.00128024 -0.000980181 -0.000720133 -0.000500092 -0.000320059 -0.000180033 -8.00148e-05 -2.00037e-05 0 0 -3.00673e-05 -0.000120269 -0.000270606 -0.000481077 -0.000751682 -0.00108242 -0.0014733 -0.00192431 -0.00240639 -0.0028905 -0.00337663 -0.00386479 -0.00435496 -0.00484716 -0.00534138 -0.00583762 -0.00630227 -0.00670174 -0.00703601 -0.0073051 -0.00750899 -0.00764769 -0.0077212 -0.00772953 -0.00768639 -0.00760552 -0.00748693 -0.00733062 -0.00713658 -0.00690481 -0.00663532 -0.0063281 -0.00602276 -0.00575891 -0.00553654 -0.00535567 -0.00521628 -0.00511838 -0.00506196 -0.00504704 -0.00508743 -0.00519698 -0.00537568 -0.00562354 -0.00594055 -0.00632671 -0.00678203 -0.00730651 -0.00786733 -0.00843169 -0.0089996 -0.00957105 -0.010146 -0.0107246 -0.0113067 -0.0118923 -0.0124407 -0.0129111 -0.0133035 -0.013618 -0.0138544 -0.0140129 -0.0140934 -0.0140959 -0.0140223 -0.0138748 -0.0136532 -0.0133577 -0.0129881 -0.0125444 -0.0120268 -0.0114351 -0.0108105 -0.010194 -0.00958564 -0.00898538 -0.00839325 -0.00780924 -0.00723335 -0.00666558 -0.00613464 -0.00566924 -0.00526938 -0.00493506 -0.00466628 -0.00446304 -0.00432534 -0.00425317 -0.00423196 -0.00424711 -0.00429863 -0.00438651 -0.00451075 -0.00467136 -0.00486833 -0.00510167 -0.00533766 -0.00554258 -0.00571645 -0.00585926 -0.005971 -0.00605169 -0.00610131 -0.00611988 -0.00609784 -0.00602563 -0.00590327 -0.00573074 -0.00550805 -0.0052352 -0.00491219 -0.00453903 -0.00414265 -0.00375003 -0.00336115 -0.00297602 -0.00259465 -0.00221702 -0.00184314 -0.00147301 -0.00112778 -0.00082857 -0.000575396 -0.000368253 -0.000207143 -9.20633e-05 -2.30158e-05 0 0 -3.41357e-05 -0.000136543 -0.000307221 -0.000546171 -0.000853393 -0.00122889 -0.00167265 -0.00218469 -0.00273032 -0.00327489 -0.00381839 -0.00436082 -0.00490218 -0.00544247 -0.0059817 -0.00651985 -0.00701876 -0.00744024 -0.0077843 -0.00805092 -0.00824013 -0.0083519 -0.00838625 -0.00834318 -0.00824012 -0.00809452 -0.00790638 -0.0076757 -0.00740248 -0.00708671 -0.00672841 -0.00632757 -0.00593127 -0.00558662 -0.00529361 -0.00505223 -0.0048625 -0.00472441 -0.00463796 -0.00460315 -0.00463592 -0.0047522 -0.004952 -0.00523531 -0.00560213 -0.00605247 -0.00658632 -0.00720369 -0.0078653 -0.0085319 -0.00920349 -0.00988006 -0.0105616 -0.0112482 -0.0119397 -0.0126362 -0.0132893 -0.0138504 -0.0143197 -0.0146971 -0.0149826 -0.0151761 -0.0152778 -0.0152876 -0.0152078 -0.0150405 -0.0147857 -0.0144435 -0.0140138 -0.0134967 -0.0128921 -0.0122001 -0.0114692 -0.0107482 -0.010037 -0.00933564 -0.00864408 -0.00796233 -0.00729041 -0.00662831 -0.0060104 -0.00547105 -0.00501028 -0.00462807 -0.00432443 -0.00409936 -0.00395286 -0.00388492 -0.00387872 -0.00391742 -0.00400103 -0.00412953 -0.00430294 -0.00452124 -0.00478445 -0.00509256 -0.00540547 -0.00568307 -0.00592538 -0.00613238 -0.00630409 -0.00644049 -0.00654159 -0.00660739 -0.00662558 -0.00658385 -0.0064822 -0.00632063 -0.00609913 -0.00581772 -0.00547639 -0.00507514 -0.0046447 -0.00421582 -0.00378849 -0.00336272 -0.0029385 -0.00251583 -0.00209471 -0.00167515 -0.00128253 -0.00094227 -0.000654354 -0.000418787 -0.000235567 -0.000104697 -2.61742e-05 0 0 -3.83811e-05 -0.000153525 -0.00034543 -0.000614098 -0.000959528 -0.00138172 -0.00188068 -0.00245639 -0.00306801 -0.00367466 -0.00427634 -0.00487306 -0.00546481 -0.00605159 -0.00663341 -0.00721026 -0.00773919 -0.00817725 -0.00852443 -0.00878073 -0.00894616 -0.00902072 -0.00900439 -0.0088972 -0.00872081 -0.00849691 -0.00822551 -0.00790659 -0.00754018 -0.00712625 -0.00666482 -0.00615588 -0.00565475 -0.00521677 -0.00484194 -0.00453024 -0.00428169 -0.00409628 -0.00397402 -0.00391489 -0.00393709 -0.00405878 -0.00427997 -0.00460066 -0.00502085 -0.00554053 -0.00615971 -0.00687839 -0.00765015 -0.0084286 -0.00921374 -0.0100056 -0.0108041 -0.0116092 -0.0124211 -0.0132397 -0.014008 -0.0146693 -0.0152235 -0.0156706 -0.0160107 -0.0162436 -0.0163695 -0.0163884 -0.0163026 -0.0161146 -0.0158246 -0.0154323 -0.014938 -0.0143415 -0.0136428 -0.012842 -0.011996 -0.0111617 -0.0103391 -0.00952824 -0.00872907 -0.00794161 -0.00716585 -0.00640181 -0.00569012 -0.00507143 -0.00454573 -0.00411303 -0.00377331 -0.0035266 -0.00337288 -0.00331215 -0.00332518 -0.00339275 -0.00351485 -0.00369149 -0.00392265 -0.00420835 -0.00454858 -0.00494335 -0.00534551 -0.00570794 -0.00603063 -0.00631359 -0.00655682 -0.00676031 -0.00692406 -0.00704808 -0.00711689 -0.00711499 -0.0070424 -0.00689911 -0.00668513 -0.00640044 -0.00604506 -0.00561898 -0.00515692 -0.00469357 -0.00422894 -0.00376304 -0.00329586 -0.0028274 -0.00235766 -0.00188664 -0.00144446 -0.00106123 -0.000736967 -0.000471659 -0.000265308 -0.000117915 -2.94787e-05 0 0 -4.28035e-05 -0.000171214 -0.000385232 -0.000684857 -0.00107009 -0.00154093 -0.00209737 -0.00273943 -0.00341945 -0.0040898 -0.00475048 -0.0054015 -0.00604284 -0.00667451 -0.00729651 -0.00790885 -0.00846357 -0.00891276 -0.00925641 -0.00949452 -0.0096271 -0.00965413 -0.00957562 -0.00939157 -0.00912844 -0.00881269 -0.00844431 -0.0080233 -0.00754967 -0.00702342 -0.00644454 -0.00581303 -0.00519321 -0.00464938 -0.00418154 -0.0037897 -0.00347385 -0.00323399 -0.00307013 -0.00298225 -0.00299093 -0.00311672 -0.0033596 -0.00371959 -0.00419669 -0.00479089 -0.00550219 -0.0063306 -0.00722188 -0.0081218 -0.00903035 -0.00994754 -0.0108734 -0.0118078 -0.0127509 -0.0137027 -0.0145969 -0.0153677 -0.0160149 -0.0165386 -0.0169387 -0.0172154 -0.0173685 -0.017398 -0.0173067 -0.0170974 -0.0167699 -0.0163243 -0.0157606 -0.0150789 -0.014279 -0.013361 -0.0123908 -0.0114345 -0.0104919 -0.00956319 -0.00864823 -0.00774706 -0.00685968 -0.0059861 -0.00517383 -0.00447038 -0.00387574 -0.00338993 -0.00301293 -0.00274475 -0.00258539 -0.00253485 -0.00257134 -0.0026731 -0.00284011 -0.00307238 -0.00336991 -0.0037327 -0.00416074 -0.00465404 -0.00515779 -0.00561718 -0.00603221 -0.00640288 -0.00672919 -0.00701114 -0.00724873 -0.00744196 -0.00757176 -0.00761907 -0.00758388 -0.0074662 -0.00726603 -0.00698337 -0.00661821 -0.00617056 -0.00567929 -0.00518327 -0.0046825 -0.00417699 -0.00366673 -0.00315173 -0.00263198 -0.00210748 -0.00161354 -0.00118546 -0.000823235 -0.00052687 -0.000296365 -0.000131718 -3.29294e-05 0 0 -4.71516e-05 -0.000188607 -0.000424365 -0.000754426 -0.00117879 -0.00169746 -0.00231043 -0.0030177 -0.00376435 -0.00449543 -0.00521095 -0.00591091 -0.00659531 -0.00726414 -0.00791741 -0.00855512 -0.00912428 -0.00957192 -0.00989804 -0.0101026 -0.0101857 -0.0101473 -0.00998728 -0.00970577 -0.00933467 -0.00890587 -0.00841938 -0.00787521 -0.00727334 -0.00661379 -0.00589655 -0.00512162 -0.00436314 -0.00369527 -0.00311799 -0.00263132 -0.00223525 -0.00192977 -0.0017149 -0.00159063 -0.00158002 -0.00170611 -0.00196891 -0.00236842 -0.00290463 -0.00357755 -0.00438718 -0.00533351 -0.0063537 -0.0073849 -0.0084271 -0.0094803 -0.0105445 -0.0116197 -0.0127059 -0.0138032 -0.0148352 -0.015726 -0.0164755 -0.0170837 -0.0175505 -0.0178761 -0.0180604 -0.0181034 -0.0180081 -0.0177773 -0.0174112 -0.0169097 -0.0162728 -0.0155005 -0.0145929 -0.0135498 -0.0124472 -0.0113607 -0.0102904 -0.00923619 -0.00819818 -0.00717634 -0.00617067 -0.00518115 -0.00426287 -0.0034709 -0.00280523 -0.00226587 -0.00185282 -0.00156607 -0.00140563 -0.00137149 -0.00143919 -0.00158426 -0.0018067 -0.0021065 -0.00248368 -0.00293822 -0.00347014 -0.00407942 -0.00470286 -0.00527723 -0.00580255 -0.00627881 -0.00670601 -0.00708415 -0.00741323 -0.00769325 -0.00790102 -0.00801335 -0.00803024 -0.0079517 -0.00777772 -0.00750829 -0.00714344 -0.00668314 -0.00617054 -0.00564876 -0.00511782 -0.0045777 -0.00402842 -0.00346996 -0.00290233 -0.00232554 -0.00178049 -0.00130811 -0.000908412 -0.000581384 -0.000327028 -0.000145346 -3.63365e-05 0 0 -5.11741e-05 -0.000204696 -0.000460567 -0.000818786 -0.00127935 -0.00184227 -0.00250753 -0.00327514 -0.00408241 -0.00486666 -0.00562788 -0.00636608 -0.00708124 -0.00777338 -0.0084425 -0.00908859 -0.0096537 -0.0100799 -0.0103671 -0.0105154 -0.0105248 -0.0103952 -0.0101267 -0.00971927 -0.00921111 -0.00864047 -0.00800733 -0.0073117 -0.00655357 -0.00573295 -0.00484984 -0.00390423 -0.00298107 -0.00216528 -0.00145687 -0.00085583 -0.000362167 2.41212e-05 0.000303034 0.000474572 0.000513084 0.000392918 0.000114076 -0.000323444 -0.000919641 -0.00167451 -0.00258807 -0.00366029 -0.00481883 -0.00599132 -0.00717775 -0.00837813 -0.00959246 -0.0108207 -0.012063 -0.0133191 -0.0145021 -0.0155246 -0.0163867 -0.0170885 -0.0176298 -0.0180107 -0.0182313 -0.0182914 -0.0181943 -0.0179431 -0.017538 -0.0169787 -0.0162655 -0.0153981 -0.0143768 -0.0132014 -0.0119584 -0.0107344 -0.00952919 -0.00834293 -0.00717558 -0.00602713 -0.00489758 -0.00378694 -0.00275862 -0.00187601 -0.00113913 -0.000547964 -0.000102524 0.000197194 0.000351191 0.000359465 0.0002493 4.79772e-05 -0.000244504 -0.000628143 -0.00110294 -0.00166889 -0.00232601 -0.00307428 -0.00384127 -0.00455455 -0.00521411 -0.00581996 -0.00637209 -0.0068705 -0.0073152 -0.00770619 -0.00801549 -0.00821512 -0.00830509 -0.0082854 -0.00815604 -0.00791703 -0.00756835 -0.00711 -0.00658939 -0.00605391 -0.00550355 -0.00493832 -0.00435821 -0.00376323 -0.00315338 -0.00252865 -0.001936 -0.00142237 -0.000987755 -0.000632163 -0.000355592 -0.000158041 -3.95102e-05 0 0 -5.48709e-05 -0.000219484 -0.000493838 -0.000877935 -0.00137177 -0.00197535 -0.00268868 -0.00351174 -0.00437364 -0.00520349 -0.00600127 -0.00676699 -0.00750065 -0.00820225 -0.00887178 -0.00950926 -0.0100518 -0.0104366 -0.0106636 -0.0107328 -0.0106443 -0.010398 -0.00999391 -0.00943205 -0.00875778 -0.00801648 -0.00720814 -0.00633276 -0.00539035 -0.0043809 -0.00330441 -0.00216088 -0.001047 -5.9426e-05 0.000801829 0.00153677 0.00214539 0.0026277 0.00298369 0.00321337 0.00328838 0.00318037 0.00288936 0.00241532 0.00175828 0.000918217 -0.000104857 -0.00131095 -0.00261727 -0.00394107 -0.00528232 -0.00664104 -0.00801723 -0.00941088 -0.010822 -0.0122506 -0.0135975 -0.0147635 -0.0157487 -0.016553 -0.0171765 -0.0176192 -0.017881 -0.0179619 -0.0178654 -0.0175949 -0.0171502 -0.0165315 -0.0157386 -0.0147717 -0.0136307 -0.0123157 -0.0109246 -0.00955551 -0.00820846 -0.00688342 -0.0055804 -0.00429941 -0.00304043 -0.00180347 -0.000661055 0.000314295 0.00112258 0.0017638 0.00223795 0.00254504 0.00268506 0.00265801 0.00249412 0.00222361 0.00184647 0.0013627 0.000772309 7.52932e-05 -0.000728348 -0.00163861 -0.00257303 -0.00344912 -0.00426688 -0.00502632 -0.00572742 -0.0063702 -0.00695466 -0.00748079 -0.00791517 -0.00822438 -0.00840843 -0.00846731 -0.00840102 -0.00820956 -0.00789294 -0.00745115 -0.00693585 -0.0063987 -0.00583969 -0.00525883 -0.00465611 -0.00403154 -0.00338511 -0.00271683 -0.00208007 -0.00152822 -0.00106126 -0.000679208 -0.000382054 -0.000169802 -4.24505e-05 0 0 -5.82421e-05 -0.000232969 -0.000524179 -0.000931874 -0.00145605 -0.00209672 -0.00285387 -0.0037275 -0.00463804 -0.00550591 -0.00633112 -0.00711365 -0.00785352 -0.00855073 -0.00920526 -0.00981713 -0.0103186 -0.0106421 -0.0107875 -0.0107549 -0.0105443 -0.0101556 -0.00958888 -0.00884412 -0.00797467 -0.0070