<?xml version="1.0"?> 
<VTKFile type="StructuredGrid" version="0.1"> 
<StructuredGrid WholeExtent="0 128 0 128 0 0"> 
<Piece Extent="0 128 0 128 0 0"> 
<PointData>
<DataArray type="Float32" Name="u" format="ascii" NumberOfComponents="1"> 
0 0 0 0 0 0 0 0 0 0 0 0 0 0 0 0 0 0 0 0 0 0 0 0 0 0 0 0 0 0 0 0 0 0 0 0 0 0 0 0 0 0 0 0 0 0 0 0 0 0 0 0 0 0 0 0 0 0 0 0 0 0 0 0 0 0 0 0 0 0 0 0 0 0 0 0 0 0 0 0 0 0 0 0 0 0 0 0 0 0 0 0 0 0 0 0 0 0 0 0 0 0 0 0 0 0 0 0 0 0 0 0 0 0 0 0 0 0 0 0 0 0 0 0 0 0 0 0 0 0 1.86637e-06 7.46547e-06 1.67973e-05 2.98619e-05 4.66592e-05 6.71892e-05 9.1452e-05 0.000119448 0.000151298 0.000187126 0.000226932 0.000270714 0.000318475 0.000370212 0.000425927 0.00048562 0.000547257 0.000608806 0.000670267 0.000731639 0.000792924 0.00085412 0.000915228 0.000976248 0.00103562 0.00109178 0.00114474 0.00119449 0.00124103 0.00128437 0.00132449 0.00136141 0.00139472 0.001424 0.00144927 0.00147053 0.00148776 0.00150098 0.00151017 0.00151535 0.00151693 0.00151532 0.00151053 0.00150255 0.00149139 0.00147704 0.0014595 0.00143878 0.00141562 0.00139079 0.00136428 0.00133609 0.00130621 0.00127466 0.00124143 0.00120652 0.00117064 0.00113448 0.00109806 0.00106136 0.00102439 0.000987158 0.000949652 0.000911876 0.000874287 0.000837346 0.00080105 0.000765401 0.000730398 0.000696042 0.000662332 0.000629269 0.000597034 0.000565808 0.000535592 0.000506386 0.00047819 0.000451004 0.000424827 0.00039966 0.000375484 0.000352281 0.00033005 0.000308791 0.000288505 0.000269191 0.000250849 0.00023348 0.000216976 0.000201231 0.000186245 0.000172017 0.000158549 0.000145839 0.000133888 0.000122696 0.000112159 0.000102173 9.27397e-05 8.38576e-05 7.55272e-05 6.77483e-05 6.05212e-05 5.38457e-05 4.76595e-05 4.19003e-05 3.65681e-05 3.1663e-05 2.71849e-05 2.31338e-05 1.95097e-05 1.63127e-05 1.34814e-05 1.09546e-05 8.73242e-06 6.81473e-06 5.20156e-06 3.89293e-06 2.88883e-06 2.18925e-06 1.67614e-06 1.23145e-06 8.55175e-07 5.47312e-07 3.07863e-07 1.36828e-07 3.4207e-08 0 0 7.46547e-06 2.98619e-05 6.71892e-05 0.000119448 0.000186637 0.000268757 0.000365808 0.00047779 0.000605193 0.000748505 0.000907726 0.00108286 0.0012739 0.00148085 0.00170371 0.00194248 0.00218903 0.00243522 0.00268107 0.00292656 0.00317169 0.00341648 0.00366091 0.00390499 0.00414248 0.00436714 0.00457896 0.00477796 0.00496413 0.00513746 0.00529797 0.00544564 0.00557887 0.00569602 0.0057971 0.0058821 0.00595104 0.0060039 0.00604069 0.00606141 0.00606772 0.00606129 0.00604211 0.0060102 0.00596554 0.00590814 0.005838 0.00575511 0.0056625 0.00556317 0.00545711 0.00534435 0.00522486 0.00509865 0.00496573 0.00482609 0.00468255 0.00453793 0.00439222 0.00424544 0.00409758 0.00394863 0.00379861 0.0036475 0.00349715 0.00334938 0.0032042 0.0030616 0.00292159 0.00278417 0.00264933 0.00251708 0.00238813 0.00226323 0.00214237 0.00202554 0.00191276 0.00180401 0.00169931 0.00159864 0.00150194 0.00140912 0.0013202 0.00123516 0.00115402 0.00107676 0.0010034 0.000933919 0.000867904 0.000804924 0.000744979 0.000688069 0.000634195 0.000583356 0.000535552 0.000490783 0.000448635 0.000408694 0.000370959 0.00033543 0.000302109 0.000270993 0.000242085 0.000215383 0.000190638 0.000167601 0.000146272 0.000126652 0.000108739 9.25351e-05 7.80388e-05 6.52506e-05 5.39255e-05 4.38185e-05 3.49297e-05 2.72589e-05 2.08063e-05 1.55717e-05 1.15553e-05 8.757e-06 6.70458e-06 4.92581e-06 3.4207e-06 2.18925e-06 1.23145e-06 5.47312e-07 1.36828e-07 0 0 1.67973e-05 6.71892e-05 0.000151176 0.000268757 0.000419933 0.000604703 0.000823068 0.00107503 0.00136168 0.00168414 0.00204238 0.00243643 0.00286627 0.00333191 0.00383335 0.00437058 0.00492531 0.00547925 0.0060324 0.00658475 0.00713631 0.00768708 0.00823705 0.00878623 0.00932058 0.00982605 0.0103027 0.0107504 0.0111693 0.0115593 0.0119204 0.0122527 0.0125524 0.012816 0.0130435 0.0132347 0.0133898 0.0135088 0.0135916 0.0136382 0.0136524 0.0136379 0.0135948 0.0135229 0.0134225 0.0132933 0.0131355 0.012949 0.0127406 0.0125171 0.0122785 0.0120248 0.0117559 0.011472 0.0111729 0.0108587 0.0105357 0.0102103 0.0098825 0.00955224 0.00921955 0.00888442 0.00854687 0.00820688 0.00786859 0.00753611 0.00720945 0.00688861 0.00657359 0.00626438 0.00596099 0.00566342 0.0053733 0.00509227 0.00482033 0.00455748 0.00430371 0.00405903 0.00382344 0.00359694 0.00337936 0.00317053 0.00297045 0.00277912 0.00259654 0.00242272 0.00225764 0.00210132 0.00195278 0.00181108 0.0016762 0.00154816 0.00142694 0.00131255 0.00120499 0.00110426 0.00100943 0.000919561 0.000834657 0.000754718 0.000679744 0.000609735 0.000544691 0.000484611 0.000428935 0.000377103 0.000329113 0.000284967 0.000244664 0.000208204 0.000175587 0.000146814 0.000121332 9.85917e-05 7.85918e-05 6.13325e-05 4.68141e-05 3.50364e-05 2.59994e-05 1.97032e-05 1.50853e-05 1.10831e-05 7.69658e-06 4.92581e-06 2.77077e-06 1.23145e-06 3.07863e-07 0 0 2.98619e-05 0.000119448 0.000268757 0.00047779 0.000746547 0.00107503 0.00146323 0.00191116 0.00242077 0.00299402 0.0036309 0.00433143 0.00509559 0.0059234 0.00681484 0.00776992 0.00875611 0.0097409 0.0107243 0.0117062 0.0126868 0.0136659 0.0146436 0.01562 0.0165699 0.0174685 0.0183158 0.0191118 0.0198565 0.0205498 0.0211919 0.0217826 0.0223155 0.0227841 0.0231884 0.0235284 0.0238042 0.0240156 0.0241628 0.0242456 0.0242709 0.0242452 0.0241685 0.0240408 0.0238622 0.0236326 0.023352 0.0230205 0.02265 0.0222527 0.0218285 0.0213774 0.0208994 0.0203946 0.0198629 0.0193044 0.0187302 0.0181517 0.0175689 0.0169818 0.0163903 0.0157945 0.0151944 0.01459 0.0139886 0.0133975 0.0128168 0.0122464 0.0116864 0.0111367 0.0105973 0.0100683 0.00955254 0.00905293 0.00856948 0.00810218 0.00765104 0.00721606 0.00679723 0.00639456 0.00600775 0.0056365 0.0052808 0.00494066 0.00461608 0.00430705 0.00401358 0.00373568 0.00347161 0.0032197 0.00297992 0.00275228 0.00253678 0.00233342 0.00214221 0.00196313 0.00179454 0.00163477 0.00148383 0.00134172 0.00120843 0.00108397 0.000968339 0.00086153 0.000762551 0.000670404 0.00058509 0.000506608 0.000434958 0.000370141 0.000312155 0.000261003 0.000215702 0.000175274 0.000139719 0.000109036 8.3225e-05 6.22869e-05 4.62212e-05 3.5028e-05 2.68183e-05 1.97032e-05 1.36828e-05 8.757e-06 4.92581e-06 2.18925e-06 5.47312e-07 0 0 4.66592e-05 0.000186637 0.000419933 0.000746547 0.00116648 0.00167973 0.0022863 0.00298619 0.00378245 0.00467815 0.00567329 0.00676786 0.00796187 0.00925531 0.0106482 0.0121405 0.0136814 0.0152201 0.0167567 0.018291 0.0198231 0.021353 0.0228807 0.0244062 0.0258905 0.0272946 0.0286185 0.0298622 0.0310258 0.0321091 0.0331123 0.0340353 0.0348679 0.0356001 0.0362319 0.0367631 0.037194 0.0375244 0.0377543 0.0378838 0.0379233 0.0378831 0.0377632 0.0375637 0.0372846 0.0369259 0.0364875 0.0359695 0.0353906 0.0347698 0.034107 0.0334022 0.0326554 0.0318666 0.0310358 0.030163 0.0292659 0.028362 0.0274514 0.026534 0.0256099 0.024679 0.0237413 0.0227969 0.0218572 0.0209336 0.0200263 0.019135 0.01826 0.0174011 0.0165583 0.0157317 0.0149258 0.0141452 0.0133898 0.0126597 0.0119548 0.0112751 0.0106207 0.0099915 0.00938711 0.00880702 0.00825125 0.00771978 0.00721262 0.00672977 0.00627123 0.00583699 0.0054244 0.00503077 0.00465612 0.00430043 0.00396372 0.00364597 0.0033472 0.00306739 0.00280397 0.00255433 0.00231849 0.00209644 0.00188818 0.00169371 0.00151303 0.00134614 0.00119149 0.00104751 0.000914203 0.000791575 0.000679622 0.000578345 0.000487743 0.000407816 0.000337035 0.000273866 0.00021831 0.000170368 0.000130039 9.73233e-05 7.22206e-05 5.47312e-05 4.19036e-05 3.07863e-05 2.13794e-05 1.36828e-05 7.69658e-06 3.4207e-06 8.55175e-07 0 0 6.71892e-05 0.000268757 0.000604703 0.00107503 0.00167973 0.00241881 0.00329227 0.00430011 0.00544673 0.00673654 0.00816954 0.00974572 0.0114651 0.0133276 0.0153334 0.0174823 0.0197013 0.021917 0.0241296 0.026339 0.0285452 0.0307483 0.0329482 0.0351449 0.0372823 0.0393042 0.0412107 0.0430016 0.0446771 0.0462371 0.0476817 0.0490108 0.0502098 0.0512642 0.0521739 0.0529389 0.0535593 0.0540351 0.0543662 0.0545527 0.0546095 0.0545516 0.054379 0.0540918 0.0536899 0.0531733 0.052542 0.051796 0.0509625 0.0500685 0.049114 0.0480991 0.0470237 0.0458879 0.0446916 0.0434348 0.0421429 0.0408413 0.03953 0.038209 0.0368782 0.0355377 0.0341875 0.0328275 0.0314743 0.0301444 0.0288378 0.0275544 0.0262943 0.0250575 0.023844 0.0226537 0.0214932 0.0203691 0.0192813 0.0182299 0.0172148 0.0162361 0.0152938 0.0143878 0.0135174 0.0126821 0.0118818 0.0111165 0.0103862 0.00969087 0.00903057 0.00840527 0.00781113 0.00724431 0.00670481 0.00619263 0.00570776 0.0052502 0.00481997 0.00441705 0.00403772 0.00367824 0.00333863 0.00301887 0.00271898 0.00243894 0.00217876 0.00193844 0.00171574 0.00150841 0.00131645 0.00113987 0.000978655 0.000832816 0.00070235 0.000587256 0.00048533 0.000394367 0.000314367 0.00024533 0.000187256 0.000140146 0.000103998 7.8813e-05 6.03412e-05 4.43323e-05 3.07863e-05 1.97032e-05 1.10831e-05 4.92581e-06 1.23145e-06 0 0 9.1452e-05 0.000365808 0.000823068 0.00146323 0.0022863 0.00329227 0.00448115 0.00585293 0.00741361 0.00916918 0.0111196 0.013265 0.0156053 0.0181404 0.0208704 0.0237954 0.0268156 0.0298315 0.0328431 0.0358503 0.0388533 0.0418519 0.0448462 0.0478361 0.0507454 0.0534974 0.0560923 0.05853 0.0608105 0.0629339 0.0649001 0.0667091 0.0683411 0.0697762 0.0710144 0.0720558 0.0729002 0.0735478 0.0739985 0.0742523 0.0743296 0.0742508 0.0740159 0.0736249 0.0730779 0.0723747 0.0715155 0.0705001 0.0693656 0.0681488 0.0668496 0.0654682 0.0640045 0.0624585 0.0608302 0.0591196 0.0573612 0.0555896 0.0538047 0.0520066 0.0501953 0.0483708 0.046533 0.0446819 0.0428401 0.0410299 0.0392515 0.0375047 0.0357895 0.0341061 0.0324543 0.0308342 0.0292546 0.0277246 0.026244 0.0248129 0.0234313 0.0220992 0.0208165 0.0195833 0.0183987 0.0172618 0.0161724 0.0151308 0.0141367 0.0131903 0.0122916 0.0114405 0.0106318 0.00986032 0.00912599 0.00842885 0.00776889 0.00714611 0.00656051 0.00601209 0.00549578 0.0050065 0.00454424 0.00410902 0.00370083 0.00331967 0.00296554 0.00263844 0.00233531 0.00205311 0.00179184 0.00155149 0.00133206 0.00113356 0.000955976 0.00079932 0.000660588 0.000536777 0.000427888 0.000333922 0.000254877 0.000190754 0.000141552 0.000107273 8.2131e-05 6.03412e-05 4.19036e-05 2.68183e-05 1.50853e-05 6.70458e-06 1.67614e-06 0 0 0.000119448 0.00047779 0.00107503 0.00191116 0.00298619 0.00430011 0.00585293 0.00764464 0.00968308 0.0119761 0.0145236 0.0173257 0.0203824 0.0236936 0.0272594 0.0310797 0.0350244 0.0389636 0.0428971 0.0468249 0.0507471 0.0546637 0.0585746 0.0624798 0.0662796 0.0698742 0.0732634 0.0764473 0.079426 0.0821994 0.0847675 0.0871303 0.0892618 0.0911363 0.0927535 0.0941137 0.0952166 0.0960624 0.0966511 0.0969825 0.0970835 0.0969806 0.0966738 0.0961632 0.0954487 0.0945303 0.093408 0.0920818 0.0906 0.0890106 0.0873138 0.0855095 0.0835977 0.0815784 0.0794517 0.0772174 0.0749208 0.0726068 0.0702756 0.0679271 0.0655612 0.0631781 0.0607777 0.05836 0.0559544 0.0535901 0.0512672 0.0489857 0.0467455 0.0445467 0.0423893 0.0402732 0.0382101 0.0362117 0.0342779 0.0324087 0.0306042 0.0288642 0.0271889 0.0255783 0.024031 0.022546 0.0211232 0.0197626 0.0184643 0.0172282 0.0160543 0.0149427 0.0138865 0.0128788 0.0119197 0.0110091 0.0101471 0.00933369 0.00856883 0.00785253 0.00717816 0.0065391 0.00593534 0.00536689 0.00483374 0.00433589 0.00387336 0.00344612 0.00305021 0.00268162 0.00234036 0.00202643 0.00173983 0.00148056 0.00124862 0.00104401 0.000862809 0.000701097 0.000558875 0.000436142 0.0003329 0.000249148 0.000184885 0.000140112 0.000107273 7.8813e-05 5.47312e-05 3.5028e-05 1.97032e-05 8.757e-06 2.18925e-06 0 0 0.000151738 0.000606952 0.00136564 0.00242781 0.00379345 0.00546257 0.00743517 0.00971124 0.0122995 0.0152085 0.0184383 0.0219889 0.0258604 0.0300526 0.0345656 0.0393995 0.0443899 0.0493725 0.0543473 0.0593144 0.0642738 0.0692253 0.0741692 0.0791052 0.0839078 0.088451 0.0927349 0.0967595 0.100525 0.104031 0.107277 0.110265 0.11296 0.115331 0.117377 0.119098 0.120494 0.121566 0.122313 0.122735 0.122866 0.122739 0.122355 0.121714 0.120814 0.119657 0.118243 0.116571 0.114702 0.112697 0.110556 0.108279 0.105865 0.103316 0.100631 0.0978093 0.0949087 0.0919858 0.0890407 0.0860733 0.0830837 0.0800718 0.0770377 0.0739813 0.0709397 0.0679501 0.0650124 0.0621266 0.0592927 0.0565108 0.0537808 0.0511027 0.0484913 0.0459613 0.0435129 0.041146 0.0388606 0.0366566 0.0345342 0.0324932 0.0305323 0.02865 0.0268464 0.0251215 0.0234752 0.0219075 0.0204185 0.0190081 0.0176678 0.016389 0.0151717 0.0140158 0.0129215 0.0118886 0.0109172 0.0100073 0.00915056 0.00833854 0.00757127 0.00684876 0.006171 0.00553799 0.00494973 0.00440622 0.00390241 0.00343322 0.00299866 0.00259874 0.00223344 0.00190278 0.00160674 0.00134533 0.00111361 0.000906642 0.000724417 0.000566937 0.000434204 0.000326217 0.000242977 0.000184483 0.000141245 0.000103772 7.20637e-05 4.61207e-05 2.59429e-05 1.15302e-05 2.88255e-06 0 0 0.000188886 0.000755544 0.00169997 0.00302218 0.00472215 0.0067999 0.00925542 0.0120887 0.015307 0.0189176 0.0229205 0.0273157 0.0321031 0.0372828 0.0428548 0.0488191 0.0549739 0.0611174 0.0672496 0.0733705 0.0794802 0.0855785 0.0916656 0.0977414 0.103652 0.109244 0.114518 0.119472 0.124108 0.128425 0.132423 0.136103 0.139424 0.142346 0.144869 0.146993 0.148718 0.150045 0.150972 0.151501 0.151672 0.151526 0.151063 0.150283 0.149187 0.147774 0.146044 0.143997 0.141708 0.13925 0.136625 0.133831 0.13087 0.12774 0.124442 0.120976 0.117412 0.11382 0.110198 0.106549 0.102871 0.0991639 0.0954287 0.091665 0.0879186 0.084235 0.0806143 0.0770565 0.0735617 0.0701297 0.0667606 0.0634544 0.0602295 0.0571044 0.0540791 0.0511535 0.0483277 0.0456017 0.0429754 0.0404489 0.0380207 0.0356892 0.0334546 0.0313167 0.0292756 0.0273313 0.0254838 0.023733 0.0220687 0.0204803 0.0189679 0.0175314 0.016171 0.0148865 0.013678 0.0125455 0.0114787 0.0104673 0.00951141 0.00861094 0.0077659 0.00697631 0.00624216 0.00556346 0.0049339 0.00434722 0.0038034 0.00330245 0.00284436 0.00242914 0.00205679 0.0017273 0.00143463 0.00117273 0.000941605 0.00074125 0.000571665 0.000432852 0.000324811 0.00024754 0.000189523 0.000139241 9.66953e-05 6.1885e-05 3.48103e-05 1.54713e-05 3.86781e-06 0 0 0.000230891 0.000923566 0.00207802 0.00369426 0.00577229 0.00831209 0.0113137 0.0147771 0.0187058 0.0231035 0.0279702 0.0333059 0.0391106 0.0453842 0.0521269 0.0593385 0.0667765 0.0741982 0.0816038 0.0889931 0.0963663 0.103723 0.111064 0.118388 0.125513 0.132254 0.138612 0.144585 0.150176 0.155382 0.160205 0.164645 0.168653 0.172181 0.17523 0.177799 0.179889 0.181499 0.182629 0.18328 0.1835 0.183339 0.182797 0.181872 0.180567 0.178879 0.176811 0.17436 0.171617 0.168671 0.165521 0.162168 0.158611 0.15485 0.150886 0.146719 0.142431 0.138108 0.133749 0.129353 0.124922 0.120454 0.115951 0.111411 0.106891 0.102445 0.098073 0.0937755 0.0895523 0.0854034 0.0813287 0.0773284 0.0734249 0.0696409 0.0659763 0.0624312 0.0590056 0.0556994 0.0525127 0.0494454 0.0464962 0.0436636 0.0409476 0.0383483 0.0358656 0.0334996 0.0312502 0.0291174 0.027089 0.0251526 0.0233082 0.0215559 0.0198956 0.0183274 0.0168512 0.015467 0.0141625 0.0129255 0.0117558 0.0106534 0.00961846 0.00865087 0.00775066 0.00691783 0.0061447 0.00542361 0.00475456 0.00413755 0.00357258 0.00305965 0.00259876 0.0021899 0.00182585 0.00149936 0.00121044 0.00095908 0.000745285 0.000569053 0.000430386 0.000329283 0.000252107 0.000185222 0.000128626 8.23208e-05 4.63055e-05 2.05802e-05 5.14505e-06 0 0 0.000277754 0.00111102 0.00249979 0.00444407 0.00694386 0.00999915 0.01361 0.0177763 0.0224958 0.0277662 0.0335875 0.0399597 0.0468829 0.0543569 0.0623818 0.0709576 0.0797976 0.0886151 0.09741 0.106182 0.114932 0.123659 0.132364 0.141046 0.14949 0.15748 0.165017 0.172099 0.178728 0.184903 0.190624 0.195891 0.200648 0.204837 0.20846 0.211517 0.214006 0.215929 0.217284 0.218073 0.218352 0.21818 0.217556 0.216481 0.214953 0.212974 0.210543 0.207661 0.204431 0.200959 0.197245 0.193288 0.189088 0.184647 0.179963 0.175036 0.169966 0.164851 0.159691 0.154487 0.149237 0.143943 0.138604 0.13322 0.127857 0.122579 0.117388 0.112283 0.107265 0.102332 0.0974852 0.0927246 0.0880774 0.0835708 0.0792047 0.0749791 0.0708942 0.0669498 0.0631459 0.0594827 0.0559588 0.0525731 0.0493256 0.0462163 0.0432453 0.0404124 0.0377177 0.0351613 0.0327288 0.0304059 0.0281928 0.0260893 0.0240954 0.0222112 0.0204367 0.0187719 0.0172021 0.0157129 0.0143043 0.0129762 0.0117287 0.0105617 0.00947523 0.00846934 0.0075348 0.0066624 0.00585216 0.00510406 0.00441811 0.00379431 0.00323266 0.00273315 0.00228728 0.00188654 0.00153092 0.00122043 0.000955061 0.00073482 0.000559703 0.000429712 0.000328999 0.000241713 0.000167856 0.000107428 6.04283e-05 2.6857e-05 6.71426e-06 0 0 0.000329474 0.0013179 0.00296527 0.00527159 0.00823686 0.0118611 0.0161442 0.0210864 0.026677 0.0329056 0.0397723 0.0472771 0.0554199 0.0642008 0.0736196 0.0836766 0.0940374 0.104368 0.114668 0.124938 0.135178 0.145387 0.155566 0.165715 0.175584 0.184923 0.193733 0.202014 0.209765 0.216986 0.223678 0.22984 0.235408 0.240314 0.24456 0.248145 0.25107 0.253334 0.254937 0.255879 0.256228 0.256048 0.255342 0.254108 0.252347 0.250058 0.247242 0.243898 0.240148 0.236114 0.231795 0.227191 0.222303 0.217129 0.211671 0.205929 0.200016 0.194049 0.188026 0.181949 0.175817 0.16963 0.163388 0.157091 0.150816 0.144639 0.138561 0.13258 0.126699 0.120915 0.11523 0.109643 0.104187 0.0988941 0.0937641 0.0887973 0.0839935 0.0793528 0.0748752 0.0705607 0.0664084 0.0624177 0.0585884 0.0549207 0.0514144 0.0480697 0.0448864 0.0418647 0.0389881 0.0362404 0.0336215 0.0311315 0.0287703 0.0265381 0.0244346 0.0224601 0.0205974 0.0188297 0.017157 0.0155793 0.0140965 0.0127087 0.0114159 0.010218 0.00910419 0.00806359 0.00709618 0.00620197 0.00538095 0.00463312 0.00395848 0.00335704 0.00281892 0.00233426 0.00190305 0.00152529 0.001201 0.000930151 0.000712762 0.000548828 0.000420196 0.000308716 0.000214386 0.000137207 7.71789e-05 3.43017e-05 8.57543e-06 0 0 0.000386052 0.00154421 0.00347447 0.00617683 0.0096513 0.0138979 0.0189165 0.0247073 0.0312494 0.0385218 0.0465247 0.055258 0.0647217 0.0749158 0.0858404 0.0974953 0.109496 0.121457 0.133378 0.14526 0.157103 0.168906 0.18067 0.192395 0.203794 0.214583 0.224761 0.234329 0.243286 0.251632 0.259368 0.266494 0.272933 0.278612 0.283529 0.287685 0.29108 0.293714 0.295587 0.296699 0.297126 0.296944 0.296154 0.294755 0.292747 0.290131 0.286906 0.283073 0.27877 0.274136 0.269173 0.263878 0.258253 0.252298 0.246013 0.239396 0.232582 0.225701 0.218754 0.211741 0.204661 0.197515 0.190303 0.183025 0.175769 0.168624 0.16159 0.154666 0.147854 0.141153 0.134563 0.128084 0.121754 0.115611 0.109655 0.103886 0.0983036 0.0929085 0.0877005 0.0826795 0.0778452 0.0731974 0.0687362 0.0644614 0.0603732 0.0564715 0.0527562 0.0492275 0.0458669 0.0426558 0.0395944 0.0366826 0.0339204 0.0313079 0.0288449 0.0265316 0.0243485 0.0222759 0.020314 0.0184627 0.016722 0.015092 0.0135726 0.0121638 0.0108529 0.00962717 0.00848664 0.00743128 0.00646109 0.00557608 0.00477624 0.00406157 0.00342077 0.00284252 0.00232682 0.00187368 0.00148309 0.00115505 0.000889563 0.000686629 0.0005257 0.000386229 0.000268214 0.000171657 9.65572e-05 4.29143e-05 1.07286e-05 0 0 0.000447487 0.00178995 0.00402738 0.00715979 0.0111872 0.0161095 0.0219269 0.0286392 0.036213 0.0446148 0.0538446 0.0639024 0.0747883 0.0865021 0.099044 0.112414 0.126173 0.139882 0.153541 0.167149 0.180708 0.194217 0.207676 0.221085 0.23412 0.246459 0.2581 0.269044 0.279291 0.288842 0.297695 0.305851 0.313224 0.31973 0.325367 0.330136 0.334037 0.33707 0.339235 0.340532 0.341047 0.340867 0.339992 0.338421 0.336155 0.333193 0.329537 0.325185 0.320295 0.315026 0.309377 0.303349 0.296941 0.290153 0.282986 0.275439 0.267663 0.259808 0.251874 0.243861 0.23577 0.227599 0.219349 0.211021 0.202715 0.194533 0.186475 0.178542 0.170732 0.163046 0.155485 0.148047 0.140778 0.133721 0.126876 0.120244 0.113824 0.107617 0.101622 0.095839 0.0902691 0.0849123 0.0797688 0.0748386 0.0701216 0.0656178 0.0613272 0.0572499 0.0533651 0.0496523 0.0461115 0.0427426 0.0395457 0.0365207 0.0336676 0.0309866 0.0284552 0.0260514 0.0237751 0.0216264 0.0196052 0.0177115 0.0159453 0.0143067 0.0127809 0.0113532 0.0100235 0.00879198 0.00765854 0.00662318 0.00568592 0.00484674 0.00409282 0.00341133 0.00280224 0.00226558 0.00180134 0.00140951 0.0010901 0.000843116 0.000645511 0.000474253 0.000329342 0.000210779 0.000118563 5.26948e-05 1.31737e-05 0 0 0.000513779 0.00205512 0.00462401 0.00822047 0.0128445 0.0184961 0.0251752 0.0328819 0.0415678 0.0511845 0.061732 0.0732104 0.0856196 0.0989596 0.11323 0.128432 0.144068 0.159642 0.175155 0.190605 0.205993 0.221319 0.236584 0.251786 0.266563 0.280551 0.29375 0.30616 0.317782 0.328614 0.338657 0.347912 0.356281 0.363668 0.370074 0.375498 0.379941 0.383402 0.385881 0.387379 0.387992 0.387818 0.386856 0.385106 0.382569 0.379245 0.375133 0.370234 0.364724 0.358783 0.352409 0.345603 0.338365 0.330695 0.322592 0.314057 0.30526 0.29637 0.287387 0.278311 0.269143 0.259881 0.250527 0.241079 0.231655 0.222367 0.213218 0.204206 0.195331 0.186594 0.177994 0.169533 0.161259 0.153225 0.145429 0.137873 0.130556 0.123478 0.116639 0.110039 0.10368 0.0975624 0.0916864 0.0860521 0.0806595 0.0755085 0.0705993 0.0659317 0.0614829 0.0572299 0.0531728 0.0493115 0.045646 0.0421765 0.0389027 0.0358248 0.0329177 0.0301562 0.0275405 0.0250704 0.0227459 0.0205672 0.0185341 0.0166467 0.0148882 0.0132415 0.0117068 0.0102841 0.00897329 0.00777443 0.00668752 0.00571256 0.00483509 0.00404067 0.00332931 0.002701 0.00215574 0.00169354 0.00131439 0.00101829 0.000779628 0.000572788 0.00039777 0.000254572 0.000143197 6.36431e-05 1.59108e-05 0 0 0.000583532 0.00233413 0.00525179 0.00933651 0.0145883 0.0210071 0.0285931 0.037346 0.047201 0.058093 0.0700219 0.0829879 0.0969908 0.112031 0.128108 0.145221 0.162816 0.180335 0.197779 0.215147 0.23244 0.249657 0.266799 0.283865 0.300452 0.316154 0.330971 0.344904 0.357953 0.370117 0.381396 0.391791 0.401194 0.409499 0.416704 0.42281 0.427817 0.431725 0.434533 0.436243 0.436962 0.436798 0.435751 0.433821 0.431008 0.427313 0.422734 0.417273 0.411127 0.404494 0.397374 0.389767 0.381673 0.373091 0.364023 0.354468 0.344616 0.334655 0.324587 0.31441 0.304126 0.293734 0.283234 0.272625 0.262039 0.251603 0.241318 0.231185 0.221202 0.21137 0.201689 0.192158 0.182837 0.173782 0.164993 0.156472 0.148216 0.140227 0.132505 0.125049 0.117862 0.110946 0.104302 0.097928 0.0918256 0.0859944 0.0804343 0.0751453 0.0701024 0.0652802 0.0606788 0.0562983 0.0521385 0.0481996 0.0444814 0.0409841 0.0376795 0.0345396 0.0315644 0.0287539 0.0261081 0.0236271 0.0213107 0.0191591 0.0171531 0.0152735 0.0135204 0.0118938 0.0103937 0.00902011 0.00777297 0.00665233 0.00564208 0.00472616 0.00390456 0.00317728 0.00254431 0.00200567 0.00156135 0.00121135 0.000927443 0.000681387 0.000473185 0.000302839 0.000170347 7.57097e-05 1.89274e-05 0 0 0.000655347 0.00262139 0.00589812 0.0104856 0.0163837 0.0235925 0.032112 0.0419422 0.053 0.0652024 0.0785494 0.0930409 0.108677 0.125458 0.143383 0.162453 0.182049 0.201555 0.220971 0.240296 0.25953 0.278674 0.297727 0.316689 0.335116 0.35256 0.369022 0.384502 0.399001 0.412517 0.425052 0.436604 0.447057 0.456292 0.464309 0.471108 0.47669 0.481054 0.4842 0.486129 0.486959 0.48681 0.485682 0.483576 0.48049 0.476425 0.471381 0.465358 0.458574 0.451247 0.443378 0.434965 0.42601 0.416513 0.406472 0.395889 0.384973 0.373932 0.362768 0.351479 0.340066 0.328529 0.316869 0.305084 0.293319 0.281717 0.270279 0.259005 0.247894 0.236947 0.226163 0.215543 0.205151 0.195054 0.18525 0.175739 0.166523 0.157601 0.148972 0.140637 0.132599 0.124863 0.117427 0.110292 0.103459 0.0969258 0.090694 0.0847631 0.0791059 0.073695 0.0685304 0.0636121 0.0589401 0.0545144 0.050335 0.0464019 0.0426841 0.0391505 0.0358013 0.0326362 0.0296555 0.026859 0.0242468 0.0218189 0.0195538 0.0174302 0.0154481 0.0136074 0.0119082 0.0103505 0.00893419 0.00765937 0.00650833 0.00546338 0.00452451 0.00369174 0.00296505 0.00234445 0.00182994 0.00142152 0.00108835 0.000799602 0.000555279 0.000355379 0.000199901 8.88447e-05 2.22112e-05 0 0 0.000729225 0.0029169 0.00656303 0.0116676 0.0182306 0.0262521 0.035732 0.0466704 0.0589648 0.0725128 0.0873143 0.103369 0.120678 0.13924 0.159056 0.180126 0.201768 0.223303 0.244731 0.266051 0.287264 0.30837 0.329368 0.350259 0.370555 0.38977 0.407903 0.424956 0.440926 0.455816 0.469624 0.482351 0.493868 0.504048 0.51289 0.520394 0.526561 0.531391 0.534882 0.537036 0.537984 0.537855 0.53665 0.53437 0.531013 0.52658 0.521071 0.514486 0.507064 0.499042 0.49042 0.481199 0.471379 0.460959 0.44994 0.438321 0.426332 0.414201 0.40193 0.389517 0.376963 0.364268 0.351432 0.338454 0.325494 0.312709 0.3001 0.287666 0.275407 0.263325 0.251417 0.239686 0.228202 0.217039 0.206198 0.195677 0.185477 0.175598 0.16604 0.156803 0.147892 0.139312 0.131063 0.123145 0.115558 0.108303 0.101378 0.0947851 0.0884935 0.0824743 0.0767274 0.0712529 0.0660507 0.0611209 0.0564634 0.0520783 0.0479315 0.0439891 0.0402511 0.0367174 0.033388 0.0302631 0.0273424 0.0246262 0.0220905 0.0197118 0.0174899 0.0154249 0.0135168 0.0117655 0.0101712 0.00873369 0.00743383 0.00625233 0.00518918 0.00424439 0.00341795 0.00270987 0.00212014 0.00164877 0.00126234 0.000927435 0.000644052 0.000412193 0.000231859 0.000103048 2.57621e-05 0 0 0.000805167 0.00322067 0.0072465 0.0128827 0.0201292 0.028986 0.0394532 0.0515307 0.0650953 0.080024 0.0963168 0.113974 0.132994 0.153379 0.175128 0.198241 0.221973 0.245579 0.269059 0.292414 0.315642 0.338745 0.361722 0.384573 0.406769 0.427783 0.447615 0.466263 0.483729 0.500012 0.515113 0.529031 0.541628 0.552766 0.562446 0.570667 0.57743 0.582734 0.586579 0.588965 0.590036 0.589932 0.588655 0.586204 0.582578 0.577779 0.571806 0.56466 0.556597 0.547878 0.538502 0.528468 0.517777 0.50643 0.494425 0.481762 0.468692 0.455462 0.442073 0.428525 0.414817 0.40095 0.386923 0.372737 0.358565 0.344579 0.33078 0.317168 0.303743 0.290504 0.277452 0.264587 0.251989 0.239739 0.227837 0.216283 0.205077 0.194219 0.183709 0.173547 0.163739 0.154293 0.145209 0.136486 0.128125 0.120125 0.112488 0.105211 0.0982652 0.0916181 0.0852699 0.0792207 0.0734704 0.0680191 0.0628667 0.0580133 0.0534218 0.0490553 0.0449138 0.0409973 0.0373057 0.0338391 0.0305975 0.0275809 0.0247631 0.0221181 0.0196458 0.0173462 0.0152194 0.0132653 0.0114839 0.00987528 0.00841859 0.00709301 0.00589856 0.00483523 0.00390302 0.00310193 0.00243197 0.00189313 0.00144942 0.00106488 0.000739502 0.000473281 0.000266221 0.00011832 2.95801e-05 0 0 0.000883171 0.00353268 0.00794854 0.0141307 0.0220793 0.0317941 0.0432754 0.0565229 0.0713916 0.0877362 0.105557 0.124853 0.145626 0.167874 0.191598 0.216798 0.242663 0.268382 0.293955 0.319383 0.344664 0.369799 0.394789 0.419632 0.443759 0.466601 0.488156 0.508426 0.527409 0.545107 0.561519 0.576644 0.590336 0.602448 0.612978 0.621927 0.629296 0.635084 0.63929 0.641916 0.643115 0.643042 0.641696 0.639077 0.635186 0.630022 0.623586 0.615878 0.607175 0.597756 0.587622 0.576772 0.565206 0.552925 0.539928 0.526215 0.512054 0.497716 0.483198 0.468502 0.453628 0.438574 0.423342 0.407932 0.392531 0.377327 0.36232 0.347511 0.332899 0.318484 0.304267 0.290247 0.276513 0.263154 0.250169 0.23756 0.225325 0.213465 0.201979 0.190869 0.180142 0.169807 0.159865 0.150316 0.141158 0.132394 0.124021 0.116041 0.108421 0.101126 0.0941578 0.0875155 0.0811992 0.075209 0.0695449 0.0642069 0.059155 0.0543492 0.0497895 0.045476 0.0414086 0.0375873 0.0340121 0.0306831 0.0275716 0.0246492 0.0219158 0.0193714 0.017016 0.0148497 0.0128724 0.0110841 0.00946259 0.00798543 0.00665265 0.00546426 0.00442025 0.00352064 0.00276541 0.00215458 0.0016496 0.00121195 0.000841631 0.000538644 0.000302987 0.000134661 3.36652e-05 0 0 0.000963238 0.00385295 0.00866914 0.0154118 0.0240809 0.0346766 0.0471986 0.0616472 0.0778536 0.0956493 0.115034 0.136008 0.158572 0.182724 0.208466 0.235797 0.263839 0.291713 0.31942 0.346958 0.374329 0.401533 0.428568 0.455436 0.481525 0.506222 0.529528 0.551443 0.571967 0.591099 0.608841 0.625191 0.639994 0.653092 0.664485 0.674175 0.68216 0.68844 0.693016 0.695888 0.697222 0.697183 0.695773 0.69299 0.688836 0.683309 0.676411 0.66814 0.658796 0.648676 0.637781 0.626111 0.613666 0.600445 0.586449 0.571677 0.556418 0.540961 0.525304 0.509449 0.493395 0.477142 0.46069 0.444039 0.427393 0.410953 0.394721 0.378695 0.362877 0.347266 0.331862 0.316665 0.301773 0.287282 0.273193 0.259505 0.246219 0.233334 0.220851 0.208769 0.1971 0.185854 0.175032 0.164634 0.154659 0.145108 0.13598 0.127276 0.118961 0.110999 0.103391 0.0961372 0.089237 0.0826906 0.0764979 0.070659 0.0651309 0.0598707 0.0548782 0.0501535 0.0456966 0.0415075 0.0375862 0.0339327 0.030516 0.027305 0.0242999 0.0215004 0.0189067 0.0165188 0.0143367 0.0123603 0.0105659 0.00892957 0.00745145 0.00613147 0.00496965 0.00396599 0.00312048 0.00243312 0.00186286 0.00136863 0.000950438 0.00060828 0.000342158 0.00015207 3.80175e-05 0 0 0.00104537 0.00418147 0.00940831 0.0167259 0.0261342 0.0376332 0.051223 0.0669035 0.0844814 0.103763 0.124749 0.147439 0.171833 0.197931 0.225732 0.255238 0.285501 0.315572 0.345452 0.375141 0.404639 0.433945 0.463061 0.491985 0.520065 0.546647 0.57173 0.595315 0.617401 0.63799 0.65708 0.674672 0.6906 0.704699 0.716969 0.727409 0.736021 0.742804 0.747757 0.750882 0.752356 0.752357 0.750886 0.747943 0.743528 0.73764 0.73028 0.721447 0.711461 0.700638 0.68898 0.676485 0.663155 0.648989 0.633987 0.61815 0.601784 0.585198 0.568392 0.551366 0.534119 0.516653 0.498966 0.481059 0.46315 0.445457 0.427981 0.41072 0.393677 0.376849 0.360238 0.343842 0.32777 0.312125 0.296908 0.28212 0.267759 0.253827 0.240323 0.227247 0.214613 0.202433 0.190709 0.17944 0.168626 0.158267 0.148363 0.138915 0.129884 0.121236 0.11297 0.105086 0.0975839 0.0904639 0.0837258 0.0773698 0.0713498 0.0656198 0.0601798 0.0550298 0.0501698 0.0455998 0.0413198 0.0373298 0.0335963 0.0300857 0.026798 0.0237333 0.0208915 0.0182727 0.0158767 0.0137037 0.0117284 0.00992545 0.00829496 0.00683688 0.00555122 0.00443798 0.00349716 0.00272876 0.00208921 0.00153493 0.00106592 0.000682191 0.000383732 0.000170548 4.26369e-05 0 0 0.00112956 0.0045