<?xml version="1.0"?> 
<VTKFile type="StructuredGrid" version="0.1"> 
<StructuredGrid WholeExtent="0 128 0 128 0 0"> 
<Piece Extent="0 128 0 128 0 0"> 
<PointData>
<DataArray type="Float32" Name="u" format="ascii" NumberOfComponents="1"> 
0 0 0 0 0 0 0 0 0 0 0 0 0 0 0 0 0 0 0 0 0 0 0 0 0 0 0 0 0 0 0 0 0 0 0 0 0 0 0 0 0 0 0 0 0 0 0 0 0 0 0 0 0 0 0 0 0 0 0 0 0 0 0 0 0 0 0 0 0 0 0 0 0 0 0 0 0 0 0 0 0 0 0 0 0 0 0 0 0 0 0 0 0 0 0 0 0 0 0 0 0 0 0 0 0 0 0 0 0 0 0 0 0 0 0 0 0 0 0 0 0 0 0 0 0 0 0 0 0 0 8.43156e-07 3.37262e-06 7.58841e-06 1.34905e-05 2.10789e-05 3.03536e-05 4.13147e-05 5.3962e-05 6.83986e-05 8.47273e-05 0.000102948 0.000123061 0.000145066 0.000168964 0.000194753 0.000222435 0.000251082 0.00027977 0.000308498 0.000337266 0.000366073 0.000394921 0.000423809 0.000452737 0.000480966 0.000507756 0.000533109 0.000557023 0.000579498 0.000600536 0.000620135 0.000638296 0.000654814 0.000669484 0.000682307 0.000693282 0.000702409 0.000709689 0.000715121 0.000718705 0.00072063 0.000721083 0.000720064 0.000717574 0.000713613 0.00070818 0.000701275 0.000692899 0.000683402 0.000673136 0.000662101 0.000650297 0.000637723 0.000624381 0.000610269 0.000595388 0.000580057 0.000564596 0.000549006 0.000533286 0.000517436 0.000501457 0.000485347 0.000469108 0.000452929 0.000436999 0.000421319 0.000405888 0.000390707 0.000375775 0.000361093 0.000346661 0.000332535 0.000318773 0.000305374 0.00029234 0.000279669 0.000267362 0.000255419 0.00024384 0.000232602 0.000221685 0.000211089 0.000200813 0.000190858 0.000181223 0.000171908 0.000162914 0.000154202 0.000145735 0.000137512 0.000129534 0.0001218 0.000114311 0.000107066 0.000100066 9.32975e-05 8.6747e-05 8.04147e-05 7.43006e-05 6.84048e-05 6.27272e-05 5.72679e-05 5.20268e-05 4.70242e-05 4.22804e-05 3.77953e-05 3.3569e-05 2.96014e-05 2.58926e-05 2.24426e-05 1.92513e-05 1.6326e-05 1.36741e-05 1.12954e-05 9.1901e-06 7.35807e-06 5.79935e-06 4.51394e-06 3.50183e-06 2.68109e-06 1.96978e-06 1.3679e-06 8.75457e-07 4.92444e-07 2.18864e-07 5.4716e-08 0 0 3.37262e-06 1.34905e-05 3.03536e-05 5.3962e-05 8.43156e-05 0.000121414 0.000165259 0.000215848 0.000273594 0.000338909 0.000411793 0.000492245 0.000580265 0.000675855 0.000779012 0.000889739 0.00100433 0.00111908 0.00123399 0.00134906 0.00146429 0.00157969 0.00169524 0.00181095 0.00192386 0.00203103 0.00213243 0.00222809 0.00231799 0.00240214 0.00248054 0.00255318 0.00261926 0.00267794 0.00272923 0.00277313 0.00280964 0.00283876 0.00286048 0.00287482 0.00288252 0.00288433 0.00288026 0.0028703 0.00285445 0.00283272 0.0028051 0.00277159 0.00273361 0.00269254 0.0026484 0.00260119 0.00255089 0.00249752 0.00244108 0.00238155 0.00232023 0.00225839 0.00219602 0.00213314 0.00206975 0.00200583 0.00194139 0.00187643 0.00181172 0.001748 0.00168528 0.00162355 0.00156283 0.0015031 0.00144437 0.00138664 0.00133014 0.00127509 0.0012215 0.00116936 0.00111868 0.00106945 0.00102168 0.000975358 0.000930409 0.000886742 0.000844357 0.000803253 0.000763431 0.000724891 0.000687632 0.000651655 0.000616808 0.00058294 0.000550049 0.000518136 0.000487201 0.000457245 0.000428266 0.000400265 0.00037319 0.000346988 0.000321659 0.000297203 0.000273619 0.000250909 0.000229072 0.000208107 0.000188097 0.000169121 0.000151181 0.000134276 0.000118406 0.00010357 8.97702e-05 7.70051e-05 6.53041e-05 5.46963e-05 4.51817e-05 3.67604e-05 2.94323e-05 2.31974e-05 1.80557e-05 1.40073e-05 1.07243e-05 7.87911e-06 5.4716e-06 3.50183e-06 1.96978e-06 8.75457e-07 2.18864e-07 0 0 7.58841e-06 3.03536e-05 6.82956e-05 0.000121414 0.00018971 0.000273183 0.000371832 0.000485658 0.000615587 0.000762546 0.000926533 0.00110755 0.0013056 0.00152067 0.00175278 0.00200191 0.00225974 0.00251793 0.00277648 0.00303539 0.00329466 0.00355429 0.00381428 0.00407463 0.00432869 0.00456981 0.00479798 0.0050132 0.00521548 0.00540482 0.00558122 0.00574466 0.00589333 0.00602536 0.00614076 0.00623954 0.00632168 0.0063872 0.00643609 0.00646835 0.00648567 0.00648974 0.00648058 0.00645817 0.00642251 0.00637362 0.00631147 0.00623609 0.00615062 0.00605823 0.00595891 0.00585267 0.00573951 0.00561943 0.00549242 0.00535849 0.00522051 0.00508137 0.00494106 0.00479958 0.00465693 0.00451311 0.00436813 0.00422197 0.00407636 0.00393299 0.00379187 0.00365299 0.00351636 0.00338198 0.00324984 0.00311995 0.00299281 0.00286895 0.00274837 0.00263106 0.00251702 0.00240626 0.00229877 0.00219456 0.00209342 0.00199517 0.0018998 0.00180732 0.00171772 0.001631 0.00154717 0.00146622 0.00138782 0.00131161 0.00123761 0.00116581 0.0010962 0.0010288 0.000963598 0.000900597 0.000839678 0.000780723 0.000723732 0.000668706 0.000615643 0.000564545 0.000515411 0.000468241 0.000423218 0.000380523 0.000340158 0.000302121 0.000266413 0.000233033 0.000201983 0.000173261 0.000146934 0.000123067 0.000101659 8.27109e-05 6.62227e-05 5.21942e-05 4.06254e-05 3.15164e-05 2.41298e-05 1.7728e-05 1.23111e-05 7.87911e-06 4.432e-06 1.96978e-06 4.92444e-07 0 0 1.34905e-05 5.3962e-05 0.000121414 0.000215848 0.000337262 0.000485658 0.000661034 0.000863392 0.00109438 0.00135564 0.00164717 0.00196898 0.00232106 0.00270342 0.00311605 0.00355896 0.00401732 0.00447632 0.00493597 0.00539625 0.00585718 0.00631874 0.00678095 0.00724379 0.00769545 0.0081241 0.00852974 0.00891236 0.00927197 0.00960857 0.00992216 0.0102127 0.010477 0.0107117 0.0109169 0.0110925 0.0112385 0.011355 0.0114419 0.0114993 0.0115301 0.0115373 0.011521 0.0114812 0.0114178 0.0113309 0.0112204 0.0110864 0.0109344 0.0107702 0.0105936 0.0104048 0.0102036 0.00999009 0.0097643 0.0095262 0.00928091 0.00903354 0.0087841 0.00853258 0.00827898 0.00802331 0.00776556 0.00750573 0.00724686 0.00699199 0.0067411 0.00649421 0.00625131 0.00601241 0.00577749 0.00554657 0.00532056 0.00510036 0.00488599 0.00467743 0.0044747 0.00427779 0.0040867 0.00390143 0.00372164 0.00354697 0.00337743 0.00321301 0.00305372 0.00289956 0.00275053 0.00260662 0.00246723 0.00233176 0.00220019 0.00207254 0.0019488 0.00182898 0.00171306 0.00160106 0.00149276 0.00138795 0.00128664 0.00118881 0.00109448 0.00100364 0.000916287 0.000832429 0.000752387 0.000676486 0.000604725 0.000537103 0.000473622 0.000414282 0.000359081 0.00030802 0.000261216 0.000218785 0.000180727 0.000147042 0.000117729 9.27896e-05 7.2223e-05 5.60292e-05 4.28974e-05 3.15164e-05 2.18864e-05 1.40073e-05 7.87911e-06 3.50183e-06 8.75457e-07 0 0 2.10789e-05 8.43156e-05 0.00018971 0.000337262 0.000526973 0.000758841 0.00103287 0.00134905 0.00170996 0.00211818 0.0025737 0.00307653 0.00362666 0.00422409 0.00486883 0.00556087 0.00627706 0.00699425 0.00771245 0.00843164 0.00915184 0.00987303 0.0105952 0.0113184 0.0120241 0.0126939 0.0133277 0.0139256 0.0144875 0.0150134 0.0155034 0.0159574 0.0163704 0.0167371 0.0170577 0.017332 0.0175602 0.0177422 0.017878 0.0179676 0.0180157 0.0180271 0.0180016 0.0179394 0.0178403 0.0177045 0.0175319 0.0173225 0.0170851 0.0168284 0.0165525 0.0162574 0.0159431 0.0156095 0.0152567 0.0148847 0.0145014 0.0141149 0.0137252 0.0133322 0.0129359 0.0125364 0.0121337 0.0117277 0.0113232 0.010925 0.010533 0.0101472 0.00976768 0.00939439 0.00902733 0.00866652 0.00831337 0.00796931 0.00763436 0.00730849 0.00699172 0.00668405 0.00638547 0.00609599 0.00581506 0.00554214 0.00527723 0.00502033 0.00477144 0.00453057 0.0042977 0.00407285 0.00385505 0.00364337 0.0034378 0.00323835 0.00304501 0.00285778 0.00267666 0.00250166 0.00233244 0.00216868 0.00201037 0.00185752 0.00171012 0.00156818 0.0014317 0.00130067 0.00117561 0.00105701 0.000944882 0.000839224 0.000740035 0.000647315 0.000561064 0.000481282 0.00040815 0.000341852 0.000282386 0.000229752 0.000183952 0.000144984 0.000112848 8.75457e-05 6.70271e-05 4.92444e-05 3.41975e-05 2.18864e-05 1.23111e-05 5.4716e-06 1.3679e-06 0 0 3.03536e-05 0.000121414 0.000273183 0.000485658 0.000758841 0.00109273 0.00148733 0.00194263 0.00246235 0.00305018 0.00370613 0.0044302 0.00522239 0.00608269 0.00701111 0.00800765 0.00903897 0.0100717 0.0111059 0.0121416 0.0131786 0.0142172 0.0152571 0.0162985 0.0173148 0.0182792 0.0191919 0.0200528 0.0208619 0.0216193 0.0223249 0.0229787 0.0235733 0.0241014 0.0245631 0.0249582 0.0252867 0.0255488 0.0257443 0.0258734 0.0259427 0.025959 0.0259223 0.0258327 0.0256901 0.0254945 0.0252459 0.0249444 0.0246025 0.0242329 0.0238356 0.0234107 0.022958 0.0224777 0.0219697 0.021434 0.020882 0.0203255 0.0197642 0.0191983 0.0186277 0.0180524 0.0174725 0.0168879 0.0163054 0.015732 0.0151675 0.014612 0.0140655 0.0135279 0.0129994 0.0124798 0.0119713 0.0114758 0.0109935 0.0105242 0.0100681 0.00962503 0.00919508 0.00877822 0.00837368 0.00798068 0.00759921 0.00722928 0.00687088 0.00652402 0.00618869 0.0058649 0.00555128 0.00524646 0.00495044 0.00466322 0.00438481 0.0041152 0.00385439 0.00360239 0.00335871 0.00312289 0.00289493 0.00267482 0.00246257 0.00225818 0.00206164 0.00187297 0.00169287 0.00152209 0.00136063 0.00120848 0.00106565 0.000932133 0.000807932 0.000693046 0.000587737 0.000492267 0.000406636 0.000330844 0.000264891 0.000208777 0.000162502 0.000126066 9.65191e-05 7.0912e-05 4.92444e-05 3.15164e-05 1.7728e-05 7.87911e-06 1.96978e-06 0 0 4.13147e-05 0.000165259 0.000371832 0.000661034 0.00103287 0.00148733 0.00202442 0.00264414 0.00335153 0.00415164 0.00504446 0.00603 0.00710825 0.00827922 0.0095429 0.0108993 0.012303 0.0137087 0.0151164 0.016526 0.0179376 0.0193511 0.0207666 0.0221841 0.0235673 0.0248801 0.0261223 0.0272941 0.0283954 0.0294263 0.0303866 0.0312765 0.0320859 0.0328047 0.033433 0.0339708 0.0344181 0.0347748 0.0350409 0.0352165 0.0353109 0.0353331 0.0352831 0.0351611 0.034967 0.0347008 0.0343625 0.033952 0.0334867 0.0329837 0.032443 0.0318645 0.0312484 0.0305947 0.0299032 0.029174 0.0284228 0.0276652 0.0269013 0.026131 0.0253544 0.0245714 0.023782 0.0229863 0.0221935 0.021413 0.0206446 0.0198885 0.0191446 0.018413 0.0176936 0.0169864 0.0162942 0.0156199 0.0149633 0.0143246 0.0137038 0.0131007 0.0125155 0.0119481 0.0113975 0.0108626 0.0103434 0.00983985 0.00935203 0.00887991 0.00842349 0.00798278 0.0075559 0.00714101 0.0067381 0.00634717 0.00596821 0.00560125 0.00524626 0.00490325 0.00457158 0.0042506 0.00394032 0.00364073 0.00335184 0.00307364 0.00280613 0.00254931 0.00230419 0.00207174 0.00185197 0.00164488 0.00145047 0.00126874 0.00109969 0.000943312 0.000799975 0.00067003 0.000553476 0.000450315 0.000360546 0.000284168 0.000221183 0.000171589 0.000131373 9.65191e-05 6.70271e-05 4.28974e-05 2.41298e-05 1.07243e-05 2.68109e-06 0 0 5.3962e-05 0.000215848 0.000485658 0.000863392 0.00134905 0.00194263 0.00264414 0.00345357 0.00437751 0.00542255 0.00658868 0.00787591 0.00928425 0.0108137 0.0124642 0.0142358 0.0160693 0.0179053 0.0197439 0.021585 0.0234287 0.025275 0.0271238 0.0289752 0.0307818 0.0324964 0.0341189 0.0356494 0.0370879 0.0384343 0.0396886 0.0408509 0.0419081 0.042847 0.0436676 0.04437 0.0449542 0.0454201 0.0457677 0.0459971 0.0461203 0.0461493 0.0460841 0.0459248 0.0456712 0.0453235 0.0448816 0.0443455 0.0437377 0.0430807 0.0423745 0.041619 0.0408143 0.0399604 0.0390572 0.0381048 0.0371236 0.0361342 0.0351364 0.0341303 0.0331159 0.0320932 0.0310622 0.0300229 0.0289875 0.027968 0.0269644 0.0259769 0.0250053 0.0240496 0.02311 0.0221863 0.0212822 0.0204014 0.019544 0.0187097 0.0178988 0.0171112 0.0163468 0.0156057 0.0148865 0.0141879 0.0135097 0.012852 0.0122149 0.0115982 0.0110021 0.0104265 0.00986893 0.00932703 0.00880078 0.00829018 0.00779522 0.00731591 0.00685225 0.00640424 0.00597104 0.00555181 0.00514654 0.00475524 0.00437791 0.00401454 0.00366515 0.00332972 0.00300955 0.00270594 0.0024189 0.00214841 0.00189449 0.00165713 0.00143632 0.00123208 0.00104487 0.000875141 0.000722908 0.000588166 0.000470917 0.000371158 0.000288892 0.000224117 0.000171589 0.000126066 8.75457e-05 5.60292e-05 3.15164e-05 1.40073e-05 3.50183e-06 0 0 6.86469e-05 0.000274588 0.000617822 0.00109835 0.00171617 0.00247129 0.0033637 0.0043934 0.00556813 0.0068956 0.00837582 0.0100088 0.0117945 0.013733 0.0158242 0.0180681 0.0203899 0.0227147 0.0250425 0.0273732 0.0297069 0.0320436 0.0343832 0.0367258 0.0390117 0.0411813 0.0432345 0.0451715 0.0469921 0.0486963 0.0502843 0.0517559 0.0530946 0.0542838 0.0553236 0.0562139 0.0569547 0.0575461 0.057988 0.0582805 0.0584386 0.0584775 0.0583974 0.058198 0.0578795 0.0574418 0.056885 0.056209 0.0554422 0.054613 0.0537214 0.0527673 0.0517508 0.0506718 0.0495304 0.0483266 0.0470862 0.045835 0.0445732 0.0433006 0.0420173 0.0407233 0.0394186 0.0381032 0.0367924 0.0355017 0.0342309 0.0329802 0.0317496 0.030539 0.0293484 0.0281778 0.0270319 0.0259154 0.0248283 0.0237706 0.0227422 0.0217432 0.0207735 0.0198333 0.0189207 0.018034 0.0171733 0.0163386 0.0155298 0.014747 0.0139901 0.0132591 0.0125511 0.0118629 0.0111946 0.0105461 0.00991744 0.00930867 0.00871975 0.00815068 0.00760041 0.00706786 0.00655304 0.00605594 0.00557657 0.00511492 0.004671 0.00424481 0.00383796 0.00345207 0.00308715 0.00274319 0.00242019 0.00211816 0.00183709 0.00157699 0.00133845 0.00112207 0.000927856 0.000755806 0.00060592 0.000478199 0.000372641 0.000289247 0.000221455 0.000162702 0.000112987 7.23118e-05 4.06754e-05 1.8078e-05 4.51949e-06 0 0 8.57207e-05 0.000342883 0.000771486 0.00137153 0.00214302 0.00308595 0.00420031 0.00548612 0.00695123 0.00860348 0.0104429 0.0124694 0.0146831 0.017084 0.019672 0.0224471 0.0253173 0.0281904 0.0310664 0.0339453 0.0368271 0.0397118 0.0425995 0.04549 0.0483105 0.0509877 0.0535219 0.0559129 0.0581607 0.0602653 0.0622269 0.0640452 0.0657 0.0671708 0.0684576 0.0695605 0.0704793 0.0712141 0.071765 0.0721319 0.0723333 0.0723877 0.072295 0.0720554 0.0716687 0.0711351 0.0704544 0.0696268 0.0686869 0.0676696 0.0665748 0.0654026 0.064153 0.0628259 0.0614214 0.0599395 0.0584119 0.0568705 0.0553154 0.0537464 0.0521636 0.0505671 0.0489567 0.0473325 0.0457135 0.0441188 0.0425483 0.041002 0.0394799 0.0379821 0.0365085 0.0350591 0.0336399 0.0322566 0.0309094 0.0295981 0.0283229 0.0270836 0.0258803 0.0247131 0.0235798 0.0224786 0.0214094 0.0203722 0.0193671 0.018394 0.0174529 0.0165438 0.015663 0.0148069 0.0139755 0.0131687 0.0123865 0.011629 0.0108961 0.0101879 0.00950298 0.00884011 0.00819925 0.00758041 0.00698358 0.00640878 0.00585599 0.00532522 0.0048184 0.00433748 0.00388245 0.00345331 0.00305006 0.00267271 0.00232124 0.00199567 0.00169676 0.00142528 0.00118125 0.000964642 0.000775473 0.00061374 0.000479442 0.00037258 0.000285256 0.000209576 0.000145539 9.3145e-05 5.2394e-05 2.32862e-05 5.82156e-06 0 0 0.000105183 0.000420733 0.00094665 0.00168293 0.00262958 0.0037866 0.00515398 0.00673173 0.00852682 0.0105462 0.0127899 0.0152579 0.0179502 0.0208667 0.0240076 0.0273728 0.0308513 0.0343323 0.0378156 0.0413013 0.0447893 0.0482798 0.0517727 0.0552679 0.0586781 0.0619158 0.0649809 0.0678736 0.0705937 0.0731413 0.0755164 0.0777189 0.0797244 0.0815079 0.0830697 0.0844097 0.0855278 0.0864242 0.0870987 0.0875514 0.0878044 0.0878796 0.0877771 0.0874969 0.087039 0.0864033 0.0855899 0.0845988 0.0834717 0.0822503 0.0809348 0.079525 0.0780209 0.0764227 0.0747302 0.0729435 0.0711008 0.0692407 0.0673629 0.0654676 0.0635548 0.0616244 0.0596764 0.0577109 0.0557508 0.0538194 0.0519164 0.0500421 0.0481963 0.0463791 0.0445904 0.0428304 0.0411061 0.0394251 0.0377872 0.0361924 0.0346409 0.0331325 0.0316672 0.0302451 0.028864 0.0275216 0.0262179 0.024953 0.0237268 0.0225393 0.0213905 0.0202805 0.0192048 0.0181592 0.0171436 0.016158 0.0152024 0.0142769 0.0133813 0.0125158 0.0116788 0.0108686 0.0100852 0.00932864 0.00859896 0.00789611 0.00722011 0.00657095 0.00595089 0.00536218 0.0048048 0.00427878 0.0037841 0.00332076 0.00288877 0.00248812 0.0021198 0.00178479 0.00148308 0.00121467 0.000979576 0.000777783 0.000609296 0.000474115 0.000362994 0.000266689 0.000185201 0.000118529 6.66724e-05 2.96322e-05 7.40804e-06 0 0 0.000127035 0.000508139 0.00114331 0.00203256 0.00317587 0.00457325 0.00622471 0.00813023 0.0102949 0.0127238 0.0154168 0.0183741 0.0215956 0.0250812 0.0288311 0.0328452 0.0369921 0.0411404 0.04529 0.0494411 0.0535936 0.0577475 0.0619028 0.0660595 0.0701146 0.0739654 0.0776117 0.0810536 0.0842911 0.0873242 0.0901529 0.0927771 0.0951676 0.0972952 0.0991599 0.100762 0.1021 0.103176 0.103989 0.104539 0.104852 0.104953 0.104844 0.104523 0.10399 0.103246 0.102291 0.101125 0.0997966 0.0983554 0.0968013 0.0951344 0.0933547 0.0914621 0.0894568 0.0873386 0.085153 0.0829454 0.0807159 0.0784643 0.0761908 0.0738953 0.0715778 0.0692383 0.0669043 0.0646033 0.0623354 0.0601006 0.0578987 0.0557299 0.0535942 0.0514914 0.0494307 0.0474207 0.0454617 0.0435535 0.0416962 0.0398897 0.0381342 0.0364294 0.0347732 0.033163 0.0315989 0.0300808 0.0286088 0.0271829 0.025803 0.0244692 0.0231764 0.0219196 0.0206988 0.019514 0.0183651 0.0172523 0.0161754 0.0151345 0.0141278 0.0131532 0.0122108 0.0113007 0.0104227 0.00957693 0.00876337 0.00798201 0.00723542 0.00652615 0.00585421 0.00521959 0.00462229 0.00406232 0.00353967 0.00305435 0.00260758 0.00220058 0.00183335 0.0015059 0.00121823 0.000970327 0.000762202 0.000593852 0.000454668 0.000334042 0.000231973 0.000148463 8.35104e-05 3.71157e-05 9.27893e-06 0 0 0.000151275 0.000605101 0.00136148 0.0024204 0.00378188 0.00544591 0.00741248 0.00968161 0.0122554 0.0151361 0.0183237 0.0218181 0.0256193 0.0297275 0.0341424 0.0388643 0.0437395 0.0486147 0.0534898 0.0583649 0.0632399 0.0681149 0.0729898 0.0778646 0.08262 0.0871366 0.0914142 0.095453 0.099253 0.102814 0.106136 0.10922 0.11203 0.114533 0.116728 0.118616 0.120197 0.12147 0.122436 0.123095 0.123476 0.123609 0.123495 0.123132 0.122522 0.121664 0.120559 0.119206 0.117662 0.115985 0.114174 0.112231 0.110154 0.107944 0.105601 0.103125 0.100568 0.0979848 0.0953742 0.0927365 0.0900717 0.0873798 0.0846608 0.0819147 0.0791739 0.0764708 0.0738053 0.0711774 0.0685872 0.0660346 0.0635197 0.0610424 0.0586134 0.0562436 0.0539329 0.0516813 0.0494888 0.0473554 0.0452812 0.043266 0.0413074 0.0394028 0.0375522 0.0357557 0.0340132 0.0323248 0.0306903 0.0291099 0.0275778 0.0260882 0.0246412 0.0232367 0.0218747 0.0205553 0.0192784 0.018044 0.01685 0.015694 0.0145762 0.0134964 0.0124548 0.0114512 0.0104858 0.00955839 0.00867199 0.00782941 0.00703067 0.00627575 0.00556465 0.00489739 0.00427396 0.00369435 0.00316008 0.00267265 0.00223207 0.00183833 0.00149143 0.00119137 0.00093816 0.000731791 0.000560278 0.000411632 0.000285856 0.000182948 0.000102908 4.57369e-05 1.14342e-05 0 0 0.000177904 0.000711618 0.00160114 0.00284647 0.00444761 0.00640456 0.00871732 0.0113859 0.0144085 0.0177833 0.0215105 0.0255899 0.0300215 0.0348054 0.0399416 0.04543 0.0510936 0.0567552 0.0624148 0.0680725 0.0737282 0.0793819 0.0850337 0.0906834 0.0961943 0.101429 0.106388 0.111072 0.115479 0.119611 0.123467 0.127047 0.130311 0.13322 0.135774 0.137974 0.139818 0.141306 0.14244 0.143219 0.143676 0.143847 0.14373 0.143326 0.142635 0.141657 0.140392 0.13884 0.137067 0.135138 0.133054 0.130814 0.128419 0.125869 0.123163 0.120302 0.117347 0.114359 0.111338 0.108284 0.105197 0.102078 0.0989255 0.0957402 0.0925597 0.0894216 0.0863259 0.0832726 0.0802616 0.0772931 0.0743669 0.0714832 0.0686545 0.0658938 0.0632009 0.0605759 0.0580188 0.0555296 0.0531082 0.0507548 0.0484666 0.046241 0.044078 0.0419777 0.03994 0.0379649 0.0360525 0.0342027 0.032409 0.030665 0.0289707 0.0273261 0.0257311 0.0241858 0.0226902 0.0212442 0.0198454 0.0184911 0.0171813 0.015916 0.0146952 0.013519 0.0123873 0.0113001 0.0102606 0.00927196 0.00833417 0.00744725 0.00661118 0.00582597 0.00509162 0.00440813 0.00377732 0.00320102 0.00267923 0.00221195 0.00179918 0.00144092 0.00113717 0.000887933 0.000679823 0.000499462 0.000346849 0.000221983 0.000124866 5.54958e-05 1.38739e-05 0 0 0.000206922 0.00082769 0.0018623 0.00331076 0.00517306 0.00744921 0.0101392 0.013243 0.016754 0.0206654 0.0249772 0.0296894 0.0348021 0.0403151 0.0462286 0.0525425 0.0590544 0.065562 0.0720652 0.078564 0.0850585 0.0915487 0.0980345 0.104516 0.110837 0.116844 0.122534 0.12791 0.13297 0.137715 0.142144 0.146258 0.150011 0.153358 0.156299 0.158834 0.160962 0.162684 0.164001 0.164911 0.165453 0.165666 0.16555 0.165104 0.164329 0.163225 0.161792 0.160029 0.158012 0.155816 0.15344 0.150885 0.14815 0.145237 0.142143 0.138871 0.135489 0.132068 0.128607 0.125107 0.121568 0.11799 0.114372 0.110715 0.107062 0.103456 0.0998974 0.0963861 0.0929221 0.0895054 0.086136 0.0828138 0.0795539 0.0763711 0.0732656 0.0702372 0.0672861 0.0644121 0.0616154 0.0588958 0.0562508 0.0536776 0.0511763 0.0487468 0.0463892 0.0441034 0.0418895 0.0397475 0.0376701 0.03565 0.0336874 0.0317822 0.0299343 0.0281439 0.0264109 0.0247352 0.023114 0.0215443 0.0200261 0.0185593 0.017144 0.0157803 0.0144679 0.0132071 0.0120012 0.0108538 0.00976473 0.0087341 0.00776187 0.00684806 0.00599266 0.00519567 0.00445928 0.00378567 0.00317483 0.00262676 0.00214148 0.00171897 0.00135923 0.00106228 0.000813305 0.00059753 0.000414952 0.000265569 0.000149383 6.63923e-05 1.65981e-05 0 0 0.000238329 0.000953318 0.00214496 0.00381327 0.00595823 0.00857986 0.0116781 0.0152531 0.019292 0.0237823 0.0287239 0.0341168 0.039961 0.0462565 0.0530034 0.0602016 0.0676219 0.075035 0.0824408 0.0898395 0.0972309 0.104615 0.111992 0.119362 0.126549 0.13338 0.139852 0.145967 0.151725 0.157125 0.162168 0.166854 0.17113 0.174946 0.178301 0.181196 0.183631 0.185605 0.187118 0.188171 0.188806 0.189067 0.188954 0.188466 0.187604 0.186368 0.184757 0.182772 0.180498 0.178018 0.175333 0.172443 0.169347 0.166047 0.162541 0.15883 0.154994 0.151111 0.147181 0.143206 0.139183 0.135115 0.131 0.126838 0.12268 0.118574 0.11452 0.110518 0.106569 0.102672 0.0988268 0.0950343 0.0913115 0.0876757 0.084127 0.0806653 0.0772907 0.0740031 0.0708026 0.0676891 0.06466 0.0617126 0.0588469 0.056063 0.0533607 0.0507402 0.0482014 0.0457443 0.0433609 0.0410432 0.0387912 0.036605 0.0344844 0.0324296 0.0304404 0.028517 0.0266559 0.0248537 0.0231106 0.0214264 0.0198012 0.018235 0.0167277 0.0152795 0.0138939 0.0125749 0.0113223 0.0101363 0.00901673 0.00796366 0.00697708 0.00605699 0.00520598 0.0044266 0.00371887 0.00308278 0.00251833 0.00202552 0.00160435 0.00125482 0.000960723 0.000705838 0.000490165 0.000313706 0.000176459 7.84264e-05 1.96066e-05 0 0 0.000271561 0.00108624 0.00244405 0.00434498 0.00678903 0.0097762 0.0133065 0.0173799 0.021977 0.0270783 0.0326838 0.0387935 0.0454073 0.0525254 0.0601477 0.0682742 0.0766476 0.0850103 0.0933625 0.101704 0.110035 0.118356 0.126666 0.134965 0.143058 0.15075 0.158041 0.164931 0.171419 0.177505 0.183191 0.188475 0.1933 0.197608 0.201398 0.204672 0.207428 0.209667 0.21139 0.212595 0.213331 0.213645 0.213538 0.21301 0.21206 0.210689 0.208896 0.206682 0.204142 0.201369 0.198363 0.195126 0.191656 0.187954 0.18402 0.179853 0.175543 0.171179 0.166761 0.162289 0.157763 0.153182 0.148548 0.143859 0.139172 0.134542 0.129969 0.125453 0.120995 0.116594 0.112251 0.107964 0.103755 0.0996431 0.0956283 0.0917107 0.0878903 0.0841671 0.0805411 0.0770123 0.0735781 0.0702358 0.0669856 0.0638274 0.0607612 0.057787 0.0549047 0.0521145 0.0494075 0.046775 0.0442169 0.0417332 0.039324 0.0369893 0.034729 0.0325432 0.030428 0.0283797 0.0263982 0.0244836 0.022636 0.0208551 0.0191412 0.0174941 0.0159179 0.0144167 0.0129905 0.0116392 0.0103628 0.00916148 0.00803509 0.00698365 0.00601019 0.00511773 0.00430627 0.0035758 0.00292633 0.00235786 0.00187039 0.00146391 0.00112081 0.000823449 0.00057184 0.000365978 0.000205862 9.14944e-05 2.28736e-05 0 0 0.000306054 0.00122422 0.00275448 0.00489686 0.00765134 0.0110179 0.0149966 0.0195874 0.0247634 0.0304977 0.0367902 0.0436411 0.0510501 0.0590175 0.0675431 0.076627 0.0859828 0.0953241 0.104651 0.113963 0.123261 0.132545 0.141813 0.151068 0.160092 0.16867 0.176801 0.184486 0.191725 0.198517 0.204863 0.210763 0.216152 0.220966 0.225206 0.22887 0.23196 0.234474 0.236414 0.237779 0.238621 0.238994 0.238897 0.238331 0.237296 0.23579 0.233816 0.231371 0.228562 0.225493 0.222163 0.218573 0.214723 0.210612 0.206242 0.201611 0.196818 0.191964 0.187046 0.182067 0.177025 0.17192 0.166753 0.161524 0.156294 0.151127 0.146021 0.140978 0.135996 0.131076 0.126219 0.121423 0.116712 0.112109 0.107613 0.103224 0.0989427 0.0947688 0.0907022 0.0867431 0.0828889 0.0791371 0.0754879 0.0719412 0.0684971 0.0651554 0.0619162 0.0587795 0.0557358 0.0527756 0.0498989 0.0471057 0.0443959 0.0417696 0.0392268 0.0367675 0.0343874 0.0320824 0.0298524 0.0276974 0.0256175 0.0236126 0.0216827 0.0198279 0.0180524 0.0163606 0.0147525 0.0132281 0.0117873 0.0104303 0.00915689 0.00796719 0.0068647 0.00585295 0.00493193 0.00410165 0.0033621 0.00271329 0.00215522 0.00168788 0.00129228 0.000949432 0.000659328 0.00042197 0.000237358 0.000105492 2.63731e-05 0 0 0.000341807 0.00136723 0.00307627 0.00546892 0.00854518 0.0123051 0.0167486 0.0218757 0.0276513 0.0340406 0.0410433 0.0486596 0.0568894 0.0657327 0.0751896 0.08526 0.0956277 0.105976 0.116306 0.126617 0.136909 0.147182 0.157436 0.167671 0.17765 0.187137 0.196132 0.204634 0.212643 0.220161 0.227185 0.233718 0.239687 0.245022 0.249724 0.253791 0.257225 0.260024 0.26219 0.263722 0.264677 0.265114 0.265032 0.264431 0.263311 0.261673 0.259515 0.256839 0.253759 0.25039 0.246731 0.242784 0.238547 0.234022 0.229207 0.224103 0.218819 0.213464 0.208037 0.202539 0.19697 0.191329 0.185617 0.179834 0.174048 0.168329 0.162676 0.15709 0.151571 0.146118 0.140731 0.135411 0.130183 0.125073 0.12008 0.115205 0.110448 0.105808 0.101286 0.0968814 0.0925924 0.0884165 0.0843539 0.0804045 0.0765684 0.0728454 0.0692357 0.0657393 0.0623459 0.0590452 0.0558374 0.0527223 0.0497 0.0467705 0.0439338 0.0411899 0.0385342 0.0359619 0.033473 0.0310677 0.0287458 0.0265073 0.0243524 0.0222809 0.0202974 0.0184066 0.0166085 0.014903 0.0132902 0.01177 0.0103425 0.00900763 0.00776951 0.00663226 0.00559586 0.00466032 0.00382563 0.00309181 0.00245884 0.00192673 0.00147515 0.00108378 0.000752628 0.000481682 0.000270946 0.000120421 3.01051e-05 0 0 0.000378822 0.00151529 0.00340939 0.00606115 0.00947054 0.0136376 0.0185623 0.0242446 0.0306407 0.0377068 0.0454429 0.053849 0.0629251 0.0726711 0.0830872 0.0941732 0.105582 0.116967 0.128328 0.139665 0.150979 0.162268 0.173533 0.184774 0.195733 0.206153 0.216033 0.225374 0.234175 0.242436 0.250157 0.257339 0.263905 0.269776 0.274952 0.279435 0.283224 0.286318 0.288719 0.290425 0.2915 0.292005 0.291942 0.291309 0.290107 0.288336 0.285996 0.283086 0.279733 0.27606 0.272069 0.267759 0.26313 0.258183 0.252916 0.247331 0.241545 0.23568 0.229733 0.223705 0.217597 0.211408 0.205139 0.198788 0.192433 0.186149 0.179935 0.173792 0.16772 0.161718 0.155788 0.149928 0.144168 0.138536 0.133031 0.127654 0.122406 0.117285 0.112292 0.107427 0.102689 0.0980739 0.0935835 0.0892172 0.0849751 0.0808572 0.0768634 0.0729939 0.0692376 0.0655837 0.0620322 0.0585831 0.0552364 0.051992 0.0488501 0.0458105 0.0428683 0.0400181 0.0372602 0.0345944 0.0320208 0.0295394 0.0271501 0.024853 0.022653 0.0205548 0.0185584 0.016664 0.0148714 0.0131807 0.0115919 0.010105 0.00872462 0.00745566 0.00629805 0.00525181 0.00431693 0.00349341 0.00278125 0.00218046 0.00166941 0.00122651 0.000851742 0.000545115 0.000306627 0.000136279 3.40697e-05 0 0 0.000417097 0.00166839 0.00375387 0.00667355 0.0104274 0.0150155 0.0204377 0.0266942 0.0337316 0.0414965 0.0499891 0.0592094 0.0691572 0.0798327 0.0912358 0.103367 0.115846 0.128297 0.140717 0.153108 0.16547 0.177802 0.190104 0.202377 0.214341 0.225717 0.236506 0.246706 0.256318 0.265343 0.273779 0.281628 0.288805 0.295226 0.300892 0.305802 0.309957 0.313356 0.316 0.317888 0.319088 0.319668 0.319627 0.318965 0.317683 0.31578 0.313256 0.310112 0.306483 0.302504 0.298176 0.293498 0.288471 0.283095 0.277369 0.271293 0.264997 0.258611 0.252134 0.245566 0.238908 0.232158 0.225318 0.218388 0.211449 0.204585 0.197796 0.191082 0.184443 0.177878 0.171389 0.164974 0.158666 0.152496 0.146465 0.140572 0.134816 0.1292 0.123721 0.118381 0.113178 0.108109 0.103177 0.0983793 0.0937172 0.0891905 0.0847992 0.0805432 0.076411 0.0723911 0.0684835 0.0646881 0.061005 0.0574341 0.0539756 0.0506293 0.0473897 0.0442512 0.0412139 0.0382777 0.0354427 0.0327088 0.030076 0.0275444 0.025119 0.022805 0.0206023 0.018511 0.016531 0.0146624 0.0129051 0.0112592 0.00973003 0.00832315 0.00703852 0.00587613 0.00483599 0.0039181 0.00312246 0.00244907 0.00187507 0.0013776 0.000956668 0.000612268 0.000344401 0.000153067 3.82667e-05 0 0 0.000456633 0.00182653 0.0041097 0.00730612 0.0114158 0.0164388 0.022375 0.0292245 0.0369239 0.0454097 0.0546819 0.0647407 0.0755858 0.0872175 0.0996356 0.11284 0.12642 0.139964 0.153473 0.166946 0.180383 0.193784 0.20715 0.22048 0.233474 0.24583 0.257549 0.26863 0.279075 0.288881 0.298051 0.306583 0.314387 0.321373 0.327542 0.332892 0.337424 0.341137 0.344033 0.346111 0.347443 0.348101 0.348087 0.347399 0.346039 0.344005 0.341297 0.337917 0.33401 0.329721 0.325052 0.320001 0.31457 0.308758 0.302565 0.29599 0.289175 0.282258 0.275241 0.268121 0.260901 0.253579 0.246156 0.238632 0.231096 0.223639 0.216261 0.208961 0.20174 0.194598 0.187534 0.180549 0.173678 0.166956 0.160382 0.153957 0.14768 0.141552 0.135573 0.129742 0.124059 0.118523 0.113134 0.107891 0.102795 0.0978456 0.0930431 0.0883873 0.0838662 0.0794674 0.0751911 0.0710373 0.0670058 0.0630968 0.0593103 0.0556461 0.0520984 0.0486611 0.0453341 0.0421175 0.0390113 0.0360155 0.03313 0.0303549 0.0276956 0.0251573 0.0227401 0.020444 0.018269 0.016215 0.0142821 0.0124703 0.0107857 0.00923474 0.00781724 0.00653327 0.00538282 0.00436588 0.00348246 0.00273256 0.00209212 0.00153707 0.00106741 0.000683141 0.000384267 0.000170785 4.26963e-05 0 0 0.00049743 0.00198972 0.00447687 0.00795888 0.0124357 0.0179075 0.0243741 0.0318355 0.0402176 0.0494462 0.0595213 0.0704429 0.0822109 0.0948254 0.108286 0.122594 0.137303 0.151971 0.166595 0.181178 0.195718 0.210215 0.224671 0.239083 0.253131 0.266491 0.279163 0.291147 0.302443 0.313052 0.322972 0.332205 0.340652 0.348218 0.354902 0.360704 0.365624 0.369662 0.372819 0.375093 0.376563 0.377306 0.377323 0.376612 0.375175 0.37301 0.370119 0.366501 0.362313 0.357712 0.352697 0.347269 0.341427 0.335172 0.328504 0.321423 0.314078 0.306622 0.299052 0.291371 0.283577 0.27567 0.267651 0.25952 0.251374 0.24331 0.235328 0.227429 0.219611 0.211876 0.204224 0.196654 0.189204 0.181913 0.174782 0.167809 0.160996 