<?xml version="1.0"?> 
<VTKFile type="StructuredGrid" version="0.1"> 
<StructuredGrid WholeExtent="0 128 0 128 0 0"> 
<Piece Extent="0 128 0 128 0 0"> 
<PointData>
<DataArray type="Float32" Name="u" format="ascii" NumberOfComponents="1"> 
0 0 0 0 0 0 0 0 0 0 0 0 0 0 0 0 0 0 0 0 0 0 0 0 0 0 0 0 0 0 0 0 0 0 0 0 0 0 0 0 0 0 0 0 0 0 0 0 0 0 0 0 0 0 0 0 0 0 0 0 0 0 0 0 0 0 0 0 0 0 0 0 0 0 0 0 0 0 0 0 0 0 0 0 0 0 0 0 0 0 0 0 0 0 0 0 0 0 0 0 0 0 0 0 0 0 0 0 0 0 0 0 0 0 0 0 0 0 0 0 0 0 0 0 0 0 0 0 0 0 2.22251e-08 8.89004e-08 2.00026e-07 3.55602e-07 5.55627e-07 8.00104e-07 1.08903e-06 1.42241e-06 1.80984e-06 2.26095e-06 2.77573e-06 3.35418e-06 3.9963e-06 4.7021e-06 5.47156e-06 6.3047e-06 7.1041e-06 7.77235e-06 8.30946e-06 8.71542e-06 8.99023e-06 9.13391e-06 9.14643e-06 9.02781e-06 8.73714e-06 8.2335e-06 7.5169e-06 6.58734e-06 5.44482e-06 4.08933e-06 2.52089e-06 7.39478e-07 -1.1094e-06 -2.88026e-06 -4.5731e-06 -6.18792e-06 -7.72472e-06 -9.1835e-06 -1.05643e-05 -1.1867e-05 -1.29509e-05 -1.36751e-05 -1.40396e-05 -1.40444e-05 -1.36895e-05 -1.2975e-05 -1.19007e-05 -1.04668e-05 -8.78536e-06 -6.96862e-06 -5.01656e-06 -2.92921e-06 -7.06538e-07 1.65144e-06 4.14472e-06 6.77332e-06 9.30073e-06 1.14905e-05 1.33425e-05 1.48569e-05 1.60336e-05 1.68727e-05 1.73741e-05 1.75378e-05 1.73661e-05 1.68614e-05 1.60237e-05 1.48529e-05 1.3349e-05 1.15122e-05 9.34228e-06 6.83933e-06 4.23891e-06 1.77659e-06 -5.47632e-07 -2.73375e-06 -4.78177e-06 -6.69168e-06 -8.4635e-06 -1.00972e-05 -1.14863e-05 -1.25244e-05 -1.32114e-05 -1.35473e-05 -1.35321e-05 -1.31659e-05 -1.24486e-05 -1.13802e-05 -1.01008e-05 -8.75062e-06 -7.32953e-06 -5.83757e-06 -4.27473e-06 -2.64103e-06 -9.36458e-07 8.38984e-07 2.54618e-06 4.04603e-06 5.33852e-06 6.42365e-06 7.30143e-06 7.97185e-06 8.43492e-06 8.69063e-06 8.7811e-06 8.74844e-06 8.59264e-06 8.31371e-06 7.91165e-06 7.38646e-06 6.73813e-06 5.96667e-06 5.16513e-06 4.42655e-06 3.75093e-06 3.13828e-06 2.58859e-06 2.10186e-06 1.67809e-06 1.31729e-06 1.00855e-06 7.40974e-07 5.14565e-07 3.29322e-07 1.85244e-07 8.23304e-08 2.05826e-08 0 0 8.89004e-08 3.55602e-07 8.00104e-07 1.42241e-06 2.22251e-06 3.20041e-06 4.35612e-06 5.68963e-06 7.23937e-06 9.04381e-06 1.11029e-05 1.34167e-05 1.59852e-05 1.88084e-05 2.18862e-05 2.52188e-05 2.84164e-05 3.10894e-05 3.32378e-05 3.48617e-05 3.59609e-05 3.65356e-05 3.65857e-05 3.61112e-05 3.49485e-05 3.2934e-05 3.00676e-05 2.63494e-05 2.17793e-05 1.63573e-05 1.00835e-05 2.95791e-06 -4.4376e-06 -1.1521e-05 -1.82924e-05 -2.47517e-05 -3.08989e-05 -3.6734e-05 -4.2257e-05 -4.7468e-05 -5.18035e-05 -5.47003e-05 -5.61583e-05 -5.61776e-05 -5.47581e-05 -5.18999e-05 -4.76029e-05 -4.18672e-05 -3.51414e-05 -2.78745e-05 -2.00663e-05 -1.17168e-05 -2.82615e-06 6.60575e-06 1.65789e-05 2.70933e-05 3.72029e-05 4.59619e-05 5.33701e-05 5.94277e-05 6.41346e-05 6.74907e-05 6.94962e-05 7.0151e-05 6.94644e-05 6.74456e-05 6.40946e-05 5.94115e-05 5.33962e-05 4.60487e-05 3.73691e-05 2.73573e-05 1.69556e-05 7.10635e-06 -2.19053e-06 -1.0935e-05 -1.91271e-05 -2.67667e-05 -3.3854e-05 -4.03889e-05 -4.59454e-05 -5.00976e-05 -5.28455e-05 -5.41892e-05 -5.41285e-05 -5.26636e-05 -4.97943e-05 -4.55208e-05 -4.04034e-05 -3.50025e-05 -2.93181e-05 -2.33503e-05 -1.70989e-05 -1.05641e-05 -3.74583e-06 3.35594e-06 1.01847e-05 1.61841e-05 2.13541e-05 2.56946e-05 2.92057e-05 3.18874e-05 3.37397e-05 3.47625e-05 3.51244e-05 3.49938e-05 3.43706e-05 3.32549e-05 3.16466e-05 2.95458e-05 2.69525e-05 2.38667e-05 2.06605e-05 1.77062e-05 1.50037e-05 1.25531e-05 1.03543e-05 8.40743e-06 6.71236e-06 5.26915e-06 4.03419e-06 2.9639e-06 2.05826e-06 1.31729e-06 7.40974e-07 3.29322e-07 8.23304e-08 0 0 2.00026e-07 8.00104e-07 1.80023e-06 3.20041e-06 5.00065e-06 7.20093e-06 9.80127e-06 1.28017e-05 1.62886e-05 2.03486e-05 2.49816e-05 3.01876e-05 3.59667e-05 4.23189e-05 4.92441e-05 5.67423e-05 6.39369e-05 6.99511e-05 7.47851e-05 7.84388e-05 8.09121e-05 8.22051e-05 8.23179e-05 8.12503e-05 7.86342e-05 7.41015e-05 6.76521e-05 5.92861e-05 4.90034e-05 3.6804e-05 2.2688e-05 6.65531e-06 -9.98461e-06 -2.59223e-05 -4.11579e-05 -5.56913e-05 -6.95225e-05 -8.26515e-05 -9.50783e-05 -0.000106803 -0.000116558 -0.000123076 -0.000126356 -0.0001264 -0.000123206 -0.000116775 -0.000107107 -9.42011e-05 -7.90682e-05 -6.27175e-05 -4.51491e-05 -2.63629e-05 -6.35884e-06 1.48629e-05 3.73025e-05 6.09598e-05 8.37065e-05 0.000103414 0.000120083 0.000133712 0.000144303 0.000151854 0.000156367 0.00015784 0.000156295 0.000151753 0.000144213 0.000133676 0.000120141 0.00010361 8.40805e-05 6.15539e-05 3.81502e-05 1.59893e-05 -4.92868e-06 -2.46037e-05 -4.30359e-05 -6.02252e-05 -7.61715e-05 -9.0875e-05 -0.000103377 -0.00011272 -0.000118902 -0.000121926 -0.000121789 -0.000118493 -0.000112037 -0.000102422 -9.09076e-05 -7.87556e-05 -6.59658e-05 -5.25381e-05 -3.84726e-05 -2.37693e-05 -8.42812e-06 7.55086e-06 2.29157e-05 3.64142e-05 4.80466e-05 5.78129e-05 6.57129e-05 7.17467e-05 7.59143e-05 7.82157e-05 7.90299e-05 7.87359e-05 7.73338e-05 7.48234e-05 7.12049e-05 6.64781e-05 6.06432e-05 5.37001e-05 4.64862e-05 3.9839e-05 3.37584e-05 2.82445e-05 2.32973e-05 1.89167e-05 1.51028e-05 1.18556e-05 9.07693e-06 6.66877e-06 4.63109e-06 2.9639e-06 1.66719e-06 7.40974e-07 1.85244e-07 0 0 3.55602e-07 1.42241e-06 3.20041e-06 5.68963e-06 8.89004e-06 1.28017e-05 1.74245e-05 2.27585e-05 2.89575e-05 3.61752e-05 4.44117e-05 5.36669e-05 6.39409e-05 7.52336e-05 8.7545e-05 0.000100875 0.000113666 0.000124358 0.000132951 0.000139447 0.000143844 0.000146142 0.000146343 0.000144445 0.000139794 0.000131736 0.00012027 0.000105397 8.71171e-05 6.54293e-05 4.03342e-05 1.18317e-05 -1.77504e-05 -4.60842e-05 -7.31696e-05 -9.90067e-05 -0.000123595 -0.000146936 -0.000169028 -0.000189872 -0.000207214 -0.000218801 -0.000224633 -0.00022471 -0.000219032 -0.0002076 -0.000190412 -0.000167469 -0.000140566 -0.000111498 -8.0265e-05 -4.68673e-05 -1.13046e-05 2.6423e-05 6.63156e-05 0.000108373 0.000148812 0.000183847 0.00021348 0.000237711 0.000256538 0.000269963 0.000277985 0.000280604 0.000277858 0.000269782 0.000256379 0.000237646 0.000213585 0.000184195 0.000149476 0.000109429 6.78225e-05 2.84254e-05 -8.76211e-06 -4.374e-05 -7.65083e-05 -0.000107067 -0.000135416 -0.000161555 -0.000183782 -0.00020039 -0.000211382 -0.000216757 -0.000216514 -0.000210654 -0.000199177 -0.000182083 -0.000161614 -0.00014001 -0.000117272 -9.34011e-05 -6.83957e-05 -4.22565e-05 -1.49833e-05 1.34237e-05 4.07389e-05 6.47364e-05 8.54163e-05 0.000102778 0.000116823 0.00012755 0.000134959 0.00013905 0.000140498 0.000139975 0.000137482 0.000133019 0.000126586 0.000118183 0.00010781 9.54668e-05 8.26421e-05 7.08248e-05 6.00149e-05 5.02124e-05 4.14174e-05 3.36297e-05 2.68494e-05 2.10766e-05 1.61368e-05 1.18556e-05 8.23304e-06 5.26915e-06 2.9639e-06 1.31729e-06 3.29322e-07 0 0 5.55627e-07 2.22251e-06 5.00065e-06 8.89004e-06 1.38907e-05 2.00026e-05 2.72257e-05 3.55602e-05 4.52461e-05 5.65238e-05 6.93933e-05 8.38546e-05 9.99076e-05 0.000117552 0.000136789 0.000157617 0.000177602 0.000194309 0.000207736 0.000217885 0.000224756 0.000228348 0.000228661 0.000225695 0.000218428 0.000205837 0.000187923 0.000164684 0.00013612 0.000102233 6.30222e-05 1.8487e-05 -2.7735e-05 -7.20065e-05 -0.000114327 -0.000154698 -0.000193118 -0.000229587 -0.000264106 -0.000296675 -0.000323772 -0.000341877 -0.00035099 -0.00035111 -0.000342238 -0.000324374 -0.000297518 -0.00026167 -0.000219634 -0.000174215 -0.000125414 -7.32301e-05 -1.76635e-05 4.1286e-05 0.000103618 0.000169333 0.000232518 0.000287262 0.000333563 0.000371423 0.000400841 0.000421817 0.000434351 0.000438444 0.000434152 0.000421535 0.000400591 0.000371322 0.000333726 0.000287805 0.000233557 0.000170983 0.000105973 4.44147e-05 -1.36908e-05 -6.83437e-05 -0.000119544 -0.000167292 -0.000211588 -0.00025243 -0.000287159 -0.00031311 -0.000330285 -0.000338682 -0.000338303 -0.000329147 -0.000311215 -0.000284505 -0.000252521 -0.000218766 -0.000183238 -0.000145939 -0.000106868 -6.60258e-05 -2.34114e-05 2.09746e-05 6.36546e-05 0.000101151 0.000133463 0.000160591 0.000182536 0.000199296 0.000210873 0.000217266 0.000219528 0.000218711 0.000214816 0.000207843 0.000197791 0.000184661 0.000168453 0.000149167 0.000129128 0.000110664 9.37733e-05 7.84569e-05 6.47146e-05 5.25464e-05 4.19523e-05 3.29322e-05 2.52137e-05 1.85244e-05 1.28641e-05 8.23304e-06 4.63109e-06 2.05826e-06 5.14565e-07 0 0 8.00104e-07 3.20041e-06 7.20093e-06 1.28017e-05 2.00026e-05 2.88037e-05 3.92051e-05 5.12066e-05 6.51544e-05 8.13943e-05 9.99263e-05 0.000120751 0.000143867 0.000169276 0.000196976 0.000226969 0.000255747 0.000279805 0.00029914 0.000313755 0.000323648 0.000328821 0.000329271 0.000325001 0.000314537 0.000296406 0.000270608 0.000237144 0.000196013 0.000147216 9.07519e-05 2.66212e-05 -3.99384e-05 -0.000103689 -0.000164632 -0.000222765 -0.00027809 -0.000330606 -0.000380313 -0.000427212 -0.000466232 -0.000492303 -0.000505425 -0.000505598 -0.000492823 -0.000467099 -0.000428426 -0.000376804 -0.000316273 -0.00025087 -0.000180596 -0.000105451 -2.54354e-05 5.94518e-05 0.00014921 0.000243839 0.000334826 0.000413657 0.000480331 0.000534849 0.000577211 0.000607417 0.000625466 0.000631359 0.00062518 0.00060701 0.000576852 0.000534703 0.000480566 0.000414439 0.000336322 0.000246216 0.000152601 6.39571e-05 -1.97147e-05 -9.8415e-05 -0.000172144 -0.000240901 -0.000304686 -0.0003635 -0.000413508 -0.000450878 -0.00047561 -0.000487703 -0.000487157 -0.000473972 -0.000448149 -0.000409687 -0.00036363 -0.000315022 -0.000263863 -0.000210152 -0.00015389 -9.50771e-05 -3.37125e-05 3.02034e-05 9.16626e-05 0.000145657 0.000192187 0.000231251 0.000262851 0.000286987 0.000303657 0.000312863 0.00031612 0.000314944 0.000309335 0.000299294 0.00028482 0.000265913 0.000242573 0.0002148 0.000185945 0.000159356 0.000135034 0.000112978 9.31891e-05 7.56668e-05 6.04113e-05 4.74223e-05 3.63077e-05 2.66751e-05 1.85244e-05 1.18556e-05 6.66877e-06 2.9639e-06 7.40974e-07 0 0 1.08903e-06 4.35612e-06 9.80127e-06 1.74245e-05 2.72257e-05 3.92051e-05 5.33625e-05 6.96979e-05 8.86823e-05 0.000110787 0.000136011 0.000164355 0.000195819 0.000230403 0.000268107 0.00030893 0.000348101 0.000380845 0.000407163 0.000427056 0.000440521 0.000447561 0.000448175 0.000442363 0.00042812 0.000403441 0.000368328 0.00032278 0.000266796 0.000200377 0.000123523 3.62344e-05 -5.43606e-05 -0.000141133 -0.000224082 -0.000303208 -0.000378511 -0.000449991 -0.000517648 -0.000581483 -0.000634593 -0.000670079 -0.000687939 -0.000688176 -0.000670787 -0.000635774 -0.000583136 -0.000512873 -0.000430483 -0.000341462 -0.000245812 -0.000143531 -3.46204e-05 8.09205e-05 0.000203091 0.000331892 0.000455736 0.000563033 0.000653784 0.000727989 0.000785648 0.000826762 0.000851329 0.00085935 0.000850939 0.000826209 0.000785159 0.000727791 0.000654103 0.000564097 0.000457772 0.000335127 0.000207706 8.70528e-05 -2.6834e-05 -0.000133954 -0.000234307 -0.000327893 -0.000414712 -0.000494764 -0.000562831 -0.000613696 -0.000647358 -0.000663817 -0.000663074 -0.000645129 -0.000609981 -0.00055763 -0.000494942 -0.000428781 -0.000359147 -0.000286041 -0.000209462 -0.00012941 -4.58864e-05 4.11102e-05 0.000124763 0.000198255 0.000261587 0.000314759 0.00035777 0.000390621 0.000413311 0.000425841 0.000430274 0.000428673 0.000421039 0.000407372 0.000387671 0.000361937 0.000330169 0.000292367 0.000253091 0.000216901 0.000183796 0.000153776 0.000126841 0.000102991 8.22264e-05 6.45471e-05 4.94188e-05 3.63077e-05 2.52137e-05 1.61368e-05 9.07693e-06 4.03419e-06 1.00855e-06 0 0 1.42241e-06 5.68963e-06 1.28017e-05 2.27585e-05 3.55602e-05 5.12066e-05 6.96979e-05 9.1034e-05 0.00011583 0.000144701 0.000177647 0.000214668 0.000255763 0.000300934 0.00035018 0.000403501 0.000454662 0.00049743 0.000531805 0.000557787 0.000575375 0.00058457 0.000585372 0.00057778 0.000559177 0.000526944 0.000481082 0.00042159 0.000348468 0.000261717 0.000161337 4.73266e-05 -7.10017e-05 -0.000184337 -0.000292678 -0.000396027 -0.000494382 -0.000587744 -0.000676112 -0.000759488 -0.000828856 -0.000875205 -0.000898533 -0.000898842 -0.00087613 -0.000830398 -0.000761646 -0.000669875 -0.000562263 -0.000445991 -0.00032106 -0.000187469 -4.52184e-05 0.000105692 0.000265262 0.000433492 0.000595247 0.00073539 0.000853922 0.000950843 0.00102615 0.00107985 0.00111194 0.00112242 0.00111143 0.00107913 0.00102551 0.000950584 0.000854339 0.00073678 0.000597906 0.000437717 0.00027129 0.000113702 -3.50484e-05 -0.00017496 -0.000306033 -0.000428268 -0.000541664 -0.000646222 -0.000735126 -0.000801562 -0.000845529 -0.000867027 -0.000866056 -0.000842617 -0.000796709 -0.000728333 -0.000646454 -0.00056004 -0.00046909 -0.000373604 -0.000273583 -0.000169026 -5.99333e-05 5.3695e-05 0.000162956 0.000258946 0.000341665 0.000411114 0.000467291 0.000510199 0.000539835 0.000556201 0.000561991 0.0005599 0.000549929 0.000532078 0.000506346 0.000472733 0.000431241 0.000381867 0.000330568 0.000283299 0.00024006 0.00020085 0.000165669 0.000134519 0.000107398 8.43064e-05 6.45471e-05 4.74223e-05 3.29322e-05 2.10766e-05 1.18556e-05 5.26915e-06 1.31729e-06 0 0 1.82442e-06 7.29766e-06 1.64197e-05 2.91907e-05 4.56104e-05 6.5679e-05 8.93964e-05 0.000116763 0.000148296 0.000184517 0.000225424 0.000271017 0.000321296 0.000376262 0.000435915 0.000500254 0.000561496 0.000611859 0.000651342 0.000679945 0.000697668 0.000704512 0.000700476 0.00068556 0.000656805 0.000611254 0.000548904 0.000469757 0.000373813 0.000261072 0.000131532 -1.48041e-05 -0.000166195 -0.000310897 -0.000448909 -0.000580232 -0.000704867 -0.000822812 -0.000934068 -0.00103863 -0.00112539 -0.00118321 -0.0012121 -0.00121205 -0.00118307 -0.00112515 -0.0010383 -0.000922513 -0.000786855 -0.000640387 -0.000483108 -0.00031502 -0.000136121 5.3588e-05 0.000254107 0.000465437 0.000668606 0.000844644 0.000993552 0.00111533 0.00120998 0.00127749 0.00131788 0.00133113 0.00131744 0.00127697 0.00120974 0.00111574 0.000994973 0.000847435 0.000673128 0.000472052 0.000263105 6.51809e-05 -0.000121719 -0.000297594 -0.000462446 -0.000616274 -0.000759077 -0.000890857 -0.001003 -0.0010869 -0.00114256 -0.00116997 -0.00116913 -0.00114005 -0.00108273 -0.000997155 -0.00089441 -0.000785559 -0.000670604 -0.000549544 -0.000422378 -0.000289108 -0.000149732 -4.2518e-06 0.000136097 0.000260078 0.000367691 0.000458936 0.000533813 0.000592323 0.000634464 0.000660237 0.000672711 0.000674953 0.000666964 0.000648743 0.000620292 0.000581608 0.000532694 0.000473548 0.000411612 0.000354325 0.000301688 0.000253701 0.000210364 0.000171676 0.000137639 0.000108251 8.28797e-05 6.08912e-05 4.22856e-05 2.70628e-05 1.52228e-05 6.76569e-06 1.69142e-06 0 0 2.31924e-06 9.27696e-06 2.08732e-05 3.71079e-05 5.7981e-05 8.34927e-05 0.000113643 0.000148431 0.000187781 0.000231614 0.00027993 0.00033273 0.000390013 0.00045178 0.00051803 0.000588763 0.000654667 0.000706429 0.000744048 0.000767525 0.00077686 0.000772052 0.000753102 0.00072001 0.000670103 0.00060071 0.000511831 0.000403466 0.000275614 0.000128276 -3.85489e-05 -0.00022486 -0.000416274 -0.000598408 -0.000771262 -0.000934836 -0.00108913 -0.00123414 -0.00136988 -0.00149633 -0.00160056 -0.00166963 -0.00170352 -0.00170225 -0.00166581 -0.00159421 -0.00148743 -0.00134549 -0.0011795 -0.00100058 -0.000808723 -0.000603937 -0.000386219 -0.00015557 8.80109e-05 0.000344523 0.00059106 0.000804713 0.000985482 0.00113337 0.00124837 0.00133049 0.00137972 0.00139607 0.00137975 0.00133095 0.00124967 0.00113592 0.000989703 0.000811009 0.000599841 0.0003562 0.000102904 -0.000137232 -0.000364205 -0.000578017 -0.000778668 -0.000966157 -0.00114048 -0.00130165 -0.00143906 -0.00154214 -0.00161088 -0.00164527 -0.00164533 -0.00161104 -0.00154242 -0.00143946 -0.00131505 -0.0011821 -0.0010406 -0.00089056 -0.000731972 -0.00056484 -0.000389163 -0.00020494 -2.59564e-05 0.000134003 0.000274937 0.000396848 0.000499734 0.000583596 0.000648433 0.000694247 0.000723876 0.000740161 0.000743103 0.000732701 0.000708956 0.000671867 0.000621434 0.000557657 0.000489457 0.000425752 0.000366543 0.000311829 0.000261611 0.000215889 0.000174663 0.000137932 0.000105604 7.75867e-05 5.38797e-05 3.4483e-05 1.93967e-05 8.62075e-06 2.15519e-06 0 0 2.90688e-06 1.16275e-05 2.61619e-05 4.65101e-05 7.26721e-05 0.000104648 0.000142437 0.00018604 0.000234283 0.000285992 0.000341167 0.000399808 0.000461914 0.000527486 0.000596525 0.000669029 0.000734175 0.00078114 0.000809924 0.000820528 0.00081295 0.000787191 0.000743251 0.00068113 0.00059907 0.000495314 0.000369862 0.000222714 5.38699e-05 -0.000136671 -0.000348907 -0.00058284 -0.000821238 -0.00104687 -0.00125974 -0.00145984 -0.00164717 -0.00182174 -0.00198355 -0.00213258 -0.00225438 -0.00233445 -0.00237281 -0.00236945 -0.00232437 -0.00223757 -0.00210905 -0.00193881 -0.0017402 -0.00152656 -0.0012979 -0.00105422 -0.000795513 -0.000521782 -0.000233027 7.07529e-05 0.000362609 0.000615596 0.000829712 0.00100496 0.00114133 0.00123884 0.00129747 0.00131724 0.00129836 0.00124104 0.0011453 0.00101113 0.000838531 0.000627503 0.000378046 9.01609e-05 -0.000209313 -0.000493536 -0.000762508 -0.00101623 -0.0012547 -0.00147792 -0.00168589 -0.0018786 -0.00204332 -0.00216728 -0.00225049 -0.00229294 -0.00229464 -0.00225559 -0.00217579 -0.00205523 -0.00190837 -0.00174966 -0.00157908 -0.00139665 -0.00120237 -0.000996223 -0.000778224 -0.000548369 -0.000323205 -0.000119281 6.34034e-05 0.000224848 0.000365053 0.000484018 0.000581743 0.000658229 0.000715486 0.000755525 0.000778347 0.000783952 0.000772339 0.000743508 0.00069746 0.000634195 0.000564104 0.000497581 0.000434624 0.000375235 0.000319413 0.000267158 0.00021847 0.000173349 0.00013272 9.75088e-05 6.77145e-05 4.33373e-05 2.43772e-05 1.08343e-05 2.70858e-06 0 0 3.58734e-06 1.43494e-05 3.22861e-05 5.73974e-05 8.96835e-05 0.000129144 0.00017578 0.00022959 0.000287804 0.000347652 0.000409134 0.00047225 0.000536999 0.000603382 0.000671399 0.00074105 0.00080002 0.000835993 0.000848971 0.000838953 0.000805938 0.000749928 0.000670922 0.00056892 0.000443706 0.000295066 0.000122998 -7.24967e-05 -0.000291418 -0.000533767 -0.000799543 -0.00108875 -0.00138109 -0.00165628 -0.00191433 -0.00215524 -0.00237899 -0.0025856 -0.00277507 -0.00294738 -0.00308683 -0.00317769 -0.00321996 -0.00321364 -0.00315873 -0.00305523 -0.00290314 -0.00270246 -0.00246895 -0.00221834 -0.00195065 -0.00166587 -0.001364 -0.00104505 -0.000709005 -0.000355875 -1.67462e-05 0.000277293 0.000526241 0.000730099 0.000888867 0.00100255 0.00107113 0.00109463 0.00107326 0.00100726 0.00089663 0.00074136 0.000541456 0.000296917 7.74272e-06 -0.000326066 -0.000673546 -0.00100373 -0.00131663 -0.00161223 -0.00189054 -0.00215156 -0.00239528 -0.00262171 -0.00281575 -0.00296231 -0.00306139 -0.00311298 -0.00311708 -0.0030737 -0.00298284 -0.00284449 -0.00267438 -0.00248823 -0.00228605 -0.00206782 -0.00183356 -0.00158326 -0.00131692 -0.00103454 -0.000755648 -0.000499772 -0.000266911 -5.70632e-05 0.00012977 0.000293589 0.000434394 0.000552184 0.000647541 0.000721045 0.000772696 0.000802495 0.00081044 0.000796533 0.000760774 0.000703161 0.000635554 0.000569811 0.000505932 0.000443918 0.000383768 0.000325482 0.00026906 0.000214502 0.000164228 0.000120658 8.379e-05 5.36256e-05 3.01644e-05 1.34064e-05 3.3516e-06 0 0 4.36061e-06 1.74424e-05 3.92455e-05 6.97698e-05 0.000109015 0.000156982 0.00021367 0.000279079 0.000348343 0.000416593 0.000483831 0.000550056 0.000615268 0.000679467 0.000742654 0.000804827 0.000852201 0.000870988 0.000861188 0.0008228 0.000755826 0.000660264 0.000536116 0.00038338 0.000204011 -3.60589e-08 -0.000228762 -0.000482167 -0.000760251 -0.00106301 -0.00139045 -0.00174258 -0.00209582 -0.00242665 -0.00273505 -0.00302103 -0.00328459 -0.00352573 -0.00374444 -0.00394073 -0.00409793 -0.00419934 -0.00424497 -0.00423483 -0.0041689 -0.0040472 -0.00386972 -0.00363646 -0.00336575 -0.00307592 -0.00276696 -0.00243889 -0.00209169 -0.00172537 -0.00133993 -0.000935361 -0.000547007 -0.000210196 7.50699e-05 0.000308793 0.000490971 0.000621606 0.000700698 0.000728245 0.000704475 0.000629613 0.000503659 0.000326615 9.84781e-05 -0.00018075 -0.000511069 -0.000892481 -0.00128979 -0.00166782 -0.00202656 -0.00236602 -0.00268619 -0.00298707 -0.00326867 -0.00353098 -0.00375638 -0.00392725 -0.00404358 -0.00410538 -0.00411264 -0.00406537 -0.00396357 -0.00380723 -0.00361307 -0.00339783 -0.00316149 -0.00290407 -0.00262555 -0.00232594 -0.00200524 -0.00166345 -0.00132329 -0.00100747 -0.000716005 -0.000448886 -0.000206114 1.23089e-05 0.000206384 0.000376112 0.000520041 0.00063672 0.00072615 0.00078833 0.000823261 0.000830942 0.000811373 0.000764555 0.000703806 0.000642443 0.000580467 0.000517878 0.000454676 0.000390861 0.000326433 0.000261392 0.000200128 0.000147033 0.000102106 6.53479e-05 3.67582e-05 1.6337e-05 4.08425e-06 0 0 5.2267e-06 2.09068e-05 4.70403e-05 8.36272e-05 0.000130667 0.000188161 0.000256108 0.000334509 0.000415899 0.000492815 0.000565258 0.000633226 0.000696721 0.000755741 0.000810288 0.000860361 0.00089072 0.000886124 0.000846574 0.00077207 0.000662611 0.000518199 0.000338831 0.00012451 -0.000120014 -0.00038999 -0.000685418 -0.0010063 -0.00135263 -0.00172441 -0.00212164 -0.00254433 -0.00296544 -0.00335797 -0.00372189 -0.00405723 -0.00436397 -0.00464212 -0.00489168 -0.00511264 -0.00528766 -0.0053994 -0.00544785 -0.00543301 -0.00535488 -0.00521347 -0.00500878 -0.0047408 -0.00443061 -0.00409929 -0.00374684 -0.00337327 -0.00297857 -0.00256274 -0.00212579 -0.0016677 -0.00122817 -0.000846871 -0.000523801 -0.000258963 -5.23545e-05 9.60227e-05 0.000186169 0.000218085 0.000191985 0.000108087 -3.36108e-05 -0.000233107 -0.000490403 -0.000805497 -0.00117839 -0.00160908 -0.00205806 -0.0024858 -0.00289232 -0.0032776 -0.00364165 -0.00398447 -0.00430605 -0.00460641 -0.0048652 -0.00506208 -0.00519706 -0.00527014 -0.00528132 -0.0052306 -0.00511797 -0.00494344 -0.00472445 -0.00447844 -0.00420542 -0.00390539 -0.00357834 -0.00322428 -0.0028432 -0.0024351 -0.00202612 -0.00164238 -0.00128388 -0.00095062 -0.0006426 -0.000359822 -0.000102284 0.000130013 0.000332986 0.000502551 0.000638708 0.000741458 0.0008108 0.000846733 0.000849259 0.000818378 0.00076886 0.000715477 0.000658229 0.000597116 0.000532139 0.000463296 0.000390589 0.000314017 0.00024042 0.000176635 0.000122663 7.85044e-05 4.41587e-05 1.96261e-05 4.90652e-06 0 0 6.1856e-06 2.47424e-05 5.56704e-05 9.89697e-05 0.00015464 0.000222682 0.000303095 0.000395879 0.000490474 0.000576319 0.000653415 0.000721761 0.000781358 0.000832205 0.000874303 0.000907651 0.000915575 0.000881402 0.000805131 0.000686762 0.000526296 0.000323732 7.90697e-05 -0.00020769 -0.000528371 -0.000874798 -0.00124697 -0.00164489 -0.00206855 -0.00251796 -0.00299311 -0.00349401 -0.00398995 -0.00445023 -0.00487486 -0.00526382 -0.00561713 -0.00593477 -0.00621676 -0.00646309 -0.00665603 -0.00677786 -0.00682858 -0.00680818 -0.00671668 -0.00655405 -0.00632032 -0.00601547 -0.00566351 -0.00528845 -0.00489029 -0.00446902 -0.00402465 -0.00355717 -0.00306659 -0.0025529 -0.00206024 -0.00163273 -0.00127037 -0.000973166 -0.00074111 -0.000574206 -0.000472453 -0.000435851 -0.000464204 -0.000557314 -0.000715181 -0.000937805 -0.00122519 -0.00157732 -0.00199422 -0.00247587 -0.00297834 -0.00345768 -0.00391388 -0.00434696 -0.00475692 -0.00514374 -0.00550743 -0.00584799 -0.0061422 -0.00636681 -0.00652184 -0.00660728 -0.00662312 -0.00656938 -0.00644605 -0.00625313 -0.00600851 -0.00573008 -0.00541784 -0.00507179 -0.00469193 -0.00427826 -0.00383078 -0.0033495 -0.00286415 -0.00240449 -0.00197053 -0.00156226 -0.00117969 -0.000822804 -0.000491612 -0.000186113 8.63758e-05 0.000318537 0.000510371 0.000661878 0.000773057 0.000843908 0.000874432 0.000864628 0.000830716 0.000788912 0.000739217 0.000681631 0.000616155 0.000542787 0.000461529 0.000372379 0.000285103 0.000209463 0.000145461 9.30948e-05 5.23658e-05 2.32737e-05 5.81843e-06 0 0 7.23732e-06 2.89493e-05 6.51359e-05 0.000115797 0.000180933 0.000260544 0.000354629 0.000463189 0.000572066 0.000667104 0.000748302 0.00081566 0.000869179 0.000908858 0.000934697 0.000946696 0.000926767 0.000856821 0.000736858 0.000566877 0.000346879 7.68631e-05 -0.00024317 -0.00061322 -0.00102106 -0.00145446 -0.00191342 -0.00239794 -0.00290802 -0.00344365 -0.00400485 -0.00459161 -0.00516934 -0.00570345 -0.00619394 -0.00664081 -0.00704406 -0.00740369 -0.0077197 -0.0079921 -0.00820305 -0.00833474 -0.00838718 -0.00836035 -0.00825427 -0.00806894 -0.00780434 -0.00746048 -0.00706448 -0.00664341 -0.0061973 -0.00572614 -0.00522992 -0.00470865 -0.00416233 -0.00359096 -0.00304322 -0.00256778 -0.00216465 -0.00183382 -0.0015753 -0.00138908 -0.00127517 -0.00123356 -0.00126409 -0.00136659 -0.00154105 -0.00178748 -0.00210587 -0.00249623 -0.00295856 -0.00349285 -0.00405063 -0.00458344 -0.00509127 -0.00557412 -0.00603199 -0.00646489 -0.0068728 -0.00725574 -0.00758739 -0.00784145 -0.00801791 -0.00811677 -0.00813805 -0.00808173 -0.00794781 -0.0077363 -0.00746525 -0.00715273 -0.00679874 -0.00640326 -0.00596632 -0.0054879 -0.004968 -0.00440663 -0.00383737 -0.00329382 -0.00277597 -0.00228382 -0.00181738 -0.00137664 -0.0009616 -0.000572267 -0.000219789 8.46795e-05 0.000341139 0.000549591 0.000710033 0.000822467 0.000886892 0.000903308 0.000889374 0.000862748 0.000823432 0.000771424 0.000706724 0.000629333 0.000539251 0.000436477 0.000334178 0.000245518 0.000170499 0.000109119 6.13796e-05 2.72798e-05 6.81996e-06 0 0 8.26741e-06 3.30696e-05 7.44067e-05 0.000132279 0.000206685 0.000297627 0.000405103 0.000529114 0.000651455 0.000753922 0.000836514 0.000899232 0.000942074 0.000965043 0.000968136 0.000951356 0.000896048 0.000783562 0.000613898 0.000387055 0.000103033 -0.000238167 -0.000636545 -0.0010921 -0.00158762 -0.00210589 -0.00264691 -0.00321068 -0.0037972 -0.00440647 -0.00503849 -0.00569326 -0.0063338 -0.00692316 -0.00746133 -0.00794831 -0.0083841 -0.0087687 -0.00910211 -0.00938433 -0.00959924 -0.00973075 -0.00977883 -0.0097435 -0.00962475 -0.00942259 -0.00913701 -0.00876802 -0.00834453 -0.00789547 -0.00742083 -0.00692063 -0.00639485 -0.0058435 -0.00526658 -0.00466409 -0.00408683 -0.00358561 -0.00316042 -0.00281127 -0.00253815 -0.00234107 -0.00222003 -0.00217502 -0.00220594 -0.00231267 -0.00249522 -0.00275357 -0.00308774 -0.00349772 -0.00398352 -0.00454513 -0.00513196 -0.00569343 -0.00622953 -0.00674027 -0.00722565 -0.00768566 -0.00812031 -0.0085296 -0.00888534 -0.00915936 -0.00935167 -0.00946226 -0.00949113 -0.00943828 -0.00930371 -0.00908742 -0.00880587 -0.00847551 -0.00809634 -0.00766835 -0.00719156 -0.00666595 -0.00609154 -0.00546831 -0.00483227 -0.0042194 -0.0036297 -0.00306318 -0.00251984 -0.00199966 -0.00150266 -0.00102884 -0.000594096 -0.000214337 0.000110435 0.000380221 0.000595021 0.000754835 0.000859663 0.000909505 0.000922653 0.000917399 0.000893744 0.000851688 0.000791231 0.000712372 0.000615111 0.00049945 0.000382391 0.00028094 0.000195098 0.000124862 7.02351e-05 3.12156e-05 7.8039e-06 0 0 9.16141e-06 3.66456e-05 8.24527e-05 0.000146582 0.000229035 0.000329811 0.000448909 0.00058633 0.00071942 0.000825526 0.000904647 0.000956784 0.000981936 0.000980104 0.000951287 0.000895486 0.000795169 0.000632805 0.000408394 0.000121937 -0.000226567 -0.000637117 -0.00110971 -0.00164436 -0.00221761 -0.00280603 -0.00340961 -0.00402837 -0.00466229 -0.00531137 -0.00597563 -0.00665505 -0.00731351 -0.00791489 -0.00845919 -0.00894641 -0.00937654 -0.0097496 -0.0100656 -0.0103245 -0.0105152 -0.0106266 -0.0106587 -0.0106116 -0.0104852 -0.0102795 -0.00999451 -0.00963025 -0.00921471 -0.00877591 -0.00831384 -0.00782851 -0.00731991 -0.00678804 -0.0062329 -0.0056545 -0.00510081 -0.00461981 -0.00421149 -0.00387586 -0.00361292 -0.00342266 -0.00330509 -0.00326021 -0.00328801 -0.0033885 -0.00356167 -0.00380753 -0.00412608 -0.0045173 -0.00498122 -0.00551782 -0.00607933 -0.00661796 -0.00713373 -0.00762663 -0.00809666 -0.00854381 -0.0089681 -0.00936952 -0.00972062 -0.00999396 -0.0101895 -0.0103074 -0.0103474 -0.0103097 -0.0101942 -0.010001 -0.00974156 -0.00942752 -0.00905886 -0.00863559 -0.0081577 -0.0076252 -0.00703809 -0.00639636 -0.00573532 -0.00509029 -0.00446126 -0.00384825 -0.00325123 -0.00267022 -0.00210522 -0.00155623 -0.00104513 -0.000593827 -0.000202319 0.000129395 0.000401315 0.00061344 0.000765772 0.000858309 0.000908371 0.000933277 0.000933027 0.00090762 0.000857058 0.00078134 0.000680465 0.000554434 0.000424489 0.000311869 0.000216576 0.000138609 7.79673e-05 3.46522e-05 8.66304e-06 0 0 9.91932e-06 3.96773e-05 8.92739e-05 0.000158709 0.000247983 0.000357095 0.000486047 0.000634836 0.000775961 0.000881916 0.000952701 0.000988317 0.000988763 0.00095404 0.000884148 0.000779086 0.000624129 0.000404549 0.000120347 -0.000228476 -0.000641922 -0.00111999 -0.00166268 -0.00226999 -0.00291102 -0.00355486 -0.00420152 -0.00485098 -0.00550327 -0.00615836 -0.00681627 -0.00747699 -0.00810846 -0.00867864 -0.00918753 -0.00963512 -0.0100214 -0.0103464 -0.0106101 -0.0108125 -0.0109508 -0.0110223 -0.0110269 -0.0109647 -0.0108356 -0.0106396 -0.0103768 -0.0100472 -0.00967503 -0.00928475 -0.00887633 -0.00844978 -0.00800508 -0.00754226 -0.0070613 -0.0065622 -0.00608516 -0.00567039 -0.00531786 -0.0050276 -0.00479959 -0.00463384 -0.00453035 -0.00448912 -0.0045103 -0.00459407 -0.00474042 -0.00494936 -0.00522087 -0.00555497 -0.00595166 -0.00641092 -0.00689273 -0.00735705 -0.00780387 -0.00823319 -0.00864501 -0.00903934 -0.00941618 -0.00977551 -0.0100932 -0.0103452 -0.0105315 -0.0106521 -0.0107069 -0.010696 -0.0106193 -0.010477 -0.0102723 -0.0100088 -0.00968631 -0.00930498 -0.00886476 -0.00836564 -0.00780764 -0.00719076 -0.00654652 -0.00590649 -0.00527065 -0.00463901 -0.00401157 -0.00338832 -0.00276927 -0.00215442 -0.00157289 -0.00105379 -0.000597122 -0.000202888 0.000128914 0.000398282 0.000605218 0.00074972 0.000846528 0.000910381 0.000941278 0.00093922 0.000904206 0.000836237 0.000735312 0.000601432 0.000460471 0.000338305 0.000234934 0.000150358 8.45763e-05 3.75895e-05 9.39737e-06 0 0 1.05411e-05 4.21646e-05 9.48703e-05 0.000168658 0.000263529 0.000379481 0.000516516 0.000674633 0.000821077 0.000923091 0.000980675 0.000993831 0.000962557 0.000886853 0.00076672 0.000602158 0.000382928 9.87949e-05 -0.000250243 -0.000664185 -0.00114303 -0.00168678 -0.00229544 -0.002969 -0.00366785 -0.00435239 -0.00502262 -0.0