<?xml version="1.0"?> 
<VTKFile type="StructuredGrid" version="0.1"> 
<StructuredGrid WholeExtent="0 128 0 128 0 0"> 
<Piece Extent="0 128 0 128 0 0"> 
<PointData>
<DataArray type="Float32" Name="u" format="ascii" NumberOfComponents="1"> 
0 0 0 0 0 0 0 0 0 0 0 0 0 0 0 0 0 0 0 0 0 0 0 0 0 0 0 0 0 0 0 0 0 0 0 0 0 0 0 0 0 0 0 0 0 0 0 0 0 0 0 0 0 0 0 0 0 0 0 0 0 0 0 0 0 0 0 0 0 0 0 0 0 0 0 0 0 0 0 0 0 0 0 0 0 0 0 0 0 0 0 0 0 0 0 0 0 0 0 0 0 0 0 0 0 0 0 0 0 0 0 0 0 0 0 0 0 0 0 0 0 0 0 0 0 0 0 0 0 0 5.08062e-07 2.03225e-06 4.57256e-06 8.129e-06 1.27016e-05 1.82902e-05 2.48951e-05 3.2516e-05 4.12409e-05 5.11577e-05 6.22664e-05 7.45669e-05 8.80594e-05 0.000102744 0.00011862 0.000135688 0.000153378 0.00017112 0.000188914 0.000206761 0.000224659 0.00024261 0.000260612 0.000278667 0.000296306 0.000313061 0.000328932 0.00034392 0.000358023 0.000371243 0.000383579 0.00039503 0.000405469 0.000414766 0.000422921 0.000429933 0.000435803 0.000440531 0.000444116 0.00044656 0.000447984 0.000448514 0.000448148 0.000446887 0.00044473 0.000441678 0.000437731 0.000432889 0.000427377 0.00042142 0.00041502 0.000408175 0.000400885 0.000393152 0.000384974 0.000376352 0.000367482 0.000358562 0.000349591 0.00034057 0.000331498 0.000322375 0.000313202 0.000303978 0.000294806 0.00028579 0.000276927 0.00026822 0.000259667 0.000251269 0.000243026 0.000234938 0.000227017 0.000219277 0.000211717 0.000204338 0.000197139 0.00019012 0.000183282 0.000176624 0.000170116 0.000163726 0.000157455 0.000151301 0.000145267 0.00013935 0.000133552 0.000127873 0.000122287 0.000116771 0.000111323 0.000105945 0.000100636 9.53958e-05 9.02251e-05 8.51235e-05 8.01021e-05 7.51718e-05 7.03328e-05 6.55849e-05 6.09282e-05 5.63627e-05 5.18883e-05 4.75051e-05 4.32595e-05 3.91976e-05 3.53196e-05 3.16254e-05 2.81151e-05 2.47886e-05 2.16459e-05 1.8687e-05 1.59428e-05 1.34442e-05 1.11912e-05 9.18373e-06 7.42184e-06 5.90552e-06 4.63477e-06 3.60959e-06 2.76359e-06 2.03039e-06 1.41e-06 9.02397e-07 5.07598e-07 2.25599e-07 5.63998e-08 0 0 2.03225e-06 8.129e-06 1.82902e-05 3.2516e-05 5.08062e-05 7.3161e-05 9.95802e-05 0.000130064 0.000164964 0.000204631 0.000249066 0.000298268 0.000352237 0.000410975 0.000474479 0.000542751 0.000613511 0.00068448 0.000755657 0.000827042 0.000898636 0.000970438 0.00104245 0.00111467 0.00118522 0.00125224 0.00131573 0.00137568 0.00143209 0.00148497 0.00153431 0.00158012 0.00162188 0.00165906 0.00169168 0.00171973 0.00174321 0.00176212 0.00177647 0.00178624 0.00179194 0.00179406 0.00179259 0.00178755 0.00177892 0.00176671 0.00175093 0.00173156 0.00170951 0.00168568 0.00166008 0.0016327 0.00160354 0.00157261 0.0015399 0.00150541 0.00146993 0.00143425 0.00139837 0.00136228 0.00132599 0.0012895 0.00125281 0.00121591 0.00117923 0.00114316 0.00110771 0.00107288 0.00103867 0.00100508 0.000972105 0.000939752 0.000908069 0.000877108 0.000846869 0.000817351 0.000788555 0.000760481 0.000733128 0.000706497 0.000680464 0.000654905 0.000629818 0.000605206 0.000581067 0.000557402 0.00053421 0.000511492 0.000489149 0.000467082 0.000445292 0.000423779 0.000402543 0.000381583 0.0003609 0.000340494 0.000320408 0.000300687 0.000281331 0.00026234 0.000243713 0.000225451 0.000207553 0.000190021 0.000173038 0.00015679 0.000141278 0.000126502 0.00011246 9.91542e-05 8.65834e-05 7.4748e-05 6.37713e-05 5.37769e-05 4.47648e-05 3.67349e-05 2.96874e-05 2.36221e-05 1.85391e-05 1.44384e-05 1.10544e-05 8.12157e-06 5.63998e-06 3.60959e-06 2.03039e-06 9.02397e-07 2.25599e-07 0 0 4.57256e-06 1.82902e-05 4.11531e-05 7.3161e-05 0.000114314 0.000164612 0.000224056 0.000292644 0.000371168 0.00046042 0.000560398 0.000671103 0.000792534 0.000924693 0.00106758 0.00122119 0.0013804 0.00154008 0.00170023 0.00186084 0.00202193 0.00218349 0.00234551 0.002508 0.00266675 0.00281755 0.00296039 0.00309528 0.00322221 0.00334118 0.00345221 0.00355527 0.00364922 0.00373289 0.00380628 0.0038694 0.00392223 0.00396478 0.00399705 0.00401904 0.00403186 0.00403662 0.00403333 0.00402198 0.00400257 0.00397511 0.00393958 0.003896 0.00384639 0.00379278 0.00373518 0.00367357 0.00360797 0.00353837 0.00346477 0.00338717 0.00330734 0.00322706 0.00314632 0.00306513 0.00298348 0.00290138 0.00281882 0.0027358 0.00265326 0.00257211 0.00249235 0.00241398 0.00233701 0.00226142 0.00218724 0.00211444 0.00204316 0.00197349 0.00190546 0.00183904 0.00177425 0.00171108 0.00164954 0.00158962 0.00153104 0.00147354 0.00141709 0.00136171 0.0013074 0.00125415 0.00120197 0.00115086 0.00110058 0.00105093 0.00100191 0.000953504 0.000905722 0.000858562 0.000812026 0.000766111 0.000720919 0.000676546 0.000632995 0.000590264 0.000548354 0.000507264 0.000466995 0.000427546 0.000389335 0.000352779 0.000317877 0.000284629 0.000253036 0.000223097 0.000194813 0.000168183 0.000143485 0.000120998 0.000100721 8.26536e-05 6.67966e-05 5.31497e-05 4.17129e-05 3.24863e-05 2.48723e-05 1.82735e-05 1.269e-05 8.12157e-06 4.56838e-06 2.03039e-06 5.07598e-07 0 0 8.129e-06 3.2516e-05 7.3161e-05 0.000130064 0.000203225 0.000292644 0.000398321 0.000520256 0.000659855 0.000818524 0.000996262 0.00119307 0.00140895 0.0016439 0.00189792 0.00217101 0.00245405 0.00273792 0.00302263 0.00330817 0.00359454 0.00388175 0.0041698 0.00445867 0.0047409 0.00500898 0.00526292 0.00550271 0.00572837 0.00593988 0.00613726 0.00632049 0.00648751 0.00663626 0.00676673 0.00687892 0.00697285 0.00704849 0.00710586 0.00714496 0.00716775 0.00717622 0.00717037 0.00715019 0.00711568 0.00706686 0.0070037 0.00692622 0.00683803 0.00674273 0.00664032 0.0065308 0.00641417 0.00629043 0.00615958 0.00602163 0.00587972 0.00573699 0.00559346 0.00544912 0.00530397 0.005158 0.00501123 0.00486365 0.0047169 0.00457263 0.00443084 0.00429152 0.00415468 0.00402031 0.00388842 0.00375901 0.00363228 0.00350843 0.00338748 0.00326941 0.00315422 0.00304192 0.00293251 0.00282599 0.00272186 0.00261962 0.00251927 0.00242082 0.00232427 0.00222961 0.00213684 0.00204597 0.00195659 0.00186833 0.00178117 0.00169512 0.00161017 0.00152633 0.0014436 0.00136198 0.00128163 0.00120275 0.00112532 0.00104936 0.000974851 0.000901802 0.000830213 0.000760082 0.000692151 0.000627162 0.000565114 0.000506007 0.000449841 0.000396617 0.000346334 0.000298992 0.000255085 0.000215108 0.000179059 0.00014694 0.000118749 9.44883e-05 7.41563e-05 5.77534e-05 4.42175e-05 3.24863e-05 2.25599e-05 1.44384e-05 8.12157e-06 3.60959e-06 9.02397e-07 0 0 1.27016e-05 5.08062e-05 0.000114314 0.000203225 0.000317539 0.000457256 0.000622376 0.0008129 0.00103102 0.00127894 0.00155666 0.00186417 0.00220148 0.00256859 0.00296549 0.0033922 0.00383445 0.004278 0.00472285 0.00516901 0.00561647 0.00606524 0.00651531 0.00696668 0.00740765 0.00782653 0.00822331 0.00859799 0.00895058 0.00928107 0.00958946 0.00987576 0.0101367 0.0103692 0.010573 0.0107483 0.0108951 0.0110133 0.0111029 0.011164 0.0111996 0.0112128 0.0112037 0.0111722 0.0111183 0.011042 0.0109433 0.0108222 0.0106844 0.0105355 0.0103755 0.0102044 0.0100221 0.0098288 0.00962435 0.0094088 0.00918706 0.00896405 0.00873978 0.00851425 0.00828745 0.00805938 0.00783005 0.00759946 0.00737016 0.00714474 0.00692318 0.0067055 0.00649168 0.00628174 0.00607566 0.00587345 0.00567543 0.00548193 0.00529293 0.00510845 0.00492847 0.00475301 0.00458205 0.00441561 0.0042529 0.00409315 0.00393637 0.00378254 0.00363167 0.00348376 0.00333881 0.00319682 0.00305718 0.00291926 0.00278308 0.00264862 0.00251589 0.0023849 0.00225563 0.00212809 0.00200255 0.0018793 0.00175832 0.00163962 0.0015232 0.00140907 0.00129721 0.00118763 0.00108149 0.000979941 0.00088299 0.000790636 0.000702877 0.000619714 0.000541146 0.000467175 0.000398571 0.000336106 0.00027978 0.000229593 0.000185546 0.000147638 0.000115869 9.02397e-05 6.90898e-05 5.07598e-05 3.52499e-05 2.25599e-05 1.269e-05 5.63998e-06 1.41e-06 0 0 1.82902e-05 7.3161e-05 0.000164612 0.000292644 0.000457256 0.000658449 0.000896222 0.00117058 0.00148467 0.00184168 0.00224159 0.00268441 0.00317014 0.00369877 0.00427031 0.00488476 0.0055216 0.00616032 0.00680091 0.00744338 0.00808772 0.00873394 0.00938204 0.010032 0.010667 0.0112702 0.0118416 0.0123811 0.0128888 0.0133647 0.0138088 0.0142211 0.0145969 0.0149316 0.0152251 0.0154776 0.0156889 0.0158591 0.0159882 0.0160762 0.0161274 0.0161465 0.0161333 0.0160879 0.0160103 0.0159004 0.0157583 0.015584 0.0153856 0.0151711 0.0149407 0.0146943 0.0144319 0.0141535 0.0138591 0.0135487 0.0132294 0.0129082 0.0125853 0.0122605 0.0119339 0.0116055 0.0112753 0.0109432 0.010613 0.0102884 0.00996938 0.00965592 0.00934802 0.0090457 0.00874895 0.00845777 0.00817263 0.00789398 0.00762182 0.00735616 0.007097 0.00684433 0.00659816 0.00635848 0.00612418 0.00589414 0.00566837 0.00544685 0.0052296 0.00501661 0.00480789 0.00460342 0.00440234 0.00420374 0.00400763 0.00381401 0.00362289 0.00343425 0.0032481 0.00306445 0.00288367 0.00270619 0.00253198 0.00236106 0.00219341 0.00202906 0.00186798 0.00171018 0.00155734 0.00141111 0.00127151 0.00113852 0.00101214 0.000892388 0.000779251 0.000672732 0.000573942 0.000483992 0.000402883 0.000330614 0.000267186 0.000212599 0.000166852 0.000129945 9.94893e-05 7.30942e-05 5.07598e-05 3.24863e-05 1.82735e-05 8.12157e-06 2.03039e-06 0 0 2.48951e-05 9.95802e-05 0.000224056 0.000398321 0.000622376 0.000896222 0.00121986 0.00159328 0.00202081 0.00250673 0.00305105 0.00365378 0.00431491 0.00503444 0.00581237 0.0066487 0.00751551 0.00838488 0.0092568 0.0101313 0.0110083 0.0118879 0.01277 0.0136547 0.014519 0.01534 0.0161177 0.0168521 0.0175431 0.0181909 0.0187953 0.0193565 0.019868 0.0203235 0.0207231 0.0210667 0.0213543 0.021586 0.0217617 0.0218814 0.0219512 0.0219772 0.0219592 0.0218974 0.0217918 0.0216422 0.0214488 0.0212116 0.0209415 0.0206496 0.020336 0.0200006 0.0196434 0.0192644 0.0188637 0.0184412 0.0180066 0.0175695 0.01713 0.0166879 0.0162434 0.0157964 0.0153469 0.0148949 0.0144455 0.0140037 0.0135694 0.0131428 0.0127237 0.0123122 0.0119083 0.011512 0.0111239 0.0107446 0.0103741 0.0100126 0.0096598 0.00931589 0.00898082 0.00865459 0.00833569 0.00802258 0.00771528 0.00741377 0.00711807 0.00682817 0.00654407 0.00626577 0.00599207 0.00572176 0.00545483 0.0051913 0.00493115 0.0046744 0.00442103 0.00417105 0.003925 0.00368342 0.00344631 0.00321366 0.00298548 0.00276177 0.00254253 0.00232775 0.00211971 0.00192068 0.00173066 0.00154965 0.00137764 0.00121464 0.00106065 0.000915662 0.000781198 0.000658767 0.000548368 0.000450003 0.00036367 0.000289371 0.000227104 0.00017687 0.000135416 9.94893e-05 6.90898e-05 4.42175e-05 2.48723e-05 1.10544e-05 2.76359e-06 0 0 3.2516e-05 0.000130064 0.000292644 0.000520256 0.0008129 0.00117058 0.00159328 0.00208102 0.00263942 0.00327409 0.00398505 0.00477228 0.0056358 0.00657559 0.00759167 0.00868402 0.00981618 0.0109517 0.0120905 0.0132327 0.0143782 0.015527 0.0166792 0.0178347 0.0189636 0.0200359 0.0210517 0.0220109 0.0229135 0.0237595 0.024549 0.0252819 0.02595 0.026545 0.0270669 0.0275157 0.0278914 0.028194 0.0284234 0.0285798 0.028671 0.0287049 0.0286815 0.0286007 0.0284627 0.0282674 0.0280148 0.0277049 0.0273521 0.0269709 0.0265613 0.0261232 0.0256567 0.0251617 0.0246383 0.0240865 0.0235189 0.022948 0.0223738 0.0217965 0.0212159 0.020632 0.0200449 0.0194546 0.0188676 0.0182905 0.0177233 0.0171661 0.0166187 0.0160812 0.0155537 0.015036 0.0145291 0.0140337 0.0135499 0.0130776 0.0126169 0.0121677 0.0117301 0.011304 0.0108874 0.0104785 0.0100771 0.00968329 0.00929707 0.00891843 0.00854736 0.00818387 0.00782638 0.00747331 0.00712468 0.00678047 0.00644069 0.00610533 0.0057744 0.0054479 0.00512653 0.004811 0.0045013 0.00419743 0.0038994 0.00360721 0.00332085 0.00304033 0.00276861 0.00250865 0.00226046 0.00202403 0.00179936 0.00158647 0.00138533 0.00119597 0.00102034 0.00086043 0.000716236 0.000587759 0.000474998 0.000377953 0.000296625 0.000231014 0.00017687 0.000129945 9.02397e-05 5.77534e-05 3.24863e-05 1.44384e-05 3.60959e-06 0 0 4.14307e-05 0.000165723 0.000372876 0.000662891 0.00103577 0.0014915 0.0020301 0.00265156 0.00336259 0.0041699 0.00507349 0.00607336 0.00716951 0.00836194 0.00965065 0.0110356 0.0124708 0.01391 0.0153532 0.0168004 0.0182517 0.019707 0.0211664 0.0226298 0.0240594 0.0254176 0.0267041 0.0279192 0.0290627 0.0301347 0.0311352 0.0320642 0.0329111 0.0336657 0.0343277 0.0348973 0.0353745 0.0357592 0.0360515 0.0362513 0.0363686 0.0364134 0.0363856 0.0362853 0.0361124 0.035867 0.035549 0.0351584 0.0347135 0.0342325 0.0337154 0.0331622 0.0325728 0.0319473 0.0312857 0.030588 0.02987 0.0291478 0.0284214 0.0276907 0.0269557 0.0262164 0.0254729 0.024725 0.0239813 0.02325 0.022531 0.0218245 0.0211304 0.0204486 0.0197793 0.0191224 0.0184789 0.01785 0.0172357 0.0166359 0.0160507 0.01548 0.0149239 0.0143823 0.0138528 0.0133329 0.0128226 0.0123219 0.0118308 0.0113493 0.0108774 0.0104152 0.0099605 0.0095115 0.00906815 0.00863046 0.00819842 0.00777204 0.00735131 0.00693624 0.00652771 0.00612661 0.00573294 0.0053467 0.00496789 0.00459651 0.00423256 0.00387604 0.00353068 0.00320021 0.00288462 0.00258393 0.00229813 0.00202721 0.00177119 0.00153005 0.00130631 0.00110248 0.000918567 0.00075456 0.000610464 0.000486279 0.000382003 0.000297639 0.00022788 0.000167422 0.000116265 7.44096e-05 4.18554e-05 1.86024e-05 4.6506e-06 0 0 5.19167e-05 0.000207667 0.00046725 0.000830666 0.00129792 0.001869 0.00254392 0.00332267 0.0042124 0.00522028 0.0063463 0.00759045 0.00895275 0.0104332 0.0120318 0.0137485 0.0155265 0.017309 0.0190959 0.0208874 0.0226833 0.0244836 0.0262884 0.0280977 0.0298652 0.0315445 0.0331357 0.0346388 0.0360538 0.0373806 0.0386193 0.0397699 0.0408194 0.041755 0.0425767 0.0432844 0.0438782 0.044358 0.0447239 0.0449759 0.045126 0.0451865 0.0451574 0.0450385 0.04483 0.0445318 0.044144 0.0436665 0.0431217 0.0425319 0.0418972 0.0412175 0.0404928 0.0397232 0.0389086 0.038049 0.0371641 0.0362735 0.0353771 0.034475 0.0335671 0.0326535 0.0317342 0.0308091 0.0298886 0.028983 0.0280924 0.0272168 0.026356 0.0255102 0.0246794 0.0238634 0.0230639 0.0222821 0.0215181 0.020772 0.0200436 0.019333 0.0186402 0.0179653 0.0173051 0.0166569 0.0160205 0.0153961 0.0147835 0.0141828 0.013594 0.0130171 0.0124497 0.0118894 0.0113362 0.0107902 0.0102513 0.0097195 0.00919483 0.0086773 0.00816797 0.00766794 0.00717721 0.00669577 0.00622364 0.00576079 0.00530725 0.004863 0.00443259 0.00402056 0.0036269 0.00325163 0.00289473 0.00255621 0.00223607 0.00193431 0.00165405 0.00139843 0.00116744 0.000961085 0.000779364 0.000622278 0.000489825 0.000382006 0.000292474 0.000214879 0.000149221 9.55016e-05 5.37197e-05 2.38754e-05 5.96885e-06 0 0 6.3974e-05 0.000255896 0.000575766 0.00102358 0.00159935 0.00230306 0.00313472 0.00409433 0.00518885 0.00642522 0.00780346 0.00932356 0.0109855 0.0127893 0.014735 0.0168225 0.0189833 0.0211488 0.0233188 0.0254935 0.0276728 0.0298567 0.0320453 0.0342385 0.0363809 0.0384169 0.0403465 0.0421697 0.0438866 0.0454971 0.0470013 0.0483991 0.0496749 0.0508131 0.0518138 0.0526769 0.0534024 0.0539903 0.0544407 0.0547535 0.0549432 0.0550243 0.0549967 0.0548605 0.0546156 0.0542621 0.0538 0.0532292 0.0525766 0.0518691 0.0511066 0.0502892 0.0494168 0.0484894 0.047507 0.0464697 0.0454011 0.0443249 0.043241 0.0421494 0.0410502 0.0399434 0.0388288 0.0377067 0.0365895 0.0354897 0.0344075 0.0333428 0.0322956 0.031266 0.0302538 0.0292591 0.0282839 0.0273299 0.0263972 0.0254858 0.0245956 0.0237268 0.0228792 0.0220529 0.0212445 0.0204505 0.0196709 0.0189058 0.0181551 0.0174189 0.016697 0.0159897 0.0152939 0.014607 0.0139289 0.0132597 0.0125993 0.0119477 0.011305 0.0106711 0.0100473 0.009435 0.00883411 0.00824466 0.00766665 0.00710007 0.00654493 0.00600122 0.00547434 0.0049697 0.0044873 0.00402712 0.00358918 0.00317347 0.00277999 0.00240875 0.00206356 0.00174827 0.00146286 0.00120733 0.000981698 0.000785951 0.00062009 0.000484117 0.000370652 0.000272316 0.000189108 0.000121029 6.8079e-05 3.02573e-05 7.56433e-06 0 0 7.76026e-05 0.00031041 0.000698424 0.00124164 0.00194007 0.00279369 0.00380253 0.00496657 0.00629193 0.00778474 0.00944498 0.0112727 0.0132678 0.0154304 0.0177604 0.0202578 0.0228413 0.0254293 0.0280218 0.0306188 0.0332203 0.0358264 0.038437 0.0410522 0.0436065 0.0460345 0.0483363 0.0505119 0.0525612 0.0544843 0.0562811 0.0579517 0.0594775 0.06084 0.062039 0.0630748 0.0639472 0.0646562 0.0652019 0.0655842 0.0658201 0.0659266 0.0659036 0.0657511 0.0654691 0.0650577 0.0645168 0.0638465 0.0630783 0.0622441 0.0613437 0.0603772 0.0593446 0.0582459 0.057081 0.0558501 0.0545811 0.053302 0.052013 0.050714 0.049405 0.0480859 0.0467569 0.0454179 0.0440839 0.0427701 0.0414763 0.0402027 0.0389493 0.0377159 0.0365027 0.0353095 0.034139 0.0329934 0.0318729 0.0307773 0.0297068 0.0286613 0.0276408 0.0266452 0.0256709 0.0247137 0.0237738 0.0228511 0.0219457 0.0210575 0.0201866 0.0193329 0.0184932 0.0176643 0.0168462 0.0160389 0.0152424 0.0144567 0.0136817 0.0129176 0.0121658 0.0114278 0.0107036 0.00999336 0.00929693 0.00861434 0.00794559 0.00729069 0.00665594 0.00604764 0.0054658 0.00491041 0.00438147 0.00387898 0.00340295 0.00295336 0.00253484 0.00215199 0.00180481 0.0014933 0.00121747 0.000977298 0.000772799 0.000603971 0.000462416 0.000339734 0.000235926 0.000150993 8.49335e-05 3.77482e-05 9.43705e-06 0 0 9.28026e-05 0.00037121 0.000835223 0.00148484 0.00232006 0.00334089 0.00454733 0.00593937 0.00752165 0.00929882 0.0112709 0.0134378 0.0157996 0.0183563 0.0211079 0.0240544 0.0271003 0.0301505 0.0332048 0.0362633 0.0393259 0.0423927 0.0454636 0.0485387 0.051542 0.0543975 0.0571053 0.0596653 0.0620776 0.0643421 0.0664589 0.0684278 0.0702273 0.0718355 0.0732525 0.0744781 0.0755125 0.0763556 0.0770074 0.077468 0.0777568 0.0778935 0.077878 0.0777104 0.0773906 0.0769187 0.0762946 0.0755183 0.0746268 0.0736568 0.0726084 0.0714816 0.0702763 0.0689927 0.0676306 0.06619 0.0647039 0.063205 0.0616932 0.0601687 0.0586314 0.0570813 0.0555184 0.0539427 0.052372 0.050824 0.0492989 0.0477965 0.0463168 0.04486 0.0434259 0.0420146 0.0406292 0.0392727 0.0379452 0.0366467 0.0353771 0.0341365 0.0329249 0.0317422 0.0305842 0.0294465 0.0283291 0.027232 0.0261552 0.0250988 0.0240626 0.0230467 0.0220475 0.0210613 0.0200881 0.0191279 0.0181806 0.0172464 0.0163251 0.0154168 0.0145233 0.0136463 0.0127858 0.0119419 0.0111145 0.0103036 0.00950924 0.00873142 0.00797738 0.00725437 0.00656241 0.00590148 0.0052716 0.00467275 0.00410493 0.00356816 0.00306789 0.00260961 0.00219332 0.001819 0.00148667 0.00119632 0.000947952 0.000741568 0.000567763 0.000417132 0.000289675 0.000185392 0.000104283 4.6348e-05 1.1587e-05 0 0 0.000109574 0.000438296 0.000986165 0.00175318 0.00273935 0.00394466 0.00536912 0.00701273 0.008878 0.0109675 0.0132811 0.0158189 0.018581 0.0215672 0.0247775 0.0282121 0.0317605 0.0353125 0.0388679 0.0424269 0.0459894 0.0495554 0.053125 0.056698 0.0601874 0.0635059 0.0666534 0.06963 0.0724358 0.0750706 0.0775345 0.0798275 0.0819243 0.0837998 0.085454 0.0868869 0.0880984 0.0890885 0.0898573 0.0904048 0.0907533 0.090925 0.0909201 0.0907384 0.0903801 0.089845 0.0891333 0.0882448 0.087222 0.0861074 0.0849008 0.0836023 0.082212 0.0807298 0.0791556 0.0774896 0.0757696 0.0740336 0.0722816 0.0705135 0.0687295 0.0669293 0.0651132 0.063281 0.0614536 0.0596516 0.0578751 0.056124 0.0543984 0.0526983 0.0510236 0.0493744 0.0477545 0.0461678 0.0446142 0.0430938 0.0416066 0.0401525 0.0387316 0.0373439 0.0359846 0.0346489 0.0333369 0.0320485 0.0307837 0.0295426 0.0283251 0.0271312 0.0259569 0.0247981 0.0236546 0.0225266 0.021414 0.0203168 0.0192351 0.0181687 0.0171199 0.0160905 0.0150806 0.0140902 0.0131193 0.0121678 0.0112359 0.0103234 0.00943865 0.0085899 0.00777713 0.00700036 0.00625957 0.00555477 0.00488596 0.00425313 0.00366272 0.00312113 0.00262836 0.00218442 0.0017893 0.00144301 0.00114555 0.000896908 0.000686695 0.000504511 0.000350355 0.000224227 0.000126128 5.60568e-05 1.40142e-05 0 0 0.000127917 0.000511666 0.00115125 0.00204666 0.00319791 0.004605 0.00626791 0.00818666 0.010361 0.0127907 0.0154757 0.0184161 0.0216118 0.0250629 0.0287693 0.0327311 0.0368218 0.0409152 0.0450112 0.0491098 0.053211 0.0573148 0.0614212 0.0655303 0.0695428 0.0733595 0.0769806 0.080406 0.0836357 0.0866697 0.089508 0.0921505 0.0945685 0.0967329 0.0986437 0.100301 0.101705 0.102855 0.103752 0.104395 0.10481 0.105021 0.10503 0.104835 0.104437 0.103837 0.103033 0.102026 0.100864 0.0995957 0.0982208 0.0967394 0.0951516 0.0934572 0.0916563 0.0897488 0.0877783 0.0857881 0.0837781 0.0817485 0.0796992 0.0776301 0.0755414 0.073433 0.0713288 0.0692528 0.067205 0.0651854 0.063194 0.0612307 0.0592957 0.0573888 0.0555149 0.0536785 0.0518798 0.0501187 0.0483951 0.0467092 0.0450609 0.0434502 0.0418719 0.0403209 0.0387971 0.0373005 0.0358311 0.034389 0.0329741 0.0315864 0.0302214 0.0288745 0.0275457 0.026235 0.0249425 0.023668 0.0224117 0.0211734 0.0199556 0.0187605 0.017588 0.0164383 0.0153114 0.0142071 0.0131255 0.0120666 0.0110398 0.0100542 0.00910997 0.00820702 0.00734538 0.00652505 0.00574601 0.00500829 0.00431931 0.00368653 0.00310995 0.00258956 0.00212537 0.00171738 0.00136559 0.00106999 0.000819212 0.00060187 0.000417965 0.000267498 0.000150467 6.68744e-05 1.67186e-05 0 0 0.000147831 0.000591322 0.00133047 0.00236529 0.00369576 0.0053219 0.00724369 0.00946115 0.0119706 0.0147685 0.0178547 0.0212293 0.0248922 0.0288435 0.0330832 0.0376113 0.0422842 0.0469586 0.0516345 0.0563118 0.0609905 0.0656707 0.0703523 0.0750353 0.079608 0.0839586 0.088087 0.0919933 0.0956774 0.0991395 0.102379 0.105397 0.10816 0.110635 0.112822 0.114721 0.116332 0.117655 0.11869 0.119438 0.119925 0.120182 0.120207 0.120001 0.119563 0.118894 0.117993 0.116861 0.115553 0.114122 0.112568 0.110893 0.109095 0.107175 0.105132 0.102968 0.10073 0.0984683 0.0961828 0.0938736 0.0915406 0.0891837 0.086803 0.0843985 0.0819976 0.0796276 0.0772886 0.0749806 0.0727035 0.0704574 0.0682422 0.066058 0.0639104 0.0618051 0.059742 0.0577213 0.0557428 0.0538067 0.0519128 0.0500612 0.0482463 0.0464625 0.0447097 0.042988 0.0412975 0.039638 0.0380095 0.0364122 0.0348409 0.0332906 0.0317614 0.0302532 0.0287661 0.0272999 0.0258549 0.0244308 0.0230304 0.0216561 0.0203081 0.0189863 0.0176907 0.0164213 0.0151781 0.0139611 0.0127807 0.0116473 0.0105609 0.00952148 0.00852904 0.00758358 0.00668511 0.00583362 0.00503767 0.00430582 0.00363807 0.00303443 0.00249487 0.00201942 0.00160807 0.00126082 0.000965313 0.000709209 0.000492507 0.000315204 0.000177302 7.88011e-05 1.97003e-05 0 0 0.00016902 0.00067608 0.00152118 0.00270432 0.0042255 0.00608472 0.00828199 0.0108173 0.013683 0.0168716 0.0203829 0.0242171 0.028374 0.0328538 0.0376564 0.0427818 0.0480686 0.0533554 0.0586421 0.0639287 0.0692154 0.0745019 0.0797885 0.0850749 0.0902365 0.0951482 0.0998102 0.104222 0.108385 0.112297 0.11596 0.119373 0.122499 0.125301 0.12778 0.129935 0.131766 0.133273 0.134456 0.135316 0.135883 0.136189 0.136234 0.136018 0.135541 0.134803 0.133804 0.132544 0.131084 0.129485 0.127747 0.125869 0.123853 0.121698 0.119404 0.116971 0.114454 0.111909 0.109336 0.106734 0.104103 0.101445 0.0987577 0.0960422 0.0933295 0.0906503 0.0880048 0.085393 0.0828148 0.0802702 0.0777593 0.075282 0.0728451 0.0704552 0.0681125 0.0658168 0.0635682 0.0613667 0.0592122 0.0571049 0.0550386 0.0530075 0.0510115 0.0490506 0.0471248 0.0452341 0.0433786 0.0415581 0.0397673 0.0380007 0.0362583 0.0345399 0.0328458 0.0311758 0.02953 0.0279083 0.0263137 0.024749 0.0232143 0.0217094 0.0202345 0.0187896 0.0173745 0.0159894 0.0146457 0.013355 0.0121172 0.0109323 0.00980043 0.00872147 0.00769547 0.00672241 0.00581204 0.00497412 0.00420866 0.00351563 0.00289506 0.00234693 0.00187126 0.00146803 0.00112396 0.000825765 0.000573448 0.000367007 0.000206441 9.17516e-05 2.29379e-05 0 0 0.00019119 0.000764759 0.00172071 0.00305903 0.00477974 0.00688283 0.00936829 0.0122361 0.0154743 0.0190707 0.0230253 0.0273382 0.0320092 0.0370386 0.0424261 0.0481719 0.0540959 0.060018 0.0659382 0.0718565 0.0777729 0.0836874 0.0896001 0.0955108 0.101282 0.106774 0.111988 0.116924 0.121581 0.12596 0.130061 0.133884 0.137387 0.140529 0.143311 0.145732 0.147793 0.149493 0.150832 0.15181 0.152463 0.152823 0.152893 0.15267 0.152156 0.151351 0.150254 0.148865 0.147252 0.145483 0.143558 0.141476 0.139238 0.136843 0.134292 0.131584 0.128781 0.125945 0.123076 0.120173 0.117237 0.114268 0.111265 0.108229 0.105194 0.102195 0.0992324 0.0963059 0.0934155 0.0905613 0.0877431 0.0849611 0.0822231 0.0795369 0.0769027 0.0743202 0.0717897 0.069311 0.0668842 0.0645093 0.0621799 0.0598898 0.0576389 0.0554274 0.0532551 0.051122 0.0490283 0.0469738 0.0449526 0.042959 0.0409927 0.039054 0.0371427 0.0352588 0.0334024 0.0315734 0.0297751 0.0280106 0.02628 0.0245831 0.0229201 0.0212909 0.0196955 0.0181339 0.0166188 0.0151628 0.0137659 0.0124281 0.0111494 0.00992983 0.00876933 0.00766793 0.00663666 0.00568655 0.0048176 0.00402981 0.00332318 0.00269771 0.0021534 0.00169026 0.0012941 0.000950771 0.000660257 0.000422565 0.000237693 0.000105641 2.64103e-05 0 0 0.000214339 0.000857357 0.00192905 0.00342943 0.00535848 0.00771621 0.0105026 0.0137177 0.0173445 0.0213658 0.0257819 0.0305925 0.0357978 0.0413977 0.0473923 0.0537815 0.060366 0.0669464 0.0735227 0.080095 0.0866631 0.0932272 0.0997871 0.106343 0.112743 0.118835 0.12462 0.130097 0.135267 0.140129 0.144683 0.14893 0.152824 0.156319 0.159415 0.162114 0.164413 0.166315 0.167817 0.168922 0.169665 0.170086 0.170183 0.169958 0.169409 0.168537 0.167343 0.165825 0.164059 0.162118 0.160002 0.157712 0.155248 0.152608 0.149795 0.146806 0.143711 0.140577 0.137405 0.134193 0.130942 0.127653 0.124325 0.120958 0.117591 0.114262 0.110971 0.107719 0.104506 0.101331 0.0981937 0.0950953 0.0920444 0.0890502 0.0861126 0.0832316 0.0804073 0.0776397 0.0749287 0.0722743 0.0696701 0.0671093 0.0645921 0.0621185 0.0596883 0.0573017 0.0549586 0.0526591 0.0503968 0.0481654 0.0459649 0.0437953 0.0416566 0.0395489 0.037472 0.0354261 0.0334146 0.031441 0.0295052 0.0276074 0.0257474 0.0239253 0.0221411 0.0203948 0.0187002 0.017071 0.0155072 0.0140089 0.0125761 0.0112087 0.0099067 0.00867019 0.00751152 0.00644309 0.00546489 0.00457694 0.00377923 0.00307175 0.00245451 0.00192751 0.00147575 0.00108423 0.000752935 0.000481879 0.000271057 0.00012047 3.01174e-05 0 0 0.000238469 0.000953874 0.00214622 0.0038155 0.00596171 0.00858487 0.011685 0.015262 0.0192935 0.023757 0.0286526 0.0339801 0.0397397 0.0459313 0.052555 0.0596106 0.066879 0.0741407 0.0813958 0.0886442 0.095886 0.103121 0.11035 0.117572 0.124621 0.131333 0.137707 0.143744 0.149442 0.154803 0.159826 0.164511 0.168809 0.172669 0.176093 0.179078 0.181627 0.183739 0.185413 0.18665 0.18749 0.187976 0.188105 0.18788 0.187299 0.186363 0.185071 0.183424 0.181503 0.179388 0.17708 0.174578 0.171883 0.168995 0.165913 0.162638 0.159244 0.155805 0.152321 0.148792 0.145219 0.141601 0.137938 0.13423 0.13052 0.126851 0.123222 0.119633 0.116085 0.112578 0.109111 0.105685 0.102309 0.098995 0.0957423 0.092551 0.0894212 0.0863527 0.0833457 0.0804001 0.0775092 0.0746662 0.0718711 0.0691239 0.0664246 0.0637732 0.0611697 0.0586141 0.0560998 0.0536199 0.0511747 0.0487639 0.0463877 0.0440461 0.041739 0.0394664 0.0372321 0.03504 0.03289 0.0307822 0.0287164 0.0266928 0.0247113 0.022772 0.0208897 0.0190793 0.017341 0.0156747 0.0140803 0.012558 0.0111076 0.00972918 0.00843663 0.00724375 0.00615055 0.00515704 0.00426321 0.00346905 0.00277458 0.00217979 0.00166891 0.00122613 0.000851482 0.000544949 0.000306534 0.000136237 3.40593e-05 0 0 0.000263578 0.00105431 0.0023722 0.00421725 0.00658945 0.00948881 0.0129153 0.016869 0.0213214 0.0262443 0.0316375 0.0375011 0.043835 0.0506394 0.0579141 0.0656593 0.0736348 0.0816008 0.0895573 0.0975042 0.105442 0.113369 0.121288 0.129196 0.136916 0.144267 0.151249 0.157862 0.164106 0.169982 0.175489 0.180627 0.185343 0.189581 0.193342 0.196627 0.199434 0.201765 0.203618 0.204995 0.205938 0.206493 0.20666 0.206437 0.205827 0.204827 0.203439 0.201662 0.199585 0.197294 0.194791 0.192074 0.189145 0.186003 0.182647 0.179079 0.175379 0.171628 0.167825 0.163971 0.160066 0.15611 0.152103 0.148045 0.143982 0.139962 0.135984 0.132048 0.128155 0.124304 0.120495 0.116729 0.113017 0.109371 0.105792 0.102278 0.0988311 0.0954501 0.0921353 0.0888866 0.0856973 0.0825603 0.0794757 0.0764436 0.0734638 0.0705364 0.0676614 0.0648388 0.0620616 0.0593227 0.0566221 0.0539599 0.0513359 0.0487504 0.0462031 0.0436942 0.0412277 0.0388078 0.0364344 0.0341075 0.0318272 0.0295934 0.0274061 0.0252654 0.0231873 0.021188 0.0192673 0.0174254 0.0156622 0.0139777 0.012372 0.0108449 0.00941198 0.00808853 0.00687457 0.0057701 0.00477512 0.00388962 0.00311362 0.0024471 0.00187356 0.00137649 0.000955898 0.000611774 0.000344123 0.000152944 3.82359e-05 0 0 0.000289667 0.00115867 0.00260701 0.00463468 0.00724168 0.010428 0.0141937 0.0185387 0.0234282 0.0288275 0.0347365 0.0411552 0.0480837 0.0555219 0.0634698 0.0719274 0.0806335 0.0893268 0.0980072 0.106675 0.11533 0.123972 0.132601 0.141217 0.149627 0.157636 0.165245 0.172453 0.17926 0.185667 0.191673 0.197279 0.202425 0.207054 0.211165 0.214759 0.217835 0.220393 0.222433 0.223956 0.225009 0.225639 0.225846 0.22563 0.224991 0.22393 0.222446 0.220539 0.218304 0.215836 0.213135 0.2102 0.207033 0.203632 0.199997 0.19613 0.192117 0.188046 0.183917 0.17973 0.175485 0.171182 0.166821 0.162402 0.157976 0.153595 0.149257 0.144963 0.140713 0.136508 0.132346 0.128228 0.124168 0.120179 0.116261 0.112414 0.108637 0.104932 0.101297 0.0977338 0.0942343 0.0907917 0.0874061 0.0840775 0.080806 0.0775914 0.0744338 0.0713332 0.0682822 0.0652736 0.0623072 0.0593831 0.0565013 0.0536618 0.0508645 0.0481096 0.0454014 0.0427443 0.0401383 0.0375834 0.0350797 0.032627 0.0302255 0.0278752 0.0255932 0.0233968 0.0212861 0.0192611 0.0173217 0.0154679 0.0136998 0.0120174 0.0104376 0.00897743 0.00763695 0.00641613 0.00531496 0.00433346 0.00347161 0.00272942 0.00208972 0.0015353 0.00106618 0.000682356 0.000383825 0.000170589 4.26473e-05 0 0 0.000316737 0.00126695 0.00285063 0.00506779 0.00791841 0.0114025 0.0155201 0.0202711 0.025614 0.0315068 0.0379497 0.0449427 0.0524857 0.0605788 0.0692219 0.0784151 0.087875 0.0973186 0.106746 0.116156 0.125551 0.134928 0.14429 0.153635 0.162755 0.171442 0.179695 0.187516 0.194903 0.201857 0.208378 0.214465 0.220056 0.225088 0.229561 0.233474 0.236828 0.239623