<?xml version="1.0"?> 
<VTKFile type="StructuredGrid" version="0.1"> 
<StructuredGrid WholeExtent="0 128 0 128 0 0"> 
<Piece Extent="0 128 0 128 0 0"> 
<PointData>
<DataArray type="Float32" Name="u" format="ascii" NumberOfComponents="1"> 
0 0 0 0 0 0 0 0 0 0 0 0 0 0 0 0 0 0 0 0 0 0 0 0 0 0 0 0 0 0 0 0 0 0 0 0 0 0 0 0 0 0 0 0 0 0 0 0 0 0 0 0 0 0 0 0 0 0 0 0 0 0 0 0 0 0 0 0 0 0 0 0 0 0 0 0 0 0 0 0 0 0 0 0 0 0 0 0 0 0 0 0 0 0 0 0 0 0 0 0 0 0 0 0 0 0 0 0 0 0 0 0 0 0 0 0 0 0 0 0 0 0 0 0 0 0 0 0 0 0 -2.05737e-07 -8.22948e-07 -1.85163e-06 -3.29179e-06 -5.14342e-06 -7.40653e-06 -1.00811e-05 -1.31672e-05 -1.6485e-05 -1.98549e-05 -2.3277e-05 -2.67511e-05 -3.02773e-05 -3.38556e-05 -3.7486e-05 -4.11684e-05 -4.4682e-05 -4.78055e-05 -5.0539e-05 -5.28824e-05 -5.48359e-05 -5.63994e-05 -5.75728e-05 -5.83563e-05 -5.88247e-05 -5.90531e-05 -5.90416e-05 -5.87901e-05 -5.82986e-05 -5.75671e-05 -5.65956e-05 -5.53842e-05 -5.41612e-05 -5.3155e-05 -5.23657e-05 -5.17932e-05 -5.14376e-05 -5.12989e-05 -5.1377e-05 -5.1672e-05 -5.22605e-05 -5.32192e-05 -5.45483e-05 -5.62476e-05 -5.83171e-05 -6.07569e-05 -6.3567e-05 -6.67473e-05 -7.01109e-05 -7.3471e-05 -7.68275e-05 -8.01804e-05 -8.35298e-05 -8.68755e-05 -9.02177e-05 -9.35564e-05 -9.66637e-05 -9.93119e-05 -0.000101501 -0.000103231 -0.000104502 -0.000105314 -0.000105667 -0.000105561 -0.000105009 -0.000104026 -0.00010261 -0.000100763 -9.84842e-05 -9.57733e-05 -9.26306e-05 -8.9056e-05 -8.52817e-05 -8.154e-05 -7.78308e-05 -7.41541e-05 -7.05099e-05 -6.68983e-05 -6.33192e-05 -5.97726e-05 -5.64216e-05 -5.34296e-05 -5.07964e-05 -4.85221e-05 -4.66066e-05 -4.505e-05 -4.38523e-05 -4.30134e-05 -4.24523e-05 -4.20878e-05 -4.19199e-05 -4.19486e-05 -4.21739e-05 -4.25958e-05 -4.32143e-05 -4.40295e-05 -4.48491e-05 -4.5481e-05 -4.59253e-05 -4.61819e-05 -4.62508e-05 -4.61321e-05 -4.58256e-05 -4.53316e-05 -4.45987e-05 -4.35762e-05 -4.22638e-05 -4.06618e-05 -3.87699e-05 -3.65883e-05 -3.4117e-05 -3.13559e-05 -2.84773e-05 -2.56538e-05 -2.28851e-05 -2.01714e-05 -1.75126e-05 -1.49088e-05 -1.23599e-05 -9.86595e-06 -7.55362e-06 -5.5496e-06 -3.85389e-06 -2.46649e-06 -1.3874e-06 -6.16622e-07 -1.54156e-07 0 0 -8.22948e-07 -3.29179e-06 -7.40653e-06 -1.31672e-05 -2.05737e-05 -2.96261e-05 -4.03244e-05 -5.26687e-05 -6.594e-05 -7.94197e-05 -9.31078e-05 -0.000107004 -0.000121109 -0.000135422 -0.000149944 -0.000164674 -0.000178728 -0.000191222 -0.000202156 -0.00021153 -0.000219344 -0.000225597 -0.000230291 -0.000233425 -0.000235299 -0.000236213 -0.000236166 -0.00023516 -0.000233194 -0.000230268 -0.000226383 -0.000221537 -0.000216645 -0.00021262 -0.000209463 -0.000207173 -0.000205751 -0.000205196 -0.000205508 -0.000206688 -0.000209042 -0.000212877 -0.000218193 -0.00022499 -0.000233268 -0.000243028 -0.000254268 -0.000266989 -0.000280444 -0.000293884 -0.00030731 -0.000320722 -0.000334119 -0.000347502 -0.000360871 -0.000374225 -0.000386655 -0.000397248 -0.000406004 -0.000412925 -0.000418009 -0.000421257 -0.000422668 -0.000422244 -0.000420037 -0.000416103 -0.000410442 -0.000403053 -0.000393937 -0.000383093 -0.000370522 -0.000356224 -0.000341127 -0.00032616 -0.000311323 -0.000296616 -0.00028204 -0.000267593 -0.000253277 -0.00023909 -0.000225687 -0.000213718 -0.000203186 -0.000194088 -0.000186426 -0.0001802 -0.000175409 -0.000172054 -0.000169809 -0.000168351 -0.000167679 -0.000167794 -0.000168696 -0.000170383 -0.000172857 -0.000176118 -0.000179396 -0.000181924 -0.000183701 -0.000184728 -0.000185003 -0.000184528 -0.000183303 -0.000181326 -0.000178395 -0.000174305 -0.000169055 -0.000162647 -0.00015508 -0.000146353 -0.000136468 -0.000125423 -0.000113909 -0.000102615 -9.15405e-05 -8.06856e-05 -7.00505e-05 -5.96352e-05 -4.94396e-05 -3.94638e-05 -3.02145e-05 -2.21984e-05 -1.54156e-05 -9.86595e-06 -5.5496e-06 -2.46649e-06 -6.16622e-07 0 0 -1.85163e-06 -7.40653e-06 -1.66647e-05 -2.96261e-05 -4.62908e-05 -6.66588e-05 -9.073e-05 -0.000118504 -0.000148365 -0.000178694 -0.000209493 -0.00024076 -0.000272495 -0.0003047 -0.000337374 -0.000370516 -0.000402138 -0.000430249 -0.000454851 -0.000475942 -0.000493523 -0.000507594 -0.000518155 -0.000525206 -0.000529422 -0.000531478 -0.000531375 -0.000529111 -0.000524687 -0.000518104 -0.000509361 -0.000498458 -0.000487451 -0.000478395 -0.000471291 -0.000466139 -0.000462939 -0.00046169 -0.000462393 -0.000465048 -0.000470344 -0.000478973 -0.000490934 -0.000506228 -0.000524854 -0.000546812 -0.000572103 -0.000600725 -0.000630998 -0.000661239 -0.000691447 -0.000721624 -0.000751768 -0.00078188 -0.00081196 -0.000842007 -0.000869973 -0.000893807 -0.00091351 -0.00092908 -0.00094052 -0.000947827 -0.000951003 -0.000950048 -0.000945083 -0.000936232 -0.000923494 -0.000906869 -0.000886358 -0.00086196 -0.000833675 -0.000801504 -0.000767536 -0.00073386 -0.000700477 -0.000667387 -0.000634589 -0.000602085 -0.000569872 -0.000537953 -0.000507795 -0.000480866 -0.000457168 -0.000436699 -0.00041946 -0.00040545 -0.000394671 -0.000387121 -0.000382071 -0.00037879 -0.000377279 -0.000377537 -0.000379565 -0.000383362 -0.000388929 -0.000396265 -0.000403642 -0.000409329 -0.000413328 -0.000415637 -0.000416257 -0.000415189 -0.000412431 -0.000407984 -0.000401389 -0.000392186 -0.000380375 -0.000365956 -0.000348929 -0.000329295 -0.000307053 -0.000282203 -0.000256296 -0.000230884 -0.000205966 -0.000181543 -0.000157614 -0.000134179 -0.000111239 -8.87936e-05 -6.79826e-05 -4.99464e-05 -3.4685e-05 -2.21984e-05 -1.24866e-05 -5.5496e-06 -1.3874e-06 0 0 -3.29179e-06 -1.31672e-05 -2.96261e-05 -5.26687e-05 -8.22948e-05 -0.000118504 -0.000161298 -0.000210675 -0.00026376 -0.000317679 -0.000372431 -0.000428017 -0.000484436 -0.000541689 -0.000599775 -0.000658695 -0.000714911 -0.000764887 -0.000808623 -0.000846119 -0.000877375 -0.00090239 -0.000921165 -0.0009337 -0.000941195 -0.00094485 -0.000944666 -0.000940642 -0.000932778 -0.000921074 -0.00090553 -0.000886147 -0.000866579 -0.00085048 -0.000837851 -0.000828692 -0.000823002 -0.000820782 -0.000822032 -0.000826751 -0.000836168 -0.000851508 -0.000872772 -0.000899961 -0.000933074 -0.00097211 -0.00101707 -0.00106796 -0.00112177 -0.00117554 -0.00122924 -0.00128289 -0.00133648 -0.00139001 -0.00144348 -0.0014969 -0.00154662 -0.00158899 -0.00162402 -0.0016517 -0.00167204 -0.00168503 -0.00169067 -0.00168897 -0.00168015 -0.00166441 -0.00164177 -0.00161221 -0.00157575 -0.00153237 -0.00148209 -0.0014249 -0.00136451 -0.00130464 -0.00124529 -0.00118647 -0.00112816 -0.00107037 -0.00101311 -0.000956361 -0.000902746 -0.000854873 -0.000812742 -0.000776353 -0.000745706 -0.0007208 -0.000701637 -0.000688215 -0.000679237 -0.000673404 -0.000670718 -0.000671177 -0.000674782 -0.000681533 -0.000691429 -0.000704472 -0.000717586 -0.000727697 -0.000734805 -0.00073891 -0.000740013 -0.000738113 -0.00073321 -0.000725305 -0.00071358 -0.000697219 -0.000676222 -0.000650588 -0.000620319 -0.000585413 -0.000545872 -0.000501694 -0.000455638 -0.00041046 -0.000366162 -0.000322743 -0.000280202 -0.000238541 -0.000197759 -0.000157855 -0.000120858 -8.87936e-05 -6.16622e-05 -3.94638e-05 -2.21984e-05 -9.86595e-06 -2.46649e-06 0 0 -5.14342e-06 -2.05737e-05 -4.62908e-05 -8.22948e-05 -0.000128586 -0.000185163 -0.000252028 -0.000329179 -0.000412125 -0.000496373 -0.000581924 -0.000668777 -0.000756932 -0.000846389 -0.000937149 -0.00102921 -0.00111705 -0.00119514 -0.00126347 -0.00132206 -0.0013709 -0.00140998 -0.00143932 -0.00145891 -0.00147062 -0.00147633 -0.00147604 -0.00146975 -0.00145747 -0.00143918 -0.00141489 -0.0013846 -0.00135403 -0.00132888 -0.00130914 -0.00129483 -0.00128594 -0.00128247 -0.00128443 -0.0012918 -0.00130651 -0.00133048 -0.00136371 -0.00140619 -0.00145793 -0.00151892 -0.00158917 -0.00166868 -0.00175277 -0.00183677 -0.00192069 -0.00200451 -0.00208824 -0.00217189 -0.00225544 -0.00233891 -0.00241659 -0.0024828 -0.00253753 -0.00258078 -0.00261255 -0.00263285 -0.00264168 -0.00263902 -0.00262523 -0.00260064 -0.00256526 -0.00251908 -0.00246211 -0.00239433 -0.00231576 -0.0022264 -0.00213204 -0.0020385 -0.00194577 -0.00185385 -0.00176275 -0.00167246 -0.00158298 -0.00149431 -0.00141054 -0.00133574 -0.00126991 -0.00121305 -0.00116517 -0.00112625 -0.00109631 -0.00107534 -0.00106131 -0.00105219 -0.001048 -0.00104871 -0.00105435 -0.0010649 -0.00108036 -0.00110074 -0.00112123 -0.00113703 -0.00114813 -0.00115455 -0.00115627 -0.0011533 -0.00114564 -0.00113329 -0.00111497 -0.0010894 -0.0010566 -0.00101654 -0.000969248 -0.000914708 -0.000852924 -0.000783897 -0.000711934 -0.000641344 -0.000572128 -0.000504285 -0.000437816 -0.00037272 -0.000308998 -0.000246649 -0.000188841 -0.00013874 -9.63472e-05 -6.16622e-05 -3.4685e-05 -1.54156e-05 -3.85389e-06 0 0 -7.40653e-06 -2.96261e-05 -6.66588e-05 -0.000118504 -0.000185163 -0.000266635 -0.00036292 -0.000474018 -0.00059346 -0.000714778 -0.00083797 -0.000963038 -0.00108998 -0.0012188 -0.00134949 -0.00148206 -0.00160855 -0.001721 -0.0018194 -0.00190377 -0.00197409 -0.00203038 -0.00207262 -0.00210083 -0.00211769 -0.00212591 -0.0021255 -0.00211644 -0.00209875 -0.00207242 -0.00203744 -0.00199383 -0.0019498 -0.00191358 -0.00188517 -0.00186456 -0.00185176 -0.00184676 -0.00184957 -0.00186019 -0.00188138 -0.00191589 -0.00196374 -0.00202491 -0.00209942 -0.00218725 -0.00228841 -0.0024029 -0.00252399 -0.00264496 -0.00276579 -0.00288649 -0.00300707 -0.00312752 -0.00324784 -0.00336803 -0.00347989 -0.00357523 -0.00365404 -0.00371632 -0.00376208 -0.00379131 -0.00380401 -0.00380019 -0.00378033 -0.00374493 -0.00369398 -0.00362748 -0.00354543 -0.00344784 -0.0033347 -0.00320602 -0.00307014 -0.00293544 -0.00280191 -0.00266955 -0.00253836 -0.00240834 -0.00227949 -0.00215181 -0.00203118 -0.00192347 -0.00182867 -0.00174679 -0.00167784 -0.0016218 -0.00157868 -0.00154848 -0.00152828 -0.00151516 -0.00150912 -0.00151015 -0.00151826 -0.00153345 -0.00155572 -0.00158506 -0.00161457 -0.00163732 -0.00165331 -0.00166255 -0.00166503 -0.00166075 -0.00164972 -0.00163194 -0.00160555 -0.00156874 -0.0015215 -0.00146382 -0.00139572 -0.00131718 -0.00122821 -0.00112881 -0.00102518 -0.000923535 -0.000823864 -0.000726171 -0.000630455 -0.000536717 -0.000444957 -0.000355174 -0.00027193 -0.000199786 -0.00013874 -8.87936e-05 -4.99464e-05 -2.21984e-05 -5.5496e-06 0 0 -1.00811e-05 -4.03244e-05 -9.073e-05 -0.000161298 -0.000252028 -0.00036292 -0.000493974 -0.000645191 -0.000807765 -0.000972892 -0.00114057 -0.0013108 -0.00148359 -0.00165892 -0.00183681 -0.00201725 -0.00218942 -0.00234247 -0.00247641 -0.00259124 -0.00268696 -0.00276357 -0.00282107 -0.00285946 -0.00288241 -0.0028936 -0.00289304 -0.00288072 -0.00285663 -0.00282079 -0.00277319 -0.00271383 -0.0026539 -0.0026046 -0.00256592 -0.00253787 -0.00252044 -0.00251365 -0.00251747 -0.00253193 -0.00256076 -0.00260774 -0.00267287 -0.00275613 -0.00285754 -0.00297709 -0.00311478 -0.00327062 -0.00343543 -0.00360008 -0.00376455 -0.00392884 -0.00409296 -0.0042569 -0.00442067 -0.00458426 -0.00473652 -0.00486628 -0.00497355 -0.00505833 -0.00512061 -0.00516039 -0.00517769 -0.00517248 -0.00514545 -0.00509726 -0.00502791 -0.0049374 -0.00482573 -0.00469289 -0.0045389 -0.00436374 -0.00417881 -0.00399546 -0.00381371 -0.00363355 -0.00345499 -0.00327802 -0.00310264 -0.00292886 -0.00276466 -0.00261805 -0.00248902 -0.00237758 -0.00228372 -0.00220745 -0.00214876 -0.00210766 -0.00208016 -0.0020623 -0.00205407 -0.00205548 -0.00206652 -0.00208719 -0.0021175 -0.00215744 -0.00219761 -0.00222857 -0.00225034 -0.00226291 -0.00226629 -0.00226047 -0.00224546 -0.00222125 -0.00218534 -0.00213523 -0.00207093 -0.00199243 -0.00189973 -0.00179283 -0.00167173 -0.00153644 -0.00139539 -0.00125703 -0.00112137 -0.000988399 -0.000858119 -0.000730531 -0.000605636 -0.000483432 -0.000370127 -0.00027193 -0.000188841 -0.000120858 -6.79826e-05 -3.02145e-05 -7.55362e-06 0 0 -1.31672e-05 -5.26687e-05 -0.000118504 -0.000210675 -0.000329179 -0.000474018 -0.000645191 -0.000842699 -0.00105504 -0.00127072 -0.00148973 -0.00171207 -0.00193775 -0.00216676 -0.0023991 -0.00263478 -0.00285965 -0.00305955 -0.00323449 -0.00338448 -0.0035095 -0.00360956 -0.00368466 -0.0037348 -0.00376478 -0.0037794 -0.00377866 -0.00376257 -0.00373111 -0.0036843 -0.00362212 -0.00354459 -0.00346632 -0.00340192 -0.00335141 -0.00331477 -0.00329201 -0.00328313 -0.00328813 -0.00330701 -0.00334467 -0.00340603 -0.00349109 -0.00359984 -0.00373229 -0.00388844 -0.00406829 -0.00427182 -0.0044871 -0.00470214 -0.00491696 -0.00513155 -0.00534591 -0.00556003 -0.00577394 -0.00598761 -0.00618647 -0.00635596 -0.00649607 -0.00660679 -0.00668814 -0.00674011 -0.00676269 -0.0067559 -0.00672059 -0.00665765 -0.00656707 -0.00644885 -0.00630299 -0.00612949 -0.00592836 -0.00569958 -0.00545803 -0.00521856 -0.00498117 -0.00474586 -0.00451264 -0.00428149 -0.00405243 -0.00382544 -0.00361098 -0.00341949 -0.00325097 -0.00310541 -0.00298282 -0.0028832 -0.00280655 -0.00275286 -0.00271695 -0.00269362 -0.00268287 -0.00268471 -0.00269913 -0.00272613 -0.00276572 -0.00281789 -0.00287034 -0.00291079 -0.00293922 -0.00295564 -0.00296005 -0.00295245 -0.00293284 -0.00290122 -0.00285432 -0.00278888 -0.00270489 -0.00260235 -0.00248128 -0.00234165 -0.00218349 -0.00200678 -0.00182255 -0.00164184 -0.00146465 -0.00129097 -0.00112081 -0.000954163 -0.000791034 -0.000631421 -0.000483432 -0.000355174 -0.000246649 -0.000157855 -8.87936e-05 -3.94638e-05 -9.86595e-06 0 0 -1.65254e-05 -6.61017e-05 -0.000148729 -0.000264407 -0.000413136 -0.000594915 -0.000809746 -0.00105763 -0.00132391 -0.00159396 -0.00186776 -0.00214533 -0.00242665 -0.00271173 -0.00300057 -0.00329317 -0.00357176 -0.0038186 -0.00403366 -0.00421697 -0.00436851 -0.00448828 -0.00457629 -0.00463254 -0.00466329 -0.00467479 -0.00466705 -0.00464007 -0.00459384 -0.00452837 -0.00444366 -0.00433971 -0.00423514 -0.00414857 -0.00408 -0.00402943 -0.00399686 -0.0039823 -0.00398573 -0.00400717 -0.0040528 -0.00412882 -0.00423522 -0.00437201 -0.00453918 -0.00473674 -0.00496468 -0.00522301 -0.00549645 -0.00576973 -0.00604284 -0.0063158 -0.00658858 -0.00686121 -0.00713368 -0.00740598 -0.00765954 -0.0078758 -0.00805475 -0.00819639 -0.00830073 -0.00836775 -0.00839747 -0.00838988 -0.00834607 -0.00826714 -0.00815307 -0.00800387 -0.00781955 -0.00760009 -0.00734551 -0.0070558 -0.00674986 -0.00644662 -0.00614606 -0.00584818 -0.00555299 -0.00526049 -0.00497068 -0.00468355 -0.00441245 -0.00417069 -0.0039583 -0.00377525 -0.00362157 -0.00349723 -0.00340225 -0.00333663 -0.00329381 -0.00326724 -0.00325692 -0.00326284 -0.00328502 -0.00332344 -0.00337812 -0.00344904 -0.00352054 -0.00357697 -0.00361831 -0.00364456 -0.00365573 -0.00365182 -0.00363282 -0.00359874 -0.00354529 -0.00346819 -0.00336745 -0.00324305 -0.003095 -0.0029233 -0.00272796 -0.00250896 -0.00228018 -0.00205547 -0.00183484 -0.00161829 -0.00140581 -0.00119741 -0.000993083 -0.000792836 -0.000607015 -0.00044597 -0.000309702 -0.000198209 -0.000111493 -4.95523e-05 -1.23881e-05 0 0 -2.00166e-05 -8.00665e-05 -0.00018015 -0.000320266 -0.000500416 -0.000720599 -0.000980815 -0.00128106 -0.00160301 -0.00192833 -0.00225701 -0.00258907 -0.00292448 -0.00326327 -0.00360542 -0.00395094 -0.0042783 -0.00456596 -0.00481393 -0.0050222 -0.00519078 -0.00531967 -0.00540886 -0.00545836 -0.00547641 -0.00547125 -0.00544287 -0.00539128 -0.00531647 -0.00521846 -0.00509723 -0.00495279 -0.00480845 -0.00468755 -0.00459008 -0.00451604 -0.00446542 -0.00443824 -0.00443449 -0.00445416 -0.00450486 -0.00459416 -0.00472206 -0.00488857 -0.00509368 -0.0053374 -0.00561973 -0.00594065 -0.00628096 -0.00662141 -0.00696202 -0.00730277 -0.00764367 -0.00798472 -0.00832593 -0.00866728 -0.0089855 -0.00925733 -0.00948276 -0.00966178 -0.00979441 -0.00988064 -0.00992046 -0.00991389 -0.00986222 -0.00976677 -0.00962754 -0.00944453 -0.00921773 -0.00894715 -0.00863279 -0.00827465 -0.00789635 -0.0075215 -0.00715012 -0.00678221 -0.00641775 -0.00605676 -0.00569922 -0.00534516 -0.00501133 -0.00471455 -0.00445479 -0.00423207 -0.00404638 -0.00389773 -0.00378611 -0.00371152 -0.00366593 -0.00364129 -0.00363761 -0.00365489 -0.00369312 -0.00375231 -0.00383245 -0.00393355 -0.00403598 -0.00412012 -0.00418595 -0.00423349 -0.00426274 -0.00427368 -0.00426634 -0.00424069 -0.00419105 -0.00411171 -0.00400269 -0.00386396 -0.00369555 -0.00349743 -0.00326963 -0.00301213 -0.00274178 -0.00247544 -0.00221309 -0.00195475 -0.0017004 -0.00145006 -0.00120371 -0.000961371 -0.000736049 -0.000540771 -0.000375535 -0.000240343 -0.000135193 -6.00857e-05 -1.50214e-05 0 0 -2.36408e-05 -9.45631e-05 -0.000212767 -0.000378252 -0.000591019 -0.000851068 -0.0011584 -0.00151301 -0.00189234 -0.00227383 -0.00265748 -0.00304329 -0.00343125 -0.00382138 -0.00421366 -0.0046081 -0.00497924 -0.00530164 -0.00557528 -0.00580018 -0.00597633 -0.00610372 -0.00618237 -0.00621227 -0.00620416 -0.00616878 -0.00610612 -0.0060162 -0.00589901 -0.00575455 -0.00558282 -0.00538381 -0.00518626 -0.00501887 -0.00488164 -0.00477458 -0.00469769 -0.00465095 -0.00463439 -0.00464799 -0.00470084 -0.00480205 -0.00495162 -0.00514954 -0.00539581 -0.00569044 -0.00603342 -0.00642475 -0.00684062 -0.00725719 -0.00767448 -0.00809247 -0.00851117 -0.00893057 -0.00935069 -0.00977151 -0.0101644 -0.0105006 -0.0107801 -0.011003 -0.0111692 -0.0112788 -0.0113317 -0.0113279 -0.011269 -0.0111566 -0.0109905 -0.0107708 -0.0104975 -0.0101707 -0.0097902 -0.00935614 -0.00889748 -0.00844322 -0.00799337 -0.00754794 -0.0071069 -0.00667028 -0.00623806 -0.00581025 -0.00540765 -0.00505105 -0.00474045 -0.00447586 -0.00425727 -0.00408469 -0.0039581 -0.00387752 -0.0038333 -0.00381578 -0.00382496 -0.00386085 -0.00392343 -0.00401273 -0.00412873 -0.00427143 -0.00441665 -0.00454023 -0.00464216 -0.00472244 -0.00478107 -0.00481806 -0.00483339 -0.00482707 -0.00479159 -0.00471944 -0.0046106 -0.00446509 -0.0042829 -0.00406404 -0.0038085 -0.00351628 -0.00320737 -0.00290174 -0.0025994 -0.00230035 -0.00200459 -0.00171211 -0.00142292 -0.00113702 -0.000870535 -0.000639576 -0.00044415 -0.000284256 -0.000159894 -7.10641e-05 -1.7766e-05 0 0 -2.73979e-05 -0.000109591 -0.000246581 -0.000438366 -0.000684946 -0.000986323 -0.00134249 -0.00175346 -0.00219189 -0.00263046 -0.00306916 -0.00350799 -0.00394695 -0.00438605 -0.00482528 -0.00526464 -0.0056746 -0.00602563 -0.00631773 -0.0065509 -0.00672514 -0.00684044 -0.00689682 -0.00689426 -0.00684653 -0.00676738 -0.00665682 -0.00651484 -0.00634145 -0.00613665 -0.00590043 -0.00563279 -0.00536855 -0.00514252 -0.00495469 -0.00480507 -0.00469365 -0.00462044 -0.00458544 -0.00458864 -0.00464075 -0.00475251 -0.00492389 -0.00515491 -0.00544556 -0.00579584 -0.00620576 -0.00667531 -0.00717544 -0.00767707 -0.00818023 -0.00868489 -0.00919107 -0.00969876 -0.010208 -0.0107187 -0.0111961 -0.0116055 -0.0119468 -0.01222 -0.0124251 -0.0125621 -0.0126311 -0.012632 -0.0125665 -0.0124365 -0.0122419 -0.0119827 -0.011659 -0.0112706 -0.0108177 -0.0103003 -0.00975326 -0.00921177 -0.00867581 -0.00814537 -0.00762046 -0.00710106 -0.00658719 -0.00607885 -0.0056014 -0.00518021 -0.00481528 -0.00450663 -0.00425423 -0.00405811 -0.00391824 -0.00383464 -0.00379592 -0.0037907 -0.00381896 -0.00388072 -0.00397596 -0.0041047 -0.00426694 -0.00446266 -0.00466256 -0.00483732 -0.00498693 -0.00511141 -0.00521074 -0.00528493 -0.00533398 -0.00535788 -0.00534692 -0.00529136 -0.0051912 -0.00504644 -0.00485708 -0.00462312 -0.00434457 -0.00402141 -0.00367693 -0.00333438 -0.00299377 -0.0026551 -0.00231837 -0.00198357 -0.00165072 -0.0013198 -0.00101047 -0.000742387 -0.000515546 -0.00032995 -0.000185597 -8.24874e-05 -2.06219e-05 0 0 -3.12879e-05 -0.000125152 -0.000281591 -0.000500606 -0.000782197 -0.00112636 -0.00153311 -0.00200242 -0.00250168 -0.00299822 -0.00349205 -0.00398317 -0.00447159 -0.00495729 -0.00544028 -0.00592057 -0.00636438 -0.00673795 -0.00704128 -0.00727437 -0.00743722 -0.00752983 -0.0075522 -0.00750433 -0.00740351 -0.00726705 -0.00709495 -0.00688719 -0.0066438 -0.00636475 -0.00605006 -0.00569972 -0.00535534 -0.00505851 -0.00480923 -0.0046075 -0.00445333 -0.0043467 -0.00428763 -0.00427611 -0.00432459 -0.00444551 -0.00463888 -0.00490468 -0.00524293 -0.00565362 -0.00613675 -0.00669233 -0.00728541 -0.00788105 -0.00847926 -0.00908004 -0.00968338 -0.0102893 -0.0108978 -0.0115088 -0.0120808 -0.0125721 -0.0129827 -0.0133127 -0.0135621 -0.0137307 -0.0138187 -0.013826 -0.0137547 -0.0136066 -0.0133818 -0.0130803 -0.012702 -0.0122471 -0.0117154 -0.011107 -0.0104637 -0.00982715 -0.00919743 -0.00857451 -0.00795841 -0.00734911 -0.00674662 -0.00615094 -0.00559257 -0.00510202 -0.00467928 -0.00432437 -0.00403727 -0.00381799 -0.00366652 -0.00358288 -0.0035538 -0.00356605 -0.00361961 -0.0037145 -0.00385071 -0.00402823 -0.00424708 -0.00450726 -0.0047737 -0.00501137 -0.00522027 -0.00540039 -0.00555173 -0.00567431 -0.0057681 -0.00583313 -0.00585703 -0.00582748 -0.00574447 -0.005608 -0.00541807 -0.00517468 -0.00487783 -0.00452753 -0.00415047 -0.00377336 -0.0033962 -0.003019 -0.00264174 -0.00226444 -0.00188709 -0.00150969 -0.00115586 -0.000849202 -0.000589723 -0.000377423 -0.0002123 -9.43558e-05 -2.35889e-05 0 0 -3.53108e-05 -0.000141243 -0.000317798 -0.000564973 -0.000882771 -0.00127119 -0.00173023 -0.00225989 -0.00282168 -0.0033771 -0.00392615 -0.00446884 -0.00500515 -0.0055351 -0.00605867 -0.00657588 -0.00704857 -0.00743858 -0.00774592 -0.00797058 -0.00811256 -0.00817188 -0.00814851 -0.00804248 -0.00787512 -0.0076678 -0.00742051 -0.00713326 -0.00680605 -0.00643886 -0.00603172 -0.00558461 -0.00514662 -0.00476683 -0.00444525 -0.00418187 -0.0039767 -0.00382974 -0.00374098 -0.00371042 -0.00375236 -0.00388107 -0.00409658 -0.00439886 -0.00478792 -0.00526377 -0.00582639 -0.0064758 -0.00717054 -0.00786913 -0.00857159 -0.00927791 -0.00998809 -0.0107021 -0.0114201 -0.0121418 -0.0128183 -0.0134004 -0.0138881 -0.0142813 -0.0145801 -0.0147846 -0.0148945 -0.0149101 -0.0148335 -0.0146668 -0.0144101 -0.0140634 -0.0136267 -0.0131 -0.0124832 -0.0117764 -0.0110288 -0.0102894 -0.00955823 -0.00883536 -0.00812075 -0.00741441 -0.00671633 -0.00602652 -0.00538117 -0.00481648 -0.00433245 -0.00392909 -0.00360638 -0.00336433 -0.00320295 -0.00312223 -0.00310693 -0.00314183 -0.00322691 -0.00336219 -0.00354766 -0.00378332 -0.00406917 -0.00440521 -0.00475007 -0.00506239 -0.00534216 -0.00558938 -0.00580406 -0.00598619 -0.00613577 -0.0062528 -0.00632193 -0.00632781 -0.00627042 -0.00614978 -0.00596588 -0.00571872 -0.0054083 -0.00503463 -0.00462799 -0.00421868 -0.00380669 -0.00339204 -0.00297471 -0.00255471 -0.00213205 -0.00170671 -0.0013067 -0.000960022 -0.000666682 -0.000426676 -0.000240005 -0.000106669 -2.66673e-05 0 0 -3.94667e-05 -0.000157867 -0.000355201 -0.000631468 -0.000986669 -0.0014208 -0.00193387 -0.00252587 -0.00315192 -0.00376712 -0.00437147 -0.00496498 -0.00554765 -0.00611947 -0.00668045 -0.00723058 -0.00772717 -0.00812753 -0.00843165 -0.00863953 -0.00875118 -0.00876659 -0.00868577 -0.00850871 -0.00826135 -0.00796962 -0.00763351 -0.00725304 -0.0068282 -0.00635898 -0.0058454 -0.00528744 -0.00474238 -0.00426749 -0.00386276 -0.00352819 -0.00326378 -0.00306954 -0.00294547 -0.00289155 -0.00292405 -0.00305919 -0.00329699 -0.00363744 -0.00408053 -0.00462628 -0.00527468 -0.00602574 -0.00683082 -0.00764131 -0.0084572 -0.00927851 -0.0101052 -0.0109373 -0.0117749 -0.0126178 -0.0134088 -0.0140904 -0.0146627 -0.0151257 -0.0154793 -0.0157236 -0.0158586 -0.0158842 -0.015803 -0.0156172 -0.015327 -0.0149322 -0.014433 -0.0138293 -0.0131211 -0.0123085 -0.0114485 -0.0105984 -0.00975821 -0.00892791 -0.0081075 -0.00729698 -0.00649634 -0.0057056 -0.0049672 -0.0043236 -0.00377479 -0.00332078 -0.00296156 -0.00269714 -0.00252752 -0.0024527 -0.00245532 -0.00251804 -0.00264087 -0.0028238 -0.00306683 -0.00336996 -0.00373319 -0.00415653 -0.00459168 -0.00499038 -0.00535262 -0.00567839 -0.00596771 -0.00622057 -0.00643697 -0.0066169 -0.00674162 -0.00679233 -0.00676905 -0.00667177 -0.0065005 -0.00625523 -0.00593597 -0.00554271 -0.00510948 -0.00467033 -0.00422524 -0.00377422 -0.00331727 -0.00285439 -0.00238558 -0.00191084 -0.00146299 -0.00107485 -0.000746421 -0.000477709 -0.000268712 -0.000119427 -2.98568e-05 0 0 -4.37556e-05 -0.000175022 -0.0003938 -0.000700089 -0.00109389 -0.0015752 -0.00214402 -0.00280036 -0.00349238 -0.00416826 -0.00482801 -0.00547161 -0.00609908 -0.00671041 -0.00730561 -0.00788466 -0.00840019 -0.00880479 -0.00909847 -0.00928123 -0.00935306 -0.00931397 -0.00916396 -0.00890303 -0.0085622 -0.00817251 -0.00773395 -0.00724653 -0.00671025 -0.00612511 -0.0054911 -0.00480823 -0.00414264 -0.00356048 -0.00306175 -0.00264645 -0.00231457 -0.00206612 -0.00190111 -0.00181952 -0.00183966 -0.00197986 -0.00224012 -0.00262042 -0.00312077 -0.00374117 -0.00448162 -0.00534213 -0.00626625 -0.00719758 -0.0081361 -0.00908183 -0.0100347 -0.0109949 -0.0119622 -0.0129367 -0.0138521 -0.0146421 -0.0153067 -0.0158459 -0.0162596 -0.0165479 -0.0167109 -0.0167484 -0.0166631 -0.0164577 -0.0161323 -0.0156867 -0.0151209 -0.0144351 -0.0136292 -0.0127031 -0.0117229 -0.0107543 -0.00979738 -0.00885217 -0.00791864 -0.0069968 -0.00608664 -0.00518817 -0.00435066 -0.00362336 -0.00300629 -0.00249944 -0.00210282 -0.00181642 -0.00164024 -0.00157428 -0.00159896 -0.00169469 -0.00186148 -0.00209932 -0.00240821 -0.00278816 -0.00323915 -0.0037612 -0.00429853 -0.00479534 -0.00525163 -0.00566742 -0.00604269 -0.00637745 -0.0066717 -0.00692544 -0.00711608 -0.00722106 -0.00724036 -0.00717398 -0.00702194 -0.00678422 -0.00646083 -0.00605177 -0.00559496 -0.00512832 -0.00465185 -0.00416556 -0.00366943 -0.00316348 -0.0026477 -0.00212209 -0.00162473 -0.00119368 -0.000828941 -0.000530522 -0.000298419 -0.000132631 -3.31577e-05 0 0 -4.79062e-05 -0.000191625 -0.000431155 -0.000766499 -0.00119765 -0.00172462 -0.0023474 -0.00306599 -0.0038212 -0.00455382 -0.00526384 -0.00595128 -0.00661614 -0.0072584 -0.00787808 -0.00847517 -0.00899758 -0.00939322 -0.0096621 -0.00980421 -0.00981956 -0.00970813 -0.00946995 -0.00910499 -0.00865004 -0.00814186 -0.00758045 -0.00696582 -0.00629795 -0.00557687 -0.00480255 -0.00397501 -0.00317002 -0.00246337 -0.00185505 -0.00134507 -0.000933423 -0.000620109 -0.00040513 -0.000288486 -0.000290644 -0.000432072 -0.000712771 -0.00113274 -0.00169198 -0.00239049 -0.00322827 -0.00420532 -0.0052567 -0.00631747 -0.00738763 -0.00846718 -0.00955613 -0.0106545 -0.0117622 -0.0128793 -0.0139298 -0.0148377 -0.0156029 -0.0162256 -0.0167056 -0.017043 -0.0172378 -0.01729 -0.0172024 -0.0169779 -0.0166165 -0.0161183 -0.0154831 -0.0147111 -0.0138022 -0.0127564 -0.011649 -0.0105553 -0.00947543 -0.00840924 -0.00735679 -0.00631808 -0.0052931 -0.00428185 -0.00334104 -0.00252736 -0.0018408 -0.00128137 -0.000849072 -0.0005439 -0.000365856 -0.000314941 -0.000369224 -0.000506775 -0.000727593 -0.00103168 -0.00141904 -0.00188966 -0.00244355 -0.00308071 -0.00373721 -0.00434913 -0.00491647 -0.00543922 -0.00591739 -0.00635099 -0.00673999 -0.00708442 -0.00735738 -0.00753197 -0.00760821 -0.0075861 -0.00746562 -0.00724679 -0.00692959 -0.00651405 -0.00604199 -0.0055553 -0.00505396 -0.00453797 -0.00400734 -0.00346206 -0.00290213 -0.00232757 -0.00178204 -0.00130926 -0.000909205 -0.000581891 -0.000327314 -0.000145473 -3.63682e-05 0 0 -5.16472e-05 -0.000206589 -0.000464825 -0.000826356 -0.00129118 -0.0018593 -0.00253072 -0.00330542 -0.00411651 -0.00489706 -0.00564708 -0.00636656 -0.00705551 -0.00771392 -0.00834179 -0.00893913 -0.00944931 -0.00981568 -0.0100383 -0.010117 -0.010052 -0.0098432 -0.00949058 -0.00899417 -0.00839723 -0.00774305 -0.00703162 -0.00626296 -0.00543704 -0.00455388 -0.00361348 -0.00261583 -0.00164717 -0.000793727 -5.55021e-05 0.000567505 0.00107529 0.00146787 0.00174522 0.00190735 0.00193158 0.0017952 0.00149823 0.00104065 0.000422477 -0.000356301 -0.00129568 -0.00239566 -0.00358201 -0.00478049 -0.00599112 -0.00721389 -0.0084488 -0.00969584 -0.010955 -0.0122264 -0.0134233 -0.0144593 -0.0153345 -0.0160487 -0.016602 -0.0169944 -0.0172259 -0.0172965 -0.0172092 -0.0169672 -0.0165703 -0.0160187 -0.0153123 -0.014451 -0.013435 -0.0122642 -0.011024 -0.00979996 -0.00859204 -0.00740024 -0.00622456 -0.00506501 -0.00392157 -0.00279425 -0.00174785 -0.000847149 -9.2147e-05 0.000517154 0.000980754 0.00129865 0.00147085 0.00149735 0.00140251 0.00121071 0.000921929 0.000536182 5.3466e-05 -0.00052622 -0.00120288 -0.0019765 -0.00277434 -0.00352363 -0.00422437 -0.00487656 -0.00548021 -0.0060353 -0.00654186 -0.00699986 -0.00737753 -0.00764307 -0.00779649 -0.00783779 -0.00776697 -0.00758402 -0.00728895 -0.00688176 -0.00640817 -0.00591391 -0.00539899 -0.0048634 -0.00430714 -0.00373022 -0.00313263 -0.00251437 -0.00192506 -0.00141433 -0.000982175 -0.000628592 -0.000353583 -0.000157148 -3.9287e-05 0 0 -5.49789e-05 -0.000219915 -0.00049481 -0.000879662 -0.00137447 -0.00197924 -0.00269396 -0.00351865 -0.00437832 -0.00519801 -0.00597772 -0.00671745 -0.0074172 -0.00807696 -0.00869675 -0.00927656 -0.00975537 -0.0100722 -0.0102269 -0.0102197 -0.0100504 -0.00971916 -0.00922586 -0.00857056 -0.00780378 -0.00697609 -0.00608748 -0.00513795 -0.00412751 -0.00305615 -0.00192388 -0.000730688 0.000425922 0.00144845 0.00233691 0.00309128 0.00371158 0.0041978 0.00454994 0.004768 0.00482701 0.00470197 0.00439289 0.00389976 0.0032226 0.00236139 0.00131615 8.68563e-05 -0.00124218 -0.00258665 -0.00394657 -0.00532194 -0.00671275 -0.00811901 -0.00954071 -0.0109779 -0.0123326 -0.013507 -0.0145012 -0.0153151 -0.0159487 -0.0164021 -0.0166752 -0.0167679 -0.0166837 -0.0164256 -0.0159937 -0.0153879 -0.0146083 -0.0136549 -0.0125276 -0.0112265 -0.00984789 -0.00848814 -0.00714723 -0.00582517 -0.00452195 -0.00323758 -0.00197205 -0.000725374 0.000428913 0.00141726 0.00223967 0.00289613 0.00338666 0.00371125 0.00386989 0.0038626 0.00371625 0.00345775 0.00308709 0.00260427 0.00200929 0.00130216 0.000482866 -0.000448584 -0.00140991 -0.00231883 -0.00317534 -0.00397944 -0.00473113 -0.00543041 -0.00607729 -0.00667176 -0.00717654 -0.00755435 -0.00780519 -0.00792907 -0.00792598 -0.00779592 -0.0075389 -0.0071549 -0.00669348 -0.00620416 -0.00568695 -0.00514185 -0.00456885 -0.00396796 -0.00333918 -0.0026825 -0.00205379 -0.00150891 -0.00104785 -0.000670625 -0.000377226 -0.000167656 -4.1914e-05 0 0 -5.7901e-05 -0.000231604 -0.000521109 -0.000926416 -0.00144752 -0.00208444 -0.00283715 -0.00370566 -0.00460662 -0.00545665 -0.00625575 -0.00700394 -0.0077012 -0.00834754 -0.00894295 -0.00948744 -0.00991576 -0.0101627 -0.0102281 -0.0101122 -0