<?xml version="1.0"?> 
<VTKFile type="StructuredGrid" version="0.1"> 
<StructuredGrid WholeExtent="0 128 0 128 0 0"> 
<Piece Extent="0 128 0 128 0 0"> 
<PointData>
<DataArray type="Float32" Name="u" format="ascii" NumberOfComponents="1"> 
0 0 0 0 0 0 0 0 0 0 0 0 0 0 0 0 0 0 0 0 0 0 0 0 0 0 0 0 0 0 0 0 0 0 0 0 0 0 0 0 0 0 0 0 0 0 0 0 0 0 0 0 0 0 0 0 0 0 0 0 0 0 0 0 0 0 0 0 0 0 0 0 0 0 0 0 0 0 0 0 0 0 0 0 0 0 0 0 0 0 0 0 0 0 0 0 0 0 0 0 0 0 0 0 0 0 0 0 0 0 0 0 0 0 0 0 0 0 0 0 0 0 0 0 0 0 0 0 0 0 9.03803e-07 3.61521e-06 8.13423e-06 1.44608e-05 2.25951e-05 3.25369e-05 4.42863e-05 5.78434e-05 7.3314e-05 9.08042e-05 0.000110314 0.000131843 0.000155392 0.00018096 0.000208548 0.000238156 0.000268791 0.000299465 0.000330175 0.000360923 0.000391708 0.000422531 0.000453391 0.000484288 0.000514433 0.000543038 0.000570101 0.000595623 0.000619605 0.000642045 0.000662944 0.000682302 0.000699901 0.000715521 0.000729162 0.000740825 0.000750509 0.000758215 0.000763943 0.000767691 0.000769662 0.000770055 0.00076887 0.000766107 0.000761766 0.000755848 0.000748351 0.000739277 0.000729001 0.000717897 0.000705965 0.000693206 0.00067962 0.000665206 0.000649965 0.000633897 0.000617344 0.00060065 0.000583816 0.00056684 0.000549724 0.000532467 0.000515069 0.00049753 0.000480056 0.000462853 0.000445921 0.00042926 0.00041287 0.000396752 0.000380904 0.000365327 0.000350087 0.000335246 0.000320807 0.000306768 0.000293129 0.000279892 0.000267054 0.000254618 0.000242561 0.000230862 0.000219522 0.000208541 0.000197918 0.000187654 0.000177748 0.000168201 0.000158971 0.000150017 0.000141338 0.000132936 0.000124809 0.000116959 0.000109384 0.000102085 9.50435e-05 8.82422e-05 8.16807e-05 7.53592e-05 6.92774e-05 6.34356e-05 5.78335e-05 5.24714e-05 4.73645e-05 4.25285e-05 3.79632e-05 3.36687e-05 2.96449e-05 2.5892e-05 2.24098e-05 1.91984e-05 1.62608e-05 1.35999e-05 1.12158e-05 9.10855e-06 7.27803e-06 5.7243e-06 4.44734e-06 3.44716e-06 2.63923e-06 1.93903e-06 1.34655e-06 8.6179e-07 4.84757e-07 2.15447e-07 5.38619e-08 0 0 3.61521e-06 1.44608e-05 3.25369e-05 5.78434e-05 9.03803e-05 0.000130148 0.000177145 0.000231374 0.000293256 0.000363217 0.000441255 0.000527372 0.000621568 0.000723841 0.000834192 0.000952622 0.00107517 0.00119786 0.0013207 0.00144369 0.00156683 0.00169012 0.00181356 0.00193715 0.00205773 0.00217215 0.0022804 0.00238249 0.00247842 0.00256818 0.00265178 0.00272921 0.0027996 0.00286208 0.00291665 0.0029633 0.00300204 0.00303286 0.00305577 0.00307077 0.00307865 0.00308022 0.00307548 0.00306443 0.00304706 0.00302339 0.00299341 0.00295711 0.002916 0.00287159 0.00282386 0.00277282 0.00271848 0.00266082 0.00259986 0.00253559 0.00246938 0.0024026 0.00233526 0.00226736 0.0021989 0.00212987 0.00206027 0.00199012 0.00192022 0.00185141 0.00178368 0.00171704 0.00165148 0.00158701 0.00152362 0.00146131 0.00140035 0.00134099 0.00128323 0.00122707 0.00117252 0.00111957 0.00106822 0.00101847 0.000970243 0.000923448 0.000878089 0.000834163 0.000791672 0.000750614 0.000710991 0.000672803 0.000635883 0.000600066 0.000565353 0.000531743 0.000499237 0.000467834 0.000437535 0.000408339 0.000380174 0.000352969 0.000326723 0.000301437 0.00027711 0.000253742 0.000231334 0.000209885 0.000189458 0.000170114 0.000151853 0.000134675 0.00011858 0.000103568 8.96392e-05 7.67935e-05 6.5043e-05 5.43996e-05 4.48633e-05 3.64342e-05 2.91121e-05 2.28972e-05 1.77894e-05 1.37886e-05 1.05569e-05 7.75611e-06 5.38619e-06 3.44716e-06 1.93903e-06 8.6179e-07 2.15447e-07 0 0 8.13423e-06 3.25369e-05 7.3208e-05 0.000130148 0.000203356 0.000292832 0.000398577 0.000520591 0.000659826 0.000817238 0.000992825 0.00118659 0.00139853 0.00162864 0.00187693 0.0021434 0.00241912 0.00269518 0.00297158 0.00324831 0.00352537 0.00380278 0.00408052 0.00435859 0.0046299 0.00488734 0.00513091 0.00536061 0.00557644 0.0057784 0.0059665 0.00614072 0.00629911 0.00643969 0.00656246 0.00666743 0.00675458 0.00682394 0.00687548 0.00690922 0.00692696 0.00693049 0.00691983 0.00689496 0.00685589 0.00680263 0.00673516 0.0066535 0.00656101 0.00646107 0.00635369 0.00623886 0.00611658 0.00598686 0.00584969 0.00570507 0.00555609 0.00540585 0.00525434 0.00510156 0.00494752 0.0047922 0.00463562 0.00447777 0.0043205 0.00416567 0.00401329 0.00386334 0.00371583 0.00357076 0.00342814 0.00328795 0.00315078 0.00301722 0.00288726 0.00276091 0.00263816 0.00251902 0.00240349 0.00229156 0.00218305 0.00207776 0.0019757 0.00187687 0.00178126 0.00168888 0.00159973 0.00151381 0.00143074 0.00135015 0.00127204 0.00119642 0.00112328 0.00105263 0.000984453 0.000918762 0.000855391 0.00079418 0.000735127 0.000678232 0.000623497 0.00057092 0.000520502 0.000472242 0.000426281 0.000382756 0.000341669 0.000303018 0.000266804 0.000233028 0.000201688 0.000172785 0.000146347 0.000122399 0.000100943 8.19769e-05 6.55023e-05 5.15187e-05 4.0026e-05 3.10244e-05 2.37531e-05 1.74512e-05 1.21189e-05 7.75611e-06 4.36281e-06 1.93903e-06 4.84757e-07 0 0 1.44608e-05 5.78434e-05 0.000130148 0.000231374 0.000361521 0.000520591 0.000708582 0.000925494 0.00117302 0.00145287 0.00176502 0.00210949 0.00248627 0.00289536 0.00333677 0.00381049 0.00430066 0.00479143 0.0052828 0.00577477 0.00626733 0.00676049 0.00725425 0.00774861 0.00823093 0.0086886 0.00912162 0.00952997 0.00991367 0.0102727 0.0106071 0.0109168 0.0111984 0.0114483 0.0116666 0.0118532 0.0120082 0.0121314 0.0122231 0.0122831 0.0123146 0.0123209 0.0123019 0.0122577 0.0121883 0.0120936 0.0119736 0.0118284 0.011664 0.0114863 0.0112954 0.0110913 0.0108739 0.0106433 0.0103994 0.0101423 0.0098775 0.0096104 0.00934105 0.00906944 0.00879558 0.00851947 0.0082411 0.00796047 0.00768089 0.00740564 0.00713473 0.00686816 0.00660592 0.00634802 0.00609446 0.00584524 0.00560138 0.00536394 0.00513291 0.00490828 0.00469007 0.00447827 0.00427287 0.00407388 0.00388097 0.00369379 0.00351235 0.00333665 0.00316669 0.00300246 0.00284397 0.00269121 0.00254353 0.00240026 0.00226141 0.00212697 0.00199695 0.00187134 0.00175014 0.00163335 0.0015207 0.00141188 0.00130689 0.00120575 0.00110844 0.00101497 0.000925337 0.000839542 0.000757832 0.000680455 0.000607411 0.000538699 0.000474319 0.000414272 0.000358557 0.000307174 0.000260172 0.000217599 0.000179453 0.000145737 0.000116449 9.15887e-05 7.11574e-05 5.51546e-05 4.22277e-05 3.10244e-05 2.15447e-05 1.37886e-05 7.75611e-06 3.44716e-06 8.6179e-07 0 0 2.25951e-05 9.03803e-05 0.000203356 0.000361521 0.000564877 0.000813423 0.00110716 0.00144608 0.00183285 0.0022701 0.00275785 0.00329608 0.0038848 0.00452401 0.0052137 0.00595389 0.00671978 0.00748661 0.00825438 0.00902307 0.0097927 0.0105633 0.0113348 0.0121072 0.0128608 0.0135759 0.0142525 0.0148906 0.0154901 0.0160511 0.0165736 0.0170576 0.0174975 0.017888 0.0182291 0.0185206 0.0187627 0.0189554 0.0190986 0.0191923 0.0192415 0.0192514 0.0192217 0.0191527 0.0190442 0.0188962 0.0187088 0.0184819 0.018225 0.0179474 0.0176491 0.0173302 0.0169905 0.0166302 0.0162491 0.0158474 0.0154336 0.0150163 0.0145954 0.014171 0.0137431 0.0133117 0.0128767 0.0124382 0.0120014 0.0115713 0.011148 0.0107315 0.0103218 0.00991879 0.0095226 0.00913318 0.00875216 0.00838116 0.00802017 0.0076692 0.00732823 0.00699729 0.00667636 0.00636544 0.00606402 0.00577155 0.00548805 0.00521352 0.00494795 0.00469134 0.0044437 0.00420502 0.00397427 0.00375041 0.00353346 0.0033234 0.00312023 0.00292396 0.00273459 0.00255212 0.00237609 0.00220605 0.00204202 0.00188398 0.00173194 0.00158589 0.00144584 0.00131178 0.00118411 0.00106321 0.000949079 0.000841717 0.000741123 0.000647299 0.000560245 0.00047996 0.000406519 0.000339998 0.000280396 0.000227714 0.000181951 0.000143107 0.000111183 8.6179e-05 6.59808e-05 4.84757e-05 3.36637e-05 2.15447e-05 1.21189e-05 5.38619e-06 1.34655e-06 0 0 3.25369e-05 0.000130148 0.000292832 0.000520591 0.000813423 0.00117133 0.00159431 0.00208236 0.0026393 0.00326895 0.0039713 0.00474635 0.00559411 0.00651457 0.00750773 0.0085736 0.00967649 0.0107807 0.0118863 0.0129932 0.0141015 0.0152111 0.0163221 0.0174344 0.0185196 0.0195494 0.0205236 0.0214424 0.0223058 0.0231136 0.023866 0.0245629 0.0251964 0.0257587 0.0262498 0.0266697 0.0270183 0.0272957 0.0275019 0.0276369 0.0277078 0.027722 0.0276793 0.0275798 0.0274236 0.0272105 0.0269407 0.026614 0.026244 0.0258443 0.0254147 0.0249554 0.0244663 0.0239474 0.0233987 0.0228203 0.0222244 0.0216234 0.0210174 0.0204062 0.0197901 0.0191688 0.0185425 0.0179111 0.017282 0.0166627 0.0160531 0.0154534 0.0148633 0.0142831 0.0137125 0.0131518 0.0126031 0.0120689 0.011549 0.0110436 0.0105527 0.0100761 0.00961396 0.00916624 0.00873218 0.00831104 0.0079028 0.00750747 0.00712504 0.00675553 0.00639892 0.00605522 0.00572294 0.0054006 0.00508818 0.00478569 0.00449313 0.00421051 0.00393781 0.00367505 0.00342157 0.00317672 0.00294051 0.00271293 0.00249399 0.00228368 0.00208201 0.00188897 0.00170512 0.00153102 0.00136667 0.00121207 0.00106722 0.000932111 0.000806752 0.000691142 0.000585387 0.000489597 0.00040377 0.000327908 0.000262009 0.000206075 0.000160104 0.000124098 9.50123e-05 6.9805e-05 4.84757e-05 3.10244e-05 1.74512e-05 7.75611e-06 1.93903e-06 0 0 4.42863e-05 0.000177145 0.000398577 0.000708582 0.00110716 0.00159431 0.00217003 0.00283433 0.00359239 0.0044494 0.00540538 0.00646031 0.0076142 0.00886705 0.0102189 0.0116696 0.0131708 0.0146738 0.0161786 0.0176852 0.0191937 0.020704 0.0222161 0.0237301 0.0252072 0.0266088 0.0279349 0.0291855 0.0303606 0.0314602 0.0324843 0.0334328 0.0342951 0.0350605 0.0357289 0.0363004 0.036775 0.0371525 0.0374332 0.0376169 0.0377134 0.0377327 0.0376746 0.0375392 0.0373265 0.0370365 0.0366692 0.0362246 0.035721 0.0351769 0.0345923 0.0339671 0.0333014 0.0325951 0.0318483 0.0310609 0.0302498 0.0294319 0.028607 0.0277752 0.0269365 0.0260909 0.0252384 0.0243789 0.0235227 0.0226798 0.0218501 0.0210337 0.0202306 0.0194408 0.0186643 0.017901 0.0171542 0.0164271 0.0157195 0.0150316 0.0143633 0.0137147 0.0130857 0.0124763 0.0118855 0.0113122 0.0107566 0.0102185 0.00969798 0.00919503 0.00870964 0.00824183 0.00778956 0.00735081 0.00692557 0.00651386 0.00611565 0.00573097 0.0053598 0.00500215 0.00465713 0.00432387 0.00400236 0.0036926 0.00339459 0.00310834 0.00283384 0.0025711 0.00232086 0.00208389 0.0018602 0.00164976 0.0014526 0.00126871 0.00109808 0.000940721 0.000796777 0.000666395 0.000549576 0.000446319 0.000356624 0.00028049 0.00021792 0.000168911 0.000129322 9.50123e-05 6.59808e-05 4.22277e-05 2.37531e-05 1.05569e-05 2.63923e-06 0 0 5.78434e-05 0.000231374 0.000520591 0.000925494 0.00144608 0.00208236 0.00283433 0.00370198 0.0046921 0.00581147 0.00706009 0.00843796 0.00994508 0.0115815 0.0133471 0.015242 0.0172026 0.0191657 0.0211312 0.0230991 0.0250693 0.027042 0.029017 0.0309944 0.0329237 0.0347544 0.0364865 0.0381199 0.0396547 0.0410909 0.0424284 0.0436674 0.0447937 0.0457933 0.0466664 0.0474128 0.0480326 0.0485258 0.0488923 0.0491322 0.0492584 0.0492835 0.0492077 0.0490308 0.048753 0.0483742 0.0478945 0.0473137 0.046656 0.0459454 0.0451818 0.0443652 0.0434957 0.0425732 0.0415978 0.0405694 0.03951 0.0384416 0.0373642 0.0362778 0.0351823 0.0340779 0.0329644 0.0318419 0.0307236 0.0296226 0.0285389 0.0274726 0.0264237 0.0253921 0.0243778 0.0233809 0.0224055 0.0214558 0.0205316 0.0196331 0.0187603 0.0179131 0.0170915 0.0162955 0.0155239 0.0147752 0.0140494 0.0133466 0.0126667 0.0120098 0.0113759 0.0107648 0.0101741 0.00960106 0.00904565 0.00850789 0.00798779 0.00748535 0.00700055 0.00653342 0.00608278 0.0056475 0.00522757 0.00482299 0.00443376 0.00405988 0.00370135 0.00335817 0.00303133 0.00272182 0.00242964 0.00215479 0.00189728 0.00165709 0.00143423 0.0012287 0.00104069 0.000870394 0.000717814 0.000582947 0.000465794 0.000366355 0.00028463 0.000220618 0.000168911 0.000124098 8.6179e-05 5.51546e-05 3.10244e-05 1.37886e-05 3.44716e-06 0 0 7.35737e-05 0.000294295 0.000662163 0.00117718 0.00183934 0.00264865 0.00360511 0.00470871 0.0059674 0.00738911 0.00897384 0.0107216 0.0126324 0.0147061 0.0169429 0.0193428 0.0218255 0.0243109 0.0267991 0.02929 0.0317836 0.03428 0.0367791 0.039281 0.0417219 0.0440381 0.0462297 0.0482967 0.0502391 0.0520568 0.0537498 0.0553183 0.0567444 0.0580104 0.0591164 0.0600624 0.0608483 0.0614742 0.0619401 0.0622459 0.0624078 0.062442 0.0623484 0.062127 0.0617779 0.0613011 0.0606965 0.0599642 0.0591344 0.0582375 0.0572734 0.0562421 0.0551438 0.0539782 0.0527456 0.0514458 0.0501065 0.0487557 0.0473933 0.0460192 0.0446335 0.0432361 0.0418271 0.0404065 0.038991 0.0375972 0.0362252 0.034875 0.0335465 0.0322398 0.0309549 0.0296917 0.0284555 0.0272518 0.0260803 0.0249412 0.0238345 0.0227601 0.021718 0.0207083 0.0197292 0.0187792 0.0178583 0.0169664 0.0161035 0.0152696 0.0144648 0.013689 0.0129389 0.0122112 0.0115059 0.010823 0.0101625 0.00952439 0.00890866 0.00831533 0.00774293 0.00719001 0.00665656 0.0061426 0.00564811 0.0051731 0.00471757 0.00428152 0.00386617 0.00347277 0.0031013 0.00275177 0.00242418 0.00211853 0.00183481 0.00157304 0.00133345 0.00111632 0.00092163 0.00074939 0.000599597 0.000472252 0.000367354 0.000284905 0.00021813 0.000160259 0.000111291 7.12261e-05 4.00647e-05 1.78065e-05 4.45163e-06 0 0 9.18428e-05 0.000367371 0.000826585 0.00146948 0.00229607 0.00330634 0.0045003 0.00587794 0.00744727 0.00921631 0.011185 0.0133535 0.0157216 0.0182895 0.021057 0.0240243 0.0270927 0.0301636 0.0332371 0.0363132 0.0393919 0.0424732 0.045557 0.0486434 0.0516544 0.054512 0.0572163 0.0597672 0.0621648 0.064409 0.0664999 0.0684374 0.0701997 0.0717651 0.0731334 0.0743049 0.0752793 0.0760567 0.0766372 0.0770207 0.077227 0.0772756 0.0771667 0.0769002 0.0764762 0.0758946 0.0751554 0.0742586 0.0732414 0.072141 0.0709573 0.0696904 0.0683402 0.0669068 0.0653901 0.0637902 0.0621412 0.0604772 0.0587983 0.0571044 0.0553956 0.0536719 0.0519332 0.0501795 0.0484316 0.04671 0.0450147 0.0433457 0.0417031 0.0400869 0.038497 0.0369334 0.0354028 0.0339118 0.0324605 0.0310489 0.0296769 0.0283445 0.0270518 0.0257987 0.0245834 0.0234039 0.0222602 0.0211523 0.0200802 0.019044 0.0180436 0.017079 0.0161462 0.0152412 0.0143639 0.0135144 0.0126928 0.0118988 0.0111327 0.0103943 0.00968197 0.00899378 0.00832977 0.00768995 0.00707431 0.00648285 0.00591558 0.00537249 0.00485504 0.0043647 0.00390145 0.0034653 0.00305625 0.00267431 0.00231946 0.00199171 0.0016914 0.00141889 0.00117417 0.000957245 0.000768109 0.000606766 0.000473214 0.000367454 0.000281332 0.000206693 0.000143537 9.18636e-05 5.16733e-05 2.29659e-05 5.74147e-06 0 0 0.000112651 0.000450603 0.00101386 0.00180241 0.00281627 0.00405543 0.00551988 0.00720964 0.0091317 0.0112931 0.0136937 0.0163337 0.0192129 0.0223315 0.0256893 0.0292864 0.0330042 0.0367238 0.0404454 0.0441688 0.0478942 0.0516214 0.0553506 0.0590817 0.0627213 0.0661762 0.0694462 0.0725315 0.075432 0.0781476 0.0806785 0.0830247 0.0851597 0.0870572 0.0887174 0.0901401 0.0913254 0.0922733 0.0929837 0.0934568 0.0937158 0.0937845 0.0936627 0.0933504 0.0928477 0.0921546 0.091271 0.090197 0.0889771 0.087656 0.0862336 0.0847099 0.083085 0.0813588 0.0795314 0.0776027 0.0756139 0.0736061 0.0715794 0.0695336 0.0674689 0.0653852 0.0632825 0.0611609 0.0590453 0.0569607 0.0549073 0.0528849 0.0508936 0.0489333 0.0470041 0.045106 0.0432472 0.041436 0.0396723 0.0379561 0.0362875 0.0346664 0.0330929 0.0315669 0.0300863 0.028649 0.0272551 0.0259044 0.024597 0.023333 0.0221123 0.0209348 0.0197959 0.0186909 0.0176196 0.0165822 0.0155785 0.0146087 0.0136727 0.0127705 0.0118999 0.0110588 0.0102472 0.00946503 0.00871234 0.00798911 0.00729536 0.00663108 0.00599794 0.00539761 0.00483009 0.00429539 0.0037935 0.00332442 0.00288816 0.00248471 0.00211454 0.00177812 0.00147544 0.00120651 0.00097133 0.000769896 0.000602208 0.000468268 0.000358518 0.000263401 0.000182917 0.000117067 6.58502e-05 2.92667e-05 7.31668e-06 0 0 0.000135997 0.00054399 0.00122398 0.00217596 0.00339994 0.00489591 0.00666388 0.00870384 0.0110207 0.0136194 0.0164998 0.0196621 0.0231062 0.0268321 0.0308398 0.0351293 0.03956 0.0439915 0.0484237 0.0528567 0.0572904 0.0617248 0.06616 0.0705958 0.0749226 0.0790305 0.0829194 0.0865894 0.0900405 0.0932726 0.0962858 0.0990801 0.101624 0.103887 0.105868 0.107568 0.108987 0.110124 0.11098 0.111554 0.111874 0.111969 0.111836 0.111478 0.110893 0.110081 0.109044 0.107779 0.106341 0.104782 0.103102 0.101301 0.0993782 0.0973344 0.0951694 0.0928833 0.0905247 0.0881424 0.0857364 0.0833067 0.0808532 0.0783761 0.0758752 0.0733506 0.0708321 0.0683496 0.065903 0.0634924 0.0611178 0.0587791 0.0564764 0.0542097 0.0519889 0.0498242 0.0477156 0.0456629 0.0436663 0.0417258 0.0398412 0.0380127 0.036238 0.0345147 0.032843 0.0312227 0.0296539 0.0281366 0.0266708 0.0252565 0.0238882 0.0225604 0.021273 0.0200262 0.0188198 0.017654 0.0165286 0.0154437 0.0143968 0.0133851 0.0124088 0.0114678 0.0105622 0.0096919 0.00885693 0.00805729 0.00729485 0.0065715 0.00588723 0.00524203 0.00463591 0.00406888 0.00354092 0.00305204 0.00260286 0.00219399 0.00182544 0.00149719 0.00120926 0.000961643 0.000754337 0.000587345 0.000449686 0.000330381 0.000229432 0.000146836 8.25953e-05 3.6709e-05 9.17726e-06 0 0 0.000161883 0.000647532 0.00145695 0.00259013 0.00404708 0.00582779 0.00793227 0.0103605 0.0131143 0.0161952 0.0196034 0.0233388 0.0274015 0.0317913 0.0365084 0.0415528 0.0467602 0.0519667 0.0571723 0.0623769 0.0675806 0.0727833 0.0779851 0.0831859 0.0882583 0.093075 0.0976359 0.101941 0.10599 0.109784 0.113322 0.116604 0.119593 0.122254 0.124586 0.126589 0.128263 0.129609 0.130625 0.131312 0.131703 0.131828 0.131687 0.131282 0.130611 0.129674 0.128473 0.127006 0.125335 0.12352 0.121563 0.119463 0.11722 0.114833 0.112304 0.109632 0.106874 0.104086 0.101269 0.0984236 0.0955486 0.0926445 0.0897111 0.0867486 0.083792 0.0808764 0.0780019 0.0751683 0.0723758 0.0696243 0.0669138 0.0642443 0.0616279 0.0590766 0.0565904 0.0541693 0.0518134 0.0495226 0.0472969 0.0451363 0.0430384 0.041001 0.0390239 0.0371072 0.0352508 0.0334549 0.0317193 0.0300441 0.028423 0.0268497 0.0253242 0.0238465 0.0224167 0.0210347 0.0197005 0.0184141 0.0171725 0.0159727 0.0148146 0.0136984 0.0126239 0.0115912 0.0106003 0.00965111 0.0087458 0.00788638 0.00707285 0.00630523 0.0055835 0.00490767 0.00427774 0.00369371 0.00315637 0.00266652 0.00222416 0.00182928 0.0014819 0.00118201 0.000929601 0.000724685 0.000554837 0.000407635 0.00028308 0.000181171 0.000101909 4.52928e-05 1.13232e-05 0 0 0.000190308 0.00076123 0.00171277 0.00304492 0.00475769 0.00685107 0.00932507 0.0121797 0.0154124 0.0190206 0.0230045 0.0273638 0.0320988 0.0372093 0.0426953 0.0485569 0.0546047 0.0606494 0.066691 0.0727294 0.0787647 0.0847969 0.0908259 0.0968518 0.102728 0.10831 0.113596 0.118586 0.123282 0.127682 0.131786 0.135596 0.139067 0.142159 0.144871 0.147203 0.149155 0.150727 0.15192 0.152732 0.153201 0.153362 0.153216 0.152763 0.152002 0.150934 0.149559 0.147876 0.145956 0.14387 0.141616 0.139196 0.13661 0.133856 0.130936 0.127849 0.124661 0.121437 0.118179 0.114884 0.111555 0.10819 0.10479 0.101355 0.0979251 0.0945414 0.0912039 0.0879127 0.0846676 0.0814688 0.0783162 0.0752099 0.0721641 0.069193 0.0662968 0.0634753 0.0607287 0.0580568 0.0554598 0.0529376 0.0504877 0.0481078 0.0457978 0.0435579 0.0413878 0.0392878 0.0372576 0.0352975 0.0334002 0.0315587 0.029773 0.0280431 0.026369 0.0247507 0.0231882 0.0216815 0.0202271 0.0188215 0.0174647 0.0161567 0.0148974 0.013687 0.0125254 0.0114126 0.0103508 0.00934223 0.00838697 0.00748498 0.00663626 0.0058408 0.00509862 0.0044097 0.00377506 0.00319569 0.0026716 0.00220279 0.00178925 0.00143099 0.001128 0.000880289 0.000673971 0.000495163 0.000343863 0.000220072 0.000123791 5.50181e-05 1.37545e-05 0 0 0.000221271 0.000885083 0.00199144 0.00354033 0.00553177 0.00796575 0.0108423 0.0141613 0.0179151 0.0220956 0.026703 0.0317371 0.0371981 0.0430858 0.0494004 0.0561418 0.0630936 0.0700396 0.0769799 0.0839143 0.0908428 0.0977656 0.104682 0.111594 0.118333 0.124735 0.130799 0.136525 0.141914 0.146966 0.151679 0.156056 0.160046 0.163601 0.166723 0.169409 0.171662 0.17348 0.174864 0.175813 0.176369 0.176572 0.176423 0.175921 0.175067 0.173861 0.172302 0.17039 0.168207 0.165831 0.163262 0.160501 0.157548 0.154402 0.151064 0.147533 0.143886 0.140196 0.136464 0.132689 0.128873 0.125014 0.121113 0.11717 0.113231 0.109344 0.105509 0.101725 0.0979933 0.0943127 0.0906838 0.0871065 0.0835975 0.0801735 0.0768347 0.0735809 0.0704122 0.0673286 0.06433 0.0614165 0.0585857 0.0558351 0.0531648 0.0505747 0.0480649 0.0456352 0.0432859 0.0410167 0.0388199 0.0366876 0.0346196 0.0326161 0.0306769 0.0288022 0.026992 0.0252461 0.0235607 0.0219316 0.0203589 0.0188427 0.0173828 0.0159794 0.0146323 0.0133416 0.0121098 0.0109391 0.00982958 0.00878129 0.00779419 0.00686827 0.00600356 0.00520003 0.00445894 0.00378152 0.00316777 0.0026177 0.00213131 0.00170858 0.00134953 0.00105416 0.000807089 0.000592963 0.00041178 0.000263539 0.000148241 6.58848e-05 1.64712e-05 0 0 0.000254773 0.00101909 0.00229296 0.00407637 0.00636932 0.00917182 0.0124839 0.0163055 0.0206223 0.0254201 0.0306989 0.0364586 0.0426994 0.049421 0.0566237 0.0643073 0.0722268 0.0801374 0.0880389 0.0959314 0.103815 0.111689 0.119555 0.127411 0.135072 0.14235 0.149245 0.155758 0.161888 0.167636 0.173001 0.177984 0.182529 0.186581 0.190141 0.193209 0.195784 0.197867 0.199457 0.200555 0.201206 0.201457 0.201307 0.200756 0.199805 0.198454 0.196702 0.194549 0.192086 0.189403 0.1865 0.183377 0.180034 0.176472 0.172689 0.168686 0.164549 0.160362 0.156125 0.151838 0.147501 0.143115 0.138679 0.134193 0.129711 0.125285 0.120917 0.116606 0.112353 0.108156 0.104016 0.099934 0.0959281 0.0920181 0.0882041 0.084486 0.0808639 0.0773377 0.0739075 0.0705732 0.0673325 0.064183 0.0611248 0.0581578 0.0552819 0.0524974 0.049804 0.0472019 0.0446822 0.0422362 0.0398639 0.0375653 0.0353404 0.0331892 0.0311116 0.0291078 0.0271731 0.025303 0.0234974 0.0217564 0.02008 0.0184682 0.016921 0.0154383 0.0140228 0.0126769 0.0114007 0.0101942 0.00905728 0.00799008 0.00699255 0.00606469 0.005208 0.004424 0.00371267 0.00307403 0.00250807 0.0020148 0.0015942 0.00124629 0.000954189 0.000701037 0.000486831 0.000311572 0.000175259 7.7893e-05 1.94732e-05 0 0 0.000290202 0.00116081 0.00261182 0.00464323 0.00725504 0.0104473 0.0142199 0.0185729 0.0234847 0.0289338 0.03492 0.0414434 0.048504 0.0561018 0.0642368 0.0729089 0.0818433 0.0907649 0.0996738 0.10857 0.117453 0.126324 0.135182 0.144027 0.15265 0.160845 0.16861 0.175945 0.182851 0.189327 0.195374 0.200991 0.206117 0.210691 0.214711 0.218179 0.221093 0.223455 0.225264 0.22652 0.227274 0.227578 0.22743 0.226832 0.225783 0.224283 0.222333 0.219931 0.21718 0.21418 0.210931 0.207433 0.203686 0.19969 0.195446 0.190952 0.186305 0.1816 0.176837 0.172016 0.167137 0.1622 0.157205 0.152152 0.147101 0.142113 0.137188 0.132325 0.127524 0.122787 0.118112 0.113499 0.108971 0.104551 0.100237 0.0960312 0.0919321 0.0879401 0.0840553 0.0802776 0.0766048 0.0730347 0.0695673 0.0662025 0.0629405 0.0597811 0.0567243 0.0537703 0.0509093 0.0481317 0.0454376 0.0428269 0.0402997 0.0378559 0.0354955 0.0332186 0.03102 0.0288946 0.0268423 0.0248633 0.0229575 0.0211248 0.0193653 0.017679 0.0160686 0.0145368 0.0130834 0.0117087 0.0104125 0.00919482 0.00805571 0.00699516 0.00601498 0.00511699 0.00430119 0.00356758 0.00291616 0.00234692 0.00185988 0.00145503 0.00111401 0.000818454 0.000568371 0.000363757 0.000204613 9.09393e-05 2.27348e-05 0 0 0.000326945 0.00130778 0.00294251 0.00523112 0.00817363 0.01177 0.0160203 0.0209245 0.0264529 0.032576 0.0392938 0.0466062 0.0545132 0.0630149 0.0721113 0.0818023 0.0917821 0.101745 0.11169 0.121619 0.13153 0.141424 0.151301 0.161161 0.170774 0.179909 0.188566 0.196746 0.204448 0.211673 0.21842 0.22469 0.230413 0.235522 0.240016 0.243896 0.247162 0.249812 0.251849 0.253271 0.254134 0.254495 0.254354 0.253711 0.252566 0.250919 0.24877 0.246118 0.243076 0.239755 0.236156 0.232277 0.22812 0.223684 0.21897 0.213976 0.20881 0.203577 0.198277 0.192911 0.187477 0.181977 0.17641 0.170776 0.165142 0.159577 0.154079 0.148649 0.143287 0.137993 0.132766 0.127608 0.122542 0.117595 0.112767 0.108057 0.103465 0.0989913 0.0946363 0.0903996 0.0862793 0.0822734 0.0783818 0.0746046 0.0709418 0.0673933 0.0639592 0.0606394 0.0574236 0.0543013 0.0512724 0.0483371 0.0454952 0.0427469 0.040092 0.0375306 0.035057 0.0326655 0.030356 0.0281287 0.0259835 0.0239203 0.0219392 0.0200402 0.0182261 0.0164997 0.014861 0.01331 0.0118467 0.0104711 0.00918315 0.00798293 0.00687261 0.00585437 0.00492821 0.00409414 0.00335216 0.00270226 0.00214445 0.00167873 0.00128528 0.000944284 0.000655753 0.000419682 0.000236071 0.00010492 2.62301e-05 0 0 0.000365003 0.00146001 0.00328503 0.00584005 0.00912508 0.0131401 0.0178851 0.0233602 0.0295269 0.036347 0.0438204 0.0519471 0.0607271 0.0701605 0.0802473 0.0909873 0.102043 0.113077 0.124088 0.135078 0.146045 0.156991 0.167914 0.178815 0.189442 0.199542 0.209115 0.218161 0.226681 0.234674 0.242139 0.249079 0.255415 0.261075 0.266057 0.270362 0.273989 0.276939 0.279211 0.280807 0.281786 0.28221 0.28208 0.281395 0.280155 0.278361 0.276012 0.273109 0.269774 0.266129 0.262174 0.25791 0.253336 0.248453 0.243261 0.237759 0.232064 0.226292 0.220445 0.214521 0.208521 0.202445 0.196292 0.190064 0.183833 0.177676 0.171591 0.165579 0.15964 0.153774 0.147981 0.142261 0.136642 0.131152 0.125792 0.120562 0.115462 0.110491 0.105651 0.100939 0.096356 0.0918991 0.0875684 0.083364 0.0792859 0.0753341 0.0715086 0.0678093 0.0642252 0.0607448 0.0573684 0.0540958 0.050927 0.047862 0.044901 0.0420437 0.039284 0.0366156 0.0340385 0.0315526 0.029158 0.0268547 0.0246426 0.0225219 0.0204953 0.0185658 0.0167334 0.0149981 0.0133599 0.0118188 0.0103749 0.009028 0.00778088 0.00663612 0.00559374 0.00465373 0.00381609 0.00308081 0.00244791 0.00191738 0.001468 0.00107853 0.000748978 0.000479346 0.000269632 0.000119836 2.99591e-05 0 0 0.000404376 0.0016175 0.00363938 0.00647001 0.0101094 0.0145575 0.0198144 0.02588 0.0327067 0.0402466 0.0484997 0.0574661 0.0671457 0.0775386 0.0886447 0.100464 0.112626 0.124761 0.136868 0.148947 0.160999 0.173023 0.185019 0.196988 0.208655 0.219744 0.230256 0.240191 0.249549 0.258329 0.266532 0.274158 0.281125 0.28735 0.292833 0.297575 0.301576 0.304835 0.307352 0.309128 0.310229 0.310721 0.310606 0.309882 0.30855 0.30661 0.304061 0.300904 0.297273 0.2933 0.288986 0.284331 0.279335 0.273997 0.268319 0.262299 0.256065 0.249746 0.24334 0.236847 0.230269 0.223604 0.216853 0.210016 0.203174 0.196411 0.189724 0.183116 0.176585 0.170131 0.163756 0.157458 0.151269 0.145221 0.139314 0.133549 0.127924 0.122441 0.117098 0.111897 0.106835 0.101912 0.097127 0.0924807 0.0879728 0.0836034 0.0793725 0.07528 0.0713139 0.0674624 0.0637254 0.0601029 0.056595 0.0532015 0.0499225 0.046758 0.0437012 0.0407451 0.0378897 0.0351351 0.0324812 0.029928 0.0274756 0.025124 0.022876 0.0207349 0.0187005 0.016773 0.0149521 0.0132381 0.0116309 0.0101304 0.0087398 0.00746227 0.00629778 0.00524634 0.00430794 0.00348258 0.00277027 0.00217099 0.00166217 0.00122118 0.000848045 0.000542749 0.000305296 0.000135687 3.39218e-05 0 0 0.000445063 0.00178025 0.00400556 0.007121 0.0111266 0.0160223 0.0218081 0.028484 0.0359922 0.0442748 0.0533318 0.0631631 0.0737689 0.085149 0.0973035 0.110232 0.123532 0.136797 0.150029 0.163227 0.176391 0.189521 0.202618 0.215681 0.228413 0.240515 0.251989 0.262835 0.273051 0.282639 0.291598 0.299929 0.307541 0.314347 0.320345 0.325537 0.329922 0.3335 0.336271 0.338235 0.339464 0.34003 0.339933 0.339173 0.33775 0.335664 0.332916 0.329504 0.325574 0.32127 0.316592 0.311541 0.306116 0.300317 0.294144 0.287597 0.280816 0.273937 0.266962 0.259889 0.25272 0.245455 0.238092 0.230632 0.223166 0.215781 0.208478 0.201258 0.19412 0.187064 0.18009 0.173198 0.166424 0.159802 0.153332 0.147015 0.140851 0.134838 0.128979 0.123272 0.117716 0.112311 0.107058 0.101955 0.0970025 0.0922013 0.0875509 0.0830513 0.07869 0.074454 0.0703436 0.0663586 0.0624991 0.0587651 0.0551566 0.0516735 0.0483084 0.0450538 0.0419097 0.038876 0.0359529 0.0331403 0.0304382 0.0278465 0.0253685 0.0230071 0.0207625 0.0186346 0.0166234 0.0147289 0.0129511 0.01129 0.00974936 0.00833279 0.00704032 0.00587196 0.00482771 0.00390756 0.00311151 0.00243956 0.00186779 0.00137225 0.000952955 0.000609891 0.000343064 0.000152473 3.81182e-05 0 0 0.000487064 0.00194826 0.00438358 0.00779303 0.0121766 0.0175343 0.0238661 0.0311721 0.0393835 0.0484317 0.0583166 0.0690383 0.0805967 0.0929919 0.106224 0.120293 0.134759 0.149186 0.163571 0.177917 0.192222 0.206486 0.22071 0.234893 0.248715 0.261856 0.274315 0.286093 0.297189 0.307604 0.317338 0.32639 0.334664 0.342065 0.348592 0.354246 0.359027 0.362934 0.365967 0.368127 0.36949 0.370135 0.370061 0.369268 0.367756 0.365526 0.362576 0.358908 0.354676 0.350038 0.344992 0.339539 0.333678 0.327411 0.320736 0.313654 0.306314 0.298867 0.291311 0.283647 0.275876 0.267996 0.260009 0.251913 0.243807 0.235787 0.227854 0.220007 0.212246 0.204572 0.196984 0.189483 0.182107 0.174895 0.167846 0.160962 0.154242 0.147685 0.141293 0.135064 0.128999 0.123098 0.11736 0.111786 0.106375 0.101128 0.0960438 0.0911234 0.0863532 0.0817197 0.0772229 0.0728629 0.0686396 0.064553 0.0606032 0.0567901 0.0531057 0.0495418 0.0460984 0.0427755 0.0395732 0.0364915 0.0335302 0.0306895 0.0279726 0.0253825 0.0229193 0.020583 0.0183737 0.0162912 0.0143357 0.012507 0.0108096 0.0092477 0.00782138 0.00653061 0.0053754 0.00435574 0.00347164 0.00272309 0.00208487 0.00153174 0.00106371 0.000680773 0.000382935 0.000170193 4.25483e-05 0 0 0.00053038 0.00212152 0.00477342 0.00848609 0.0132595 0.0190937 0.0259886 0.0339444 0.0428806 0.0527172 0.0634542 0.0750915 0.0876292 0.101067 0.115406 0.130644 0.146309 0.161926 0.177496 0.193017 0.208491 0.223916 0.239294 0.254624 0.269562 0.283765 0.297233 0.309966 0.321963 0.333224 0.34375 0.353541 0.362494 0.370505 0.377575 0.383704 0.388891 0.393137 0.396441 0.398804 0.400309 0.401037 0.40099 0.400167 0.398568 0.396193 0.393042 0.389116 0.384581 0.379604 0.374185 0.368325 0.362024 0.35528 0.348095 0.340469 0.332561 0.324534 0.316388 0.308121 0.299735 0.291229 0.282604 0.273858 0.265098 0.256429 0.24785 0.239361 0.230963 0.222655 0.214438 0.206311 0.198318 0.190499 0.182857 0.175389 0.168097 0.160981 0.15404 0.147275 0.140685 0.134272 0.1