<?xml version="1.0"?> 
<VTKFile type="StructuredGrid" version="0.1"> 
<StructuredGrid WholeExtent="0 128 0 128 0 0"> 
<Piece Extent="0 128 0 128 0 0"> 
<PointData>
<DataArray type="Float32" Name="u" format="ascii" NumberOfComponents="1"> 
0 0 0 0 0 0 0 0 0 0 0 0 0 0 0 0 0 0 0 0 0 0 0 0 0 0 0 0 0 0 0 0 0 0 0 0 0 0 0 0 0 0 0 0 0 0 0 0 0 0 0 0 0 0 0 0 0 0 0 0 0 0 0 0 0 0 0 0 0 0 0 0 0 0 0 0 0 0 0 0 0 0 0 0 0 0 0 0 0 0 0 0 0 0 0 0 0 0 0 0 0 0 0 0 0 0 0 0 0 0 0 0 0 0 0 0 0 0 0 0 0 0 0 0 0 0 0 0 0 0 -3.36366e-08 -1.34546e-07 -3.02729e-07 -5.38186e-07 -8.40915e-07 -1.21092e-06 -1.64819e-06 -2.15274e-06 -2.55978e-06 -2.70454e-06 -2.587e-06 -2.20718e-06 -1.56507e-06 -6.60671e-07 5.06016e-07 1.93499e-06 3.62038e-06 5.5563e-06 7.74277e-06 1.01798e-05 1.28673e-05 1.58054e-05 1.8994e-05 2.24332e-05 2.59528e-05 2.93831e-05 3.27238e-05 3.59751e-05 3.91369e-05 4.22092e-05 4.5192e-05 4.80854e-05 5.07468e-05 5.30337e-05 5.49461e-05 5.64841e-05 5.76475e-05 5.84364e-05 5.88509e-05 5.88909e-05 5.85723e-05 5.79113e-05 5.69077e-05 5.55616e-05 5.3873e-05 5.18419e-05 4.94683e-05 4.67522e-05 4.38504e-05 4.09198e-05 3.79604e-05 3.49721e-05 3.1955e-05 2.89092e-05 2.58344e-05 2.27309e-05 1.97484e-05 1.70368e-05 1.45961e-05 1.24262e-05 1.05272e-05 8.89915e-06 7.54193e-06 6.4556e-06 5.64995e-06 5.13478e-06 4.91009e-06 4.97587e-06 5.33213e-06 5.97887e-06 6.91609e-06 8.14379e-06 9.54097e-06 1.09866e-05 1.24808e-05 1.40234e-05 1.56146e-05 1.72542e-05 1.89423e-05 2.06789e-05 2.23414e-05 2.38072e-05 2.50765e-05 2.6149e-05 2.70249e-05 2.77042e-05 2.81868e-05 2.84727e-05 2.85499e-05 2.84064e-05 2.80421e-05 2.74571e-05 2.66513e-05 2.56247e-05 2.43774e-05 2.29093e-05 2.13127e-05 1.96799e-05 1.80108e-05 1.63055e-05 1.4564e-05 1.27862e-05 1.09722e-05 9.12199e-06 7.33067e-06 5.69342e-06 4.21023e-06 2.8811e-06 1.70604e-06 6.85043e-07 -1.8189e-07 -8.94759e-07 -1.46399e-06 -1.90003e-06 -2.20287e-06 -2.3725e-06 -2.40894e-06 -2.31218e-06 -2.08221e-06 -1.71905e-06 -1.31615e-06 -9.66967e-07 -6.71505e-07 -4.29763e-07 -2.41742e-07 -1.07441e-07 -2.68602e-08 0 0 -1.34546e-07 -5.38186e-07 -1.21092e-06 -2.15274e-06 -3.36366e-06 -4.84367e-06 -6.59277e-06 -8.61097e-06 -1.02391e-05 -1.08181e-05 -1.0348e-05 -8.82872e-06 -6.26028e-06 -2.64268e-06 2.02406e-06 7.73996e-06 1.44815e-05 2.22252e-05 3.09711e-05 4.07191e-05 5.14692e-05 6.32216e-05 7.5976e-05 8.97326e-05 0.000103811 0.000117532 0.000130895 0.0001439 0.000156547 0.000168837 0.000180768 0.000192342 0.000202987 0.000212135 0.000219785 0.000225936 0.00023059 0.000233746 0.000235404 0.000235563 0.000234289 0.000231645 0.000227631 0.000222247 0.000215492 0.000207368 0.000197873 0.000187009 0.000175402 0.000163679 0.000151841 0.000139888 0.00012782 0.000115637 0.000103338 9.09237e-05 7.89937e-05 6.81472e-05 5.83843e-05 4.97049e-05 4.2109e-05 3.55966e-05 3.01677e-05 2.58224e-05 2.25998e-05 2.05391e-05 1.96403e-05 1.99035e-05 2.13285e-05 2.39155e-05 2.76644e-05 3.25752e-05 3.81639e-05 4.39465e-05 4.99232e-05 5.60937e-05 6.24583e-05 6.90167e-05 7.57691e-05 8.27155e-05 8.93656e-05 9.5229e-05 0.000100306 0.000104596 0.0001081 0.000110817 0.000112747 0.000113891 0.0001142 0.000113626 0.000112169 0.000109828 0.000106605 0.000102499 9.75095e-05 9.16371e-05 8.52508e-05 7.87195e-05 7.20432e-05 6.52221e-05 5.82559e-05 5.11449e-05 4.38889e-05 3.6488e-05 2.93227e-05 2.27737e-05 1.68409e-05 1.15244e-05 6.82416e-06 2.74017e-06 -7.27561e-07 -3.57903e-06 -5.85598e-06 -7.60013e-06 -8.81147e-06 -9.49002e-06 -9.63576e-06 -9.24871e-06 -8.32886e-06 -6.87621e-06 -5.2646e-06 -3.86787e-06 -2.68602e-06 -1.71905e-06 -9.66967e-07 -4.29763e-07 -1.07441e-07 0 0 -3.02729e-07 -1.21092e-06 -2.72456e-06 -4.84367e-06 -7.56823e-06 -1.08983e-05 -1.48337e-05 -1.93747e-05 -2.30381e-05 -2.43408e-05 -2.3283e-05 -1.98646e-05 -1.40856e-05 -5.94604e-06 4.55415e-06 1.74149e-05 3.25834e-05 5.00067e-05 6.96849e-05 9.16179e-05 0.000115806 0.000142249 0.000170946 0.000201898 0.000233576 0.000264448 0.000294514 0.000323776 0.000352232 0.000379883 0.000406728 0.000432769 0.000456721 0.000477304 0.000494515 0.000508357 0.000518828 0.000525928 0.000529658 0.000530018 0.000527151 0.000521201 0.000512169 0.000500055 0.000484857 0.000466577 0.000445215 0.00042077 0.000394654 0.000368278 0.000341643 0.000314749 0.000287595 0.000260182 0.00023251 0.000204578 0.000177736 0.000153331 0.000131365 0.000111836 9.47452e-05 8.00923e-05 6.78774e-05 5.81004e-05 5.08496e-05 4.6213e-05 4.41908e-05 4.47828e-05 4.79892e-05 5.38099e-05 6.22448e-05 7.32941e-05 8.58687e-05 9.88797e-05 0.000112327 0.000126211 0.000140531 0.000155288 0.000170481 0.00018611 0.000201073 0.000214265 0.000225688 0.000235341 0.000243224 0.000249337 0.000253681 0.000256254 0.000256949 0.000255658 0.000252379 0.000247114 0.000239861 0.000230622 0.000219396 0.000206184 0.000191814 0.000177119 0.000162097 0.00014675 0.000131076 0.000115076 9.875e-05 8.20979e-05 6.5976e-05 5.12407e-05 3.7892e-05 2.59299e-05 1.53544e-05 6.16538e-06 -1.63701e-06 -8.05283e-06 -1.3176e-05 -1.71003e-05 -1.98258e-05 -2.13525e-05 -2.16805e-05 -2.08096e-05 -1.87399e-05 -1.54715e-05 -1.18453e-05 -8.7027e-06 -6.04354e-06 -3.86787e-06 -2.17567e-06 -9.66967e-07 -2.41742e-07 0 0 -5.38186e-07 -2.15274e-06 -4.84367e-06 -8.61097e-06 -1.34546e-05 -1.93747e-05 -2.63711e-05 -3.44439e-05 -4.09565e-05 -4.32726e-05 -4.1392e-05 -3.53149e-05 -2.50411e-05 -1.05707e-05 8.09626e-06 3.09599e-05 5.79261e-05 8.89009e-05 0.000123884 0.000162876 0.000205877 0.000252886 0.000303904 0.000358931 0.000415246 0.000470129 0.000523581 0.000575601 0.00062619 0.000675347 0.000723073 0.000769367 0.000811949 0.00084854 0.000879138 0.000903745 0.00092236 0.000934983 0.000941614 0.000942254 0.000937157 0.00092658 0.000910523 0.000888986 0.000861969 0.000829471 0.000791493 0.000748035 0.000701607 0.000654717 0.000607366 0.000559554 0.000511281 0.000462547 0.000413351 0.000363695 0.000315975 0.000272589 0.000233537 0.000198819 0.000168436 0.000142386 0.000120671 0.00010329 9.03993e-05 8.21565e-05 7.85614e-05 7.96139e-05 8.53141e-05 9.5662e-05 0.000110657 0.000130301 0.000152655 0.000175786 0.000199693 0.000224375 0.000249833 0.000276067 0.000303077 0.000330862 0.000357462 0.000380916 0.000401223 0.000418384 0.000432399 0.000443267 0.000450988 0.000455563 0.000456799 0.000454503 0.000448674 0.000439313 0.00042642 0.000409995 0.000390038 0.000366548 0.000341003 0.000314878 0.000288173 0.000260888 0.000233024 0.00020458 0.000175556 0.000145952 0.000117291 9.10947e-05 6.73636e-05 4.60976e-05 2.72966e-05 1.09607e-05 -2.91024e-06 -1.43161e-05 -2.34239e-05 -3.04005e-05 -3.52459e-05 -3.79601e-05 -3.85431e-05 -3.69948e-05 -3.33154e-05 -2.75048e-05 -2.10584e-05 -1.54715e-05 -1.07441e-05 -6.87621e-06 -3.86787e-06 -1.71905e-06 -4.29763e-07 0 0 -8.40915e-07 -3.36366e-06 -7.56823e-06 -1.34546e-05 -2.10229e-05 -3.02729e-05 -4.12048e-05 -5.38186e-05 -6.39946e-05 -6.76134e-05 -6.46751e-05 -5.51795e-05 -3.91267e-05 -1.65168e-05 1.26504e-05 4.83748e-05 9.05095e-05 0.000138908 0.000193569 0.000254494 0.000321683 0.000395135 0.00047485 0.000560829 0.000648821 0.000734577 0.000818095 0.000899377 0.000978422 0.00105523 0.0011298 0.00120214 0.00126867 0.00132584 0.00137365 0.0014121 0.00144119 0.00146091 0.00147127 0.00147227 0.00146431 0.00144778 0.00142269 0.00138904 0.00134683 0.00129605 0.00123671 0.0011688 0.00109626 0.00102299 0.000949009 0.000874303 0.000798876 0.000722729 0.000645861 0.000568273 0.000493711 0.00042592 0.000364902 0.000310655 0.000263181 0.000222479 0.000188548 0.00016139 0.000141249 0.00012837 0.000122752 0.000124397 0.000133303 0.000149472 0.000172902 0.000203595 0.000238524 0.000274666 0.00031202 0.000350586 0.000390364 0.000431355 0.000473557 0.000516972 0.000558535 0.000595181 0.000626911 0.000653725 0.000675623 0.000692604 0.000704669 0.000711817 0.000713748 0.00071016 0.000701053 0.000686427 0.000666282 0.000640618 0.000609434 0.000572732 0.000532817 0.000491997 0.00045027 0.000407638 0.0003641 0.000319656 0.000274306 0.00022805 0.000183267 0.000142335 0.000105256 7.20275e-05 4.2651e-05 1.71261e-05 -4.54725e-06 -2.2369e-05 -3.65999e-05 -4.75008e-05 -5.50717e-05 -5.93126e-05 -6.02235e-05 -5.78044e-05 -5.20554e-05 -4.29763e-05 -3.29037e-05 -2.41742e-05 -1.67876e-05 -1.07441e-05 -6.04354e-06 -2.68602e-06 -6.71505e-07 0 0 -1.21092e-06 -4.84367e-06 -1.08983e-05 -1.93747e-05 -3.02729e-05 -4.3593e-05 -5.9335e-05 -7.74987e-05 -9.21522e-05 -9.73633e-05 -9.31321e-05 -7.94585e-05 -5.63425e-05 -2.37841e-05 1.82166e-05 6.96597e-05 0.000130334 0.000200027 0.00027874 0.000366472 0.000463223 0.000568994 0.000683784 0.000807594 0.000934303 0.00105779 0.00117806 0.0012951 0.00140893 0.00151953 0.00162691 0.00173108 0.00182689 0.00190921 0.00197806 0.00203343 0.00207531 0.00210371 0.00211863 0.00212007 0.0021086 0.00208481 0.00204868 0.00200022 0.00193943 0.00186631 0.00178086 0.00168308 0.00157861 0.00147311 0.00136657 0.001259 0.00115038 0.00104073 0.00093004 0.000818313 0.000710943 0.000613325 0.000525458 0.000447344 0.000378981 0.000320369 0.00027151 0.000232402 0.000203398 0.000184852 0.000176763 0.000179131 0.000191957 0.000215239 0.000248979 0.000293176 0.000343475 0.000395519 0.000449308 0.000504844 0.000562124 0.000621151 0.000681922 0.00074444 0.00080429 0.000857061 0.000902752 0.000941364 0.000972897 0.00099735 0.00101472 0.00102502 0.0010278 0.00102263 0.00100952 0.000988455 0.000959446 0.000922489 0.000877585 0.000824734 0.000767257 0.000708475 0.000648389 0.000586998 0.000524303 0.000460304 0.000395 0.000328392 0.000263904 0.000204963 0.000151568 0.00010372 6.14174e-05 2.46615e-05 -6.54805e-06 -3.22113e-05 -5.27038e-05 -6.84011e-05 -7.93032e-05 -8.54102e-05 -8.67219e-05 -8.32384e-05 -7.49597e-05 -6.18859e-05 -4.73814e-05 -3.48108e-05 -2.41742e-05 -1.54715e-05 -8.7027e-06 -3.86787e-06 -9.66967e-07 0 0 -1.64819e-06 -6.59277e-06 -1.48337e-05 -2.63711e-05 -4.12048e-05 -5.9335e-05 -8.07615e-05 -0.000105484 -0.000125429 -0.000132522 -0.000126763 -0.000108152 -7.66884e-05 -3.23729e-05 2.47948e-05 9.48146e-05 0.000177399 0.000272259 0.000379396 0.000498809 0.000630498 0.000774464 0.000930706 0.00109922 0.00127169 0.00143977 0.00160347 0.00176278 0.00191771 0.00206825 0.00221441 0.00235619 0.00248659 0.00259865 0.00269236 0.00276772 0.00282473 0.00286339 0.00288369 0.00288565 0.00287004 0.00283765 0.00278848 0.00272252 0.00263978 0.00254025 0.00242395 0.00229086 0.00214867 0.00200507 0.00186006 0.00171363 0.0015658 0.00141655 0.00126589 0.00111382 0.000967673 0.000834803 0.000715207 0.000608884 0.000515835 0.000436058 0.000369555 0.000316325 0.000276848 0.000251604 0.000240594 0.000243818 0.000261275 0.000292965 0.000338888 0.000399046 0.000467507 0.000538345 0.000611559 0.000687148 0.000765114 0.000845455 0.000928172 0.00101327 0.00109473 0.00116656 0.00122875 0.0012813 0.00132422 0.0013575 0.00138115 0.00139516 0.00139895 0.00139191 0.00137406 0.0013454 0.00130591 0.00125561 0.00119449 0.00112255 0.00104432 0.000964313 0.00088253 0.00079897 0.000713635 0.000626525 0.000537639 0.000446977 0.000359203 0.000278977 0.000206301 0.000141174 8.35959e-05 3.35671e-05 -8.91262e-06 -4.38432e-05 -7.17357e-05 -9.31015e-05 -0.000107941 -0.000116253 -0.000118038 -0.000113297 -0.000102029 -8.42335e-05 -6.44913e-05 -4.73814e-05 -3.29037e-05 -2.10584e-05 -1.18453e-05 -5.2646e-06 -1.31615e-06 0 0 -2.15274e-06 -8.61097e-06 -1.93747e-05 -3.44439e-05 -5.38186e-05 -7.74987e-05 -0.000105484 -0.000137775 -0.000163826 -0.00017309 -0.000165568 -0.00014126 -0.000100164 -4.22829e-05 3.2385e-05 0.000123839 0.000231704 0.000355603 0.000495537 0.000651505 0.000823508 0.00101154 0.00121562 0.00143572 0.00166098 0.00188052 0.00209432 0.0023024 0.00250476 0.00270139 0.00289229 0.00307747 0.0032478 0.00339416 0.00351655 0.00361498 0.00368944 0.00373993 0.00376646 0.00376902 0.00374863 0.00370632 0.00364209 0.00355594 0.00344787 0.00331788 0.00316597 0.00299214 0.00280643 0.00261887 0.00242946 0.00223822 0.00204512 0.00185019 0.0016534 0.00145478 0.0012639 0.00109036 0.000934148 0.000795278 0.000673743 0.000569545 0.000482684 0.000413159 0.000361597 0.000328626 0.000314246 0.000318456 0.000341257 0.000382648 0.00044263 0.000521202 0.000610622 0.000703145 0.000798771 0.0008975 0.000999332 0.00110427 0.00121231 0.00132345 0.00142985 0.00152366 0.00160489 0.00167354 0.00172959 0.00177307 0.00180395 0.00182225 0.0018272 0.00181801 0.0017947 0.00175725 0.00170568 0.00163998 0.00156015 0.00146619 0.00136401 0.00125951 0.00115269 0.00104355 0.000932095 0.000818318 0.000702222 0.000583807 0.000469163 0.000364379 0.000269454 0.00018439 0.000109187 4.38427e-05 -1.1641e-05 -5.72645e-05 -9.36957e-05 -0.000121602 -0.000140984 -0.00015184 -0.000154172 -0.000147979 -0.000133262 -0.000110019 -8.42335e-05 -6.18859e-05 -4.29763e-05 -2.75048e-05 -1.54715e-05 -6.87621e-06 -1.71905e-06 0 0 -2.46365e-06 -9.85461e-06 -2.21729e-05 -3.94185e-05 -6.15913e-05 -8.86915e-05 -0.000120719 -0.000157674 -0.000186393 -0.000193713 -0.000179635 -0.000144158 -8.72825e-05 -9.00811e-06 9.06649e-05 0.000211737 0.000353567 0.000515517 0.000697585 0.000899773 0.00112208 0.00136451 0.00162705 0.00190971 0.00219873 0.00248034 0.00275453 0.00302131 0.00328068 0.00353263 0.00377718 0.00401431 0.00423253 0.00442034 0.00457773 0.00470471 0.00480127 0.00486743 0.00490317 0.00490849 0.00488471 0.00483311 0.0047537 0.00464647 0.00451144 0.00434859 0.00415792 0.00393945 0.00370583 0.00346973 0.00323115 0.0029901 0.00274657 0.00250056 0.00225207 0.00200111 0.00175978 0.00154018 0.00134231 0.00116618 0.00101178 0.000879122 0.000768195 0.000679003 0.000612356 0.000569065 0.000549131 0.000552553 0.00057933 0.000629464 0.000702954 0.0007998 0.000910259 0.00102459 0.00114278 0.00126485 0.00139079 0.0015206 0.00165427 0.00179182 0.00192335 0.002039 0.00213875 0.00222261 0.00229059 0.00234267 0.00237886 0.00239917 0.00240261 0.00238821 0.00235597 0.0023059 0.00223799 0.00215224 0.00204866 0.00192723 0.00179542 0.00166065 0.00152292 0.00138225 0.00123862 0.00109204 0.000942502 0.000790014 0.000642269 0.000506961 0.00038409 0.000273655 0.000175658 9.00971e-05 1.69734e-05 -4.37134e-05 -9.27338e-05 -0.000130858 -0.000158087 -0.00017442 -0.000179857 -0.000174398 -0.000158044 -0.000130793 -0.000100139 -7.35713e-05 -5.10911e-05 -3.26983e-05 -1.83928e-05 -8.17458e-06 -2.04365e-06 0 0 -2.32002e-06 -9.28007e-06 -2.08801e-05 -3.71203e-05 -5.80004e-05 -8.35206e-05 -0.000113681 -0.000148481 -0.00017218 -0.000169037 -0.000139052 -8.22241e-05 1.4457e-06 0.000111958 0.000249312 0.000413509 0.000603304 0.000817455 0.00105596 0.00131882 0.00160604 0.00191761 0.00225354 0.00261383 0.00298148 0.00333954 0.00368798 0.00402682 0.00435605 0.00467568 0.00498569 0.00528611 0.00556283 0.00580179 0.00600298 0.0061664 0.00629206 0.00637995 0.00643007 0.00644243 0.00641863 0.00636031 0.00626747 0.00614009 0.00597818 0.00578175 0.00555079 0.0052853 0.00500082 0.00471288 0.00442149 0.00412665 0.00382835 0.00352659 0.00322138 0.00291272 0.00261546 0.00234446 0.00209972 0.00188125 0.00168903 0.00152308 0.00138339 0.00126996 0.00118383 0.00112607 0.00109666 0.00109562 0.00112292 0.00117859 0.00126261 0.00137499 0.00150386 0.00163734 0.00177544 0.00191816 0.00206549 0.00221744 0.00237401 0.0025352 0.00268893 0.00282316 0.00293787 0.00303308 0.00310877 0.00316495 0.00320163 0.00321879 0.00321524 0.0031898 0.00314246 0.00307322 0.00298208 0.00286904 0.0027341 0.00257726 0.00240762 0.00223429 0.00205727 0.00187655 0.00169214 0.00150403 0.00131223 0.00111673 0.000927007 0.000752519 0.000593268 0.000449254 0.000320478 0.000206939 0.000108637 2.55724e-05 -4.30003e-05 -9.78265e-05 -0.000138906 -0.000166239 -0.000179826 -0.000179666 -0.000165759 -0.000138106 -0.000105737 -7.76845e-05 -5.39476e-05 -3.45264e-05 -1.94211e-05 -8.63161e-06 -2.1579e-06 0 0 -1.72183e-06 -6.88732e-06 -1.54965e-05 -2.75493e-05 -4.30458e-05 -6.19859e-05 -8.43697e-05 -0.000110197 -0.000121188 -9.90616e-05 -4.38181e-05 4.45424e-05 0.00016602 0.000320615 0.000508327 0.000729156 0.000980915 0.00126142 0.00157067 0.00190866 0.00227539 0.00267087 0.00309509 0.00354806 0.00400924 0.00445812 0.00489468 0.00531893 0.00573088 0.00613051 0.00651784 0.00689285 0.0072387 0.00753851 0.0077923 0.00800006 0.00816179 0.00827749 0.00834717 0.00837081 0.00835041 0.00828793 0.0081834 0.00803679 0.00784812 0.00761738 0.00734457 0.00702969 0.0066914 0.00634833 0.00600048 0.00564785 0.00529046 0.00492828 0.00456133 0.0041896 0.00383095 0.00350321 0.00320638 0.00294048 0.00270549 0.00250141 0.00232826 0.00218602 0.00207603 0.00199964 0.00195685 0.00194764 0.00197204 0.00203002 0.0021216 0.00224678 0.00239142 0.00254141 0.00269674 0.00285742 0.00302344 0.00319481 0.00337153 0.00355359 0.00372659 0.00387615 0.00400227 0.00410493 0.00418415 0.00423992 0.00427224 0.00428111 0.0042651 0.00422278 0.00415415 0.0040592 0.00393794 0.00379036 0.00361647 0.00341627 0.00320063 0.00298046 0.00275573 0.00252647 0.00229266 0.0020543 0.0018114 0.00156396 0.00132338 0.00110105 0.000896989 0.000711188 0.000543647 0.000394368 0.00026335 0.000150593 5.55048e-05 -2.25063e-05 -8.34404e-05 -0.000127298 -0.000154078 -0.000163781 -0.000156407 -0.000131957 -0.000101029 -7.42256e-05 -5.15455e-05 -3.29891e-05 -1.85564e-05 -8.24728e-06 -2.06182e-06 0 0 -6.69097e-07 -2.67639e-06 -6.02188e-06 -1.07056e-05 -1.67274e-05 -2.40875e-05 -3.27858e-05 -4.28222e-05 -3.34162e-05 1.62132e-05 0.000106066 0.000236142 0.000406441 0.000616963 0.000867708 0.00115868 0.0014864 0.00184741 0.0022417 0.00266927 0.00313013 0.00362428 0.0041517 0.00471241 0.00528201 0.00583608 0.00637463 0.00689766 0.00740516 0.00789715 0.00837361 0.00883455 0.00926013 0.00963052 0.0099457 0.0102057 0.0104105 0.0105601 0.0106545 0.0106936 0.01068 0.010616 0.0105015 0.0103366 0.0101212 0.00985546 0.00953926 0.00917263 0.00877757 0.00837606 0.00796811 0.00755372 0.00713289 0.00670562 0.00627191 0.00583176 0.00540624 0.00501642 0.00466229 0.00434387 0.00406115 0.00381413 0.00360281 0.00342719 0.00328895 0.00318978 0.00312967 0.00310864 0.00312667 0.00318376 0.00327993 0.00341515 0.00357294 0.00373679 0.00390669 0.00408264 0.00426464 0.0044527 0.00464682 0.00484699 0.00503633 0.00519798 0.00533192 0.00543817 0.00551671 0.00556755 0.0055907 0.00558614 0.00555219 0.00548716 0.00539105 0.00526385 0.00510558 0.00491622 0.00469578 0.00444426 0.00417445 0.00389913 0.00361832 0.003332 0.00304018 0.00274285 0.00244003 0.0021317 0.00183138 0.00155256 0.00129525 0.00105946 0.000845166 0.000652385 0.000481112 0.000331348 0.000202781 9.51022e-05 8.30996e-06 -5.75952e-05 -0.000102613 -0.000126745 -0.000129989 -0.000112346 -8.60147e-05 -6.31945e-05 -4.38851e-05 -2.80864e-05 -1.57986e-05 -7.02161e-06 -1.7554e-06 0 0 8.38185e-07 3.35274e-06 7.54366e-06 1.3411e-05 2.09546e-05 3.01747e-05 4.10711e-05 5.36438e-05 9.11351e-05 0.000176787 0.0003106 0.000492573 0.000722707 0.001001 0.00132746 0.00170207 0.00211976 0.00257542 0.00306906 0.00360067 0.00417026 0.00477783 0.00542337 0.00610689 0.00679978 0.00747342 0.00812782 0.00876298 0.0093789 0.00997558 0.010553 0.0111112 0.0116271 0.0120778 0.0124632 0.0127833 0.0130381 0.0132277 0.0133519 0.0134109 0.0134075 0.0133444 0.0132217 0.0130395 0.0127975 0.012496 0.0121349 0.0117141 0.0112593 0.0107961 0.0103244 0.00984426 0.00935567 0.00885862 0.00835313 0.00783919 0.00734133 0.00688409 0.00646745 0.00609143 0.00575602 0.00546122 0.00520704 0.00499347 0.00482259 0.00469648 0.00461515 0.0045786 0.00458682 0.00463981 0.00473758 0.00488013 0.00504843 0.00522348 0.00540527 0.00559381 0.00578909 0.00599112 0.00619989 0.0064154 0.00661815 0.00678864 0.00692685 0.00703279 0.00710647 0.00714787 0.00715701 0.00713387 0.0070765 0.00698293 0.00685315 0.00668718 0.00648499 0.00624661 0.00597203 0.00566124 0.00532906 0.00499032 0.00464501 0.00429314 0.00393469 0.00356968 0.0031981 0.00281995 0.00245101 0.00210704 0.00178806 0.00149406 0.00122503 0.000980988 0.000761923 0.000567837 0.00039883 0.000254999 0.000136345 4.28677e-05 -2.54328e-05 -6.85564e-05 -8.65033e-05 -7.92733e-05 -6.06936e-05 -4.45913e-05 -3.09661e-05 -1.98183e-05 -1.11478e-05 -4.95458e-06 -1.23865e-06 0 0 2.80002e-06 1.12001e-05 2.52001e-05 4.48002e-05 7.00004e-05 0.000100801 0.000137201 0.000179201 0.000252466 0.00038266 0.000569784 0.000813837 0.00111482 0.00147273 0.00188757 0.00235934 0.00288099 0.00344546 0.00405274 0.00470285 0.00539578 0.00613153 0.0069101 0.00773149 0.00856255 0.00937015 0.0101543 0.0109149 0.0116521 0.0123658 0.013056 0.0137228 0.0143397 0.0148803 0.0153447 0.0157328 0.0160447 0.0162803 0.0164396 0.0165227 0.0165328 0.0164733 0.0163442 0.0161454 0.015877 0.015539 0.0151314 0.0146541 0.0141367 0.0136084 0.0130693 0.0125194 0.0119588 0.0113873 0.010805 0.0102119 0.00963624 0.00910622 0.00862186 0.00818316 0.0077901 0.0074427 0.00714095 0.00688485 0.00667694 0.00651975 0.00641328 0.00635752 0.00635249 0.00639817 0.00649457 0.00664169 0.00681788 0.00700148 0.0071925 0.00739093 0.00759678 0.00781005 0.00803073 0.00825883 0.00847205 0.00864812 0.00878704 0.0088888 0.00895341 0.00898087 0.00897117 0.00892431 0.00883804 0.00871009 0.00854047 0.00832917 0.00807619 0.00778153 0.0074452 0.0070672 0.00666448 0.00625403 0.00583583 0.00540989 0.00497621 0.00453478 0.00408562 0.00362871 0.00318227 0.0027645 0.00237541 0.00201499 0.00168325 0.00138018 0.00110578 0.000860062 0.00064365 0.000457184 0.000300664 0.000174091 7.74643e-05 1.07835e-05 -2.5951e-05 -3.27393e-05 -2.5066e-05 -1.84159e-05 -1.27888e-05 -8.18483e-06 -4.60397e-06 -2.04621e-06 -5.11552e-07 0 0 5.21639e-06 2.08656e-05 4.69475e-05 8.34623e-05 0.00013041 0.00018779 0.000255603 0.000333849 0.000450576 0.000633833 0.000883619 0.00119993 0.00158278 0.00203215 0.00254806 0.00313049 0.0037701 0.00445752 0.00519276 0.00597582 0.00680669 0.00768538 0.00861188 0.00958621 0.0105703 0.0115263 0.012454 0.0133535 0.0142247 0.0150678 0.0158827 0.0166694 0.0173978 0.0180382 0.0185903 0.0190544 0.0194302 0.0197179 0.0199175 0.0200289 0.0200559 0.0200026 0.0198687 0.0196545 0.0193597 0.0189845 0.0185288 0.0179927 0.0174096 0.016813 0.0162029 0.0155793 0.0149422 0.0142916 0.0136275 0.0129499 0.0122909 0.0116828 0.0111255 0.010619 0.0101634 0.00975855 0.00940454 0.00910135 0.00885202 0.00865959 0.00852405 0.00844541 0.00842368 0.00845884 0.00855089 0.00869985 0.00888129 0.0090708 0.00926837 0.00947402 0.00968773 0.0099095 0.0101393 0.0103773 0.010598 0.0107764 0.0109125 0.0110062 0.0110575 0.0110665 0.0110332 0.0109575 0.0108368 0.0106686 0.010453 0.0101898 0.00987916 0.00952099 0.00911532 0.00866214 0.0081807 0.00769024 0.00719076 0.00668225 0.00616472 0.00563816 0.00510258 0.00455798 0.00402516 0.00352494 0.00305731 0.00262226 0.00221982 0.00184996 0.00151269 0.00120802 0.000937241 0.000701657 0.000501269 0.000336076 0.000206078 0.000111275 5.16681e-05 2.72563e-05 2.08681e-05 1.53317e-05 1.0647e-05 6.81408e-06 3.83292e-06 1.70352e-06 4.2588e-07 0 0 8.08732e-06 3.23493e-05 7.27859e-05 0.000129397 0.000202183 0.000291144 0.000396279 0.000517589 0.000685466 0.000930304 0.0012521 0.00165086 0.00212658 0.00267927 0.00330891 0.00401551 0.00478708 0.00561161 0.0064891 0.00741956 0.00840299 0.00943938 0.0105287 0.011671 0.0128231 0.0139417 0.0150269 0.0160786 0.0170969 0.0180816 0.019033 0.0199509 0.0208015 0.0215513 0.0222 0.0227478 0.0231947 0.0235406 0.0237855 0.0239295 0.0239769 0.0239323 0.0237955 0.0235666 0.0232456 0.0228324 0.0223272 0.0217298 0.0210781 0.0204099 0.0197251 0.0190238 0.018306 0.0175716 0.0168206 0.0160531 0.0153055 0.0146139 0.0139784 0.0133991 0.0128759 0.0124088 0.0119978 0.011643 0.0113478 0.011116 0.0109475 0.0108423 0.0108004 0.0108218 0.0109066 0.0110546 0.0112387 0.0114314 0.0116329 0.0118431 0.0120619 0.0122895 0.0125257 0.0127707 0.0129961 0.0131736 0.0133032 0.013385 0.0134189 0.0134049 0.013343 0.0132333 0.0130728 0.0128586 0.0125907 0.0122692 0.0118939 0.011465 0.0109824 0.0104461 0.00987773 0.00929897 0.0087098 0.00811022 0.00750023 0.00687982 0.006249 0.00560776 0.00497969 0.00438835 0.00383374 0.00331587 0.00283473 0.00239032 0.00198265 0.00161171 0.0012796 0.000988419 0.000738158 0.00052882 0.000360407 0.000232919 0.000146354 0.000100714 7.71088e-05 5.66514e-05 3.93412e-05 2.51784e-05 1.41628e-05 6.2946e-06 1.57365e-06 0 0 1.15839e-05 4.63354e-05 0.000104255 0.000185342 0.000289596 0.000417019 0.000567609 0.000741367 0.000970838 0.00128857 0.00169456 0.0021888 0.00277131 0.00344208 0.0042011 0.00504838 0.00596884 0.00694741 0.00798407 0.00907884 0.0102317 0.0114427 0.0127117 0.0140389 0.0153755 0.0166728 0.0179308 0.0191495 0.0203289 0.0214691 0.0225699 0.0236315 0.0246161 0.0254861 0.0262415 0.0268823 0.0274085 0.0278201 0.0281171 0.0282994 0.0283722 0.0283405 0.0282042 0.0279633 0.027618 0.027168 0.0266136 0.0259546 0.0252333 0.024492 0.0237307 0.0229494 0.0221481 0.0213268 0.0204854 0.019624 0.0187833 0.018004 0.0172859 0.0166292 0.0160338 0.0154997 0.0150269 0.0146155 0.0142696 0.0139934 0.013787 0.0136504 0.0135835 0.0135863 0.0136589 0.0138013 0.0139831 0.0141743 0.0143746 0.0145842 0.014803 0.0150311 0.0152684 0.015515 0.0157393 0.0159101 0.0160272 0.0160906 0.0161004 0.0160566 0.0159592 0.0158081 0.0156001 0.015332 0.0150038 0.0146155 0.014167 0.0136584 0.0130897 0.0124609 0.0117961 0.0111193 0.0104307 0.00973018 0.00901774 0.00829341 0.00755718 0.00680905 0.00607549 0.00538297 0.0047315 0.00412108 0.00355171 0.00302337 0.00253609 0.00208985 0.00168772 0.00133275 0.00102495 0.000764326 0.000550865 0.000384572 0.000265447 0.000193491 0.000148141 0.000108838 7.55823e-05 4.83727e-05 2.72096e-05 1.20932e-05 3.02329e-06 0 0 1.5877e-05 6.35082e-05 0.000142893 0.000254033 0.000396926 0.000571574 0.000777975 0.00101613 0.00132039 0.00172511 0.00223029 0.00283593 0.00354203 0.00434859 0.0052556 0.00626308 0.00735231 0.00850461 0.00971997 0.0109984 0.0123399 0.0137444 0.015212 0.0167427 0.018282 0.0197755 0.0212233 0.0226253 0.0239815 0.0252919 0.0265565 0.0277754 0.0289068 0.0299092 0.0307825 0.0315268 0.0321421 0.0326282 0.0329854 0.0332134 0.0333181 0.0333052 0.0331745 0.0329262 0.0325602 0.0320765 0.0314751 0.0307561 0.0299662 0.0291523 0.0283144 0.0274525 0.0265666 0.0256567 0.0247228 0.0237649 0.0228282 0.0219576 0.0211532 0.0204151 0.0197432 0.0191374 0.0185979 0.0181247 0.0177225 0.0173963 0.0171461 0.016972 0.0168738 0.0168516 0.0169054 0.0170353 0.0172079 0.0173902 0.017582 0.0177836 0.0179947 0.0182155 0.0184458 0.0186859 0.0189009 0.0190564 0.0191523 0.0191886 0.0191653 0.0190825 0.0189401 0.0187381 0.0184729 0.0181411 0.0177425 0.0172771 0.0167451 0.0161463 0.0154808 0.0147486 0.0139763 0.0131905 0.0123912 0.0115785 0.0107523 0.00991259 0.00905944 0.00819281 0.00734219 0.00653705 0.00577737 0.00506318 0.00439445 0.00377121 0.00319343 0.00266113 0.00217855 0.00174994 0.00137528 0.00105459 0.000787861 0.000575093 0.000416288 0.000311446 0.000238451 0.000175188 0.000121658 7.78614e-05 4.37971e-05 1.94654e-05 4.86634e-06 0 0 2.09669e-05 8.38676e-05 0.000188702 0.00033547 0.000524172 0.000754808 0.00102738 0.00134188 0.00173413 0.00223994 0.00285932 0.00359225 0.00443875 0.0053988 0.00647242 0.0076596 0.00893748 0.0102832 0.0116968 0.0131782 0.0147275 0.0163446 0.0180296 0.0197824 0.0215427 0.02325 0.0249044 0.0265059 0.0280544 0.0295501 0.0309928 0.0323825 0.0336737 0.0348205 0.0358231 0.0366814 0.0373953 0.037965 0.0383904 0.0386716 0.0388148 0.0388264 0.0387066 0.0384552 0.0380723 0.0375578 0.0369118 0.0361343 0.0352768 0.0343907 0.0334762 0.0325331 0.0315616 0.0305615 0.0295329 0.0284759 0.0274399 0.0264748 0.0255804 0.0247569 0.0240041 0.0233221 0.0227109 0.0221706 0.0217066 0.0213247 0.0210249 0.0208071 0.0206713 0.0206177 0.0206461 0.0207565 0.0209129 0.0210791 0.0212552 0.0214412 0.0216369 0.0218426 0.022058 0.0222834 0.0224808 0.0226125 0.0226785 0.0226788 0.0226135 0.0224824 0.0222857 0.0220232 0.0216912 0.0212857 0.0208067 0.0202542 0.0196281 0.0189286 0.0181556 0.0173091 0.0164183 0.0155124 0.0145913 0.0136551 0.0127038 0.0117374 0.0107558 0.00975907 0.00877981 0.00785057 0.00697135 0.00614215 0.00536297 0.00463382 0.00395468 0.00332557 0.00275212 0.00223998 0.00178914 0.00139962 0.0010714 0.000804483 0.000598877 0.000454579 0.000348037 0.000255701 0.00017757 0.000113645 6.39252e-05 2.84112e-05 7.1028e-06 0 0 2.68534e-05 0.000107414 0.000241681 0.000429655 0.000671335 0.000966723 0.00131582 0.00171862 0.00221206 0.00283306 0.00358163 0.00445776 0.00546146 0.00659272 0.00785155 0.00923794 0.0107243 0.0122832 0.0139145 0.0156183 0.0173945 0.0192432 0.0211644 0.023158 0.0251575 0.0270962 0.0289742 0.0307914 0.0325479 0.0342437 0.0358787 0.0374529 0.0389166 0.04022 0.0413631 0.0423459 0.0431683 0.0438305 0.0443323 0.0446738 0.0448621 0.0449042 0.0448003 0.0445503 0.0441542 0.043612 0.0429237 0.0420893 0.0411651 0.0402073 0.0392161 0.0381913 0.0371329 0.0360411 0.0349157 0.0337568 0.0326186 0.0315555 0.0305675 0.0296545 0.0288166 0.0280537 0.0273659 0.0267532 0.0262219 0.0257786 0.0254232 0.0251557 0.0249761 0.0248845 0.0248808 0.024965 0.0250982 0.0252412 0.0253942 0.025557 0.0257298 0.0259124 0.026105 0.0263075 0.0264789 0.0265784 0.0266059 0.0265614 0.0264449 0.0262564 0.025996 0.0256636 0.025255 0.0247659 0.0241964 0.0235465 0.0228161 0.0220054 0.0211142 0.0201425 0.0191222 0.0180851 0.017031 0.0159601 0.0148724 0.0137677 0.0126462 0.0115078 0.0103883 0.00932354 0.00831343 0.007358 0.00645726 0.00561121 0.00481984 0.00408315 0.00340841 0.00280287 0.00226653 0.0017994 0.00140147 0.00107274 0.000813214 0.00062289 0.0004769 0.000350376 0.000243316 0.000155723 8.75939e-05 3.89306e-05 9.73266e-06 0 0 3.35366e-05 0.000134146 0.000301829 0.000536585 0.000838415 0.00120732 0.00164329 0.00214634 0.00275416 0.00350446 0.00439722 0.00543245 0.00661016 0.00793034 0.00939299 0.0109981 0.0127129 0.0145046 0.0163732 0.0183187 0.0203411 0.0224403 0.0246165 0.0268696 0.0291264 0.0313141 0.0334326 0.0354818 0.0374618 0.0393726 0.0412142 0.0429866 0.0446358 0.0461078 0.0474027 0.0485205 0.0494611 0.0502246 0.0508109 0.0512201 0.05146 0.0515386 0.0514558 0.0512116 0.050806 0.050239 0.0495107 0.048621 0.0476311 0.0466021 0.045534 0.0444269 0.0432807 0.0420954 0.0408711 0.0396077 0.0383642 0.0371998 0.0361144 0.035108 0.0341806 0.0333322 0.0325628 0.0318725 0.0312684 0.0307579 0.0303411 0.03