<?xml version="1.0"?> 
<VTKFile type="StructuredGrid" version="0.1"> 
<StructuredGrid WholeExtent="0 128 0 128 0 0"> 
<Piece Extent="0 128 0 128 0 0"> 
<PointData>
<DataArray type="Float32" Name="u" format="ascii" NumberOfComponents="1"> 
0 0 0 0 0 0 0 0 0 0 0 0 0 0 0 0 0 0 0 0 0 0 0 0 0 0 0 0 0 0 0 0 0 0 0 0 0 0 0 0 0 0 0 0 0 0 0 0 0 0 0 0 0 0 0 0 0 0 0 0 0 0 0 0 0 0 0 0 0 0 0 0 0 0 0 0 0 0 0 0 0 0 0 0 0 0 0 0 0 0 0 0 0 0 0 0 0 0 0 0 0 0 0 0 0 0 0 0 0 0 0 0 0 0 0 0 0 0 0 0 0 0 0 0 0 0 0 0 0 0 7.94447e-08 3.17779e-07 7.15002e-07 1.27112e-06 1.98612e-06 2.86001e-06 3.89279e-06 5.08446e-06 6.55607e-06 8.42866e-06 1.07022e-05 1.33768e-05 1.64523e-05 1.99288e-05 2.38063e-05 2.80848e-05 3.26396e-05 3.73458e-05 4.22036e-05 4.7213e-05 5.23738e-05 5.76862e-05 6.31501e-05 6.87656e-05 7.43366e-05 7.96671e-05 8.47571e-05 8.96067e-05 9.42158e-05 9.85844e-05 0.000102713 0.0001066 0.000110147 0.000113252 0.000115915 0.000118136 0.000119916 0.000121254 0.00012215 0.000122604 0.000122659 0.000122357 0.000121697 0.00012068 0.000119305 0.000117574 0.000115485 0.000113038 0.000110371 0.00010762 0.000104786 0.000101867 9.88644e-05 9.5778e-05 9.26077e-05 8.93535e-05 8.61373e-05 8.30809e-05 8.01844e-05 7.74477e-05 7.48707e-05 7.24537e-05 7.01964e-05 6.8099e-05 6.61833e-05 6.44712e-05 6.29628e-05 6.1658e-05 6.05568e-05 5.96593e-05 5.89654e-05 5.84752e-05 5.81164e-05 5.7817e-05 5.75768e-05 5.7396e-05 5.72745e-05 5.72122e-05 5.72093e-05 5.72657e-05 5.72956e-05 5.72131e-05 5.70183e-05 5.67112e-05 5.62917e-05 5.57599e-05 5.51158e-05 5.43593e-05 5.34679e-05 5.2419e-05 5.12126e-05 4.98486e-05 4.83272e-05 4.66481e-05 4.48116e-05 4.28175e-05 4.07194e-05 3.85707e-05 3.63713e-05 3.41213e-05 3.18207e-05 2.94695e-05 2.70677e-05 2.46152e-05 2.21934e-05 1.98833e-05 1.76851e-05 1.55986e-05 1.3624e-05 1.17611e-05 1.00101e-05 8.37089e-06 6.8706e-06 5.53639e-06 4.36826e-06 3.36621e-06 2.53024e-06 1.86035e-06 1.35653e-06 1.01879e-06 7.80013e-07 5.73071e-07 3.97966e-07 2.54698e-07 1.43268e-07 6.36746e-08 1.59186e-08 0 0 3.17779e-07 1.27112e-06 2.86001e-06 5.08446e-06 7.94447e-06 1.144e-05 1.55712e-05 2.03378e-05 2.62243e-05 3.37146e-05 4.28089e-05 5.35071e-05 6.58093e-05 7.97154e-05 9.52254e-05 0.000112339 0.000130558 0.000149383 0.000168815 0.000188852 0.000209495 0.000230745 0.000252601 0.000275062 0.000297346 0.000318668 0.000339028 0.000358427 0.000376863 0.000394338 0.00041085 0.000426401 0.000440587 0.000453007 0.000463659 0.000472544 0.000479663 0.000485015 0.000488599 0.000490417 0.000490637 0.000489427 0.000486788 0.000482719 0.000477222 0.000470295 0.000461939 0.000452153 0.000441485 0.000430481 0.000419142 0.000407468 0.000395458 0.000383112 0.000370431 0.000357414 0.000344549 0.000332324 0.000320738 0.000309791 0.000299483 0.000289815 0.000280786 0.000272396 0.000264733 0.000257885 0.000251851 0.000246632 0.000242227 0.000238637 0.000235862 0.000233901 0.000232466 0.000231268 0.000230307 0.000229584 0.000229098 0.000228849 0.000228837 0.000229063 0.000229182 0.000228852 0.000228073 0.000226845 0.000225167 0.00022304 0.000220463 0.000217437 0.000213872 0.000209676 0.00020485 0.000199395 0.000193309 0.000186593 0.000179246 0.00017127 0.000162878 0.000154283 0.000145485 0.000136485 0.000127283 0.000117878 0.000108271 9.84608e-05 8.87734e-05 7.95332e-05 7.07403e-05 6.23945e-05 5.44959e-05 4.70446e-05 4.00405e-05 3.34836e-05 2.74824e-05 2.21456e-05 1.74731e-05 1.34649e-05 1.0121e-05 7.44139e-06 5.42612e-06 4.07517e-06 3.12005e-06 2.29228e-06 1.59186e-06 1.01879e-06 5.73071e-07 2.54698e-07 6.36746e-08 0 0 7.15002e-07 2.86001e-06 6.43502e-06 1.144e-05 1.78751e-05 2.57401e-05 3.50351e-05 4.57602e-05 5.90046e-05 7.58579e-05 9.63201e-05 0.000120391 0.000148071 0.00017936 0.000214257 0.000252763 0.000293756 0.000336113 0.000379833 0.000424917 0.000471364 0.000519176 0.000568351 0.00061889 0.000669029 0.000717004 0.000762814 0.00080646 0.000847942 0.000887259 0.000924413 0.000959402 0.000991321 0.00101926 0.00104323 0.00106323 0.00107924 0.00109128 0.00109935 0.00110344 0.00110393 0.00110121 0.00109527 0.00108612 0.00107375 0.00105816 0.00103936 0.00101734 0.000993341 0.000968583 0.00094307 0.000916802 0.00088978 0.000862002 0.000833469 0.000804182 0.000775236 0.000747728 0.000721659 0.000697029 0.000673837 0.000652083 0.000631768 0.000612891 0.000595649 0.000580241 0.000566665 0.000554922 0.000545011 0.000536934 0.000530689 0.000526277 0.000523048 0.000520353 0.000518191 0.000516564 0.00051547 0.00051491 0.000514884 0.000515391 0.00051566 0.000514918 0.000513165 0.000510401 0.000506625 0.000501839 0.000496042 0.000489234 0.000481212 0.000471771 0.000460913 0.000448638 0.000434944 0.000419833 0.000403304 0.000385358 0.000366475 0.000347136 0.000327342 0.000307092 0.000286386 0.000265225 0.000243609 0.000221537 0.00019974 0.00017895 0.000159166 0.000140388 0.000122616 0.00010585 9.0091e-05 7.5338e-05 6.18354e-05 4.98275e-05 3.93144e-05 3.02959e-05 2.27722e-05 1.67431e-05 1.22088e-05 9.16914e-06 7.02012e-06 5.15764e-06 3.58169e-06 2.29228e-06 1.28941e-06 5.73071e-07 1.43268e-07 0 0 1.27112e-06 5.08446e-06 1.144e-05 2.03378e-05 3.17779e-05 4.57602e-05 6.22847e-05 8.13514e-05 0.000104897 0.000134859 0.000171236 0.000214029 0.000263237 0.000318861 0.000380902 0.000449357 0.000522233 0.000597533 0.000675258 0.000755408 0.000837981 0.000922979 0.0010104 0.00110025 0.00118938 0.00127467 0.00135611 0.00143371 0.00150745 0.00157735 0.0016434 0.0017056 0.00176235 0.00181203 0.00185464 0.00189018 0.00191865 0.00194006 0.0019544 0.00196167 0.00196255 0.00195771 0.00194715 0.00193088 0.00190889 0.00188118 0.00184775 0.00180861 0.00176594 0.00172193 0.00167657 0.00162987 0.00158183 0.00153245 0.00148172 0.00142966 0.0013782 0.0013293 0.00128295 0.00123916 0.00119793 0.00115926 0.00112314 0.00108958 0.00105893 0.00103154 0.0010074 0.000986527 0.000968909 0.000954549 0.000943447 0.000935603 0.000929863 0.000925072 0.000921229 0.000918336 0.000916391 0.000915396 0.000915349 0.000916251 0.000916729 0.000915409 0.000912293 0.000907379 0.000900667 0.000892159 0.000881853 0.000869749 0.000855487 0.000838705 0.000819402 0.000797578 0.000773234 0.00074637 0.000716986 0.000685081 0.00065151 0.00061713 0.000581941 0.000545941 0.000509131 0.000471512 0.000433083 0.000393843 0.000355094 0.000318133 0.000282961 0.000249578 0.000217984 0.000188178 0.000160162 0.000133934 0.00010993 8.85823e-05 6.98922e-05 5.38594e-05 4.04839e-05 2.97655e-05 2.17045e-05 1.63007e-05 1.24802e-05 9.16914e-06 6.36746e-06 4.07517e-06 2.29228e-06 1.01879e-06 2.54698e-07 0 0 1.98612e-06 7.94447e-06 1.78751e-05 3.17779e-05 4.96529e-05 7.15002e-05 9.73198e-05 0.000127112 0.000163902 0.000210716 0.000267556 0.00033442 0.000411308 0.000498221 0.000595159 0.000702121 0.000815989 0.000933646 0.00105509 0.00118032 0.00130935 0.00144216 0.00157875 0.00171914 0.00185841 0.00199168 0.00211893 0.00224017 0.00235539 0.00246461 0.00256781 0.00266501 0.00275367 0.00283129 0.00289787 0.0029534 0.00299789 0.00303134 0.00305375 0.00306511 0.00306648 0.00305892 0.00304242 0.003017 0.00298264 0.00293934 0.00288712 0.00282596 0.00275928 0.00269051 0.00261964 0.00254667 0.00247161 0.00239445 0.00231519 0.00223384 0.00215343 0.00207702 0.00200461 0.00193619 0.00187177 0.00181134 0.00175491 0.00170247 0.00165458 0.00161178 0.00157407 0.00154145 0.00151392 0.00149148 0.00147414 0.00146188 0.00145291 0.00144542 0.00143942 0.0014349 0.00143186 0.00143031 0.00143023 0.00143164 0.00143239 0.00143033 0.00142546 0.00141778 0.00140729 0.001394 0.00137789 0.00135898 0.0013367 0.00131048 0.00128032 0.00124622 0.00120818 0.0011662 0.00112029 0.00107044 0.00101799 0.000964266 0.000909282 0.000853033 0.000795518 0.000736737 0.000676691 0.00061538 0.000554834 0.000497083 0.000442127 0.000389966 0.0003406 0.000294029 0.000250253 0.000209272 0.000171765 0.00013841 0.000109207 8.41553e-05 6.3256e-05 4.65087e-05 3.39133e-05 2.54698e-05 1.95003e-05 1.43268e-05 9.94915e-06 6.36746e-06 3.58169e-06 1.59186e-06 3.97966e-07 0 0 2.86001e-06 1.144e-05 2.57401e-05 4.57602e-05 7.15002e-05 0.00010296 0.00014014 0.000183041 0.000236018 0.000303432 0.00038528 0.000481564 0.000592284 0.000717438 0.000857028 0.00101105 0.00117502 0.00134445 0.00151933 0.00169967 0.00188546 0.0020767 0.0022734 0.00247556 0.00267612 0.00286801 0.00305126 0.00322584 0.00339177 0.00354904 0.00369765 0.00383761 0.00396528 0.00407706 0.00417293 0.0042529 0.00431697 0.00436513 0.00439739 0.00441375 0.00441573 0.00440484 0.00438109 0.00434448 0.004295 0.00423265 0.00415745 0.00406938 0.00397336 0.00387433 0.00377228 0.00366721 0.00355912 0.00344801 0.00333388 0.00321673 0.00310094 0.00299091 0.00288664 0.00278812 0.00269535 0.00260833 0.00252707 0.00245156 0.0023826 0.00232096 0.00226666 0.00221969 0.00218005 0.00214773 0.00212276 0.00210511 0.00209219 0.00208141 0.00207277 0.00206626 0.00206188 0.00205964 0.00205953 0.00206156 0.00206264 0.00205967 0.00205266 0.0020416 0.0020265 0.00200736 0.00198417 0.00195694 0.00192485 0.00188709 0.00184365 0.00179455 0.00173978 0.00167933 0.00161322 0.00154143 0.0014659 0.00138854 0.00130937 0.00122837 0.00114555 0.0010609 0.000974436 0.000886148 0.000798961 0.000715799 0.000636662 0.00056155 0.000490463 0.000423401 0.000360364 0.000301352 0.000247342 0.00019931 0.000157258 0.000121184 9.10887e-05 6.69725e-05 4.88351e-05 3.66766e-05 2.80805e-05 2.06306e-05 1.43268e-05 9.16914e-06 5.15764e-06 2.29228e-06 5.73071e-07 0 0 3.89279e-06 1.55712e-05 3.50351e-05 6.22847e-05 9.73198e-05 0.00014014 0.000190747 0.000249139 0.000321247 0.000413004 0.000524409 0.000655462 0.000806164 0.000976513 0.00116651 0.00137616 0.00159934 0.00182995 0.00206798 0.00231344 0.00256632 0.00282662 0.00309436 0.00336951 0.00364249 0.00390369 0.0041531 0.00439073 0.00461657 0.00483063 0.00503291 0.00522341 0.00539719 0.00554933 0.00567982 0.00578867 0.00587587 0.00594143 0.00598534 0.00600761 0.0060103 0.00599548 0.00596315 0.00591331 0.00584597 0.00576111 0.00565875 0.00553887 0.00540819 0.0052734 0.00513449 0.00499148 0.00484436 0.00469312 0.00453778 0.00437832 0.00422073 0.00407097 0.00392903 0.00379493 0.00366867 0.00355023 0.00343962 0.00333685 0.00324298 0.00315909 0.00308518 0.00302124 0.00296728 0.00292331 0.00288931 0.00286528 0.00284771 0.00283303 0.00282126 0.0028124 0.00280645 0.0028034 0.00280326 0.00280602 0.00280748 0.00280344 0.0027939 0.00277885 0.00275829 0.00273224 0.00270067 0.00266361 0.00261993 0.00256853 0.00250942 0.00244258 0.00236803 0.00228576 0.00219577 0.00209806 0.00199525 0.00188996 0.00178219 0.00167194 0.00155921 0.00144401 0.00132632 0.00120615 0.00108747 0.000974282 0.000866568 0.000764332 0.000667575 0.000576296 0.000490496 0.000410174 0.00033666 0.000271283 0.000214045 0.000164944 0.000123982 9.1157e-05 6.647e-05 4.99209e-05 3.82207e-05 2.80805e-05 1.95003e-05 1.24802e-05 7.02012e-06 3.12005e-06 7.80013e-07 0 0 5.08446e-06 2.03378e-05 4.57602e-05 8.13514e-05 0.000127112 0.000183041 0.000249139 0.000325406 0.000419588 0.000539434 0.000684943 0.000856114 0.00105295 0.00127545 0.00152361 0.00179743 0.00208893 0.00239013 0.00270103 0.00302163 0.00335193 0.00369192 0.00404161 0.004401 0.00475754 0.00509869 0.00542445 0.00573483 0.00602981 0.0063094 0.0065736 0.00682241 0.00704939 0.0072481 0.00741854 0.00756071 0.00767461 0.00776023 0.00781759 0.00784667 0.00785019 0.00783083 0.00778861 0.00772351 0.00763555 0.00752472 0.00739102 0.00723445 0.00706376 0.0068877 0.00670628 0.00651948 0.00632732 0.00612979 0.00592689 0.00571863 0.00551279 0.00531718 0.0051318 0.00495665 0.00479173 0.00463703 0.00449257 0.00435833 0.00423573 0.00412616 0.00402962 0.00394611 0.00387564 0.0038182 0.00377379 0.00374241 0.00371945 0.00370029 0.00368492 0.00367334 0.00366556 0.00366158 0.0036614 0.003665 0.00366692 0.00366164 0.00364917 0.00362951 0.00360267 0.00356863 0.00352741 0.003479 0.00342195 0.00335482 0.00327761 0.00319031 0.00309294 0.00298548 0.00286794 0.00274032 0.00260604 0.00246852 0.00232776 0.00218376 0.00203653 0.00188605 0.00173233 0.00157537 0.00142037 0.00127253 0.00113184 0.000998312 0.000871935 0.000752713 0.000640647 0.000535737 0.000439719 0.000354329 0.000279569 0.000215438 0.000161935 0.000119062 8.6818e-05 6.52028e-05 4.99209e-05 3.66766e-05 2.54698e-05 1.63007e-05 9.16914e-06 4.07517e-06 1.01879e-06 0 0 6.68032e-06 2.67213e-05 6.01229e-05 0.000106885 0.000167008 0.000240492 0.000327336 0.000427541 0.0005507 0.000706409 0.000894667 0.00111547 0.00136883 0.00165474 0.00197319 0.0023242 0.00269754 0.003083 0.00348059 0.00389031 0.00431215 0.00474611 0.0051922 0.00565041 0.0061049 0.0065398 0.00695511 0.00735085 0.007727 0.00808356 0.00842055 0.00873795 0.00902763 0.00928148 0.00949948 0.00968164 0.00982796 0.00993844 0.0100131 0.0100519 0.0100582 0.0100356 0.00998388 0.00990317 0.00979344 0.00965468 0.00948689 0.00929009 0.0090753 0.00885358 0.00862492 0.00838933 0.0081468 0.00789733 0.00764093 0.00737759 0.00711717 0.00686951 0.00663461 0.00641248 0.00620312 0.00600652 0.00582268 0.00565161 0.0054951 0.00535493 0.00523111 0.00512364 0.00503251 0.00495773 0.0048993 0.00485722 0.00482568 0.00479889 0.00477685 0.00475956 0.00474701 0.00473921 0.00473616 0.00473786 0.00473739 0.00472785 0.00470924 0.00468157 0.00464481 0.00459899 0.0045441 0.00448014 0.00440528 0.00431773 0.00421746 0.00410449 0.00397881 0.00384042 0.00368933 0.00352553 0.00335333 0.00317706 0.0029967 0.00281227 0.00262375 0.00243116 0.00223448 0.00203373 0.00183545 0.00164621 0.00146602 0.00129486 0.00113274 0.00097966 0.000835621 0.000700622 0.000576901 0.000466698 0.000370013 0.000286845 0.000217195 0.000161063 0.000118448 8.93516e-05 6.84098e-05 5.02603e-05 3.4903e-05 2.23379e-05 1.25651e-05 5.58447e-06 1.39612e-06 0 0 8.92567e-06 3.57027e-05 8.0331e-05 0.000142811 0.000223142 0.000321324 0.000437358 0.000571243 0.000734242 0.000937617 0.00118137 0.0014655 0.00179 0.00215489 0.00256014 0.00300578 0.00347888 0.00396654 0.00446875 0.00498552 0.00551685 0.00606273 0.00662317 0.00719816 0.0077682 0.00831377 0.00883487 0.0093315 0.00980366 0.0102514 0.0106746 0.0110733 0.0114377 0.0117576 0.012033 0.0122641 0.0124507 0.0125929 0.0126907 0.0127441 0.0127573 0.0127344 0.0126754 0.0125804 0.0124493 0.0122822 0.012079 0.0118398 0.0115781 0.0113074 0.0110277 0.0107391 0.0104416 0.0101351 0.00981959 0.00949517 0.0091739 0.00886789 0.00857714 0.00830165 0.00804142 0.00779645 0.00756673 0.00735228 0.00715534 0.00697817 0.00682078 0.00668317 0.00656532 0.00646725 0.00638896 0.00633044 0.00628465 0.00624457 0.0062102 0.00618153 0.00615857 0.00614131 0.00612976 0.00612391 0.00611536 0.00609568 0.00606488 0.00602296 0.00596992 0.00590575 0.00583047 0.00574406 0.00564432 0.00552904 0.00539821 0.00525185 0.00508994 0.00491249 0.00471951 0.00451097 0.00429218 0.00406841 0.00383965 0.0036059 0.00336718 0.00312347 0.00287477 0.0026211 0.00237049 0.00213099 0.00190261 0.00168534 0.00147918 0.00128415 0.00110022 0.000927409 0.00076859 0.00062664 0.000501559 0.000393348 0.000302006 0.000227534 0.00016993 0.000129197 9.89162e-05 7.26731e-05 5.04674e-05 3.22992e-05 1.81683e-05 8.07479e-06 2.0187e-06 0 0 1.18205e-05 4.7282e-05 0.000106385 0.000189128 0.000295513 0.000425538 0.000579205 0.000756512 0.000970213 0.00123306 0.00154505 0.00190619 0.00231647 0.00277589 0.00328446 0.00384218 0.00443297 0.00504074 0.00566551 0.00630727 0.00696603 0.00764177 0.00833451 0.00904424 0.00974744 0.0104206 0.0110637 0.0116768 0.0122598 0.0128128 0.0133357 0.0138286 0.0142795 0.0146763 0.0150192 0.015308 0.0155429 0.0157237 0.0158506 0.0159234 0.0159473 0.0159272 0.0158632 0.0157552 0.0156032 0.0154073 0.0151674 0.0148835 0.014572 0.014249 0.0139147 0.0135689 0.0132116 0.012843 0.0124629 0.0120714 0.011683 0.0113123 0.0109594 0.0106242 0.0103066 0.0100068 0.00972472 0.00946033 0.00921645 0.00899589 0.00879863 0.00862469 0.00847407 0.00834675 0.00824275 0.00816206 0.00809636 0.00803733 0.00798497 0.00793927 0.00790024 0.00786789 0.0078422 0.00782318 0.00780082 0.00776512 0.00771608 0.0076537 0.00757797 0.00748891 0.0073865 0.00727076 0.00713905 0.00698875 0.00681987 0.0066324 0.00642635 0.00620171 0.00595848 0.00569667 0.00542259 0.00514256 0.00485659 0.00456466 0.00426679 0.00396297 0.0036532 0.00333748 0.00302548 0.00272686 0.00244162 0.00216975 0.00191127 0.00166617 0.00143444 0.0012161 0.00101478 0.000834154 0.000674209 0.000534947 0.000416369 0.000318475 0.000241264 0.000184738 0.00014144 0.000103915 7.21633e-05 4.61845e-05 2.59788e-05 1.15461e-05 2.88653e-06 0 0 1.53648e-05 6.14593e-05 0.000138283 0.000245837 0.000384121 0.000553134 0.000752876 0.000983349 0.00125861 0.00159273 0.00198571 0.00243754 0.00294822 0.00351776 0.00414615 0.0048334 0.00555979 0.00630562 0.00707087 0.00785556 0.00865969 0.00948324 0.0103262 0.0111886 0.0120426 0.0128603 0.0136416 0.0143867 0.0150954 0.0157678 0.0164039 0.0170037 0.0175531 0.0180378 0.0184579 0.0188135 0.0191045 0.0193308 0.0194926 0.0195898 0.0196284 0.0196141 0.0195472 0.0194275 0.0192551 0.0190299 0.018752 0.0184214 0.0180572 0.0176786 0.0172858 0.0168785 0.016457 0.016021 0.0155708 0.0151062 0.0146444 0.0142028 0.0137814 0.01338 0.0129988 0.0126376 0.0122966 0.0119758 0.0116784 0.0114081 0.0111647 0.0109482 0.0107587 0.0105962 0.0104607 0.0103521 0.0102608 0.0101772 0.0101011 0.0100328 0.00997203 0.00991893 0.00987347 0.00983564 0.00979377 0.00973617 0.00966284 0.00957378 0.00946899 0.00934847 0.00921222 0.00906024 0.00888947 0.00869687 0.00848243 0.00824614 0.00798802 0.00770806 0.00740625 0.00708261 0.00674456 0.00639953 0.00604753 0.00568855 0.0053226 0.00494967 0.00456977 0.00418289 0.00380044 0.00343383 0.00308305 0.00274811 0.002429 0.00212573 0.00183829 0.00156669 0.00131548 0.00108924 0.000887961 0.000711641 0.000560283 0.000433886 0.00033245 0.000255976 0.000195981 0.000143986 9.99904e-05 6.39939e-05 3.59966e-05 1.59985e-05 3.99962e-06 0 0 1.95586e-05 7.82345e-05 0.000176028 0.000312938 0.000488966 0.000704111 0.000958373 0.00125175 0.00159944 0.00201664 0.00250334 0.00305955 0.00368526 0.00438048 0.00514521 0.00597944 0.00685936 0.00776116 0.00868484 0.00963039 0.0105978 0.0115871 0.0125983 0.0136314 0.0146538 0.0156329 0.0165687 0.0174612 0.0183105 0.0191165 0.0198792 0.0205987 0.0212584 0.021842 0.0223493 0.0227805 0.0231355 0.0234142 0.0236168 0.0237433 0.0238004 0.0237951 0.0237275 0.0235974 0.0234049 0.0231501 0.0228329 0.0224532 0.0220335 0.0215961 0.021141 0.0206682 0.0201776 0.0196693 0.0191433 0.0185996 0.0180583 0.0175394 0.0170431 0.0165692 0.0161178 0.0156889 0.0152825 0.0148986 0.0145413 0.0142147 0.0139189 0.0136538 0.0134194 0.0132157 0.0130427 0.0129005 0.012778 0.0126641 0.0125587 0.012462 0.0123739 0.0122944 0.0122236 0.0121613 0.0120942 0.0120088 0.0119052 0.0117832 0.011643 0.0114844 0.0113076 0.0111125 0.0108956 0.0106534 0.0103859 0.0100931 0.00977496 0.00943154 0.00906282 0.0086688 0.00825809 0.00783931 0.00741248 0.00697757 0.00653461 0.00608357 0.00562448 0.00515732 0.00469536 0.00425189 0.0038269 0.00342039 0.00303237 0.00266282 0.00231176 0.00197918 0.00167069 0.0013919 0.00114282 0.000923432 0.000733749 0.000573767 0.000443487 0.000342909 0.00026254 0.000192886 0.000133949 8.57273e-05 4.82216e-05 2.14318e-05 5.35796e-06 0 0 2.44019e-05 9.76077e-05 0.000219617 0.000390431 0.000610048 0.00087847 0.00119569 0.00156172 0.0019927 0.00250478 0.00309796 0.00377223 0.0045276 0.00536406 0.00628163 0.00728029 0.00833167 0.00940737 0.0105074 0.0116318 0.0127804 0.0139535 0.0151508 0.0163725 0.0175808 0.0187383 0.0198448 0.0209004 0.0219051 0.0228588 0.0237616 0.0246135 0.0253956 0.0260888 0.0266933 0.027209 0.0276358 0.0279739 0.0282232 0.0283838 0.0284634 0.0284702 0.028404 0.0282649 0.0280528 0.0277679 0.02741 0.0269792 0.0265011 0.0260015 0.0254804 0.0249377 0.0243735 0.0237878 0.0231805 0.0225516 0.0219244 0.021322 0.0207445 0.0201917 0.0196638 0.0191606 0.0186823 0.0182288 0.017805 0.0174158 0.0170613 0.0167413 0.0164559 0.0162051 0.0159889 0.0158074 0.0156479 0.015498 0.0153577 0.015227 0.0151059 0.0149944 0.0148925 0.0148002 0.0147022 0.0145831 0.014443 0.014282 0.0140999 0.0138968 0.0136727 0.0134275 0.0131574 0.0128583 0.0125302 0.0121732 0.0117872 0.0113722 0.0109282 0.0104552 0.00996317 0.00946191 0.00895142 0.00843172 0.0079028 0.00736467 0.00681732 0.00626076 0.00571025 0.00518105 0.00467317 0.00418662 0.00372138 0.00327746 0.00285486 0.00245357 0.0020804 0.00174214 0.00143877 0.00117032 0.000936766 0.000738119 0.000574377 0.000445539 0.000341116 0.000250616 0.000174039 0.000111385 6.2654e-05 2.78462e-05 6.96155e-06 0 0 2.98947e-05 0.000119579 0.000269052 0.000478316 0.000747368 0.00107621 0.00146484 0.00191326 0.00243839 0.00305715 0.00376955 0.00457557 0.00547522 0.0064685 0.00755542 0.00873596 0.00997671 0.0112442 0.0125386 0.0138597 0.0152075 0.0165822 0.0179836 0.0194119 0.0208239 0.0221766 0.02347 0.0247042 0.0258791 0.0269948 0.0280511 0.0290482 0.0299645 0.0307784 0.0314899 0.032099 0.0326056 0.0330099 0.0333118 0.0335113 0.0336174 0.0336392 0.0335767 0.0334299 0.0331987 0.0328832 0.0324833 0.0319991 0.0314599 0.0308948 0.030304 0.0296873 0.0290447 0.0283764 0.0276823 0.0269623 0.026243 0.0255507 0.0248856 0.0242476 0.0236366 0.0230528 0.0224961 0.0219664 0.0214696 0.0210114 0.0205918 0.0202108 0.0198684 0.0195645 0.0192993 0.0190726 0.0188706 0.0186791 0.0184981 0.0183278 0.0181681 0.0180189 0.0178803 0.0177523 0.0176176 0.017459 0.0172765 0.0170701 0.0168398 0.0165855 0.0163074 0.0160054 0.0156749 0.0153117 0.0149155 0.0144865 0.0140246 0.0135299 0.0130023 0.0124419 0.0118598 0.0112673 0.0106644 0.010051 0.0094272 0.00879297 0.00814831 0.00749322 0.00684509 0.00622131 0.00562187 0.00504678 0.00449603 0.00396963 0.00346758 0.00298987 0.00254462 0.00213994 0.00177584 0.0014523 0.00116933 0.000926941 0.000725118 0.000563866 0.00043171 0.000317174 0.00022026 0.000140966 7.92936e-05 3.52416e-05 8.8104e-06 0 0 3.6037e-05 0.000144148 0.000324333 0.000576592 0.000900925 0.00129733 0.00176581 0.00230637 0.00293651 0.00367376 0.00451811 0.00546957 0.00652814 0.0076938 0.00896658 0.0103465 0.0117945 0.0132718 0.0147783 0.0163141 0.0178791 0.0194734 0.0210969 0.0227496 0.0243828 0.0259477 0.0274443 0.0288726 0.0302326 0.0315243 0.0327477 0.0339028 0.0349652 0.0359107 0.0367391 0.0374505 0.0380448 0.0385222 0.0388826 0.0391259 0.0392625 0.0393024 0.0392457 0.0390924 0.0388425 0.038496 0.0380529 0.0375132 0.0369099 0.036276 0.0356117 0.0349167 0.0341912 0.0334352 0.0326487 0.0318316 0.0310138 0.0302255 0.0294665 0.0287368 0.0280364 0.0273654 0.0267238 0.0261114 0.0255351 0.0250015 0.0245106 0.0240623 0.0236568 0.0232939 0.0229738 0.0226963 0.022446 0.0222072 0.02198 0.0217643 0.0215603 0.0213678 0.0211869 0.0210175 0.0208405 0.0206365 0.0204055 0.0201475 0.0198626 0.0195507 0.0192118 0.018846 0.0184482 0.0180134 0.0175417 0.017033 0.0164874 0.0159048 0.0152853 0.0146288 0.013948 0.0132555 0.0125513 0.0118354 0.0111078 0.0103685 0.00961743 0.0088547 0.00809989 0.00737266 0.00667298 0.00600087 0.00535632 0.00473934 0.00414992 0.00358807 0.00306334 0.00258532 0.002154 0.00176938 0.00143145 0.00114023 0.00089571 0.000697888 0.000534321 0.000392562 0.000272613 0.000174472 9.81405e-05 4.3618e-05 1.09045e-05 0 0 4.28992e-05 0.000171597 0.000386093 0.000686388 0.00107248 0.00154437 0.00210206 0.00274555 0.00349268 0.00436128 0.00535136 0.00646292 0.00769596 0.00905048 0.0105265 0.0121239 0.013798 0.0155036 0.0172408 0.0190096 0.0208099 0.0226419 0.0245055 0.0264007 0.0282726 0.0300666 0.0317825 0.0334205 0.0349804 0.0364623 0.0378662 0.0391921 0.0404128 0.0415009 0.0424565 0.0432796 0.0439702 0.0445283 0.0449539 0.045247 0.045419 0.0454813 0.045434 0.045277 0.0450103 0.0446339 0.0441478 0.0435521 0.0428837 0.0421795 0.0414395 0.0406638 0.0398523 0.0390051 0.0381221 0.0372033 0.0362824 0.0353928 0.0345346 0.0337078 0.0329123 0.0321483 0.0314156 0.0307144 0.0300521 0.0294366 0.0288679 0.0283459 0.0278706 0.0274421 0.0270603 0.0267253 0.0264198 0.0261269 0.0258465 0.0255785 0.0253231 0.0250802 0.0248498 0.0246319 0.0244051 0.0241482 0.0238612 0.0235439 0.0231966 0.022819 0.0224113 0.0219734 0.0214999 0.0209852 0.0204293 0.0198322 0.019194 0.0185146 0.0177941 0.0170323 0.0162435 0.0154416 0.0146268 0.0137989 0.012958 0.0121041 0.0112372 0.0103573 0.00948637 0.00864636 0.00783729 0.00705917 0.00631198 0.00559574 0.00491043 0.00425607 0.00364382 0.00308486 0.0025792 0.00212683 0.00172774 0.00138195 0.00108945 0.000850247 0.00065097 0.000478264 0.000332128 0.000212562 0.000119566 5.31404e-05 1.32851e-05 0 0 5.05519e-05 0.000202207 0.000454967 0.00080883 0.0012638 0.00181987 0.00247704 0.00323532 0.0041125 0.0051264 0.006277 0.00756431 0.00898833 0.0105491 0.0122465 0.0140806 0.016 0.0179531 0.0199399 0.0219605 0.0240148 0.0261028 0.0282246 0.0303801 0.0325083 0.0345481 0.0364995 0.0383626 0.0401373 0.0418236 0.0434215 0.0449311 0.0463222 0.0475644 0.0486579 0.0496027 0.0503986 0.0510458 0.0515443 0.051894 0.0521076 0.0521978 0.0521645 0.0520078 0.0517277 0.0513242 0.0507972 0.0501468 0.0494139 0.0486396 0.0478237 0.0469662 0.0460673 0.0451269 0.0441449 0.0431215 0.0420938 0.0410991 0.0401376 0.0392091 0.0383136 0.0374513 0.036622 0.0358257 0.0350713 0.0343675 0.0337142 0.0331115 0.0325594 0.0320578 0.0316068 0.0312064 0.0308379 0.0304827 0.0301409 0.0298123 0.0294971 0.0291951 0.0289064 0.0286311 0.0283457 0.0280269 0.0276746 0.0272889 0.0268698 0.0264172 0.0259312 0.0254118 0.024853 0.0242487 0.0235989 0.0229038 0.0221632 0.0213771 0.0205456 0.0196687 0.0187619 0.0178407 0.0169053 0.0159555 0.0149914 0.014013 0.0130203 0.0120132 0.0110162 0.0100537 0.00912559 0.00823194 0.00737273 0.00654797 0.00575765 0.00500178 0.0042933 0.00364516 0.00305737 0.00252992 0.00206282 0.00165606 0.00130965 0.00102358 0.00078368 0.000575765 0.000399837 0.000255896 0.000143941 6.39739e-05 1.59935e-05 0 0 5.89949e-05 0.00023598 0.000530954 0.000943919 0.00147487 0.00212382 0.00289075 0.00377567 0.00479599 0.0059691 0.00729501 0.00877372 0.0104052 0.0121895 0.0141266 0.0162165 0.0184006 0.0206204 0.0228758 0.0251669 0.0274937 0.0298561 0.0322541 0.0346878 0.0370897 0.0393921 0.0415952 0.0436989 0.0457032 0.0476081 0.0494137 0.0511198 0.0526934 0.0541012 0.0553432 0.0564195 0.05733 0.0580747 0.0586537 0.0590668 0.0593282 0.0594517 0.0594373 0.059285 0.0589949 0.0585668 0.058001 0.0572972 0.0565006 0.0556562 0.054764 0.053824 0.0528362 0.0518006 0.0507172 0.049586 0.048448 0.0473445 0.0462754 0.0452406 0.0442403 0.0432743 0.0423428 0.0414456 0.0405927 0.039794 0.0390495 0.0383592 0.0377231 0.0371411 0.0366133 0.0361397 0.0357002 0.0352747 0.0348632 0.0344656 0.0340821 0.0337125 0.0333569 0.0330152 0.0326622 0.0322724 0.0318458 0.0313824 0.0308823 0.0303454 0.0297717 0.0291612 0.0285074 0.0278039 0.0270506 0.0262476 0.0253948 0.0244923 0.02354 0.0225379 0.0215032 0.0204528 0.0193868 0.0183051 0.0172079 0.016095 0.0149665 0.0138224 0.0126895 0.0115946 0.0105379 0.00951919 0.00853858 0.00759604 0.00669158 0.00582519 0.00501177 0.00426621 0.00358851 0.00297866 0.00243668 0.00196256 0.0015563 0.00121789 0.00093245 0.000685065 0.00047574 0.000304473 0.000171266 7.61183e-05 1.90296e-05 0 0 6.82284e-05 0.000272914 0.000614056 0.00109165 0.00170571 0.00245622 0.00334319 0.00436662 0.00554314 0.00688941 0.00840542 0.0100912 0.0119467 0.0139719 0.0161669 0.0185316 0.0209998 0.0235055 0.0260485 0.0286288 0.0312465 0.0339016 0.0365941 0.0393239 0.0420168 0.0445987 0.0470696 0.0494294 0.0516782 0.0538159 0.0558426 0.0577582 0.0595265 0.0611113 0.0625125 0.0637302 0.0647643 0.065615 0.066282 0.0667656 0.0670808 0.0672431 0.0672523 0.0671085 0.0668117 0.0663619 0.0657591 0.0650033 0.0641437 0.0632294 0.0622605 0.061237 0.0601589 0.0590262 0.0578388 0.0565968 0.0553452 0.0541289 0.052948 0.0518025 0.0506923 0.0496175 0.048578 0.0475739 0.0466163 0.0457163 0.0448738 0.0440889 0.0433616 0.0426919 0.0420798 0.0415253 0.0410068 0.0405028 0.0400134 0.0395385 0.0390782 0.0386323 0.038201 0.0377843 0.0373546 0.0368848 0.0363748 0.0358245 0.0352341 0.0346034 0.0339325 0.0332214 0.0324632 0.0316508 0.0307843 0.0298637 0.028889 0.0278601 0.0267771 0.02564 0.0244674 0.0232778 0.0220713 0.0208479 0.0196075 0.0183502 0.017076 0.0157848 0.0145061 0.0132692 0.0120741 0.0109209 0.00980952 0.00873995 0.00771222 0.00672631 0.00579924 0.00494801 0.00417261 0.00347305 0.00284933 0.00230144 0.00182939 0.00143318 0.00109728 0.000806164 0.000559836 0.000358295 0.000201541 8.95738e-05 2.23935e-05 0 0 7.82523e-05 0.000313009 0.00070427 0.00125204 0.00195631 0.00281708 0.00383436 0.00500815 0.00635395 0.00788731 0.0096082 0.0115166 0.0136126 0.0158962 0.0183672 0.0210258 0.0237977 0.0266083 0.0294578 0.0323462 0.0352734 0.0382395 0.0412445 0.0442883 0.0472898 0.050168 0.0529228 0.0555542 0.0580622 0.0604469 0.0627082 0.0648462 0.0668214 0.0685946 0.0701657 0.0715347 0.0727017 0.0736666 0.0744294 0.0749902 0.0753655 0.075572 0.0756096 0.0754784 0.0751783 0.0747095 0.0740717 0.0732652 0.0723432 0.0713593 0.0703133 0.0692054 0.0680356 0.0668037 0.0655099 0.0641541 0.0627853 0.0614524 0.0601555 0.0588946 0.0576697 0.0564808 0.0553278 0.0542107 0.0531421 0.0521342 0.0511871 0.0503007 0.0494751 0.0487103 0.0480063 0.047363 0.0467576 0.0461671 0.0455916 0.045031 0.0444854 0.0439547 0.0434389 0.0429382 0.042423 0.0418641 0.0412615 0.0406152 0.0399251 0.0391914 0.0384139 0.0375927 0.0367203 0.0357895 0.0348 0.0337521 0.0326456 0.0314806 0.0302571 0.028975 0.0276545 0.0263158 0.0249589 0.0235837 0.0221903 0.0207786 0.0193487 0.0179005 0.0164661 0.0150774 0.0137344 0.0124371 0.0111855 0.0099797 0.00881956 0.00770514 0.00665572 0.00569057 0.00480969 0.00401309 0.00330077 0.00267272 0.00212894 0.00166944 0.00127817 0.000939063 0.000652127 0.000417361 0.000234766 0.00010434 2.60851e-05 0 0 8.90666e-05 0.000356266 0.000801599 0.00142507 0.00222666 0.0032064 0.00436426 0.00570026 0.00722843 0.0089628 0.0109034 0.0130501 0.0154031 0.0179623 0.0207277 0.0236993 0.026794 0.0299289 0.0331039 0.0363191 0.0395744 0.0428698 0.0462053 0.049581 0.0529085 0.0560998 0.0591546 0.0620732 0.0648554 0.0675012 0.0700107 0.0723839 0.0745782 0.0765512 0.0783028 0.0798331 0.081142 0.0822296 0.0830958 0.0837407 0.0841822 0.0844383 0.0845091 0.0843946 0.08409