<?xml version="1.0"?> 
<VTKFile type="StructuredGrid" version="0.1"> 
<StructuredGrid WholeExtent="0 128 0 128 0 0"> 
<Piece Extent="0 128 0 128 0 0"> 
<PointData>
<DataArray type="Float32" Name="u" format="ascii" NumberOfComponents="1"> 
0 0 0 0 0 0 0 0 0 0 0 0 0 0 0 0 0 0 0 0 0 0 0 0 0 0 0 0 0 0 0 0 0 0 0 0 0 0 0 0 0 0 0 0 0 0 0 0 0 0 0 0 0 0 0 0 0 0 0 0 0 0 0 0 0 0 0 0 0 0 0 0 0 0 0 0 0 0 0 0 0 0 0 0 0 0 0 0 0 0 0 0 0 0 0 0 0 0 0 0 0 0 0 0 0 0 0 0 0 0 0 0 0 0 0 0 0 0 0 0 0 0 0 0 0 0 0 0 0 0 -4.77025e-08 -1.9081e-07 -4.29323e-07 -7.6324e-07 -1.19256e-06 -1.71729e-06 -2.33742e-06 -3.05296e-06 -3.95241e-06 -5.12429e-06 -6.56859e-06 -8.28532e-06 -1.02745e-05 -1.25361e-05 -1.50701e-05 -1.78765e-05 -2.08549e-05 -2.3905e-05 -2.70266e-05 -3.02199e-05 -3.34848e-05 -3.68213e-05 -4.02294e-05 -4.37091e-05 -4.71184e-05 -5.03153e-05 -5.32998e-05 -5.60719e-05 -5.86316e-05 -6.09789e-05 -6.31137e-05 -6.50362e-05 -6.67525e-05 -6.82686e-05 -6.95847e-05 -7.07008e-05 -7.16167e-05 -7.23326e-05 -7.28484e-05 -7.31642e-05 -7.33809e-05 -7.35995e-05 -7.38201e-05 -7.40427e-05 -7.42673e-05 -7.44938e-05 -7.47222e-05 -7.49526e-05 -7.52005e-05 -7.54813e-05 -7.57949e-05 -7.61415e-05 -7.6521e-05 -7.69333e-05 -7.73786e-05 -7.78568e-05 -7.83039e-05 -7.86559e-05 -7.89127e-05 -7.90744e-05 -7.91409e-05 -7.91124e-05 -7.89887e-05 -7.87699e-05 -7.8463e-05 -7.80753e-05 -7.76068e-05 -7.70573e-05 -7.6427e-05 -7.57158e-05 -7.49238e-05 -7.40508e-05 -7.3166e-05 -7.23384e-05 -7.1568e-05 -7.08547e-05 -7.01986e-05 -6.95997e-05 -6.90579e-05 -6.85733e-05 -6.81267e-05 -6.76986e-05 -6.72892e-05 -6.68985e-05 -6.65264e-05 -6.6173e-05 -6.58381e-05 -6.5522e-05 -6.51266e-05 -6.45541e-05 -6.38045e-05 -6.28779e-05 -6.17741e-05 -6.04933e-05 -5.90354e-05 -5.74003e-05 -5.55862e-05 -5.35911e-05 -5.14149e-05 -4.90577e-05 -4.65194e-05 -4.38e-05 -4.08996e-05 -3.78181e-05 -3.46855e-05 -3.16315e-05 -2.86562e-05 -2.57595e-05 -2.29415e-05 -2.02022e-05 -1.75416e-05 -1.49596e-05 -1.25384e-05 -1.03603e-05 -8.42516e-06 -6.73302e-06 -5.28388e-06 -4.07775e-06 -3.11462e-06 -2.3945e-06 -1.83329e-06 -1.3469e-06 -9.35351e-07 -5.98624e-07 -3.36726e-07 -1.49656e-07 -3.7414e-08 0 0 -1.9081e-07 -7.6324e-07 -1.71729e-06 -3.05296e-06 -4.77025e-06 -6.86916e-06 -9.34969e-06 -1.22118e-05 -1.58097e-05 -2.04972e-05 -2.62744e-05 -3.31413e-05 -4.10979e-05 -5.01442e-05 -6.02802e-05 -7.15059e-05 -8.34197e-05 -9.56199e-05 -0.000108107 -0.00012088 -0.000133939 -0.000147285 -0.000160918 -0.000174836 -0.000188474 -0.000201261 -0.000213199 -0.000224288 -0.000234526 -0.000243915 -0.000252455 -0.000260145 -0.00026701 -0.000273074 -0.000278339 -0.000282803 -0.000286467 -0.00028933 -0.000291394 -0.000292657 -0.000293523 -0.000294398 -0.000295281 -0.000296171 -0.000297069 -0.000297975 -0.000298889 -0.000299811 -0.000300802 -0.000301925 -0.00030318 -0.000304566 -0.000306084 -0.000307733 -0.000309515 -0.000311427 -0.000313216 -0.000314623 -0.000315651 -0.000316297 -0.000316564 -0.000316449 -0.000315955 -0.000315079 -0.000313852 -0.000312301 -0.000310427 -0.000308229 -0.000305708 -0.000302863 -0.000299695 -0.000296203 -0.000292664 -0.000289354 -0.000286272 -0.000283419 -0.000280794 -0.000278399 -0.000276232 -0.000274293 -0.000272507 -0.000270795 -0.000269157 -0.000267594 -0.000266106 -0.000264692 -0.000263353 -0.000262088 -0.000260506 -0.000258216 -0.000255218 -0.000251512 -0.000247097 -0.000241973 -0.000236141 -0.000229601 -0.000222345 -0.000214364 -0.00020566 -0.000196231 -0.000186077 -0.0001752 -0.000163598 -0.000151273 -0.000138742 -0.000126526 -0.000114625 -0.000103038 -9.17661e-05 -8.08089e-05 -7.01663e-05 -5.98383e-05 -5.01538e-05 -4.14412e-05 -3.37006e-05 -2.69321e-05 -2.11355e-05 -1.6311e-05 -1.24585e-05 -9.57799e-06 -7.33315e-06 -5.38762e-06 -3.7414e-06 -2.3945e-06 -1.3469e-06 -5.98624e-07 -1.49656e-07 0 0 -4.29323e-07 -1.71729e-06 -3.8639e-06 -6.86916e-06 -1.07331e-05 -1.54556e-05 -2.10368e-05 -2.74766e-05 -3.55717e-05 -4.61186e-05 -5.91174e-05 -7.45679e-05 -9.24703e-05 -0.000112824 -0.000135631 -0.000160888 -0.000187694 -0.000215145 -0.00024324 -0.000271979 -0.000301363 -0.000331392 -0.000362064 -0.000393382 -0.000424065 -0.000452838 -0.000479698 -0.000504647 -0.000527684 -0.00054881 -0.000568024 -0.000585326 -0.000600772 -0.000614418 -0.000626262 -0.000636307 -0.00064455 -0.000650993 -0.000655636 -0.000658478 -0.000660428 -0.000662396 -0.000664381 -0.000666384 -0.000668405 -0.000670444 -0.0006725 -0.000674574 -0.000676804 -0.000679331 -0.000682154 -0.000685273 -0.000688689 -0.0006924 -0.000696408 -0.000700711 -0.000704735 -0.000707903 -0.000710214 -0.000711669 -0.000712268 -0.000712011 -0.000710898 -0.000708929 -0.000706167 -0.000702678 -0.000698461 -0.000693516 -0.000687843 -0.000681442 -0.000674314 -0.000666457 -0.000658494 -0.000651046 -0.000644112 -0.000637692 -0.000631787 -0.000626397 -0.000621521 -0.00061716 -0.00061314 -0.000609288 -0.000605603 -0.000602087 -0.000598738 -0.000595557 -0.000592543 -0.000589698 -0.000586139 -0.000580987 -0.000574241 -0.000565901 -0.000555967 -0.00054444 -0.000531318 -0.000516603 -0.000500276 -0.00048232 -0.000462734 -0.000441519 -0.000418674 -0.0003942 -0.000368096 -0.000340363 -0.000312169 -0.000284683 -0.000257905 -0.000231836 -0.000206474 -0.00018182 -0.000157874 -0.000134636 -0.000112846 -9.32427e-05 -7.58264e-05 -6.05972e-05 -4.7555e-05 -3.66998e-05 -2.80316e-05 -2.15505e-05 -1.64996e-05 -1.21221e-05 -8.41816e-06 -5.38762e-06 -3.03054e-06 -1.3469e-06 -3.36726e-07 0 0 -7.6324e-07 -3.05296e-06 -6.86916e-06 -1.22118e-05 -1.9081e-05 -2.74766e-05 -3.73988e-05 -4.88474e-05 -6.32386e-05 -8.19887e-05 -0.000105098 -0.000132565 -0.000164392 -0.000200577 -0.000241121 -0.000286024 -0.000333679 -0.00038248 -0.000432426 -0.000483519 -0.000535757 -0.000589141 -0.00064367 -0.000699345 -0.000753894 -0.000805045 -0.000852797 -0.00089715 -0.000938105 -0.000975662 -0.00100982 -0.00104058 -0.00106804 -0.0010923 -0.00111336 -0.00113121 -0.00114587 -0.00115732 -0.00116557 -0.00117063 -0.00117409 -0.00117759 -0.00118112 -0.00118468 -0.00118828 -0.0011919 -0.00119556 -0.00119924 -0.00120321 -0.0012077 -0.00121272 -0.00121826 -0.00122434 -0.00123093 -0.00123806 -0.00124571 -0.00125286 -0.00125849 -0.0012626 -0.00126519 -0.00126625 -0.0012658 -0.00126382 -0.00126032 -0.00125541 -0.00124921 -0.00124171 -0.00123292 -0.00122283 -0.00121145 -0.00119878 -0.00118481 -0.00117066 -0.00115741 -0.00114509 -0.00113368 -0.00112318 -0.00111359 -0.00110493 -0.00109717 -0.00109003 -0.00108318 -0.00107663 -0.00107038 -0.00106442 -0.00105877 -0.00105341 -0.00104835 -0.00104203 -0.00103287 -0.00102087 -0.00100605 -0.000988386 -0.000967893 -0.000944566 -0.000918405 -0.00088938 -0.000857458 -0.000822638 -0.000784922 -0.00074431 -0.0007008 -0.000654393 -0.00060509 -0.000554968 -0.000506104 -0.000458499 -0.000412152 -0.000367064 -0.000323235 -0.000280665 -0.000239353 -0.000200615 -0.000165765 -0.000134802 -0.000107728 -8.45421e-05 -6.5244e-05 -4.9834e-05 -3.8312e-05 -2.93326e-05 -2.15505e-05 -1.49656e-05 -9.57799e-06 -5.38762e-06 -2.3945e-06 -5.98624e-07 0 0 -1.19256e-06 -4.77025e-06 -1.07331e-05 -1.9081e-05 -2.98141e-05 -4.29323e-05 -5.84356e-05 -7.6324e-05 -9.88103e-05 -0.000128107 -0.000164215 -0.000207133 -0.000256862 -0.000313401 -0.000376751 -0.000446912 -0.000521373 -0.000597625 -0.000675666 -0.000755498 -0.00083712 -0.000920532 -0.00100573 -0.00109273 -0.00117796 -0.00125788 -0.00133249 -0.0014018 -0.00146579 -0.00152447 -0.00157784 -0.00162591 -0.00166881 -0.00170672 -0.00173962 -0.00176752 -0.00179042 -0.00180832 -0.00182121 -0.0018291 -0.00183452 -0.00183999 -0.0018455 -0.00185107 -0.00185668 -0.00186234 -0.00186806 -0.00187382 -0.00188001 -0.00188703 -0.00189487 -0.00190354 -0.00191302 -0.00192333 -0.00193447 -0.00194642 -0.0019576 -0.0019664 -0.00197282 -0.00197686 -0.00197852 -0.00197781 -0.00197472 -0.00196925 -0.00196158 -0.00195188 -0.00194017 -0.00192643 -0.00191068 -0.0018929 -0.00187309 -0.00185127 -0.00182915 -0.00180846 -0.0017892 -0.00177137 -0.00175497 -0.00173999 -0.00172645 -0.00171433 -0.00170317 -0.00169247 -0.00168223 -0.00167246 -0.00166316 -0.00165432 -0.00164595 -0.00163805 -0.00162816 -0.00161385 -0.00159511 -0.00157195 -0.00154435 -0.00151233 -0.00147588 -0.00143501 -0.00138966 -0.00133978 -0.00128537 -0.00122644 -0.00116298 -0.001095 -0.00102249 -0.000945453 -0.000867137 -0.000790787 -0.000716404 -0.000643988 -0.000573538 -0.000505055 -0.000438539 -0.00037399 -0.000313461 -0.000259007 -0.000210629 -0.000168325 -0.000132097 -0.000101944 -7.78656e-05 -5.98624e-05 -4.58322e-05 -3.36726e-05 -2.33838e-05 -1.49656e-05 -8.41816e-06 -3.7414e-06 -9.35351e-07 0 0 -1.71729e-06 -6.86916e-06 -1.54556e-05 -2.74766e-05 -4.29323e-05 -6.18225e-05 -8.41472e-05 -0.000109907 -0.000142287 -0.000184475 -0.000236469 -0.000298272 -0.000369881 -0.000451298 -0.000542522 -0.000643554 -0.000750778 -0.000860579 -0.000972959 -0.00108792 -0.00120545 -0.00132557 -0.00144826 -0.00157353 -0.00169626 -0.00181135 -0.00191879 -0.00201859 -0.00211074 -0.00219524 -0.00227209 -0.0023413 -0.00240309 -0.00245767 -0.00250505 -0.00254523 -0.0025782 -0.00260397 -0.00262254 -0.00263391 -0.00264171 -0.00264958 -0.00265752 -0.00266554 -0.00267362 -0.00268178 -0.00269 -0.0026983 -0.00270722 -0.00271733 -0.00272862 -0.00274109 -0.00275475 -0.0027696 -0.00278563 -0.00280285 -0.00281894 -0.00283161 -0.00284086 -0.00284668 -0.00284907 -0.00284805 -0.00284359 -0.00283571 -0.00282467 -0.00281071 -0.00279384 -0.00277406 -0.00275137 -0.00272577 -0.00269726 -0.00266583 -0.00263398 -0.00260418 -0.00257645 -0.00255077 -0.00252715 -0.00250559 -0.00248609 -0.00246864 -0.00245256 -0.00243715 -0.00242241 -0.00240835 -0.00239495 -0.00238223 -0.00237017 -0.00235879 -0.00234456 -0.00232395 -0.00229696 -0.0022636 -0.00222387 -0.00217776 -0.00212527 -0.00206641 -0.0020011 -0.00192928 -0.00185094 -0.00176608 -0.0016747 -0.0015768 -0.00147239 -0.00136145 -0.00124868 -0.00113873 -0.00103162 -0.000927343 -0.000825895 -0.00072728 -0.000631496 -0.000538545 -0.000451384 -0.000372971 -0.000303306 -0.000242389 -0.00019022 -0.000146799 -0.000112126 -8.62019e-05 -6.59983e-05 -4.84886e-05 -3.36726e-05 -2.15505e-05 -1.21221e-05 -5.38762e-06 -1.3469e-06 0 0 -2.33742e-06 -9.34969e-06 -2.10368e-05 -3.73988e-05 -5.84356e-05 -8.41472e-05 -0.000114534 -0.000149595 -0.000193668 -0.00025109 -0.000321861 -0.000405981 -0.000503449 -0.000614267 -0.000738433 -0.000875948 -0.00102189 -0.00117134 -0.00132431 -0.00148078 -0.00164075 -0.00180424 -0.00197124 -0.00214174 -0.0023088 -0.00246545 -0.00261169 -0.00274752 -0.00287295 -0.00298796 -0.00309257 -0.00318677 -0.00327087 -0.00334516 -0.00340965 -0.00346434 -0.00350922 -0.0035443 -0.00356957 -0.00358504 -0.00359566 -0.00360638 -0.00361719 -0.00362809 -0.0036391 -0.00365019 -0.00366139 -0.00367268 -0.00368482 -0.00369858 -0.00371395 -0.00373093 -0.00374953 -0.00376973 -0.00379155 -0.00381498 -0.00383689 -0.00385414 -0.00386672 -0.00387464 -0.00387791 -0.00387651 -0.00387045 -0.00385972 -0.00384469 -0.00382569 -0.00380273 -0.00377581 -0.00374492 -0.00371008 -0.00367126 -0.00362849 -0.00358514 -0.00354458 -0.00350683 -0.00347188 -0.00343973 -0.00341038 -0.00338384 -0.00336009 -0.00333821 -0.00331723 -0.00329717 -0.00327803 -0.00325979 -0.00324247 -0.00322607 -0.00321058 -0.0031912 -0.00316315 -0.00312642 -0.00308102 -0.00302693 -0.00296417 -0.00289273 -0.00281262 -0.00272373 -0.00262596 -0.00251933 -0.00240383 -0.00227945 -0.0021462 -0.00200408 -0.00185309 -0.00169959 -0.00154994 -0.00140415 -0.00126222 -0.00112414 -0.000989909 -0.000859537 -0.00073302 -0.000614383 -0.000507654 -0.000412833 -0.000329918 -0.00025891 -0.00019981 -0.000152617 -0.00011733 -8.98311e-05 -6.59983e-05 -4.58322e-05 -2.93326e-05 -1.64996e-05 -7.33315e-06 -1.83329e-06 0 0 -3.05296e-06 -1.22118e-05 -2.74766e-05 -4.88474e-05 -7.6324e-05 -0.000109907 -0.000149595 -0.00019539 -0.000252954 -0.000327955 -0.00042039 -0.000530261 -0.000657566 -0.000802308 -0.000964484 -0.0011441 -0.00133472 -0.00152992 -0.00172971 -0.00193407 -0.00214303 -0.00235656 -0.00257468 -0.00279738 -0.00301558 -0.00322018 -0.00341119 -0.0035886 -0.00375242 -0.00390265 -0.00403928 -0.00416232 -0.00427216 -0.00436919 -0.00445342 -0.00452485 -0.00458347 -0.00462929 -0.0046623 -0.00468251 -0.00469638 -0.00471037 -0.00472449 -0.00473873 -0.0047531 -0.0047676 -0.00478222 -0.00479697 -0.00481283 -0.0048308 -0.00485087 -0.00487306 -0.00489734 -0.00492373 -0.00495223 -0.00498284 -0.00501145 -0.00503397 -0.00505041 -0.00506076 -0.00506502 -0.00506319 -0.00505528 -0.00504127 -0.00502163 -0.00499682 -0.00496683 -0.00493167 -0.00489133 -0.00484581 -0.00479512 -0.00473925 -0.00468263 -0.00462966 -0.00458035 -0.0045347 -0.00449271 -0.00445438 -0.00441971 -0.00438869 -0.00436011 -0.00433271 -0.00430651 -0.0042815 -0.00425769 -0.00423507 -0.00421364 -0.00419341 -0.0041681 -0.00413146 -0.00408349 -0.00402418 -0.00395354 -0.00387157 -0.00377826 -0.00367362 -0.00355752 -0.00342983 -0.00329055 -0.00313969 -0.00297724 -0.0028032 -0.00261757 -0.00242036 -0.00221987 -0.00202442 -0.00183399 -0.00164861 -0.00146826 -0.00129294 -0.00112266 -0.000957413 -0.00080246 -0.000663059 -0.00053921 -0.000430913 -0.000338169 -0.000260976 -0.000199336 -0.000153248 -0.00011733 -8.62019e-05 -5.98624e-05 -3.8312e-05 -2.15505e-05 -9.57799e-06 -2.3945e-06 0 0 -3.99944e-06 -1.59978e-05 -3.5995e-05 -6.39911e-05 -9.99861e-05 -0.00014398 -0.000195973 -0.000255964 -0.000330726 -0.00042703 -0.000544875 -0.000684262 -0.000845191 -0.00102766 -0.00123167 -0.00145723 -0.00169604 -0.00193982 -0.00218858 -0.00244231 -0.00270102 -0.0029647 -0.00323335 -0.00350698 -0.00377443 -0.00402454 -0.00425732 -0.00447277 -0.00467089 -0.00485167 -0.00501512 -0.00516123 -0.00529102 -0.00540547 -0.00550458 -0.00558837 -0.00565683 -0.00570995 -0.00574774 -0.0057702 -0.00578561 -0.00580226 -0.00582016 -0.00583929 -0.00585967 -0.00588129 -0.00590415 -0.00592825 -0.00595439 -0.00598338 -0.0060152 -0.00604986 -0.00608736 -0.00612771 -0.00617089 -0.00621691 -0.00626007 -0.00629465 -0.00632065 -0.00633807 -0.00634692 -0.0063472 -0.0063389 -0.00632202 -0.00629714 -0.00626486 -0.00622515 -0.00617804 -0.00612351 -0.00606156 -0.0059922 -0.00591542 -0.00583734 -0.00576403 -0.00569552 -0.00563179 -0.00557285 -0.00551869 -0.00546932 -0.00542474 -0.0053838 -0.00534536 -0.00530943 -0.00527599 -0.00524506 -0.00521663 -0.0051907 -0.00516728 -0.00513831 -0.00509576 -0.00503964 -0.00496993 -0.00488664 -0.00478978 -0.00467933 -0.0045553 -0.00441708 -0.00426404 -0.00409618 -0.00391351 -0.00371603 -0.00350373 -0.00327662 -0.00303469 -0.00278817 -0.00254728 -0.00231203 -0.00208241 -0.00185842 -0.00164006 -0.00142734 -0.00122025 -0.00102559 -0.000850165 -0.000693978 -0.000557027 -0.00043931 -0.000340829 -0.000261583 -0.000201572 -0.000154329 -0.000113384 -7.87391e-05 -5.0393e-05 -2.83461e-05 -1.25983e-05 -3.14956e-06 0 0 -5.31241e-06 -2.12496e-05 -4.78117e-05 -8.49985e-05 -0.00013281 -0.000191247 -0.000260308 -0.000339994 -0.000437564 -0.000560278 -0.000708135 -0.000881136 -0.00107928 -0.00130257 -0.001551 -0.00182457 -0.00211265 -0.00240458 -0.00270036 -0.003 -0.00330349 -0.00361083 -0.00392203 -0.00423709 -0.0045432 -0.00482755 -0.00509014 -0.00533099 -0.00555008 -0.00574741 -0.00592299 -0.00607682 -0.00621151 -0.00632969 -0.00643136 -0.00651651 -0.00658516 -0.00663729 -0.0066729 -0.00669201 -0.00670512 -0.00672276 -0.00674492 -0.00677161 -0.00680282 -0.00683856 -0.00687883 -0.00692362 -0.00697267 -0.00702571 -0.00708273 -0.00714375 -0.00720876 -0.00727776 -0.00735074 -0.00742772 -0.00750019 -0.00755967 -0.00760615 -0.00763964 -0.00766013 -0.00766762 -0.00766212 -0.00764362 -0.00761286 -0.00757055 -0.0075167 -0.0074513 -0.00737437 -0.00728589 -0.00718587 -0.00707431 -0.00696015 -0.00685232 -0.00675084 -0.0066557 -0.00656689 -0.00648443 -0.0064083 -0.00633852 -0.00627482 -0.00621695 -0.00616491 -0.00611871 -0.00607833 -0.00604378 -0.00601507 -0.00599218 -0.00596488 -0.00592293 -0.00586633 -0.00579508 -0.00570917 -0.00560861 -0.00549339 -0.00536353 -0.00521698 -0.00505174 -0.00486779 -0.00466513 -0.00444378 -0.00420372 -0.00394496 -0.00366749 -0.00338313 -0.00310368 -0.00282913 -0.0025595 -0.00229477 -0.00203495 -0.00178004 -0.00153004 -0.00129374 -0.00107996 -0.000888679 -0.00071991 -0.00057365 -0.000449899 -0.000348656 -0.000269921 -0.000206658 -0.000151831 -0.000105438 -6.74803e-05 -3.79577e-05 -1.68701e-05 -4.21752e-06 0 0 -6.99186e-06 -2.79674e-05 -6.29267e-05 -0.00011187 -0.000174796 -0.000251707 -0.000342601 -0.000447479 -0.000573469 -0.0007277 -0.000910171 -0.00112088 -0.00135984 -0.00162703 -0.00192246 -0.00224614 -0.00258454 -0.00292418 -0.00326503 -0.00360712 -0.00395043 -0.00429496 -0.00464072 -0.00498771 -0.00532188 -0.00562919 -0.00590965 -0.00616325 -0.00638999 -0.00658988 -0.0067629 -0.00690908 -0.00703365 -0.00714187 -0.00723375 -0.00730928 -0.00736847 -0.00741131 -0.0074378 -0.00744795 -0.00745491 -0.00747186 -0.00749878 -0.00753568 -0.00758256 -0.00763941 -0.00770625 -0.00778307 -0.00786765 -0.00795779 -0.00805348 -0.00815472 -0.00826153 -0.00837388 -0.00849179 -0.00861526 -0.00873183 -0.00882905 -0.00890693 -0.00896545 -0.00900463 -0.00902447 -0.00902495 -0.00900609 -0.00896877 -0.0089139 -0.00884147 -0.00875147 -0.00864392 -0.00851881 -0.00837614 -0.00821591 -0.00805106 -0.00789453 -0.00774632 -0.00760643 -0.00747485 -0.0073516 -0.00723666 -0.00713004 -0.00703317 -0.00694748 -0.00687297 -0.00680964 -0.00675749 -0.00671652 -0.00668673 -0.00666812 -0.00664782 -0.00661297 -0.00656357 -0.00649962 -0.00642112 -0.00632806 -0.00622046 -0.0060983 -0.00595724 -0.00579293 -0.00560537 -0.00539455 -0.00516049 -0.00490317 -0.00462259 -0.00431877 -0.00400475 -0.0036936 -0.00338531 -0.00307988 -0.00277731 -0.0024776 -0.00218076 -0.00188678 -0.00160692 -0.00135243 -0.00112331 -0.000919564 -0.000741189 -0.000588186 -0.000460554 -0.000358295 -0.000274319 -0.000201541 -0.000139959 -8.95737e-05 -5.03852e-05 -2.23934e-05 -5.59836e-06 0 0 -9.03779e-06 -3.61512e-05 -8.13401e-05 -0.000144605 -0.000225945 -0.000325361 -0.000442852 -0.000578419 -0.00073844 -0.000929294 -0.00115098 -0.0014035 -0.00168686 -0.00200104 -0.00234606 -0.00272191 -0.00311173 -0.00349863 -0.00388261 -0.00426368 -0.00464184 -0.00501709 -0.00538942 -0.00575884 -0.00611048 -0.00642948 -0.00671584 -0.00696955 -0.00719063 -0.00737906 -0.00753485 -0.007658 -0.00775742 -0.007842 -0.00791175 -0.00796667 -0.00800675 -0.008032 -0.00804242 -0.00803801 -0.00803498 -0.00804955 -0.00808173 -0.0081315 -0.00819887 -0.00828385 -0.00838642 -0.0085066 -0.00863934 -0.00877962 -0.00892743 -0.00908278 -0.00924567 -0.00941609 -0.00959404 -0.00977953 -0.00995497 -0.0101028 -0.010223 -0.0103155 -0.0103804 -0.0104177 -0.0104274 -0.0104094 -0.0103649 -0.0102949 -0.0101995 -0.0100785 -0.00993216 -0.00976032 -0.00956301 -0.00934023 -0.00911008 -0.00889066 -0.00868196 -0.00848398 -0.00829673 -0.0081202 -0.00795439 -0.00779931 -0.00765886 -0.00753696 -0.00743361 -0.0073488 -0.00728255 -0.00723485 -0.0072057 -0.00719509 -0.00718713 -0.00716588 -0.00713136 -0.00708357 -0.00702249 -0.00694815 -0.00686052 -0.00675962 -0.00663785 -0.00648762 -0.00630893 -0.00610177 -0.00586615 -0.00560207 -0.00530953 -0.00498853 -0.00465304 -0.00431705 -0.00398055 -0.00364355 -0.00330604 -0.00296803 -0.00262951 -0.00229049 -0.00196512 -0.00166759 -0.00139788 -0.00115599 -0.000941927 -0.00075569 -0.000597279 -0.000466693 -0.000357312 -0.000262515 -0.000182302 -0.000116673 -6.56287e-05 -2.91683e-05 -7.29208e-06 0 0 -1.14502e-05 -4.58008e-05 -0.000103052 -0.000183203 -0.000286255 -0.000412208 -0.00056106 -0.000732813 -0.000932477 -0.00116506 -0.00143057 -0.00172899 -0.00206034 -0.00242461 -0.0028218 -0.00325191 -0.0036942 -0.00412792 -0.00455309 -0.00496969 -0.00537773 -0.00577721 -0.00616812 -0.00655047 -0.00690899 -0.0072284 -0.0075087 -0.0077499 -0.00795199 -0.00811497 -0.00823884 -0.0083236 -0.00838283 -0.00843008 -0.00846537 -0.00848868 -0.00850001 -0.00849938 -0.00848678 -0.0084622 -0.00844533 -0.00845586 -0.00849377 -0.00855908 -0.00865177 -0.00877186 -0.00891934 -0.00909421 -0.00928774 -0.0094912 -0.0097046 -0.00992792 -0.0101612 -0.0104044 -0.0106575 -0.0109205 -0.0111696 -0.0113809 -0.0115543 -0.0116898 -0.0117875 -0.0118474 -0.0118694 -0.0118536 -0.0118012 -0.0117136 -0.0115907 -0.0114325 -0.0112391 -0.0110104 -0.0107465 -0.0104473 -0.0101372 -0.00984071 -0.00955776 -0.00928836 -0.00903252 -0.00879023 -0.00856149 -0.00834631 -0.00815187 -0.00798537 -0.00784681 -0.00773619 -0.00765351 -0.00759877 -0.00757197 -0.0075731 -0.00758279 -0.00758166 -0.0075697 -0.00754691 -0.0075133 -0.00746885 -0.00741358 -0.00734749 -0.00725881 -0.0071358 -0.00697846 -0.00678679 -0.00656078 -0.00630044 -0.00600577 -0.00567676 -0.00532799 -0.00497402 -0.00461486 -0.00425051 -0.00388096 -0.00350622 -0.00312628 -0.00274115 -0.00236835 -0.00202543 -0.00171237 -0.00142918 -0.00117586 -0.000952412 -0.00075883 -0.000595116 -0.000455636 -0.000334753 -0.000232467 -0.000148779 -8.36882e-05 -3.71948e-05 -9.29869e-06 0 0 -1.42291e-05 -5.69164e-05 -0.000128062 -0.000227666 -0.000355728 -0.000512248 -0.000697226 -0.000910663 -0.00115558 -0.001435 -0.00174893 -0.00209736 -0.00248029 -0.00289773 -0.00334967 -0.00383612 -0.00433195 -0.00481207 -0.00527646 -0.00572514 -0.00615809 -0.00657532 -0.00697683 -0.00736262 -0.00771742 -0.00802597 -0.00828826 -0.00850429 -0.00867407 -0.00879759 -0.00887486 -0.00890588 -0.00890988 -0.00890612 -0.00889459 -0.0088753 -0.00884825 -0.00881344 -0.00877086 -0.00872051 -0.00868596 -0.00869076 -0.00873491 -0.00881841 -0.00894126 -0.00910346 -0.00930501 -0.00954591 -0.00981285 -0.0100925 -0.010385 -0.0106901 -0.0110081 -0.0113387 -0.0116821 -0.0120383 -0.0123758 -0.0126633 -0.0129009 -0.0130884 -0.0132259 -0.0133135 -0.0133511 -0.0133386 -0.0132777 -0.0131699 -0.0130151 -0.0128134 -0.0125647 -0.0122691 -0.0119265 -0.011537 -0.0111324 -0.0107447 -0.0103737 -0.0100196 -0.00968222 -0.00936169 -0.00905796 -0.00877105 -0.00851221 -0.00829273 -0.00811259 -0.0079718 -0.00787036 -0.00780828 -0.00778554 -0.00780215 -0.00783483 -0.00786031 -0.00787858 -0.00788966 -0.00789352 -0.00789019 -0.00787965 -0.0078619 -0.00782013 -0.00773748 -0.00761398 -0.0074496 -0.00724437 -0.00699827 -0.0067113 -0.00638347 -0.0060296 -0.00566453 -0.00528825 -0.00490076 -0.00450207 -0.00409218 -0.00367108 -0.00323877 -0.00281661 -0.00242595 -0.0020668 -0.00173915 -0.001443 -0.00117835 -0.000945206 -0.000743564 -0.000569291 -0.000418255 -0.000290455 -0.000185891 -0.000104564 -4.64728e-05 -1.16182e-05 0 0 -1.73745e-05 -6.9498e-05 -0.00015637 -0.000277992 -0.000434362 -0.000625482 -0.00085135 -0.00111197 -0.00140775 -0.00173912 -0.00210606 -0.0025086 -0.00294671 -0.0034204 -0.00392968 -0.00447454 -0.005025 -0.00555106 -0.00605274 -0.00653003 -0.00698292 -0.00741143 -0.00781555 -0.00819528 -0.00853577 -0.00882217 -0.00905449 -0.00923273 -0.00935688 -0.00942694 -0.00944292 -0.00940482 -0.00933857 -0.00927011 -0.00919943 -0.00912656 -0.00905147 -0.00897417 -0.00889466 -0.00881295 -0.00875687 -0.00875426 -0.00880514 -0.00890949 -0.00906732 -0.00927863 -0.00954342 -0.00986169 -0.0102147 -0.0105836 -0.0109686 -0.0113695 -0.0117863 -0.0122192 -0.012668 -0.0131327 -0.0135735 -0.0139501 -0.0142627 -0.0145112 -0.0146956 -0.014816 -0.0148723 -0.0148645 -0.0147945 -0.0146639 -0.0144728 -0.0142211 -0.013909 -0.0135363 -0.0131032 -0.0126095 -0.0120958 -0.0116025 -0.0111298 -0.0106776 -0.0102458 -0.00983458 -0.00944381 -0.00907353 -0.00873989 -0.00845902 -0.00823094 -0.00805564 -0.00793311 -0.00786337 -0.00784641 -0.00788223 -0.00794323 -0.00800183 -0.00805802 -0.0081118 -0.00816318 -0.00821215 -0.00825871 -0.00830287 -0.00832179 -0.00829266 -0.00821547 -0.00809022 -0.00791691 -0.00769555 -0.00742613 -0.00710865 -0.00675787 -0.00638856 -0.0060007 -0.00559431 -0.00516938 -0.00472591 -0.0042639 -0.00378335 -0.00330989 -0.00286916 -0.00246116 -0.00208588 -0.00174333 -0.00143351 -0.00115641 -0.000912037 -0.000698278 -0.000513021 -0.000356264 -0.000228009 -0.000128255 -5.70023e-05 -1.42506e-05 0 0 -2.08864e-05 -8.35455e-05 -0.000187977 -0.000334182 -0.000522159 -0.000751909 -0.00102343 -0.00133673 -0.00168899 -0.0020774 -0.00250198 -0.0029627 -0.00345959 -0.00399263 -0.00456183 -0.00516718 -0.00577333 -0.00634491 -0.00688192 -0.00738436 -0.00785223 -0.00828554 -0.00868427 -0.00904844 -0.00936403 -0.00961702 -0.00980741 -0.00993521 -0.0100004 -0.010003 -0.00994302 -0.00982043 -0.00966889 -0.00952204 -0.00937989 -0.00924243 -0.00910966 -0.00898158 -0.0088582 -0.00873951 -0.00865805 -0.00864637 -0.00870446 -0.00883233 -0.00902997 -0.00929739 -0.00963458 -0.0100415 -0.0104932 -0.0109645 -0.0114554 -0.0119658 -0.012496 -0.0130457 -0.013615 -0.0142039 -0.0147626 -0.0152413 -0.0156398 -0.0159583 -0.0161966 -0.0163549 -0.0164332 -0.0164313 -0.0163514 -0.0161955 -0.0159637 -0.0156558 -0.015272 -0.0148122 -0.0142764 -0.0136647 -0.0130272 -0.0124143 -0.0118261 -0.0112624 -0.0107234 -0.0102089 -0.00971902 -0.00925375 -0.00883489 -0.00848426 -0.00820186 -0.0079877 -0.00784176 -0.00776406 -0.00775458 -0.00781334 -0.00790799 -0.00800621 -0.008108 -0.00821334 -0.00832226 -0.00843473 -0.00855077 -0.00867038 -0.00876381 -0.00880133 -0.00878294 -0.00870863 -0.00857842 -0.00839229 -0.00815026 -0.00785231 -0.00751281 -0.00714612 -0.00675223 -0.00633115 -0.00588287 -0.0054074 -0.00490474 -0.00437488 -0.0038482 -0.00335506 -0.00289545 -0.00246939 -0.00207686 -0.00171788 -0.00139244 -0.00110053 -0.000842596 -0.00061905 -0.000429896 -0.000275133 -0.000154763 -6.87834e-05 -1.71958e-05 0 0 -2.4717e-05 -9.88682e-05 -0.000222453 -0.000395473 -0.000617926 -0.000889814 -0.00121114 -0.00158189 -0.00199515 -0.00244397 -0.00292836 -0.00344831 -0.00400383 -0.00459492 -0.00522158 -0.0058838 -0.00654028 -0.00714973 -0.00771214 -0.00822752 -0.00869585 -0.00911716 -0.00949142 -0.00981865 -0.0100865 -0.0102825 -0.0104067 -0.0104591 -0.0104397 -0.0103484 -0.0101854 -0.00995062 -0.00968687 -0.00943706 -0.00920118 -0.00897924 -0.00877123 -0.00857716 -0.00839703 -0.00823083 -0.00811631 -0.0080912 -0.00815551 -0.00830923 -0.00855236 -0.0088849 -0.00930686 -0.00981823 -0.0103863 -0.0109782 -0.0115941 -0.0122339 -0.0128976 -0.0135853 -0.0142969 -0.0150324 -0.0157304 -0.0163297 -0.0168301 -0.0172318 -0.0175346 -0.0177386 -0.0178438 -0.0178503 -0.0177602 -0.017576 -0.0172978 -0.0169254 -0.0164589 -0.0158982 -0.0152435 -0.0144946 -0.0137134 -0.0129615 -0.0122389 -0.0115457 -0.0108818 -0.0102472 -0.00964203 -0.00906616 -0.00854833 -0.00811726 -0.00777295 -0.00751539 -0.00734458 -0.00726053 -0.00726324 -0.0073527 -0.00749131 -0.0076415 -0.00780325 -0.00797656 -0.00816144 -0.00835788 -0.00856589 -0.00878546 -0.00897857 -0.00910719 -0.00917133 -0.00917098 -0.00910614 -0.00897681 -0.00878299 -0.00852469 -0.0082152 -0.00786783 -0.00748257 -0.00705942 -0.00659839 -0.00609948 -0.00556268 -0.00498799 -0.00441105 -0.00386747 -0.00335726 -0.00288042 -0.00243695 -0.00202684 -0.00165011 -0.00130674 -0.00100047 -0.000735041 -0.000510445 -0.000326685 -0.00018376 -8.16712e-05 -2.04178e-05 0 0 -2.88189e-05 -0.000115275 -0.00025937 -0.000461102 -0.000720472 -0.00103748 -0.00141212 -0.00184441 -0.00232209 -0.00283292 -0.0033769 -0.00395404 -0.00456434 -0.00520779 -0.00588439 -0.00659414 -0.00728919 -0.00792166 -0.00849156 -0.00899888 -0.00944363 -0.00982581 -0.0101454 -0.0104024 -0.0105873 -0.0106905 -0.0107119 -0.0106516 -0.0105096 -0.0102859 -0.00998045 -0.00959329 -0.00917852 -0.00879026 -0.00842852 -0.0080933 -0.00778459 -0.0075024 -0.00724672 -0.00701756 -0.00685844 -0.00681289 -0.0068809 -0.00706248 -0.00735762 -0.00776634 -0.00828862 -0.00892446 -0.00963167 -0.010368 -0.0111336 -0.0119282 -0.0127521 -0.0136051 -0.0144872 -0.0153985 -0.0162639 -0.0170082 -0.0176315 -0.0181338 -0.0185151 -0.0187754 -0.0189146 -0.0189328 -0.0188326 -0.0186167 -0.0182851 -0.0178378 -0.0172748 -0.0165961 -0.0158016 -0.0148915 -0.013941 -0.0130254 -0.0121447 -0.0112989 -0.0104881 -0.0097122 -0.00897123 -0.00826519 -0.00763132 -0.00710685 -0.00669178 -0.00638612 -0.00618986 -0.006103 -0.00612555 -0.0062575 -0.00645538 -0.00667571 -0.00691849 -0.00718371 -0.0074714 -0.00778153 -0.00811411 -0.00846914 -0.00879847 -0.00905396 -0.0092356 -0.00934338 -0.00937732 -0.00933741 -0.00922365 -0.00903604 -0.00878584 -0.00848432 -0.00813146 -0.00772728 -0.00727178 -0.00676494 -0.00620678 -0.00559729 -0.00497795 -0.00439025 -0.00383418 -0.00330974 -0.00281694 -0.00235577 -0.00192624 -0.00152834 -0.00117013 -0.000859689 -0.000597007 -0.000382084 -0.000214922 -9.5521e-05 -2.38803e-05 0 0 -3.31918e-05 -0.000132767 -0.000298726 -0.000531069 -0.000829795 -0.00119491 -0.0016264 -0.00212428 -0.0026698 -0.00324425 -0.00384762 -0.0044799 -0.0051411 -0.00583123 -0.00655027 -0.00729823 -0.00802005 -0.0086607 -0.00922017 -0.00969846 -0.0100956 -0.0104115 -0.0106462 -0.0107998 -0.0108666 -0.010841 -0.0107231 -0.0105129 -0.0102103 -0.00981536 -0.00932807 -0.00874843 -0.00814383 -0.00758166 -0.00706192 -0.00658461 -0.00614974 -0.00575729 -0.00540727 -0.00509969 -0.00488443 -0.00481142 -0.00488063 -0.00509209 -0.00544578 -0.0059417 -0.00657986 -0.00736026 -0.00822943 -0.00913391 -0.0100737 -0.0110488 -0.0120592 -0.013105 -0.014186 -0.0153024 -0.016363 -0.0172769 -0.0180441 -0.0186645 -0.0191382 -0.0194652 -0.0196454 -0.0196788 -0.0195686 -0.0193175 -0.0189257 -0.0183931 -0.0177198 -0.0169057 -0.0159508 -0.0148552 -0.0137099 -0.012606 -0.0115434 -0.0105221 -0.00954228 -0.00860378 -0.00770664 -0.00685086 -0.00608385 -0.00545302 -0.00495837 -0.00459989 -0.00437759 -0.00429147 -0.00434152 -0.00452776 -0.00480019 -0.00510884 -0.00545372 -0.00583481 -0.00625213 -0.00670567 -0.00719544 -0.00772142 -0.00822352 -0.00864162 -0.00897573 -0.00922585 -0.00939197 -0.00947409 -0.00947222 -0.00938635 -0.00922473 -0.00899558 -0.00869892 -0.00833473 -0.00790302 -0.00740379 -0.00683704 -0.00620277 -0.00554891 -0.00492339 -0.0043262 -0.00375735 -0.00321684 -0.00270466 -0.00222083 -0.00176533 -0.00135158 -0.000992996 -0.00068958 -0.000441331 -0.000248249 -0.000110333 -2.75832e-05 0 0 -3.78359e-05 -0.000151344 -0.000340523 -0.000605374 -0.000945898 -0.00136209 -0.00185396 -0.0024215 -0.0030383 -0.00367797 -0.0043405 -0.00502588 -0.00573413 -0.00646524 -0.00