<?xml version="1.0"?> 
<VTKFile type="StructuredGrid" version="0.1"> 
<StructuredGrid WholeExtent="0 128 0 128 0 0"> 
<Piece Extent="0 128 0 128 0 0"> 
<PointData>
<DataArray type="Float32" Name="u" format="ascii" NumberOfComponents="1"> 
0 0 0 0 0 0 0 0 0 0 0 0 0 0 0 0 0 0 0 0 0 0 0 0 0 0 0 0 0 0 0 0 0 0 0 0 0 0 0 0 0 0 0 0 0 0 0 0 0 0 0 0 0 0 0 0 0 0 0 0 0 0 0 0 0 0 0 0 0 0 0 0 0 0 0 0 0 0 0 0 0 0 0 0 0 0 0 0 0 0 0 0 0 0 0 0 0 0 0 0 0 0 0 0 0 0 0 0 0 0 0 0 0 0 0 0 0 0 0 0 0 0 0 0 0 0 0 0 0 0 3.64756e-07 1.45902e-06 3.28281e-06 5.8361e-06 9.1189e-06 1.31312e-05 1.78731e-05 2.33444e-05 2.96314e-05 3.682e-05 4.49104e-05 5.39025e-05 6.37963e-05 7.45918e-05 8.62891e-05 9.8888e-05 0.000111969 0.000125112 0.000138317 0.000151583 0.000164912 0.000178303 0.000191756 0.000205272 0.000218489 0.000231049 0.000242951 0.000254197 0.000264784 0.000274715 0.000283988 0.000292603 0.000300459 0.000307452 0.000313583 0.000318851 0.000323256 0.000326799 0.00032948 0.000331298 0.00033235 0.000332735 0.000332451 0.000331499 0.00032988 0.000327592 0.000324636 0.000321012 0.0003169 0.000312479 0.00030775 0.000302712 0.000297365 0.00029171 0.000285747 0.000279474 0.000273047 0.000266617 0.000260185 0.000253752 0.000247316 0.000240878 0.000234439 0.000227997 0.000221622 0.000215385 0.000209286 0.000203323 0.000197497 0.000191809 0.000186258 0.000180844 0.000175558 0.000170393 0.000165349 0.000160425 0.000155621 0.000150937 0.000146374 0.000141931 0.000137568 0.000133244 0.000128961 0.000124716 0.000120512 0.000116347 0.000112221 0.000108135 0.000104066 9.99899e-05 9.59076e-05 9.18189e-05 8.77237e-05 8.3622e-05 7.95139e-05 7.53994e-05 7.12984e-05 6.72311e-05 6.31974e-05 5.91973e-05 5.52308e-05 5.1298e-05 4.73987e-05 4.35331e-05 3.97583e-05 3.61314e-05 3.26525e-05 2.93216e-05 2.61386e-05 2.31036e-05 2.02166e-05 1.74775e-05 1.49257e-05 1.26006e-05 1.0502e-05 8.63008e-06 6.98477e-06 5.56608e-06 4.37401e-06 3.40856e-06 2.60968e-06 1.91732e-06 1.33147e-06 8.5214e-07 4.79329e-07 2.13035e-07 5.32588e-08 0 0 1.45902e-06 5.8361e-06 1.31312e-05 2.33444e-05 3.64756e-05 5.25249e-05 7.14922e-05 9.33776e-05 0.000118525 0.00014728 0.000179642 0.00021561 0.000255185 0.000298367 0.000345156 0.000395552 0.000447875 0.000500447 0.000553266 0.000606334 0.00065965 0.000713214 0.000767026 0.000821086 0.000873956 0.000924195 0.000971806 0.00101679 0.00105914 0.00109886 0.00113595 0.00117041 0.00120184 0.00122981 0.00125433 0.0012754 0.00129303 0.0013072 0.00131792 0.00132519 0.0013294 0.00133094 0.0013298 0.001326 0.00131952 0.00131037 0.00129854 0.00128405 0.0012676 0.00124992 0.001231 0.00121085 0.00118946 0.00116684 0.00114299 0.0011179 0.00109219 0.00106647 0.00104074 0.00101501 0.000989264 0.000963513 0.000937754 0.000911987 0.00088649 0.000861542 0.000837142 0.000813291 0.000789989 0.000767236 0.000745031 0.000723375 0.000702234 0.000681574 0.000661396 0.000641698 0.000622483 0.000603748 0.000585495 0.000567723 0.000550271 0.000532978 0.000515842 0.000498865 0.000482047 0.000465386 0.000448884 0.00043254 0.000416263 0.00039996 0.00038363 0.000367275 0.000350895 0.000334488 0.000318056 0.000301598 0.000285194 0.000268924 0.00025279 0.000236789 0.000220923 0.000205192 0.000189595 0.000174132 0.000159033 0.000144526 0.00013061 0.000117286 0.000104554 9.24145e-05 8.08663e-05 6.991e-05 5.97029e-05 5.04022e-05 4.2008e-05 3.45203e-05 2.79391e-05 2.22643e-05 1.7496e-05 1.36342e-05 1.04387e-05 7.66926e-06 5.32588e-06 3.40856e-06 1.91732e-06 8.5214e-07 2.13035e-07 0 0 3.28281e-06 1.31312e-05 2.95453e-05 5.25249e-05 8.20701e-05 0.000118181 0.000160857 0.0002101 0.000266682 0.00033138 0.000404194 0.000485122 0.000574167 0.000671326 0.000776602 0.000889992 0.00100772 0.00112601 0.00124485 0.00136425 0.00148421 0.00160473 0.00172581 0.00184744 0.0019664 0.00207944 0.00218656 0.00228777 0.00238306 0.00247243 0.00255589 0.00263343 0.00270413 0.00276707 0.00282225 0.00286966 0.00290931 0.00294119 0.00296532 0.00298168 0.00299115 0.00299461 0.00299206 0.0029835 0.00296892 0.00294833 0.00292173 0.00288911 0.0028521 0.00281231 0.00276975 0.00272441 0.00267629 0.00262539 0.00257172 0.00251527 0.00245742 0.00239955 0.00234167 0.00228377 0.00222584 0.0021679 0.00210995 0.00205197 0.0019946 0.00193847 0.00188357 0.00182991 0.00177748 0.00172628 0.00167632 0.00162759 0.00158003 0.00153354 0.00148814 0.00144382 0.00140059 0.00135843 0.00131736 0.00127738 0.00123811 0.0011992 0.00116065 0.00112245 0.00108461 0.00104712 0.00100999 0.000973216 0.000936591 0.000899909 0.000863168 0.00082637 0.000789513 0.000752598 0.000715625 0.000678595 0.000641686 0.00060508 0.000568777 0.000532776 0.000497077 0.000461682 0.000426589 0.000391798 0.000357825 0.000325183 0.000293873 0.000263894 0.000235248 0.000207933 0.000181949 0.000157298 0.000134331 0.000113405 9.4518e-05 7.76707e-05 6.28629e-05 5.00947e-05 3.93661e-05 3.06771e-05 2.34871e-05 1.72558e-05 1.19832e-05 7.66926e-06 4.31396e-06 1.91732e-06 4.79329e-07 0 0 5.8361e-06 2.33444e-05 5.25249e-05 9.33776e-05 0.000145902 0.0002101 0.000285969 0.00037351 0.000474102 0.00058912 0.000718566 0.00086244 0.00102074 0.00119347 0.00138062 0.00158221 0.0017915 0.00200179 0.00221307 0.00242534 0.0026386 0.00285285 0.0030681 0.00328434 0.00349582 0.00369678 0.00388722 0.00406715 0.00423655 0.00439544 0.00454381 0.00468166 0.00480735 0.00491924 0.00501733 0.00510161 0.0051721 0.00522879 0.00527168 0.00530076 0.0053176 0.00532375 0.00531922 0.00530399 0.00527808 0.00524147 0.00519418 0.0051362 0.0050704 0.00499967 0.004924 0.00484339 0.00475785 0.00466736 0.00457194 0.00447159 0.00436875 0.00426587 0.00416297 0.00406003 0.00395706 0.00385405 0.00375102 0.00364795 0.00354596 0.00344617 0.00334857 0.00325317 0.00315996 0.00306894 0.00298012 0.0028935 0.00280893 0.0027263 0.00264558 0.00256679 0.00248993 0.00241499 0.00234198 0.00227089 0.00220109 0.00213191 0.00206337 0.00199546 0.00192819 0.00186155 0.00179554 0.00173016 0.00166505 0.00159984 0.00153452 0.0014691 0.00140358 0.00133795 0.00127222 0.00120639 0.00114078 0.0010757 0.00101116 0.000947157 0.000883693 0.000820768 0.00075838 0.00069653 0.000636133 0.000578103 0.00052244 0.000469145 0.000418218 0.000369658 0.000323465 0.00027964 0.000238811 0.000201609 0.000168032 0.000138081 0.000111756 8.90573e-05 6.99842e-05 5.4537e-05 4.17549e-05 3.06771e-05 2.13035e-05 1.36342e-05 7.66926e-06 3.40856e-06 8.5214e-07 0 0 9.1189e-06 3.64756e-05 8.20701e-05 0.000145902 0.000227973 0.000328281 0.000446826 0.00058361 0.000740784 0.000920501 0.00112276 0.00134756 0.00159491 0.0018648 0.00215723 0.0024722 0.00279922 0.00312779 0.00345791 0.00378959 0.00412281 0.00445759 0.00479391 0.00513179 0.00546222 0.00577622 0.00607379 0.00635492 0.00661961 0.00686787 0.0070997 0.00731509 0.00751148 0.00768631 0.00783957 0.00797127 0.00808141 0.00816998 0.00823699 0.00828244 0.00830875 0.00831837 0.00831128 0.00828749 0.00824699 0.0081898 0.0081159 0.00802531 0.0079225 0.00781198 0.00769375 0.0075678 0.00743413 0.00729276 0.00714366 0.00698686 0.00682617 0.00666543 0.00650463 0.00634379 0.0061829 0.00602196 0.00586096 0.00569992 0.00554056 0.00538464 0.00523214 0.00508307 0.00493743 0.00479522 0.00465644 0.00452109 0.00438896 0.00425984 0.00413372 0.00401062 0.00389052 0.00377343 0.00365934 0.00354827 0.0034392 0.00333111 0.00322402 0.00311791 0.00301279 0.00290866 0.00280553 0.00270338 0.00260164 0.00249975 0.00239769 0.00229547 0.00219309 0.00209055 0.00198785 0.00188499 0.00178246 0.00168078 0.00157993 0.00147993 0.00138077 0.00128245 0.00118497 0.00108833 0.000993957 0.000903286 0.000816313 0.00073304 0.000653466 0.00057759 0.000505414 0.000436938 0.000373143 0.000315014 0.00026255 0.000215752 0.000174619 0.000139152 0.00010935 8.5214e-05 6.5242e-05 4.79329e-05 3.32867e-05 2.13035e-05 1.19832e-05 5.32588e-06 1.33147e-06 0 0 1.31312e-05 5.25249e-05 0.000118181 0.0002101 0.000328281 0.000472724 0.00064343 0.000840398 0.00106673 0.00132552 0.00161677 0.00194049 0.00229667 0.00268531 0.00310641 0.00355997 0.00403088 0.00450402 0.0049794 0.00545701 0.00593685 0.00641892 0.00690323 0.00738977 0.0078656 0.00831776 0.00874625 0.00915108 0.00953224 0.00988973 0.0102236 0.0105337 0.0108165 0.0110683 0.011289 0.0114786 0.0116372 0.0117648 0.0118613 0.0119267 0.0119646 0.0119784 0.0119682 0.011934 0.0118757 0.0117933 0.0116869 0.0115564 0.0114084 0.0112493 0.011079 0.0108976 0.0107052 0.0105016 0.0102869 0.0100611 0.00982968 0.00959821 0.00936667 0.00913506 0.00890338 0.00867162 0.00843979 0.00820788 0.00797841 0.00775388 0.00753428 0.00731962 0.0071099 0.00690512 0.00670528 0.00651037 0.0063201 0.00613417 0.00595256 0.00577529 0.00560234 0.00543373 0.00526946 0.00510951 0.00495244 0.0047968 0.00464258 0.00448979 0.00433842 0.00418848 0.00403996 0.00389286 0.00374637 0.00359964 0.00345267 0.00330548 0.00315805 0.00301039 0.0028625 0.00271438 0.00256674 0.00242032 0.00227511 0.0021311 0.00198831 0.00184673 0.00170635 0.00156719 0.0014313 0.00130073 0.00117549 0.00105558 0.00094099 0.00083173 0.000727797 0.00062919 0.000537326 0.00045362 0.000378072 0.000310683 0.000251452 0.000200379 0.000157464 0.000122708 9.39485e-05 6.90234e-05 4.79329e-05 3.06771e-05 1.72558e-05 7.66926e-06 1.91732e-06 0 0 1.78731e-05 7.14922e-05 0.000160857 0.000285969 0.000446826 0.00064343 0.00087578 0.00114388 0.00145194 0.00180418 0.00220061 0.00264122 0.00312602 0.003655 0.00422816 0.00484551 0.00548647 0.00613047 0.00677751 0.00742759 0.00808071 0.00873687 0.00939607 0.0100583 0.010706 0.0113214 0.0119046 0.0124556 0.0129744 0.013461 0.0139154 0.0143376 0.0147225 0.0150652 0.0153656 0.0156237 0.0158396 0.0160132 0.0161445 0.0162336 0.0162852 0.016304 0.0162901 0.0162435 0.0161641 0.016052 0.0159072 0.0157296 0.0155281 0.0153115 0.0150797 0.0148329 0.0145709 0.0142938 0.0140016 0.0136942 0.0133793 0.0130642 0.0127491 0.0124338 0.0121185 0.011803 0.0114875 0.0111718 0.0108595 0.0105539 0.010255 0.00996282 0.00967737 0.00939864 0.00912663 0.00886134 0.00860236 0.00834928 0.0081021 0.00786081 0.00762541 0.00739592 0.00717232 0.00695461 0.00674083 0.00652898 0.00631907 0.0061111 0.00590507 0.00570098 0.00549883 0.00529862 0.00509922 0.0048995 0.00469947 0.00449912 0.00429846 0.00409748 0.00389618 0.00369457 0.00349362 0.00329432 0.00309667 0.00290067 0.00270631 0.0025136 0.00232254 0.00213312 0.00194816 0.00177044 0.00159997 0.00143676 0.00128079 0.00113208 0.000990612 0.000856398 0.00073136 0.000617427 0.000514598 0.000422874 0.000342254 0.000272738 0.000214327 0.00016702 0.000127874 9.39485e-05 6.5242e-05 4.17549e-05 2.34871e-05 1.04387e-05 2.60968e-06 0 0 2.33444e-05 9.33776e-05 0.0002101 0.00037351 0.00058361 0.000840398 0.00114388 0.00149404 0.00189641 0.00235648 0.00287427 0.00344976 0.00408296 0.00477388 0.0055225 0.00632883 0.007166 0.00800715 0.00885226 0.00970134 0.0105544 0.0114114 0.0122724 0.0131374 0.0139833 0.0147871 0.0155489 0.0162686 0.0169462 0.0175818 0.0181752 0.0187266 0.0192294 0.0196769 0.0200693 0.0204065 0.0206884 0.0209152 0.0210867 0.021203 0.0212704 0.021295 0.0212769 0.021216 0.0211123 0.0209659 0.0207767 0.0205448 0.0202816 0.0199987 0.019696 0.0193736 0.0190314 0.0186695 0.0182878 0.0178864 0.017475 0.0170635 0.0166519 0.0162401 0.0158282 0.0154162 0.0150041 0.0145918 0.0141838 0.0137847 0.0133943 0.0130127 0.0126398 0.0122758 0.0119205 0.011574 0.0112357 0.0109052 0.0105823 0.0102672 0.00995972 0.00965997 0.00936792 0.00908357 0.00880434 0.00852765 0.00825348 0.00798185 0.00771275 0.00744618 0.00718215 0.00692065 0.00666021 0.00639935 0.00613809 0.00587641 0.00561431 0.00535181 0.00508889 0.00482556 0.0045631 0.00430279 0.00404463 0.00378863 0.00353477 0.00328307 0.00303352 0.00278612 0.00254453 0.00231241 0.00208976 0.00187658 0.00167287 0.00147863 0.00129386 0.00111856 0.000955246 0.000806435 0.000672128 0.000552325 0.000447025 0.000356229 0.000279937 0.000218148 0.00016702 0.000122708 8.5214e-05 5.4537e-05 3.06771e-05 1.36342e-05 3.40856e-06 0 0 2.97991e-05 0.000119196 0.000268192 0.000476785 0.000744976 0.00107277 0.00146015 0.00190714 0.00242037 0.00300648 0.00366549 0.00439738 0.00520216 0.00607982 0.00703037 0.00805381 0.00911613 0.0101833 0.0112554 0.0123323 0.0134141 0.0145007 0.0155922 0.0166886 0.0177608 0.0187798 0.0197455 0.020658 0.0215173 0.0223234 0.0230762 0.0237757 0.0244138 0.0249819 0.0254803 0.0259088 0.0262674 0.0265562 0.0267752 0.0269243 0.0270114 0.0270443 0.0270231 0.0269477 0.0268181 0.0266344 0.0263964 0.0261043 0.0257726 0.0254157 0.0250337 0.0246265 0.0241943 0.0237369 0.0232543 0.0227467 0.0222263 0.0217055 0.0211845 0.0206631 0.0201414 0.0196194 0.0190971 0.0185744 0.018057 0.0175507 0.0170553 0.0165709 0.0160975 0.0156351 0.0151836 0.0147432 0.0143131 0.0138926 0.0134819 0.0130809 0.0126895 0.0123079 0.0119359 0.0115737 0.0112179 0.0108653 0.0105159 0.0101698 0.0098269 0.00948721 0.00915075 0.0088175 0.00848563 0.0081533 0.00782049 0.00748722 0.00715347 0.00681926 0.00648458 0.00614943 0.00581543 0.00548419 0.00515572 0.00483002 0.00450709 0.00418692 0.00386952 0.00355488 0.00324762 0.00295235 0.00266905 0.00239774 0.00213842 0.00189108 0.00165572 0.00143234 0.00122415 0.00103433 0.000862897 0.00070984 0.000575162 0.000458863 0.000360944 0.000281404 0.00021545 0.000158289 0.000109923 7.03509e-05 3.95724e-05 1.75877e-05 4.39693e-06 0 0 3.74908e-05 0.000149963 0.000337418 0.000599854 0.000937271 0.00134967 0.00183705 0.00239941 0.00304405 0.00377825 0.00460202 0.00551535 0.00651825 0.00761072 0.00879275 0.0100643 0.0113835 0.0127082 0.0140386 0.0153744 0.0167159 0.0180629 0.0194155 0.0207737 0.0221018 0.0233643 0.024561 0.0256921 0.0267575 0.0277573 0.0286913 0.0295597 0.0303522 0.0310585 0.0316786 0.0322125 0.0326603 0.0330219 0.0332973 0.0334866 0.0335992 0.0336448 0.0336234 0.0335349 0.0333794 0.0331568 0.0328672 0.0325106 0.0321047 0.0316675 0.0311988 0.0306987 0.0301672 0.0296044 0.0290101 0.0283844 0.0277426 0.0271 0.0264565 0.0258121 0.0251669 0.0245209 0.023874 0.0232262 0.0225847 0.0219563 0.0213412 0.0207393 0.0201506 0.0195751 0.0190128 0.0184637 0.0179272 0.0174024 0.0168895 0.0163884 0.0158991 0.0154217 0.0149561 0.0145022 0.0140563 0.0136145 0.0131766 0.0127428 0.012313 0.0118872 0.0114655 0.0110477 0.0106318 0.0102155 0.00979867 0.00938145 0.0089638 0.00854571 0.0081272 0.00770825 0.00729086 0.006877 0.00646668 0.0060599 0.00565665 0.00525693 0.00486076 0.00446811 0.00408464 0.00371595 0.00336205 0.00302294 0.00269862 0.00238909 0.00209435 0.00181441 0.00155323 0.00131481 0.00109914 0.000906222 0.00073606 0.000588652 0.000463997 0.000362096 0.00027723 0.000203679 0.000141444 9.05241e-05 5.09198e-05 2.2631e-05 5.65776e-06 0 0 4.64198e-05 0.000185679 0.000417778 0.000742716 0.00116049 0.00167111 0.00227457 0.00297086 0.00376745 0.00467179 0.00568386 0.00680368 0.00803125 0.00936656 0.0108096 0.0123604 0.0139681 0.0155819 0.0172018 0.0188278 0.0204599 0.022098 0.0237423 0.0253926 0.0270063 0.0285405 0.0299954 0.0313708 0.0326669 0.0338835 0.0350208 0.0360786 0.0370447 0.0379065 0.0386642 0.0393177 0.039867 0.0403122 0.0406531 0.0408899 0.0410339 0.0410965 0.0410777 0.0409776 0.0407962 0.0405333 0.0401891 0.0397636 0.039278 0.0387539 0.0381913 0.0375901 0.0369503 0.036272 0.0355551 0.0347996 0.0340241 0.0332468 0.0324678 0.0316871 0.0309047 0.0301207 0.0293349 0.0285474 0.0277668 0.0270017 0.026252 0.0255178 0.0247991 0.0240958 0.023408 0.0227356 0.0220781 0.0214346 0.0208051 0.0201898 0.0195885 0.0190013 0.0184282 0.0178692 0.0173197 0.0167751 0.0162355 0.0157008 0.015171 0.0146462 0.0141263 0.0136114 0.0130988 0.0125858 0.0120726 0.0115591 0.0110453 0.0105312 0.0100167 0.00950203 0.00898939 0.00848122 0.0079775 0.00747824 0.00698345 0.00649311 0.00600723 0.00552581 0.00505557 0.00460321 0.00416875 0.00375217 0.00335348 0.00297268 0.00260977 0.00226475 0.00194249 0.00164786 0.00138085 0.00114147 0.000929719 0.000745594 0.000589097 0.000460226 0.000352361 0.000258877 0.000179776 0.000115057 6.47193e-05 2.87641e-05 7.19104e-06 0 0 5.65858e-05 0.000226343 0.000509272 0.000905373 0.00141464 0.00203709 0.0027727 0.00362149 0.00459058 0.00568708 0.00691102 0.00826237 0.00974115 0.0113474 0.013081 0.014942 0.01687 0.0188044 0.0207452 0.0226924 0.024646 0.026606 0.0285725 0.0305453 0.0324741 0.0343086 0.0360486 0.0376942 0.0392454 0.0407021 0.0420645 0.0433324 0.0444912 0.0455261 0.0464372 0.0472243 0.0478876 0.048427 0.0488425 0.0491342 0.0493153 0.0493993 0.0493861 0.0492758 0.0490684 0.0487638 0.0483621 0.0478632 0.0472925 0.0466751 0.0460112 0.0453006 0.0445435 0.0437397 0.0428893 0.0419923 0.0410706 0.0401459 0.0392184 0.0382881 0.0373548 0.0364187 0.0354797 0.0345378 0.0336034 0.0326867 0.0317877 0.0309065 0.030043 0.0291972 0.0283692 0.0275589 0.0267657 0.025989 0.0252288 0.024485 0.0237577 0.0230469 0.0223525 0.0216746 0.021008 0.0203473 0.0196925 0.0190438 0.018401 0.0177641 0.0171333 0.0165084 0.0158864 0.0152644 0.0146423 0.0140202 0.0133979 0.0127756 0.0121532 0.0115308 0.010911 0.0102968 0.00968819 0.00908507 0.00848749 0.00789545 0.00730894 0.00672798 0.00616042 0.00561414 0.00508915 0.00458543 0.004103 0.00364184 0.00320197 0.00278338 0.00239193 0.00203349 0.00170804 0.00141559 0.00115614 0.000929691 0.000736242 0.000575794 0.000440842 0.000323884 0.000224919 0.000143948 8.0971e-05 3.59871e-05 8.99677e-06 0 0 6.7989e-05 0.000271956 0.000611901 0.00108782 0.00169972 0.0024476 0.00333146 0.00435129 0.00551342 0.00682415 0.00828348 0.00989142 0.011648 0.0135531 0.0156069 0.0178092 0.0200891 0.0223756 0.0246686 0.0269682 0.0292743 0.0315869 0.0339061 0.0362318 0.0385055 0.0406684 0.0427206 0.0446622 0.046493 0.0482131 0.0498225 0.0513211 0.0526918 0.0539173 0.0549974 0.0559324 0.056722 0.0573664 0.0578656 0.0582194 0.0584435 0.0585532 0.0585485 0.0584295 0.0581961 0.0578483 0.0573861 0.0568096 0.0561481 0.0554311 0.0546585 0.0538304 0.0529467 0.0520075 0.0510127 0.0499624 0.0488821 0.0477975 0.0467084 0.045615 0.0445172 0.043415 0.0423085 0.0411975 0.0400944 0.0390114 0.0379483 0.0369053 0.0358823 0.0348793 0.0338964 0.0329335 0.0319902 0.0310658 0.0301604 0.029274 0.0284066 0.0275583 0.0267289 0.0259185 0.0251211 0.0243309 0.0235478 0.0227718 0.0220029 0.0212411 0.0204864 0.0197388 0.0189949 0.0182512 0.0175078 0.0167647 0.0160217 0.0152791 0.0145366 0.0137945 0.0130558 0.0123239 0.0115987 0.0108804 0.0101688 0.00946395 0.0087659 0.00807461 0.00739919 0.00674874 0.00612325 0.00552273 0.00494717 0.00439658 0.00387096 0.0033703 0.00290156 0.00247169 0.0020807 0.00172857 0.00141532 0.00114094 0.000905433 0.000708798 0.000542673 0.000398699 0.000276874 0.0001772 9.96747e-05 4.42999e-05 1.1075e-05 0 0 8.06292e-05 0.000322517 0.000725663 0.00129007 0.00201573 0.00290265 0.00395083 0.00516027 0.00653598 0.00808298 0.00980126 0.0116908 0.0137517 0.0159838 0.0183872 0.0209619 0.0236255 0.0262956 0.0289721 0.0316552 0.0343447 0.0370407 0.0397432 0.0424522 0.0451003 0.04762 0.0500115 0.0522748 0.0544097 0.0564163 0.0582947 0.0600447 0.0616465 0.0630799 0.064345 0.0654418 0.0663703 0.0671304 0.0677223 0.0681458 0.0684186 0.0685583 0.068565 0.0684387 0.0681792 0.0677868 0.0672613 0.0666027 0.0658449 0.0650217 0.0641332 0.0631793 0.06216 0.0610754 0.0599254 0.05871 0.0574588 0.0562014 0.0549378 0.0536679 0.0523919 0.0511097 0.0498212 0.0485265 0.0472399 0.0459757 0.0447338 0.0435142 0.042317 0.0411422 0.0399897 0.0388595 0.0377514 0.0366649 0.0356001 0.0345569 0.0335354 0.0325355 0.0315573 0.0306008 0.0296592 0.028726 0.0278012 0.0268848 0.0259767 0.025077 0.0241856 0.0233026 0.0224241 0.0215462 0.0206691 0.0197926 0.0189167 0.0180415 0.017167 0.0162931 0.0154236 0.0145623 0.0137092 0.0128642 0.0120273 0.0111986 0.0103781 0.00956571 0.00877188 0.008007 0.00727105 0.00656406 0.005886 0.00523689 0.00461672 0.00402549 0.00347136 0.00296247 0.00249883 0.00208042 0.00170726 0.00137935 0.00109667 0.00085924 0.000657855 0.000483322 0.00033564 0.00021481 0.000120831 5.37025e-05 1.34256e-05 0 0 9.45066e-05 0.000378027 0.00085056 0.00151211 0.00236267 0.00340224 0.00463083 0.00604843 0.00765826 0.00946357 0.0114643 0.0136606 0.0160523 0.0186394 0.0214221 0.0244002 0.0274791 0.0305643 0.0336557 0.0367534 0.0398573 0.0429674 0.0460838 0.0492063 0.0522585 0.0551635 0.0579213 0.060532 0.0629955 0.0653119 0.0674811 0.0695032 0.0713552 0.0730141 0.07448 0.0757527 0.0768324 0.077719 0.0784126 0.0789131 0.0792404 0.0794146 0.0794355 0.0793033 0.0790179 0.0785793 0.0779875 0.0772425 0.0763828 0.0754471 0.0744353 0.0733474 0.0721834 0.0709434 0.0696272 0.068235 0.0668005 0.0653577 0.0639064 0.0624469 0.0609789 0.0595026 0.0580179 0.0565248 0.0550399 0.0535797 0.0521442 0.0507333 0.0493472 0.0479857 0.046649 0.0453369 0.0440494 0.0427863 0.0415477 0.0403336 0.0391439 0.0379786 0.0368378 0.0357215 0.0346222 0.0335327 0.0324529 0.0313828 0.0303224 0.0292718 0.0282309 0.0271998 0.026174 0.0251495 0.0241261 0.0231039 0.0220828 0.0210629 0.0200442 0.0190267 0.0180146 0.0170122 0.0160194 0.0150364 0.0140631 0.0130995 0.0121455 0.0112013 0.0102785 0.00938892 0.00853256 0.00770942 0.00691949 0.00616277 0.00543926 0.00474897 0.00410135 0.00350583 0.00296243 0.00247114 0.00203197 0.0016449 0.00130995 0.00102712 0.000786388 0.000577754 0.000401218 0.00025678 0.000144439 6.41949e-05 1.60487e-05 0 0 0.000109621 0.000438485 0.000986591 0.00175394 0.00274053 0.00394636 0.00537144 0.00701576 0.00888027 0.0109659 0.0132727 0.0158007 0.0185498 0.02152 0.0247114 0.028124 0.03165 0.0351818 0.0387194 0.0422628 0.045812 0.049367 0.0529278 0.0564943 0.0599801 0.0632987 0.0664499 0.0694338 0.0722505 0.0748998 0.0773819 0.0796966 0.081818 0.0837198 0.0854022 0.086865 0.0881084 0.0891322 0.0899366 0.0905214 0.0909091 0.091122 0.0911601 0.0910234 0.090712 0.0902258 0.0895648 0.088729 0.0877619 0.0867072 0.0855648 0.0843347 0.0830169 0.0816115 0.0801183 0.0785374 0.0769073 0.0752663 0.0736144 0.0719517 0.0702782 0.0685938 0.0668985 0.0651924 0.0634944 0.0618234 0.0601795 0.0585626 0.0569728 0.05541 0.0538743 0.0523656 0.0508842 0.0494301 0.0480034 0.0466041 0.0452322 0.0438876 0.0425704 0.0412806 0.0400101 0.0387508 0.0375027 0.0362658 0.0350401 0.0338257 0.0326224 0.0314303 0.0302447 0.0290609 0.0278789 0.0266986 0.0255201 0.0243434 0.0231684 0.0219952 0.0208286 0.0196734 0.0185296 0.0173971 0.0162761 0.0151664 0.0140682 0.0129813 0.011919 0.0108945 0.00990777 0.00895881 0.00804763 0.00717422 0.00633859 0.00554074 0.00479151 0.00410177 0.00347151 0.00290073 0.00238943 0.00193762 0.00154528 0.00121243 0.00092827 0.000681994 0.000473607 0.000303109 0.000170499 7.57772e-05 1.89443e-05 0 0 0.000125795 0.000503181 0.00113216 0.00201273 0.00314488 0.00452863 0.00616397 0.0080509 0.0101876 0.0125724 0.0152052 0.0180861 0.0212149 0.0245918 0.0282168 0.0320897 0.0360893 0.0400939 0.0441037 0.0481185 0.0521385 0.0561636 0.0601938 0.0642291 0.0681727 0.0719279 0.0754946 0.0788729 0.0820627 0.0850641 0.087877 0.0905015 0.0929081 0.0950676 0.0969798 0.0986448 0.100063 0.101233 0.102157 0.102833 0.103287 0.103543 0.103602 0.103463 0.103127 0.102593 0.101862 0.100933 0.099856 0.0986784 0.0974009 0.0960232 0.0945455 0.0929677 0.0912899 0.089512 0.0876773 0.0858288 0.0839666 0.0820907 0.0802011 0.0782978 0.0763807 0.07445 0.072527 0.0706334 0.0687691 0.0669342 0.0651285 0.0633522 0.0616052 0.0598875 0.0581997 0.0565422 0.054915 0.0533183 0.0517518 0.0502157 0.04871 0.0472346 0.0457808 0.0443397 0.0429114 0.0414959 0.0400932 0.0387032 0.037326 0.0359616 0.0346048 0.0332504 0.0318986 0.0305492 0.0292022 0.0278578 0.0265158 0.0251763 0.0238447 0.0225263 0.0212211 0.0199291 0.0186504 0.0173849 0.0161326 0.0148935 0.0136823 0.0125138 0.0113877 0.0103043 0.00926341 0.0082651 0.00730937 0.0063962 0.00553797 0.00474702 0.00402336 0.00336698 0.00277789 0.00225609 0.00180157 0.00141434 0.00108286 0.000795569 0.000552478 0.000353586 0.000198892 8.83965e-05 2.20991e-05 0 0 0.000142852 0.000571406 0.00128566 0.00228562 0.00357129 0.00514266 0.00699973 0.0091425 0.011566 0.0142654 0.0172406 0.0204916 0.0240184 0.027821 0.0318995 0.0362538 0.040748 0.0452464 0.0497489 0.0542556 0.0587664 0.0632813 0.0678003 0.0723235 0.0767435 0.0809533 0.0849527 0.0887417 0.0923204 0.0956887 0.0988467 0.101794 0.104499 0.106928 0.109081 0.110958 0.11256 0.113885 0.114935 0.11571 0.116235 0.11654 0.116624 0.116487 0.116128 0.115549 0.114749 0.113727 0.112539 0.111237 0.109823 0.108295 0.106654 0.1049 0.103033 0.101054 0.0990086 0.0969466 0.0948677 0.0927718 0.0906589 0.0885291 0.0863822 0.0842184 0.0820618 0.0799365 0.0778427 0.0757802 0.0737492 0.0717495 0.0697812 0.0678443 0.0659398 0.0640685 0.0622305 0.0604258 0.0586544 0.0569162 0.0552114 0.0535398 0.051892 0.0502587 0.0486397 0.0470351 0.045445 0.0438692 0.0423078 0.0407608 0.0392226 0.0376878 0.0361562 0.0346279 0.0331029 0.0315811 0.0300627 0.0285475 0.0270416 0.0255509 0.0240754 0.022615 0.0211699 0.0197399 0.0183251 0.0169255 0.0155573 0.0142366 0.0129635 0.0117379 0.0105598 0.00942927 0.00834627 0.0073108 0.00633683 0.00543833 0.00461529 0.0038677 0.00319559 0.00259893 0.00207774 0.001632 0.0012495 0.000918002 0.000637501 0.000408001 0.0002295 0.000102 2.55001e-05 0 0 0.00016079 0.00064316 0.00144711 0.00257264 0.00401975 0.00578844 0.0078787 0.0102906 0.0130154 0.0160449 0.0193788 0.0230172 0.0269602 0.0312076 0.0357596 0.0406161 0.0456263 0.0506393 0.0556552 0.060674 0.0656956 0.0707201 0.0757474 0.0807776 0.0856927 0.0903749 0.0948241 0.0990403 0.103023 0.106774 0.110291 0.113575 0.116591 0.119301 0.121705 0.123805 0.1256 0.127089 0.128273 0.129152 0.129755 0.130114 0.130227 0.130094 0.129716 0.129093 0.128224 0.12711 0.12581 0.124383 0.12283 0.12115 0.119343 0.117409 0.115349 0.113162 0.110901 0.10862 0.106318 0.103995 0.101652 0.0992877 0.096903 0.0944976 0.0920985 0.0897327 0.0874001 0.0851008 0.0828347 0.0806019 0.0784024 0.0762361 0.0741045 0.0720091 0.0699499 0.0679268 0.0659399 0.0639891 0.0620746 0.0601962 0.0583439 0.0565077 0.0546876 0.0528835 0.0510955 0.0493236 0.0475678 0.045828 0.0440984 0.042373 0.0406518 0.0389348 0.037222 0.0355134 0.033809 0.0321089 0.0304195 0.0287473 0.0270925 0.0254549 0.0238346 0.0222316 0.0206459 0.0190774 0.017544 0.0160632 0.0146351 0.0132596 0.0119368 0.0106667 0.00944929 0.00828453 0.00718811 0.00617569 0.00524729 0.0044029 0.00364251 0.00296614 0.00237377 0.00186541 0.00142821 0.00104929 0.000728677 0.000466353 0.000262324 0.000116588 2.91471e-05 0 0 0.00017961 0.000718441 0.00161649 0.00287376 0.00449026 0.00646597 0.0088009 0.0114951 0.0145359 0.0179108 0.0216199 0.025663 0.0300403 0.0347517 0.0397972 0.0451768 0.0507241 0.0562727 0.0618226 0.0673737 0.0729262 0.07848 0.084035 0.0895914 0.0950202 0.100193 0.105109 0.109769 0.114172 0.118319 0.12221 0.125844 0.129183 0.132186 0.134853 0.137186 0.139182 0.140843 0.142169 0.143159 0.143847 0.144263 0.144409 0.144285 0.14389 0.143225 0.142289 0.141082 0.13967 0.138117 0.136423 0.134588 0.132612 0.130494 0.128236 0.125837 0.123355 0.120848 0.118317 0.115761 0.113179 0.110574 0.107943 0.105288 0.102637 0.100022 0.0974414 0.0948958 0.0923852 0.0899095 0.0874687 0.0850628 0.0826939 0.080364 0.0780731 0.0758212 0.0736083 0.0714345 0.0692996 0.0672038 0.0651364 0.0630867 0.061055 0.059041 0.0570448 0.0550665 0.0531059 0.0511632 0.049232 0.047306 0.0453853 0.0434699 0.0415596 0.0396546 0.0377549 0.0358603 0.0339782 0.0321155 0.0302724 0.0284488 0.0266446 0.02486 0.0230948 0.0213492 0.0196423 0.0179934 0.0164024 0.0148695 0.0133945 0.0119775 0.0106184 0.00931738 0.00809178 0.00695912 0.00591937 0.00497256 0.00411867 0.00335771 0.00268968 0.00211457 0.00161897 0.00118945 0.000826004 0.000528643 0.000297362 0.000132161 3.30402e-05 0 0 0.000199313 0.000797251 0.00179382 0.003189 0.00498282 0.00717526 0.00976633 0.012756 0.0161273 0.0198633 0.0239638 0.028429 0.0332587 0.0384531 0.0440121 0.0499357 0.0560414 0.0621464 0.0682509 0.0743548 0.0804582 0.086561 0.0926632 0.0987648 0.104726 0.110407 0.115807 0.120927 0.125766 0.130325 0.134603 0.138601 0.142276 0.145584 0.148525 0.1511 0.153308 0.155149 0.156624 0.157732 0.158509 0.158989 0.159173 0.15906 0.158651 0.157945 0.156943 0.155644 0.154119 0.152438 0.150601 0.148609 0.14646 0.144156 0.141696 0.139079 0.13637 0.133632 0.130865 0.128068 0.125242 0.122387 0.119502 0.116588 0.113678 0.110804 0.107967 0.105165 0.102401 0.0996722 0.0969801 0.0943244 0.0917079 0.0891331 0.0866001 0.084109 0.0816597 0.0792522 0.0768865 0.0745626 0.0722694 0.0699959 0.0677419 0.0655076 0.0632929 0.0610977 0.0589223 0.0567664 0.0546235 0.052487 0.0503568 0.0482331 0.0461157 0.0440048 0.0419001 0.0398019 0.0377178 0.0356555 0.0336151 0.0315966 0.0295998 0.027625 0.025672 0.0237408 0.0218523 0.0200272 0.0182656 0.0165674 0.0149327 0.0133615 0.0118537 0.0104094 0.00904787 0.00778859 0.00663153 0.00557669 0.00462406 0.00377365 0.00302546 0.00237948 0.00182179 0.00133846 0.000929484 0.00059487 0.000334614 0.000148717 3.71794e-05 0 0 0.000219897 0.00087959 0.00197908 0.00351836 0.00549743 0.00791631 0.010775 0.0140734 0.0177898 0.0219022 0.0264106 0.031315 0.0366155 0.042312 0.0484045 0.054893 0.0615781 0.0682606 0.0749403 0.0816173 0.0882916 0.0949631 0.101632 0.108298 0.11481 0.121017 0.126918 0.132515 0.137805 0.142791 0.147471 0.151846 0.15587 0.159494 0.16272 0.165547 0.167976 0.170006 0.171637 0.17287 0.173742 0.174291 0.174516 0.174418 0.173997 0.173253 0.172185 0.170795 0.169157 0.167347 0.165366 0.163213 0.160889 0.158394 0.155727 0.152888 0.149947 0.146972 0.143962 0.140918 0.13784 0.134727 0.131581 0.1284 0.125221 0.122079 0.118976 0.115909 0.112881 0.10989 0.106937 0.104021 0.101146 0.0983165 0.0955311 0.0927902 0.090094 0.0874423 0.0848351 0.0822726 0.0797431 0.077235 0.0747484 0.0722833 0.0698397 0.0674175 0.0650168 0.0626375 0.0602728 0.0579158 0.0555663 0.0532245 0.0508904 0.0485638 0.0462449 0.0439336 0.0416383 0.0393673 0.0371207 0.0348983 0.0327003 0.0305266 0.0283773 0.0262522 0.0241739 0.0221647 0.0202245 0.0183535 0.0165516 0.0148188 0.0131551 0.0115605 0.0100564 0.00866413 0.00738377 0.00621529 0.00515869 0.00421396 0.00338111 0.00266014 0.00203667 0.00149633 0.00103912 0.000665035 0.000374082 0.000166259 4.15647e-05 0 0 0.000241364 0.000965456 0.00217228 0.00386183 0.0060341 0.00868911 0.0118268 0.0154473 0.019