<?xml version="1.0"?> 
<VTKFile type="StructuredGrid" version="0.1"> 
<StructuredGrid WholeExtent="0 128 0 128 0 0"> 
<Piece Extent="0 128 0 128 0 0"> 
<PointData>
<DataArray type="Float32" Name="u" format="ascii" NumberOfComponents="1"> 
0 0 0 0 0 0 0 0 0 0 0 0 0 0 0 0 0 0 0 0 0 0 0 0 0 0 0 0 0 0 0 0 0 0 0 0 0 0 0 0 0 0 0 0 0 0 0 0 0 0 0 0 0 0 0 0 0 0 0 0 0 0 0 0 0 0 0 0 0 0 0 0 0 0 0 0 0 0 0 0 0 0 0 0 0 0 0 0 0 0 0 0 0 0 0 0 0 0 0 0 0 0 0 0 0 0 0 0 0 0 0 0 0 0 0 0 0 0 0 0 0 0 0 0 0 0 0 0 0 0 1.9721e-06 7.8884e-06 1.77489e-05 3.15536e-05 4.93025e-05 7.09956e-05 9.66329e-05 0.000126214 0.000159859 0.000197684 0.00023969 0.000285877 0.000336245 0.000390794 0.000449524 0.000512435 0.00057738 0.000642211 0.000706927 0.00077153 0.000836018 0.000900393 0.000964653 0.0010288 0.00109119 0.0011502 0.00120581 0.00125803 0.00130685 0.00135229 0.00139434 0.00143299 0.00146783 0.00149845 0.00152483 0.00154698 0.00156491 0.0015786 0.00158806 0.00159329 0.00159474 0.00159284 0.00158759 0.00157899 0.00156705 0.00155176 0.00153313 0.00151115 0.00148661 0.00146031 0.00143225 0.00140242 0.00137083 0.00133748 0.00130236 0.00126548 0.00122757 0.00118939 0.00115092 0.00111216 0.00107313 0.00103381 0.000994203 0.000954317 0.000914632 0.000875631 0.000837315 0.000799684 0.000762737 0.000726476 0.000690899 0.000656007 0.000621994 0.000589055 0.000557191 0.0005264 0.000496684 0.000468042 0.000440474 0.00041398 0.000388542 0.000364142 0.000340781 0.000318458 0.000297174 0.000276928 0.000257721 0.000239551 0.000222307 0.000205873 0.000190249 0.000175436 0.000161434 0.000148243 0.000135862 0.000124292 0.000113419 0.00010313 9.34255e-05 8.43051e-05 7.57688e-05 6.78166e-05 6.04486e-05 5.36647e-05 4.73939e-05 4.15653e-05 3.61788e-05 3.12345e-05 2.67323e-05 2.26723e-05 1.90543e-05 1.58786e-05 1.30768e-05 1.0581e-05 8.39105e-06 6.50701e-06 4.92888e-06 3.65665e-06 2.69032e-06 2.02989e-06 1.55414e-06 1.14182e-06 7.92927e-07 5.07474e-07 2.85454e-07 1.26868e-07 3.17171e-08 0 0 7.8884e-06 3.15536e-05 7.09956e-05 0.000126214 0.00019721 0.000283982 0.000386532 0.000504858 0.000639434 0.000790735 0.000958759 0.00114351 0.00134498 0.00156318 0.0017981 0.00204974 0.00230952 0.00256884 0.00282771 0.00308612 0.00334407 0.00360157 0.00385861 0.0041152 0.00436477 0.00460078 0.00482323 0.00503211 0.00522742 0.00540917 0.00557735 0.00573196 0.00587134 0.00599379 0.00609932 0.00618793 0.00625963 0.0063144 0.00635225 0.00637318 0.00637895 0.00637134 0.00635035 0.00631597 0.0062682 0.00620705 0.00613251 0.00604458 0.00594644 0.00584124 0.00572899 0.00560968 0.00548332 0.00534991 0.00520944 0.00506191 0.0049103 0.00475755 0.00460367 0.00444865 0.00429251 0.00413523 0.00397681 0.00381727 0.00365853 0.00350252 0.00334926 0.00319873 0.00305095 0.0029059 0.0027636 0.00262403 0.00248798 0.00235622 0.00222876 0.0021056 0.00198674 0.00187217 0.00176189 0.00165592 0.00155417 0.00145657 0.00136312 0.00127383 0.0011887 0.00110771 0.00103088 0.000958205 0.000889226 0.00082349 0.000760996 0.000701745 0.000645737 0.000592971 0.000543447 0.000497166 0.000453675 0.00041252 0.000373702 0.00033722 0.000303075 0.000271266 0.000241794 0.000214659 0.000189576 0.000166261 0.000144715 0.000124938 0.000106929 9.0689e-05 7.62174e-05 6.35143e-05 5.23073e-05 4.2324e-05 3.35642e-05 2.6028e-05 1.97155e-05 1.46266e-05 1.07613e-05 8.11958e-06 6.21655e-06 4.56726e-06 3.17171e-06 2.02989e-06 1.14182e-06 5.07474e-07 1.26868e-07 0 0 1.77489e-05 7.09956e-05 0.00015974 0.000283982 0.000443723 0.00063896 0.000869696 0.00113593 0.00143873 0.00177915 0.00215721 0.00257289 0.0030262 0.00351715 0.00404572 0.00461192 0.00519642 0.0057799 0.00636234 0.00694377 0.00752416 0.00810353 0.00868188 0.0092592 0.00982074 0.0103518 0.0108523 0.0113222 0.0117617 0.0121706 0.012549 0.0128969 0.0132105 0.013486 0.0137235 0.0139229 0.0140842 0.0142074 0.0142926 0.0143396 0.0143526 0.0143355 0.0142883 0.0142109 0.0141034 0.0139659 0.0137981 0.0136003 0.0133795 0.0131428 0.0128902 0.0126218 0.0123375 0.0120373 0.0117212 0.0113893 0.0110482 0.0107045 0.0103583 0.0100095 0.00965814 0.00930426 0.00894783 0.00858885 0.00823168 0.00788068 0.00753583 0.00719715 0.00686464 0.00653828 0.00621809 0.00590406 0.00559795 0.0053015 0.00501472 0.0047376 0.00447016 0.00421238 0.00396426 0.00372582 0.00349688 0.00327728 0.00306703 0.00286613 0.00267457 0.00249235 0.00231948 0.00215596 0.00200076 0.00185285 0.00171224 0.00157893 0.00145291 0.00133418 0.00122276 0.00111862 0.00102077 0.000928171 0.000840829 0.000758745 0.000681919 0.000610349 0.000544037 0.000482982 0.000426545 0.000374088 0.000325609 0.00028111 0.000240591 0.00020405 0.000171489 0.000142907 0.000117691 9.52289e-05 7.55194e-05 5.85631e-05 4.43599e-05 3.29098e-05 2.42129e-05 1.8269e-05 1.39872e-05 1.02763e-05 7.13635e-06 4.56726e-06 2.56908e-06 1.14182e-06 2.85454e-07 0 0 3.15536e-05 0.000126214 0.000283982 0.000504858 0.00078884 0.00113593 0.00154613 0.00201943 0.00255774 0.00316294 0.00383504 0.00457403 0.00537992 0.00625271 0.00719239 0.00819897 0.00923808 0.0102754 0.0113108 0.0123445 0.0133763 0.0144063 0.0154345 0.0164608 0.0174591 0.0184031 0.0192929 0.0201284 0.0209097 0.0216367 0.0223094 0.0229279 0.0234854 0.0239752 0.0243973 0.0247517 0.0250385 0.0252576 0.025409 0.0254927 0.0255158 0.0254854 0.0254014 0.0252639 0.0250728 0.0248282 0.02453 0.0241783 0.0237858 0.023365 0.022916 0.0224387 0.0219333 0.0213996 0.0208377 0.0202477 0.0196412 0.0190302 0.0184147 0.0177946 0.01717 0.0165409 0.0159073 0.0152691 0.0146341 0.0140101 0.013397 0.0127949 0.0122038 0.0116236 0.0110544 0.0104961 0.0099519 0.00942489 0.00891505 0.00842241 0.00794695 0.00748867 0.00704758 0.00662367 0.00621667 0.00582628 0.0054525 0.00509533 0.00475478 0.00443085 0.00412353 0.00383282 0.00355691 0.00329396 0.00304399 0.00280698 0.00258295 0.00237188 0.00217379 0.00198867 0.0018147 0.00165008 0.00149481 0.00134888 0.0012123 0.00108507 0.000967177 0.000858635 0.000758303 0.000665045 0.000578861 0.000499752 0.000427717 0.000362756 0.00030487 0.000254057 0.000209229 0.000169296 0.000134257 0.000104112 7.8862e-05 5.85064e-05 4.30451e-05 3.24783e-05 2.48662e-05 1.8269e-05 1.26868e-05 8.11958e-06 4.56726e-06 2.02989e-06 5.07474e-07 0 0 4.93025e-05 0.00019721 0.000443723 0.00078884 0.00123256 0.00177489 0.00241582 0.00315536 0.00399646 0.00494209 0.00599224 0.00714692 0.00840612 0.00976985 0.0112381 0.0128109 0.0144345 0.0160553 0.0176732 0.0192882 0.0209005 0.0225098 0.0241163 0.02572 0.0272798 0.0287549 0.0301452 0.0314507 0.0326714 0.0338073 0.0348584 0.0358248 0.0366959 0.0374612 0.0381208 0.0386746 0.0391227 0.039465 0.0397015 0.0398323 0.0398684 0.0398209 0.0396897 0.0394748 0.0391762 0.038794 0.0383282 0.0377786 0.0371652 0.0365078 0.0358062 0.0350605 0.0342708 0.0334369 0.032559 0.031637 0.0306894 0.0297347 0.0287729 0.0278041 0.0268282 0.0258452 0.0248551 0.0238579 0.0228658 0.0218908 0.0209329 0.0199921 0.0190684 0.0181619 0.0172725 0.0164002 0.0155498 0.0147264 0.0139298 0.01316 0.0124171 0.011701 0.0110118 0.0103495 0.00971354 0.00910356 0.00851953 0.00796146 0.00742935 0.0069232 0.00644301 0.00598878 0.00555767 0.00514681 0.00475623 0.00438591 0.00403585 0.00370607 0.00339655 0.00310729 0.00283547 0.00257825 0.00233564 0.00210763 0.00189422 0.00169541 0.00151121 0.00134162 0.00118485 0.00103913 0.000904471 0.000780862 0.000668308 0.000566806 0.000476359 0.000396964 0.000326921 0.000264525 0.000209776 0.000162675 0.000123222 9.14162e-05 6.7258e-05 5.07474e-05 3.88534e-05 2.85454e-05 1.98232e-05 1.26868e-05 7.13635e-06 3.17171e-06 7.92927e-07 0 0 7.09956e-05 0.000283982 0.00063896 0.00113593 0.00177489 0.00255584 0.00347878 0.00454372 0.00575491 0.00711661 0.00862883 0.0102916 0.0121048 0.0140686 0.0161829 0.0184477 0.0207857 0.0231196 0.0254494 0.0277751 0.0300967 0.0324141 0.0347275 0.0370368 0.039283 0.041407 0.043409 0.0452889 0.0470468 0.0486825 0.0501961 0.0515877 0.052842 0.0539441 0.0548939 0.0556914 0.0563366 0.0568296 0.0571702 0.0573586 0.0574106 0.0573421 0.0571531 0.0568437 0.0564138 0.0558634 0.0551926 0.0544012 0.053518 0.0525712 0.0515609 0.0504871 0.0493499 0.0481492 0.0468849 0.0455572 0.0441927 0.0428179 0.041433 0.0400379 0.0386325 0.037217 0.0357913 0.0343554 0.0329267 0.0315227 0.0301433 0.0287886 0.0274585 0.0261531 0.0248724 0.0236162 0.0223918 0.021206 0.0200589 0.0189504 0.0178806 0.0168495 0.0158571 0.0149033 0.0139875 0.0131091 0.0122681 0.0114645 0.0106983 0.00996941 0.00927794 0.00862385 0.00800304 0.00741141 0.00684897 0.00631571 0.00581163 0.00533674 0.00489103 0.0044745 0.00408308 0.00371268 0.00336332 0.00303498 0.00272768 0.0024414 0.00217615 0.00193193 0.00170618 0.00149635 0.00130244 0.00112444 0.000962363 0.000816201 0.000685956 0.000571629 0.000470766 0.000380916 0.000302078 0.000234252 0.00017744 0.000131639 9.68515e-05 7.30762e-05 5.5949e-05 4.11054e-05 2.85454e-05 1.8269e-05 1.02763e-05 4.56726e-06 1.14182e-06 0 0 9.66329e-05 0.000386532 0.000869696 0.00154613 0.00241582 0.00347878 0.00473501 0.00618451 0.00783307 0.0096865 0.0117448 0.014008 0.016476 0.0191489 0.0220267 0.0251093 0.0282916 0.0314683 0.0346394 0.037805 0.0409649 0.0441192 0.047268 0.0504112 0.0534685 0.0563596 0.0590845 0.0616433 0.0640359 0.0662623 0.0683225 0.0702166 0.0719239 0.0734239 0.0747167 0.0758022 0.0766804 0.0773514 0.077815 0.0780714 0.0781422 0.0780489 0.0777917 0.0773706 0.0767854 0.0760363 0.0751232 0.0740461 0.0728439 0.0715552 0.0701801 0.0687186 0.0671707 0.0655364 0.0638156 0.0620085 0.0601511 0.05828 0.0563949 0.054496 0.0525832 0.0506565 0.048716 0.0467615 0.0448169 0.0429059 0.0410284 0.0391845 0.0373741 0.0355973 0.033854 0.0321443 0.0304777 0.0288637 0.0273024 0.0257936 0.0243375 0.022934 0.0215832 0.020285 0.0190385 0.017843 0.0166983 0.0156045 0.0145615 0.0135695 0.0126283 0.011738 0.010893 0.0100878 0.00932221 0.00859638 0.00791028 0.00726389 0.00665723 0.00609029 0.00555752 0.00505337 0.00457785 0.00413095 0.00371267 0.00332301 0.00296198 0.00262957 0.0023223 0.0020367 0.00177276 0.00153049 0.00130988 0.00111094 0.000933663 0.00077805 0.000640765 0.000518468 0.000411161 0.000318844 0.000241515 0.000179176 0.000131826 9.94648e-05 7.61528e-05 5.5949e-05 3.88534e-05 2.48662e-05 1.39872e-05 6.21655e-06 1.55414e-06 0 0 0.000126214 0.000504858 0.00113593 0.00201943 0.00315536 0.00454372 0.00618451 0.00807772 0.0102309 0.0126518 0.0153401 0.0182961 0.0215197 0.0250108 0.0287696 0.0327959 0.0369523 0.0411015 0.0452433 0.0493779 0.0535052 0.0576251 0.0617378 0.0658432 0.0698364 0.0736125 0.0771716 0.0805137 0.0836387 0.0865467 0.0892376 0.0917114 0.0939414 0.0959007 0.0975892 0.099007 0.100154 0.10103 0.101636 0.101971 0.102063 0.101941 0.101606 0.101055 0.100291 0.0993127 0.0981201 0.0967133 0.095143 0.0934599 0.0916638 0.0897549 0.0877331 0.0855985 0.083351 0.0809906 0.0785648 0.0761208 0.0736587 0.0711784 0.0686801 0.0661636 0.063629 0.0610763 0.0585364 0.0560404 0.0535882 0.0511798 0.0488152 0.0464944 0.0442175 0.0419844 0.0398076 0.0376995 0.0356602 0.0336896 0.0317878 0.0299547 0.0281903 0.0264947 0.0248667 0.0233051 0.02181 0.0203813 0.0190191 0.0177234 0.0164941 0.0153313 0.0142276 0.0131758 0.0121759 0.0112279 0.0103318 0.00948753 0.00869516 0.00795466 0.0072588 0.00660032 0.00597923 0.00539552 0.0048492 0.00434026 0.00386871 0.00343454 0.00303321 0.00266018 0.00231544 0.00199901 0.00171087 0.00145102 0.00121948 0.00101623 0.000836917 0.000677183 0.000537027 0.000416449 0.000315448 0.000234025 0.00017218 0.000129913 9.94648e-05 7.30762e-05 5.07474e-05 3.24783e-05 1.8269e-05 8.11958e-06 2.02989e-06 0 0 0.000160317 0.000641268 0.00144285 0.00256507 0.00400793 0.00577141 0.00785553 0.0102603 0.012994 0.0160648 0.0194729 0.0232182 0.0273006 0.0317203 0.0364772 0.0415712 0.0468289 0.0520767 0.0573147 0.0625427 0.0677609 0.0729691 0.0781675 0.083356 0.0884024 0.0931747 0.0976729 0.101897 0.105847 0.109522 0.112924 0.116051 0.118871 0.121348 0.123484 0.125278 0.12673 0.12784 0.128608 0.129035 0.129155 0.129005 0.128584 0.127893 0.126931 0.125698 0.124195 0.122422 0.120441 0.118318 0.116052 0.113643 0.111091 0.108397 0.105559 0.102579 0.0995155 0.0964287 0.0933186 0.0901852 0.0870284 0.0838483 0.0806449 0.0774182 0.0742073 0.0710514 0.0679505 0.0649046 0.0619137 0.0589777 0.0560968 0.0532709 0.0505158 0.0478474 0.0452656 0.0427705 0.0403621 0.0380403 0.0358052 0.0336568 0.0315937 0.0296146 0.0277195 0.0259083 0.0241811 0.0225379 0.0209787 0.0195034 0.018103 0.0167683 0.0154992 0.0142959 0.0131582 0.0120862 0.0110798 0.0101392 0.00925508 0.00841835 0.00762901 0.00688706 0.00619249 0.00554531 0.00494551 0.0043931 0.00388232 0.00340739 0.00296832 0.00256511 0.00219776 0.00186626 0.00157063 0.00131085 0.00108144 0.000876891 0.000697205 0.000542383 0.000412426 0.000307332 0.000227102 0.000171736 0.000131485 9.66014e-05 6.70843e-05 4.2934e-05 2.41503e-05 1.07335e-05 2.68337e-06 0 0 0.000199518 0.000798071 0.00179566 0.00319228 0.00498794 0.00718264 0.00977637 0.0127691 0.0161675 0.0199782 0.0242011 0.0288362 0.0338836 0.0393433 0.0452152 0.0514993 0.0579826 0.0644518 0.070907 0.0773482 0.0837754 0.0901886 0.0965877 0.102973 0.109182 0.115055 0.120591 0.12579 0.130651 0.135176 0.139364 0.143215 0.146688 0.149741 0.152374 0.154587 0.15638 0.157754 0.158708 0.159242 0.1594 0.159225 0.158717 0.157877 0.156705 0.155199 0.153361 0.15119 0.148765 0.146163 0.143385 0.140431 0.1373 0.133993 0.130509 0.126849 0.123085 0.119292 0.115469 0.111616 0.107733 0.103821 0.0998782 0.0959058 0.0919517 0.0880643 0.0842434 0.0804892 0.0768015 0.0731804 0.069626 0.0661381 0.0627365 0.0594411 0.0562517 0.0531683 0.0501911 0.04732 0.0445549 0.0418959 0.0393416 0.0368906 0.0345429 0.0322985 0.0301575 0.0281198 0.0261854 0.0243543 0.0226154 0.0209577 0.0193812 0.0178857 0.0164714 0.0151383 0.0138863 0.0127154 0.0116145 0.0105723 0.00958874 0.0086639 0.00779776 0.00699031 0.00624157 0.00555152 0.00491303 0.00431892 0.00376922 0.00326391 0.00280299 0.00238647 0.00201435 0.00168662 0.00139655 0.00113742 0.000909226 0.000711963 0.000545633 0.000410238 0.000305775 0.000232247 0.000177814 0.000130639 9.07215e-05 5.80617e-05 3.26597e-05 1.45154e-05 3.62886e-06 0 0 0.000243816 0.000975265 0.00219435 0.00390106 0.00609541 0.00877739 0.011947 0.0156042 0.0197517 0.0243918 0.0295247 0.0351504 0.0412687 0.0478798 0.0549836 0.0625802 0.0704133 0.0782267 0.0860204 0.0937944 0.101549 0.109283 0.116998 0.124694 0.132176 0.139254 0.145926 0.152192 0.158053 0.163508 0.168558 0.173203 0.177393 0.181078 0.184258 0.186934 0.189105 0.190772 0.191934 0.192591 0.192796 0.192601 0.192005 0.191009 0.189612 0.187815 0.185617 0.183019 0.180114 0.176996 0.173663 0.170118 0.166359 0.162386 0.1582 0.1538 0.149274 0.144711 0.14011 0.135472 0.130795 0.126081 0.121329 0.116539 0.11177 0.107079 0.102467 0.0979335 0.0934787 0.0891025 0.0848049 0.080586 0.0764698 0.0724806 0.0686184 0.0648831 0.0612748 0.0577935 0.0544392 0.0512118 0.0481102 0.045133 0.0422803 0.039552 0.0369483 0.034469 0.0321142 0.0298838 0.0277649 0.0257441 0.0238217 0.0219975 0.0202716 0.0186439 0.0171146 0.0156834 0.0143371 0.0130621 0.0118584 0.010726 0.009665 0.00867528 0.00775688 0.00690981 0.00612534 0.00539479 0.00471814 0.0040954 0.00352657 0.00301164 0.00255063 0.00214352 0.00178225 0.00145878 0.00117309 0.000925187 0.000715072 0.000542743 0.000408202 0.000311447 0.000238451 0.000175189 0.000121659 7.78616e-05 4.37972e-05 1.94654e-05 4.86635e-06 0 0 0.000293213 0.00117285 0.00263892 0.00469141 0.00733032 0.0105557 0.0143674 0.0187656 0.0237464 0.0293058 0.0354438 0.0421605 0.0494558 0.0573299 0.0657825 0.0748138 0.084121 0.0934013 0.102655 0.111881 0.121081 0.130254 0.1394 0.148519 0.157384 0.165771 0.173677 0.181104 0.188051 0.194519 0.200507 0.206015 0.210985 0.215359 0.219137 0.222319 0.224905 0.226894 0.228287 0.229084 0.229346 0.229133 0.228447 0.227287 0.225653 0.223546 0.220964 0.217908 0.214488 0.210814 0.206886 0.202704 0.198267 0.193577 0.188632 0.183432 0.178083 0.172686 0.167242 0.161751 0.156213 0.150629 0.144997 0.139318 0.133661 0.128096 0.122621 0.117238 0.111945 0.106744 0.101634 0.0966146 0.0917156 0.086966 0.0823658 0.0779149 0.0736133 0.0694611 0.0654582 0.0616047 0.0578996 0.0543419 0.0509316 0.0476688 0.0445535 0.0415855 0.0387651 0.036092 0.0335513 0.0311275 0.0288208 0.0266312 0.0245586 0.0226031 0.0207646 0.0190431 0.0174228 0.0158878 0.014438 0.0130735 0.0117942 0.0106002 0.00949145 0.00846794 0.00751926 0.00663498 0.00581509 0.00505959 0.00436849 0.00374178 0.00317947 0.00268155 0.00223854 0.00184096 0.0014888 0.00118206 0.000920741 0.000704849 0.00053438 0.000409335 0.000313397 0.000230251 0.000159896 0.000102334 5.75627e-05 2.55834e-05 6.39586e-06 0 0 0.000347708 0.00139083 0.00312937 0.00556332 0.00869269 0.0125175 0.0170377 0.0222533 0.0281516 0.03472 0.0419583 0.0498667 0.058445 0.0676934 0.0776118 0.0882002 0.0991058 0.109976 0.12081 0.131609 0.142372 0.153099 0.163791 0.174448 0.184806 0.194605 0.203845 0.212525 0.220646 0.228207 0.235209 0.241651 0.247466 0.252586 0.257012 0.260742 0.263779 0.26612 0.267767 0.268719 0.269047 0.268822 0.268044 0.266713 0.264829 0.262391 0.259401 0.255857 0.251888 0.24762 0.243054 0.238189 0.233026 0.227565 0.221805 0.215746 0.20951 0.203216 0.196864 0.190455 0.183988 0.177464 0.170882 0.164243 0.157626 0.151114 0.144706 0.138402 0.132201 0.126105 0.120112 0.114224 0.108474 0.102897 0.0974938 0.0922636 0.0872065 0.0823226 0.0776119 0.0730745 0.0687097 0.0645172 0.0604969 0.0566489 0.052973 0.0494694 0.0461381 0.042979 0.0399747 0.0371079 0.0343786 0.0317868 0.0293325 0.0270157 0.0248364 0.0227946 0.0208717 0.0190494 0.0173276 0.0157063 0.0141854 0.0127651 0.0114453 0.0102259 0.00909479 0.0080395 0.00706006 0.00615648 0.00532876 0.00457689 0.00390088 0.00330073 0.00276542 0.00228396 0.00185634 0.00148257 0.00116264 0.000896554 0.000684311 0.000525911 0.000402651 0.000295825 0.000205434 0.000131478 7.39563e-05 3.28695e-05 8.21737e-06 0 0 0.0004073 0.0016292 0.0036657 0.00651681 0.0101825 0.0146628 0.0199577 0.0260672 0.0329674 0.0406344 0.0490683 0.0582689 0.0682363 0.0789705 0.0904716 0.102739 0.115368 0.12795 0.140487 0.152977 0.165422 0.177821 0.190174 0.202481 0.214442 0.225759 0.23643 0.246456 0.255837 0.264574 0.272665 0.280111 0.286834 0.292757 0.297881 0.302204 0.305727 0.308451 0.310374 0.311497 0.311901 0.311667 0.310796 0.309286 0.307138 0.304352 0.300929 0.296867 0.292313 0.287413 0.282167 0.276574 0.270635 0.26435 0.257719 0.250742 0.243556 0.236301 0.228977 0.221583 0.21412 0.206587 0.198985 0.191313 0.183665 0.176135 0.168721 0.161425 0.154246 0.147185 0.140241 0.133414 0.126745 0.120274 0.114003 0.107929 0.102054 0.0963781 0.0909004 0.0856212 0.0805407 0.075659 0.0709762 0.0664922 0.062207 0.0581207 0.0542332 0.0505445 0.0470351 0.0436853 0.040495 0.0374644 0.0345933 0.0318819 0.02933 0.0269377 0.0246838 0.0225469 0.0205271 0.0186243 0.0168386 0.0151699 0.0136183 0.0121838 0.0108519 0.00960835 0.00845306 0.00738607 0.00640737 0.00551696 0.00471485 0.00400104 0.00336289 0.00278779 0.00227574 0.00182673 0.00144077 0.00111786 0.000857994 0.000661177 0.000506213 0.000371912 0.000258272 0.000165294 9.2978e-05 4.13235e-05 1.03309e-05 0 0 0.000471991 0.00188796 0.00424792 0.00755186 0.0117998 0.0169917 0.0231276 0.0302074 0.0381938 0.0470492 0.0567737 0.0673671 0.0788296 0.0911612 0.104362 0.118431 0.132907 0.147324 0.161684 0.175986 0.190231 0.204417 0.218546 0.232618 0.246292 0.25923 0.271432 0.282897 0.293626 0.303618 0.312875 0.321394 0.32909 0.335873 0.341745 0.346704 0.35075 0.353885 0.356107 0.357418 0.357907 0.357669 0.356701 0.355006 0.352581 0.349428 0.345547 0.340936 0.335763 0.330192 0.324224 0.317858 0.311094 0.303933 0.296375 0.288418 0.280222 0.271942 0.26358 0.255136 0.246608 0.237998 0.229305 0.220529 0.211777 0.203157 0.194667 0.186309 0.178081 0.169985 0.162019 0.154185 0.146528 0.139097 0.131892 0.124912 0.118157 0.111628 0.105323 0.0992448 0.0933924 0.0877673 0.0823694 0.0771988 0.0722554 0.0675393 0.0630504 0.0587888 0.0547325 0.0508596 0.04717 0.0436638 0.040341 0.0372015 0.0342454 0.0314726 0.028859 0.0263803 0.0240365 0.0218277 0.0197538 0.0178148 0.0160107 0.0143415 0.0127907 0.0113415 0.00999408 0.00874835 0.00760432 0.006562 0.00562139 0.00478248 0.00403094 0.00335244 0.00274697 0.00221453 0.00175513 0.00136876 0.00105543 0.00081513 0.000624084 0.000458511 0.00031841 0.000203783 0.000114628 5.09457e-05 1.27364e-05 0 0 0.00054178 0.00216712 0.00487602 0.00866848 0.0135445 0.0195041 0.0265472 0.0346739 0.0438307 0.0539643 0.0650745 0.0771614 0.090225 0.104265 0.119282 0.135276 0.151723 0.168098 0.184402 0.200636 0.216798 0.232889 0.24891 0.264859 0.280356 0.295019 0.30885 0.321847 0.334011 0.345341 0.355838 0.365502 0.374234 0.381934 0.388604 0.394241 0.398848 0.402424 0.404968 0.406481 0.407066 0.406826 0.405762 0.403872 0.401158 0.397619 0.393255 0.388066 0.382239 0.375959 0.369226 0.362041 0.354404 0.346314 0.337771 0.328776 0.319506 0.310139 0.300674 0.291112 0.281453 0.271696 0.261842 0.251891 0.241963 0.232181 0.222544 0.213052 0.203705 0.194504 0.185447 0.176536 0.167824 0.159366 0.151162 0.143211 0.135514 0.128071 0.120881 0.113945 0.107265 0.100842 0.0946765 0.0887686 0.0831182 0.0777252 0.0725897 0.0677118 0.0630669 0.0586309 0.0544037 0.0503852 0.0465755 0.0429746 0.0395825 0.0363992 0.0333974 0.0305496 0.0278559 0.0253164 0.0229309 0.0206995 0.0186223 0.0166991 0.014911 0.013239 0.0116831 0.0102433 0.00891963 0.00771201 0.00662049 0.00564507 0.00476959 0.00397791 0.00327005 0.00264598 0.00210572 0.00164927 0.00127662 0.000987773 0.000756264 0.000555622 0.000385849 0.000246943 0.000138906 6.17358e-05 1.54339e-05 0 0 0.000615179 0.00246072 0.00553661 0.00984286 0.0153795 0.0221464 0.0301438 0.0393715 0.0497582 0.0612327 0.0737951 0.0874451 0.102183 0.118009 0.134922 0.152923 0.171425 0.189841 0.208171 0.226415 0.244573 0.262645 0.28063 0.29853 0.31592 0.332375 0.347896 0.362484 0.376137 0.388856 0.400641 0.411492 0.421298 0.429951 0.437449 0.443793 0.448983 0.453019 0.4559 0.457627 0.458315 0.458079 0.456918 0.454833 0.451824 0.44789 0.443032 0.43725 0.43075 0.423742 0.416223 0.408195 0.399657 0.390609 0.381052 0.370985 0.360607 0.350115 0.339511 0.328793 0.317962 0.307018 0.29596 0.28479 0.273642 0.262654 0.251824 0.241154 0.230644 0.220292 0.2101 0.200066 0.190254 0.180724 0.171477 0.162513 0.153831 0.145432 0.137315 0.129481 0.121933 0.114673 0.107703 0.101021 0.094628 0.0885237 0.0827083 0.0771817 0.0719171 0.0668878 0.0620939 0.0575353 0.0532121 0.0491241 0.0452715 0.0416542 0.0382417 0.0350034 0.0319393 0.0290494 0.0263337 0.0237922 0.021425 0.0192319 0.0171915 0.0152824 0.0135044 0.0118576 0.010342 0.00895765 0.00770446 0.00658246 0.00557368 0.00466012 0.00384178 0.00311867 0.00249078 0.00195811 0.00152066 0.00117844 0.000902244 0.000662873 0.000460329 0.00029461 0.000165718 7.36526e-05 1.84131e-05 0 0 0.000690701 0.0027628 0.00621631 0.0110512 0.0172675 0.0248652 0.0338443 0.0442049 0.0558562 0.0687078 0.0827597 0.0980118 0.114464 0.132117 0.15097 0.171023 0.191625 0.212124 0.23252 0.252813 0.273004 0.293091 0.313076 0.332958 0.352269 0.370544 0.387783 0.403984 0.419148 0.433276 0.446366 0.45842 0.469316 0.478934 0.487274 0.494335 0.500118 0.504622 0.507848 0.509796 0.510592 0.510364 0.509111 0.506834 0.503533 0.499207 0.493856 0.487481 0.48031 0.472571 0.464264 0.455389 0.445947 0.435937 0.42536 0.414214 0.40272 0.391096 0.379341 0.367456 0.355442 0.343297 0.331022 0.318617 0.306233 0.294022 0.281983 0.270116 0.258422 0.2469 0.23555 0.224373 0.213438 0.202814 0.192502 0.182501 0.172811 0.163433 0.154366 0.145611 0.137171 0.129052 0.121254 0.113775 0.106617 0.0997801 0.0932632 0.0870667 0.0811617 0.0755191 0.0701389 0.0650211 0.0601658 0.0555729 0.0512424 0.0471743 0.0433349 0.0396904 0.0362407 0.0329859 0.029926 0.0270609 0.0243907 0.0219154 0.0196108 0.0174531 0.0154421 0.0135778 0.0118603 0.0102896 0.00886558 0.00758835 0.00643808 0.00539496 0.00445899 0.00363018 0.00290852 0.00229402 0.00178667 0.00138647 0.00106152 0.000779891 0.000541591 0.000346618 0.000194973 8.66546e-05 2.16636e-05 0 0 0.000768345 0.00307338 0.00691511 0.0122935 0.0192086 0.0276604 0.0376489 0.0491741 0.0621247 0.0763895 0.0919684 0.108861 0.127069 0.14659 0.167426 0.189575 0.212321 0.234946 0.257449 0.27983 0.30209 0.324229 0.346246 0.368141 0.389406 0.409528 0.428509 0.446348 0.463045 0.478601 0.493015 0.506288 0.518288 0.528884 0.538077 0.545866 0.552252 0.557234 0.560812 0.562987 0.563897 0.563682 0.562342 0.559876 0.556285 0.551568 0.545727 0.538759 0.530916 0.522446 0.513349 0.503625 0.493275 0.482298 0.470694 0.458464 0.445846 0.43308 0.420166 0.407103 0.393893 0.380534 0.367028 0.353373 0.339737 0.326285 0.313019 0.299937 0.28704 0.274327 0.2618 0.249457 0.237377 0.225637 0.214236 0.203176 0.192456 0.182075 0.172035 0.162334 0.15298 0.143978 0.135329 0.127031 0.119087 0.111494 0.104254 0.097367 0.0908007 0.0845245 0.0785384 0.0728425 0.0674366 0.0623208 0.0574951 0.0529594 0.0486769 0.0446105 0.0407601 0.0371258 0.0337076 0.0305055 0.0275194 0.0247495 0.0221689 0.0197511 0.0174961 0.0154039 0.0134745 0.0117078 0.0101039 0.00866273 0.00736278 0.00618243 0.00512168 0.00418052 0.00335896 0.002657 0.00207464 0.00161187 0.00123409 0.000906677 0.000629637 0.000402967 0.000226669 0.000100742 2.51855e-05 0 0 0.000848112 0.00339245 0.00763301 0.0135698 0.0212028 0.030532 0.0415575 0.0542792 0.0685637 0.0842777 0.101421 0.119994 0.139996 0.161428 0.184289 0.20858 0.233514 0.258307 0.282957 0.307466 0.331833 0.356058 0.380141 0.404082 0.427328 0.449325 0.470074 0.489575 0.507828 0.524832 0.540587 0.555094 0.568212 0.579801 0.589859 0.598387 0.605385 0.610854 0.614792 0.6172 0.61823 0.618033 0.61661 0.613959 0.610081 0.604976 0.598644 0.591085 0.582569 0.573367 0.563478 0.552903 0.54164 0.529691 0.517056 0.503733 0.489984 0.476068 0.461984 0.447733 0.433315 0.41873 0.403978 0.389058 0.374153 0.359444 0.344932 0.330616 0.316497 0.302574 0.288848 0.275318 0.26207 0.249191 0.23668 0.224538 0.212764 0.201358 0.190321 0.179652 0.169359 0.159451 0.149928 0.140789 0.132036 0.123667 0.115682 0.108082 0.100834 0.0939043 0.0872927 0.0809994 0.0750245 0.0693679 0.0640296 0.0590096 0.0542678 0.0497637 0.0454975 0.0414692 0.0376786 0.034126 0.0308112 0.0277342 0.0248657 0.0221766 0.0196666 0.0173359 0.0151845 0.0132123 0.0114193 0.0098056 0.00834779 0.00702254 0.00582983 0.00476969 0.00384209 0.00304705 0.00238456 0.00185463 0.00141995 0.00104323 0.000724465 0.000463657 0.000260807 0.000115914 2.89786e-05 0 0 0.000930002 0.00372001 0.00837002 0.01488 0.0232501 0.0334801 0.0455701 0.0595201 0.0751732 0.0923725 0.111118 0.131409 0.153247 0.176631 0.201561 0.228037 0.255204 0.282207 0.309046 0.335721 0.362231 0.388578 0.41476 0.440778 0.466036 0.489937 0.51248 0.533666 0.553495 0.571967 0.589082 0.60484 0.619091 0.631684 0.642619 0.651898 0.659518 0.665482 0.669788 0.672436 0.673592 0.673418 0.671914 0.669082 0.66492 0.659429 0.652608 0.644458 0.63527 0.625335 0.614652 0.603221 0.591043 0.578117 0.564444 0.550023 0.535135 0.52006 0.504797 0.489347 0.473709 0.457884 0.441871 0.425671 0.409481 0.393499 0.377723 0.362155 0.346794 0.331641 0.316695 0.301956 0.287519 0.273478 0.259834 0.246587 0.233736 0.221281 0.209224 0.197563 0.186308 0.175471 0.165052 0.155049 0.145464 0.136297 0.127546 0.119213 0.111262 0.103658 0.0964016 0.089492 0.0829296 0.0767142 0.070846 0.0653249 0.0601074 0.0551501 0.0504529 0.0460159 0.0418391 0.0379224 0.0342659 0.0308695 0.0277013 0.0247293 0.0219535 0.0193738 0.0169903 0.014803 0.0128119 0.011017 0.00939311 0.00791528 0.00658347 0.00539768 0.00435792 0.00346417 0.00271645 0.00211475 0.00161911 0.00118955 0.000826075 0.000528688 0.000297387 0.000132172 3.3043e-05 0 0 0.00101401 0.00405606 0.00912613 0.0162242 0.0253504 0.0365045 0.0496867 0.0648969 0.0819533 0.100674 0.121059 0.143108 0.166821 0.192199 0.21924 0.247946 0.27739 0.306646 0.335714 0.364594 0.393285 0.421789 0.450104 0.478231 0.50553 0.531362 0.555725 0.578621 0.600049 0.620009 0.638501 0.655525 0.670922 0.684534 0.696359 0.706398 0.714651 0.721118 0.7258 0.728695 0.729981 0.729835 0.728256 0.725245 0.720802 0.714927 0.707619 0.698879 0.689018 0.678348 0.666869 0.654581 0.641483 0.627576 0.612859 0.597334 0.581299 0.565056 0.548604 0.531943 0.515074 0.497996 0.480709 0.463213 0.445722 0.428449 0.411392 0.394553 0.377931 0.361527 0.34534 0.32937 0.313721 0.298497 0.283697 0.269322 0.255372 0.241846 0.228744 0.216067 0.203828 0.192039 0.1807 0.169811 0.159373 0.149384 0.139846 0.130759 0.122084 0.113787 0.105865 0.0983202 0.0911518 0.0843598 0.0779443 0.0719052 0.0661959 0.0607696 0.0556264 0.0507661 0.046189 0.0418948 0.0378836 0.0341555 0.0306757 0.0274095 0.0243568 0.0215177 0.0188921 0.0164801 0.0142817 0.0122968 0.0104987 0.00886065 0.00738258 0.0060645 0.00490643 0.00390837 0.0030703 0.00239224 0.00183156 0.00134564 0.000934469 0.00059806 0.000336409 0.000149515 3.73788e-05 0 0 0.00110015 0.0044006 0.00990135 0.0176024 0.0275037 0.0396054 0.0539073 0.0704096 0.0889039 0.109182 0.131244 0.155089 0.180718 0.208131 0.237328 0.268308 0.300074 0.331625 0.362962 0.394086 0.424995 0.455691 0.486173 0.516441 0.545811 0.573601 0.59981 0.624439 0.647487 0.668955 0.688842 0.707149 0.723707 0.73835 0.751077 0.761888 0.770784 0.777763 0.782827 0.785976 0.787398 0.787285 0.785635 0.78245 0.777728 0.771471 0.763677 0.754347 0.743814 0.732408 0.720131 0.706982 0.69296 0.678067 0.662302 0.645664 0.628476 0.611056 0.593405 0.575523 0.55741 0.539066 0.52049 0.501684 0.482876 0.464294 0.445939 0.42781 0.409908 0.392232 0.374783 0.357561 0.340678 0.324248 0.30827 0.292744 0.277671 0.26305 0.248882 0.235166 0.221918 0.209153 0.196872 0.185075 0.173761 0.16293 0.152583 0.14272 0.133301 0.124289 0.115683 0.107484 0.0996911 0.0923045 0.0853244 0.0787506 0.0725332 0.0666223 0.0610178 0.0557198 0.0507282 0.0460431 0.0416644 0.0375922 0.0337889 0.030217 0.0268765 0.0237674 0.0208897 0.0182435 0.0158286 0.0136452 0.0116647 0.00985866 0.00822716 0.00677015 0.00548764 0.00437963 0.00344611 0.00268709 0.0020573 0.00151149 0.00104965 0.000671773 0.000377872 0.000167943 4.19858e-05 0 0 0.00118841 0.00475363 0.0106957 0.0190145 0