<?xml version="1.0"?> 
<VTKFile type="StructuredGrid" version="0.1"> 
<StructuredGrid WholeExtent="0 128 0 128 0 0"> 
<Piece Extent="0 128 0 128 0 0"> 
<PointData>
<DataArray type="Float32" Name="u" format="ascii" NumberOfComponents="1"> 
0 0 0 0 0 0 0 0 0 0 0 0 0 0 0 0 0 0 0 0 0 0 0 0 0 0 0 0 0 0 0 0 0 0 0 0 0 0 0 0 0 0 0 0 0 0 0 0 0 0 0 0 0 0 0 0 0 0 0 0 0 0 0 0 0 0 0 0 0 0 0 0 0 0 0 0 0 0 0 0 0 0 0 0 0 0 0 0 0 0 0 0 0 0 0 0 0 0 0 0 0 0 0 0 0 0 0 0 0 0 0 0 0 0 0 0 0 0 0 0 0 0 0 0 0 0 0 0 0 0 1.27621e-06 5.10485e-06 1.14859e-05 2.04194e-05 3.19053e-05 4.59437e-05 6.25345e-05 8.16777e-05 0.000103495 0.000128107 0.000155515 0.000185718 0.000218717 0.000254511 0.0002931 0.000334485 0.000377273 0.00042007 0.000462877 0.000505694 0.000548521 0.000591357 0.000634204 0.00067706 0.000718831 0.00075842 0.000795829 0.000831057 0.000864103 0.000894969 0.000923653 0.000950157 0.000974178 0.000995416 0.00101387 0.00102954 0.00104243 0.00105253 0.00105985 0.00106439 0.00106642 0.00106623 0.00106382 0.00105918 0.00105232 0.00104323 0.00103192 0.00101838 0.00100315 0.000986737 0.000969153 0.000950394 0.000930461 0.000909353 0.000887071 0.000863614 0.000839471 0.00081513 0.000790593 0.000765857 0.000740925 0.000715794 0.000690467 0.000664942 0.000639526 0.000614525 0.00058994 0.00056577 0.000542015 0.000518676 0.000495752 0.000473244 0.000451261 0.000429914 0.000409203 0.000389129 0.00036969 0.000350887 0.000332721 0.00031519 0.000298276 0.000281958 0.000266237 0.000251112 0.000236584 0.000222652 0.000209317 0.000196578 0.00018437 0.000172628 0.000161352 0.00015054 0.000140195 0.000130315 0.000120901 0.000111952 0.00010342 9.52524e-05 8.74511e-05 8.00157e-05 7.2946e-05 6.62422e-05 5.99042e-05 5.3932e-05 4.83113e-05 4.30278e-05 3.80814e-05 3.34722e-05 2.92001e-05 2.52652e-05 2.16675e-05 1.84069e-05 1.54609e-05 1.28072e-05 1.04455e-05 8.37602e-06 6.59866e-06 5.11344e-06 3.92037e-06 3.01944e-06 2.31176e-06 1.69843e-06 1.17947e-06 7.54859e-07 4.24608e-07 1.88715e-07 4.71787e-08 0 0 5.10485e-06 2.04194e-05 4.59437e-05 8.16777e-05 0.000127621 0.000183775 0.000250138 0.000326711 0.000413979 0.000512429 0.000622061 0.000742874 0.000874868 0.00101804 0.0011724 0.00133794 0.00150909 0.00168028 0.00185151 0.00202278 0.00219408 0.00236543 0.00253681 0.00270824 0.00287532 0.00303368 0.00318332 0.00332423 0.00345641 0.00357988 0.00369461 0.00380063 0.00389671 0.00398166 0.00405548 0.00411816 0.00416971 0.00421013 0.00423941 0.00425756 0.00426569 0.00426493 0.00425527 0.00423671 0.00420926 0.00417291 0.00412767 0.00407352 0.00401259 0.00394695 0.00387661 0.00380158 0.00372184 0.00363741 0.00354828 0.00345445 0.00335788 0.00326052 0.00316237 0.00306343 0.0029637 0.00286318 0.00276187 0.00265977 0.0025581 0.0024581 0.00235976 0.00226308 0.00216806 0.0020747 0.00198301 0.00189297 0.00180504 0.00171966 0.00163681 0.00155651 0.00147876 0.00140355 0.00133088 0.00126076 0.0011931 0.00112783 0.00106495 0.00100445 0.000946337 0.000890609 0.000837268 0.000786313 0.000737481 0.000690513 0.000645406 0.000602162 0.00056078 0.000521261 0.000483604 0.00044781 0.000413678 0.00038101 0.000349805 0.000320063 0.000291784 0.000264969 0.000239617 0.000215728 0.000193245 0.000172111 0.000152326 0.000133889 0.0001168 0.000101061 8.66698e-05 7.36275e-05 6.18438e-05 5.12286e-05 4.17821e-05 3.35041e-05 2.63946e-05 2.04538e-05 1.56815e-05 1.20777e-05 9.24703e-06 6.79373e-06 4.71787e-06 3.01944e-06 1.69843e-06 7.54859e-07 1.88715e-07 0 0 1.14859e-05 4.59437e-05 0.000103373 0.000183775 0.000287148 0.000413493 0.00056281 0.000735099 0.000931453 0.00115297 0.00139964 0.00167147 0.00196845 0.0022906 0.0026379 0.00301037 0.00339545 0.00378063 0.00416589 0.00455124 0.00493669 0.00532222 0.00570783 0.00609354 0.00646948 0.00682578 0.00716246 0.00747951 0.00777693 0.00805472 0.00831288 0.00855141 0.0087676 0.00895874 0.00912483 0.00926587 0.00938185 0.00947279 0.00953868 0.00957951 0.00959781 0.00959609 0.00957436 0.00953261 0.00947084 0.00938905 0.00928725 0.00916543 0.00902832 0.00888063 0.00872237 0.00855355 0.00837415 0.00818418 0.00798364 0.00777252 0.00755524 0.00733617 0.00711533 0.00689272 0.00666832 0.00644215 0.0062142 0.00598448 0.00575573 0.00553073 0.00530946 0.00509193 0.00487814 0.00466809 0.00446177 0.00425919 0.00406135 0.00386923 0.00368283 0.00350216 0.00332721 0.00315799 0.00299449 0.00283671 0.00268449 0.00253763 0.00239613 0.00226001 0.00212926 0.00200387 0.00188385 0.0017692 0.00165933 0.00155365 0.00145216 0.00135486 0.00126176 0.00117284 0.00108811 0.00100757 0.000930776 0.000857272 0.00078706 0.000720141 0.000656514 0.00059618 0.000539138 0.000485388 0.000434802 0.00038725 0.000342732 0.000301249 0.000262801 0.000227387 0.000195007 0.000165662 0.000139149 0.000115264 9.40097e-05 7.53841e-05 5.93879e-05 4.6021e-05 3.52833e-05 2.71749e-05 2.08058e-05 1.52859e-05 1.06152e-05 6.79373e-06 3.82148e-06 1.69843e-06 4.24608e-07 0 0 2.04194e-05 8.16777e-05 0.000183775 0.000326711 0.000510485 0.000735099 0.00100055 0.00130684 0.00165592 0.00204972 0.00248824 0.00297149 0.00349947 0.00407218 0.00468961 0.00535176 0.00603636 0.00672112 0.00740603 0.0080911 0.00877633 0.00946172 0.0101473 0.010833 0.0115013 0.0121347 0.0127333 0.0132969 0.0138257 0.0143195 0.0147785 0.0152025 0.0155868 0.0159266 0.0162219 0.0164727 0.0166789 0.0168405 0.0169576 0.0170302 0.0170628 0.0170597 0.0170211 0.0169469 0.016837 0.0166917 0.0165107 0.0162941 0.0160503 0.0157878 0.0155064 0.0152063 0.0148874 0.0145496 0.0141931 0.0138178 0.0134315 0.0130421 0.0126495 0.0122537 0.0118548 0.0114527 0.0110475 0.0106391 0.0102324 0.0098324 0.00943904 0.00905232 0.00867225 0.00829882 0.00793204 0.0075719 0.00722017 0.00687862 0.00654725 0.00622606 0.00591504 0.0056142 0.00532353 0.00504305 0.00477242 0.00451133 0.00425979 0.0040178 0.00378535 0.00356244 0.00334907 0.00314525 0.00294993 0.00276205 0.00258162 0.00240865 0.00224312 0.00208504 0.00193442 0.00179124 0.00165471 0.00152404 0.00139922 0.00128025 0.00116714 0.00105988 0.000958467 0.000862912 0.000772981 0.000688444 0.000609302 0.000535555 0.000467202 0.000404243 0.000346679 0.00029451 0.000247375 0.000204915 0.000167128 0.000134016 0.000105579 8.18151e-05 6.27259e-05 4.8311e-05 3.69881e-05 2.71749e-05 1.88715e-05 1.20777e-05 6.79373e-06 3.01944e-06 7.54859e-07 0 0 3.19053e-05 0.000127621 0.000287148 0.000510485 0.000797634 0.00114859 0.00156336 0.00204194 0.00258737 0.00320268 0.00388788 0.00464296 0.00546793 0.00636278 0.00732751 0.00836213 0.00943181 0.0105017 0.0115719 0.0126423 0.013713 0.0147839 0.0158551 0.0169265 0.0179708 0.0189605 0.0198957 0.0207764 0.0216026 0.0223742 0.0230913 0.0237539 0.0243544 0.0248854 0.0253467 0.0257385 0.0260607 0.0263133 0.0264963 0.0266097 0.0266606 0.0266558 0.0265954 0.0264795 0.0263079 0.0260807 0.0257979 0.0254595 0.0250787 0.0246684 0.0242288 0.0237599 0.0232615 0.0227338 0.0221768 0.0215903 0.0209868 0.0203783 0.0197648 0.0191464 0.0185231 0.0178949 0.0172617 0.0166235 0.0159881 0.0153631 0.0147485 0.0141443 0.0135504 0.0129669 0.0123938 0.0118311 0.0112815 0.0107478 0.0102301 0.00972821 0.00924225 0.00877218 0.00831802 0.00787976 0.0074569 0.00704896 0.00665593 0.00627781 0.0059146 0.00556631 0.00523292 0.00491445 0.00460926 0.0043157 0.00403379 0.00376351 0.00350488 0.00325788 0.00302253 0.00279881 0.00258549 0.00238131 0.00218628 0.00200039 0.00182365 0.00165606 0.00149761 0.0013483 0.00120778 0.00107569 0.000952035 0.000836804 0.000730003 0.00063163 0.000541686 0.000460172 0.000386524 0.000320179 0.000261138 0.0002094 0.000164966 0.000127836 9.80092e-05 7.54859e-05 5.77939e-05 4.24608e-05 2.94867e-05 1.88715e-05 1.06152e-05 4.71787e-06 1.17947e-06 0 0 4.59437e-05 0.000183775 0.000413493 0.000735099 0.00114859 0.00165397 0.00225124 0.0029404 0.00372581 0.00461186 0.00559855 0.00668586 0.00787381 0.0091624 0.0105516 0.0120415 0.0135818 0.0151225 0.0166636 0.018205 0.0197467 0.0212889 0.0228313 0.0243742 0.0258779 0.0273031 0.0286498 0.029918 0.0311077 0.0322189 0.0332515 0.0342056 0.0350704 0.035835 0.0364993 0.0370635 0.0375274 0.0378912 0.0381547 0.038318 0.0383912 0.0383844 0.0382974 0.0381304 0.0378834 0.0375562 0.037149 0.0366617 0.0361133 0.0355225 0.0348895 0.0342142 0.0334966 0.0327367 0.0319345 0.0310901 0.0302209 0.0293447 0.0284613 0.0275709 0.0266733 0.0257686 0.0248568 0.0239379 0.0230229 0.0221229 0.0212378 0.0203677 0.0195126 0.0186723 0.0178471 0.0170368 0.0162454 0.0154769 0.0147313 0.0140086 0.0133088 0.0126319 0.0119779 0.0113469 0.0107379 0.0101505 0.00958454 0.00904005 0.00851703 0.00801548 0.00753541 0.00707681 0.00663733 0.00621461 0.00580865 0.00541946 0.00504702 0.00469135 0.00435244 0.00403029 0.0037231 0.00342909 0.00314824 0.00288056 0.00262606 0.00238472 0.00215655 0.00194155 0.00173921 0.001549 0.00137093 0.001205 0.0010512 0.000909547 0.000780029 0.000662648 0.000556594 0.000461058 0.000376039 0.000301537 0.000237552 0.000184084 0.000141133 0.0001087 8.32232e-05 6.11436e-05 4.24608e-05 2.71749e-05 1.52859e-05 6.79373e-06 1.69843e-06 0 0 6.25345e-05 0.000250138 0.00056281 0.00100055 0.00156336 0.00225124 0.00306419 0.00400221 0.00507124 0.00627726 0.00762024 0.0091002 0.0107171 0.012471 0.0143619 0.0163898 0.0184864 0.0205834 0.022681 0.024779 0.0268775 0.0289765 0.031076 0.0331759 0.0352227 0.0371626 0.0389956 0.0407218 0.0423411 0.0438535 0.045259 0.0465577 0.0477347 0.0487754 0.0496796 0.0504475 0.051079 0.0515741 0.0519328 0.0521551 0.0522547 0.0522454 0.0521271 0.0518998 0.0515635 0.0511182 0.0505639 0.0499007 0.0491542 0.0483501 0.0474885 0.0465693 0.0455926 0.0445583 0.0434665 0.0423171 0.0411341 0.0399414 0.038739 0.037527 0.0363053 0.0350739 0.0338329 0.0325822 0.0313368 0.0301117 0.0289071 0.0277227 0.0265588 0.0254151 0.0242919 0.0231889 0.0221118 0.0210658 0.020051 0.0190673 0.0181148 0.0171935 0.0163033 0.0154443 0.0146155 0.013816 0.0130456 0.0123045 0.0115926 0.01091 0.0102565 0.00963233 0.00903415 0.00845878 0.00790622 0.00737648 0.00686956 0.00638545 0.00592415 0.00548567 0.00506756 0.00466737 0.00428511 0.00392077 0.00357436 0.00324587 0.00293531 0.00264267 0.00236725 0.00210836 0.00186599 0.00164014 0.00143081 0.00123799 0.00106171 0.000901937 0.000757586 0.000627551 0.00051183 0.000410425 0.000323334 0.000250559 0.000192098 0.000147952 0.000113276 8.32232e-05 5.77939e-05 3.69881e-05 2.08058e-05 9.24703e-06 2.31176e-06 0 0 8.16777e-05 0.000326711 0.000735099 0.00130684 0.00204194 0.0029404 0.00400221 0.00522737 0.00662367 0.00819887 0.00995297 0.011886 0.0139979 0.0162887 0.0187584 0.0214071 0.0241454 0.0268845 0.0296241 0.0323644 0.0351053 0.0378469 0.040589 0.0433318 0.0460052 0.0485389 0.0509331 0.0531876 0.0553026 0.057278 0.0591138 0.06081 0.0623474 0.0637066 0.0648877 0.0658906 0.0667154 0.0673621 0.0678306 0.068121 0.0682511 0.0682389 0.0680843 0.0677874 0.0673482 0.0667666 0.0660427 0.0651764 0.0642014 0.0631512 0.0620258 0.0608252 0.0595495 0.0581986 0.0567725 0.0552713 0.0537261 0.0521683 0.0505979 0.0490149 0.0474192 0.0458108 0.0441899 0.0425563 0.0409297 0.0393296 0.0377562 0.0362093 0.034689 0.0331953 0.0317281 0.0302876 0.0288807 0.0275145 0.026189 0.0249042 0.0236602 0.0224568 0.0212941 0.0201722 0.0190897 0.0180453 0.0170392 0.0160712 0.0151414 0.0142497 0.0133963 0.012581 0.0117997 0.0110482 0.0103265 0.00963459 0.00897249 0.00834018 0.00773767 0.00716496 0.00661885 0.00609615 0.00559687 0.005121 0.00466855 0.0042395 0.00383387 0.00345165 0.00309192 0.00275378 0.00243721 0.00214222 0.00186881 0.00161697 0.00138672 0.00117804 0.000989501 0.000819658 0.000668513 0.000536065 0.000422314 0.00032726 0.000250904 0.000193244 0.000147952 0.0001087 7.54859e-05 4.8311e-05 2.71749e-05 1.20777e-05 3.01944e-06 0 0 0.000103825 0.000415301 0.000934428 0.00166121 0.00259563 0.00373771 0.00508744 0.00664482 0.00841881 0.0104184 0.0126435 0.0150942 0.0177705 0.0206723 0.0237997 0.0271527 0.0306186 0.034085 0.0375517 0.0410188 0.0444864 0.0479543 0.0514226 0.0548912 0.0582719 0.0614763 0.0645042 0.0673558 0.0700311 0.0725299 0.0748524 0.0769986 0.078944 0.0806644 0.0821596 0.0834298 0.084475 0.085295 0.08589 0.08626 0.0864274 0.0864148 0.0862222 0.0858496 0.085297 0.0845645 0.083652 0.0825594 0.0813293 0.0800039 0.0785833 0.0770674 0.0754563 0.0737499 0.0719482 0.0700514 0.0680987 0.0661298 0.0641447 0.0621432 0.0601256 0.0580916 0.0560414 0.0539749 0.051917 0.0498925 0.0479013 0.0459435 0.0440191 0.042128 0.0402704 0.0384461 0.0366641 0.0349335 0.0332543 0.0316264 0.0300499 0.0285247 0.0270509 0.0256285 0.0242559 0.0229315 0.0216554 0.0204276 0.0192481 0.0181168 0.0170338 0.0159991 0.0150074 0.0140535 0.0131373 0.0122589 0.0114183 0.0106154 0.00985021 0.00912281 0.00842914 0.00776516 0.00713087 0.00652627 0.00595135 0.00540613 0.00489059 0.00440474 0.0039474 0.00351738 0.0031147 0.00273934 0.00239131 0.00207061 0.00177723 0.00151118 0.00127065 0.00105383 0.000860722 0.000691322 0.000545632 0.000423652 0.000325382 0.000250822 0.000192035 0.000141087 9.79772e-05 6.27054e-05 3.52718e-05 1.56764e-05 3.91909e-06 0 0 0.000129429 0.000517718 0.00116486 0.00207087 0.00323574 0.00465946 0.00634204 0.00828348 0.0104924 0.0129774 0.0157386 0.0187759 0.0220892 0.0256787 0.0295443 0.033686 0.0379655 0.0422443 0.0465224 0.0507999 0.0550768 0.059353 0.0636286 0.0679035 0.0720696 0.0760189 0.0797512 0.0832666 0.0865652 0.0896468 0.0925115 0.0951593 0.0975602 0.0996843 0.101532 0.103102 0.104396 0.105413 0.106153 0.106616 0.106831 0.106823 0.106594 0.106142 0.10547 0.104575 0.103459 0.10212 0.100612 0.0989866 0.0972429 0.0953813 0.0934018 0.0913044 0.0890891 0.086756 0.0843534 0.0819301 0.0794859 0.0770209 0.0745351 0.0720285 0.069501 0.0669527 0.0644142 0.0619162 0.0594587 0.0570416 0.0546649 0.0523287 0.0500329 0.0477776 0.045574 0.0434334 0.0413557 0.0393409 0.0373891 0.0355002 0.0336743 0.0319113 0.0302096 0.0285673 0.0269845 0.0254613 0.0239975 0.0225932 0.0212484 0.019963 0.0187308 0.0175454 0.0164066 0.0153146 0.0142693 0.0132708 0.012319 0.0114139 0.0105506 0.00972411 0.00893443 0.00818156 0.0074655 0.00678625 0.00614381 0.00553818 0.00496786 0.00443132 0.00392856 0.00345959 0.00302441 0.00262302 0.00225541 0.00192158 0.00161935 0.00134652 0.00110309 0.000889062 0.000704431 0.000549199 0.000423366 0.000326933 0.000250308 0.0001839 0.000127708 8.17332e-05 4.59749e-05 2.04333e-05 5.10833e-06 0 0 0.00015849 0.00063396 0.00142641 0.00253584 0.00396225 0.00570564 0.00776601 0.0101434 0.0128445 0.0158761 0.0192383 0.022931 0.0269542 0.031308 0.0359923 0.0410071 0.046186 0.0513623 0.0565362 0.0617077 0.0668766 0.0720431 0.0772071 0.0823686 0.0873983 0.0921668 0.096674 0.10092 0.104905 0.108628 0.112091 0.115292 0.118196 0.120767 0.123004 0.124908 0.126478 0.127716 0.12862 0.129191 0.129461 0.129463 0.129198 0.128666 0.127866 0.126798 0.125462 0.123859 0.122051 0.120099 0.118005 0.115767 0.113386 0.110862 0.108195 0.105385 0.10249 0.0995691 0.0966217 0.0936479 0.0906478 0.0876214 0.0845687 0.0814896 0.0784214 0.0754009 0.0724282 0.0695034 0.0666264 0.0637972 0.0610159 0.0582823 0.0556104 0.053014 0.0504931 0.0480477 0.0456777 0.0433832 0.0411642 0.0390207 0.0369508 0.0349528 0.0330265 0.0311721 0.0293895 0.0276788 0.0260398 0.0244727 0.0229699 0.0215238 0.0201344 0.0188017 0.0175257 0.0163065 0.015144 0.0140383 0.0129832 0.011973 0.0110075 0.0100869 0.00921098 0.00837987 0.00759353 0.00685198 0.0061533 0.00549557 0.0048788 0.00430298 0.00376812 0.00327421 0.00282125 0.00240925 0.00203561 0.00169774 0.00139563 0.00112928 0.000898709 0.000703899 0.000544855 0.000421578 0.00032277 0.000237137 0.000164679 0.000105394 5.92844e-05 2.63486e-05 6.58715e-06 0 0 0.000191007 0.000764028 0.00171906 0.00305611 0.00477517 0.00687625 0.00935934 0.0122244 0.015475 0.0191143 0.0231425 0.0275595 0.0323654 0.03756 0.0431436 0.0491159 0.0552801 0.0614392 0.0675932 0.0737421 0.0798859 0.0860245 0.0921581 0.0982866 0.104258 0.10992 0.115273 0.120316 0.12505 0.129475 0.133591 0.137397 0.140851 0.143911 0.146576 0.148847 0.150722 0.152204 0.15329 0.153982 0.154318 0.154336 0.154037 0.15342 0.152485 0.151233 0.149663 0.147776 0.145644 0.143342 0.140869 0.138224 0.135409 0.132423 0.129266 0.125939 0.122509 0.119047 0.115552 0.112024 0.108464 0.10487 0.101244 0.0975857 0.0939383 0.0903464 0.08681 0.0833291 0.0799036 0.0765336 0.0732191 0.0699601 0.0667733 0.0636755 0.0606666 0.0577467 0.0549157 0.0521737 0.0495207 0.0469566 0.0444796 0.0420879 0.0397814 0.0375602 0.0354243 0.0333737 0.0314083 0.0295282 0.0277246 0.0259887 0.0243205 0.0227201 0.0211874 0.0197225 0.0183253 0.0169958 0.015727 0.0145118 0.0133502 0.0122422 0.0111878 0.010187 0.00923976 0.00834614 0.00750373 0.00671016 0.00596541 0.0052695 0.00462242 0.00402417 0.00347476 0.00297418 0.00251942 0.00210746 0.00173832 0.00141199 0.00112847 0.000887753 0.00068985 0.000534756 0.000409423 0.0003008 0.000208889 0.000133689 7.52001e-05 3.34222e-05 8.35556e-06 0 0 0.00022698 0.000907922 0.00204282 0.00363169 0.00567451 0.00817129 0.011122 0.0145267 0.0183839 0.0226921 0.0274513 0.0326615 0.0383227 0.044435 0.0509982 0.0580124 0.0652479 0.0724748 0.0796932 0.0869031 0.0941045 0.101297 0.108482 0.115657 0.122648 0.129278 0.135547 0.141455 0.147001 0.152187 0.157011 0.161474 0.165526 0.169118 0.172248 0.174918 0.177128 0.178876 0.180164 0.180991 0.181402 0.181441 0.181109 0.180405 0.179329 0.177881 0.176062 0.173871 0.171393 0.168714 0.165835 0.162753 0.159471 0.155988 0.152303 0.148417 0.14441 0.140364 0.136277 0.13215 0.127983 0.123776 0.119528 0.115241 0.110965 0.106753 0.102604 0.0985186 0.0944965 0.090538 0.0866428 0.0828111 0.0790627 0.0754178 0.0718762 0.068438 0.0651032 0.0618717 0.0587437 0.055719 0.0527959 0.0499726 0.0472492 0.0446256 0.0421018 0.0396778 0.0373537 0.0351294 0.0329949 0.0309401 0.0289651 0.0270699 0.0252545 0.0235188 0.0218628 0.0202867 0.018782 0.0173406 0.0159625 0.0146476 0.013396 0.0122076 0.0110825 0.0100206 0.00901915 0.00807506 0.0071884 0.00635915 0.00558733 0.00487292 0.00421594 0.00361637 0.00307077 0.00257571 0.00213118 0.00173718 0.0013937 0.00110076 0.00085835 0.000666468 0.000510264 0.000374888 0.000260339 0.000166617 9.3722e-05 4.16542e-05 1.04136e-05 0 0 0.00026641 0.00106564 0.00239769 0.00426257 0.00666026 0.00959077 0.0130541 0.0170503 0.0215714 0.0266095 0.0321647 0.038237 0.0448263 0.0519327 0.0595561 0.0676966 0.0760893 0.0844692 0.0928364 0.101191 0.109533 0.117861 0.126178 0.134481 0.14257 0.150242 0.157497 0.164336 0.170758 0.176763 0.182351 0.187523 0.192221 0.196387 0.200021 0.203124 0.205695 0.207734 0.209242 0.210218 0.210713 0.210779 0.210414 0.20962 0.208396 0.206741 0.204657 0.202143 0.199297 0.196217 0.192903 0.189354 0.185572 0.181555 0.177304 0.17282 0.168193 0.163519 0.158796 0.154025 0.149205 0.144337 0.13942 0.134455 0.129502 0.12462 0.11981 0.115072 0.110405 0.10581 0.101287 0.0968351 0.0924786 0.0882409 0.0841219 0.0801216 0.0762401 0.0724773 0.0688332 0.0653079 0.0618997 0.058607 0.0554298 0.0523681 0.049422 0.0465913 0.0438761 0.0412764 0.0387808 0.0363781 0.0340682 0.0318511 0.0297268 0.0276953 0.0257566 0.0239107 0.0221481 0.0204593 0.0188443 0.017303 0.0158355 0.0144417 0.0131217 0.0118755 0.0106995 0.0095903 0.00854776 0.00757194 0.00666284 0.00582045 0.00504478 0.00433582 0.00368968 0.00310248 0.0025742 0.00210485 0.00169442 0.00134292 0.00105036 0.000816713 0.000625296 0.000459401 0.000319029 0.000204178 0.00011485 5.10446e-05 1.27611e-05 0 0 0.000309297 0.00123719 0.00278367 0.00494875 0.00773242 0.0111347 0.0151555 0.019795 0.0250372 0.0308665 0.0372827 0.0442859 0.0518761 0.0600533 0.0688174 0.0781686 0.0878044 0.0974224 0.107023 0.116605 0.12617 0.135717 0.145246 0.154758 0.164022 0.172811 0.181123 0.18896 0.19632 0.203204 0.209612 0.215544 0.220935 0.225718 0.229893 0.233462 0.236423 0.238777 0.240523 0.241662 0.242252 0.242349 0.241953 0.241066 0.239686 0.237814 0.23545 0.232594 0.229356 0.225849 0.222073 0.218027 0.213711 0.209126 0.204271 0.199147 0.193859 0.188513 0.18311 0.177649 0.17213 0.166554 0.16092 0.155229 0.149549 0.143948 0.138429 0.132989 0.12763 0.12235 0.117151 0.112032 0.107021 0.102145 0.0974036 0.0927975 0.0883264 0.0839903 0.0797893 0.0757234 0.0717911 0.0679911 0.0643234 0.0607879 0.0573848 0.054114 0.0509754 0.0479691 0.0450825 0.0423026 0.0396297 0.0370636 0.0346044 0.0322521 0.0300066 0.027868 0.0258254 0.023868 0.0219956 0.0202084 0.0185063 0.0168893 0.0153575 0.0139107 0.0125449 0.0112559 0.0100435 0.00890786 0.00784894 0.00686675 0.00596128 0.00513253 0.00437615 0.00368776 0.00306738 0.002515 0.00203062 0.00161424 0.00126587 0.000985492 0.000754517 0.000554339 0.000384958 0.000246373 0.000138585 6.15932e-05 1.53983e-05 0 0 0.000355639 0.00142256 0.00320076 0.00569023 0.00889099 0.012803 0.0174263 0.0227609 0.0287816 0.035463 0.0428052 0.0508082 0.059472 0.0687967 0.0787821 0.0894283 0.100393 0.111334 0.122252 0.133146 0.144017 0.154864 0.165687 0.176487 0.187006 0.196985 0.206425 0.215326 0.223688 0.23151 0.238794 0.245538 0.251668 0.257111 0.261866 0.265933 0.269313 0.272004 0.274008 0.275324 0.276017 0.276151 0.275726 0.274743 0.273201 0.2711 0.26844 0.265222 0.261571 0.257612 0.253345 0.248771 0.243889 0.2387 0.233203 0.227398 0.221406 0.215346 0.209218 0.203022 0.196759 0.190428 0.184028 0.177561 0.171105 0.164738 0.158459 0.15227 0.14617 0.140158 0.134236 0.128403 0.12269 0.11713 0.111721 0.106466 0.101362 0.0964109 0.091612 0.0869654 0.08247 0.0781248 0.0739298 0.069885 0.0659904 0.0622459 0.0586517 0.0552077 0.0518997 0.0487137 0.0456496 0.0427075 0.0398874 0.0371891 0.0346129 0.0321586 0.0298139 0.0275665 0.0254165 0.0233638 0.0214085 0.0195504 0.0177897 0.0161263 0.0145553 0.0130717 0.0116756 0.0103669 0.00914565 0.00801184 0.00696545 0.00600651 0.00513016 0.00433157 0.00361072 0.00296763 0.0024023 0.00191471 0.00150488 0.0011728 0.000897928 0.000659702 0.000458127 0.000293201 0.000164926 7.33003e-05 1.83251e-05 0 0 0.000404529 0.00161812 0.00364076 0.00647247 0.0101132 0.0145631 0.0198219 0.0258899 0.032731 0.0403093 0.0486249 0.0576777 0.0674678 0.0779951 0.0892597 0.101262 0.113617 0.125942 0.138237 0.150501 0.162736 0.17494 0.187114 0.199258 0.211084 0.222305 0.232921 0.242932 0.252339 0.26114 0.269336 0.276928 0.283831 0.289963 0.295323 0.299912 0.30373 0.306777 0.309052 0.310555 0.311359 0.311535 0.311084 0.310005 0.308297 0.305962 0.303 0.299409 0.295331 0.290905 0.286132 0.281012 0.275544 0.269729 0.263566 0.257056 0.250333 0.243531 0.23665 0.22969 0.222651 0.215534 0.208338 0.201063 0.193797 0.18663 0.17956 0.172587 0.165713 0.158937 0.152258 0.145677 0.13923 0.132953 0.126846 0.120909 0.115142 0.109545 0.104118 0.0988615 0.0937741 0.0888556 0.0841058 0.0795249 0.0751128 0.0708695 0.066795 0.0628893 0.0591369 0.0555222 0.0520453 0.0487061 0.0455047 0.042441 0.0395151 0.0367269 0.0340627 0.0315086 0.0290646 0.0267308 0.0245072 0.0223937 0.0203903 0.0184971 0.0167083 0.0150182 0.0134267 0.0119339 0.0105398 0.00924434 0.00804757 0.00694948 0.00594474 0.00502807 0.00419945 0.00345889 0.00280639 0.00224194 0.00176555 0.00137722 0.00105443 0.000774685 0.000537975 0.000344304 0.000193671 8.60761e-05 2.1519e-05 0 0 0.000455057 0.00182023 0.00409551 0.00728091 0.0113764 0.0163821 0.0222978 0.0291236 0.0368121 0.0453157 0.0546343 0.0647681 0.075717 0.087481 0.10006 0.113454 0.127237 0.140982 0.154689 0.168358 0.18199 0.195584 0.209139 0.222657 0.23582 0.248311 0.26013 0.271276 0.28175 0.291552 0.300682 0.309139 0.316832 0.323669 0.32965 0.334774 0.339042 0.342454 0.345009 0.346708 0.34763 0.347853 0.347379 0.346206 0.344336 0.341767 0.3385 0.334535 0.330027 0.325131 0.319847 0.314174 0.308113 0.301664 0.294826 0.2876 0.280135 0.272579 0.264933 0.257196 0.249369 0.24145 0.233442 0.225343 0.217251 0.209266 0.201387 0.193615 0.185948 0.178388 0.170934 0.163586 0.156385 0.149373 0.142547 0.13591 0.129461 0.123199 0.117125 0.111239 0.105541 0.100031 0.0947082 0.0895733 0.0846262 0.0798668 0.0752951 0.0709112 0.0666981 0.062639 0.0587339 0.0549827 0.0513855 0.0479422 0.044653 0.0415176 0.0385209 0.0356476 0.0328976 0.030271 0.0277677 0.0253878 0.0231312 0.020998 0.0189815 0.0170753 0.0152794 0.0135936 0.0120182 0.0105529 0.00919792 0.00795316 0.00681291 0.00577146 0.00482879 0.00398491 0.00323982 0.00259353 0.00204602 0.0015973 0.00122293 0.00089848 0.000623944 0.000399324 0.00022462 9.98311e-05 2.49578e-05 0 0 0.000507222 0.00202889 0.004565 0.00811556 0.0126806 0.01826 0.0248539 0.0324622 0.041025 0.0504821 0.0608335 0.0720794 0.0842196 0.0972541 0.111183 0.126006 0.141254 0.156454 0.171609 0.186717 0.201779 0.216794 0.231763 0.246686 0.261215 0.275003 0.28805 0.300357 0.311922 0.322746 0.33283 0.342172 0.350673 0.358231 0.364846 0.370518 0.375248 0.379036 0.38188 0.383782 0.384828 0.385104 0.384611 0.383348 0.381316 0.378514 0.374942 0.370601 0.36566 0.360289 0.354488 0.348257 0.341596 0.334504 0.326983 0.319031 0.310813 0.302492 0.294068 0.285541 0.27691 0.268177 0.25934 0.250401 0.241467 0.232647 0.223942 0.215351 0.206874 0.198512 0.190264 0.18213 0.174157 0.166389 0.158826 0.151469 0.144318 0.137373 0.130633 0.124099 0.117771 0.111651 0.105737 0.10003 0.0945306 0.0892379 0.0841522 0.0792735 0.0745835 0.0700642 0.0657155 0.0615373 0.0575298 0.0536928 0.0500265 0.0465307 0.0431887 0.0399836 0.0369155 0.0339843 0.03119 0.0285327 0.0260123 0.0236289 0.021375 0.0192432 0.0172336 0.0153461 0.0135808 0.0119376 0.0104165 0.00901756 0.00773467 0.00656173 0.00549874 0.0045457 0.00370261 0.00296947 0.00234628 0.00183305 0.00140343 0.00103109 0.000716034 0.000458262 0.000257772 0.000114565 2.86413e-05 0 0 0.000561026 0.0022441 0.00504923 0.00897641 0.0140256 0.0201969 0.0274903 0.0359056 0.0453696 0.0558085 0.0672225 0.0796115 0.0929755 0.107315 0.122629 0.138918 0.155667 0.172359 0.188996 0.205578 0.222103 0.238573 0.254986 0.271344 0.287268 0.302382 0.316684 0.330175 0.342854 0.354723 0.36578 0.376026 0.385352 0.393647 0.400911 0.407145 0.412349 0.416522 0.419665 0.421778 0.422954 0.423288 0.42278 0.42143 0.419237 0.416202 0.412325 0.407606 0.402229 0.39638 0.390057 0.383261 0.375993 0.368251 0.360037 0.35135 0.342368 0.333269 0.324055 0.314724 0.305277 0.295713 0.286034 0.276237 0.266444 0.256773 0.247224 0.237797 0.228492 0.219309 0.210248 0.201309 0.192543 0.184001 0.175682 0.167587 0.159715 0.152067 0.144642 0.137441 0.130465 0.123715 0.117192 0.110896 0.104826 0.0989828 0.0933661 0.0879761 0.0827931 0.0777978 0.0729901 0.06837 0.0639376 0.0596928 0.0556356 0.0517661 0.0480659 0.0445166 0.0411182 0.0378707 0.0347741 0.0318284 0.0290337 0.0263899 0.0238887 0.0215219 0.0192894 0.0171914 0.0152276 0.0133983 0.0117033 0.0101427 0.00871002 0.00739889 0.0062093 0.00514125 0.00419474 0.00336977 0.00266635 0.00208446 0.00159592 0.00117251 0.000814243 0.000521116 0.000293128 0.000130279 3.25697e-05 0 0 0.000616466 0.00246587 0.0055482 0.00986346 0.0154117 0.0221928 0.0302069 0.0394539 0.0498459 0.061295 0.0738012 0.0873645 0.101985 0.117662 0.134397 0.152189 0.170476 0.188697 0.206851 0.22494 0.242962 0.260918 0.278808 0.296631 0.31398 0.330446 0.346029 0.36073 0.374547 0.387482 0.399533 0.410702 0.420869 0.429917 0.437846 0.444655 0.450344 0.454914 0.458364 0.460695 0.462008 0.462405 0.461886 0.460451 0.4581 0.454833 0.45065 0.44555 0.439735 0.433402 0.426553 0.419187 0.411304 0.402904 0.393988 0.384555 0.374798 0.364911 0.354893 0.344746 0.334468 0.32406 0.313521 0.302852 0.292183 0.281644 0.271233 0.260952 0.250801 0.240779 0.230887 0.221124 0.211546 0.20221 0.193115 0.184262 0.17565 0.16728 0.159151 0.151264 0.143621 0.136224 0.129074 0.12217 0.115512 0.109102 0.102937 0.097019 0.0913268 0.0858396 0.0805576 0.0754807 0.0706088 0.0659421 0.0614804 0.0572239 0.0531526 0.0492465 0.0455057 0.0419302 0.03852 0.035275 0.0321953 0.029281 0.0265227 0.0239113 0.0214469 0.0191294 0.0169588 0.0149351 0.0130583 0.0113285 0.00973895 0.00828293 0.00696047 0.00577156 0.00471622 0.00379444 0.00300621 0.00235155 0.0018004 0.00132274 0.000918573 0.000587887 0.000330686 0.000146972 3.67429e-05 0 0 0.000673545 0.00269418 0.00606191 0.0107767 0.0168386 0.0242476 0.0330037 0.0431069 0.0544539 0.0669415 0.0805696 0.0953384 0.111248 0.128298 0.146488 0.165819 0.185682 0.205467 0.225174 0.244804 0.264356 0.283831 0.303228 0.322548 0.34135 0.359197 0.376088 0.392022 0.407 0.421023 0.434089 0.446199 0.457226 0.467043 0.47565 0.483046 0.489233 0.49421 0.497977 0.500534 0.50199 0.502456 0.50193 0.500413 0.497905 0.494406 0.489915 0.484434 0.478176 0.471357 0.463976 0.456034 0.447529 0.438463 0.428836 0.418646 0.408104 0.397416 0.386584 0.375606 0.364484 0.353216 0.341803 0.330246 0.318684 0.307259 0.29597 0.284817 0.273801 0.262922 0.252179 0.241573 0.231164 0.221015 0.211125 0.201495 0.192124 0.183013 0.174162 0.165569 0.15724 0.149177 0.141382 0.133852 0.12659 0.119594 0.112865 0.106402 0.100185 0.0941899 0.0884181 0.0828693 0.0775436 0.0724407 0.0675609 0.0629041 0.0584487 0.0541734 0.0500781 0.0461629 0.0424276 0.0388724 0.0354972 0.0323021 0.0292769 0.0264115 0.0237059 0.0211601 0.0187741 0.016548 0.0144816 0.0125751 0.0108215 0.00921385 0.00775224 0.00643664 0.00526705 0.00424346 0.00336588 0.0026343 0.00201688 0.00148179 0.00102902 0.000658574 0.000370448 0.000164644 4.11609e-05 0 0 0.000732262 0.00292905 0.00659035 0.0117162 0.0183065 0.0263614 0.0358808 0.0468647 0.0591936 0.072748 0.0875278 0.103533 0.120764 0.13922 0.158902 0.179809 0.201284 0.222669 0.243964 0.26517 0.286285 0.307311 0.328247 0.349093 0.369379 0.388634 0.406858 0.424052 0.440214 0.455346 0.469447 0.482517 0.494421 0.505023 0.514323 0.522321 0.529017 0.534411 0.538504 0.541294 0.5429 0.543439 0.54291 0.541314 0.538651 0.53492 0.530122 0.524257 0.517555 0.510244 0.502327 0.493801 0.484669 0.474928 0.464581 0.453625 0.442286 0.430786 0.419126 0.407305 0.395324 0.383182 0.37088 0.358418 0.345946 0.333618 0.321433 0.309392 0.297493 0.285738 0.274126 0.262656 0.251398 0.240416 0.229713 0.219286 0.209138 0.199266 0.189672 0.180356 0.171322 0.162575 0.154116 0.145944 0.138058 0.13046 0.12315 0.116126 0.109367 0.102848 0.0965716 0.090536 0.0847418 0.0791888 0.073877 0.0688066 0.0639543 0.0592973 0.0548354 0.0505686 0.0464971 0.0426206 0.0389394 0.0354533 0.0321513 0.0290224 0.0260664 0.0232836 0.0206