<?xml version="1.0"?> 
<VTKFile type="StructuredGrid" version="0.1"> 
<StructuredGrid WholeExtent="0 128 0 128 0 0"> 
<Piece Extent="0 128 0 128 0 0"> 
<PointData>
<DataArray type="Float32" Name="u" format="ascii" NumberOfComponents="1"> 
0 0 0 0 0 0 0 0 0 0 0 0 0 0 0 0 0 0 0 0 0 0 0 0 0 0 0 0 0 0 0 0 0 0 0 0 0 0 0 0 0 0 0 0 0 0 0 0 0 0 0 0 0 0 0 0 0 0 0 0 0 0 0 0 0 0 0 0 0 0 0 0 0 0 0 0 0 0 0 0 0 0 0 0 0 0 0 0 0 0 0 0 0 0 0 0 0 0 0 0 0 0 0 0 0 0 0 0 0 0 0 0 0 0 0 0 0 0 0 0 0 0 0 0 0 0 0 0 0 0 2.41352e-07 9.65407e-07 2.17217e-06 3.86163e-06 6.0338e-06 8.68867e-06 1.18262e-05 1.54465e-05 1.96411e-05 2.45017e-05 3.00282e-05 3.62206e-05 4.3079e-05 5.06034e-05 5.87937e-05 6.76499e-05 7.68802e-05 8.61926e-05 9.5587e-05 0.000105064 0.000114622 0.000124263 0.000133986 0.00014379 0.000153401 0.000162541 0.000171211 0.00017941 0.000187139 0.000194397 0.000201184 0.000207501 0.000213259 0.000218369 0.00022283 0.000226644 0.00022981 0.000232328 0.000234197 0.000235419 0.000236067 0.000236217 0.000235867 0.000235018 0.000233671 0.000231824 0.000229479 0.000226635 0.000223441 0.000220047 0.000216454 0.00021266 0.000208666 0.000204473 0.00020008 0.000195486 0.000190819 0.000186206 0.000181645 0.000177137 0.000172683 0.000168281 0.000163933 0.000159637 0.00015544 0.000151387 0.000147478 0.000143712 0.00014009 0.000136612 0.000133277 0.000130087 0.00012701 0.000124016 0.000121107 0.000118281 0.000115539 0.000112881 0.000110306 0.000107815 0.000105354 0.000102869 0.00010036 9.78264e-05 9.52694e-05 9.26883e-05 9.00833e-05 8.74543e-05 8.47776e-05 8.20295e-05 7.921e-05 7.63191e-05 7.33568e-05 7.0323e-05 6.72179e-05 6.40413e-05 6.08224e-05 5.75902e-05 5.43447e-05 5.1086e-05 4.78139e-05 4.45286e-05 4.123e-05 3.79181e-05 3.46596e-05 3.1521e-05 2.85024e-05 2.56038e-05 2.28251e-05 2.01664e-05 1.76276e-05 1.52088e-05 1.29523e-05 1.09005e-05 9.05329e-06 7.41072e-06 5.97279e-06 4.73949e-06 3.71083e-06 2.88681e-06 2.21022e-06 1.62383e-06 1.12766e-06 7.21703e-07 4.05958e-07 1.80426e-07 4.51064e-08 0 0 9.65407e-07 3.86163e-06 8.68867e-06 1.54465e-05 2.41352e-05 3.47547e-05 4.7305e-05 6.17861e-05 7.85645e-05 9.80067e-05 0.000120113 0.000144883 0.000172316 0.000202414 0.000235175 0.0002706 0.000307521 0.00034477 0.000382348 0.000420254 0.000458488 0.000497051 0.000535942 0.000575162 0.000613604 0.000650165 0.000684843 0.00071764 0.000748554 0.000777586 0.000804736 0.000830005 0.000853036 0.000873475 0.000891322 0.000906576 0.000919239 0.00092931 0.000936789 0.000941676 0.000944269 0.000944866 0.000943468 0.000940073 0.000934683 0.000927297 0.000917916 0.000906539 0.000893764 0.000880189 0.000865814 0.00085064 0.000834666 0.000817892 0.000800318 0.000781945 0.000763278 0.000744823 0.00072658 0.00070855 0.000690731 0.000673125 0.000655731 0.00063855 0.000621762 0.000605549 0.000589911 0.000574848 0.00056036 0.000546447 0.000533109 0.000520347 0.000508039 0.000496066 0.000484428 0.000473125 0.000462156 0.000451522 0.000441224 0.00043126 0.000421415 0.000411474 0.000401438 0.000391306 0.000381077 0.000370753 0.000360333 0.000349817 0.000339111 0.000328118 0.00031684 0.000305276 0.000293427 0.000281292 0.000268871 0.000256165 0.00024329 0.000230361 0.000217379 0.000204344 0.000191256 0.000178114 0.00016492 0.000151673 0.000138638 0.000126084 0.00011401 0.000102415 9.13003e-05 8.06654e-05 7.05104e-05 6.08353e-05 5.18094e-05 4.3602e-05 3.62132e-05 2.96429e-05 2.38912e-05 1.8958e-05 1.48433e-05 1.15472e-05 8.84086e-06 6.49533e-06 4.51064e-06 2.88681e-06 1.62383e-06 7.21703e-07 1.80426e-07 0 0 2.17217e-06 8.68867e-06 1.95495e-05 3.47547e-05 5.43042e-05 7.8198e-05 0.000106436 0.000139019 0.00017677 0.000220515 0.000270254 0.000325986 0.000387711 0.00045543 0.000529143 0.000608849 0.000691922 0.000775733 0.000860283 0.000945572 0.0010316 0.00111837 0.00120587 0.00129411 0.00138061 0.00146287 0.0015409 0.00161469 0.00168425 0.00174957 0.00181066 0.00186751 0.00191933 0.00196532 0.00200547 0.0020398 0.00206829 0.00209095 0.00210778 0.00211877 0.0021246 0.00212595 0.0021228 0.00211516 0.00210304 0.00208642 0.00206531 0.00203971 0.00201097 0.00198042 0.00194808 0.00191394 0.001878 0.00184026 0.00180072 0.00175938 0.00171738 0.00167585 0.00163481 0.00159424 0.00155415 0.00151453 0.0014754 0.00143674 0.00139896 0.00136248 0.0013273 0.00129341 0.00126081 0.00122951 0.0011995 0.00117078 0.00114309 0.00111615 0.00108996 0.00106453 0.00103985 0.00101593 0.000992753 0.000970334 0.000948184 0.000925818 0.000903236 0.000880438 0.000857424 0.000834195 0.00081075 0.000787089 0.000762999 0.000738266 0.00071289 0.000686872 0.000660211 0.000632907 0.000604961 0.000576372 0.000547402 0.000518312 0.000489103 0.000459774 0.000430325 0.000400758 0.00037107 0.000341263 0.000311936 0.000283689 0.000256522 0.000230434 0.000205426 0.000181497 0.000158649 0.000136879 0.000116571 9.81045e-05 8.14796e-05 6.66965e-05 5.37551e-05 4.26554e-05 3.33975e-05 2.59813e-05 1.98919e-05 1.46145e-05 1.01489e-05 6.49533e-06 3.65362e-06 1.62383e-06 4.05958e-07 0 0 3.86163e-06 1.54465e-05 3.47547e-05 6.17861e-05 9.65407e-05 0.000139019 0.00018922 0.000247144 0.000314258 0.000392027 0.000480451 0.00057953 0.000689265 0.000809654 0.000940699 0.0010824 0.00123008 0.00137908 0.00152939 0.00168102 0.00183395 0.00198821 0.00214377 0.00230065 0.00245442 0.00260066 0.00273937 0.00287056 0.00299422 0.00311035 0.00321895 0.00332002 0.00341214 0.0034939 0.00356529 0.00362631 0.00367696 0.00371724 0.00374716 0.0037667 0.00377708 0.00377946 0.00377387 0.00376029 0.00373873 0.00370919 0.00367166 0.00362615 0.00357505 0.00352075 0.00346326 0.00340256 0.00333866 0.00327157 0.00320127 0.00312778 0.00305311 0.00297929 0.00290632 0.0028342 0.00276293 0.0026925 0.00262293 0.0025542 0.00248705 0.00242219 0.00235964 0.00229939 0.00224144 0.00218579 0.00213244 0.00208139 0.00203216 0.00198426 0.00193771 0.0018925 0.00184862 0.00180609 0.00176489 0.00172504 0.00168566 0.0016459 0.00160575 0.00156522 0.00152431 0.00148301 0.00144133 0.00139927 0.00135644 0.00131247 0.00126736 0.00122111 0.00117371 0.00112517 0.00107549 0.00102466 0.000973158 0.000921443 0.000869516 0.000817376 0.000765023 0.000712458 0.00065968 0.00060669 0.000554553 0.000504336 0.000456038 0.00040966 0.000365201 0.000322662 0.000282042 0.000243341 0.000207238 0.000174408 0.000144853 0.000118572 9.55646e-05 7.58319e-05 5.93733e-05 4.6189e-05 3.53634e-05 2.59813e-05 1.80426e-05 1.15472e-05 6.49533e-06 2.88681e-06 7.21703e-07 0 0 6.0338e-06 2.41352e-05 5.43042e-05 9.65407e-05 0.000150845 0.000217217 0.000295656 0.000386163 0.000491028 0.000612542 0.000750705 0.000905516 0.00107698 0.00126508 0.00146984 0.00169125 0.00192201 0.00215481 0.00238967 0.00262659 0.00286555 0.00310657 0.00334964 0.00359476 0.00383503 0.00406353 0.00428027 0.00448525 0.00467846 0.00485991 0.0050296 0.00518753 0.00533147 0.00545922 0.00557076 0.0056661 0.00574525 0.00580819 0.00585493 0.00588547 0.00590168 0.00590541 0.00589667 0.00587546 0.00584177 0.00579561 0.00573697 0.00566587 0.00558602 0.00550118 0.00541134 0.0053165 0.00521666 0.00511182 0.00500199 0.00488716 0.00477049 0.00465514 0.00454113 0.00442844 0.00431707 0.00420703 0.00409832 0.00399094 0.00388601 0.00378468 0.00368694 0.0035928 0.00350225 0.00341529 0.00333193 0.00325217 0.00317524 0.00310041 0.00302767 0.00295703 0.00288848 0.00282201 0.00275765 0.00269537 0.00263384 0.00257172 0.00250899 0.00244566 0.00238173 0.00231721 0.00225208 0.00218636 0.00211944 0.00205074 0.00198025 0.00190798 0.00183392 0.00175808 0.00168045 0.00160103 0.00152056 0.00143975 0.00135862 0.00127715 0.00119535 0.00111322 0.00103075 0.000947953 0.00086649 0.000788025 0.00071256 0.000640094 0.000570627 0.000504159 0.00044069 0.000380221 0.000323809 0.000272513 0.000226332 0.000185268 0.00014932 0.000118487 9.27708e-05 7.21703e-05 5.52554e-05 4.05958e-05 2.81915e-05 1.80426e-05 1.01489e-05 4.51064e-06 1.12766e-06 0 0 8.68867e-06 3.47547e-05 7.8198e-05 0.000139019 0.000217217 0.000312792 0.000425745 0.000556075 0.00070708 0.00088206 0.00108101 0.00130394 0.00155085 0.00182172 0.00211657 0.0024354 0.00276769 0.00310293 0.00344113 0.00378229 0.0041264 0.00447346 0.00482348 0.00517646 0.00552244 0.00585148 0.00616359 0.00645876 0.00673699 0.00699828 0.00724263 0.00747004 0.00767732 0.00786127 0.00802189 0.00815919 0.00827315 0.00836379 0.0084311 0.00847508 0.00849842 0.00850379 0.00849121 0.00846066 0.00841215 0.00834568 0.00826124 0.00815885 0.00804387 0.0079217 0.00779233 0.00765576 0.00751199 0.00736103 0.00720287 0.00703751 0.0068695 0.00670341 0.00653922 0.00637695 0.00621658 0.00605813 0.00590158 0.00574695 0.00559585 0.00544994 0.0053092 0.00517363 0.00504324 0.00491802 0.00479798 0.00468312 0.00457235 0.00446459 0.00435985 0.00425812 0.0041594 0.0040637 0.00397101 0.00388134 0.00379273 0.00370327 0.00361294 0.00352175 0.0034297 0.00333678 0.003243 0.00314836 0.00305199 0.00295306 0.00285156 0.00274749 0.00264084 0.00253163 0.00241984 0.00230549 0.00218961 0.00207325 0.00195641 0.00183909 0.0017213 0.00160303 0.00148428 0.00136505 0.00124775 0.00113476 0.00102609 0.000921735 0.000821703 0.000725989 0.000634594 0.000547518 0.000466284 0.000392418 0.000325919 0.000266786 0.00021502 0.000170622 0.00013359 0.000103925 7.95678e-05 5.84579e-05 4.05958e-05 2.59813e-05 1.46145e-05 6.49533e-06 1.62383e-06 0 0 1.18262e-05 4.7305e-05 0.000106436 0.00018922 0.000295656 0.000425745 0.000579486 0.000756879 0.000962415 0.00120058 0.00147138 0.00177481 0.00211087 0.00247957 0.00288089 0.00331485 0.00376713 0.00422344 0.00468376 0.00514811 0.00561648 0.00608888 0.00656529 0.00704573 0.00751665 0.00796452 0.00838933 0.00879109 0.00916979 0.00952543 0.00985802 0.0101676 0.0104497 0.0107001 0.0109187 0.0111056 0.0112607 0.0113841 0.0114757 0.0115355 0.0115673 0.0115746 0.0115575 0.0115159 0.0114499 0.0113594 0.0112445 0.0111051 0.0109486 0.0107823 0.0106062 0.0104203 0.0102247 0.0100192 0.0098039 0.00957883 0.00935015 0.00912408 0.00890061 0.00867973 0.00846146 0.00824579 0.00803271 0.00782223 0.00761658 0.00741797 0.00722641 0.00704188 0.00686441 0.00669398 0.00653059 0.00637425 0.00622348 0.00607681 0.00593424 0.00579578 0.00566141 0.00553115 0.00540499 0.00528293 0.00516233 0.00504056 0.00491762 0.0047935 0.0046682 0.00454173 0.00441408 0.00428526 0.0041541 0.00401945 0.00388129 0.00373964 0.00359448 0.00344583 0.00329368 0.00313802 0.0029803 0.00282192 0.00266289 0.00250321 0.00234288 0.0021819 0.00202027 0.00185799 0.00169832 0.00154453 0.00139662 0.00125458 0.00111843 0.000988152 0.000863753 0.000745233 0.000634665 0.000534125 0.000443611 0.000363125 0.000292667 0.000232235 0.000181831 0.000141454 0.000108301 7.95678e-05 5.52554e-05 3.53634e-05 1.98919e-05 8.84086e-06 2.21022e-06 0 0 1.54465e-05 6.17861e-05 0.000139019 0.000247144 0.000386163 0.000556075 0.000756879 0.000988577 0.00125703 0.00156811 0.0019218 0.00231812 0.00275706 0.00323862 0.0037628 0.0043296 0.00492033 0.00551632 0.00611757 0.00672406 0.00733582 0.00795282 0.00857508 0.00920259 0.00981767 0.0104026 0.0109575 0.0114822 0.0119769 0.0124414 0.0128758 0.0132801 0.0136486 0.0139756 0.0142611 0.0145052 0.0147078 0.014869 0.0149886 0.0150668 0.0151083 0.0151179 0.0150955 0.0150412 0.0149549 0.0148368 0.0146867 0.0145046 0.0143002 0.014083 0.013853 0.0136102 0.0133547 0.0130863 0.0128051 0.0125111 0.0122124 0.0119172 0.0116253 0.0113368 0.0110517 0.01077 0.0104917 0.0102168 0.00994819 0.00968878 0.00943857 0.00919756 0.00896576 0.00874315 0.00852975 0.00832555 0.00812862 0.00793706 0.00775085 0.00756999 0.0073945 0.00722436 0.00705958 0.00690015 0.00674264 0.00658359 0.00642301 0.00626089 0.00609724 0.00593205 0.00576533 0.00559708 0.00542577 0.00524989 0.00506944 0.00488442 0.00469483 0.00450067 0.00430194 0.00409864 0.00389263 0.00368577 0.00347806 0.0032695 0.00306009 0.00284983 0.00263872 0.00242676 0.00221821 0.00201734 0.00182415 0.00163864 0.0014608 0.00129065 0.00112817 0.000973365 0.00082895 0.000697632 0.000579411 0.000474286 0.000382258 0.000303328 0.000237493 0.000184756 0.000141454 0.000103925 7.21703e-05 4.6189e-05 2.59813e-05 1.15472e-05 2.88681e-06 0 0 1.97913e-05 7.9165e-05 0.000178121 0.00031666 0.000494781 0.000712485 0.000969772 0.00126664 0.00161024 0.00200773 0.00245911 0.00296437 0.00352352 0.00413656 0.00480348 0.00552429 0.0062753 0.00703281 0.00779683 0.00856736 0.00934439 0.0101279 0.010918 0.0117145 0.0124953 0.0132378 0.0139423 0.0146086 0.0152367 0.0158268 0.0163786 0.0168924 0.0173608 0.0177766 0.01814 0.0184509 0.0187093 0.0189151 0.0190685 0.0191693 0.0192237 0.0192375 0.0192109 0.0191438 0.0190361 0.018888 0.0186994 0.0184704 0.0182129 0.0179391 0.0176489 0.0173424 0.0170196 0.0166804 0.0163249 0.0159531 0.0155752 0.0152014 0.0148317 0.0144662 0.0141048 0.0137476 0.0133945 0.0130455 0.0127043 0.0123747 0.0120566 0.01175 0.0114549 0.0111714 0.0108993 0.0106388 0.0103874 0.0101427 0.00990477 0.00967355 0.00944906 0.0092313 0.00902026 0.00881596 0.00861405 0.00841023 0.00820448 0.00799681 0.00778722 0.0075757 0.00736227 0.00714691 0.00692772 0.00670281 0.00647216 0.00623579 0.00599368 0.00574585 0.00549228 0.00523299 0.00497031 0.0047066 0.00444185 0.00417606 0.00390924 0.00364139 0.00337249 0.00310256 0.00283697 0.0025811 0.00233493 0.00209849 0.00187175 0.00165473 0.00144743 0.00124984 0.00106541 0.000897587 0.000746375 0.000611773 0.000493779 0.000392394 0.000307618 0.000239451 0.000183329 0.000134691 9.35354e-05 5.98626e-05 3.36727e-05 1.49657e-05 3.74141e-06 0 0 2.51022e-05 0.000100409 0.00022592 0.000401635 0.000627555 0.00090368 0.00123001 0.00160654 0.00204136 0.00254256 0.00311013 0.00374408 0.00444439 0.00521109 0.00604415 0.00694359 0.00788004 0.00882412 0.00977585 0.0107352 0.0117022 0.0126768 0.0136591 0.014649 0.0156192 0.0165421 0.0174179 0.0182465 0.0190279 0.0197622 0.0204493 0.0210892 0.021673 0.022192 0.0226461 0.0230353 0.0233597 0.0236191 0.0238137 0.0239434 0.0240156 0.0240376 0.0240093 0.0239309 0.0238023 0.0236235 0.0233945 0.0231153 0.0228007 0.0224656 0.02211 0.0217338 0.021337 0.0209197 0.0204819 0.0200235 0.0195571 0.0190955 0.0186384 0.0181861 0.0177384 0.0172953 0.0168569 0.0164232 0.0159987 0.0155881 0.0151914 0.0148085 0.0144395 0.0140844 0.0137431 0.0134157 0.0130994 0.0127912 0.0124911 0.0121992 0.0119155 0.0116399 0.0113725 0.0111133 0.010857 0.0105983 0.0103374 0.0100741 0.00980853 0.00954062 0.0092704 0.00899786 0.0087207 0.00843662 0.00814561 0.00784768 0.00754282 0.00723104 0.00691234 0.00658671 0.00625704 0.00592619 0.00559418 0.005261 0.00492665 0.00459113 0.00425445 0.00391659 0.00358414 0.00326368 0.0029552 0.00265871 0.0023742 0.00210167 0.00184113 0.00159257 0.00136031 0.00114864 0.000957564 0.000787088 0.00063721 0.000507928 0.000399244 0.000311156 0.000238229 0.000175025 0.000121545 7.77891e-05 4.37563e-05 1.94473e-05 4.86182e-06 0 0 3.13794e-05 0.000125518 0.000282415 0.00050207 0.000784485 0.00112966 0.00153759 0.00200828 0.00255039 0.00317259 0.00387486 0.00465722 0.00551967 0.00646219 0.0074848 0.00858749 0.00973455 0.0108903 0.0120546 0.0132276 0.0144093 0.0155996 0.0167985 0.0180061 0.0191894 0.0203155 0.0213844 0.022396 0.0233505 0.0242477 0.0250877 0.0258705 0.0265854 0.0272217 0.0277794 0.0282585 0.028659 0.028981 0.0292244 0.0293891 0.0294841 0.029518 0.0294908 0.0294027 0.0292534 0.0290431 0.0287718 0.0284394 0.0280638 0.0276628 0.0272363 0.0267843 0.026307 0.0258042 0.0252759 0.0247223 0.0241583 0.0235994 0.0230454 0.0224964 0.0219523 0.0214132 0.020879 0.0203499 0.0198313 0.019329 0.0188429 0.0183731 0.0179195 0.0174822 0.0170612 0.0166564 0.0162646 0.0158824 0.0155099 0.015147 0.0147938 0.0144503 0.0141164 0.0137922 0.0134714 0.0131479 0.0128217 0.0124928 0.0121612 0.0118268 0.0114897 0.0111499 0.0108047 0.0104513 0.0100898 0.00972009 0.00934224 0.00895625 0.0085621 0.0081598 0.0077528 0.00734455 0.00693506 0.00652431 0.00611232 0.00569907 0.00528458 0.00486884 0.00445973 0.00406509 0.00368495 0.0033193 0.00296813 0.00263146 0.00230927 0.00200157 0.00171364 0.00145078 0.00121298 0.00100023 0.000812552 0.000649932 0.000512372 0.000399873 0.000306153 0.000224929 0.0001562 9.99683e-05 5.62322e-05 2.49921e-05 6.24802e-06 0 0 3.86228e-05 0.000154491 0.000347605 0.000617965 0.00096557 0.00139042 0.00189252 0.00247186 0.00313733 0.00389781 0.00475331 0.00570382 0.00674934 0.00788988 0.00912543 0.010456 0.0118388 0.0132312 0.0146331 0.0160446 0.0174656 0.0188961 0.0203361 0.0217857 0.023206 0.024558 0.0258417 0.0270571 0.0282043 0.0292833 0.0302939 0.0312364 0.0320978 0.0328657 0.0335399 0.0341204 0.0346074 0.0350007 0.0353004 0.0355064 0.0356291 0.0356788 0.0356554 0.035559 0.0353895 0.035147 0.0348314 0.0344428 0.0340021 0.0335305 0.0330278 0.0324941 0.0319295 0.0313338 0.0307071 0.0300494 0.0293788 0.0287132 0.0280526 0.0273971 0.0267466 0.0261012 0.0254608 0.0248255 0.0242021 0.0235973 0.0230112 0.0224438 0.021895 0.0213649 0.0208535 0.0203608 0.019883 0.0194164 0.018961 0.0185169 0.018084 0.0176623 0.0172518 0.0168525 0.0164573 0.016059 0.0156575 0.0152529 0.0148452 0.0144343 0.0140203 0.0136031 0.0131797 0.0127469 0.0123047 0.011853 0.011392 0.0109215 0.0104416 0.00995226 0.00945761 0.00896168 0.00846447 0.00796599 0.00746624 0.00696521 0.0064629 0.00595932 0.00546372 0.00498534 0.00452419 0.00408026 0.00365357 0.00324409 0.00285185 0.00247683 0.00212542 0.00180402 0.00151261 0.00125121 0.00101981 0.000818403 0.000647002 0.000505601 0.000387101 0.000284401 0.0001975 0.0001264 7.11002e-05 3.16001e-05 7.90002e-06 0 0 4.68324e-05 0.00018733 0.000421492 0.000749319 0.00117081 0.00168597 0.00229479 0.00299727 0.00380218 0.00471824 0.00574547 0.00688386 0.00813342 0.00949415 0.010966 0.0125491 0.0141929 0.015847 0.0175114 0.0191861 0.0208711 0.0225664 0.024272 0.025988 0.0276689 0.0292695 0.0307898 0.0322298 0.0335895 0.0348689 0.036068 0.0371868 0.0382104 0.039124 0.0399275 0.0406211 0.0412047 0.0416782 0.0420418 0.0422953 0.0424508 0.04252 0.042503 0.0423999 0.0422105 0.041935 0.0415732 0.0411253 0.0406156 0.0400687 0.0394845 0.0388631 0.0382045 0.0375086 0.0367754 0.036005 0.0352184 0.0344368 0.0336601 0.0328882 0.0321213 0.0313594 0.0306023 0.0298502 0.0291111 0.0283931 0.0276962 0.0270205 0.0263659 0.0257324 0.02512 0.0245288 0.0239546 0.0233932 0.0228446 0.0223089 0.021786 0.021276 0.0207788 0.0202945 0.0198148 0.0193315 0.0188447 0.0183544 0.0178605 0.017363 0.016862 0.0163575 0.0158458 0.0153234 0.0147903 0.0142465 0.0136919 0.0131267 0.0125508 0.0119641 0.0113715 0.0107776 0.0101824 0.00958605 0.00898842 0.00838954 0.00778941 0.00718803 0.00659612 0.00602442 0.00547291 0.0049416 0.00443049 0.00393958 0.00346887 0.00301835 0.00259564 0.00220835 0.00185647 0.00154001 0.00125897 0.00101334 0.000803134 0.00062834 0.000481073 0.000353441 0.000245445 0.000157085 8.83604e-05 3.92713e-05 9.81782e-06 0 0 5.60083e-05 0.000224033 0.000504074 0.000896132 0.00140021 0.0020163 0.0027444 0.00358453 0.00454493 0.00563387 0.00685134 0.00819736 0.00967191 0.011275 0.0130066 0.0148668 0.0167967 0.0187376 0.0206894 0.0226521 0.0246259 0.0266105 0.0286062 0.0306127 0.0325781 0.0344501 0.0362288 0.0379141 0.039506 0.0410046 0.0424098 0.0437217 0.044923 0.0459966 0.0469424 0.0477605 0.048451 0.0490136 0.0494486 0.0497558 0.049949 0.0500416 0.0500337 0.0499254 0.0497165 0.0494072 0.0489973 0.048487 0.0479043 0.0472775 0.0466065 0.0458913 0.045132 0.0443285 0.0434808 0.042589 0.0416773 0.0407703 0.0398678 0.0389698 0.0380765 0.0371877 0.0363035 0.0354238 0.0345583 0.0337163 0.032898 0.0321033 0.0313322 0.0305847 0.0298609 0.0291606 0.0284794 0.0278128 0.0271606 0.026523 0.0259 0.0252914 0.0246974 0.0241179 0.0235437 0.0229655 0.0223834 0.0217972 0.0212071 0.020613 0.020015 0.0194129 0.0188029 0.0181808 0.0175466 0.0169004 0.0162422 0.015572 0.0148897 0.0141953 0.0134944 0.0127922 0.0120889 0.0113845 0.0106789 0.00997206 0.00926409 0.00855496 0.00785694 0.00718233 0.00653112 0.00590332 0.00529891 0.00471792 0.00416032 0.00362613 0.0031243 0.00266377 0.00224456 0.00186665 0.00153005 0.00123475 0.000980768 0.000768091 0.00058807 0.000432051 0.000300035 0.000192023 0.000108013 4.80057e-05 1.20014e-05 0 0 6.61503e-05 0.000264601 0.000595353 0.0010584 0.00165376 0.00238141 0.00324137 0.00423362 0.00536559 0.00664469 0.00807093 0.00964429 0.0113648 0.0132324 0.0152472 0.0174091 0.0196503 0.021903 0.0241671 0.0264428 0.0287299 0.0310285 0.0333385 0.0356601 0.0379337 0.0400999 0.0421586 0.04411 0.0459539 0.0476904 0.0493195 0.0508411 0.0522357 0.0534835 0.0545845 0.0555387 0.0563462 0.0570069 0.0575208 0.0578879 0.0581237 0.0582436 0.0582475 0.0581354 0.0579075 0.0575635 0.0571037 0.0565279 0.0558683 0.0551568 0.0543937 0.0535787 0.052712 0.0517936 0.0508233 0.0498013 0.0487555 0.0477136 0.0466757 0.0456419 0.044612 0.0435862 0.0425643 0.0415465 0.0405437 0.0395671 0.0386166 0.0376922 0.036794 0.0359219 0.0350759 0.0342561 0.0334575 0.0326751 0.031909 0.0311593 0.0304258 0.0297085 0.0290076 0.0283229 0.0276442 0.026961 0.0262735 0.0255815 0.0248851 0.0241843 0.0234791 0.0227695 0.022051 0.021319 0.0205737 0.0198149 0.0190428 0.0182572 0.0174583 0.0166459 0.0158263 0.0150057 0.014184 0.0133613 0.0125375 0.0117128 0.010887 0.0100601 0.00924617 0.00845907 0.00769881 0.0069654 0.00625883 0.0055791 0.00492622 0.00430018 0.0037114 0.00317029 0.00267686 0.00223111 0.00183303 0.00148263 0.0011799 0.000924852 0.00070809 0.000520229 0.00036127 0.000231213 0.000130057 5.78033e-05 1.44508e-05 0 0 7.72586e-05 0.000309034 0.000695327 0.00123614 0.00193146 0.00278131 0.00378567 0.00494455 0.00626416 0.00775072 0.00940423 0.0112247 0.0132121 0.0153664 0.0176877 0.020176 0.0227536 0.0253432 0.0279446 0.0305579 0.0331831 0.0358202 0.0384692 0.04113 0.0437356 0.0462187 0.0485793 0.0508174 0.052933 0.0549262 0.0567969 0.0585451 0.0601485 0.0615847 0.0628538 0.0639557 0.0648904 0.065658 0.0662584 0.0666916 0.0669751 0.0671259 0.0671443 0.0670301 0.0667834 0.0664041 0.0658923 0.065248 0.0645074 0.0637067 0.0628461 0.0619253 0.0609446 0.0599038 0.058803 0.0576421 0.0564528 0.0552668 0.0540839 0.0529043 0.0517279 0.0505548 0.0493848 0.0482181 0.0470674 0.0459453 0.0448519 0.0437872 0.0427512 0.0417439 0.0407652 0.0398153 0.0388887 0.0379803 0.0370899 0.0362176 0.0353634 0.0345273 0.0337093 0.0329094 0.0321161 0.031318 0.030515 0.0297071 0.0288944 0.0280769 0.0272544 0.0264272 0.0255901 0.0247382 0.0238715 0.02299 0.0220936 0.0211825 0.0202566 0.0193158 0.0183673 0.0174178 0.0164676 0.0155165 0.0145645 0.0136117 0.012658 0.0117035 0.0107638 0.00985464 0.00897599 0.00812786 0.00731024 0.00652314 0.00576656 0.00504049 0.00435694 0.00372791 0.0031534 0.0026334 0.00216793 0.00175698 0.00140054 0.00109863 0.000841135 0.000617977 0.00042915 0.000274656 0.000154494 6.86641e-05 1.7166e-05 0 0 8.92606e-05 0.000357042 0.000803345 0.00142817 0.00223151 0.00321338 0.00437377 0.00571268 0.00723475 0.00894463 0.0108423 0.0129278 0.0152011 0.0176622 0.0203111 0.0231478 0.0260844 0.0290332 0.0319941 0.034967 0.0379521 0.0409493 0.0439586 0.0469799 0.0499382 0.052758 0.0554395 0.0579826 0.0603873 0.0626536 0.0647816 0.0667711 0.0685972 0.0702346 0.0716835 0.0729437 0.0740153 0.0748983 0.0755927 0.0760985 0.0764349 0.0766213 0.0766576 0.0765438 0.07628 0.0758661 0.0753021 0.074588 0.0737645 0.072872 0.0719105 0.0708802 0.0697808 0.0686126 0.0673754 0.0660692 0.0647297 0.0633923 0.062057 0.0607239 0.0593929 0.058064 0.0567373 0.0554127 0.0541047 0.0528279 0.0515823 0.0503678 0.0491845 0.0480323 0.0469113 0.0458215 0.0447571 0.0437127 0.0426882 0.0416835 0.0406988 0.0397339 0.038789 0.0378639 0.0369462 0.0360231 0.0350948 0.0341612 0.0332222 0.032278 0.0313285 0.0303736 0.0294081 0.0284263 0.0274283 0.0264142 0.0253838 0.0243373 0.0232745 0.0221956 0.0211082 0.0200203 0.0189318 0.0178426 0.0167529 0.0156626 0.0145717 0.0134802 0.0124056 0.0113653 0.0103595 0.009388 0.00845091 0.00754821 0.00667989 0.00584595 0.0050601 0.00433605 0.00367379 0.00307334 0.00253468 0.00205782 0.00164275 0.00128948 0.000987259 0.000725333 0.000503703 0.00032237 0.000181333 8.05925e-05 2.01481e-05 0 0 0.000102084 0.000408335 0.000918754 0.00163334 0.0025521 0.00367502 0.00500211 0.00653336 0.00827147 0.0102191 0.0123762 0.0147429 0.0173191 0.0201048 0.0231001 0.0263048 0.0296204 0.032948 0.0362877 0.0396395 0.0430033 0.0463792 0.0497672 0.0531672 0.0564958 0.0596694 0.0626881 0.0655518 0.0682605 0.0708142 0.073213 0.0754568 0.0775177 0.0793678 0.081007 0.0824353 0.0836528 0.0846594 0.0854552 0.0860401 0.0864354 0.0866624 0.086721 0.0866112 0.0863331 0.0858867 0.0852719 0.0844888 0.0835823 0.0825973 0.081534 0.0803922 0.0791719 0.0778733 0.0764962 0.0750407 0.0735463 0.0720526 0.0705595 0.0690671 0.0675754 0.0660843 0.0645939 0.0631041 0.0616314 0.0601921 0.0587862 0.0574137 0.0560746 0.054769 0.0534967 0.0522579 0.0510466 0.0498569 0.0486888 0.0475424 0.0464176 0.0453144 0.0442329 0.0431729 0.0421209 0.0410632 0.0399998 0.0389306 0.0378557 0.036775 0.0356886 0.0345965 0.0334928 0.0323715 0.0312326 0.0300763 0.0289024 0.027711 0.026502 0.0252755 0.0240402 0.0228045 0.0215686 0.0203325 0.019096 0.0178594 0.0166224 0.0153852 0.0141671 0.0129874 0.011846 0.0107431 0.0096786 0.00865248 0.00766477 0.00671545 0.00582007 0.00499415 0.0042377 0.00355073 0.00293321 0.00238517 0.0019066 0.00149749 0.00114652 0.000842338 0.000584957 0.000374373 0.000210585 9.35932e-05 2.33983e-05 0 0 0.000115728 0.000462913 0.00104155 0.00185165 0.00289321 0.00416622 0.00567068 0.00740661 0.00937431 0.0115741 0.014006 0.01667 0.0195662 0.0226944 0.0260547 0.0296471 0.0333615 0.0370877 0.0408256 0.0445753 0.0483368 0.0521101 0.0558951 0.0596919 0.0634085 0.0669529 0.070325 0.0735249 0.0765526 0.079408 0.0820912 0.0846021 0.08691 0.088984 0.0908241 0.0924304 0.0938027 0.0949411 0.0958457 0.0965164 0.0969764 0.097249 0.0973343 0.0972323 0.0969428 0.096466 0.0958018 0.0949503 0.0939608 0.0928828 0.0917163 0.0904614 0.0891179 0.0876859 0.0861655 0.0845565 0.0829027 0.0812477 0.0795915 0.0779341 0.0762754 0.0746156 0.0729546 0.0712924 0.0696473 0.0680377 0.0664635 0.0649248 0.0634216 0.0619538 0.0605215 0.0591246 0.0577571 0.0564129 0.055092 0.0537943 0.0525199 0.0512688 0.050041 0.0488364 0.0476404 0.0464382 0.0452299 0.0440154 0.0427947 0.0415679 0.0403349 0.0390958 0.0378441 0.0365737 0.0352844 0.0339763 0.0326494 0.0313036 0.0299391 0.0285557 0.027163 0.0257705 0.0243781 0.0229859 0.0215939 0.020202 0.0188102 0.0174186 0.0160484 0.0147208 0.0134357 0.0121932 0.0109933 0.00983597 0.0087212 0.00764899 0.00663684 0.00570221 0.00484512 0.00406557 0.00336354 0.00273905 0.00219208 0.00172266 0.00131891 0.000968993 0.000672912 0.000430664 0.000242248 0.000107666 2.69165e-05 0 0 0.000130194 0.000520776 0.00117175 0.0020831 0.00325485 0.00468698 0.0063795 0.00833241 0.0105433 0.0130097 0.0157317 0.0187092 0.0219422 0.0254308 0.029175 0.0331747 0.0373078 0.0414521 0.0456076 0.0497744 0.0539525 0.0581417 0.0623422 0.066554 0.0706763 0.0746083 0.0783503 0.081902 0.0852635 0.0884349 0.0914161 0.0942071 0.0967741 0.0990835 0.101135 0.102929 0.104465 0.105744 0.106764 0.107527 0.108058 0.108381 0.108498 0.108407 0.108109 0.107604 0.106892 0.105972 0.1049 0.103728 0.102458 0.101088 0.0996187 0.0980505 0.0963832 0.0946166 0.0927988 0.0909776 0.0891529 0.0873247 0.0854931 0.083658 0.0818195 0.0799775 0.0781525 0.0763648 0.0746143 0.0729012 0.0712253 0.0695868 0.0679855 0.0664216 0.0648887 0.0633807 0.0618975 0.0604392 0.0590057 0.0575971 0.0562133 0.0548544 0.0535046 0.0521482 0.0507852 0.0494156 0.0480395 0.0466567 0.0452674 0.0438714 0.0424622 0.0410329 0.0395836 0.0381142 0.0366247 0.0351152 0.0335857 0.0320361 0.0304768 0.0289182 0.0273603 0.025803 0.0242464 0.0226904 0.0211351 0.0195804 0.0180496 0.0165656 0.0151285 0.0137384 0.0123951 0.0110987 0.00984918 0.00864657 0.00751041 0.00646024 0.00549606 0.00461786 0.00382566 0.00311944 0.00249921 0.00196497 0.00150443 0.0011053 0.000767568 0.000491243 0.000276324 0.000122811 3.07027e-05 0 0 0.000145481 0.000581923 0.00130933 0.00232769 0.00363702 0.00523731 0.00712856 0.00931077 0.0117784 0.0145259 0.0175532 0.0208603 0.0244473 0.0283142 0.0324609 0.0368875 0.0414592 0.0460413 0.0506339 0.0552369 0.0598504 0.0644743 0.0691086 0.0737534 0.078299 0.0826358 0.0867638 0.090683 0.0943934 0.097895 0.101188 0.104272 0.10711 0.109666 0.11194 0.113931 0.11564 0.117067 0.118211 0.119073 0.11968 0.120059 0.120211 0.120135 0.119832 0.119301 0.118542 0.117555 0.1164 0.115134 0.113758 0.112271 0.110674 0.108967 0.107149 0.105221 0.103235 0.101242 0.0992437 0.0972391 0.0952283 0.0932115 0.0911886 0.0891596 0.087147 0.0851733 0.0832386 0.0813428 0.0794859 0.0776679 0.0758889 0.0741488 0.0724414 0.0707602 0.0691055 0.067477 0.065875 0.0642992 0.0627498 0.0612268 0.0597134 0.058193 0.0566656 0.0551312 0.0535898 0.0520414 0.050486 0.0489235 0.047347 0.0457492 0.0441302 0.0424899 0.0408285 0.0391458 0.0374419 0.0357167 0.0339816 0.0322477 0.0305151 0.0287837 0.0270536 0.0253247 0.023597 0.0218706 0.0201705 0.0185218 0.0169244 0.0153785 0.0138838 0.0124406 0.0110487 0.0097082 0.00844079 0.00726822 0.0061905 0.00520761 0.00431956 0.00352635 0.00282798 0.00222445 0.00170309 0.00125125 0.000868925 0.000556112 0.000312813 0.000139028 3.4757e-05 0 0 0.000161589 0.000646355 0.0014543 0.00258542 0.00403972 0.0058172 0.00791785 0.0103417 0.0130796 0.0161226 0.0194705 0.0231235 0.0270815 0.0313445 0.0359125 0.0407855 0.0458157 0.0508553 0.0559043 0.0609627 0.0660305 0.0711077 0.0761943 0.0812903 0.0862769 0.0910354 0.0955658 0.099868 0.103942 0.107788 0.111406 0.114796 0.117918 0.120732 0.123238 0.125437 0.127328 0.128911 0.130186 0.131153 0.131843 0.132283 0.132475 0.132417 0.132111 0.131556 0.130752 0.129699 0.128461 0.1271 0.125617 0.124012 0.122285 0.120435 0.118464 0.11637 0.11421 0.112042 0.109864 0.107677 0.105481 0.103276 0.101062 0.0988384 0.0966307 0.0944633 0.0923363 0.0902496 0.0882033 0.0861973 0.0842316 0.0823063 0.0804151 0.0785516 0.0767159 0.0749079 0.0731277 0.0713753 0.0696506 0.0679537 0.066267 0.0645728 0.0628712 0.0611622 0.0594458 0.0577219 0.0559907 0.054252 0.0524984 0.0507225 0.0489242 0.0471036 0.0452606 0.0433953 0.0415076 0.0395976 0.0376773 0.035759 0.0338426 0.0319281 0.0300155 0.0281048 0.026196 0.024289