<?xml version="1.0"?> 
<VTKFile type="StructuredGrid" version="0.1"> 
<StructuredGrid WholeExtent="0 128 0 128 0 0"> 
<Piece Extent="0 128 0 128 0 0"> 
<PointData>
<DataArray type="Float32" Name="u" format="ascii" NumberOfComponents="1"> 
0 0 0 0 0 0 0 0 0 0 0 0 0 0 0 0 0 0 0 0 0 0 0 0 0 0 0 0 0 0 0 0 0 0 0 0 0 0 0 0 0 0 0 0 0 0 0 0 0 0 0 0 0 0 0 0 0 0 0 0 0 0 0 0 0 0 0 0 0 0 0 0 0 0 0 0 0 0 0 0 0 0 0 0 0 0 0 0 0 0 0 0 0 0 0 0 0 0 0 0 0 0 0 0 0 0 0 0 0 0 0 0 0 0 0 0 0 0 0 0 0 0 0 0 0 0 0 0 0 0 8.48934e-08 3.39574e-07 7.64041e-07 1.3583e-06 2.12234e-06 3.05616e-06 4.15978e-06 5.43318e-06 6.99583e-06 8.96717e-06 1.13472e-05 1.4136e-05 1.73334e-05 2.09396e-05 2.49544e-05 2.93779e-05 3.40798e-05 3.89296e-05 4.39273e-05 4.9073e-05 5.43666e-05 5.98082e-05 6.53976e-05 7.11351e-05 7.68225e-05 8.2262e-05 8.74536e-05 9.23973e-05 9.7093e-05 0.000101541 0.000105741 0.000109693 0.000113298 0.000116456 0.000119167 0.000121432 0.000123249 0.000124621 0.000125545 0.000126023 0.000126098 0.000125812 0.000125167 0.000124161 0.000122796 0.000121071 0.000118986 0.000116541 0.000113872 0.000111116 0.000108273 0.000105343 0.000102326 9.92223e-05 9.60311e-05 9.27527e-05 8.95085e-05 8.64196e-05 8.3486e-05 8.07077e-05 7.80847e-05 7.56171e-05 7.33047e-05 7.11477e-05 6.91686e-05 6.73898e-05 6.58115e-05 6.44336e-05 6.32561e-05 6.2279e-05 6.15023e-05 6.09261e-05 6.048e-05 6.00936e-05 5.97671e-05 5.95005e-05 5.92936e-05 5.91465e-05 5.90593e-05 5.90319e-05 5.89799e-05 5.8819e-05 5.85492e-05 5.81704e-05 5.76827e-05 5.70861e-05 5.63805e-05 5.5566e-05 5.46198e-05 5.3519e-05 5.22637e-05 5.08538e-05 4.92893e-05 4.75703e-05 4.56967e-05 4.36685e-05 4.15379e-05 3.93571e-05 3.71261e-05 3.48447e-05 3.25132e-05 3.01313e-05 2.76993e-05 2.52169e-05 2.2765e-05 2.04241e-05 1.81941e-05 1.60752e-05 1.40673e-05 1.21704e-05 1.03845e-05 8.70963e-06 7.17402e-06 5.80596e-06 4.60545e-06 3.57248e-06 2.70706e-06 2.00918e-06 1.47885e-06 1.11606e-06 8.54484e-07 6.27784e-07 4.35961e-07 2.79015e-07 1.56946e-07 6.97538e-08 1.74384e-08 0 0 3.39574e-07 1.3583e-06 3.05616e-06 5.43318e-06 8.48934e-06 1.22247e-05 1.66391e-05 2.17327e-05 2.79833e-05 3.58687e-05 4.53889e-05 5.65438e-05 6.93336e-05 8.37582e-05 9.98176e-05 0.000117512 0.000136319 0.000155718 0.000175709 0.000196292 0.000217466 0.000239233 0.000261591 0.00028454 0.00030729 0.000329048 0.000349814 0.000369589 0.000388372 0.000406164 0.000422963 0.000438771 0.00045319 0.000465822 0.000476668 0.000485726 0.000492998 0.000498483 0.000502181 0.000504092 0.00050439 0.000503248 0.000500667 0.000496646 0.000491184 0.000484284 0.000475943 0.000466162 0.000455488 0.000444465 0.000433094 0.000421374 0.000409306 0.000396889 0.000384124 0.000371011 0.000358034 0.000345678 0.000333944 0.000322831 0.000312339 0.000302468 0.000293219 0.000284591 0.000276674 0.000269559 0.000263246 0.000257734 0.000253024 0.000249116 0.000246009 0.000243704 0.00024192 0.000240375 0.000239069 0.000238002 0.000237174 0.000236586 0.000236237 0.000236128 0.00023592 0.000235276 0.000234197 0.000232682 0.000230731 0.000228344 0.000225522 0.000222264 0.000218479 0.000214076 0.000209055 0.000203415 0.000197157 0.000190281 0.000182787 0.000174674 0.000166152 0.000157429 0.000148504 0.000139379 0.000130053 0.000120525 0.000110797 0.000100868 9.106e-05 8.16962e-05 7.27765e-05 6.43008e-05 5.62692e-05 4.86816e-05 4.1538e-05 3.48385e-05 2.86961e-05 2.32239e-05 1.84218e-05 1.42899e-05 1.08282e-05 8.03672e-06 5.91539e-06 4.46424e-06 3.41793e-06 2.51114e-06 1.74384e-06 1.11606e-06 6.27784e-07 2.79015e-07 6.97538e-08 0 0 7.64041e-07 3.05616e-06 6.87637e-06 1.22247e-05 1.9101e-05 2.75055e-05 3.7438e-05 4.88986e-05 6.29624e-05 8.07045e-05 0.000102125 0.000127224 0.000156001 0.000188456 0.00022459 0.000264401 0.000306718 0.000350366 0.000395346 0.000441657 0.0004893 0.000538273 0.000588579 0.000640216 0.000691402 0.000740358 0.000787082 0.000831576 0.000873837 0.000913868 0.000951668 0.000987236 0.00101968 0.0010481 0.0010725 0.00109288 0.00110925 0.00112159 0.00112991 0.00113421 0.00113488 0.00113231 0.0011265 0.00111745 0.00110517 0.00108964 0.00107087 0.00104887 0.00102485 0.00100005 0.000974461 0.000948091 0.000920938 0.000893001 0.00086428 0.000834775 0.000805576 0.000777776 0.000751374 0.000726369 0.000702762 0.000680554 0.000659743 0.000640329 0.000622517 0.000606508 0.000592303 0.000579902 0.000569305 0.000560511 0.000553521 0.000548335 0.00054432 0.000540843 0.000537904 0.000535504 0.000533642 0.000532319 0.000531534 0.000531287 0.000530819 0.000529371 0.000526942 0.000523534 0.000519144 0.000513775 0.000507425 0.000500094 0.000491578 0.000481671 0.000470373 0.000457684 0.000443604 0.000428132 0.00041127 0.000393017 0.000373841 0.000354214 0.000334135 0.000313603 0.000292619 0.000271182 0.000249293 0.000226953 0.000204885 0.000183817 0.000163747 0.000144677 0.000126606 0.000109534 9.34606e-05 7.83866e-05 6.45662e-05 5.22537e-05 4.14491e-05 3.21523e-05 2.43635e-05 1.80826e-05 1.33096e-05 1.00445e-05 7.69035e-06 5.65006e-06 3.92365e-06 2.51114e-06 1.41251e-06 6.27784e-07 1.56946e-07 0 0 1.3583e-06 5.43318e-06 1.22247e-05 2.17327e-05 3.39574e-05 4.88986e-05 6.65565e-05 8.69309e-05 0.000111933 0.000143475 0.000181555 0.000226175 0.000277334 0.000335033 0.00039927 0.000470047 0.000545277 0.000622874 0.000702837 0.000785168 0.000869866 0.000956931 0.00104636 0.00113816 0.00122916 0.00131619 0.00139926 0.00147836 0.00155349 0.00162465 0.00169185 0.00175509 0.00181276 0.00186329 0.00190667 0.0019429 0.00197199 0.00199393 0.00200872 0.00201637 0.00201756 0.00201299 0.00200267 0.00198658 0.00196474 0.00193713 0.00190377 0.00186465 0.00182195 0.00177786 0.00173237 0.0016855 0.00163722 0.00158756 0.0015365 0.00148404 0.00143214 0.00138271 0.00133578 0.00129132 0.00124936 0.00120987 0.00117288 0.00113836 0.0011067 0.00107824 0.00105298 0.00103094 0.0010121 0.000996464 0.000984038 0.000974818 0.000967679 0.000961498 0.000956274 0.000952007 0.000948697 0.000946345 0.000944949 0.00094451 0.000943678 0.000941104 0.000936787 0.000930726 0.000922923 0.000913377 0.000902088 0.000889057 0.000873917 0.000856304 0.000836219 0.00081366 0.000788629 0.000761124 0.000731147 0.000698696 0.000664607 0.000629714 0.000594017 0.000557516 0.000520211 0.000482102 0.000443188 0.000403471 0.00036424 0.000326785 0.000291106 0.000257203 0.000225077 0.000194726 0.000166152 0.000139354 0.000114784 9.28954e-05 7.36872e-05 5.71597e-05 4.33129e-05 3.21469e-05 2.36616e-05 1.7857e-05 1.36717e-05 1.00445e-05 6.97538e-06 4.46424e-06 2.51114e-06 1.11606e-06 2.79015e-07 0 0 2.12234e-06 8.48934e-06 1.9101e-05 3.39574e-05 5.30584e-05 7.64041e-05 0.000103994 0.00013583 0.000174896 0.000224179 0.00028368 0.000353399 0.000433335 0.000523489 0.00062386 0.000734449 0.000851995 0.00097324 0.00109818 0.00122683 0.00135917 0.0014952 0.00163494 0.00177838 0.00192056 0.00205655 0.00218634 0.00230993 0.00242733 0.00253852 0.00264352 0.00274232 0.00283244 0.00291139 0.00297917 0.00303579 0.00308124 0.00311552 0.00313863 0.00315058 0.00315244 0.0031453 0.00312917 0.00310403 0.0030699 0.00302677 0.00297464 0.00291352 0.0028468 0.00277791 0.00270684 0.00263359 0.00255816 0.00248056 0.00240078 0.00231882 0.00223771 0.00216049 0.00208715 0.00201769 0.00195212 0.00189043 0.00183262 0.00177869 0.00172921 0.00168475 0.00164529 0.00161084 0.0015814 0.00155698 0.00153756 0.00152315 0.001512 0.00150234 0.00149418 0.00148751 0.00148234 0.00147866 0.00147648 0.0014758 0.0014745 0.00147047 0.00146373 0.00145426 0.00144207 0.00142715 0.00140951 0.00138915 0.0013655 0.00133798 0.00130659 0.00127134 0.00123223 0.00118926 0.00114242 0.00109171 0.00103845 0.000983928 0.000928151 0.000871119 0.000812829 0.000753284 0.000692482 0.000630424 0.000569125 0.000510601 0.000454853 0.00040188 0.000351682 0.00030426 0.000259613 0.000217741 0.000179351 0.000145149 0.000115136 8.9312e-05 6.76765e-05 5.02295e-05 3.69712e-05 2.79015e-05 2.13621e-05 1.56946e-05 1.0899e-05 6.97538e-06 3.92365e-06 1.74384e-06 4.35961e-07 0 0 3.05616e-06 1.22247e-05 2.75055e-05 4.88986e-05 7.64041e-05 0.000110022 0.000149752 0.000195595 0.00025185 0.000322818 0.0004085 0.000508895 0.000624003 0.000753824 0.000898358 0.00105761 0.00122687 0.00140147 0.00158138 0.00176663 0.0019572 0.00215309 0.00235432 0.00256086 0.00276561 0.00296143 0.00314833 0.0033263 0.00349535 0.00365547 0.00380667 0.00394894 0.00407871 0.0041924 0.00429001 0.00437154 0.00443698 0.00448634 0.00451963 0.00453683 0.00453951 0.00452924 0.004506 0.00446981 0.00442066 0.00435855 0.00428349 0.00419546 0.00409939 0.00400019 0.00389784 0.00379237 0.00368375 0.003572 0.00345712 0.0033391 0.00322231 0.0031111 0.00300549 0.00290548 0.00281105 0.00272221 0.00263897 0.00256132 0.00249007 0.00242603 0.00236921 0.00231961 0.00227722 0.00224204 0.00221408 0.00219334 0.00217728 0.00216337 0.00215162 0.00214202 0.00213457 0.00212928 0.00212613 0.00212515 0.00212328 0.00211748 0.00210777 0.00209413 0.00207658 0.0020551 0.0020297 0.00200038 0.00196631 0.00192668 0.00188149 0.00183074 0.00177441 0.00171253 0.00164508 0.00157207 0.00149537 0.00141686 0.00133654 0.00125441 0.00117047 0.00108473 0.000997174 0.00090781 0.00081954 0.000735266 0.000654989 0.000578708 0.000506423 0.000438134 0.000373842 0.000313547 0.000258265 0.000209015 0.000165796 0.000128609 9.74541e-05 7.23305e-05 5.32385e-05 4.01782e-05 3.07614e-05 2.26002e-05 1.56946e-05 1.00445e-05 5.65006e-06 2.51114e-06 6.27784e-07 0 0 4.15978e-06 1.66391e-05 3.7438e-05 6.65565e-05 0.000103994 0.000149752 0.000203829 0.000266226 0.000342795 0.000439391 0.000556014 0.000692662 0.000849337 0.00102604 0.00122277 0.00143952 0.00166991 0.00190755 0.00215244 0.00240458 0.00266396 0.0029306 0.00320448 0.00348562 0.0037643 0.00403084 0.00428523 0.00452747 0.00475756 0.0049755 0.0051813 0.00537495 0.00555158 0.00570632 0.00583918 0.00595014 0.00603922 0.00610641 0.00615171 0.00617513 0.00617878 0.00616479 0.00613317 0.00608391 0.00601701 0.00593247 0.0058303 0.00571049 0.00557973 0.0054447 0.0053054 0.00516183 0.005014 0.00486189 0.00470552 0.00454488 0.00438592 0.00423456 0.00409081 0.00395468 0.00382615 0.00370524 0.00359193 0.00348624 0.00338926 0.0033021 0.00322476 0.00315725 0.00309955 0.00305167 0.00301361 0.00298538 0.00296352 0.00294459 0.00292859 0.00291552 0.00290539 0.00289818 0.00289391 0.00289256 0.00289002 0.00288213 0.00286891 0.00285035 0.00282645 0.00279722 0.00276265 0.00272274 0.00267637 0.00262243 0.00256092 0.00249183 0.00241517 0.00233094 0.00223914 0.00213976 0.00203536 0.0019285 0.00181918 0.00170739 0.00159315 0.00147644 0.00135726 0.00123563 0.00111548 0.00100078 0.000891512 0.000787685 0.000689298 0.00059635 0.000508841 0.000426772 0.000351527 0.000284492 0.000225667 0.000175052 0.000132646 9.84499e-05 7.24636e-05 5.4687e-05 4.18697e-05 3.07614e-05 2.13621e-05 1.36717e-05 7.69035e-06 3.41793e-06 8.54484e-07 0 0 5.43318e-06 2.17327e-05 4.88986e-05 8.69309e-05 0.00013583 0.000195595 0.000266226 0.000347724 0.000447733 0.000573899 0.000726222 0.000904701 0.00110934 0.00134013 0.00159708 0.00188019 0.00218111 0.00249149 0.00281135 0.00314067 0.00347946 0.00382772 0.00418545 0.00455264 0.00491664 0.00526477 0.00559703 0.00591343 0.00621395 0.00649862 0.00676741 0.00702034 0.00725104 0.00745316 0.00762668 0.00777162 0.00788796 0.00797572 0.00803489 0.00806547 0.00807024 0.00805197 0.00801067 0.00794633 0.00785895 0.00774854 0.00761509 0.0074586 0.00728781 0.00711144 0.0069295 0.00674198 0.00654889 0.00635023 0.00614599 0.00593617 0.00572854 0.00553085 0.0053431 0.00516529 0.00499742 0.00483949 0.0046915 0.00455345 0.00442679 0.00431295 0.00421194 0.00412375 0.00404839 0.00398586 0.00393615 0.00389927 0.00387072 0.00384599 0.0038251 0.00380803 0.00379479 0.00378538 0.0037798 0.00377804 0.00377471 0.00376442 0.00374715 0.00372291 0.00369169 0.00365351 0.00360835 0.00355623 0.00349567 0.00342522 0.00334487 0.00325464 0.00315451 0.0030445 0.00292459 0.00279478 0.00265843 0.00251886 0.00237607 0.00223006 0.00208084 0.00192841 0.00177275 0.00161388 0.00145696 0.00130714 0.00116442 0.00102881 0.000900307 0.000778905 0.000664608 0.000557416 0.000459137 0.000371582 0.000294749 0.000228639 0.000173252 0.000128588 9.46463e-05 7.14279e-05 5.4687e-05 4.01782e-05 2.79015e-05 1.7857e-05 1.00445e-05 4.46424e-06 1.11606e-06 0 0 7.12114e-06 2.84845e-05 6.40902e-05 0.000113938 0.000178028 0.000256361 0.000348936 0.000455753 0.000586276 0.00074997 0.000946833 0.00117687 0.00144007 0.00173645 0.00206599 0.0024287 0.00281392 0.00321097 0.00361986 0.00404058 0.00447313 0.00491752 0.00537375 0.0058418 0.00630569 0.00674939 0.0071729 0.00757624 0.00795938 0.00832235 0.00866513 0.00898773 0.00928211 0.00954025 0.00976215 0.00994781 0.0100972 0.0102104 0.0102873 0.010328 0.0103359 0.0103147 0.0102641 0.0101844 0.0100754 0.00993713 0.00976966 0.00957295 0.00935802 0.0091359 0.00890659 0.00867007 0.00842636 0.00817545 0.00791735 0.00765204 0.00738935 0.00713905 0.00690115 0.00667565 0.00646255 0.00626186 0.00607356 0.00589767 0.00573602 0.00559046 0.00546098 0.00534759 0.00525029 0.00516908 0.00510395 0.00505491 0.00501631 0.0049825 0.00495347 0.00492924 0.00490979 0.00489514 0.00488527 0.00488019 0.0048731 0.00485723 0.00483255 0.00479908 0.00475681 0.00470575 0.00464589 0.00457724 0.00449796 0.0044062 0.00430199 0.0041853 0.00405615 0.00391453 0.00376045 0.0035939 0.00341909 0.00324023 0.00305732 0.00287037 0.00267936 0.0024843 0.00228519 0.00208204 0.00188135 0.00168963 0.00150689 0.00133312 0.00116833 0.00101252 0.000865686 0.000727825 0.000601271 0.000488351 0.000389067 0.000303417 0.000231402 0.000173023 0.000128278 9.71686e-05 7.43947e-05 5.46573e-05 3.79565e-05 2.42921e-05 1.36643e-05 6.07303e-06 1.51826e-06 0 0 9.46842e-06 3.78737e-05 8.52157e-05 0.000151495 0.00023671 0.000340863 0.000463952 0.000605979 0.000778039 0.000991232 0.00124556 0.00154101 0.0018776 0.00225532 0.00267417 0.00313416 0.00362181 0.00412366 0.00463971 0.00516996 0.00571441 0.00627306 0.00684591 0.00743296 0.00801451 0.00857086 0.00910201 0.00960795 0.0100887 0.0105442 0.0109746 0.0113797 0.0117498 0.012075 0.0123552 0.0125906 0.012781 0.0129265 0.0130271 0.0130828 0.0130979 0.0130767 0.0130192 0.0129253 0.0127951 0.0126286 0.0124258 0.0121867 0.0119248 0.0116536 0.0113731 0.0110833 0.0107843 0.010476 0.0101584 0.00983157 0.00950748 0.0091982 0.00890373 0.00862408 0.00835924 0.00810921 0.007874 0.00765359 0.00745032 0.00726651 0.00710215 0.00695725 0.00683181 0.00672582 0.00663928 0.0065722 0.00651773 0.00646901 0.00642606 0.00638885 0.00635741 0.00633172 0.00631179 0.00629761 0.00628092 0.00625345 0.00621519 0.00616616 0.00610633 0.00603573 0.00595434 0.00586217 0.00575699 0.00563656 0.00550088 0.00534997 0.0051838 0.0050024 0.00480574 0.00459385 0.00437186 0.00414493 0.00391305 0.00367624 0.00343448 0.00318778 0.00293614 0.00267956 0.00242602 0.00218352 0.00195206 0.00173164 0.00152226 0.00132392 0.00113661 0.000960346 0.000798102 0.000652869 0.000524646 0.000413432 0.000319229 0.000242035 0.000181851 0.000138677 0.000106174 7.80057e-05 5.41706e-05 3.46692e-05 1.95014e-05 8.66729e-06 2.16682e-06 0 0 1.2475e-05 4.99001e-05 0.000112275 0.0001996 0.000311875 0.000449101 0.000611276 0.000798401 0.00102302 0.00129769 0.00162239 0.00199714 0.00242193 0.00289676 0.00342163 0.00399655 0.00460477 0.00522955 0.0058709 0.00652881 0.00720329 0.00789433 0.00860194 0.00932612 0.0100431 0.0107292 0.0113843 0.0120086 0.0126019 0.0131643 0.0136957 0.0141963 0.0146541 0.0150573 0.0154059 0.0156999 0.0159393 0.0161241 0.0162544 0.01633 0.0163562 0.0163381 0.0162758 0.0161691 0.0160182 0.015823 0.0155836 0.0152998 0.014988 0.0146644 0.014329 0.0139818 0.0136228 0.0132519 0.0128692 0.0124747 0.0120829 0.0117083 0.0113509 0.0110106 0.0106875 0.0103816 0.0100928 0.00982122 0.0095697 0.00934111 0.00913545 0.00895272 0.00879293 0.00865607 0.00854214 0.00845114 0.00837498 0.00830554 0.00824284 0.00818687 0.00813763 0.00809513 0.00805935 0.00803031 0.00799816 0.00795309 0.00789507 0.00782413 0.00774025 0.00764344 0.0075337 0.00741102 0.00727276 0.00711628 0.00694157 0.00674863 0.00653747 0.00630809 0.00606047 0.00579464 0.00551674 0.00523295 0.00494326 0.00464768 0.00434621 0.00403885 0.00372559 0.00340644 0.00309099 0.00278883 0.00249996 0.00222438 0.00196209 0.00171309 0.00147739 0.00125498 0.00104963 0.000865136 0.000701486 0.000558685 0.00043673 0.000335623 0.000255364 0.000195952 0.000150026 0.000110223 7.65439e-05 4.89881e-05 2.75558e-05 1.2247e-05 3.06176e-06 0 0 1.61409e-05 6.45638e-05 0.000145268 0.000258255 0.000403524 0.000581074 0.000790906 0.00103302 0.00132123 0.00166933 0.00207734 0.00254524 0.00307305 0.00366076 0.00430837 0.00501587 0.0057628 0.00652865 0.00731343 0.00811714 0.00893978 0.00978135 0.0106418 0.0115213 0.0123915 0.0132244 0.0140199 0.0147781 0.015499 0.0161825 0.0168286 0.0174375 0.017995 0.0184872 0.0189141 0.0192758 0.0195721 0.0198032 0.019969 0.0200695 0.0201107 0.0200989 0.020034 0.0199159 0.0197447 0.0195204 0.0192429 0.0189124 0.0185479 0.0181685 0.0177744 0.0173654 0.0169417 0.0165031 0.0160498 0.0155816 0.0151157 0.0146694 0.0142425 0.0138352 0.0134473 0.0130789 0.01273 0.0124006 0.0120941 0.0118142 0.0115609 0.011334 0.0111337 0.0109598 0.0108125 0.0106917 0.0105881 0.0104921 0.0104038 0.0103233 0.0102505 0.0101854 0.010128 0.0100783 0.0100248 0.00995613 0.00987219 0.009773 0.00965857 0.00952888 0.00938395 0.00922378 0.00904527 0.00884536 0.00862404 0.0083813 0.00811716 0.0078316 0.00752463 0.00719626 0.00685372 0.00650429 0.00614795 0.0057847 0.00541455 0.0050375 0.00465355 0.00426269 0.00387625 0.00350554 0.00315056 0.00281132 0.00248782 0.00218005 0.00188802 0.00161172 0.00135586 0.00112515 0.000919588 0.000739174 0.000583907 0.000453789 0.000348818 0.000268995 0.00020595 0.00015131 0.000105076 6.72489e-05 3.78275e-05 1.68122e-05 4.20305e-06 0 0 2.04662e-05 8.18648e-05 0.000184196 0.000327459 0.000511655 0.000736783 0.00100284 0.00130984 0.00167265 0.00210617 0.0026104 0.00318533 0.00383097 0.00454732 0.00533438 0.00619214 0.0070959 0.00802096 0.0089673 0.00993494 0.0109239 0.0119341 0.0129656 0.0140184 0.0150596 0.0160564 0.0170087 0.0179165 0.0187799 0.0195988 0.0203733 0.0211032 0.0217725 0.0223647 0.02288 0.0233182 0.0236795 0.0239637 0.024171 0.0243012 0.0243616 0.0243591 0.0242937 0.0241655 0.0239745 0.0237206 0.0234039 0.0230243 0.0226042 0.0221658 0.0217092 0.0212343 0.0207411 0.0202297 0.0197 0.0191521 0.0186059 0.0180814 0.0175787 0.0170978 0.0166386 0.0162012 0.0157855 0.0153916 0.0150237 0.0146859 0.0143784 0.0141011 0.013854 0.0136371 0.0134504 0.013294 0.013157 0.0130286 0.012909 0.0127981 0.0126959 0.0126024 0.0125176 0.0124415 0.0123609 0.0122626 0.0121465 0.0120128 0.0118613 0.0116921 0.0115051 0.0113005 0.0110745 0.0108238 0.0105483 0.010248 0.00992286 0.00957294 0.00919823 0.00879872 0.00838282 0.00795895 0.00752711 0.00708729 0.0066395 0.00618374 0.00572001 0.0052483 0.00478179 0.00433365 0.00390388 0.00349248 0.00309945 0.00272479 0.00236849 0.00203057 0.00171679 0.00143291 0.00117895 0.0009549 0.00076076 0.000596531 0.000462213 0.000357806 0.000273945 0.000201266 0.000139768 8.94515e-05 5.03165e-05 2.23629e-05 5.59072e-06 0 0 2.54508e-05 0.000101803 0.000229057 0.000407212 0.000636269 0.000916227 0.00124709 0.00162885 0.00207729 0.0026082 0.00322157 0.0039174 0.00469569 0.00555644 0.00649966 0.00752534 0.00860408 0.00970647 0.0108325 0.0119822 0.0131556 0.0143526 0.0155733 0.0168176 0.0180476 0.0192253 0.0203507 0.0214239 0.0224447 0.0234133 0.0243296 0.0251936 0.0259866 0.0266899 0.0273034 0.0278273 0.0282614 0.0286058 0.0288604 0.0290253 0.0291087 0.0291186 0.0290551 0.0289181 0.0287076 0.0284237 0.0280664 0.0276356 0.0271571 0.0266563 0.0261334 0.0255883 0.025021 0.0244316 0.02382 0.0231862 0.0225533 0.0219444 0.0213595 0.0207985 0.0202615 0.0197485 0.0192594 0.0187943 0.0183583 0.0179562 0.0175881 0.017254 0.016954 0.0166879 0.0164559 0.0162579 0.0160817 0.0159152 0.0157584 0.0156114 0.015474 0.0153463 0.0152283 0.0151201 0.0150064 0.0148725 0.0147181 0.0145434 0.0143484 0.014133 0.0138972 0.013641 0.0133605 0.0130516 0.0127143 0.0123486 0.0119546 0.0115321 0.0110813 0.010602 0.010104 0.00959693 0.00908074 0.00855545 0.00802106 0.00747757 0.00692498 0.00636328 0.00580763 0.00527318 0.00475992 0.00426785 0.00379698 0.0033473 0.00291882 0.00251153 0.00213241 0.00178842 0.00147958 0.00120586 0.000967288 0.00076385 0.000595548 0.000462384 0.000354013 0.000260091 0.000180619 0.000115596 6.50227e-05 2.8899e-05 7.22475e-06 0 0 3.10947e-05 0.000124379 0.000279852 0.000497514 0.000777366 0.00111941 0.00152364 0.00199006 0.00253516 0.00317542 0.00391085 0.00474144 0.0056672 0.00668813 0.00780422 0.00901548 0.0102873 0.0115852 0.0129091 0.014259 0.0156349 0.0170368 0.0184648 0.0199187 0.0213553 0.022731 0.024046 0.0253001 0.0264934 0.027626 0.0286977 0.0297086 0.0306373 0.0314626 0.0321845 0.0328029 0.0333178 0.0337292 0.0340372 0.0342418 0.0343521 0.0343775 0.034318 0.0341735 0.0339441 0.0336298 0.0332306 0.0327464 0.0322065 0.03164 0.031047 0.0304275 0.0297814 0.0291088 0.0284097 0.027684 0.0269581 0.0262584 0.0255848 0.0249373 0.024316 0.0237208 0.0231517 0.0226088 0.0220979 0.0216249 0.0211899 0.0207927 0.0204335 0.0201122 0.0198288 0.0195834 0.0193622 0.0191518 0.018952 0.018763 0.0185847 0.018417 0.0182601 0.0181139 0.0179614 0.0177858 0.017587 0.017365 0.0171199 0.0168516 0.0165602 0.0162456 0.0159033 0.0155288 0.0151222 0.0146833 0.0142123 0.0137091 0.0131737 0.0126061 0.0120173 0.0114182 0.0108089 0.0101892 0.00955923 0.00891898 0.00826845 0.00760762 0.00695376 0.00632411 0.00571867 0.00513744 0.00458041 0.0040476 0.003539 0.00305461 0.00260273 0.00219168 0.00182146 0.00149206 0.00120349 0.000955745 0.000748825 0.000582729 0.000446152 0.000327785 0.000227629 0.000145682 8.19463e-05 3.64206e-05 9.10515e-06 0 0 3.73979e-05 0.000149591 0.000336581 0.000598366 0.000934947 0.00134632 0.0018325 0.00239346 0.00304624 0.00380783 0.00467824 0.00565747 0.00674551 0.00794238 0.00924806 0.0106626 0.0121457 0.0136571 0.015197 0.0167652 0.0183618 0.0199868 0.0216401 0.0233219 0.0249828 0.0265736 0.0280945 0.0295453 0.030926 0.0322368 0.0334775 0.0346481 0.0357247 0.036683 0.0375231 0.038245 0.0388487 0.0393342 0.0397014 0.0399505 0.0400918 0.0401358 0.0400825 0.0399319 0.039684 0.0393388 0.0388963 0.0383565 0.0377524 0.0371169 0.0364501 0.0357519 0.0350223 0.0342614 0.0334691 0.0326454 0.0318202 0.0310233 0.0302546 0.0295142 0.028802 0.0281181 0.0274624 0.026835 0.0262426 0.0256923 0.0251838 0.0247173 0.0242927 0.0239101 0.0235693 0.0232706 0.0229986 0.0227384 0.0224899 0.022253 0.0220279 0.0218146 0.0216129 0.0214229 0.0212258 0.0210025 0.020753 0.0204775 0.0201758 0.019848 0.0194941 0.019114 0.0187028 0.0182554 0.0177718 0.017252 0.0166961 0.0161039 0.0154756 0.0148111 0.0141228 0.0134229 0.0127114 0.0119885 0.011254 0.010508 0.00975042 0.00898133 0.00822018 0.00748645 0.00678013 0.00610123 0.00544975 0.00482568 0.00422903 0.00365979 0.00312775 0.00264269 0.00220461 0.0018135 0.00146937 0.00117222 0.000922041 0.000718842 0.000550364 0.000404349 0.000280798 0.000179711 0.000101087 4.49276e-05 1.12319e-05 0 0 4.4426e-05 0.000177704 0.000399834 0.000710816 0.00111065 0.00159934 0.00217687 0.00284326 0.00361577 0.00451164 0.00553088 0.0066735 0.00793949 0.00932885 0.0108416 0.0124777 0.0141908 0.0159345 0.0177089 0.0195139 0.0213495 0.0232157 0.0251126 0.0270401 0.028943 0.0307659 0.0325089 0.0341719 0.035755 0.0372582 0.0386814 0.0400247 0.0412611 0.0423637 0.0433324 0.0441672 0.0448682 0.0454354 0.0458687 0.0461681 0.0463454 0.0464123 0.0463687 0.0462146 0.0459501 0.0455752 0.0450898 0.0444939 0.0438245 0.0431184 0.0423756 0.0415962 0.0407801 0.0399272 0.0390377 0.0381115 0.0371821 0.0362828 0.0354137 0.0345748 0.033766 0.0329874 0.032239 0.0315207 0.0308405 0.0302062 0.0296177 0.0290752 0.0285785 0.0281278 0.027723 0.027364 0.0270343 0.0267173 0.026413 0.0261213 0.0258423 0.025576 0.0253223 0.0250813 0.024832 0.0245535 0.0242458 0.0239088 0.0235427 0.0231473 0.0227228 0.022269 0.0217804 0.0212516 0.0206824 0.020073 0.0194232 0.0187332 0.0180028 0.0172322 0.0164349 0.0156249 0.0148021 0.0139664 0.013118 0.0122567 0.0113827 0.0104958 0.00961789 0.00877078 0.00795446 0.00716892 0.00641416 0.00569018 0.00499699 0.00433457 0.00371434 0.0031477 0.00263465 0.00217519 0.00176932 0.00141704 0.00111834 0.00087324 0.000668575 0.000491198 0.000341109 0.00021831 0.000122799 5.45775e-05 1.36444e-05 0 0 5.22446e-05 0.000208979 0.000470202 0.000835914 0.00130612 0.00188081 0.00255999 0.00334366 0.00424896 0.00529305 0.00647592 0.00779757 0.009258 0.0108572 0.0125952 0.014472 0.0164345 0.0184297 0.0204575 0.022518 0.0246111 0.026737 0.0288954 0.0310866 0.0332488 0.0353206 0.0373018 0.0391926 0.0409929 0.0427026 0.0443219 0.0458507 0.0472592 0.0485173 0.0496253 0.050583 0.0513904 0.0520476 0.0525546 0.0529113 0.0531307 0.0532258 0.0531967 0.0530432 0.0527655 0.0523635 0.0518372 0.0511866 0.0504525 0.049676 0.0488569 0.0479952 0.047091 0.0461443 0.0451551 0.0441233 0.0430861 0.0420806 0.0411068 0.0401648 0.0392545 0.0383759 0.0375291 0.0367139 0.0359395 0.0352147 0.0345395 0.033914 0.0333381 0.0328119 0.0323353 0.0319083 0.0315129 0.031131 0.0307626 0.0304077 0.0300663 0.0297384 0.0294239 0.029123 0.0288125 0.0284698 0.0280946 0.0276871 0.0272472 0.0267749 0.0262703 0.0257332 0.0251578 0.0245379 0.0238735 0.0231646 0.0224113 0.0216135 0.0207713 0.0198845 0.0189685 0.0180384 0.0170943 0.0161361 0.0151637 0.0141774 0.0131769 0.0121623 0.0111579 0.0101877 0.00925181 0.00835018 0.00748283 0.00664976 0.00585096 0.00508643 0.00436937 0.00371298 0.00311724 0.00258216 0.00210774 0.00169398 0.00134088 0.00104844 0.000802712 0.000589748 0.000409547 0.00026211 0.000147437 6.55275e-05 1.63819e-05 0 0 6.08538e-05 0.000243415 0.000547684 0.00097366 0.00152134 0.00219074 0.00298183 0.00389464 0.00494582 0.00615206 0.00751334 0.00902967 0.010701 0.0125275 0.014509 0.0166455 0.0188768 0.0211425 0.0234428 0.0257775 0.0281467 0.0305504 0.0329886 0.0354613 0.0379003 0.0402377 0.0424733 0.0446073 0.0466396 0.0485701 0.050399 0.0521261 0.0537188 0.055144 0.0564018 0.0574922 0.0584152 0.0591708 0.0597591 0.0601799 0.0604476 0.0605765 0.0605665 0.0604178 0.0601301 0.0597037 0.0591385 0.0584344 0.0576364 0.0567895 0.0558937 0.054949 0.0539553 0.0529127 0.0518211 0.0506807 0.0495322 0.0484166 0.047334 0.0462843 0.0452675 0.0442836 0.0433327 0.0424146 0.0415396 0.0407178 0.0399491 0.0392337 0.0385714 0.0379622 0.0374063 0.0369035 0.0364344 0.0359795 0.0355387 0.0351122 0.0346998 0.0343017 0.0339177 0.0335479 0.0331674 0.0327513 0.0322996 0.0318122 0.0312893 0.0307307 0.0301365 0.0295067 0.0288348 0.0281142 0.0273449 0.0265269 0.0256602 0.0247449 0.0237809 0.0227682 0.0217235 0.0206635 0.0195881 0.0184974 0.0173913 0.0162699 0.0151331 0.013981 0.0128402 0.0117372 0.0106722 0.00964502 0.00865576 0.0077044 0.00679094 0.00591537 0.00509284 0.00433851 0.00365236 0.0030344 0.00248462 0.00200304 0.00158965 0.00124444 0.000952777 0.000699999 0.00048611 0.000311111 0.000175 7.77777e-05 1.94444e-05 0 0 7.02534e-05 0.000281014 0.00063228 0.00112405 0.00175633 0.00252912 0.00344242 0.00449622 0.00570636 0.00708867 0.00864315 0.0103698 0.0122686 0.0143396 0.0165828 0.0189981 0.0215176 0.0240731 0.0266648 0.0292925 0.0319563 0.0346562 0.0373921 0.0401642 0.0428975 0.0455173 0.0480234 0.0504161 0.0526951 0.0548607 0.0569126 0.058851 0.06064 0.0622436 0.0636619 0.064895 0.0659427 0.0668051 0.0674822 0.067974 0.0682961 0.0684642 0.0684782 0.0683381 0.068044 0.0675959 0.0669937 0.0662374 0.0653762 0.0644591 0.0634862 0.0624574 0.0613728 0.0602323 0.0590359 0.0577837 0.0565204 0.0552909 0.0540952 0.0529332 0.0518049 0.0507105 0.0496497 0.0486228 0.0476409 0.0467155 0.0458467 0.0450343 0.0442784 0.0435789 0.042936 0.0423495 0.0417987 0.0412626 0.0407413 0.0402348 0.039743 0.039266 0.0388037 0.0383562 0.0378966 0.0373981 0.0368606 0.0362843 0.0356689 0.0350147 0.0343215 0.0335894 0.0328114 0.0319805 0.0310966 0.0301598 0.02917 0.0281274 0.0270318 0.0258832 0.0246999 0.0235 0.0222835 0.0210504 0.0198007 0.0185343 0.0172513 0.0159518 0.0146647 0.0134193 0.0122156 0.0110534 0.00993295 0.00885412 0.00781693 0.00682139 0.00588475 0.00502429 0.00424001 0.00353191 0.00289998 0.00234422 0.00186465 0.00146125 0.00111877 0.000821952 0.0005708 0.000365312 0.000205488 9.1328e-05 2.2832e-05 0 0 8.04435e-05 0.000321774 0.000723992 0.0012871 0.00201109 0.00289597 0.00394173 0.00514839 0.00653056 0.00810288 0.00986535 0.011818 0.0139607 0.0162937 0.0188167 0.02153 0.024357 0.0272215 0.0301235 0.0330629 0.0360398 0.0390542 0.042106 0.0451953 0.0482403 0.0511593 0.0539521 0.0566189 0.0591596 0.0615742 0.0638628 0.0660253 0.0680227 0.0698162 0.0714057 0.0727913 0.0739728 0.0749504 0.075724 0.0762936 0.0766763 0.076889 0.0769317 0.0768044 0.0765072 0.07604 0.0754028 0.0745956 0.0736718 0.0726847 0.0716343 0.0705205 0.0693435 0.0681031 0.0667994 0.0654324 0.0640508 0.0627035 0.0613904 0.0601115 0.0588669 0.0576565 0.0564803 0.0553384 0.0542433 0.0532079 0.052232 0.0513158 0.050459 0.0496619 0.0489244 0.0482464 0.0476059 0.0469805 0.0463704 0.0457754 0.0451957 0.0446312 0.0440819 0.0435478 0.0430001 0.0424101 0.0417778 0.0411032 0.0403862 0.0396269 0.0388253 0.0379814 0.0370877 0.0361368 0.0351287 0.0340633 0.0329407 0.0317609 0.0305238 0.0292296 0.0278978 0.0265481 0.0251805 0.0237951 0.0223918 0.0209706 0.0195316 0.0180747 0.0166316 0.015234 0.013882 0.0125754 0.0113144 0.0100989 0.00892894 0.00780449 0.0067451 0.00577034 0.00488021 0.00407469 0.0033538 0.00271753 0.00216588 0.00169885 0.00130069 0.000955606 0.000663615 0.000424714 0.000238901 0.000106178 2.65446e-05 0 0 9.14242e-05 0.000365697 0.000822817 0.00146279 0.0022856 0.00329127 0.00447978 0.00585115 0.00741842 0.00919469 0.0111799 0.0133742 0.0157774 0.0183896 0.0212108 0.024241 0.0273949 0.0305876 0.0338188 0.0370887 0.0403972 0.0437444 0.0471302 0.0505547 0.0539288 0.0571637 0.0602593 0.0632158 0.0660329 0.0687109 0.0712495 0.073649 0.0758671 0.0778618 0.0796332 0.0811811 0.0825056 0.0836067 0.0844844 0.0851388 0.0855881 0.0858509 0.085927 0.0858166 0.0855196 0.085036 0.0843658 0.0835091 0.0825234 0.081466