<?xml version="1.0"?> 
<VTKFile type="StructuredGrid" version="0.1"> 
<StructuredGrid WholeExtent="0 128 0 128 0 0"> 
<Piece Extent="0 128 0 128 0 0"> 
<PointData>
<DataArray type="Float32" Name="u" format="ascii" NumberOfComponents="1"> 
0 0 0 0 0 0 0 0 0 0 0 0 0 0 0 0 0 0 0 0 0 0 0 0 0 0 0 0 0 0 0 0 0 0 0 0 0 0 0 0 0 0 0 0 0 0 0 0 0 0 0 0 0 0 0 0 0 0 0 0 0 0 0 0 0 0 0 0 0 0 0 0 0 0 0 0 0 0 0 0 0 0 0 0 0 0 0 0 0 0 0 0 0 0 0 0 0 0 0 0 0 0 0 0 0 0 0 0 0 0 0 0 0 0 0 0 0 0 0 0 0 0 0 0 0 0 0 0 0 0 6.87154e-08 2.74862e-07 6.18438e-07 1.09945e-06 1.71788e-06 2.47375e-06 3.36705e-06 4.39778e-06 5.40784e-06 6.23912e-06 6.89162e-06 7.36534e-06 7.66029e-06 7.77646e-06 7.71385e-06 7.47246e-06 6.96664e-06 6.11076e-06 4.90481e-06 3.34878e-06 1.44268e-06 -8.13483e-07 -3.41972e-06 -6.37603e-06 -9.5502e-06 -1.281e-05 -1.61555e-05 -1.95866e-05 -2.31033e-05 -2.67057e-05 -3.03937e-05 -3.41674e-05 -3.78145e-05 -4.11228e-05 -4.40922e-05 -4.67227e-05 -4.90144e-05 -5.09673e-05 -5.25814e-05 -5.38566e-05 -5.47352e-05 -5.51595e-05 -5.51294e-05 -5.4645e-05 -5.37063e-05 -5.23133e-05 -5.04659e-05 -4.81641e-05 -4.5595e-05 -4.29452e-05 -4.02148e-05 -3.74039e-05 -3.45123e-05 -3.15402e-05 -2.84874e-05 -2.53541e-05 -2.23744e-05 -1.97824e-05 -1.75782e-05 -1.57617e-05 -1.4333e-05 -1.32921e-05 -1.26389e-05 -1.23734e-05 -1.24948e-05 -1.30019e-05 -1.38948e-05 -1.51736e-05 -1.68382e-05 -1.88885e-05 -2.13247e-05 -2.41467e-05 -2.71223e-05 -3.00195e-05 -3.28382e-05 -3.55784e-05 -3.82402e-05 -4.08234e-05 -4.33282e-05 -4.57545e-05 -4.7923e-05 -4.96542e-05 -5.09481e-05 -5.18048e-05 -5.22243e-05 -5.22066e-05 -5.17516e-05 -5.08593e-05 -4.9591e-05 -4.80077e-05 -4.61095e-05 -4.38964e-05 -4.13684e-05 -3.85254e-05 -3.53675e-05 -3.18946e-05 -2.83098e-05 -2.48159e-05 -2.1413e-05 -1.81011e-05 -1.48801e-05 -1.17501e-05 -8.71105e-06 -5.76296e-06 -3.0244e-06 -6.1392e-07 1.46847e-06 3.22278e-06 4.649e-06 5.74713e-06 6.51718e-06 6.95914e-06 7.15664e-06 7.19329e-06 7.06909e-06 6.78405e-06 6.33816e-06 5.73142e-06 4.96384e-06 4.03541e-06 3.08961e-06 2.26992e-06 1.57633e-06 1.00885e-06 5.6748e-07 2.52213e-07 6.30533e-08 0 0 2.74862e-07 1.09945e-06 2.47375e-06 4.39778e-06 6.87154e-06 9.89501e-06 1.34682e-05 1.75911e-05 2.16314e-05 2.49565e-05 2.75665e-05 2.94614e-05 3.06412e-05 3.11058e-05 3.08554e-05 2.98898e-05 2.78666e-05 2.4443e-05 1.96192e-05 1.33951e-05 5.77074e-06 -3.25393e-06 -1.36789e-05 -2.55041e-05 -3.82008e-05 -5.124e-05 -6.46219e-05 -7.83463e-05 -9.24133e-05 -0.000106823 -0.000121575 -0.00013667 -0.000151258 -0.000164491 -0.000176369 -0.000186891 -0.000196058 -0.000203869 -0.000210325 -0.000215426 -0.000218941 -0.000220638 -0.000220518 -0.00021858 -0.000214825 -0.000209253 -0.000201863 -0.000192657 -0.00018238 -0.000171781 -0.000160859 -0.000149615 -0.000138049 -0.000126161 -0.00011395 -0.000101417 -8.94976e-05 -7.91296e-05 -7.03128e-05 -6.30469e-05 -5.7332e-05 -5.31682e-05 -5.05554e-05 -4.94937e-05 -4.9979e-05 -5.20076e-05 -5.55794e-05 -6.06944e-05 -6.73527e-05 -7.55542e-05 -8.52989e-05 -9.65868e-05 -0.000108489 -0.000120078 -0.000131353 -0.000142314 -0.000152961 -0.000163294 -0.000173313 -0.000183018 -0.000191692 -0.000198617 -0.000203792 -0.000207219 -0.000208897 -0.000208826 -0.000207006 -0.000203437 -0.000198364 -0.000192031 -0.000184438 -0.000175586 -0.000165473 -0.000154101 -0.00014147 -0.000127578 -0.000113239 -9.92637e-05 -8.56521e-05 -7.24044e-05 -5.95205e-05 -4.70004e-05 -3.48442e-05 -2.30518e-05 -1.20976e-05 -2.45568e-06 5.87389e-06 1.28911e-05 1.8596e-05 2.29885e-05 2.60687e-05 2.78366e-05 2.86266e-05 2.87732e-05 2.82764e-05 2.71362e-05 2.53526e-05 2.29257e-05 1.98554e-05 1.61416e-05 1.23584e-05 9.07967e-06 6.30533e-06 4.03541e-06 2.26992e-06 1.00885e-06 2.52213e-07 0 0 6.18438e-07 2.47375e-06 5.56595e-06 9.89501e-06 1.5461e-05 2.22638e-05 3.03035e-05 3.95801e-05 4.86706e-05 5.61521e-05 6.20246e-05 6.62881e-05 6.89426e-05 6.99881e-05 6.94246e-05 6.72521e-05 6.26998e-05 5.49968e-05 4.41433e-05 3.0139e-05 1.29842e-05 -7.32135e-06 -3.07775e-05 -5.73843e-05 -8.59518e-05 -0.00011529 -0.000145399 -0.000176279 -0.00020793 -0.000240351 -0.000273544 -0.000307507 -0.000340331 -0.000370105 -0.000396829 -0.000420504 -0.00044113 -0.000458706 -0.000473232 -0.000484709 -0.000492617 -0.000496435 -0.000496165 -0.000491805 -0.000483357 -0.000470819 -0.000454193 -0.000433477 -0.000410355 -0.000386507 -0.000361933 -0.000336635 -0.000310611 -0.000283862 -0.000256387 -0.000228187 -0.00020137 -0.000178042 -0.000158204 -0.000141855 -0.000128997 -0.000119628 -0.00011375 -0.000111361 -0.000112453 -0.000117017 -0.000125054 -0.000136562 -0.000151544 -0.000169997 -0.000191922 -0.00021732 -0.000244101 -0.000270176 -0.000295544 -0.000320206 -0.000344161 -0.000367411 -0.000389954 -0.000411791 -0.000431307 -0.000446887 -0.000458533 -0.000466244 -0.000470019 -0.000469859 -0.000465764 -0.000457734 -0.000446319 -0.000432069 -0.000414986 -0.000395068 -0.000372315 -0.000346728 -0.000318307 -0.000287052 -0.000254788 -0.000223343 -0.000192717 -0.00016291 -0.000133921 -0.000105751 -7.83994e-05 -5.18667e-05 -2.72196e-05 -5.52528e-06 1.32162e-05 2.9005e-05 4.1841e-05 5.17242e-05 5.86546e-05 6.26323e-05 6.44097e-05 6.47396e-05 6.36218e-05 6.10564e-05 5.70434e-05 5.15828e-05 4.46746e-05 3.63187e-05 2.78065e-05 2.04293e-05 1.4187e-05 9.07967e-06 5.10732e-06 2.26992e-06 5.6748e-07 0 0 1.09945e-06 4.39778e-06 9.89501e-06 1.75911e-05 2.74862e-05 3.95801e-05 5.38729e-05 7.03645e-05 8.65255e-05 9.98259e-05 0.000110266 0.000117846 0.000122565 0.000124423 0.000123422 0.000119559 0.000111466 9.77722e-05 7.84769e-05 5.35805e-05 2.30829e-05 -1.30157e-05 -5.47155e-05 -0.000102016 -0.000152803 -0.00020496 -0.000258487 -0.000313385 -0.000369653 -0.000427291 -0.0004863 -0.000546679 -0.000605032 -0.000657964 -0.000705474 -0.000747564 -0.000784231 -0.000815477 -0.000841302 -0.000861705 -0.000875763 -0.000882552 -0.000882071 -0.000874321 -0.000859301 -0.000837012 -0.000807454 -0.000770626 -0.000729519 -0.000687123 -0.000643437 -0.000598462 -0.000552197 -0.000504643 -0.000455799 -0.000405666 -0.00035799 -0.000316519 -0.000281251 -0.000252188 -0.000229328 -0.000212673 -0.000202222 -0.000197975 -0.000199916 -0.00020803 -0.000222318 -0.000242778 -0.000269411 -0.000302217 -0.000341195 -0.000386347 -0.000433958 -0.000480312 -0.000525411 -0.000569255 -0.000611843 -0.000653175 -0.000693251 -0.000732072 -0.000766767 -0.000794467 -0.00081517 -0.000828877 -0.000835589 -0.000835305 -0.000828025 -0.000813749 -0.000793456 -0.000768123 -0.000737752 -0.000702342 -0.000661894 -0.000616406 -0.000565879 -0.000510314 -0.000452957 -0.000397055 -0.000342608 -0.000289617 -0.000238082 -0.000188002 -0.000139377 -9.22074e-05 -4.83904e-05 -9.82272e-06 2.34956e-05 5.15644e-05 7.4384e-05 9.19541e-05 0.000104275 0.000111346 0.000114506 0.000115093 0.000113105 0.000108545 0.000101411 9.17027e-05 7.94214e-05 6.45666e-05 4.94338e-05 3.63187e-05 2.52213e-05 1.61416e-05 9.07967e-06 4.03541e-06 1.00885e-06 0 0 1.71788e-06 6.87154e-06 1.5461e-05 2.74862e-05 4.29471e-05 6.18438e-05 8.41763e-05 0.000109945 0.000135196 0.000155978 0.000172291 0.000184134 0.000191507 0.000194411 0.000192846 0.000186811 0.000174166 0.000152769 0.00012262 8.37195e-05 3.60671e-05 -2.03371e-05 -8.5493e-05 -0.000159401 -0.000238755 -0.00032025 -0.000403887 -0.000489664 -0.000577583 -0.000667643 -0.000759844 -0.000854186 -0.000945363 -0.00102807 -0.0011023 -0.00116807 -0.00122536 -0.00127418 -0.00131453 -0.00134641 -0.00136838 -0.00137899 -0.00137824 -0.00136613 -0.00134266 -0.00130783 -0.00126165 -0.0012041 -0.00113987 -0.00107363 -0.00100537 -0.000935097 -0.000862808 -0.000788504 -0.000712186 -0.000633853 -0.00055936 -0.00049456 -0.000439455 -0.000394043 -0.000358325 -0.000332301 -0.000315971 -0.000309335 -0.000312369 -0.000325047 -0.000347371 -0.00037934 -0.000420954 -0.000472213 -0.000533118 -0.000603667 -0.000678059 -0.000750488 -0.000820955 -0.000889461 -0.000956004 -0.00102059 -0.00108321 -0.00114386 -0.00119807 -0.00124135 -0.0012737 -0.00129512 -0.00130561 -0.00130516 -0.00129379 -0.00127148 -0.00123977 -0.00120019 -0.00115274 -0.00109741 -0.00103421 -0.000963134 -0.000884187 -0.000797365 -0.000707745 -0.000620398 -0.000535326 -0.000452527 -0.000372003 -0.000293753 -0.000217776 -0.000144074 -7.56099e-05 -1.5348e-05 3.67118e-05 8.05694e-05 0.000116225 0.000143678 0.00016293 0.000173979 0.000178916 0.000179832 0.000176727 0.000169601 0.000158454 0.000143286 0.000124096 0.000100885 7.72403e-05 5.6748e-05 3.94083e-05 2.52213e-05 1.4187e-05 6.30533e-06 1.57633e-06 0 0 2.47375e-06 9.89501e-06 2.22638e-05 3.95801e-05 6.18438e-05 8.90551e-05 0.000121214 0.00015832 0.000194682 0.000224608 0.000248098 0.000265152 0.00027577 0.000279952 0.000277698 0.000269008 0.000250799 0.000219987 0.000176573 0.000120556 5.19366e-05 -2.92854e-05 -0.00012311 -0.000229537 -0.000343807 -0.00046116 -0.000581597 -0.000705116 -0.000831719 -0.000961405 -0.00109417 -0.00123003 -0.00136132 -0.00148042 -0.00158732 -0.00168202 -0.00176452 -0.00183482 -0.00189293 -0.00193884 -0.00197047 -0.00198574 -0.00198466 -0.00196722 -0.00193343 -0.00188328 -0.00181677 -0.00173391 -0.00164142 -0.00154603 -0.00144773 -0.00134654 -0.00124244 -0.00113545 -0.00102555 -0.000912749 -0.000805478 -0.000712167 -0.000632815 -0.000567422 -0.000515988 -0.000478514 -0.000454999 -0.000445443 -0.000449811 -0.000468068 -0.000500215 -0.00054625 -0.000606174 -0.000679987 -0.00076769 -0.000869281 -0.000976404 -0.0010807 -0.00118218 -0.00128082 -0.00137665 -0.00146964 -0.00155982 -0.00164716 -0.00172523 -0.00178755 -0.00183413 -0.00186497 -0.00188008 -0.00187944 -0.00186306 -0.00183094 -0.00178528 -0.00172828 -0.00165994 -0.00158027 -0.00148926 -0.00138691 -0.00127323 -0.00114821 -0.00101915 -0.000893373 -0.000770869 -0.000651639 -0.000535684 -0.000423004 -0.000313598 -0.000207467 -0.000108878 -2.21011e-05 5.2865e-05 0.00011602 0.000167364 0.000206897 0.000234618 0.000250529 0.000257639 0.000258958 0.000254487 0.000244226 0.000228174 0.000206331 0.000178698 0.000145275 0.000111226 8.1717e-05 5.6748e-05 3.63187e-05 2.04293e-05 9.07967e-06 2.26992e-06 0 0 3.36705e-06 1.34682e-05 3.03035e-05 5.38729e-05 8.41763e-05 0.000121214 0.000164986 0.000215491 0.000264984 0.000305717 0.000337689 0.000360902 0.000375354 0.000381046 0.000377978 0.00036615 0.000341366 0.000299427 0.000240336 0.00016409 7.06915e-05 -3.98607e-05 -0.000167566 -0.000312425 -0.00046796 -0.00062769 -0.000791618 -0.000959742 -0.00113206 -0.00130858 -0.00148929 -0.0016742 -0.00185291 -0.00201501 -0.00216052 -0.00228941 -0.00240171 -0.0024974 -0.00257649 -0.00263897 -0.00268202 -0.00270281 -0.00270134 -0.00267761 -0.00263161 -0.00256335 -0.00247283 -0.00236004 -0.00223415 -0.00210431 -0.00197053 -0.00183279 -0.0016911 -0.00154547 -0.00139588 -0.00124235 -0.00109635 -0.000969338 -0.000861331 -0.000772324 -0.000702317 -0.000651311 -0.000619304 -0.000606297 -0.000612243 -0.000637093 -0.000680848 -0.000743507 -0.00082507 -0.000925538 -0.00104491 -0.00118319 -0.00132899 -0.00147096 -0.00160907 -0.00174334 -0.00187377 -0.00200035 -0.00212308 -0.00224197 -0.00234822 -0.00243305 -0.00249646 -0.00253844 -0.00255899 -0.00255812 -0.00253583 -0.00249211 -0.00242996 -0.00235238 -0.00225937 -0.00215092 -0.00202705 -0.00188774 -0.00173301 -0.00156284 -0.00138718 -0.00121598 -0.00104924 -0.000886953 -0.000729126 -0.000575755 -0.000426841 -0.000282385 -0.000148195 -3.00821e-05 7.19551e-05 0.000157916 0.000227801 0.000281609 0.000319342 0.000340998 0.000350675 0.000352471 0.000346385 0.000332418 0.00031057 0.00028084 0.000243228 0.000197735 0.000151391 0.000111226 7.72403e-05 4.94338e-05 2.78065e-05 1.23584e-05 3.08961e-06 0 0 4.39778e-06 1.75911e-05 3.95801e-05 7.03645e-05 0.000109945 0.00015832 0.000215491 0.000281458 0.000346102 0.000399304 0.000441064 0.000471382 0.000490259 0.000497693 0.000493686 0.000478237 0.000445865 0.000391089 0.000313908 0.000214322 9.23318e-05 -5.20629e-05 -0.000218862 -0.000408066 -0.000611213 -0.000819841 -0.00103395 -0.00125354 -0.00147861 -0.00170917 -0.0019452 -0.00218672 -0.00242013 -0.00263186 -0.0028219 -0.00299025 -0.00313692 -0.00326191 -0.00336521 -0.00344682 -0.00350305 -0.00353021 -0.00352828 -0.00349728 -0.0034372 -0.00334805 -0.00322982 -0.00308251 -0.00291808 -0.00274849 -0.00257375 -0.00239385 -0.00220879 -0.00201857 -0.0018232 -0.00162266 -0.00143196 -0.00126607 -0.001125 -0.00100875 -0.000917313 -0.000850691 -0.000808887 -0.000791898 -0.000799664 -0.000832121 -0.00088927 -0.000971111 -0.00107764 -0.00120887 -0.00136478 -0.00154539 -0.00173583 -0.00192125 -0.00210165 -0.00227702 -0.00244737 -0.0026127 -0.00277301 -0.00292829 -0.00306707 -0.00317787 -0.00326068 -0.00331551 -0.00334236 -0.00334122 -0.0033121 -0.003255 -0.00317382 -0.00307249 -0.00295101 -0.00280937 -0.00264757 -0.00246562 -0.00226352 -0.00204126 -0.00181183 -0.00158822 -0.00137043 -0.00115847 -0.000952327 -0.000752006 -0.000557507 -0.00036883 -0.000193561 -3.92909e-05 9.39822e-05 0.000206258 0.000297536 0.000367816 0.0004171 0.000445385 0.000458025 0.00046037 0.000452422 0.000434179 0.000405642 0.000366811 0.000317686 0.000258266 0.000197735 0.000145275 0.000100885 6.45666e-05 3.63187e-05 1.61416e-05 4.03541e-06 0 0 5.40903e-06 2.16361e-05 4.86813e-05 8.65445e-05 0.000135226 0.000194725 0.000265043 0.000346178 0.000425446 0.000490159 0.000540319 0.000575925 0.000596976 0.000603474 0.000595418 0.000572808 0.00052906 0.000457589 0.000358395 0.000231478 7.68391e-05 -0.000105523 -0.000315607 -0.000553415 -0.000808203 -0.00106923 -0.0013365 -0.00161001 -0.00188976 -0.00217574 -0.00246797 -0.00276644 -0.00305453 -0.00331561 -0.00354969 -0.00375677 -0.00393685 -0.00408992 -0.00421599 -0.00431506 -0.00438289 -0.00441527 -0.00441219 -0.00437364 -0.00429964 -0.00419018 -0.00404526 -0.00386488 -0.0036637 -0.00345641 -0.00324299 -0.00302345 -0.00279778 -0.002566 -0.00232809 -0.00208405 -0.00185204 -0.00165018 -0.00147849 -0.00133695 -0.00122557 -0.00114435 -0.00109329 -0.00107239 -0.00108158 -0.0011208 -0.00119004 -0.00128931 -0.00141861 -0.00157793 -0.00176728 -0.00198666 -0.00221808 -0.00244356 -0.00266311 -0.00287672 -0.0030844 -0.00328614 -0.00348195 -0.00367182 -0.00384166 -0.00397737 -0.00407897 -0.00414644 -0.00417979 -0.00417901 -0.00414412 -0.0040751 -0.00397646 -0.00385271 -0.00370385 -0.00352988 -0.0033308 -0.0031066 -0.0028573 -0.00258288 -0.00229926 -0.00202233 -0.0017521 -0.00148857 -0.00123173 -0.000981591 -0.000738149 -0.000501404 -0.000281006 -8.66034e-05 8.18027e-05 0.000224213 0.000340627 0.000431044 0.000495466 0.000533891 0.000552764 0.000558527 0.00055118 0.000530723 0.000497157 0.000450481 0.000390696 0.0003178 0.000243316 0.000178763 0.000124141 7.94501e-05 4.46907e-05 1.98625e-05 4.96563e-06 0 0 6.24389e-06 2.49756e-05 5.6195e-05 9.99022e-05 0.000156097 0.00022478 0.00030595 0.000399609 0.000490426 0.000563074 0.000617553 0.000653861 0.000672001 0.000671971 0.000653771 0.000617402 0.00055571 0.000461544 0.000334903 0.000175786 -1.5805e-05 -0.000239871 -0.000496412 -0.000785429 -0.00109357 -0.00140749 -0.00172718 -0.00205264 -0.00238389 -0.0027209 -0.00306369 -0.00341226 -0.00374766 -0.00405095 -0.00432212 -0.00456119 -0.00476815 -0.00494299 -0.00508573 -0.00519635 -0.00527088 -0.00530535 -0.00529975 -0.00525408 -0.00516835 -0.00504254 -0.00487667 -0.00467073 -0.00444154 -0.00420591 -0.00396384 -0.00371532 -0.00346037 -0.00319898 -0.00293116 -0.00265689 -0.00239629 -0.00216947 -0.00197643 -0.00181717 -0.00169169 -0.00159998 -0.00154206 -0.00151791 -0.0015275 -0.00157077 -0.00164773 -0.00175836 -0.00190269 -0.00208069 -0.00229239 -0.00253776 -0.0027969 -0.00304987 -0.00329667 -0.00353732 -0.0037718 -0.00400011 -0.00422227 -0.00443825 -0.00463189 -0.00478697 -0.0049035 -0.00498148 -0.00502091 -0.00502179 -0.00498412 -0.0049079 -0.00479746 -0.00465711 -0.00448687 -0.00428672 -0.00405667 -0.00379672 -0.00350687 -0.00318712 -0.00285563 -0.00253055 -0.00221188 -0.00189962 -0.00159377 -0.00129434 -0.00100132 -0.000714712 -0.000446557 -0.000208895 -1.72693e-06 0.000174948 0.00032113 0.000436819 0.000522015 0.000576717 0.000607969 0.000622811 0.000621243 0.000603267 0.000568882 0.000518087 0.000450883 0.00036727 0.000281191 0.000206589 0.000143465 9.18175e-05 5.16474e-05 2.29544e-05 5.7386e-06 0 0 6.90235e-06 2.76094e-05 6.21211e-05 0.000110438 0.000172559 0.000248485 0.000338215 0.00044175 0.000541044 0.000618048 0.000672765 0.000705192 0.000715332 0.000703182 0.000668745 0.000612018 0.000525817 0.000402955 0.000243431 4.72459e-05 -0.0001856 -0.000455108 -0.000761277 -0.00110411 -0.00146731 -0.0018346 -0.00220598 -0.00258145 -0.002961 -0.00334464 -0.00373236 -0.00412417 -0.00449952 -0.00483786 -0.00513919 -0.00540352 -0.00563083 -0.00582113 -0.00597442 -0.0060907 -0.00616703 -0.00620045 -0.00619098 -0.0061386 -0.00604332 -0.00590514 -0.00572406 -0.00550007 -0.00525159 -0.00499699 -0.00473629 -0.00446948 -0.00419656 -0.00391754 -0.00363241 -0.00334117 -0.00306471 -0.00282394 -0.00261883 -0.00244941 -0.00231566 -0.00221759 -0.00215519 -0.00212847 -0.00213742 -0.00218204 -0.00226232 -0.00237826 -0.00252988 -0.00271715 -0.0029401 -0.0031987 -0.00347229 -0.00374017 -0.00400234 -0.00425881 -0.00450957 -0.00475462 -0.00499397 -0.0052276 -0.00543776 -0.00560664 -0.00573427 -0.00582062 -0.00586572 -0.00586955 -0.00583211 -0.00575341 -0.00563682 -0.0054857 -0.00530006 -0.00507989 -0.0048252 -0.00453599 -0.00421225 -0.00385398 -0.00348094 -0.00311287 -0.00274976 -0.00239163 -0.00203846 -0.00169026 -0.00134702 -0.00100875 -0.000690216 -0.000406167 -0.000156607 5.8465e-05 0.000239048 0.000385142 0.000496747 0.000573863 0.000623639 0.000653222 0.000662612 0.00065181 0.000620815 0.000569628 0.000498248 0.000406675 0.000311361 0.000228755 0.000158858 0.000101669 5.71887e-05 2.54172e-05 6.3543e-06 0 0 7.38441e-06 2.95377e-05 6.64597e-05 0.000118151 0.00018461 0.000265839 0.000361836 0.000472602 0.000577298 0.000655082 0.000705955 0.000729918 0.000726969 0.00069711 0.000640339 0.000556658 0.00043938 0.000281821 8.39798e-05 -0.000154143 -0.000432547 -0.000751233 -0.0011102 -0.00150945 -0.00192943 -0.00235058 -0.00277291 -0.00319641 -0.00362109 -0.00404695 -0.00447397 -0.00490218 -0.00531012 -0.00567636 -0.0060009 -0.00628375 -0.00652489 -0.00672433 -0.00688207 -0.00699811 -0.00707133 -0.00710058 -0.00708587 -0.0070272 -0.00692456 -0.00677797 -0.00658742 -0.0063529 -0.00609384 -0.00582966 -0.00556035 -0.00528591 -0.00500634 -0.00472165 -0.00443184 -0.00413689 -0.00385731 -0.00361358 -0.0034057 -0.00323367 -0.00309749 -0.00299716 -0.00293269 -0.00290406 -0.00291134 -0.0029546 -0.00303382 -0.00314901 -0.00330018 -0.00348731 -0.00371041 -0.00396949 -0.00424426 -0.00451447 -0.00478012 -0.0050412 -0.00529771 -0.00554966 -0.00579704 -0.00603986 -0.00625927 -0.0064364 -0.00657127 -0.00666388 -0.00671421 -0.00672228 -0.00668809 -0.00661163 -0.00649454 -0.00633847 -0.00614343 -0.0059094 -0.00563639 -0.00532439 -0.00497342 -0.00458347 -0.0041752 -0.0037693 -0.00336577 -0.00296459 -0.00256578 -0.00216934 -0.00177525 -0.00138353 -0.00101198 -0.000678418 -0.000382837 -0.000125238 9.43785e-05 0.000276012 0.000419662 0.000525329 0.000599775 0.00064976 0.000675286 0.000676352 0.000652958 0.000605104 0.00053279 0.000436016 0.000333825 0.000245259 0.000170319 0.000109004 6.13147e-05 2.7251e-05 6.81275e-06 0 0 7.69009e-06 3.07603e-05 6.92108e-05 0.000123041 0.000192252 0.000276843 0.000376814 0.000492165 0.000599188 0.000674175 0.000717124 0.000728037 0.000706913 0.000653752 0.000568554 0.00045132 0.000296399 9.81424e-05 -0.000143451 -0.00042838 -0.000756645 -0.00112825 -0.00154318 -0.00200146 -0.00247992 -0.00295542 -0.00342797 -0.00389755 -0.00436417 -0.00482783 -0.00528854 -0.00574628 -0.00617945 -0.00656644 -0.00690725 -0.00720188 -0.00745033 -0.0076526 -0.00780868 -0.00791859 -0.00798378 -0.00800572 -0.00798442 -0.00791987 -0.00781208 -0.00766104 -0.00746675 -0.00722922 -0.00696831 -0.00670391 -0.00643601 -0.00616462 -0.00588972 -0.00561133 -0.00532945 -0.00504406 -0.00477408 -0.00453841 -0.00433703 -0.00416995 -0.00403718 -0.00393871 -0.00387455 -0.00384468 -0.00384927 -0.00388845 -0.00396223 -0.00407061 -0.00421359 -0.00439116 -0.00460334 -0.00485011 -0.00511281 -0.00537277 -0.00562999 -0.00588448 -0.00613623 -0.00638523 -0.0066315 -0.00687503 -0.00709642 -0.00727625 -0.00741452 -0.00751124 -0.0075664 -0.00758 -0.00755205 -0.00748254 -0.00737062 -0.00721543 -0.00701697 -0.00677523 -0.00649022 -0.00616194 -0.00579039 -0.00537557 -0.00493841 -0.00449984 -0.00405988 -0.00361852 -0.00317575 -0.00273158 -0.00228601 -0.00183904 -0.00141186 -0.00102565 -0.000680416 -0.000376159 -0.000112878 0.000109429 0.000290759 0.000431114 0.000536376 0.000612426 0.000659266 0.000676893 0.00066531 0.000624515 0.000554509 0.000455292 0.000348583 0.000256102 0.000177848 0.000113823 6.40254e-05 2.84557e-05 7.11393e-06 0 0 7.81936e-06 3.12775e-05 7.03743e-05 0.00012511 0.000195484 0.000281497 0.000383149 0.000500439 0.000606716 0.000675327 0.000706272 0.00069955 0.000655163 0.00057311 0.000453391 0.000296005 9.68748e-05 -0.000148081 -0.000438861 -0.000775465 -0.00115789 -0.00158615 -0.00206023 -0.00258013 -0.00311879 -0.00364913 -0.00417115 -0.00468485 -0.00519023 -0.0056873 -0.00617604 -0.00665647 -0.00710751 -0.0075081 -0.00785824 -0.00815792 -0.00840715 -0.00860592 -0.00875425 -0.00885212 -0.00890438 -0.00891589 -0.00888664 -0.00881663 -0.00870586 -0.00855434 -0.00836206 -0.00812902 -0.00787499 -0.00761975 -0.00736328 -0.0071056 -0.0068467 -0.00658658 -0.00632524 -0.00606268 -0.00581503 -0.00559841 -0.00541282 -0.00525826 -0.00513473 -0.00504224 -0.00498077 -0.00495034 -0.00495119 -0.0049836 -0.00504755 -0.00514306 -0.00527011 -0.00542871 -0.00561886 -0.00584057 -0.00607793 -0.00631506 -0.00655197 -0.00678866 -0.00702511 -0.00726134 -0.00749734 -0.00773312 -0.00794921 -0.00812617 -0.008264 -0.0083627 -0.00842227 -0.0084427 -0.008424 -0.00836617 -0.00826507 -0.00811658 -0.00792069 -0.0076774 -0.00738672 -0.00704864 -0.00666316 -0.00623029 -0.00577055 -0.00530449 -0.00483211 -0.0043534 -0.00386836 -0.00337699 -0.0028793 -0.00237529 -0.00188984 -0.00144786 -0.00104935 -0.0006943 -0.00038272 -0.000114607 0.00011004 0.00029122 0.000433443 0.00054122 0.00061455 0.000653434 0.000657871 0.000627862 0.000563406 0.000464503 0.000355635 0.000261283 0.000181447 0.000116126 6.53208e-05 2.90314e-05 7.25786e-06 0 0 7.77225e-06 3.1089e-05 6.99502e-05 0.000124356 0.000194306 0.000279801 0.00038084 0.000497424 0.00059988 0.000658538 0.000673398 0.000644458 0.00057172 0.000455183 0.000294848 9.07136e-05 -0.000159194 -0.000456848 -0.00080225 -0.0011954 -0.0016363 -0.00212494 -0.00266133 -0.00324547 -0.00384603 -0.00443169 -0.00500246 -0.00555832 -0.00609928 -0.00662534 -0.0071365 -0.00763276 -0.00809431 -0.00850134 -0.00885386 -0.00915186 -0.00939535 -0.00958432 -0.00971877 -0.00979871 -0.00983314 -0.00983107 -0.00979251 -0.00971746 -0.00960591 -0.00945787 -0.00927334 -0.00905231 -0.00881388 -0.00857717 -0.00834216 -0.00810886 -0.00787727 -0.00764739 -0.00741921 -0.00719274 -0.00698015 -0.00679359 -0.00663307 -0.00649859 -0.00639014 -0.00630773 -0.00625136 -0.00622102 -0.00621712 -0.00624004 -0.00628978 -0.00636635 -0.00646974 -0.00659996 -0.006757 -0.00694086 -0.00713962 -0.00734136 -0.00754606 -0.00775373 -0.00796437 -0.00817798 -0.00839456 -0.00861411 -0.00881764 -0.00898618 -0.00911973 -0.00921827 -0.00928182 -0.00931038 -0.00930393 -0.00926249 -0.00917788 -0.00904191 -0.00885458 -0.0086159 -0.00832587 -0.00798447 -0.00759173 -0.00714763 -0.00667165 -0.00618325 -0.00568245 -0.00516923 -0.00464361 -0.00410557 -0.00355512 -0.00299226 -0.00244593 -0.00194505 -0.00148963 -0.00107966 -0.00071515 -0.000396095 -0.000122497 0.000105645 0.000290976 0.000436141 0.00054114 0.000605974 0.000630641 0.000615143 0.00055948 0.00046365 0.000354982 0.000260803 0.000181113 0.000115913 6.52008e-05 2.89781e-05 7.24453e-06 0 0 7.54873e-06 3.01949e-05 6.79386e-05 0.00012078 0.000188718 0.000271754 0.000369888 0.000483119 0.000578681 0.000623809 0.000618502 0.00056276 0.000456583 0.000299972 9.29256e-05 -0.000164555 -0.000471806 -0.00082816 -0.00123362 -0.00168818 -0.00219185 -0.00274462 -0.00334649 -0.00399747 -0.00466165 -0.00530312 -0.00592189 -0.00651795 -0.00709131 -0.00764196 -0.0081699 -0.00867514 -0.00913984 -0.00954617 -0.00989413 -0.0101837 -0.0104149 -0.0105878 -0.0107023 -0.0107584 -0.01077 -0.0107513 -0.0107021 -0.0106224 -0.0105122 -0.0103716 -0.0102006 -0.00999908 -0.00978499 -0.00957618 -0.00937265 -0.0091744 -0.00898144 -0.00879376 -0.00861136 -0.00843425 -0.00826944 -0.00812395 -0.00799778 -0.00789093 -0.00780341 -0.0077352 -0.00768631 -0.00765675 -0.00764705 -0.00765778 -0.00768893 -0.0077405 -0.00781249 -0.0079049 -0.00801774 -0.008151 -0.0082979 -0.00845164 -0.00861224 -0.00877969 -0.00895399 -0.00913515 -0.00932315 -0.00951801 -0.00970172 -0.00985628 -0.00998169 -0.010078 -0.0101451 -0.010183 -0.0101919 -0.0101715 -0.010109 -0.00999142 -0.00981865 -0.00959073 -0.00930767 -0.00896945 -0.0085761 -0.00812759 -0.00764168 -0.00713612 -0.0066109 -0.00606602 -0.0055015 -0.00491731 -0.00431347 -0.00368998 -0.00308013 -0.00251722 -0.00200126 -0.00153224 -0.00111017 -0.000735036 -0.000406851 -0.00012561 0.000108974 0.000297189 0.000439035 0.000534513 0.000583621 0.00058636 0.000542731 0.000452732 0.000346623 0.000254662 0.000176849 0.000113183 6.36655e-05 2.82958e-05 7.07394e-06 0 0 6.97927e-06 2.79171e-05 6.28134e-05 0.000111668 0.000174482 0.000251254 0.000341984 0.000446673 0.000529842 0.000556013 0.000525186 0.00043736 0.000292536 9.07143e-05 -0.000168106 -0.000483925 -0.00085241 -0.00126923 -0.00173438 -0.00224787 -0.00280969 -0.00341984 -0.00407833 -0.00478515 -0.00549981 -0.00618182 -0.00683116 -0.00744785 -0.00803189 -0.00858326 -0.00910198 -0.00958804 -0.0100275 -0.0104065 -0.010725 -0.0109829 -0.0111804 -0.0113173 -0.0113938 -0.0114097 -0.0113855 -0.0113415 -0.0112777 -0.0111942 -0.0110908 -0.0109677 -0.0108247 -0.010662 -0.0104946 -0.0103374 -0.0101905 -0.0100538 -0.00992749 -0.00981142 -0.00970562 -0.0096101 -0.00952396 -0.00944634 -0.00937722 -0.0093166 -0.00926449 -0.00922088 -0.00918577 -0.00915917 -0.00914183 -0.00913447 -0.00913711 -0.00914975 -0.00917238 -0.00920501 -0.00924764 -0.00930026 -0.00936397 -0.00943986 -0.00952794 -0.00962821 -0.00974066 -0.00986529 -0.0100021 -0.0101511 -0.0102968 -0.0104236 -0.0105316 -0.0106207 -0.010691 -0.0107425 -0.010775 -0.0107888 -0.0107644 -0.0106826 -0.0105435 -0.010347 -0.010093 -0.00978172 -0.00941302 -0.00898693 -0.00851766 -0.00801941 -0.00749219 -0.006936 -0.00635083 -0.00573668 -0.00509356 -0.00442147 -0.00375812 -0.00314124 -0.00257083 -0.00204689 -0.00156941 -0.0011384 -0.000753862 -0.000415791 -0.000127221 0.000108814 0.000292313 0.000423277 0.000501705 0.000527599 0.000500957 0.00042178 0.000322925 0.000237251 0.000164758 0.000105445 5.93128e-05 2.63612e-05 6.59031e-06 0 0 5.89429e-06 2.35772e-05 5.30486e-05 9.43086e-05 0.000147357 0.000212194 0.00028882 0.000377235 0.000440087 0.000440025 0.000377051 0.000251164 6.23629e-05 -0.000189351 -0.000503978 -0.000881518 -0.00131245 -0.00178726 -0.00230595 -0.00286851 -0.00347495 -0.00412527 -0.00481946 -0.00555753 -0.00629469 -0.00698618 -0.00763199 -0.00823213 -0.00878658 -0.00929536 -0.00975846 -0.0101759 -0.0105408 -0.0108462 -0.0110923 -0.0112789 -0.0114062 -0.011474 -0.0114824 -0.0114314 -0.0113499 -0.0112667 -0.011182 -0.0110956 -0.0110076 -0.010918 -0.0108267 -0.0107339 -0.0106489 -0.0105814 -0.0105314 -0.0104988 -0.0104837 -0.0104861 -0.0105059 -0.0105432 -0.0105848 -0.0106176 -0.0106416 -0.0106569 -0.0106633 -0.010661 -0.0106499 -0.01063 -0.0106023 -0.0105678 -0.0105265 -0.0104784 -0.0104235 -0.0103617 -0.0102932 -0.0102179 -0.0101491 -0.0100999 -0.0100706 -0.0100609 -0.010071 -0.0101008 -0.0101504 -0.0102197 -0.0102982 -0.0103754 -0.0104512 -0.0105256 -0.0105987 -0.0106704 -0.0107408 -0.0108098 -0.0108498 -0.0108331 -0.0107597 -0.0106296 -0.0104429 -0.0101994 -0.00989924 -0.0095424 -0.00913657 -0.00868946 -0.00820106 -0.00767138 -0.00710041 -0.00648815 -0.00583462 -0.00513979 -0.00444561 -0.00379399 -0.00318494 -0.00261845 -0.00209452 -0.00161316 -0.00117437 -0.000778142 -0.000432268 -0.000144537 8.50491e-05 0.000256492 0.00036979 0.000424945 0.000421955 0.000360822 0.000276254 0.000202962 0.000140946 9.02054e-05 5.07405e-05 2.25514e-05 5.63784e-06 0 0 4.2938e-06 1.71752e-05 3.86442e-05 6.87007e-05 0.000107345 0.000154577 0.000210396 0.000274803 0.000309414 0.000275845 0.000174097 4.16973e-06 -0.000233937 -0.000540224 -0.00091469 -0.00135734 -0.00185194 -0.00238227 -0.00294833 -0.00355012 -0.00418764 -0.0048609 -0.00556988 -0.00631459 -0.00704629 -0.00771622 -0.00832438 -0.00887077 -0.0093554 -0.00977826 -0.0101394 -0.0104387 -0.0106796 -0.0108654 -0.0109961 -0.0110718 -0.0110923 -0.0110578 -0.0109682 -0.0108234 -0.0106632 -0.010527 -0.0104148 -0.0103267 -0.0102626 -0.0102226 -0.0102065 -0.0102146 -0.010248 -0.0103083 -0.0103954 -0.0105094 -0.0106501 -0.0108177 -0.0110122 -0.0112335 -0.0114519 -0.0116377 -0.011791 -0.0119118 -0.012 -0.0120556 -0.0120787 -0.0120692 -0.0120284 -0.0119577 -0.011857 -0.0117264 -0.0115657 -0.0113751 -0.0111545 -0.010904 -0.0106532 -0.0104319 -0.0102401 -0.0100778 -0.00994506 -0.00984181 -0.00976806 -0.00972383 -0.00970601 -0.00971152 -0.00974037 -0.00979254 -0.00986805 -0.00996688 -0.010089 -0.0102345 -0.0103652 -0.0104428 -0.0104673 -0.0104387 -0.0103571 -0.0102225 -0.0100348 -0.00979402 -0.00949843 -0.00914626 -0.0087375 -0.00827216 -0.00775023 -0.00717172 -0.00653663 -0.00584494 -0.00514259 -0.00447546 -0.00384358 -0.00324692 -0.00268551 -0.00215932 -0.00166838 -0.00121266 -0.000806166 -0.000462864 -0.000182756 3.41572e-05 0.000187875 0.000278398 0.000305726 0.000269859 0.00020661 0.000151795 0.000105414 6.74646e-05 3.79489e-05 1.68662e-05 4.21654e-06 0 0 2.17779e-06 8.71116e-06 1.96001e-05 3.48446e-05 5.44447e-05 7.84004e-05 0.000106712 0.000139378 0.000137824 6.34732e-05 -8.36754e-05 -0.000303621 -0.000596364 -0.000961905 -0.00140024 -0.00191138 -0.00247086 -0.00305424 -0.00366151 -0.00429269 -0.00494776 -0.00562672 -0.00632959 -0.00705635 -0.0077546 -0.00837192 -0.00890832 -0.00936379 -0.00973834 -0.010032 -0