<?xml version="1.0"?> 
<VTKFile type="StructuredGrid" version="0.1"> 
<StructuredGrid WholeExtent="0 128 0 128 0 0"> 
<Piece Extent="0 128 0 128 0 0"> 
<PointData>
<DataArray type="Float32" Name="u" format="ascii" NumberOfComponents="1"> 
0 0 0 0 0 0 0 0 0 0 0 0 0 0 0 0 0 0 0 0 0 0 0 0 0 0 0 0 0 0 0 0 0 0 0 0 0 0 0 0 0 0 0 0 0 0 0 0 0 0 0 0 0 0 0 0 0 0 0 0 0 0 0 0 0 0 0 0 0 0 0 0 0 0 0 0 0 0 0 0 0 0 0 0 0 0 0 0 0 0 0 0 0 0 0 0 0 0 0 0 0 0 0 0 0 0 0 0 0 0 0 0 0 0 0 0 0 0 0 0 0 0 0 0 0 0 0 0 0 0 1.34252e-06 5.37008e-06 1.20827e-05 2.14803e-05 3.3563e-05 4.83307e-05 6.57835e-05 8.59213e-05 0.000108867 0.000134745 0.000163554 0.000195295 0.000229968 0.000267572 0.000308108 0.000351575 0.000396509 0.000441446 0.000486385 0.000531327 0.000576271 0.000621218 0.000666168 0.000711119 0.000754924 0.000796433 0.000835646 0.000872563 0.000907184 0.000939508 0.000969537 0.00099727 0.00102239 0.00104459 0.00106386 0.0010802 0.00109362 0.00110412 0.00111169 0.00111633 0.00111834 0.00111801 0.00111535 0.00111035 0.00110302 0.00109334 0.00108133 0.00106699 0.00105086 0.00103349 0.00101489 0.000995056 0.000973987 0.000951684 0.000928147 0.000903375 0.000877883 0.000852186 0.000826282 0.000800172 0.000773855 0.000747333 0.000720605 0.00069367 0.000666854 0.000640479 0.000614547 0.000589056 0.000564008 0.000539401 0.000515236 0.000491514 0.000468351 0.000445868 0.000424063 0.000402937 0.000382489 0.00036272 0.00034363 0.000325219 0.000307466 0.000290353 0.000273878 0.000258043 0.000242846 0.000228289 0.000214371 0.000201092 0.000188382 0.000176171 0.000164458 0.000153245 0.000142531 0.000132315 0.000122599 0.000113382 0.000104607 9.622e-05 8.82203e-05 8.06078e-05 7.33827e-05 6.65448e-05 6.00943e-05 5.40311e-05 4.83355e-05 4.29878e-05 3.79882e-05 3.33364e-05 2.90327e-05 2.50769e-05 2.1469e-05 1.82092e-05 1.52703e-05 1.26255e-05 1.02748e-05 8.21825e-06 6.45575e-06 4.98733e-06 3.81301e-06 2.93277e-06 2.2454e-06 1.64968e-06 1.14561e-06 7.33193e-07 4.12421e-07 1.83298e-07 4.58245e-08 0 0 5.37008e-06 2.14803e-05 4.83307e-05 8.59213e-05 0.000134252 0.000193323 0.000263134 0.000343685 0.000435469 0.00053898 0.000654218 0.000781181 0.000919871 0.00107029 0.00123243 0.0014063 0.00158604 0.00176578 0.00194554 0.00212531 0.00230509 0.00248487 0.00266467 0.00284448 0.0030197 0.00318573 0.00334258 0.00349025 0.00362873 0.00375803 0.00387815 0.00398908 0.00408957 0.00417835 0.00425543 0.00432081 0.00437449 0.00441647 0.00444674 0.00446531 0.00447336 0.00447206 0.00446141 0.00444141 0.00441207 0.00437338 0.00432534 0.00426795 0.00420343 0.00413396 0.00405956 0.00398022 0.00389595 0.00380674 0.00371259 0.0036135 0.00351153 0.00340874 0.00330513 0.00320069 0.00309542 0.00298933 0.00288242 0.00277468 0.00266742 0.00256192 0.00245819 0.00235622 0.00225603 0.0021576 0.00206095 0.00196605 0.00187341 0.00178347 0.00169625 0.00161175 0.00152996 0.00145088 0.00137452 0.00130087 0.00122986 0.00116141 0.00109551 0.00103217 0.000971386 0.000913157 0.000857484 0.000804368 0.000753527 0.000704683 0.000657834 0.000612981 0.000570124 0.000529262 0.000490396 0.000453526 0.000418428 0.00038488 0.000352881 0.000322431 0.000293531 0.000266179 0.000240377 0.000216124 0.000193342 0.000171951 0.000151953 0.000133346 0.000116131 0.000100308 8.58762e-05 7.28366e-05 6.10812e-05 5.05021e-05 4.10994e-05 3.2873e-05 2.5823e-05 1.99493e-05 1.5252e-05 1.17311e-05 8.98161e-06 6.59874e-06 4.58245e-06 2.93277e-06 1.64968e-06 7.33193e-07 1.83298e-07 0 0 1.20827e-05 4.83307e-05 0.000108744 0.000193323 0.000302067 0.000434976 0.000592051 0.000773291 0.000979806 0.00121271 0.00147199 0.00175766 0.00206971 0.00240815 0.00277297 0.00316417 0.00356858 0.00397301 0.00437747 0.00478194 0.00518644 0.00559096 0.00599551 0.00640007 0.00679432 0.0071679 0.00752081 0.00785307 0.00816465 0.00845558 0.00872583 0.00897543 0.00920152 0.00940129 0.00957473 0.00972183 0.00984261 0.00993705 0.0100052 0.0100469 0.0100651 0.0100621 0.0100382 0.00999317 0.00992715 0.0098401 0.00973201 0.0096029 0.00945771 0.00930141 0.00913401 0.0089555 0.00876588 0.00856515 0.00835332 0.00813038 0.00790095 0.00766967 0.00743653 0.00720154 0.0069647 0.006726 0.00648544 0.00624303 0.00600168 0.00576431 0.00553092 0.0053015 0.00507607 0.00485461 0.00463713 0.00442362 0.00421516 0.00401281 0.00381657 0.00362643 0.0034424 0.00326448 0.00309267 0.00292697 0.00276719 0.00261317 0.0024649 0.00232238 0.00218562 0.0020546 0.00192934 0.00180983 0.00169544 0.00158554 0.00148013 0.00137921 0.00128278 0.00119084 0.00110339 0.00102043 0.000941464 0.00086598 0.000793982 0.00072547 0.000660444 0.000598903 0.000540849 0.00048628 0.000435019 0.000386891 0.000341893 0.000300028 0.000261294 0.000225692 0.000193221 0.000163882 0.000137433 0.00011363 9.24736e-05 7.39643e-05 5.81018e-05 4.4886e-05 3.43171e-05 2.63949e-05 2.02086e-05 1.48472e-05 1.03105e-05 6.59874e-06 3.71179e-06 1.64968e-06 4.12421e-07 0 0 2.14803e-05 8.59213e-05 0.000193323 0.000343685 0.000537008 0.000773291 0.00105254 0.00137474 0.00174188 0.00215592 0.00261687 0.00312472 0.00367948 0.00428115 0.00492972 0.0056252 0.00634415 0.00706314 0.00778217 0.00850124 0.00922034 0.00993949 0.0106587 0.0113779 0.0120788 0.0127429 0.0133703 0.013961 0.0145149 0.0150321 0.0155126 0.0159563 0.0163583 0.0167134 0.0170217 0.0172833 0.017498 0.0176659 0.017787 0.0178612 0.0178934 0.0178882 0.0178456 0.0177656 0.0176483 0.0174935 0.0173014 0.0170718 0.0168137 0.0165358 0.0162382 0.0159209 0.0155838 0.0152269 0.0148503 0.014454 0.0140461 0.013635 0.0132205 0.0128027 0.0123817 0.0119573 0.0115297 0.0110987 0.0106697 0.0102477 0.00983275 0.0094249 0.00902412 0.00863041 0.00824378 0.00786422 0.00749362 0.00713388 0.00678501 0.00644699 0.00611983 0.00580353 0.00549808 0.0052035 0.00491946 0.00464564 0.00438205 0.00412868 0.00388554 0.00365263 0.00342994 0.00321747 0.00301411 0.00281873 0.00263134 0.00245192 0.00228049 0.00211705 0.00196158 0.0018141 0.00167371 0.00153952 0.00141152 0.00128972 0.00117412 0.00106472 0.000961509 0.000864497 0.000773367 0.000687805 0.000607811 0.000533383 0.000464523 0.00040123 0.000343505 0.000291347 0.000244325 0.000202008 0.000164398 0.000131492 0.000103292 7.97974e-05 6.10081e-05 4.69243e-05 3.59264e-05 2.63949e-05 1.83298e-05 1.17311e-05 6.59874e-06 2.93277e-06 7.33193e-07 0 0 3.3563e-05 0.000134252 0.000302067 0.000537008 0.000839075 0.00120827 0.00164459 0.00214803 0.00272168 0.00336863 0.00408886 0.00488238 0.0057492 0.0066893 0.00770269 0.00878937 0.00991273 0.0110362 0.0121596 0.0132832 0.0144068 0.0155305 0.0166542 0.017778 0.0188731 0.0199108 0.0208911 0.0218141 0.0226796 0.0234877 0.0242384 0.0249317 0.0255598 0.0261147 0.0265965 0.0270051 0.0273406 0.0276029 0.0277921 0.0279082 0.0279585 0.0279503 0.0278838 0.0277588 0.0275754 0.0273336 0.0270334 0.0266747 0.0262714 0.0258373 0.0253723 0.0248764 0.0243497 0.0237921 0.0232037 0.0225844 0.0219471 0.0213046 0.020657 0.0200043 0.0193464 0.0186833 0.0180151 0.0173418 0.0166713 0.016012 0.0153637 0.0147264 0.0141002 0.013485 0.0128809 0.0122878 0.0117088 0.0111467 0.0106016 0.0100734 0.00956223 0.00906801 0.00859075 0.00813047 0.00768665 0.00725881 0.00684695 0.00645107 0.00607116 0.00570723 0.00535928 0.0050273 0.00470955 0.00440427 0.00411146 0.00383113 0.00356327 0.00330789 0.00306498 0.00283454 0.00261518 0.0024055 0.00220551 0.0020152 0.00183457 0.00166362 0.00150236 0.00135078 0.00120839 0.0010747 0.000949704 0.000833411 0.000725817 0.000626922 0.000536726 0.000455229 0.000381758 0.000315638 0.000256871 0.000205456 0.000161394 0.000124683 9.53252e-05 7.33193e-05 5.61351e-05 4.12421e-05 2.86403e-05 1.83298e-05 1.03105e-05 4.58245e-06 1.14561e-06 0 0 4.83307e-05 0.000193323 0.000434976 0.000773291 0.00120827 0.00173991 0.0023682 0.00309317 0.00391923 0.00485082 0.00588796 0.00703063 0.00827884 0.00963259 0.0110919 0.0126567 0.0142743 0.0158921 0.0175099 0.0191278 0.0207458 0.0223639 0.023982 0.0256003 0.0271773 0.0286716 0.0300833 0.0314123 0.0326586 0.0338223 0.0349033 0.0359017 0.0368061 0.0376052 0.0382989 0.0388873 0.0393704 0.0397482 0.0400207 0.0401878 0.0402602 0.0402485 0.0401527 0.0399727 0.0397086 0.0393604 0.038928 0.0384116 0.0378308 0.0372057 0.036536 0.035822 0.0350635 0.0342606 0.0334133 0.0325215 0.0316038 0.0306787 0.0297461 0.0288062 0.0278588 0.026904 0.0259418 0.0249721 0.0240067 0.0230573 0.0221237 0.021206 0.0203043 0.0194184 0.0185485 0.0176945 0.0168607 0.0160512 0.0152663 0.0145057 0.0137696 0.0130579 0.0123707 0.0117079 0.0110688 0.0104527 0.00985961 0.00928954 0.00874247 0.00821841 0.00771736 0.00723931 0.00678175 0.00634215 0.00592051 0.00551683 0.00513111 0.00476336 0.00441357 0.00408173 0.00376586 0.00346392 0.00317593 0.00290188 0.00264178 0.00239561 0.00216339 0.00194512 0.00174008 0.00154756 0.00136757 0.00120011 0.00104518 0.000902768 0.000772886 0.00065553 0.000549731 0.000454519 0.000369895 0.000295857 0.000232407 0.000179544 0.000137268 0.00010558 8.08345e-05 5.93886e-05 4.12421e-05 2.63949e-05 1.48472e-05 6.59874e-06 1.64968e-06 0 0 6.57835e-05 0.000263134 0.000592051 0.00105254 0.00164459 0.0023682 0.00322339 0.00421014 0.0053345 0.00660251 0.00801416 0.00956947 0.0112684 0.013111 0.0150973 0.0172272 0.019429 0.0216309 0.0238329 0.026035 0.0282373 0.0304397 0.0326422 0.0348448 0.0369913 0.0390252 0.0409467 0.0427556 0.044452 0.0460359 0.0475073 0.0488662 0.0500972 0.0511848 0.0521291 0.05293 0.0535875 0.0541017 0.0544726 0.0547001 0.0547986 0.0547827 0.0546522 0.0544073 0.0540478 0.0535739 0.0529854 0.0522824 0.051492 0.050641 0.0497296 0.0487577 0.0477254 0.0466325 0.0454792 0.0442654 0.0430163 0.0417571 0.0404878 0.0392084 0.0379189 0.0366193 0.0353096 0.0339898 0.0326758 0.0313835 0.0301128 0.0288637 0.0276364 0.0264306 0.0252466 0.0240842 0.0229492 0.0218475 0.0207791 0.0197439 0.018742 0.0177733 0.0168379 0.0159357 0.0150658 0.0142273 0.01342 0.0126441 0.0118995 0.0111862 0.0105042 0.00985351 0.00923071 0.00863236 0.00805847 0.00750902 0.00698401 0.00648346 0.00600735 0.00555569 0.00512575 0.00471478 0.00432279 0.00394978 0.00359575 0.0032607 0.00294462 0.00264752 0.00236844 0.0021064 0.00186142 0.00163349 0.0014226 0.00122877 0.00105198 0.000892249 0.000748245 0.000618651 0.000503468 0.000402694 0.000316332 0.000244379 0.000186837 0.000143706 0.000110025 8.08345e-05 5.61351e-05 3.59264e-05 2.02086e-05 8.98161e-06 2.2454e-06 0 0 8.59213e-05 0.000343685 0.000773291 0.00137474 0.00214803 0.00309317 0.00421014 0.00549896 0.00696751 0.00862368 0.0104675 0.0124989 0.0147179 0.0171246 0.0197189 0.0225008 0.0253766 0.0282525 0.0311287 0.0340049 0.0368814 0.039758 0.0426347 0.0455116 0.0483151 0.0509717 0.0534813 0.055844 0.0580598 0.0601285 0.0620504 0.0638253 0.0654331 0.0668536 0.0680869 0.069133 0.0699919 0.0706635 0.0711478 0.071445 0.0715737 0.0715529 0.0713825 0.0710626 0.0705931 0.069974 0.0692054 0.0682873 0.0672548 0.0661434 0.064953 0.0636836 0.0623352 0.0609078 0.0594014 0.057816 0.0561845 0.0545399 0.052882 0.051211 0.0495267 0.0478293 0.0461187 0.0443949 0.0426786 0.0409907 0.039331 0.0376996 0.0360965 0.0345217 0.0329751 0.0314569 0.0299745 0.0285355 0.02714 0.0257879 0.0244793 0.0232141 0.0219923 0.020814 0.0196778 0.0185826 0.0175282 0.0165147 0.0155422 0.0146105 0.0137197 0.0128699 0.0120564 0.0112749 0.0105253 0.00980769 0.00912198 0.00846819 0.00784634 0.00725642 0.00669486 0.00615808 0.0056461 0.0051589 0.00469649 0.00425887 0.00384603 0.00345799 0.00309347 0.00275122 0.00243124 0.00213353 0.00185809 0.00160492 0.00137402 0.00116539 0.000977299 0.000808034 0.00065759 0.000525968 0.000413168 0.000319189 0.000244033 0.000187697 0.000143706 0.00010558 7.33193e-05 4.69243e-05 2.63949e-05 1.17311e-05 2.93277e-06 0 0 0.000109211 0.000436842 0.000982895 0.00174737 0.00273026 0.00393158 0.00535132 0.00698948 0.00885512 0.0109573 0.0132961 0.0158713 0.0186832 0.0217316 0.0250165 0.028538 0.0321776 0.035817 0.0394562 0.0430952 0.0467339 0.0503724 0.0540107 0.0576487 0.0611938 0.0645533 0.0677271 0.0707152 0.0735176 0.0761344 0.0785656 0.0808111 0.0828455 0.0846433 0.0862046 0.0875293 0.0886174 0.0894691 0.0900841 0.0904626 0.0906283 0.0906049 0.0903924 0.0899908 0.0894002 0.0886204 0.0876515 0.0864936 0.0851911 0.0837884 0.0822858 0.080683 0.0789802 0.0771772 0.0752743 0.0732712 0.0712096 0.069131 0.0670355 0.064923 0.0627935 0.060647 0.0584835 0.0563031 0.054132 0.0519963 0.0498962 0.0478316 0.0458025 0.0438089 0.0418508 0.0399283 0.0380509 0.0362283 0.0344605 0.0327475 0.0310893 0.0294858 0.0279372 0.0264434 0.0250028 0.023614 0.0222768 0.0209914 0.0197577 0.0185758 0.0174455 0.016367 0.0153345 0.0143425 0.013391 0.0124799 0.0116093 0.0107791 0.0099894 0.00924014 0.00852682 0.00784494 0.00719449 0.00657547 0.00598788 0.00543172 0.00490699 0.00441369 0.00395021 0.00351494 0.00310787 0.002729 0.00237834 0.00205589 0.00176163 0.00149559 0.00125558 0.00103944 0.000847173 0.000678777 0.000534252 0.000413599 0.000316816 0.000243904 0.000186739 0.000137196 9.52751e-05 6.09761e-05 3.4299e-05 1.5244e-05 3.811e-06 0 0 0.000136118 0.000544471 0.00122506 0.00217789 0.00340295 0.00490024 0.00666977 0.00871154 0.0110342 0.0136463 0.016548 0.0197392 0.0232199 0.0269902 0.0310499 0.0353992 0.0398924 0.0443843 0.0488746 0.0533635 0.0578509 0.0623368 0.0668213 0.0713042 0.0756723 0.0798121 0.0837235 0.0874067 0.0908615 0.0940879 0.0970861 0.0998559 0.102366 0.104585 0.106514 0.108152 0.109498 0.110554 0.111319 0.111793 0.112005 0.111985 0.111731 0.111244 0.110525 0.109572 0.108387 0.106969 0.105372 0.103652 0.101808 0.0998395 0.0977476 0.0955318 0.0931922 0.0907287 0.0881925 0.0856345 0.0830548 0.0804534 0.0778302 0.0751853 0.0725187 0.0698303 0.0671526 0.064518 0.0619264 0.0593778 0.0568723 0.0544099 0.0519905 0.0496141 0.0472929 0.0450388 0.0428519 0.0407321 0.0386795 0.036694 0.0347757 0.0329246 0.0311389 0.0294169 0.0277587 0.0261641 0.0246333 0.0231663 0.0217629 0.0204233 0.0191405 0.0179079 0.0167253 0.0155927 0.0145102 0.0134778 0.0124954 0.0115631 0.0106753 0.00982647 0.00901661 0.00824572 0.00751379 0.00682083 0.00616684 0.00555181 0.00497371 0.00443048 0.00392212 0.00344864 0.00301004 0.00260632 0.00223747 0.00190349 0.00160176 0.00132964 0.00108713 0.000874219 0.000690921 0.000537231 0.00041315 0.000318676 0.000243987 0.000179255 0.000124483 7.96691e-05 4.48139e-05 1.99173e-05 4.97932e-06 0 0 0.000166643 0.000666572 0.00149979 0.00266629 0.00416608 0.00599915 0.00816551 0.0106652 0.0135047 0.0166908 0.0202234 0.0241025 0.0283282 0.0329004 0.0378191 0.0430843 0.048521 0.0539542 0.0593838 0.0648098 0.0702322 0.0756511 0.0810664 0.0864781 0.0917506 0.0967482 0.101471 0.105918 0.110091 0.113989 0.117612 0.12096 0.123995 0.12668 0.129015 0.131 0.132634 0.133919 0.134853 0.135436 0.135705 0.135692 0.135398 0.134823 0.133967 0.13283 0.131412 0.129713 0.127799 0.125734 0.123519 0.121153 0.118637 0.115971 0.113155 0.110189 0.107133 0.10405 0.10094 0.0978023 0.0946371 0.0914444 0.0882242 0.0849765 0.0817406 0.0785556 0.0754215 0.0723382 0.0693059 0.0663245 0.063394 0.0605143 0.0577004 0.054967 0.0523141 0.0497418 0.04725 0.0448386 0.0425078 0.0402576 0.038086 0.0359914 0.0339737 0.0320329 0.030169 0.028382 0.026672 0.0250388 0.0234745 0.021971 0.0205281 0.0191461 0.0178248 0.0165642 0.0153644 0.0142253 0.0131403 0.0121027 0.0111125 0.0101697 0.00927424 0.00842621 0.00762558 0.00687234 0.00616395 0.00549784 0.00487401 0.00429246 0.0037532 0.00325622 0.00280152 0.00238911 0.00201586 0.00167864 0.00137745 0.00111229 0.000883174 0.000690087 0.000533034 0.000412013 0.000315448 0.000231758 0.000160943 0.000103003 5.79394e-05 2.57508e-05 6.43771e-06 0 0 0.000200786 0.000803145 0.00180708 0.00321258 0.00501966 0.00722831 0.00983853 0.0128503 0.0162667 0.0200906 0.0243222 0.0289613 0.0340079 0.0394622 0.045324 0.0515935 0.0580634 0.0645268 0.0709837 0.0774341 0.083878 0.0903153 0.0967461 0.10317 0.109429 0.115362 0.120969 0.126251 0.131207 0.135838 0.140143 0.144123 0.147732 0.150927 0.153708 0.156074 0.158025 0.159562 0.160685 0.161393 0.161726 0.161727 0.161394 0.160727 0.159727 0.158394 0.156727 0.154727 0.15247 0.150034 0.147419 0.144624 0.14165 0.138496 0.135163 0.131651 0.128032 0.124379 0.120691 0.11697 0.113214 0.109424 0.1056 0.101742 0.0978959 0.0941092 0.0903815 0.0867129 0.0831033 0.0795528 0.0760614 0.072629 0.0692735 0.066013 0.0628473 0.0597766 0.0568007 0.0539197 0.0511336 0.0484424 0.0458442 0.0433374 0.0409219 0.0385976 0.0363647 0.034223 0.0321727 0.0302136 0.0283364 0.0265318 0.0247996 0.02314 0.0215529 0.0200383 0.0185963 0.0172267 0.0159218 0.0146736 0.0134821 0.0123473 0.0112692 0.0102479 0.00928322 0.00837529 0.00752094 0.00671702 0.00596352 0.00526045 0.00460781 0.00400559 0.0034538 0.00295243 0.00249786 0.00208643 0.00171814 0.001393 0.00111101 0.000872167 0.000676468 0.000523916 0.000401123 0.000294703 0.000204655 0.000130979 7.36757e-05 3.27447e-05 8.18618e-06 0 0 0.000238547 0.00095419 0.00214693 0.00381676 0.00596369 0.00858771 0.0116888 0.015267 0.0193201 0.0238459 0.0288443 0.0343154 0.0402592 0.0466757 0.0535648 0.0609266 0.0685195 0.0761022 0.0836745 0.0912365 0.0987881 0.106329 0.11386 0.121381 0.128707 0.135652 0.142218 0.148403 0.154208 0.159634 0.164679 0.169344 0.173578 0.177327 0.180593 0.183374 0.185672 0.187486 0.188816 0.189661 0.19007 0.190089 0.189718 0.188956 0.187805 0.186263 0.184331 0.182009 0.179386 0.176553 0.173508 0.170252 0.166784 0.163106 0.159216 0.155116 0.150888 0.146619 0.142308 0.137956 0.133561 0.129124 0.124646 0.120126 0.115619 0.111179 0.106807 0.102502 0.0982645 0.0940948 0.0899926 0.085958 0.0820122 0.0781767 0.0744514 0.0708364 0.0673317 0.0639372 0.0606529 0.057479 0.0544135 0.051455 0.0486033 0.0458584 0.0432204 0.0406893 0.038265 0.0359476 0.0337263 0.0315903 0.0295398 0.0275746 0.0256947 0.0239002 0.0221911 0.0205674 0.0190198 0.0175391 0.0161254 0.0147786 0.0134987 0.0122858 0.0111397 0.0100607 0.00904469 0.00808802 0.00719066 0.00635261 0.00557387 0.00485443 0.00419429 0.00359346 0.00304776 0.00255301 0.0021092 0.00171635 0.00137443 0.00108347 0.000843453 0.000654383 0.000501012 0.000368091 0.000255618 0.000163596 9.20226e-05 4.0899e-05 1.02247e-05 0 0 0.000279927 0.00111971 0.00251934 0.00447883 0.00699816 0.0100774 0.0137164 0.0179153 0.022665 0.0279566 0.0337899 0.040165 0.047082 0.0545408 0.0625413 0.0710837 0.0798895 0.0886802 0.097456 0.106217 0.114963 0.123694 0.132409 0.14111 0.149584 0.15762 0.165217 0.172376 0.179096 0.185377 0.191221 0.196625 0.201531 0.205879 0.209669 0.2129 0.215574 0.217688 0.219245 0.220243 0.220737 0.220779 0.220371 0.219511 0.2182 0.216438 0.214225 0.21156 0.208548 0.20529 0.201786 0.198036 0.194041 0.189801 0.185314 0.180582 0.175703 0.170772 0.165791 0.16076 0.155678 0.150545 0.145363 0.140129 0.134909 0.129764 0.124696 0.119705 0.11479 0.109951 0.105188 0.100501 0.0959164 0.0914581 0.0871264 0.0829214 0.0788429 0.0748911 0.0710659 0.0673673 0.0637939 0.060344 0.0570178 0.0538152 0.0507362 0.0477808 0.044949 0.0422408 0.0396441 0.0371466 0.0347485 0.0324497 0.0302501 0.0281499 0.0261489 0.0242473 0.0224343 0.0206994 0.0190425 0.0174636 0.0159627 0.0145399 0.0131952 0.0119284 0.0107352 0.00961085 0.00855544 0.00756895 0.00665138 0.00580273 0.00502301 0.0043122 0.00366558 0.00307839 0.00255064 0.00208232 0.00167344 0.001324 0.00103399 0.000803416 0.000615115 0.000451921 0.000313834 0.000200854 0.00011298 5.02135e-05 1.25534e-05 0 0 0.000324924 0.00129969 0.00292431 0.00519878 0.00812309 0.0116973 0.0159213 0.0207951 0.0263014 0.0324226 0.0391589 0.0465101 0.0544763 0.0630575 0.0722536 0.0820648 0.0921731 0.102261 0.112328 0.122375 0.132402 0.142408 0.152393 0.162358 0.172062 0.181265 0.189967 0.198169 0.205869 0.213069 0.219767 0.225965 0.231593 0.236584 0.240937 0.244653 0.24773 0.250171 0.251973 0.253138 0.253726 0.253797 0.253352 0.252391 0.250913 0.248919 0.246408 0.243381 0.239954 0.236245 0.232253 0.227978 0.223421 0.218581 0.213458 0.208052 0.202475 0.196837 0.19114 0.185383 0.179565 0.173687 0.167749 0.161751 0.155766 0.149866 0.144051 0.138322 0.132678 0.12712 0.121647 0.116259 0.110986 0.105857 0.100872 0.0960314 0.0913344 0.0867815 0.0823725 0.0781075 0.0739853 0.0700047 0.0661656 0.062468 0.058912 0.0554975 0.0522246 0.0490933 0.0460898 0.0432007 0.0404259 0.0377654 0.0352192 0.0327873 0.0304697 0.0282664 0.0261653 0.0241543 0.0222332 0.0204023 0.0186613 0.0170104 0.0154495 0.0139786 0.0125924 0.0112855 0.0100578 0.00890945 0.00784034 0.00685051 0.00593994 0.00510865 0.0043513 0.00366256 0.00304244 0.00249093 0.00200803 0.00159375 0.00124807 0.000971014 0.000743432 0.000546195 0.000379302 0.000242753 0.000136549 6.06883e-05 1.51721e-05 0 0 0.000373539 0.00149416 0.00336185 0.00597662 0.00933847 0.0134474 0.0183034 0.0239065 0.0302292 0.0372441 0.0449512 0.0533506 0.0624421 0.0722258 0.0827017 0.0938698 0.105371 0.116845 0.128292 0.139712 0.151105 0.162471 0.173811 0.185124 0.196139 0.206588 0.216468 0.225782 0.234529 0.242708 0.250319 0.257364 0.263764 0.269441 0.274397 0.278631 0.282143 0.284932 0.287 0.288345 0.289037 0.289142 0.288662 0.287596 0.285943 0.283705 0.280881 0.27747 0.273606 0.269419 0.264909 0.260077 0.254923 0.249445 0.243646 0.237524 0.231205 0.224815 0.218355 0.211824 0.205222 0.19855 0.191806 0.184992 0.178191 0.171483 0.164871 0.158354 0.151931 0.145603 0.13937 0.133231 0.127222 0.121374 0.115689 0.110167 0.104806 0.0996083 0.0945727 0.0896995 0.0849878 0.0804368 0.0760465 0.0718168 0.0677479 0.0638395 0.0600919 0.0565049 0.0530635 0.0497525 0.0465719 0.0435216 0.0406018 0.0378124 0.0351534 0.0326248 0.0302129 0.0279039 0.0256978 0.0235946 0.0215944 0.0196971 0.0179027 0.0162112 0.0146164 0.013112 0.0116979 0.0103741 0.00914076 0.00799775 0.0069451 0.0059828 0.00510493 0.00430553 0.00358461 0.00294217 0.00237821 0.00189272 0.00148571 0.00115718 0.000885963 0.000650912 0.000452022 0.000289294 0.000162728 7.23235e-05 1.80809e-05 0 0 0.000424809 0.00169924 0.00382328 0.00679694 0.0106202 0.0152931 0.0208156 0.0271878 0.0343708 0.042326 0.0510533 0.0605527 0.0708244 0.0818681 0.0936841 0.106272 0.119229 0.132152 0.145041 0.157895 0.170716 0.183502 0.196254 0.208972 0.221354 0.233101 0.24421 0.254684 0.26452 0.273721 0.282285 0.290212 0.297417 0.303812 0.309397 0.314173 0.318139 0.321295 0.323642 0.325179 0.325983 0.326127 0.325614 0.324443 0.322613 0.320125 0.316978 0.313174 0.308858 0.304178 0.299133 0.293725 0.287952 0.281816 0.275315 0.26845 0.261361 0.254191 0.246938 0.239603 0.232186 0.224687 0.217105 0.209441 0.201789 0.19424 0.186796 0.179456 0.172219 0.165087 0.15806 0.151136 0.144355 0.137755 0.131337 0.1251 0.119044 0.113169 0.107476 0.101964 0.0966328 0.0914822 0.0865121 0.0817226 0.0771136 0.0726852 0.0684373 0.06437 0.0604666 0.0567105 0.0531016 0.04964 0.0463256 0.0431585 0.0401386 0.037266 0.0345252 0.031901 0.0293931 0.0270018 0.0247269 0.0225685 0.0205265 0.018601 0.0167848 0.0150705 0.0134582 0.0119479 0.0105396 0.00923322 0.00802888 0.00692652 0.00591961 0.0050016 0.00417249 0.00343229 0.002781 0.0022186 0.00174512 0.00136053 0.00104166 0.000765299 0.000531457 0.000340133 0.000191325 8.50332e-05 2.12583e-05 0 0 0.000477771 0.00191108 0.00429994 0.00764434 0.0119443 0.0171998 0.0234108 0.0305774 0.0386485 0.0475731 0.0573513 0.0679829 0.0794682 0.0918069 0.104999 0.119045 0.133496 0.147905 0.162272 0.176595 0.190877 0.205116 0.219312 0.233466 0.247246 0.260318 0.272683 0.284341 0.295292 0.305535 0.315072 0.323902 0.331928 0.339056 0.345286 0.350617 0.355049 0.358583 0.361218 0.362954 0.363875 0.364065 0.363523 0.362249 0.360243 0.357505 0.354036 0.349835 0.345065 0.339888 0.334304 0.328313 0.321916 0.315111 0.3079 0.300282 0.292413 0.28445 0.276392 0.26824 0.259994 0.251653 0.243217 0.234687 0.226167 0.217759 0.209465 0.201284 0.193216 0.185261 0.17742 0.169691 0.162119 0.154748 0.147576 0.140605 0.133834 0.127263 0.120892 0.114722 0.108752 0.102982 0.0974138 0.0920461 0.0868791 0.0819129 0.0771474 0.0725827 0.0682007 0.0639832 0.0599302 0.0560418 0.0523179 0.0487586 0.0453638 0.0421335 0.0390508 0.0360984 0.0332765 0.0305849 0.0280238 0.025593 0.0232927 0.0211228 0.019075 0.0171413 0.0153214 0.0136156 0.0120236 0.0105457 0.00918169 0.00793165 0.00678848 0.00574506 0.00480142 0.00395754 0.00321343 0.00256909 0.00202451 0.0015797 0.00120946 0.000888584 0.000617072 0.000394926 0.000222146 9.87315e-05 2.46829e-05 0 0 0.000532426 0.0021297 0.00479183 0.00851881 0.0133106 0.0191673 0.0260889 0.0340752 0.0430622 0.0529855 0.0638452 0.0756411 0.0883734 0.102042 0.116647 0.132188 0.148172 0.164104 0.179984 0.195812 0.211588 0.227313 0.242986 0.258607 0.273813 0.288239 0.301886 0.314754 0.326842 0.338151 0.348681 0.358431 0.367297 0.375174 0.382063 0.387962 0.392872 0.396794 0.399726 0.401669 0.402715 0.402954 0.402387 0.401013 0.398834 0.395847 0.392055 0.387455 0.382228 0.37655 0.370421 0.363842 0.356812 0.349332 0.341402 0.33302 0.32436 0.315593 0.306717 0.297735 0.288645 0.279447 0.270142 0.26073 0.251325 0.242041 0.232879 0.223839 0.214921 0.206124 0.19745 0.188897 0.180514 0.172351 0.164406 0.156681 0.149175 0.141888 0.134821 0.127972 0.121344 0.114937 0.108752 0.102787 0.0970443 0.0915226 0.0862222 0.081143 0.0762656 0.0715705 0.0670577 0.0627271 0.0585788 0.0546128 0.050829 0.0472275 0.0437895 0.0404962 0.0373477 0.034344 0.031485 0.0287707 0.0262012 0.0237765 0.0214873 0.0193243 0.0172876 0.0153772 0.013593 0.0119352 0.0104035 0.00899821 0.00771154 0.00653593 0.00547139 0.00451792 0.00367551 0.00294418 0.0023239 0.0018147 0.00138938 0.00102077 0.000708865 0.000453674 0.000255192 0.000113418 2.83546e-05 0 0 0.000588772 0.00235509 0.00529895 0.00942036 0.0147193 0.0211958 0.0288498 0.0376814 0.0476121 0.0585632 0.070535 0.0835273 0.0975402 0.112574 0.128628 0.145702 0.163256 0.180748 0.198177 0.215545 0.23285 0.250094 0.267275 0.284394 0.301056 0.316865 0.33182 0.345922 0.359172 0.371568 0.383111 0.393801 0.403524 0.412166 0.419728 0.426209 0.431609 0.435928 0.439167 0.441325 0.442501 0.442795 0.442207 0.440737 0.438385 0.43515 0.431033 0.426034 0.420346 0.414163 0.407485 0.400311 0.392643 0.384479 0.37582 0.366665 0.357203 0.347619 0.337914 0.328087 0.31814 0.308071 0.297881 0.287569 0.277262 0.267085 0.257038 0.247121 0.237334 0.227677 0.21815 0.208752 0.199539 0.190564 0.181828 0.173329 0.165069 0.157046 0.149262 0.141716 0.134411 0.127347 0.120526 0.113946 0.107609 0.101514 0.0956616 0.0900509 0.0846616 0.0794726 0.0744841 0.069696 0.0651083 0.0607211 0.0565342 0.0525478 0.0487413 0.0450944 0.0416069 0.038279 0.0351105 0.0321016 0.0292521 0.0265622 0.0240214 0.0216196 0.0193567 0.0172328 0.0152477 0.0134016 0.0116944 0.0101262 0.00868879 0.0073742 0.00618241 0.00511343 0.00416724 0.00334386 0.00264328 0.00206551 0.0015814 0.00116185 0.000806838 0.000516376 0.000290462 0.000129094 3.22735e-05 0 0 0.000646811 0.00258724 0.0058213 0.010349 0.0161703 0.0232852 0.0316937 0.0413959 0.052298 0.0643063 0.0774208 0.0916415 0.106968 0.123402 0.140941 0.159587 0.178749 0.197837 0.216852 0.235794 0.254663 0.273458 0.292179 0.310828 0.328975 0.346194 0.362485 0.377847 0.392281 0.405786 0.418363 0.430012 0.440609 0.450032 0.458282 0.465358 0.471259 0.475987 0.479541 0.481921 0.483235 0.483589 0.482984 0.48142 0.478897 0.475414 0.470972 0.465571 0.45942 0.452728 0.445495 0.437721 0.429406 0.420551 0.411154 0.401216 0.39094 0.380528 0.369981 0.359297 0.348478 0.337523 0.326432 0.315205 0.30398 0.292892 0.281942 0.27113 0.260455 0.249919 0.23952 0.229259 0.219195 0.209389 0.19984 0.190548 0.181514 0.172737 0.164216 0.155954 0.147951 0.140212 0.132736 0.125523 0.118574 0.111888 0.105466 0.0993064 0.0933884 0.0876894 0.0822094 0.0769484 0.0719064 0.0670834 0.0624795 0.0580945 0.0539064 0.0498929 0.0460541 0.0423899 0.0389004 0.0355855 0.0324453 0.0294798 0.0266775 0.0240272 0.0215288 0.0191823 0.0169877 0.0149451 0.0130544 0.0113156 0.00972023 0.00825986 0.00693447 0.00574406 0.00468862 0.00376815 0.00298265 0.00233213 0.00178554 0.00131182 0.00091099 0.000583033 0.000327956 0.000145758 3.64396e-05 0 0 0.000706542 0.00282617 0.00635888 0.0113047 0.0176635 0.0254355 0.0346205 0.0452187 0.05712 0.0702146 0.0845025 0.0999837 0.116658 0.134526 0.153587 0.173841 0.19465 0.215372 0.236009 0.25656 0.277025 0.297405 0.317699 0.337908 0.35757 0.376228 0.39388 0.410527 0.426169 0.440805 0.454437 0.467062 0.478551 0.488772 0.497724 0.505408 0.511823 0.51697 0.520848 0.523458 0.524915 0.525334 0.524717 0.523061 0.520369 0.516639 0.511871 0.506067 0.499449 0.492244 0.484452 0.476072 0.467104 0.457548 0.447405 0.436674 0.425573 0.414322 0.402919 0.391365 0.37966 0.367804 0.355797 0.343638 0.331477 0.319461 0.30759 0.295865 0.284284 0.272849 0.26156 0.250416 0.239482 0.228825 0.218444 0.208339 0.198511 0.188959 0.179683 0.170684 0.161965 0.153531 0.145382 0.137518 0.129939 0.122644 0.115634 0.10891 0.102446 0.0962208 0.0902335 0.0844843 0.0789731 0.0736999 0.0686647 0.0638676 0.0592846 0.0548918 0.0506892 0.0466768 0.0428546 0.0392227 0.0357809 0.0325294 0.0294556 0.026547 0.0238037 0.0212257 0.018813 0.0165655 0.0144833 0.0125664 0.0108059 0.00919293 0.00772758 0.00640982 0.00523963 0.00421703 0.00334202 0.00261458 0.00200179 0.0014707 0.00102132 0.000653645 0.000367675 0.000163411 4.08528e-05 0 0 0.000767965 0.00307186 0.00691168 0.0122874 0.0191991 0.0276467 0.0376303 0.0491497 0.0620781 0.0762882 0.0917801 0.108554 0.126609 0.145947 0.166566 0.188467 0.210959 0.233352 0.255647 0.277842 0.299938 0.321936 0.343834 0.365634 0.386842 0.406966 0.426006 0.443963 0.460837 0.476626 0.491332 0.504954 0.517352 0.528386 0.538055 0.54636 0.5533 0.558876 0.563088 0.565935 0.567542 0.568032 0.567405 0.565662 0.562802 0.558825 0.553731 0.547521 0.540434 0.532712 0.524355 0.515362 0.505734 0.495471 0.484572 0.473037 0.461101 0.448998 0.436728 0.424291 0.411686 0.398914 0.385974 0.372868 0.359754 0.346792 0.333983 0.321326 0.308822 0.29647 0.28427 0.272223 0.260399 0.248871 0.237639 0.226702 0.21606 0.205714 0.195663 0.185908 0.176453 0.167306 0.158465 0.14993 0.141703 0.133782 0.126168 0.11886 0.111835 0.105067 0.0985566 0.0923037 0.0863083 0.0805704 0.07509 0.069867 0.0648759 0.060091 0.0555122 0.0511396 0.0469732 0.0430129 0.0392588 0.0357109 0.0323555 0.0291791 0.0261816 0.0233