<?xml version="1.0"?> 
<VTKFile type="StructuredGrid" version="0.1"> 
<StructuredGrid WholeExtent="0 128 0 128 0 0"> 
<Piece Extent="0 128 0 128 0 0"> 
<PointData>
<DataArray type="Float32" Name="u" format="ascii" NumberOfComponents="1"> 
0 0 0 0 0 0 0 0 0 0 0 0 0 0 0 0 0 0 0 0 0 0 0 0 0 0 0 0 0 0 0 0 0 0 0 0 0 0 0 0 0 0 0 0 0 0 0 0 0 0 0 0 0 0 0 0 0 0 0 0 0 0 0 0 0 0 0 0 0 0 0 0 0 0 0 0 0 0 0 0 0 0 0 0 0 0 0 0 0 0 0 0 0 0 0 0 0 0 0 0 0 0 0 0 0 0 0 0 0 0 0 0 0 0 0 0 0 0 0 0 0 0 0 0 0 0 0 0 0 0 3.88457e-07 1.55383e-06 3.49611e-06 6.21531e-06 9.71142e-06 1.39845e-05 1.90344e-05 2.48612e-05 3.1551e-05 3.91895e-05 4.77769e-05 5.73132e-05 6.77982e-05 7.92321e-05 9.16149e-05 0.000104946 0.000118782 0.000132678 0.000146633 0.000160648 0.000174723 0.000188858 0.000203052 0.000217306 0.000231243 0.000244486 0.000257034 0.000268889 0.000280049 0.000290514 0.000300286 0.000309363 0.00031764 0.00032501 0.000331472 0.000337027 0.000341676 0.000345417 0.000348251 0.000350178 0.0003513 0.000351717 0.000351431 0.000350441 0.000348746 0.000346348 0.000343246 0.00033944 0.000335116 0.000330462 0.000325477 0.000320162 0.000314516 0.00030854 0.000302233 0.000295596 0.000288788 0.000281968 0.000275138 0.000268297 0.000261445 0.000254582 0.000247708 0.000240823 0.000234001 0.000227319 0.000220774 0.000214369 0.000208102 0.000201973 0.000195983 0.000190132 0.000184414 0.000178826 0.000173366 0.000168036 0.000162835 0.000157763 0.00015282 0.000148006 0.000143283 0.000138612 0.000133993 0.000129427 0.000124912 0.00012045 0.00011604 0.000111683 0.000107354 0.000103031 9.87148e-05 9.44044e-05 9.00999e-05 8.58016e-05 8.15093e-05 7.7223e-05 7.29613e-05 6.87427e-05 6.45673e-05 6.04349e-05 5.63457e-05 5.22996e-05 4.82966e-05 4.43367e-05 4.04754e-05 3.67679e-05 3.32143e-05 2.98146e-05 2.65688e-05 2.34769e-05 2.05388e-05 1.77547e-05 1.51626e-05 1.28007e-05 1.06689e-05 8.76736e-06 7.09598e-06 5.65478e-06 4.44377e-06 3.46294e-06 2.65132e-06 1.94791e-06 1.35271e-06 8.65736e-07 4.86977e-07 2.16434e-07 5.41085e-08 0 0 1.55383e-06 6.21531e-06 1.39845e-05 2.48612e-05 3.88457e-05 5.59378e-05 7.61376e-05 9.9445e-05 0.000126204 0.000156758 0.000191108 0.000229253 0.000271193 0.000316928 0.000366459 0.000419786 0.000475129 0.000530712 0.000586533 0.000642594 0.000698893 0.000755432 0.000812209 0.000869226 0.000924973 0.000977944 0.00102814 0.00107555 0.00112019 0.00116206 0.00120114 0.00123745 0.00127056 0.00130004 0.00132589 0.00134811 0.0013667 0.00138167 0.001393 0.00140071 0.0014052 0.00140687 0.00140572 0.00140176 0.00139499 0.00138539 0.00137298 0.00135776 0.00134046 0.00132185 0.00130191 0.00128065 0.00125807 0.00123416 0.00120893 0.00118238 0.00115515 0.00112787 0.00110055 0.00107319 0.00104578 0.00101833 0.000990831 0.000963291 0.000936006 0.000909275 0.000883098 0.000857475 0.000832407 0.000807892 0.000783932 0.000760527 0.000737656 0.000715302 0.000693465 0.000672144 0.000651339 0.000631051 0.000611279 0.000592024 0.000573132 0.000554448 0.000535973 0.000517707 0.00049965 0.000481801 0.000464161 0.00044673 0.000429416 0.000412125 0.000394859 0.000377617 0.0003604 0.000343206 0.000326037 0.000308892 0.000291845 0.000274971 0.000258269 0.00024174 0.000225383 0.000209198 0.000193186 0.000177347 0.000161902 0.000147072 0.000132857 0.000119258 0.000106275 9.39075e-05 8.21554e-05 7.10188e-05 6.06504e-05 5.12026e-05 4.26757e-05 3.50694e-05 2.83839e-05 2.26191e-05 1.77751e-05 1.38518e-05 1.06053e-05 7.79163e-06 5.41085e-06 3.46294e-06 1.94791e-06 8.65736e-07 2.16434e-07 0 0 3.49611e-06 1.39845e-05 3.1465e-05 5.59378e-05 8.74028e-05 0.00012586 0.00017131 0.000223751 0.000283959 0.000352706 0.000429992 0.000515818 0.000610184 0.000713089 0.000824534 0.000944518 0.00106904 0.0011941 0.0013197 0.00144584 0.00157251 0.00169972 0.00182747 0.00195576 0.00208119 0.00220037 0.00231331 0.00242 0.00252044 0.00261463 0.00270257 0.00278427 0.00285876 0.00292509 0.00298325 0.00303325 0.00307508 0.00310875 0.00313426 0.00315161 0.0031617 0.00316546 0.00316288 0.00315397 0.00313872 0.00311713 0.00308921 0.00305496 0.00301604 0.00297416 0.0029293 0.00288146 0.00283065 0.00277686 0.0027201 0.00266036 0.00259909 0.00253772 0.00247624 0.00241467 0.00235301 0.00229124 0.00222937 0.0021674 0.00210601 0.00204587 0.00198697 0.00192932 0.00187291 0.00181776 0.00176385 0.00171118 0.00165973 0.00160943 0.0015603 0.00151232 0.00146551 0.00141986 0.00137538 0.00133205 0.00128955 0.00124751 0.00120594 0.00116484 0.00112421 0.00108405 0.00104436 0.00100514 0.000966186 0.000927282 0.000888434 0.000849639 0.0008109 0.000772214 0.000733583 0.000695007 0.000656652 0.000618684 0.000581105 0.000543914 0.000507111 0.000470696 0.00043467 0.000399031 0.000364278 0.000330911 0.000298929 0.000268332 0.000239119 0.000211292 0.00018485 0.000159792 0.000136463 0.000115206 9.60203e-05 7.89062e-05 6.38638e-05 5.08931e-05 3.9994e-05 3.11665e-05 2.38619e-05 1.75312e-05 1.21744e-05 7.79163e-06 4.38279e-06 1.94791e-06 4.86977e-07 0 0 6.21531e-06 2.48612e-05 5.59378e-05 9.9445e-05 0.000155383 0.000223751 0.00030455 0.00039778 0.000504816 0.000627033 0.000764431 0.000917011 0.00108477 0.00126771 0.00146584 0.00167914 0.00190052 0.00212285 0.00234613 0.00257037 0.00279557 0.00302173 0.00324884 0.0034769 0.00369989 0.00391178 0.00411255 0.00430222 0.00448078 0.00464823 0.00480458 0.00494981 0.00508224 0.00520015 0.00530355 0.00539244 0.00546681 0.00552667 0.00557202 0.00560285 0.0056208 0.00562748 0.0056229 0.00560705 0.00557994 0.00554157 0.00549193 0.00543103 0.00536186 0.00528739 0.00520764 0.00512259 0.00503226 0.00493664 0.00483573 0.00472953 0.0046206 0.0045115 0.00440221 0.00429275 0.00418312 0.00407331 0.00396333 0.00385316 0.00374402 0.0036371 0.00353239 0.0034299 0.00332963 0.00323157 0.00313573 0.00304211 0.00295062 0.00286121 0.00277386 0.00268857 0.00260536 0.0025242 0.00244512 0.0023681 0.00229253 0.00221779 0.00214389 0.00207083 0.0019986 0.0019272 0.00185665 0.00178692 0.00171766 0.0016485 0.00157944 0.00151047 0.0014416 0.00137283 0.00130415 0.00123557 0.00116738 0.00109988 0.00103308 0.000966959 0.000901531 0.000836794 0.000772746 0.000709388 0.000647606 0.000588286 0.000531429 0.000477034 0.000425101 0.00037563 0.000328622 0.000284075 0.000242601 0.000204811 0.000170703 0.000140278 0.000113536 9.04765e-05 7.11004e-05 5.54071e-05 4.24211e-05 3.11665e-05 2.16434e-05 1.38518e-05 7.79163e-06 3.46294e-06 8.65736e-07 0 0 9.71142e-06 3.88457e-05 8.74028e-05 0.000155383 0.000242786 0.000349611 0.00047586 0.000621531 0.000788774 0.000979738 0.00119442 0.00143283 0.00169496 0.0019808 0.00229037 0.00262366 0.00296956 0.00331695 0.00366583 0.00401621 0.00436808 0.00472145 0.00507631 0.00543266 0.00578108 0.00611215 0.00642586 0.00672222 0.00700122 0.00726286 0.00750715 0.00773408 0.007941 0.00812524 0.0082868 0.00842569 0.0085419 0.00863543 0.00870628 0.00875446 0.0087825 0.00879294 0.00878578 0.00876102 0.00871866 0.0086587 0.00858114 0.00848599 0.0083779 0.00826155 0.00813693 0.00800405 0.00786291 0.0077135 0.00755583 0.00738989 0.00721969 0.00704921 0.00687846 0.00670743 0.00653613 0.00636455 0.0061927 0.00602057 0.00585004 0.00568297 0.00551936 0.00535922 0.00520254 0.00504933 0.00489958 0.00475329 0.00461035 0.00447064 0.00433415 0.0042009 0.00407087 0.00394407 0.0038205 0.00370015 0.00358207 0.0034653 0.00334983 0.00323567 0.00312281 0.00301126 0.00290101 0.00279206 0.00268385 0.00257578 0.00246787 0.00236011 0.0022525 0.00214504 0.00203773 0.00193057 0.00182403 0.00171857 0.00161418 0.00151087 0.00140864 0.00130749 0.00120742 0.00110842 0.00101188 0.000919198 0.000830358 0.000745365 0.00066422 0.000586922 0.000513471 0.000443868 0.000379065 0.000320017 0.000266723 0.000219184 0.000177399 0.00014137 0.000111094 8.65736e-05 6.62829e-05 4.86977e-05 3.38178e-05 2.16434e-05 1.21744e-05 5.41085e-06 1.35271e-06 0 0 1.39845e-05 5.59378e-05 0.00012586 0.000223751 0.000349611 0.00050344 0.000685238 0.000895005 0.00113584 0.00141082 0.00171997 0.00206327 0.00244074 0.00285236 0.00329813 0.00377807 0.00427616 0.0047764 0.0052788 0.00578334 0.00629004 0.00679888 0.00730988 0.00782303 0.00832476 0.0088015 0.00925324 0.00967999 0.0100818 0.0104585 0.0108103 0.0111371 0.011435 0.0117003 0.011933 0.012133 0.0123003 0.012435 0.012537 0.0126064 0.0126468 0.0126618 0.0126515 0.0126159 0.0125549 0.0124685 0.0123568 0.0122198 0.0120642 0.0118966 0.0117172 0.0115258 0.0113226 0.0111074 0.0108804 0.0106414 0.0103964 0.0101509 0.00990498 0.0096587 0.00941202 0.00916495 0.00891748 0.00866962 0.00842405 0.00818347 0.00794788 0.00771728 0.00749166 0.00727103 0.00705539 0.00684474 0.00663891 0.00643772 0.00624118 0.00604929 0.00586205 0.00567946 0.00550151 0.00532822 0.00515819 0.00499003 0.00482376 0.00465936 0.00449685 0.00433621 0.00417745 0.00402057 0.00386474 0.00370913 0.00355373 0.00339856 0.0032436 0.00308886 0.00293433 0.00278003 0.00262661 0.00247474 0.00232442 0.00217566 0.00202845 0.00188279 0.00173868 0.00159612 0.00145711 0.00132364 0.00119572 0.00107333 0.000956477 0.000845168 0.000739398 0.000639169 0.000545853 0.000460824 0.000384081 0.000315625 0.000255455 0.000203572 0.000159976 0.000124666 9.54474e-05 7.01246e-05 4.86977e-05 3.11665e-05 1.75312e-05 7.79163e-06 1.94791e-06 0 0 1.90344e-05 7.61376e-05 0.00017131 0.00030455 0.00047586 0.000685238 0.000932685 0.0012182 0.001546 0.00192029 0.00234107 0.00280835 0.00332211 0.00388237 0.00448913 0.00514237 0.00582033 0.00650122 0.00718503 0.00787177 0.00856144 0.00925404 0.00994956 0.010648 0.0113309 0.0119798 0.0125947 0.0131755 0.0137224 0.0142352 0.014714 0.0151588 0.0155644 0.0159255 0.0162421 0.0165143 0.0167421 0.0169254 0.0170643 0.0171587 0.0172137 0.0172342 0.0172201 0.0171716 0.0170886 0.0169711 0.016819 0.0166325 0.0164207 0.0161926 0.0159484 0.0156879 0.0154113 0.0151185 0.0148094 0.0144842 0.0141506 0.0138165 0.0134818 0.0131466 0.0128108 0.0124745 0.0121377 0.0118003 0.0114661 0.0111386 0.0108179 0.0105041 0.010197 0.00989668 0.00960317 0.00931645 0.00903629 0.00876245 0.00849494 0.00823376 0.0079789 0.00773037 0.00748817 0.0072523 0.00702086 0.00679199 0.00656567 0.00634191 0.00612071 0.00590206 0.00568598 0.00547245 0.00526034 0.00504854 0.00483703 0.00462581 0.0044149 0.00420428 0.00399395 0.00378393 0.0035751 0.00336839 0.0031638 0.00296131 0.00276094 0.00256268 0.00236653 0.0021725 0.00198329 0.00180163 0.0016275 0.00146092 0.00130187 0.00115037 0.0010064 0.00086998 0.000742967 0.000627232 0.000522777 0.0004296 0.000347703 0.000277084 0.000217745 0.000169684 0.000129915 9.54474e-05 6.62829e-05 4.24211e-05 2.38619e-05 1.06053e-05 2.65132e-06 0 0 2.48612e-05 9.9445e-05 0.000223751 0.00039778 0.000621531 0.000895005 0.0012182 0.00159112 0.00201926 0.00250813 0.00305772 0.00366804 0.00433909 0.00507086 0.00586335 0.00671657 0.00760207 0.00849139 0.00938453 0.0102815 0.0111823 0.0120869 0.0129953 0.0139076 0.0147996 0.0156471 0.0164502 0.0172089 0.0179231 0.0185929 0.0192183 0.0197993 0.020329 0.0208006 0.0212142 0.0215698 0.0218673 0.0221067 0.0222881 0.0224114 0.0224832 0.0225099 0.0224916 0.0224282 0.0223198 0.0221663 0.0219677 0.0217241 0.0214474 0.0211496 0.0208305 0.0204904 0.020129 0.0197466 0.0193429 0.0189181 0.0184824 0.018046 0.0176089 0.017171 0.0167325 0.0162932 0.0158533 0.0154127 0.0149761 0.0145484 0.0141296 0.0137196 0.0133185 0.0129263 0.0125429 0.0121684 0.0118025 0.0114448 0.0110954 0.0107543 0.0104214 0.0100968 0.00978047 0.00947239 0.00917011 0.00887117 0.00857557 0.00828331 0.00799439 0.00770882 0.00742658 0.00714768 0.00687065 0.00659401 0.00631775 0.00604188 0.0057664 0.0054913 0.00521659 0.00494227 0.00466952 0.00439953 0.0041323 0.00386784 0.00360613 0.00334717 0.00309098 0.00283755 0.00259042 0.00235315 0.00212572 0.00190814 0.0017004 0.00150252 0.00131449 0.0011363 0.000970406 0.000819242 0.000682811 0.000561111 0.000454143 0.000361906 0.000284401 0.000221628 0.000169684 0.000124666 8.65736e-05 5.54071e-05 3.11665e-05 1.38518e-05 3.46294e-06 0 0 3.17222e-05 0.000126889 0.0002855 0.000507555 0.000793054 0.001142 0.00155439 0.00203022 0.00257612 0.0031987 0.00389797 0.00467392 0.00552657 0.00645589 0.0074619 0.0085446 0.00966798 0.010796 0.0119288 0.0130662 0.0142083 0.0153551 0.0165065 0.0176626 0.018793 0.0198672 0.0208851 0.0218468 0.0227524 0.0236017 0.0243948 0.0251317 0.0258038 0.0264024 0.0269276 0.0273794 0.0277577 0.0280625 0.0282939 0.0284519 0.0285446 0.0285802 0.0285588 0.0284802 0.0283446 0.028152 0.0279022 0.0275954 0.0272465 0.0268708 0.0264681 0.0260386 0.0255821 0.0250987 0.0245884 0.0240512 0.0235 0.0229478 0.0223945 0.0218402 0.0212848 0.0207283 0.0201708 0.0196123 0.0190588 0.0185163 0.017985 0.0174648 0.0169556 0.0164576 0.0159706 0.0154948 0.0150296 0.0145749 0.0141306 0.0136967 0.0132733 0.0128602 0.0124575 0.0120652 0.0116803 0.0112995 0.0109231 0.0105509 0.0101829 0.00981915 0.00945966 0.00910441 0.00875156 0.00839925 0.00804749 0.00769626 0.00734558 0.00699545 0.00664586 0.00629681 0.0059498 0.00560633 0.00526639 0.00492999 0.00459712 0.0042678 0.00394201 0.00361975 0.0033055 0.0030037 0.00271438 0.00243751 0.00217311 0.00192117 0.0016817 0.00145469 0.00124324 0.00105046 0.000876347 0.000720901 0.000584122 0.000466009 0.000366563 0.000285784 0.000218803 0.000160753 0.000111634 7.1446e-05 4.01884e-05 1.78615e-05 4.46537e-06 0 0 3.98743e-05 0.000159497 0.000358869 0.000637989 0.000996858 0.00143548 0.00195384 0.00255196 0.00323705 0.00401634 0.00488984 0.00585755 0.00691946 0.00807557 0.00932589 0.0106704 0.0120647 0.0134643 0.0148693 0.0162795 0.0176951 0.0191161 0.0205423 0.0219739 0.0233735 0.0247038 0.0259647 0.0271563 0.0282786 0.0293316 0.0303152 0.0312295 0.0320638 0.0328076 0.0334607 0.0340233 0.0344953 0.0348766 0.0351674 0.0353676 0.0354872 0.0355362 0.0355145 0.0354222 0.0352593 0.0350258 0.0347217 0.034347 0.0339201 0.0334597 0.0329656 0.032438 0.0318768 0.0312819 0.0306535 0.0299915 0.0293118 0.0286303 0.0279471 0.0272622 0.0265755 0.025887 0.0251968 0.0245049 0.0238188 0.023146 0.0224865 0.0218404 0.0212077 0.0205883 0.0199822 0.0193895 0.0188098 0.0182428 0.0176886 0.0171469 0.016618 0.0161018 0.0155983 0.0151075 0.0146256 0.0141491 0.0136778 0.0132118 0.0127511 0.0122957 0.0118456 0.0114008 0.010959 0.010518 0.0100778 0.00963847 0.00919995 0.00876224 0.00832535 0.00788928 0.00745587 0.00702693 0.00660249 0.00618253 0.00576706 0.00535608 0.00494958 0.00454757 0.0041555 0.00377881 0.0034175 0.00307157 0.00274103 0.00242587 0.00212609 0.00184169 0.00157654 0.00133449 0.00111555 0.000919718 0.000746989 0.000597366 0.000470848 0.000367436 0.000281318 0.000206683 0.00014353 9.1859e-05 5.16707e-05 2.29648e-05 5.74119e-06 0 0 4.93177e-05 0.000197271 0.00044386 0.000789084 0.00123294 0.00177544 0.00241657 0.00315633 0.00400206 0.00496106 0.00603335 0.00721892 0.00851776 0.00992989 0.0114553 0.013094 0.0147922 0.0164962 0.018206 0.0199215 0.0216428 0.0233699 0.0251028 0.0268414 0.0285411 0.0301569 0.031689 0.0331373 0.0345018 0.0357825 0.0369794 0.0380926 0.0391091 0.0400161 0.0408136 0.0415016 0.0420801 0.0425491 0.0429086 0.0431586 0.043311 0.0433777 0.0433588 0.0432542 0.0430639 0.0427879 0.0424263 0.041979 0.0414682 0.0409162 0.040323 0.0396886 0.039013 0.0382962 0.0375381 0.0367388 0.0359176 0.0350935 0.0342666 0.033437 0.0326045 0.0317693 0.0309313 0.0300905 0.0292561 0.0284373 0.0276342 0.0268466 0.0260747 0.0253184 0.0245778 0.0238527 0.0231431 0.0224486 0.0217692 0.0211049 0.0204558 0.0198218 0.0192029 0.0185992 0.0180063 0.0174198 0.0168398 0.0162663 0.0156992 0.0151386 0.0145844 0.0140367 0.0134928 0.0129502 0.0124087 0.0118685 0.0113295 0.0107917 0.0102551 0.0097197 0.00918772 0.00866136 0.00814061 0.00762547 0.00711594 0.00661202 0.00611371 0.00562102 0.00514043 0.00467845 0.00423508 0.00381031 0.00340415 0.0030166 0.00264765 0.00229732 0.0019703 0.00167134 0.00140043 0.00115756 0.000942743 0.000755975 0.000597256 0.000466585 0.000357229 0.000262454 0.00018226 0.000116646 6.56135e-05 2.91616e-05 7.29039e-06 0 0 6.00524e-05 0.000240209 0.000540471 0.000960838 0.00150131 0.00216188 0.00294257 0.00384335 0.00487115 0.00603286 0.00732848 0.00875803 0.0103215 0.0120189 0.0138501 0.0158154 0.0178505 0.0198917 0.0219389 0.0239921 0.0260514 0.0281166 0.0301879 0.0322652 0.0342957 0.0362267 0.038058 0.0397898 0.0414219 0.0429545 0.0443875 0.045721 0.0469395 0.0480279 0.0489861 0.0498142 0.0505121 0.0510798 0.0515174 0.0518248 0.052016 0.052105 0.0520917 0.0519761 0.0517583 0.0514382 0.0510159 0.0504914 0.0498908 0.0492405 0.0485403 0.0477905 0.0469908 0.0461414 0.0452423 0.0442933 0.0433174 0.0423373 0.0413531 0.0403646 0.039372 0.0383752 0.0373742 0.036369 0.0353707 0.0343903 0.0334279 0.0324833 0.0315567 0.030648 0.0297573 0.0288844 0.0280294 0.0271921 0.0263725 0.0255706 0.0247865 0.02402 0.0232714 0.0225404 0.0218222 0.0211117 0.020409 0.0197141 0.019027 0.0183477 0.0176761 0.0170123 0.0163532 0.0156959 0.0150403 0.0143864 0.0137342 0.0130838 0.012435 0.0117881 0.0111454 0.0105096 0.00988074 0.00925879 0.00864375 0.00803562 0.00743439 0.00684008 0.00626029 0.00570264 0.00516712 0.00465374 0.00416249 0.00369338 0.0032464 0.00282156 0.00242453 0.002061 0.00173097 0.00143443 0.00117139 0.000941838 0.000745787 0.000583231 0.000446536 0.000328067 0.000227825 0.000145808 8.20168e-05 3.64519e-05 9.11298e-06 0 0 7.20782e-05 0.000288313 0.000648704 0.00115325 0.00180196 0.00259482 0.00353183 0.00461301 0.00584431 0.00723173 0.00877525 0.0104749 0.0123306 0.0143425 0.0165104 0.0188345 0.0212396 0.0236508 0.0260681 0.0284914 0.0309208 0.0333562 0.0357977 0.0382452 0.0406375 0.0429129 0.0450717 0.0471137 0.0490391 0.0508477 0.0525395 0.0541147 0.0555552 0.0568431 0.0579784 0.0589611 0.0597913 0.0604689 0.0609939 0.0613663 0.0616022 0.0617178 0.0617131 0.061588 0.0613425 0.0609767 0.0604906 0.0598841 0.0591879 0.0584323 0.0576176 0.0567435 0.0558103 0.0548178 0.053766 0.052655 0.0515114 0.0503619 0.0492064 0.0480451 0.0468778 0.0457046 0.0445255 0.0433405 0.0421627 0.0410051 0.0398677 0.0387506 0.0376537 0.0365771 0.0355207 0.0344845 0.0334687 0.0324734 0.0314985 0.0305441 0.0296101 0.0286966 0.0278036 0.026931 0.0260733 0.0252248 0.0243855 0.0235554 0.0227346 0.021923 0.0211206 0.0203274 0.0195401 0.018755 0.0179724 0.0171921 0.0164141 0.0156385 0.0148652 0.0140943 0.0133288 0.0125717 0.0118229 0.0110825 0.0103505 0.00962687 0.00891163 0.00820477 0.00751509 0.00685137 0.00621363 0.00560185 0.00501604 0.0044562 0.00392233 0.00341442 0.00293923 0.00250348 0.00210718 0.00175032 0.00143291 0.00115495 0.00091644 0.000717373 0.000549239 0.000403523 0.000280224 0.000179343 0.000100881 4.48358e-05 1.1209e-05 0 0 8.53953e-05 0.000341581 0.000768558 0.00136632 0.00213488 0.00307423 0.00418437 0.0054653 0.00692155 0.00855767 0.0103736 0.0123695 0.0145452 0.0169007 0.0194361 0.0221514 0.0249595 0.0277736 0.0305935 0.0334193 0.036251 0.0390886 0.0419321 0.0447815 0.0475663 0.0502158 0.0527301 0.0551092 0.0573531 0.0594619 0.0614354 0.0632737 0.064956 0.0664616 0.0677904 0.0689424 0.0699177 0.0707162 0.071338 0.071783 0.0720696 0.0722163 0.072223 0.0720898 0.0718166 0.0714035 0.0708504 0.0701573 0.0693594 0.0684919 0.0675547 0.0665478 0.0654713 0.0643251 0.0631093 0.0618237 0.0604994 0.059167 0.0578267 0.0564783 0.055122 0.0537577 0.0523853 0.051005 0.0496319 0.0482815 0.0469536 0.0456483 0.0443656 0.0431055 0.041868 0.040653 0.0394611 0.0382925 0.0371472 0.0360253 0.0349267 0.0338515 0.0327996 0.0317711 0.0307596 0.029759 0.0287692 0.0277902 0.026822 0.0258646 0.024918 0.0239822 0.0230534 0.0221277 0.0212051 0.0202856 0.0193692 0.0184559 0.0175457 0.0166386 0.015738 0.0148475 0.0139671 0.0130966 0.0122362 0.0113858 0.0105454 0.00971508 0.00890481 0.00812465 0.00737459 0.00665464 0.0059648 0.00530506 0.00467543 0.00407591 0.00351439 0.00299877 0.00252906 0.00210524 0.00172733 0.00139532 0.00110922 0.000869013 0.000665338 0.00048882 0.000339458 0.000217253 0.000122205 5.43133e-05 1.35783e-05 0 0 0.000100004 0.000400015 0.000900033 0.00160006 0.00250009 0.00360013 0.00490018 0.00640023 0.00810287 0.0100107 0.0121237 0.0144418 0.0169651 0.0196936 0.0226273 0.0257661 0.0290103 0.0322599 0.0355152 0.0387759 0.0420422 0.0453139 0.0485912 0.0518741 0.0550821 0.0581352 0.0610332 0.0637762 0.0663642 0.0687971 0.0710751 0.073198 0.075142 0.0768834 0.0784221 0.079758 0.0808913 0.0818219 0.0825498 0.0830749 0.0834182 0.0836004 0.0836216 0.0834816 0.0831805 0.0827184 0.0820952 0.0813109 0.0804055 0.0794191 0.0783517 0.0772033 0.0759739 0.0746635 0.0732721 0.0717996 0.0702815 0.0687529 0.0672139 0.0656644 0.0641046 0.0625343 0.0609536 0.0593624 0.0577785 0.0562196 0.0546856 0.0531766 0.0516925 0.0502334 0.0487992 0.04739 0.0460065 0.0446494 0.0433186 0.0420142 0.0407362 0.0394846 0.0382594 0.0370606 0.0358812 0.0347144 0.0335601 0.0324183 0.0312891 0.0301724 0.0290683 0.0279766 0.0268932 0.0258138 0.0247384 0.0236669 0.0225994 0.0215359 0.0204763 0.0194207 0.0183731 0.0173372 0.0163132 0.0153011 0.0143008 0.0133124 0.0123358 0.011371 0.0104295 0.00952247 0.00865002 0.00781212 0.00700877 0.00623996 0.00550571 0.00480601 0.00415001 0.00354688 0.0029966 0.00249919 0.00205464 0.00166295 0.00132412 0.00103815 0.000794833 0.000583959 0.000405527 0.000259537 0.00014599 6.48843e-05 1.62211e-05 0 0 0.000115903 0.000463613 0.00104313 0.00185445 0.00289758 0.00417251 0.00567926 0.0074178 0.00938827 0.0115908 0.0140253 0.0166919 0.0195905 0.0227212 0.0260838 0.0296786 0.0333918 0.0371099 0.040833 0.0445611 0.0482941 0.0520321 0.055775 0.0595228 0.0631851 0.0666711 0.069981 0.0731147 0.0760722 0.0788535 0.0814587 0.0838876 0.0861133 0.0881086 0.0898735 0.091408 0.0927121 0.0937858 0.0946292 0.0952422 0.0956481 0.0958702 0.0959087 0.0957634 0.0954343 0.0949215 0.094225 0.0933448 0.092326 0.091214 0.0900087 0.0887101 0.0873181 0.0858329 0.0842545 0.0825827 0.0808577 0.0791194 0.077368 0.0756034 0.0738255 0.0720345 0.0702302 0.0684128 0.0666024 0.0648194 0.0630637 0.0613354 0.0596344 0.0579607 0.0563144 0.0546955 0.053105 0.0515441 0.0500127 0.0485109 0.0470387 0.0455961 0.0441831 0.0427996 0.0414381 0.040091 0.0387583 0.03744 0.036136 0.0348465 0.0335714 0.0323106 0.0310596 0.0298135 0.0285723 0.0273361 0.0261049 0.0248786 0.0236572 0.0224409 0.0212339 0.0200407 0.0188614 0.017696 0.0165444 0.0154066 0.0142827 0.0131726 0.0120891 0.0110448 0.0100399 0.00907428 0.00814795 0.00726091 0.00641317 0.00560473 0.0048461 0.0041478 0.00350982 0.00293216 0.00241483 0.00195782 0.00156114 0.00122478 0.000937723 0.00068894 0.00047843 0.000306195 0.000172235 7.65488e-05 1.91372e-05 0 0 0.000132897 0.000531587 0.00119607 0.00212635 0.00332242 0.00478428 0.00651194 0.00850539 0.0107618 0.0132784 0.0160551 0.0190919 0.0223889 0.025946 0.0297632 0.0338406 0.0380502 0.0422638 0.0464816 0.0507035 0.0549295 0.0591596 0.0633939 0.0676323 0.0717735 0.0757164 0.0794609 0.0830069 0.0863546 0.089504 0.0924549 0.0952074 0.097731 0.0999953 0.102 0.103746 0.105232 0.106458 0.107426 0.108133 0.108608 0.108875 0.108934 0.108786 0.10843 0.107867 0.107096 0.106117 0.104982 0.10374 0.102392 0.100937 0.0993765 0.0977093 0.0959357 0.0940558 0.0921145 0.0901568 0.0881828 0.0861924 0.0841857 0.0821626 0.0801231 0.0780672 0.076018 0.0739985 0.0720086 0.0700484 0.0681177 0.0662168 0.0643455 0.0625038 0.0606934 0.0589158 0.057171 0.055459 0.0537799 0.0521335 0.05052 0.0489393 0.0473832 0.0458434 0.04432 0.0428129 0.0413222 0.0398479 0.0383899 0.0369483 0.0355178 0.0340935 0.0326751 0.0312629 0.0298567 0.0284566 0.0270625 0.0256745 0.0242975 0.0229365 0.0215915 0.0202625 0.0189495 0.0176525 0.0163714 0.0151064 0.0138715 0.0126808 0.0115345 0.0104324 0.00937466 0.00836117 0.00739196 0.00646704 0.00559837 0.00479792 0.0040657 0.0034017 0.00280593 0.00227838 0.00181905 0.00142795 0.00109328 0.000803223 0.000557794 0.000356988 0.000200806 8.9247e-05 2.23117e-05 0 0 0.000150787 0.000603147 0.00135708 0.00241259 0.00376967 0.00542832 0.00738855 0.00965035 0.0122075 0.0150538 0.0181893 0.021614 0.0253278 0.0293308 0.0336229 0.0382042 0.0429315 0.0476619 0.0523952 0.0571316 0.0618709 0.0666132 0.0713585 0.0761068 0.080746 0.0851637 0.0893602 0.0933353 0.097089 0.100621 0.103932 0.107022 0.109857 0.112402 0.114658 0.116624 0.118301 0.119689 0.120788 0.121598 0.122146 0.122463 0.122547 0.122399 0.122019 0.121407 0.120563 0.119486 0.118233 0.11686 0.115368 0.113755 0.112021 0.110168 0.108195 0.106102 0.103938 0.101755 0.099552 0.0973289 0.0950858 0.0928227 0.0905398 0.0882368 0.0859398 0.0836745 0.081441 0.0792392 0.0770692 0.0749309 0.0728244 0.0707496 0.0687087 0.0667038 0.0647349 0.0628021 0.0609053 0.0590445 0.0572197 0.055431 0.0536694 0.0519263 0.0502015 0.0484951 0.0468071 0.0451375 0.0434863 0.0418535 0.0402334 0.0386207 0.0370153 0.0354171 0.0338263 0.0322427 0.0306664 0.0290973 0.0275411 0.0260031 0.0244834 0.022982 0.0214989 0.020034 0.0185874 0.0171591 0.0157646 0.0144196 0.0131241 0.0118779 0.0106813 0.00953402 0.00843623 0.00738788 0.00640251 0.00549363 0.00466124 0.00390535 0.00322594 0.00262304 0.00209662 0.0016467 0.00126075 0.000926268 0.000643242 0.000411675 0.000231567 0.000102919 2.57297e-05 0 0 0.000169574 0.000678294 0.00152616 0.00271318 0.00423934 0.00610465 0.0083091 0.0108527 0.0137254 0.0169172 0.0204282 0.0242582 0.0284073 0.0328755 0.0376628 0.0427691 0.0480358 0.0533041 0.0585739 0.0638453 0.0691183 0.0743928 0.0796688 0.0849465 0.0901023 0.0950132 0.0996789 0.1041 0.108275 0.112206 0.115891 0.119332 0.12249 0.125328 0.127846 0.130044 0.131921 0.133479 0.134717 0.135635 0.136264 0.136635 0.136748 0.136604 0.136203 0.135543 0.134626 0.133451 0.132081 0.130575 0.128936 0.127162 0.125253 0.12321 0.121033 0.118721 0.11633 0.113915 0.111476 0.109013 0.106526 0.104015 0.10148 0.0989216 0.0963677 0.0938475 0.0913609 0.088908 0.0864887 0.0841031 0.0817511 0.0794327 0.0771508 0.074908 0.0727045 0.0705401 0.068415 0.066329 0.0642822 0.0622746 0.0602969 0.0583396 0.0564029 0.0544866 0.0525908 0.0507154 0.0488606 0.0470262 0.0452064 0.0433952 0.0415927 0.0397988 0.0380135 0.0362368 0.0344688 0.0327093 0.0309646 0.0292405 0.0275371 0.0258545 0.0241925 0.0225512 0.0209306 0.0193307 0.0177685 0.0162612 0.0148086 0.0134107 0.0120677 0.0107794 0.00954597 0.00836727 0.00725853 0.00623493 0.00529645 0.0044431 0.00367488 0.0029918 0.00239385 0.00188103 0.00144016 0.00105808 0.000734776 0.000470256 0.000264519 0.000117564 2.9391e-05 0 0 0.000189257 0.000757027 0.00170331 0.00302811 0.00473142 0.00681325 0.00927359 0.0121124 0.0153155 0.0188685 0.0227715 0.0270244 0.0316273 0.0365801 0.0418829 0.0475356 0.0533631 0.0591905 0.0650178 0.0708448 0.0766717 0.0824984 0.0883249 0.0941512 0.0998427 0.105265 0.110417 0.1153 0.119914 0.124257 0.128332 0.132137 0.135631 0.138774 0.141565 0.144004 0.146092 0.147828 0.149212 0.150245 0.15096 0.151391 0.151538 0.151401 0.15098 0.150275 0.149286 0.148013 0.146524 0.144885 0.143097 0.141159 0.139071 0.136835 0.134448 0.131913 0.129288 0.126635 0.123954 0.121244 0.118506 0.115739 0.112945 0.110121 0.107302 0.104517 0.101768 0.0990547 0.0963763 0.0937333 0.0911256 0.0885533 0.0860197 0.0835285 0.0810797 0.0786732 0.0763089 0.0739871 0.0717075 0.0694703 0.0672656 0.0650835 0.0629241 0.0607873 0.0586731 0.0565816 0.0545128 0.0524666 0.0504368 0.048417 0.0464074 0.0444078 0.0424184 0.040439 0.0384697 0.0365105 0.034568 0.0326487 0.0307526 0.0288799 0.0270303 0.025204 0.023401 0.0216212 0.0198832 0.0182055 0.016588 0.0150309 0.013534 0.0120975 0.0107212 0.00940521 0.00816644 0.00702181 0.00597132 0.00501496 0.00415275 0.00338467 0.00271073 0.00213093 0.00163149 0.00119865 0.000832394 0.000532732 0.000299662 0.000133183 3.32958e-05 0 0 0.000209837 0.000839347 0.00188853 0.00335739 0.00524592 0.00755413 0.010282 0.0134296 0.0169778 0.0209078 0.0252194 0.0299128 0.0349879 0.0404447 0.0462832 0.0525034 0.0589134 0.0653211 0.0717267 0.07813 0.0845311 0.09093 0.0973266 0.103721 0.109967 0.115918 0.121575 0.126937 0.132004 0.136776 0.141254 0.145436 0.14928 0.152739 0.155814 0.158505 0.160812 0.162735 0.164273 0.165428 0.166234 0.16673 0.166915 0.166788 0.166351 0.165602 0.164542 0.163172 0.161563 0.159789 0.15785 0.155746 0.153476 0.151042 0.148442 0.145678 0.142814 0.139917 0.136986 0.134023 0.131026 0.127996 0.124933 0.121837 0.118742 0.115684 0.112663 0.109679 0.106732 0.103822 0.100948 0.0981112 0.0953156 0.0925653 0.0898605 0.0872012 0.0845872 0.0820187 0.0794956 0.077018 0.0745755 0.0721578 0.0697651 0.0673972 0.0650542 0.0627361 0.0604429 0.0581746 0.0559245 0.0536861 0.0514594 0.0492443 0.047041 0.0448492 0.0426692 0.0405008 0.0383513 0.0362276 0.0341299 0.0320582 0.0300124 0.0279925 0.0259986 0.0240306 0.0221086 0.0202525 0.0184624 0.0167383 0.0150802 0.0134881 0.0119619 0.0105017 0.00912623 0.00785428 0.00668585 0.00562094 0.00465953 0.00380165 0.00304727 0.00239641 0.00183475 0.00134798 0.000936098 0.000599103 0.000336995 0.000149776 3.74439e-05 0 0 0.000231313 0.000925254 0.00208182 0.00370101 0.00578284 0.00832728 0.0113344 0.0148041 0.0187123 0.0230349 0.0277719 0.0329233 0.038489 0.0444692 0.0508638 0.0576727 0.0646866 0.0716959 0.0787007 0.0857009 0.0926965 0.0996876 0.106674 0.113656 0.120475 0.126974 0.133152 0.139009 0.144546 0.149762 0.154657 0.159231 0.163437 0.167225 0.170595 0.173548 0.176083 0.178201 0.179901 0.181183 0.182088 0.182653 0.18288 0.182767 0.182315 0.181525 0.180395 0.178927 0.177198 0.175288 0.173196 0.170923 0.168468 0.165832 0.163014 0.160015 0.156907 0.153759 0.150573 0.147349 0.144086 0.140785 0.137445 0.134067 0.130688 0.127348 0.124046 0.120782 0.117556 0.114368 0.111218 0.108107 0.105038 0.102018 0.099047 0.0961242 0.0932498 0.0904239 0.0876465 0.0849176 0.0822265 0.0795626 0.0769259 0.0743164 0.0717341 0.0691789 0.0666509 0.0641501 0.0616696 0.0592025 0.0567487 0.0543083 0.0518812 0.0494675 0.0470672 0.0446803 0.0423145 0.0399774 0.037669 0.0353895 0.0331387 0.0309167 0.0287234 0.0265589 0.0244447 0.0224024 0.0204318 0.0185331 0.0167063 0.0149513 0.0132681 0.0116567 0.0101379 0.00873234 0.00744005 0.00626101 0.00519524 0.00424272 0.00340347 0.00267747 0.00204994 0.00150608 0.00104589 0.000669368 0.000376519 0.000167342 4.18355e-05 0 0 0.000253687 0.00101475 0.00228318 0.00405899 0.00634217 0.00913272 0.0124306 0.0