<?xml version="1.0"?> 
<VTKFile type="StructuredGrid" version="0.1"> 
<StructuredGrid WholeExtent="0 128 0 128 0 0"> 
<Piece Extent="0 128 0 128 0 0"> 
<PointData>
<DataArray type="Float32" Name="u" format="ascii" NumberOfComponents="1"> 
0 0 0 0 0 0 0 0 0 0 0 0 0 0 0 0 0 0 0 0 0 0 0 0 0 0 0 0 0 0 0 0 0 0 0 0 0 0 0 0 0 0 0 0 0 0 0 0 0 0 0 0 0 0 0 0 0 0 0 0 0 0 0 0 0 0 0 0 0 0 0 0 0 0 0 0 0 0 0 0 0 0 0 0 0 0 0 0 0 0 0 0 0 0 0 0 0 0 0 0 0 0 0 0 0 0 0 0 0 0 0 0 0 0 0 0 0 0 0 0 0 0 0 0 0 0 0 0 0 0 -1.86132e-07 -7.44529e-07 -1.67519e-06 -2.97812e-06 -4.65331e-06 -6.70076e-06 -9.12048e-06 -1.19125e-05 -1.48372e-05 -1.76551e-05 -2.03662e-05 -2.29705e-05 -2.54679e-05 -2.78586e-05 -3.01425e-05 -3.23195e-05 -3.42234e-05 -3.56878e-05 -3.67125e-05 -3.72978e-05 -3.74435e-05 -3.71496e-05 -3.64162e-05 -3.52433e-05 -3.37888e-05 -3.22109e-05 -3.05095e-05 -2.86847e-05 -2.67364e-05 -2.46647e-05 -2.24695e-05 -2.01508e-05 -1.79481e-05 -1.61008e-05 -1.46089e-05 -1.34723e-05 -1.26912e-05 -1.22654e-05 -1.2195e-05 -1.248e-05 -1.31514e-05 -1.42401e-05 -1.57461e-05 -1.76695e-05 -2.00102e-05 -2.27682e-05 -2.59435e-05 -2.95362e-05 -3.33304e-05 -3.71104e-05 -4.08761e-05 -4.46275e-05 -4.83647e-05 -5.20876e-05 -5.57963e-05 -5.94907e-05 -6.2946e-05 -6.59374e-05 -6.8465e-05 -7.05286e-05 -7.21283e-05 -7.32641e-05 -7.3936e-05 -7.41441e-05 -7.38955e-05 -7.31976e-05 -7.20504e-05 -7.04538e-05 -6.8408e-05 -6.59128e-05 -6.29684e-05 -5.95746e-05 -5.59496e-05 -5.23113e-05 -4.86599e-05 -4.49952e-05 -4.13173e-05 -3.76263e-05 -3.3922e-05 -3.02045e-05 -2.66593e-05 -2.34719e-05 -2.06422e-05 -1.81704e-05 -1.60563e-05 -1.43001e-05 -1.29016e-05 -1.18609e-05 -1.11463e-05 -1.07263e-05 -1.06007e-05 -1.07696e-05 -1.1233e-05 -1.19909e-05 -1.30432e-05 -1.43901e-05 -1.58469e-05 -1.72293e-05 -1.85372e-05 -1.97705e-05 -2.09294e-05 -2.20138e-05 -2.30237e-05 -2.39591e-05 -2.47095e-05 -2.51645e-05 -2.5324e-05 -2.51881e-05 -2.47568e-05 -2.403e-05 -2.30078e-05 -2.16902e-05 -2.01927e-05 -1.86311e-05 -1.70054e-05 -1.53155e-05 -1.35614e-05 -1.17432e-05 -9.86086e-06 -7.91435e-06 -6.05943e-06 -4.45182e-06 -3.09154e-06 -1.97859e-06 -1.11296e-06 -4.94647e-07 -1.23662e-07 0 0 -7.44529e-07 -2.97812e-06 -6.70076e-06 -1.19125e-05 -1.86132e-05 -2.6803e-05 -3.64819e-05 -4.76499e-05 -5.93487e-05 -7.06203e-05 -8.14647e-05 -9.18819e-05 -0.000101872 -0.000111434 -0.00012057 -0.000129278 -0.000136894 -0.000142751 -0.00014685 -0.000149191 -0.000149774 -0.000148598 -0.000145665 -0.000140973 -0.000135155 -0.000128844 -0.000122038 -0.000114739 -0.000106946 -9.86587e-05 -8.98779e-05 -8.06032e-05 -7.17925e-05 -6.44032e-05 -5.84355e-05 -5.38894e-05 -5.07647e-05 -4.90617e-05 -4.87801e-05 -4.99202e-05 -5.26056e-05 -5.69604e-05 -6.29845e-05 -7.06779e-05 -8.00406e-05 -9.10727e-05 -0.000103774 -0.000118145 -0.000133322 -0.000148442 -0.000163504 -0.00017851 -0.000193459 -0.000208351 -0.000223185 -0.000237963 -0.000251784 -0.00026375 -0.00027386 -0.000282114 -0.000288513 -0.000293056 -0.000295744 -0.000296576 -0.000295582 -0.00029279 -0.000288201 -0.000281815 -0.000273632 -0.000263651 -0.000251874 -0.000238298 -0.000223798 -0.000209245 -0.000194639 -0.000179981 -0.000165269 -0.000150505 -0.000135688 -0.000120818 -0.000106637 -9.38874e-05 -8.25689e-05 -7.26815e-05 -6.42253e-05 -5.72002e-05 -5.16063e-05 -4.74435e-05 -4.45853e-05 -4.2905e-05 -4.24027e-05 -4.30783e-05 -4.49319e-05 -4.79634e-05 -5.21729e-05 -5.75603e-05 -6.33877e-05 -6.89172e-05 -7.41486e-05 -7.90821e-05 -8.37176e-05 -8.80551e-05 -9.20947e-05 -9.58362e-05 -9.88379e-05 -0.000100658 -0.000101296 -0.000100752 -9.90271e-05 -9.61201e-05 -9.20312e-05 -8.67607e-05 -8.07709e-05 -7.45245e-05 -6.80215e-05 -6.12619e-05 -5.42457e-05 -4.69729e-05 -3.94435e-05 -3.16574e-05 -2.42377e-05 -1.78073e-05 -1.23662e-05 -7.91435e-06 -4.45182e-06 -1.97859e-06 -4.94647e-07 0 0 -1.67519e-06 -6.70076e-06 -1.50767e-05 -2.6803e-05 -4.18798e-05 -6.03069e-05 -8.20843e-05 -0.000107212 -0.000133535 -0.000158896 -0.000183296 -0.000206734 -0.000229212 -0.000250728 -0.000271282 -0.000290876 -0.000308011 -0.00032119 -0.000330413 -0.00033568 -0.000336991 -0.000334347 -0.000327746 -0.000317189 -0.000304099 -0.000289898 -0.000274586 -0.000258162 -0.000240628 -0.000221982 -0.000202225 -0.000181357 -0.000161533 -0.000144907 -0.00013148 -0.000121251 -0.000114221 -0.000110389 -0.000109755 -0.00011232 -0.000118363 -0.000128161 -0.000141715 -0.000159025 -0.000180091 -0.000204914 -0.000233492 -0.000265826 -0.000299974 -0.000333994 -0.000367885 -0.000401648 -0.000435282 -0.000468789 -0.000502167 -0.000535416 -0.000566514 -0.000593437 -0.000616185 -0.000634757 -0.000649155 -0.000659377 -0.000665424 -0.000667296 -0.000665059 -0.000658778 -0.000648453 -0.000634084 -0.000615672 -0.000593216 -0.000566715 -0.000536171 -0.000503546 -0.000470802 -0.000437939 -0.000404957 -0.000371856 -0.000338636 -0.000305298 -0.00027184 -0.000239933 -0.000211247 -0.00018578 -0.000163533 -0.000144507 -0.0001287 -0.000116114 -0.000106748 -0.000100317 -9.65363e-05 -9.5406e-05 -9.69262e-05 -0.000101097 -0.000107918 -0.000117389 -0.000129511 -0.000142622 -0.000155064 -0.000166834 -0.000177935 -0.000188365 -0.000198124 -0.000207213 -0.000215632 -0.000222385 -0.00022648 -0.000227916 -0.000226693 -0.000222811 -0.00021627 -0.00020707 -0.000195211 -0.000181734 -0.00016768 -0.000153048 -0.000137839 -0.000122053 -0.000105689 -8.87478e-05 -7.12292e-05 -5.45348e-05 -4.00664e-05 -2.78239e-05 -1.78073e-05 -1.00166e-05 -4.45182e-06 -1.11296e-06 0 0 -2.97812e-06 -1.19125e-05 -2.6803e-05 -4.76499e-05 -7.44529e-05 -0.000107212 -0.000145928 -0.000190599 -0.000237395 -0.000282481 -0.000325859 -0.000367528 -0.000407487 -0.000445738 -0.00048228 -0.000517113 -0.000547575 -0.000571004 -0.000587401 -0.000596765 -0.000599096 -0.000594394 -0.000582659 -0.000563892 -0.000540621 -0.000515374 -0.000488152 -0.000458955 -0.000427783 -0.000394635 -0.000359512 -0.000322413 -0.00028717 -0.000257613 -0.000233742 -0.000215557 -0.000203059 -0.000196247 -0.000195121 -0.000199681 -0.000210422 -0.000227841 -0.000251938 -0.000282712 -0.000320163 -0.000364291 -0.000415096 -0.000472579 -0.000533287 -0.000593766 -0.000654017 -0.00071404 -0.000773835 -0.000833402 -0.000892741 -0.000951851 -0.00100714 -0.001055 -0.00109544 -0.00112846 -0.00115405 -0.00117223 -0.00118298 -0.0011863 -0.00118233 -0.00117116 -0.00115281 -0.00112726 -0.00109453 -0.00105461 -0.00100749 -0.000953194 -0.000895193 -0.000836981 -0.000778558 -0.000719923 -0.000661077 -0.00060202 -0.000542751 -0.000483272 -0.000426548 -0.00037555 -0.000330276 -0.000290726 -0.000256901 -0.000228801 -0.000206425 -0.000189774 -0.000178341 -0.00017162 -0.000169611 -0.000172313 -0.000179728 -0.000191854 -0.000208692 -0.000230241 -0.000253551 -0.000275669 -0.000296595 -0.000316328 -0.00033487 -0.000352221 -0.000368379 -0.000383345 -0.000395352 -0.000402631 -0.000405184 -0.00040301 -0.000396109 -0.00038448 -0.000368125 -0.000347043 -0.000323084 -0.000298098 -0.000272086 -0.000245048 -0.000216983 -0.000187892 -0.000157774 -0.00012663 -9.69508e-05 -7.12292e-05 -4.94647e-05 -3.16574e-05 -1.78073e-05 -7.91435e-06 -1.97859e-06 0 0 -4.65331e-06 -1.86132e-05 -4.18798e-05 -7.44529e-05 -0.000116333 -0.000167519 -0.000228012 -0.000297812 -0.000370929 -0.000441377 -0.000509154 -0.000574262 -0.000636699 -0.000696466 -0.000753562 -0.000807989 -0.000855586 -0.000892194 -0.000917814 -0.000932445 -0.000936087 -0.00092874 -0.000910405 -0.000881082 -0.00084472 -0.000805272 -0.000762738 -0.000717118 -0.00066841 -0.000616617 -0.000561737 -0.00050377 -0.000448703 -0.00040252 -0.000365222 -0.000336808 -0.00031728 -0.000306635 -0.000304876 -0.000312001 -0.000328785 -0.000356002 -0.000393653 -0.000441737 -0.000500254 -0.000569205 -0.000648588 -0.000738405 -0.000833261 -0.00092776 -0.0010219 -0.00111569 -0.00120912 -0.00130219 -0.00139491 -0.00148727 -0.00157365 -0.00164844 -0.00171162 -0.00176321 -0.00180321 -0.0018316 -0.0018484 -0.0018536 -0.00184739 -0.00182994 -0.00180126 -0.00176135 -0.0017102 -0.00164782 -0.00157421 -0.00148936 -0.00139874 -0.00130778 -0.0012165 -0.00112488 -0.00103293 -0.000940656 -0.000848049 -0.000755112 -0.000666482 -0.000586796 -0.000516056 -0.000454259 -0.000401408 -0.000357501 -0.000322539 -0.000296522 -0.000278658 -0.000268156 -0.000265017 -0.000269239 -0.000280824 -0.000299771 -0.000326081 -0.000359752 -0.000396173 -0.000430732 -0.000463429 -0.000494263 -0.000523235 -0.000550345 -0.000575592 -0.000598976 -0.000617737 -0.000629112 -0.0006331 -0.000629703 -0.00061892 -0.00060075 -0.000575195 -0.000542254 -0.000504818 -0.000465778 -0.000425135 -0.000382887 -0.000339036 -0.000293581 -0.000246522 -0.000197859 -0.000151486 -0.000111296 -7.72886e-05 -4.94647e-05 -2.78239e-05 -1.23662e-05 -3.09154e-06 0 0 -6.70076e-06 -2.6803e-05 -6.03069e-05 -0.000107212 -0.000167519 -0.000241227 -0.000328337 -0.000428849 -0.000534138 -0.000635583 -0.000733182 -0.000826937 -0.000916846 -0.00100291 -0.00108513 -0.0011635 -0.00123204 -0.00128476 -0.00132165 -0.00134272 -0.00134797 -0.00133739 -0.00131098 -0.00126876 -0.0012164 -0.00115959 -0.00109834 -0.00103265 -0.000962511 -0.000887928 -0.000808901 -0.000725429 -0.000646132 -0.000579629 -0.00052592 -0.000485004 -0.000456883 -0.000441555 -0.000439021 -0.000449281 -0.00047345 -0.000512643 -0.00056686 -0.000636101 -0.000720366 -0.000819654 -0.000933967 -0.0010633 -0.0011999 -0.00133597 -0.00147154 -0.00160659 -0.00174113 -0.00187515 -0.00200867 -0.00214166 -0.00226606 -0.00237375 -0.00246474 -0.00253903 -0.00259662 -0.00263751 -0.0026617 -0.00266919 -0.00266024 -0.00263511 -0.00259381 -0.00253634 -0.00246269 -0.00237286 -0.00226686 -0.00214469 -0.00201418 -0.00188321 -0.00175176 -0.00161983 -0.00148742 -0.00135455 -0.00122119 -0.00108736 -0.000959734 -0.000844987 -0.00074312 -0.000654134 -0.000578028 -0.000514802 -0.000464457 -0.000426992 -0.000401268 -0.000386145 -0.000381624 -0.000387705 -0.000404387 -0.000431671 -0.000469556 -0.000518043 -0.00057049 -0.000620255 -0.000667338 -0.000711739 -0.000753459 -0.000792496 -0.000828852 -0.000862526 -0.000889541 -0.000905921 -0.000911664 -0.000906772 -0.000891244 -0.000865081 -0.000828281 -0.000780846 -0.000726938 -0.000670721 -0.000612194 -0.000551357 -0.000488211 -0.000422756 -0.000354991 -0.000284917 -0.000218139 -0.000160266 -0.000111296 -7.12292e-05 -4.00664e-05 -1.78073e-05 -4.45182e-06 0 0 -9.12048e-06 -3.64819e-05 -8.20843e-05 -0.000145928 -0.000228012 -0.000328337 -0.000446904 -0.000583711 -0.000727022 -0.000865099 -0.000997943 -0.00112555 -0.00124793 -0.00136507 -0.00147698 -0.00158366 -0.00167695 -0.0017487 -0.00179891 -0.00182759 -0.00183473 -0.00182033 -0.00178439 -0.00172692 -0.00165565 -0.00157833 -0.00149497 -0.00140555 -0.00131008 -0.00120857 -0.001101 -0.00098739 -0.000879458 -0.000788939 -0.000715835 -0.000660145 -0.000621868 -0.000601005 -0.000597557 -0.000611522 -0.000644419 -0.000697765 -0.00077156 -0.000865804 -0.000980498 -0.00111564 -0.00127123 -0.00144727 -0.00163319 -0.00181841 -0.00200293 -0.00218675 -0.00236987 -0.00255229 -0.00273402 -0.00291504 -0.00308435 -0.00323093 -0.00335478 -0.0034559 -0.00353429 -0.00358994 -0.00362287 -0.00363306 -0.00362088 -0.00358668 -0.00353047 -0.00345224 -0.00335199 -0.00322973 -0.00308545 -0.00291916 -0.00274153 -0.00256325 -0.00238433 -0.00220476 -0.00202455 -0.00184369 -0.00166218 -0.00148002 -0.0013063 -0.00115012 -0.00101147 -0.000890349 -0.00078676 -0.000700703 -0.000632177 -0.000581183 -0.00054617 -0.000525586 -0.000519433 -0.000527709 -0.000550416 -0.000587552 -0.000639118 -0.000705114 -0.0007765 -0.000844236 -0.000908321 -0.000968756 -0.00102554 -0.00107868 -0.00112816 -0.00117399 -0.00121076 -0.00123306 -0.00124088 -0.00123422 -0.00121308 -0.00117747 -0.00112738 -0.00106282 -0.000989443 -0.000912925 -0.000833264 -0.000750459 -0.00066451 -0.000575418 -0.000483182 -0.000387803 -0.000296912 -0.000218139 -0.000151486 -9.69508e-05 -5.45348e-05 -2.42377e-05 -6.05943e-06 0 0 -1.19125e-05 -4.76499e-05 -0.000107212 -0.000190599 -0.000297812 -0.000428849 -0.000583711 -0.000762398 -0.000949579 -0.00112993 -0.00130344 -0.00147011 -0.00162995 -0.00178295 -0.00192912 -0.00206845 -0.0021903 -0.00228402 -0.0023496 -0.00238706 -0.00239638 -0.00237758 -0.00233064 -0.00225557 -0.00216248 -0.0020615 -0.00195261 -0.00183582 -0.00171113 -0.00157854 -0.00143805 -0.00128965 -0.00114868 -0.00103045 -0.000934968 -0.00086223 -0.000812236 -0.000784987 -0.000780482 -0.000798722 -0.00084169 -0.000911366 -0.00100775 -0.00113085 -0.00128065 -0.00145716 -0.00166039 -0.00189032 -0.00213315 -0.00237506 -0.00261607 -0.00285616 -0.00309534 -0.00333361 -0.00357096 -0.0038074 -0.00402854 -0.00422 -0.00438176 -0.00451383 -0.00461621 -0.0046889 -0.00473191 -0.00474522 -0.00472931 -0.00468464 -0.00461122 -0.00450905 -0.00437811 -0.00421842 -0.00402998 -0.00381277 -0.00358077 -0.00334792 -0.00311423 -0.00287969 -0.00264431 -0.00240808 -0.00217101 -0.00193309 -0.00170619 -0.0015022 -0.0013211 -0.0011629 -0.0010276 -0.000915203 -0.000825701 -0.000759096 -0.000713365 -0.00068648 -0.000678443 -0.000689253 -0.00071891 -0.000767415 -0.000834766 -0.000920965 -0.0010142 -0.00110267 -0.00118638 -0.00126531 -0.00133948 -0.00140888 -0.00147351 -0.00153338 -0.00158141 -0.00161053 -0.00162074 -0.00161204 -0.00158443 -0.00153792 -0.0014725 -0.00138817 -0.00129233 -0.00119239 -0.00108834 -0.000980191 -0.000867931 -0.000751566 -0.000631095 -0.000506519 -0.000387803 -0.000284917 -0.000197859 -0.00012663 -7.12292e-05 -3.16574e-05 -7.91435e-06 0 0 -1.48138e-05 -5.92553e-05 -0.000133324 -0.000237021 -0.000370346 -0.000533298 -0.000725877 -0.000948085 -0.00118063 -0.00140424 -0.00161889 -0.0018246 -0.00202137 -0.00220919 -0.00238806 -0.00255799 -0.00270572 -0.00281799 -0.00289482 -0.0029362 -0.00294213 -0.00291261 -0.00284764 -0.00274722 -0.0026242 -0.00249141 -0.00234887 -0.00219656 -0.00203449 -0.00186266 -0.00168107 -0.00148972 -0.00130795 -0.00115513 -0.00103125 -0.000936308 -0.000870306 -0.000833244 -0.000825123 -0.000845942 -0.000898185 -0.000984337 -0.0011044 -0.00125836 -0.00144624 -0.00166803 -0.00192372 -0.00221332 -0.00251937 -0.00282441 -0.00312843 -0.00343143 -0.00373342 -0.0040344 -0.00433436 -0.00463331 -0.00491305 -0.0051554 -0.00536036 -0.00552792 -0.00565809 -0.00575087 -0.00580625 -0.00582424 -0.00580541 -0.00575032 -0.00565899 -0.00553141 -0.00536757 -0.00516749 -0.00493115 -0.00465857 -0.00436735 -0.00407511 -0.00378185 -0.00348757 -0.00319227 -0.00289595 -0.0025986 -0.00230024 -0.00201586 -0.00176046 -0.00153403 -0.00133659 -0.00116812 -0.00102864 -0.000918137 -0.000836613 -0.000781526 -0.000750334 -0.000743037 -0.000759635 -0.000800127 -0.000864514 -0.000952796 -0.00106497 -0.00118613 -0.00130137 -0.00141068 -0.00151406 -0.00161152 -0.00170305 -0.00178865 -0.00186833 -0.00193311 -0.00197401 -0.00199104 -0.00198419 -0.00195346 -0.00189886 -0.00182038 -0.00171803 -0.00160103 -0.00147861 -0.00135079 -0.00121754 -0.00107889 -0.000934815 -0.000785329 -0.000630429 -0.000482672 -0.000354616 -0.000246261 -0.000157607 -8.86541e-05 -3.94018e-05 -9.85046e-06 0 0 -1.75617e-05 -7.02467e-05 -0.000158055 -0.000280987 -0.000439042 -0.00063222 -0.000860522 -0.00112395 -0.001399 -0.0016622 -0.00191354 -0.00215303 -0.00238065 -0.00259641 -0.00280032 -0.00299237 -0.00315681 -0.00327792 -0.00335569 -0.00339011 -0.0033812 -0.00332894 -0.00323334 -0.00309441 -0.00292811 -0.00275041 -0.00256133 -0.00236086 -0.002149 -0.00192575 -0.00169111 -0.00144508 -0.00121144 -0.00101395 -0.000852609 -0.000727426 -0.000638398 -0.000585524 -0.000568804 -0.000588239 -0.000646827 -0.000747565 -0.000890456 -0.0010755 -0.00130269 -0.00157203 -0.00188353 -0.00223718 -0.00261147 -0.00298489 -0.00335746 -0.00372916 -0.00409999 -0.00446996 -0.00483907 -0.00520732 -0.0055523 -0.00585162 -0.00610528 -0.00631328 -0.00647563 -0.00659231 -0.00666333 -0.00668869 -0.00666904 -0.00660503 -0.00649668 -0.00634397 -0.0061469 -0.00590548 -0.0056197 -0.00528957 -0.0049367 -0.00458271 -0.00422759 -0.00387135 -0.00351399 -0.00315551 -0.0027959 -0.00243516 -0.00209176 -0.00178413 -0.00151227 -0.00127619 -0.00107588 -0.000911352 -0.000782597 -0.000689616 -0.000629329 -0.000598657 -0.000597598 -0.000626154 -0.000684323 -0.000772106 -0.000889503 -0.00103651 -0.00119482 -0.00134612 -0.00149039 -0.00162765 -0.00175789 -0.00188111 -0.00199732 -0.0021065 -0.00219752 -0.00225921 -0.00229157 -0.00229461 -0.00226833 -0.00221271 -0.00212778 -0.00201351 -0.00188094 -0.00174108 -0.00159394 -0.00143951 -0.00127779 -0.00110878 -0.000932484 -0.000748902 -0.000573378 -0.000421257 -0.00029254 -0.000187225 -0.000105314 -4.68064e-05 -1.17016e-05 0 0 -2.0156e-05 -8.0624e-05 -0.000181404 -0.000322496 -0.0005039 -0.000725616 -0.000987644 -0.00128998 -0.00160469 -0.00190383 -0.00218739 -0.00245538 -0.00270779 -0.00294463 -0.0031659 -0.00337159 -0.0035436 -0.0036638 -0.00373219 -0.00374878 -0.00371357 -0.00362656 -0.00348774 -0.00329712 -0.0030742 -0.0028385 -0.00259001 -0.00232873 -0.00205466 -0.00176781 -0.00146818 -0.00115575 -0.000859131 -0.000606896 -0.000399047 -0.000235586 -0.000116512 -4.18253e-05 -1.15259e-05 -2.56137e-05 -8.76141e-05 -0.000201052 -0.000365929 -0.000582243 -0.000849995 -0.00116919 -0.00153981 -0.00196188 -0.00240944 -0.00285653 -0.00330316 -0.00374934 -0.00419505 -0.00464031 -0.0050851 -0.00552943 -0.00594629 -0.00630866 -0.00661653 -0.00686992 -0.00706882 -0.00721322 -0.00730314 -0.00733856 -0.00732021 -0.00724878 -0.00712429 -0.00694672 -0.00671609 -0.00643239 -0.00609562 -0.00570578 -0.00528882 -0.00487072 -0.00445146 -0.00403105 -0.00360948 -0.00318676 -0.00276288 -0.00233786 -0.00193389 -0.00157321 -0.00125582 -0.000981707 -0.00075088 -0.000563337 -0.000419079 -0.000318104 -0.000256774 -0.000231448 -0.000242127 -0.00028881 -0.000371498 -0.00049019 -0.000644887 -0.000835589 -0.00104027 -0.00123691 -0.00142551 -0.00160607 -0.00177859 -0.00194306 -0.0020995 -0.00224789 -0.00237463 -0.00246612 -0.00252235 -0.00254332 -0.00252903 -0.00247949 -0.00239468 -0.00227463 -0.00213208 -0.0019798 -0.0018178 -0.00164608 -0.00146463 -0.00127346 -0.00107256 -0.000861937 -0.00065992 -0.000484839 -0.000336694 -0.000215484 -0.00012121 -5.38711e-05 -1.34678e-05 0 0 -2.25968e-05 -9.03873e-05 -0.000203371 -0.000361549 -0.000564921 -0.000813486 -0.00110724 -0.0014462 -0.0017977 -0.00212911 -0.00244043 -0.00273166 -0.0030028 -0.00325384 -0.0034848 -0.00369566 -0.00386606 -0.00397562 -0.00402434 -0.00401222 -0.00393926 -0.00380546 -0.00361083 -0.00335535 -0.00306248 -0.00275566 -0.00243489 -0.00210016 -0.00175148 -0.00138885 -0.00101226 -0.000621728 -0.000251034 6.60204e-05 0.000329436 0.000539213 0.000695352 0.000797851 0.000846712 0.000841934 0.000779452 0.000655202 0.000469184 0.000221397 -8.81582e-05 -0.000459482 -0.000892574 -0.00138743 -0.00191328 -0.00243931 -0.00296555 -0.00349198 -0.0040186 -0.00454542 -0.00507244 -0.00559965 -0.00609502 -0.00652651 -0.00689411 -0.00719782 -0.00743766 -0.00761361 -0.00772568 -0.00777386 -0.00775891 -0.00768156 -0.00754182 -0.00733968 -0.00707515 -0.00674822 -0.0063589 -0.00590719 -0.00542372 -0.00493914 -0.00445345 -0.00396665 -0.00347873 -0.0029897 -0.00249956 -0.00200831 -0.00154226 -0.00112771 -0.000764674 -0.000453141 -0.000193115 1.54043e-05 0.000172417 0.000277922 0.000336141 0.000351293 0.000323378 0.000252396 0.000138348 -1.87667e-05 -0.000218948 -0.000462197 -0.000722479 -0.000973763 -0.00121605 -0.00144933 -0.00167362 -0.00188891 -0.0020952 -0.00229249 -0.00246445 -0.00259474 -0.00268335 -0.0027303 -0.00273557 -0.00269917 -0.00262111 -0.00250137 -0.00235443 -0.00219476 -0.00202237 -0.00183726 -0.00163942 -0.00142885 -0.00120555 -0.000969534 -0.000742299 -0.000545363 -0.000378724 -0.000242383 -0.000136341 -6.05959e-05 -1.5149e-05 0 0 -2.48841e-05 -9.95365e-05 -0.000223957 -0.000398146 -0.000622103 -0.000895829 -0.00121932 -0.00159258 -0.00197802 -0.00233805 -0.00267267 -0.00298187 -0.00326567 -0.00352405 -0.00375702 -0.00396458 -0.00412421 -0.00421339 -0.00423213 -0.00418042 -0.00405826 -0.00386566 -0.00360261 -0.00326912 -0.00289296 -0.00250191 -0.00209598 -0.00167516 -0.00123945 -0.000788855 -0.000323373 0.000156996 0.000612853 0.0010048 0.00133284 0.00159697 0.00179719 0.00193351 0.00200591 0.0020144 0.00195437 0.0018212 0.00161488 0.00133542 0.000982822 0.000557078 5.81915e-05 -0.000513837 -0.00112299 -0.00173325 -0.00234461 -0.00295707 -0.00357064 -0.00418532 -0.00480109 -0.00541798 -0.00599849 -0.00650517 -0.006938 -0.007297 -0.00758216 -0.00779348 -0.00793096 -0.0079946 -0.00798515 -0.00790337 -0.00774927 -0.00752284 -0.00722407 -0.00685298 -0.00640956 -0.0058938 -0.00534139 -0.00478797 -0.00423356 -0.00367815 -0.00312175 -0.00256434 -0.00200594 -0.00144654 -0.000916862 -0.000447628 -3.88381e-05 0.000309509 0.000597412 0.000824872 0.000991889 0.00109846 0.00114941 0.00114956 0.00109892 0.000997466 0.000845215 0.000642165 0.000388314 8.36625e-05 -0.000241445 -0.000556663 -0.000861994 -0.00115744 -0.00144299 -0.00171865 -0.00198443 -0.00224031 -0.00246697 -0.00264507 -0.00277459 -0.00285556 -0.00288795 -0.00287178 -0.00280704 -0.00269374 -0.002548 -0.00238598 -0.00220766 -0.00201305 -0.00180215 -0.00157496 -0.00133147 -0.00107169 -0.000820515 -0.000602827 -0.00041863 -0.000267923 -0.000150707 -6.69808e-05 -1.67452e-05 0 0 -2.70179e-05 -0.000108072 -0.000243161 -0.000432287 -0.000675448 -0.000972645 -0.00132388 -0.00172915 -0.00214567 -0.00253065 -0.0028841 -0.00320602 -0.0034964 -0.00375525 -0.00398256 -0.00417834 -0.00431803 -0.00437711 -0.00435555 -0.00425338 -0.00407057 -0.00380714 -0.00346309 -0.00303841 -0.00256562 -0.00207725 -0.00157328 -0.00105372 -0.000518571 3.21679e-05 0.000598497 0.00118042 0.00173253 0.00220945 0.00261117 0.00293769 0.00318901 0.00336514 0.00346607 0.0034918 0.00343715 0.00329694 0.00307117 0.00275984 0.00236294 0.00188049 0.00131248 0.000658909 -3.85761e-05 -0.000738327 -0.00144034 -0.00214463 -0.00285117 -0.00355999 -0.00427106 -0.00498441 -0.00565671 -0.00624465 -0.00674823 -0.00716745 -0.00750231 -0.00775282 -0.00791897 -0.00800075 -0.00799893 -0.00791422 -0.00774664 -0.00749619 -0.00716286 -0.00674666 -0.00624758 -0.00566562 -0.00504183 -0.00441722 -0.0037918 -0.00316557 -0.00253852 -0.00191067 -0.00128201 -0.000652532 -5.7698e-05 0.000467042 0.000921689 0.00130624 0.0016207 0.00186507 0.00203934 0.00214352 0.00218305 0.00216337 0.00208449 0.0019464 0.0017491 0.0014926 0.0011769 0.000801988 0.00040283 1.4384e-05 -0.000363351 -0.000730374 -0.00108669 -0.00143229 -0.00176718 -0.00209135 -0.0023822 -0.00261711 -0.00279607 -0.00291909 -0.00298617 -0.0029973 -0.00295249 -0.00285173 -0.0027128 -0.00255344 -0.00237366 -0.00217345 -0.00195283 -0.00171178 -0.00145031 -0.00116841 -0.000894567 -0.000657233 -0.000456412 -0.000292104 -0.000164308 -7.30259e-05 -1.82565e-05 0 0 -2.89982e-05 -0.000115993 -0.000260984 -0.000463971 -0.000724955 -0.00104394 -0.00142091 -0.00185588 -0.00230063 -0.00270691 -0.00307473 -0.00340409 -0.00369499 -0.00394744 -0.00416142 -0.00433694 -0.00444755 -0.00446677 -0.00439462 -0.0042311 -0.0039762 -0.00362992 -0.00319226 -0.00266323 -0.00208048 -0.00148166 -0.000866785 -0.000235846 0.000411156 0.00107422 0.00175335 0.00244853 0.003108 0.00367996 0.00416442 0.00456137 0.00487081 0.00509275 0.00522718 0.00527411 0.00522777 0.00508242 0.00483804 0.00449463 0.00405221 0.00351076 0.0028703 0.00213081 0.00133996 0.000545445 -0.000252755 -0.00105463 -0.00186019 -0.00266943 -0.00348235 -0.00429894 -0.00506966 -0.00574494 -0.00632477 -0.00680917 -0.00719812 -0.00749164 -0.00768971 -0.00779234 -0.00780024 -0.00771411 -0.00753394 -0.00725974 -0.00689152 -0.00642926 -0.00587297 -0.00522265 -0.00452504 -0.00382687 -0.00312816 -0.00242889 -0.00172907 -0.00102869 -0.00032777 0.000373707 0.00103523 0.0016163 0.00211691 0.00253706 0.00287675 0.00313599 0.00331477 0.00341309 0.00343704 0.0033927 0.00328009 0.00309919 0.00285001 0.00253255 0.00214681 0.00169278 0.00121035 0.00073938 0.000279881 -0.000168152 -0.000604716 -0.00102981 -0.00144344 -0.00184561 -0.00221014 -0.00251086 -0.00274778 -0.0029209 -0.00303022 -0.00307574 -0.00305745 -0.00297536 -0.00284881 -0.00269714 -0.00252036 -0.00231846 -0.00209145 -0.00183931 -0.00156206 -0.0012597 -0.000964456 -0.00070858 -0.000492069 -0.000314924 -0.000177145 -7.87311e-05 -1.96828e-05 0 0 -3.0825e-05 -0.0001233 -0.000277425 -0.000493199 -0.000770624 -0.0011097 -0.00151042 -0.0019728 -0.0024429 -0.00286682 -0.00324455 -0.0035761 -0.00386145 -0.00410062 -0.0042936 -0.00444039 -0.00451274 -0.00448239 -0.00434934 -0.00411358 -0.00377513 -0.00333398 -0.00279013 -0.00214357 -0.00143752 -0.000715162 2.34991e-05 0.000778463 0.00154973 0.0023373 0.00314117 0.00396135 0.00473926 0.00541634 0.00599259 0.006468 0.00684259 0.00711634 0.00728926 0.00736135 0.00732626 0.00717764 0.00691549 0.00653982 0.00605062 0.00544789 0.00473164 0.00390185 0.00301263 0.00211807 0.00121816 0.0003129 -0.000597703 -0.00151365 -0.00243495 -0.00336159 -0.00423736 -0.00500604 -0.00566764 -0.00622216 -0.00666958 -0.00700993 -0.00724319 -0.00736936 -0.00738909 -0.00730302 -0.00711116 -0.0068135 -0.00641004 -0.00590078 -0.00528573 -0.00456488 -0.00379102 -0.00301694 -0.00224264 -0.00146812 -0.000693374 8.15895e-05 0.000856774 0.00163218 0.00236193 0.00300014 0.00354682 0.00400196 0.00436556 0.00463763 0.00481817 0.00490717 0.00491139 0.00483757 0.00468573 0.00445585 0.00414794 0.00376201 0.00329804 0.00275604 0.0021811 0.00161832 0.0010677 0.000529233 2.92085e-06 -0.000511235 -0.00101323 -0.00150308 -0.00195077 -0.00232632 -0.00262973 -0.00286099 -0.00302011 -0.00310709 -0.00312192 -0.00306461 -0.00295604 -0.0028171 -0.00264778 -0.00244808 -0.00221801 -0.00195756 -0.00166674 -0.00134554 -0.00103018 -0.000756868 -0.000525603 -0.000336386 -0.000189217 -8.40964e-05 -2.10241e-05 0 0 -3.22048e-05 -0.000128819 -0.000289843 -0.000515277 -0.00080512 -0.00115937 -0.00157803 -0.00206111 -0.00254895 -0.00298192 -0.00336003 -0.00368326 -0.00395163 -0.00416513 -0.00432376 -0.00442752 -0.00444665 -0.00435139 -0.00414175 -0.00381771 -0.00337929 -0.00282648 -0.00215929 -0.0013777 -0.000530866 0.000332084 0.00121115 0.00210633 0.00301762 0.00394503 0.00488855 0.00584819 0.00675827 0.00755312 0.00823275 0.00879716 0.00924634 0.00958029 0.00979902 0.00990253 0.00988388 0.00973615 0.00945933 0.00905343 0.00851845 0.00785439 0.00706124 0.00613902 0.00514855 0.00415068 0.00314542 0.00213276 0.00111271 8.5259e-05 -0.000949588 -0.00199183 -0.00297826 -0.00384566 -0.00459403 -0.00522338 -0.0057337 -0.00612499 -0.00639725 -0.00655049 -0.00658525 -0.00650207 -0.00630096 -0.00598192 -0.00554494 -0.00499003 -0.00431719 -0.00352641 -0.0026768 -0.00182744 -0.000978331 -0.000129479 0.000719118 0.00156746 0.00241555 0.00326338 0.00405946 0.00475227 0.00534182 0.00582811 0.00621113 0.00649089 0.00666738 0.00674061 0.00671801 0.00660699 0.00640757 0.00611973 0.00574349 0.00527883 0.00472577 0.00408429 0.00340496 0.00273833 0.00208441 0.00144319 0.000814669 0.000198853 -0.00040426 -0.00099467 -0.00153829 -0.00200105 -0.00238293 -0.00268394 -0.00290408 -0.00304335 -0.00310174 -0.00307927 -0.0029982 -0.00288082 -0.00272711 -0.00253709 -0.00231075 -0.00204809 -0.00174911 -0.00141382 -0.00108245 -0.000795272 -0.000552273 -0.000353454 -0.000198818 -8.83636e-05 -2.20909e-05 0 0 -3.28443e-05 -0.000131377 -0.000295598 -0.000525508 -0.000821107 -0.00118239 -0.00160937 -0.00210203 -0.00259521 -0.00302374 -0.00338761 -0.00368683 -0.00392139 -0.0040913 -0.00419655 -0.00423715 -0.0041823 -0.00400122 -0.00369391 -0.00326037 -0.00270059 -0.00201458 -0.00120234 -0.00026387 0.000745368 0.0017699 0.00280974 0.00386487 0.0049353 0.00602103 0.00712205 0.00823838 0.00929698 0.0102249 0.011022 0.0116884 0.0122241 0.012629 0.0129032 0.0130467 0.0130519 0.0129115 0.0126253 0.0121935 0.011616 0.0108928 0.0100239 0.00900926 0.00791682 0.00681443 0.00570206 0.00457974 0.00344746 0.00230521 0.001153 -9.17581e-06 -0.00111083 -0.00208149 -0.00292114 -0.0036298 -0.00420746 -0.00465411 -0.00496977 -0.00515443 -0.00520849 -0.00513235 -0.00492601 -0.00458948 -0.00412274 -0.00352581 -0.00279868 -0.00194135 -0.0010194 -9.83857e-05 0.000821679 0.0017408 0.00265897 0.0035762 0.00449249 0.00540782 0.0062649 0.0070064 0.00763232 0.00814266 0.00853743 0.00881662 0.00898023 0.00902827 0.00896882 0.00881 0.00855179 0.0081942 0.00773724 0.00718089 0.00652516 0.00577005 0.00497177 0.00418652 0.0034143 0.00265512 0.00190897 0.00117585 0.000455767 -0.000251284 -0.000906875 -0.00147258 -0.00194839 -0.00233431 -0.00263034 -0.00283648 -0.00295274 -0.0029791 -0.00293899 -0.00285581 -0.00272957 -0.00256026 -0.00234789 -0.00209245 -0.00179395 -0.00145239 -0.00111199 -0.000816969 -0.000567339 -0.000363097 -0.000204242 -9.07743e-05 -2.26936e-05 0 0 -3.27434e-05 -0.000130973 -0.00029469 -0.000523894 -0.000818584 -0.00117876 -0.00160442 -0.00209558 -0.0025817 -0.00299227 -0.0033273 -0.00358679 -0.00377073 -0.00387913 -0.00391198 -0.00386928 -0.0037197 -0.00343188 -0.00300583 -0.00244155 -0.00173903 -0.000898278 8.07066e-05 0.00119792 0.00239119 0.0035983 0.00481927 0.00605409 0.00730277 0.0085653 0.00984168 0.0111319 0.0123554 0.0134315 0.0143603 0.0151417 0.0157758 0.0162625 0.0166018 0.0167938 0.0168304 0.0167037 0.0164135 0.0159601 0.0153432 0.0145631 0.0136195 0.0125126 0.0113175 0.0101093 0.00888809 0.00765383 0.00640654 0.0051462 0.00387281 0.00258638 0.00136493 0.000286479 -0.000648968 -0.00144141 -0.00209086 -0.0025973 -0.00296074 -0.00318118 -0.00325882 -0.00319386 -0.00298632 -0.00263618 -0.00214345 -0.00150812 -0.000730204 0.000190306 0.00118119 0.00217022 0.00315739 0.00414272 0.00512619 0.00610781 0.00708758 0.0080655 0.00897825 0.00976252 0.0104183 0.0109456 0.0113445 0.0116148 0.0117567 0.0117701 0.0116638 0.0114466 0.0111184 0.0106793 0.0101292 0.00946818 0.00869622 0.00781333 0.00688153 0.00596289 0.00505739 0.00416503 0.00328582 0.00241976 0.00156685 0.000727078 -5.65182e-05 -0.000740915 -0.00132611 -0.00181211 -0.00219891 -0.00248651 -0.00267491 -0.00276411 -0.0027784 -0.00274208 -0.00265515 -0.0025176 -0.00232943 -0.00209066 -0.00180126 -0.00146126 -0.00111877 -0.000821956 -0.000570803 -0.000365314 -0.000205489 -9.13285e-05 -2.28321e-05 0 0 -3.19021e-05 -0.000127608 -0.000