<?xml version="1.0"?> 
<VTKFile type="StructuredGrid" version="0.1"> 
<StructuredGrid WholeExtent="0 128 0 128 0 0"> 
<Piece Extent="0 128 0 128 0 0"> 
<PointData>
<DataArray type="Float32" Name="u" format="ascii" NumberOfComponents="1"> 
0 0 0 0 0 0 0 0 0 0 0 0 0 0 0 0 0 0 0 0 0 0 0 0 0 0 0 0 0 0 0 0 0 0 0 0 0 0 0 0 0 0 0 0 0 0 0 0 0 0 0 0 0 0 0 0 0 0 0 0 0 0 0 0 0 0 0 0 0 0 0 0 0 0 0 0 0 0 0 0 0 0 0 0 0 0 0 0 0 0 0 0 0 0 0 0 0 0 0 0 0 0 0 0 0 0 0 0 0 0 0 0 0 0 0 0 0 0 0 0 0 0 0 0 0 0 0 0 0 0 3.16846e-06 1.26739e-05 2.85162e-05 5.06954e-05 7.92116e-05 0.000114065 0.000155255 0.000202782 0.000256622 0.000316752 0.000383173 0.000455883 0.000534883 0.000620173 0.000711752 0.000809622 0.000910342 0.00101047 0.00111002 0.00120897 0.00130734 0.00140512 0.00150231 0.00159892 0.00169251 0.00178066 0.00186338 0.00194065 0.00201249 0.0020789 0.00213986 0.00219539 0.002245 0.00228823 0.00232506 0.00235551 0.00237957 0.00239723 0.00240851 0.0024134 0.00241265 0.002407 0.00239646 0.00238103 0.0023607 0.00233548 0.00230537 0.00227036 0.00223162 0.0021903 0.0021464 0.00209992 0.00205087 0.00199924 0.00194502 0.00188824 0.00182993 0.00177115 0.00171192 0.00165222 0.00159206 0.00153144 0.00147036 0.00140881 0.00134754 0.00128727 0.001228 0.00116974 0.00111248 0.00105623 0.00100098 0.000946733 0.000893841 0.00084265 0.000793161 0.000745373 0.000699287 0.000654902 0.000612219 0.000571238 0.000531976 0.000494453 0.000458669 0.000424624 0.000392317 0.000361749 0.00033292 0.00030583 0.000280304 0.000256167 0.000233421 0.000212065 0.000192098 0.000173521 0.000156335 0.000140538 0.000125914 0.000112246 9.95344e-05 8.77789e-05 7.69795e-05 6.71362e-05 5.82491e-05 5.03181e-05 4.31718e-05 3.66391e-05 3.07198e-05 2.54139e-05 2.07215e-05 1.66425e-05 1.3177e-05 1.0325e-05 7.93762e-06 5.86618e-06 4.11066e-06 2.67106e-06 1.54738e-06 7.39615e-07 2.47773e-07 7.18501e-08 5.50102e-08 4.04157e-08 2.80665e-08 1.79625e-08 1.01039e-08 4.49063e-09 1.12266e-09 0 0 1.26739e-05 5.06954e-05 0.000114065 0.000202782 0.000316846 0.000456259 0.000621019 0.000811127 0.00102649 0.00126701 0.00153269 0.00182353 0.00213953 0.00248069 0.00284701 0.00323849 0.00364137 0.0040419 0.00444008 0.0048359 0.00522937 0.00562049 0.00600925 0.00639567 0.00677003 0.00712264 0.0074535 0.00776261 0.00804997 0.00831558 0.00855944 0.00878155 0.00898001 0.00915291 0.00930025 0.00942203 0.00951826 0.00958893 0.00963404 0.0096536 0.00965059 0.009628 0.00958584 0.00952411 0.0094428 0.00934193 0.00922147 0.00908145 0.00892648 0.00876119 0.0085856 0.00839969 0.00820347 0.00799694 0.0077801 0.00755294 0.0073197 0.00708462 0.00684768 0.00660889 0.00636826 0.00612577 0.00588144 0.00563525 0.00539015 0.00514907 0.004912 0.00467895 0.00444992 0.00422491 0.00400391 0.00378693 0.00357536 0.0033706 0.00317264 0.00298149 0.00279715 0.00261961 0.00244888 0.00228495 0.0021279 0.00197781 0.00183468 0.0016985 0.00156927 0.001447 0.00133168 0.00122332 0.00112121 0.00102467 0.000933685 0.000848259 0.000768392 0.000694086 0.000625339 0.000562151 0.000503655 0.000448984 0.000398138 0.000351116 0.000307918 0.000268545 0.000232996 0.000201272 0.000172687 0.000146556 0.000122879 0.000101656 8.2886e-05 6.65701e-05 5.27081e-05 4.12999e-05 3.17505e-05 2.34647e-05 1.64426e-05 1.06842e-05 6.18951e-06 2.95846e-06 9.9109e-07 2.874e-07 2.20041e-07 1.61663e-07 1.12266e-07 7.18501e-08 4.04157e-08 1.79625e-08 4.49063e-09 0 0 2.85162e-05 0.000114065 0.000256646 0.000456259 0.000712905 0.00102658 0.00139729 0.00182504 0.0023096 0.00285077 0.00344855 0.00410294 0.00481394 0.00558155 0.00640577 0.0072866 0.00819308 0.00909427 0.00999017 0.0108808 0.0117661 0.0126461 0.0135208 0.0143903 0.0152326 0.0160259 0.0167704 0.0174659 0.0181124 0.0187101 0.0192587 0.0197585 0.020205 0.020594 0.0209256 0.0211996 0.0214161 0.0215751 0.0216766 0.0217206 0.0217138 0.021663 0.0215681 0.0214292 0.0212463 0.0210193 0.0207483 0.0204333 0.0200846 0.0197127 0.0193176 0.0188993 0.0184578 0.0179931 0.0175052 0.0169941 0.0164693 0.0159404 0.0154073 0.01487 0.0143286 0.013783 0.0132332 0.0126793 0.0121278 0.0115854 0.011052 0.0105276 0.0100123 0.00950604 0.0090088 0.0085206 0.00804457 0.00758385 0.00713845 0.00670836 0.00629358 0.00589412 0.00550997 0.00514114 0.00478779 0.00445008 0.00412802 0.00382162 0.00353086 0.00325574 0.00299628 0.00275247 0.00252273 0.00230551 0.00210079 0.00190858 0.00172888 0.00156169 0.00140701 0.00126484 0.00113322 0.00101021 0.00089581 0.00079001 0.000692815 0.000604226 0.000524242 0.000452863 0.000388547 0.000329752 0.000276478 0.000228725 0.000186493 0.000149783 0.000118593 9.29249e-05 7.14386e-05 5.27956e-05 3.69959e-05 2.40395e-05 1.39264e-05 6.65653e-06 2.22995e-06 6.46651e-07 4.95092e-07 3.63741e-07 2.52598e-07 1.61663e-07 9.09353e-08 4.04157e-08 1.01039e-08 0 0 5.06954e-05 0.000202782 0.000456259 0.000811127 0.00126739 0.00182504 0.00248408 0.00324451 0.00410595 0.00506804 0.00613076 0.00729412 0.00855812 0.00992276 0.011388 0.012954 0.0145655 0.0161676 0.0177603 0.0193436 0.0209175 0.022482 0.024037 0.0255827 0.0270801 0.0284906 0.029814 0.0310505 0.0321999 0.0332623 0.0342378 0.0351262 0.03592 0.0366116 0.037201 0.0376881 0.038073 0.0383557 0.0385362 0.0386144 0.0386023 0.038512 0.0383434 0.0380964 0.0377712 0.0373677 0.0368859 0.0363258 0.0357059 0.0350448 0.0343424 0.0335988 0.0328139 0.0319878 0.0311204 0.0302118 0.0292788 0.0283385 0.0273907 0.0264356 0.025473 0.0245031 0.0235257 0.022541 0.0215606 0.0205963 0.019648 0.0187158 0.0177997 0.0168996 0.0160156 0.0151477 0.0143015 0.0134824 0.0126906 0.011926 0.0111886 0.0104784 0.00979551 0.0091398 0.00851162 0.00791125 0.00733871 0.00679398 0.00627708 0.00578799 0.00532672 0.00489328 0.00448486 0.00409868 0.00373474 0.00339304 0.00307357 0.00277634 0.00250135 0.0022486 0.00201462 0.00179594 0.00159255 0.00140446 0.00123167 0.00107418 0.000931985 0.000805089 0.00069075 0.000586225 0.000491516 0.000406622 0.000331544 0.000266281 0.000210832 0.0001652 0.000127002 9.38589e-05 6.57706e-05 4.27369e-05 2.4758e-05 1.18338e-05 3.96436e-06 1.1496e-06 8.80164e-07 6.46651e-07 4.49063e-07 2.874e-07 1.61663e-07 7.18501e-08 1.79625e-08 0 0 7.92116e-05 0.000316846 0.000712905 0.00126739 0.00198029 0.00285162 0.00388137 0.00506954 0.00641555 0.00791881 0.00957931 0.0113971 0.0133721 0.0155043 0.0177938 0.0202405 0.0227586 0.0252619 0.0277505 0.0302244 0.0326836 0.0351281 0.0375578 0.0399729 0.0423127 0.0445165 0.0465844 0.0485163 0.0503123 0.0519724 0.0534965 0.0548847 0.0561251 0.0572057 0.0581266 0.0588877 0.0594891 0.0599308 0.0602128 0.060335 0.0603162 0.060175 0.0599115 0.0595257 0.0590175 0.058387 0.0576342 0.056759 0.0557905 0.0547575 0.05366 0.0524981 0.0512717 0.0499809 0.0486256 0.0472059 0.0457481 0.0442788 0.042798 0.0413056 0.0398016 0.0382861 0.036759 0.0352203 0.0336885 0.0321817 0.0307 0.0292435 0.027812 0.0264057 0.0250244 0.0236683 0.022346 0.0210663 0.019829 0.0186343 0.0174822 0.0163726 0.0153055 0.0142809 0.0132994 0.0123613 0.0114667 0.0106156 0.00980793 0.00904374 0.00832301 0.00764575 0.00700759 0.00640419 0.00583553 0.00530162 0.00480245 0.00433804 0.00390837 0.00351344 0.00314785 0.00280615 0.00248836 0.00219447 0.00192449 0.00167841 0.00145623 0.00125795 0.0010793 0.000915977 0.000767994 0.000635347 0.000518037 0.000416063 0.000329426 0.000258125 0.000198441 0.000146655 0.000102767 6.67765e-05 3.86844e-05 1.84904e-05 6.19431e-06 1.79625e-06 1.37526e-06 1.01039e-06 7.01661e-07 4.49063e-07 2.52598e-07 1.12266e-07 2.80665e-08 0 0 0.000114065 0.000456259 0.00102658 0.00182504 0.00285162 0.00410633 0.00558917 0.00730014 0.0092384 0.0114031 0.0137942 0.0164118 0.0192558 0.0223262 0.0256231 0.0291464 0.0327723 0.0363771 0.0399607 0.0435231 0.0470643 0.0505844 0.0540833 0.057561 0.0609303 0.0641038 0.0670815 0.0698635 0.0724498 0.0748403 0.077035 0.079034 0.0808201 0.0823762 0.0837023 0.0847983 0.0856644 0.0863004 0.0867064 0.0868824 0.0868553 0.086652 0.0862726 0.085717 0.0849852 0.0840773 0.0829933 0.081733 0.0803383 0.0788508 0.0772704 0.0755972 0.0738313 0.0719725 0.0700209 0.0679765 0.0658773 0.0637615 0.0616291 0.05948 0.0573143 0.0551319 0.0529329 0.0507173 0.0485114 0.0463416 0.044208 0.0421106 0.0400493 0.0380242 0.0360352 0.0340824 0.0321783 0.0303354 0.0285538 0.0268334 0.0251743 0.0235765 0.0220399 0.0205646 0.0191511 0.0178003 0.0165121 0.0152865 0.0141234 0.013023 0.0119851 0.0110099 0.0100909 0.00922203 0.00840316 0.00763433 0.00691553 0.00624677 0.00562805 0.00505936 0.0045329 0.00404086 0.00358324 0.00316004 0.00277126 0.0024169 0.00209697 0.00181145 0.00155419 0.00131901 0.00110591 0.0009149 0.000745974 0.000599131 0.000474373 0.000371699 0.000285754 0.000211183 0.000147984 9.61581e-05 5.57056e-05 2.66261e-05 8.91981e-06 2.5866e-06 1.98037e-06 1.45496e-06 1.01039e-06 6.46651e-07 3.63741e-07 1.61663e-07 4.04157e-08 0 0 0.000155255 0.000621019 0.00139729 0.00248408 0.00388137 0.00558917 0.00760748 0.00993631 0.0125745 0.0155209 0.0187755 0.0223383 0.0262092 0.0303885 0.0348759 0.0396715 0.0446068 0.0495133 0.0543909 0.0592398 0.0640598 0.068851 0.0736134 0.0783469 0.0829329 0.0872523 0.0913054 0.095092 0.0986122 0.101866 0.104853 0.107574 0.110005 0.112123 0.113928 0.11542 0.116599 0.117464 0.118017 0.118257 0.11822 0.117943 0.117427 0.11667 0.115674 0.114439 0.112963 0.111248 0.109349 0.107325 0.105174 0.102896 0.100493 0.0979625 0.0953062 0.0925235 0.0896664 0.0867865 0.0838841 0.0809589 0.0780111 0.0750407 0.0720476 0.0690318 0.0660294 0.0630761 0.060172 0.0573172 0.0545116 0.0517551 0.0490479 0.0463899 0.0437982 0.0412899 0.0388649 0.0365233 0.0342651 0.0320902 0.0299987 0.0279906 0.0260668 0.0242282 0.0224748 0.0208066 0.0192235 0.0177257 0.0163131 0.0149857 0.0137349 0.0125522 0.0114376 0.0103912 0.00941281 0.00850255 0.0076604 0.00688635 0.00616978 0.00550006 0.00487719 0.00430117 0.003772 0.00328967 0.00285421 0.00246559 0.00211542 0.00179531 0.00150527 0.00124528 0.00101535 0.000815484 0.000645675 0.000505924 0.000388944 0.000287443 0.000201422 0.000130882 7.58215e-05 3.62411e-05 1.21409e-05 3.52066e-06 2.6955e-06 1.98037e-06 1.37526e-06 8.80164e-07 4.95092e-07 2.20041e-07 5.50102e-08 0 0 0.000202782 0.000811127 0.00182504 0.00324451 0.00506954 0.00730014 0.00993631 0.012978 0.0164238 0.0202722 0.024523 0.0291765 0.0342325 0.039691 0.0455521 0.0518158 0.0582619 0.0646704 0.0710412 0.0773744 0.0836699 0.0899278 0.0961481 0.102331 0.10832 0.113962 0.119256 0.124202 0.1288 0.133049 0.136951 0.140505 0.14368 0.146447 0.148804 0.150753 0.152292 0.153423 0.154145 0.154458 0.154409 0.154048 0.153373 0.152386 0.151085 0.149471 0.147544 0.145303 0.142824 0.140179 0.13737 0.134395 0.131256 0.127951 0.124482 0.120847 0.117115 0.113354 0.109563 0.105742 0.101892 0.0980123 0.094103 0.090164 0.0862424 0.0823851 0.0785921 0.0748633 0.0711988 0.0675985 0.0640626 0.0605909 0.0572058 0.0539296 0.0507623 0.0477039 0.0447544 0.0419138 0.039182 0.0365592 0.0340465 0.031645 0.0293548 0.0271759 0.0251083 0.023152 0.0213069 0.0195731 0.0179394 0.0163947 0.014939 0.0135721 0.0122943 0.0111054 0.0100054 0.00899442 0.00805849 0.00718375 0.0063702 0.00561785 0.00492669 0.00429672 0.00372794 0.00322036 0.002763 0.0023449 0.00196606 0.00162649 0.00132618 0.00106512 0.00084333 0.000660799 0.000508008 0.000375436 0.000263082 0.000170948 9.90321e-05 4.73353e-05 1.58574e-05 4.59841e-06 3.52066e-06 2.5866e-06 1.79625e-06 1.1496e-06 6.46651e-07 2.874e-07 7.18501e-08 0 0 0.000257257 0.00102903 0.00231531 0.00411611 0.00643142 0.00926125 0.0126056 0.0164644 0.0208339 0.0257102 0.0310933 0.0369832 0.0433799 0.0502833 0.0576936 0.0656106 0.0737567 0.0818541 0.0899028 0.0979028 0.105854 0.113757 0.121611 0.129416 0.136977 0.144099 0.150781 0.157025 0.162829 0.168194 0.173119 0.177605 0.181614 0.185107 0.188084 0.190546 0.192492 0.193922 0.194837 0.195236 0.195179 0.194728 0.193881 0.19264 0.191003 0.188972 0.186545 0.183723 0.1806 0.177268 0.173728 0.169979 0.166021 0.161855 0.157481 0.152898 0.148192 0.143447 0.138665 0.133844 0.128986 0.124089 0.119155 0.114182 0.109231 0.10436 0.0995696 0.0948596 0.09023 0.0856808 0.0812121 0.0768239 0.0725444 0.0684019 0.0643966 0.0605283 0.056797 0.0532029 0.0497458 0.0464258 0.0432445 0.0402037 0.0373033 0.0345433 0.0319238 0.0294447 0.0271061 0.0249079 0.0228362 0.0208769 0.0190301 0.0172959 0.0156741 0.0141648 0.012768 0.0114837 0.0102944 0.00918264 0.00814837 0.0071916 0.00631235 0.00551061 0.00478638 0.00413966 0.00355659 0.0030233 0.00253978 0.00210605 0.00172209 0.00138791 0.00110351 0.000868888 0.000672029 0.000500919 0.000355558 0.000235945 0.000142081 7.39646e-05 3.15973e-05 1.49784e-05 1.14678e-05 8.42535e-06 5.85094e-06 3.7446e-06 2.10634e-06 9.3615e-07 2.34037e-07 0 0 0.000319291 0.00127716 0.00287362 0.00510866 0.00798228 0.0114945 0.0156453 0.0204346 0.0258524 0.0318884 0.0385426 0.0458151 0.0537058 0.0622147 0.0713419 0.0810872 0.0911102 0.10107 0.110967 0.120801 0.130572 0.140279 0.149924 0.159506 0.168786 0.177528 0.18573 0.193393 0.200517 0.207102 0.213148 0.218654 0.223576 0.227866 0.231524 0.23455 0.236945 0.238709 0.239841 0.240341 0.240284 0.239743 0.238718 0.237209 0.235216 0.232739 0.229778 0.226333 0.222518 0.218446 0.214118 0.209533 0.204691 0.199593 0.194238 0.188627 0.182863 0.17705 0.171189 0.16528 0.159321 0.153314 0.147259 0.141155 0.135075 0.129092 0.123206 0.117417 0.111724 0.106128 0.100629 0.0952273 0.0899571 0.0848541 0.0799182 0.0751494 0.0705478 0.0661133 0.061846 0.0577458 0.0538153 0.0500571 0.0464712 0.0430575 0.0398162 0.0367471 0.0338502 0.0311257 0.0285566 0.0261261 0.0238343 0.021681 0.0196665 0.0177905 0.0160532 0.0144545 0.012973 0.0115875 0.0102978 0.00910395 0.008006 0.00700393 0.00609773 0.00528741 0.00455587 0.00388604 0.00327791 0.00273148 0.00224674 0.00182371 0.00146238 0.00116275 0.000910089 0.000689652 0.000501443 0.000345462 0.00022171 0.000130185 7.0888e-05 4.38192e-05 3.3549e-05 2.46483e-05 1.71169e-05 1.09548e-05 6.16207e-06 2.7387e-06 6.84674e-07 0 0 0.000388885 0.00155554 0.00349996 0.00622216 0.00972212 0.0139999 0.0190554 0.0248886 0.0314792 0.0388067 0.046871 0.0556722 0.0652102 0.0754852 0.0864969 0.0982456 0.110322 0.122318 0.134234 0.146068 0.157822 0.169496 0.181088 0.1926 0.203748 0.214248 0.224101 0.233306 0.241864 0.249774 0.257037 0.263652 0.269565 0.274722 0.279122 0.282765 0.285653 0.287783 0.289157 0.289775 0.289724 0.289093 0.287883 0.286092 0.283722 0.280772 0.277242 0.273132 0.268577 0.263713 0.25854 0.253057 0.247265 0.241164 0.234754 0.228034 0.221129 0.214163 0.207136 0.200048 0.192898 0.185687 0.178416 0.171083 0.163776 0.156582 0.149502 0.142535 0.135681 0.128941 0.122315 0.115801 0.109444 0.103286 0.0973272 0.0915674 0.0860067 0.0806451 0.0754827 0.0705194 0.065759 0.0612054 0.0568586 0.0527186 0.0487854 0.0450589 0.0415393 0.0382265 0.0351007 0.0321423 0.0293513 0.0267276 0.0242713 0.0219824 0.0198608 0.0179067 0.0160943 0.0143982 0.0128184 0.0113549 0.0100076 0.00877667 0.00766199 0.00666359 0.00576085 0.00493313 0.00418044 0.00350278 0.00290014 0.00237253 0.00191995 0.0015424 0.00122219 0.000941635 0.000700739 0.000499501 0.000337919 0.000215996 0.00013373 9.11207e-05 6.97643e-05 5.12554e-05 3.5594e-05 2.27802e-05 1.28138e-05 5.69504e-06 1.42376e-06 0 0 0.000466038 0.00186415 0.00419434 0.00745661 0.0116509 0.0167774 0.0228359 0.0298264 0.0377144 0.046465 0.0560784 0.0665545 0.0778932 0.0900947 0.103159 0.117086 0.131393 0.145599 0.159703 0.173706 0.187607 0.201406 0.215104 0.2287 0.241863 0.254261 0.265895 0.276765 0.28687 0.296211 0.304787 0.312598 0.319582 0.325676 0.330879 0.335191 0.338613 0.341145 0.342785 0.343536 0.343499 0.342779 0.341377 0.339291 0.336523 0.333071 0.328937 0.324119 0.318777 0.313068 0.306993 0.300551 0.293743 0.286568 0.279027 0.27112 0.262991 0.254786 0.246505 0.238149 0.229717 0.221208 0.212624 0.203964 0.195332 0.186829 0.178456 0.170214 0.162102 0.15412 0.146268 0.138546 0.131005 0.123698 0.116624 0.109782 0.103174 0.0967983 0.0906559 0.0847464 0.0790754 0.0736484 0.0684654 0.0635264 0.0588314 0.0543804 0.0501733 0.0462103 0.0424685 0.0389255 0.0355812 0.0324356 0.0294887 0.0267405 0.024191 0.0218403 0.0196582 0.0176149 0.0157103 0.0139444 0.0123172 0.0108288 0.00947916 0.00826821 0.00717151 0.00616456 0.00524737 0.00441995 0.00368228 0.00303437 0.00247621 0.00200782 0.00160833 0.00125687 0.000953445 0.000698059 0.00049071 0.000331398 0.000220122 0.000156883 0.000120114 8.82467e-05 6.12824e-05 3.92207e-05 2.20617e-05 9.80519e-06 2.4513e-06 0 0 0.00055075 0.002203 0.00495675 0.008812 0.0137688 0.019827 0.0269868 0.035248 0.0445579 0.0548635 0.0661648 0.0784619 0.0917547 0.106043 0.121328 0.137608 0.154323 0.170912 0.187375 0.203713 0.219924 0.23601 0.25197 0.267804 0.28313 0.297566 0.311113 0.323769 0.335535 0.346411 0.356397 0.365493 0.373627 0.380728 0.386795 0.391828 0.395828 0.398793 0.400725 0.401624 0.401609 0.400801 0.3992 0.396805 0.393618 0.389637 0.384863 0.379296 0.373118 0.366512 0.359478 0.352016 0.344125 0.335806 0.327059 0.317883 0.308447 0.298919 0.289297 0.279583 0.269777 0.259877 0.249885 0.239801 0.229744 0.219833 0.21007 0.200454 0.190985 0.181663 0.172488 0.16346 0.154641 0.14609 0.137807 0.129794 0.122049 0.114573 0.107366 0.100427 0.0937647 0.0873863 0.0812918 0.0754811 0.0699543 0.0647114 0.0597523 0.055077 0.0506601 0.0464757 0.0425241 0.038805 0.0353186 0.0320649 0.0290437 0.0262553 0.0236647 0.0212374 0.0189733 0.0168725 0.0149348 0.0131604 0.0115492 0.0101013 0.00878785 0.00758034 0.00647871 0.00548299 0.00459315 0.00380922 0.00313117 0.00255902 0.0020685 0.00163535 0.00125956 0.000941138 0.000680081 0.000476391 0.000330065 0.000241106 0.000184597 0.000135622 9.41821e-05 6.02765e-05 3.39055e-05 1.50691e-05 3.76728e-06 0 0 0.000643022 0.00257209 0.00578719 0.0102883 0.0160755 0.0231488 0.0315081 0.0411534 0.0520097 0.064002 0.0771303 0.0913945 0.106795 0.123331 0.141003 0.159811 0.179111 0.198257 0.21725 0.236089 0.254775 0.273308 0.291687 0.309913 0.32755 0.344164 0.359753 0.374318 0.387858 0.400375 0.411868 0.422337 0.4317 0.439878 0.44687 0.452675 0.457295 0.460729 0.462978 0.46404 0.464054 0.463158 0.461351 0.458634 0.455007 0.450469 0.445021 0.438662 0.431601 0.424045 0.415995 0.40745 0.398411 0.388877 0.378848 0.368325 0.357499 0.346561 0.335511 0.324351 0.313078 0.301694 0.290199 0.278592 0.267011 0.255595 0.244343 0.233255 0.222331 0.211572 0.200977 0.190546 0.18035 0.170461 0.160878 0.151602 0.142632 0.133969 0.125612 0.117561 0.109827 0.102419 0.0953376 0.0885826 0.0821541 0.0760519 0.0702762 0.0648268 0.0596753 0.054793 0.0501798 0.0458358 0.041761 0.0379554 0.034419 0.0311517 0.028114 0.0252659 0.0226077 0.0201392 0.0178604 0.0157714 0.0138722 0.0121628 0.0106099 0.00918046 0.00787446 0.0066919 0.00563277 0.00469708 0.00388482 0.003196 0.00260272 0.00207708 0.00161909 0.00122874 0.000906033 0.000650974 0.00046356 0.00034379 0.000263214 0.000193382 0.000134293 8.59475e-05 4.83455e-05 2.14869e-05 5.37172e-06 0 0 0.000742852 0.00297141 0.00668567 0.0118856 0.0185713 0.0267427 0.0363998 0.0475426 0.0600699 0.0738807 0.0889748 0.105352 0.123013 0.141958 0.162185 0.183697 0.205758 0.227634 0.249327 0.270835 0.292159 0.313299 0.334255 0.355027 0.375123 0.394053 0.411816 0.428412 0.443841 0.458104 0.471199 0.483128 0.493801 0.503126 0.511103 0.517734 0.523017 0.526953 0.529542 0.530783 0.530834 0.52985 0.527831 0.524778 0.52069 0.515567 0.509409 0.502217 0.494225 0.485667 0.476544 0.466855 0.456601 0.445781 0.434396 0.422445 0.410145 0.397713 0.385148 0.372451 0.359621 0.346659 0.333565 0.320337 0.307135 0.294114 0.281275 0.268617 0.256141 0.243846 0.231733 0.219802 0.208134 0.196812 0.185837 0.175207 0.164924 0.154986 0.145394 0.136149 0.127262 0.118746 0.110603 0.102831 0.0954307 0.088402 0.081745 0.0754597 0.0695143 0.0638772 0.0585485 0.0535281 0.048816 0.0444122 0.0403168 0.0365296 0.0330058 0.0297004 0.0266132 0.0237444 0.021094 0.0186619 0.0164481 0.0144527 0.0126376 0.0109649 0.00943461 0.00804668 0.00680113 0.00569796 0.00473717 0.00391876 0.00321097 0.00258206 0.00203202 0.00156086 0.00116857 0.000855149 0.000620605 0.000464935 0.000355966 0.000261526 0.000181615 0.000116234 6.53814e-05 2.90584e-05 7.2646e-06 0 0 0.000850243 0.00340097 0.00765218 0.0136039 0.0212561 0.0306087 0.0416619 0.0544155 0.0687384 0.0844994 0.101698 0.120335 0.14041 0.161924 0.184875 0.209264 0.234263 0.259044 0.283606 0.307951 0.332077 0.355985 0.379674 0.403146 0.425849 0.447234 0.467301 0.486051 0.503482 0.519596 0.534391 0.547869 0.559929 0.570471 0.579496 0.587003 0.592992 0.597464 0.600418 0.601854 0.601949 0.600878 0.59864 0.595237 0.590667 0.584931 0.578029 0.569961 0.56099 0.551377 0.541124 0.53023 0.518694 0.506518 0.493701 0.480243 0.466387 0.452375 0.438207 0.423885 0.409406 0.394772 0.379983 0.365038 0.350114 0.33539 0.320865 0.30654 0.292413 0.278485 0.264757 0.251228 0.237992 0.225144 0.212683 0.200609 0.188923 0.177624 0.166713 0.15619 0.146069 0.136369 0.127088 0.118226 0.109784 0.101762 0.0941588 0.0869755 0.0801769 0.0737285 0.0676301 0.0618817 0.0564834 0.0514352 0.046737 0.0423889 0.0383403 0.0345407 0.03099 0.0276883 0.0246355 0.0218318 0.0192769 0.0169711 0.014871 0.0129337 0.0111592 0.00954734 0.00809823 0.00681185 0.00568821 0.00472729 0.00389326 0.00315029 0.00249837 0.0019375 0.00146768 0.00108891 0.000801201 0.00060454 0.000462851 0.000340054 0.000236148 0.000151135 8.50134e-05 3.77837e-05 9.44594e-06 0 0 0.000962615 0.00385046 0.00866353 0.0154018 0.0240654 0.0346541 0.0471681 0.0616073 0.0778074 0.0956039 0.114997 0.135986 0.158572 0.182755 0.208533 0.235909 0.263954 0.291744 0.319278 0.346556 0.373579 0.400345 0.426856 0.453111 0.478501 0.502417 0.524858 0.545824 0.565316 0.583334 0.599877 0.614946 0.628431 0.640225 0.650326 0.658735 0.665452 0.670476 0.673809 0.675449 0.675593 0.674437 0.671981 0.668224 0.663167 0.65681 0.649152 0.640194 0.630227 0.619541 0.608136 0.596013 0.58317 0.569609 0.55533 0.540331 0.524883 0.509255 0.493446 0.477457 0.461287 0.444937 0.428406 0.411695 0.395001 0.378523 0.362261 0.346215 0.330385 0.31477 0.299371 0.284188 0.269328 0.254896 0.240894 0.227322 0.214178 0.201464 0.189179 0.177324 0.165917 0.154979 0.14451 0.13451 0.124978 0.115915 0.107321 0.099196 0.0915018 0.0842009 0.0772934 0.0707793 0.0646586 0.0589312 0.0535973 0.0486567 0.0440533 0.0397309 0.0356895 0.0319291 0.0284496 0.0252511 0.0223336 0.019697 0.017293 0.0150732 0.0130374 0.0111857 0.00951812 0.00803466 0.00673531 0.00562006 0.00464888 0.00378174 0.00301863 0.00235956 0.00180453 0.00135353 0.00100657 0.000763638 0.000584661 0.000429547 0.000298296 0.00019091 0.000107387 4.77274e-05 1.19318e-05 0 0 0.00107739 0.00430956 0.00969652 0.0172382 0.0269348 0.0387861 0.0527921 0.068953 0.0870689 0.10694 0.128566 0.151948 0.177085 0.203977 0.232624 0.263026 0.294158 0.324993 0.355531 0.385772 0.415716 0.445363 0.474713 0.503766 0.531854 0.55831 0.583132 0.606321 0.627877 0.6478 0.66609 0.682747 0.697655 0.710697 0.721873 0.731183 0.738627 0.744205 0.747917 0.749764 0.749961 0.748725 0.746056 0.741954 0.736419 0.729451 0.72105 0.711216 0.700267 0.688522 0.67598 0.662642 0.648507 0.633575 0.617847 0.601322 0.584295 0.567062 0.549621 0.531973 0.514118 0.496056 0.477787 0.459311 0.440846 0.422612 0.404608 0.386835 0.369292 0.351979 0.334897 0.318046 0.301544 0.285512 0.269951 0.254859 0.240237 0.226085 0.212403 0.19919 0.186472 0.174271 0.162589 0.151424 0.140777 0.130648 0.121037 0.111943 0.103327 0.0951486 0.0874073 0.0801032 0.0732365 0.0668071 0.0608149 0.05526 0.0500807 0.0452151 0.0406632 0.036425 0.0325006 0.0288899 0.025593 0.0226098 0.0198866 0.0173694 0.0150584 0.0129536 0.0110549 0.00936228 0.00787583 0.00659552 0.00547711 0.00447638 0.00359333 0.00282796 0.00218026 0.00165025 0.00123792 0.000943262 0.000722185 0.000530585 0.000368462 0.000235816 0.000132646 5.89539e-05 1.47385e-05 0 0 0.00119457 0.00477828 0.0107511 0.0191131 0.0298643 0.0430046 0.058534 0.0764525 0.0965229 0.118508 0.142407 0.16822 0.195948 0.22559 0.257147 0.290618 0.324875 0.35879 0.392365 0.425597 0.458488 0.491037 0.523244 0.55511 0.585908 0.614913 0.642124 0.667541 0.691164 0.712994 0.73303 0.751273 0.767599 0.781887 0.794136 0.804346 0.812517 0.81865 0.822743 0.824798 0.825052 0.823741 0.820866 0.816427 0.810423 0.802855 0.793723 0.783027 0.771111 0.758321 0.744656 0.730117 0.714703 0.698415 0.681252 0.663215 0.644623 0.625795 0.606732 0.587434 0.5679 0.548131 0.528126 0.507886 0.48765 0.467657 0.447907 0.428399 0.409135 0.390114 0.371336 0.3528 0.334641 0.316992 0.299851 0.28322 0.267099 0.251486 0.236383 0.22179 0.207734 0.194245 0.181323 0.168968 0.15718 0.145959 0.135304 0.125217 0.115653 0.106572 0.0979717 0.0898536 0.0822173 0.0750627 0.0683899 0.0621989 0.0564223 0.0509931 0.045911 0.0411762 0.0367886 0.0327483 0.0290552 0.0257094 0.0226516 0.0198226 0.0172224 0.014851 0.0127085 0.0107947 0.00910979 0.00765367 0.00637795 0.00523421 0.00422245 0.00334268 0.00259489 0.00197908 0.00149525 0.00114341 0.000875424 0.000643169 0.000446645 0.000285853 0.000160792 7.14632e-05 1.78658e-05 0 0 0.00131416 0.00525662 0.0118274 0.0210265 0.0328539 0.0473096 0.0643936 0.0841059 0.106169 0.130307 0.156518 0.184803 0.215162 0.247595 0.282101 0.318682 0.356104 0.393137 0.42978 0.466032 0.501895 0.537368 0.57245 0.607143 0.640663 0.672226 0.701833 0.729484 0.755178 0.778916 0.800698 0.820523 0.838264 0.853795 0.867115 0.878224 0.887123 0.89381 0.898287 0.900553 0.900866 0.899486 0.896411 0.891642 0.885179 0.877022 0.867171 0.855626 0.842758 0.828937 0.814163 0.798438 0.781759 0.764129 0.745545 0.72601 0.705865 0.685455 0.66478 0.643839 0.622633 0.601161 0.579424 0.557421 0.535412 0.513657 0.492156 0.470908 0.449914 0.429173 0.408686 0.388452 0.368619 0.349334 0.330596 0.312406 0.294764 0.277669 0.261121 0.245121 0.229703 0.214901 0.200714 0.187143 0.174188 0.161849 0.150125 0.139017 0.12848 0.11847 0.108987 0.10003 0.0916008 0.0836982 0.0763223 0.0694732 0.0630783 0.0570649 0.051433 0.0461826 0.0413136 0.0368262 0.0327202 0.0289958 0.0255881 0.0224326 0.0195292 0.016878 0.0144789 0.012332 0.0104372 0.00879451 0.0073514 0.00605523 0.00490601 0.00390373 0.0030484 0.00234002 0.00177858 0.00136409 0.00104438 0.000767298 0.000532846 0.000341021 0.000191824 8.52553e-05 2.13138e-05 0 0 0.00143614 0.00574458 0.0129253 0.0229783 0.0359036 0.0517012 0.0703711 0.0919132 0.116008 0.142337 0.1709 0.201696 0.234727 0.26999 0.307488 0.347219 0.387847 0.428032 0.467776 0.507077 0.545937 0.584355 0.622331 0.659866 0.696118 0.73025 0.762261 0.79215 0.819919 0.845566 0.869092 0.890497 0.90965 0.926422 0.940811 0.952819 0.962444 0.969687 0.974548 0.977027 0.977404 0.975958 0.97269 0.9676 0.960687 0.951952 0.941394 0.929014 0.915207 0.90037 0.884503 0.867605 0.849676 0.830717 0.810727 0.789707 0.768023 0.746042 0.723764 0.701188 0.678316 0.655146 0.631679 0.607915 0.584133 0.560614 0.537356 0.514361 0.491628 0.469157 0.446948 0.425002 0.403478 0.38254 0.362186 0.342416 0.323232 0.304632 0.286616 0.269186 0.25238 0.236238 0.220761 0.205948 0.1918 0.178317 0.165498 0.153343 0.141807 0.130843 0.120452 0.110634 0.101387 0.0927134 0.084612 0.0770831 0.0700487 0.0634307 0.0572292 0.0514442 0.0460757 0.0411236 0.036588 0.0324689 0.0286961 0.0251995 0.0219789 0.0190345 0.0163662 0.013974 0.011858 0.010018 0.00839746 0.00693944 0.005644 0.00451112 0.00354081 0.00273306 0.00208789 0.00160528 0.00122905 0.000902973 0.000627064 0.000401321 0.000225743 0.00010033 2.50826e-05 0 0 0.00156054 0.00624215 0.0140448 0.0249686 0.0390134 0.0561793 0.0764663 0.0998744 0.12604 0.154599 0.185553 0.2189 0.254642 0.292777 0.333307 0.37623 0.420102 0.463476 0.506353 0.548733 0.590615 0.632 0.672887 0.713277 0.752275 0.788984 0.823406 0.85554 0.885386 0.912943 0.938213 0.961196 0.981757 0.999767 1.01522 1.02813 1.03848 1.04628 1.05153 1.05422 1.05467 1.05316 1.0497 1.0443 1.03695 1.02764 1.01639 1.00319 0.98846 0.972621 0.955674 0.937618 0.918453 0.89818 0.876797 0.854307 0.831096 0.807556 0.783684 0.759482 0.734949 0.710086 0.684892 0.659368 0.633813 0.608526 0.583508 0.558759 0.534278 0.510066 0.486123 0.462448 0.439218 0.416609 0.39462 0.373251 0.352503 0.332376 0.312869 0.293983 0.275763 0.258257 0.241464 0.225384 0.210017 0.195364 0.181423 0.168196 0.155635 0.143692 0.132368 0.121663 0.111576 0.102108 0.0932592 0.0850285 0.0773333 0.0700903 0.0632996 0.056961 0.0510747 0.0456405 0.0406586 0.0361289 0.0319757 0.0281232 0.0245715 0.0213206 0.0183704 0.0157209 0.0133722 0.0113243 0.00951613 0.00788685 0.00643641 0.00516483 0.0040721 0.00315822 0.00242319 0.00186701 0.00142943 0.00105019 0.000729301 0.000466752 0.000262548 0.000116688 2.9172e-05 0 0 0.00168733 0.00674934 0.015186 0.0269973 0.0421834 0.060744 0.0826794 0.107989 0.136264 0.167093 0.200477 0.236415 0.274908 0.315956 0.359558 0.405714 0.45287 0.499469 0.545511 0.590998 0.635927 0.680301 0.724118 0.767378 0.809132 0.848429 0.885269 0.919652 0.951579 0.981049 1.00806 1.03262 1.05459 1.07383 1.09035 1.10415 1.11523 1.12359 1.12922 1.13214 1.13265 1.13109 1.12745 1.12174 1.11396 1.1041 1.09216 1.07816 1.06252 1.04569 1.02768 1.00848 0.98809 0.966516 0.943756 0.919809 0.895085 0.869996 0.844541 0.81872 0.792534 0.765982 0.739064 0.711781 0.684451 0.657394 0.630611 0.604101 0.577864 0.5519 0.52621 0.500792 0.475839 0.451541 0.427898 0.404911 0.382578 0.360901 0.339879 0.319512 0.299854 0.280958 0.262823 0.24545 0.228839 0.212989 0.197902 0.183576 0.169963 0.157016 0.144735 0.133119 0.122168 0.111883 0.102264 0.0933095 0.0849323 0.0770439 0.0696441 0.062733 0.0563106 0.050377 0.044932 0.0399757 0.0354267 0.0312038 0.027307 0.0237361 0.0204913 0.0175726 0.0149799 0.0127132 0.0107074 0.00889744 0.00728326 0.00586487 0.00464228 0.00361548 0.00278447 0.00214926 0.00164553 0.00120896 0.000839554 0.000537315 0.00030224 0.000134329 3.35822e-05 0 0 0.00181654 0.00726614 0.0163488 0.0290646 0.0454134 0.0653953 0.0890102 0.116258 0.146681 0.179818 0.215672 0.254241 0.295525 0.339525 0.38624 0.435671 0.48615 0.53601 0.585251 0.633873 0.681875 0.729259 0.776023 0.822168 0.86669 0.908584 0.94785 0.984488 1.0185 1.04988 1.07864 1.10477 1.12813 1.14861 1.1662 1.18089 1.1927 1.20161 1.20764 1.21077 1.21136 1.20975 1.2059