<?xml version="1.0"?> 
<VTKFile type="StructuredGrid" version="0.1"> 
<StructuredGrid WholeExtent="0 128 0 128 0 0"> 
<Piece Extent="0 128 0 128 0 0"> 
<PointData>
<DataArray type="Float32" Name="u" format="ascii" NumberOfComponents="1"> 
0 0 0 0 0 0 0 0 0 0 0 0 0 0 0 0 0 0 0 0 0 0 0 0 0 0 0 0 0 0 0 0 0 0 0 0 0 0 0 0 0 0 0 0 0 0 0 0 0 0 0 0 0 0 0 0 0 0 0 0 0 0 0 0 0 0 0 0 0 0 0 0 0 0 0 0 0 0 0 0 0 0 0 0 0 0 0 0 0 0 0 0 0 0 0 0 0 0 0 0 0 0 0 0 0 0 0 0 0 0 0 0 0 0 0 0 0 0 0 0 0 0 0 0 0 0 0 0 0 0 8.61718e-07 3.44687e-06 7.75546e-06 1.37875e-05 2.15429e-05 3.10218e-05 4.22242e-05 5.51499e-05 6.9903e-05 8.65872e-05 0.000105203 0.000125749 0.000148227 0.000172636 0.000198975 0.000227247 0.000256503 0.000285798 0.000315133 0.000344507 0.00037392 0.000403373 0.000432865 0.000462396 0.000491212 0.000518558 0.000544434 0.000568841 0.000591778 0.000613246 0.000633244 0.000651772 0.000668622 0.000683583 0.000696658 0.000707844 0.000717143 0.000724554 0.000730078 0.000733714 0.000735653 0.000736089 0.000735021 0.000732449 0.000728373 0.000722792 0.000715708 0.000707119 0.000697385 0.000686864 0.000675556 0.00066346 0.000650578 0.000636909 0.000622452 0.000607209 0.000591505 0.000575668 0.000559698 0.000543594 0.000527357 0.000510987 0.000494484 0.000477847 0.000461272 0.000444953 0.00042889 0.000413082 0.000397531 0.000382236 0.000367197 0.000352414 0.000337946 0.000323854 0.000310136 0.000296794 0.000283826 0.000271233 0.000259016 0.000247173 0.000235684 0.000224527 0.000213702 0.000203209 0.000193048 0.000183219 0.000173722 0.000164558 0.000155686 0.000147069 0.000138705 0.000130596 0.000122741 0.00011514 0.000107793 0.0001007 9.38469e-05 8.72186e-05 8.08151e-05 7.46365e-05 6.86828e-05 6.29541e-05 5.74502e-05 5.21712e-05 4.71359e-05 4.23631e-05 3.78527e-05 3.36049e-05 2.96195e-05 2.58966e-05 2.24362e-05 1.92383e-05 1.63088e-05 1.36537e-05 1.1273e-05 9.16676e-06 7.3349e-06 5.77745e-06 4.4944e-06 3.48576e-06 2.66878e-06 1.96074e-06 1.36162e-06 8.71439e-07 4.90185e-07 2.1786e-07 5.4465e-08 0 0 3.44687e-06 1.37875e-05 3.10218e-05 5.51499e-05 8.61718e-05 0.000124087 0.000168897 0.0002206 0.000279612 0.000346349 0.00042081 0.000502996 0.000592907 0.000690542 0.000795902 0.000908986 0.00102601 0.00114319 0.00126053 0.00137803 0.00149568 0.00161349 0.00173146 0.00184958 0.00196485 0.00207423 0.00217774 0.00227536 0.00236711 0.00245298 0.00253297 0.00260709 0.00267449 0.00273433 0.00278663 0.00283138 0.00286857 0.00289822 0.00292031 0.00293485 0.00294261 0.00294436 0.00294008 0.0029298 0.00291349 0.00289117 0.00286283 0.00282848 0.00278954 0.00274746 0.00270222 0.00265384 0.00260231 0.00254763 0.00248981 0.00242883 0.00236602 0.00230267 0.00223879 0.00217438 0.00210943 0.00204395 0.00197794 0.00191139 0.00184509 0.00177981 0.00171556 0.00165233 0.00159013 0.00152894 0.00146879 0.00140966 0.00135179 0.00129542 0.00124054 0.00118717 0.0011353 0.00108493 0.00103606 0.000988692 0.000942735 0.000898107 0.000854807 0.000812835 0.000772191 0.000732876 0.000694889 0.00065823 0.000622744 0.000588274 0.000554821 0.000522384 0.000490963 0.000460559 0.000431172 0.000402801 0.000375388 0.000348874 0.00032326 0.000298546 0.000274731 0.000251816 0.000229801 0.000208685 0.000188544 0.000169452 0.000151411 0.000134419 0.000118478 0.000103586 8.97448e-05 7.69531e-05 6.52351e-05 5.46148e-05 4.50921e-05 3.66671e-05 2.93396e-05 2.31098e-05 1.79776e-05 1.3943e-05 1.06751e-05 7.84296e-06 5.4465e-06 3.48576e-06 1.96074e-06 8.71439e-07 2.1786e-07 0 0 7.75546e-06 3.10218e-05 6.97991e-05 0.000124087 0.000193887 0.000279197 0.000380018 0.000496349 0.000629127 0.000779285 0.000946823 0.00113174 0.00133404 0.00155372 0.00179078 0.00204522 0.00230853 0.00257219 0.0028362 0.00310056 0.00336528 0.00363036 0.00389578 0.00416156 0.0044209 0.00466702 0.00489991 0.00511957 0.005326 0.00551921 0.00569919 0.00586595 0.00601759 0.00615225 0.00626992 0.0063706 0.00645429 0.00652099 0.0065707 0.00660342 0.00662088 0.0066248 0.00661519 0.00659204 0.00655535 0.00650513 0.00644137 0.00636407 0.00627647 0.00618178 0.00608 0.00597114 0.0058552 0.00573218 0.00560207 0.00546488 0.00532354 0.00518101 0.00503728 0.00489235 0.00474622 0.00459888 0.00445035 0.00430062 0.00415145 0.00400458 0.00386001 0.00371774 0.00357778 0.00344013 0.00330477 0.00317173 0.00304152 0.00291468 0.00279123 0.00267114 0.00255443 0.0024411 0.00233114 0.00222456 0.00212115 0.00202074 0.00192332 0.00182888 0.00173743 0.00164897 0.0015635 0.00148102 0.00140117 0.00132362 0.00124835 0.00117536 0.00110467 0.00103626 0.000970137 0.000906302 0.000844622 0.000784967 0.000727336 0.000671729 0.000618146 0.000566587 0.000517052 0.000469541 0.000424223 0.000381268 0.000340675 0.000302444 0.000266576 0.000233069 0.000201926 0.000173144 0.000146779 0.000122883 0.000101457 8.25009e-05 6.60141e-05 5.1997e-05 4.04496e-05 3.13718e-05 2.40191e-05 1.76466e-05 1.22546e-05 7.84296e-06 4.41166e-06 1.96074e-06 4.90185e-07 0 0 1.37875e-05 5.51499e-05 0.000124087 0.0002206 0.000344687 0.000496349 0.000675587 0.000882399 0.00111845 0.0013854 0.00168324 0.00201199 0.00237163 0.00276217 0.00318361 0.00363595 0.00410405 0.00457277 0.00504213 0.00551212 0.00598273 0.00645397 0.00692584 0.00739833 0.00785938 0.00829692 0.00871095 0.00910146 0.00946845 0.00981193 0.0101319 0.0104284 0.0106979 0.0109373 0.0111465 0.0113255 0.0114743 0.0115929 0.0116812 0.0117394 0.0117705 0.0117774 0.0117603 0.0117192 0.011654 0.0115647 0.0114513 0.0113139 0.0111582 0.0109898 0.0108089 0.0106154 0.0104092 0.0101905 0.00995923 0.00971534 0.00946408 0.00921069 0.00895516 0.0086975 0.00843772 0.00817579 0.00791174 0.00764556 0.00738035 0.00711924 0.00686223 0.00660932 0.0063605 0.00611578 0.00587515 0.00563862 0.00540714 0.00518166 0.00496218 0.0047487 0.00454122 0.00433973 0.00414425 0.00395477 0.00377094 0.00359243 0.00341923 0.00325134 0.00308877 0.0029315 0.00277956 0.00263292 0.00249098 0.0023531 0.00221928 0.00208954 0.00196385 0.00184224 0.00172469 0.0016112 0.00150155 0.0013955 0.00129304 0.00119418 0.00109893 0.00100727 0.000919203 0.000834739 0.000754174 0.000677809 0.000605644 0.000537678 0.000473912 0.000414346 0.000358979 0.000307812 0.000260941 0.000218459 0.000180368 0.000146668 0.000117358 9.24392e-05 7.19104e-05 5.57721e-05 4.27005e-05 3.13718e-05 2.1786e-05 1.3943e-05 7.84296e-06 3.48576e-06 8.71439e-07 0 0 2.15429e-05 8.61718e-05 0.000193887 0.000344687 0.000538574 0.000775546 0.0010556 0.00137875 0.00174758 0.00216468 0.00263006 0.00314373 0.00370567 0.00431589 0.00497439 0.00568116 0.00641257 0.00714496 0.00787833 0.00861268 0.00934801 0.0100843 0.0108216 0.0115599 0.0122803 0.0129639 0.0136109 0.014221 0.0147945 0.0153311 0.0158311 0.0162943 0.0167155 0.0170896 0.0174164 0.0176961 0.0179286 0.0181139 0.0182519 0.0183428 0.0183913 0.0184022 0.0183755 0.0183112 0.0182093 0.0180698 0.0178927 0.017678 0.0174346 0.0171716 0.0168889 0.0165865 0.0162645 0.0159227 0.0155613 0.0151802 0.0147876 0.0143917 0.0139924 0.0135899 0.0131839 0.0127747 0.0123621 0.0119462 0.0115318 0.0111238 0.0107222 0.0103271 0.00993828 0.0095559 0.00917993 0.00881035 0.00844866 0.00809635 0.00775341 0.00741984 0.00709565 0.00678083 0.00647539 0.00617932 0.00589209 0.00561317 0.00534254 0.00508022 0.0048262 0.00458048 0.00434306 0.00411394 0.00389215 0.00367671 0.00346763 0.0032649 0.00306852 0.0028785 0.00269482 0.0025175 0.00234617 0.00218046 0.00202038 0.00186591 0.00171707 0.00157385 0.00143625 0.00130428 0.0011784 0.00105908 0.000946318 0.000840122 0.000740488 0.000647415 0.000560905 0.000480957 0.00040772 0.000341343 0.000281826 0.000229169 0.000183373 0.000144436 0.00011236 8.71439e-05 6.67196e-05 4.90185e-05 3.40406e-05 2.1786e-05 1.22546e-05 5.4465e-06 1.36162e-06 0 0 3.10218e-05 0.000124087 0.000279197 0.000496349 0.000775546 0.00111679 0.00152007 0.0019854 0.00251651 0.00311714 0.00378729 0.00452697 0.00533616 0.00621488 0.00716312 0.00818088 0.0092341 0.0102887 0.0113448 0.0124023 0.0134611 0.0145214 0.0155831 0.0166462 0.0176836 0.0186681 0.0195996 0.0204783 0.021304 0.0220768 0.0227968 0.0234638 0.0240704 0.024609 0.0250797 0.0254824 0.0258171 0.026084 0.0262828 0.0264137 0.0264835 0.0264992 0.0264608 0.0263682 0.0262214 0.0260205 0.0257655 0.0254563 0.0251059 0.0247271 0.02432 0.0238846 0.0234208 0.0229287 0.0224083 0.0218595 0.0212942 0.020724 0.0201491 0.0195694 0.0189849 0.0183955 0.0178014 0.0172025 0.0166058 0.0160183 0.01544 0.014871 0.0143111 0.0137605 0.0132191 0.0126869 0.0121661 0.0116587 0.0111649 0.0106846 0.0102177 0.0097644 0.00932456 0.00889823 0.00848462 0.00808296 0.00769326 0.00731551 0.00694972 0.00659589 0.006254 0.00592407 0.0056047 0.00529447 0.00499339 0.00470145 0.00441867 0.00414503 0.00388055 0.00362521 0.00337849 0.00313987 0.00290934 0.00268691 0.00247258 0.00226635 0.00206821 0.00187816 0.00169689 0.00152507 0.0013627 0.00120978 0.0010663 0.000932278 0.000807703 0.000692578 0.000587116 0.000491533 0.000405829 0.000330004 0.000264057 0.000207988 0.000161798 0.000125487 9.60762e-05 7.05866e-05 4.90185e-05 3.13718e-05 1.76466e-05 7.84296e-06 1.96074e-06 0 0 4.22242e-05 0.000168897 0.000380018 0.000675587 0.0010556 0.00152007 0.00206898 0.00270235 0.00342525 0.00424277 0.00515493 0.0061617 0.00726311 0.00845914 0.0097498 0.0111351 0.0125686 0.0140041 0.0154415 0.0168809 0.0183221 0.0197653 0.0212104 0.0226574 0.0240694 0.0254093 0.0266773 0.0278732 0.0289971 0.030049 0.0310289 0.0319368 0.0327625 0.0334956 0.0341362 0.0346844 0.03514 0.0355032 0.0357738 0.035952 0.036047 0.0360684 0.036016 0.03589 0.0356903 0.0354168 0.0350697 0.0346488 0.0341719 0.0336563 0.0331022 0.0325096 0.0318783 0.0312085 0.0305002 0.0297532 0.0289837 0.0282077 0.0274252 0.0266361 0.0258405 0.0250384 0.0242297 0.0234145 0.0226023 0.0218027 0.0210156 0.020241 0.019479 0.0187296 0.0179927 0.0172683 0.0165594 0.0158688 0.0151967 0.0145429 0.0139075 0.0132904 0.0126918 0.0121115 0.0115485 0.0110018 0.0104714 0.00995723 0.00945934 0.00897773 0.00851239 0.00806332 0.00762861 0.00720636 0.00679655 0.0063992 0.0060143 0.00564185 0.00528185 0.00493431 0.0045985 0.00427371 0.00395994 0.00365719 0.00336546 0.00308475 0.00281506 0.00255639 0.00230966 0.00207579 0.00185478 0.00164664 0.00145136 0.00126893 0.00109937 0.000942675 0.00079913 0.000669031 0.000552379 0.000449171 0.00035941 0.000283095 0.000220226 0.000170802 0.00013077 9.60762e-05 6.67196e-05 4.27005e-05 2.40191e-05 1.06751e-05 2.66878e-06 0 0 5.51499e-05 0.0002206 0.000496349 0.000882399 0.00137875 0.0019854 0.00270235 0.0035296 0.00447379 0.00554158 0.00673296 0.00804794 0.00948651 0.0110487 0.0127344 0.0145438 0.0164162 0.0182911 0.0201685 0.0220485 0.0239309 0.0258159 0.0277033 0.0295933 0.0314375 0.0331877 0.0348438 0.0364058 0.0378738 0.0392477 0.0405276 0.0417134 0.0427918 0.0437493 0.0445861 0.045302 0.0458972 0.0463715 0.046725 0.0469577 0.0470818 0.0471097 0.0470414 0.0468767 0.0466158 0.0462587 0.0458053 0.0452556 0.0446326 0.0439593 0.0432356 0.0424615 0.041637 0.0407622 0.0398369 0.0388613 0.0378563 0.0368427 0.0358206 0.03479 0.0337509 0.0327032 0.031647 0.0305822 0.0295214 0.028477 0.0274489 0.0264373 0.025442 0.0244631 0.0235006 0.0225545 0.0216286 0.0207266 0.0198487 0.0189948 0.0181649 0.0173589 0.016577 0.0158191 0.0150838 0.0143697 0.0136769 0.0130054 0.0123551 0.011726 0.0111182 0.0105317 0.00996391 0.00941239 0.00887713 0.00835814 0.00785541 0.00736895 0.00689875 0.00644481 0.0060062 0.00558199 0.00517217 0.00477674 0.0043957 0.00402906 0.00367681 0.00333896 0.0030167 0.00271124 0.00242257 0.00215071 0.00189565 0.00165738 0.00143592 0.00123125 0.00104376 0.000873837 0.000721474 0.000586673 0.000469434 0.000369757 0.000287642 0.000223089 0.000170802 0.000125487 8.71439e-05 5.57721e-05 3.13718e-05 1.3943e-05 3.48576e-06 0 0 7.01548e-05 0.000280619 0.000631393 0.00112248 0.00175387 0.00252557 0.00343759 0.00448991 0.00569033 0.00704665 0.00855885 0.010227 0.0120509 0.0140308 0.0161666 0.0184583 0.0208293 0.0232033 0.0255802 0.0279599 0.0303426 0.0327282 0.0351166 0.037508 0.0398414 0.0420559 0.0441516 0.0461283 0.0479863 0.0497253 0.0513455 0.0528468 0.0542123 0.0554251 0.0564853 0.0573927 0.0581474 0.0587494 0.0591988 0.0594954 0.0596548 0.0596924 0.0596082 0.0594022 0.0590744 0.0586249 0.0580536 0.0573604 0.0565745 0.0557246 0.0548109 0.0538333 0.0527918 0.0516864 0.0505172 0.0492841 0.0480135 0.0467319 0.0454393 0.0441358 0.0428212 0.0414956 0.040159 0.0388114 0.0374686 0.0361463 0.0348446 0.0335635 0.0323029 0.0310628 0.0298433 0.0286444 0.0274708 0.0263276 0.0252146 0.0241319 0.0230795 0.0220573 0.0210655 0.0201039 0.0191709 0.0182647 0.0173855 0.0165332 0.0157077 0.0149092 0.0141375 0.0133928 0.0126717 0.0119714 0.0112916 0.0106325 0.00999403 0.00937618 0.00877896 0.00820237 0.00764524 0.00710637 0.00658576 0.00608342 0.00559934 0.00513353 0.00468599 0.00425671 0.0038472 0.00345895 0.00309197 0.00274625 0.0024218 0.00211861 0.00183669 0.00157603 0.00133714 0.0011205 0.000926108 0.000753973 0.000604092 0.000476465 0.000371091 0.000287971 0.000220478 0.000161984 0.000112489 7.19929e-05 4.0496e-05 1.79982e-05 4.49955e-06 0 0 8.75944e-05 0.000350378 0.00078835 0.00140151 0.00218986 0.0031534 0.00429213 0.00560604 0.00710305 0.00879104 0.01067 0.01274 0.015001 0.017453 0.0200959 0.0229299 0.0258607 0.0287944 0.0317308 0.0346701 0.0376122 0.0405571 0.0435048 0.0464554 0.0493342 0.0520667 0.054653 0.057093 0.0593867 0.0615341 0.0635353 0.0653902 0.067078 0.0685779 0.0698897 0.0710137 0.0719496 0.0726976 0.0732577 0.0736298 0.0738328 0.0738855 0.073788 0.0735403 0.0731423 0.0725941 0.0718957 0.071047 0.0700836 0.0690409 0.0679191 0.066718 0.0654377 0.0640782 0.0626394 0.0611215 0.0595569 0.057978 0.0563851 0.054778 0.0531567 0.0515212 0.0498716 0.0482078 0.0465494 0.0449159 0.0433072 0.0417234 0.0401644 0.0386303 0.0371211 0.0356367 0.0341834 0.0327671 0.0313879 0.0300459 0.0287409 0.0274731 0.0262424 0.0250488 0.0238903 0.022765 0.0216729 0.020614 0.0195882 0.0185957 0.0176363 0.0167101 0.0158133 0.0149421 0.0140965 0.0132765 0.0124822 0.0117134 0.0109702 0.0102527 0.00955924 0.00888851 0.00824046 0.0076151 0.00701242 0.00643243 0.00587512 0.0053405 0.00483035 0.00434647 0.00388886 0.00345751 0.00305242 0.00267361 0.00232105 0.00199477 0.00169539 0.00142356 0.00117927 0.000962537 0.000773349 0.00061171 0.000477619 0.000371076 0.000284105 0.00020873 0.000144952 9.2769e-05 5.21826e-05 2.31922e-05 5.79806e-06 0 0 0.000107469 0.000429875 0.000967219 0.0017195 0.00268672 0.00386887 0.00526597 0.006878 0.00871194 0.0107748 0.0130665 0.0155871 0.0183366 0.021315 0.0245223 0.0279585 0.0315103 0.0350643 0.0386205 0.042179 0.0457398 0.0493027 0.052868 0.0564354 0.0599159 0.0632201 0.0663481 0.0692997 0.0720751 0.0746743 0.0770971 0.0793437 0.0813889 0.0832075 0.0847995 0.086165 0.0873038 0.088216 0.0889017 0.0893608 0.0896158 0.0896891 0.0895809 0.089291 0.0888195 0.0881664 0.0873317 0.0863153 0.08516 0.0839082 0.0825601 0.0811156 0.0795747 0.0779374 0.0762037 0.0743737 0.0724864 0.0705812 0.0686579 0.0667166 0.0647574 0.0627801 0.0607848 0.0587715 0.0567639 0.0547856 0.0528367 0.050917 0.0490267 0.0471657 0.045334 0.0435316 0.0417661 0.0400451 0.0383687 0.0367367 0.0351492 0.0336062 0.0321077 0.0306537 0.029242 0.0278705 0.026539 0.0252477 0.0239965 0.0227855 0.0216145 0.0204837 0.0193886 0.0183246 0.0172918 0.0162902 0.0153198 0.0143806 0.0134725 0.0125957 0.0117482 0.0109284 0.0101363 0.00937177 0.00863493 0.00792574 0.00724421 0.00659032 0.00596616 0.0053738 0.00481325 0.00428449 0.00378753 0.00332237 0.00288901 0.00248745 0.00211851 0.00178302 0.00148097 0.00121236 0.000977206 0.000775493 0.000607225 0.000472402 0.000361683 0.000265726 0.000184532 0.000118101 6.64315e-05 2.95251e-05 7.38128e-06 0 0 0.000129778 0.000519111 0.001168 0.00207644 0.00324445 0.004672 0.00635911 0.00830578 0.010517 0.0129979 0.0157483 0.0187683 0.0220579 0.0256171 0.0294459 0.0335443 0.0377781 0.0420131 0.0462492 0.0504866 0.0547252 0.058965 0.063206 0.0674482 0.0715866 0.0755161 0.0792368 0.0827486 0.0860516 0.0891457 0.0920309 0.0947073 0.097145 0.0993141 0.101215 0.102847 0.10421 0.105305 0.106131 0.106688 0.107004 0.107103 0.106987 0.106654 0.106106 0.105342 0.104362 0.103165 0.101804 0.100327 0.098734 0.0970261 0.0952028 0.0932641 0.09121 0.0890406 0.0868022 0.0845412 0.0822578 0.0799518 0.0776232 0.0752722 0.0728986 0.0705025 0.0681121 0.0657556 0.063433 0.0611444 0.0588896 0.0566688 0.0544819 0.0523289 0.0502191 0.0481618 0.0461568 0.0442043 0.0423043 0.0404567 0.0386615 0.0369188 0.0352261 0.0335812 0.031984 0.0304345 0.0289327 0.0274786 0.0260723 0.0247137 0.0233976 0.0221189 0.0208775 0.0196736 0.018507 0.0173777 0.0162859 0.0152314 0.0142121 0.0132261 0.0122732 0.0113534 0.0104669 0.00961347 0.00879324 0.00800618 0.00725463 0.00654095 0.00586513 0.00522719 0.00462711 0.00406489 0.00354055 0.00305407 0.0026065 0.00219888 0.00183119 0.00150346 0.00121566 0.000967814 0.000759909 0.00059195 0.000453211 0.000332972 0.00023123 0.000147987 8.32429e-05 3.69969e-05 9.24921e-06 0 0 0.000154522 0.000618087 0.00139069 0.00247235 0.00386304 0.00556278 0.00757156 0.00988938 0.0125183 0.0154603 0.0187153 0.0222835 0.0261648 0.0303591 0.0348666 0.0396871 0.0446641 0.0496407 0.054617 0.059593 0.0645686 0.0695439 0.074519 0.0794937 0.0843462 0.0889547 0.0933191 0.0974396 0.101316 0.104948 0.108337 0.111481 0.114346 0.116898 0.119135 0.121058 0.122668 0.123964 0.124945 0.125613 0.125997 0.126128 0.126006 0.12563 0.125002 0.12412 0.122985 0.121597 0.120015 0.118296 0.116441 0.114449 0.112322 0.110058 0.107658 0.105122 0.102504 0.0998583 0.0971847 0.0944834 0.0917543 0.0889975 0.086213 0.0834007 0.0805939 0.0778258 0.0750963 0.0724054 0.0697533 0.0671398 0.0645649 0.0620288 0.0595424 0.0571169 0.0547524 0.0524488 0.0502062 0.0480245 0.0459037 0.0438439 0.0418425 0.0398971 0.0380076 0.0361741 0.0343966 0.0326751 0.0310095 0.0293999 0.0278403 0.0263249 0.0248537 0.0234266 0.0220436 0.0207049 0.0194103 0.0181598 0.016951 0.0157815 0.0146512 0.0135601 0.0125082 0.0114956 0.0105222 0.00958806 0.00869575 0.0078479 0.00704452 0.0062856 0.00557116 0.00490119 0.00427568 0.00369465 0.00315937 0.00267114 0.00222995 0.00183581 0.00148872 0.00118867 0.000935672 0.000729719 0.000558691 0.000410467 0.000285046 0.00018243 0.000102617 4.56074e-05 1.14019e-05 0 0 0.0001817 0.000726801 0.0016353 0.0029072 0.0045425 0.00654121 0.00890331 0.0116288 0.0147157 0.018162 0.0219677 0.0261328 0.0306573 0.0355411 0.0407844 0.0463871 0.0521683 0.0579472 0.0637237 0.069498 0.0752699 0.0810395 0.0868068 0.0925718 0.0981947 0.103536 0.108595 0.113373 0.117868 0.122082 0.126014 0.129665 0.132993 0.135958 0.138561 0.140801 0.142678 0.144193 0.145344 0.146134 0.146595 0.146763 0.146637 0.146219 0.145507 0.144501 0.143203 0.141611 0.139793 0.137816 0.13568 0.133386 0.130932 0.12832 0.125549 0.122619 0.119592 0.116532 0.113439 0.110311 0.107151 0.103956 0.100728 0.0974662 0.0942094 0.0909961 0.0878264 0.0847003 0.0816177 0.0785786 0.0755831 0.0726311 0.0697359 0.0669107 0.0641554 0.0614702 0.0588549 0.0563097 0.0538344 0.0514291 0.0490912 0.0468182 0.0446101 0.0424668 0.0403884 0.0383748 0.0364262 0.0345424 0.0327168 0.0309427 0.0292202 0.0275492 0.0259298 0.024362 0.0228457 0.0213809 0.0199649 0.0185947 0.0172703 0.0159918 0.0147591 0.0135722 0.0124312 0.011336 0.0102895 0.00929466 0.0083514 0.00745974 0.00661969 0.00583125 0.00509441 0.00440917 0.00377711 0.0031998 0.00267724 0.00220943 0.00179637 0.00143807 0.00113451 0.00088571 0.000678122 0.000498212 0.00034598 0.000221427 0.000124553 5.53569e-05 1.38392e-05 0 0 0.000211313 0.000845254 0.00190182 0.00338102 0.00528284 0.00760729 0.0103544 0.0135241 0.0171093 0.0211031 0.0255053 0.0303161 0.0355354 0.0411631 0.0471994 0.0536441 0.0602907 0.0669325 0.0735695 0.0802017 0.0868292 0.0934518 0.10007 0.106683 0.113132 0.11926 0.125065 0.130548 0.135709 0.140547 0.145064 0.149258 0.153084 0.156495 0.159492 0.162073 0.16424 0.165992 0.167329 0.168251 0.168798 0.169008 0.168882 0.16842 0.167621 0.166486 0.165014 0.163206 0.161139 0.158887 0.156453 0.153835 0.151034 0.148049 0.144881 0.14153 0.138067 0.134563 0.13102 0.127436 0.123812 0.120148 0.116443 0.112699 0.108959 0.105267 0.101623 0.0980288 0.0944827 0.0909852 0.0875363 0.0841359 0.0807996 0.077543 0.0743659 0.0712684 0.0682505 0.0653122 0.0624535 0.0596744 0.0569723 0.0543446 0.0517913 0.0493124 0.046908 0.0445779 0.0423223 0.0401411 0.0380269 0.0359723 0.0339771 0.0320416 0.0301656 0.0283491 0.0265922 0.0248948 0.0232537 0.0216656 0.0201305 0.0186484 0.0172193 0.0158432 0.0145201 0.0132499 0.0120359 0.0108812 0.00978578 0.0087496 0.0077727 0.00685507 0.00599672 0.00519763 0.00445972 0.00378486 0.00317305 0.00262431 0.00213863 0.001716 0.00135643 0.00105992 0.000811503 0.000596206 0.000414032 0.000264981 0.000149052 6.62451e-05 1.65613e-05 0 0 0.000243362 0.000973446 0.00219025 0.00389378 0.00608404 0.00876102 0.0119247 0.0155751 0.0196991 0.0242835 0.0293283 0.0348335 0.0407991 0.0472251 0.0541114 0.0614582 0.0690313 0.0765967 0.0841543 0.0917042 0.0992463 0.106781 0.114307 0.121826 0.129159 0.136126 0.142728 0.148965 0.154837 0.160344 0.165486 0.170262 0.174621 0.17851 0.181928 0.184876 0.187354 0.189361 0.190899 0.191965 0.192606 0.192864 0.19274 0.192234 0.191345 0.190073 0.18842 0.186384 0.184051 0.18151 0.178758 0.175797 0.172626 0.169246 0.165655 0.161856 0.157927 0.153951 0.149928 0.145857 0.141739 0.137573 0.13336 0.129099 0.124841 0.120637 0.116487 0.112391 0.108348 0.10436 0.100425 0.0965432 0.0927336 0.0890138 0.0853837 0.0818434 0.0783929 0.0750321 0.071761 0.0685797 0.0654856 0.0624761 0.0595513 0.056711 0.0539554 0.0512844 0.048698 0.0461962 0.0437708 0.0414136 0.0391245 0.0369036 0.0347508 0.0326662 0.0306497 0.0287014 0.0268175 0.0249943 0.0232318 0.0215301 0.019889 0.0183086 0.0167889 0.0153299 0.013935 0.0126076 0.0113477 0.0101552 0.00903019 0.00797267 0.00698262 0.00606005 0.0052072 0.00442632 0.0037174 0.00308046 0.00251548 0.00202247 0.00160143 0.00125236 0.000958835 0.00070445 0.000489202 0.000313089 0.000176113 7.82723e-05 1.95681e-05 0 0 0.000277266 0.00110906 0.00249539 0.00443625 0.00693164 0.00998156 0.013586 0.017745 0.0224384 0.0276461 0.0333681 0.0396044 0.0463551 0.05362 0.0613992 0.0696928 0.0782378 0.0867717 0.0952943 0.103806 0.112306 0.120795 0.129273 0.137739 0.145995 0.153841 0.161277 0.168303 0.174919 0.181126 0.186922 0.192308 0.197226 0.201615 0.205476 0.208809 0.211615 0.213892 0.215641 0.216862 0.217604 0.217915 0.217796 0.217247 0.216267 0.214857 0.213016 0.210745 0.20814 0.205298 0.202218 0.198901 0.195347 0.191555 0.187526 0.18326 0.178847 0.174379 0.169855 0.165277 0.160642 0.155953 0.151208 0.146408 0.141609 0.13687 0.132189 0.127567 0.123004 0.1185 0.114055 0.109669 0.105362 0.101155 0.0970489 0.0930427 0.0891368 0.0853311 0.0816257 0.0780204 0.0745129 0.0711007 0.0677837 0.064562 0.0614355 0.0584043 0.0554684 0.0526277 0.0498732 0.047196 0.044596 0.0420731 0.0396275 0.0372591 0.0349679 0.0327539 0.0306129 0.0285407 0.0265373 0.0246028 0.022737 0.0209401 0.019212 0.0175527 0.0159659 0.0144551 0.0130204 0.0116617 0.0103792 0.0091727 0.00804228 0.00698794 0.00601232 0.00511806 0.00430518 0.00357368 0.00292354 0.00235477 0.00186738 0.00146135 0.00111885 0.000822011 0.000570841 0.000365338 0.000205503 9.13345e-05 2.28336e-05 0 0 0.000312447 0.00124979 0.00281202 0.00499915 0.00781117 0.0112481 0.0153099 0.0199966 0.0252805 0.0311337 0.0375564 0.0445485 0.05211 0.0602409 0.0689412 0.078211 0.0877578 0.0972893 0.106806 0.116307 0.125792 0.135263 0.144718 0.154158 0.163362 0.172111 0.180403 0.18824 0.195621 0.202546 0.209015 0.215028 0.22052 0.225425 0.229743 0.233473 0.236617 0.239174 0.241143 0.242526 0.243375 0.243745 0.243635 0.243046 0.241977 0.240429 0.238401 0.235893 0.233013 0.229867 0.226455 0.222777 0.218833 0.214624 0.210148 0.205406 0.2005 0.195529 0.190495 0.185397 0.180236 0.17501 0.169721 0.164367 0.159014 0.153725 0.148499 0.143337 0.138239 0.133205 0.128234 0.123327 0.118508 0.113799 0.109201 0.104714 0.100337 0.0960713 0.0919162 0.0878718 0.0839358 0.080106 0.0763823 0.0727648 0.0692533 0.065848 0.0625488 0.0593558 0.0562591 0.0532489 0.0503253 0.0474882 0.0447377 0.0420737 0.0394963 0.0370054 0.0345964 0.0322646 0.03001 0.0278326 0.0257324 0.0237094 0.0217636 0.0198951 0.0181075 0.016405 0.0147873 0.0132546 0.0118067 0.0104439 0.00916588 0.00797284 0.00686783 0.00585399 0.0049313 0.00409977 0.0033594 0.00271019 0.00215214 0.00168525 0.00129027 0.000947954 0.000658301 0.000421313 0.000236988 0.000105328 2.6332e-05 0 0 0.000348905 0.00139562 0.00314015 0.00558249 0.00872264 0.0125606 0.0170964 0.02233 0.0282253 0.0347464 0.0418932 0.0496657 0.0580639 0.0670879 0.0767375 0.0870129 0.0975913 0.10815 0.118688 0.129207 0.139706 0.150185 0.160644 0.171083 0.18126 0.190935 0.200107 0.208776 0.216942 0.224605 0.231765 0.238422 0.244505 0.24994 0.254727 0.258868 0.262361 0.265207 0.267406 0.268957 0.269921 0.270354 0.270257 0.269631 0.268475 0.266789 0.264574 0.261828 0.258671 0.255217 0.251469 0.247424 0.243085 0.23845 0.23352 0.228295 0.222885 0.217402 0.211847 0.206219 0.200518 0.194744 0.188897 0.182978 0.177056 0.171203 0.165418 0.159701 0.154053 0.148474 0.142963 0.13752 0.132172 0.126946 0.12184 0.116856 0.111994 0.107253 0.102633 0.0981338 0.0937544 0.0894921 0.0853471 0.0813193 0.0774088 0.0736154 0.0699393 0.0663804 0.0629282 0.0595722 0.0563124 0.0531487 0.0500813 0.04711 0.0442349 0.0414559 0.038768 0.036166 0.0336498 0.0312195 0.0288751 0.0266165 0.0244438 0.022357 0.0203601 0.0184572 0.0166484 0.0149336 0.0133129 0.0117861 0.0103534 0.00901475 0.00777375 0.00663409 0.00559575 0.00465875 0.00382308 0.00308874 0.00245573 0.00192405 0.0014731 0.00108228 0.000751583 0.000481013 0.00027057 0.000120253 3.00633e-05 0 0 0.000386641 0.00154657 0.00347977 0.00618626 0.00966603 0.0139191 0.0189454 0.024745 0.0312729 0.038484 0.0463784 0.054956 0.0642168 0.0741608 0.0847881 0.0960986 0.107738 0.119353 0.130942 0.142507 0.154046 0.16556 0.177049 0.188513 0.199689 0.210314 0.220388 0.229911 0.238883 0.247303 0.255172 0.262491 0.269179 0.275159 0.28043 0.284993 0.288847 0.291992 0.294429 0.296157 0.29724 0.297742 0.297663 0.297003 0.295761 0.293939 0.291535 0.28855 0.285112 0.281348 0.277259 0.272843 0.268102 0.263036 0.257643 0.251925 0.246003 0.239998 0.233911 0.227741 0.221489 0.215155 0.208738 0.202239 0.195735 0.189303 0.182945 0.176659 0.170447 0.164307 0.15824 0.152246 0.146354 0.140595 0.134967 0.129471 0.124107 0.118875 0.113775 0.108806 0.103968 0.099259 0.0946781 0.0902257 0.0859019 0.0817066 0.0776399 0.0737017 0.0698808 0.066166 0.0625573 0.0590548 0.0556583 0.0523679 0.0491837 0.0461055 0.0431278 0.0402449 0.0374568 0.0347635 0.032165 0.0296614 0.0272525 0.0249384 0.0227235 0.0206119 0.0186037 0.0166989 0.0148975 0.0131995 0.0116049 0.0101137 0.00873007 0.00745836 0.00629854 0.00525061 0.00431456 0.00349041 0.00277814 0.00217775 0.00166734 0.00122499 0.000850685 0.000544439 0.000306247 0.00013611 3.40274e-05 0 0 0.000425654 0.00170262 0.00383089 0.00681047 0.0106414 0.0153236 0.0208571 0.0272419 0.0344233 0.0423467 0.0510121 0.0604193 0.0705686 0.0814598 0.0930929 0.105468 0.118199 0.130898 0.143567 0.156206 0.168813 0.18139 0.193935 0.20645 0.218649 0.230248 0.241247 0.251645 0.261443 0.27064 0.279237 0.287233 0.294544 0.301083 0.306851 0.311848 0.316074 0.319528 0.322212 0.324124 0.325333 0.325909 0.325851 0.32516 0.323835 0.321877 0.319285 0.316059 0.312338 0.30826 0.303825 0.299034 0.293885 0.288379 0.282517 0.276298 0.269853 0.263316 0.256687 0.249965 0.24315 0.236243 0.229243 0.22215 0.21505 0.208027 0.201081 0.194212 0.187419 0.180704 0.174067 0.167506 0.161055 0.154746 0.14858 0.142557 0.136676 0.130938 0.125343 0.11989 0.114578 0.109407 0.104375 0.0994839 0.0947327 0.0901215 0.0856505 0.0813195 0.0771167 0.0730302 0.0690601 0.0652063 0.0614688 0.0578476 0.0543427 0.0509541 0.0476757 0.0445014 0.041431 0.0384647 0.0356023 0.032844 0.0301898 0.0276395 0.0251977 0.022869 0.0206532 0.0185505 0.0165608 0.014684 0.0129203 0.0112696 0.00973678 0.00832681 0.00703966 0.00587535 0.00483386 0.0039152 0.00311936 0.00244636 0.00187299 0.00137608 0.000955609 0.00061159 0.000344019 0.000152898 3.82244e-05 0 0 0.000465945 0.00186378 0.0041935 0.00745512 0.0116486 0.016774 0.0228313 0.0298205 0.0376765 0.0463344 0.0557942 0.0660558 0.0771194 0.0889847 0.101652 0.115121 0.128972 0.142787 0.156564 0.170304 0.184007 0.197673 0.211301 0.224893 0.23814 0.250737 0.262683 0.273978 0.284622 0.294616 0.303958 0.31265 0.320599 0.327712 0.333991 0.339435 0.344043 0.347816 0.350755 0.352858 0.3542 0.354855 0.354823 0.354104 0.352697 0.350604 0.347823 0.344355 0.340348 0.335953 0.331169 0.325996 0.320433 0.314482 0.308142 0.301412 0.294436 0.287357 0.280175 0.272889 0.2655 0.258008 0.250412 0.242713 0.235002 0.227373 0.219825 0.212358 0.204971 0.197666 0.190442 0.183299 0.176273 0.1694 0.162681 0.156115 0.149702 0.143443 0.137336 0.131384 0.125583 0.119935 0.114439 0.109094 0.103901 0.0988602 0.0939711 0.0892339 0.084636 0.0801649 0.0758207 0.0716033 0.0675127 0.0635489 0.0597119 0.0560018 0.0524118 0.0489353 0.0455724 0.0423229 0.0391869 0.0361645 0.0332555 0.0304601 0.0277828 0.0252284 0.0227969 0.0204883 0.0183025 0.0162397 0.0142997 0.0124825 0.0107939 0.00923943 0.00781912 0.00653296 0.00538096 0.00436311 0.00347941 0.00272987 0.00209006 0.00153555 0.00106635 0.000682467 0.000383888 0.000170617 4.26542e-05 0 0 0.000507513 0.00203005 0.00456761 0.0081202 0.0126878 0.0182705 0.0248681 0.0324808 0.0410325 0.0504472 0.0607248 0.0718655 0.0838691 0.0967357 0.110465 0.125058 0.14006 0.155018 0.169932 0.184802 0.199628 0.21441 0.229148 0.243842 0.258162 0.27178 0.284696 0.29691 0.308421 0.31923 0.329336 0.338741 0.347343 0.355046 0.361849 0.367751 0.372754 0.376856 0.380058 0.38236 0.383842 0.384581 0.384578 0.383834 0.382347 0.380119 0.377149 0.373437 0.369143 0.364427 0.359289 0.353729 0.347747 0.341343 0.334517 0.327269 0.319752 0.312121 0.304375 0.296515 0.28854 0.28045 0.272245 0.263926 0.255592 0.247342 0.239178 0.231098 0.223103 0.215192 0.207366 0.199626 0.192009 0.184557 0.177269 0.170144 0.163184 0.156388 0.149756 0