<?xml version="1.0"?> 
<VTKFile type="StructuredGrid" version="0.1"> 
<StructuredGrid WholeExtent="0 128 0 128 0 0"> 
<Piece Extent="0 128 0 128 0 0"> 
<PointData>
<DataArray type="Float32" Name="u" format="ascii" NumberOfComponents="1"> 
0 0 0 0 0 0 0 0 0 0 0 0 0 0 0 0 0 0 0 0 0 0 0 0 0 0 0 0 0 0 0 0 0 0 0 0 0 0 0 0 0 0 0 0 0 0 0 0 0 0 0 0 0 0 0 0 0 0 0 0 0 0 0 0 0 0 0 0 0 0 0 0 0 0 0 0 0 0 0 0 0 0 0 0 0 0 0 0 0 0 0 0 0 0 0 0 0 0 0 0 0 0 0 0 0 0 0 0 0 0 0 0 0 0 0 0 0 0 0 0 0 0 0 0 0 0 0 0 0 0 1.28161e-06 5.12646e-06 1.15345e-05 2.05058e-05 3.20404e-05 4.61381e-05 6.27991e-05 8.20233e-05 0.000103932 0.000128648 0.00015617 0.000186499 0.000219634 0.000255575 0.000294323 0.000335878 0.00037884 0.000421812 0.000464793 0.000507784 0.000550783 0.000593792 0.00063681 0.000679838 0.000721774 0.000761521 0.000799077 0.000834443 0.000867618 0.000898603 0.000927397 0.000954001 0.000978113 0.000999429 0.00101795 0.00103368 0.00104661 0.00105674 0.00106408 0.00106863 0.00107066 0.00107046 0.00106803 0.00106336 0.00105646 0.00104732 0.00103595 0.00102235 0.00100704 0.000990557 0.000972891 0.000954044 0.000934019 0.000912813 0.000890429 0.000866864 0.000842611 0.00081816 0.000793511 0.000768664 0.000743618 0.000718374 0.000692933 0.000667293 0.000641762 0.000616649 0.000591954 0.000567676 0.000543816 0.000520373 0.000497348 0.000474741 0.000452661 0.000431222 0.000410422 0.000390261 0.00037074 0.000351858 0.000333616 0.000316014 0.000299031 0.000282648 0.000266866 0.000251683 0.0002371 0.000223117 0.000209734 0.000196951 0.000184702 0.000172921 0.000161609 0.000150765 0.000140389 0.000130482 0.000121042 0.000112072 0.000103519 9.53337e-05 8.75161e-05 8.0066e-05 7.29835e-05 6.62686e-05 5.99212e-05 5.39415e-05 4.83145e-05 4.30256e-05 3.80748e-05 3.3462e-05 2.91872e-05 2.52505e-05 2.16519e-05 1.83913e-05 1.54458e-05 1.27927e-05 1.04319e-05 8.36339e-06 6.5872e-06 5.10331e-06 3.91173e-06 3.01246e-06 2.30642e-06 1.69451e-06 1.17674e-06 7.53116e-07 4.23628e-07 1.88279e-07 4.70698e-08 0 0 5.12646e-06 2.05058e-05 4.61381e-05 8.20233e-05 0.000128161 0.000184552 0.000251196 0.000328093 0.000415729 0.000514592 0.00062468 0.000745994 0.000878535 0.0010223 0.00117729 0.00134351 0.00151536 0.00168725 0.00185917 0.00203113 0.00220313 0.00237517 0.00254724 0.00271935 0.0028871 0.00304608 0.00319631 0.00333777 0.00347047 0.00359441 0.00370959 0.00381601 0.00391245 0.00399772 0.0040718 0.00413471 0.00418643 0.00422698 0.00425634 0.00427452 0.00428265 0.00428185 0.00427211 0.00425343 0.00422583 0.00418929 0.00414382 0.00408941 0.00402818 0.00396223 0.00389156 0.00381618 0.00373607 0.00365125 0.00356171 0.00346746 0.00337045 0.00327264 0.00317404 0.00307465 0.00297447 0.0028735 0.00277173 0.00266917 0.00256705 0.0024666 0.00236782 0.00227071 0.00217526 0.00208149 0.00198939 0.00189896 0.00181065 0.00172489 0.00164169 0.00156104 0.00148296 0.00140743 0.00133447 0.00126406 0.00119612 0.00113059 0.00106746 0.00100673 0.000948399 0.000892467 0.000838935 0.000787802 0.000738806 0.000691684 0.000646434 0.000603058 0.000561556 0.000521926 0.00048417 0.000448287 0.000414076 0.000381335 0.000350064 0.000320264 0.000291934 0.000265074 0.000239685 0.000215766 0.000193258 0.000172103 0.000152299 0.000133848 0.000116749 0.000101002 8.66075e-05 7.3565e-05 6.17833e-05 5.11708e-05 4.17276e-05 3.34536e-05 2.63488e-05 2.04133e-05 1.56469e-05 1.20499e-05 9.22567e-06 6.77804e-06 4.70698e-06 3.01246e-06 1.69451e-06 7.53116e-07 1.88279e-07 0 0 1.15345e-05 4.61381e-05 0.000103811 0.000184552 0.000288363 0.000415243 0.000565192 0.00073821 0.000935391 0.00115783 0.00140553 0.00167849 0.0019767 0.00230018 0.00264891 0.0030229 0.00340956 0.00379631 0.00418314 0.00457005 0.00495705 0.00534413 0.00573129 0.00611854 0.00649597 0.00685369 0.00719169 0.00750998 0.00780856 0.00808743 0.00834658 0.00858601 0.00880301 0.00899486 0.00916155 0.00930309 0.00941947 0.00951069 0.00957676 0.00961768 0.00963597 0.00963415 0.00961224 0.00957023 0.00950811 0.0094259 0.00932359 0.00920117 0.0090634 0.00891502 0.00875602 0.0085864 0.00840617 0.00821532 0.00801386 0.00780178 0.0075835 0.00736344 0.0071416 0.00691797 0.00669256 0.00646537 0.00623639 0.00600563 0.00577586 0.00554985 0.00532759 0.00510909 0.00489435 0.00468336 0.00447613 0.00427266 0.00407395 0.003881 0.00369379 0.00351235 0.00333666 0.00316673 0.00300255 0.00284413 0.00269128 0.00254384 0.00240179 0.00226514 0.0021339 0.00200805 0.0018876 0.00177256 0.00166231 0.00155629 0.00145448 0.00135688 0.0012635 0.00117433 0.00108938 0.00100865 0.00093167 0.000858003 0.000787644 0.000720594 0.000656851 0.000596417 0.000539291 0.000485473 0.000434831 0.000387231 0.000342673 0.000301158 0.000262685 0.000227255 0.000194867 0.000165521 0.000139012 0.000115134 9.38871e-05 7.52706e-05 5.92848e-05 4.59298e-05 3.52056e-05 2.71122e-05 2.07578e-05 1.52506e-05 1.05907e-05 6.77804e-06 3.81265e-06 1.69451e-06 4.23628e-07 0 0 2.05058e-05 8.20233e-05 0.000184552 0.000328093 0.000512646 0.00073821 0.00100479 0.00131237 0.00166292 0.00205837 0.00249872 0.00298398 0.00351414 0.0040892 0.00470917 0.00537405 0.00606145 0.00674899 0.00743669 0.00812454 0.00881253 0.00950067 0.010189 0.0108774 0.0115484 0.0121843 0.0127852 0.0133511 0.0138819 0.0143776 0.0148384 0.015264 0.0156498 0.0159909 0.0162872 0.0165388 0.0167457 0.0169079 0.0170254 0.0170981 0.0171306 0.0171274 0.0170884 0.0170137 0.0169033 0.0167572 0.0165753 0.0163576 0.0161127 0.0158489 0.0155662 0.0152647 0.0149443 0.014605 0.0142469 0.0138698 0.0134818 0.0130906 0.0126962 0.0122986 0.0118979 0.011494 0.0110869 0.0106767 0.0102682 0.00986639 0.00947127 0.00908282 0.00870106 0.00832597 0.00795757 0.00759585 0.00724258 0.00689955 0.00656675 0.00624418 0.00593184 0.00562973 0.00533786 0.00505622 0.0047845 0.00452237 0.00426985 0.00402692 0.0037936 0.00356987 0.00335574 0.00315121 0.00295523 0.00276673 0.00258574 0.00241223 0.00224622 0.0020877 0.00193668 0.00179315 0.0016563 0.00152534 0.00140026 0.00128106 0.00116774 0.0010603 0.00095874 0.000863064 0.000773033 0.00068841 0.000609197 0.000535392 0.000466996 0.000404008 0.00034643 0.00029426 0.000247133 0.000204683 0.00016691 0.000133814 0.000105395 8.1653e-05 6.25878e-05 4.81994e-05 3.69027e-05 2.71122e-05 1.88279e-05 1.20499e-05 6.77804e-06 3.01246e-06 7.53116e-07 0 0 3.20404e-05 0.000128161 0.000288363 0.000512646 0.000801009 0.00115345 0.00156998 0.00205058 0.00259831 0.0032162 0.00390425 0.00466247 0.00549084 0.00638938 0.00735808 0.00839695 0.00947101 0.0105453 0.0116198 0.0126946 0.0137696 0.0148448 0.0159203 0.0169959 0.0180444 0.019038 0.0199769 0.0208611 0.0216904 0.0224651 0.0231849 0.02385 0.0244528 0.0249857 0.0254488 0.0258419 0.0261652 0.0264186 0.0266021 0.0267158 0.0267666 0.0267615 0.0267007 0.026584 0.0264114 0.0261831 0.0258989 0.0255588 0.0251761 0.0247639 0.0243223 0.0238511 0.0233505 0.0228203 0.0222607 0.0216716 0.0210653 0.020454 0.0198378 0.0192166 0.0185905 0.0179594 0.0173233 0.0166823 0.0160441 0.0154162 0.0147989 0.0141919 0.0135954 0.0130093 0.0124337 0.0118685 0.0113165 0.0107805 0.0102605 0.00975652 0.0092685 0.00879646 0.00834041 0.00790035 0.00747578 0.00706621 0.00667164 0.00629207 0.00592749 0.00557792 0.00524334 0.00492376 0.00461754 0.00432302 0.00404021 0.00376911 0.00350972 0.00326204 0.00302606 0.00280179 0.00258797 0.00238334 0.0021879 0.00200165 0.00182459 0.00165671 0.00149803 0.00134854 0.00120786 0.00107564 0.00095187 0.000836549 0.000729681 0.000631263 0.000541297 0.000459781 0.000386146 0.000319818 0.000260797 0.000209085 0.00016468 0.000127583 9.77934e-05 7.53116e-05 5.76604e-05 4.23628e-05 2.94186e-05 1.88279e-05 1.05907e-05 4.70698e-06 1.17674e-06 0 0 4.61381e-05 0.000184552 0.000415243 0.00073821 0.00115345 0.00166097 0.00226077 0.00295284 0.00374157 0.00463133 0.00562212 0.00671395 0.00790681 0.00920071 0.0105956 0.0120916 0.0136383 0.0151852 0.0167326 0.0182802 0.0198282 0.0213765 0.0229252 0.0244742 0.0259839 0.0274148 0.0287668 0.0300399 0.0312342 0.0323497 0.0333863 0.034344 0.0352121 0.0359794 0.0366462 0.0372124 0.0376779 0.0380428 0.0383071 0.0384707 0.0385439 0.0385366 0.038449 0.0382809 0.0380325 0.0377036 0.0372944 0.0368047 0.0362536 0.0356601 0.0350241 0.0343456 0.0336247 0.0328613 0.0320554 0.0312071 0.030334 0.0294538 0.0285664 0.0276719 0.0267703 0.0258615 0.0249456 0.0240225 0.0231034 0.0221994 0.0213104 0.0204364 0.0195774 0.0187334 0.0179045 0.0170907 0.0162958 0.015524 0.0147752 0.0140494 0.0133466 0.0126669 0.0120102 0.0113765 0.0107651 0.0101753 0.00960716 0.00906058 0.00853559 0.0080322 0.00755041 0.00709022 0.00664926 0.00622515 0.00581791 0.00542752 0.005054 0.00469733 0.00435753 0.00403458 0.00372668 0.00343201 0.00315058 0.00288238 0.00262741 0.00238567 0.00215716 0.00194189 0.00173932 0.00154892 0.00137069 0.00120463 0.00105074 0.000909019 0.000779467 0.000662085 0.00055605 0.000460538 0.000375548 0.000301082 0.000237139 0.000183719 0.000140822 0.000108449 8.3031e-05 6.10024e-05 4.23628e-05 2.71122e-05 1.52506e-05 6.77804e-06 1.69451e-06 0 0 6.27991e-05 0.000251196 0.000565192 0.00100479 0.00156998 0.00226077 0.00307716 0.00401914 0.00509269 0.00630375 0.00765233 0.00913843 0.0107621 0.0125232 0.0144218 0.016458 0.0185632 0.0206688 0.0227749 0.0248814 0.0269884 0.0290958 0.0312037 0.033312 0.035367 0.0373145 0.0391548 0.0408877 0.0425133 0.0440315 0.0454425 0.0467461 0.0479275 0.048972 0.0498796 0.0506501 0.0512838 0.0517804 0.0521402 0.0523629 0.0524625 0.0524526 0.0523333 0.0521046 0.0517664 0.0513188 0.0507618 0.0500953 0.0493452 0.0485373 0.0476716 0.0467482 0.0457669 0.0447279 0.043631 0.0424764 0.041288 0.0400899 0.038882 0.0376645 0.0364373 0.0352003 0.0339537 0.0326973 0.0314464 0.0302158 0.0290058 0.0278161 0.026647 0.0254983 0.0243701 0.0232623 0.0221804 0.0211299 0.0201107 0.0191228 0.0181663 0.0172411 0.0163472 0.0154847 0.0146525 0.0138498 0.0130764 0.0123325 0.0116179 0.0109327 0.0102769 0.00965058 0.00905038 0.00847313 0.00791882 0.00738746 0.00687906 0.00639359 0.00593108 0.00549151 0.00507243 0.00467135 0.00428829 0.00392323 0.00357619 0.00324716 0.00293614 0.00264313 0.00236741 0.00210826 0.00186566 0.00163964 0.00143017 0.00123728 0.00106094 0.000901172 0.000756846 0.000626843 0.000511163 0.000409806 0.000322773 0.000250062 0.000191675 0.000147611 0.000113014 8.3031e-05 5.76604e-05 3.69027e-05 2.07578e-05 9.22567e-06 2.30642e-06 0 0 8.20233e-05 0.000328093 0.00073821 0.00131237 0.00205058 0.00295284 0.00401914 0.00524949 0.00665167 0.00823347 0.00999488 0.0119359 0.0140566 0.0163568 0.0188367 0.0214962 0.0242458 0.026996 0.0297468 0.0324981 0.0352501 0.0380027 0.0407559 0.0435096 0.0461936 0.0487373 0.0511409 0.0534043 0.0555276 0.0575106 0.0593534 0.0610561 0.0625992 0.0639635 0.0651488 0.0661553 0.0669829 0.0676316 0.0681014 0.0683924 0.0685224 0.0685095 0.0683537 0.068055 0.0676133 0.0670286 0.0663011 0.0654306 0.0644509 0.0633957 0.062265 0.0610588 0.0597772 0.0584201 0.0569874 0.0554793 0.0539271 0.0523623 0.0507847 0.0491945 0.0475916 0.045976 0.0443477 0.0427067 0.0410728 0.0394656 0.0378851 0.0363313 0.0348042 0.0333039 0.0318303 0.0303834 0.0289703 0.0275982 0.026267 0.0249767 0.0237274 0.0225189 0.0213514 0.0202249 0.019138 0.0180895 0.0170794 0.0161077 0.0151744 0.0142795 0.013423 0.0126048 0.0118209 0.0110669 0.010343 0.00964893 0.00898489 0.00835082 0.00774672 0.00717259 0.00662521 0.00610136 0.00560103 0.00512422 0.00467094 0.00424119 0.00383496 0.00345225 0.00309213 0.00275364 0.00243679 0.00214157 0.00186798 0.00161603 0.00138572 0.00117704 0.000988533 0.000818733 0.000667641 0.000535257 0.000421581 0.000326612 0.000250351 0.000192798 0.000147611 0.000108449 7.53116e-05 4.81994e-05 2.71122e-05 1.20499e-05 3.01246e-06 0 0 0.000104264 0.000417056 0.000938375 0.00166822 0.0026066 0.0037535 0.00510893 0.00667289 0.00845435 0.0104623 0.0126967 0.0151575 0.0178448 0.0207586 0.0238989 0.0272656 0.0307457 0.0342262 0.037707 0.0411881 0.0446696 0.0481514 0.0516336 0.0551161 0.0585102 0.0617273 0.0647671 0.0676299 0.0703155 0.0728241 0.0751554 0.0773097 0.0792624 0.0809891 0.0824898 0.0837645 0.0848132 0.0856358 0.0862325 0.0866032 0.0867704 0.086757 0.0865628 0.0861879 0.0856322 0.0848959 0.0839787 0.0828809 0.0816449 0.0803132 0.0788859 0.0773629 0.0757443 0.07403 0.0722201 0.0703146 0.0683531 0.0663752 0.0643811 0.0623706 0.0603438 0.0583006 0.0562412 0.0541654 0.0520983 0.0500647 0.0480646 0.0460981 0.0441651 0.0422657 0.0403998 0.0385675 0.0367778 0.0350397 0.0333532 0.0317184 0.0301352 0.0286036 0.0271237 0.0256954 0.0243172 0.0229876 0.0217065 0.020474 0.01929 0.0181546 0.0170678 0.0160295 0.0150345 0.0140774 0.0131583 0.0122772 0.0114341 0.010629 0.00986179 0.0091326 0.00843732 0.00777186 0.00713624 0.00653044 0.00595448 0.00540835 0.00489205 0.00440558 0.00394773 0.00351727 0.00311422 0.00273857 0.00239031 0.00206946 0.00177601 0.00150995 0.00126946 0.00105269 0.000859642 0.000690319 0.00054472 0.000422845 0.000324693 0.000250265 0.000191609 0.000140774 9.77599e-05 6.25663e-05 3.51936e-05 1.56416e-05 3.91039e-06 0 0 0.000129974 0.000519897 0.00116977 0.00207959 0.00324936 0.00467907 0.00636874 0.00831835 0.0105365 0.0130319 0.0158045 0.0188544 0.0221814 0.0257856 0.029667 0.0338257 0.0381225 0.0424187 0.0467142 0.0510089 0.055303 0.0595963 0.0638889 0.0681809 0.0723635 0.0763283 0.0800753 0.0836044 0.0869157 0.0900092 0.0928848 0.0955426 0.0979525 0.100084 0.101938 0.103514 0.104813 0.105833 0.106575 0.107039 0.107253 0.107245 0.107013 0.106559 0.105883 0.104983 0.103861 0.102517 0.101001 0.0993679 0.097616 0.0957457 0.093757 0.09165 0.0894246 0.0870808 0.0846674 0.082233 0.0797778 0.0773017 0.0748046 0.0722867 0.0697479 0.0671882 0.0646383 0.0621292 0.0596607 0.0572328 0.0548456 0.0524991 0.0501933 0.0479281 0.0457149 0.043565 0.0414783 0.039455 0.0374949 0.0355982 0.0337647 0.0319945 0.0302859 0.0286371 0.0270482 0.0255191 0.0240498 0.0226404 0.0212908 0.020001 0.0187647 0.0175753 0.016433 0.0153376 0.0142893 0.013288 0.0123337 0.0114263 0.010561 0.00973269 0.00894135 0.00818699 0.00746962 0.00678923 0.00614584 0.00553943 0.00496846 0.00443136 0.00392814 0.00345879 0.00302332 0.00262172 0.002254 0.00192016 0.00161796 0.00134518 0.00110182 0.000887876 0.000703348 0.000548238 0.000422545 0.000326269 0.0002498 0.000183526 0.000127449 8.15673e-05 4.58816e-05 2.03918e-05 5.09795e-06 0 0 0.000159154 0.000636617 0.00143239 0.00254647 0.00397885 0.00572955 0.00779855 0.0101859 0.0128982 0.0159425 0.0193185 0.0230264 0.0270662 0.0314377 0.0361412 0.0411764 0.0463763 0.0515736 0.0567684 0.0619606 0.0671503 0.0723373 0.0775219 0.0827038 0.0877533 0.0925405 0.0970654 0.101328 0.105328 0.109066 0.112541 0.115755 0.118669 0.121249 0.123495 0.125405 0.126981 0.128222 0.129129 0.129701 0.129971 0.129972 0.129705 0.129169 0.128364 0.127291 0.125949 0.124338 0.122521 0.12056 0.118455 0.116207 0.113815 0.11128 0.108601 0.105778 0.10287 0.0999356 0.0969749 0.0939877 0.0909742 0.0879342 0.0848678 0.081775 0.078693 0.0756591 0.0726733 0.0697355 0.0668458 0.0640042 0.0612107 0.0584652 0.0557817 0.0531741 0.0506424 0.0481866 0.0458067 0.0435026 0.0412745 0.0391222 0.0370441 0.0350381 0.0331044 0.0312429 0.0294537 0.0277367 0.0260919 0.0245194 0.0230115 0.0215607 0.0201669 0.0188302 0.0175505 0.0163279 0.0151623 0.0140538 0.0129963 0.0119839 0.0110164 0.0100939 0.00921635 0.00838384 0.00759633 0.00685381 0.00615432 0.00549589 0.00487853 0.00430223 0.00376699 0.00327282 0.00281971 0.00240767 0.00203405 0.00169622 0.00139418 0.00112793 0.000897465 0.000702791 0.000543906 0.000420809 0.000322182 0.000236705 0.000164379 0.000105202 5.91763e-05 2.63006e-05 6.57514e-06 0 0 0.000191804 0.000767215 0.00172623 0.00306886 0.00479509 0.00690493 0.00939838 0.0122754 0.0155395 0.0191939 0.0232386 0.0276738 0.0324992 0.0377151 0.0433213 0.0493179 0.055507 0.0616909 0.0678696 0.0740431 0.0802114 0.0863745 0.0925324 0.098685 0.10468 0.110364 0.115737 0.1208 0.125553 0.129994 0.134125 0.137946 0.141413 0.144484 0.147158 0.149437 0.151319 0.152805 0.153894 0.154588 0.154923 0.15494 0.154638 0.154017 0.153077 0.151818 0.150241 0.148344 0.146202 0.143889 0.141404 0.138748 0.135919 0.13292 0.129749 0.126406 0.122961 0.119483 0.115972 0.112429 0.108852 0.105243 0.101601 0.0979258 0.0942622 0.0906544 0.0871024 0.0836061 0.0801656 0.0767809 0.073452 0.0701788 0.0669782 0.0638671 0.0608454 0.0579131 0.0550703 0.052317 0.049653 0.0470786 0.0445917 0.0421905 0.0398752 0.0376456 0.0355017 0.0334436 0.0314713 0.0295847 0.027775 0.0260335 0.0243601 0.0227549 0.0212177 0.0197487 0.0183478 0.017015 0.0157433 0.0145253 0.0133613 0.0122511 0.0111947 0.0101922 0.00924352 0.00834871 0.00750531 0.00671087 0.0059654 0.00526889 0.00462134 0.00402275 0.00347313 0.00297247 0.00251772 0.0021058 0.00173672 0.00141048 0.00112707 0.000886504 0.000688776 0.000533885 0.000408756 0.000300311 0.000208549 0.000133471 7.50776e-05 3.33678e-05 8.34196e-06 0 0 0.000227923 0.000911691 0.00205131 0.00364677 0.00569807 0.00820522 0.0111682 0.0145871 0.0184602 0.0227861 0.0275648 0.0327963 0.0384806 0.0446176 0.0512074 0.05825 0.0655146 0.0727706 0.0800179 0.0872565 0.0944865 0.101708 0.10892 0.116124 0.123143 0.129798 0.136091 0.142022 0.147589 0.152794 0.157637 0.162117 0.166184 0.169788 0.17293 0.175609 0.177826 0.17958 0.180871 0.1817 0.18211 0.182148 0.181812 0.181104 0.180021 0.178566 0.176738 0.174536 0.172047 0.169355 0.166462 0.163367 0.160069 0.15657 0.152868 0.148965 0.14494 0.140875 0.13677 0.132625 0.128439 0.124213 0.119947 0.115641 0.111346 0.107115 0.102948 0.0988447 0.0948051 0.0908293 0.0869172 0.0830689 0.0793044 0.0756439 0.0720873 0.0686347 0.065286 0.0620412 0.0589004 0.0558635 0.0529287 0.0500944 0.0473605 0.0447269 0.0421938 0.0397611 0.0374287 0.0351968 0.0330552 0.0309938 0.0290126 0.0271116 0.0252909 0.0235504 0.0218901 0.02031 0.0188018 0.0173572 0.0159761 0.0146586 0.0134046 0.0122142 0.0110874 0.0100241 0.00902143 0.0080763 0.00718874 0.00635876 0.00558636 0.00487152 0.00421426 0.00361458 0.00306897 0.00257392 0.00212944 0.00173552 0.00139216 0.00109938 0.000857155 0.000665498 0.000509522 0.000374343 0.00025996 0.000166374 9.35856e-05 4.15936e-05 1.03984e-05 0 0 0.000267512 0.00107005 0.00240761 0.00428019 0.00668779 0.00963042 0.0131081 0.0171207 0.0216605 0.0267193 0.0322972 0.0383941 0.0450102 0.0521453 0.0597995 0.0679728 0.0763992 0.0848126 0.0932132 0.101601 0.109975 0.118337 0.126686 0.135022 0.143142 0.150844 0.158127 0.164992 0.171438 0.177466 0.183075 0.188266 0.192981 0.197162 0.200809 0.203922 0.206502 0.208547 0.210059 0.211037 0.211532 0.211596 0.211228 0.210428 0.209197 0.207534 0.205439 0.202913 0.200054 0.196959 0.193629 0.190064 0.186264 0.182229 0.17796 0.173455 0.168808 0.164112 0.159368 0.154576 0.149735 0.144845 0.139907 0.13492 0.129944 0.125041 0.12021 0.115451 0.110764 0.106149 0.101606 0.0971355 0.0927603 0.0885046 0.0843682 0.0803512 0.0764536 0.0726753 0.0690165 0.065477 0.0620553 0.0587497 0.0555603 0.0524871 0.04953 0.0466891 0.0439644 0.0413558 0.038852 0.0364415 0.0341244 0.0319005 0.0297701 0.0277329 0.0257891 0.0239387 0.0221719 0.0204793 0.0188608 0.0173164 0.0158462 0.01445 0.013128 0.0118801 0.0107027 0.00959218 0.00854857 0.00757186 0.00666204 0.00581913 0.00504311 0.00433399 0.0036878 0.00310058 0.00257233 0.00210306 0.00169275 0.00134141 0.00104904 0.000815647 0.00062448 0.000458801 0.000318612 0.000203912 0.0001147 5.09779e-05 1.27445e-05 0 0 0.00031057 0.00124228 0.00279513 0.00496912 0.00776425 0.0111805 0.0152179 0.0198765 0.0251402 0.0309933 0.0374356 0.0444672 0.0520881 0.0602982 0.0690976 0.0784863 0.0881606 0.097817 0.107455 0.117076 0.126678 0.136263 0.145829 0.155378 0.164678 0.173501 0.181845 0.189711 0.1971 0.20401 0.210441 0.216395 0.221805 0.226605 0.230795 0.234376 0.237347 0.239708 0.241459 0.2426 0.243189 0.243284 0.242885 0.241992 0.240604 0.238722 0.236346 0.233476 0.230223 0.2267 0.222905 0.218841 0.214505 0.209899 0.205023 0.199875 0.194564 0.189194 0.183767 0.178282 0.172739 0.167138 0.161479 0.155763 0.150057 0.144433 0.138889 0.133426 0.128043 0.122741 0.117519 0.112379 0.107346 0.102449 0.097688 0.0930626 0.0885731 0.0842193 0.0800013 0.0759191 0.0719713 0.0681565 0.0644747 0.060926 0.0575104 0.0542278 0.0510782 0.0480617 0.0451655 0.0423767 0.0396954 0.0371216 0.0346552 0.0322964 0.030045 0.0279011 0.0258537 0.0238918 0.0220154 0.0202246 0.0185193 0.0168995 0.0153653 0.0139166 0.0125491 0.0112585 0.0100449 0.00890817 0.00784841 0.00686557 0.00595966 0.00513069 0.00437421 0.00368578 0.00306541 0.00251309 0.00202882 0.0016126 0.00126444 0.000984332 0.000753629 0.000553687 0.000384505 0.000246083 0.000138422 6.15207e-05 1.53802e-05 0 0 0.000357098 0.00142839 0.00321388 0.00571357 0.00892746 0.0128555 0.0174978 0.0228543 0.0288995 0.0356082 0.0429801 0.0510155 0.0597142 0.0690763 0.0791017 0.0897905 0.100799 0.111784 0.122745 0.133682 0.144595 0.155485 0.16635 0.177192 0.187751 0.197769 0.207245 0.21618 0.224573 0.232425 0.239735 0.246503 0.252656 0.258118 0.26289 0.266971 0.270361 0.273061 0.27507 0.276388 0.277081 0.277213 0.276783 0.275793 0.274242 0.27213 0.269458 0.266224 0.262555 0.258577 0.254291 0.249696 0.244792 0.239579 0.234057 0.228227 0.222208 0.216121 0.209966 0.203743 0.197452 0.191092 0.184665 0.17817 0.171685 0.16529 0.158984 0.152768 0.146641 0.140604 0.134656 0.128798 0.123061 0.117477 0.112047 0.106769 0.101645 0.0966732 0.0918549 0.0871898 0.0826767 0.0783147 0.0741037 0.0700438 0.0661349 0.062377 0.0587702 0.0553145 0.0519956 0.0487993 0.0457257 0.0427747 0.0399464 0.0372407 0.0346576 0.0321972 0.029847 0.0275946 0.02544 0.0233831 0.0214241 0.0195628 0.0177993 0.0161336 0.0145606 0.0130753 0.0116777 0.0103677 0.00914544 0.00801085 0.00696393 0.0060047 0.00512821 0.00432953 0.00360866 0.00296562 0.00240038 0.00191296 0.00150335 0.00117155 0.00089697 0.000658999 0.000457638 0.000292888 0.00016475 7.32221e-05 1.83055e-05 0 0 0.000406182 0.00162473 0.00365564 0.00649892 0.0101546 0.0146226 0.0199029 0.0259957 0.0328646 0.0404737 0.0488229 0.0579121 0.0677415 0.078311 0.0896205 0.10167 0.114075 0.126449 0.138792 0.151105 0.163387 0.175639 0.18786 0.20005 0.211922 0.223186 0.233843 0.243892 0.253333 0.262167 0.270394 0.278013 0.284941 0.291094 0.296473 0.301078 0.304908 0.307963 0.310244 0.311751 0.312555 0.312728 0.312272 0.311185 0.309468 0.307121 0.304143 0.300535 0.296437 0.291991 0.287196 0.282052 0.276559 0.270718 0.264527 0.257988 0.251235 0.244403 0.237492 0.230501 0.223432 0.216283 0.209056 0.201749 0.194452 0.187253 0.180152 0.17315 0.166246 0.15944 0.152733 0.146124 0.13965 0.133346 0.127214 0.121253 0.115462 0.109842 0.104394 0.0991161 0.0940088 0.0890713 0.0843035 0.0797055 0.0752773 0.0710188 0.0669301 0.0630112 0.0592464 0.0556201 0.0521324 0.0487832 0.0455725 0.0425003 0.0395667 0.0367716 0.0341011 0.0315412 0.029092 0.0267535 0.0245256 0.0224084 0.0204018 0.0185059 0.0167149 0.0150227 0.0134295 0.0119353 0.01054 0.00924361 0.0080462 0.00694774 0.00594281 0.00502601 0.00419733 0.00345679 0.00280437 0.00224008 0.00176392 0.00137588 0.00105341 0.000773934 0.000537454 0.000343971 0.000193483 8.59926e-05 2.14982e-05 0 0 0.000456909 0.00182763 0.00411218 0.00731054 0.0114227 0.0164487 0.0223885 0.0292421 0.0369618 0.0454997 0.0548558 0.0650302 0.0760229 0.0878337 0.100463 0.11391 0.127748 0.141547 0.155308 0.169031 0.182715 0.196361 0.20997 0.22354 0.236753 0.249291 0.261155 0.272343 0.282856 0.292694 0.301857 0.310345 0.318066 0.324927 0.330928 0.336069 0.34035 0.343772 0.346334 0.348036 0.348958 0.349179 0.348699 0.347518 0.345637 0.343054 0.339771 0.335787 0.331258 0.326338 0.321029 0.315331 0.309242 0.302764 0.295896 0.288638 0.28114 0.273551 0.265871 0.2581 0.250238 0.242286 0.234242 0.226108 0.217981 0.209962 0.202049 0.194243 0.186543 0.178951 0.171465 0.164086 0.156855 0.149813 0.14296 0.136295 0.129819 0.123532 0.117434 0.111525 0.105805 0.100273 0.0949305 0.0897765 0.0848114 0.080035 0.0754475 0.0710488 0.0668219 0.0627498 0.0588325 0.0550701 0.0514625 0.0480097 0.0447118 0.0415686 0.0385649 0.035685 0.0329291 0.0302972 0.0277891 0.025405 0.0231448 0.0210085 0.0189895 0.017081 0.0152831 0.0135957 0.0120188 0.0105525 0.00919677 0.00795155 0.00681105 0.00576941 0.00482665 0.00398275 0.00323773 0.00259158 0.0020443 0.00159589 0.00122185 0.000897689 0.000623395 0.000398973 0.000224422 9.97432e-05 2.49358e-05 0 0 0.000509277 0.00203711 0.00458349 0.00814843 0.0127319 0.018334 0.0249546 0.0325937 0.0411911 0.0506862 0.0610791 0.0723698 0.0845583 0.0976446 0.111629 0.126511 0.141818 0.157079 0.172292 0.187459 0.20258 0.217653 0.23268 0.247659 0.262244 0.276084 0.28918 0.301532 0.313141 0.324005 0.334125 0.3435 0.352031 0.359615 0.366253 0.371944 0.376689 0.380487 0.383339 0.385245 0.386291 0.386564 0.386065 0.384793 0.382749 0.379932 0.376342 0.37198 0.367016 0.36162 0.355792 0.349532 0.342841 0.335718 0.328163 0.320176 0.311922 0.303564 0.295103 0.286539 0.277871 0.2691 0.260225 0.251247 0.242274 0.233417 0.224674 0.216046 0.207533 0.199136 0.190853 0.182685 0.174678 0.166877 0.159284 0.151897 0.144717 0.137743 0.130977 0.124417 0.118065 0.111921 0.105985 0.100257 0.0947372 0.0894257 0.0843224 0.0794273 0.074722 0.0701883 0.0658261 0.0616355 0.0576164 0.0537688 0.0500928 0.0465884 0.0432385 0.0400261 0.0369514 0.0340142 0.0312146 0.0285526 0.0260282 0.0236414 0.0213845 0.0192502 0.0172383 0.0153489 0.013582 0.0119376 0.0104156 0.00901614 0.00773292 0.00655974 0.0054966 0.00454351 0.00370046 0.00296746 0.0023445 0.00183158 0.0014023 0.00103026 0.000715461 0.000457895 0.000257566 0.000114474 2.86184e-05 0 0 0.000563288 0.00225315 0.00506959 0.0090126 0.0140822 0.0202784 0.0276011 0.0360504 0.0455524 0.0560331 0.0674926 0.0799308 0.0933478 0.107744 0.123118 0.139471 0.156286 0.173044 0.189746 0.206391 0.22298 0.239513 0.255989 0.27241 0.288394 0.303564 0.31792 0.331461 0.344187 0.356099 0.367196 0.377479 0.386837 0.39516 0.402449 0.408704 0.413924 0.418109 0.42126 0.423376 0.424553 0.424884 0.424369 0.423009 0.420804 0.417753 0.413856 0.409114 0.403712 0.397835 0.391483 0.384657 0.377355 0.369579 0.361329 0.352603 0.343582 0.334444 0.325189 0.315818 0.30633 0.296725 0.287004 0.277165 0.26733 0.257618 0.248028 0.238561 0.229216 0.219995 0.210896 0.201919 0.193117 0.184539 0.176186 0.168057 0.160154 0.152475 0.145021 0.137792 0.130789 0.124013 0.117466 0.111146 0.105055 0.0991909 0.0935549 0.0881468 0.0829469 0.0779357 0.0731132 0.0684793 0.0640342 0.0597777 0.0557099 0.0518308 0.0481218 0.0445645 0.0411587 0.0379046 0.0348021 0.0318513 0.029052 0.0264044 0.0238999 0.0215302 0.0192953 0.017195 0.0152295 0.0133988 0.0117028 0.0101415 0.00870843 0.00739699 0.00620721 0.00513906 0.00419257 0.00336772 0.00266451 0.00208295 0.00159476 0.00117166 0.000813652 0.000520737 0.000292915 0.000130184 3.25461e-05 0 0 0.000618941 0.00247576 0.00557047 0.00990305 0.0154735 0.0222819 0.0303281 0.0396122 0.0500458 0.0615405 0.0740964 0.0877133 0.102391 0.118131 0.134931 0.152792 0.171151 0.189443 0.207668 0.225826 0.243917 0.261942 0.2799 0.297791 0.315205 0.331733 0.347374 0.362128 0.375996 0.388977 0.401072 0.41228 0.422483 0.431562 0.439516 0.446347 0.452054 0.456637 0.460096 0.462431 0.463745 0.464138 0.463612 0.462167 0.459802 0.456517 0.452313 0.447189 0.441346 0.434984 0.428103 0.420704 0.412786 0.404349 0.395393 0.385919 0.376119 0.366189 0.356129 0.345937 0.335615 0.325162 0.314578 0.303864 0.293149 0.282565 0.27211 0.261786 0.251592 0.241528 0.231594 0.22179 0.212173 0.202798 0.193666 0.184777 0.176131 0.167728 0.159567 0.151649 0.143976 0.136551 0.129374 0.122445 0.115764 0.109331 0.103145 0.0972072 0.0914964 0.0859919 0.0806937 0.0756016 0.0707158 0.0660363 0.061563 0.0572959 0.0532149 0.0493001 0.0455512 0.0419684 0.0385516 0.0353009 0.0322163 0.0292977 0.0265357 0.0239212 0.0214539 0.019134 0.0169614 0.0149361 0.0130582 0.0113276 0.00973757 0.00828118 0.00695845 0.00576941 0.00471404 0.00379235 0.00300434 0.00235 0.00179922 0.00132187 0.000917968 0.0005875 0.000330468 0.000146875 3.67187e-05 0 0 0.000676236 0.00270494 0.00608612 0.0108198 0.0169059 0.0243445 0.0331356 0.0432791 0.0546713 0.0672084 0.0808904 0.0957173 0.111689 0.128806 0.147067 0.166474 0.186413 0.206275 0.226058 0.245764 0.26539 0.284939 0.30441 0.323802 0.342675 0.360588 0.377541 0.393534 0.408567 0.422639 0.435752 0.447904 0.458969 0.468819 0.477455 0.484875 0.491081 0.496072 0.499848 0.502409 0.503866 0.504328 0.503794 0.502266 0.499743 0.496225 0.491713 0.486205 0.479918 0.473067 0.465652 0.457674 0.449132 0.440026 0.430356 0.420122 0.409534 0.398801 0.387921 0.376897 0.365726 0.354411 0.342949 0.331343 0.319732 0.308258 0.296922 0.285722 0.27466 0.263735 0.252948 0.242297 0.231846 0.221655 0.211725 0.202056 0.192648 0.183501 0.174614 0.165989 0.157628 0.149535 0.14171 0.134153 0.126865 0.119845 0.113092 0.106608 0.100371 0.094357 0.0885676 0.0830024 0.0776614 0.0725446 0.0676521 0.0629837 0.0585179 0.0542329 0.0501288 0.0462055 0.0424631 0.0389016 0.035521 0.0323212 0.0292919 0.0264229 0.0237142 0.0211658 0.0187776 0.0165496 0.014482 0.0125746 0.0108204 0.00921228 0.00775035 0.00643455 0.00526489 0.00424136 0.00336398 0.00263273 0.00201568 0.00148091 0.00102841 0.000658182 0.000370227 0.000164545 4.11364e-05 0 0 0.000735173 0.00294069 0.00661656 0.0117628 0.0183793 0.0264662 0.0360235 0.0470511 0.0594289 0.0730368 0.0878747 0.103943 0.121241 0.139769 0.159527 0.180515 0.202073 0.223541 0.244918 0.266204 0.2874 0.308505 0.32952 0.350444 0.370806 0.390132 0.408423 0.425679 0.4419 0.457085 0.471236 0.484352 0.496296 0.506933 0.516264 0.524287 0.531004 0.536413 0.540515 0.543311 0.544917 0.545452 0.544915 0.543307 0.540628 0.536877 0.532055 0.526162 0.519428 0.512084 0.50413 0.495567 0.486394 0.476611 0.466218 0.455215 0.443827 0.432278 0.420567 0.408696 0.396664 0.384471 0.372117 0.359601 0.347077 0.334697 0.322462 0.310369 0.298421 0.286617 0.274957 0.26344 0.252135 0.241109 0.230362 0.219894 0.209705 0.199795 0.190164 0.180812 0.171743 0.162964 0.154473 0.146271 0.138358 0.130733 0.123398 0.116351 0.10957 0.103031 0.096735 0.0906816 0.0848709 0.0793027 0.0739771 0.0688942 0.0640305 0.059363 0.0548915 0.050616 0.0465366 0.0426533 0.0389661 