<?xml version="1.0"?> 
<VTKFile type="StructuredGrid" version="0.1"> 
<StructuredGrid WholeExtent="0 128 0 128 0 0"> 
<Piece Extent="0 128 0 128 0 0"> 
<PointData>
<DataArray type="Float32" Name="u" format="ascii" NumberOfComponents="1"> 
0 0 0 0 0 0 0 0 0 0 0 0 0 0 0 0 0 0 0 0 0 0 0 0 0 0 0 0 0 0 0 0 0 0 0 0 0 0 0 0 0 0 0 0 0 0 0 0 0 0 0 0 0 0 0 0 0 0 0 0 0 0 0 0 0 0 0 0 0 0 0 0 0 0 0 0 0 0 0 0 0 0 0 0 0 0 0 0 0 0 0 0 0 0 0 0 0 0 0 0 0 0 0 0 0 0 0 0 0 0 0 0 0 0 0 0 0 0 0 0 0 0 0 0 0 0 0 0 0 0 2.5991e-06 1.03964e-05 2.33919e-05 4.15856e-05 6.49775e-05 9.35676e-05 0.000127356 0.000166342 0.000210594 0.000260176 0.000315089 0.000375332 0.000440907 0.000511813 0.00058805 0.000669617 0.00075369 0.00083744 0.000920869 0.00100398 0.00108676 0.00116923 0.00125137 0.00133319 0.00141261 0.00148756 0.00155804 0.00162405 0.00168558 0.00174264 0.00179522 0.00184334 0.00188651 0.00192425 0.00195659 0.0019835 0.002005 0.00202107 0.00203173 0.00203697 0.0020374 0.0020336 0.00202558 0.00201334 0.00199688 0.00197621 0.00195131 0.00192219 0.00188985 0.00185529 0.00181851 0.00177951 0.00173829 0.00169485 0.00164918 0.0016013 0.00155212 0.00150257 0.00145266 0.00140237 0.00135172 0.0013007 0.00124931 0.00119755 0.00114605 0.00109543 0.00104569 0.000996828 0.000948849 0.000901751 0.000855533 0.000810196 0.000766013 0.000723259 0.000681932 0.000642034 0.000603564 0.000566521 0.000530907 0.000496721 0.000463957 0.000432611 0.000402682 0.00037417 0.000347075 0.000321398 0.000297137 0.000274294 0.000252718 0.000232256 0.000212911 0.00019468 0.000177565 0.000161566 0.000146682 0.000132914 0.000120091 0.000108046 9.6777e-05 8.62849e-05 7.65696e-05 6.7631e-05 5.94691e-05 5.20841e-05 4.53526e-05 3.91516e-05 3.34811e-05 2.83412e-05 2.37317e-05 1.96527e-05 1.61042e-05 1.30862e-05 1.04893e-05 8.20411e-06 6.23054e-06 4.56864e-06 3.2184e-06 2.17982e-06 1.45291e-06 1.03766e-06 7.9446e-07 5.83685e-07 4.05337e-07 2.59416e-07 1.45921e-07 6.48539e-08 1.62135e-08 0 0 1.03964e-05 4.15856e-05 9.35676e-05 0.000166342 0.00025991 0.000374271 0.000509424 0.00066537 0.000842374 0.0010407 0.00126035 0.00150133 0.00176363 0.00204725 0.0023522 0.00267847 0.00301476 0.00334976 0.00368348 0.00401591 0.00434705 0.00467691 0.00500548 0.00533276 0.00565046 0.00595026 0.00623217 0.00649619 0.00674232 0.00697055 0.0071809 0.00737335 0.00754602 0.00769702 0.00782635 0.007934 0.00801998 0.00808429 0.00812693 0.00814789 0.00814958 0.00813439 0.00810232 0.00805337 0.00798754 0.00790483 0.00780524 0.00768876 0.00755941 0.00742118 0.00727406 0.00711805 0.00695316 0.00677939 0.00659674 0.0064052 0.00620848 0.00601029 0.00581062 0.00560948 0.00540687 0.00520279 0.00499723 0.0047902 0.00458419 0.00438171 0.00418275 0.00398731 0.0037954 0.003607 0.00342213 0.00324078 0.00306405 0.00289304 0.00272773 0.00256814 0.00241425 0.00226609 0.00212363 0.00198688 0.00185583 0.00173044 0.00161073 0.00149668 0.0013883 0.00128559 0.00118855 0.00109718 0.00101087 0.000929026 0.000851642 0.000778721 0.000710262 0.000646265 0.000586729 0.000531655 0.000480366 0.000432183 0.000387108 0.00034514 0.000306278 0.000270524 0.000237877 0.000208336 0.00018141 0.000156606 0.000133925 0.000113365 9.49267e-05 7.86108e-05 6.44169e-05 5.2345e-05 4.19574e-05 3.28164e-05 2.49222e-05 1.82746e-05 1.28736e-05 8.71929e-06 5.81164e-06 4.15065e-06 3.17784e-06 2.33474e-06 1.62135e-06 1.03766e-06 5.83685e-07 2.59416e-07 6.48539e-08 0 0 2.33919e-05 9.35676e-05 0.000210527 0.000374271 0.000584798 0.000842109 0.0011462 0.00149708 0.00189534 0.00234158 0.0028358 0.00337799 0.00396817 0.00460632 0.00529245 0.00602656 0.00678321 0.00753696 0.00828782 0.00903579 0.00978086 0.010523 0.0112623 0.0119987 0.0127135 0.0133881 0.0140224 0.0146164 0.0151702 0.0156837 0.016157 0.01659 0.0169785 0.0173183 0.0176093 0.0178515 0.018045 0.0181897 0.0182856 0.0183328 0.0183366 0.0183024 0.0182302 0.0181201 0.017972 0.0177859 0.0175618 0.0172997 0.0170087 0.0166976 0.0163666 0.0160156 0.0156446 0.0152536 0.0148427 0.0144117 0.0139691 0.0135231 0.0130739 0.0126213 0.0121655 0.0117063 0.0112438 0.010778 0.0103144 0.00985885 0.00941119 0.00897145 0.00853964 0.00811576 0.0076998 0.00729176 0.00689412 0.00650933 0.00613739 0.00577831 0.00543207 0.00509869 0.00477816 0.00447049 0.00417561 0.0038935 0.00362413 0.00336753 0.00312368 0.00289258 0.00267424 0.00246865 0.00227446 0.00209031 0.0019162 0.00175212 0.00159809 0.0014541 0.00132014 0.00119622 0.00108082 0.000972413 0.000870993 0.000776564 0.000689126 0.000608679 0.000535222 0.000468756 0.000408173 0.000352364 0.00030133 0.00025507 0.000213585 0.000176874 0.000144938 0.000117776 9.44041e-05 7.3837e-05 5.60749e-05 4.11177e-05 2.89656e-05 1.96184e-05 1.30762e-05 9.33896e-06 7.15014e-06 5.25316e-06 3.64803e-06 2.33474e-06 1.31329e-06 5.83685e-07 1.45921e-07 0 0 4.15856e-05 0.000166342 0.000374271 0.00066537 0.00103964 0.00149708 0.0020377 0.00266148 0.0033695 0.00416281 0.00504142 0.00600532 0.00705452 0.00818901 0.0094088 0.0107139 0.012059 0.013399 0.0147339 0.0160636 0.0173882 0.0187076 0.0200219 0.021331 0.0226018 0.023801 0.0249287 0.0259848 0.0269693 0.0278822 0.0287236 0.0294934 0.0301841 0.0307881 0.0313054 0.031736 0.0320799 0.0323372 0.0325077 0.0325916 0.0325983 0.0325376 0.0324093 0.0322135 0.0319501 0.0316193 0.0312209 0.0307551 0.0302377 0.0296847 0.0290962 0.0284722 0.0278127 0.0271176 0.0263869 0.0256208 0.0248339 0.0240411 0.0232425 0.0224379 0.0216275 0.0208112 0.0199889 0.0191608 0.0183368 0.0175268 0.016731 0.0159492 0.0151816 0.014428 0.0136885 0.0129631 0.0122562 0.0115721 0.0109109 0.0102725 0.00965702 0.00906434 0.00849451 0.00794753 0.00742331 0.00692177 0.00644291 0.00598672 0.0055532 0.00514236 0.0047542 0.00438871 0.00404348 0.0037161 0.00340657 0.00311489 0.00284105 0.00258506 0.00234692 0.00212662 0.00192146 0.00172873 0.00154843 0.00138056 0.00122511 0.0010821 0.000951506 0.000833345 0.000725641 0.000626426 0.000535698 0.000453458 0.000379707 0.000314443 0.000257668 0.00020938 0.00016783 0.000131266 9.96887e-05 7.30982e-05 5.14944e-05 3.48771e-05 2.32466e-05 1.66026e-05 1.27114e-05 9.33896e-06 6.48539e-06 4.15065e-06 2.33474e-06 1.03766e-06 2.59416e-07 0 0 6.49775e-05 0.00025991 0.000584798 0.00103964 0.00162444 0.00233919 0.0031839 0.00415856 0.00526484 0.00650439 0.00787721 0.00938331 0.0110227 0.0127953 0.0147012 0.0167404 0.0188422 0.020936 0.0230217 0.0250994 0.0271691 0.0292307 0.0312842 0.0333298 0.0353153 0.0371891 0.0389511 0.0406012 0.0421395 0.043566 0.0448806 0.0460834 0.0471626 0.0481064 0.0489147 0.0495875 0.0501249 0.0505268 0.0507933 0.0509243 0.0509349 0.0508399 0.0506395 0.0503335 0.0499221 0.0494052 0.0487827 0.0480548 0.0472463 0.0463824 0.0454629 0.0444878 0.0434573 0.0423712 0.0412296 0.0400325 0.038803 0.0375643 0.0363164 0.0350593 0.033793 0.0325174 0.0312327 0.0299388 0.0286512 0.0273857 0.0261422 0.0249207 0.0237212 0.0225438 0.0213883 0.0202549 0.0191503 0.0180815 0.0170483 0.0160508 0.0150891 0.014163 0.0132727 0.012418 0.0115989 0.0108153 0.010067 0.00935424 0.00867688 0.00803494 0.00742843 0.00685736 0.00631794 0.00580641 0.00532277 0.00486701 0.00443914 0.00403915 0.00366706 0.00332284 0.00300229 0.00270115 0.00241943 0.00215712 0.00191424 0.00169077 0.00148673 0.0013021 0.00113381 0.00097879 0.000837028 0.000708529 0.000593292 0.000491317 0.000402606 0.000327156 0.000262234 0.000205103 0.000155764 0.000114216 8.04599e-05 5.44955e-05 3.63227e-05 2.59416e-05 1.98615e-05 1.45921e-05 1.01334e-05 6.48539e-06 3.64803e-06 1.62135e-06 4.05337e-07 0 0 9.35676e-05 0.000374271 0.000842109 0.00149708 0.00233919 0.00336843 0.00458481 0.00598833 0.00758137 0.00936632 0.0113432 0.013512 0.0158727 0.0184253 0.0211698 0.0241062 0.0271328 0.0301479 0.0331513 0.0361432 0.0391235 0.0420922 0.0450493 0.0479949 0.0508541 0.0535523 0.0560895 0.0584657 0.0606809 0.062735 0.0646281 0.0663602 0.0679142 0.0692732 0.0704371 0.071406 0.0721798 0.0727586 0.0731423 0.073331 0.0733462 0.0732095 0.0729209 0.0724803 0.0718878 0.0711434 0.0702471 0.0691989 0.0680347 0.0667906 0.0654665 0.0640625 0.0625785 0.0610145 0.0593706 0.0576468 0.0558763 0.0540926 0.0522956 0.0504854 0.0486619 0.0468251 0.0449751 0.0431118 0.0412577 0.0394354 0.0376447 0.0358858 0.0341586 0.032463 0.0307992 0.0291671 0.0275765 0.0260373 0.0245496 0.0231132 0.0217283 0.0203948 0.0191127 0.0178819 0.0167025 0.015574 0.0144965 0.0134701 0.0124947 0.0115703 0.0106969 0.00987459 0.00909783 0.00836123 0.00766478 0.00700849 0.00639236 0.00581638 0.00528056 0.0047849 0.00432329 0.00388965 0.00348397 0.00310626 0.00275651 0.00243472 0.00214089 0.00187503 0.00163269 0.00140946 0.00120532 0.00102028 0.00085434 0.000707497 0.000579752 0.000471105 0.000377616 0.000295348 0.0002243 0.000164471 0.000115862 7.84736e-05 5.23047e-05 3.73558e-05 2.86006e-05 2.10127e-05 1.45921e-05 9.33896e-06 5.25316e-06 2.33474e-06 5.83685e-07 0 0 0.000127356 0.000509424 0.0011462 0.0020377 0.0031839 0.00458481 0.00624044 0.00815078 0.0103191 0.0127486 0.0154393 0.0183913 0.0216045 0.0250788 0.0288144 0.0328113 0.0369308 0.0410346 0.0451226 0.0491949 0.0532514 0.0572921 0.0613171 0.0653263 0.0692181 0.0728907 0.0763441 0.0795783 0.0825934 0.0853893 0.087966 0.0903235 0.0924388 0.0942885 0.0958727 0.0971915 0.0982448 0.0990326 0.0995549 0.0998117 0.0998324 0.0996463 0.0992534 0.0986537 0.0978473 0.0968341 0.0956141 0.0941874 0.0926028 0.0909094 0.0891072 0.0871961 0.0851763 0.0830476 0.08081 0.0784637 0.0760539 0.073626 0.0711801 0.0687162 0.0662342 0.0637342 0.0612161 0.05868 0.0561564 0.053676 0.0512387 0.0488446 0.0464936 0.0441858 0.0419211 0.0396996 0.0375347 0.0354397 0.0334147 0.0314597 0.0295746 0.0277595 0.0260144 0.0243393 0.0227339 0.0211979 0.0197314 0.0183343 0.0170067 0.0157485 0.0145597 0.0134404 0.0123832 0.0113806 0.0104326 0.00953934 0.00870071 0.00791674 0.00718743 0.00651278 0.00588448 0.00529425 0.00474207 0.00422796 0.00375191 0.00331392 0.00291399 0.00255212 0.00222228 0.00191843 0.00164058 0.00138872 0.00116285 0.000962982 0.000789107 0.000641226 0.000513978 0.000402001 0.000305297 0.000223863 0.000157701 0.000106811 7.11926e-05 5.08454e-05 3.89285e-05 2.86006e-05 1.98615e-05 1.27114e-05 7.15014e-06 3.17784e-06 7.9446e-07 0 0 0.000166342 0.00066537 0.00149708 0.00266148 0.00415856 0.00598833 0.00815078 0.0106459 0.013478 0.0166512 0.0201657 0.0240213 0.0282181 0.032756 0.0376352 0.0428555 0.0482361 0.0535962 0.0589356 0.0642545 0.0695528 0.0748305 0.0800876 0.0853242 0.0904073 0.0952041 0.0997147 0.103939 0.107877 0.111529 0.114894 0.117974 0.120736 0.123152 0.125222 0.126944 0.12832 0.129349 0.130031 0.130366 0.130393 0.13015 0.129637 0.128854 0.127801 0.126477 0.124884 0.12302 0.120951 0.118739 0.116385 0.113889 0.111251 0.10847 0.105548 0.102483 0.0993357 0.0961646 0.09297 0.0897518 0.08651 0.0832446 0.0799557 0.0766432 0.0733471 0.0701074 0.066924 0.063797 0.0607263 0.057712 0.0547541 0.0518525 0.0490249 0.0462886 0.0436437 0.0410902 0.0386281 0.0362574 0.033978 0.0317901 0.0296933 0.0276871 0.0257716 0.0239469 0.0222128 0.0205694 0.0190168 0.0175548 0.0161739 0.0148644 0.0136263 0.0124595 0.0113642 0.0103402 0.00938766 0.00850648 0.00768585 0.00691493 0.00619373 0.00552224 0.00490045 0.00432838 0.00380603 0.00333338 0.00290256 0.0025057 0.00214279 0.00181383 0.00151883 0.00125777 0.00103067 0.000837519 0.000671318 0.000525063 0.000398755 0.000292393 0.000205977 0.000139509 9.29862e-05 6.64104e-05 5.08454e-05 3.73558e-05 2.59416e-05 1.66026e-05 9.33896e-06 4.15065e-06 1.03766e-06 0 0 0.000211152 0.00084461 0.00190037 0.00337844 0.00527881 0.00760149 0.0103465 0.0135138 0.0171071 0.0211301 0.0255828 0.0304653 0.0357775 0.0415194 0.0476911 0.0542925 0.0610952 0.0678711 0.07462 0.081342 0.088037 0.0947051 0.101346 0.107961 0.114381 0.120439 0.126136 0.131472 0.136446 0.141059 0.14531 0.1492 0.15269 0.155743 0.158358 0.160535 0.162275 0.163578 0.164443 0.16487 0.164908 0.164606 0.163962 0.162977 0.161652 0.159985 0.157978 0.15563 0.153021 0.150233 0.147265 0.144117 0.14079 0.137282 0.133595 0.129728 0.125756 0.121754 0.117721 0.113658 0.109565 0.105441 0.101287 0.097103 0.0929389 0.0888454 0.0848226 0.0808704 0.0769889 0.073178 0.0694377 0.0657681 0.0621913 0.0587297 0.0553833 0.0521519 0.0490357 0.0460347 0.0431487 0.040378 0.037722 0.0351806 0.0327537 0.0304414 0.0282436 0.0261604 0.0241917 0.0223375 0.0205858 0.0189244 0.0173533 0.0158725 0.0144821 0.013182 0.0119722 0.0108528 0.00981001 0.00883021 0.00791341 0.0070596 0.00626878 0.00554095 0.00487611 0.00427426 0.00372543 0.00321964 0.00275689 0.00233718 0.00196051 0.00162688 0.00133629 0.00108875 0.000875403 0.000687428 0.000524821 0.000387583 0.000275714 0.000189213 0.000128081 9.23173e-05 7.06805e-05 5.19285e-05 3.60615e-05 2.30793e-05 1.29821e-05 5.76983e-06 1.44246e-06 0 0 0.000262411 0.00104964 0.0023617 0.00419858 0.00656028 0.0094468 0.0128581 0.0167943 0.0212553 0.026241 0.0317515 0.0377868 0.0443468 0.0514316 0.0590412 0.0671755 0.0755544 0.0838976 0.0922052 0.100477 0.108713 0.116914 0.125079 0.133208 0.141097 0.148542 0.155544 0.162101 0.168215 0.173884 0.17911 0.183892 0.188183 0.191938 0.195156 0.197838 0.199983 0.201591 0.202663 0.203199 0.203257 0.202896 0.202118 0.20092 0.199305 0.197271 0.194819 0.191949 0.188758 0.185346 0.181713 0.177858 0.173781 0.169483 0.164963 0.160221 0.15535 0.150439 0.14549 0.140502 0.135475 0.130409 0.125304 0.120161 0.115041 0.110006 0.105056 0.100192 0.0954133 0.0907197 0.0861114 0.0815883 0.0771783 0.0729089 0.0687802 0.0647921 0.0609447 0.0572379 0.0536718 0.0502464 0.0469616 0.0438176 0.0408142 0.0379516 0.0352296 0.0326484 0.0302079 0.027908 0.0257343 0.023672 0.0217211 0.0198817 0.0181537 0.0165372 0.0150321 0.0136385 0.0123395 0.0111186 0.00997559 0.00891057 0.00792353 0.00701445 0.00618336 0.00543023 0.00474275 0.00410861 0.0035278 0.00300031 0.00252615 0.00210533 0.00173783 0.00142367 0.001152 0.00091199 0.000703644 0.000526958 0.000381935 0.000268573 0.000186872 0.000136833 0.000104763 7.69686e-05 5.34504e-05 3.42083e-05 1.92421e-05 8.55207e-06 2.13802e-06 0 0 0.000320118 0.00128047 0.00288107 0.00512189 0.00800296 0.0115243 0.0156858 0.0204876 0.0259226 0.031984 0.0386717 0.0459856 0.0539259 0.0624925 0.0716855 0.0815047 0.0916137 0.101676 0.111691 0.12166 0.131581 0.141456 0.151284 0.161066 0.170557 0.179514 0.187937 0.195827 0.203183 0.210006 0.216294 0.222049 0.227215 0.231738 0.235616 0.238851 0.241442 0.243389 0.244692 0.245352 0.245438 0.245022 0.244104 0.242683 0.24076 0.238335 0.235407 0.231977 0.228162 0.224079 0.219728 0.21511 0.210225 0.205072 0.199651 0.193963 0.188116 0.18222 0.176276 0.170282 0.164239 0.158148 0.152007 0.145817 0.139653 0.133589 0.127626 0.121762 0.116 0.110337 0.104775 0.0993133 0.0939857 0.0888261 0.0838344 0.0790106 0.0743549 0.0698671 0.0655473 0.0613954 0.0574121 0.053598 0.0499531 0.0464774 0.0431709 0.0400336 0.0370654 0.0342665 0.0316195 0.0291073 0.0267298 0.0244871 0.0223791 0.0204058 0.0185673 0.0168635 0.0152744 0.01378 0.0123803 0.0110751 0.0098647 0.0087489 0.00772776 0.00680128 0.00595453 0.00517261 0.0044555 0.00380322 0.00321575 0.00269311 0.00223529 0.00184228 0.00150111 0.00119875 0.000935222 0.000710518 0.00052464 0.000377587 0.00026936 0.000199958 0.000153092 0.000112476 7.81084e-05 4.99894e-05 2.8119e-05 1.24973e-05 3.12434e-06 0 0 0.000384274 0.0015371 0.00345847 0.00614839 0.00960686 0.0138339 0.0188294 0.0245936 0.0311091 0.038359 0.0463433 0.0550619 0.0645149 0.0747023 0.085624 0.09728 0.109273 0.121206 0.133078 0.14489 0.156642 0.168333 0.179964 0.191534 0.202759 0.213353 0.223317 0.232649 0.241351 0.249422 0.256863 0.263672 0.269787 0.275142 0.279738 0.283575 0.286652 0.288971 0.29053 0.29133 0.291453 0.290984 0.289922 0.288266 0.286018 0.283176 0.279742 0.275714 0.271231 0.26643 0.261312 0.255875 0.250121 0.244049 0.23766 0.230952 0.224055 0.217098 0.210079 0.202999 0.195859 0.188657 0.181395 0.174071 0.166775 0.159595 0.15253 0.145581 0.138748 0.132031 0.125429 0.118943 0.112614 0.106481 0.100546 0.0948076 0.0892664 0.0839222 0.0787751 0.073825 0.0690734 0.0645219 0.0601704 0.0560189 0.0520673 0.0483158 0.0447643 0.0414129 0.0382415 0.0352303 0.0323794 0.0296887 0.0271582 0.0247879 0.0225778 0.020528 0.0186147 0.0168146 0.0151274 0.0135533 0.0120923 0.0107443 0.00950932 0.0083874 0.00736076 0.00641163 0.00554001 0.0047459 0.00402931 0.00339023 0.00282866 0.0023446 0.00192272 0.00154771 0.00121956 0.000938263 0.000703829 0.000516256 0.000375544 0.000281691 0.000215669 0.000158451 0.000110035 7.04227e-05 3.96128e-05 1.76057e-05 4.40142e-06 0 0 0.000454879 0.00181952 0.00409391 0.00727806 0.011372 0.0163756 0.0222891 0.0291123 0.0368148 0.0453662 0.0547665 0.0650157 0.0761138 0.0880608 0.100857 0.114501 0.128532 0.142487 0.156366 0.170168 0.183894 0.197543 0.211117 0.224614 0.237705 0.250061 0.261682 0.272568 0.282719 0.292135 0.300815 0.308761 0.315897 0.322151 0.327522 0.33201 0.335614 0.338337 0.340176 0.341132 0.341302 0.340781 0.33957 0.337669 0.335077 0.331795 0.327823 0.32316 0.317967 0.312401 0.306462 0.300152 0.29347 0.286415 0.278989 0.27119 0.263168 0.255071 0.2469 0.238654 0.230333 0.221938 0.213468 0.204923 0.196407 0.188023 0.17977 0.171648 0.163658 0.1558 0.148073 0.140478 0.133062 0.125874 0.118915 0.112183 0.105679 0.0994032 0.0933552 0.0875352 0.0819456 0.0765893 0.071466 0.066576 0.061919 0.0574952 0.0533046 0.0493471 0.0456001 0.042041 0.0386698 0.0354864 0.032491 0.0296834 0.0270636 0.0246318 0.0223604 0.0202222 0.0182171 0.0163451 0.0146063 0.0130006 0.011528 0.0101886 0.00896144 0.00782568 0.00678132 0.00582837 0.00496682 0.00419668 0.00351794 0.0029306 0.00241685 0.00195887 0.00155665 0.00121019 0.000919503 0.000684581 0.000505424 0.000382033 0.000292494 0.000214893 0.000149232 9.55082e-05 5.37234e-05 2.3877e-05 5.96926e-06 0 0 0.000531932 0.00212773 0.00478739 0.00851092 0.0132983 0.0191496 0.0260647 0.0340437 0.0430396 0.0530054 0.0639411 0.0758468 0.0887225 0.102568 0.117384 0.133169 0.149392 0.16552 0.181554 0.197493 0.213338 0.229088 0.244743 0.260304 0.275394 0.289637 0.303033 0.315583 0.327286 0.338142 0.348152 0.357315 0.365547 0.372765 0.378967 0.384155 0.388328 0.391487 0.39363 0.394759 0.394983 0.394414 0.39305 0.390891 0.387939 0.384192 0.379651 0.374316 0.368368 0.36199 0.355181 0.347942 0.340271 0.33217 0.323639 0.314676 0.305453 0.296141 0.286738 0.277245 0.267662 0.257989 0.248226 0.238373 0.228549 0.218873 0.209344 0.199963 0.19073 0.181645 0.172707 0.163917 0.155331 0.147006 0.138941 0.131137 0.123593 0.11631 0.109288 0.102526 0.0960287 0.0898001 0.0838401 0.0781487 0.0727259 0.0675717 0.0626862 0.0580693 0.0536955 0.0495394 0.0456011 0.0418804 0.0383775 0.0350923 0.0320247 0.0291749 0.0265115 0.0240029 0.0216493 0.0194505 0.0174067 0.0155179 0.0137839 0.0122049 0.0107566 0.00941476 0.00817944 0.00705062 0.00602829 0.00511247 0.00430314 0.0036003 0.00298349 0.00243222 0.00194649 0.0015263 0.00117166 0.00088256 0.000659001 0.000500984 0.000383565 0.000281803 0.000195697 0.000125246 7.04508e-05 3.13115e-05 7.82787e-06 0 0 0.000615434 0.00246174 0.00553891 0.00984695 0.0153859 0.0221556 0.0301563 0.0393878 0.0497835 0.0612766 0.0738673 0.0875554 0.102341 0.118224 0.135205 0.153283 0.171852 0.190305 0.208644 0.226867 0.244974 0.262966 0.280843 0.298604 0.315825 0.332081 0.34737 0.361694 0.375053 0.387446 0.398873 0.409335 0.418736 0.426983 0.434075 0.440012 0.444794 0.448421 0.450893 0.452211 0.452499 0.451882 0.45036 0.447934 0.444602 0.440367 0.435226 0.429181 0.422436 0.415199 0.407468 0.399243 0.390525 0.381314 0.371609 0.36141 0.350912 0.340306 0.329593 0.318773 0.307846 0.296812 0.28567 0.274422 0.263202 0.252146 0.241254 0.230527 0.219964 0.209566 0.199331 0.189261 0.17942 0.169875 0.160624 0.151669 0.143009 0.134643 0.126573 0.118797 0.111323 0.104154 0.0972925 0.0907371 0.084488 0.0785454 0.0729091 0.0675793 0.0625275 0.0577255 0.0531732 0.0488706 0.0448177 0.0410146 0.0374612 0.0341575 0.0310679 0.0281567 0.0254239 0.0228695 0.0204936 0.0182961 0.016277 0.0144363 0.0127462 0.0111789 0.00973436 0.00841264 0.00721372 0.00613759 0.00518425 0.0043537 0.00362264 0.00296777 0.00238909 0.0018866 0.0014603 0.00111019 0.000836274 0.000638543 0.000488884 0.00035918 0.000249431 0.000159636 8.97951e-05 3.99089e-05 9.97723e-06 0 0 0.000705385 0.00282154 0.00634846 0.0112862 0.0176346 0.0253939 0.0345639 0.0451446 0.0570466 0.07018 0.0845449 0.100141 0.116969 0.135029 0.15432 0.174842 0.195911 0.216842 0.237634 0.258287 0.278802 0.299179 0.319417 0.339516 0.359 0.377393 0.394693 0.410902 0.426019 0.440045 0.452978 0.46482 0.475465 0.484806 0.492844 0.499579 0.505011 0.509139 0.511965 0.513487 0.513847 0.513185 0.511501 0.508796 0.505068 0.500319 0.494548 0.487755 0.480171 0.472026 0.463322 0.454057 0.444231 0.433846 0.422899 0.411393 0.399543 0.387568 0.375466 0.363239 0.350885 0.338405 0.3258 0.313068 0.300364 0.287841 0.2755 0.263339 0.25136 0.239562 0.227945 0.21651 0.20533 0.194482 0.183965 0.17378 0.163925 0.154402 0.14521 0.136349 0.127827 0.119652 0.111823 0.104341 0.0972053 0.0904161 0.0839734 0.0778773 0.0720963 0.0665993 0.0613862 0.056457 0.0518117 0.0474504 0.0433729 0.0395794 0.0360297 0.0326836 0.0295411 0.0266022 0.0238669 0.0213352 0.0190072 0.0168827 0.0149302 0.013118 0.0114461 0.00991445 0.0085231 0.00727204 0.00616127 0.00519079 0.0043343 0.00356552 0.00288445 0.00229109 0.00178543 0.00136748 0.00103724 0.000794711 0.000608451 0.000447025 0.000310434 0.000198678 0.000111756 4.96695e-05 1.24174e-05 0 0 0.00079974 0.00319896 0.00719766 0.0127958 0.0199935 0.0287906 0.0391873 0.0511834 0.0646639 0.0795137 0.0957328 0.113321 0.132279 0.152606 0.174302 0.197368 0.221036 0.24454 0.26788 0.291055 0.314066 0.336913 0.359596 0.382115 0.40394 0.424542 0.443922 0.462079 0.479013 0.494725 0.509214 0.522481 0.534408 0.54488 0.553896 0.561456 0.567561 0.572209 0.575403 0.57714 0.577578 0.576875 0.575029 0.572041 0.567912 0.56264 0.556225 0.548669 0.540227 0.531156 0.521454 0.511123 0.500163 0.488572 0.476353 0.463503 0.450266 0.436882 0.423351 0.409674 0.395851 0.381881 0.367765 0.353503 0.339266 0.325226 0.311385 0.297741 0.284294 0.271045 0.257994 0.245141 0.23257 0.220367 0.208532 0.197066 0.185967 0.175236 0.164874 0.154879 0.145263 0.136034 0.127193 0.11874 0.110675 0.102998 0.0957089 0.0888075 0.0822598 0.0760316 0.070123 0.0645338 0.0592642 0.0543141 0.0496835 0.0453724 0.041336 0.0375297 0.0339533 0.030607 0.0274906 0.0246042 0.0219479 0.0195215 0.0172894 0.015216 0.0133013 0.0115452 0.00994784 0.00850911 0.00722904 0.00610764 0.00511554 0.00422341 0.00343123 0.002739 0.00214674 0.00165443 0.00126207 0.000969677 0.000742409 0.000545443 0.00037878 0.000242419 0.000136361 6.06048e-05 1.51512e-05 0 0 0.000896456 0.00358582 0.0080681 0.0143433 0.0224114 0.0322724 0.0439263 0.0573732 0.0724705 0.0890759 0.107189 0.126811 0.147941 0.170578 0.194724 0.220378 0.24669 0.272809 0.298735 0.324469 0.35001 0.375358 0.400514 0.425476 0.449665 0.472498 0.493976 0.514097 0.532863 0.550273 0.566328 0.581027 0.594243 0.605852 0.615851 0.624242 0.631025 0.636199 0.639764 0.641721 0.642243 0.641502 0.6395 0.636235 0.631708 0.62592 0.618869 0.610556 0.601262 0.591269 0.580576 0.569184 0.557092 0.544301 0.53081 0.51662 0.501996 0.487204 0.472243 0.457114 0.441817 0.426351 0.410718 0.394916 0.379136 0.363568 0.348214 0.333072 0.318143 0.303426 0.288922 0.274631 0.260648 0.247069 0.233895 0.221124 0.208758 0.196796 0.185239 0.174085 0.163348 0.153041 0.143163 0.133714 0.124695 0.116106 0.107945 0.100214 0.0928761 0.0858936 0.0792667 0.0729955 0.0670801 0.0615203 0.0563163 0.051468 0.0469261 0.0426412 0.0386133 0.0348425 0.0313288 0.0280721 0.0250724 0.0223298 0.0198045 0.0174568 0.0152867 0.0132942 0.0114793 0.00984204 0.00838237 0.00710031 0.00596344 0.00493937 0.00402809 0.00322961 0.00254392 0.00197103 0.00151093 0.00116363 0.000890903 0.000654541 0.000454542 0.000290907 0.000163635 7.27267e-05 1.81817e-05 0 0 0.000995531 0.00398213 0.00895978 0.0159285 0.0248883 0.0358391 0.048781 0.063714 0.0804664 0.0988667 0.118915 0.140611 0.163955 0.188947 0.215586 0.243874 0.272873 0.301649 0.330201 0.358529 0.386633 0.414513 0.442169 0.469602 0.496177 0.521261 0.544854 0.566957 0.587568 0.606689 0.624319 0.640457 0.65497 0.667721 0.67871 0.687937 0.695403 0.701107 0.70505 0.707231 0.70784 0.707067 0.704913 0.701377 0.696459 0.690159 0.682477 0.673414 0.663275 0.652366 0.640687 0.628238 0.61502 0.601031 0.586272 0.570744 0.554735 0.538534 0.522142 0.505558 0.488782 0.471815 0.454657 0.437306 0.419974 0.402867 0.385987 0.369333 0.352905 0.336704 0.320729 0.30498 0.289564 0.274588 0.260052 0.245956 0.232299 0.219081 0.206304 0.193966 0.182084 0.170672 0.159732 0.149263 0.139265 0.129738 0.120683 0.112098 0.103945 0.096185 0.0888173 0.081842 0.0752593 0.0690691 0.0632714 0.0578663 0.0527998 0.048018 0.043521 0.0393088 0.0353814 0.0317387 0.0283808 0.0253076 0.0224754 0.0198402 0.0174022 0.0151613 0.0131175 0.0112709 0.00962127 0.0081688 0.00687799 0.00571341 0.00467505 0.00376291 0.00297699 0.00231729 0.00178382 0.00137656 0.00105393 0.000774318 0.000537721 0.000344141 0.000193579 8.60353e-05 2.15088e-05 0 0 0.00109697 0.00438787 0.00987271 0.0175515 0.0274242 0.0394908 0.0537514 0.0702059 0.0886517 0.108886 0.130909 0.154721 0.180321 0.20771 0.236888 0.267854 0.299586 0.33106 0.362276 0.393235 0.423935 0.454378 0.484563 0.514491 0.543475 0.570831 0.596559 0.620658 0.643129 0.663972 0.683187 0.700773 0.716588 0.730487 0.742472 0.752541 0.760696 0.766935 0.771259 0.773669 0.77437 0.77357 0.771268 0.767466 0.762162 0.755358 0.747052 0.737244 0.726266 0.714447 0.701787 0.688287 0.673945 0.658762 0.642739 0.625875 0.608482 0.590873 0.573047 0.555006 0.536747 0.518273 0.499583 0.480676 0.46178 0.443123 0.424704 0.406524 0.388582 0.370879 0.353415 0.336189 0.31932 0.302925 0.287005 0.271559 0.256588 0.242092 0.22807 0.214523 0.201469 0.188929 0.176901 0.165387 0.154385 0.143897 0.133921 0.124458 0.115467 0.106906 0.0987747 0.0910733 0.0838019 0.0769604 0.0705489 0.0645672 0.0589572 0.0536603 0.0486765 0.0440059 0.0396484 0.0356041 0.031873 0.028455 0.0253021 0.0223665 0.019648 0.0171466 0.0148625 0.0127955 0.0109457 0.00931312 0.0078592 0.00654552 0.00537209 0.00433889 0.00344593 0.00269321 0.00208073 0.00160849 0.0012315 0.000904774 0.000628315 0.000402122 0.000226194 0.00010053 2.51326e-05 0 0 0.00120076 0.00480306 0.0108069 0.0192122 0.0300191 0.0432275 0.0588374 0.0768489 0.0970263 0.119134 0.143172 0.169141 0.19704 0.22687 0.25863 0.29232 0.326828 0.361042 0.394962 0.428587 0.461918 0.494954 0.527695 0.560143 0.591559 0.621207 0.649088 0.675201 0.699545 0.722123 0.742932 0.761974 0.779097 0.794151 0.807137 0.818054 0.826902 0.833682 0.838393 0.841035 0.841832 0.84101 0.838567 0.834503 0.82882 0.821516 0.812591 0.802047 0.790236 0.777513 0.763877 0.749329 0.733868 0.717495 0.70021 0.682012 0.663237 0.64422 0.62496 0.605457 0.585712 0.565725 0.545495 0.525023 0.504554 0.484335 0.464365 0.444645 0.425174 0.405952 0.38698 0.368257 0.349914 0.332079 0.314753 0.297936 0.281627 0.265828 0.250537 0.235755 0.221505 0.20781 0.19467 0.182085 0.170055 0.15858 0.14766 0.137295 0.127442 0.118057 0.109139 0.100689 0.0927079 0.0851942 0.0781486 0.0715709 0.0653983 0.0595679 0.0540797 0.0489337 0.0441299 0.0396684 0.035549 0.0317719 0.0282847 0.0250354 0.0220239 0.0192501 0.0167142 0.0144161 0.0123558 0.0105333 0.00890706 0.00743572 0.00611921 0.00495756 0.00395075 0.00309879 0.00240167 0.0018594 0.0014236 0.00104591 0.000726326 0.000464849 0.000261477 0.000116212 2.90531e-05 0 0 0.00130692 0.00522768 0.0117623 0.0209107 0.032673 0.0470491 0.0640391 0.0836429 0.10559 0.129611 0.155704 0.183871 0.214111 0.246425 0.280811 0.317271 0.3546 0.391596 0.428257 0.464585 0.500579 0.536239 0.571566 0.606558 0.640429 0.67239 0.702442 0.730585 0.756817 0.781141 0.803555 0.824059 0.842497 0.858713 0.872706 0.884476 0.894023 0.901348 0.90645 0.909329 0.910228 0.909387 0.906807 0.902488 0.89643 0.888633 0.879096 0.867821 0.855184 0.841562 0.826956 0.811365 0.79479 0.77723 0.758686 0.739157 0.719001 0.698575 0.677879 0.656913 0.635677 0.614171 0.592395 0.570349 0.548297 0.526504 0.50497 0.483695 0.462679 0.441922 0.421424 0.401185 0.381346 0.36205 0.343296 0.325085 0.307416 0.290289 0.273705 0.257663 0.242191 0.227316 0.213039 0.199358 0.186275 0.173789 0.161901 0.150609 0.13987 0.129637 0.11991 0.11069 0.101977 0.0937706 0.0860706 0.0788772 0.072123 0.0657408 0.0597306 0.0540922 0.0488259 0.0439314 0.0394089 0.0352583 0.0314232 0.0278471 0.0245299 0.0214718 0.0186727 0.0161325 0.0138514 0.0118292 0.0100216 0.00838398 0.00691643 0.00561892 0.00449145 0.00353402 0.00274663 0.00212929 0.00163024 0.00119773 0.000831754 0.000532322 0.000299431 0.000133081 3.32701e-05 0 0 0.00141544 0.00566175 0.0127389 0.022647 0.0353859 0.0509558 0.0693564 0.090588 0.114343 0.140316 0.168505 0.198912 0.231535 0.266375 0.303433 0.342707 0.382901 0.42272 0.462163 0.50123 0.539921 0.578235 0.616174 0.653737 0.690085 0.72438 0.756622 0.78681 0.814945 0.841026 0.865055 0.88703 0.906789 0.924172 0.939178 0.951807 0.962059 0.969934 0.975431 0.978552 0.979556 0.978702 0.97599 0.971421 0.964994 0.956709 0.946567 0.934567 0.92111 0.906595 0.891024 0.874395 0.856709 0.837966 0.818165 0.797308 0.775773 0.753938 0.731805 0.709372 0.686641 0.66361 0.640281 0.616652 0.593008 0.56963 0.54652 0.523676 0.5011 0.47879 0.456747 0.434972 0.413617 0.392838 0.372634 0.353006 0.333953 0.315475 0.297573 0.280246 0.263527 0.247447 0.232007 0.217206 0.203045 0.189524 0.176642 0.1644 0.15275 0.141646 0.131088 0.121076 0.11161 0.102689 0.0943149 0.0864861 0.0791315 0.0721792 0.0656292 0.0594816 0.0537362 0.0483933 0.0434526 0.0389143 0.0347175 0.0308015 0.0271662 0.0238117 0.0207379 0.0179448 0.0154325 0.013201 0.0112028 0.00939033 0.00776373 0.00632296 0.00506802 0.00399891 0.00311563 0.00241817 0.00185141 0.00136022 0.000944597 0.000604542 0.000340055 0.000151136 3.77839e-05 0 0 0.00152631 0.00610526 0.0137368 0.024421 0.0381579 0.0549473 0.0747894 0.0976841 0.123286 0.15125 0.181575 0.214262 0.249311 0.286721 0.326494 0.368628 0.411732 0.454416 0.496678 0.53852 0.579941 0.620941 0.661521 0.701679 0.740528