<?xml version="1.0"?> 
<VTKFile type="StructuredGrid" version="0.1"> 
<StructuredGrid WholeExtent="0 128 0 128 0 0"> 
<Piece Extent="0 128 0 128 0 0"> 
<PointData>
<DataArray type="Float32" Name="u" format="ascii" NumberOfComponents="1"> 
0 0 0 0 0 0 0 0 0 0 0 0 0 0 0 0 0 0 0 0 0 0 0 0 0 0 0 0 0 0 0 0 0 0 0 0 0 0 0 0 0 0 0 0 0 0 0 0 0 0 0 0 0 0 0 0 0 0 0 0 0 0 0 0 0 0 0 0 0 0 0 0 0 0 0 0 0 0 0 0 0 0 0 0 0 0 0 0 0 0 0 0 0 0 0 0 0 0 0 0 0 0 0 0 0 0 0 0 0 0 0 0 0 0 0 0 0 0 0 0 0 0 0 0 0 0 0 0 0 0 3.10295e-06 1.24118e-05 2.79265e-05 4.96471e-05 7.75736e-05 0.000111706 0.000152044 0.000198589 0.000251327 0.00031025 0.000375356 0.000446645 0.000524119 0.000607775 0.000697615 0.000793639 0.000892478 0.000990762 0.00108849 0.00118567 0.00128229 0.00137836 0.00147388 0.00156884 0.00166086 0.00174755 0.00182892 0.00190495 0.00197566 0.00204105 0.0021011 0.00215583 0.00220475 0.00224739 0.00228375 0.00231382 0.00233761 0.00235512 0.00236635 0.00237129 0.00237068 0.00236525 0.002355 0.00233993 0.00232003 0.00229532 0.00226578 0.00223142 0.00219338 0.0021528 0.00210968 0.00206402 0.00201582 0.00196508 0.00191181 0.00185599 0.00179868 0.00174091 0.0016827 0.00162403 0.00156492 0.00150535 0.00144533 0.00138486 0.00132467 0.00126546 0.00120725 0.00115003 0.00109381 0.00103858 0.000984337 0.00093109 0.000879176 0.000828934 0.000780365 0.000733469 0.000688245 0.000644693 0.000602814 0.000562608 0.000524089 0.000487274 0.000452161 0.000418751 0.000387044 0.00035704 0.000328739 0.000302141 0.000277074 0.000253365 0.000231014 0.000210022 0.000190388 0.000172113 0.000155195 0.000139637 0.000125225 0.000111748 9.92061e-05 8.75994e-05 7.69279e-05 6.71915e-05 5.83902e-05 5.0524e-05 4.34272e-05 3.69341e-05 3.10445e-05 2.57585e-05 2.10762e-05 1.69975e-05 1.35224e-05 1.06509e-05 8.23896e-06 6.14238e-06 4.36119e-06 2.89539e-06 1.74499e-06 9.09976e-07 3.90356e-07 1.86128e-07 1.42504e-07 1.04697e-07 7.27063e-08 4.6532e-08 2.61743e-08 1.1633e-08 2.90825e-09 0 0 1.24118e-05 4.96471e-05 0.000111706 0.000198589 0.000310295 0.000446824 0.000608177 0.000794354 0.00100531 0.001241 0.00150142 0.00178658 0.00209647 0.0024311 0.00279046 0.00317456 0.00356991 0.00396305 0.00435397 0.00474268 0.00512917 0.00551345 0.00589551 0.00627535 0.00664343 0.0069902 0.00731566 0.00761981 0.00790265 0.00816419 0.00840441 0.00862332 0.00881901 0.00898957 0.00913499 0.00925529 0.00935046 0.00942049 0.0094654 0.00948517 0.00948274 0.00946102 0.00942001 0.00935972 0.00928014 0.00918127 0.00906312 0.00892568 0.00877352 0.0086112 0.00843873 0.00825609 0.00806329 0.00786034 0.00764723 0.00742395 0.0071947 0.00696365 0.00673079 0.00649613 0.00625966 0.0060214 0.00578133 0.00553946 0.00529867 0.00506186 0.00482901 0.00460014 0.00437524 0.00415431 0.00393735 0.00372436 0.0035167 0.00331574 0.00312146 0.00293388 0.00275298 0.00257877 0.00241126 0.00225043 0.00209636 0.0019491 0.00180864 0.001675 0.00154818 0.00142816 0.00131496 0.00120857 0.0011083 0.00101346 0.000924057 0.000840088 0.000761552 0.00068845 0.000620782 0.000558547 0.000500899 0.000446991 0.000396824 0.000350398 0.000307712 0.000268766 0.000233561 0.000202096 0.000173709 0.000147736 0.000124178 0.000103034 8.43049e-05 6.799e-05 5.40896e-05 4.26037e-05 3.29558e-05 2.45695e-05 1.74448e-05 1.15816e-05 6.97995e-06 3.6399e-06 1.56142e-06 7.44512e-07 5.70017e-07 4.18788e-07 2.90825e-07 1.86128e-07 1.04697e-07 4.6532e-08 1.1633e-08 0 0 2.79265e-05 0.000111706 0.000251339 0.000446824 0.000698163 0.00100535 0.0013684 0.0017873 0.00226195 0.00279225 0.0033782 0.00401981 0.00471707 0.00546998 0.00627854 0.00714275 0.0080323 0.00891686 0.00979644 0.010671 0.0115406 0.0124053 0.0132649 0.0141195 0.0149477 0.015728 0.0164602 0.0171446 0.017781 0.0183694 0.0189099 0.0194025 0.0198428 0.0202265 0.0205537 0.0208244 0.0210385 0.0211961 0.0212971 0.0213416 0.0213362 0.0212873 0.021195 0.0210594 0.0208803 0.0206579 0.020392 0.0200828 0.0197404 0.0193752 0.0189871 0.0185762 0.0181424 0.0176858 0.0172063 0.0167039 0.0161881 0.0156682 0.0151443 0.0146163 0.0140842 0.0135481 0.013008 0.0124638 0.011922 0.0113892 0.0108653 0.0103503 0.00984428 0.00934719 0.00885903 0.00837981 0.00791258 0.00746041 0.00702329 0.00660122 0.0061942 0.00580224 0.00542533 0.00506347 0.00471681 0.00438546 0.00406945 0.00376876 0.0034834 0.00321336 0.00295865 0.00271927 0.00249367 0.00228028 0.00207913 0.0018902 0.00171349 0.00154901 0.00139676 0.00125673 0.00112702 0.00100573 0.000892855 0.000788395 0.000692351 0.000604723 0.000525512 0.000454716 0.000390845 0.000332407 0.0002794 0.000231827 0.000189686 0.000152978 0.000121702 9.58584e-05 7.41506e-05 5.52814e-05 3.92507e-05 2.60585e-05 1.57049e-05 8.18979e-06 3.51321e-06 1.67515e-06 1.28254e-06 9.42274e-07 6.54357e-07 4.18788e-07 2.35568e-07 1.04697e-07 2.61743e-08 0 0 4.96471e-05 0.000198589 0.000446824 0.000794354 0.00124118 0.0017873 0.00243271 0.00317742 0.00402124 0.004964 0.00600569 0.00714633 0.0083859 0.0097244 0.0111618 0.0126982 0.0142796 0.0158522 0.0174159 0.0189707 0.0205167 0.0220538 0.023582 0.0251014 0.0265737 0.0279608 0.0292627 0.0304793 0.0316106 0.0326567 0.0336176 0.0344933 0.035276 0.0359583 0.03654 0.0370212 0.0374018 0.037682 0.0378616 0.0379407 0.0379309 0.0378441 0.03768 0.0374389 0.0371205 0.0367251 0.0362525 0.0357027 0.0350941 0.0344448 0.0337549 0.0330244 0.0322532 0.0314414 0.0305889 0.0296958 0.0287788 0.0278546 0.0269231 0.0259845 0.0250387 0.0240856 0.0231253 0.0221578 0.0211947 0.0202474 0.019316 0.0184006 0.0175009 0.0166172 0.0157494 0.0148974 0.0140668 0.013263 0.0124858 0.0117355 0.0110119 0.0103151 0.00964503 0.00900173 0.00838543 0.00779638 0.00723458 0.00670002 0.00619271 0.00571265 0.00525983 0.00483426 0.00443318 0.00405384 0.00369623 0.00336035 0.00304621 0.0027538 0.00248313 0.00223419 0.0020036 0.00178797 0.0015873 0.00140159 0.00123085 0.00107506 0.000934243 0.000808385 0.000694836 0.000590945 0.000496712 0.000412137 0.000337219 0.00027196 0.000216358 0.000170415 0.000131823 9.8278e-05 6.9779e-05 4.63263e-05 2.79198e-05 1.45596e-05 6.2457e-06 2.97805e-06 2.28007e-06 1.67515e-06 1.1633e-06 7.44512e-07 4.18788e-07 1.86128e-07 4.6532e-08 0 0 7.75736e-05 0.000310295 0.000698163 0.00124118 0.00193934 0.00279265 0.00380111 0.00496471 0.00628319 0.00775625 0.0093839 0.0111661 0.013103 0.0151944 0.0174404 0.019841 0.0223119 0.0247691 0.0272123 0.0296417 0.0320573 0.034459 0.0368469 0.0392209 0.0415214 0.0436888 0.0457229 0.0476238 0.0493916 0.0510262 0.0525275 0.0538957 0.0551188 0.0561848 0.0570937 0.0578456 0.0584404 0.0588781 0.0591587 0.0592823 0.0592671 0.0591313 0.0588751 0.0584982 0.0580009 0.0573829 0.0566445 0.0557855 0.0548345 0.05382 0.052742 0.0516006 0.0503956 0.0491271 0.0477952 0.0463997 0.0449669 0.0435228 0.0420674 0.0406008 0.0391229 0.0376337 0.0361333 0.0346216 0.0331167 0.0316366 0.0301813 0.0287509 0.0273452 0.0259644 0.0246084 0.0232773 0.0219794 0.0207234 0.0195091 0.0183367 0.0172061 0.0161173 0.0150704 0.0140652 0.0131022 0.0121818 0.011304 0.0104688 0.00967611 0.00892601 0.00821848 0.00755353 0.00692685 0.00633412 0.00577536 0.00525055 0.0047597 0.00430281 0.00387989 0.00349092 0.00313062 0.0027937 0.00248015 0.00218999 0.0019232 0.00167979 0.00145976 0.0012631 0.00108568 0.000923351 0.000776112 0.000643964 0.000526905 0.000424938 0.00033806 0.000266273 0.000205974 0.000153559 0.00010903 7.23848e-05 4.36247e-05 2.27494e-05 9.7589e-06 4.6532e-06 3.56261e-06 2.61743e-06 1.81766e-06 1.1633e-06 6.54357e-07 2.90825e-07 7.27063e-08 0 0 0.000111706 0.000446824 0.00100535 0.0017873 0.00279265 0.00402142 0.0054736 0.00714919 0.00904779 0.011169 0.0135128 0.0160792 0.0188683 0.0218799 0.0251142 0.028571 0.0321292 0.0356674 0.0391857 0.0426841 0.0461625 0.049621 0.0530595 0.0564781 0.0597909 0.0629118 0.065841 0.0685783 0.0711239 0.0734777 0.0756397 0.0776098 0.0793711 0.0809061 0.0822149 0.0832976 0.0841541 0.0847844 0.0851886 0.0853665 0.0853446 0.0851491 0.0847801 0.0842374 0.0835212 0.0826314 0.0815681 0.0803311 0.0789617 0.0775008 0.0759485 0.0743048 0.0725696 0.0707431 0.068825 0.0668156 0.0647523 0.0626728 0.0605771 0.0584651 0.056337 0.0541926 0.052032 0.0498551 0.047688 0.0455567 0.0434611 0.0414012 0.0393771 0.0373888 0.0354361 0.0335192 0.0316503 0.0298416 0.0280932 0.0264049 0.0247768 0.023209 0.0217013 0.0202539 0.0188672 0.0175419 0.0162778 0.015075 0.0139336 0.0128535 0.0118346 0.0108771 0.00997466 0.00912113 0.00831651 0.00756079 0.00685397 0.00619605 0.00558704 0.00502692 0.00450809 0.00402292 0.00357142 0.00315358 0.0027694 0.00241889 0.00210205 0.00181887 0.00156338 0.00132963 0.0011176 0.000927308 0.000758744 0.00061191 0.000486807 0.000383433 0.000296602 0.000221126 0.000157003 0.000104234 6.28196e-05 3.27591e-05 1.40528e-05 6.70061e-06 5.13016e-06 3.76909e-06 2.61743e-06 1.67515e-06 9.42274e-07 4.18788e-07 1.04697e-07 0 0 0.000152044 0.000608177 0.0013684 0.00243271 0.00380111 0.0054736 0.00745017 0.00973084 0.012315 0.0152022 0.0183924 0.0218856 0.0256818 0.029781 0.0341832 0.0388883 0.0437314 0.0485473 0.0533362 0.0580978 0.0628323 0.0675397 0.0722199 0.076873 0.081382 0.08563 0.0896169 0.0933427 0.0968075 0.100011 0.102954 0.105636 0.108033 0.110122 0.111904 0.113377 0.114543 0.115401 0.115951 0.116193 0.116164 0.115897 0.115395 0.114657 0.113682 0.112471 0.111023 0.10934 0.107476 0.105487 0.103374 0.101137 0.0987753 0.0962892 0.0936785 0.0909434 0.0881351 0.0853047 0.0824521 0.0795775 0.0766809 0.0737621 0.0708213 0.0678584 0.0649087 0.0620077 0.0591554 0.0563517 0.0535967 0.0508903 0.0482325 0.0456234 0.0430796 0.0406178 0.0382379 0.03594 0.033724 0.03159 0.0295379 0.0275678 0.0256804 0.0238764 0.0221559 0.0205188 0.0189652 0.017495 0.0161082 0.0148049 0.0135766 0.0124149 0.0113197 0.0102911 0.00932901 0.00843352 0.00760458 0.0068422 0.00613601 0.00547564 0.0048611 0.00429237 0.00376947 0.00329238 0.00286112 0.00247568 0.00212793 0.00180977 0.00152118 0.00126217 0.00103273 0.000832878 0.000662598 0.000521896 0.000403709 0.000300976 0.000213698 0.000141874 8.55044e-05 4.45888e-05 1.91275e-05 9.12028e-06 6.98271e-06 5.13016e-06 3.56261e-06 2.28007e-06 1.28254e-06 5.70017e-07 1.42504e-07 0 0 0.000198589 0.000794354 0.0017873 0.00317742 0.00496471 0.00714919 0.00973084 0.0127097 0.016085 0.019856 0.0240228 0.0285853 0.0335436 0.0388976 0.0446474 0.0507929 0.0571186 0.0634088 0.0696635 0.0758829 0.0820667 0.0882151 0.0943281 0.100406 0.106295 0.111843 0.117051 0.121917 0.126442 0.130627 0.13447 0.137973 0.141104 0.143833 0.14616 0.148085 0.149607 0.150728 0.151446 0.151763 0.151724 0.151376 0.15072 0.149755 0.148482 0.1469 0.14501 0.142811 0.140376 0.137779 0.13502 0.132097 0.129013 0.125765 0.122356 0.118783 0.115115 0.111418 0.107693 0.103938 0.100155 0.0963424 0.0925013 0.0886313 0.0847787 0.0809897 0.0772642 0.0736022 0.0700038 0.0664689 0.0629976 0.0595898 0.0562673 0.0530518 0.0499434 0.046942 0.0440477 0.0412604 0.0385801 0.0360069 0.0335417 0.0311855 0.0289383 0.0268001 0.0247708 0.0228506 0.0210393 0.019337 0.0177327 0.0162154 0.0147849 0.0134414 0.0121848 0.0110152 0.00993251 0.00893675 0.00801438 0.00715186 0.00634919 0.00560636 0.00492339 0.00430026 0.00373697 0.00323354 0.00277934 0.00236378 0.00198685 0.00164855 0.00134888 0.00108784 0.000865434 0.000681659 0.000527293 0.000393112 0.000279116 0.000185305 0.000111679 5.82385e-05 2.49828e-05 1.19122e-05 9.12028e-06 6.70061e-06 4.6532e-06 2.97805e-06 1.67515e-06 7.44512e-07 1.86128e-07 0 0 0.000251954 0.00100782 0.00226759 0.00403127 0.00629885 0.00907035 0.0123458 0.0161251 0.0204055 0.0251841 0.030461 0.0362361 0.0425095 0.0492811 0.056551 0.0643192 0.0723135 0.0802619 0.0881644 0.0960209 0.103832 0.111596 0.119315 0.126988 0.134423 0.141427 0.148001 0.154145 0.159858 0.165141 0.169993 0.174415 0.178368 0.181814 0.184753 0.187185 0.18911 0.190527 0.191438 0.191841 0.191796 0.191362 0.190538 0.189326 0.187724 0.185733 0.183353 0.180583 0.177516 0.174244 0.170766 0.167083 0.163194 0.1591 0.1548 0.150295 0.145669 0.141006 0.136305 0.131568 0.126793 0.121982 0.117133 0.112247 0.107383 0.102598 0.0978921 0.0932661 0.0887197 0.0842529 0.0798655 0.0755578 0.0713571 0.0672912 0.0633601 0.0595637 0.0559021 0.0523752 0.0489831 0.0457257 0.0426044 0.0396208 0.0367746 0.0340661 0.0314951 0.0290616 0.0267657 0.0246074 0.0225728 0.0206482 0.0188335 0.0171287 0.0155339 0.0140491 0.0126742 0.0114092 0.0102372 0.00914089 0.00812044 0.0071758 0.00630698 0.00551396 0.00479676 0.00415537 0.00357637 0.00304636 0.00256532 0.00213327 0.00175019 0.0014161 0.00113098 0.000894843 0.000696048 0.000522955 0.000375563 0.000253873 0.000157885 8.75981e-05 4.30131e-05 2.41298e-05 1.84744e-05 1.3573e-05 9.42572e-06 6.03246e-06 3.39326e-06 1.50811e-06 3.77029e-07 0 0 0.000312757 0.00125103 0.00281481 0.00500411 0.00781892 0.0112592 0.0153251 0.0200164 0.0253245 0.0312404 0.0377642 0.0448959 0.0526355 0.060983 0.0699383 0.0795015 0.0893389 0.0991167 0.108835 0.118494 0.128093 0.137633 0.147113 0.156533 0.16566 0.174258 0.182328 0.18987 0.196884 0.203369 0.209326 0.214754 0.219608 0.223841 0.227453 0.230443 0.232813 0.234561 0.235688 0.236194 0.23615 0.23563 0.234633 0.233159 0.231208 0.22878 0.225875 0.222494 0.218747 0.214747 0.210495 0.20599 0.201231 0.19622 0.190956 0.18544 0.179773 0.174059 0.168297 0.162488 0.156632 0.150728 0.144777 0.138779 0.132805 0.126926 0.121144 0.115457 0.109866 0.10437 0.0989707 0.0936668 0.0884931 0.0834837 0.0786386 0.0739579 0.0694415 0.0650895 0.0609018 0.0568785 0.0530217 0.0493337 0.0458145 0.042464 0.0392823 0.0362694 0.0334253 0.0307499 0.0282266 0.0258389 0.0235867 0.02147 0.0194888 0.0176431 0.0159329 0.0143583 0.0128983 0.0115321 0.0102596 0.00908095 0.00799606 0.00700496 0.00610763 0.00530409 0.00457779 0.0039122 0.00330732 0.00276315 0.00227969 0.00185694 0.0014949 0.00119357 0.000938667 0.000715927 0.000525347 0.000366925 0.000240662 0.000146558 8.46128e-05 5.48266e-05 4.19767e-05 3.084e-05 2.14167e-05 1.37067e-05 7.71e-06 3.42667e-06 8.56666e-07 0 0 0.000380996 0.00152399 0.00342897 0.00609594 0.00952491 0.0137159 0.0186688 0.0243838 0.030842 0.0380249 0.0459325 0.0545647 0.0639215 0.074003 0.0848092 0.0963399 0.108195 0.119973 0.131676 0.143301 0.154851 0.166324 0.177721 0.189041 0.200006 0.210336 0.220032 0.229093 0.237519 0.245311 0.252469 0.258991 0.264825 0.269914 0.274259 0.27786 0.280716 0.282829 0.284197 0.284821 0.284787 0.284182 0.283005 0.281256 0.278935 0.276043 0.272579 0.268543 0.264069 0.25929 0.254207 0.248818 0.243125 0.237127 0.230824 0.224216 0.217427 0.210577 0.203668 0.196699 0.18967 0.182582 0.175434 0.168226 0.161045 0.153976 0.147019 0.140174 0.133441 0.126821 0.120313 0.113917 0.107675 0.101629 0.0957788 0.0901244 0.0846659 0.0794032 0.0743363 0.0694653 0.0647935 0.0603244 0.0560579 0.051994 0.0481327 0.044474 0.041018 0.0377645 0.0346943 0.0317876 0.0290446 0.0264652 0.0240494 0.0217973 0.0197088 0.0177839 0.0159978 0.0143254 0.0127667 0.0113218 0.00999064 0.00877324 0.0076696 0.0066797 0.0057836 0.00496132 0.00421285 0.00353821 0.00293738 0.00241038 0.00195719 0.00157783 0.00125515 0.00097203 0.000728466 0.00052446 0.00036001 0.000235118 0.000149782 0.000104003 7.9627e-05 5.85015e-05 4.0626e-05 2.60007e-05 1.46254e-05 6.50016e-06 1.62504e-06 0 0 0.000456673 0.00182669 0.00411006 0.00730677 0.0114168 0.0164402 0.022377 0.0292271 0.0369581 0.0455377 0.0549658 0.0652425 0.0763676 0.0883414 0.101164 0.114834 0.128881 0.142832 0.156686 0.170444 0.184105 0.19767 0.211139 0.224511 0.23746 0.24966 0.261111 0.271813 0.281765 0.290968 0.299421 0.307126 0.314017 0.320032 0.325172 0.329434 0.332821 0.335332 0.336966 0.337724 0.337707 0.337016 0.335653 0.333615 0.330904 0.32752 0.323462 0.318731 0.313482 0.307872 0.301901 0.295569 0.288875 0.28182 0.274403 0.266626 0.25863 0.250561 0.242417 0.2342 0.225908 0.217543 0.209103 0.20059 0.192103 0.183746 0.175518 0.167418 0.159447 0.151605 0.143892 0.136308 0.128903 0.121727 0.114781 0.108063 0.101575 0.0953164 0.0892867 0.0834862 0.0779199 0.0725928 0.0675047 0.0626558 0.058046 0.0536754 0.0495438 0.0456514 0.0419757 0.0384942 0.0352071 0.0321143 0.0292158 0.0265116 0.0240018 0.0216862 0.0195356 0.0175208 0.0156417 0.0138983 0.0122907 0.0108188 0.00948264 0.00828221 0.0071938 0.0061937 0.00528191 0.00445843 0.00372326 0.0030764 0.00251786 0.00204763 0.0016455 0.00129126 0.000984922 0.000726479 0.00051593 0.000353277 0.00023852 0.000171658 0.000131426 9.65575e-05 6.70538e-05 4.29145e-05 2.41394e-05 1.07286e-05 2.68215e-06 0 0 0.000539787 0.00215915 0.00485808 0.00863659 0.0134947 0.0194323 0.0264495 0.0345463 0.0436727 0.0537786 0.0648641 0.0769292 0.0899738 0.103998 0.119002 0.134985 0.151398 0.167692 0.183866 0.199921 0.215856 0.231671 0.247367 0.262943 0.278023 0.292231 0.305567 0.31803 0.32962 0.340338 0.350184 0.359157 0.367186 0.374197 0.380191 0.385167 0.389127 0.392069 0.393993 0.394901 0.394909 0.394134 0.392577 0.390238 0.387116 0.383212 0.378526 0.373058 0.366987 0.360494 0.353578 0.346241 0.338481 0.330299 0.321694 0.312667 0.303384 0.29401 0.284546 0.274992 0.265347 0.255611 0.245785 0.235869 0.22598 0.216237 0.20664 0.197189 0.187883 0.178723 0.169709 0.160841 0.152177 0.143779 0.135645 0.127775 0.12017 0.112829 0.105753 0.0989412 0.0924009 0.0861389 0.0801551 0.0744497 0.0690224 0.0638735 0.0590028 0.0544104 0.0500708 0.0459588 0.0420744 0.0384174 0.034988 0.0317861 0.0288118 0.026065 0.0235118 0.0211184 0.0188846 0.0168106 0.0148963 0.0131417 0.0115468 0.0101116 0.00880838 0.00760934 0.00651449 0.00552381 0.00463732 0.00385502 0.0031769 0.00260296 0.00210971 0.00167362 0.00129471 0.000972981 0.000708422 0.000501037 0.000350827 0.000257792 0.000197372 0.000145008 0.0001007 6.4448e-05 3.6252e-05 1.6112e-05 4.028e-06 0 0 0.000630337 0.00252135 0.00567304 0.0100854 0.0157584 0.0226921 0.0308865 0.0403416 0.0509858 0.0627478 0.0756275 0.0896249 0.10474 0.120973 0.138323 0.156792 0.175746 0.194554 0.213216 0.231733 0.250103 0.268327 0.286406 0.304338 0.321696 0.338049 0.353399 0.367744 0.381086 0.393423 0.404757 0.415086 0.42433 0.432407 0.439316 0.445058 0.449633 0.45304 0.45528 0.456353 0.456393 0.455534 0.453778 0.451123 0.44757 0.443119 0.43777 0.431523 0.424583 0.417154 0.409238 0.400835 0.391943 0.382563 0.372696 0.362341 0.351688 0.340925 0.330054 0.319074 0.307985 0.296787 0.28548 0.274064 0.262675 0.251449 0.240386 0.229486 0.218749 0.208174 0.197763 0.187514 0.177498 0.167783 0.15837 0.149259 0.140449 0.131941 0.123735 0.11583 0.108236 0.100963 0.0940091 0.0873755 0.0810619 0.0750684 0.0693949 0.0640415 0.0589798 0.0541813 0.0496462 0.0453744 0.041366 0.0376208 0.034139 0.0309204 0.0279264 0.0251181 0.0224955 0.0200585 0.0178073 0.0157418 0.013862 0.0121679 0.0106274 0.00920826 0.00791059 0.00673437 0.00567958 0.00474623 0.00393431 0.00324384 0.00264778 0.00211911 0.00165784 0.00126397 0.000937485 0.000678397 0.000486704 0.000362406 0.000277467 0.000203853 0.000141565 9.06014e-05 5.09633e-05 2.26504e-05 5.66259e-06 0 0 0.000728325 0.0029133 0.00655492 0.0116532 0.0182081 0.0262197 0.0356879 0.0466128 0.0588975 0.0724452 0.0872559 0.10333 0.120666 0.139266 0.159129 0.180254 0.201924 0.223418 0.244736 0.265879 0.286846 0.307638 0.328255 0.348695 0.368476 0.387114 0.404607 0.420956 0.436161 0.450222 0.46314 0.474913 0.485451 0.494663 0.502548 0.509107 0.51434 0.518246 0.520826 0.522079 0.522159 0.521218 0.519255 0.516272 0.512267 0.507242 0.501195 0.494127 0.486269 0.477854 0.468881 0.45935 0.449261 0.438614 0.42741 0.415647 0.403541 0.391306 0.378941 0.366446 0.353823 0.341069 0.328187 0.315175 0.302188 0.289382 0.276756 0.26431 0.252044 0.239959 0.228054 0.216329 0.204864 0.19374 0.182957 0.172515 0.162413 0.152653 0.143233 0.134153 0.125427 0.117064 0.109067 0.101433 0.0941644 0.0872601 0.0807202 0.0745448 0.0687025 0.0631618 0.0579228 0.0529854 0.0483497 0.0440156 0.0399832 0.0362524 0.0327793 0.0295199 0.0264742 0.0236422 0.0210239 0.0186192 0.0164283 0.0144511 0.0126507 0.0109904 0.00947023 0.00809009 0.00685002 0.00575003 0.0047901 0.00397025 0.00325972 0.00262773 0.00207431 0.00159944 0.00120312 0.000885357 0.00064615 0.000485498 0.00037171 0.000273093 0.000189648 0.000121375 6.82732e-05 3.03436e-05 7.58591e-06 0 0 0.000833749 0.003335 0.00750375 0.01334 0.0208437 0.030015 0.0408537 0.05336 0.0674077 0.0828708 0.0997493 0.118043 0.137753 0.158877 0.181418 0.205373 0.229932 0.254283 0.278426 0.30236 0.326086 0.349604 0.372914 0.396015 0.418366 0.439425 0.459191 0.477665 0.494847 0.510736 0.525332 0.538637 0.550548 0.560965 0.569887 0.577314 0.583248 0.587687 0.590631 0.592081 0.592208 0.591184 0.589009 0.585684 0.581207 0.575579 0.568799 0.560869 0.552048 0.542593 0.532507 0.521787 0.510436 0.498452 0.485835 0.472586 0.458945 0.445152 0.431207 0.41711 0.402861 0.38846 0.373907 0.359202 0.34452 0.330036 0.315749 0.301661 0.28777 0.274077 0.260582 0.247284 0.234276 0.221651 0.209406 0.197544 0.186063 0.174964 0.164246 0.15391 0.143971 0.134444 0.125327 0.116623 0.10833 0.100449 0.0929786 0.0859203 0.079239 0.0729002 0.066904 0.0612503 0.0559392 0.0509706 0.0463445 0.042061 0.0380706 0.0343239 0.0308209 0.0275615 0.0245459 0.021774 0.0192457 0.0169611 0.0148785 0.0129559 0.0111934 0.00959097 0.00814865 0.00686641 0.00574427 0.00478221 0.00394552 0.00319949 0.00254411 0.00197939 0.00150533 0.00112192 0.000829166 0.00062707 0.000480101 0.000352727 0.000244949 0.000156768 8.81817e-05 3.91919e-05 9.79797e-06 0 0 0.000944096 0.00377638 0.00849687 0.0151055 0.0236024 0.0339875 0.0462607 0.0604222 0.0763135 0.0937765 0.112811 0.133417 0.155595 0.179345 0.204666 0.231558 0.259115 0.286427 0.313494 0.340317 0.366896 0.393231 0.419321 0.445167 0.470167 0.493722 0.515831 0.536493 0.55571 0.57348 0.589805 0.604683 0.618005 0.629661 0.63965 0.647972 0.654628 0.659616 0.662939 0.664594 0.664774 0.663671 0.661283 0.657612 0.652657 0.646418 0.638895 0.630088 0.620285 0.609772 0.59855 0.586619 0.573978 0.560628 0.546569 0.5318 0.516588 0.5012 0.485636 0.469895 0.453978 0.437885 0.421615 0.405169 0.388741 0.372529 0.356531 0.340747 0.325178 0.309823 0.294683 0.279758 0.265151 0.250967 0.237206 0.223868 0.210954 0.198462 0.186393 0.174748 0.163544 0.1528 0.142515 0.132691 0.123326 0.114422 0.105977 0.0979923 0.09043 0.0832527 0.0764604 0.0700531 0.0640308 0.0583934 0.0531411 0.0482738 0.0437365 0.0394743 0.0354871 0.031775 0.0283379 0.0251759 0.0222889 0.0196771 0.0172933 0.0150906 0.013069 0.0112286 0.00956921 0.00809098 0.00679387 0.00567787 0.00470421 0.0038341 0.00306754 0.00240453 0.00184508 0.00138919 0.00103684 0.000788054 0.000603353 0.00044328 0.000307833 0.000197013 0.00011082 4.92533e-05 1.23133e-05 0 0 0.00105685 0.0042274 0.00951165 0.0169096 0.0264212 0.0380466 0.0517856 0.0676384 0.0854121 0.104914 0.126144 0.149103 0.17379 0.200205 0.228348 0.25822 0.288814 0.319123 0.349149 0.378891 0.408349 0.437523 0.466413 0.49502 0.522683 0.548744 0.573204 0.596062 0.617319 0.636973 0.655026 0.671477 0.686208 0.699101 0.710156 0.719372 0.72675 0.732291 0.735992 0.737856 0.738093 0.736915 0.734321 0.730312 0.724887 0.718047 0.709792 0.700122 0.689351 0.677793 0.665449 0.652318 0.638401 0.623698 0.608208 0.591932 0.575161 0.558188 0.541013 0.523635 0.506055 0.488272 0.470287 0.4521 0.433925 0.415981 0.398265 0.380779 0.363521 0.346494 0.329695 0.313126 0.296903 0.281143 0.265846 0.251013 0.236643 0.222736 0.209293 0.196312 0.183818 0.171831 0.160353 0.149383 0.138922 0.128968 0.119523 0.110585 0.102116 0.0940755 0.0864625 0.0792776 0.0725207 0.0661919 0.0602911 0.0548184 0.0497132 0.0449152 0.0404244 0.0362408 0.0323643 0.028795 0.0255328 0.0225778 0.0198777 0.0173805 0.015086 0.0129943 0.0111054 0.00941932 0.00793598 0.00665542 0.00553481 0.0045313 0.00364489 0.00287558 0.00222338 0.00168828 0.00127028 0.00096938 0.000742182 0.000545277 0.000378664 0.000242345 0.000136319 6.05863e-05 1.51466e-05 0 0 0.00117201 0.00468804 0.0105481 0.0187522 0.0293003 0.0421924 0.0574285 0.0750087 0.0947035 0.116284 0.139749 0.1651 0.192337 0.221458 0.252465 0.285358 0.319029 0.352374 0.385391 0.418082 0.450445 0.482482 0.514191 0.545573 0.575913 0.604492 0.631312 0.656372 0.679673 0.701214 0.720996 0.739018 0.755156 0.769285 0.781404 0.791515 0.799616 0.805709 0.809792 0.811867 0.812164 0.810916 0.808122 0.803782 0.797897 0.790467 0.781491 0.77097 0.759244 0.746654 0.733201 0.718884 0.703704 0.68766 0.670753 0.652982 0.634664 0.616116 0.597338 0.57833 0.559091 0.539623 0.519924 0.499995 0.480072 0.460391 0.440952 0.421755 0.4028 0.384088 0.365617 0.347388 0.329532 0.312178 0.295326 0.278977 0.26313 0.247786 0.232943 0.218603 0.204793 0.191539 0.178841 0.1667 0.155115 0.144087 0.133615 0.1237 0.114298 0.105368 0.0969103 0.0889239 0.0814091 0.074366 0.0677945 0.0616948 0.0560008 0.0506469 0.0456329 0.040959 0.0366251 0.0326311 0.0289772 0.0256633 0.0226319 0.0198256 0.0172445 0.0148884 0.0127573 0.0108514 0.0091706 0.00771486 0.00643732 0.00529109 0.00427616 0.00339253 0.0026402 0.00201918 0.00152947 0.00117105 0.000896586 0.000658716 0.000457442 0.000292763 0.000164679 7.31907e-05 1.82977e-05 0 0 0.00128958 0.00515831 0.0116062 0.0206333 0.0322395 0.0464248 0.0631894 0.082533 0.104188 0.127885 0.153626 0.181409 0.211236 0.243105 0.277017 0.312972 0.349762 0.386178 0.42222 0.457889 0.493184 0.528106 0.562654 0.596829 0.629856 0.660965 0.690154 0.717423 0.742773 0.766204 0.787715 0.807306 0.824849 0.840212 0.853396 0.8644 0.873225 0.879872 0.884339 0.886626 0.886987 0.885674 0.882686 0.878024 0.871687 0.863676 0.853991 0.842632 0.829965 0.816357 0.801808 0.786318 0.769887 0.752516 0.734203 0.71495 0.695097 0.674984 0.654611 0.633979 0.613087 0.591936 0.570525 0.548854 0.52718 0.505759 0.484591 0.463676 0.443014 0.422605 0.402449 0.382546 0.363039 0.344073 0.325647 0.307761 0.290416 0.273611 0.257346 0.241622 0.22647 0.211922 0.19798 0.184642 0.171908 0.159779 0.148255 0.137335 0.126975 0.117132 0.107804 0.0989919 0.0906959 0.0829157 0.0756514 0.068903 0.0625993 0.0566691 0.0511126 0.0459296 0.0411203 0.0366845 0.0326223 0.0289336 0.0255558 0.022426 0.0195443 0.0169106 0.0145249 0.0123873 0.0104977 0.00885619 0.00741175 0.00611347 0.00496135 0.00395538 0.00309557 0.00238191 0.00181441 0.00139307 0.00106657 0.000783599 0.000544166 0.000348266 0.0001959 8.70666e-05 2.17666e-05 0 0 0.00140955 0.00563821 0.012686 0.0225529 0.0352388 0.0507439 0.0690681 0.0902114 0.113865 0.139719 0.167774 0.19803 0.230487 0.265145 0.302003 0.341063 0.381011 0.420536 0.459636 0.498313 0.536567 0.574397 0.611803 0.648785 0.684515 0.718163 0.74973 0.779215 0.806619 0.831942 0.855183 0.876342 0.895287 0.911882 0.92613 0.938028 0.947578 0.954779 0.959631 0.962134 0.962563 0.961189 0.958014 0.953036 0.946257 0.937676 0.927293 0.915108 0.901513 0.8869 0.871269 0.854619 0.836951 0.818264 0.798559 0.777836 0.756459 0.734791 0.712832 0.690582 0.668042 0.645211 0.62209 0.598678 0.575251 0.552087 0.529184 0.506543 0.484164 0.462046 0.440191 0.418597 0.397423 0.376826 0.356807 0.337364 0.318499 0.300211 0.2825 0.265366 0.248848 0.232982 0.217768 0.203207 0.189299 0.176044 0.163441 0.151491 0.140148 0.129365 0.119143 0.109482 0.100381 0.091841 0.0838617 0.076443 0.0695085 0.062982 0.0568634 0.0511527 0.0458499 0.0409549 0.0364679 0.0323887 0.0286494 0.0251816 0.0219855 0.019061 0.0164082 0.0140269 0.0119174 0.0100794 0.00845809 0.00699844 0.00570046 0.00456413 0.00358946 0.00277646 0.00212511 0.00163542 0.00125212 0.000919926 0.000638837 0.000408856 0.000229981 0.000102214 2.55535e-05 0 0 0.00153194 0.00612774 0.0137874 0.024511 0.0382984 0.0551497 0.0750649 0.0980439 0.123735 0.151784 0.182194 0.214962 0.25009 0.287578 0.327424 0.36963 0.412777 0.455447 0.497639 0.539354 0.580592 0.621353 0.661636 0.701442 0.739887 0.776086 0.81004 0.841748 0.87121 0.898428 0.923399 0.946125 0.96647 0.984297 0.999606 1.0124 1.02267 1.03043 1.03567 1.03839 1.03889 1.03746 1.0341 1.02882 1.02161 1.01247 1.0014 0.988399 0.97389 0.958285 0.941584 0.923787 0.904894 0.884905 0.863821 0.841641 0.818751 0.795537 0.772001 0.74814 0.723957 0.69945 0.674619 0.649466 0.624284 0.599372 0.574729 0.550354 0.526248 0.502411 0.478843 0.455544 0.432685 0.41044 0.388807 0.367788 0.347381 0.327587 0.308406 0.289838 0.271927 0.254717 0.238207 0.222398 0.207289 0.192882 0.179175 0.166169 0.153816 0.142069 0.130928 0.120393 0.110465 0.101142 0.0924253 0.0843148 0.0767287 0.0695856 0.0628854 0.0566281 0.0508139 0.0454425 0.0405141 0.0360287 0.0319126 0.0280924 0.0245681 0.0213397 0.0184071 0.0157704 0.0134295 0.0113845 0.00957635 0.00794601 0.00649349 0.00521878 0.00412189 0.00320282 0.00246156 0.00189813 0.00145325 0.0010677 0.000741455 0.000474531 0.000266924 0.000118633 2.96582e-05 0 0 0.00165673 0.0066269 0.0149105 0.0265076 0.0414181 0.0596421 0.0811795 0.10603 0.133797 0.164082 0.196885 0.232206 0.270046 0.310404 0.35328 0.398674 0.44506 0.490912 0.536229 0.581012 0.625261 0.668975 0.712155 0.754801 0.795973 0.834734 0.871084 0.905022 0.936548 0.965662 0.992365 1.01666 1.0384 1.05745 1.07383 1.08751 1.09851 1.10683 1.11245 1.1154 1.11597 1.11449 1.11096 1.10537 1.09774 1.08805 1.0763 1.0625 1.04709 1.03051 1.01275 0.993822 0.973718 0.95244 0.929988 0.906363 0.881972 0.857224 0.832117 0.806653 0.780831 0.754651 0.728113 0.701218 0.67428 0.647616 0.621226 0.59511 0.569268 0.5437 0.518405 0.493385 0.468825 0.444913 0.421648 0.39903 0.377061 0.355739 0.335064 0.315037 0.295708 0.277127 0.259296 0.242213 0.225878 0.210293 0.195455 0.181367 0.167979 0.155243 0.143159 0.131727 0.120947 0.110819 0.101342 0.0925184 0.0842597 0.0764797 0.0691785 0.062356 0.0560122 0.0501472 0.0447609 0.0398534 0.0353456 0.0311585 0.0272921 0.0237465 0.0205217 0.0176175 0.0150341 0.0127715 0.0107665 0.00895616 0.00734044 0.00591933 0.00469286 0.003661 0.00282378 0.00218117 0.00166996 0.00122691 0.00085202 0.000545293 0.000306727 0.000136323 3.40808e-05 0 0 0.00178392 0.00713569 0.0160553 0.0285427 0.044598 0.0642212 0.0874122 0.114171 0.144052 0.176612 0.211848 0.249762 0.290354 0.333623 0.37957 0.428194 0.47786 0.52693 0.575406 0.623287 0.670572 0.717263 0.763359 0.808861 0.852774 0.894108 0.932862 0.969036 1.00263 1.03364 1.06208 1.08793 1.11107 1.13136 1.14879 1.16337 1.17509 1.18397 1.18998 1.19315 1.1938 1.1922