<?xml version="1.0"?> 
<VTKFile type="StructuredGrid" version="0.1"> 
<StructuredGrid WholeExtent="0 128 0 128 0 0"> 
<Piece Extent="0 128 0 128 0 0"> 
<PointData>
<DataArray type="Float32" Name="u" format="ascii" NumberOfComponents="1"> 
0 0 0 0 0 0 0 0 0 0 0 0 0 0 0 0 0 0 0 0 0 0 0 0 0 0 0 0 0 0 0 0 0 0 0 0 0 0 0 0 0 0 0 0 0 0 0 0 0 0 0 0 0 0 0 0 0 0 0 0 0 0 0 0 0 0 0 0 0 0 0 0 0 0 0 0 0 0 0 0 0 0 0 0 0 0 0 0 0 0 0 0 0 0 0 0 0 0 0 0 0 0 0 0 0 0 0 0 0 0 0 0 0 0 0 0 0 0 0 0 0 0 0 0 0 0 0 0 0 0 7.42711e-09 2.97085e-08 6.6844e-08 1.18834e-07 1.85678e-07 2.67376e-07 3.63929e-07 4.75335e-07 4.4614e-07 1.20886e-07 -5.00426e-07 -1.4178e-06 -2.63122e-06 -4.14071e-06 -5.94626e-06 -8.04786e-06 -1.04062e-05 -1.2982e-05 -1.57751e-05 -1.87857e-05 -2.20138e-05 -2.54592e-05 -2.9122e-05 -3.30023e-05 -3.69167e-05 -4.06819e-05 -4.42979e-05 -4.77647e-05 -5.10822e-05 -5.42506e-05 -5.72698e-05 -6.01398e-05 -6.27815e-05 -6.5116e-05 -6.71432e-05 -6.88631e-05 -7.02757e-05 -7.1381e-05 -7.2179e-05 -7.26697e-05 -7.29302e-05 -7.30373e-05 -7.2991e-05 -7.27915e-05 -7.24386e-05 -7.19323e-05 -7.12728e-05 -7.04599e-05 -6.95807e-05 -6.87223e-05 -6.78845e-05 -6.70676e-05 -6.62713e-05 -6.54958e-05 -6.47411e-05 -6.40071e-05 -6.33157e-05 -6.2689e-05 -6.21268e-05 -6.16292e-05 -6.11963e-05 -6.08279e-05 -6.05242e-05 -6.0285e-05 -6.01148e-05 -6.00178e-05 -5.99941e-05 -6.00436e-05 -6.01664e-05 -6.03624e-05 -6.06317e-05 -6.09743e-05 -6.13721e-05 -6.18072e-05 -6.22796e-05 -6.27892e-05 -6.33361e-05 -6.39204e-05 -6.45418e-05 -6.52006e-05 -6.58108e-05 -6.62864e-05 -6.66275e-05 -6.6834e-05 -6.6906e-05 -6.68435e-05 -6.66465e-05 -6.63149e-05 -6.57768e-05 -6.49601e-05 -6.38647e-05 -6.24908e-05 -6.08383e-05 -5.89071e-05 -5.66974e-05 -5.42091e-05 -5.15189e-05 -4.87037e-05 -4.57633e-05 -4.26979e-05 -3.95073e-05 -3.61917e-05 -3.2751e-05 -2.91853e-05 -2.56602e-05 -2.23417e-05 -1.92297e-05 -1.63243e-05 -1.36254e-05 -1.1133e-05 -8.84715e-06 -6.76785e-06 -4.9242e-06 -3.34531e-06 -2.03117e-06 -9.81798e-07 -1.97179e-07 3.22682e-07 5.77786e-07 5.68131e-07 4.34976e-07 3.19574e-07 2.21926e-07 1.42033e-07 7.98935e-08 3.55082e-08 8.87705e-09 0 0 2.97085e-08 1.18834e-07 2.67376e-07 4.75335e-07 7.42711e-07 1.0695e-06 1.45571e-06 1.90134e-06 1.78456e-06 4.83545e-07 -2.0017e-06 -5.67118e-06 -1.05249e-05 -1.65628e-05 -2.3785e-05 -3.21914e-05 -4.16248e-05 -5.19279e-05 -6.31006e-05 -7.5143e-05 -8.8055e-05 -0.000101837 -0.000116488 -0.000132009 -0.000147667 -0.000162728 -0.000177191 -0.000191059 -0.000204329 -0.000217003 -0.000229079 -0.000240559 -0.000251126 -0.000260464 -0.000268573 -0.000275452 -0.000281103 -0.000285524 -0.000288716 -0.000290679 -0.000291721 -0.000292149 -0.000291964 -0.000291166 -0.000289754 -0.000287729 -0.000285091 -0.00028184 -0.000278323 -0.000274889 -0.000271538 -0.00026827 -0.000265085 -0.000261983 -0.000258964 -0.000256028 -0.000253263 -0.000250756 -0.000248507 -0.000246517 -0.000244785 -0.000243312 -0.000242097 -0.00024114 -0.000240459 -0.000240071 -0.000239976 -0.000240174 -0.000240665 -0.00024145 -0.000242527 -0.000243897 -0.000245488 -0.000247229 -0.000249118 -0.000251157 -0.000253345 -0.000255681 -0.000258167 -0.000260802 -0.000263243 -0.000265146 -0.00026651 -0.000267336 -0.000267624 -0.000267374 -0.000266586 -0.00026526 -0.000263107 -0.00025984 -0.000255459 -0.000249963 -0.000243353 -0.000235629 -0.00022679 -0.000216836 -0.000206076 -0.000194815 -0.000183053 -0.000170791 -0.000158029 -0.000144767 -0.000131004 -0.000116741 -0.000102641 -8.93667e-05 -7.69188e-05 -6.5297e-05 -5.45014e-05 -4.45319e-05 -3.53886e-05 -2.70714e-05 -1.96968e-05 -1.33812e-05 -8.1247e-06 -3.92719e-06 -7.88717e-07 1.29073e-06 2.31114e-06 2.27253e-06 1.7399e-06 1.2783e-06 8.87705e-07 5.68131e-07 3.19574e-07 1.42033e-07 3.55082e-08 0 0 6.6844e-08 2.67376e-07 6.01596e-07 1.0695e-06 1.6711e-06 2.40638e-06 3.27536e-06 4.27802e-06 4.01526e-06 1.08798e-06 -4.50383e-06 -1.27602e-05 -2.3681e-05 -3.72664e-05 -5.35163e-05 -7.24307e-05 -9.36558e-05 -0.000116838 -0.000141976 -0.000169072 -0.000198124 -0.000229133 -0.000262098 -0.000297021 -0.00033225 -0.000366137 -0.000398681 -0.000429882 -0.00045974 -0.000488256 -0.000515428 -0.000541258 -0.000565034 -0.000586044 -0.000604289 -0.000619768 -0.000632481 -0.000642429 -0.000649611 -0.000654028 -0.000656372 -0.000657335 -0.000656919 -0.000655123 -0.000651947 -0.000647391 -0.000641455 -0.000634139 -0.000626226 -0.0006185 -0.000610961 -0.000603608 -0.000596442 -0.000589463 -0.00058267 -0.000576064 -0.000569841 -0.000564201 -0.000559141 -0.000554663 -0.000550767 -0.000547451 -0.000544718 -0.000542565 -0.000541033 -0.00054016 -0.000539947 -0.000540392 -0.000541497 -0.000543262 -0.000545685 -0.000548768 -0.000552349 -0.000556265 -0.000560516 -0.000565103 -0.000570025 -0.000575283 -0.000580877 -0.000586806 -0.000592297 -0.000596577 -0.000599647 -0.000601506 -0.000602154 -0.000601592 -0.000599819 -0.000596834 -0.000591991 -0.000584641 -0.000574783 -0.000562417 -0.000547545 -0.000530164 -0.000510277 -0.000487882 -0.00046367 -0.000438333 -0.00041187 -0.000384281 -0.000355566 -0.000325726 -0.000294759 -0.000262667 -0.000230942 -0.000201075 -0.000173067 -0.000146918 -0.000122628 -0.000100197 -7.96243e-05 -6.09106e-05 -4.43178e-05 -3.01078e-05 -1.82806e-05 -8.83618e-06 -1.77461e-06 2.90414e-06 5.20007e-06 5.11318e-06 3.91478e-06 2.87617e-06 1.99734e-06 1.2783e-06 7.19041e-07 3.19574e-07 7.98935e-08 0 0 1.18834e-07 4.75335e-07 1.0695e-06 1.90134e-06 2.97085e-06 4.27802e-06 5.82286e-06 7.60536e-06 7.13824e-06 1.93418e-06 -8.00681e-06 -2.26847e-05 -4.20996e-05 -6.62514e-05 -9.51401e-05 -0.000128766 -0.000166499 -0.000207711 -0.000252402 -0.000300572 -0.00035222 -0.000407347 -0.000465953 -0.000528037 -0.000590667 -0.00065091 -0.000708766 -0.000764235 -0.000817316 -0.00086801 -0.000916317 -0.000962237 -0.0010045 -0.00104186 -0.00107429 -0.00110181 -0.00112441 -0.0011421 -0.00115486 -0.00116272 -0.00116688 -0.0011686 -0.00116786 -0.00116466 -0.00115902 -0.00115092 -0.00114036 -0.00112736 -0.00111329 -0.00109956 -0.00108615 -0.00107308 -0.00106034 -0.00104793 -0.00103586 -0.00102411 -0.00101305 -0.00100302 -0.000994029 -0.000986068 -0.000979141 -0.000973247 -0.000968387 -0.00096456 -0.000961836 -0.000960285 -0.000959905 -0.000960697 -0.000962662 -0.000965799 -0.000970107 -0.000975588 -0.000981953 -0.000988915 -0.000996473 -0.00100463 -0.00101338 -0.00102273 -0.00103267 -0.00104321 -0.00105297 -0.00106058 -0.00106604 -0.00106934 -0.0010705 -0.0010695 -0.00106634 -0.00106104 -0.00105243 -0.00103936 -0.00102184 -0.000999853 -0.000973412 -0.000942514 -0.000907159 -0.000867345 -0.000824303 -0.000779258 -0.000732213 -0.000683166 -0.000632118 -0.000579068 -0.000524017 -0.000466964 -0.000410563 -0.000357467 -0.000307675 -0.000261188 -0.000218006 -0.000178128 -0.000141554 -0.000108286 -7.87872e-05 -5.35249e-05 -3.24988e-05 -1.57088e-05 -3.15487e-06 5.16291e-06 9.24457e-06 9.0901e-06 6.95961e-06 5.11318e-06 3.55082e-06 2.27253e-06 1.2783e-06 5.68131e-07 1.42033e-07 0 0 1.85678e-07 7.42711e-07 1.6711e-06 2.97085e-06 4.64195e-06 6.6844e-06 9.09821e-06 1.18834e-05 1.11535e-05 3.02216e-06 -1.25106e-05 -3.54449e-05 -6.57806e-05 -0.000103518 -0.000148656 -0.000201196 -0.000260155 -0.000324549 -0.000394379 -0.000469644 -0.000550344 -0.00063648 -0.000728051 -0.000825058 -0.000922918 -0.00101705 -0.00110745 -0.00119412 -0.00127706 -0.00135627 -0.00143175 -0.0015035 -0.00156954 -0.0016279 -0.00167858 -0.00172158 -0.00175689 -0.00178452 -0.00180447 -0.00181674 -0.00182325 -0.00182593 -0.00182478 -0.00181979 -0.00181096 -0.00179831 -0.00178182 -0.0017615 -0.00173952 -0.00171806 -0.00169711 -0.00167669 -0.00165678 -0.0016374 -0.00161853 -0.00160018 -0.00158289 -0.00156722 -0.00155317 -0.00154073 -0.00152991 -0.0015207 -0.0015131 -0.00150713 -0.00150287 -0.00150044 -0.00149985 -0.00150109 -0.00150416 -0.00150906 -0.00151579 -0.00152436 -0.0015343 -0.00154518 -0.00155699 -0.00156973 -0.0015834 -0.00159801 -0.00161355 -0.00163002 -0.00164527 -0.00165716 -0.00166569 -0.00167085 -0.00167265 -0.00167109 -0.00166616 -0.00165787 -0.00164442 -0.001624 -0.00159662 -0.00156227 -0.00152096 -0.00147268 -0.00141744 -0.00135523 -0.00128797 -0.00121759 -0.00114408 -0.00106745 -0.000987684 -0.000904794 -0.000818776 -0.000729632 -0.000641505 -0.000558542 -0.000480743 -0.000408106 -0.000340634 -0.000278324 -0.000221179 -0.000169196 -0.000123105 -8.36327e-05 -5.07794e-05 -2.4545e-05 -4.92948e-06 8.06705e-06 1.44446e-05 1.42033e-05 1.08744e-05 7.98935e-06 5.54816e-06 3.55082e-06 1.99734e-06 8.87705e-07 2.21926e-07 0 0 2.67376e-07 1.0695e-06 2.40638e-06 4.27802e-06 6.6844e-06 9.62554e-06 1.31014e-05 1.71121e-05 1.6061e-05 4.3519e-06 -1.80153e-05 -5.10407e-05 -9.47241e-05 -0.000149066 -0.000214065 -0.000289723 -0.000374623 -0.000467351 -0.000567905 -0.000676287 -0.000792495 -0.000916531 -0.00104839 -0.00118808 -0.001329 -0.00146455 -0.00159472 -0.00171953 -0.00183896 -0.00195302 -0.00206171 -0.00216503 -0.00226014 -0.00234418 -0.00241715 -0.00247907 -0.00252992 -0.00256971 -0.00259844 -0.00261611 -0.00262549 -0.00262934 -0.00262768 -0.00262049 -0.00260779 -0.00258956 -0.00256582 -0.00253656 -0.00250491 -0.002474 -0.00244384 -0.00241443 -0.00238577 -0.00235785 -0.00233068 -0.00230425 -0.00227937 -0.0022568 -0.00223657 -0.00221865 -0.00220307 -0.00218981 -0.00217887 -0.00217026 -0.00216413 -0.00216064 -0.00215979 -0.00216157 -0.00216599 -0.00217305 -0.00218274 -0.00219507 -0.00220939 -0.00222506 -0.00224206 -0.00226041 -0.0022801 -0.00230113 -0.00232351 -0.00234722 -0.00236919 -0.00238631 -0.00239859 -0.00240602 -0.00240862 -0.00240637 -0.00239927 -0.00238734 -0.00236797 -0.00233856 -0.00229913 -0.00224967 -0.00219018 -0.00212066 -0.00204111 -0.00195153 -0.00185468 -0.00175333 -0.00164748 -0.00153712 -0.00142226 -0.0013029 -0.00117904 -0.00105067 -0.000923767 -0.000804301 -0.000692269 -0.000587673 -0.000490513 -0.000400787 -0.000318497 -0.000243643 -0.000177271 -0.000120431 -7.31223e-05 -3.53447e-05 -7.09845e-06 1.16165e-05 2.08003e-05 2.04527e-05 1.56591e-05 1.15047e-05 7.98935e-06 5.11318e-06 2.87617e-06 1.2783e-06 3.19574e-07 0 0 3.63929e-07 1.45571e-06 3.27536e-06 5.82286e-06 9.09821e-06 1.31014e-05 1.78325e-05 2.32914e-05 2.18609e-05 5.92342e-06 -2.45209e-05 -6.9472e-05 -0.00012893 -0.000202895 -0.000291367 -0.000394345 -0.000509904 -0.000636116 -0.000772982 -0.000920501 -0.00107867 -0.0012475 -0.00142698 -0.00161711 -0.00180892 -0.00199341 -0.0021706 -0.00234047 -0.00250303 -0.00265828 -0.00280622 -0.00294685 -0.0030763 -0.00319068 -0.00329002 -0.00337429 -0.00344351 -0.00349767 -0.00353677 -0.00356082 -0.00357358 -0.00357883 -0.00357656 -0.00356678 -0.00354949 -0.00352468 -0.00349237 -0.00345253 -0.00340945 -0.00336739 -0.00332634 -0.00328631 -0.0032473 -0.0032093 -0.00317231 -0.00313635 -0.00310247 -0.00307176 -0.00304421 -0.00301983 -0.00299862 -0.00298057 -0.00296568 -0.00295397 -0.00294562 -0.00294087 -0.00293971 -0.00294214 -0.00294815 -0.00295776 -0.00297095 -0.00298774 -0.00300723 -0.00302855 -0.0030517 -0.00307667 -0.00310347 -0.0031321 -0.00316255 -0.00319483 -0.00322473 -0.00324803 -0.00326475 -0.00327487 -0.0032784 -0.00327533 -0.00326568 -0.00324943 -0.00322306 -0.00318304 -0.00312937 -0.00306205 -0.00298108 -0.00288645 -0.00277817 -0.00265625 -0.00252443 -0.00238648 -0.0022424 -0.0020922 -0.00193586 -0.0017734 -0.0016048 -0.00143008 -0.00125735 -0.00109474 -0.000942256 -0.000799889 -0.000667642 -0.000545516 -0.00043351 -0.000331625 -0.000241286 -0.00016392 -9.95275e-05 -4.81081e-05 -9.66178e-06 1.58114e-05 2.83115e-05 2.78384e-05 2.13138e-05 1.56591e-05 1.08744e-05 6.95961e-06 3.91478e-06 1.7399e-06 4.34976e-07 0 0 4.75335e-07 1.90134e-06 4.27802e-06 7.60536e-06 1.18834e-05 1.71121e-05 2.32914e-05 3.04215e-05 2.8553e-05 7.73672e-06 -3.20272e-05 -9.07389e-05 -0.000168398 -0.000265006 -0.00038056 -0.000515063 -0.000665997 -0.000830846 -0.00100961 -0.00120229 -0.00140888 -0.00162939 -0.00186381 -0.00211215 -0.00236267 -0.00260364 -0.00283506 -0.00305694 -0.00326926 -0.00347204 -0.00366527 -0.00384895 -0.00401802 -0.00416742 -0.00429716 -0.00440724 -0.00449764 -0.00456838 -0.00461946 -0.00465086 -0.00466753 -0.00467439 -0.00467143 -0.00465865 -0.00463607 -0.00460367 -0.00456146 -0.00450943 -0.00445316 -0.00439822 -0.00434461 -0.00429232 -0.00424137 -0.00419173 -0.00414343 -0.00409645 -0.00405221 -0.00401209 -0.00397612 -0.00394427 -0.00391656 -0.00389299 -0.00387355 -0.00385824 -0.00384735 -0.00384114 -0.00383962 -0.00384279 -0.00385065 -0.00386319 -0.00388043 -0.00390235 -0.00392781 -0.00395566 -0.00398589 -0.00401851 -0.00405351 -0.0040909 -0.00413068 -0.00417284 -0.00421189 -0.00424233 -0.00426416 -0.00427738 -0.00428199 -0.00427799 -0.00426538 -0.00424416 -0.00420972 -0.00415744 -0.00408734 -0.00399941 -0.00389365 -0.00377006 -0.00362863 -0.00346938 -0.00329721 -0.00311703 -0.00292885 -0.00273266 -0.00252847 -0.00231627 -0.00209607 -0.00186786 -0.00164225 -0.00142987 -0.0012307 -0.00104475 -0.000872022 -0.000712511 -0.000566217 -0.000433142 -0.000315149 -0.0002141 -0.000129995 -6.28351e-05 -1.26195e-05 2.06516e-05 3.69783e-05 3.63604e-05 2.78384e-05 2.04527e-05 1.42033e-05 9.0901e-06 5.11318e-06 2.27253e-06 5.68131e-07 0 0 4.1155e-07 1.6462e-06 3.70395e-06 6.5848e-06 1.02888e-05 1.48158e-05 2.0166e-05 2.63392e-05 2.11474e-05 -7.59749e-06 -5.98956e-05 -0.000135747 -0.000235151 -0.000358109 -0.000504619 -0.000674683 -0.000864868 -0.00107174 -0.00129531 -0.00153556 -0.0017925 -0.00206614 -0.00235646 -0.00266347 -0.00297263 -0.00326941 -0.0035538 -0.0038258 -0.00408541 -0.00433264 -0.00456748 -0.00478993 -0.00499418 -0.00517443 -0.00533067 -0.0054629 -0.00557113 -0.00565535 -0.00571556 -0.00575176 -0.0057704 -0.00577789 -0.00577424 -0.00575945 -0.00573352 -0.00569645 -0.00564824 -0.0055889 -0.00552493 -0.00546289 -0.00540276 -0.00534455 -0.00528825 -0.00523387 -0.0051814 -0.00513085 -0.00508332 -0.00503993 -0.00500068 -0.00496557 -0.00493459 -0.00490774 -0.00488503 -0.00486646 -0.00485238 -0.00484316 -0.00483879 -0.00483927 -0.0048446 -0.00485479 -0.00486983 -0.00488972 -0.00491367 -0.00494087 -0.00497131 -0.00500501 -0.00504197 -0.00508217 -0.00512562 -0.00517233 -0.00521581 -0.0052496 -0.00527369 -0.00528808 -0.00529277 -0.00528777 -0.00527307 -0.00524868 -0.00520854 -0.00514663 -0.00506294 -0.00495746 -0.00483021 -0.00468117 -0.00451036 -0.00431776 -0.00410906 -0.00388992 -0.00366033 -0.00342031 -0.00316985 -0.00290895 -0.00263761 -0.00235584 -0.00207679 -0.00181364 -0.00156639 -0.00133504 -0.00111959 -0.000920033 -0.000736379 -0.000568623 -0.000419356 -0.000291169 -0.00018406 -9.80297e-05 -3.30787e-05 1.07934e-05 3.35866e-05 3.53009e-05 2.70272e-05 1.98567e-05 1.37894e-05 8.82522e-06 4.96419e-06 2.2063e-06 5.51576e-07 0 0 -1.74728e-08 -6.98911e-08 -1.57255e-07 -2.79565e-07 -4.3682e-07 -6.2902e-07 -8.56166e-07 -1.11826e-06 -1.53456e-05 -5.74685e-05 -0.000127487 -0.000225401 -0.00035121 -0.000504915 -0.000686516 -0.000896012 -0.00112848 -0.00137901 -0.0016476 -0.00193424 -0.00223893 -0.00256169 -0.0029025 -0.00326136 -0.00362119 -0.00396489 -0.00429246 -0.00460391 -0.00489922 -0.00517841 -0.00544146 -0.00568839 -0.00591366 -0.00611173 -0.0062826 -0.00642628 -0.00654276 -0.00663205 -0.00669414 -0.00672904 -0.00674523 -0.0067512 -0.00674697 -0.00673251 -0.00670785 -0.00667297 -0.00662787 -0.00657257 -0.00651366 -0.00645777 -0.0064049 -0.00635505 -0.00630821 -0.00626439 -0.00622359 -0.00618581 -0.00615057 -0.00611741 -0.00608632 -0.00605731 -0.00603037 -0.00600551 -0.00598272 -0.005962 -0.00594382 -0.00592865 -0.00591648 -0.00590731 -0.00590114 -0.00589798 -0.00589782 -0.00590066 -0.00590733 -0.00591865 -0.00593464 -0.00595527 -0.00598057 -0.00601051 -0.00604512 -0.00608438 -0.00612164 -0.00615024 -0.0061702 -0.0061815 -0.00618414 -0.00617814 -0.00616348 -0.00614017 -0.00610017 -0.00603546 -0.00594604 -0.0058319 -0.00569305 -0.00552949 -0.00534121 -0.00512822 -0.004896 -0.00465005 -0.00439036 -0.00411693 -0.00382977 -0.00352886 -0.00321423 -0.00288585 -0.00255927 -0.00225002 -0.00195811 -0.00168352 -0.00142627 -0.00118635 -0.000963755 -0.000758495 -0.000574405 -0.000415325 -0.000281256 -0.000172196 -8.81465e-05 -2.9107e-05 4.92256e-06 1.39421e-05 1.06744e-05 7.84241e-06 5.44612e-06 3.48552e-06 1.9606e-06 8.71379e-07 2.17845e-07 0 0 -8.11733e-07 -3.24693e-06 -7.3056e-06 -1.29877e-05 -2.02933e-05 -2.92224e-05 -3.97749e-05 -5.19509e-05 -8.09261e-05 -0.000141876 -0.000234801 -0.000359701 -0.000516576 -0.000705426 -0.00092625 -0.00117905 -0.00145684 -0.00175265 -0.00206648 -0.00239832 -0.00274817 -0.00311604 -0.00350192 -0.00390582 -0.00430834 -0.00469009 -0.00505106 -0.00539126 -0.00571069 -0.00600935 -0.00628723 -0.00654434 -0.00677645 -0.00697932 -0.00715297 -0.00729737 -0.00741255 -0.00749849 -0.0075552 -0.00758268 -0.00759202 -0.00759433 -0.0075896 -0.00757784 -0.00755905 -0.00753321 -0.00750035 -0.00746045 -0.00741934 -0.00738287 -0.00735104 -0.00732383 -0.00730126 -0.00728332 -0.00727001 -0.00726134 -0.00725396 -0.00724453 -0.00723304 -0.00721951 -0.00720392 -0.00718629 -0.0071666 -0.00714486 -0.00712167 -0.00709761 -0.00707269 -0.00704691 -0.00702027 -0.00699276 -0.00696439 -0.00693516 -0.00690879 -0.00688903 -0.00687586 -0.00686929 -0.00686931 -0.00687594 -0.00688916 -0.00690898 -0.00692936 -0.00694426 -0.00695369 -0.00695763 -0.0069561 -0.00694908 -0.00693659 -0.00691862 -0.0068846 -0.00682394 -0.00673666 -0.00662274 -0.00648219 -0.00631501 -0.00612119 -0.00590075 -0.00565804 -0.00539743 -0.00511892 -0.00482251 -0.00450821 -0.004176 -0.0038259 -0.00345789 -0.0030897 -0.00273902 -0.00240585 -0.0020902 -0.00179207 -0.00151145 -0.00124835 -0.00100276 -0.000780294 -0.00058657 -0.000421583 -0.000285334 -0.000177823 -9.90496e-05 -4.90139e-05 -2.7716e-05 -2.12201e-05 -1.55903e-05 -1.08266e-05 -6.92901e-06 -3.89757e-06 -1.73225e-06 -4.33063e-07 0 0 -1.97123e-06 -7.88493e-06 -1.77411e-05 -3.15397e-05 -4.92808e-05 -7.09644e-05 -9.65904e-05 -0.000126159 -0.000175594 -0.000260821 -0.000381839 -0.000538648 -0.000731248 -0.000959639 -0.00122382 -0.0015238 -0.00184995 -0.00219267 -0.00255195 -0.0029278 -0.00332021 -0.00372919 -0.00415474 -0.00459685 -0.00503408 -0.005445 -0.00582959 -0.00618787 -0.00651983 -0.00682546 -0.00710478 -0.00735778 -0.00758256 -0.00777722 -0.00794176 -0.00807618 -0.00818049 -0.00825467 -0.00829874 -0.00831269 -0.00831078 -0.00830727 -0.00830216 -0.00829544 -0.00828712 -0.00827719 -0.00826566 -0.00825253 -0.00824198 -0.00823819 -0.00824116 -0.0082509 -0.00826739 -0.00829065 -0.00832066 -0.00835744 -0.00839348 -0.00842127 -0.00844083 -0.00845215 -0.00845524 -0.00845008 -0.00843668 -0.00841504 -0.00838592 -0.00835004 -0.00830743 -0.00825807 -0.00820198 -0.00813913 -0.00806955 -0.00799322 -0.00791806 -0.00785198 -0.00779498 -0.00774705 -0.00770821 -0.00767844 -0.00765775 -0.00764614 -0.00763899 -0.00763166 -0.00762415 -0.00761648 -0.00760863 -0.00760061 -0.00759241 -0.00758405 -0.00756183 -0.00751207 -0.00743479 -0.00732997 -0.00719761 -0.00703773 -0.00685031 -0.00663535 -0.00639517 -0.00613206 -0.00584603 -0.00553707 -0.00520518 -0.00485037 -0.00447263 -0.00407197 -0.00366807 -0.00328062 -0.00290963 -0.00255508 -0.00221699 -0.00189534 -0.00159015 -0.00130141 -0.00103702 -0.000804902 -0.000605042 -0.000437444 -0.000302108 -0.000199034 -0.000128223 -8.96734e-05 -6.86562e-05 -5.04413e-05 -3.50287e-05 -2.24184e-05 -1.26103e-05 -5.60459e-06 -1.40115e-06 0 0 -3.49597e-06 -1.39839e-05 -3.14637e-05 -5.59355e-05 -8.73992e-05 -0.000125855 -0.000171302 -0.000223742 -0.00029935 -0.000414302 -0.000568599 -0.00076224 -0.000995226 -0.00126756 -0.00157923 -0.00193025 -0.0023078 -0.00269905 -0.00310401 -0.00352268 -0.00395506 -0.00440115 -0.00486095 -0.00533445 -0.00579842 -0.00622963 -0.00662806 -0.00699373 -0.00732662 -0.00762675 -0.00789411 -0.0081287 -0.00833198 -0.0085054 -0.00864898 -0.0087627 -0.00884657 -0.00890059 -0.00892476 -0.00891908 -0.00890151 -0.00889002 -0.00888462 -0.0088853 -0.00889206 -0.0089049 -0.00892382 -0.00894883 -0.00898158 -0.00902373 -0.00907529 -0.00913624 -0.0092066 -0.00928637 -0.00937553 -0.0094741 -0.00956913 -0.00964766 -0.0097097 -0.00975525 -0.00978431 -0.00979688 -0.00979296 -0.00977254 -0.00973657 -0.00968595 -0.00962069 -0.0095408 -0.00944627 -0.0093371 -0.00921329 -0.00907485 -0.00893513 -0.00880752 -0.008692 -0.00858857 -0.00849725 -0.00841802 -0.00835089 -0.00829586 -0.00825051 -0.00821243 -0.0081816 -0.00815804 -0.00814175 -0.00813271 -0.00813094 -0.00813644 -0.00813185 -0.00809985 -0.00804043 -0.00795359 -0.00783933 -0.00769765 -0.00752855 -0.00733203 -0.00710739 -0.00685394 -0.00657167 -0.00626058 -0.00592068 -0.00555196 -0.00515443 -0.00472808 -0.00429439 -0.00387484 -0.00346943 -0.00307815 -0.00270102 -0.00233803 -0.00198917 -0.00165445 -0.0013446 -0.00107032 -0.000831632 -0.000628526 -0.000461002 -0.000329061 -0.000232704 -0.00017193 -0.000131634 -9.67107e-05 -6.71602e-05 -4.29825e-05 -2.41777e-05 -1.07456e-05 -2.68641e-06 0 0 -5.38594e-06 -2.15438e-05 -4.84735e-05 -8.61751e-05 -0.000134649 -0.000193894 -0.000263911 -0.0003447 -0.000452193 -0.00060232 -0.000795082 -0.00103048 -0.00130851 -0.00162918 -0.00199248 -0.00239842 -0.00283039 -0.00327181 -0.00372267 -0.00418297 -0.00465272 -0.00513191 -0.00562054 -0.00611862 -0.00660135 -0.00704397 -0.00744646 -0.00780883 -0.00813108 -0.00841321 -0.00865522 -0.0088571 -0.00902471 -0.00916389 -0.00927463 -0.00935694 -0.00941081 -0.00943625 -0.00943326 -0.00940183 -0.0093642 -0.00934259 -0.009337 -0.00934743 -0.00937387 -0.00941634 -0.00947483 -0.00954934 -0.00963813 -0.00973949 -0.0098534 -0.00997987 -0.0101189 -0.0102705 -0.0104346 -0.0106113 -0.0107809 -0.0109237 -0.0110396 -0.0111288 -0.0111912 -0.0112267 -0.0112354 -0.0112174 -0.0111736 -0.0111053 -0.0110125 -0.0108951 -0.0107531 -0.0105867 -0.0103956 -0.01018 -0.00996001 -0.00975564 -0.00956692 -0.00939385 -0.00923644 -0.00909469 -0.00896859 -0.00885814 -0.00876394 -0.00868657 -0.00862603 -0.00858232 -0.00855544 -0.0085454 -0.00855218 -0.00857579 -0.00859468 -0.00858728 -0.00855358 -0.0084936 -0.00840733 -0.00829477 -0.00815592 -0.00799078 -0.00779471 -0.00756307 -0.00729585 -0.00699307 -0.00665471 -0.00628079 -0.00587129 -0.00542622 -0.00496865 -0.00452167 -0.00408526 -0.00365943 -0.00324417 -0.0028395 -0.0024454 -0.00206189 -0.00170301 -0.00138283 -0.00110135 -0.000858579 -0.000654504 -0.000489131 -0.000362458 -0.000274486 -0.000210153 -0.000154398 -0.000107221 -6.86215e-05 -3.85996e-05 -1.71554e-05 -4.28884e-06 0 0 -7.64115e-06 -3.05646e-05 -6.87704e-05 -0.000122258 -0.000191029 -0.000275082 -0.000374417 -0.000489034 -0.000634123 -0.000824875 -0.00106129 -0.00134336 -0.0016711 -0.0020445 -0.00246356 -0.00292829 -0.00341773 -0.00391094 -0.00440792 -0.00490866 -0.00541318 -0.00592147 -0.00643353 -0.00694935 -0.00744288 -0.00788802 -0.00828479 -0.00863319 -0.0089332 -0.00918484 -0.00938811 -0.00954299 -0.00966076 -0.00975267 -0.00981871 -0.00985888 -0.0098732 -0.00986165 -0.00982424 -0.00976096 -0.00969886 -0.00966497 -0.00965929 -0.00968182 -0.00973256 -0.00981151 -0.00991868 -0.010054 -0.0102116 -0.0103855 -0.0105755 -0.0107818 -0.0110043 -0.011243 -0.011498 -0.0117691 -0.0120288 -0.0122493 -0.0124307 -0.0125728 -0.0126758 -0.0127395 -0.0127641 -0.0127495 -0.0126971 -0.0126082 -0.0124828 -0.0123209 -0.0121226 -0.0118878 -0.0116165 -0.0113088 -0.0109927 -0.0106963 -0.0104197 -0.0101629 -0.00992578 -0.00970843 -0.00951083 -0.00933298 -0.00917927 -0.00905409 -0.00895744 -0.00888932 -0.00884972 -0.00883866 -0.00885612 -0.00890212 -0.00895031 -0.00897435 -0.00897425 -0.00895001 -0.00890162 -0.00882909 -0.00873242 -0.0086116 -0.00845712 -0.00825944 -0.00801858 -0.00773452 -0.00740728 -0.00703684 -0.00662321 -0.00616639 -0.00569086 -0.0052211 -0.00475711 -0.00429889 -0.00384644 -0.00339976 -0.00295885 -0.00252371 -0.00211226 -0.00174243 -0.00141421 -0.0011276 -0.000882615 -0.000679242 -0.000517484 -0.000397341 -0.000304214 -0.000223504 -0.000155211 -9.93353e-05 -5.58761e-05 -2.48338e-05 -6.20846e-06 0 0 -1.02616e-05 -4.10464e-05 -9.23544e-05 -0.000164186 -0.00025654 -0.000369418 -0.000502819 -0.000656743 -0.000845141 -0.00108197 -0.00136722 -0.0017009 -0.002083 -0.00251353 -0.00299249 -0.00351987 -0.00406981 -0.00461644 -0.00515975 -0.00569976 -0.00623645 -0.00676983 -0.0072999 -0.00782666 -0.00832299 -0.00876179 -0.00914306 -0.00946679 -0.00973299 -0.00994165 -0.0100928 -0.0101864 -0.0102401 -0.0102717 -0.0102812 -0.0102685 -0.0102337 -0.0101768 -0.0100977 -0.00999646 -0.00990548 -0.00985716 -0.00985149 -0.00988848 -0.00996812 -0.0100904 -0.0102554 -0.010463 -0.0107021 -0.0109617 -0.0112416 -0.011542 -0.0118627 -0.0122039 -0.0125655 -0.0129475 -0.0133129 -0.0136246 -0.0138828 -0.0140873 -0.0142381 -0.0143354 -0.014379 -0.014369 -0.0143069 -0.0141945 -0.0140316 -0.0138184 -0.0135547 -0.0132406 -0.012876 -0.0124611 -0.0120332 -0.0116296 -0.0112505 -0.0108957 -0.0105653 -0.0102592 -0.00997762 -0.00972037 -0.0094965 -0.00931498 -0.00917583 -0.00907903 -0.00902458 -0.0090125 -0.00904278 -0.00911541 -0.00919873 -0.00926107 -0.00930243 -0.00932281 -0.0093222 -0.00930062 -0.00925805 -0.0091945 -0.00909462 -0.00894307 -0.00873984 -0.00848494 -0.00817837 -0.00782012 -0.0074102 -0.0069486 -0.00646102 -0.00597315 -0.005485 -0.00499656 -0.00450783 -0.00401882 -0.00352951 -0.00303992 -0.00257235 -0.00214911 -0.00177019 -0.0014356 -0.00114534 -0.000899396 -0.000697783 -0.000540496 -0.000413817 -0.000304029 -0.000211131 -0.000135124 -7.60072e-05 -3.3781e-05 -8.44525e-06 0 0 -1.32826e-05 -5.31303e-05 -0.000119543 -0.000212521 -0.000332064 -0.000478172 -0.000650846 -0.000850084 -0.00108771 -0.00137555 -0.0017136 -0.00210187 -0.00254035 -0.00302904 -0.00356794 -0.00415705 -0.00476485 -0.00535979 -0.00594188 -0.00651112 -0.00706751 -0.00761104 -0.00814172 -0.00865955 -0.00913707 -0.0095468 -0.00988874 -0.0101629 -0.0103693 -0.0105079 -0.0105787 -0.0105817 -0.0105428 -0.0104878 -0.0104168 -0.0103297 -0.0102266 -0.0101074 -0.00997207 -0.00982072 -0.00969182 -0.00962385 -0.00961682 -0.00967074 -0.00978559 -0.00996139 -0.0101981 -0.0104958 -0.0108367 -0.011203 -0.0115948 -0.012012 -0.0124546 -0.0129227 -0.0134163 -0.0139353 -0.0144314 -0.0148561 -0.0152096 -0.0154917 -0.0157025 -0.0158421 -0.0159103 -0.0159072 -0.0158347 -0.0156946 -0.015487 -0.0152119 -0.0148692 -0.014459 -0.0139812 -0.013436 -0.0128718 -0.0123376 -0.0118332 -0.0113587 -0.0109141 -0.0104993 -0.0101144 -0.00975942 -0.00944922 -0.00919881 -0.00900819 -0.00887735 -0.0088063 -0.00879503 -0.00884355 -0.00895185 -0.00908218 -0.00919677 -0.00929561 -0.00937872 -0.00944609 -0.00949771 -0.0095336 -0.00955375 -0.0095354 -0.00945581 -0.00931498 -0.0091129 -0.00884957 -0.00852501 -0.0081392 -0.00769214 -0.00721018 -0.00671967 -0.00622059 -0.00571296 -0.00519677 -0.00467202 -0.00413872 -0.00359685 -0.00307381 -0.00259697 -0.00216633 -0.00178189 -0.00144365 -0.00115161 -0.000905776 -0.00070614 -0.000540639 -0.000397204 -0.000275836 -0.000176535 -9.9301e-05 -4.41338e-05 -1.10334e-05 0 0 -1.67393e-05 -6.69572e-05 -0.000150654 -0.000267829 -0.000418483 -0.000602615 -0.000820226 -0.00107132 -0.0013643 -0.00170758 -0.00210118 -0.00254508 -0.00303928 -0.00358379 -0.00417861 -0.00482373 -0.00548105 -0.00611247 -0.00671799 -0.00729761 -0.00785133 -0.00837914 -0.00888105 -0.00935706 -0.00978046 -0.0101245 -0.0103893 -0.0105748 -0.0106809 -0.0107078 -0.0106553 -0.0105235 -0.0103488 -0.0101677 -0.00998017 -0.00978622 -0.00958584 -0.00937904 -0.00916581 -0.00894615 -0.00876561 -0.00866973 -0.0086585 -0.00873194 -0.00889003 -0.00913278 -0.00946019 -0.00987225 -0.0103425 -0.0108444 -0.011378 -0.0119433 -0.0125403 -0.013169 -0.0138294 -0.0145214 -0.0151826 -0.0157504 -0.0162248 -0.0166057 -0.0168933 -0.0170875 -0.0171882 -0.0171956 -0.0171117 -0.0169388 -0.0166769 -0.016326 -0.0158861 -0.0153572 -0.0147392 -0.0140323 -0.0132991 -0.0126024 -0.0119422 -0.0113186 -0.0107315 -0.0101809 -0.00966677 -0.0091892 -0.00877103 -0.00843514 -0.00818153 -0.00801019 -0.00792114 -0.00791436 -0.00798986 -0.00814764 -0.00834288 -0.00853076 -0.0087113 -0.00888447 -0.00905029 -0.00920876 -0.00935987 -0.00950362 -0.00960764 -0.00963953 -0.0095993 -0.00948695 -0.00930248 -0.00904588 -0.00871717 -0.00831633 -0.00786942 -0.0074025 -0.00691558 -0.00640865 -0.0058817 -0.00533475 -0.00476779 -0.00418082 -0.00360715 -0.00308009 -0.00259964 -0.00216579 -0.00177855 -0.00143791 -0.00114389 -0.000896466 -0.000686357 -0.000504262 -0.000350182 -0.000224116 -0.000126065 -5.60291e-05 -1.40073e-05 0 0 -2.06318e-05 -8.25273e-05 -0.000185686 -0.000330109 -0.000515796 -0.000742746 -0.00101096 -0.00132044 -0.0016749 -0.00207807 -0.00252994 -0.00303052 -0.00357981 -0.0041778 -0.00482449 -0.0055199 -0.00621842 -0.00687449 -0.00748809 -0.00805923 -0.00858791 -0.00907413 -0.00951788 -0.00991918 -0.0102532 -0.0104951 -0.0106448 -0.0107024 -0.0106679 -0.0105413 -0.0103225 -0.0100117 -0.00965809 -0.0093113 -0.00897128 -0.00863804 -0.00831156 -0.00799185 -0.00767891 -0.00737274 -0.00712686 -0.00699479 -0.00697653 -0.00707207 -0.00728142 -0.00760458 -0.00804154 -0.00859232 -0.00921956 -0.00988593 -0.0105914 -0.011336 -0.0121198 -0.0129427 -0.0138047 -0.0147058 -0.0155666 -0.0163074 -0.0169283 -0.0174293 -0.0178104 -0.0180715 -0.0182128 -0.0182341 -0.0181381 -0.0179272 -0.0176014 -0.0171608 -0.0166054 -0.0159351 -0.01515 -0.0142501 -0.0133149 -0.012424 -0.0115775 -0.0107752 -0.0100174 -0.00930382 -0.0086346 -0.00800972 -0.00746192 -0.00702396 -0.00669584 -0.00647755 -0.0063691 -0.00637048 -0.00648171 -0.00670276 -0.00698083 -0.00726306 -0.00754947 -0.00784006 -0.00813481 -0.00843375 -0.00873685 -0.00904413 -0.00931134 -0.00949424 -0.00959283 -0.00960711 -0.00953709 -0.00938275 -0.00914411 -0.00882115 -0.00843873 -0.00802166 -0.00756995 -0.00708361 -0.00656262 -0.006007 -0.00541674 -0.00479183 -0.00417238 -0.00359848 -0.00307012 -0.0025873 -0.00215003 -0.0017583 -0.00141211 -0.00111147 -0.000850971 -0.000625203 -0.000434169 -0.000277868 -0.000156301 -6.9467e-05 -1.73667e-05 0 0 -2.49601e-05 -9.98405e-05 -0.000224641 -0.000399362 -0.000624003 -0.000898564 -0.00122305 -0.00159745 -0.00201952 -0.002487 -0.00299989 -0.0035582 -0.00416192 -0.00481105 -0.0055056 -0.00624556 -0.00697696 -0.00764583 -0.0082