<?xml version="1.0"?> 
<VTKFile type="StructuredGrid" version="0.1"> 
<StructuredGrid WholeExtent="0 128 0 128 0 0"> 
<Piece Extent="0 128 0 128 0 0"> 
<PointData>
<DataArray type="Float32" Name="u" format="ascii" NumberOfComponents="1"> 
0 0 0 0 0 0 0 0 0 0 0 0 0 0 0 0 0 0 0 0 0 0 0 0 0 0 0 0 0 0 0 0 0 0 0 0 0 0 0 0 0 0 0 0 0 0 0 0 0 0 0 0 0 0 0 0 0 0 0 0 0 0 0 0 0 0 0 0 0 0 0 0 0 0 0 0 0 0 0 0 0 0 0 0 0 0 0 0 0 0 0 0 0 0 0 0 0 0 0 0 0 0 0 0 0 0 0 0 0 0 0 0 0 0 0 0 0 0 0 0 0 0 0 0 0 0 0 0 0 0 9.39503e-08 3.75801e-07 8.45553e-07 1.50321e-06 2.34876e-06 3.38221e-06 4.60357e-06 6.01282e-06 7.7269e-06 9.86271e-06 1.24203e-05 1.53995e-05 1.88006e-05 2.26233e-05 2.68678e-05 3.15341e-05 3.64823e-05 4.15727e-05 4.68053e-05 5.21801e-05 5.7697e-05 6.33562e-05 6.91576e-05 7.51011e-05 8.09856e-05 8.66098e-05 9.19736e-05 9.70771e-05 0.00010192 0.000106503 0.000110826 0.000114888 0.000118592 0.000121841 0.000124635 0.000126973 0.000128857 0.000130284 0.000131257 0.000131774 0.000131882 0.000131624 0.000131002 0.000130015 0.000128664 0.000126948 0.000124867 0.000122422 0.000119748 0.000116981 0.000114122 0.00011117 0.000108126 0.000104989 0.00010176 9.84378e-05 9.51435e-05 9.19972e-05 8.89989e-05 8.61486e-05 8.34462e-05 8.08919e-05 7.84855e-05 7.62271e-05 7.41403e-05 7.22488e-05 7.05526e-05 6.90516e-05 6.77459e-05 6.66354e-05 6.57201e-05 6.50002e-05 6.44082e-05 6.38769e-05 6.34063e-05 6.29963e-05 6.26471e-05 6.23585e-05 6.21307e-05 6.19635e-05 6.1775e-05 6.14831e-05 6.10878e-05 6.05892e-05 5.99871e-05 5.92817e-05 5.84729e-05 5.75608e-05 5.65221e-05 5.53338e-05 5.39958e-05 5.25082e-05 5.08709e-05 4.9084e-05 4.71474e-05 4.50612e-05 4.28754e-05 4.06402e-05 3.83555e-05 3.60213e-05 3.36377e-05 3.12046e-05 2.8722e-05 2.61899e-05 2.36881e-05 2.12962e-05 1.90142e-05 1.68421e-05 1.47799e-05 1.28276e-05 1.09853e-05 9.25279e-06 7.66025e-06 6.23767e-06 4.98505e-06 3.90239e-06 2.98969e-06 2.24696e-06 1.67418e-06 1.27136e-06 9.73383e-07 7.15139e-07 4.96624e-07 3.17839e-07 1.78785e-07 7.94598e-08 1.9865e-08 0 0 3.75801e-07 1.50321e-06 3.38221e-06 6.01282e-06 9.39503e-06 1.35288e-05 1.84143e-05 2.40513e-05 3.09076e-05 3.94508e-05 4.9681e-05 6.15982e-05 7.52023e-05 9.04934e-05 0.000107471 0.000126136 0.000145929 0.000166291 0.000187221 0.00020872 0.000230788 0.000253425 0.00027663 0.000300405 0.000323942 0.000346439 0.000367894 0.000388308 0.000407681 0.000426012 0.000443302 0.000459551 0.000474368 0.000487364 0.000498539 0.000507893 0.000515426 0.000521138 0.000525028 0.000527097 0.000527526 0.000526497 0.000524009 0.000520062 0.000514656 0.000507792 0.000499469 0.000489688 0.000478992 0.000467925 0.000456489 0.000444682 0.000432505 0.000419957 0.000407039 0.000393751 0.000380574 0.000367989 0.000355996 0.000344594 0.000333785 0.000323567 0.000313942 0.000304908 0.000296561 0.000288995 0.00028221 0.000276206 0.000270983 0.000266541 0.000262881 0.000260001 0.000257633 0.000255507 0.000253625 0.000251985 0.000250588 0.000249434 0.000248523 0.000247854 0.0002471 0.000245932 0.000244351 0.000242357 0.000239949 0.000237127 0.000233892 0.000230243 0.000226088 0.000221335 0.000215983 0.000210033 0.000203484 0.000196336 0.00018859 0.000180245 0.000171502 0.000162561 0.000153422 0.000144085 0.000134551 0.000124818 0.000114888 0.00010476 9.47525e-05 8.51849e-05 7.60568e-05 6.73684e-05 5.91197e-05 5.13105e-05 4.3941e-05 3.70111e-05 3.0641e-05 2.49507e-05 1.99402e-05 1.56096e-05 1.19588e-05 8.98782e-06 6.69671e-06 5.08543e-06 3.89353e-06 2.86055e-06 1.9865e-06 1.27136e-06 7.15139e-07 3.17839e-07 7.94598e-08 0 0 8.45553e-07 3.38221e-06 7.60998e-06 1.35288e-05 2.11388e-05 3.04399e-05 4.14321e-05 5.41154e-05 6.95421e-05 8.87644e-05 0.000111782 0.000138596 0.000169205 0.00020361 0.000241811 0.000283807 0.000328341 0.000374154 0.000421248 0.000469621 0.000519273 0.000570206 0.000622418 0.00067591 0.000728871 0.000779488 0.000827762 0.000873694 0.000917282 0.000958528 0.00099743 0.00103399 0.00106733 0.00109657 0.00112171 0.00114276 0.00115971 0.00117256 0.00118131 0.00118597 0.00118693 0.00118462 0.00117902 0.00117014 0.00115798 0.00114253 0.00112381 0.0011018 0.00107773 0.00105283 0.0010271 0.00100053 0.000973135 0.000944904 0.000915839 0.000885941 0.000856292 0.000827975 0.00080099 0.000775337 0.000751016 0.000728027 0.000706369 0.000686044 0.000667263 0.000650239 0.000634973 0.000621464 0.000609713 0.000599718 0.000591481 0.000585002 0.000579674 0.000574892 0.000570656 0.000566967 0.000563824 0.000561227 0.000559176 0.000557671 0.000555975 0.000553348 0.00054979 0.000545302 0.000539884 0.000533535 0.000526256 0.000518047 0.000508699 0.000498004 0.000485962 0.000472574 0.000457838 0.000441756 0.000424327 0.000405551 0.000385879 0.000365762 0.000345199 0.000324192 0.000302739 0.000280841 0.000258498 0.000235709 0.000213193 0.000191666 0.000171128 0.000151579 0.000133019 0.000115449 9.88673e-05 8.32751e-05 6.89422e-05 5.6139e-05 4.48655e-05 3.51215e-05 2.69073e-05 2.02226e-05 1.50676e-05 1.14422e-05 8.76045e-06 6.43625e-06 4.46962e-06 2.86055e-06 1.60906e-06 7.15139e-07 1.78785e-07 0 0 1.50321e-06 6.01282e-06 1.35288e-05 2.40513e-05 3.75801e-05 5.41154e-05 7.36571e-05 9.62052e-05 0.00012363 0.000157803 0.000198724 0.000246393 0.000300809 0.000361973 0.000429886 0.000504545 0.000583717 0.000665163 0.000748885 0.000834881 0.000923153 0.0010137 0.00110652 0.00120162 0.00129577 0.00138576 0.00147158 0.00155323 0.00163072 0.00170405 0.00177321 0.0018382 0.00189747 0.00194946 0.00199416 0.00203157 0.0020617 0.00208455 0.00210011 0.00210839 0.00211011 0.00210599 0.00209603 0.00208025 0.00205863 0.00203117 0.00199788 0.00195875 0.00191597 0.0018717 0.00182595 0.00177873 0.00173002 0.00167983 0.00162816 0.00157501 0.0015223 0.00147196 0.00142398 0.00137838 0.00133514 0.00129427 0.00125577 0.00121963 0.00118625 0.00115598 0.00112884 0.00110483 0.00108393 0.00106617 0.00105152 0.00104 0.00103053 0.00102203 0.0010145 0.00100794 0.00100235 0.000997737 0.000994091 0.000991416 0.0009884 0.000983729 0.000977405 0.000969426 0.000959794 0.000948508 0.000935567 0.000920972 0.000904354 0.00088534 0.000863933 0.000840131 0.000813935 0.000785344 0.000754359 0.000720979 0.000686007 0.000650243 0.000613688 0.000576341 0.000538203 0.000499273 0.000459552 0.000419039 0.00037901 0.000340739 0.000304227 0.000269474 0.000236479 0.000205242 0.000175764 0.000148045 0.000122564 9.98027e-05 7.97608e-05 6.24383e-05 4.78351e-05 3.59513e-05 2.67868e-05 2.03417e-05 1.55741e-05 1.14422e-05 7.94598e-06 5.08543e-06 2.86055e-06 1.27136e-06 3.17839e-07 0 0 2.34876e-06 9.39503e-06 2.11388e-05 3.75801e-05 5.8719e-05 8.45553e-05 0.000115089 0.000150321 0.000193172 0.000246568 0.000310507 0.000384989 0.000470014 0.000565584 0.000671696 0.000788352 0.000912057 0.00103932 0.00117013 0.0013045 0.00144243 0.00158391 0.00172894 0.00187753 0.00202464 0.00216524 0.00229934 0.00242693 0.00254801 0.00266258 0.00277064 0.00287219 0.0029648 0.00304603 0.00311587 0.00317433 0.00322141 0.00325711 0.00328142 0.00329436 0.00329704 0.00329061 0.00327505 0.00325039 0.0032166 0.0031737 0.00312168 0.00306055 0.0029937 0.00292453 0.00285305 0.00277926 0.00270315 0.00262473 0.002544 0.00246095 0.00237859 0.00229993 0.00222497 0.00215371 0.00208616 0.0020223 0.00196214 0.00190568 0.00185351 0.00180622 0.00176381 0.00172629 0.00169365 0.00166588 0.001643 0.001625 0.0016102 0.00159692 0.00158516 0.00157491 0.00156618 0.00155896 0.00155327 0.00154909 0.00154437 0.00153708 0.0015272 0.00151473 0.00149968 0.00148204 0.00146182 0.00143902 0.00141305 0.00138334 0.0013499 0.0013127 0.00127177 0.0012271 0.00117869 0.00112653 0.00107189 0.001016 0.000958887 0.000900533 0.000840941 0.000780114 0.00071805 0.000654749 0.000592203 0.000532405 0.000475355 0.000421053 0.000369498 0.000320691 0.000274631 0.00023132 0.000191506 0.000155942 0.000124626 9.75598e-05 7.47424e-05 5.61739e-05 4.18544e-05 3.17839e-05 2.43346e-05 1.78785e-05 1.24156e-05 7.94598e-06 4.46962e-06 1.9865e-06 4.96624e-07 0 0 3.38221e-06 1.35288e-05 3.04399e-05 5.41154e-05 8.45553e-05 0.00012176 0.000165728 0.000216462 0.000278168 0.000355058 0.000447129 0.000554384 0.000676821 0.00081444 0.000967242 0.00113523 0.00131336 0.00149662 0.00168499 0.00187848 0.00207709 0.00228082 0.00248967 0.00270364 0.00291548 0.00311795 0.00331105 0.00349478 0.00366913 0.00383411 0.00398972 0.00413596 0.00426931 0.00438628 0.00448686 0.00457104 0.00463883 0.00469024 0.00472525 0.00474387 0.00474774 0.00473847 0.00471608 0.00468056 0.00463191 0.00457013 0.00449522 0.00440719 0.00431092 0.00421133 0.0041084 0.00400214 0.00389254 0.00377961 0.00366335 0.00354376 0.00342517 0.0033119 0.00320396 0.00310135 0.00300406 0.00291211 0.00282548 0.00274418 0.00266905 0.00260096 0.00253989 0.00248586 0.00243885 0.00239887 0.00236593 0.00234001 0.00231869 0.00229957 0.00228263 0.00226787 0.0022553 0.00224491 0.0022367 0.00223069 0.0022239 0.00221339 0.00219916 0.00218121 0.00215954 0.00213414 0.00210503 0.00207219 0.0020348 0.00199202 0.00194385 0.00189029 0.00183135 0.00176702 0.00169731 0.0016222 0.00154352 0.00146305 0.0013808 0.00129677 0.00121096 0.00112336 0.00103399 0.000942838 0.000852772 0.000766664 0.000684512 0.000606316 0.000532077 0.000461795 0.000395469 0.0003331 0.000275769 0.000224556 0.000179462 0.000140486 0.000107629 8.08904e-05 6.02704e-05 4.57689e-05 3.50418e-05 2.5745e-05 1.78785e-05 1.14422e-05 6.43625e-06 2.86055e-06 7.15139e-07 0 0 4.60357e-06 1.84143e-05 4.14321e-05 7.36571e-05 0.000115089 0.000165728 0.000225575 0.000294628 0.000378618 0.000483273 0.000608593 0.000754578 0.000921228 0.00110854 0.00131652 0.00154517 0.00178763 0.00203706 0.00229346 0.00255682 0.00282716 0.00310445 0.00338872 0.00367996 0.0039683 0.00424388 0.00450671 0.00475678 0.00499409 0.00521865 0.00543045 0.0056295 0.00581101 0.00597021 0.00610711 0.00622169 0.00631397 0.00638393 0.00643159 0.00645694 0.0064622 0.00644959 0.00641911 0.00637076 0.00630454 0.00622045 0.0061185 0.00599867 0.00586765 0.00573208 0.00559199 0.00544735 0.00529818 0.00514447 0.00498623 0.00482345 0.00466203 0.00450786 0.00436095 0.00422128 0.00408886 0.0039637 0.00384579 0.00373513 0.00363288 0.00354019 0.00345708 0.00338353 0.00331955 0.00326513 0.00322029 0.00318501 0.003156 0.00312997 0.00310691 0.00308682 0.00306971 0.00305557 0.0030444 0.00303621 0.00302697 0.00301267 0.0029933 0.00296887 0.00293937 0.0029048 0.00286517 0.00282048 0.00276958 0.00271136 0.00264579 0.0025729 0.00249267 0.00240512 0.00231022 0.002208 0.0021009 0.00199137 0.00187942 0.00176504 0.00164825 0.00152902 0.00140738 0.00128331 0.00116072 0.00104351 0.000931696 0.000825263 0.000724216 0.000628554 0.000538278 0.000453387 0.000375352 0.000305646 0.000244268 0.000191217 0.000146495 0.000110101 8.20347e-05 6.22965e-05 4.76958e-05 3.50418e-05 2.43346e-05 1.55741e-05 8.76045e-06 3.89353e-06 9.73383e-07 0 0 6.01282e-06 2.40513e-05 5.41154e-05 9.62052e-05 0.000150321 0.000216462 0.000294628 0.000384821 0.000494521 0.000631213 0.000794897 0.000985571 0.00120324 0.00144789 0.00171954 0.00201818 0.00233487 0.00266065 0.00299554 0.00333952 0.00369261 0.0040548 0.00442609 0.00480647 0.00518308 0.00554303 0.00588631 0.00621293 0.0065229 0.0068162 0.00709284 0.00735281 0.00758989 0.00779783 0.00797663 0.00812629 0.00824682 0.0083382 0.00840045 0.00843355 0.00844042 0.00842395 0.00838414 0.00832099 0.0082345 0.00812467 0.00799151 0.007835 0.00766387 0.0074868 0.00730382 0.00711491 0.00692007 0.00671931 0.00651263 0.00630002 0.00608919 0.00588782 0.00569593 0.00551351 0.00534056 0.00517708 0.00502307 0.00487853 0.00474498 0.00462393 0.00451537 0.0044193 0.00433573 0.00426466 0.00420609 0.00416001 0.00412212 0.00408812 0.004058 0.00403176 0.00400941 0.00399095 0.00397636 0.00396566 0.0039536 0.00393492 0.00390962 0.00387771 0.00383918 0.00379403 0.00374227 0.00368389 0.00361741 0.00354136 0.00345573 0.00336052 0.00325574 0.00314138 0.00301744 0.00288392 0.00274403 0.00260097 0.00245475 0.00230536 0.00215281 0.00199709 0.00183821 0.00167616 0.00151604 0.00136296 0.00121691 0.0010779 0.000945915 0.000820969 0.000703056 0.000592178 0.000490256 0.000399211 0.000319043 0.000249753 0.00019134 0.000143805 0.000107147 8.13669e-05 6.22965e-05 4.57689e-05 3.17839e-05 2.03417e-05 1.14422e-05 5.08543e-06 1.27136e-06 0 0 7.85392e-06 3.14157e-05 7.06853e-05 0.000125663 0.000196348 0.000282741 0.000384842 0.000502651 0.000645424 0.000822416 0.00103363 0.00127906 0.00155871 0.00187258 0.00222067 0.00260297 0.00300808 0.00342455 0.0038524 0.00429161 0.0047422 0.00520415 0.00567748 0.00616218 0.00664197 0.00710057 0.00753799 0.00795423 0.00834928 0.00872314 0.00907582 0.00940732 0.00970975 0.00997525 0.0102038 0.0103954 0.0105501 0.0106679 0.0107487 0.0107925 0.0108031 0.0107841 0.0107355 0.0106572 0.0105493 0.0104118 0.0102447 0.010048 0.0098326 0.00960959 0.00937894 0.00914065 0.00889472 0.00864115 0.00837995 0.0081111 0.00784434 0.00758938 0.00734624 0.0071149 0.00689538 0.00668766 0.00649175 0.00630765 0.00613729 0.0059826 0.00584358 0.00572023 0.00561256 0.00552055 0.00544422 0.00538356 0.00533316 0.00528763 0.00524695 0.00521113 0.00518017 0.00515408 0.00513284 0.00511646 0.00509834 0.00507187 0.00503706 0.00499389 0.00494239 0.00488253 0.00481433 0.00473778 0.00465102 0.0045522 0.0044413 0.00431834 0.00418331 0.00403621 0.00387705 0.00370581 0.00352655 0.0033433 0.00315607 0.00296486 0.00276966 0.00257048 0.00236731 0.00216016 0.00195546 0.00175965 0.00157273 0.0013947 0.00122555 0.0010653 0.000913926 0.000771445 0.000640322 0.000523028 0.000419561 0.000329922 0.000254112 0.000192129 0.000143975 0.000109649 8.39498e-05 6.16774e-05 4.28315e-05 2.74122e-05 1.54193e-05 6.85304e-06 1.71326e-06 0 0 1.03708e-05 4.14833e-05 9.33374e-05 0.000165933 0.00025927 0.000373349 0.00050817 0.000663732 0.00085087 0.00108042 0.00135237 0.00166673 0.0020235 0.00242268 0.00286427 0.00334826 0.00386028 0.00438593 0.0049252 0.00547811 0.00604465 0.00662482 0.00721863 0.00782606 0.0084271 0.00900171 0.00954989 0.0100717 0.010567 0.0110359 0.0114784 0.0118944 0.0122744 0.0126086 0.012897 0.0131397 0.0133366 0.0134878 0.0135931 0.0136528 0.0136711 0.0136526 0.0135974 0.0135054 0.0133766 0.0132109 0.0130085 0.0127694 0.0125069 0.0122345 0.0119524 0.0116604 0.0113586 0.011047 0.0107256 0.0103943 0.0100652 0.00975015 0.0094492 0.00916233 0.00888955 0.00863085 0.00838625 0.00815572 0.00794172 0.00774666 0.00757055 0.00741338 0.00727517 0.0071559 0.00705557 0.0069742 0.00690522 0.00684208 0.00678479 0.00673335 0.00668775 0.00664799 0.00661408 0.00658602 0.00655576 0.00651527 0.00646455 0.0064036 0.00633243 0.00625101 0.00615937 0.0060575 0.00594314 0.00581402 0.00567016 0.00551154 0.00533816 0.00515004 0.00494716 0.00472953 0.0045021 0.00426981 0.00403266 0.00379066 0.00354381 0.00329209 0.00303552 0.0027741 0.00251572 0.00226826 0.00203175 0.00180616 0.00159151 0.00138779 0.00119501 0.00101316 0.000845394 0.000694872 0.000561592 0.000445553 0.000346755 0.000265199 0.000200884 0.000153811 0.000117761 8.65185e-05 6.00823e-05 3.84527e-05 2.16296e-05 9.61317e-06 2.40329e-06 0 0 1.35635e-05 5.4254e-05 0.000122072 0.000217016 0.000339088 0.000488286 0.000664612 0.000868064 0.00111086 0.00140521 0.00175112 0.00214859 0.00259762 0.00309821 0.00365035 0.00425405 0.00489147 0.00554477 0.00621396 0.00689903 0.00759998 0.00831681 0.00904952 0.00979812 0.0105385 0.0112464 0.011922 0.0125652 0.013176 0.0137544 0.0143005 0.0148141 0.0152838 0.0156979 0.0160563 0.0163591 0.0166063 0.0167979 0.0169338 0.0170142 0.0170443 0.0170295 0.0169699 0.0168655 0.0167162 0.016522 0.016283 0.0159992 0.0156866 0.0153616 0.0150242 0.0146742 0.0143118 0.0139369 0.0135495 0.0131497 0.0127518 0.0123701 0.0120048 0.0116558 0.0113231 0.0110067 0.0107066 0.0104228 0.0101583 0.00991611 0.00969627 0.00949875 0.00932356 0.00917069 0.00904014 0.00893193 0.00883829 0.00875149 0.00867153 0.00859841 0.00853213 0.0084727 0.0084201 0.00837434 0.00832586 0.00826512 0.00819211 0.00810684 0.0080093 0.00789948 0.00777741 0.00764306 0.00749376 0.00732684 0.00714229 0.0069401 0.00672029 0.00648285 0.00622778 0.00595508 0.00567068 0.00538049 0.00508452 0.00478278 0.00447525 0.00416194 0.00384284 0.00351797 0.00319679 0.00288879 0.00259395 0.00231228 0.00204379 0.00178846 0.0015463 0.00131731 0.00110547 0.000914744 0.000745136 0.000596644 0.000469271 0.000363014 0.000277875 0.000213853 0.000163731 0.000120292 8.35363e-05 5.34632e-05 3.00731e-05 1.33658e-05 3.34145e-06 0 0 1.7432e-05 6.97279e-05 0.000156888 0.000278912 0.000435799 0.000627551 0.000854167 0.00111565 0.00142539 0.00179681 0.00222989 0.00272464 0.00328106 0.00389915 0.00457891 0.00532033 0.00610165 0.0069011 0.00771866 0.00855435 0.00940817 0.0102801 0.0111702 0.0120784 0.0129761 0.0138347 0.0146543 0.0154349 0.0161764 0.0168788 0.0175422 0.0181665 0.018738 0.019243 0.0196816 0.0200536 0.0203592 0.0205982 0.0207707 0.0208768 0.0209227 0.0209148 0.0208531 0.0207375 0.0205682 0.0203451 0.0200681 0.0197374 0.0193719 0.0189909 0.0185943 0.018182 0.0177542 0.0173108 0.0168518 0.0163772 0.015904 0.0154493 0.0150131 0.0145953 0.014196 0.0138151 0.0134527 0.0131088 0.0127869 0.0124909 0.0122207 0.0119763 0.0117577 0.0115649 0.0113979 0.0112567 0.0111324 0.0110158 0.0109072 0.0108063 0.0107133 0.0106282 0.0105509 0.0104814 0.0104086 0.0103214 0.0102197 0.0101036 0.009973 0.00982794 0.00966842 0.00949445 0.0093029 0.00909065 0.0088577 0.00860405 0.0083297 0.00803465 0.0077189 0.00738246 0.00703228 0.00667535 0.00631165 0.0059412 0.00556398 0.00518001 0.00478927 0.00439178 0.0039987 0.00362122 0.00325934 0.00291306 0.00258238 0.00226729 0.00196781 0.00168392 0.00142055 0.00118264 0.000970193 0.000783198 0.000621658 0.000485575 0.000374947 0.000289775 0.000221859 0.000162999 0.000113193 7.24438e-05 4.07496e-05 1.81109e-05 4.52774e-06 0 0 2.19762e-05 8.7905e-05 0.000197786 0.00035162 0.000549406 0.000791145 0.00107684 0.00140648 0.00179447 0.0022552 0.00278867 0.00339488 0.00407383 0.00482551 0.00564994 0.00654711 0.00749082 0.00845489 0.00943932 0.0104441 0.0114692 0.0125147 0.0135806 0.0146668 0.0157399 0.0167666 0.0177469 0.0186807 0.019568 0.0204089 0.0212034 0.0219514 0.022637 0.0232441 0.0237729 0.0242233 0.0245952 0.0248888 0.0251039 0.0252406 0.0253063 0.0253084 0.0252468 0.0251215 0.0249327 0.0246801 0.0243639 0.023984 0.0235628 0.0231223 0.0226627 0.0221839 0.0216859 0.0211687 0.0206324 0.0200768 0.019522 0.0189877 0.018474 0.0179808 0.0175082 0.0170561 0.0166247 0.0162137 0.0158277 0.0154712 0.0151439 0.0148461 0.0145777 0.0143386 0.0141289 0.0139487 0.0137875 0.0136352 0.0134917 0.0133571 0.0132313 0.0131145 0.0130064 0.0129073 0.0128041 0.0126842 0.0125474 0.0123939 0.0122235 0.0120364 0.0118324 0.0116117 0.0113705 0.0111054 0.0108164 0.0105034 0.0101664 0.00980544 0.00942053 0.00901166 0.00858692 0.00815438 0.00771405 0.00726593 0.00681001 0.00634631 0.00587481 0.00539552 0.00492144 0.00446558 0.00402793 0.0036085 0.00320729 0.0028243 0.00245952 0.00211296 0.00179064 0.00149857 0.00123676 0.00100521 0.000803918 0.000632881 0.000492101 0.000381578 0.000292145 0.000214637 0.000149054 9.53944e-05 5.36594e-05 2.38486e-05 5.96215e-06 0 0 2.71963e-05 0.000108785 0.000244767 0.000435141 0.000679908 0.000979067 0.00133262 0.00174056 0.00221809 0.00278039 0.00342746 0.0041593 0.00497591 0.0058773 0.00686345 0.00793438 0.00905898 0.0102062 0.0113759 0.0125682 0.0137832 0.0150206 0.0162807 0.0175633 0.01883 0.0200421 0.0211996 0.0223026 0.023351 0.0243449 0.0252842 0.0261689 0.0269807 0.0277012 0.0283303 0.028868 0.0293145 0.0296695 0.0299333 0.0301057 0.0301952 0.0302104 0.0301511 0.0300175 0.0298095 0.0295271 0.0291703 0.0287391 0.0282591 0.0277559 0.0272295 0.0266798 0.0261068 0.0255107 0.0248913 0.0242486 0.0236057 0.0229853 0.0223876 0.0218124 0.0212598 0.0207298 0.0202224 0.0197376 0.0192807 0.0188568 0.0184659 0.0181081 0.0177834 0.0174918 0.0172332 0.0170076 0.0168036 0.0166094 0.0164251 0.0162507 0.0160862 0.0159315 0.0157868 0.0156519 0.0155123 0.0153534 0.0151752 0.0149777 0.0147609 0.0145248 0.0142694 0.0139947 0.0136967 0.0133712 0.0130184 0.0126381 0.0122303 0.0117952 0.0113327 0.0108427 0.0103346 0.00981759 0.00929172 0.00875697 0.00821334 0.00766083 0.00709945 0.00652919 0.005965 0.00542184 0.00489971 0.0043986 0.00391852 0.00345947 0.00302145 0.00260445 0.00221573 0.00186253 0.00154485 0.00126269 0.00101605 0.000804933 0.000629336 0.00048926 0.00037459 0.000275209 0.000191117 0.000122315 6.88022e-05 3.05788e-05 7.64469e-06 0 0 3.30922e-05 0.000132369 0.000297829 0.000529475 0.000827304 0.00119132 0.00162152 0.0021179 0.00269625 0.00337238 0.00414626 0.00501791 0.00598732 0.0070545 0.00821944 0.00948215 0.0108061 0.0121549 0.0135285 0.0149268 0.01635 0.0177979 0.0192706 0.0207681 0.0222463 0.0236611 0.0250126 0.0263006 0.0275253 0.0286866 0.0297845 0.030819 0.0317692 0.0326141 0.0333537 0.0339879 0.0345169 0.0349406 0.0352589 0.0354719 0.0355893 0.0356207 0.0355661 0.0354254 0.0351987 0.034886 0.0344873 0.0340026 0.033461 0.0328917 0.0322946 0.0316697 0.031017 0.0303367 0.0296285 0.0288926 0.0281551 0.0274421 0.0267538 0.02609 0.0254508 0.0248361 0.024246 0.0236805 0.0231457 0.0226477 0.0221866 0.0217624 0.0213749 0.0210244 0.0207106 0.0204337 0.0201807 0.0199386 0.0197074 0.0194872 0.0192778 0.0190794 0.0188918 0.0187152 0.0185331 0.018329 0.018103 0.017855 0.0175851 0.0172932 0.0169794 0.0166436 0.0162813 0.015888 0.0154636 0.0150081 0.0145216 0.014004 0.0134553 0.0128756 0.0122753 0.011665 0.0110447 0.0104143 0.00977396 0.00912359 0.0084632 0.00779279 0.00712939 0.00649002 0.00587467 0.00528336 0.00471607 0.00417282 0.00365359 0.00315839 0.00269583 0.00227451 0.00189445 0.00155563 0.00125805 0.00100173 0.000786653 0.000612823 0.000469193 0.000344713 0.000239384 0.000153206 8.61783e-05 3.83015e-05 9.57536e-06 0 0 3.96638e-05 0.000158655 0.000356974 0.000634621 0.000991595 0.0014279 0.00194353 0.00253848 0.00322896 0.00403116 0.00494508 0.00597071 0.00710806 0.00835713 0.00971791 0.0111904 0.0127323 0.0143011 0.015897 0.0175198 0.0191696 0.0208464 0.0225502 0.024281 0.0259889 0.0276238 0.0291858 0.0306748 0.0320909 0.0334341 0.0347044 0.0359018 0.0370025 0.037983 0.0388431 0.039583 0.0402025 0.0407018 0.0410808 0.0413394 0.0414887 0.0415394 0.0414916 0.0413452 0.0411004 0.040757 0.040315 0.0397746 0.0391684 0.0385296 0.037858 0.0371536 0.0364165 0.0356466 0.034844 0.0340087 0.0331702 0.0323582 0.0315726 0.0308136 0.0300811 0.029375 0.0286954 0.0280423 0.0274229 0.0268441 0.0263061 0.0258088 0.0253522 0.0249364 0.0245613 0.0242269 0.0239189 0.0236228 0.0233387 0.0230665 0.0228063 0.022558 0.0223217 0.0220974 0.0218666 0.0216111 0.0213309 0.0210259 0.0206961 0.0203416 0.0199624 0.0195583 0.0191245 0.0186558 0.0181521 0.0176136 0.0170401 0.0164317 0.0157884 0.0151102 0.014409 0.0136965 0.0129729 0.012238 0.0114919 0.0107346 0.00996605 0.00918633 0.00841461 0.00767011 0.00695283 0.00626278 0.00559994 0.00496433 0.00435594 0.00377477 0.00323093 0.00273452 0.00228556 0.00188403 0.00152993 0.00122327 0.000964051 0.000752266 0.000575954 0.00042315 0.000293854 0.000188067 0.000105787 4.70166e-05 1.17542e-05 0 0 4.69687e-05 0.000187875 0.000422719 0.0007515 0.00117422 0.00169087 0.00230147 0.003006 0.00382079 0.00476216 0.0058301 0.00702463 0.00834573 0.00979342 0.0113677 0.0130685 0.0148472 0.0166549 0.0184918 0.0203577 0.0222527 0.0241767 0.0261299 0.0281121 0.0300673 0.0319393 0.0337282 0.035434 0.0370565 0.038596 0.0400522 0.0414254 0.0426888 0.0438161 0.0448072 0.0456621 0.0463809 0.0469634 0.0474098 0.04772 0.0479062 0.0479805 0.047943 0.0477937 0.0475325 0.0471595 0.0466746 0.0460779 0.0454062 0.0446962 0.0439479 0.0431615 0.0423367 0.0414738 0.0405726 0.0396331 0.0386886 0.0377723 0.0368842 0.0360243 0.0351926 0.0343891 0.0336137 0.0328666 0.0321559 0.0314896 0.030868 0.0302909 0.0297583 0.0292703 0.0288269 0.028428 0.0280579 0.0277007 0.0273564 0.0270251 0.0267067 0.0264013 0.0261088 0.0258292 0.0255423 0.0252277 0.0248855 0.0245156 0.024118 0.0236927 0.0232398 0.0227592 0.0222454 0.0216927 0.0211011 0.0204707 0.0198014 0.0190932 0.0183462 0.0175603 0.0167487 0.0159247 0.0150883 0.0142395 0.0133783 0.0125046 0.0116185 0.01072 0.0098305 0.00897162 0.00814331 0.00734558 0.00657843 0.00584185 0.00513584 0.0044604 0.0038273 0.00324828 0.00272334 0.00225249 0.00183572 0.00147303 0.00116443 0.00090991 0.00069665 0.000511824 0.000355433 0.000227477 0.000127956 5.68694e-05 1.42173e-05 0 0 5.50644e-05 0.000220258 0.00049558 0.000881031 0.00137661 0.00198232 0.00269816 0.00352412 0.0044763 0.00557077 0.00680754 0.0081866 0.00970796 0.0113716 0.0131776 0.0151258 0.0171607 0.0192265 0.0213232 0.0234509 0.0256096 0.0277992 0.0300198 0.0322713 0.0344912 0.0366172 0.0386491 0.0405869 0.0424308 0.0441806 0.0458363 0.0473981 0.0488364 0.0501219 0.0512545 0.0522344 0.0530614 0.0537356 0.054257 0.0546255 0.0548547 0.0549581 0.0549357 0.0547874 0.0545132 0.0541132 0.0535874 0.0529357 0.052199 0.0514179 0.0505927 0.0497231 0.0488092 0.0478511 0.0468487 0.0458021 0.044748 0.0437235 0.0427285 0.0417631 0.0408272 0.0399209 0.039044 0.0381968 0.0373883 0.0366281 0.035916 0.035252 0.0346362 0.0340686 0.0335492 0.0330779 0.0326376 0.0322111 0.0317983 0.0313994 0.0310143 0.030643 0.0302855 0.0299419 0.0295897 0.029207 0.0287935 0.0283495 0.0278747 0.0273694 0.0268333 0.0262666 0.0256632 0.0250169 0.0243278 0.0235957 0.0228209 0.0220031 0.0211425 0.0202391 0.0193074 0.0183621 0.0174031 0.0164305 0.0154443 0.0144444 0.0134309 0.0124038 0.0113869 0.010404 0.00945525 0.00854051 0.00765982 0.00681319 0.00600062 0.0052221 0.00449121 0.00382149 0.00321296 0.00266562 0.00217946 0.00175448 0.00139068 0.00108807 0.000833056 0.000612041 0.000425029 0.000272018 0.00015301 6.80046e-05 1.70011e-05 0 0 6.39509e-05 0.000255804 0.000575558 0.00102321 0.00159877 0.00230223 0.00313359 0.00409286 0.0051955 0.00645702 0.00787739 0.00945663 0.0111947 0.0130917 0.0151475 0.0173622 0.0196727 0.0220157 0.0243914 0.0267996 0.0292404 0.0317139 0.0342199 0.0367585 0.0392607 0.0416573 0.0439483 0.0461337 0.0482136 0.0501879 0.0520567 0.0538199 0.0554452 0.0569002 0.0581851 0.0592997 0.0602441 0.0610183 0.0616223 0.062056 0.0623344 0.0624722 0.0624695 0.0623263 0.0620425 0.0616182 0.0610533 0.0603479 0.0595468 0.0586949 0.0577921 0.0568385 0.055834 0.0547787 0.0536726 0.0525156 0.0513484 0.0502117 0.0491056 0.04803 0.0469849 0.0459704 0.0449863 0.0440328 0.0431203 0.0422594 0.04145 0.0406922 0.039986 0.0393312 0.0387281 0.0381765 0.0376579 0.0371539 0.0366645 0.0361895 0.0357291 0.0352833 0.034852 0.0344352 0.0340089 0.0335488 0.033055 0.0325276 0.0319664 0.0313715 0.0307429 0.0300806 0.0293779 0.0286284 0.027832 0.0269888 0.0260986 0.0251615 0.0241776 0.0231467 0.022085 0.0210085 0.0199171 0.018811 0.0176899 0.0165541 0.0154034 0.0142379 0.0130838 0.0119674 0.0108886 0.00984755 0.00884413 0.00787837 0.00695029 0.00605986 0.00522265 0.00445416 0.00375442 0.00312341 0.00256114 0.00206761 0.00164282 0.00128676 0.000985173 0.000723801 0.00050264 0.000321689 0.00018095 8.04223e-05 2.01056e-05 0 0 7.36281e-05 0.000294513 0.000662653 0.00117805 0.0018407 0.00265061 0.00360778 0.0047122 0.0059784 0.00742088 0.00903966 0.0108347 0.0128061 0.0149537 0.0172777 0.0197779 0.0223833 0.0250227 0.0276961 0.0304036 0.0331451 0.0359207 0.0387303 0.0415739 0.0443756 0.0470596 0.0496259 0.0520744 0.0544051 0.0566181 0.0587133 0.0606908 0.0625152 0.0641512 0.0655989 0.0668581 0.067929 0.0688116 0.0695057 0.0700115 0.0703451 0.0705228 0.0705446 0.0704105 0.0701204 0.0696744 0.0690724 0.0683146 0.0674498 0.066527 0.0655463 0.0645077 0.0634111 0.0622565 0.061044 0.0597736 0.0584897 0.057237 0.0560154 0.054825 0.0536657 0.0525376 0.0514406 0.0503748 0.0493518 0.0483836 0.0474702 0.0466115 0.0458075 0.0450582 0.0443637 0.0437239 0.043119 0.0425293 0.0419547 0.0413953 0.0408511 0.040322 0.0398081 0.0393093 0.0387997 0.0382533 0.03767 0.0370499 0.0363929 0.0356991 0.0349685 0.034201 0.0333896 0.0325273 0.031614 0.0306497 0.0296345 0.0285684 0.0274513 0.0262832 0.0250816 0.0238641 0.0226305 0.0213809 0.0201152 0.0188336 0.0175359 0.0162222 0.0149212 0.0136617 0.0124435 0.0112667 0.0101313 0.00903739 0.00798483 0.00697369 0.00602162 0.00514629 0.00434771 0.00362587 0.00298078 0.00241243 0.00192082 0.00150596 0.001153 0.000847103 0.000588266 0.00037649 0.000211776 9.41226e-05 2.35306e-05 0 0 8.40962e-05 0.000336385 0.000756865 0.00134554 0.0021024 0.00302746 0.00412071 0.00538215 0.00682498 0.00846237 0.0102943 0.0123209 0.014542 0.0169576 0.0195679 0.0223727 0.0252924 0.0282474 0.0312376 0.034263 0.0373237 0.0404197 0.0435509 0.0467173 0.0498361 0.0528242 0.0556818 0.0584088 0.0610052 0.063471 0.0658062 0.0680108 0.0700464 0.0718748 0.0734959 0.0749097 0.0761162 0.0771154 0.0779073 0.078492 0.0788869 0.0791099 0.0791609 0.0790399 0.0787468 0.0782818 0.0776447 0.0768357 0.0759078 0.0749144 0.0738553 0.0727307 0.0715404 0.0702846 0.0689632 0.0675762 0.066172 0.0647993 0.063458 0.0621481 0.0608696 0.0596225 0.0584069 0.0572226 0.0560828 0.0550008 0.0539764 0.0530098 0.0521008 0.0512495 0.0504559 0.04972 0.0490207 0.0483371 0.0476692 0.0470169 0.0463802 0.0457592 0.0451539 0.0445642 0.0439623 0.0433203 0.0426384 0.0419164 0.0411543 0.0403522 0.0395101 0.0386279 0.0376982 0.0367134 0.0356735 0.0345786 0.0334287 0.0322237 0.0309636 0.0296485 0.0282972 0.0269287 0.0255431 0.0241402 0.0227202 0.0212829 0.0198284 0.0183568 0.0168992 0.0154868 0.0141198 0.012798 0.0115215 0.0102902 0.00910427 0.00796358 0.00688813 0.00589788 0.00499284 0.004173 0.00343837 0.00278894 0.00222471 0.00174569 0.00133654 0.000981948 0.000681909 0.000436421 0.000245487 0.000109105 2.72763e-05 0 0 9.53549e-05 0.00038142 0.000858194 0.00152568 0.00238387 0.00343278 0.00467239 0.00610272 0.00773525 0.00958148 0.0116414 0.0139151 0.0164024 0.0191035 0.0220182 0.0251467 0.0284001 0.0316898 0.0350157 0.0383778 0.0417762 0.0452109 0.0486817 0.0521888 0.055642 0.0589511 0.0621161 0.0651371 0.0680139 0.0707466 0.0733353 0.0757799 0.0780389 0.080071 0.0818761 0.0834543 0.0848055 0.0859297 0.086827 0.0874974 0.0879598 0.0882335 0.0883184 0.0882145 0.0879219 0.0874404 0.0867702 0.0859112 0.0849209 0.0838569 0.082719 0.0815074 0.080