<?xml version="1.0"?> 
<VTKFile type="StructuredGrid" version="0.1"> 
<StructuredGrid WholeExtent="0 128 0 128 0 0"> 
<Piece Extent="0 128 0 128 0 0"> 
<PointData>
<DataArray type="Float32" Name="u" format="ascii" NumberOfComponents="1"> 
0 0 0 0 0 0 0 0 0 0 0 0 0 0 0 0 0 0 0 0 0 0 0 0 0 0 0 0 0 0 0 0 0 0 0 0 0 0 0 0 0 0 0 0 0 0 0 0 0 0 0 0 0 0 0 0 0 0 0 0 0 0 0 0 0 0 0 0 0 0 0 0 0 0 0 0 0 0 0 0 0 0 0 0 0 0 0 0 0 0 0 0 0 0 0 0 0 0 0 0 0 0 0 0 0 0 0 0 0 0 0 0 0 0 0 0 0 0 0 0 0 0 0 0 0 0 0 0 0 0 -1.67044e-07 -6.68178e-07 -1.5034e-06 -2.67271e-06 -4.17611e-06 -6.0136e-06 -8.18518e-06 -1.06908e-05 -1.32984e-05 -1.57756e-05 -1.81224e-05 -2.03389e-05 -2.24251e-05 -2.43809e-05 -2.62063e-05 -2.79014e-05 -2.93234e-05 -3.03293e-05 -3.09193e-05 -3.10934e-05 -3.08515e-05 -3.01936e-05 -2.91197e-05 -2.76299e-05 -2.58857e-05 -2.40488e-05 -2.21191e-05 -2.00967e-05 -1.79816e-05 -1.57738e-05 -1.34732e-05 -1.10799e-05 -8.8201e-06 -6.91997e-06 -5.37952e-06 -4.19876e-06 -3.37769e-06 -2.91631e-06 -2.81461e-06 -3.0726e-06 -3.71331e-06 -4.75977e-06 -6.21198e-06 -8.06995e-06 -1.03337e-05 -1.30031e-05 -1.60784e-05 -1.95593e-05 -2.32378e-05 -2.69053e-05 -3.0562e-05 -3.42079e-05 -3.78429e-05 -4.14671e-05 -4.50804e-05 -4.86828e-05 -5.20604e-05 -5.49992e-05 -5.7499e-05 -5.956e-05 -6.11821e-05 -6.23653e-05 -6.31097e-05 -6.34152e-05 -6.32867e-05 -6.27289e-05 -6.1742e-05 -6.03259e-05 -5.84806e-05 -5.6206e-05 -5.35023e-05 -5.03694e-05 -4.70115e-05 -4.36328e-05 -4.02333e-05 -3.68131e-05 -3.3372e-05 -2.99102e-05 -2.64275e-05 -2.29241e-05 -1.9578e-05 -1.65673e-05 -1.3892e-05 -1.1552e-05 -9.54749e-06 -7.87834e-06 -6.54459e-06 -5.54622e-06 -4.86048e-06 -4.46458e-06 -4.35852e-06 -4.5423e-06 -5.01592e-06 -5.77938e-06 -6.83268e-06 -8.17583e-06 -9.63822e-06 -1.10493e-05 -1.2409e-05 -1.37173e-05 -1.49743e-05 -1.618e-05 -1.73343e-05 -1.84373e-05 -1.9378e-05 -2.00455e-05 -2.04398e-05 -2.05609e-05 -2.04087e-05 -1.99834e-05 -1.92848e-05 -1.83131e-05 -1.71656e-05 -1.59397e-05 -1.46355e-05 -1.32531e-05 -1.17922e-05 -1.02531e-05 -8.63562e-06 -6.93982e-06 -5.3133e-06 -3.90365e-06 -2.71087e-06 -1.73496e-06 -9.75913e-07 -4.33739e-07 -1.08435e-07 0 0 -6.68178e-07 -2.67271e-06 -6.0136e-06 -1.06908e-05 -1.67044e-05 -2.40544e-05 -3.27407e-05 -4.27634e-05 -5.31935e-05 -6.31023e-05 -7.24896e-05 -8.13556e-05 -8.97002e-05 -9.75234e-05 -0.000104825 -0.000111606 -0.000117293 -0.000121317 -0.000123677 -0.000124374 -0.000123406 -0.000120774 -0.000116479 -0.000110519 -0.000103543 -9.6195e-05 -8.84765e-05 -8.03869e-05 -7.19265e-05 -6.30952e-05 -5.38929e-05 -4.43197e-05 -3.52804e-05 -2.76799e-05 -2.15181e-05 -1.67951e-05 -1.35108e-05 -1.16652e-05 -1.12584e-05 -1.22904e-05 -1.48532e-05 -1.90391e-05 -2.48479e-05 -3.22798e-05 -4.13347e-05 -5.20125e-05 -6.43134e-05 -7.82373e-05 -9.2951e-05 -0.000107621 -0.000122248 -0.000136832 -0.000151372 -0.000165868 -0.000180322 -0.000194731 -0.000208242 -0.000219997 -0.000229996 -0.00023824 -0.000244728 -0.000249461 -0.000252439 -0.000253661 -0.000253147 -0.000250916 -0.000246968 -0.000241304 -0.000233922 -0.000224824 -0.000214009 -0.000201478 -0.000188046 -0.000174531 -0.000160933 -0.000147252 -0.000133488 -0.000119641 -0.00010571 -9.16965e-05 -7.8312e-05 -6.62691e-05 -5.55678e-05 -4.62081e-05 -3.81899e-05 -3.15134e-05 -2.61783e-05 -2.21849e-05 -1.94419e-05 -1.78583e-05 -1.74341e-05 -1.81692e-05 -2.00637e-05 -2.31175e-05 -2.73307e-05 -3.27033e-05 -3.85529e-05 -4.41971e-05 -4.96359e-05 -5.48693e-05 -5.98974e-05 -6.472e-05 -6.93373e-05 -7.37492e-05 -7.75121e-05 -8.0182e-05 -8.17592e-05 -8.22435e-05 -8.16349e-05 -7.99336e-05 -7.71394e-05 -7.32524e-05 -6.86623e-05 -6.37589e-05 -5.85422e-05 -5.30122e-05 -4.71689e-05 -4.10123e-05 -3.45425e-05 -2.77593e-05 -2.12532e-05 -1.56146e-05 -1.08435e-05 -6.93982e-06 -3.90365e-06 -1.73496e-06 -4.33739e-07 0 0 -1.5034e-06 -6.0136e-06 -1.35306e-05 -2.40544e-05 -3.7585e-05 -5.41224e-05 -7.36666e-05 -9.62176e-05 -0.000119685 -0.00014198 -0.000163102 -0.00018305 -0.000201825 -0.000219428 -0.000235857 -0.000251113 -0.00026391 -0.000272964 -0.000278274 -0.00027984 -0.000277663 -0.000271742 -0.000262077 -0.000248669 -0.000232971 -0.000216439 -0.000199072 -0.000180871 -0.000161835 -0.000141964 -0.000121259 -9.97193e-05 -7.93809e-05 -6.22797e-05 -4.84157e-05 -3.77889e-05 -3.03992e-05 -2.62467e-05 -2.53315e-05 -2.76534e-05 -3.34197e-05 -4.28379e-05 -5.59078e-05 -7.26295e-05 -9.3003e-05 -0.000117028 -0.000144705 -0.000176034 -0.00020914 -0.000242148 -0.000275058 -0.000307871 -0.000340586 -0.000373204 -0.000405724 -0.000438146 -0.000468544 -0.000494992 -0.000517491 -0.00053604 -0.000550639 -0.000561288 -0.000567987 -0.000570737 -0.00056958 -0.000564561 -0.000555678 -0.000542933 -0.000526325 -0.000505854 -0.000481521 -0.000453325 -0.000423104 -0.000392695 -0.0003621 -0.000331318 -0.000300348 -0.000269191 -0.000237848 -0.000206317 -0.000176202 -0.000149106 -0.000125028 -0.000103968 -8.59274e-05 -7.09051e-05 -5.89013e-05 -4.9916e-05 -4.37443e-05 -4.01812e-05 -3.92267e-05 -4.08807e-05 -4.51433e-05 -5.20144e-05 -6.14942e-05 -7.35825e-05 -8.6744e-05 -9.94434e-05 -0.000111681 -0.000123456 -0.000134769 -0.00014562 -0.000156009 -0.000165936 -0.000174402 -0.00018041 -0.000183958 -0.000185048 -0.000183679 -0.000179851 -0.000173564 -0.000164818 -0.00015449 -0.000143457 -0.00013172 -0.000119277 -0.00010613 -9.22778e-05 -7.77205e-05 -6.24584e-05 -4.78197e-05 -3.51329e-05 -2.43978e-05 -1.56146e-05 -8.78321e-06 -3.90365e-06 -9.75913e-07 0 0 -2.67271e-06 -1.06908e-05 -2.40544e-05 -4.27634e-05 -6.68178e-05 -9.62176e-05 -0.000130963 -0.000171053 -0.000212774 -0.000252409 -0.000289959 -0.000325422 -0.000358801 -0.000390094 -0.000419301 -0.000446423 -0.000469174 -0.000485269 -0.00049471 -0.000497494 -0.000493623 -0.000483097 -0.000465915 -0.000442078 -0.000414171 -0.00038478 -0.000353906 -0.000321548 -0.000287706 -0.000252381 -0.000215572 -0.000177279 -0.000141122 -0.00011072 -8.60724e-05 -6.71802e-05 -5.4043e-05 -4.66609e-05 -4.50337e-05 -4.91615e-05 -5.94129e-05 -7.61563e-05 -9.93917e-05 -0.000129119 -0.000165339 -0.00020805 -0.000257254 -0.000312949 -0.000371804 -0.000430485 -0.000488993 -0.000547327 -0.000605487 -0.000663473 -0.000721286 -0.000778926 -0.000832967 -0.000879987 -0.000919984 -0.00095296 -0.000978914 -0.000997845 -0.00100976 -0.00101464 -0.00101259 -0.00100366 -0.000987872 -0.000965214 -0.000935689 -0.000899297 -0.000856037 -0.000805911 -0.000752184 -0.000698125 -0.000643733 -0.000589009 -0.000533952 -0.000478563 -0.000422841 -0.000366786 -0.000313248 -0.000265077 -0.000222271 -0.000184832 -0.00015276 -0.000126053 -0.000104713 -8.87396e-05 -7.77677e-05 -7.14333e-05 -6.97363e-05 -7.26768e-05 -8.02547e-05 -9.24701e-05 -0.000109323 -0.000130813 -0.000154212 -0.000176788 -0.000198544 -0.000219477 -0.000239589 -0.00025888 -0.000277349 -0.000294997 -0.000310048 -0.000320728 -0.000327037 -0.000328974 -0.00032654 -0.000319734 -0.000308558 -0.000293009 -0.000274649 -0.000255035 -0.000234169 -0.000212049 -0.000188676 -0.000164049 -0.00013817 -0.000111037 -8.50128e-05 -6.24584e-05 -4.33739e-05 -2.77593e-05 -1.56146e-05 -6.93982e-06 -1.73496e-06 0 0 -4.17611e-06 -1.67044e-05 -3.7585e-05 -6.68178e-05 -0.000104403 -0.00015034 -0.000204629 -0.000267271 -0.000332459 -0.000394389 -0.00045306 -0.000508473 -0.000560626 -0.000609521 -0.000655158 -0.000697535 -0.000733084 -0.000758233 -0.000772984 -0.000777335 -0.000771286 -0.000754839 -0.000727992 -0.000690746 -0.000647142 -0.000601219 -0.000552978 -0.000502418 -0.000449541 -0.000394345 -0.000336831 -0.000276998 -0.000220503 -0.000172999 -0.000134488 -0.000104969 -8.44423e-05 -7.29076e-05 -7.03652e-05 -7.68149e-05 -9.28326e-05 -0.000118994 -0.0001553 -0.000201749 -0.000258342 -0.000325078 -0.000401959 -0.000488983 -0.000580944 -0.000672633 -0.000764051 -0.000855198 -0.000946073 -0.00103668 -0.00112701 -0.00121707 -0.00130151 -0.00137498 -0.00143748 -0.001489 -0.00152955 -0.00155913 -0.00157774 -0.00158538 -0.00158217 -0.00156822 -0.00154355 -0.00150815 -0.00146201 -0.00140515 -0.00133756 -0.00125924 -0.00117529 -0.00109082 -0.00100583 -0.000920327 -0.0008343 -0.000747754 -0.000660688 -0.000573103 -0.00048945 -0.000414182 -0.000347299 -0.000288801 -0.000238687 -0.000196958 -0.000163615 -0.000138656 -0.000121512 -0.000111614 -0.000108963 -0.000113557 -0.000125398 -0.000144485 -0.000170817 -0.000204396 -0.000240956 -0.000276232 -0.000310224 -0.000342933 -0.000374359 -0.0004045 -0.000433358 -0.000460933 -0.00048445 -0.000501138 -0.000510995 -0.000514022 -0.000510218 -0.000499585 -0.000482121 -0.000457827 -0.000429139 -0.000398493 -0.000365889 -0.000331326 -0.000294806 -0.000256327 -0.00021589 -0.000173496 -0.000132833 -9.75913e-05 -6.77717e-05 -4.33739e-05 -2.43978e-05 -1.08435e-05 -2.71087e-06 0 0 -6.0136e-06 -2.40544e-05 -5.41224e-05 -9.62176e-05 -0.00015034 -0.00021649 -0.000294666 -0.00038487 -0.000478742 -0.00056792 -0.000652407 -0.000732201 -0.000807302 -0.000877711 -0.000943427 -0.00100445 -0.00105564 -0.00109186 -0.0011131 -0.00111936 -0.00111065 -0.00108697 -0.00104831 -0.000994675 -0.000931884 -0.000865755 -0.000796288 -0.000723483 -0.000647339 -0.000567856 -0.000485036 -0.000398877 -0.000317524 -0.000249119 -0.000193663 -0.000151155 -0.000121597 -0.000104987 -0.000101326 -0.000110613 -0.000133679 -0.000171352 -0.000223631 -0.000290518 -0.000372012 -0.000468113 -0.000578821 -0.000704136 -0.000836559 -0.000968592 -0.00110023 -0.00123148 -0.00136235 -0.00149282 -0.00162289 -0.00175258 -0.00187418 -0.00197997 -0.00206996 -0.00214416 -0.00220256 -0.00224515 -0.00227195 -0.00228295 -0.00227832 -0.00225824 -0.00222271 -0.00217173 -0.0021053 -0.00202342 -0.00192608 -0.0018133 -0.00169241 -0.00157078 -0.0014484 -0.00132527 -0.00120139 -0.00107677 -0.000951391 -0.000825268 -0.000704808 -0.000596422 -0.000500111 -0.000415873 -0.00034371 -0.00028362 -0.000235605 -0.000199664 -0.000174977 -0.000160725 -0.000156907 -0.000163523 -0.000180573 -0.000208058 -0.000245977 -0.00029433 -0.000346976 -0.000397774 -0.000446723 -0.000493824 -0.000539076 -0.00058248 -0.000624036 -0.000663743 -0.000697608 -0.000721638 -0.000735832 -0.000740191 -0.000734714 -0.000719402 -0.000694254 -0.000659271 -0.00061796 -0.00057383 -0.00052688 -0.00047711 -0.00042452 -0.000369111 -0.000310882 -0.000249834 -0.000191279 -0.000140531 -9.75913e-05 -6.24584e-05 -3.51329e-05 -1.56146e-05 -3.90365e-06 0 0 -8.18518e-06 -3.27407e-05 -7.36666e-05 -0.000130963 -0.000204629 -0.000294666 -0.000401074 -0.000523851 -0.000651621 -0.000773003 -0.000887998 -0.000996606 -0.00109883 -0.00119466 -0.00128411 -0.00136717 -0.00143684 -0.00148614 -0.00151505 -0.00152358 -0.00151172 -0.00147948 -0.00142686 -0.00135386 -0.0012684 -0.00117839 -0.00108384 -0.00098474 -0.0008811 -0.000772916 -0.000660188 -0.000542916 -0.000432185 -0.000339078 -0.000263597 -0.000205739 -0.000165507 -0.000142899 -0.000137916 -0.000150557 -0.000181952 -0.000233229 -0.000304387 -0.000395427 -0.00050635 -0.000637154 -0.000787839 -0.000958407 -0.00113865 -0.00131836 -0.00149754 -0.00167619 -0.0018543 -0.00203189 -0.00220894 -0.00238546 -0.00255096 -0.00269496 -0.00281745 -0.00291844 -0.00299792 -0.0030559 -0.00309238 -0.00310735 -0.00310105 -0.00307372 -0.00302536 -0.00295597 -0.00286555 -0.0027541 -0.00262161 -0.0024681 -0.00230356 -0.00213801 -0.00197143 -0.00180384 -0.00163523 -0.0014656 -0.00129495 -0.00112328 -0.000959322 -0.000811797 -0.000680706 -0.000566049 -0.000467827 -0.000386039 -0.000320685 -0.000271765 -0.000238164 -0.000218764 -0.000213567 -0.000222573 -0.00024578 -0.00028319 -0.000334802 -0.000400616 -0.000472273 -0.000541414 -0.00060804 -0.000672149 -0.000733743 -0.000792821 -0.000849382 -0.000903428 -0.000949523 -0.00098223 -0.00100155 -0.00100748 -0.00100003 -0.000979186 -0.000944957 -0.000897341 -0.000841113 -0.000781046 -0.000717142 -0.000649399 -0.000577819 -0.000502401 -0.000423145 -0.000340051 -0.000260352 -0.000191279 -0.000132833 -8.50128e-05 -4.78197e-05 -2.12532e-05 -5.3133e-06 0 0 -1.06908e-05 -4.27634e-05 -9.62176e-05 -0.000171053 -0.000267271 -0.00038487 -0.000523851 -0.000684214 -0.000851096 -0.00100964 -0.00115983 -0.00130169 -0.0014352 -0.00156037 -0.0016772 -0.00178569 -0.00187669 -0.00194108 -0.00197884 -0.00198998 -0.00197449 -0.00193239 -0.00186366 -0.00176831 -0.00165668 -0.00153912 -0.00141562 -0.00128619 -0.00115082 -0.00100952 -0.000862286 -0.000709115 -0.000564487 -0.000442878 -0.000344289 -0.000268721 -0.000216172 -0.000186644 -0.000180135 -0.000196646 -0.000237652 -0.000304625 -0.000397567 -0.000516477 -0.000661354 -0.000832201 -0.00102901 -0.0012518 -0.00148722 -0.00172194 -0.00195597 -0.00218931 -0.00242195 -0.00265389 -0.00288515 -0.0031157 -0.00333187 -0.00351995 -0.00367994 -0.00381184 -0.00391565 -0.00399138 -0.00403902 -0.00405857 -0.00405035 -0.00401465 -0.00395149 -0.00386086 -0.00374276 -0.00359719 -0.00342415 -0.00322364 -0.00300874 -0.0027925 -0.00257493 -0.00235604 -0.00213581 -0.00191425 -0.00169136 -0.00146714 -0.00125299 -0.00106031 -0.000889085 -0.00073933 -0.000611039 -0.000504214 -0.000418853 -0.000354958 -0.000311071 -0.000285733 -0.000278945 -0.000290707 -0.000321019 -0.00036988 -0.000437292 -0.000523253 -0.000616846 -0.000707153 -0.000794174 -0.000877909 -0.000958358 -0.00103552 -0.0011094 -0.00117999 -0.00124019 -0.00128291 -0.00130815 -0.0013159 -0.00130616 -0.00127894 -0.00123423 -0.00117204 -0.0010986 -0.00102014 -0.000936675 -0.000848195 -0.000754703 -0.000656197 -0.000552679 -0.000444149 -0.000340051 -0.000249834 -0.000173496 -0.000111037 -6.24584e-05 -2.77593e-05 -6.93982e-06 0 0 -1.32614e-05 -5.30457e-05 -0.000119353 -0.000212183 -0.000331535 -0.000477411 -0.000649809 -0.00084873 -0.0010555 -0.00125144 -0.00143656 -0.00161085 -0.00177431 -0.00192694 -0.00206875 -0.00219973 -0.00230854 -0.00238382 -0.00242559 -0.00243384 -0.00240857 -0.00234977 -0.00225746 -0.00213162 -0.00198539 -0.00183188 -0.00167109 -0.00150302 -0.00132767 -0.00114504 -0.000955136 -0.000757951 -0.000571759 -0.000414831 -0.000287168 -0.00018877 -0.000119636 -7.97673e-05 -6.9163e-05 -8.78234e-05 -0.000137592 -0.000220311 -0.000335981 -0.000484603 -0.000666175 -0.000880698 -0.00112817 -0.0014086 -0.00170513 -0.00200093 -0.00229598 -0.0025903 -0.00288389 -0.00317673 -0.00346884 -0.00376021 -0.00403354 -0.00427152 -0.00447416 -0.00464145 -0.00477339 -0.00486999 -0.00493123 -0.00495714 -0.00494806 -0.00490439 -0.00482611 -0.00471324 -0.00456576 -0.00438368 -0.004167 -0.00391571 -0.00364631 -0.00337528 -0.00310262 -0.00282832 -0.00255239 -0.00227482 -0.00199563 -0.0017148 -0.00144673 -0.00120581 -0.000992028 -0.000805398 -0.000645913 -0.000513576 -0.000408385 -0.000330341 -0.000277617 -0.000248384 -0.000242644 -0.000260396 -0.00030164 -0.000366377 -0.000454606 -0.000566326 -0.000687761 -0.000805131 -0.000918436 -0.00102768 -0.00113285 -0.00123396 -0.00133101 -0.00142399 -0.00150391 -0.00156176 -0.00159754 -0.00161126 -0.00160291 -0.0015725 -0.00152002 -0.00144547 -0.00135662 -0.00126123 -0.00115931 -0.00105084 -0.000935832 -0.000814286 -0.000686201 -0.000551577 -0.000422301 -0.000310262 -0.00021546 -0.000137894 -7.75655e-05 -3.44735e-05 -8.61839e-06 0 0 -1.56277e-05 -6.25108e-05 -0.000140649 -0.000250043 -0.000390693 -0.000562597 -0.000765758 -0.00100017 -0.00124316 -0.00147204 -0.00168681 -0.00188747 -0.00207402 -0.00224646 -0.00240479 -0.00254901 -0.00266572 -0.00274153 -0.00277643 -0.00277044 -0.00272354 -0.00263573 -0.00250702 -0.00233741 -0.00214317 -0.0019406 -0.00172967 -0.00151041 -0.0012828 -0.00104684 -0.000802543 -0.000549901 -0.000311332 -0.000109251 5.63403e-05 0.000185443 0.000278058 0.000334183 0.00035382 0.000336968 0.000281414 0.000184944 4.75586e-05 -0.000130742 -0.000349959 -0.000610091 -0.000911139 -0.0012531 -0.00161526 -0.00197691 -0.00233803 -0.00269864 -0.00305873 -0.0034183 -0.00377736 -0.00413589 -0.00447263 -0.00476629 -0.00501686 -0.00522436 -0.00538877 -0.00551011 -0.00558836 -0.00562353 -0.00561603 -0.00556627 -0.00547424 -0.00533994 -0.00516338 -0.00494455 -0.00468346 -0.0043801 -0.00405467 -0.00372737 -0.0033982 -0.00306715 -0.00273422 -0.00239942 -0.00206275 -0.0017242 -0.00140145 -0.00111215 -0.000856315 -0.000633936 -0.000445017 -0.000289556 -0.000167554 -7.90107e-05 -2.1719e-05 6.52829e-06 5.73121e-06 -2.41102e-05 -8.29961e-05 -0.000170926 -0.000287901 -0.00043392 -0.000592082 -0.000745487 -0.000894135 -0.00103802 -0.00117716 -0.00131153 -0.00144115 -0.00156601 -0.00167496 -0.00175684 -0.00181166 -0.00183941 -0.00184009 -0.00181371 -0.00176027 -0.00167975 -0.0015814 -0.00147444 -0.00135886 -0.00123467 -0.00110187 -0.000960455 -0.000810427 -0.000651787 -0.000499024 -0.00036663 -0.000254604 -0.000162947 -9.16575e-05 -4.07367e-05 -1.01842e-05 0 0 -1.77897e-05 -7.11589e-05 -0.000160108 -0.000284636 -0.000444743 -0.00064043 -0.000871696 -0.00113854 -0.00141408 -0.00167143 -0.00191059 -0.00213156 -0.00233433 -0.00251892 -0.00268531 -0.00283352 -0.00294824 -0.00301419 -0.00303136 -0.00299977 -0.0029194 -0.00279026 -0.00261235 -0.00238567 -0.00213003 -0.00186527 -0.00159138 -0.00130835 -0.0010162 -0.000714918 -0.000404506 -8.49657e-05 0.000216794 0.000473861 0.000686236 0.000853919 0.000976909 0.00105521 0.00108881 0.00107773 0.00101936 0.00091114 0.000753053 0.000545104 0.000287293 -2.03791e-05 -0.000377914 -0.00078531 -0.00121762 -0.00164989 -0.00208213 -0.00251432 -0.00294648 -0.00337861 -0.0038107 -0.00424275 -0.00464913 -0.00500423 -0.00530804 -0.00556056 -0.0057618 -0.00591174 -0.0060104 -0.00605777 -0.00605426 -0.00600029 -0.00589586 -0.00574097 -0.00553562 -0.00527981 -0.00497354 -0.00461681 -0.00423382 -0.00384877 -0.00346167 -0.00307252 -0.00268131 -0.00228804 -0.00189272 -0.00149535 -0.00111714 -0.000779344 -0.000481944 -0.000224946 -8.3491e-06 0.000167846 0.000303641 0.000399033 0.000456622 0.000479005 0.000466181 0.000418151 0.000334914 0.000216471 6.28222e-05 -0.000126033 -0.00032981 -0.000528222 -0.00072127 -0.000908953 -0.00109127 -0.00126823 -0.00143982 -0.00160604 -0.00175334 -0.00186816 -0.00195049 -0.00200034 -0.0020177 -0.00200258 -0.00195498 -0.00187489 -0.00177294 -0.00165976 -0.00153534 -0.0013997 -0.00125282 -0.0010947 -0.000925357 -0.000744779 -0.000570221 -0.000418938 -0.000290929 -0.000186195 -0.000104735 -4.65487e-05 -1.16372e-05 0 0 -1.97475e-05 -7.89898e-05 -0.000177727 -0.000315959 -0.000493687 -0.000710909 -0.000967626 -0.00126384 -0.00156826 -0.00184962 -0.0021079 -0.00234311 -0.00255526 -0.00274433 -0.00291033 -0.00305326 -0.0031561 -0.0032018 -0.00319038 -0.00312184 -0.00299617 -0.00281337 -0.00257345 -0.0022764 -0.00194597 -0.0016059 -0.0012562 -0.000896858 -0.000527884 -0.000149273 0.000238973 0.000636856 0.00101262 0.00133451 0.00160252 0.00181666 0.00197692 0.00208331 0.00213582 0.00213446 0.00207626 0.00195828 0.0017805 0.00154294 0.00124558 0.000888438 0.000471504 -5.22046e-06 -0.000512193 -0.00101987 -0.00152825 -0.00203735 -0.00254714 -0.00305764 -0.00356885 -0.00408077 -0.00456305 -0.00498536 -0.0053477 -0.00565007 -0.00589247 -0.0060749 -0.00619735 -0.00625984 -0.00626274 -0.00620646 -0.00609099 -0.00591633 -0.00568249 -0.00538946 -0.00503724 -0.00462584 -0.00418375 -0.00373949 -0.00329305 -0.00284444 -0.00239365 -0.00194069 -0.00148555 -0.00102823 -0.000593821 -0.000207382 0.000131083 0.000421574 0.00066409 0.000858631 0.0010052 0.00110379 0.00115741 0.00116905 0.00113871 0.00106639 0.000952091 0.000795816 0.000597564 0.000357333 9.90557e-05 -0.000153336 -0.000399842 -0.000640462 -0.000875197 -0.00110405 -0.00132701 -0.00154409 -0.00173906 -0.00189572 -0.00201405 -0.00209405 -0.00213574 -0.00213911 -0.00210415 -0.00203087 -0.00193123 -0.00181719 -0.00168875 -0.00154591 -0.00138867 -0.00121703 -0.00103099 -0.000830553 -0.000635892 -0.000467186 -0.000324435 -0.000207638 -0.000116796 -5.19095e-05 -1.29774e-05 0 0 -2.15009e-05 -8.60037e-05 -0.000193508 -0.000344015 -0.000537523 -0.000774033 -0.00105355 -0.00137606 -0.0017057 -0.00200659 -0.00227874 -0.00252213 -0.00273678 -0.00292268 -0.00307984 -0.00320824 -0.00328929 -0.00330437 -0.00325349 -0.00313664 -0.00295383 -0.00270505 -0.00239031 -0.0020096 -0.00159097 -0.00116249 -0.000724137 -0.000275924 0.000182153 0.000650093 0.0011279 0.00161556 0.00207614 0.00247268 0.00280519 0.00307366 0.00327809 0.00341848 0.00349484 0.00350715 0.0034521 0.00332635 0.0031299 0.00286276 0.00252491 0.00211636 0.00163711 0.00108717 0.000501014 -8.68495e-05 -0.000676424 -0.00126771 -0.00186071 -0.00245541 -0.00305183 -0.00364996 -0.00421438 -0.00470967 -0.00513584 -0.00549288 -0.00578078 -0.00599957 -0.00614922 -0.00622974 -0.00624148 -0.00618477 -0.00605962 -0.00586602 -0.00560398 -0.00527349 -0.00487456 -0.00440718 -0.00390446 -0.00339951 -0.00289232 -0.0023829 -0.00187124 -0.00135735 -0.000841227 -0.000322866 0.000168523 0.000603734 0.000982767 0.00130562 0.0015723 0.0017828 0.00193712 0.00203526 0.00208064 0.00207665 0.0020233 0.0019206 0.00176853 0.00156711 0.00131632 0.00101618 0.000694515 0.000379172 7.01494e-05 -0.000232552 -0.000528933 -0.000818992 -0.00110273 -0.00138015 -0.00163212 -0.00183951 -0.00200232 -0.00212055 -0.00219421 -0.00222328 -0.00220778 -0.0021477 -0.00205627 -0.00194673 -0.00181908 -0.00167331 -0.00150943 -0.00132744 -0.00112733 -0.000909109 -0.000696036 -0.000511374 -0.000355121 -0.000227277 -0.000127843 -5.68193e-05 -1.42048e-05 0 0 -2.30501e-05 -9.22004e-05 -0.000207451 -0.000368802 -0.000576253 -0.000829804 -0.00112946 -0.00147521 -0.0018264 -0.00214236 -0.0024231 -0.00266862 -0.00287892 -0.00305399 -0.00319384 -0.00329846 -0.00334782 -0.0033219 -0.00322069 -0.00304418 -0.00279239 -0.00246531 -0.00206293 -0.00158527 -0.00106506 -0.000535033 4.80349e-06 0.000554451 0.00111391 0.00168318 0.00226226 0.00285116 0.00340736 0.00388839 0.00429425 0.00462492 0.00488041 0.00506073 0.00516586 0.00519582 0.00514689 0.00501537 0.00480126 0.00450456 0.00412527 0.00366339 0.00311891 0.00249185 0.001822 0.00114917 0.000473368 -0.000205414 -0.000887175 -0.00157191 -0.00225963 -0.00295032 -0.00360313 -0.00417717 -0.00467246 -0.00508898 -0.00542675 -0.00568575 -0.005866 -0.00596748 -0.00599047 -0.00593523 -0.00580175 -0.00559004 -0.00530009 -0.00493191 -0.00448549 -0.00396084 -0.00339596 -0.00282884 -0.00225949 -0.00168791 -0.00111409 -0.000538042 4.02418e-05 0.000620759 0.00116989 0.001654 0.00207311 0.0024272 0.00271628 0.00294035 0.0030994 0.00319345 0.00322631 0.00320182 0.00311998 0.00298079 0.00278424 0.00253035 0.0022191 0.0018505 0.00145657 0.0010693 0.000688704 0.000314778 -5.24781e-05 -0.000413064 -0.000766979 -0.00111422 -0.00143251 -0.00169954 -0.00191531 -0.00207983 -0.0021931 -0.00225511 -0.00226587 -0.00222538 -0.00214807 -0.00204839 -0.00192633 -0.0017819 -0.0016151 -0.00142592 -0.00121437 -0.000980446 -0.000750654 -0.000551501 -0.000382987 -0.000245112 -0.000137875 -6.12779e-05 -1.53195e-05 0 0 -2.4395e-05 -9.758e-05 -0.000219555 -0.00039032 -0.000609875 -0.00087822 -0.00119536 -0.00156128 -0.00193035 -0.00225692 -0.002541 -0.00278258 -0.00298166 -0.00313824 -0.00325232 -0.00332391 -0.0033317 -0.00325438 -0.00309197 -0.00284446 -0.00251185 -0.00209414 -0.00159133 -0.00100342 -0.000368216 0.000276465 0.000930625 0.00159427 0.00226739 0.00294999 0.00364207 0.00434363 0.00500629 0.00558164 0.00606969 0.00647044 0.0067839 0.00701005 0.0071489 0.00720045 0.00716062 0.00702533 0.00679457 0.00646835 0.00604667 0.00552952 0.0049169 0.00420883 0.00345077 0.0026882 0.00192112 0.00114954 0.00037345 -0.000407146 -0.00119225 -0.00198186 -0.00272929 -0.00338785 -0.00395755 -0.00443838 -0.00483035 -0.00513345 -0.00534769 -0.00547306 -0.00550972 -0.00545783 -0.00531738 -0.00508838 -0.00477082 -0.00436471 -0.00387005 -0.00328683 -0.00265824 -0.00202749 -0.00139456 -0.000759466 -0.000122196 0.000517245 0.00115886 0.00180264 0.00241027 0.00294343 0.00340211 0.00378631 0.00409603 0.00433128 0.00449205 0.00457834 0.00459442 0.00454455 0.00442872 0.00424695 0.00399922 0.00368553 0.0033059 0.00286031 0.00238521 0.00191705 0.00145582 0.00100153 0.000554166 0.000113739 -0.000319754 -0.000746313 -0.00114023 -0.0014758 -0.00175302 -0.00197189 -0.00213242 -0.0022346 -0.00227843 -0.00226391 -0.00220662 -0.00212216 -0.00201051 -0.00187168 -0.00170568 -0.00151249 -0.00129212 -0.00104457 -0.000799746 -0.000587568 -0.000408034 -0.000261142 -0.000146892 -6.52854e-05 -1.63213e-05 0 0 -2.55356e-05 -0.000102143 -0.000229821 -0.00040857 -0.000638391 -0.000919283 -0.00125125 -0.00163428 -0.00201757 -0.00235028 -0.00263243 -0.002864 -0.003045 -0.00317544 -0.0032553 -0.0032846 -0.00324091 -0.00310182 -0.00286735 -0.00253747 -0.0021122 -0.00159154 -0.000975485 -0.000264034 0.000499551 0.001272 0.00205333 0.00284352 0.00364259 0.00445052 0.00526732 0.006093 0.00687291 0.00755241 0.00813152 0.00861023 0.00898854 0.00926644 0.00944395 0.00952106 0.0094933 0.00935623 0.00910984 0.00875413 0.0082891 0.00771475 0.00703109 0.0062381 0.00538731 0.00453022 0.00366684 0.00279715 0.00192117 0.00103889 0.000150313 -0.000744562 -0.00159286 -0.00234172 -0.00299112 -0.00354109 -0.0039916 -0.00434267 -0.0045943 -0.00474648 -0.00479923 -0.00475257 -0.00460652 -0.00436105 -0.00401618 -0.0035719 -0.00302822 -0.00238513 -0.00169131 -0.000995445 -0.000297531 0.000402433 0.00110445 0.00180851 0.00251462 0.00322278 0.00388968 0.00447201 0.00496976 0.00538294 0.00571155 0.00595559 0.00611506 0.00618996 0.00618498 0.00610485 0.00594955 0.00571908 0.00541346 0.00503267 0.00457671 0.0040456 0.00348045 0.00292242 0.0023715 0.0018277 0.001291 0.000761417 0.000238945 -0.000276415 -0.000755289 -0.0011683 -0.00151545 -0.00179674 -0.00201217 -0.00216174 -0.00224544 -0.00226328 -0.00223193 -0.00216804 -0.00207162 -0.00194266 -0.00178116 -0.00158713 -0.00136057 -0.00110147 -0.000843311 -0.000619576 -0.000430261 -0.000275367 -0.000154894 -6.88417e-05 -1.72104e-05 0 0 -2.61914e-05 -0.000104766 -0.000235723 -0.000419062 -0.000654785 -0.000942891 -0.00128338 -0.00167625 -0.00206553 -0.00239524 -0.00266537 -0.00287594 -0.00302694 -0.00311838 -0.00315024 -0.00312253 -0.00301205 -0.00279562 -0.00247322 -0.00204487 -0.00151055 -0.000870271 -0.000124032 0.000728169 0.00163725 0.00255413 0.0034788 0.00441127 0.00535154 0.00629961 0.00725547 0.00821914 0.00912944 0.00992525 0.0106066 0.0111734 0.0116256 0.0119634 0.0121867 0.0122955 0.012285 0.0121503 0.0118915 0.0115085 0.0110014 0.0103702 0.00961481 0.00873528 0.00778945 0.00683514 0.00587235 0.00490109 0.00392135 0.00293313 0.00193644 0.000931278 -2.30126e-05 -0.000867074 -0.00160091 -0.00222451 -0.00273789 -0.00314104 -0.00343396 -0.00361665 -0.00368895 -0.00365072 -0.00350194 -0.00324263 -0.00287278 -0.00239238 -0.00180145 -0.00109997 -0.00034233 0.000417106 0.00117834 0.00194136 0.00270618 0.00347279 0.00424119 0.00501139 0.00573488 0.00636314 0.00689619 0.00733401 0.00767661 0.00792399 0.00807615 0.00813308 0.00809995 0.00798189 0.00777891 0.007491 0.00711817 0.00666042 0.00611775 0.00549015 0.00482366 0.00416432 0.00351213 0.00286707 0.00222917 0.0015984 0.000974786 0.000358313 -0.000217738 -0.000720091 -0.00114875 -0.0015037 -0.00178496 -0.00199253 -0.00212639 -0.00218656 -0.0021906 -0.00215612 -0.00208309 -0.00197153 -0.00182143 -0.00163279 -0.00140562 -0.00113991 -0.000872745 -0.000641201 -0.000445278 -0.000284978 -0.0001603 -7.12445e-05 -1.78111e-05 0 0 -2.60817e-05 -0.000104327 -0.000234736 -0.000417308 -0.000652044 -0.000938943 -0.00127801 -0.00166923 -0.00205173 -0.0023646 -0.00260785 -0.00278147 -0.00288547 -0.00291984 -0.00288459 -0.00277972 -0.00258174 -0.00226717 -0.00183603 -0.00128829 -0.000623976 0.000156926 0.00105441 0.00206848 0.00314389 0.00422537 0.00531293 0.00640657 0.0075063 0.0086121 0.00972398 0.0108419 0.0118981 0.0128247 0.0136216 0.0142889 0.0148265 0.0152346 0.015513 0.0156617 0.0156757 0.0155498 0.015284 0.0148782 0.0143325 0.0136469 0.0128214 0.011856 0.010815 0.00976283 0.00869951 0.00762502 0.00653936 0.00544253 0.00433454 0.00321537 0.0021511 0.00120776 0.000385366 -0.000316088 -0.000896601 -0.00135617 -0.0016948 -0.00191249 -0.00200886 -0.00198352 -0.00183646 -0.0015677 -0.00117724 -0.000665059 -3.11735e-05 0.00072442 0.00154153 0.00235998 0.00317977 0.00400088 0.00482334 0.00564712 0.00647224 0.0072987 0.00807265 0.00874024 0.0093015 0.0097564 0.010105 0.0103472 0.010483 0.0105125 0.0104413 0.0102749 0.0100133 0.00965651 0.00920458 0.00865748 0.00801521 0.00727776 0.00649622 0.00572166 0.00495406 0.00419345 0.0034398 0.00269313 0.00195344 0.00122072 0.000532367 -7.42236e-05 -0.000599052 -0.00104212 -0.00140342 -0.00168297 -0.00188075 -0.00199677 -0.00204926 -0.00205647 -0.00201839 -0.00193502 -0.00180636 -0.00163241 -0.00141318 -0.00114866 -0.000879443 -0.000646121 -0.000448695 -0.000287165 -0.00016153 -7.17913e-05 -1.79478e-05 0 0 -2.52066e-05 -0.000100827 -0.00022686 -0.000403306 -0.000630166 -0.000907439 -0.00123513 -0.00161323 -0.00197616 -0.00225837 -0.00245984 -0.00258057 -0.00262057 -0.00257984 -0.00245837 -0.00225616 -0.00194996 -0.00151649 -0.000955752 -0.000267751 0.000547516 0.00149005 0.00255985 0.00375691 0.00501947 0.00628574 0.00755572 0.00882943 0.0101068 0.011388 0.0126728 0.0139614 0.0151789 0.0162507 0.0171766 0.0179568 0.0185912 0.0190798 0.0194227 0.0196197 0.0196656 0.0195548 0.0192873 0.0188632 0.0182824 0.017545 0.0166509 0.0156002 0.0144639 0.0133133 0.0121483 0.0109689 0.0097752 0.00856708 0.00734459 0.00610773 0.00492947 0.00388279 0.0029677 0.00218419 0.00153226 0.00101192 0.000623159 0.000365983 0.000241054 0.000249035 0.000389927 0.00066373 0.00107044 0.00161007 0.0022826 0.00308805 0.00396028 0.00483319 0.00570676 0.00658101 0.00745593 0.00833151 0.00920777 0.0100847 0.010903 0.0116033 0.0121857 0.0126501 0.0129966 0.0132251 0.0133357 0.0133283 0.013209 0.0129838 0.0126526 0.0122156 0.0116727 0.0110238 0.0102691 0.00940844 0.00849813 0.00759443 0.00669732 0.00580682 0.00492291 0.00404561 0.00317491 0.0023108 0.00149503 0.000769302 0.000133631 -0.000411985 -0.000867549 -0.00123306 -0.00150852 -0.00169392 -0.0018079 -0.00186909 -0.0018775 -0.00183312 -0.00173595 -0.00158599 -0.00138325 -0.00112771 -0.000863404 -0.000634338 -0.000440512 -0.000281928 -0.000158584 -7.0482e-05 -1.76205e-05 0 0 -2.35661e-05 -9.42645e-05 -0.000212095 -0.000377058 -0.000589153 -0.00084838 -0.00115474 -0.001508