<?xml version="1.0"?> 
<VTKFile type="StructuredGrid" version="0.1"> 
<StructuredGrid WholeExtent="0 128 0 128 0 0"> 
<Piece Extent="0 128 0 128 0 0"> 
<PointData>
<DataArray type="Float32" Name="u" format="ascii" NumberOfComponents="1"> 
0 0 0 0 0 0 0 0 0 0 0 0 0 0 0 0 0 0 0 0 0 0 0 0 0 0 0 0 0 0 0 0 0 0 0 0 0 0 0 0 0 0 0 0 0 0 0 0 0 0 0 0 0 0 0 0 0 0 0 0 0 0 0 0 0 0 0 0 0 0 0 0 0 0 0 0 0 0 0 0 0 0 0 0 0 0 0 0 0 0 0 0 0 0 0 0 0 0 0 0 0 0 0 0 0 0 0 0 0 0 0 0 0 0 0 0 0 0 0 0 0 0 0 0 0 0 0 0 0 0 8.73023e-07 3.49209e-06 7.85721e-06 1.39684e-05 2.18256e-05 3.14288e-05 4.27781e-05 5.58735e-05 7.08193e-05 8.772e-05 0.000106576 0.000127386 0.000150152 0.000174872 0.000201547 0.000230177 0.000259804 0.00028947 0.000319174 0.000348917 0.000378699 0.00040852 0.000438379 0.000468278 0.000497451 0.000525135 0.000551331 0.000576037 0.000599255 0.000620985 0.000641225 0.000659977 0.000677028 0.000692167 0.000705394 0.000716709 0.000726112 0.000733603 0.000739181 0.000742848 0.000744797 0.000745221 0.000744122 0.0007415 0.000737353 0.000731682 0.000724488 0.000715769 0.00070589 0.000695213 0.000683738 0.000671465 0.000658394 0.000644525 0.000629858 0.000614393 0.000598462 0.000582395 0.000566193 0.000549855 0.000533383 0.000516774 0.000500031 0.000483152 0.000466336 0.000449779 0.000433483 0.000417446 0.00040167 0.000386153 0.000370897 0.0003559 0.000341225 0.000326931 0.00031302 0.00029949 0.000286341 0.000273575 0.000261191 0.000249188 0.000237546 0.000226243 0.000215279 0.000204654 0.000194369 0.000184423 0.000174815 0.000165547 0.000156579 0.000147871 0.000139422 0.000131234 0.000123305 0.000115636 0.000108228 0.000101079 9.41749e-05 8.74996e-05 8.10532e-05 7.48358e-05 6.88473e-05 6.30878e-05 5.75571e-05 5.22554e-05 4.72006e-05 4.24104e-05 3.7885e-05 3.36243e-05 2.96284e-05 2.58972e-05 2.24307e-05 1.92289e-05 1.62971e-05 1.36403e-05 1.12585e-05 9.15183e-06 7.3202e-06 5.76363e-06 4.48212e-06 3.47567e-06 2.66106e-06 1.95507e-06 1.35769e-06 8.68919e-07 4.88767e-07 2.1723e-07 5.43074e-08 0 0 3.49209e-06 1.39684e-05 3.14288e-05 5.58735e-05 8.73023e-05 0.000125715 0.000171113 0.000223494 0.000283277 0.00035088 0.000426302 0.000509545 0.000600606 0.000699487 0.000806188 0.000920709 0.00103922 0.00115788 0.0012767 0.00139567 0.0015148 0.00163408 0.00175352 0.00187311 0.0019898 0.00210054 0.00220532 0.00230415 0.00239702 0.00248394 0.0025649 0.00263991 0.00270811 0.00276867 0.00282158 0.00286684 0.00290445 0.00293441 0.00295673 0.00297139 0.00297919 0.00298089 0.00297649 0.002966 0.00294941 0.00292673 0.00289795 0.00286308 0.00282356 0.00278085 0.00273495 0.00268586 0.00263357 0.0025781 0.00251943 0.00245757 0.00239385 0.00232958 0.00226477 0.00219942 0.00213353 0.0020671 0.00200012 0.00193261 0.00186534 0.00179912 0.00173393 0.00166978 0.00160668 0.00154461 0.00148359 0.0014236 0.0013649 0.00130773 0.00125208 0.00119796 0.00114537 0.0010943 0.00104476 0.000996752 0.000950183 0.000904971 0.000861116 0.000818617 0.000777475 0.00073769 0.000699262 0.00066219 0.000626316 0.000591482 0.000557688 0.000524934 0.00049322 0.000462546 0.000432911 0.000404316 0.0003767 0.000349998 0.000324213 0.000299343 0.000275389 0.000252351 0.000230229 0.000209022 0.000188802 0.000169642 0.00015154 0.000134497 0.000118514 0.000103589 8.97228e-05 7.69157e-05 6.51883e-05 5.4561e-05 4.5034e-05 3.66073e-05 2.92808e-05 2.30545e-05 1.79285e-05 1.39027e-05 1.06443e-05 7.82027e-06 5.43074e-06 3.47567e-06 1.95507e-06 8.68919e-07 2.1723e-07 0 0 7.85721e-06 3.14288e-05 7.07149e-05 0.000125715 0.00019643 0.000282859 0.000385003 0.000502861 0.000637374 0.00078948 0.000959181 0.00114648 0.00135136 0.00157385 0.00181392 0.00207159 0.00233824 0.00260523 0.00287257 0.00314026 0.00340829 0.00367668 0.00394541 0.0042145 0.00447706 0.00472622 0.00496198 0.00518434 0.0053933 0.00558886 0.00577102 0.00593979 0.00609325 0.0062295 0.00634854 0.00645038 0.00653501 0.00660242 0.00665263 0.00668563 0.00670317 0.00670699 0.0066971 0.0066735 0.00663617 0.00658514 0.00652039 0.00644192 0.00635301 0.00625691 0.00615364 0.00604318 0.00592554 0.00580072 0.00566872 0.00552954 0.00538616 0.00524155 0.00509574 0.0049487 0.00480044 0.00465097 0.00450028 0.00434837 0.00419702 0.00404801 0.00390134 0.00375701 0.00361503 0.00347538 0.00333807 0.0032031 0.00307102 0.00294238 0.00281718 0.00269541 0.00257707 0.00246218 0.00235072 0.00224269 0.00213791 0.00203619 0.00193751 0.00184189 0.00174932 0.0016598 0.00157334 0.00148993 0.00140921 0.00133084 0.0012548 0.0011811 0.00110975 0.00104073 0.00097405 0.000909712 0.000847574 0.000787496 0.000729479 0.000673522 0.000619626 0.00056779 0.000518014 0.000470299 0.000424805 0.000381694 0.000340965 0.000302619 0.000266656 0.000233075 0.000201876 0.00017306 0.000146674 0.000122762 0.000101327 8.23664e-05 6.58818e-05 5.18727e-05 4.03391e-05 3.12811e-05 2.39496e-05 1.75956e-05 1.22192e-05 7.82027e-06 4.3989e-06 1.95507e-06 4.88767e-07 0 0 1.39684e-05 5.58735e-05 0.000125715 0.000223494 0.000349209 0.000502861 0.00068445 0.000893976 0.00113311 0.00140352 0.00170521 0.00203818 0.00240242 0.00279795 0.00322475 0.00368283 0.00415687 0.00463152 0.00510679 0.00558268 0.00605919 0.00653632 0.00701407 0.00749244 0.00795921 0.00840216 0.00882129 0.0092166 0.00958809 0.00993575 0.0102596 0.0105596 0.0108324 0.0110747 0.0112863 0.0114673 0.0116178 0.0117376 0.0118269 0.0118856 0.0119167 0.0119235 0.011906 0.011864 0.0117976 0.0117069 0.0115918 0.0114523 0.0112942 0.0111234 0.0109398 0.0107434 0.0105343 0.0103124 0.0100777 0.00983029 0.00957539 0.00931832 0.00905909 0.00879769 0.00853412 0.00826839 0.00800049 0.00773043 0.00746137 0.00719646 0.00693572 0.00667914 0.00642671 0.00617845 0.00593435 0.00569441 0.0054596 0.0052309 0.00500831 0.00479183 0.00458146 0.0043772 0.00417905 0.00398701 0.00380073 0.00361988 0.00344446 0.00327447 0.0031099 0.00295076 0.00279705 0.00264876 0.00250526 0.00236593 0.00223075 0.00209974 0.00197288 0.00185018 0.00173164 0.00161727 0.0015068 0.00139999 0.00129685 0.00119737 0.00110156 0.0010094 0.000920914 0.000836087 0.000755209 0.000678567 0.00060616 0.00053799 0.000474054 0.000414355 0.000358891 0.000307663 0.000260753 0.000218244 0.000180136 0.000146429 0.000117123 9.22181e-05 7.1714e-05 5.56108e-05 4.2577e-05 3.12811e-05 2.1723e-05 1.39027e-05 7.82027e-06 3.47567e-06 8.68919e-07 0 0 2.18256e-05 8.73023e-05 0.00019643 0.000349209 0.000545639 0.000785721 0.00106945 0.00139684 0.00177048 0.002193 0.00266439 0.00318465 0.00375379 0.0043718 0.00503868 0.00575443 0.0064951 0.00723674 0.00797936 0.00872293 0.00946748 0.010213 0.0109595 0.0117069 0.0124363 0.0131284 0.0137833 0.0144009 0.0149814 0.0155246 0.0160306 0.0164994 0.0169257 0.0173042 0.0176348 0.0179177 0.0181528 0.0183401 0.0184795 0.0185712 0.0186199 0.0186305 0.0186031 0.0185375 0.0184338 0.0182921 0.0181122 0.0178942 0.0176472 0.0173803 0.0170934 0.0167866 0.0164598 0.0161131 0.0157464 0.0153598 0.0149615 0.0145599 0.0141548 0.0137464 0.0133346 0.0129194 0.0125008 0.0120788 0.0116584 0.0112445 0.0108371 0.0104362 0.0100417 0.00965383 0.00927242 0.00889751 0.00853062 0.00817328 0.00782549 0.00748724 0.00715853 0.00683938 0.00652976 0.0062297 0.00593864 0.00565607 0.00538197 0.00511636 0.00485922 0.00461056 0.00437038 0.00413869 0.00391448 0.00369676 0.00348555 0.00328084 0.00308263 0.00289091 0.00270569 0.00252698 0.00235437 0.00218749 0.00202633 0.0018709 0.00172118 0.00157719 0.00143893 0.00130639 0.00118001 0.00106026 0.000947126 0.000840609 0.00074071 0.00064743 0.000560767 0.000480723 0.000407427 0.000341006 0.000281463 0.000228796 0.000183005 0.000144091 0.000112053 8.68919e-05 6.65266e-05 4.88767e-05 3.39421e-05 2.1723e-05 1.22192e-05 5.43074e-06 1.35769e-06 0 0 3.14288e-05 0.000125715 0.000282859 0.000502861 0.000785721 0.00113144 0.00154001 0.00201144 0.00254949 0.00315792 0.00383672 0.0045859 0.00540546 0.00629539 0.00725569 0.00828638 0.00935295 0.0104209 0.0114903 0.012561 0.0136332 0.0147067 0.0157817 0.016858 0.0179082 0.0189049 0.0198479 0.0207373 0.0215732 0.0223554 0.0230841 0.0237592 0.024373 0.024918 0.0253942 0.0258015 0.02614 0.0264097 0.0266105 0.0267425 0.0268127 0.026828 0.0267884 0.026694 0.0265447 0.0263406 0.0260816 0.0257677 0.025412 0.0250277 0.0246146 0.0241727 0.0237022 0.0232029 0.0226749 0.0221182 0.0215446 0.0209662 0.0203829 0.0197948 0.0192018 0.0186039 0.0180011 0.0173935 0.0167881 0.016192 0.0156054 0.0150281 0.0144601 0.0139015 0.0133523 0.0128124 0.0122841 0.0117695 0.0112687 0.0107816 0.0103083 0.0098487 0.00940286 0.00897077 0.00855165 0.00814474 0.00775004 0.00736756 0.00699728 0.00663921 0.00629335 0.00595971 0.00563684 0.00532334 0.0050192 0.00472441 0.00443898 0.00416291 0.0038962 0.00363885 0.0033903 0.00314999 0.00291792 0.00269409 0.0024785 0.00227116 0.00207206 0.0018812 0.00169922 0.00152678 0.00136386 0.00121048 0.00106662 0.000932299 0.000807505 0.000692242 0.000586694 0.000491049 0.000405306 0.000329466 0.000263527 0.000207491 0.000161356 0.000125124 9.57983e-05 7.03824e-05 4.88767e-05 3.12811e-05 1.75956e-05 7.82027e-06 1.95507e-06 0 0 4.27781e-05 0.000171113 0.000385003 0.00068445 0.00106945 0.00154001 0.00209613 0.0027378 0.00347015 0.00429828 0.00522221 0.00624192 0.00735743 0.00856872 0.00987581 0.0112787 0.0127304 0.014184 0.0156395 0.017097 0.0185563 0.0200175 0.0214806 0.0229456 0.0243751 0.0257316 0.0270152 0.0282258 0.0293635 0.0304282 0.03142 0.0323389 0.0331744 0.0339162 0.0345643 0.0351187 0.0355795 0.0359465 0.0362199 0.0363995 0.036495 0.0365159 0.036462 0.0363335 0.0361303 0.0358524 0.0354999 0.0350727 0.0345886 0.0340654 0.0335031 0.0329018 0.0322613 0.0315817 0.030863 0.0301053 0.0293246 0.0285374 0.0277434 0.0269429 0.0261357 0.0253219 0.0245015 0.0236745 0.0228504 0.0220392 0.0212406 0.0204549 0.0196818 0.0189215 0.0181739 0.0174391 0.01672 0.0160196 0.015338 0.014675 0.0140307 0.0134052 0.0127983 0.0122102 0.0116397 0.0110859 0.0105487 0.0100281 0.00952407 0.0090367 0.00856595 0.00811182 0.00767237 0.00724566 0.00683168 0.00643044 0.00604195 0.00566618 0.00530316 0.00495288 0.00461457 0.00428748 0.00397161 0.00366695 0.00337352 0.0030913 0.0028203 0.00256052 0.00231283 0.00207811 0.00185637 0.00164759 0.00145179 0.00126896 0.0010991 0.000942218 0.000798556 0.000668373 0.000551667 0.000448439 0.00035869 0.000282418 0.000219624 0.000170308 0.000130392 9.57983e-05 6.65266e-05 4.2577e-05 2.39496e-05 1.06443e-05 2.66106e-06 0 0 5.58735e-05 0.000223494 0.000502861 0.000893976 0.00139684 0.00201144 0.0027378 0.0035759 0.00453243 0.00561408 0.00682084 0.00815271 0.0096097 0.0111918 0.012899 0.0147313 0.0166275 0.0185261 0.0204271 0.0223307 0.0242368 0.0261453 0.0280563 0.0299698 0.0318368 0.0336086 0.0352852 0.0368664 0.0383523 0.039743 0.0410384 0.0422385 0.0433298 0.0442987 0.0451452 0.0458694 0.0464711 0.0469506 0.0473076 0.0475423 0.047667 0.0476942 0.0476238 0.047456 0.0471906 0.0468277 0.0463672 0.0458092 0.045177 0.0444936 0.0437592 0.0429737 0.0421372 0.0412496 0.0403109 0.0393212 0.0383015 0.0372733 0.0362363 0.0351907 0.0341365 0.0330736 0.032002 0.0309217 0.0298455 0.0287859 0.0277429 0.0267165 0.0257069 0.0247138 0.0237374 0.0227776 0.0218384 0.0209236 0.0200332 0.0191673 0.0183258 0.0175088 0.0167162 0.015948 0.0152029 0.0144795 0.0137779 0.0130979 0.0124396 0.011803 0.0111882 0.010595 0.0100211 0.00946372 0.00892301 0.00839895 0.00789152 0.00740073 0.00692658 0.00646906 0.00602719 0.00559997 0.00518741 0.00478949 0.00440623 0.00403762 0.00368366 0.00334435 0.00302084 0.00271427 0.00242464 0.00215196 0.00189622 0.00165742 0.00143556 0.00123065 0.00104301 0.000872977 0.000720545 0.000585717 0.000468493 0.000368872 0.000286856 0.000222443 0.000170308 0.000125124 8.68919e-05 5.56108e-05 3.12811e-05 1.39027e-05 3.47567e-06 0 0 7.10732e-05 0.000284293 0.000639659 0.00113717 0.00177683 0.00255863 0.00348259 0.00454868 0.00576476 0.00713864 0.00867033 0.0103598 0.0122071 0.0142122 0.0163752 0.0186959 0.0210969 0.0235009 0.0259076 0.0283173 0.0307297 0.0331451 0.0355633 0.0379844 0.0403466 0.0425885 0.04471 0.046711 0.0485916 0.0503518 0.0519916 0.053511 0.0548928 0.05612 0.0571924 0.0581103 0.0588734 0.0594819 0.0599357 0.0602348 0.0603949 0.0604317 0.060345 0.0601349 0.0598015 0.0593446 0.0587644 0.0580608 0.0572631 0.0564007 0.0554734 0.0544815 0.0534247 0.0523033 0.051117 0.049866 0.048577 0.0472769 0.0459655 0.044643 0.0433094 0.0419645 0.0406085 0.0392413 0.037879 0.0365375 0.0352169 0.0339172 0.0326384 0.0313804 0.0301433 0.0289271 0.0277368 0.0265772 0.0254485 0.0243506 0.0232836 0.0222474 0.021242 0.0202674 0.019322 0.0184041 0.0175136 0.0166506 0.0158151 0.015007 0.0142264 0.0134732 0.0127444 0.0120366 0.01135 0.0106844 0.01004 0.00941664 0.00881441 0.00823328 0.00767201 0.00712932 0.00660523 0.00609973 0.00561283 0.00514451 0.00469479 0.00426367 0.00385256 0.0034629 0.00309469 0.00274792 0.0024226 0.00211874 0.00183631 0.00157534 0.00133624 0.00111945 0.000924973 0.000752798 0.000602931 0.00047537 0.000370117 0.000287171 0.000219865 0.000161533 0.000112176 7.17926e-05 4.03834e-05 1.79482e-05 4.48704e-06 0 0 8.87356e-05 0.000354942 0.00079862 0.00141977 0.00221839 0.00319448 0.00434804 0.00567908 0.00719551 0.00890528 0.0108084 0.0129048 0.0151946 0.0176777 0.0203541 0.0232239 0.0261917 0.0291622 0.0321355 0.0351116 0.0380904 0.0410719 0.0440562 0.0470432 0.0499576 0.0527237 0.0553417 0.0578116 0.0601332 0.0623067 0.064332 0.0662091 0.067917 0.0694345 0.0707616 0.0718983 0.0728446 0.0736006 0.0741662 0.0745414 0.0747453 0.074797 0.0746965 0.0744438 0.0740389 0.0734818 0.0727724 0.0719109 0.0709331 0.069875 0.0687365 0.0675178 0.0662188 0.0648395 0.0633798 0.0618399 0.0602526 0.058651 0.057035 0.0554046 0.0537598 0.0521007 0.0504271 0.0487392 0.0470568 0.0453996 0.0437676 0.0421609 0.0405795 0.0390233 0.0374924 0.0359868 0.0345126 0.0330763 0.0316777 0.0303169 0.028994 0.0277087 0.0264613 0.0252517 0.0240779 0.022938 0.021832 0.0207599 0.0197216 0.0187173 0.0177469 0.0168103 0.0159038 0.0150234 0.0141693 0.0133413 0.0125396 0.011764 0.0110146 0.0102914 0.00959285 0.00891738 0.008265 0.00763571 0.00702951 0.0064464 0.00588638 0.00534945 0.0048373 0.00435166 0.0038925 0.00345983 0.00305366 0.00267397 0.00232078 0.00199408 0.00169443 0.0014224 0.00117798 0.000961184 0.000771998 0.000610427 0.000476471 0.000370131 0.000283382 0.000208199 0.000144582 9.25327e-05 5.20497e-05 2.31332e-05 5.7833e-06 0 0 0.000108861 0.000435443 0.000979746 0.00174177 0.00272152 0.00391899 0.00533417 0.00696709 0.0088247 0.010914 0.013235 0.0157877 0.018572 0.0215881 0.0248358 0.0283152 0.0319116 0.0355101 0.0391108 0.0427136 0.0463186 0.0499257 0.053535 0.0571464 0.0606697 0.0640144 0.0671805 0.0701681 0.0729772 0.0756076 0.0780596 0.080333 0.0824023 0.0842422 0.0858526 0.0872334 0.0883848 0.0893067 0.0899991 0.090462 0.0907181 0.0907903 0.0906784 0.0903826 0.0899028 0.089239 0.0883912 0.0873595 0.0861868 0.0849165 0.0835485 0.0820828 0.0805194 0.0788583 0.0770994 0.0752429 0.0733284 0.0713957 0.0694446 0.0674753 0.0654878 0.0634819 0.0614578 0.0594155 0.0573789 0.055372 0.053395 0.0514477 0.0495303 0.0476426 0.0457847 0.0439566 0.042166 0.0404208 0.0387208 0.0370662 0.0354569 0.0338929 0.0323742 0.0309008 0.0294705 0.0280813 0.026733 0.0254257 0.0241593 0.022934 0.0217496 0.0206062 0.0194993 0.0184242 0.017381 0.0163697 0.0153903 0.0144428 0.0135272 0.0126434 0.0117897 0.0109641 0.0101667 0.00939742 0.00865628 0.00794327 0.00725841 0.00660169 0.00597508 0.00538054 0.00481808 0.00428769 0.00378937 0.00332313 0.00288896 0.00248687 0.00211758 0.00178182 0.00147958 0.00121087 0.000975694 0.000774043 0.00060592 0.000471325 0.000360858 0.00026512 0.000184111 0.000117831 6.628e-05 2.94578e-05 7.36445e-06 0 0 0.000131449 0.000525794 0.00118304 0.00210318 0.00328621 0.00473215 0.00644098 0.0084127 0.0106523 0.0131648 0.0159502 0.0190084 0.0223395 0.0259435 0.0298203 0.0339701 0.0382568 0.0425446 0.0468334 0.0511234 0.0554144 0.0597065 0.0639997 0.0682939 0.0724829 0.0764604 0.0802263 0.0837806 0.0871234 0.0902547 0.0931744 0.0958825 0.0983488 0.100543 0.102465 0.104116 0.105494 0.1066 0.107434 0.107997 0.108313 0.108411 0.108291 0.107951 0.107393 0.106616 0.105621 0.104407 0.103024 0.101525 0.0999093 0.0981764 0.0963264 0.0943596 0.0922758 0.090075 0.0878044 0.0855109 0.0831945 0.0808553 0.0784933 0.0761084 0.0737006 0.07127 0.0688452 0.0664549 0.064099 0.0617776 0.0594907 0.0572382 0.0550201 0.0528366 0.0506969 0.0486107 0.0465779 0.0445984 0.0426724 0.0407998 0.0389805 0.0372147 0.0354999 0.0338339 0.0322166 0.030648 0.0291282 0.0276571 0.0262347 0.024861 0.0235308 0.0222389 0.0209851 0.0197695 0.0185922 0.017453 0.0163521 0.0152894 0.0142626 0.0132696 0.0123104 0.0113849 0.0104931 0.00963513 0.00881089 0.00802039 0.00726587 0.00654955 0.00587142 0.00523149 0.00462975 0.00406621 0.00354086 0.00305371 0.00260568 0.0021977 0.00182976 0.00150187 0.00121402 0.000966218 0.000758462 0.000590751 0.000452294 0.000332298 0.000230762 0.000147688 8.30744e-05 3.6922e-05 9.23049e-06 0 0 0.000156499 0.000625996 0.00140849 0.00250398 0.00391248 0.00563396 0.00766845 0.0100159 0.0126784 0.0156577 0.0189539 0.022567 0.026497 0.0307439 0.0353076 0.0401883 0.0452272 0.0502656 0.0553035 0.0603409 0.0653778 0.0704142 0.0754502 0.0804857 0.0853973 0.0900618 0.0944791 0.0986492 0.102572 0.106248 0.109676 0.112858 0.115756 0.118337 0.1206 0.122545 0.124172 0.125481 0.126472 0.127145 0.127531 0.12766 0.127533 0.12715 0.12651 0.125614 0.124461 0.123052 0.121446 0.119701 0.117819 0.115799 0.11364 0.111343 0.108909 0.106336 0.103681 0.100997 0.0982847 0.0955446 0.0927763 0.08998 0.0871555 0.0843029 0.0814559 0.0786481 0.0758797 0.0731505 0.0704606 0.06781 0.0651987 0.0626267 0.0601054 0.0576461 0.0552488 0.0529137 0.0506405 0.0484294 0.0462804 0.0441935 0.0421661 0.0401959 0.0382828 0.0364269 0.0346281 0.0328865 0.031202 0.0295747 0.0279985 0.0264675 0.0249816 0.0235408 0.0221452 0.0207947 0.0194894 0.0182292 0.0170115 0.0158338 0.014696 0.0135981 0.0125401 0.011522 0.0105438 0.00960556 0.0087097 0.00785869 0.00705254 0.00629124 0.0055748 0.00490321 0.00427648 0.00369461 0.00315875 0.00267005 0.00222852 0.00183417 0.00148698 0.00118695 0.000934098 0.000728411 0.00055769 0.000409731 0.000284536 0.000182103 0.000102433 4.55257e-05 1.13814e-05 0 0 0.000184012 0.000736049 0.00165611 0.0029442 0.00460031 0.00662444 0.0090166 0.0117768 0.0149028 0.0183926 0.0222462 0.0264635 0.0310445 0.0359892 0.0412977 0.04697 0.0528228 0.0586731 0.0645209 0.0703661 0.0762088 0.082049 0.0878867 0.0937218 0.0994129 0.104819 0.109939 0.114774 0.119323 0.123587 0.127566 0.131259 0.134625 0.137625 0.140257 0.142522 0.144419 0.145949 0.147112 0.147908 0.148371 0.148537 0.148407 0.147979 0.147254 0.146232 0.144912 0.143296 0.141451 0.139445 0.137278 0.134949 0.13246 0.12981 0.126999 0.124027 0.120957 0.117853 0.114715 0.111543 0.108337 0.105097 0.101822 0.0985141 0.0952108 0.0919518 0.088737 0.0855665 0.0824402 0.0793583 0.0763205 0.073327 0.0703913 0.0675269 0.0647337 0.0620118 0.0593612 0.0567819 0.0542738 0.051837 0.049469 0.0471672 0.0449316 0.0427623 0.0406592 0.0386223 0.0366516 0.0347472 0.0329023 0.03111 0.0293704 0.0276835 0.0260494 0.0244679 0.0229391 0.0214629 0.0200365 0.0186567 0.0173235 0.016037 0.0147971 0.0136038 0.0124572 0.0113572 0.0103065 0.00930795 0.00836142 0.00746693 0.00662451 0.00583413 0.00509582 0.00440955 0.00377676 0.00319887 0.00267587 0.00220777 0.00179456 0.00143625 0.00113283 0.000884304 0.000677045 0.000497421 0.000345431 0.000221076 0.000124355 5.5269e-05 1.38172e-05 0 0 0.000213988 0.000855952 0.00192589 0.00342381 0.0053497 0.00770357 0.0104854 0.0136952 0.0173258 0.0213697 0.025827 0.0306978 0.035982 0.0416796 0.0477906 0.0543151 0.0610437 0.0677672 0.0744857 0.0811991 0.0879075 0.0946108 0.101309 0.108002 0.11453 0.120731 0.126606 0.132154 0.137376 0.142272 0.146842 0.151085 0.154955 0.158405 0.161435 0.164045 0.166235 0.168005 0.169355 0.170284 0.170834 0.171042 0.17091 0.170437 0.169624 0.168469 0.166975 0.165139 0.16304 0.160755 0.158285 0.155629 0.152787 0.149759 0.146545 0.143146 0.139633 0.13608 0.132486 0.128851 0.125175 0.121459 0.117702 0.113904 0.11011 0.106366 0.102671 0.0990255 0.0954295 0.0918828 0.0883855 0.0849375 0.0815548 0.0782531 0.0750325 0.071893 0.0688345 0.0658571 0.0629607 0.0601454 0.0574087 0.0547479 0.052163 0.0496542 0.0472213 0.0448645 0.0425835 0.0403786 0.0382421 0.0361665 0.0341517 0.0321977 0.0303047 0.0284724 0.0267011 0.0249906 0.0233375 0.0217383 0.020193 0.0187016 0.0172642 0.0158806 0.014551 0.0132753 0.0120564 0.0108973 0.00979806 0.00875858 0.00777888 0.00685898 0.00599887 0.00519855 0.00445974 0.00378416 0.0031718 0.00262267 0.00213677 0.0017141 0.00135465 0.00105843 0.00081036 0.000595367 0.000413449 0.000264607 0.000148842 6.61519e-05 1.6538e-05 0 0 0.000246427 0.000985707 0.00221784 0.00394283 0.00616067 0.00887136 0.0120749 0.0157713 0.0199471 0.0245888 0.0296965 0.03527 0.0413095 0.0478149 0.0547863 0.0622236 0.0698898 0.0775479 0.0851979 0.0928399 0.100474 0.1081 0.115717 0.123327 0.130747 0.137798 0.144479 0.150791 0.156732 0.162304 0.167505 0.172337 0.176746 0.180679 0.184136 0.187116 0.18962 0.191648 0.193199 0.194275 0.194918 0.195175 0.195044 0.194526 0.19362 0.192327 0.190647 0.18858 0.186213 0.183633 0.180841 0.177837 0.17462 0.17119 0.167549 0.163694 0.15971 0.155677 0.151596 0.147468 0.143291 0.139066 0.134793 0.130471 0.126154 0.12189 0.117682 0.113528 0.109428 0.105384 0.101394 0.0974582 0.0935958 0.0898248 0.0861453 0.0825571 0.0790604 0.0756551 0.0723412 0.0691187 0.0659851 0.0629379 0.0599771 0.0571027 0.0543146 0.051613 0.0489977 0.0464689 0.044018 0.0416368 0.0393253 0.0370834 0.0349111 0.0328085 0.0307755 0.0288121 0.0269145 0.0250786 0.0233044 0.021592 0.0199414 0.0183524 0.0168253 0.0153598 0.0139593 0.0126269 0.0113625 0.0101662 0.00903792 0.00797774 0.00698564 0.0060616 0.00520767 0.00442591 0.00371632 0.00307889 0.00251362 0.00202051 0.00159957 0.00125079 0.000957635 0.000703569 0.000488589 0.000312697 0.000175892 7.81743e-05 1.95436e-05 0 0 0.00028074 0.00112296 0.00252666 0.00449184 0.00701851 0.0101066 0.0137563 0.0179674 0.0227194 0.027992 0.033785 0.0400984 0.0469323 0.0542867 0.0621615 0.0705567 0.0792064 0.0878444 0.0964709 0.105086 0.113689 0.12228 0.13086 0.139428 0.147783 0.155723 0.163247 0.170357 0.177051 0.18333 0.189193 0.194642 0.199615 0.204054 0.207958 0.211328 0.214163 0.216463 0.218228 0.219459 0.220204 0.220513 0.220387 0.219824 0.218826 0.217392 0.215522 0.213216 0.210572 0.207688 0.204563 0.201197 0.197591 0.193745 0.189658 0.185331 0.180855 0.176323 0.171736 0.167092 0.162392 0.157636 0.152824 0.147956 0.143089 0.138283 0.133537 0.12885 0.124223 0.119656 0.115149 0.110702 0.106336 0.102072 0.0979097 0.0938498 0.0898919 0.086036 0.0822823 0.0786306 0.0750786 0.0716238 0.0682663 0.065006 0.061843 0.0587772 0.0558087 0.0529374 0.0501542 0.0474499 0.0448244 0.0422779 0.0398102 0.0374214 0.0351115 0.0328804 0.0307238 0.0286372 0.0266206 0.024674 0.0227974 0.0209908 0.0192542 0.0175875 0.0159943 0.0144777 0.013038 0.0116749 0.0103886 0.00917908 0.00804627 0.00699021 0.00601332 0.00511802 0.00430432 0.00357221 0.00292169 0.00235277 0.00186545 0.00145972 0.0011176 0.000821094 0.000570204 0.000364931 0.000205274 9.12327e-05 2.28082e-05 0 0 0.000316341 0.00126536 0.00284707 0.00506146 0.00790853 0.0113883 0.0155007 0.0202458 0.0255954 0.0315211 0.0380231 0.0451012 0.0527556 0.0609861 0.0697928 0.0791757 0.0888389 0.0984862 0.108118 0.117734 0.127334 0.136918 0.146487 0.15604 0.165354 0.174206 0.182597 0.190526 0.197993 0.204999 0.211543 0.217625 0.223179 0.228139 0.232504 0.236275 0.239452 0.242034 0.244021 0.245415 0.246268 0.246636 0.246518 0.245914 0.244825 0.24325 0.24119 0.238644 0.23572 0.232527 0.229065 0.225334 0.221333 0.217062 0.212522 0.207713 0.202737 0.197696 0.192591 0.187421 0.182186 0.176887 0.171523 0.166094 0.160666 0.155302 0.150003 0.144769 0.1396 0.134496 0.129457 0.124482 0.119597 0.114824 0.110164 0.105616 0.101182 0.0968601 0.0926512 0.088555 0.0845694 0.0806922 0.0769232 0.0732627 0.0697104 0.0662665 0.0629309 0.0597037 0.0565748 0.0535343 0.0505823 0.0477187 0.0449435 0.0422567 0.0396583 0.0371484 0.0347219 0.0323739 0.0301044 0.0279135 0.0258011 0.0237672 0.0218118 0.019935 0.0181403 0.0164312 0.0148078 0.0132701 0.011818 0.0104516 0.00917094 0.00797591 0.00686942 0.00585435 0.00493069 0.00409844 0.00335761 0.00270818 0.00215017 0.00168357 0.00128899 0.00094701 0.000657646 0.000420893 0.000236752 0.000105223 2.63058e-05 0 0 0.000353229 0.00141292 0.00317906 0.00565167 0.00883073 0.0127163 0.0173082 0.0226067 0.0285749 0.0351763 0.0424108 0.0502785 0.0587793 0.0679133 0.0776804 0.0880806 0.0987872 0.109473 0.120139 0.130784 0.141409 0.152013 0.162597 0.17316 0.183459 0.193248 0.202528 0.211298 0.219559 0.227311 0.234553 0.241287 0.247437 0.252933 0.257773 0.261958 0.265487 0.268361 0.27058 0.272143 0.273111 0.273542 0.273437 0.272795 0.271617 0.269902 0.267651 0.264863 0.261658 0.258153 0.254349 0.250246 0.245844 0.241143 0.236142 0.230842 0.225356 0.219796 0.214162 0.208455 0.202673 0.196818 0.19089 0.184887 0.178882 0.172947 0.167082 0.161286 0.15556 0.149903 0.144316 0.138799 0.133378 0.128081 0.122907 0.117857 0.11293 0.108127 0.103448 0.098892 0.0944576 0.090143 0.0859479 0.0818726 0.0779168 0.0740808 0.0703643 0.0667676 0.0632798 0.0598902 0.0565989 0.0534058 0.0503109 0.0473143 0.044416 0.0416159 0.0389085 0.0362885 0.0337558 0.0313105 0.0289524 0.0266817 0.0244983 0.0224023 0.0203973 0.0184872 0.016672 0.0149516 0.0133261 0.0117954 0.0103596 0.00901869 0.00777599 0.00663491 0.00559545 0.0046576 0.00382136 0.00308674 0.00245373 0.00192234 0.00147179 0.00108132 0.000750914 0.000480585 0.000270329 0.000120146 3.00366e-05 0 0 0.000391405 0.00156562 0.00352264 0.00626247 0.00978512 0.0140906 0.0191788 0.0250499 0.031658 0.0389574 0.0469482 0.0556302 0.0650035 0.0750682 0.0858241 0.0972713 0.109051 0.120806 0.132534 0.144237 0.155914 0.167565 0.179191 0.190791 0.202098 0.212848 0.22304 0.232674 0.241749 0.250266 0.258226 0.265627 0.27239 0.278436 0.283764 0.288375 0.292269 0.295445 0.297903 0.299645 0.300733 0.301232 0.301144 0.300467 0.299201 0.297347 0.294905 0.291874 0.288384 0.284564 0.280414 0.275935 0.271125 0.265986 0.260517 0.254718 0.248712 0.242623 0.23645 0.230194 0.223854 0.217431 0.210924 0.204334 0.197739 0.191219 0.184772 0.1784 0.172102 0.165878 0.159728 0.153652 0.14768 0.141843 0.13614 0.130572 0.125138 0.119838 0.114672 0.109641 0.104743 0.0999762 0.0953403 0.0908357 0.0864623 0.08222 0.078109 0.0741292 0.0702691 0.0665175 0.0628741 0.0593392 0.0559126 0.0525943 0.0493845 0.046283 0.0432838 0.0403811 0.0375748 0.0348649 0.0322514 0.0297343 0.0273136 0.0249894 0.0227654 0.0206458 0.0186305 0.0167195 0.0149128 0.0132104 0.0116123 0.0101186 0.00873303 0.0074597 0.00629858 0.00524967 0.00431295 0.00348844 0.00277613 0.00217602 0.00166602 0.00122401 0.000850009 0.000544005 0.000306003 0.000136001 3.40003e-05 0 0 0.000430867 0.00172347 0.00387781 0.00689388 0.0107717 0.0155112 0.0211125 0.0275755 0.0348447 0.0428646 0.0516351 0.0611564 0.0714282 0.0824508 0.094224 0.106748 0.119631 0.132483 0.145303 0.158092 0.170849 0.183574 0.196268 0.20893 0.221273 0.233007 0.244134 0.254652 0.264562 0.273865 0.282559 0.290646 0.298037 0.304649 0.310479 0.315528 0.319797 0.323285 0.325992 0.327918 0.329133 0.329707 0.329639 0.328929 0.327578 0.325586 0.322952 0.319676 0.315899 0.311761 0.307261 0.302399 0.297177 0.291592 0.285647 0.279339 0.272805 0.266176 0.259454 0.252638 0.245728 0.238724 0.231627 0.224436 0.217237 0.210117 0.203075 0.196111 0.189226 0.182419 0.175691 0.169041 0.162503 0.15611 0.149863 0.14376 0.137803 0.131991 0.126325 0.120803 0.115426 0.110192 0.1051 0.100152 0.0953468 0.0906844 0.0861649 0.0817885 0.0775429 0.0734161 0.0694081 0.0655189 0.0617484 0.0580967 0.0545638 0.0511497 0.0478478 0.0446517 0.0415614 0.0385768 0.035698 0.032925 0.0302577 0.0276962 0.0252446 0.022907 0.0206834 0.0185738 0.0165782 0.0146966 0.0129291 0.0112755 0.00974052 0.00832872 0.0070401 0.00587465 0.00483238 0.00391328 0.00311736 0.00244462 0.00187166 0.0013751 0.00095493 0.000611155 0.000343775 0.000152789 3.81972e-05 0 0 0.000471617 0.00188647 0.00424456 0.00754588 0.0117904 0.0169782 0.0231093 0.0301835 0.038135 0.0468978 0.0564717 0.066857 0.0780534 0.0900611 0.10288 0.11651 0.130527 0.144506 0.158447 0.172349 0.186214 0.200041 0.213829 0.22758 0.240982 0.253725 0.265809 0.277234 0.288 0.298106 0.307554 0.316343 0.324379 0.331571 0.337916 0.343417 0.348072 0.351881 0.354845 0.356964 0.358312 0.358965 0.358921 0.358183 0.356748 0.354618 0.351792 0.34827 0.344203 0.339743 0.334889 0.32964 0.323998 0.317962 0.311532 0.304708 0.297634 0.290456 0.283174 0.275786 0.268295 0.260698 0.252997 0.245192 0.237375 0.22964 0.221989 0.214419 0.206933 0.199528 0.192206 0.184967 0.177847 0.170883 0.164075 0.157423 0.150928 0.144588 0.138405 0.132378 0.126506 0.12079 0.115228 0.109822 0.10457 0.0994737 0.0945321 0.0897455 0.0851011 0.0805862 0.0762007 0.0719448 0.0678184 0.0638214 0.059954 0.056216 0.0526005 0.0491003 0.0457156 0.0424463 0.0392923 0.0362538 0.0333307 0.0305229 0.0278349 0.0252708 0.0228307 0.0205145 0.0183223 0.0162541 0.0143098 0.0124895 0.0107985 0.00924197 0.00781999 0.00653255 0.00537965 0.00436127 0.00347744 0.00272814 0.00208873 0.00153458 0.00106568 0.000682034 0.000383644 0.000170508 4.26271e-05 0 0 0.000513655 0.00205462 0.00462289 0.00821847 0.0128414 0.0184916 0.0251691 0.0328739 0.0415289 0.0510569 0.0614579 0.072732 0.0848791 0.0978992 0.111792 0.126559 0.141739 0.156874 0.171964 0.187009 0.202009 0.216964 0.231874 0.246739 0.261226 0.275001 0.288066 0.300419 0.312061 0.322991 0.333211 0.342719 0.351416 0.359202 0.366077 0.37204 0.377092 0.381234 0.384464 0.386782 0.38827 0.389007 0.388992 0.388227 0.386711 0.384443 0.381425 0.377655 0.373297 0.368511 0.363298 0.357657 0.351589 0.345094 0.338172 0.330822 0.323201 0.315463 0.30761 0.29964 0.291555 0.283353 0.275035 0.266602 0.258153 0.249791 0.241515 0.233325 0.225221 0.217204 0.209273 0.201429 0.193711 0.18616 0.178776 0.17156 0.16451 0.157628 0.150913 0.144365 0.137984 0.13177 0