<?xml version="1.0"?> 
<VTKFile type="StructuredGrid" version="0.1"> 
<StructuredGrid WholeExtent="0 128 0 128 0 0"> 
<Piece Extent="0 128 0 128 0 0"> 
<PointData>
<DataArray type="Float32" Name="u" format="ascii" NumberOfComponents="1"> 
0 0 0 0 0 0 0 0 0 0 0 0 0 0 0 0 0 0 0 0 0 0 0 0 0 0 0 0 0 0 0 0 0 0 0 0 0 0 0 0 0 0 0 0 0 0 0 0 0 0 0 0 0 0 0 0 0 0 0 0 0 0 0 0 0 0 0 0 0 0 0 0 0 0 0 0 0 0 0 0 0 0 0 0 0 0 0 0 0 0 0 0 0 0 0 0 0 0 0 0 0 0 0 0 0 0 0 0 0 0 0 0 0 0 0 0 0 0 0 0 0 0 0 0 0 0 0 0 0 0 5.7512e-08 2.30048e-07 5.17608e-07 9.20192e-07 1.4378e-06 2.07043e-06 2.81809e-06 3.68077e-06 4.78641e-06 6.26294e-06 8.11037e-06 1.03287e-05 1.29179e-05 1.5878e-05 1.9209e-05 2.29109e-05 2.68818e-05 3.10197e-05 3.53247e-05 3.97968e-05 4.44359e-05 4.92421e-05 5.42154e-05 5.93557e-05 6.44742e-05 6.9382e-05 7.40791e-05 7.85656e-05 8.28413e-05 8.69063e-05 9.07607e-05 9.44043e-05 9.77309e-05 0.000100634 0.000103114 0.000105171 0.000106804 0.000108014 0.0001088 0.000109163 0.00010914 0.000108769 0.000108049 0.00010698 0.000105563 0.000103797 0.000101683 9.92205e-05 9.65478e-05 9.38036e-05 9.09879e-05 8.81008e-05 8.51422e-05 8.21122e-05 7.90107e-05 7.58377e-05 7.27184e-05 6.97778e-05 6.7016e-05 6.44329e-05 6.20285e-05 5.98028e-05 5.77559e-05 5.58877e-05 5.42177e-05 5.27651e-05 5.15302e-05 5.05127e-05 4.97128e-05 4.91304e-05 4.87655e-05 4.86182e-05 4.86083e-05 4.86558e-05 4.87606e-05 4.89227e-05 4.91421e-05 4.94189e-05 4.97531e-05 5.01445e-05 5.05014e-05 5.07317e-05 5.08354e-05 5.08126e-05 5.06633e-05 5.03874e-05 4.99849e-05 4.94559e-05 4.87789e-05 4.79323e-05 4.69162e-05 4.57305e-05 4.43753e-05 4.28506e-05 4.11563e-05 3.92925e-05 3.73184e-05 3.5293e-05 3.32164e-05 3.10887e-05 2.89097e-05 2.66795e-05 2.43981e-05 2.20655e-05 1.97653e-05 1.75812e-05 1.55131e-05 1.35611e-05 1.17251e-05 1.00051e-05 8.40124e-06 6.91339e-06 5.56361e-06 4.37389e-06 3.34425e-06 2.47467e-06 1.76516e-06 1.21572e-06 8.26354e-07 5.97056e-07 4.57121e-07 3.35844e-07 2.33225e-07 1.49264e-07 8.3961e-08 3.7316e-08 9.32899e-09 0 0 2.30048e-07 9.20192e-07 2.07043e-06 3.68077e-06 5.7512e-06 8.28173e-06 1.12724e-05 1.47231e-05 1.91456e-05 2.50518e-05 3.24415e-05 4.13147e-05 5.16716e-05 6.3512e-05 7.6836e-05 9.16436e-05 0.000107527 0.000124079 0.000141299 0.000159187 0.000177744 0.000196968 0.000216861 0.000237423 0.000257897 0.000277528 0.000296317 0.000314262 0.000331365 0.000347625 0.000363043 0.000377617 0.000390924 0.000402537 0.000412456 0.000420682 0.000427215 0.000432054 0.0004352 0.000436652 0.000436561 0.000435075 0.000432195 0.000427921 0.000422253 0.00041519 0.000406733 0.000396882 0.000386191 0.000375214 0.000363952 0.000352403 0.000340569 0.000328449 0.000316043 0.000303351 0.000290874 0.000279111 0.000268064 0.000257731 0.000248114 0.000239211 0.000231024 0.000223551 0.000216871 0.000211061 0.000206121 0.000202051 0.000198851 0.000196522 0.000195062 0.000194473 0.000194433 0.000194623 0.000195042 0.000195691 0.000196569 0.000197676 0.000199012 0.000200578 0.000202005 0.000202927 0.000203342 0.00020325 0.000202653 0.000201549 0.00019994 0.000197824 0.000195115 0.000191729 0.000187665 0.000182922 0.000177501 0.000171402 0.000164625 0.00015717 0.000149273 0.000141172 0.000132866 0.000124355 0.000115639 0.000106718 9.75923e-05 8.82619e-05 7.90612e-05 7.03247e-05 6.20524e-05 5.42442e-05 4.69003e-05 4.00205e-05 3.3605e-05 2.76536e-05 2.22544e-05 1.74956e-05 1.3377e-05 9.89867e-06 7.06064e-06 4.86289e-06 3.30542e-06 2.38822e-06 1.82848e-06 1.34338e-06 9.32899e-07 5.97056e-07 3.35844e-07 1.49264e-07 3.7316e-08 0 0 5.17608e-07 2.07043e-06 4.65847e-06 8.28173e-06 1.29402e-05 1.86339e-05 2.53628e-05 3.31269e-05 4.30777e-05 5.63665e-05 7.29933e-05 9.29582e-05 0.000116261 0.000142902 0.000172881 0.000206198 0.000241936 0.000279177 0.000317922 0.000358171 0.000399923 0.000443179 0.000487938 0.000534201 0.000580268 0.000624438 0.000666712 0.00070709 0.000745572 0.000782157 0.000816846 0.000849639 0.000879578 0.000905708 0.000928027 0.000946535 0.000961234 0.000972122 0.0009792 0.000982468 0.000982262 0.000978919 0.000972439 0.000962822 0.000950068 0.000934177 0.00091515 0.000892985 0.00086893 0.000844232 0.000818891 0.000792907 0.00076628 0.000739009 0.000711096 0.000682539 0.000654466 0.000628 0.000603144 0.000579896 0.000558256 0.000538225 0.000519803 0.00050299 0.000487959 0.000474886 0.000463771 0.000454614 0.000447415 0.000442174 0.00043889 0.000437564 0.000437475 0.000437902 0.000438845 0.000440304 0.000442279 0.00044477 0.000447778 0.000451301 0.000454512 0.000456585 0.000457519 0.000457314 0.000455969 0.000453486 0.000449864 0.000445103 0.00043901 0.00043139 0.000422245 0.000411575 0.000399378 0.000385655 0.000370407 0.000353633 0.000335865 0.000317637 0.000298948 0.000279798 0.000260187 0.000240115 0.000219583 0.000198589 0.000177888 0.000158231 0.000139618 0.00012205 0.000105526 9.00462e-05 7.56111e-05 6.22205e-05 5.00725e-05 3.9365e-05 3.00982e-05 2.2272e-05 1.58864e-05 1.09415e-05 7.43719e-06 5.3735e-06 4.11409e-06 3.02259e-06 2.09902e-06 1.34338e-06 7.55649e-07 3.35844e-07 8.3961e-08 0 0 9.20192e-07 3.68077e-06 8.28173e-06 1.47231e-05 2.30048e-05 3.31269e-05 4.50894e-05 5.88923e-05 7.65825e-05 0.000100207 0.000129766 0.000165259 0.000206686 0.000254048 0.000307344 0.000366574 0.000430108 0.000496315 0.000565196 0.000636749 0.000710975 0.000787874 0.000867446 0.000949691 0.00103159 0.00111011 0.00118527 0.00125705 0.00132546 0.0013905 0.00145217 0.00151047 0.00156369 0.00161015 0.00164983 0.00168273 0.00170886 0.00172822 0.0017408 0.00174661 0.00174624 0.0017403 0.00172878 0.00171168 0.00168901 0.00166076 0.00162693 0.00158753 0.00154476 0.00150086 0.00145581 0.00140961 0.00136228 0.00131379 0.00126417 0.0012134 0.00116349 0.00111645 0.00107226 0.00103093 0.000992456 0.000956845 0.000924095 0.000894204 0.000867483 0.000844242 0.000824483 0.000808203 0.000795405 0.000786086 0.000780249 0.000777892 0.000777733 0.000778493 0.000780169 0.000782763 0.000786274 0.000790703 0.000796049 0.000802312 0.000808022 0.000811707 0.000813367 0.000813002 0.000810612 0.000806198 0.000799759 0.000791295 0.000780462 0.000766916 0.000750659 0.000731688 0.000710005 0.000685609 0.000658501 0.000628681 0.000597094 0.000564688 0.000531463 0.000497418 0.000462555 0.000426872 0.000390369 0.000353048 0.000316245 0.000281299 0.000248209 0.000216977 0.000187601 0.000160082 0.00013442 0.000110614 8.90177e-05 6.99823e-05 5.35079e-05 3.95947e-05 2.82426e-05 1.94516e-05 1.32217e-05 9.55289e-06 7.31393e-06 5.3735e-06 3.7316e-06 2.38822e-06 1.34338e-06 5.97056e-07 1.49264e-07 0 0 1.4378e-06 5.7512e-06 1.29402e-05 2.30048e-05 3.5945e-05 5.17608e-05 7.04522e-05 9.20192e-05 0.00011966 0.000156573 0.000202759 0.000258217 0.000322948 0.00039695 0.000480225 0.000572773 0.000672044 0.000775493 0.000883118 0.00099492 0.0011109 0.00123105 0.00135538 0.00148389 0.00161186 0.00173455 0.00185198 0.00196414 0.00207103 0.00217266 0.00226902 0.00236011 0.00244327 0.00251585 0.00257785 0.00262927 0.00267009 0.00270034 0.00272 0.00272908 0.0027285 0.00271922 0.00270122 0.00267451 0.00263908 0.00259494 0.00254208 0.00248051 0.00241369 0.00234509 0.0022747 0.00220252 0.00212855 0.0020528 0.00197527 0.00189594 0.00181796 0.00174445 0.0016754 0.00161082 0.00155071 0.00149507 0.0014439 0.00139719 0.00135544 0.00131913 0.00128825 0.00126282 0.00124282 0.00122826 0.00121914 0.00121546 0.00121521 0.00121639 0.00121901 0.00122307 0.00122855 0.00123547 0.00124383 0.00125361 0.00126253 0.00126829 0.00127089 0.00127032 0.00126658 0.00125968 0.00124962 0.0012364 0.00121947 0.00119831 0.0011729 0.00114326 0.00110938 0.00107126 0.00102891 0.000982313 0.000932959 0.000882325 0.000830411 0.000777216 0.000722742 0.000666987 0.000609952 0.000551637 0.000494133 0.000439529 0.000387827 0.000339026 0.000293127 0.000250128 0.000210031 0.000172835 0.00013909 0.000109347 8.36061e-05 6.18667e-05 4.4129e-05 3.03931e-05 2.06589e-05 1.49264e-05 1.1428e-05 8.3961e-06 5.83062e-06 3.7316e-06 2.09902e-06 9.32899e-07 2.33225e-07 0 0 2.07043e-06 8.28173e-06 1.86339e-05 3.31269e-05 5.17608e-05 7.45356e-05 0.000101451 0.000132508 0.000172311 0.000225466 0.000291973 0.000371833 0.000465044 0.000571608 0.000691524 0.000824793 0.000967744 0.00111671 0.00127169 0.00143268 0.00159969 0.00177272 0.00195175 0.00213681 0.00232107 0.00249775 0.00266685 0.00282836 0.00298229 0.00312863 0.00326738 0.00339856 0.00351831 0.00362283 0.00371211 0.00378614 0.00384494 0.00388849 0.0039168 0.00392987 0.00392905 0.00391568 0.00388976 0.00385129 0.00380027 0.00373671 0.0036606 0.00357194 0.00347572 0.00337693 0.00327556 0.00317163 0.00306512 0.00295604 0.00284438 0.00273016 0.00261786 0.002512 0.00241258 0.00231958 0.00223303 0.0021529 0.00207921 0.00201196 0.00195184 0.00189955 0.00185509 0.00181846 0.00178966 0.00176869 0.00175556 0.00175026 0.0017499 0.00175161 0.00175538 0.00176122 0.00176912 0.00177908 0.00179111 0.0018052 0.00181805 0.00182634 0.00183008 0.00182925 0.00182388 0.00181395 0.00179946 0.00178041 0.00175604 0.00172556 0.00168898 0.0016463 0.00159751 0.00154262 0.00148163 0.00141453 0.00134346 0.00127055 0.00119579 0.00111919 0.00104075 0.000960461 0.000878331 0.000794357 0.000711551 0.000632922 0.000558471 0.000488198 0.000422103 0.000360185 0.000302445 0.000248882 0.00020029 0.00015746 0.000120393 8.90881e-05 6.35458e-05 4.3766e-05 2.97488e-05 2.1494e-05 1.64563e-05 1.20904e-05 8.3961e-06 5.3735e-06 3.02259e-06 1.34338e-06 3.35844e-07 0 0 2.81809e-06 1.12724e-05 2.53628e-05 4.50894e-05 7.04522e-05 0.000101451 0.000138086 0.000180358 0.000234534 0.000306884 0.000397408 0.000506106 0.000632977 0.000778022 0.000941241 0.00112263 0.00131721 0.00151997 0.00173091 0.00195004 0.00217736 0.00241286 0.00265655 0.00290843 0.00315924 0.00339972 0.00362988 0.00384971 0.00405922 0.00425841 0.00444727 0.00462581 0.00478882 0.00493108 0.00505259 0.00515336 0.00523338 0.00529266 0.0053312 0.00534899 0.00534787 0.00532967 0.00529439 0.00524203 0.00517259 0.00508608 0.00498248 0.00486181 0.00473084 0.00459637 0.00445841 0.00431694 0.00417197 0.0040235 0.00387152 0.00371605 0.0035632 0.00341911 0.00328378 0.00315721 0.0030394 0.00293034 0.00283004 0.0027385 0.00265667 0.00258549 0.00252498 0.00247512 0.00243593 0.00240739 0.00238951 0.00238229 0.00238181 0.00238413 0.00238927 0.00239721 0.00240797 0.00242153 0.0024379 0.00245708 0.00247457 0.00248585 0.00249094 0.00248982 0.0024825 0.00246898 0.00244926 0.00242334 0.00239016 0.00234868 0.00229889 0.00224079 0.00217439 0.00209968 0.00201666 0.00192533 0.0018286 0.00172936 0.00162761 0.00152334 0.00141657 0.00130729 0.00119551 0.00108121 0.0009685 0.000861478 0.000760142 0.000664492 0.000574528 0.000490251 0.000411661 0.000338756 0.000272617 0.000214321 0.000163868 0.000121259 8.64929e-05 5.95704e-05 4.04914e-05 2.92557e-05 2.23989e-05 1.64563e-05 1.1428e-05 7.31393e-06 4.11409e-06 1.82848e-06 4.57121e-07 0 0 3.68077e-06 1.47231e-05 3.31269e-05 5.88923e-05 9.20192e-05 0.000132508 0.000180358 0.000235569 0.00030633 0.000400828 0.000519063 0.000661036 0.000826746 0.00101619 0.00122938 0.0014663 0.00172043 0.00198526 0.00226078 0.00254699 0.0028439 0.0031515 0.00346978 0.00379876 0.00412635 0.00444045 0.00474106 0.0050282 0.00530184 0.005562 0.00580868 0.00604188 0.00625478 0.00644059 0.0065993 0.00673092 0.00683544 0.00691287 0.0069632 0.00698644 0.00698497 0.0069612 0.00691512 0.00684673 0.00675604 0.00664304 0.00650773 0.00635011 0.00617906 0.00600343 0.00582323 0.00563845 0.0054491 0.00525518 0.00505668 0.00485361 0.00465398 0.00446578 0.00428902 0.0041237 0.00396982 0.00382738 0.00369638 0.00357681 0.00346993 0.00337697 0.00329793 0.00323281 0.00318162 0.00314435 0.00312099 0.00311157 0.00311093 0.00311397 0.00312068 0.00313105 0.0031451 0.00316281 0.0031842 0.00320925 0.00323209 0.00324683 0.00325347 0.00325201 0.00324245 0.00322479 0.00319903 0.00316518 0.00312185 0.00306767 0.00300263 0.00292675 0.00284002 0.00274244 0.00263401 0.00251472 0.00238838 0.00225875 0.00212585 0.00198967 0.00185022 0.00170749 0.00156148 0.00141219 0.00126498 0.0011252 0.000992838 0.000867908 0.000750405 0.000640328 0.000537679 0.000442457 0.000356071 0.000279929 0.000214032 0.000158379 0.00011297 7.78063e-05 5.28867e-05 3.82116e-05 2.92557e-05 2.1494e-05 1.49264e-05 9.55289e-06 5.3735e-06 2.38822e-06 5.97056e-07 0 0 4.90617e-06 1.96247e-05 4.41556e-05 7.84988e-05 0.000122654 0.000176622 0.000240403 0.000313995 0.000407558 0.00053125 0.000685069 0.000869017 0.00108309 0.0013273 0.00160163 0.00190609 0.00223231 0.0025719 0.00292488 0.00329123 0.00367096 0.00406407 0.00447056 0.00489043 0.0053084 0.00570918 0.00609279 0.0064592 0.00680844 0.00714049 0.00745537 0.00775305 0.00802497 0.00826253 0.00846573 0.00863458 0.00876906 0.00886919 0.00893496 0.00896637 0.00896645 0.00893822 0.00888167 0.00879682 0.00868365 0.00854217 0.00837238 0.00817428 0.00795905 0.0077379 0.00751082 0.0072778 0.00703886 0.00679398 0.00654318 0.00628645 0.00603389 0.00579563 0.00557166 0.00536199 0.0051666 0.00498551 0.00481871 0.0046662 0.00452957 0.00441041 0.00430871 0.00422449 0.00415773 0.00410844 0.00407662 0.00406227 0.00405894 0.0040602 0.00406605 0.00407649 0.00409151 0.00411112 0.00413532 0.0041641 0.00419007 0.00420581 0.00421134 0.00420664 0.00419173 0.00416659 0.00413123 0.00408565 0.00402812 0.00395691 0.00387202 0.00377345 0.0036612 0.00353527 0.00339565 0.00324236 0.00308016 0.00291383 0.00274336 0.00256876 0.00239003 0.00220716 0.00202016 0.00182903 0.00164052 0.00146139 0.00129163 0.00113126 0.00098027 0.000838657 0.000706423 0.000583569 0.000471923 0.000373315 0.000287744 0.000215211 0.000155716 0.000109258 7.58379e-05 5.54553e-05 4.2458e-05 3.11936e-05 2.16622e-05 1.38638e-05 7.7984e-06 3.46596e-06 8.66489e-07 0 0 6.74201e-06 2.6968e-05 6.06781e-05 0.000107872 0.00016855 0.000242712 0.000330358 0.000431488 0.000558077 0.0007221 0.000923555 0.00116244 0.00143877 0.00175252 0.00210371 0.00249233 0.00290772 0.0033392 0.00378678 0.00425044 0.00473021 0.00522606 0.00573801 0.00626605 0.00679138 0.00729516 0.00777742 0.00823813 0.00867732 0.00909496 0.00949107 0.00986565 0.0102082 0.0105081 0.0107654 0.0109801 0.0111522 0.0112817 0.0113686 0.011413 0.0114184 0.0113887 0.0113238 0.0112237 0.0110885 0.010918 0.0107125 0.0104717 0.0102095 0.0099396 0.00966197 0.00937663 0.00908358 0.00878281 0.00847433 0.00815814 0.00784665 0.0075523 0.00727508 0.00701499 0.00677203 0.0065462 0.0063375 0.00614594 0.00597351 0.00582223 0.00569209 0.0055831 0.00549526 0.00542855 0.005383 0.00535858 0.0053475 0.00534191 0.00534184 0.00534726 0.0053582 0.00537464 0.00539658 0.00542403 0.00544796 0.00545936 0.00545822 0.00544454 0.00541833 0.00537959 0.0053283 0.00526448 0.00518602 0.00509081 0.00497886 0.00485016 0.00470472 0.00454253 0.0043636 0.00416791 0.00396133 0.00374968 0.00353297 0.00331119 0.00308435 0.00285244 0.00261548 0.00237344 0.00213464 0.00190736 0.00169161 0.00148737 0.00129466 0.00111348 0.000943815 0.000785675 0.000641444 0.000513508 0.000401866 0.00030652 0.000227468 0.000164711 0.000118248 8.80807e-05 6.74368e-05 4.95454e-05 3.44065e-05 2.20202e-05 1.23864e-05 5.50505e-06 1.37626e-06 0 0 9.18827e-06 3.67531e-05 8.26944e-05 0.000147012 0.000229707 0.000330778 0.000450225 0.000588049 0.000757888 0.000973378 0.00123452 0.00154132 0.00189376 0.00229186 0.00273561 0.00322502 0.00374667 0.00428715 0.00484647 0.00542463 0.00602163 0.00663746 0.00727213 0.00792563 0.00857528 0.00919839 0.00979496 0.010365 0.0109085 0.0114254 0.0119158 0.0123797 0.0128043 0.0131772 0.0134982 0.0137675 0.0139849 0.0141505 0.0142643 0.0143262 0.0143408 0.0143126 0.0142414 0.0141274 0.0139705 0.0137707 0.013528 0.0132424 0.0129304 0.0126085 0.0122767 0.0119349 0.0115833 0.0112217 0.0108501 0.0104687 0.0100923 0.00973578 0.00939926 0.0090827 0.0087861 0.00850945 0.00825277 0.00801604 0.00780177 0.00761245 0.00744808 0.00730866 0.0071942 0.00710468 0.00704012 0.00700052 0.0069766 0.0069591 0.00694803 0.00694338 0.00694516 0.00695336 0.00696798 0.00698903 0.00700577 0.00700746 0.00699411 0.00696571 0.00692227 0.00686378 0.00679025 0.00670167 0.00659555 0.00646938 0.00632316 0.0061569 0.00597059 0.00576423 0.00553783 0.00529138 0.00503188 0.00476631 0.00449466 0.00421696 0.00393318 0.00364333 0.00334742 0.00304544 0.00274735 0.00246312 0.00219275 0.00193624 0.00169359 0.00146479 0.00124985 0.00104878 0.000864633 0.000700507 0.000556397 0.000432304 0.000328226 0.000244164 0.000180118 0.000136088 0.000104192 7.65494e-05 5.31593e-05 3.4022e-05 1.91374e-05 8.50549e-06 2.12637e-06 0 0 1.2245e-05 4.89798e-05 0.000110205 0.000195919 0.000306124 0.000440818 0.000600003 0.000783677 0.00100699 0.00128509 0.00161797 0.00200563 0.00244808 0.00294532 0.00349734 0.00410415 0.00474915 0.00541576 0.00610397 0.0068138 0.00754523 0.00829826 0.00907291 0.00986916 0.0106601 0.0114189 0.0121454 0.0128398 0.0135019 0.0141318 0.0147296 0.0152951 0.0158135 0.0162699 0.0166643 0.0169967 0.0172671 0.0174754 0.0176218 0.0177061 0.0177337 0.0177099 0.0176346 0.0175079 0.0173297 0.0171 0.0168189 0.0164864 0.0161218 0.0157447 0.015355 0.0149527 0.0145379 0.0141105 0.0136706 0.0132181 0.0127707 0.0123461 0.0119442 0.0115651 0.0112088 0.0108753 0.0105645 0.0102765 0.0100143 0.00978105 0.00957666 0.00940116 0.00925455 0.00913683 0.00904801 0.00898807 0.00894625 0.00891177 0.00888464 0.00886485 0.0088524 0.00884729 0.00884953 0.00885911 0.00886349 0.00885012 0.00881901 0.00877015 0.00870353 0.00861918 0.00851707 0.00839722 0.0082567 0.0080926 0.00790491 0.00769365 0.0074588 0.00720037 0.00691836 0.00661277 0.00629181 0.00596371 0.00562846 0.00528606 0.00493652 0.00457983 0.00421599 0.00384501 0.00347865 0.00312867 0.00279507 0.00247786 0.00217704 0.0018926 0.00162454 0.00137287 0.00114149 0.000934314 0.000751338 0.000592563 0.00045799 0.000347618 0.000261447 0.000199477 0.000152724 0.000112206 7.79206e-05 4.98692e-05 2.80514e-05 1.24673e-05 3.11682e-06 0 0 1.59121e-05 6.36483e-05 0.000143209 0.000254593 0.000397802 0.000572835 0.000779692 0.00101837 0.00130538 0.00165722 0.00207389 0.0025554 0.00310173 0.00371289 0.00438889 0.00512972 0.00591516 0.00672502 0.00755927 0.00841794 0.009301 0.0102085 0.0111404 0.0120966 0.0130459 0.0139566 0.0148288 0.0156624 0.0164576 0.0172142 0.0179323 0.0186119 0.0192357 0.0197862 0.0202636 0.0206678 0.0209988 0.0212566 0.0214412 0.0215527 0.0215971 0.0215807 0.0215034 0.0213651 0.0211661 0.0209061 0.0205853 0.0202036 0.0197836 0.0193481 0.0188968 0.01843 0.0179475 0.0174494 0.0169357 0.0164064 0.015882 0.0153832 0.0149099 0.0144623 0.0140402 0.0136437 0.0132727 0.0129273 0.0126112 0.012328 0.0120778 0.0118606 0.0116763 0.011525 0.0114066 0.0113212 0.0112564 0.0111999 0.0111517 0.0111117 0.0110799 0.0110564 0.0110412 0.0110343 0.0110211 0.0109873 0.0109329 0.0108578 0.0107621 0.0106458 0.0105088 0.0103511 0.0101695 0.00996047 0.00972412 0.00946042 0.00916936 0.00885095 0.00850518 0.00813207 0.00774113 0.00734188 0.00693434 0.0065185 0.00609437 0.00566193 0.00522119 0.00477216 0.00432853 0.003904 0.00349857 0.00311224 0.00274502 0.0023969 0.00206788 0.00175796 0.00147202 0.00121493 0.000986688 0.000787299 0.00061676 0.000475072 0.000362234 0.000278247 0.000213033 0.000156514 0.00010869 6.95618e-05 3.91285e-05 1.73905e-05 4.34761e-06 0 0 2.01896e-05 8.07585e-05 0.000181707 0.000323034 0.00050474 0.000726826 0.000989291 0.00129214 0.00165307 0.00208979 0.0026023 0.0031906 0.0038547 0.00459459 0.00541026 0.00630173 0.00724471 0.00821493 0.00921237 0.0102371 0.011289 0.0123681 0.0134745 0.0146081 0.0157326 0.0168115 0.017845 0.018833 0.0197756 0.0206726 0.0215241 0.0223302 0.0230708 0.0237261 0.0242961 0.0247807 0.02518 0.025494 0.0257226 0.0258659 0.025931 0.0259249 0.0258476 0.0256992 0.0254797 0.025189 0.0248271 0.0243941 0.0239159 0.0234187 0.0229023 0.0223668 0.0218121 0.0212384 0.0206455 0.0200335 0.0194261 0.0188471 0.0182964 0.0177741 0.0172802 0.0168146 0.0163774 0.0159685 0.0155924 0.0152534 0.0149516 0.014687 0.0144595 0.0142692 0.014116 0.014 0.0139072 0.0138235 0.0137491 0.0136838 0.0136277 0.0135808 0.0135431 0.0135145 0.0134787 0.0134191 0.0133358 0.0132288 0.0130981 0.0129436 0.0127653 0.0125634 0.0123339 0.012073 0.0117808 0.0114572 0.0111023 0.010716 0.0102983 0.00984928 0.00937982 0.00890084 0.00841233 0.00791429 0.00740673 0.00688964 0.00636303 0.00582689 0.00529699 0.00478911 0.00430324 0.00383938 0.00339753 0.00297769 0.00257986 0.00220404 0.00185621 0.00154235 0.00126245 0.00101651 0.000804537 0.000626527 0.000482481 0.000372399 0.000285118 0.000209475 0.000145469 9.30999e-05 5.23687e-05 2.3275e-05 5.81874e-06 0 0 2.50776e-05 0.00010031 0.000225698 0.000401241 0.00062694 0.000902793 0.0012288 0.00160497 0.00205004 0.00258278 0.00320318 0.00391126 0.00470699 0.00559039 0.00656146 0.00762019 0.0087378 0.00988549 0.0110633 0.0122711 0.0135091 0.0147771 0.0160753 0.0174035 0.0187202 0.0199838 0.0211942 0.0223516 0.0234558 0.0245069 0.025505 0.0264499 0.027319 0.0280896 0.0287618 0.0293355 0.0298108 0.0301876 0.0304659 0.0306458 0.0307353 0.0307425 0.0306675 0.0305101 0.0302705 0.0299486 0.0295443 0.0290579 0.0285187 0.0279565 0.0273713 0.026763 0.0261317 0.0254773 0.0247999 0.0240995 0.0234031 0.0227378 0.0221037 0.0215007 0.0209288 0.0203881 0.0198785 0.0194 0.0189579 0.0185572 0.018198 0.0178803 0.0176041 0.0173694 0.0171762 0.0170244 0.0168985 0.0167826 0.0166769 0.0165813 0.0164958 0.0164203 0.016355 0.0162998 0.0162362 0.0161455 0.0160278 0.015883 0.0157113 0.0155126 0.0152868 0.015034 0.0147499 0.0144302 0.0140749 0.013684 0.0132575 0.0127954 0.0122977 0.0117644 0.0112079 0.0106406 0.0100624 0.00947341 0.0088736 0.00826296 0.00764149 0.0070092 0.00638405 0.00578401 0.00520908 0.00465927 0.00413456 0.00363497 0.00316049 0.00271112 0.00229408 0.00191658 0.00157862 0.0012802 0.00102132 0.000801983 0.000622187 0.000481933 0.00036898 0.000271088 0.000188255 0.000120483 6.77719e-05 3.01208e-05 7.53021e-06 0 0 3.0576e-05 0.000122304 0.000275184 0.000489216 0.0007644 0.00110074 0.00149822 0.00195686 0.00249631 0.0031362 0.00387655 0.00471735 0.00565861 0.00670032 0.00784248 0.0090851 0.0103944 0.0117367 0.013112 0.0145202 0.0159614 0.0174356 0.0189427 0.0204828 0.0220087 0.0234732 0.0248763 0.026218 0.0274983 0.0287173 0.0298748 0.0309709 0.0319801 0.0328767 0.0336607 0.0343322 0.0348911 0.0353374 0.0356712 0.0358923 0.0360101 0.0360336 0.0359628 0.0357978 0.0355385 0.0351849 0.034737 0.0341949 0.0335919 0.0329616 0.0323038 0.0316187 0.0309062 0.0301663 0.029399 0.0286043 0.0278129 0.0270554 0.0263317 0.025642 0.0249861 0.0243642 0.0237761 0.0232219 0.0227077 0.0222393 0.021817 0.0214406 0.0211101 0.0208256 0.020587 0.0203944 0.0202303 0.0200772 0.0199352 0.0198041 0.0196841 0.0195751 0.0194771 0.0193902 0.0192935 0.0191664 0.0190087 0.0188205 0.0186019 0.0183527 0.0180731 0.017763 0.0174175 0.0170321 0.0166065 0.0161408 0.0156351 0.0150893 0.0145034 0.0138775 0.0132254 0.0125611 0.0118846 0.0111959 0.010495 0.00978188 0.00905658 0.00831908 0.00758969 0.00688869 0.0062161 0.00557191 0.00495613 0.00436875 0.00380977 0.00327919 0.00278561 0.00233761 0.00193519 0.00157836 0.00126711 0.00100144 0.000781353 0.000606849 0.000464619 0.000341353 0.00023705 0.000151712 8.53381e-05 3.79281e-05 9.48202e-06 0 0 3.67749e-05 0.0001471 0.000330974 0.000588399 0.000919373 0.0013239 0.00180197 0.00235359 0.00299906 0.00375865 0.00463237 0.00562022 0.0067222 0.00793831 0.00926855 0.0107129 0.0122322 0.0137873 0.0153781 0.0170047 0.0186671 0.0203652 0.022099 0.0238687 0.025621 0.027303 0.0289147 0.0304561 0.0319271 0.0333278 0.0346582 0.0359183 0.0370794 0.038113 0.039019 0.0397975 0.0404485 0.0409719 0.0413678 0.0416362 0.0417872 0.0418312 0.0417682 0.0415982 0.0413211 0.040937 0.0404459 0.0398477 0.0391799 0.0384799 0.0377477 0.0369833 0.0361866 0.0353578 0.0344967 0.0336035 0.0327123 0.0318577 0.0310395 0.0302577 0.0295124 0.0288036 0.0281313 0.0274954 0.026903 0.0263609 0.0258692 0.0254279 0.0250369 0.0246963 0.0244061 0.0241662 0.0239575 0.0237606 0.0235757 0.0234026 0.0232414 0.023092 0.0229546 0.022829 0.0226923 0.0225215 0.0223166 0.0220775 0.0218044 0.0214971 0.0211557 0.0207802 0.0203653 0.0199057 0.0194014 0.0188523 0.0182586 0.0176202 0.016937 0.0162092 0.0154522 0.0146816 0.0138973 0.0130995 0.012288 0.0114629 0.0106242 0.00977184 0.00892862 0.00811726 0.00733774 0.00659008 0.00587426 0.0051903 0.00453819 0.00391794 0.00333966 0.00281347 0.00233937 0.00191737 0.00154746 0.00122965 0.000963934 0.000750309 0.000574456 0.000422049 0.00029309 0.000187577 0.000105512 4.68943e-05 1.17236e-05 0 0 4.37644e-05 0.000175058 0.00039388 0.000700231 0.00109411 0.00157552 0.00214446 0.00280092 0.00356549 0.00445872 0.00548062 0.00663119 0.00791042 0.00931833 0.0108549 0.0125201 0.0142689 0.016056 0.0178814 0.0197451 0.0216472 0.0235877 0.0255665 0.0275836 0.0295799 0.0314963 0.0333328 0.0350894 0.0367661 0.0383629 0.0398797 0.0413167 0.042642 0.0438241 0.0448629 0.0457585 0.0465107 0.0471197 0.0475854 0.0479079 0.0480984 0.0481685 0.0481181 0.0479472 0.0476559 0.047244 0.0467117 0.0460589 0.045327 0.0445576 0.0437507 0.0429061 0.042024 0.0411044 0.0401471 0.0391523 0.0381581 0.0372026 0.0362857 0.0354076 0.0345681 0.0337673 0.0330052 0.0322819 0.0316051 0.0309829 0.0304153 0.0299023 0.0294438 0.0290399 0.0286906 0.0283959 0.0281347 0.0278862 0.0276502 0.0274269 0.0272161 0.027018 0.0268324 0.0266595 0.0264739 0.0262505 0.0259893 0.0256902 0.0253533 0.0249786 0.024566 0.0241156 0.0236216 0.0230782 0.0224854 0.0218432 0.0211516 0.0204106 0.0196202 0.0187804 0.0179084 0.0170213 0.0161192 0.015202 0.0142698 0.0133225 0.0123602 0.0113828 0.0104156 0.0094838 0.00858744 0.00772651 0.00690101 0.00611093 0.00535627 0.00463704 0.00396506 0.00335216 0.00279834 0.00230361 0.00186795 0.00149138 0.00117389 0.000915477 0.000700912 0.000514956 0.000357608 0.000228869 0.000128739 5.72173e-05 1.43043e-05 0 0 5.15446e-05 0.000206178 0.000463901 0.000824713 0.00128861 0.0018556 0.00252568 0.00329885 0.0041956 0.00523642 0.0064213 0.00775025 0.00922327 0.0108404 0.0126015 0.0145067 0.0165044 0.0185427 0.0206217 0.0227415 0.0249019 0.0271031 0.029345 0.0316275 0.0338854 0.0360531 0.0381307 0.0401181 0.0420153 0.0438224 0.0455394 0.0471662 0.048668 0.0500101 0.0511924 0.0522149 0.0530777 0.0537807 0.054324 0.0547075 0.0549438 0.0550454 0.0550125 0.0548449 0.0545427 0.0541059 0.0535344 0.0528283 0.0520332 0.0511947 0.0503127 0.0493872 0.0484183 0.047406 0.0463502 0.0452509 0.0441502 0.0430901 0.0420705 0.0410915 0.0401531 0.0392552 0.0383979 0.0375812 0.036814 0.0361053 0.0354553 0.0348638 0.0343309 0.0338565 0.0334407 0.0330834 0.0327621 0.0324539 0.0321589 0.0318771 0.0316085 0.031353 0.0311108 0.0308817 0.0306384 0.0303534 0.0300268 0.0296586 0.0292487 0.0287972 0.028304 0.0277692 0.0271865 0.0265496 0.0258586 0.0251134 0.0243141 0.0234606 0.0225529 0.0215911 0.0205939 0.0195803 0.0185502 0.0175035 0.0164404 0.0153607 0.0142646 0.0131519 0.0120505 0.0109883 0.00996521 0.00898123 0.00803636 0.00713062 0.00626399 0.00543649 0.00466181 0.00395368 0.0033121 0.00273706 0.00222857 0.00178662 0.00141121 0.00110235 0.000843989 0.000620073 0.000430606 0.000275588 0.000155018 6.8897e-05 1.72243e-05 0 0 6.01153e-05 0.000240461 0.000541038 0.000961845 0.00150288 0.00216415 0.00294565 0.00384738 0.00488939 0.00609173 0.00745441 0.00897741 0.0106608 0.0125044 0.0145084 0.0166728 0.0189387 0.0212475 0.0235992 0.0259937 0.0284311 0.0309114 0.0334345 0.0360006 0.0385375 0.0409734 0.0433082 0.045542 0.0476748 0.0497065 0.0516371 0.0534667 0.0551573 0.0566709 0.0580074 0.059167 0.0601495 0.060955 0.0615835 0.062035 0.0623232 0.062462 0.0624513 0.0622912 0.0619816 0.0615226 0.0609141 0.0601562 0.0592986 0.0583911 0.0574338 0.0564266 0.0553696 0.0542626 0.0531059 0.0518992 0.0506887 0.0495203 0.0483939 0.0473096 0.0462674 0.0452673 0.0443093 0.0433934 0.0425296 0.0417282 0.0409892 0.0403124 0.039698 0.039146 0.0386563 0.0382289 0.0378395 0.0374638 0.0371016 0.0367532 0.0364183 0.0360971 0.0357895 0.0354956 0.0351857 0.0348303 0.0344293 0.0339827 0.0334906 0.0329529 0.0323697 0.031741 0.0310599 0.0303199 0.0295209 0.028663 0.027746 0.0267701 0.0257351 0.0246412 0.0235089 0.0223585 0.0211902 0.0200039 0.0187997 0.0175775 0.0163373 0.0150792 0.0138335 0.0126308 0.011471 0.0103542 0.00928033 0.00824937 0.00726136 0.00631629 0.00542992 0.00461805 0.00388065 0.00321774 0.00262931 0.00211537 0.00167591 0.00131094 0.00100368 0.000737401 0.000512084 0.000327734 0.00018435 8.19335e-05 2.04834e-05 0 0 6.94767e-05 0.000277907 0.00062529 0.00111163 0.00173692 0.00250116 0.00340436 0.00444651 0.00564686 0.00702468 0.00857995 0.0103127 0.0122229 0.0143105 0.0165756 0.0190182 0.0215719 0.0241704 0.0268137 0.0295018 0.0322348 0.0350126 0.0378352 0.0407026 0.0435362 0.0462571 0.0488655 0.0513612 0.0537444 0.056015 0.058173 0.0602184 0.06211 0.0638065 0.0653081 0.0666146 0.0677261 0.0686425 0.0693639 0.0698903 0.0702368 0.0704182 0.0704346 0.0702861 0.0699726 0.0694942 0.0688507 0.0680423 0.067123 0.0661469 0.065114 0.0640242 0.0628777 0.0616744 0.0604142 0.0590973 0.0577736 0.0564931 0.0552559 0.0540619 0.0529111 0.0518037 0.0507394 0.0497184 0.048752 0.0478515 0.0470169 0.0462482 0.0455454 0.0449084 0.0443374 0.0438323 0.043367 0.0429158 0.0424785 0.0420551 0.0416457 0.0412503 0.0408688 0.0405012 0.0401159 0.039681 0.0391965 0.0386625 0.0380789 0.0374458 0.0367631 0.0360309 0.0352419 0.0343891 0.0334724 0.0324919 0.0314474 0.0303391 0.0291669 0.0279309 0.0266531 0.025356 0.0240394 0.0227033 0.0213478 0.0199729 0.0185785 0.0171646 0.0157645 0.0144113 0.013105 0.0118455 0.0106329 0.0094672 0.00834838 0.00727644 0.00626939 0.00534524 0.00450399 0.00374564 0.00307019 0.00247764 0.00196798 0.00154123 0.00118 0.00086694 0.000602041 0.000385307 0.000216735 9.63266e-05 2.40817e-05 0 0 7.96287e-05 0.000318515 0.000716658 0.00127406 0.00199072 0.00286663 0.0039018 0.00509623 0.00646801 0.00803524 0.00979791 0.011756 0.0139096 0.0162586 0.0188031 0.021543 0.0244039 0.0273113 0.0302653 0.0332659 0.036313 0.0394067 0.042547 0.0457338 0.0488815 0.0519044 0.0548025 0.0575758 0.0602243 0.062748 0.065147 0.0674211 0.0695259 0.071417 0.0730943 0.0745577 0.0758074 0.076843