<?xml version="1.0"?> 
<VTKFile type="StructuredGrid" version="0.1"> 
<StructuredGrid WholeExtent="0 128 0 128 0 0"> 
<Piece Extent="0 128 0 128 0 0"> 
<PointData>
<DataArray type="Float32" Name="u" format="ascii" NumberOfComponents="1"> 
0 0 0 0 0 0 0 0 0 0 0 0 0 0 0 0 0 0 0 0 0 0 0 0 0 0 0 0 0 0 0 0 0 0 0 0 0 0 0 0 0 0 0 0 0 0 0 0 0 0 0 0 0 0 0 0 0 0 0 0 0 0 0 0 0 0 0 0 0 0 0 0 0 0 0 0 0 0 0 0 0 0 0 0 0 0 0 0 0 0 0 0 0 0 0 0 0 0 0 0 0 0 0 0 0 0 0 0 0 0 0 0 0 0 0 0 0 0 0 0 0 0 0 0 0 0 0 0 0 0 1.89024e-06 7.56097e-06 1.70122e-05 3.02439e-05 4.7256e-05 6.80487e-05 9.26218e-05 0.000120975 0.000153231 0.00018951 0.000229813 0.00027414 0.00032249 0.000374864 0.000431261 0.000491682 0.000554068 0.00061636 0.000678559 0.000740663 0.000802674 0.000864591 0.000926414 0.000988143 0.0010482 0.00110501 0.00115857 0.00120888 0.00125594 0.00129975 0.00134032 0.00137763 0.00141129 0.00144088 0.0014664 0.00148786 0.00150525 0.00151858 0.00152784 0.00153303 0.00153458 0.0015329 0.00152801 0.00151989 0.00150855 0.00149399 0.0014762 0.0014552 0.00143173 0.00140656 0.0013797 0.00135114 0.00132087 0.00128891 0.00125525 0.0012199 0.00118355 0.00114694 0.00111005 0.00107288 0.00103545 0.000997738 0.000959755 0.0009215 0.000883436 0.000846027 0.000809273 0.000773174 0.00073773 0.000702942 0.000668809 0.000635331 0.000602693 0.000571079 0.000540489 0.000510924 0.000482384 0.000454867 0.000428375 0.000402908 0.000378446 0.000354972 0.000332485 0.000310986 0.000290473 0.000270948 0.00025241 0.00023486 0.000218188 0.000202287 0.000187157 0.000172797 0.000159207 0.000146388 0.00013434 0.000123062 0.000112449 0.000102394 9.28992e-05 8.3963e-05 7.55857e-05 6.77675e-05 6.05082e-05 5.38079e-05 4.76023e-05 4.18272e-05 3.64825e-05 3.15682e-05 2.70845e-05 2.30311e-05 1.94082e-05 1.62158e-05 1.3391e-05 1.08711e-05 8.65604e-06 6.74582e-06 5.14046e-06 3.83995e-06 2.84429e-06 2.15349e-06 1.64877e-06 1.21134e-06 8.41208e-07 5.38373e-07 3.02835e-07 1.34593e-07 3.36483e-08 0 0 7.56097e-06 3.02439e-05 6.80487e-05 0.000120975 0.000189024 0.000272195 0.000370487 0.000483902 0.000612924 0.000758042 0.000919253 0.00109656 0.00128996 0.00149946 0.00172504 0.00196673 0.00221627 0.00246544 0.00271423 0.00296265 0.0032107 0.00345836 0.00370566 0.00395257 0.00419281 0.00442004 0.00463428 0.00483552 0.00502377 0.00519902 0.00536127 0.00551053 0.00564515 0.00576351 0.00586561 0.00595144 0.00602101 0.00607431 0.00611135 0.00613212 0.00613831 0.00613162 0.00611204 0.00607956 0.0060342 0.00597595 0.00590481 0.00582079 0.00572692 0.00562625 0.0055188 0.00540454 0.0052835 0.00515565 0.00502102 0.00487959 0.00473421 0.00458774 0.00444018 0.00429153 0.00414179 0.00399095 0.00383902 0.003686 0.00353374 0.00338411 0.00323709 0.0030927 0.00295092 0.00281177 0.00267524 0.00254132 0.00241077 0.00228431 0.00216196 0.0020437 0.00192953 0.00181947 0.0017135 0.00161163 0.00151379 0.00141989 0.00132994 0.00124394 0.00116189 0.00108379 0.00100964 0.00093944 0.000872753 0.000809149 0.000748627 0.000691187 0.000636829 0.000585553 0.000537359 0.000492247 0.000449795 0.000409578 0.000371597 0.000335852 0.000302343 0.00027107 0.000242033 0.000215231 0.000190409 0.000167309 0.00014593 0.000126273 0.000108338 9.21245e-05 7.7633e-05 6.48633e-05 5.35641e-05 4.34844e-05 3.46241e-05 2.69833e-05 2.05618e-05 1.53598e-05 1.13772e-05 8.61397e-06 6.59507e-06 4.84536e-06 3.36483e-06 2.15349e-06 1.21134e-06 5.38373e-07 1.34593e-07 0 0 1.70122e-05 6.80487e-05 0.00015311 0.000272195 0.000425304 0.000612438 0.000833596 0.00108878 0.00137908 0.00170559 0.00206832 0.00246726 0.00290241 0.00337377 0.00388135 0.00442514 0.00498661 0.00554724 0.00610703 0.00666597 0.00722406 0.00778132 0.00833773 0.00889329 0.00943381 0.00994509 0.0104271 0.0108799 0.0113035 0.0116978 0.0120629 0.0123987 0.0127016 0.0129679 0.0131976 0.0133907 0.0135473 0.0136672 0.0137505 0.0137973 0.0138112 0.0137961 0.0137521 0.013679 0.013577 0.0134459 0.0132858 0.0130968 0.0128856 0.0126591 0.0124173 0.0121602 0.0118879 0.0116002 0.0112973 0.0109791 0.010652 0.0103224 0.00999041 0.00965595 0.00931902 0.00897964 0.0086378 0.0082935 0.00795092 0.00761424 0.00728345 0.00695857 0.00663957 0.00632648 0.00601928 0.00571798 0.00542423 0.00513971 0.0048644 0.00459832 0.00434145 0.00409381 0.00385538 0.00362617 0.00340602 0.00319475 0.00299237 0.00279887 0.00261426 0.00243853 0.00227169 0.00211374 0.00196369 0.00182059 0.00168441 0.00155517 0.00143287 0.00131749 0.00120906 0.00110756 0.00101204 0.00092155 0.000836093 0.000755667 0.000680272 0.000609907 0.000544574 0.000484271 0.000428421 0.000376444 0.000328342 0.000284114 0.00024376 0.00020728 0.000174674 0.000145942 0.000120519 9.784e-05 7.79043e-05 6.07124e-05 4.62641e-05 3.45595e-05 2.55986e-05 1.93814e-05 1.48389e-05 1.09021e-05 7.57087e-06 4.84536e-06 2.72551e-06 1.21134e-06 3.02835e-07 0 0 3.02439e-05 0.000120975 0.000272195 0.000483902 0.000756097 0.00108878 0.00148195 0.00193561 0.0024517 0.00303217 0.00367701 0.00438624 0.00515984 0.00599782 0.00690018 0.00786691 0.00886509 0.00986176 0.0108569 0.0118506 0.0128428 0.0138335 0.0148226 0.0158103 0.0167712 0.0176802 0.0185371 0.0193421 0.0200951 0.0207961 0.0214451 0.0220421 0.0225806 0.0230541 0.0234624 0.0238058 0.024084 0.0242972 0.0244454 0.0245285 0.0245532 0.0245265 0.0244481 0.0243183 0.0241368 0.0239038 0.0236193 0.0232832 0.0229077 0.022505 0.0220752 0.0216182 0.021134 0.0206226 0.0200841 0.0195183 0.0189368 0.018351 0.0177607 0.0171661 0.0165671 0.0159638 0.0153561 0.014744 0.014135 0.0135364 0.0129484 0.0123708 0.0118037 0.0112471 0.0107009 0.0101653 0.00964308 0.00913726 0.00864783 0.00817479 0.00771814 0.00727788 0.00685401 0.00644653 0.00605514 0.00567955 0.00531976 0.00497577 0.00464757 0.00433517 0.00403857 0.00375776 0.00349101 0.0032366 0.00299451 0.00276475 0.00254732 0.00234221 0.00214944 0.00196899 0.00179918 0.00163831 0.00148639 0.00134341 0.00120937 0.00108428 0.000968131 0.000860926 0.000761637 0.000669235 0.00058372 0.000505092 0.000433351 0.000368498 0.000310532 0.000259453 0.000214257 0.000173938 0.000138497 0.000107933 8.22473e-05 6.14392e-05 4.55087e-05 3.44559e-05 2.63803e-05 1.93814e-05 1.34593e-05 8.61397e-06 4.84536e-06 2.15349e-06 5.38373e-07 0 0 4.7256e-05 0.000189024 0.000425304 0.000756097 0.0011814 0.00170122 0.00231555 0.00302439 0.00383078 0.00473776 0.00574533 0.0068535 0.00806225 0.00937159 0.0107815 0.0122921 0.0138517 0.015409 0.016964 0.0185166 0.0200668 0.0216148 0.0231604 0.0247036 0.026205 0.0276253 0.0289642 0.030222 0.0313985 0.0324939 0.0335079 0.0344408 0.0352822 0.036022 0.0366601 0.0371965 0.0376313 0.0379644 0.0381959 0.0383257 0.0383645 0.0383226 0.0382002 0.0379973 0.0377138 0.0373497 0.0369051 0.0363799 0.0357932 0.0351641 0.0344925 0.0337784 0.0330219 0.0322228 0.0313814 0.0304974 0.0295888 0.0286734 0.0277511 0.0268221 0.0258862 0.0249434 0.0239939 0.0230375 0.0220859 0.0211507 0.0202318 0.0193293 0.0184433 0.0175736 0.0167202 0.0158833 0.0150673 0.014277 0.0135122 0.0127731 0.0120596 0.0113717 0.0107094 0.0100727 0.00946116 0.0088743 0.00831213 0.00777464 0.00726183 0.0067737 0.00631026 0.0058715 0.00545471 0.00505718 0.00467892 0.00431992 0.00398018 0.00365971 0.0033585 0.00307655 0.00281122 0.00255986 0.00232248 0.00209907 0.00188964 0.00169419 0.0015127 0.0013452 0.00119006 0.00104568 0.000912062 0.000789206 0.000677112 0.000575778 0.000485206 0.000405395 0.000334776 0.000271778 0.000216401 0.000168645 0.000128511 9.59987e-05 7.11073e-05 5.38373e-05 4.12192e-05 3.02835e-05 2.10302e-05 1.34593e-05 7.57087e-06 3.36483e-06 8.41208e-07 0 0 6.80487e-05 0.000272195 0.000612438 0.00108878 0.00170122 0.00244975 0.00333439 0.00435512 0.00551632 0.00682237 0.00827328 0.00986903 0.0116096 0.0134951 0.0155254 0.0177006 0.0199465 0.022189 0.0244281 0.0266639 0.0288963 0.0311253 0.0333509 0.0355732 0.0377352 0.0397804 0.0417085 0.0435197 0.0452139 0.0467912 0.0482514 0.0495947 0.0508064 0.0518716 0.0527905 0.053563 0.0541891 0.0546688 0.0550021 0.0551891 0.0552448 0.0551846 0.0550083 0.0547161 0.0543078 0.0537836 0.0531433 0.0523871 0.0515423 0.0506363 0.0496692 0.0486409 0.0475515 0.0464009 0.0451892 0.0439163 0.0426079 0.0412897 0.0399617 0.0386238 0.0372761 0.0359186 0.0345512 0.033174 0.0318037 0.030457 0.0291338 0.0278343 0.0265583 0.0253059 0.0240771 0.0228719 0.0216969 0.0205588 0.0194576 0.0183933 0.0173658 0.0163752 0.0154215 0.0145047 0.0136241 0.012779 0.0119695 0.0111955 0.010457 0.00975413 0.00908677 0.00845496 0.00785478 0.00728234 0.00673764 0.00622068 0.00573146 0.00526998 0.00483623 0.00443023 0.00404815 0.0036862 0.00334437 0.00302267 0.00272109 0.00243963 0.00217829 0.00193708 0.00171368 0.00150578 0.00131337 0.00113646 0.000975041 0.000829121 0.000698697 0.000583769 0.000482077 0.00039136 0.000311617 0.00024285 0.000185056 0.000138238 0.000102395 7.75257e-05 5.93556e-05 4.36082e-05 3.02835e-05 1.93814e-05 1.09021e-05 4.84536e-06 1.21134e-06 0 0 9.26218e-05 0.000370487 0.000833596 0.00148195 0.00231555 0.00333439 0.00453847 0.0059278 0.00750832 0.00928601 0.0112609 0.0134329 0.015802 0.0183683 0.0211318 0.0240924 0.0271493 0.0302017 0.0332494 0.0362925 0.039331 0.042365 0.0453943 0.048419 0.0513619 0.0541455 0.0567699 0.0592351 0.0615412 0.063688 0.0656756 0.067504 0.0691531 0.0706031 0.0718537 0.0729052 0.0737574 0.0744103 0.074864 0.0751184 0.0751943 0.0751123 0.0748724 0.0744747 0.073919 0.0732054 0.072334 0.0713046 0.0701548 0.0689216 0.0676053 0.0662057 0.0647228 0.0631568 0.0615075 0.0597749 0.0579941 0.0561999 0.0543922 0.0525713 0.0507369 0.0488891 0.047028 0.0451535 0.0432884 0.0414553 0.0396544 0.0378855 0.0361488 0.0344442 0.0327716 0.0311312 0.0295319 0.0279829 0.026484 0.0250353 0.0236368 0.0222885 0.0209904 0.0197425 0.0185439 0.0173936 0.0162918 0.0152383 0.0142332 0.0132765 0.0123681 0.0115081 0.0106912 0.00991208 0.00917068 0.00846704 0.00780116 0.00717303 0.00658265 0.00603003 0.00550998 0.00501733 0.00455206 0.00411419 0.0037037 0.00332061 0.0029649 0.00263659 0.00233251 0.00204953 0.00178764 0.00154684 0.00132714 0.00112853 0.000951004 0.000794575 0.000656161 0.000532684 0.000424146 0.000330545 0.000251882 0.000188157 0.00013937 0.000105521 8.07896e-05 5.93556e-05 4.12192e-05 2.63803e-05 1.48389e-05 6.59507e-06 1.64877e-06 0 0 0.000120975 0.000483902 0.00108878 0.00193561 0.00302439 0.00435512 0.0059278 0.00774243 0.00980679 0.0121287 0.0147081 0.017545 0.0206394 0.0239913 0.0276007 0.0314677 0.0354604 0.0394471 0.0434277 0.0474024 0.0513711 0.0553338 0.0592905 0.0632412 0.0670849 0.0707206 0.0741485 0.0773684 0.0803803 0.0831843 0.0857803 0.0881684 0.0903225 0.0922162 0.0938498 0.0952231 0.0963361 0.097189 0.0977815 0.0981139 0.098213 0.0981059 0.0977926 0.097273 0.0965472 0.0956153 0.094477 0.0931326 0.0916307 0.0900201 0.0883007 0.0864727 0.0845359 0.0824905 0.0803363 0.0780734 0.0757474 0.0734039 0.0710429 0.0686645 0.0662686 0.0638552 0.0614243 0.058976 0.0565399 0.0541457 0.0517935 0.0494831 0.0472147 0.0449883 0.0428038 0.0406612 0.0385723 0.036549 0.0345913 0.0326991 0.0308725 0.0291115 0.027416 0.0257861 0.0242206 0.0227182 0.0212791 0.0199031 0.0185903 0.0173407 0.0161543 0.015031 0.0139641 0.0129464 0.011978 0.011059 0.0101893 0.00936885 0.00859775 0.00787596 0.00719671 0.00655324 0.00594555 0.00537363 0.00483749 0.00433712 0.00387252 0.0034437 0.00304655 0.00267694 0.00233488 0.00202037 0.00173341 0.00147399 0.00124213 0.00103781 0.000857026 0.000695751 0.000553986 0.000431732 0.000328989 0.000245757 0.000182035 0.000137824 0.000105521 7.75257e-05 5.38373e-05 3.44559e-05 1.93814e-05 8.61397e-06 2.15349e-06 0 0 0.000153675 0.000614701 0.00138308 0.00245881 0.00384188 0.00553231 0.00753009 0.00983522 0.0124563 0.0154019 0.018672 0.0222666 0.0261858 0.0304295 0.0349977 0.0398905 0.0449414 0.0499841 0.0550185 0.0600448 0.0650628 0.0700726 0.0750742 0.0800675 0.0849254 0.0895207 0.0938532 0.0979232 0.10173 0.105275 0.108557 0.111576 0.1143 0.116695 0.118761 0.120499 0.121908 0.122989 0.123741 0.124164 0.124293 0.124161 0.123768 0.123116 0.122202 0.121028 0.119593 0.117898 0.116004 0.113972 0.111803 0.109496 0.107051 0.104469 0.101749 0.0988914 0.0959538 0.0929937 0.0900111 0.087006 0.0839784 0.0809284 0.0778558 0.0747607 0.0716807 0.0686534 0.0656786 0.0627565 0.059887 0.0570701 0.0543059 0.0515942 0.0489503 0.046389 0.0439103 0.0415144 0.039201 0.0369704 0.0348224 0.0327571 0.0307731 0.0288689 0.0270446 0.0253001 0.0236355 0.0220507 0.0205458 0.0191207 0.0177668 0.0164753 0.0152463 0.0140797 0.0129755 0.0119337 0.0109544 0.0100376 0.0091746 0.00835697 0.00758469 0.00685776 0.00617617 0.00553994 0.00494905 0.00440351 0.0038981 0.00342759 0.002992 0.00259131 0.00222553 0.00189466 0.0015987 0.00133764 0.00110643 0.000899993 0.000718329 0.00056144 0.000429324 0.000321983 0.000239416 0.000181623 0.000139055 0.000102163 7.09465e-05 4.54057e-05 2.55407e-05 1.13514e-05 2.83786e-06 0 0 0.000191287 0.000765149 0.00172159 0.0030606 0.00478218 0.00688634 0.00937307 0.0122424 0.0155014 0.0191572 0.0232098 0.0276593 0.0325055 0.0377486 0.0433885 0.0494252 0.0556543 0.0618716 0.068077 0.0742705 0.0804522 0.086622 0.0927799 0.0989259 0.104905 0.11056 0.115893 0.120903 0.125591 0.129955 0.133996 0.137715 0.141071 0.144022 0.14657 0.148715 0.150456 0.151793 0.152727 0.153257 0.153425 0.153273 0.1528 0.152007 0.150893 0.149459 0.147704 0.145629 0.143309 0.140819 0.138159 0.135329 0.132329 0.129159 0.125819 0.122309 0.118699 0.115061 0.111394 0.107698 0.103974 0.10022 0.096438 0.0926269 0.0888333 0.0851034 0.0814373 0.077835 0.0742963 0.0708214 0.0674103 0.0640629 0.060798 0.0576342 0.0545717 0.0516104 0.0487503 0.0459914 0.0433336 0.0407771 0.0383204 0.0359618 0.0337016 0.0315396 0.0294759 0.0275104 0.0256432 0.0238742 0.022193 0.0205889 0.019062 0.0176122 0.0162395 0.014944 0.0137257 0.0125844 0.0115099 0.0104915 0.00952934 0.00862333 0.0077735 0.00697984 0.00624237 0.00556107 0.00492947 0.00434108 0.00379591 0.00329394 0.0028352 0.00241966 0.00204734 0.00171823 0.00142613 0.00116484 0.000934364 0.000734694 0.000565834 0.000427783 0.000320542 0.00024411 0.000186896 0.000137312 9.53553e-05 6.10274e-05 3.43279e-05 1.52568e-05 3.81421e-06 0 0 0.000233811 0.000935245 0.0021043 0.00374098 0.00584528 0.0084172 0.0114567 0.0149639 0.0189421 0.0233946 0.0283215 0.0337228 0.0395985 0.0459485 0.0527729 0.0600717 0.0675991 0.0751096 0.0826032 0.0900797 0.0975393 0.104982 0.112408 0.119816 0.127022 0.13384 0.140269 0.146309 0.151961 0.157224 0.162099 0.166585 0.170635 0.174199 0.177278 0.179871 0.18198 0.183603 0.18474 0.185393 0.18561 0.185441 0.184886 0.183946 0.18262 0.180908 0.17881 0.176326 0.173546 0.170561 0.167369 0.163972 0.160369 0.156561 0.152546 0.148326 0.143984 0.139606 0.135192 0.130741 0.126254 0.121731 0.117171 0.112575 0.107998 0.103496 0.0990696 0.0947186 0.0904428 0.0862423 0.0821171 0.0780671 0.0741154 0.0702849 0.0665755 0.0629873 0.0595202 0.0561744 0.0529497 0.0498461 0.0468624 0.043997 0.0412501 0.0386216 0.0361115 0.0337198 0.0314465 0.0292916 0.0272427 0.0252872 0.0234251 0.0216565 0.0199814 0.0183997 0.0169114 0.0155166 0.0142026 0.0129569 0.0117795 0.0106703 0.00962945 0.00865683 0.00775247 0.00691639 0.00614067 0.00541741 0.00474661 0.00412828 0.00356241 0.003049 0.00258805 0.00217957 0.00181613 0.0014903 0.00120209 0.000951497 0.000738519 0.000563158 0.000425412 0.000325283 0.000249045 0.000182972 0.000127064 8.13208e-05 4.5743e-05 2.03302e-05 5.08255e-06 0 0 0.000281247 0.00112499 0.00253122 0.00449995 0.00703118 0.0101249 0.0137811 0.0179998 0.0227784 0.0281141 0.0340071 0.0404573 0.0474646 0.0550292 0.063151 0.07183 0.0807758 0.0896982 0.098597 0.107472 0.116324 0.125153 0.133958 0.142739 0.151279 0.159359 0.166979 0.17414 0.180841 0.187083 0.192865 0.198187 0.202992 0.207224 0.210883 0.213968 0.216479 0.218417 0.219781 0.220572 0.220848 0.220667 0.220029 0.218934 0.217383 0.215374 0.212909 0.209987 0.206715 0.203197 0.199434 0.195426 0.191172 0.186674 0.181931 0.176942 0.171808 0.166629 0.161405 0.156135 0.15082 0.14546 0.140054 0.134604 0.129174 0.123831 0.118576 0.113407 0.108326 0.103333 0.0984262 0.0936069 0.0889026 0.0843409 0.0799217 0.075645 0.0715109 0.0675194 0.0636705 0.0599641 0.0563991 0.0529745 0.0496901 0.0465461 0.0435423 0.0406788 0.0379557 0.0353728 0.0329158 0.0305701 0.0283357 0.0262127 0.024201 0.0223007 0.0205116 0.018834 0.0172527 0.0157531 0.0143352 0.0129988 0.011744 0.0105709 0.00947937 0.00846946 0.00753169 0.00665657 0.00584411 0.00509431 0.00440716 0.00378267 0.00322084 0.00272167 0.00227642 0.00187637 0.00152151 0.00121185 0.000947379 0.000728106 0.000554028 0.000425144 0.000325501 0.000239144 0.000166072 0.000106286 5.97859e-05 2.65715e-05 6.64288e-06 0 0 0.000333595 0.00133438 0.00300236 0.00533752 0.00833988 0.0120094 0.0163462 0.0213501 0.0270103 0.0333158 0.0402665 0.0478626 0.0561041 0.0649908 0.0745228 0.0847001 0.0951844 0.105637 0.116059 0.126448 0.136807 0.147134 0.157429 0.167694 0.177674 0.187118 0.196025 0.204397 0.212232 0.219531 0.226293 0.232519 0.238143 0.243099 0.247386 0.251004 0.253954 0.256236 0.257849 0.258794 0.259138 0.258949 0.258226 0.25697 0.255181 0.252859 0.250003 0.246614 0.242815 0.238727 0.234352 0.229689 0.224738 0.219499 0.213972 0.208158 0.202172 0.19613 0.190033 0.18388 0.177672 0.171408 0.165089 0.158714 0.152361 0.146108 0.139955 0.133901 0.127947 0.122093 0.116338 0.110682 0.10516 0.0998022 0.0946102 0.0895836 0.0847224 0.0800265 0.0754961 0.071131 0.0669306 0.0628942 0.0590216 0.055313 0.0517683 0.0483876 0.0451708 0.0421179 0.0392124 0.0364377 0.0337938 0.0312807 0.0288985 0.026647 0.0245264 0.0225366 0.0206603 0.0188802 0.0171963 0.0156087 0.0141173 0.0127221 0.0114231 0.0102203 0.00910253 0.00805857 0.0070884 0.00619203 0.00536946 0.00462068 0.0039457 0.00334452 0.00280701 0.00232304 0.00189262 0.00151575 0.00119241 0.000922629 0.000706388 0.000543692 0.000416264 0.000305827 0.00021238 0.000135923 7.64567e-05 3.39808e-05 8.49519e-06 0 0 0.000390855 0.00156342 0.0035177 0.00625368 0.00977138 0.0140708 0.0191519 0.0250147 0.0316378 0.0389995 0.0470999 0.055939 0.0655167 0.0758332 0.0868883 0.0986821 0.110825 0.122927 0.134988 0.147008 0.158987 0.170926 0.182823 0.19468 0.206207 0.217116 0.227407 0.237079 0.246132 0.254568 0.262385 0.269583 0.276088 0.281822 0.286787 0.290981 0.294406 0.29706 0.298945 0.300059 0.300481 0.300288 0.299479 0.298055 0.296016 0.293362 0.290092 0.286206 0.281846 0.277152 0.272124 0.266762 0.261066 0.255036 0.248671 0.241973 0.235074 0.228108 0.221075 0.213976 0.206809 0.199575 0.192274 0.184906 0.177561 0.170328 0.163208 0.1562 0.149305 0.142522 0.135851 0.129293 0.122886 0.116669 0.110641 0.104803 0.0991545 0.0936957 0.0884265 0.083347 0.0784569 0.0737561 0.0692446 0.0649225 0.0607896 0.056846 0.0530918 0.0495268 0.0461325 0.04289 0.0397994 0.0368606 0.0340738 0.0314388 0.0289557 0.0266245 0.0244252 0.0223381 0.020363 0.0185 0.0167491 0.0151103 0.0135835 0.0121689 0.0108532 0.00962341 0.00847949 0.00742146 0.0064493 0.00556303 0.00476264 0.00404813 0.00340789 0.00283033 0.00231543 0.00186319 0.00147363 0.00114673 0.000882493 0.000680928 0.000521335 0.000383022 0.000265987 0.000170232 9.57554e-05 4.2558e-05 1.06395e-05 0 0 0.000453027 0.00181211 0.00407725 0.00724844 0.0113257 0.016309 0.0221983 0.0289937 0.0366609 0.0451653 0.0545071 0.0646862 0.0757026 0.0875564 0.100248 0.113776 0.127697 0.141567 0.155385 0.169151 0.182865 0.196528 0.210139 0.223699 0.23688 0.249354 0.261123 0.272186 0.282543 0.292194 0.301139 0.309378 0.316825 0.323394 0.329085 0.333898 0.337833 0.340889 0.343067 0.344368 0.344877 0.344684 0.343788 0.342189 0.339887 0.336882 0.333174 0.328764 0.32381 0.318472 0.312751 0.306645 0.300157 0.293284 0.286028 0.278388 0.270516 0.262564 0.254533 0.246422 0.238231 0.22996 0.22161 0.21318 0.204772 0.196491 0.188335 0.180304 0.1724 0.164621 0.156967 0.14944 0.142083 0.134941 0.128014 0.121303 0.114807 0.108527 0.102462 0.0966119 0.0909779 0.0855603 0.0803592 0.0753744 0.0706061 0.0660542 0.0617187 0.0575996 0.053676 0.0499269 0.0463523 0.0429523 0.0397269 0.0366759 0.0337995 0.0310976 0.0285476 0.0261268 0.0238352 0.0216728 0.0196396 0.0177356 0.0159608 0.0143152 0.0127837 0.0113511 0.0100174 0.00878258 0.00764669 0.00660971 0.00567165 0.00483249 0.00407908 0.00339822 0.00278992 0.00225419 0.00179101 0.0014004 0.00108234 0.00083685 0.000640713 0.000470728 0.000326894 0.000209212 0.000117682 5.23031e-05 1.30758e-05 0 0 0.000520111 0.00208045 0.004681 0.00832178 0.0130028 0.018724 0.0254855 0.0332871 0.0420795 0.0518132 0.0624881 0.0741043 0.0866618 0.10016 0.1146 0.129982 0.145802 0.161557 0.177249 0.192877 0.208441 0.223941 0.239378 0.25475 0.26969 0.283832 0.297175 0.309719 0.321464 0.33241 0.342557 0.351905 0.360357 0.367816 0.374282 0.379755 0.384235 0.387723 0.390217 0.391719 0.392326 0.392137 0.391152 0.389371 0.386794 0.383421 0.379252 0.374286 0.368705 0.362686 0.356231 0.349339 0.34201 0.334244 0.326041 0.317402 0.308497 0.299498 0.290405 0.281219 0.271939 0.262564 0.253096 0.243534 0.233995 0.224595 0.215335 0.206214 0.197232 0.188389 0.179686 0.171122 0.162749 0.154618 0.14673 0.139084 0.131681 0.12452 0.117602 0.110926 0.104494 0.0983068 0.0923652 0.0866689 0.0812178 0.076012 0.0710515 0.0663362 0.061843 0.0575485 0.0534528 0.0495559 0.0458578 0.0423584 0.0390578 0.035956 0.0330274 0.0302464 0.0276129 0.025127 0.0227887 0.020598 0.0185549 0.0166593 0.014894 0.0132416 0.011702 0.0102754 0.00896162 0.00776073 0.00667273 0.00569761 0.00482055 0.00402672 0.00331611 0.00268873 0.00214457 0.00168364 0.00130594 0.00101146 0.000774399 0.000568946 0.000395101 0.000252865 0.000142236 6.32162e-05 1.58041e-05 0 0 0.00059069 0.00236276 0.00531621 0.00945104 0.0147672 0.0212648 0.0289438 0.0378042 0.0477795 0.0588033 0.0708757 0.0839966 0.098166 0.113384 0.12965 0.146965 0.164766 0.182488 0.200133 0.2177 0.23519 0.252601 0.269935 0.287191 0.30396 0.319833 0.334811 0.348893 0.362079 0.37437 0.385765 0.396264 0.40576 0.414144 0.421416 0.427577 0.432626 0.436563 0.439389 0.441103 0.441815 0.441635 0.440562 0.438597 0.43574 0.43199 0.427349 0.421814 0.415588 0.408869 0.401659 0.393956 0.38576 0.377073 0.367893 0.358222 0.348249 0.338168 0.327977 0.317678 0.307269 0.296751 0.286124 0.275388 0.264674 0.254112 0.243704 0.233448 0.223345 0.213395 0.203598 0.193953 0.18452 0.175357 0.166465 0.157843 0.14949 0.141408 0.133597 0.126055 0.118786 0.111792 0.105074 0.0986303 0.092462 0.0865689 0.0809509 0.0756081 0.0705149 0.0656458 0.0610008 0.0565798 0.052383 0.0484103 0.0446616 0.0411371 0.037808 0.0346458 0.0316504 0.0288219 0.0261602 0.0236654 0.0213375 0.0191764 0.0171625 0.0152762 0.0135174 0.0118862 0.0103826 0.00900644 0.00775789 0.00663688 0.00562692 0.00471149 0.00389059 0.00316421 0.00253236 0.00199504 0.00155225 0.00120399 0.000921805 0.000677245 0.000470309 0.000300998 0.000169311 7.52494e-05 1.88124e-05 0 0 0.000663345 0.00265338 0.00597011 0.0106135 0.0165836 0.0238804 0.0325039 0.0424541 0.0536462 0.0659956 0.0795022 0.0941661 0.109987 0.126965 0.145101 0.164394 0.184218 0.20395 0.223588 0.243133 0.262584 0.281943 0.301208 0.320379 0.339007 0.35664 0.373279 0.388924 0.403574 0.41723 0.429892 0.441559 0.452113 0.461435 0.469527 0.476386 0.482014 0.486411 0.489575 0.491509 0.492332 0.492165 0.491009 0.488864 0.485729 0.481605 0.476491 0.470388 0.463516 0.456096 0.448127 0.439609 0.430543 0.420929 0.410766 0.400055 0.389007 0.377833 0.366534 0.35511 0.34356 0.331885 0.320084 0.308158 0.296252 0.284512 0.272937 0.261528 0.250284 0.239206 0.228294 0.217547 0.207032 0.196815 0.186896 0.177274 0.16795 0.158924 0.150196 0.141766 0.133637 0.125814 0.118296 0.111083 0.104176 0.0975741 0.0912776 0.0852866 0.0795732 0.0741098 0.0688963 0.0639327 0.0592192 0.0547555 0.0505419 0.0465782 0.0428328 0.039274 0.035902 0.0327166 0.0297178 0.0269058 0.0242804 0.0218416 0.0195676 0.0174362 0.0154474 0.0136014 0.011898 0.0103372 0.00891912 0.0076437 0.00649278 0.0054482 0.00450994 0.00367802 0.00295244 0.00233318 0.00182026 0.00141368 0.00108235 0.000795194 0.000552218 0.00035342 0.000198799 8.83549e-05 2.20887e-05 0 0 0.000738078 0.00295231 0.0066427 0.0118092 0.0184519 0.0265708 0.0361658 0.047237 0.0596799 0.0733902 0.0883678 0.104613 0.122125 0.140905 0.160952 0.182266 0.204159 0.225942 0.247614 0.269175 0.290626 0.311966 0.333196 0.354316 0.374832 0.394254 0.41258 0.429812 0.445949 0.46099 0.474937 0.487788 0.499416 0.509691 0.518614 0.526184 0.532401 0.537266 0.540778 0.542937 0.543877 0.543729 0.542494 0.540171 0.536761 0.532264 0.526679 0.520007 0.512489 0.504365 0.495635 0.4863 0.476359 0.465812 0.454659 0.442901 0.430768 0.418493 0.406075 0.393514 0.380811 0.367965 0.354976 0.341844 0.32873 0.315793 0.303034 0.290453 0.278049 0.265823 0.253775 0.241904 0.230285 0.218991 0.208022 0.197379 0.187061 0.177068 0.167401 0.158058 0.149047 0.140371 0.132031 0.124027 0.11636 0.109028 0.102032 0.0953718 0.0890179 0.0829404 0.0771393 0.0716146 0.0663662 0.0613942 0.0566986 0.0522793 0.0481018 0.0441312 0.0403676 0.0368111 0.0334616 0.0303191 0.0273836 0.0246551 0.0221092 0.0197215 0.0174921 0.0154208 0.0135078 0.011753 0.0101564 0.00871807 0.00741814 0.00623684 0.00517419 0.00423017 0.0034048 0.00269807 0.00210997 0.00164052 0.00125603 0.000922794 0.000640829 0.000410131 0.000230699 0.000102533 2.56332e-05 0 0 0.000814887 0.00325955 0.00733398 0.0130382 0.0203722 0.0293359 0.0399295 0.0521528 0.0658804 0.080987 0.0974725 0.115337 0.13458 0.155202 0.177204 0.200584 0.224589 0.248464 0.27221 0.295827 0.319314 0.342672 0.365901 0.389 0.411436 0.432674 0.452714 0.471557 0.489203 0.50565 0.520901 0.534953 0.54767 0.558911 0.568678 0.57697 0.583787 0.589129 0.592996 0.595388 0.59645 0.596325 0.595015 0.592518 0.588836 0.583967 0.577913 0.570672 0.562507 0.553677 0.544184 0.534027 0.523206 0.511721 0.499572 0.48676 0.473534 0.460148 0.446601 0.432892 0.419022 0.404991 0.390799 0.376446 0.362107 0.347956 0.333995 0.320223 0.30664 0.293245 0.28004 0.267024 0.254278 0.241885 0.229845 0.218157 0.206822 0.19584 0.18521 0.174933 0.165015 0.155464 0.14628 0.137463 0.129013 0.12093 0.113213 0.105864 0.098849 0.0921378 0.0857299 0.0796254 0.0738242 0.0683263 0.0631317 0.0582405 0.0536149 0.0492172 0.0450474 0.0411055 0.0373914 0.0339053 0.030647 0.0276167 0.0247873 0.0221322 0.0196513 0.0173446 0.0152121 0.0132539 0.0114698 0.00985999 0.00840298 0.00707742 0.00588331 0.00482065 0.00388944 0.00308969 0.00242138 0.00188452 0.00144284 0.00106004 0.000736142 0.000471131 0.000265011 0.000117783 2.94457e-05 0 0 0.000893773 0.00357509 0.00804396 0.0143004 0.0223443 0.0321758 0.0437949 0.0572015 0.0722478 0.088786 0.106816 0.126338 0.147352 0.169858 0.193856 0.219345 0.245506 0.271517 0.297378 0.323088 0.348649 0.37406 0.399321 0.424432 0.448817 0.4719 0.493681 0.514159 0.533336 0.551211 0.567783 0.583053 0.596874 0.609095 0.619719 0.628744 0.636171 0.641999 0.646229 0.648861 0.65005 0.649954 0.648573 0.645906 0.641954 0.636716 0.630192 0.622383 0.61357 0.604033 0.593774 0.582791 0.571086 0.558657 0.545506 0.531631 0.517305 0.502798 0.488111 0.473243 0.458194 0.442965 0.427555 0.411964 0.396383 0.381002 0.36582 0.350838 0.336056 0.321473 0.30709 0.292906 0.279012 0.265498 0.252364 0.239609 0.227234 0.215239 0.203624 0.192388 0.181542 0.171093 0.161043 0.151391 0.142136 0.13328 0.124822 0.116762 0.109067 0.101702 0.0946681 0.0879651 0.081593 0.0755517 0.0698413 0.0644618 0.0593723 0.0545321 0.0499413 0.0455997 0.0415074 0.0376645 0.0340708 0.0307264 0.027602 0.0246683 0.0219252 0.0193727 0.0170109 0.0148398 0.0128593 0.0110695 0.00944731 0.00796993 0.00663732 0.00544946 0.00440637 0.00350805 0.00275448 0.00214568 0.00164279 0.00120695 0.000838156 0.00053642 0.000301736 0.000134105 3.35263e-05 0 0 0.000974736 0.00389894 0.00877262 0.0155958 0.0243684 0.0350905 0.0477621 0.0623831 0.078782 0.0967873 0.116399 0.137617 0.160441 0.184872 0.210908 0.238552 0.266912 0.2951 0.323116 0.350959 0.378631 0.40613 0.433457 0.460612 0.486976 0.511932 0.53548 0.557618 0.578349 0.597671 0.615584 0.632089 0.647028 0.660244 0.671736 0.681506 0.689553 0.695877 0.700478 0.703356 0.704679 0.704617 0.703168 0.700334 0.696114 0.690508 0.683517 0.675139 0.665677 0.655432 0.644404 0.632592 0.619998 0.60662 0.59246 0.577516 0.56208 0.546443 0.530605 0.514566 0.498326 0.481885 0.465242 0.448399 0.43156 0.41493 0.39851 0.382299 0.366298 0.350506 0.334924 0.319551 0.304487 0.289829 0.275578 0.261734 0.248297 0.235267 0.222643 0.210426 0.198627 0.187258 0.176319 0.165809 0.155729 0.146079 0.136858 0.128067 0.119671 0.111633 0.103954 0.0966338 0.0896727 0.0830706 0.0768274 0.0709431 0.0653739 0.0600759 0.0550492 0.0502937 0.0458095 0.0415966 0.0376548 0.0339844 0.0305533 0.0273297 0.0243137 0.0215052 0.0189042 0.0165108 0.0143248 0.0123465 0.0105511 0.00891438 0.00743621 0.00611661 0.00495559 0.00395315 0.00310928 0.00242399 0.00185587 0.0013635 0.000946873 0.000605999 0.000340874 0.0001515 3.78749e-05 0 0 0.00105778 0.0042311 0.00951998 0.0169244 0.0264444 0.0380799 0.051831 0.0676976 0.0854831 0.104991 0.126221 0.149173 0.173847 0.200243 0.228362 0.258202 0.288806 0.319213 0.349425 0.37944 0.409259 0.438882 0.468309 0.49754 0.525914 0.552771 0.578111 0.601935 0.624241 0.645031 0.664303 0.682059 0.698132 0.712356 0.724731 0.735257 0.743934 0.750763 0.755742 0.758873 0.760336 0.760312 0.758801 0.755803 0.751318 0.745346 0.737887 0.728941 0.71883 0.707874 0.696074 0.68343 0.669942 0.65561 0.640434 0.624414 0.60786 0.591083 0.574084 0.556863 0.539418 0.521751 0.503862 0.48575 0.467635 0.44974 0.432063 0.414605 0.397366 0.380345 0.363543 0.346959 0.330702 0.314879 0.299489 0.284533 0.27001 0.255922 0.242267 0.229045 0.216271 0.203959 0.192109 0.18072 0.169792 0.159326 0.149322 0.139779 0.130661 0.12193 0.113587 0.105631 0.0980634 0.0908828 0.0840899 0.0776844 0.0716197 0.0658486 0.0603712 0.0551876 0.0502978 0.0457016 0.0413992 0.0373905 0.0336411 0.0301165 0.0268168 0.0237419 0.0208919 0.0182668 0.0158665 0.013691 0.0117144 0.00991076 0.00827998 0.00682209 0.00553709 0.00442499 0.00348578 0.00271946 0.00208209 0.0015297 0.00106229 0.000679866 0.000382425 0.000169967 4.24916e-05 0 0 0.00114289 0.00457157 0.010286 0.01