<?xml version="1.0"?> 
<VTKFile type="StructuredGrid" version="0.1"> 
<StructuredGrid WholeExtent="0 128 0 128 0 0"> 
<Piece Extent="0 128 0 128 0 0"> 
<PointData>
<DataArray type="Float32" Name="u" format="ascii" NumberOfComponents="1"> 
0 0 0 0 0 0 0 0 0 0 0 0 0 0 0 0 0 0 0 0 0 0 0 0 0 0 0 0 0 0 0 0 0 0 0 0 0 0 0 0 0 0 0 0 0 0 0 0 0 0 0 0 0 0 0 0 0 0 0 0 0 0 0 0 0 0 0 0 0 0 0 0 0 0 0 0 0 0 0 0 0 0 0 0 0 0 0 0 0 0 0 0 0 0 0 0 0 0 0 0 0 0 0 0 0 0 0 0 0 0 0 0 0 0 0 0 0 0 0 0 0 0 0 0 0 0 0 0 0 0 2.88817e-07 1.15527e-06 2.59935e-06 4.62107e-06 7.22043e-06 1.03974e-05 1.4152e-05 1.84843e-05 2.34779e-05 2.92166e-05 3.57004e-05 4.29293e-05 5.09033e-05 5.96224e-05 6.90866e-05 7.92958e-05 8.99806e-05 0.000100871 0.000111968 0.00012327 0.000134778 0.000146492 0.000158412 0.000170538 0.000182613 0.000194379 0.000205837 0.000216986 0.000227828 0.000238361 0.000248585 0.000258502 0.000267979 0.000276885 0.000285222 0.000292989 0.000300185 0.000306812 0.000312868 0.000318354 0.00032325 0.000327534 0.000331208 0.000334271 0.000336724 0.000338565 0.000339795 0.000340415 0.000340479 0.000340042 0.000339105 0.000337666 0.000335727 0.000333287 0.000330346 0.000326905 0.000323053 0.000318882 0.000314392 0.000309583 0.000304454 0.000299005 0.000293238 0.000287151 0.000280837 0.000274388 0.000267804 0.000261085 0.000254232 0.000247243 0.00024012 0.000232862 0.000225541 0.00021823 0.00021093 0.00020364 0.000196359 0.000189089 0.000181829 0.000174579 0.000167385 0.000160293 0.000153304 0.000146417 0.000139632 0.00013295 0.000126369 0.000119891 0.00011354 0.00010734 0.000101291 9.53942e-05 8.96481e-05 8.40534e-05 7.861e-05 7.33179e-05 6.81908e-05 6.32426e-05 5.84731e-05 5.38824e-05 4.94705e-05 4.52374e-05 4.11831e-05 3.73075e-05 3.3623e-05 3.01417e-05 2.68635e-05 2.37885e-05 2.09167e-05 1.82481e-05 1.57827e-05 1.35205e-05 1.14568e-05 9.587e-06 7.91102e-06 6.42891e-06 5.14065e-06 4.04625e-06 3.1457e-06 2.43902e-06 1.86737e-06 1.37195e-06 9.52742e-07 6.09755e-07 3.42987e-07 1.52439e-07 3.81097e-08 0 0 1.15527e-06 4.62107e-06 1.03974e-05 1.84843e-05 2.88817e-05 4.15897e-05 5.66081e-05 7.39372e-05 9.39117e-05 0.000116866 0.000142802 0.000171717 0.000203613 0.00023849 0.000276346 0.000317183 0.000359922 0.000403485 0.000447871 0.00049308 0.000539113 0.000585969 0.000633649 0.000682152 0.000730451 0.000777516 0.000823348 0.000867946 0.000911311 0.000953443 0.000994341 0.00103401 0.00107191 0.00110754 0.00114089 0.00117196 0.00120074 0.00122725 0.00125147 0.00127342 0.001293 0.00131014 0.00132483 0.00133709 0.00134689 0.00135426 0.00135918 0.00136166 0.00136192 0.00136017 0.00135642 0.00135066 0.00134291 0.00133315 0.00132139 0.00130762 0.00129221 0.00127553 0.00125757 0.00123833 0.00121781 0.00119602 0.00117295 0.0011486 0.00112335 0.00109755 0.00107122 0.00104434 0.00101693 0.000988973 0.000960479 0.000931446 0.000902164 0.000872922 0.00084372 0.000814558 0.000785437 0.000756356 0.000727316 0.000698316 0.00066954 0.000641174 0.000613216 0.000585668 0.000558529 0.000531798 0.000505477 0.000479565 0.00045416 0.00042936 0.000405166 0.000381577 0.000358593 0.000336214 0.00031444 0.000293272 0.000272763 0.00025297 0.000233892 0.00021553 0.000197882 0.00018095 0.000164732 0.00014923 0.000134492 0.000120567 0.000107454 9.51541e-05 8.3667e-05 7.29926e-05 6.3131e-05 5.40821e-05 4.58273e-05 3.8348e-05 3.16441e-05 2.57156e-05 2.05626e-05 1.6185e-05 1.25828e-05 9.75608e-06 7.4695e-06 5.48779e-06 3.81097e-06 2.43902e-06 1.37195e-06 6.09755e-07 1.52439e-07 0 0 2.59935e-06 1.03974e-05 2.33942e-05 4.15897e-05 6.49838e-05 9.35767e-05 0.000127368 0.000166359 0.000211301 0.00026295 0.000321304 0.000386364 0.00045813 0.000536602 0.000621779 0.000713662 0.000809825 0.000907841 0.00100771 0.00110943 0.001213 0.00131843 0.00142571 0.00153484 0.00164351 0.00174941 0.00185253 0.00195288 0.00205045 0.00214525 0.00223727 0.00232651 0.00241181 0.00249197 0.002567 0.0026369 0.00270167 0.00276131 0.00281581 0.00286519 0.00290925 0.00294781 0.00298087 0.00300844 0.00303051 0.00304708 0.00305816 0.00306374 0.00306431 0.00306038 0.00305194 0.003039 0.00302154 0.00299958 0.00297312 0.00294214 0.00290748 0.00286994 0.00282953 0.00278624 0.00274008 0.00269105 0.00263914 0.00258436 0.00252753 0.00246949 0.00241024 0.00234977 0.00228808 0.00222519 0.00216108 0.00209575 0.00202987 0.00196407 0.00189837 0.00183276 0.00176723 0.0017018 0.00163646 0.00157121 0.00150646 0.00144264 0.00137974 0.00131775 0.00125669 0.00119655 0.00113732 0.00107902 0.00102186 0.000966061 0.000911623 0.000858547 0.000806833 0.000756481 0.00070749 0.000659861 0.000613718 0.000569183 0.000526258 0.000484942 0.000445235 0.000407137 0.000370648 0.000335768 0.000302607 0.000271275 0.000241771 0.000214097 0.000188251 0.000164233 0.000142045 0.000121685 0.000103111 8.6283e-05 7.11992e-05 5.78602e-05 4.62658e-05 3.64162e-05 2.83113e-05 2.19512e-05 1.68064e-05 1.23475e-05 8.57468e-06 5.48779e-06 3.08688e-06 1.37195e-06 3.42987e-07 0 0 4.62107e-06 1.84843e-05 4.15897e-05 7.39372e-05 0.000115527 0.000166359 0.000226433 0.000295749 0.000375647 0.000467466 0.000571207 0.000686869 0.000814453 0.000953958 0.00110539 0.00126873 0.00143969 0.00161394 0.00179148 0.00197232 0.00215645 0.00234388 0.0025346 0.00272861 0.0029218 0.00311006 0.00329339 0.00347178 0.00364524 0.00381377 0.00397736 0.00413602 0.00428766 0.00443017 0.00456356 0.00468782 0.00480297 0.00490899 0.00500589 0.00509366 0.00517199 0.00524055 0.00529933 0.00534834 0.00538758 0.00541704 0.00543673 0.00544664 0.00544767 0.00544068 0.00542567 0.00540266 0.00537163 0.00533259 0.00528554 0.00523048 0.00516885 0.00510212 0.00503027 0.00495332 0.00487126 0.00478409 0.0046918 0.00459441 0.00449339 0.0043902 0.00428486 0.00417736 0.00406771 0.00395589 0.00384192 0.00372579 0.00360866 0.00349169 0.00337488 0.00325823 0.00314175 0.00302543 0.00290926 0.00279326 0.00267816 0.00256469 0.00245286 0.00234267 0.00223411 0.00212719 0.00202191 0.00191826 0.00181664 0.00171744 0.00162066 0.00152631 0.00143437 0.00134485 0.00125776 0.00117309 0.00109105 0.00101188 0.000935569 0.000862118 0.000791528 0.000723798 0.000658929 0.000596921 0.000537968 0.000482266 0.000429816 0.000380616 0.000334668 0.00029197 0.000252524 0.000216328 0.000183309 0.000153392 0.000126576 0.000102862 8.22504e-05 6.47399e-05 5.03313e-05 3.90243e-05 2.9878e-05 2.19512e-05 1.52439e-05 9.75608e-06 5.48779e-06 2.43902e-06 6.09755e-07 0 0 7.22043e-06 2.88817e-05 6.49838e-05 0.000115527 0.000180511 0.000259935 0.000353801 0.000462107 0.000586948 0.000730416 0.000892511 0.00107323 0.00127258 0.00149056 0.00172716 0.0019824 0.00224951 0.00252178 0.00279919 0.00308175 0.00336946 0.00366231 0.00396031 0.00426345 0.00456532 0.00485947 0.00514592 0.00542466 0.00569569 0.00595902 0.00621463 0.00646254 0.00669946 0.00692214 0.00713056 0.00732472 0.00750463 0.00767029 0.0078217 0.00795885 0.00808124 0.00818836 0.00828021 0.00835678 0.00841809 0.00846412 0.00849489 0.00851038 0.00851198 0.00850105 0.00847761 0.00844165 0.00839317 0.00833217 0.00825866 0.00817262 0.00807633 0.00797206 0.0078598 0.00773956 0.00761134 0.00747513 0.00733094 0.00717877 0.00702092 0.00685969 0.0066951 0.00652713 0.00635579 0.00618108 0.006003 0.00582154 0.00563852 0.00545576 0.00527325 0.00509099 0.00490898 0.00472723 0.00454572 0.00436447 0.00418462 0.00400733 0.0038326 0.00366042 0.0034908 0.00332374 0.00315923 0.00299728 0.0028385 0.0026835 0.00253229 0.00238485 0.0022412 0.00210134 0.00196525 0.00183295 0.00170477 0.00158106 0.00146183 0.00134706 0.00123676 0.00113093 0.00102958 0.000932689 0.000840575 0.000753541 0.000671587 0.000594713 0.000522918 0.000456204 0.000394568 0.000338013 0.000286421 0.000239675 0.000197776 0.000160723 0.000128516 0.000101156 7.86426e-05 6.09755e-05 4.66844e-05 3.42987e-05 2.38186e-05 1.52439e-05 8.57468e-06 3.81097e-06 9.52742e-07 0 0 1.03974e-05 4.15897e-05 9.35767e-05 0.000166359 0.000259935 0.000374307 0.000509473 0.000665435 0.000845205 0.0010518 0.00128522 0.00154546 0.00183252 0.00214641 0.00248712 0.00285465 0.0032393 0.00363136 0.00403084 0.00443772 0.00485202 0.00527372 0.00570284 0.00613937 0.00657406 0.00699764 0.00741013 0.00781151 0.0082018 0.00858098 0.00894907 0.00930606 0.00964723 0.00996788 0.010268 0.0105476 0.0108067 0.0110452 0.0112632 0.0114607 0.011637 0.0117912 0.0119235 0.0120338 0.012122 0.0121883 0.0122326 0.0122549 0.0122572 0.0122415 0.0122078 0.012156 0.0120862 0.0119983 0.0118925 0.0117686 0.0116299 0.0114798 0.0113181 0.011145 0.0109603 0.0107642 0.0105566 0.0103374 0.0101101 0.00987796 0.00964094 0.00939907 0.00915234 0.00890075 0.00864431 0.00838302 0.00811948 0.0078563 0.00759348 0.00733103 0.00706893 0.00680721 0.00654584 0.00628484 0.00602586 0.00577056 0.00551895 0.00527101 0.00502676 0.00478618 0.00454929 0.00431609 0.00408744 0.00386424 0.00364649 0.00343419 0.00322733 0.00302592 0.00282996 0.00263944 0.00245487 0.00227673 0.00210503 0.00193977 0.00178094 0.00162855 0.00148259 0.00134307 0.00121043 0.0010851 0.000967086 0.000856387 0.000753003 0.000656933 0.000568179 0.000486739 0.000412446 0.000345132 0.000284797 0.000231441 0.000185063 0.000145665 0.000113245 8.78047e-05 6.72255e-05 4.93902e-05 3.42987e-05 2.19512e-05 1.23475e-05 5.48779e-06 1.37195e-06 0 0 1.4152e-05 5.66081e-05 0.000127368 0.000226433 0.000353801 0.000509473 0.00069345 0.00090573 0.00115042 0.00143161 0.00174932 0.00210354 0.00249426 0.0029215 0.00338524 0.0038855 0.00440905 0.00494269 0.00548642 0.00604023 0.00660413 0.00717812 0.0077622 0.00835637 0.00894802 0.00952457 0.010086 0.0106323 0.0111636 0.0116797 0.0121807 0.0126666 0.013131 0.0135674 0.0139759 0.0143565 0.0147091 0.0150338 0.0153305 0.0155993 0.0158392 0.0160492 0.0162292 0.0163793 0.0164995 0.0165897 0.01665 0.0166803 0.0166835 0.0166621 0.0166161 0.0165456 0.0164506 0.0163311 0.016187 0.0160183 0.0158296 0.0156252 0.0154052 0.0151695 0.0149182 0.0146513 0.0143686 0.0140704 0.013761 0.013445 0.0131224 0.0127932 0.0124574 0.0121149 0.0117659 0.0114102 0.0110515 0.0106933 0.0103356 0.00997834 0.00962161 0.00926536 0.00890962 0.00855437 0.00820186 0.00785438 0.0075119 0.00717443 0.00684197 0.00651453 0.0061921 0.00587467 0.00556346 0.00525967 0.00496328 0.00467431 0.00439276 0.00411862 0.00385189 0.00359258 0.00334135 0.00309889 0.00286518 0.00264024 0.00242405 0.00221663 0.00201797 0.00182807 0.00164753 0.00147694 0.00131631 0.00116564 0.00102492 0.000894159 0.000773354 0.000662506 0.000561385 0.000469763 0.00038764 0.000315016 0.000251892 0.000198266 0.000154139 0.000119512 9.15014e-05 6.72255e-05 4.66844e-05 2.9878e-05 1.68064e-05 7.4695e-06 1.86737e-06 0 0 1.84843e-05 7.39372e-05 0.000166359 0.000295749 0.000462107 0.000665435 0.00090573 0.00118299 0.00150259 0.00186986 0.00228483 0.00274748 0.00325781 0.00381583 0.00442154 0.00507493 0.00575876 0.00645576 0.00716593 0.00788928 0.00862581 0.00937551 0.0101384 0.0109144 0.0116872 0.0124403 0.0131736 0.0138871 0.014581 0.0152551 0.0159095 0.0165441 0.0171506 0.0177207 0.0182542 0.0187513 0.0192119 0.019636 0.0200235 0.0203747 0.020688 0.0209622 0.0211973 0.0213934 0.0215503 0.0216682 0.0217469 0.0217866 0.0217907 0.0217627 0.0217027 0.0216106 0.0214865 0.0213304 0.0211422 0.0209219 0.0206754 0.0204085 0.0201211 0.0198133 0.019485 0.0191363 0.0187672 0.0183777 0.0179736 0.0175608 0.0171395 0.0167095 0.0162708 0.0158236 0.0153677 0.0149031 0.0144346 0.0139667 0.0134995 0.0130329 0.012567 0.0121017 0.0116371 0.011173 0.0107126 0.0102588 0.00981146 0.00937068 0.00893646 0.00850877 0.00808763 0.00767304 0.00726656 0.00686977 0.00648266 0.00610523 0.00573748 0.00537942 0.00503104 0.00469235 0.00436421 0.00404752 0.00374228 0.00344847 0.00316611 0.00289519 0.00263572 0.00238768 0.00215187 0.00192907 0.00171926 0.00152247 0.00133867 0.00116788 0.0010101 0.000865314 0.000733237 0.000613568 0.000506305 0.00041145 0.000329001 0.00025896 0.000201325 0.000156097 0.000119512 8.78047e-05 6.09755e-05 3.90243e-05 2.19512e-05 9.75608e-06 2.43902e-06 0 0 2.35074e-05 9.40297e-05 0.000211567 0.000376119 0.000587685 0.000846267 0.00115186 0.00150447 0.00191067 0.002377 0.00290348 0.0034901 0.00413687 0.00484378 0.00561083 0.00643803 0.00730358 0.00818567 0.00908432 0.00999951 0.0109312 0.0118795 0.0128444 0.0138258 0.0148029 0.0157552 0.0166825 0.0175849 0.0184624 0.0193149 0.0201425 0.0209451 0.0217122 0.0224332 0.0231082 0.023737 0.0243197 0.0248563 0.0253468 0.0257912 0.0261879 0.0265351 0.0268329 0.0270813 0.0272802 0.0274298 0.0275299 0.0275806 0.0275863 0.0275515 0.0274761 0.0273602 0.0272037 0.0270067 0.0267691 0.026491 0.0261797 0.0258425 0.0254794 0.0250904 0.0246756 0.0242348 0.0237682 0.0232757 0.0227648 0.0222429 0.02171 0.0211662 0.0206115 0.0200457 0.0194691 0.0188814 0.0182887 0.0176967 0.0171056 0.0165152 0.0159256 0.0153368 0.0147487 0.0141614 0.0135787 0.0130042 0.012438 0.01188 0.0113303 0.0107889 0.0102557 0.00973072 0.00921603 0.00871358 0.00822337 0.00774541 0.00727968 0.00682619 0.00638494 0.00595593 0.00554028 0.00513909 0.00475238 0.00438012 0.00402234 0.00367902 0.00335017 0.00303579 0.00273685 0.00245435 0.00218826 0.00193861 0.00170539 0.00148859 0.00128822 0.00110427 0.00093639 0.000784203 0.000647711 0.000526914 0.000421812 0.000332405 0.000258693 0.000200677 0.000153643 0.000112881 7.83893e-05 5.01692e-05 2.82201e-05 1.25423e-05 3.13557e-06 0 0 2.93346e-05 0.000117339 0.000264012 0.000469354 0.000733366 0.00105605 0.0014374 0.00187742 0.00238361 0.00296348 0.00361702 0.00434424 0.00514513 0.0060197 0.00696795 0.00798987 0.00905867 0.0101475 0.0112565 0.0123855 0.0135347 0.0147039 0.0158931 0.0171025 0.0183065 0.0194799 0.0206226 0.0217347 0.022816 0.0238667 0.0248867 0.025876 0.0268217 0.0277106 0.0285429 0.0293184 0.0300373 0.0306994 0.0313049 0.0318536 0.0323436 0.0327727 0.033141 0.0334484 0.0336949 0.0338806 0.0340054 0.0340694 0.0340779 0.0340364 0.0339449 0.0338034 0.0336119 0.0333704 0.0330789 0.0327374 0.0323548 0.0319403 0.0314937 0.0310152 0.0305047 0.0299621 0.0293876 0.028781 0.0281517 0.0275087 0.0268521 0.0261819 0.025498 0.0248005 0.0240894 0.0233647 0.0226336 0.0219033 0.021174 0.0204455 0.0197178 0.0189911 0.0182651 0.0175401 0.0168206 0.0161112 0.0154119 0.0147227 0.0140436 0.0133747 0.0127159 0.0120672 0.0114312 0.0108101 0.0102042 0.00961333 0.00903752 0.00847679 0.00793112 0.00740053 0.00688637 0.00639004 0.00591153 0.00545084 0.00500796 0.00458291 0.00417568 0.00378627 0.00341586 0.00306565 0.00273564 0.00242582 0.00213619 0.00186677 0.00161753 0.00138849 0.00117923 0.000989325 0.000818775 0.000667581 0.000535743 0.000423261 0.000330136 0.000256366 0.00019628 0.000144206 0.000100143 6.40915e-05 3.60515e-05 1.60229e-05 4.00572e-06 0 0 3.59659e-05 0.000143864 0.000323693 0.000575455 0.000899149 0.00129477 0.00176233 0.00230182 0.00292142 0.00362929 0.00442545 0.00530989 0.0062826 0.0073436 0.00849288 0.00973044 0.011024 0.0123414 0.0136825 0.0150474 0.016436 0.0178485 0.0192847 0.0207446 0.022198 0.0236144 0.0249939 0.0263364 0.027642 0.0289106 0.0301422 0.0313369 0.032479 0.0335528 0.0345583 0.0354956 0.0363646 0.0371653 0.0378977 0.0385618 0.0391551 0.039675 0.0401215 0.0404946 0.0407943 0.0410206 0.0411734 0.0412529 0.0412654 0.0412176 0.0411092 0.0409405 0.0407112 0.0404216 0.0400715 0.039661 0.0392008 0.0387019 0.0381641 0.0375876 0.0369723 0.0363182 0.0356253 0.0348936 0.0341342 0.0333582 0.0325656 0.0317563 0.0309304 0.0300879 0.0292287 0.0283529 0.0274693 0.0265866 0.0257047 0.0248238 0.0239437 0.0230646 0.0221864 0.021309 0.0204382 0.0195796 0.0187331 0.0178987 0.0170764 0.0162664 0.0154684 0.0146826 0.0139119 0.0131595 0.0124251 0.011709 0.011011 0.0103312 0.00966958 0.00902612 0.00840249 0.00780037 0.00721974 0.00666061 0.00612299 0.00560686 0.00511224 0.00463912 0.0041889 0.00376298 0.00336138 0.00298408 0.0026311 0.00230241 0.00199804 0.00171798 0.00146176 0.00122893 0.0010195 0.000833451 0.000670794 0.000531528 0.000415652 0.000323165 0.000247423 0.000181781 0.000126236 8.07913e-05 4.54451e-05 2.01978e-05 5.04946e-06 0 0 4.34013e-05 0.000173605 0.000390612 0.000694422 0.00108503 0.00156245 0.00212667 0.00277769 0.00352409 0.00437445 0.00532877 0.00638704 0.00754928 0.00881548 0.0101856 0.0116597 0.0131996 0.0147672 0.0163623 0.017985 0.0196354 0.0213134 0.023019 0.0247522 0.0264773 0.0281587 0.0297963 0.0313901 0.0329402 0.0344465 0.035909 0.0373277 0.0386842 0.0399598 0.0411546 0.0422685 0.0433016 0.0442538 0.0451253 0.0459158 0.0466225 0.047242 0.0477745 0.04822 0.0485784 0.0488497 0.049034 0.0491312 0.049149 0.0490949 0.048969 0.0487712 0.0485016 0.0481602 0.0477469 0.0472618 0.0467176 0.0461272 0.0454906 0.0448077 0.0440785 0.0433031 0.0424814 0.0416135 0.0407125 0.0397915 0.0388505 0.0378896 0.0369087 0.0359078 0.034887 0.0338462 0.0327958 0.0317464 0.0306978 0.0296501 0.0286033 0.0275574 0.0265124 0.0254683 0.0244317 0.0234095 0.0224016 0.021408 0.0204287 0.0194638 0.0185131 0.0175768 0.0166584 0.0157615 0.0148862 0.0140324 0.0132002 0.0123895 0.0116003 0.0108327 0.0100886 0.00937007 0.00867701 0.00800945 0.00736741 0.00675088 0.00615985 0.00559433 0.00505596 0.00454634 0.00406549 0.00361341 0.00319009 0.00279554 0.00242975 0.00209272 0.00178398 0.00150303 0.00124988 0.00102452 0.000826966 0.000657206 0.000515242 0.000401075 0.000307073 0.000225605 0.00015667 0.000100269 5.64011e-05 2.50672e-05 6.26679e-06 0 0 5.16408e-05 0.000206563 0.000464768 0.000826254 0.00129102 0.00185907 0.0025304 0.00330501 0.00419162 0.00519894 0.00632697 0.00757571 0.00894517 0.0104353 0.0120462 0.0137778 0.0155855 0.0174249 0.0192959 0.0211985 0.0231327 0.0250986 0.0270961 0.0291252 0.0311445 0.0331127 0.0350298 0.0368958 0.0387107 0.0404744 0.042187 0.0438485 0.0454372 0.0469316 0.0483316 0.0496372 0.0508484 0.0519652 0.0529876 0.0539157 0.0547456 0.0554737 0.0561 0.0566245 0.0570472 0.057368 0.057587 0.0577042 0.0577284 0.0576684 0.0575242 0.0572957 0.0569831 0.0565862 0.0561052 0.0555399 0.0549053 0.0542164 0.0534731 0.0526754 0.0518233 0.0509168 0.0499559 0.0489407 0.0478864 0.0468085 0.0457069 0.0445817 0.0434329 0.0422604 0.0410642 0.0398444 0.0386132 0.0373828 0.0361532 0.0349245 0.0336966 0.0324695 0.0312432 0.0300177 0.028801 0.0276009 0.0264175 0.0252507 0.0241005 0.022967 0.0218501 0.0207498 0.0196705 0.0186163 0.0175873 0.0165836 0.015605 0.0146516 0.0137233 0.0128203 0.0119448 0.0110991 0.0102833 0.00949736 0.00874123 0.00801495 0.00731851 0.00665193 0.00601704 0.00541573 0.00484798 0.0043138 0.00381318 0.00334613 0.00291264 0.00251273 0.00214588 0.00181161 0.00150992 0.0012408 0.00100426 0.000800294 0.000628906 0.000490094 0.000375228 0.000275678 0.000191443 0.000122524 6.89195e-05 3.06309e-05 7.65772e-06 0 0 6.06844e-05 0.000242738 0.00054616 0.000970951 0.00151711 0.00218464 0.00297354 0.0038838 0.00492402 0.00610278 0.00742007 0.0088759 0.0104703 0.0122032 0.0140746 0.0160846 0.0181817 0.0203146 0.0224833 0.0246878 0.026928 0.0292041 0.0315159 0.0338635 0.0361995 0.0384765 0.0406945 0.0428535 0.0449534 0.0469944 0.0489763 0.0508992 0.0527382 0.0544682 0.0560893 0.0576016 0.0590049 0.0602993 0.0614847 0.0625613 0.0635246 0.0643702 0.065098 0.0657082 0.0662007 0.0665755 0.0668326 0.066972 0.0670038 0.0669381 0.0667748 0.066514 0.0661556 0.0656997 0.0651462 0.0644952 0.0637639 0.0629693 0.0621116 0.0611907 0.0602066 0.0591593 0.0580488 0.0568751 0.055656 0.0544092 0.0531348 0.0518327 0.0505029 0.0491455 0.0477604 0.0463476 0.0449214 0.0434958 0.042071 0.0406469 0.0392235 0.0378008 0.0363788 0.0349575 0.0335461 0.0321538 0.0307807 0.0294267 0.0280917 0.0267759 0.0254792 0.0242017 0.0229482 0.0217239 0.0205286 0.0193625 0.0182254 0.0171175 0.0160387 0.0149889 0.013971 0.0129876 0.0120387 0.0111243 0.0102444 0.00939908 0.00858823 0.00781189 0.00707216 0.00637114 0.00570883 0.00508524 0.00450036 0.00395419 0.00344674 0.00297799 0.00254747 0.00215468 0.00179961 0.00148228 0.00120267 0.000960793 0.000756644 0.000590224 0.00045189 0.000332001 0.000230556 0.000147556 8.30002e-05 3.6889e-05 9.22225e-06 0 0 7.05321e-05 0.000282129 0.000634789 0.00112851 0.0017633 0.00253916 0.00345607 0.00451406 0.00572129 0.00708595 0.00860805 0.0102876 0.0121246 0.014119 0.0162708 0.0185801 0.0209881 0.0234363 0.0259245 0.0284529 0.0310213 0.0336299 0.0362786 0.0389673 0.0416424 0.0442501 0.0467903 0.0492631 0.0516685 0.0540064 0.0562768 0.0584799 0.060587 0.0625696 0.0644279 0.0661617 0.0677711 0.0692561 0.0706166 0.0718528 0.0729594 0.0739313 0.0747685 0.0754711 0.076039 0.0764722 0.0767707 0.0769346 0.0769752 0.076904 0.0767209 0.076426 0.0760192 0.0755006 0.0748701 0.0741278 0.0732933 0.0723861 0.0714062 0.0703537 0.0692285 0.0680306 0.06676 0.0654168 0.0640213 0.0625937 0.0611341 0.0596425 0.0581189 0.0565632 0.0549755 0.0533558 0.0517204 0.0500855 0.0484511 0.0468173 0.045184 0.0435513 0.0419191 0.0402875 0.038667 0.0370682 0.0354912 0.033936 0.0324025 0.0308907 0.0294007 0.0279324 0.0264916 0.0250842 0.02371 0.0223691 0.0210615 0.0197872 0.0185462 0.0173385 0.0161672 0.0150354 0.0139431 0.0128903 0.0118771 0.0109033 0.009969 0.00907422 0.0082213 0.00741258 0.00664806 0.00592775 0.00525164 0.00461973 0.00403202 0.00348852 0.00298875 0.00253223 0.00211897 0.00174896 0.0014222 0.0011387 0.000898456 0.000701463 0.000537058 0.000394573 0.000274009 0.000175366 9.86433e-05 4.38415e-05 1.09604e-05 0 0 8.11839e-05 0.000324736 0.000730655 0.00129894 0.0020296 0.00292262 0.00397801 0.00519577 0.00658342 0.00814847 0.00989093 0.0118108 0.0139081 0.0161827 0.0186348 0.0212643 0.0240048 0.0267899 0.0296195 0.0324938 0.0354126 0.038376 0.041384 0.0444366 0.0474732 0.0504335 0.0533173 0.0561248 0.0588558 0.0615104 0.0640886 0.0665905 0.0689836 0.0712359 0.0733472 0.0753176 0.0771471 0.0788356 0.0803833 0.08179 0.08305 0.0841571 0.0851115 0.0859131 0.0865619 0.087058 0.0874013 0.0875919 0.0876425 0.087566 0.0873624 0.0870317 0.0865739 0.0859889 0.0852769 0.0844377 0.0834936 0.0824666 0.0813568 0.0801643 0.0788889 0.0775307 0.0760897 0.0745658 0.0729822 0.0713619 0.0697049 0.0680111 0.0662807 0.0645135 0.0627096 0.060869 0.0590102 0.0571517 0.0552936 0.0534358 0.0515783 0.0497211 0.0478643 0.0460078 0.0441637 0.0423441 0.0405491 0.0387786 0.0370326 0.0353112 0.0336143 0.0319419 0.0303007 0.0286972 0.0271315 0.0256035 0.0241133 0.0226608 0.0212461 0.0198691 0.0185335 0.0172426 0.0159966 0.0147954 0.0136391 0.0125275 0.0114608 0.0104389 0.00946446 0.00854004 0.00766566 0.00684131 0.006067 0.00534274 0.00466851 0.00404431 0.00346972 0.00294427 0.00246798 0.00204084 0.00166286 0.00133402 0.00105434 0.000823813 0.000630732 0.000463395 0.000321802 0.000205953 0.000115849 5.14883e-05 1.28721e-05 0 0 9.24156e-05 0.000369662 0.00083174 0.00147865 0.00231039 0.00332696 0.00452836 0.0059146 0.00749229 0.00926809 0.011242 0.013414 0.0157841 0.0183523 0.0211185 0.0240829 0.0271709 0.030308 0.0334942 0.0367295 0.0400139 0.0433474 0.04673 0.0501617 0.0535751 0.0569027 0.0601446 0.0633008 0.0663712 0.0693558 0.0722547 0.0750678 0.0777591 0.0802923 0.0826674 0.0848845 0.0869436 0.0888446 0.0905875 0.0921724 0.0935925 0.0948411 0.095918 0.0968233 0.0975571 0.0981193 0.09851 0.098729 0.0987907 0.0987095 0.0984851 0.0981178 0.0976074 0.096954 0.0961576 0.0952181 0.0941604 0.0930093 0.0917647 0.0904267 0.0889953 0.0874705 0.0858522 0.0841405 0.0823613 0.0805404 0.0786778 0.0767736 0.0748277 0.0728401 0.0708109 0.0687401 0.0666484 0.0645568 0.0624653 0.0603738 0.0582823 0.056191 0.0540996 0.0520084 0.0499308 0.0478807 0.0458579 0.0438626 0.0418946 0.0399541 0.0380409 0.0361551 0.0343043 0.0324958 0.0307297 0.029006 0.0273247 0.0256858 0.0240892 0.0225351 0.0210273 0.0195699 0.0181628 0.016806 0.0154997 0.0142436 0.013038 0.0118826 0.0107805 0.00973452 0.0087446 0.00781077 0.00693304 0.00611139 0.00534584 0.00463638 0.00398262 0.00338419 0.00284108 0.00235329 0.00192082 0.00154368 0.00122186 0.000955356 0.000731444 0.000537388 0.000373186 0.000238839 0.000134347 5.97098e-05 1.49274e-05 0 0 0.000104003 0.000416011 0.000936025 0.00166405 0.00260007 0.0037441 0.00509614 0.00665618 0.0084298 0.0104226 0.0126345 0.0150656 0.0177159 0.0205853 0.0236738 0.0269815 0.0304256 0.0339232 0.0374744 0.0410791 0.0447373 0.0484491 0.0522145 0.0560334 0.0598314 0.0635341 0.0671415 0.0706536 0.0740704 0.0773918 0.080618 0.0837488 0.0867443 0.0895643 0.0922088 0.0946778 0.0969714 0.0990895 0.101032 0.102799 0.104383 0.105777 0.106979 0.107991 0.108812 0.109442 0.109882 0.110131 0.110205 0.110119 0.109875 0.109471 0.108908 0.108185 0.107303 0.106262 0.10509 0.103812 0.102431 0.100945 0.0993553 0.0976609 0.0958623 0.0939593 0.0919808 0.0899556 0.0878835 0.0857647 0.0835992 0.0813869 0.0791278 0.076822 0.0744926 0.0721629 0.069833 0.0675028 0.0651724 0.0628416 0.0605106 0.0581793 0.055863 0.0535769 0.0513212 0.0490958 0.0469006 0.0447358 0.0426012 0.0404969 0.0384313 0.0364128 0.0344414 0.0325171 0.0306398 0.0288097 0.0270266 0.0252906 0.0236062 0.0219777 0.0204052 0.0188886 0.017428 0.0160234 0.0146747 0.013382 0.0121484 0.010977 0.00986787 0.00882097 0.0078363 0.00691387 0.00605367 0.00525572 0.00451971 0.00384536 0.00323267 0.00268165 0.00219229 0.00176459 0.00139855 0.00109418 0.000837729 0.000615474 0.000427413 0.000273544 0.000153869 6.8386e-05 1.70965e-05 0 0 0.000115946 0.000463783 0.00104351 0.00185513 0.00289864 0.00417405 0.00568134 0.00742053 0.00939595 0.0116119 0.0140685 0.0167657 0.0197034 0.0228817 0.0263006 0.0299601 0.0337688 0.0376355 0.04156 0.0455425 0.0495829 0.0536812 0.0578374 0.0620515 0.066242 0.0703275 0.0743079 0.0781832 0.0819534 0.0856185 0.0891785 0.0926335 0.0959393 0.0990519 0.101971 0.104698 0.107231 0.10957 0.111717 0.11367 0.115422 0.116964 0.118295 0.119416 0.120327 0.121027 0.121518 0.121798 0.121885 0.121796 0.121531 0.121091 0.120475 0.119683 0.118714 0.117571 0.116281 0.114876 0.113356 0.11172 0.109969 0.108102 0.10612 0.104022 0.101841 0.0996075 0.0973221 0.0949847 0.0925952 0.0901537 0.0876602 0.0851146 0.0825427 0.0799701 0.0773969 0.0748229 0.0722483 0.0696731 0.0670971 0.0645205 0.0619601 0.059433 0.056939 0.0544783 0.0520507 0.0496563 0.0472952 0.0449672 0.0426818 0.0404482 0.0382665 0.0361367 0.0340587 0.0320325 0.0300582 0.0281358 0.0262702 0.0244662 0.0227238 0.0210432 0.0194241 0.0178668 0.0163711 0.014937 0.013568 0.0122675 0.0110355 0.00987189 0.0087768 0.00775017 0.00679202 0.00590233 0.00508097 0.00432779 0.00364277 0.00302593 0.00247726 0.00199676 0.00158443 0.00124027 0.000949585 0.000697655 0.000484482 0.000310069 0.000174414 7.75172e-05 1.93793e-05 0 0 0.000128244 0.000512977 0.0011542 0.00205191 0.00320611 0.00461679 0.00628397 0.00820763 0.0103907 0.0128362 0.015544 0.0185142 0.0217468 0.0252417 0.028999 0.0330187 0.0372006 0.0414448 0.0457512 0.0501198 0.0545505 0.0590435 0.0635987 0.0682161 0.0728071 0.077283 0.0816438 0.0858895 0.0900202 0.0940358 0.0979363 0.101722 0.105344 0.108755 0.111955 0.114944 0.117721 0.120287 0.122642 0.124786 0.126709 0.128402 0.129865 0.131098 0.132101 0.132874 0.133417 0.133729 0.133831 0.133739 0.133455 0.132978 0.132308 0.131446 0.130391 0.129143 0.127735 0.1262 0.124539 0.122751 0.120836 0.118794 0.116625 0.114329 0.111941 0.109496 0.106994 0.104433 0.101816 0.0991407 0.0964081 0.0936181 0.0907988 0.0879783 0.0851568 0.0823341 0.0795103 0.0766853 0.0738592 0.071032 0.0682223 0.0654488 0.0627113 0.06001 0.0573448 0.0547158 0.0521229 0.0495661 0.0470557 0.044602 0.042205 0.0398648 0.0375812 0.0353543 0.0331841 0.0310707 0.0290192 0.0270353 0.0251187 0.0232697 0.021488 0.0197738 0.018127 0.0165477 0.0150394 0.013606 0.0122474 0.0109636 0.00975453 0.0086203 0.00756087 0.00657623 0.00566643 0.00483147 0.00407137 0.00338612 0.00277572 0.00224018 0.00177949 0.00139365 0.00106701 0.000783928 0.000544395 0.000348413 0.000195982 8.71031e-05 2.17758e-05 0 0 0.000140898 0.000563594 0.00126809 0.00225437 0.00352246 0.00507234 0.00690402 0.0090175 0.0114141 0.0140953 0.017061 0.0203112 0.0238459 0.0276652 0.031769 0.0361573 0.040721 0.0453512 0.0500478 0.0548109 0.0596403 0.0645362 0.0694985 0.0745272 0.0795265 0.0844005 0.0891493 0.0937727 0.0982709 0.102644 0.106891 0.111014 0.114959 0.118674 0.12216 0.125416 0.128443 0.13124 0.133808 0.136146 0.138245 0.140093 0.14169 0.143038 0.144135 0.144983 0.145579 0.145926 0.146043 0.145949 0.145646 0.145132 0.144409 0.143475 0.142332 0.140979 0.139451 0.137785 0.135981 0.134037 0.131956 0.129736 0.127377 0.12488 0.122283 0.119622 0.116898 0.114111 0.111261 0.108348 0.105372 0.102332 0.0992608 0.0961876 0.0931128 0.0900363 0.0869582 0.0838784 0.080797 0.0777139 0.0746496 0.0716243 0.0686381 0.065691 0.062783 0.0599141 0.0570842 0.0542935 0.051553 0.0488742 0.046257 0.0437014 0.0412074 0.038775 0.0364043 0.0340951 0.0318534 0.029685 0.0275899 0.0255681 0.0236196 0.0217444 0.0199425 0.018214 0.0165626 0.0149925 0.0135036 0.0120959 0.0107695 0.00952425 0.00836022 0.00727741 0.00627606 0.00535641 0.00451847 0.00376223 0.00308769 0.00249486 0.00198373 0.0015543 0.00119001 0.000874296 0.00060715 0.000388576 0.000218574 9.7144e-05 2.4286e-05 0 0 0.000153908 0.000615633 0.00138517 0.00246253 0.0038477 0.00554069 0.0075415 0.00985012 0.0124662 0.0153893 0.0186194 0.0221566 0.0260008 0.0301521 0.0346104 0.0393758 0.04433 0.0493547 0.05445 0.0596159 0.0648523 0.0701592 0.0755368 0.0809849 0.0864004 0.0916802 0.0968243 0.101833 0.106705 0.111442 0.116044 0.120509 0.124783 0.128808 0.132586 0.136115 0.139396 0.142429 0.145214 0.147751 0.150028 0.152034 0.15377 0.155235 0.156429 0.157353 0.158006 0.158387 0.15852 0.158425 0.158103 0.157553 0.156776 0.155771 0.154539 0.153079 0.15143 0.14963 0.147681 0.14558 0.14333 0.140929 0.138377 0.135676 0.132864 0.129984 0.127035 0.124017 0.12093 0.117775 0.114551 0.111257 0.107929 0.104598 0.101265 0.0979295 0.094592 0.0912523 0.0879103 0.0845661 0.0812418 0.0779596 0.0747195 0.0715213 0.0683653 0.0652513 0.0621793 0.0591494 0.0561738 0.0532648 0.0504224 0.0476466 0.0449373 0.0422947 0.0397187 0.0372092 0.0347727 0.0324154 0.0301373 0.0279385 0.025819 0.0237787 0.0218177 0.0199359 0.0181376 0.016427 0.0148042 0.0132691 0.0118217 0.010462 0.00919008 0.00800587 0.00690988 0.00590261 0.00498407 0.00415426 0.00341317 0.0027608 0.00219715 0.00172223 0.00131859 0.000968756 0.00067274