<?xml version="1.0"?> 
<VTKFile type="StructuredGrid" version="0.1"> 
<StructuredGrid WholeExtent="0 128 0 128 0 0"> 
<Piece Extent="0 128 0 128 0 0"> 
<PointData>
<DataArray type="Float32" Name="u" format="ascii" NumberOfComponents="1"> 
0 0 0 0 0 0 0 0 0 0 0 0 0 0 0 0 0 0 0 0 0 0 0 0 0 0 0 0 0 0 0 0 0 0 0 0 0 0 0 0 0 0 0 0 0 0 0 0 0 0 0 0 0 0 0 0 0 0 0 0 0 0 0 0 0 0 0 0 0 0 0 0 0 0 0 0 0 0 0 0 0 0 0 0 0 0 0 0 0 0 0 0 0 0 0 0 0 0 0 0 0 0 0 0 0 0 0 0 0 0 0 0 0 0 0 0 0 0 0 0 0 0 0 0 0 0 0 0 0 0 4.73646e-07 1.89458e-06 4.26281e-06 7.57833e-06 1.18411e-05 1.70513e-05 2.32086e-05 3.03133e-05 3.85053e-05 4.79246e-05 5.85713e-05 7.04452e-05 8.35464e-05 9.7875e-05 0.000113431 0.000130214 0.000147776 0.00016567 0.000183894 0.00020245 0.000221336 0.000240553 0.000260102 0.000279981 0.000299756 0.000318992 0.000337688 0.000355844 0.000373461 0.000390538 0.000407075 0.000423073 0.000438305 0.000452545 0.000465792 0.000478047 0.000489309 0.000499579 0.000508857 0.000517143 0.000524402 0.0005306 0.000535738 0.000539815 0.000542832 0.000544788 0.000545683 0.000545518 0.000544396 0.000542421 0.000539592 0.000535909 0.000531373 0.000525983 0.00051974 0.000512643 0.000504865 0.000496577 0.00048778 0.000478473 0.000468657 0.000458331 0.000447496 0.000436151 0.000424473 0.000412638 0.000400645 0.000388495 0.000376188 0.000363723 0.000351101 0.000338322 0.000325521 0.000312836 0.000300266 0.00028781 0.00027547 0.000263245 0.000251135 0.000239141 0.00022734 0.000215814 0.000204561 0.000193581 0.000182876 0.000172444 0.000162286 0.000152401 0.000142819 0.000133568 0.000124647 0.000116058 0.000107799 9.98706e-05 9.22733e-05 8.50069e-05 7.80685e-05 7.14554e-05 6.51675e-05 5.92049e-05 5.35676e-05 4.82555e-05 4.32687e-05 3.86071e-05 3.42549e-05 3.01961e-05 2.64308e-05 2.29589e-05 1.97804e-05 1.68954e-05 1.43038e-05 1.20057e-05 9.96217e-06 8.13446e-06 6.52255e-06 5.12644e-06 3.94614e-06 2.98163e-06 2.23292e-06 1.70002e-06 1.30158e-06 9.5626e-07 6.6407e-07 4.25005e-07 2.39065e-07 1.06251e-07 2.65628e-08 0 0 1.89458e-06 7.57833e-06 1.70513e-05 3.03133e-05 4.73646e-05 6.8205e-05 9.28346e-05 0.000121253 0.000154021 0.000191699 0.000234285 0.000281781 0.000334186 0.0003915 0.000453724 0.000520856 0.000591106 0.000662679 0.000735577 0.000809798 0.000885344 0.000962214 0.00104041 0.00111992 0.00119903 0.00127597 0.00135075 0.00142338 0.00149384 0.00156215 0.0016283 0.00169229 0.00175322 0.00181018 0.00186317 0.00191219 0.00195724 0.00199832 0.00203543 0.00206857 0.00209761 0.0021224 0.00214295 0.00215926 0.00217133 0.00217915 0.00218273 0.00218207 0.00217759 0.00216968 0.00215837 0.00214364 0.00212549 0.00210393 0.00207896 0.00205057 0.00201946 0.00198631 0.00195112 0.00191389 0.00187463 0.00183332 0.00178998 0.00174461 0.00169789 0.00165055 0.00160258 0.00155398 0.00150475 0.00145489 0.0014044 0.00135329 0.00130208 0.00125134 0.00120106 0.00115124 0.00110188 0.00105298 0.00100454 0.000956563 0.000909361 0.000863255 0.000818243 0.000774326 0.000731503 0.000689776 0.000649143 0.000609606 0.000571277 0.000534271 0.000498589 0.00046423 0.000431195 0.000399482 0.000369093 0.000340028 0.000312274 0.000285822 0.00026067 0.00023682 0.00021427 0.000193022 0.000173075 0.000154428 0.000137019 0.000120784 0.000105723 9.18354e-05 7.91216e-05 6.75816e-05 5.72153e-05 4.80227e-05 3.98487e-05 3.25379e-05 2.60902e-05 2.05058e-05 1.57845e-05 1.19265e-05 8.93169e-06 6.80007e-06 5.20631e-06 3.82504e-06 2.65628e-06 1.70002e-06 9.5626e-07 4.25005e-07 1.06251e-07 0 0 4.26281e-06 1.70513e-05 3.83653e-05 6.8205e-05 0.00010657 0.000153461 0.000208878 0.00027282 0.000346548 0.000431322 0.000527141 0.000634007 0.000751918 0.000880875 0.00102088 0.00117193 0.00132999 0.00149103 0.00165505 0.00182205 0.00199202 0.00216498 0.00234092 0.00251983 0.00269781 0.00287093 0.00303919 0.0032026 0.00336115 0.00351484 0.00366368 0.00380766 0.00394475 0.0040729 0.00419213 0.00430242 0.00440378 0.00449621 0.00457971 0.00465428 0.00471961 0.0047754 0.00482164 0.00485834 0.00488549 0.00490309 0.00491115 0.00490967 0.00489957 0.00488179 0.00485632 0.00482318 0.00478236 0.00473385 0.00467766 0.00461379 0.00454378 0.00446919 0.00439002 0.00430626 0.00421791 0.00412498 0.00402746 0.00392536 0.00382026 0.00371374 0.00360581 0.00349646 0.00338569 0.00327351 0.00315991 0.0030449 0.00292969 0.00281552 0.00270239 0.00259029 0.00247923 0.00236921 0.00226022 0.00215227 0.00204606 0.00194232 0.00184105 0.00174223 0.00164588 0.001552 0.00146057 0.00137161 0.00128537 0.00120211 0.00112183 0.00104452 0.000970188 0.000898835 0.00083046 0.000765062 0.000702617 0.000643098 0.000586508 0.000532844 0.000482108 0.000434299 0.000389418 0.000347464 0.000308294 0.000271765 0.000237877 0.00020663 0.000178024 0.000152059 0.000128734 0.000108051 8.96596e-05 7.32102e-05 5.8703e-05 4.6138e-05 3.55152e-05 2.68347e-05 2.00963e-05 1.53002e-05 1.17142e-05 8.60634e-06 5.97663e-06 3.82504e-06 2.15159e-06 9.5626e-07 2.39065e-07 0 0 7.57833e-06 3.03133e-05 6.8205e-05 0.000121253 0.000189458 0.00027282 0.000371338 0.000485013 0.000616085 0.000766794 0.00093714 0.00112712 0.00133674 0.001566 0.00181489 0.00208343 0.00236442 0.00265072 0.00294231 0.00323919 0.00354138 0.00384885 0.00416163 0.0044797 0.0047961 0.00510387 0.005403 0.00569351 0.00597537 0.00624861 0.00651321 0.00676917 0.00701288 0.00724072 0.00745267 0.00764875 0.00782895 0.00799327 0.00814172 0.00827428 0.00839043 0.0084896 0.00857181 0.00863704 0.00868531 0.00871661 0.00873094 0.00872829 0.00871034 0.00867873 0.00863347 0.00857454 0.00850196 0.00841573 0.00831584 0.00820229 0.00807784 0.00794523 0.00780448 0.00765557 0.00749851 0.0073333 0.00715994 0.00697842 0.00679157 0.00660221 0.00641032 0.00621592 0.006019 0.00581957 0.00561762 0.00541315 0.00520834 0.00500537 0.00480425 0.00460497 0.00440752 0.00421192 0.00401817 0.00382625 0.00363744 0.00345302 0.00327297 0.0030973 0.00292601 0.0027591 0.00259657 0.00243842 0.00228511 0.00213709 0.00199436 0.00185692 0.00172478 0.00159793 0.00147637 0.00136011 0.0012491 0.00114329 0.00104268 0.000947279 0.000857081 0.000772088 0.000692298 0.000617713 0.000548078 0.000483137 0.000422892 0.000367342 0.000316487 0.000270326 0.000228861 0.000192091 0.000159395 0.000130151 0.000104361 8.20231e-05 6.31382e-05 4.77061e-05 3.57268e-05 2.72003e-05 2.08252e-05 1.53002e-05 1.06251e-05 6.80007e-06 3.82504e-06 1.70002e-06 4.25005e-07 0 0 1.18411e-05 4.73646e-05 0.00010657 0.000189458 0.000296029 0.000426281 0.000580216 0.000757833 0.000962633 0.00119812 0.00146428 0.00176113 0.00208866 0.00244688 0.00283577 0.00325535 0.00369441 0.00414175 0.00459736 0.00506124 0.0055334 0.00601384 0.00650255 0.00699953 0.00749391 0.0079748 0.00844219 0.0088961 0.00933652 0.00976345 0.0101769 0.0105768 0.0109576 0.0113136 0.0116448 0.0119512 0.0122327 0.0124895 0.0127214 0.0129286 0.01311 0.013265 0.0133934 0.0134954 0.0135708 0.0136197 0.0136421 0.013638 0.0136099 0.0135605 0.0134898 0.0133977 0.0132843 0.0131496 0.0129935 0.0128161 0.0126216 0.0124144 0.0121945 0.0119618 0.0117164 0.0114583 0.0111874 0.0109038 0.0106118 0.0103159 0.0100161 0.00971238 0.0094047 0.00909308 0.00877753 0.00845804 0.00813803 0.0078209 0.00750664 0.00719526 0.00688676 0.00658113 0.00627839 0.00597852 0.00568351 0.00539534 0.00511402 0.00483954 0.0045719 0.0043111 0.00405715 0.00381003 0.00357048 0.0033392 0.00311618 0.00290144 0.00269497 0.00249676 0.00230683 0.00212517 0.00195171 0.00178638 0.00162919 0.00148012 0.00133919 0.00120639 0.00108172 0.000965177 0.000856372 0.000754902 0.000660769 0.000573972 0.00049451 0.000422385 0.000357595 0.000300142 0.000249054 0.000203362 0.000163064 0.000128161 9.86534e-05 7.45407e-05 5.58231e-05 4.25005e-05 3.25394e-05 2.39065e-05 1.66017e-05 1.06251e-05 5.97663e-06 2.65628e-06 6.6407e-07 0 0 1.70513e-05 6.8205e-05 0.000153461 0.00027282 0.000426281 0.000613845 0.000835511 0.00109128 0.00138619 0.00172529 0.00210857 0.00253603 0.00300767 0.0035235 0.00408351 0.00468771 0.00531995 0.00596411 0.00662019 0.00728819 0.0079681 0.00865992 0.00936367 0.0100793 0.0107912 0.0114837 0.0121568 0.0128104 0.0134446 0.0140594 0.0146547 0.0152306 0.015779 0.0162916 0.0167685 0.0172097 0.0176151 0.0179849 0.0183189 0.0186171 0.0188785 0.0191016 0.0192866 0.0194333 0.0195419 0.0196124 0.0196446 0.0196387 0.0195983 0.0195271 0.0194253 0.0192927 0.0191294 0.0189354 0.0187106 0.0184552 0.0181751 0.0178768 0.0175601 0.017225 0.0168716 0.0164999 0.0161099 0.0157014 0.015281 0.014855 0.0144232 0.0139858 0.0135428 0.013094 0.0126396 0.0121796 0.0117188 0.0112621 0.0108096 0.0103612 0.00991693 0.00947683 0.00904088 0.00860906 0.00818425 0.00776929 0.00736418 0.00696893 0.00658353 0.00620798 0.00584229 0.00548645 0.00514149 0.00480844 0.0044873 0.00417807 0.00388075 0.00359534 0.00332184 0.00306025 0.00281047 0.00257239 0.00234603 0.00213138 0.00192843 0.0017372 0.00155767 0.00138986 0.00123318 0.00108706 0.000951507 0.000826519 0.000712095 0.000608234 0.000514938 0.000432205 0.000358638 0.000292841 0.000234812 0.000184552 0.000142061 0.000107339 8.03852e-05 6.12007e-05 4.68568e-05 3.44254e-05 2.39065e-05 1.53002e-05 8.60634e-06 3.82504e-06 9.5626e-07 0 0 2.32086e-05 9.28346e-05 0.000208878 0.000371338 0.000580216 0.000835511 0.00113722 0.00148535 0.00188676 0.00234831 0.00286999 0.00345181 0.00409378 0.00479588 0.00555811 0.00638049 0.00724105 0.00811782 0.00901082 0.00992003 0.0108455 0.0117871 0.012745 0.0137191 0.0146881 0.0156306 0.0165467 0.0174364 0.0182996 0.0191364 0.0199467 0.0207306 0.021477 0.0221747 0.0228238 0.0234243 0.0239762 0.0244794 0.024934 0.02534 0.0256957 0.0259994 0.0262512 0.0264509 0.0265988 0.0266946 0.0267385 0.0267304 0.0266754 0.0265786 0.02644 0.0262595 0.0260373 0.0257732 0.0254673 0.0251195 0.0247384 0.0243323 0.0239012 0.0234452 0.0229642 0.0224582 0.0219273 0.0213714 0.0207992 0.0202193 0.0196316 0.0190363 0.0184332 0.0178224 0.017204 0.0165778 0.0159505 0.015329 0.014713 0.0141027 0.013498 0.012899 0.0123056 0.0117179 0.0111397 0.0105749 0.0100235 0.00948549 0.00896092 0.00844976 0.00795201 0.00746767 0.00699814 0.00654482 0.00610772 0.00568682 0.00528213 0.00489366 0.00452139 0.00416534 0.00382536 0.00350131 0.00319321 0.00290104 0.00262481 0.00236452 0.00212016 0.00189175 0.00167849 0.00147961 0.00129511 0.00112498 0.00096924 0.000827874 0.000700887 0.000588279 0.000488147 0.000398589 0.000319605 0.000251196 0.000193361 0.0001461 0.000109413 8.33009e-05 6.37773e-05 4.68568e-05 3.25394e-05 2.08252e-05 1.17142e-05 5.20631e-06 1.30158e-06 0 0 3.03133e-05 0.000121253 0.00027282 0.000485013 0.000757833 0.00109128 0.00148535 0.00194005 0.00246434 0.00306718 0.00374856 0.00450849 0.00534697 0.006264 0.00725958 0.0083337 0.00945769 0.0106029 0.0117692 0.0129568 0.0141655 0.0153954 0.0166465 0.0179188 0.0191844 0.0204155 0.021612 0.022774 0.0239015 0.0249944 0.0260528 0.0270767 0.0280515 0.0289629 0.0298107 0.030595 0.0313158 0.0319731 0.0325669 0.0330971 0.0335617 0.0339584 0.0342872 0.0345482 0.0347412 0.0348664 0.0349237 0.0349132 0.0348414 0.0347149 0.0345339 0.0342982 0.0340079 0.0336629 0.0332633 0.0328092 0.0323113 0.0317809 0.0312179 0.0306223 0.029994 0.0293332 0.0286397 0.0279137 0.0271663 0.0264088 0.0256413 0.0248637 0.024076 0.0232783 0.0224705 0.0216526 0.0208334 0.0200215 0.019217 0.0184199 0.0176301 0.0168477 0.0160727 0.015305 0.0145498 0.0138121 0.0130919 0.0123892 0.0117041 0.0110364 0.0103863 0.00975369 0.00914043 0.00854834 0.00797743 0.00742768 0.00689911 0.00639172 0.00590549 0.00544044 0.00499638 0.00457314 0.00417072 0.00378911 0.00342832 0.00308835 0.00276919 0.00247085 0.00219231 0.00193255 0.00169157 0.00146937 0.00126595 0.00108131 0.000915444 0.000768364 0.000637579 0.000520606 0.000417443 0.000328092 0.000252553 0.000190824 0.000142907 0.000108801 8.33009e-05 6.12007e-05 4.25005e-05 2.72003e-05 1.53002e-05 6.80007e-06 1.70002e-06 0 0 3.85565e-05 0.000154226 0.000347009 0.000616904 0.000963913 0.00138803 0.00188927 0.00246762 0.00313406 0.00389958 0.00476417 0.00572784 0.00679059 0.00795241 0.00921331 0.0105733 0.0119961 0.0134455 0.0149215 0.0164241 0.0179533 0.0195091 0.0210915 0.0227005 0.024301 0.0258579 0.027371 0.0288406 0.0302664 0.0316487 0.0329873 0.0342822 0.0355152 0.0366679 0.0377403 0.0387325 0.0396445 0.0404762 0.0412277 0.0418988 0.042487 0.0429893 0.0434059 0.0437366 0.0439815 0.0441406 0.0442139 0.0442014 0.0441114 0.0439523 0.0437241 0.0434268 0.0430604 0.0426249 0.0421203 0.0415466 0.0409177 0.0402474 0.0395359 0.0387831 0.037989 0.0371536 0.0362769 0.0353589 0.0344138 0.033456 0.0324853 0.0315018 0.0305056 0.0294965 0.0284746 0.0274399 0.0264034 0.0253762 0.0243582 0.0233495 0.02235 0.0213598 0.0203789 0.0194072 0.0184512 0.0175173 0.0166055 0.0157159 0.0148484 0.014003 0.0131797 0.0123785 0.0116018 0.0108518 0.0101286 0.00943214 0.00876247 0.00811957 0.00750344 0.00691406 0.00635124 0.00581474 0.00530457 0.00482072 0.0043632 0.00393201 0.00352714 0.0031486 0.0027951 0.00246533 0.00215931 0.00187703 0.0016185 0.00138371 0.00117266 0.000985357 0.000818673 0.000669486 0.000537797 0.000423605 0.000326911 0.000247714 0.000186015 0.000141813 0.000108576 7.97698e-05 5.53957e-05 3.54532e-05 1.99424e-05 8.86331e-06 2.21583e-06 0 0 4.81294e-05 0.000192518 0.000433165 0.000770071 0.00120324 0.00173266 0.00235834 0.00308028 0.00391105 0.00486319 0.00593673 0.00713164 0.00844795 0.00988564 0.0114447 0.0131252 0.0148824 0.016672 0.0184937 0.0203478 0.0222341 0.0241526 0.0261034 0.0280864 0.0300587 0.0319772 0.0338421 0.0356532 0.0374106 0.0391142 0.0407641 0.0423603 0.0438802 0.0453015 0.046624 0.0478477 0.0489727 0.049999 0.0509266 0.0517554 0.052482 0.053103 0.0536183 0.0540278 0.0543318 0.05453 0.0546225 0.0546094 0.0545008 0.054307 0.054028 0.0536637 0.0532142 0.0526794 0.0520595 0.0513542 0.0505809 0.0497565 0.048881 0.0479545 0.0469768 0.0459482 0.0448684 0.0437376 0.0425733 0.041393 0.0401967 0.0389844 0.0377561 0.0365119 0.0352516 0.0339754 0.0326968 0.0314295 0.0301733 0.0289284 0.0276948 0.0264724 0.0252612 0.0240613 0.0228806 0.021727 0.0206006 0.0195014 0.0184293 0.0173844 0.0163666 0.015376 0.0144155 0.0134879 0.0125933 0.0117317 0.010903 0.0101073 0.00934452 0.00861471 0.00791761 0.00725296 0.00662076 0.006021 0.00545368 0.00491882 0.00441639 0.00394642 0.00350729 0.0030974 0.00271675 0.00236535 0.00204319 0.00175027 0.00148659 0.00125215 0.00104317 0.000855826 0.000690137 0.000546098 0.00042371 0.000322972 0.000243885 0.000186448 0.000142749 0.000104877 7.28311e-05 4.66119e-05 2.62192e-05 1.1653e-05 2.91325e-06 0 0 5.9032e-05 0.000236128 0.000531288 0.000944512 0.0014758 0.00212515 0.00289257 0.00377805 0.0047953 0.00595802 0.00726622 0.0087199 0.0103191 0.0120637 0.0139538 0.0159894 0.0181167 0.0202823 0.0224859 0.0247277 0.0270077 0.0293258 0.031682 0.0340763 0.0364574 0.0387737 0.0410251 0.0432119 0.0453338 0.047391 0.0493834 0.051311 0.0531468 0.0548636 0.0564615 0.0579405 0.0593005 0.0605416 0.0616637 0.0626669 0.0635468 0.0642993 0.0649244 0.0654219 0.0657919 0.0660345 0.0661496 0.0661372 0.0660096 0.065779 0.0654454 0.0650087 0.0644691 0.0638265 0.0630808 0.0622322 0.0613011 0.0603081 0.0592531 0.0581363 0.0569576 0.0557169 0.0544144 0.0530499 0.0516447 0.0502199 0.0487755 0.0473114 0.0458278 0.0443245 0.0428017 0.0412592 0.0397136 0.0381813 0.0366624 0.0351567 0.0336644 0.0321854 0.0307197 0.0292673 0.0278379 0.0264411 0.025077 0.0237456 0.0224468 0.0211807 0.0199472 0.0187463 0.0175817 0.0164568 0.0153717 0.0143263 0.0133207 0.0123548 0.0114287 0.0105424 0.00969551 0.00888781 0.00811928 0.00738993 0.00669976 0.00604877 0.00543695 0.00486431 0.00432889 0.00382876 0.0033639 0.00293432 0.00254001 0.00218098 0.00185723 0.00156876 0.00131106 0.00107962 0.000874462 0.000695571 0.00054295 0.000416598 0.000316517 0.000242705 0.000185821 0.000136522 9.48068e-05 6.06764e-05 3.41305e-05 1.51691e-05 3.79227e-06 0 0 7.12643e-05 0.000285057 0.000641379 0.00114023 0.00178161 0.00256552 0.00349195 0.00456092 0.00578682 0.00718407 0.00875267 0.0104926 0.0124039 0.0144865 0.0167405 0.0191659 0.021699 0.0242764 0.0268981 0.029564 0.0322742 0.0350287 0.0378274 0.0406704 0.0434971 0.0462471 0.0489202 0.0515166 0.0540363 0.0564791 0.0588451 0.0611344 0.0633149 0.0653544 0.0672531 0.0690109 0.0706278 0.0721038 0.0734389 0.0746332 0.0756814 0.0765784 0.0773242 0.0779187 0.0783621 0.0786542 0.0787952 0.0787849 0.0786378 0.0783683 0.0779764 0.077462 0.0768252 0.076066 0.0751844 0.0741804 0.0730782 0.0719022 0.0706524 0.0693287 0.0679312 0.0664599 0.0649147 0.0632958 0.061628 0.0599367 0.0582216 0.0564829 0.0547205 0.0529344 0.0511247 0.0492913 0.0474538 0.0456318 0.0438253 0.0420343 0.0402588 0.0384988 0.0367542 0.0350252 0.0333232 0.0316597 0.0300349 0.0284486 0.0269009 0.0253918 0.0239213 0.0224894 0.0211003 0.0197584 0.0184636 0.017216 0.0160156 0.0148622 0.0137561 0.0126971 0.0116849 0.0107193 0.00980014 0.00892753 0.00810143 0.00732186 0.0065888 0.00590227 0.00525991 0.0046594 0.00410075 0.00358393 0.00310897 0.00267585 0.00228458 0.00193516 0.00162234 0.00134088 0.00109077 0.000872023 0.00068463 0.000528592 0.000403911 0.000310586 0.000237793 0.000174705 0.000121323 7.76466e-05 4.36762e-05 1.94116e-05 4.85291e-06 0 0 8.48264e-05 0.000339305 0.000763437 0.00135722 0.00212066 0.00305375 0.00415649 0.00542889 0.00688561 0.00854133 0.0103961 0.0124498 0.0147025 0.0171542 0.0198049 0.0226547 0.0256292 0.0286543 0.0317301 0.0348566 0.0380336 0.0412613 0.0445396 0.0478685 0.0511779 0.0543975 0.0575274 0.0605675 0.0635178 0.0663785 0.0691493 0.0718304 0.0743844 0.0767738 0.0789986 0.0810589 0.0829546 0.0846857 0.0862523 0.0876544 0.0888857 0.0899401 0.0908177 0.0915184 0.0920422 0.0923891 0.0925592 0.0925524 0.0923854 0.0920749 0.0916209 0.0910235 0.0902825 0.0893981 0.0883702 0.0871988 0.0859122 0.0845389 0.0830786 0.0815316 0.0798977 0.078177 0.0763695 0.0744752 0.0725233 0.0705433 0.0685351 0.0664988 0.0644342 0.0623415 0.0602207 0.0580717 0.0559174 0.053781 0.0516622 0.0495613 0.0474781 0.0454126 0.0433649 0.041335 0.0393364 0.0373827 0.0354741 0.0336104 0.0317916 0.0300178 0.028289 0.0266052 0.0249713 0.0233927 0.0218692 0.0204008 0.0189876 0.0176295 0.0163266 0.0150788 0.0138859 0.0127474 0.0116633 0.0106338 0.00965871 0.0087381 0.00787196 0.00706029 0.00630034 0.00558934 0.00492729 0.0043142 0.00375006 0.00323488 0.00276865 0.00235137 0.00197703 0.0016396 0.00133907 0.00107546 0.00084875 0.000658954 0.000506067 0.00039009 0.000298663 0.000219426 0.000152379 9.75225e-05 5.48564e-05 2.43806e-05 6.09516e-06 0 0 9.97181e-05 0.000398872 0.000897463 0.00159549 0.00249295 0.00358985 0.00488619 0.00638196 0.00809166 0.0100298 0.0121964 0.0145914 0.0172148 0.0200667 0.023147 0.0264558 0.0299073 0.0334161 0.0369822 0.0406054 0.0442859 0.0480236 0.0518186 0.0556707 0.0594997 0.0632249 0.0668465 0.0703644 0.0737786 0.0770891 0.0802959 0.0833991 0.0863554 0.0891217 0.0916981 0.0940845 0.0962809 0.0982874 0.100104 0.10173 0.10316 0.104385 0.105405 0.106221 0.106832 0.107239 0.107442 0.10744 0.107252 0.106899 0.106379 0.105693 0.104841 0.103823 0.102638 0.101287 0.0998032 0.0982181 0.096532 0.094745 0.0928571 0.0908684 0.0887787 0.0865881 0.0843305 0.0820398 0.079716 0.0773591 0.074969 0.0725459 0.0700896 0.0676003 0.0651044 0.0626287 0.060173 0.0577375 0.0553221 0.0529268 0.0505517 0.0481966 0.0458775 0.0436102 0.0413947 0.0392309 0.0371189 0.0350587 0.0330503 0.0310937 0.0291948 0.0273597 0.0255883 0.0238807 0.0222368 0.0206566 0.0191402 0.0176876 0.0162983 0.0149721 0.0137089 0.0125087 0.0113716 0.0102975 0.00928642 0.00833839 0.00745018 0.00661856 0.00584354 0.00512512 0.00446329 0.00385806 0.00330943 0.00281739 0.00237511 0.00197577 0.00161935 0.00130587 0.00103531 0.000807684 0.000622985 0.000481217 0.000368431 0.000270684 0.000187975 0.000120304 6.76711e-05 3.0076e-05 7.51901e-06 0 0 0.00011594 0.000463758 0.00104346 0.00185503 0.00289849 0.00417382 0.00568104 0.00742013 0.00940499 0.0116495 0.0141536 0.0169175 0.0199409 0.023224 0.0267668 0.0305692 0.0345334 0.0385618 0.0426541 0.0468106 0.0510311 0.0553157 0.0596644 0.0640771 0.0684625 0.0727294 0.0768777 0.0809074 0.0848185 0.088611 0.092285 0.0958403 0.0992278 0.102398 0.105352 0.108088 0.110607 0.112909 0.114994 0.116861 0.118503 0.119912 0.121086 0.122026 0.122732 0.123204 0.123443 0.123447 0.123239 0.12284 0.122251 0.121471 0.120501 0.11934 0.117988 0.116446 0.114751 0.11294 0.111012 0.108969 0.106809 0.104534 0.102142 0.0996346 0.0970496 0.0944262 0.0917643 0.0890638 0.0863249 0.0835475 0.0807316 0.0778772 0.0750148 0.072175 0.0693578 0.0665631 0.063791 0.0610415 0.0583146 0.0556102 0.0529467 0.0503421 0.0477967 0.0453102 0.0428829 0.0405145 0.0382052 0.035955 0.0337707 0.0316594 0.029621 0.0276556 0.0257631 0.0239436 0.022197 0.0205233 0.0189223 0.0173934 0.0159367 0.0145523 0.01324 0.012 0.0108322 0.00973656 0.00870943 0.00774707 0.00684949 0.00601668 0.00524865 0.0045454 0.00390691 0.00333321 0.0028166 0.0023494 0.00193162 0.00156326 0.00124431 0.000974781 0.000754666 0.000583966 0.000447099 0.000328481 0.000228112 0.000145992 8.21203e-05 3.64979e-05 9.12447e-06 0 0 0.000133491 0.000533963 0.00120142 0.00213585 0.00333727 0.00480566 0.00654104 0.0085434 0.0108256 0.0134004 0.0162679 0.019428 0.0228807 0.0266261 0.0306642 0.0349949 0.0395075 0.0440912 0.0487461 0.0534721 0.0582692 0.0631375 0.0680769 0.0730875 0.0780664 0.0829109 0.0876209 0.0921964 0.0966376 0.100944 0.105116 0.109154 0.113002 0.116603 0.119959 0.123069 0.125932 0.12855 0.130921 0.133047 0.134917 0.136522 0.137861 0.138934 0.139742 0.140285 0.140562 0.140574 0.140344 0.139899 0.139236 0.138357 0.137262 0.13595 0.134421 0.132676 0.130756 0.128704 0.12652 0.124203 0.121755 0.119174 0.11646 0.113615 0.110681 0.107702 0.10468 0.101613 0.0985018 0.0953463 0.0921465 0.0889023 0.0856486 0.0824199 0.0792164 0.076038 0.0728847 0.0697566 0.0666536 0.0635757 0.0605437 0.0575785 0.05468 0.0518483 0.0490834 0.0463852 0.0437537 0.041189 0.038699 0.0362918 0.0339674 0.0317256 0.0295666 0.0274904 0.0254969 0.0235861 0.0217578 0.0200114 0.018347 0.0167645 0.0152641 0.0138457 0.0125092 0.0112548 0.0100781 0.00897487 0.00794514 0.0069889 0.00610615 0.00529689 0.00456111 0.00389883 0.00330148 0.00276049 0.00227588 0.00184763 0.00147575 0.00116025 0.000901108 0.000698339 0.000534666 0.000392816 0.000272789 0.000174585 9.82039e-05 4.36462e-05 1.09115e-05 0 0 0.000152011 0.000608046 0.0013681 0.00243218 0.00380029 0.00547241 0.00744856 0.00972873 0.0123243 0.0152468 0.0184961 0.0220723 0.0259754 0.0302053 0.034762 0.0396456 0.0447318 0.0498962 0.0551389 0.0604599 0.0658591 0.0713366 0.0768923 0.0825263 0.088124 0.0935706 0.0988662 0.104011 0.109004 0.113847 0.118539 0.123079 0.127407 0.131458 0.135233 0.138732 0.141955 0.144902 0.147573 0.149968 0.152076 0.153886 0.155398 0.156611 0.157526 0.158143 0.158462 0.158483 0.158232 0.157738 0.157001 0.156019 0.154794 0.153326 0.151613 0.149657 0.147505 0.145203 0.142752 0.140152 0.137402 0.134504 0.131455 0.128258 0.124961 0.121613 0.118215 0.114766 0.111267 0.107718 0.104117 0.100467 0.0968047 0.0931704 0.0895637 0.0859848 0.0824336 0.07891 0.0754141 0.071946 0.068529 0.0651868 0.0619193 0.0587265 0.0556085 0.0525652 0.0495966 0.0467028 0.0438927 0.0411756 0.0385515 0.0360203 0.033582 0.0312366 0.0289842 0.0268247 0.0247577 0.0227829 0.0209003 0.0191099 0.0174117 0.0158056 0.0142917 0.01287 0.0115356 0.0102838 0.00911457 0.00802788 0.00702376 0.0061022 0.00526319 0.00450675 0.00382342 0.00320377 0.00264779 0.00215549 0.00172686 0.00136191 0.00106064 0.000823041 0.000630141 0.000462961 0.0003215 0.00020576 0.00011574 5.14401e-05 1.286e-05 0 0 0.000171142 0.000684568 0.00154028 0.00273827 0.00427855 0.00616111 0.00838596 0.0109531 0.0138722 0.0171531 0.0207956 0.0247999 0.0291658 0.0338935 0.0389829 0.0444341 0.0501086 0.0558685 0.0617136 0.0676439 0.0736595 0.0797604 0.0859465 0.0922178 0.0984478 0.10451 0.110404 0.11613 0.121688 0.127078 0.1323 0.137355 0.142171 0.146682 0.150886 0.154783 0.158373 0.161657 0.164635 0.167306 0.169657 0.171677 0.173366 0.174723 0.175749 0.176443 0.176805 0.176836 0.176566 0.176024 0.175211 0.174126 0.17277 0.171143 0.169244 0.167074 0.164685 0.162129 0.159407 0.156518 0.153462 0.15024 0.146851 0.143295 0.139628 0.135903 0.132122 0.128283 0.124388 0.120436 0.116427 0.112361 0.108282 0.104233 0.100215 0.096226 0.0922677 0.0883396 0.0844417 0.080574 0.0767629 0.0730345 0.0693889 0.0658262 0.0623462 0.0589491 0.0556347 0.0524032 0.0492647 0.0462295 0.0432976 0.040469 0.0377437 0.0351217 0.032603 0.0301876 0.0278751 0.0256651 0.0235577 0.0215529 0.0196506 0.0178508 0.0161536 0.0145589 0.0130614 0.0116557 0.0103418 0.00911976 0.00798947 0.006951 0.00600432 0.00514945 0.00437608 0.00367395 0.00304303 0.00248334 0.00199486 0.00157761 0.00123158 0.000956779 0.000732534 0.000538188 0.000373742 0.000239195 0.000134547 5.97987e-05 1.49497e-05 0 0 0.000190882 0.000763528 0.00171794 0.00305411 0.00477205 0.00687175 0.00935322 0.0122165 0.0154692 0.0191191 0.0231663 0.0276106 0.0324522 0.037691 0.043327 0.0493602 0.0556381 0.062008 0.0684701 0.0750243 0.0816706 0.0884089 0.0952394 0.102162 0.109038 0.115729 0.122234 0.128554 0.134688 0.140637 0.146401 0.15198 0.157297 0.162276 0.166917 0.171221 0.175187 0.178815 0.182106 0.185059 0.18766 0.189896 0.191766 0.193271 0.19441 0.195183 0.195592 0.195634 0.195344 0.194755 0.193866 0.192677 0.191188 0.1894 0.187313 0.184926 0.182297 0.179483 0.176485 0.173302 0.169935 0.166383 0.162646 0.158725 0.15468 0.150572 0.1464 0.142164 0.137865 0.133503 0.129076 0.124587 0.120081 0.115609 0.111169 0.106762 0.102387 0.0980454 0.0937363 0.0894598 0.0852452 0.0811216 0.0770889 0.0731473 0.0692966 0.0655368 0.0618681 0.0582903 0.054815 0.0514535 0.0482058 0.0450719 0.0420519 0.0391457 0.0363534 0.0336749 0.0311099 0.028658 0.0263192 0.0240934 0.0219808 0.0199813 0.018095 0.0163217 0.0146555 0.0130906 0.011627 0.0102645 0.00900329 0.00784328 0.00678449 0.00582692 0.00495947 0.00417103 0.0034616 0.00283117 0.00227975 0.00180735 0.00141394 0.00109955 0.000841845 0.000618498 0.000429513 0.000274888 0.000154625 6.8722e-05 1.71805e-05 0 0 0.000211232 0.000844927 0.00190109 0.00337971 0.00528079 0.00760434 0.0103504 0.0135188 0.0171152 0.021145 0.0256081 0.0305046 0.0358344 0.0415976 0.0477941 0.0544241 0.0613201 0.0683149 0.0754085 0.0826009 0.0898922 0.0972823 0.104771 0.112359 0.119894 0.127227 0.134356 0.141282 0.148005 0.154525 0.160841 0.166955 0.172782 0.178239 0.183328 0.188047 0.192396 0.196376 0.199987 0.203228 0.206084 0.208541 0.210597 0.212253 0.213509 0.214365 0.214821 0.214876 0.214568 0.213931 0.212966 0.211672 0.21005 0.208099 0.20582 0.203212 0.200339 0.197263 0.193985 0.190503 0.186819 0.182932 0.178842 0.174549 0.17012 0.16562 0.16105 0.156409 0.151698 0.146916 0.142064 0.137142 0.132202 0.127297 0.122427 0.117592 0.112792 0.108027 0.103298 0.0986034 0.0939761 0.0894481 0.0850193 0.0806898 0.0764595 0.0723285 0.0682967 0.0643642 0.0605435 0.0568474 0.0532759 0.0498289 0.0465065 0.0433087 0.0402354 0.0372866 0.0344621 0.0317614 0.0291846 0.0267316 0.0244025 0.0221972 0.0201158 0.0181582 0.016318 0.0145886 0.01297 0.0114622 0.0100652 0.00877904 0.00760371 0.00653918 0.00557359 0.00469502 0.00390349 0.003199 0.00258154 0.00205111 0.00160772 0.00125136 0.000958074 0.000703891 0.000488813 0.000312841 0.000175973 7.82101e-05 1.95525e-05 0 0 0.000232191 0.000928765 0.00208972 0.00371506 0.00580478 0.00835888 0.0113774 0.0148602 0.0188104 0.0232307 0.0281211 0.0334817 0.0393124 0.0456133 0.0523844 0.0596256 0.0671546 0.074789 0.0825287 0.0903739 0.0983244 0.10638 0.114542 0.122808 0.131017 0.139004 0.14677 0.154315 0.161638 0.16874 0.175621 0.18228 0.188627 0.194573 0.200117 0.20526 0.210001 0.21434 0.218277 0.221813 0.22493 0.227612 0.229859 0.231671 0.233047 0.233988 0.234493 0.234563 0.234237 0.233553 0.232511 0.231111 0.229353 0.227238 0.224765 0.221934 0.218813 0.215471 0.211907 0.208122 0.204115 0.199887 0.195438 0.190766 0.185946 0.181047 0.176071 0.171018 0.165886 0.160678 0.155391 0.150027 0.144643 0.139297 0.133988 0.128716 0.123482 0.118286 0.113126 0.108005 0.102956 0.098014 0.0931801 0.0884538 0.0838351 0.079324 0.0749205 0.0706247 0.0664503 0.0624115 0.0585081 0.0547401 0.0511076 0.0476105 0.0442489 0.0410228 0.0379317 0.0349755 0.032154 0.0294674 0.0269155 0.0244984 0.0222161 0.0200685 0.0180487 0.0161495 0.0143708 0.0127127 0.0111752 0.0097583 0.00846197 0.00728622 0.00621842 0.00524592 0.00436872 0.00358682 0.00290021 0.00230891 0.00181291 0.00141221 0.00108122 0.000794367 0.000551644 0.000353052 0.000198592 8.8263e-05 2.20657e-05 0 0 0.00025376 0.00101504 0.00228384 0.00406016 0.006344 0.00913537 0.0124342 0.0162407 0.0205546 0.0253762 0.0307053 0.036542 0.0428864 0.0497383 0.0570978 0.0649649 0.0731417 0.0814303 0.0898308 0.0983431 0.106967 0.115703 0.124551 0.133511 0.142406 0.151062 0.159477 0.167653 0.175588 0.183284 0.190739 0.197955 0.204833 0.211276 0.217286 0.22286 0.228001 0.232706 0.236978 0.240814 0.244198 0.247111 0.249553 0.251523 0.253023 0.254051 0.254608 0.254694 0.254351 0.25362 0.252501 0.250994 0.2491 0.246818 0.244148 0.24109 0.237718 0.234106 0.230253 0.226159 0.221824 0.217249 0.212433 0.207377 0.202158 0.196853 0.191464 0.18599 0.180431 0.174787 0.169057 0.163243 0.157407 0.15161 0.145853 0.140135 0.134458 0.12882 0.123222 0.117664 0.112184 0.106819 0.101571 0.0964392 0.0914232 0.0865233 0.0817396 0.0770719 0.0725355 0.0681456 0.0639022 0.0598054 0.0558551 0.0520513 0.048394 0.0448833 0.0415188 0.0383002 0.0352275 0.0323007 0.0295198 0.0268849 0.0243958 0.0220527 0.0198477 0.0177733 0.0158295 0.0140161 0.0123333 0.010781 0.00935927 0.00806804 0.00689398 0.00582372 0.00485727 0.00399462 0.00323578 0.00258074 0.00202951 0.00158209 0.00121129 0.000889925 0.000618003 0.000395522 0.000222481 9.88805e-05 2.47201e-05 0 0 0.000275939 0.00110376 0.00248345 0.00441502 0.00689847 0.0099338 0.013521 0.0176601 0.0223479 0.0275815 0.0333607 0.0396856 0.0465561 0.0539724 0.0619343 0.0704419 0.0792814 0.088239 0.0973147 0.106509 0.115821 0.125251 0.134799 0.144466 0.154061 0.163398 0.172476 0.181295 0.189855 0.198155 0.206197 0.213979 0.221399 0.22835 0.234833 0.240848 0.246396 0