<?xml version="1.0"?> 
<VTKFile type="StructuredGrid" version="0.1"> 
<StructuredGrid WholeExtent="0 128 0 128 0 0"> 
<Piece Extent="0 128 0 128 0 0"> 
<PointData>
<DataArray type="Float32" Name="u" format="ascii" NumberOfComponents="1"> 
0 0 0 0 0 0 0 0 0 0 0 0 0 0 0 0 0 0 0 0 0 0 0 0 0 0 0 0 0 0 0 0 0 0 0 0 0 0 0 0 0 0 0 0 0 0 0 0 0 0 0 0 0 0 0 0 0 0 0 0 0 0 0 0 0 0 0 0 0 0 0 0 0 0 0 0 0 0 0 0 0 0 0 0 0 0 0 0 0 0 0 0 0 0 0 0 0 0 0 0 0 0 0 0 0 0 0 0 0 0 0 0 0 0 0 0 0 0 0 0 0 0 0 0 0 0 0 0 0 0 4.8423e-07 1.93692e-06 4.35807e-06 7.74768e-06 1.21058e-05 1.74323e-05 2.37273e-05 3.09907e-05 3.93659e-05 4.89962e-05 5.98815e-05 7.20218e-05 8.54172e-05 0.000100068 0.000115973 0.000133134 0.000151091 0.000169386 0.000188019 0.00020699 0.000226299 0.000245946 0.000265931 0.000286254 0.000306469 0.000326131 0.00034524 0.000363795 0.000381797 0.000399245 0.000416141 0.000432483 0.000448039 0.000462579 0.000476102 0.000488608 0.000500097 0.000510569 0.000520024 0.000528462 0.000535849 0.000542149 0.000547362 0.00055149 0.000554531 0.000556486 0.000557354 0.000557136 0.000555939 0.000553868 0.000550924 0.000547106 0.000542415 0.000536851 0.000530414 0.000523104 0.000515097 0.00050657 0.000497523 0.000487957 0.000477871 0.000467266 0.000456141 0.000444496 0.000432512 0.00042037 0.000408071 0.000395613 0.000382997 0.000370223 0.000357291 0.000344201 0.000331093 0.000318106 0.00030524 0.000292496 0.000279873 0.000267372 0.000254992 0.000242733 0.000230677 0.000218904 0.000207415 0.000196209 0.000185286 0.000174647 0.000164291 0.000154219 0.000144458 0.000135039 0.00012596 0.000117222 0.000108824 0.000100767 9.30513e-05 8.56759e-05 7.86376e-05 7.19324e-05 6.55605e-05 5.95218e-05 5.38163e-05 4.8444e-05 4.3405e-05 3.86991e-05 3.43091e-05 3.02174e-05 2.6424e-05 2.29291e-05 1.97325e-05 1.68343e-05 1.42344e-05 1.19329e-05 9.88917e-06 8.06252e-06 6.45298e-06 5.06055e-06 3.88521e-06 2.92699e-06 2.18587e-06 1.66185e-06 1.27236e-06 9.34792e-07 6.49161e-07 4.15463e-07 2.33698e-07 1.03866e-07 2.59664e-08 0 0 1.93692e-06 7.74768e-06 1.74323e-05 3.09907e-05 4.8423e-05 6.97291e-05 9.49091e-05 0.000123963 0.000157464 0.000195985 0.000239526 0.000288087 0.000341669 0.00040027 0.000463892 0.000532534 0.000604362 0.000677542 0.000752074 0.000827958 0.000905194 0.000983782 0.00106372 0.00114501 0.00122588 0.00130452 0.00138096 0.00145518 0.00152719 0.00159698 0.00166456 0.00172993 0.00179216 0.00185032 0.00190441 0.00195443 0.00200039 0.00204228 0.0020801 0.00211385 0.00214339 0.00216859 0.00218945 0.00220596 0.00221812 0.00222594 0.00222942 0.00222855 0.00222376 0.00221547 0.00220369 0.00218842 0.00216966 0.00214741 0.00212166 0.00209241 0.00206039 0.00202628 0.00199009 0.00195183 0.00191149 0.00186906 0.00182456 0.00177798 0.00173005 0.00168148 0.00163228 0.00158245 0.00153199 0.00148089 0.00142916 0.0013768 0.00132437 0.00127242 0.00122096 0.00116998 0.00111949 0.00106949 0.00101997 0.000970934 0.000922709 0.000875617 0.000829659 0.000784835 0.000741145 0.000698588 0.000657164 0.000616875 0.000577833 0.000540155 0.000503839 0.000468886 0.000435296 0.000403069 0.000372205 0.000342704 0.00031455 0.00028773 0.000262242 0.000238087 0.000215265 0.000193776 0.00017362 0.000154796 0.000137236 0.000120869 0.000105696 9.17163e-05 7.89299e-05 6.73371e-05 5.69376e-05 4.77317e-05 3.95567e-05 3.22501e-05 2.58119e-05 2.02422e-05 1.55409e-05 1.1708e-05 8.74347e-06 6.64741e-06 5.08942e-06 3.73917e-06 2.59664e-06 1.66185e-06 9.34792e-07 4.15463e-07 1.03866e-07 0 0 4.35807e-06 1.74323e-05 3.92226e-05 6.97291e-05 0.000108952 0.000156891 0.000213546 0.000278917 0.000354293 0.000440966 0.000538933 0.000648196 0.000768755 0.000900608 0.00104376 0.0011982 0.00135981 0.00152447 0.00169217 0.00186291 0.00203669 0.00221351 0.00239338 0.00257628 0.00275822 0.00293518 0.00310716 0.00327415 0.00343617 0.00359321 0.00374527 0.00389234 0.00403236 0.00416321 0.00428492 0.00439747 0.00450087 0.00459512 0.00468022 0.00475616 0.00482264 0.00487934 0.00492626 0.00496341 0.00499078 0.00500837 0.00501619 0.00501423 0.00500345 0.00498481 0.00495831 0.00492396 0.00488174 0.00483166 0.00477373 0.00470793 0.00463587 0.00455913 0.00447771 0.00439162 0.00430084 0.00420539 0.00410527 0.00400046 0.00389261 0.00378333 0.00367264 0.00356052 0.00344697 0.00333201 0.00321562 0.00309781 0.00297984 0.00286295 0.00274716 0.00263247 0.00251886 0.00240635 0.00229493 0.0021846 0.00207609 0.00197014 0.00186673 0.00176588 0.00166758 0.00157182 0.00147862 0.00138797 0.00130012 0.00121535 0.00113364 0.00105499 0.000979417 0.000906906 0.000837461 0.000771083 0.000707738 0.000647392 0.000590045 0.000535696 0.000484347 0.000435996 0.000390645 0.000348292 0.000308781 0.000271956 0.000237816 0.000206362 0.000177592 0.000151508 0.00012811 0.000107396 8.90025e-05 7.25627e-05 5.80768e-05 4.55449e-05 3.49669e-05 2.63429e-05 1.96728e-05 1.49567e-05 1.14512e-05 8.41313e-06 5.84245e-06 3.73917e-06 2.10328e-06 9.34792e-07 2.33698e-07 0 0 7.74768e-06 3.09907e-05 6.97291e-05 0.000123963 0.000193692 0.000278917 0.000379636 0.000495852 0.000629855 0.000783939 0.000958103 0.00115235 0.00136667 0.00160108 0.00185557 0.00213014 0.00241745 0.00271017 0.0030083 0.00331183 0.00362078 0.00393513 0.00425489 0.00458006 0.0049035 0.00521809 0.00552383 0.00582072 0.00610875 0.00638793 0.00665825 0.00691972 0.00716863 0.00740127 0.00761763 0.00781773 0.00800155 0.0081691 0.00832038 0.00845539 0.00857358 0.00867438 0.0087578 0.00882384 0.0088725 0.00890377 0.00891767 0.00891418 0.00889502 0.00886189 0.00881478 0.0087537 0.00867865 0.00858962 0.00848663 0.00836966 0.00824154 0.00810512 0.00796037 0.00780732 0.00764594 0.00747626 0.00729825 0.00711194 0.0069202 0.00672593 0.00652913 0.00632981 0.00612795 0.00592357 0.00571666 0.00550722 0.00529749 0.0050897 0.00488385 0.00467994 0.00447798 0.00427795 0.00407987 0.00388373 0.00369083 0.00350247 0.00331864 0.00313934 0.00296458 0.00279435 0.00262866 0.0024675 0.00231133 0.00216062 0.00201536 0.00187554 0.00174119 0.00161228 0.00148882 0.00137082 0.0012582 0.00115092 0.00104897 0.000952349 0.000861061 0.000775104 0.000694479 0.000619186 0.000548945 0.000483478 0.000422785 0.000366865 0.00031572 0.000269348 0.000227751 0.000190927 0.000158227 0.000129 0.000103248 8.09687e-05 6.21634e-05 4.68318e-05 3.49739e-05 2.65896e-05 2.03577e-05 1.49567e-05 1.03866e-05 6.64741e-06 3.73917e-06 1.66185e-06 4.15463e-07 0 0 1.21058e-05 4.8423e-05 0.000108952 0.000193692 0.000302644 0.000435807 0.000593182 0.000774768 0.000984148 0.0012249 0.00149704 0.00180054 0.00213543 0.00250169 0.00289933 0.00332834 0.00377726 0.00423464 0.00470046 0.00517474 0.00565747 0.00614864 0.00664827 0.00715634 0.00766172 0.00815327 0.00863099 0.00909487 0.00954492 0.00998114 0.0104035 0.0108121 0.011201 0.0115645 0.0119026 0.0122152 0.0125024 0.0127642 0.0130006 0.0132116 0.0133962 0.0135537 0.0136841 0.0137872 0.0138633 0.0139121 0.0139339 0.0139284 0.0138985 0.0138467 0.0137731 0.0136777 0.0135604 0.0134213 0.0132604 0.0130776 0.0128774 0.0126642 0.0124381 0.0121989 0.0119468 0.0116816 0.0114035 0.0111124 0.0108128 0.0105093 0.0102018 0.00989032 0.00957492 0.00925558 0.00893228 0.00860503 0.00827732 0.00795265 0.00763101 0.00731241 0.00699684 0.0066843 0.0063748 0.00606833 0.00576693 0.00547261 0.00518537 0.00490522 0.00463215 0.00436617 0.00410728 0.00385547 0.00361146 0.00337597 0.00314899 0.00293054 0.0027206 0.00251918 0.00232628 0.0021419 0.00196594 0.00179831 0.00163901 0.00148805 0.00134541 0.0012111 0.00108512 0.000967478 0.000857726 0.000755434 0.000660601 0.000573227 0.000493312 0.000420857 0.00035586 0.000298323 0.000247229 0.000201563 0.000161325 0.000126514 9.71304e-05 7.31747e-05 5.46467e-05 4.15463e-05 3.18089e-05 2.33698e-05 1.6229e-05 1.03866e-05 5.84245e-06 2.59664e-06 6.49161e-07 0 0 1.74323e-05 6.97291e-05 0.000156891 0.000278917 0.000435807 0.000627562 0.000854182 0.00111567 0.00141717 0.00176386 0.00215573 0.00259278 0.00307502 0.00360243 0.00417503 0.00479281 0.00543926 0.00609788 0.00676867 0.00745163 0.00814675 0.00885404 0.0095735 0.0103051 0.0110329 0.0117407 0.0124286 0.0130966 0.0137447 0.0143728 0.0149811 0.0155694 0.0161294 0.0166529 0.0171397 0.0175899 0.0180035 0.0183805 0.0187209 0.0190246 0.0192905 0.0195174 0.019705 0.0198536 0.0199631 0.0200335 0.0200648 0.0200569 0.0200138 0.0199392 0.0198333 0.0196958 0.019527 0.0193267 0.0190949 0.0188317 0.0185435 0.0182365 0.0179108 0.0175665 0.0172034 0.0168216 0.0164211 0.0160019 0.0155704 0.0151333 0.0146905 0.0142421 0.0137879 0.013328 0.0128625 0.0123912 0.0119193 0.0114518 0.0109887 0.0105299 0.0100754 0.00962539 0.00917971 0.0087384 0.00830438 0.00788055 0.00746693 0.00706352 0.0066703 0.00628729 0.00591448 0.00555187 0.0052005 0.00486139 0.00453455 0.00421998 0.00391767 0.00362762 0.00334985 0.00308433 0.00283095 0.00258957 0.00236018 0.00214278 0.00193739 0.00174398 0.00156258 0.00139317 0.00123513 0.00108782 0.000951265 0.000825447 0.00071037 0.000606034 0.000512439 0.000429585 0.00035601 0.000290251 0.000232307 0.00018218 0.000139868 0.000105372 7.86912e-05 5.98267e-05 4.58048e-05 3.36525e-05 2.33698e-05 1.49567e-05 8.41313e-06 3.73917e-06 9.34792e-07 0 0 2.37273e-05 9.49091e-05 0.000213546 0.000379636 0.000593182 0.000854182 0.00116264 0.00151855 0.00192893 0.00240081 0.00293419 0.00352907 0.00418544 0.00490331 0.00568268 0.00652354 0.00740344 0.00829989 0.00921291 0.0101425 0.0110886 0.0120513 0.0130306 0.0140264 0.015017 0.0159804 0.0169167 0.0178259 0.018708 0.019563 0.0203909 0.0211917 0.0219539 0.0226664 0.023329 0.0239418 0.0245048 0.0250179 0.0254812 0.0258946 0.0262566 0.0265653 0.0268208 0.027023 0.027172 0.0272678 0.0273104 0.0272997 0.027241 0.0271395 0.0269953 0.0268082 0.0265784 0.0263057 0.0259903 0.0256321 0.0252397 0.0248219 0.0243786 0.0239099 0.0234157 0.022896 0.0223509 0.0217803 0.0211931 0.0205982 0.0199955 0.019385 0.0187669 0.0181409 0.0175073 0.0168659 0.0162236 0.0155872 0.0149568 0.0143323 0.0137138 0.0131012 0.0124946 0.0118939 0.0113032 0.0107263 0.0101633 0.00961423 0.00907902 0.0085577 0.00805026 0.00755672 0.00707846 0.0066169 0.00617203 0.00574386 0.00533238 0.0049376 0.00455951 0.00419812 0.00385324 0.00352469 0.00321247 0.00291657 0.002637 0.00237376 0.00212684 0.00189626 0.00168114 0.00148065 0.00129478 0.00112352 0.000966892 0.000824879 0.000697486 0.000584713 0.000484569 0.000395064 0.000316196 0.000247967 0.000190376 0.000143422 0.000107108 8.14308e-05 6.23454e-05 4.58048e-05 3.18089e-05 2.03577e-05 1.14512e-05 5.08942e-06 1.27236e-06 0 0 3.09907e-05 0.000123963 0.000278917 0.000495852 0.000774768 0.00111567 0.00151855 0.00198341 0.00251942 0.00313576 0.00383241 0.0046094 0.0054667 0.00640433 0.00742227 0.00852055 0.0096698 0.0108407 0.0120332 0.0132473 0.0144831 0.0157405 0.0170196 0.0183202 0.019614 0.0208724 0.0220953 0.0232829 0.024435 0.0255517 0.026633 0.0276789 0.0286745 0.0296051 0.0304705 0.0312709 0.0320062 0.0326764 0.0332815 0.0338216 0.0342943 0.0346975 0.0350312 0.0352954 0.03549 0.0356151 0.0356707 0.0356567 0.0355801 0.0354475 0.0352591 0.0350148 0.0347146 0.0343585 0.0339465 0.0334786 0.0329662 0.0324205 0.0318415 0.0312293 0.0305838 0.029905 0.029193 0.0284477 0.0276808 0.0269037 0.0261165 0.0253192 0.0245118 0.0236943 0.0228666 0.0220289 0.0211899 0.0203588 0.0195354 0.0187198 0.0179119 0.0171118 0.0163195 0.0155349 0.0147633 0.0140099 0.0132746 0.0125574 0.0118583 0.0111774 0.0105146 0.00987 0.00924533 0.00864248 0.00806142 0.00750218 0.00696474 0.00644911 0.00595528 0.00548326 0.00503281 0.00460368 0.00419587 0.0038094 0.00344424 0.00310042 0.00277792 0.00247674 0.00219578 0.00193391 0.00169114 0.00146746 0.00126288 0.00107739 0.000911002 0.000763707 0.000632907 0.000516001 0.000412991 0.000323875 0.000248654 0.000187327 0.000139896 0.000106359 8.14308e-05 5.98267e-05 4.15463e-05 2.65896e-05 1.49567e-05 6.64741e-06 1.66185e-06 0 0 3.94186e-05 0.000157674 0.000354767 0.000630697 0.000985465 0.00141907 0.00193151 0.00252279 0.00320414 0.00398681 0.0048708 0.0058561 0.00694271 0.00813064 0.00941988 0.0108104 0.0122652 0.0137472 0.0152563 0.0167926 0.018356 0.0199466 0.0215644 0.0232093 0.0248454 0.0264367 0.0279833 0.0294852 0.0309422 0.0323545 0.0337221 0.0350449 0.0363041 0.0374812 0.0385759 0.0395885 0.0405188 0.0413668 0.0421326 0.0428162 0.0434147 0.0439253 0.044348 0.0446828 0.0449297 0.0450887 0.0451598 0.045143 0.0450469 0.0448802 0.0446427 0.0443345 0.0439556 0.043506 0.0429857 0.0423947 0.0417472 0.0410577 0.040326 0.0395522 0.0387363 0.0378782 0.0369781 0.0360358 0.035066 0.0340833 0.0330878 0.0320794 0.0310581 0.030024 0.028977 0.0279172 0.0268558 0.0258041 0.0247622 0.0237301 0.0227078 0.0216952 0.0206923 0.0196993 0.0187225 0.0177687 0.0168377 0.0159297 0.0150446 0.0141823 0.013343 0.0125266 0.0117354 0.0109718 0.0102357 0.00952723 0.00884631 0.00819295 0.00756717 0.00696895 0.006398 0.00585402 0.005337 0.00484696 0.0043839 0.0039478 0.00353867 0.00315651 0.00279991 0.00246745 0.00215913 0.00187496 0.00161493 0.00137904 0.00116729 0.000979689 0.000812959 0.000663835 0.000532314 0.000418398 0.000322087 0.000243381 0.000182279 0.000138781 0.000106254 7.80643e-05 5.42113e-05 3.46953e-05 1.95161e-05 8.67381e-06 2.16845e-06 0 0 4.92068e-05 0.000196827 0.000442861 0.000787309 0.00123017 0.00177144 0.00241113 0.00314923 0.00399861 0.00497211 0.00606974 0.0072915 0.00863739 0.0101074 0.0117016 0.0134198 0.0152166 0.0170464 0.018909 0.0208046 0.0227332 0.0246946 0.026689 0.0287163 0.0307325 0.0326937 0.0345997 0.0364506 0.0382464 0.0399872 0.0416728 0.0433033 0.0448557 0.0463069 0.0476569 0.0489058 0.0500534 0.0510999 0.0520452 0.0528893 0.0536287 0.0542598 0.0547827 0.0551974 0.0555038 0.055702 0.0557919 0.0557736 0.0556575 0.0554542 0.0551638 0.0547861 0.0543213 0.0537692 0.0531299 0.0524034 0.0516073 0.0507591 0.0498588 0.0489064 0.047902 0.0468454 0.0457367 0.044576 0.0433812 0.0421703 0.0409434 0.0397003 0.0384413 0.0371661 0.0358749 0.0345677 0.0332583 0.0319608 0.0306751 0.0294013 0.0281394 0.0268893 0.0256511 0.0244247 0.0232184 0.0220401 0.02089 0.019768 0.0186742 0.0176085 0.0165708 0.0155614 0.0145829 0.0136384 0.0127279 0.0118513 0.0110086 0.0101999 0.00942519 0.00868438 0.00797717 0.00730319 0.00666246 0.00605497 0.00548073 0.00493972 0.00443196 0.00395743 0.0035144 0.0031011 0.00271754 0.00236372 0.00203963 0.00174528 0.00148066 0.00124578 0.00103666 0.000849333 0.000683789 0.000540032 0.000418061 0.000317877 0.00023948 0.000182869 0.000140009 0.000102864 7.14333e-05 4.57173e-05 2.5716e-05 1.14293e-05 2.85733e-06 0 0 6.03554e-05 0.000241421 0.000543198 0.000965686 0.00150888 0.00217279 0.00295741 0.00386274 0.00490281 0.00609165 0.00742925 0.00891561 0.0105507 0.0123346 0.0142673 0.0163487 0.018524 0.0207382 0.0229914 0.0252835 0.0276145 0.0299845 0.0323934 0.0348413 0.0372754 0.0396431 0.0419444 0.0441792 0.0463476 0.0484496 0.0504851 0.0524542 0.0543292 0.0560823 0.0577134 0.0592227 0.0606101 0.0618756 0.0630191 0.0640408 0.0649363 0.0657012 0.0663355 0.0668392 0.0672123 0.0674549 0.0675669 0.0675483 0.0674117 0.0671698 0.0668225 0.0663697 0.0658116 0.0651481 0.0643792 0.063505 0.0625464 0.0615247 0.0604399 0.0592919 0.0580808 0.0568065 0.055469 0.0540684 0.0526264 0.0511646 0.0496832 0.048182 0.0466612 0.0451206 0.0435603 0.0419803 0.0403975 0.0388287 0.037274 0.0357334 0.0342068 0.0326943 0.0311958 0.0297114 0.0282509 0.0268243 0.0254314 0.0240724 0.0227471 0.0214557 0.0201981 0.0189743 0.0177879 0.0166425 0.0155379 0.0144744 0.0134517 0.0124701 0.0115293 0.0106296 0.00977032 0.00895121 0.00817225 0.00743343 0.00673474 0.00607619 0.00545779 0.00487952 0.00433926 0.00383487 0.00336637 0.00293374 0.00253698 0.00217611 0.00185111 0.00156198 0.00130402 0.0010725 0.000867415 0.000688775 0.000536575 0.000410817 0.000311499 0.000238623 0.000182696 0.000134225 9.32121e-05 5.96558e-05 3.35564e-05 1.49139e-05 3.72849e-06 0 0 7.28643e-05 0.000291457 0.000655778 0.00116583 0.00182161 0.00262311 0.00357035 0.00466331 0.00591675 0.00734542 0.00894931 0.0107284 0.0126828 0.0148123 0.0171171 0.0195971 0.0221874 0.0248228 0.0275034 0.0302292 0.0330002 0.0358164 0.0386777 0.0415843 0.0444741 0.0472851 0.0500174 0.0526709 0.0552457 0.0577418 0.0601591 0.0624977 0.0647247 0.0668073 0.0687455 0.0705393 0.0721888 0.0736939 0.0750545 0.0762708 0.0773375 0.0782493 0.0790062 0.0796082 0.0800553 0.0803475 0.0804848 0.0804673 0.0803097 0.0800268 0.0796187 0.0790853 0.0784267 0.0776428 0.0767337 0.0756993 0.0745646 0.0733546 0.0720693 0.0707087 0.0692727 0.0677615 0.0661749 0.064513 0.0628016 0.0610663 0.0593073 0.0575245 0.0557178 0.0538874 0.0520332 0.0501552 0.0482734 0.046408 0.044559 0.0427263 0.04091 0.0391101 0.0373265 0.0355592 0.0338202 0.0321211 0.0304619 0.0288427 0.0272635 0.0257242 0.0242249 0.0227655 0.0213504 0.0199838 0.0186659 0.0173965 0.0161756 0.0150033 0.0138796 0.0128045 0.0117774 0.0107981 0.00986636 0.00898232 0.00814593 0.00735721 0.00661616 0.00592276 0.00527448 0.00466876 0.00410561 0.00358502 0.00310699 0.00267153 0.00227863 0.0019283 0.00161503 0.00133333 0.00108319 0.000864627 0.000677629 0.000522199 0.000398337 0.000306043 0.000234314 0.000172149 0.000119548 7.65107e-05 4.30372e-05 1.91277e-05 4.78192e-06 0 0 8.67335e-05 0.000346934 0.000780602 0.00138774 0.00216834 0.00312241 0.00424994 0.00555095 0.00704044 0.00873343 0.0106299 0.0127299 0.0150335 0.0175405 0.020251 0.0231651 0.0262067 0.0293 0.032445 0.0356417 0.0388901 0.0421901 0.0455418 0.0489452 0.0523285 0.0556196 0.0588188 0.0619258 0.0649409 0.0678638 0.0706947 0.0734336 0.0760421 0.0784819 0.0807531 0.0828557 0.0847896 0.0865548 0.0881514 0.0895793 0.0908323 0.0919042 0.0927948 0.0935043 0.0940326 0.0943798 0.0945457 0.0945305 0.0943513 0.0940253 0.0935525 0.0929329 0.0921664 0.0912532 0.0901931 0.0889863 0.0876617 0.0862486 0.0847469 0.0831567 0.0814778 0.0797104 0.0778544 0.0759098 0.0739068 0.0718754 0.0698157 0.0677277 0.0656113 0.0634666 0.0612935 0.0590922 0.056886 0.0546986 0.05253 0.0503801 0.048249 0.0461366 0.0440431 0.0419682 0.0399261 0.0379305 0.0359815 0.034079 0.0322231 0.0304138 0.028651 0.0269348 0.0252703 0.0236626 0.0221117 0.0206176 0.0191803 0.0177997 0.016476 0.0152091 0.0139986 0.0128438 0.0117448 0.0107017 0.00971431 0.00878278 0.00790707 0.00708716 0.00632007 0.00560277 0.00493527 0.00431756 0.00374965 0.00323154 0.00276323 0.00234472 0.00196969 0.00163182 0.00133112 0.00106759 0.000841224 0.000652025 0.000499993 0.000385128 0.000294864 0.000216634 0.000150441 9.6282e-05 5.41586e-05 2.40705e-05 6.01762e-06 0 0 0.000101963 0.000407853 0.000917668 0.00163141 0.00254908 0.00367067 0.00499619 0.00652564 0.00827386 0.0102557 0.0124711 0.0149202 0.0176028 0.0205191 0.023669 0.0270525 0.030582 0.0341699 0.0378163 0.041521 0.0452842 0.0491058 0.0529858 0.0569242 0.0608386 0.0646467 0.0683485 0.0719439 0.0754329 0.0788156 0.082092 0.085262 0.0882815 0.0911062 0.0937363 0.0961717 0.0984124 0.100458 0.10231 0.103966 0.105421 0.106666 0.107701 0.108528 0.109144 0.109552 0.10975 0.109738 0.109537 0.109165 0.108624 0.107912 0.107031 0.105979 0.104758 0.103366 0.101838 0.100207 0.0984729 0.0966359 0.0946961 0.0926532 0.0905075 0.0882588 0.085942 0.0835919 0.0812084 0.0787916 0.0763415 0.0738581 0.0713414 0.0687913 0.0662353 0.0637005 0.0611869 0.0586947 0.0562237 0.053774 0.0513456 0.0489384 0.0465687 0.0442526 0.0419902 0.0397814 0.0376262 0.0355246 0.0334767 0.0314824 0.0295477 0.0276787 0.0258754 0.0241377 0.0224657 0.0208593 0.0193186 0.0178436 0.0164336 0.0150883 0.0138076 0.0125914 0.0114399 0.0103529 0.00933052 0.00837273 0.00747602 0.00663689 0.00585534 0.00513137 0.00446497 0.00385615 0.00330491 0.00281125 0.002368 0.00196798 0.0016112 0.00129766 0.00102736 0.000800294 0.000616467 0.000475879 0.000364345 0.000267682 0.00018589 0.00011897 6.69205e-05 2.97424e-05 7.43561e-06 0 0 0.000118553 0.000474212 0.00106698 0.00189685 0.00296383 0.00426791 0.0058091 0.0075874 0.00961702 0.0119122 0.0144729 0.0172991 0.0203909 0.0237482 0.027371 0.0312594 0.0353133 0.0394325 0.0436171 0.0478671 0.0521826 0.0565633 0.0610095 0.0655211 0.0700046 0.0743664 0.0786065 0.0827251 0.086722 0.0905972 0.0943509 0.0979829 0.101443 0.10468 0.107695 0.110487 0.113057 0.115405 0.117529 0.119432 0.121103 0.122534 0.123726 0.124678 0.125391 0.125863 0.126096 0.12609 0.125866 0.125447 0.124833 0.124024 0.12302 0.121821 0.120427 0.118839 0.117093 0.115229 0.113247 0.111146 0.108927 0.10659 0.104134 0.10156 0.0989072 0.0962157 0.0934854 0.0907163 0.0879085 0.085062 0.0821767 0.0792527 0.0763212 0.0734137 0.07053 0.0676702 0.0648342 0.0620222 0.059234 0.0564698 0.053748 0.0510874 0.048488 0.0459497 0.0434726 0.0410566 0.0387018 0.0364081 0.0341826 0.0320322 0.0299569 0.0279568 0.0260318 0.024182 0.0224073 0.0207077 0.0190827 0.0175317 0.0160547 0.0146516 0.0133226 0.0120676 0.0108865 0.00977945 0.00874234 0.00777113 0.00686583 0.00602643 0.00525294 0.00454536 0.00390367 0.00332789 0.00280996 0.00234181 0.00192343 0.00155484 0.00123603 0.000967006 0.00074776 0.000578295 0.000442757 0.000325291 0.000225897 0.000144574 8.13228e-05 3.61435e-05 9.03587e-06 0 0 0.000136503 0.000546014 0.00122853 0.00218405 0.00341258 0.00491412 0.00668867 0.00873622 0.0110699 0.0137029 0.0166352 0.0198667 0.0233976 0.0272277 0.0313571 0.0357859 0.0404005 0.0450878 0.0498476 0.0546801 0.0595852 0.0645628 0.0696131 0.074736 0.0798262 0.0847785 0.0895929 0.0942694 0.098808 0.103209 0.107471 0.111596 0.115526 0.119204 0.122629 0.125803 0.128724 0.131393 0.13381 0.135975 0.137878 0.139509 0.140869 0.141956 0.142771 0.143315 0.143586 0.143586 0.143338 0.14287 0.142179 0.141267 0.140134 0.138779 0.137202 0.135404 0.133427 0.131316 0.12907 0.126688 0.124172 0.121521 0.118735 0.115813 0.112802 0.109747 0.106647 0.103502 0.100312 0.0970783 0.0937996 0.0904762 0.0871439 0.0838381 0.080559 0.0773065 0.0740805 0.0708812 0.0677084 0.0645623 0.061464 0.0584349 0.0554749 0.052584 0.0497623 0.0470097 0.0443263 0.041712 0.0391749 0.036723 0.0343564 0.032075 0.0298788 0.0277678 0.0257421 0.0238016 0.0219458 0.0201739 0.0184861 0.0168823 0.0153625 0.0139268 0.012575 0.0113073 0.010119 0.00900549 0.00796674 0.00700276 0.00611357 0.00529915 0.00455951 0.00389465 0.00329557 0.0027533 0.00226782 0.00183913 0.00146725 0.00115216 0.000893871 0.000692378 0.000530102 0.000389462 0.00027046 0.000173094 9.73656e-05 4.32736e-05 1.08184e-05 0 0 0.000155447 0.000621786 0.00139902 0.00248714 0.00388616 0.00559607 0.00761688 0.00994858 0.0126029 0.0155914 0.0189143 0.0225714 0.0265628 0.0308885 0.0355484 0.0405427 0.045744 0.0510252 0.0563862 0.0618271 0.0673479 0.0729486 0.0786291 0.0843895 0.0901123 0.0956803 0.101093 0.106352 0.111455 0.116403 0.121197 0.125835 0.130255 0.134392 0.138246 0.141817 0.145105 0.14811 0.150832 0.153272 0.155417 0.157257 0.158791 0.16002 0.160943 0.161561 0.161874 0.161881 0.161611 0.161091 0.160322 0.159304 0.158037 0.15652 0.154754 0.152738 0.150522 0.148153 0.145632 0.142959 0.140134 0.137156 0.134026 0.130744 0.12736 0.123926 0.12044 0.116904 0.113316 0.109678 0.105989 0.10225 0.0984991 0.0947779 0.0910861 0.0874236 0.0837904 0.0801866 0.0766121 0.0730669 0.0695752 0.0661608 0.0628238 0.0595643 0.0563821 0.0532774 0.0502501 0.0473001 0.0444368 0.0416692 0.0389973 0.0364211 0.0339406 0.0315559 0.0292669 0.0270737 0.0249755 0.0229718 0.0210626 0.0192478 0.0175275 0.0159016 0.0143702 0.0129333 0.0115856 0.0103219 0.00914221 0.00804656 0.00703492 0.00610729 0.00526368 0.00450409 0.00381859 0.00319725 0.0026401 0.00214711 0.00171829 0.00135364 0.00105317 0.000816868 0.000625415 0.000459488 0.000319089 0.000204217 0.000114872 5.10543e-05 1.27636e-05 0 0 0.000175015 0.000700059 0.00157513 0.00280024 0.00437537 0.00630054 0.00857573 0.011201 0.0141862 0.0175413 0.0212664 0.0253614 0.0298263 0.0346612 0.039866 0.0454407 0.0512439 0.0571341 0.0631113 0.0691755 0.0753267 0.0815648 0.08789 0.0943021 0.100672 0.106869 0.112894 0.118746 0.124426 0.129934 0.13527 0.140433 0.145353 0.149959 0.15425 0.158228 0.161891 0.165239 0.168274 0.170994 0.173388 0.175441 0.177155 0.17853 0.179565 0.18026 0.180616 0.180632 0.180339 0.179769 0.178921 0.177796 0.176393 0.174712 0.172754 0.170518 0.168058 0.165428 0.162628 0.159658 0.156518 0.153208 0.149727 0.146077 0.142313 0.138492 0.134613 0.130677 0.126684 0.122634 0.118526 0.114361 0.110183 0.106037 0.101923 0.0978414 0.0937917 0.089774 0.0857884 0.0818347 0.07794 0.074131 0.0704079 0.0667705 0.0632188 0.059753 0.0563729 0.0530786 0.0498804 0.0467886 0.0438032 0.0409242 0.0381516 0.0354855 0.0329257 0.0304723 0.0281247 0.0258822 0.0237448 0.0217125 0.0197853 0.0179631 0.0162461 0.0146341 0.0131215 0.0117022 0.0103764 0.00914402 0.00800507 0.00695954 0.00600745 0.00514879 0.00437274 0.00366848 0.00303601 0.00247533 0.00198644 0.00156934 0.00122403 0.000950509 0.000727733 0.000534661 0.000371293 0.000237627 0.000133665 5.94068e-05 1.48517e-05 0 0 0.000195208 0.000780834 0.00175688 0.00312334 0.00488021 0.0070275 0.00956521 0.0124933 0.0158198 0.0195525 0.0236915 0.0282367 0.0331882 0.0385459 0.0443098 0.0504801 0.0569004 0.0634147 0.070023 0.0767252 0.0835214 0.0904116 0.0973958 0.104474 0.111504 0.118344 0.124994 0.131453 0.137723 0.143802 0.149691 0.15539 0.160821 0.165905 0.170644 0.175036 0.179082 0.182782 0.186136 0.189143 0.19179 0.194063 0.195962 0.197486 0.198635 0.199411 0.199811 0.199838 0.199524 0.198903 0.197976 0.196742 0.195202 0.193355 0.191202 0.188742 0.186035 0.183139 0.180056 0.176783 0.173323 0.169675 0.165838 0.161813 0.157661 0.153446 0.149167 0.144823 0.140416 0.135944 0.131409 0.126809 0.122195 0.117615 0.11307 0.10856 0.104084 0.0996435 0.0952373 0.0908657 0.0865585 0.0823456 0.0782269 0.0742025 0.0702724 0.0664364 0.0626948 0.0590474 0.0555057 0.0520813 0.0487742 0.0455843 0.0425117 0.0395564 0.0367184 0.0339976 0.0313934 0.0289051 0.0265328 0.0242764 0.0221359 0.0201113 0.0182027 0.01641 0.0147267 0.0131465 0.0116693 0.0102951 0.00902401 0.0078559 0.00679082 0.00582876 0.00495805 0.00416699 0.00345557 0.00282382 0.00227171 0.00179925 0.00140645 0.0010933 0.000837058 0.000614981 0.00042707 0.000273325 0.000153745 6.83312e-05 1.70828e-05 0 0 0.000216027 0.000864109 0.00194425 0.00345644 0.00540068 0.00777698 0.0105853 0.0138257 0.0175038 0.0216251 0.0261896 0.0311973 0.0366483 0.0425425 0.04888 0.0556606 0.0627133 0.0698668 0.0771212 0.0844763 0.0919322 0.099489 0.107147 0.114905 0.122609 0.130106 0.137393 0.144473 0.151343 0.158006 0.16446 0.170705 0.176657 0.182231 0.187425 0.192241 0.196678 0.200737 0.204417 0.207718 0.210625 0.213122 0.21521 0.216887 0.218155 0.219013 0.219461 0.219499 0.219164 0.218493 0.217486 0.216143 0.214465 0.21245 0.210099 0.207412 0.204453 0.201288 0.197916 0.194336 0.19055 0.186557 0.182357 0.17795 0.173405 0.168788 0.1641 0.159341 0.154511 0.14961 0.144638 0.139595 0.134535 0.129513 0.124528 0.119579 0.114669 0.109795 0.104959 0.10016 0.0954307 0.0908045 0.0862811 0.0818605 0.0775427 0.0733278 0.0692157 0.0652064 0.0613127 0.0575473 0.0539102 0.0504014 0.0470209 0.0437688 0.0406449 0.0376494 0.0347815 0.0320406 0.0294266 0.0269395 0.0245794 0.0223462 0.02024 0.0182607 0.0164013 0.0146547 0.0130209 0.0114999 0.0100918 0.00879636 0.00761378 0.006544 0.0055745 0.00469276 0.00389878 0.00319255 0.00257409 0.00204338 0.00160043 0.00124524 0.000953388 0.000700448 0.000486422 0.00031131 0.000175112 7.78276e-05 1.94569e-05 0 0 0.000237471 0.000949886 0.00213724 0.00379954 0.00593679 0.00854897 0.0116361 0.0151982 0.0192382 0.023759 0.0287607 0.0342433 0.0402068 0.0466512 0.0535764 0.0609825 0.0686828 0.0764906 0.0844059 0.0924287 0.100559 0.108797 0.117142 0.125595 0.133988 0.142154 0.150093 0.157804 0.165289 0.172546 0.179576 0.18638 0.192863 0.198935 0.204595 0.209844 0.21468 0.219105 0.223118 0.22672 0.229892 0.232619 0.2349 0.236735 0.238124 0.239067 0.239564 0.239615 0.23926 0.238539 0.237452 0.235999 0.23418 0.231995 0.229444 0.226527 0.223313 0.219874 0.216208 0.212317 0.208199 0.203856 0.199286 0.194491 0.189543 0.184517 0.179413 0.174231 0.16897 0.163631 0.158214 0.152719 0.147204 0.14173 0.136295 0.1309 0.125544 0.120229 0.114953 0.109717 0.104557 0.0995076 0.0945703 0.0897444 0.08503 0.0804271 0.0759357 0.0715558 0.0673014 0.0631865 0.0592112 0.0553754 0.0516792 0.0481226 0.0447054 0.0414278 0.0382891 0.0352885 0.0324261 0.0297019 0.0271158 0.0246678 0.0223581 0.0201865 0.0181453 0.0162269 0.0144313 0.0127584 0.0112083 0.00978093 0.00847634 0.0072945 0.0062221 0.0052458 0.00436562 0.00358154 0.00289358 0.00230172 0.00180597 0.00140633 0.00107672 0.000791062 0.000549349 0.000351583 0.000197766 8.78958e-05 2.1974e-05 0 0 0.000259541 0.00103816 0.00233587 0.00415265 0.00648852 0.00934347 0.0127175 0.0166106 0.0210229 0.0259543 0.0314049 0.0373746 0.0438636 0.0508717 0.0583991 0.0664455 0.0748087 0.0832859 0.0918771 0.100582 0.109402 0.118335 0.127383 0.136544 0.14564 0.154489 0.163092 0.171449 0.179559 0.187423 0.195041 0.202413 0.209438 0.216019 0.222154 0.227843 0.233087 0.237886 0.24224 0.246148 0.249591 0.252553 0.255032 0.257028 0.258541 0.259572 0.260121 0.260186 0.259812 0.259042 0.257874 0.25631 0.254349 0.251992 0.249238 0.246087 0.242614 0.238897 0.234933 0.230724 0.22627 0.22157 0.216624 0.211433 0.206077 0.200634 0.195106 0.189492 0.183793 0.178008 0.172137 0.16618 0.160202 0.154266 0.148372 0.14252 0.136711 0.130944 0.12522 0.119537 0.113936 0.108455 0.103095 0.0978541 0.0927341 0.0877342 0.0828547 0.0780954 0.0734717 0.068999 0.0646773 0.0605065 0.0564866 0.0526178 0.0488998 0.0453329 0.0419161 0.038649 0.0355314 0.0325634 0.029745 0.0270761 0.0245568 0.0221871 0.0199586 0.017863 0.0159003 0.0140705 0.0123736 0.0108096 0.00937849 0.00808026 0.00690084 0.00582612 0.0048561 0.00399078 0.00323018 0.00257427 0.00202307 0.00157658 0.00120707 0.000886824 0.00061585 0.000394144 0.000221706 9.8536e-05 2.4634e-05 0 0 0.000282235 0.00112894 0.00254012 0.00451577 0.00705588 0.0101605 0.0138295 0.0180631 0.0228579 0.0282109 0.034122 0.0405913 0.0476187 0.0552043 0.063348 0.0720499 0.0810911 0.0902527 0.0995349 0.108938 0.118461 0.128104 0.137868 0.147753 0.157565 0.167111 0.176391 0.185405 0.194154 0.202637 0.210854 0.218805 0.226383 0.233482 0.240101 0.2462