<?xml version="1.0"?> 
<VTKFile type="StructuredGrid" version="0.1"> 
<StructuredGrid WholeExtent="0 128 0 128 0 0"> 
<Piece Extent="0 128 0 128 0 0"> 
<PointData>
<DataArray type="Float32" Name="u" format="ascii" NumberOfComponents="1"> 
0 0 0 0 0 0 0 0 0 0 0 0 0 0 0 0 0 0 0 0 0 0 0 0 0 0 0 0 0 0 0 0 0 0 0 0 0 0 0 0 0 0 0 0 0 0 0 0 0 0 0 0 0 0 0 0 0 0 0 0 0 0 0 0 0 0 0 0 0 0 0 0 0 0 0 0 0 0 0 0 0 0 0 0 0 0 0 0 0 0 0 0 0 0 0 0 0 0 0 0 0 0 0 0 0 0 0 0 0 0 0 0 0 0 0 0 0 0 0 0 0 0 0 0 0 0 0 0 0 0 6.9342e-07 2.77368e-06 6.24078e-06 1.10947e-05 1.73355e-05 2.49631e-05 3.39776e-05 4.43789e-05 5.6373e-05 7.01659e-05 8.57577e-05 0.000103148 0.000122338 0.000143326 0.000166113 0.000190699 0.000216418 0.000242606 0.000269263 0.000296388 0.000323982 0.000352044 0.000380575 0.000409574 0.000438392 0.000466379 0.000493536 0.000519861 0.000545356 0.000570019 0.000593852 0.000616854 0.000638689 0.000659023 0.000677853 0.000695182 0.000711009 0.000725333 0.000738155 0.000749475 0.000759251 0.00076744 0.000774043 0.00077906 0.00078249 0.000784334 0.000784592 0.000783263 0.000780516 0.000776517 0.000771267 0.000764765 0.000757012 0.000748007 0.000737751 0.000726244 0.000713754 0.000700551 0.000686636 0.000672007 0.000656666 0.000640612 0.000623844 0.000606364 0.000588443 0.000570352 0.000552091 0.000533661 0.000515062 0.000496293 0.000477355 0.000458247 0.000439175 0.000420347 0.000401763 0.000383421 0.000365323 0.000347468 0.000329856 0.000312487 0.000295476 0.000278935 0.000262866 0.000247267 0.000232139 0.000217483 0.000203297 0.000189582 0.000176369 0.000163688 0.000151539 0.000139922 0.000128836 0.000118283 0.000108262 9.87729e-05 8.97932e-05 8.13006e-05 7.32949e-05 6.57763e-05 5.87447e-05 5.22002e-05 4.61426e-05 4.05721e-05 3.54421e-05 3.07059e-05 2.63637e-05 2.24154e-05 1.88611e-05 1.57006e-05 1.29341e-05 1.05615e-05 8.50732e-06 6.69604e-06 5.12768e-06 3.80222e-06 2.71967e-06 1.88003e-06 1.2833e-06 9.29473e-07 7.11628e-07 5.22829e-07 3.63076e-07 2.32368e-07 1.30707e-07 5.80921e-08 1.4523e-08 0 0 2.77368e-06 1.10947e-05 2.49631e-05 4.43789e-05 6.9342e-05 9.98524e-05 0.00013591 0.000177515 0.000225492 0.000280664 0.000343031 0.000412593 0.000489351 0.000573304 0.000664452 0.000762795 0.000865673 0.000970426 0.00107705 0.00118555 0.00129593 0.00140818 0.0015223 0.0016383 0.00175357 0.00186552 0.00197414 0.00207944 0.00218142 0.00228008 0.00237541 0.00246742 0.00255476 0.00263609 0.00271141 0.00278073 0.00284403 0.00290133 0.00295262 0.0029979 0.003037 0.00306976 0.00309617 0.00311624 0.00312996 0.00313734 0.00313837 0.00313305 0.00312206 0.00310607 0.00308507 0.00305906 0.00302805 0.00299203 0.002951 0.00290497 0.00285502 0.00280221 0.00274654 0.00268803 0.00262666 0.00256245 0.00249538 0.00242546 0.00235377 0.00228141 0.00220837 0.00213465 0.00206025 0.00198517 0.00190942 0.00183299 0.0017567 0.00168139 0.00160705 0.00153368 0.00146129 0.00138987 0.00131942 0.00124995 0.0011819 0.00111574 0.00105146 0.000989068 0.000928558 0.000869931 0.000813188 0.00075833 0.000705477 0.000654752 0.000606155 0.000559687 0.000515346 0.000473133 0.000433048 0.000395092 0.000359173 0.000325202 0.00029318 0.000263105 0.000234979 0.000208801 0.00018457 0.000162288 0.000141768 0.000122824 0.000105455 8.96617e-05 7.54443e-05 6.28025e-05 5.17364e-05 4.2246e-05 3.40293e-05 2.67842e-05 2.05107e-05 1.52089e-05 1.08787e-05 7.52011e-06 5.13318e-06 3.71789e-06 2.84651e-06 2.09132e-06 1.4523e-06 9.29473e-07 5.22829e-07 2.32368e-07 5.80921e-08 0 0 6.24078e-06 2.49631e-05 5.6167e-05 9.98524e-05 0.000156019 0.000224668 0.000305798 0.00039941 0.000507357 0.000631493 0.000771819 0.000928334 0.00110104 0.00128993 0.00149502 0.00171629 0.00194777 0.00218346 0.00242337 0.00266749 0.00291584 0.0031684 0.00342517 0.00368617 0.00394553 0.00419741 0.00444182 0.00467875 0.0049082 0.00513017 0.00534467 0.00555169 0.0057482 0.0059312 0.00610068 0.00625664 0.00639908 0.006528 0.0066434 0.00674528 0.00683326 0.00690696 0.00696639 0.00701154 0.00704241 0.00705901 0.00706133 0.00704937 0.00702464 0.00698865 0.0069414 0.00688289 0.00681311 0.00673206 0.00663976 0.00653619 0.00642379 0.00630496 0.00617972 0.00604807 0.00590999 0.0057655 0.0056146 0.00545728 0.00529598 0.00513317 0.00496882 0.00480295 0.00463556 0.00446664 0.00429619 0.00412422 0.00395258 0.00378313 0.00361586 0.00345079 0.00328791 0.00312721 0.0029687 0.00281239 0.00265928 0.00251042 0.00236579 0.0022254 0.00208925 0.00195734 0.00182967 0.00170624 0.00158732 0.00147319 0.00136385 0.0012593 0.00115953 0.00106455 0.000974359 0.000888956 0.000808139 0.000731705 0.000659654 0.000591987 0.000528703 0.000469802 0.000415284 0.000365149 0.000318978 0.000276353 0.000237273 0.000201739 0.00016975 0.000141306 0.000116407 9.50535e-05 7.65659e-05 6.02644e-05 4.61491e-05 3.422e-05 2.4477e-05 1.69203e-05 1.15497e-05 8.36526e-06 6.40465e-06 4.70546e-06 3.26768e-06 2.09132e-06 1.17636e-06 5.22829e-07 1.30707e-07 0 0 1.10947e-05 4.43789e-05 9.98524e-05 0.000177515 0.000277368 0.00039941 0.000543641 0.000710062 0.000901968 0.00112265 0.00137212 0.00165037 0.0019574 0.00229321 0.00265781 0.00305118 0.00346269 0.0038817 0.00430821 0.00474221 0.00518371 0.00563271 0.0060892 0.00655319 0.00701428 0.00746207 0.00789657 0.00831778 0.00872569 0.00912031 0.00950163 0.00986966 0.010219 0.0105444 0.0108457 0.0111229 0.0113761 0.0116053 0.0118105 0.0119916 0.012148 0.012279 0.0123847 0.012465 0.0125198 0.0125493 0.0125535 0.0125322 0.0124883 0.0124243 0.0123403 0.0122362 0.0121122 0.0119681 0.011804 0.0116199 0.0114201 0.0112088 0.0109862 0.0107521 0.0105067 0.0102498 0.00998151 0.00970183 0.00941508 0.00912563 0.00883346 0.00853858 0.00824099 0.00794069 0.00763767 0.00733194 0.00702681 0.00672556 0.0064282 0.00613474 0.00584517 0.00555949 0.0052777 0.0049998 0.00472761 0.00446296 0.00420585 0.00395627 0.00371423 0.00347972 0.00325275 0.00303332 0.00282191 0.00261901 0.00242462 0.00223875 0.00206138 0.00189253 0.00173219 0.00158037 0.00143669 0.00130081 0.00117272 0.00105242 0.000939916 0.000835203 0.000738282 0.000649154 0.000567073 0.000491295 0.000421819 0.000358647 0.000301777 0.00025121 0.000206946 0.000168984 0.000136117 0.000107137 8.20428e-05 6.08355e-05 4.35147e-05 3.00804e-05 2.05327e-05 1.48716e-05 1.1386e-05 8.36526e-06 5.80921e-06 3.71789e-06 2.09132e-06 9.29473e-07 2.32368e-07 0 0 1.73355e-05 6.9342e-05 0.000156019 0.000277368 0.000433387 0.000624078 0.000849439 0.00110947 0.00140932 0.00175415 0.00214394 0.00257871 0.00305844 0.00358315 0.00415282 0.00476747 0.00541046 0.00606516 0.00673158 0.0074097 0.00809955 0.0088011 0.00951437 0.0102394 0.0109598 0.0116595 0.0123384 0.0129965 0.0136339 0.0142505 0.0148463 0.0154214 0.0159672 0.0164756 0.0169463 0.0173796 0.0177752 0.0181333 0.0184539 0.0187369 0.0189813 0.019186 0.0193511 0.0194765 0.0195623 0.0196084 0.0196148 0.0195816 0.0195129 0.0194129 0.0192817 0.0191191 0.0189253 0.0187002 0.0184438 0.0181561 0.0178438 0.0175138 0.0171659 0.0168002 0.0164166 0.0160153 0.0155961 0.0151591 0.0147111 0.0142588 0.0138023 0.0133415 0.0128765 0.0124073 0.0119339 0.0114562 0.0109794 0.0105087 0.0100441 0.00958553 0.00913307 0.0086867 0.0082464 0.00781218 0.00738689 0.00697338 0.00657164 0.00618168 0.00580349 0.00543707 0.00508243 0.00473956 0.00440923 0.0040922 0.00378847 0.00349804 0.00322091 0.00295708 0.00270655 0.00246932 0.00224483 0.00203251 0.00183237 0.00164441 0.00146862 0.001305 0.00115357 0.0010143 0.000886051 0.000767648 0.000659093 0.000560386 0.000471527 0.000392516 0.000323353 0.000264038 0.000212683 0.000167401 0.000128192 9.50555e-05 6.79917e-05 4.70007e-05 3.20824e-05 2.32368e-05 1.77907e-05 1.30707e-05 9.07689e-06 5.80921e-06 3.26768e-06 1.4523e-06 3.63076e-07 0 0 2.49631e-05 9.98524e-05 0.000224668 0.00039941 0.000624078 0.000898672 0.00122319 0.00159764 0.00202943 0.00252597 0.00308728 0.00371334 0.00440416 0.00515973 0.00598007 0.00686516 0.00779106 0.00873383 0.00969347 0.01067 0.0116633 0.0126736 0.0137007 0.0147447 0.0157821 0.0167897 0.0177673 0.018715 0.0196328 0.0205207 0.0213787 0.0222067 0.0229928 0.0237248 0.0244027 0.0250266 0.0255963 0.026112 0.0265736 0.0269811 0.027333 0.0276278 0.0278656 0.0280462 0.0281696 0.028236 0.0282453 0.0281975 0.0280986 0.0279546 0.0277656 0.0275315 0.0272524 0.0269283 0.026559 0.0261448 0.0256951 0.0252198 0.0247189 0.0241923 0.02364 0.023062 0.0224584 0.0218291 0.0211839 0.0205327 0.0198753 0.0192118 0.0185422 0.0178665 0.0171848 0.0164969 0.0158103 0.0151325 0.0144635 0.0138032 0.0131516 0.0125088 0.0118748 0.0112495 0.0106371 0.0100417 0.00946316 0.00890161 0.00835702 0.00782938 0.0073187 0.00682497 0.00634929 0.00589277 0.0054554 0.00503718 0.00463811 0.0042582 0.00389744 0.00355582 0.00323256 0.00292682 0.00263862 0.00236795 0.00211481 0.00187921 0.00166113 0.0014606 0.00127591 0.00110541 0.000949094 0.000806956 0.000678999 0.000565223 0.000465628 0.000380214 0.000306264 0.000241058 0.000184596 0.00013688 9.79081e-05 6.7681e-05 4.61987e-05 3.3461e-05 2.56186e-05 1.88218e-05 1.30707e-05 8.36526e-06 4.70546e-06 2.09132e-06 5.22829e-07 0 0 3.39776e-05 0.00013591 0.000305798 0.000543641 0.000849439 0.00122319 0.0016649 0.00217456 0.00276228 0.00343813 0.00420213 0.00505427 0.00599455 0.00702297 0.00813953 0.00934424 0.0106045 0.0118877 0.0131939 0.014523 0.0158751 0.0172502 0.0186482 0.0200691 0.0214812 0.0228526 0.0241833 0.0254732 0.0267224 0.027931 0.0290988 0.0302258 0.0312958 0.0322921 0.0332148 0.0340639 0.0348394 0.0355413 0.0361696 0.0367243 0.0372033 0.0376046 0.0379281 0.0381739 0.038342 0.0384324 0.038445 0.0383799 0.0382453 0.0380493 0.0377921 0.0374735 0.0370936 0.0366524 0.0361498 0.0355859 0.0349739 0.034327 0.0336452 0.0329284 0.0321766 0.03139 0.0305684 0.0297118 0.0288337 0.0279472 0.0270525 0.0261494 0.025238 0.0243184 0.0233904 0.0224541 0.0215196 0.020597 0.0196864 0.0187876 0.0179008 0.0170259 0.0161629 0.0153119 0.0144783 0.0136678 0.0128804 0.0121161 0.0113748 0.0106567 0.00996156 0.00928954 0.00864209 0.00802072 0.0074254 0.00685616 0.00631299 0.00579588 0.00530484 0.00483987 0.00439987 0.00398373 0.00359145 0.00322304 0.00287849 0.00255781 0.00226099 0.00198803 0.00173666 0.00150459 0.00129182 0.00109836 0.000924192 0.000769331 0.000633771 0.000517514 0.000416859 0.000328106 0.000251256 0.000186309 0.000133264 9.21214e-05 6.28815e-05 4.55442e-05 3.48698e-05 2.56186e-05 1.77907e-05 1.1386e-05 6.40465e-06 2.84651e-06 7.11628e-07 0 0 4.43789e-05 0.000177515 0.00039941 0.000710062 0.00110947 0.00159764 0.00217456 0.00284025 0.00360787 0.00449062 0.00548849 0.00660149 0.00782961 0.00917286 0.0106312 0.0122047 0.0138508 0.0155268 0.0172328 0.0189688 0.0207348 0.0225308 0.0243568 0.0262127 0.0280571 0.0298483 0.0315863 0.0332711 0.0349028 0.0364812 0.0380065 0.0394787 0.0408761 0.0421774 0.0433826 0.0444917 0.0455046 0.0464213 0.0472419 0.0479664 0.048592 0.0491162 0.0495388 0.0498598 0.0500794 0.0501974 0.0502139 0.0501289 0.049953 0.0496971 0.0493611 0.048945 0.0484488 0.0478725 0.0472161 0.0464796 0.0456803 0.0448353 0.0439447 0.0430085 0.0420266 0.0409991 0.039926 0.0388073 0.0376603 0.0365025 0.0353338 0.0341543 0.032964 0.0317628 0.0305507 0.0293278 0.0281072 0.0269022 0.0257128 0.024539 0.0233807 0.0222379 0.0211108 0.0199992 0.0189105 0.0178519 0.0168234 0.0158251 0.0148569 0.0139189 0.013011 0.0121333 0.0112876 0.010476 0.00969849 0.00895499 0.00824554 0.00757013 0.00692877 0.00632147 0.00574677 0.00520324 0.00469088 0.00420968 0.00375966 0.00334081 0.00295313 0.00259661 0.00226829 0.00196518 0.00168728 0.00143459 0.00120711 0.00100484 0.000827783 0.000675936 0.000544468 0.000428547 0.000328171 0.000243342 0.000174059 0.000120322 8.2131e-05 5.94863e-05 4.55442e-05 3.3461e-05 2.32368e-05 1.48716e-05 8.36526e-06 3.71789e-06 9.29473e-07 0 0 5.64559e-05 0.000225823 0.000508103 0.000903294 0.0014114 0.00203241 0.00276634 0.00361318 0.00458908 0.0057102 0.00697653 0.00838809 0.00994486 0.0116468 0.013494 0.0154865 0.0175703 0.0196918 0.0218509 0.0240476 0.026282 0.028554 0.0308636 0.0332108 0.0355433 0.0378085 0.0400065 0.0421372 0.0442008 0.046197 0.0481261 0.0499879 0.0517554 0.0534014 0.0549259 0.0563289 0.0576103 0.0587703 0.0598088 0.0607258 0.0615179 0.0621817 0.0627171 0.0631241 0.0634028 0.0635532 0.0635752 0.0634689 0.0632477 0.0629253 0.0625015 0.0619764 0.06135 0.0606223 0.0597932 0.0588629 0.057853 0.0567853 0.0556598 0.0544765 0.0532354 0.0519365 0.0505798 0.0491654 0.0477151 0.046251 0.044773 0.0432812 0.0417756 0.0402562 0.0387229 0.0371757 0.0356315 0.0341068 0.0326017 0.0311162 0.0296502 0.0282039 0.0267772 0.02537 0.0239917 0.0226514 0.0213492 0.020085 0.0188589 0.0176709 0.0165209 0.015409 0.0143377 0.0133094 0.0123242 0.0113819 0.0104828 0.00962668 0.00881361 0.00804358 0.0073148 0.00662544 0.0059755 0.005365 0.00479392 0.00426227 0.00377004 0.00331725 0.00290011 0.00251486 0.0021615 0.00184004 0.00155047 0.00129279 0.001067 0.000873098 0.000705008 0.000556641 0.000427998 0.00031908 0.000229885 0.000160414 0.000110667 8.06441e-05 6.17431e-05 4.53623e-05 3.15016e-05 2.0161e-05 1.13406e-05 5.04026e-06 1.26006e-06 0 0 7.04975e-05 0.00028199 0.000634477 0.00112796 0.00176244 0.00253791 0.00345438 0.00451184 0.00572876 0.00712362 0.00869641 0.0104471 0.0123758 0.0144824 0.0167669 0.0192293 0.0218035 0.0244233 0.0270886 0.0297995 0.032556 0.035358 0.0382056 0.0410987 0.0439732 0.046765 0.0494739 0.0521 0.0546433 0.0571038 0.0594816 0.0617765 0.0639552 0.0659845 0.0678643 0.0695946 0.0711754 0.0726068 0.0738886 0.075021 0.0759995 0.0768201 0.0774826 0.0779871 0.0783335 0.0785219 0.0785522 0.0784245 0.0781553 0.0777612 0.0772422 0.0765982 0.0758293 0.0749354 0.0739166 0.0727729 0.0715309 0.0702175 0.0688326 0.0673763 0.0658484 0.0642491 0.0625783 0.060836 0.0590493 0.0572452 0.0554237 0.0535848 0.0517286 0.049855 0.047964 0.0460556 0.0441505 0.0422693 0.0404119 0.0385783 0.0367687 0.0349828 0.0332209 0.0314828 0.02978 0.028124 0.0265147 0.0249522 0.0234365 0.0219674 0.0205452 0.0191697 0.0178441 0.0165715 0.0153519 0.0141853 0.0130718 0.0120112 0.0110037 0.0100492 0.0091455 0.00829042 0.00748395 0.0067261 0.00601686 0.00535624 0.00474423 0.00418083 0.00366141 0.00318131 0.00274054 0.0023391 0.00197699 0.0016542 0.00137075 0.00112662 0.000914391 0.000726651 0.000563394 0.000424622 0.000310334 0.00022053 0.00015521 0.000114374 8.75679e-05 6.43356e-05 4.46775e-05 2.85936e-05 1.60839e-05 7.1484e-06 1.7871e-06 0 0 8.65036e-05 0.000346015 0.000778533 0.00138406 0.00216259 0.00311413 0.00423868 0.00553623 0.00702693 0.00873089 0.0106481 0.0127786 0.0151224 0.0176794 0.0204497 0.0234333 0.0265504 0.0297213 0.032946 0.0362245 0.0395568 0.0429429 0.0463827 0.0498764 0.053347 0.0567177 0.0599885 0.0631595 0.0662305 0.0692016 0.0720729 0.0748442 0.0774756 0.0799268 0.0821979 0.0842889 0.0861998 0.0879306 0.0894812 0.0908517 0.0920369 0.0930314 0.0938354 0.0944487 0.0948714 0.0951035 0.0951449 0.0949958 0.0946759 0.094205 0.0935831 0.0928103 0.0918866 0.0908119 0.0895862 0.0882096 0.0867142 0.0851321 0.0834633 0.0817078 0.0798656 0.0779368 0.0759213 0.0738191 0.0716628 0.069485 0.0672858 0.0650651 0.0628229 0.0605593 0.0582742 0.0559676 0.0536644 0.0513897 0.0491434 0.0469254 0.0447359 0.0425747 0.040442 0.0383376 0.0362756 0.0342697 0.0323201 0.0304267 0.0285895 0.0268085 0.0250838 0.0234153 0.0218068 0.0202623 0.0187817 0.0173652 0.0160125 0.0147238 0.0134991 0.0123383 0.0112389 0.0101982 0.00921622 0.00829299 0.00742848 0.00662272 0.00587568 0.00518737 0.0045522 0.00396454 0.0034244 0.00293178 0.00248668 0.0020891 0.00173903 0.00143649 0.00117262 0.000938575 0.000734359 0.000559969 0.000415406 0.000300669 0.00021576 0.000160677 0.000123018 9.03809e-05 6.27645e-05 4.01693e-05 2.25952e-05 1.00423e-05 2.51058e-06 0 0 0.000104474 0.000417898 0.00094027 0.00167159 0.00261186 0.00376108 0.00511925 0.00668636 0.00848357 0.010532 0.0128317 0.0153826 0.0181847 0.021238 0.0245426 0.0280984 0.031811 0.0355859 0.0394231 0.0433227 0.0472845 0.0513086 0.0553951 0.0595439 0.0636645 0.0676667 0.0715504 0.0753156 0.0789622 0.0824904 0.0859001 0.0891913 0.0923165 0.0952283 0.0979268 0.100412 0.102684 0.104742 0.106587 0.108218 0.10963 0.110816 0.111775 0.112509 0.113016 0.113298 0.113353 0.113183 0.112809 0.112257 0.111524 0.110613 0.109522 0.108252 0.106802 0.105173 0.103403 0.101529 0.0995517 0.0974711 0.0952871 0.0929997 0.0906089 0.0881147 0.0855557 0.0829706 0.0803593 0.077722 0.0750585 0.072369 0.0696533 0.0669115 0.0641732 0.0614681 0.0587962 0.0561575 0.053552 0.0509796 0.0484405 0.0459345 0.0434783 0.0410886 0.0387653 0.0365085 0.0343181 0.0321942 0.0301367 0.0281457 0.0262258 0.0243818 0.0226137 0.0209214 0.019305 0.0177644 0.0162998 0.0149109 0.013595 0.0123487 0.0111723 0.0100657 0.00902879 0.0080617 0.0071644 0.00633687 0.00557247 0.00486453 0.00421307 0.00361806 0.00307953 0.00259746 0.00217186 0.00180272 0.00147969 0.00119242 0.000940892 0.00072512 0.0005451 0.000400833 0.000292317 0.000219552 0.000168095 0.000123498 8.57627e-05 5.48881e-05 3.08746e-05 1.3722e-05 3.43051e-06 0 0 0.00012441 0.000497639 0.00111969 0.00199056 0.00311024 0.00447875 0.00609608 0.00796223 0.0100987 0.012527 0.0152471 0.018259 0.0215627 0.0251582 0.0290455 0.0332247 0.0375853 0.042017 0.0465199 0.0510939 0.055739 0.0604553 0.0652426 0.0701011 0.0749259 0.079612 0.0841595 0.0885683 0.0928386 0.0969702 0.100963 0.104818 0.108478 0.111889 0.115051 0.117963 0.120626 0.12304 0.125205 0.12712 0.128779 0.130173 0.131303 0.132168 0.132769 0.133105 0.133177 0.132985 0.132556 0.131916 0.131066 0.130006 0.128735 0.127255 0.125564 0.123663 0.121597 0.119408 0.117098 0.114666 0.112113 0.109438 0.106641 0.103723 0.100728 0.0977018 0.0946443 0.0915556 0.0884355 0.0852841 0.0821014 0.0788874 0.0756768 0.0725045 0.0693704 0.0662745 0.0632169 0.0601975 0.0572163 0.0542733 0.0513882 0.0485805 0.0458503 0.0431976 0.0406223 0.0381244 0.035704 0.033361 0.0311012 0.0289301 0.0268477 0.0248541 0.0229492 0.0211331 0.0194057 0.0177671 0.0162137 0.0147421 0.0133522 0.0120441 0.0108178 0.0096732 0.00861038 0.00762932 0.00672223 0.0058813 0.00510655 0.00439796 0.00375554 0.00317929 0.00266921 0.0022253 0.00183561 0.00148817 0.00118299 0.000920076 0.000699418 0.000521019 0.00038488 0.000291 0.000222797 0.000163688 0.000113672 7.275e-05 4.09219e-05 1.81875e-05 4.54688e-06 0 0 0.00014631 0.000585239 0.00131679 0.00234096 0.00365774 0.00526715 0.00716918 0.00936382 0.0118723 0.0147158 0.0178943 0.0214078 0.0252563 0.0294399 0.0339585 0.038812 0.0438733 0.0490147 0.0542364 0.0595383 0.0649204 0.0703828 0.0759254 0.0815482 0.087131 0.0925535 0.0978158 0.102918 0.10786 0.112641 0.117262 0.121723 0.12596 0.129909 0.13357 0.136943 0.140029 0.142826 0.145336 0.147558 0.149483 0.151103 0.152417 0.153425 0.154128 0.154526 0.154617 0.154403 0.153915 0.153183 0.152208 0.150989 0.149527 0.147822 0.145873 0.14368 0.141296 0.13877 0.136102 0.133293 0.130343 0.127251 0.124018 0.120643 0.11718 0.113679 0.110141 0.106566 0.102954 0.0993047 0.0956185 0.0918953 0.0881753 0.0844988 0.0808659 0.0772765 0.0737306 0.0702283 0.0667695 0.0633542 0.0600053 0.0567456 0.0535752 0.0504939 0.0475019 0.0445992 0.0417856 0.0390613 0.0364328 0.033907 0.0314838 0.0291632 0.0269452 0.0248297 0.0228169 0.0209067 0.0190951 0.0173782 0.0157559 0.0142284 0.0127955 0.0114572 0.0102136 0.00906473 0.00800147 0.00701484 0.00610484 0.00527147 0.00451472 0.0038346 0.00323111 0.00270424 0.00224037 0.00182584 0.00146066 0.00114484 0.000878358 0.00066123 0.00049345 0.00037502 0.000287125 0.000210949 0.000146492 9.37551e-05 5.27372e-05 2.34388e-05 5.85969e-06 0 0 0.000170174 0.000680697 0.00153157 0.00272279 0.00425436 0.00612627 0.00833854 0.0108912 0.0138044 0.0170984 0.0207733 0.0248291 0.0292657 0.0340831 0.0392814 0.0448605 0.0506749 0.0565789 0.0625725 0.0686558 0.0748287 0.0810912 0.0874433 0.0938851 0.10028 0.106491 0.112519 0.118364 0.124025 0.129503 0.134797 0.139908 0.144762 0.149288 0.153484 0.157352 0.16089 0.1641 0.16698 0.169532 0.171744 0.173606 0.175119 0.176282 0.177095 0.177559 0.177673 0.177437 0.176887 0.176058 0.17495 0.173563 0.171897 0.169951 0.167727 0.165224 0.1625 0.159613 0.156564 0.153352 0.149977 0.14644 0.142739 0.138876 0.134911 0.130901 0.126849 0.122753 0.118613 0.114431 0.110205 0.105935 0.101669 0.0974511 0.0932827 0.0891634 0.0850932 0.081072 0.0771 0.0731771 0.0693295 0.0655838 0.0619398 0.0583976 0.0549571 0.0516185 0.0483815 0.0452464 0.0422208 0.0393127 0.036522 0.0338487 0.0312928 0.0288544 0.0265334 0.0243298 0.0222392 0.0202571 0.0183835 0.0166184 0.0149618 0.0134137 0.0119742 0.0106431 0.00941021 0.00826516 0.00720795 0.00623859 0.00535706 0.00456338 0.00385754 0.00323954 0.00269397 0.00220543 0.0017739 0.0013994 0.00108192 0.000821464 0.000618027 0.000471613 0.000361079 0.000265282 0.000184224 0.000117903 6.63206e-05 2.94758e-05 7.36896e-06 0 0 0.000196003 0.000784014 0.00176403 0.00313605 0.00490008 0.00705612 0.00960417 0.0125442 0.0158949 0.0196749 0.0238842 0.0285228 0.0335907 0.0390879 0.0450144 0.0513701 0.0579902 0.0647096 0.0715284 0.0784464 0.0854638 0.0925804 0.0997964 0.107112 0.114373 0.121425 0.12827 0.134907 0.141335 0.147555 0.153568 0.159372 0.164885 0.170026 0.174794 0.179189 0.183211 0.186861 0.190137 0.193041 0.19556 0.197682 0.199408 0.200737 0.201669 0.202205 0.202344 0.202086 0.201472 0.200541 0.199292 0.197727 0.195844 0.193645 0.191128 0.188295 0.18521 0.181939 0.178484 0.174842 0.171015 0.167003 0.162805 0.158422 0.153921 0.14937 0.144768 0.140116 0.135414 0.130662 0.12586 0.121007 0.116157 0.111361 0.106621 0.101935 0.0973045 0.0927288 0.0882079 0.0837419 0.079361 0.0750951 0.0709443 0.0669085 0.0629879 0.0591823 0.0554918 0.0519164 0.0484651 0.0451471 0.0419623 0.0389107 0.0359923 0.0332071 0.0305552 0.0280364 0.025646 0.0233788 0.0212349 0.0192142 0.0173168 0.0155428 0.0138919 0.0123644 0.0109484 0.00963224 0.00841587 0.00729932 0.00628257 0.00536563 0.00454851 0.00383119 0.00319642 0.00262693 0.00212271 0.00168377 0.00131011 0.00100172 0.000758611 0.000580778 0.000444658 0.000326688 0.000226867 0.000145195 8.1672e-05 3.62986e-05 9.07466e-06 0 0 0.000223281 0.000893126 0.00200953 0.0035725 0.00558204 0.00803813 0.0109408 0.01429 0.0181023 0.0223941 0.0271655 0.0324164 0.0381469 0.0443569 0.0510465 0.0582156 0.065679 0.0732515 0.0809329 0.0887234 0.0966229 0.104631 0.112749 0.120976 0.12914 0.13707 0.144766 0.152228 0.159457 0.166451 0.173212 0.179739 0.185939 0.191721 0.197085 0.20203 0.206557 0.210665 0.214355 0.217627 0.220467 0.222861 0.224809 0.226312 0.22737 0.227982 0.228149 0.22787 0.227191 0.226154 0.224761 0.223011 0.220905 0.218442 0.215622 0.212446 0.208987 0.205318 0.20144 0.197353 0.193056 0.18855 0.183835 0.17891 0.173852 0.168736 0.163563 0.158332 0.153044 0.147698 0.142295 0.136834 0.131374 0.125976 0.120638 0.115361 0.110145 0.10499 0.0998957 0.0948621 0.0899234 0.0851135 0.0804324 0.0758802 0.0714569 0.0671624 0.0629968 0.05896 0.0550625 0.0513146 0.0477164 0.0442679 0.040969 0.0378197 0.0348201 0.0319701 0.0292643 0.0266972 0.0242687 0.0219789 0.0198278 0.0178153 0.0159415 0.0142064 0.0125967 0.0110994 0.00971435 0.0084416 0.00728115 0.006233 0.00529714 0.00447358 0.00374317 0.00308674 0.00250431 0.00199586 0.00156141 0.00120094 0.000914462 0.000701974 0.000537449 0.00039486 0.000274209 0.000175493 9.87151e-05 4.38734e-05 1.09683e-05 0 0 0.000251493 0.00100597 0.00226343 0.00402388 0.00628732 0.00905374 0.0123231 0.0160955 0.0203848 0.0252049 0.0305557 0.0364373 0.0428498 0.049793 0.057267 0.0652717 0.0736011 0.082049 0.0906153 0.0993001 0.108103 0.117025 0.126065 0.135224 0.144311 0.153139 0.161705 0.170012 0.178058 0.185843 0.193368 0.200633 0.207534 0.213972 0.219944 0.225451 0.230493 0.235071 0.239184 0.242831 0.245999 0.248672 0.250849 0.252531 0.253718 0.25441 0.254606 0.254308 0.253563 0.252421 0.250883 0.248947 0.246614 0.243884 0.240757 0.237233 0.233394 0.22932 0.225013 0.220472 0.215698 0.210689 0.205447 0.19997 0.194344 0.188653 0.182897 0.177076 0.171189 0.165237 0.15922 0.153138 0.147056 0.141041 0.135093 0.129211 0.123396 0.117648 0.111966 0.106351 0.10084 0.0954729 0.090248 0.085166 0.0802268 0.0754303 0.0707767 0.0662659 0.0619096 0.0577198 0.0536963 0.0498391 0.0461484 0.042624 0.039266 0.0360744 0.0330431 0.0301662 0.0274437 0.0248756 0.0224618 0.0202024 0.0180974 0.0161467 0.0143358 0.0126499 0.0110891 0.00965339 0.00834272 0.00715711 0.00609657 0.00516109 0.00432966 0.00358127 0.00291592 0.00233359 0.00183431 0.00141806 0.00108484 0.000834658 0.000639035 0.000469495 0.000326038 0.000208664 0.000117374 5.21661e-05 1.30415e-05 0 0 0.000280637 0.00112255 0.00252573 0.00449019 0.00701593 0.0101029 0.0137512 0.0179608 0.0227425 0.0281072 0.0340549 0.0405856 0.0476993 0.055396 0.0636757 0.0725385 0.0817565 0.0911022 0.100575 0.110176 0.119905 0.129761 0.139745 0.149856 0.159888 0.169632 0.179088 0.188256 0.197137 0.20573 0.214035 0.222053 0.229671 0.236777 0.24337 0.249451 0.25502 0.260077 0.264622 0.268654 0.272157 0.275115 0.277527 0.279393 0.280713 0.281487 0.281716 0.281399 0.28059 0.279342 0.277657 0.275533 0.272971 0.26997 0.266532 0.262655 0.25843 0.253946 0.249203 0.2442 0.238939 0.233419 0.22764 0.221603 0.215399 0.209121 0.202771 0.196347 0.18985 0.18328 0.176636 0.16992 0.163202 0.156558 0.149985 0.143485 0.137057 0.130702 0.124419 0.118208 0.112112 0.106173 0.100391 0.094766 0.0892976 0.0839862 0.0788317 0.073834 0.0690066 0.0643625 0.0599018 0.0556245 0.0515306 0.0476201 0.043893 0.0403492 0.0369824 0.033786 0.0307599 0.0279042 0.025219 0.0227041 0.0203596 0.0181855 0.0161656 0.0142838 0.0125402 0.0109347 0.00946727 0.00813797 0.00694679 0.00589371 0.00495591 0.00411051 0.00335753 0.00269697 0.00212881 0.00165307 0.00126974 0.00097883 0.000749417 0.000550592 0.000382355 0.000244708 0.000137648 6.11769e-05 1.52942e-05 0 0 0.000310715 0.00124286 0.00279643 0.00497144 0.00776787 0.0111857 0.015225 0.0198858 0.0251753 0.031101 0.037663 0.0448611 0.0526955 0.0611661 0.0702728 0.0800158 0.0901451 0.100411 0.110813 0.121352 0.132028 0.14284 0.153788 0.164874 0.175869 0.186549 0.196913 0.206962 0.216695 0.226113 0.235214 0.244001 0.252349 0.260137 0.267364 0.274031 0.280138 0.285684 0.29067 0.295095 0.298942 0.302191 0.304843 0.306897 0.308355 0.309215 0.309478 0.309143 0.30827 0.306917 0.305083 0.30277 0.299976 0.296702 0.292947 0.288713 0.284096 0.279194 0.274008 0.268537 0.262782 0.256742 0.250417 0.243807 0.237015 0.23014 0.223184 0.216146 0.209027 0.201826 0.194543 0.187179 0.179813 0.172525 0.165314 0.158182 0.151128 0.144152 0.137254 0.130434 0.123739 0.117215 0.110862 0.10468 0.0986694 0.0928299 0.0871616 0.0816645 0.0763533 0.0712428 0.066333 0.0616239 0.0571155 0.0528079 0.0487009 0.0447947 0.0410822 0.0375563 0.0342173 0.0310649 0.0280992 0.0253203 0.022728 0.0203225 0.0180861 0.0160011 0.0140676 0.0122855 0.0106548 0.00917558 0.0078478 0.00667146 0.0056219 0.00467447 0.00382916 0.00308598 0.00244492 0.00190599 0.00146918 0.00113449 0.000868594 0.000638151 0.00044316 0.000283623 0.000159538 7.09057e-05 1.77264e-05 0 0 0.000341726 0.0013669 0.00307553 0.00546761 0.00854314 0.0123021 0.0167446 0.0218705 0.0276833 0.0341865 0.04138 0.049264 0.0578384 0.0671031 0.0770582 0.0877038 0.0987671 0.109976 0.121329 0.132828 0.144472 0.156261 0.168196 0.180275 0.192255 0.203891 0.215182 0.226129 0.236732 0.246991 0.256905 0.266475 0.275568 0.284052 0.291926 0.29919 0.305846 0.311891 0.317327 0.322154 0.326351 0.329899 0.332797 0.335045 0.336644 0.337593 0.337892 0.337542 0.336605 0.335145 0.333163 0.330657 0.327629 0.324078 0.320003 0.315406 0.310392 0.305066 0.29943 0.293483 0.287225 0.280655 0.273775 0.266584 0.259192 0.25171 0.244137 0.236474 0.22872 0.220876 0.212941 0.204916 0.196887 0.188942 0.181081 0.173303 0.165609 0.157999 0.150472 0.143029 0.13572 0.128597 0.12166 0.114908 0.108342 0.101962 0.0957665 0.0897572 0.0839497 0.0783606 0.0729899 0.0678374 0.0629032 0.0581874 0.0536899 0.0494107 0.0453424 0.0414774 0.0378158 0.0343575 0.0311026 0.028051 0.0252028 0.022558 0.0200974 0.0178018 0.0156712 0.0137058 0.0119053 0.0102699 0.00879961 0.00749432 0.00632765 0.00527314 0.0043308 0.00350063 0.00278263 0.0021768 0.00168313 0.00130164 0.000996568 0.000732172 0.000508453 0.00032541 0.000183043 8.13525e-05 2.03381e-05 0 0 0.00037367 0.00149468 0.00336303 0.00597872 0.00934175 0.0134521 0.0183098 0.0239149 0.0302664 0.0373634 0.045206 0.0537942 0.0631279 0.0732072 0.084032 0.0956024 0.107622 0.119796 0.132123 0.144603 0.157237 0.170025 0.182966 0.196061 0.209046 0.221657 0.233894 0.245758 0.257248 0.268364 0.279107 0.289476 0.299328 0.308521 0.317055 0.324929 0.332144 0.338699 0.344595 0.349832 0.354387 0.35824 0.361389 0.363836 0.365579 0.36662 0.366958 0.366593 0.365594 0.364028 0.361895 0.359196 0.35593 0.352098 0.347699 0.342734 0.337317 0.331562 0.325468 0.319037 0.312268 0.305161 0.297716 0.289933 0.281931 0.27383 0.265629 0.257328 0.248928 0.240429 0.231829 0.22313 0.214426 0.205811 0.197285 0.188848 0.1805 0.172242 0.164072 0.155992 0.148056 0.140321 0.132786 0.125451 0.118316 0.111381 0.104646 0.0981121 0.091796 0.0857161 0.0798724 0.0742649 0.0688937 0.0637587 0.0588599 0.0541973 0.0497631 0.0455491 0.0415554 0.0377821 0.034229 0.0308963 0.0277839 0.0248918 0.0221993 0.0196858 0.0173512 0.0151956 0.0132188 0.0114211 0.00980221 0.0083623 0.00707314 0.00590652 0.00486245 0.00394092 0.00314194 0.00246551 0.00191162 0.00148028 0.00113334 0.000832656 0.000578233 0.000370069 0.000208164 9.25173e-05 2.31293e-05 0 0 0.000406547 0.00162619 0.00365893 0.00650476 0.0101637 0.0146357 0.0199208 0.026019 0.0329246 0.0406319 0.049141 0.0584517 0.0685641 0.0794782 0.091194 0.103712 0.116711 0.129872 0.143194 0.156678 0.170324 0.184132 0.198101 0.212231 0.226241 0.239847 0.253049 0.265848 0.278242 0.290233 0.30182 0.313004 0.32363 0.333546 0.342752 0.351248 0.359033 0.366108 0.372473 0.378128 0.383049 0.387212 0.390619 0.393269 0.395162 0.396298 0.396677 0.396299 0.395236 0.393563 0.39128 0.388385 0.38488 0.380763 0.376036 0.370698 0.364872 0.35868 0.352123 0.3452 0.337912 0.330258 0.322239 0.313854 0.305232 0.296501 0.287661 0.278711 0.269653 0.260485 0.251208 0.241822 0.232429 0.22313 0.213926 0.204817