<?xml version="1.0"?> 
<VTKFile type="StructuredGrid" version="0.1"> 
<StructuredGrid WholeExtent="0 128 0 128 0 0"> 
<Piece Extent="0 128 0 128 0 0"> 
<PointData>
<DataArray type="Float32" Name="u" format="ascii" NumberOfComponents="1"> 
0 0 0 0 0 0 0 0 0 0 0 0 0 0 0 0 0 0 0 0 0 0 0 0 0 0 0 0 0 0 0 0 0 0 0 0 0 0 0 0 0 0 0 0 0 0 0 0 0 0 0 0 0 0 0 0 0 0 0 0 0 0 0 0 0 0 0 0 0 0 0 0 0 0 0 0 0 0 0 0 0 0 0 0 0 0 0 0 0 0 0 0 0 0 0 0 0 0 0 0 0 0 0 0 0 0 0 0 0 0 0 0 0 0 0 0 0 0 0 0 0 0 0 0 0 0 0 0 0 0 -8.42919e-08 -3.37168e-07 -7.58627e-07 -1.34867e-06 -2.1073e-06 -3.03451e-06 -4.1303e-06 -5.39468e-06 -6.68917e-06 -7.8753e-06 -8.95306e-06 -9.92245e-06 -1.07835e-05 -1.15362e-05 -1.21805e-05 -1.27164e-05 -1.30779e-05 -1.3199e-05 -1.30796e-05 -1.27197e-05 -1.21194e-05 -1.12786e-05 -1.01974e-05 -8.87568e-06 -7.42181e-06 -5.9441e-06 -4.44254e-06 -2.91712e-06 -1.36785e-06 2.05273e-07 1.80225e-06 3.42307e-06 4.93205e-06 6.19347e-06 7.20734e-06 7.97365e-06 8.49241e-06 8.76362e-06 8.78728e-06 8.56338e-06 8.08406e-06 7.34146e-06 6.33557e-06 5.0664e-06 3.53394e-06 1.73819e-06 -3.20844e-07 -2.64316e-06 -5.09341e-06 -7.53623e-06 -9.97161e-06 -1.23996e-05 -1.48201e-05 -1.72332e-05 -1.96389e-05 -2.20371e-05 -2.4288e-05 -2.62517e-05 -2.79282e-05 -2.93175e-05 -3.04196e-05 -3.12345e-05 -3.17622e-05 -3.20027e-05 -3.1956e-05 -3.16222e-05 -3.10012e-05 -3.00932e-05 -2.8898e-05 -2.74157e-05 -2.56463e-05 -2.35898e-05 -2.13812e-05 -1.91557e-05 -1.69132e-05 -1.46538e-05 -1.23774e-05 -1.00841e-05 -7.77385e-06 -5.44662e-06 -3.22848e-06 -1.24546e-06 5.02437e-07 2.01521e-06 3.29287e-06 4.3354e-06 5.14281e-06 5.7151e-06 6.05978e-06 6.18435e-06 6.08881e-06 5.77317e-06 5.23743e-06 4.48158e-06 3.50562e-06 2.30956e-06 1.01197e-06 -2.68549e-07 -1.53201e-06 -2.77841e-06 -4.00775e-06 -5.22003e-06 -6.41525e-06 -7.5934e-06 -8.66361e-06 -9.53498e-06 -1.02075e-05 -1.06812e-05 -1.09561e-05 -1.10321e-05 -1.09093e-05 -1.05876e-05 -1.01233e-05 -9.57249e-06 -8.93522e-06 -8.21146e-06 -7.40123e-06 -6.50451e-06 -5.52132e-06 -4.45165e-06 -3.40829e-06 -2.50405e-06 -1.73893e-06 -1.11291e-06 -6.26013e-07 -2.78228e-07 -6.9557e-08 0 0 -3.37168e-07 -1.34867e-06 -3.03451e-06 -5.39468e-06 -8.42919e-06 -1.2138e-05 -1.65212e-05 -2.15787e-05 -2.67567e-05 -3.15012e-05 -3.58122e-05 -3.96898e-05 -4.31339e-05 -4.61446e-05 -4.87218e-05 -5.08656e-05 -5.23117e-05 -5.27959e-05 -5.23183e-05 -5.08789e-05 -4.84776e-05 -4.51145e-05 -4.07895e-05 -3.55027e-05 -2.96873e-05 -2.37764e-05 -1.77701e-05 -1.16685e-05 -5.47139e-06 8.21092e-07 7.20899e-06 1.36923e-05 1.97282e-05 2.47739e-05 2.88293e-05 3.18946e-05 3.39697e-05 3.50545e-05 3.51491e-05 3.42535e-05 3.23363e-05 2.93658e-05 2.53423e-05 2.02656e-05 1.41357e-05 6.95275e-06 -1.28338e-06 -1.05726e-05 -2.03736e-05 -3.01449e-05 -3.98865e-05 -4.95983e-05 -5.92804e-05 -6.89328e-05 -7.85555e-05 -8.81484e-05 -9.71521e-05 -0.000105007 -0.000111713 -0.00011727 -0.000121679 -0.000124938 -0.000127049 -0.000128011 -0.000127824 -0.000126489 -0.000124005 -0.000120373 -0.000115592 -0.000109663 -0.000102585 -9.43591e-05 -8.55249e-05 -7.66228e-05 -6.76529e-05 -5.86153e-05 -4.95098e-05 -4.03365e-05 -3.10954e-05 -2.17865e-05 -1.29139e-05 -4.98185e-06 2.00975e-06 8.06085e-06 1.31715e-05 1.73416e-05 2.05712e-05 2.28604e-05 2.42391e-05 2.47374e-05 2.43553e-05 2.30927e-05 2.09497e-05 1.79263e-05 1.40225e-05 9.23823e-06 4.0479e-06 -1.0742e-06 -6.12804e-06 -1.11136e-05 -1.6031e-05 -2.08801e-05 -2.5661e-05 -3.03736e-05 -3.46544e-05 -3.81399e-05 -4.083e-05 -4.27248e-05 -4.38242e-05 -4.41283e-05 -4.3637e-05 -4.23504e-05 -4.04931e-05 -3.829e-05 -3.57409e-05 -3.28458e-05 -2.96049e-05 -2.60181e-05 -2.20853e-05 -1.78066e-05 -1.36332e-05 -1.00162e-05 -6.9557e-06 -4.45165e-06 -2.50405e-06 -1.11291e-06 -2.78228e-07 0 0 -7.58627e-07 -3.03451e-06 -6.82765e-06 -1.2138e-05 -1.89657e-05 -2.73106e-05 -3.71727e-05 -4.85522e-05 -6.02026e-05 -7.08777e-05 -8.05775e-05 -8.93021e-05 -9.70514e-05 -0.000103825 -0.000109624 -0.000114448 -0.000117701 -0.000118791 -0.000117716 -0.000114478 -0.000109075 -0.000101508 -9.17764e-05 -7.98811e-05 -6.67963e-05 -5.34969e-05 -3.99828e-05 -2.62541e-05 -1.23106e-05 1.84746e-06 1.62202e-05 3.08076e-05 4.43884e-05 5.57412e-05 6.4866e-05 7.17629e-05 7.64317e-05 7.88726e-05 7.90855e-05 7.70704e-05 7.27566e-05 6.60731e-05 5.70201e-05 4.55976e-05 3.18054e-05 1.56437e-05 -2.8876e-06 -2.37885e-05 -4.58407e-05 -6.7826e-05 -8.97445e-05 -0.000111596 -0.000133381 -0.000155099 -0.00017675 -0.000198334 -0.000218592 -0.000236266 -0.000251354 -0.000263858 -0.000273777 -0.000281111 -0.00028586 -0.000288024 -0.000287604 -0.000284599 -0.000279011 -0.000270839 -0.000260082 -0.000246741 -0.000230817 -0.000212308 -0.000192431 -0.000172401 -0.000152219 -0.000131884 -0.000111397 -9.07571e-05 -6.99646e-05 -4.90196e-05 -2.90563e-05 -1.12092e-05 4.52193e-06 1.81369e-05 2.96358e-05 3.90186e-05 4.62853e-05 5.14359e-05 5.4538e-05 5.56591e-05 5.47993e-05 5.19586e-05 4.71368e-05 4.03342e-05 3.15506e-05 2.0786e-05 9.10776e-06 -2.41694e-06 -1.37881e-05 -2.50057e-05 -3.60698e-05 -4.69803e-05 -5.77372e-05 -6.83406e-05 -7.79725e-05 -8.58148e-05 -9.18676e-05 -9.61308e-05 -9.86045e-05 -9.92887e-05 -9.81833e-05 -9.52884e-05 -9.11096e-05 -8.61524e-05 -8.04169e-05 -7.39031e-05 -6.6611e-05 -5.85406e-05 -4.96919e-05 -4.00648e-05 -3.06746e-05 -2.25365e-05 -1.56503e-05 -1.00162e-05 -5.63412e-06 -2.50405e-06 -6.26013e-07 0 0 -1.34867e-06 -5.39468e-06 -1.2138e-05 -2.15787e-05 -3.37168e-05 -4.85522e-05 -6.60849e-05 -8.63149e-05 -0.000107027 -0.000126005 -0.000143249 -0.000158759 -0.000172536 -0.000184578 -0.000194887 -0.000203462 -0.000209247 -0.000211184 -0.000209273 -0.000203516 -0.00019391 -0.000180458 -0.000163158 -0.000142011 -0.000118749 -9.51056e-05 -7.10806e-05 -4.66739e-05 -2.18856e-05 3.28437e-06 2.88359e-05 5.47692e-05 7.89127e-05 9.90955e-05 0.000115317 0.000127578 0.000135879 0.000140218 0.000140596 0.000137014 0.000129345 0.000117463 0.000101369 8.10623e-05 5.6543e-05 2.7811e-05 -5.1335e-06 -4.22906e-05 -8.14945e-05 -0.00012058 -0.000159546 -0.000198393 -0.000237122 -0.000275731 -0.000314222 -0.000352594 -0.000388608 -0.000420028 -0.000446852 -0.000469081 -0.000486714 -0.000499752 -0.000508195 -0.000512043 -0.000511296 -0.000505955 -0.00049602 -0.000481491 -0.000462368 -0.000438651 -0.000410341 -0.000377436 -0.000342099 -0.000306491 -0.000270612 -0.000234461 -0.000198039 -0.000161346 -0.000124382 -8.7146e-05 -5.16557e-05 -1.99274e-05 8.03899e-06 3.22434e-05 5.26859e-05 6.93664e-05 8.2285e-05 9.14416e-05 9.69564e-05 9.89496e-05 9.7421e-05 9.23708e-05 8.37988e-05 7.17052e-05 5.60899e-05 3.69529e-05 1.61916e-05 -4.29678e-06 -2.45122e-05 -4.44546e-05 -6.4124e-05 -8.35205e-05 -0.000102644 -0.000121494 -0.000138618 -0.00015256 -0.00016332 -0.000170899 -0.000175297 -0.000176513 -0.000174548 -0.000169402 -0.000161973 -0.00015316 -0.000142963 -0.000131383 -0.00011842 -0.000104072 -8.83411e-05 -7.12264e-05 -5.45327e-05 -4.00648e-05 -2.78228e-05 -1.78066e-05 -1.00162e-05 -4.45165e-06 -1.11291e-06 0 0 -2.1073e-06 -8.42919e-06 -1.89657e-05 -3.37168e-05 -5.26825e-05 -7.58627e-05 -0.000103258 -0.000134867 -0.000167229 -0.000196882 -0.000223826 -0.000248061 -0.000269587 -0.000288404 -0.000304511 -0.00031791 -0.000326948 -0.000329975 -0.00032699 -0.000317993 -0.000302985 -0.000281966 -0.000254935 -0.000221892 -0.000185545 -0.000148603 -0.000111063 -7.29279e-05 -3.41962e-05 5.13182e-06 4.50562e-05 8.55768e-05 0.000123301 0.000154837 0.000180183 0.000199341 0.00021231 0.000219091 0.000219682 0.000214085 0.000202102 0.000183537 0.000158389 0.00012666 8.83484e-05 4.34547e-05 -8.0211e-06 -6.60791e-05 -0.000127335 -0.000188406 -0.00024929 -0.000309989 -0.000370502 -0.00043083 -0.000490972 -0.000550928 -0.000607201 -0.000656293 -0.000698206 -0.000732938 -0.000760491 -0.000780863 -0.000794055 -0.000800067 -0.000798899 -0.000790554 -0.000775031 -0.000752329 -0.00072245 -0.000685393 -0.000641158 -0.000589744 -0.00053453 -0.000478893 -0.000422831 -0.000366345 -0.000309436 -0.000252103 -0.000194346 -0.000136166 -8.0712e-05 -3.11365e-05 1.25609e-05 5.03803e-05 8.23217e-05 0.000108385 0.00012857 0.000142878 0.000151494 0.000154609 0.00015222 0.000144329 0.000130936 0.000112039 8.76405e-05 5.77389e-05 2.52993e-05 -6.71373e-06 -3.83003e-05 -6.94603e-05 -0.000100194 -0.000130501 -0.000160381 -0.000189835 -0.00021659 -0.000238374 -0.000255188 -0.00026703 -0.000273901 -0.000275802 -0.000272731 -0.00026469 -0.000253082 -0.000239312 -0.00022338 -0.000205287 -0.000185031 -0.000162613 -0.000138033 -0.000111291 -8.52073e-05 -6.26013e-05 -4.34731e-05 -2.78228e-05 -1.56503e-05 -6.9557e-06 -1.73893e-06 0 0 -3.03451e-06 -1.2138e-05 -2.73106e-05 -4.85522e-05 -7.58627e-05 -0.000109242 -0.000148691 -0.000194209 -0.00024081 -0.000283511 -0.00032231 -0.000357208 -0.000388205 -0.000415301 -0.000438496 -0.00045779 -0.000470805 -0.000475163 -0.000470865 -0.00045791 -0.000436299 -0.00040603 -0.000367106 -0.000319524 -0.000267185 -0.000213988 -0.000159931 -0.000105016 -4.92425e-05 7.38983e-06 6.48809e-05 0.000123231 0.000177554 0.000222965 0.000259464 0.000287051 0.000305727 0.00031549 0.000316342 0.000308282 0.000291026 0.000264293 0.000228081 0.00018239 0.000127222 6.25748e-05 -1.15504e-05 -9.51538e-05 -0.000183363 -0.000271304 -0.000358978 -0.000446385 -0.000533524 -0.000620395 -0.000706999 -0.000793336 -0.000874369 -0.000945062 -0.00100542 -0.00105543 -0.00109511 -0.00112444 -0.00114344 -0.0011521 -0.00115041 -0.0011384 -0.00111604 -0.00108335 -0.00104033 -0.000986966 -0.000923267 -0.000849232 -0.000769724 -0.000689605 -0.000608876 -0.000527537 -0.000445588 -0.000363028 -0.000279859 -0.000196078 -0.000116225 -4.48366e-05 1.80877e-05 7.25477e-05 0.000118543 0.000156074 0.000185141 0.000205744 0.000218152 0.000222637 0.000219197 0.000207834 0.000188547 0.000161337 0.000126202 8.31441e-05 3.64311e-05 -9.66777e-06 -5.51524e-05 -0.000100023 -0.000144279 -0.000187921 -0.000230949 -0.000273362 -0.00031189 -0.000343259 -0.00036747 -0.000384523 -0.000394418 -0.000397155 -0.000392733 -0.000381154 -0.000364438 -0.00034461 -0.000321668 -0.000295613 -0.000266444 -0.000234163 -0.000198768 -0.000160259 -0.000122699 -9.01459e-05 -6.26013e-05 -4.00648e-05 -2.25365e-05 -1.00162e-05 -2.50405e-06 0 0 -4.1303e-06 -1.65212e-05 -3.71727e-05 -6.60849e-05 -0.000103258 -0.000148691 -0.000202385 -0.00026434 -0.000327769 -0.00038589 -0.0004387 -0.0004862 -0.000528391 -0.000565271 -0.000596842 -0.000623103 -0.000640818 -0.00064675 -0.0006409 -0.000623267 -0.000593851 -0.000552653 -0.000499672 -0.000434908 -0.000363669 -0.000291261 -0.000217684 -0.000142939 -6.70246e-05 1.00584e-05 8.83101e-05 0.000167731 0.00024167 0.00030348 0.00035316 0.000390709 0.000416128 0.000429418 0.000430577 0.000419606 0.000396119 0.000359732 0.000310443 0.000248253 0.000173163 8.51712e-05 -1.57214e-05 -0.000129515 -0.000249577 -0.000369275 -0.000488609 -0.000607579 -0.000726185 -0.000844427 -0.000962304 -0.00107982 -0.00119011 -0.00128634 -0.00136848 -0.00143656 -0.00149056 -0.00153049 -0.00155635 -0.00156813 -0.00156584 -0.00154949 -0.00151906 -0.00147457 -0.001416 -0.00134337 -0.00125667 -0.0011559 -0.00104768 -0.000938629 -0.000828748 -0.000718037 -0.000606495 -0.000494122 -0.000380919 -0.000266884 -0.000158196 -6.10276e-05 2.46194e-05 9.87454e-05 0.000161351 0.000212435 0.000251998 0.00028004 0.000296929 0.000303033 0.000298352 0.000282885 0.000256634 0.000219597 0.000171775 0.000113168 4.95867e-05 -1.31589e-05 -7.50685e-05 -0.000136142 -0.00019638 -0.000255781 -0.000314347 -0.000372077 -0.000424517 -0.000467214 -0.000500168 -0.000523379 -0.000536847 -0.000540572 -0.000534554 -0.000518792 -0.000496041 -0.000469052 -0.000437826 -0.000402362 -0.00036266 -0.000318721 -0.000270545 -0.000218131 -0.000167006 -0.000122699 -8.52073e-05 -5.45327e-05 -3.06746e-05 -1.36332e-05 -3.40829e-06 0 0 -5.39468e-06 -2.15787e-05 -4.85522e-05 -8.63149e-05 -0.000134867 -0.000194209 -0.00026434 -0.00034526 -0.000428107 -0.000504019 -0.000572996 -0.000635037 -0.000690143 -0.000738314 -0.000779549 -0.000813849 -0.000836987 -0.000844735 -0.000837093 -0.000814062 -0.000775642 -0.000721832 -0.000652632 -0.000568043 -0.000474996 -0.000380422 -0.000284322 -0.000186696 -8.75423e-05 1.31375e-05 0.000115344 0.000219077 0.000315651 0.000396382 0.00046127 0.000510314 0.000543514 0.000560872 0.000562386 0.000548056 0.00051738 0.000469853 0.000405477 0.000324249 0.000226172 0.000111244 -2.0534e-05 -0.000169162 -0.000325978 -0.000482318 -0.000638183 -0.000793572 -0.000948486 -0.00110292 -0.00125689 -0.00141037 -0.00155443 -0.00168011 -0.00178741 -0.00187632 -0.00194686 -0.00199901 -0.00203278 -0.00204817 -0.00204518 -0.00202382 -0.00198408 -0.00192596 -0.00184947 -0.00175461 -0.00164136 -0.00150975 -0.0013684 -0.00122596 -0.00108245 -0.000937844 -0.000792156 -0.000645384 -0.000497526 -0.000348584 -0.000206623 -7.97095e-05 3.21559e-05 0.000128974 0.000210744 0.000277466 0.00032914 0.000365766 0.000387826 0.000395798 0.000389684 0.000369483 0.000335195 0.000286821 0.00022436 0.000147812 6.47663e-05 -1.71871e-05 -9.80487e-05 -0.000177818 -0.000256496 -0.000334082 -0.000410576 -0.000485978 -0.000554471 -0.000610239 -0.000653281 -0.000683597 -0.000701188 -0.000706053 -0.000698192 -0.000677606 -0.00064789 -0.000612639 -0.000571854 -0.000525534 -0.000473679 -0.000416289 -0.000353365 -0.000284906 -0.000218131 -0.000160259 -0.000111291 -7.12264e-05 -4.00648e-05 -1.78066e-05 -4.45165e-06 0 0 -6.65398e-06 -2.66159e-05 -5.98858e-05 -0.000106464 -0.000166349 -0.000239543 -0.000326045 -0.000425855 -0.000527852 -0.000620916 -0.000705047 -0.000780246 -0.000846511 -0.000903844 -0.000952243 -0.00099171 -0.00101703 -0.00102297 -0.00100954 -0.000976748 -0.000924582 -0.000853045 -0.000762138 -0.000651861 -0.000530993 -0.000408316 -0.00028383 -0.000157533 -2.94275e-05 0.000100488 0.000232213 0.000365748 0.000490138 0.000594427 0.000678617 0.000742708 0.000786698 0.000810589 0.000814379 0.00079807 0.000761034 0.000702645 0.000622901 0.000521804 0.000399353 0.000255548 9.03899e-05 -9.61223e-05 -0.000293055 -0.000489476 -0.000685385 -0.000880782 -0.00107567 -0.00127004 -0.0014639 -0.00165725 -0.00183879 -0.00199722 -0.00213255 -0.00224477 -0.00233389 -0.0023999 -0.0024428 -0.0024626 -0.00245929 -0.00243287 -0.00238334 -0.00231069 -0.00221494 -0.00209608 -0.00195411 -0.00178902 -0.00161173 -0.00143313 -0.00125321 -0.00107198 -0.000889445 -0.000705596 -0.000520436 -0.000333966 -0.000156359 2.20766e-06 0.000141735 0.000262222 0.00036367 0.000446078 0.000509446 0.000553774 0.000579663 0.000587712 0.000577922 0.000550292 0.000504822 0.000441512 0.000360362 0.000261373 0.000154117 4.81647e-05 -5.64825e-05 -0.000159825 -0.000261863 -0.000362596 -0.000462024 -0.000560148 -0.000649601 -0.000723018 -0.000780398 -0.000821741 -0.000847049 -0.00085632 -0.000849554 -0.000826752 -0.000792362 -0.000750833 -0.000702165 -0.000646357 -0.00058341 -0.000513325 -0.0004361 -0.000351735 -0.000269297 -0.000197851 -0.000137397 -8.79338e-05 -4.94628e-05 -2.19835e-05 -5.49586e-06 0 0 -7.73452e-06 -3.09381e-05 -6.96107e-05 -0.000123752 -0.000193363 -0.000278443 -0.000378991 -0.000495009 -0.000613032 -0.000719598 -0.000814705 -0.000898354 -0.000970545 -0.00103128 -0.00108055 -0.00111837 -0.00113865 -0.00113531 -0.00110835 -0.00105777 -0.000983581 -0.000885769 -0.00076434 -0.000619292 -0.000461487 -0.000301787 -0.000140191 2.33007e-05 0.000188688 0.000355971 0.000525149 0.000696223 0.000855772 0.000990373 0.00110003 0.00118473 0.00124449 0.0012793 0.00128917 0.00127408 0.00123331 0.00116609 0.00107244 0.000952343 0.000805811 0.000632839 0.000433429 0.000207579 -3.12979e-05 -0.000269791 -0.0005079 -0.000745625 -0.000982967 -0.00121992 -0.0014565 -0.00169269 -0.00191464 -0.0021085 -0.00227428 -0.00241196 -0.00252155 -0.00260306 -0.00265647 -0.0026818 -0.00267902 -0.00264811 -0.00258907 -0.00250191 -0.00238662 -0.0022432 -0.00207166 -0.00187199 -0.00165753 -0.00144163 -0.00122427 -0.00100548 -0.000785233 -0.000563542 -0.000340404 -0.000115819 9.77433e-05 0.000287814 0.000454393 0.000597481 0.000717077 0.000813181 0.000885794 0.000934915 0.000961263 0.000965556 0.000947793 0.000907976 0.000846103 0.000762174 0.000656191 0.000528152 0.000389784 0.000252814 0.00011724 -1.6936e-05 -0.000149715 -0.000281097 -0.000411082 -0.00053967 -0.000657756 -0.000756235 -0.000835109 -0.000894377 -0.000934038 -0.000954093 -0.000954542 -0.000935385 -0.000901832 -0.000859094 -0.00080717 -0.000746061 -0.000675767 -0.000596287 -0.000507622 -0.000409772 -0.000313732 -0.000230497 -0.000160067 -0.000102443 -5.76242e-05 -2.56107e-05 -6.40269e-06 0 0 -8.63631e-06 -3.45452e-05 -7.77267e-05 -0.000138181 -0.000215908 -0.000310907 -0.000423179 -0.000552724 -0.000683649 -0.000800064 -0.000901968 -0.000989361 -0.00106224 -0.00112061 -0.00116448 -0.00119382 -0.00120185 -0.00118175 -0.00113351 -0.00105714 -0.000952639 -0.000820004 -0.000659237 -0.000470336 -0.000266477 -6.08339e-05 0.000146594 0.000355807 0.000566804 0.000779586 0.000994152 0.0012105 0.00141255 0.00158422 0.0017255 0.00183639 0.00191689 0.00196701 0.00198675 0.0019761 0.0019342 0.00186019 0.00175408 0.00161587 0.00144555 0.00124312 0.00100858 0.000741942 0.000459294 0.000176738 -0.000105728 -0.000388102 -0.000670385 -0.000952577 -0.00123468 -0.00151669 -0.00178198 -0.00201395 -0.00221258 -0.00237789 -0.00250986 -0.00260849 -0.0026738 -0.00270577 -0.00270437 -0.00266954 -0.00260128 -0.0024996 -0.0023645 -0.00219597 -0.00199401 -0.00175863 -0.0015058 -0.00125146 -0.000995642 -0.000738327 -0.000479519 -0.00021922 4.2572e-05 0.000305856 0.000555684 0.000777109 0.000970131 0.00113475 0.00127096 0.00137878 0.00145818 0.00150919 0.00153263 0.00152933 0.0014993 0.00144254 0.00135904 0.00124881 0.00111184 0.000948148 0.00077177 0.00059676 0.00042312 0.000250849 7.99471e-05 -8.95855e-05 -0.000257749 -0.000424543 -0.000578935 -0.000709892 -0.000817415 -0.000901502 -0.000962155 -0.000999373 -0.00101316 -0.00100351 -0.0009763 -0.000937422 -0.00088687 -0.000824646 -0.000750748 -0.000665177 -0.000567933 -0.000459015 -0.000351434 -0.000258196 -0.000179303 -0.000114754 -6.4549e-05 -2.86885e-05 -7.17211e-06 0 0 -9.35934e-06 -3.74374e-05 -8.4234e-05 -0.000149749 -0.000233983 -0.000336936 -0.000458608 -0.000598998 -0.000739702 -0.000862314 -0.000966836 -0.00105327 -0.00112161 -0.00117185 -0.00120401 -0.00121808 -0.00120664 -0.00116229 -0.00108503 -0.000974849 -0.000831757 -0.00065575 -0.000446829 -0.000204994 5.40358e-05 0.000314542 0.000576525 0.000839985 0.00110492 0.00137133 0.00163922 0.00190859 0.00216048 0.00237596 0.00255503 0.00269767 0.00280391 0.00287372 0.00290712 0.00290411 0.00286371 0.00278495 0.00266784 0.00251238 0.00231856 0.00208638 0.00181585 0.00150697 0.00117872 0.00085011 0.000521132 0.000191788 -0.000137922 -0.000467998 -0.00079844 -0.00112925 -0.00144082 -0.00171357 -0.00194747 -0.00214255 -0.00229879 -0.0024162 -0.00249477 -0.00253452 -0.00253534 -0.00249716 -0.00241997 -0.00230378 -0.00214858 -0.00195438 -0.00172118 -0.00144896 -0.00115653 -0.000862643 -0.000567311 -0.000270532 2.76951e-05 0.000327369 0.000628491 0.000931059 0.00121746 0.00147009 0.00168895 0.00187403 0.00202533 0.00214286 0.00222662 0.0022766 0.00229375 0.00227903 0.00223244 0.00215397 0.00204363 0.00190141 0.00172732 0.00152136 0.00130007 0.00108 0.000861156 0.000643529 0.000427124 0.000211939 -2.02469e-06 -0.000214767 -0.000413139 -0.000583988 -0.000727314 -0.000843119 -0.000931401 -0.000992161 -0.0010254 -0.00103111 -0.00101577 -0.000985817 -0.000941265 -0.00088211 -0.000808353 -0.000719993 -0.000617031 -0.000499466 -0.000382403 -0.000280949 -0.000195104 -0.000124866 -7.02373e-05 -3.12166e-05 -7.80415e-06 0 0 -9.90362e-06 -3.96145e-05 -8.91326e-05 -0.000158458 -0.00024759 -0.00035653 -0.000485277 -0.000633831 -0.00078119 -0.000906349 -0.00100931 -0.00109007 -0.00114863 -0.001185 -0.00119916 -0.00119113 -0.00115302 -0.00107694 -0.000962899 -0.000810897 -0.000620933 -0.000393006 -0.000127117 0.000176734 0.000500053 0.000824342 0.0011496 0.00147583 0.00180304 0.00213121 0.00246036 0.00279048 0.00309956 0.00336561 0.00358862 0.00376859 0.00390553 0.00399943 0.00405029 0.00405812 0.00402184 0.00394037 0.00381371 0.00364187 0.00342484 0.00316263 0.00285523 0.00250265 0.00212698 0.00175032 0.00137268 0.000994045 0.000614423 0.000233812 -0.000147787 -0.000530373 -0.000891158 -0.00120735 -0.00147895 -0.00170595 -0.00188836 -0.00202618 -0.0021194 -0.00216803 -0.00217193 -0.00213097 -0.00204514 -0.00191444 -0.00173887 -0.00151844 -0.00125314 -0.00094298 -0.000609726 -0.00027516 6.07178e-05 0.000397908 0.00073641 0.00107623 0.00141735 0.00175979 0.00208308 0.00236677 0.00261085 0.00281532 0.00298018 0.00310544 0.00319109 0.00323713 0.00324464 0.00321466 0.00314721 0.00304228 0.00289987 0.00271999 0.00250263 0.00224779 0.00197469 0.00170254 0.00143135 0.00116111 0.000891815 0.000623476 0.00035609 8.96563e-05 -0.000160367 -0.000378522 -0.000564808 -0.000719226 -0.000841775 -0.000932455 -0.000991267 -0.00101821 -0.00102023 -0.00100428 -0.000970355 -0.000918456 -0.000848583 -0.000760736 -0.000654916 -0.000531123 -0.000406641 -0.000298756 -0.00020747 -0.000132781 -7.46891e-05 -3.31952e-05 -8.29879e-06 0 0 -1.02691e-05 -4.10766e-05 -9.24223e-05 -0.000164306 -0.000256729 -0.000369689 -0.000503188 -0.000657225 -0.000808114 -0.000932169 -0.00102939 -0.00109978 -0.00114333 -0.00116005 -0.00114993 -0.00111298 -0.00104097 -0.000925687 -0.000767125 -0.000565286 -0.000320168 -3.17735e-05 0.000299899 0.000674849 0.00107157 0.00146857 0.00186583 0.00226336 0.00266116 0.00305922 0.00345756 0.00385617 0.00422978 0.00455315 0.00482627 0.00504914 0.00522176 0.00534413 0.00541626 0.00543813 0.00540858 0.00532643 0.00519169 0.00500435 0.00476441 0.00447187 0.00412673 0.003729 0.00330408 0.00287738 0.00244891 0.00201867 0.00158665 0.00115285 0.000717284 0.000279939 -0.000132986 -0.0004953 -0.000807001 -0.00106809 -0.00127857 -0.00143843 -0.00154768 -0.00160632 -0.00161415 -0.00157097 -0.00147678 -0.00133158 -0.00113537 -0.000888148 -0.000589918 -0.000240679 0.000134609 0.000510983 0.000888444 0.00126699 0.00164663 0.00202735 0.00240916 0.00279205 0.00315254 0.00346713 0.00373582 0.00395862 0.00413551 0.00426651 0.00435161 0.00439081 0.00438529 0.00433622 0.00424362 0.00410747 0.00392777 0.00370454 0.00343776 0.00312744 0.00279563 0.00246438 0.0021337 0.00180358 0.00147402 0.00114503 0.000816596 0.000488729 0.00017938 -9.34949e-05 -0.000329896 -0.000529823 -0.000693276 -0.000820256 -0.000910761 -0.000964793 -0.000989695 -0.00099281 -0.000974139 -0.000933681 -0.000871437 -0.000787407 -0.00068159 -0.000553986 -0.000424146 -0.000311617 -0.000216401 -0.000138497 -7.79043e-05 -3.46241e-05 -8.65604e-06 0 0 -1.04559e-05 -4.18237e-05 -9.41032e-05 -0.000167295 -0.000261398 -0.000376413 -0.00051234 -0.000669179 -0.000820475 -0.000939773 -0.00102707 -0.00108238 -0.00110569 -0.001097 -0.00105631 -0.000983625 -0.000870512 -0.000708539 -0.000497707 -0.000238015 7.0537e-05 0.000427949 0.00083422 0.00128935 0.0017686 0.00224721 0.0027252 0.00320255 0.00367928 0.00415537 0.00463083 0.00510566 0.00555116 0.0059386 0.00626798 0.00653932 0.0067526 0.00690783 0.00700501 0.00704414 0.00702395 0.00694316 0.00680178 0.00659981 0.00633725 0.00601409 0.00563035 0.00518601 0.00471001 0.00423129 0.00374983 0.00326566 0.00277876 0.00228913 0.00179677 0.00130169 0.00083369 0.000422581 6.83618e-05 -0.000228967 -0.000469406 -0.000652955 -0.000779614 -0.000849383 -0.000861989 -0.000817161 -0.000714897 -0.0005552 -0.000338067 -6.35001e-05 0.000268502 0.000657938 0.00107648 0.00149579 0.00191587 0.00233672 0.00275834 0.00318074 0.0036039 0.00402784 0.00442584 0.00477118 0.00506388 0.00530393 0.00549132 0.00562607 0.00570817 0.00573761 0.0057157 0.00564371 0.00552166 0.00534953 0.00512733 0.00485506 0.00453272 0.00416031 0.00376288 0.00336552 0.0029682 0.00257095 0.00217374 0.00177659 0.00137949 0.000982449 0.000606102 0.000271093 -2.25779e-05 -0.000274911 -0.000485906 -0.000655564 -0.000783883 -0.000870864 -0.000924156 -0.000951408 -0.000952618 -0.000927787 -0.000876916 -0.000800004 -0.000697051 -0.000568057 -0.000434919 -0.000319532 -0.000221897 -0.000142014 -7.9883e-05 -3.55036e-05 -8.87589e-06 0 0 -1.04639e-05 -4.18557e-05 -9.41754e-05 -0.000167423 -0.000261598 -0.000376702 -0.000512733 -0.000669692 -0.000818271 -0.000929162 -0.00100237 -0.00103788 -0.00103571 -0.000995851 -0.000918304 -0.000803069 -0.000641636 -0.000425494 -0.000154644 0.000170915 0.000551183 0.00098616 0.00147585 0.00202024 0.00259112 0.00316028 0.00372771 0.00429342 0.00485739 0.00541965 0.00598017 0.00653897 0.00706368 0.00752194 0.00791376 0.00823913 0.00849805 0.00869053 0.00881656 0.00887615 0.00886793 0.00879054 0.00864398 0.00842826 0.00814336 0.0077893 0.00736607 0.00687368 0.00634477 0.00581203 0.00527544 0.00473501 0.00419074 0.00364263 0.00309068 0.00253488 0.00200887 0.00154629 0.00114714 0.000811417 0.000539119 0.000330248 0.000184803 0.000102785 8.45508e-05 0.000130458 0.000240507 0.000414697 0.000653028 0.000955501 0.00132212 0.00175287 0.00221588 0.00267925 0.00314299 0.00360709 0.00407156 0.0045364 0.00500159 0.00546716 0.00590297 0.00627892 0.00659502 0.00685124 0.00704761 0.00718412 0.00726077 0.00727755 0.00723587 0.00713713 0.00698133 0.00676846 0.00649854 0.00617155 0.0057875 0.00534639 0.00487646 0.00440595 0.00393487 0.00346321 0.00299098 0.00251817 0.00204478 0.00157082 0.0011198 0.000715243 0.000357146 4.55102e-05 -0.000219665 -0.000438378 -0.000610631 -0.000736423 -0.000823616 -0.000880072 -0.000905792 -0.000900774 -0.000865019 -0.000798528 -0.0007013 -0.000573335 -0.000438959 -0.000322501 -0.000223959 -0.000143334 -8.06252e-05 -3.58334e-05 -8.95835e-06 0 0 -1.01316e-05 -4.05264e-05 -9.11844e-05 -0.000162106 -0.00025329 -0.000364738 -0.000496448 -0.000648422 -0.000788541 -0.000884688 -0.000936861 -0.000945061 -0.000909289 -0.000829543 -0.000705825 -0.000538133 -0.000318105 -3.73765e-05 0.000304053 0.000706182 0.00116901 0.00169254 0.00227677 0.00292171 0.00359544 0.00426606 0.00493358 0.005598 0.00625932 0.00691753 0.00757264 0.00822464 0.00883739 0.00937474 0.00983667 0.0102232 0.0105343 0.01077 0.0109304 0.0110153 0.0110233 0.0109531 0.0108046 0.0105777 0.0102726 0.00988926 0.00942758 0.00888761 0.00830589 0.00771898 0.00712686 0.00652955 0.00592703 0.00531931 0.00470639 0.00408827 0.00350256 0.00298687 0.00254121 0.00216558 0.00185997 0.00162438 0.00145881 0.00136328 0.00133822 0.0013841 0.00150092 0.00168867 0.00194737 0.002277 0.00267757 0.00314907 0.00365595 0.00416263 0.00466912 0.0051754 0.0056815 0.00618739 0.00669309 0.00719859 0.00767025 0.00807444 0.00841114 0.00868036 0.0088821 0.00901635 0.00908313 0.00908243 0.00901575 0.0088846 0.00868899 0.0084289 0.00810435 0.00771534 0.00726185 0.0067439 0.00619303 0.00564079 0.00508717 0.00453218 0.00397583 0.00341809 0.00285899 0.00229852 0.00176323 0.00127971 0.000847936 0.000467923 0.000139666 -0.000136834 -0.000361577 -0.000534564 -0.000663705 -0.000756911 -0.000814181 -0.000835516 -0.000820915 -0.000770379 -0.000683907 -0.0005615 -0.000429898 -0.000315844 -0.000219336 -0.000140375 -7.89609e-05 -3.50937e-05 -8.77343e-06 0 0 -9.29732e-06 -3.71893e-05 -8.36759e-05 -0.000148757 -0.000232433 -0.000334703 -0.000455569 -0.000595028 -0.000718325 -0.000790702 -0.000812159 -0.000782696 -0.000702312 -0.000571009 -0.000388785 -0.000155641 0.000136318 0.000494988 0.00092037 0.00141246 0.00197127 0.00259678 0.00328901 0.00404794 0.00483781 0.00562284 0.00640302 0.00717836 0.00794885 0.0087145 0.00947531 0.0102313 0.0109424 0.0115685 0.0121098 0.0125662 0.0129376 0.0132242 0.0134258 0.0135426 0.0135729 0.0135153 0.0133698 0.0131363 0.012815 0.0124057 0.0119085 0.0113234 0.0106909 0.0100515 0.00940522 0.00875206 0.00809202 0.00742511 0.00675131 0.00607063 0.00542475 0.00485536 0.00436245 0.00394603 0.00360609 0.00334264 0.00315567 0.00304519 0.00301176 0.00305597 0.00317781 0.00337729 0.00365439 0.00400913 0.0044415 0.0049515 0.00549983 0.00604718 0.00659355 0.00713894 0.00768336 0.0082268 0.00876925 0.00931074 0.009814 0.0102418 0.0105942 0.010871 0.0110725 0.0111985 0.011249 0.011224 0.0111253 0.0109542 0.010711 0.0103955 0.0100077 0.00954775 0.00901552 0.00841106 0.00776929 0.00712514 0.0064786 0.00582969 0.00517839 0.00452471 0.00386866 0.00321022 0.00257916 0.00200524 0.00148845 0.00102881 0.000626304 0.000280937 -7.29203e-06 -0.000238382 -0.000420055 -0.00056003 -0.000658307 -0.000714887 -0.00072977 -0.000702955 -0.000634443 -0.000524233 -0.000401366 -0.000294881 -0.000204779 -0.000131058 -7.37203e-05 -3.27646e-05 -8.19114e-06 0 0 -7.96109e-06 -3.18444e-05 -7.16498e-05 -0.000127377 -0.000199027 -0.000286599 -0.000390093 -0.00050951 -0.000607623 -0.000647206 -0.00062826 -0.000550786 -0.000414781 -0.000220248 3.28149e-05 0.000344407 0.000721634 0.0011716 0.00169431 0.00228976 0.00295794 0.00369887 0.00451254 0.00539895 0.00631825 0.00723061 0.00813602 0.00903448 0.00992599 0.0108106 0.0116882 0.0125588 0.0133786 0.0141033 0.0147332 0.015268 0.015708 0.0160529 0.016303 0.0164581 0.0165166 0.0164772 0.0163396 0.016104 0.0157704 0.0153387 0.0148089 0.0141811 0.0134998 0.0128096 0.0121105 0.0114026 0.0106857 0.00996002 0.00922543 0.00848195 0.00777544 0.00715174 0.00661085 0.00615276 0.00577749 0.00548502 0.00527537 0.00514852 0.00510519 0.00514608 0.0052712 0.00548054 0.00577411 0.00615189 0.00661391 0.00716015 0.00774751 0.00833289 0.00891629 0.00949771 0.0100771 0.0106546 0.0112301 0.0118036 0.0123342 0.012781 0.0131441 0.0134233 0.0136188 0.0137304 0.0137583 0.0137024 0.0135644 0.013346 0.0130473 0.0126682 0.0122087 0.0116688 0.0110485 0.0103479 0.00960523 0.008859 0.00810916 0.00735572 0.00659867 0.00583803 0.00507378 0.00430593 0.00356758 0.00289184 0.0022787 0.00172817 0.00124025 0.000814933 0.000452224 0.000152123 -9.26642e-05 -0.000289428 -0.00043817 -0.000538888 -0.000591584 -0.000596257 -0.000552908 -0.000461535 -0.000353363 -0.000259614 -0.000180287 -0.000115384 -6.49034e-05 -2.8846e-05 -7.21149e-06 0 0 -6.12291e-06 -2.44917e-05 -5.51062e-05 -9.79666e-05 -0.000153073 -0.000220425 -0.000300023 -0.000391867 -0.000456433 -0.000454199 -0.000385165 -0.00024933 -4.66953e-05 0.00022274 0.000558976 0.000962