<?xml version="1.0"?> 
<VTKFile type="StructuredGrid" version="0.1"> 
<StructuredGrid WholeExtent="0 128 0 128 0 0"> 
<Piece Extent="0 128 0 128 0 0"> 
<PointData>
<DataArray type="Float32" Name="u" format="ascii" NumberOfComponents="1"> 
0 0 0 0 0 0 0 0 0 0 0 0 0 0 0 0 0 0 0 0 0 0 0 0 0 0 0 0 0 0 0 0 0 0 0 0 0 0 0 0 0 0 0 0 0 0 0 0 0 0 0 0 0 0 0 0 0 0 0 0 0 0 0 0 0 0 0 0 0 0 0 0 0 0 0 0 0 0 0 0 0 0 0 0 0 0 0 0 0 0 0 0 0 0 0 0 0 0 0 0 0 0 0 0 0 0 0 0 0 0 0 0 0 0 0 0 0 0 0 0 0 0 0 0 0 0 0 0 0 0 3.20632e-07 1.28253e-06 2.88569e-06 5.13011e-06 8.01579e-06 1.15427e-05 1.5711e-05 2.05204e-05 2.60643e-05 3.24359e-05 3.9635e-05 4.76617e-05 5.6516e-05 6.6198e-05 7.67075e-05 8.80446e-05 9.99095e-05 0.000112002 0.000124323 0.000136872 0.000149648 0.000162653 0.000175886 0.000189346 0.000202747 0.000215802 0.00022851 0.000240872 0.000252888 0.000264557 0.00027588 0.000286857 0.000297339 0.000307181 0.000316381 0.00032494 0.000332858 0.000340135 0.000346771 0.000352766 0.000358096 0.000362738 0.000366692 0.000369958 0.000372536 0.000374426 0.000375628 0.000376142 0.000376031 0.000375357 0.000374119 0.000372319 0.000369956 0.00036703 0.00036354 0.000359488 0.000354977 0.000350112 0.000344891 0.000339317 0.000333387 0.000327103 0.000320465 0.000313471 0.00030623 0.000298848 0.000291325 0.000283661 0.000275855 0.000267909 0.000259821 0.000251593 0.000243307 0.000235048 0.000226817 0.000218612 0.000210434 0.000202284 0.00019416 0.000186064 0.000178047 0.000170162 0.000162409 0.000154789 0.000147301 0.000139945 0.000132721 0.000125629 0.000118696 0.000111946 0.00010538 9.89971e-05 9.27985e-05 8.67835e-05 8.09524e-05 7.5305e-05 6.98523e-05 6.46054e-05 5.95642e-05 5.47288e-05 5.00991e-05 4.56751e-05 4.14569e-05 3.74445e-05 3.36447e-05 3.00646e-05 2.67042e-05 2.35634e-05 2.06422e-05 1.79408e-05 1.54589e-05 1.31968e-05 1.11431e-05 9.28681e-06 7.62788e-06 6.16632e-06 4.90212e-06 3.83528e-06 2.96581e-06 2.2937e-06 1.75612e-06 1.29021e-06 8.95977e-07 5.73425e-07 3.22552e-07 1.43356e-07 3.58391e-08 0 0 1.28253e-06 5.13011e-06 1.15427e-05 2.05204e-05 3.20632e-05 4.6171e-05 6.28438e-05 8.20817e-05 0.000104257 0.000129743 0.00015854 0.000190647 0.000226064 0.000264792 0.00030683 0.000352178 0.000399638 0.000448009 0.000497293 0.000547487 0.000598594 0.000650612 0.000703542 0.000757384 0.000810989 0.000863208 0.000914042 0.00096349 0.00101155 0.00105823 0.00110352 0.00114743 0.00118936 0.00122872 0.00126552 0.00129976 0.00133143 0.00136054 0.00138708 0.00141106 0.00143238 0.00145095 0.00146677 0.00147983 0.00149014 0.0014977 0.00150251 0.00150457 0.00150412 0.00150143 0.00149648 0.00148928 0.00147982 0.00146812 0.00145416 0.00143795 0.00141991 0.00140045 0.00137957 0.00135727 0.00133355 0.00130841 0.00128186 0.00125389 0.00122492 0.00119539 0.0011653 0.00113464 0.00110342 0.00107164 0.00103929 0.00100637 0.000973228 0.000940193 0.000907267 0.000874448 0.000841738 0.000809135 0.000776641 0.000744255 0.000712187 0.000680648 0.000649638 0.000619156 0.000589203 0.000559779 0.000530884 0.000502517 0.000474783 0.000447783 0.000421518 0.000395989 0.000371194 0.000347134 0.000323809 0.00030122 0.000279409 0.000258421 0.000238257 0.000218915 0.000200396 0.0001827 0.000165828 0.000149778 0.000134579 0.000120258 0.000106817 9.42535e-05 8.2569e-05 7.1763e-05 6.18357e-05 5.27871e-05 4.45724e-05 3.71473e-05 3.05115e-05 2.46653e-05 1.96085e-05 1.53411e-05 1.18632e-05 9.17481e-06 7.02446e-06 5.16083e-06 3.58391e-06 2.2937e-06 1.29021e-06 5.73425e-07 1.43356e-07 0 0 2.88569e-06 1.15427e-05 2.59712e-05 4.6171e-05 7.21421e-05 0.000103885 0.000141399 0.000184684 0.000234579 0.000291923 0.000356715 0.000428955 0.000508644 0.000595782 0.000690367 0.000792402 0.000899186 0.00100802 0.00111891 0.00123185 0.00134684 0.00146388 0.00158297 0.00170411 0.00182473 0.00194222 0.00205659 0.00216785 0.00227599 0.00238102 0.00248292 0.00258171 0.00267605 0.00276463 0.00284743 0.00292446 0.00299573 0.00306122 0.00312094 0.00317489 0.00322286 0.00326464 0.00330023 0.00332962 0.00335282 0.00336984 0.00338065 0.00338528 0.00338428 0.00337821 0.00336707 0.00335087 0.0033296 0.00330327 0.00327186 0.00323539 0.00319479 0.003151 0.00310402 0.00305385 0.00300048 0.00294393 0.00288418 0.00282124 0.00275607 0.00268963 0.00262193 0.00255295 0.0024827 0.00241118 0.00233839 0.00226433 0.00218976 0.00211544 0.00204135 0.00196751 0.00189391 0.00182055 0.00174744 0.00167457 0.00160242 0.00153146 0.00146169 0.0013931 0.00132571 0.0012595 0.00119449 0.00113066 0.00106826 0.00100751 0.000948416 0.000890974 0.000835186 0.000781052 0.000728571 0.000677745 0.000628671 0.000581448 0.000536078 0.000492559 0.000450892 0.000411076 0.000373112 0.000337 0.000302802 0.000270581 0.000240337 0.00021207 0.00018578 0.000161467 0.00013913 0.000118771 0.000100288 8.35813e-05 6.8651e-05 5.54969e-05 4.41191e-05 3.45175e-05 2.66923e-05 2.06433e-05 1.5805e-05 1.16119e-05 8.06379e-06 5.16083e-06 2.90297e-06 1.29021e-06 3.22552e-07 0 0 5.13011e-06 2.05204e-05 4.6171e-05 8.20817e-05 0.000128253 0.000184684 0.000251375 0.000328327 0.00041703 0.000518974 0.00063416 0.000762587 0.000904256 0.00105917 0.00122732 0.00140871 0.00159855 0.00179204 0.00198917 0.00218995 0.00239438 0.00260245 0.00281417 0.00302954 0.00324396 0.00345283 0.00365617 0.00385396 0.00404621 0.00423292 0.00441408 0.00458971 0.00475743 0.00491489 0.0050621 0.00519904 0.00532573 0.00544216 0.00554834 0.00564425 0.00572953 0.0058038 0.00586707 0.00591933 0.00596058 0.00599082 0.00601005 0.00601828 0.0060165 0.00600571 0.00598591 0.00595711 0.00591929 0.00587247 0.00581665 0.00575181 0.00567963 0.00560178 0.00551826 0.00542906 0.00533419 0.00523365 0.00512743 0.00501554 0.00489969 0.00478157 0.0046612 0.00453857 0.00441369 0.00428654 0.00415714 0.00402548 0.00389291 0.00376077 0.00362907 0.00349779 0.00336695 0.00323654 0.00310656 0.00297702 0.00284875 0.00272259 0.00259855 0.00247662 0.00235681 0.00223912 0.00212354 0.00201007 0.00189913 0.00179113 0.00168607 0.00158395 0.00148478 0.00138854 0.00129524 0.00120488 0.00111764 0.00103369 0.000953027 0.00087566 0.000801585 0.000730802 0.000663311 0.000599111 0.000538315 0.000481034 0.000427267 0.000377014 0.000330276 0.000287052 0.000247343 0.000211148 0.00017829 0.000148589 0.000122046 9.86611e-05 7.84339e-05 6.13645e-05 4.74529e-05 3.66992e-05 2.80978e-05 2.06433e-05 1.43356e-05 9.17481e-06 5.16083e-06 2.2937e-06 5.73425e-07 0 0 8.01579e-06 3.20632e-05 7.21421e-05 0.000128253 0.000200395 0.000288569 0.000392774 0.000513011 0.000651609 0.000810896 0.000990874 0.00119154 0.0014129 0.00165495 0.00191769 0.00220112 0.00249774 0.00280006 0.00310808 0.0034218 0.00374121 0.00406633 0.00439714 0.00473365 0.00506868 0.00539505 0.00571276 0.00602181 0.0063222 0.00661393 0.006897 0.00717141 0.00743348 0.00767952 0.00790953 0.00812351 0.00832146 0.00850338 0.00866928 0.00881914 0.00895239 0.00906845 0.0091673 0.00924895 0.0093134 0.00936065 0.00939071 0.00940356 0.00940078 0.00938392 0.00935299 0.00930798 0.0092489 0.00917574 0.00908851 0.0089872 0.00887443 0.00875279 0.00862228 0.00848291 0.00833468 0.00817758 0.00801161 0.00783678 0.00765576 0.00747121 0.00728313 0.00709152 0.00689638 0.00669772 0.00649553 0.00628982 0.00608267 0.00587621 0.00567042 0.0054653 0.00526086 0.0050571 0.00485401 0.00465159 0.00445117 0.00425405 0.00406024 0.00386973 0.00368252 0.00349862 0.00331802 0.00314073 0.00296739 0.00279864 0.00263449 0.00247493 0.00231996 0.00216959 0.00202381 0.00188262 0.00174631 0.00161513 0.0014891 0.00136822 0.00125248 0.00114188 0.00103642 0.000936112 0.000841118 0.000751615 0.000667604 0.000589084 0.000516056 0.000448519 0.000386473 0.000329919 0.000278578 0.00023217 0.000190697 0.000154158 0.000122553 9.5882e-05 7.41452e-05 5.73425e-05 4.39029e-05 3.22552e-05 2.23994e-05 1.43356e-05 8.06379e-06 3.58391e-06 8.95977e-07 0 0 1.15427e-05 4.6171e-05 0.000103885 0.000184684 0.000288569 0.000415539 0.000565594 0.000738736 0.000938316 0.00116769 0.00142686 0.00171582 0.00203458 0.00238313 0.00276147 0.00316961 0.00359674 0.00403209 0.00447563 0.00492739 0.00538735 0.00585551 0.00633188 0.00681646 0.0072989 0.00776887 0.00822638 0.00867141 0.00910397 0.00952406 0.00993169 0.0103268 0.0107042 0.0110585 0.0113897 0.0116979 0.0119829 0.0122449 0.0124838 0.0126996 0.0128914 0.0130586 0.0132009 0.0133185 0.0134113 0.0134793 0.0135226 0.0135411 0.0135371 0.0135128 0.0134683 0.0134035 0.0133184 0.0132131 0.0130875 0.0129416 0.0127792 0.012604 0.0124161 0.0122154 0.0120019 0.0117757 0.0115367 0.011285 0.0110243 0.0107585 0.0104877 0.0102118 0.00993079 0.00964472 0.00935357 0.00905734 0.00875905 0.00846174 0.0081654 0.00787003 0.00757564 0.00728222 0.00698977 0.00669829 0.00640968 0.00612583 0.00584674 0.00557241 0.00530283 0.00503801 0.00477796 0.00452266 0.00427304 0.00403005 0.00379366 0.0035639 0.00334074 0.00312421 0.00291429 0.00271098 0.00251468 0.00232579 0.00214431 0.00197024 0.00180357 0.0016443 0.00149245 0.001348 0.00121121 0.00108233 0.00096135 0.000848281 0.000743121 0.000645867 0.000556522 0.000475084 0.000401152 0.000334325 0.000274604 0.000221987 0.000176476 0.00013807 0.000106769 8.25733e-05 6.32201e-05 4.64475e-05 3.22552e-05 2.06433e-05 1.16119e-05 5.16083e-06 1.29021e-06 0 0 1.5711e-05 6.28438e-05 0.000141399 0.000251375 0.000392774 0.000565594 0.000769837 0.0010055 0.00127715 0.00158936 0.00194211 0.00233542 0.00276929 0.0032437 0.00375867 0.00431419 0.00489557 0.00548812 0.00609183 0.00670672 0.00733278 0.00797 0.00861839 0.00927796 0.00993461 0.0105743 0.011197 0.0118028 0.0123915 0.0129633 0.0135181 0.014056 0.0145696 0.0150519 0.0155027 0.0159221 0.0163101 0.0166666 0.0169918 0.0172855 0.0175467 0.0177742 0.0179679 0.0181279 0.0182543 0.0183469 0.0184058 0.018431 0.0184255 0.0183925 0.0183319 0.0182436 0.0181278 0.0179845 0.0178135 0.0176149 0.0173939 0.0171555 0.0168997 0.0166265 0.016336 0.0160281 0.0157028 0.0153601 0.0150053 0.0146436 0.0142749 0.0138994 0.0135169 0.0131275 0.0127312 0.012328 0.011922 0.0115174 0.011114 0.010712 0.0103113 0.00991191 0.00951385 0.00911712 0.00872429 0.00833794 0.00795806 0.00758466 0.00721774 0.0068573 0.00650333 0.00615584 0.00581609 0.00548534 0.0051636 0.00485086 0.00454712 0.00425239 0.00396667 0.00368994 0.00342276 0.00316566 0.00291865 0.00268171 0.00245485 0.00223808 0.00203139 0.00183478 0.00164859 0.00147317 0.0013085 0.00115461 0.00101147 0.000879097 0.000757488 0.000646642 0.000546012 0.000455054 0.000373766 0.00030215 0.000240204 0.000187929 0.000145325 0.000112391 8.60496e-05 6.32201e-05 4.39029e-05 2.80978e-05 1.5805e-05 7.02446e-06 1.75612e-06 0 0 2.05204e-05 8.20817e-05 0.000184684 0.000328327 0.000513011 0.000738736 0.0010055 0.00131331 0.00166812 0.00207589 0.00253664 0.00305035 0.00361703 0.00423667 0.00490928 0.00563486 0.00639421 0.00716815 0.00795668 0.0087598 0.0095775 0.0104098 0.0112567 0.0121181 0.0129758 0.0138113 0.0146247 0.0154158 0.0161848 0.0169317 0.0176563 0.0183588 0.0190297 0.0196596 0.0202484 0.0207962 0.0213029 0.0217687 0.0221933 0.022577 0.0229181 0.0232152 0.0234683 0.0236773 0.0238423 0.0239633 0.0240402 0.0240731 0.024066 0.0240228 0.0239436 0.0238284 0.0236772 0.0234899 0.0232666 0.0230072 0.0227185 0.0224071 0.022073 0.0217163 0.0213368 0.0209346 0.0205097 0.0200622 0.0195987 0.0191263 0.0186448 0.0181543 0.0176547 0.0171462 0.0166286 0.0161019 0.0155716 0.0150431 0.0145163 0.0139912 0.0134678 0.0129462 0.0124263 0.0119081 0.011395 0.0108904 0.0103942 0.0099065 0.00942725 0.00895647 0.00849414 0.00804028 0.00759652 0.00716453 0.00674429 0.00633582 0.0059391 0.00555415 0.00518095 0.00481952 0.00447055 0.00413474 0.00381211 0.00350264 0.00320634 0.00292321 0.00265324 0.00239645 0.00215326 0.00192413 0.00170907 0.00150806 0.0013211 0.00114821 0.000989372 0.000844593 0.000713159 0.000594356 0.000488185 0.000394644 0.000313736 0.000245458 0.000189812 0.000146797 0.000112391 8.25733e-05 5.73425e-05 3.66992e-05 2.06433e-05 9.17481e-06 2.2937e-06 0 0 2.60968e-05 0.000104387 0.000234871 0.000417548 0.000652419 0.000939484 0.00127874 0.00167019 0.00212114 0.0026389 0.00322346 0.00387482 0.00459299 0.00537796 0.00622974 0.00714832 0.00810947 0.00908894 0.0100867 0.0111028 0.0121373 0.01319 0.0142611 0.0153505 0.016435 0.0174916 0.0185201 0.0195206 0.0204931 0.0214375 0.022354 0.0232424 0.0240909 0.0248876 0.0256324 0.0263254 0.0269665 0.0275558 0.0280933 0.0285789 0.0290107 0.0293869 0.0297074 0.0299722 0.0301814 0.0303349 0.0304328 0.030475 0.0304666 0.0304126 0.030313 0.0301678 0.0299771 0.0297407 0.0294588 0.0291313 0.0287667 0.0283733 0.0279511 0.0275003 0.0270206 0.0265123 0.0259752 0.0254093 0.0248234 0.024226 0.0236171 0.0229968 0.022365 0.0217217 0.021067 0.0204008 0.0197299 0.0190612 0.0183946 0.0177302 0.017068 0.0164078 0.0157499 0.015094 0.0144446 0.0138059 0.0131778 0.0125604 0.0119537 0.0113577 0.0107724 0.0101977 0.00963577 0.00908873 0.00855656 0.00803925 0.0075368 0.00704922 0.00657651 0.00611866 0.00567657 0.00525113 0.00484233 0.00445019 0.00407469 0.00371584 0.00337364 0.00304809 0.00273975 0.00244916 0.00217634 0.00192128 0.00168398 0.00146445 0.00126267 0.00107866 0.00091152 0.000760362 0.000625188 0.000505997 0.000402789 0.000315565 0.000244324 0.000189066 0.000144753 0.000106349 7.38537e-05 4.72664e-05 2.65873e-05 1.18166e-05 2.95415e-06 0 0 3.25656e-05 0.000130262 0.00029309 0.00052105 0.00081414 0.00117236 0.00159571 0.0020842 0.00264616 0.00328997 0.0040156 0.00482307 0.00571238 0.00668352 0.00773649 0.0088713 0.0100581 0.0112672 0.0124985 0.013752 0.0150278 0.0163258 0.017646 0.0189884 0.0203247 0.0216266 0.022894 0.0241269 0.0253253 0.0264893 0.0276188 0.0287139 0.0297598 0.030742 0.0316604 0.032515 0.0333059 0.034033 0.0346963 0.0352959 0.0358294 0.0362942 0.0366906 0.0370184 0.0372776 0.0374683 0.0375905 0.0376441 0.0376353 0.0375703 0.0374491 0.0372717 0.0370381 0.0367483 0.0364022 0.0359999 0.0355517 0.0350681 0.0345488 0.0339941 0.0334038 0.032778 0.0321167 0.0314198 0.030698 0.029962 0.0292117 0.0284472 0.0276684 0.0268753 0.026068 0.0252464 0.0244189 0.023594 0.0227716 0.0219518 0.0211345 0.0203198 0.0195076 0.0186979 0.017896 0.0171073 0.0163316 0.015569 0.0148196 0.0140832 0.0133599 0.0126498 0.0119553 0.0112791 0.0106212 0.00998164 0.00936036 0.00875738 0.00817271 0.00760633 0.00705936 0.0065329 0.00602695 0.0055415 0.00507656 0.00463214 0.00420822 0.00380481 0.00342258 0.00306219 0.00272364 0.00240694 0.00211208 0.00183906 0.00158789 0.00135857 0.00115002 0.000961203 0.000792106 0.000642733 0.000513083 0.000403156 0.000312953 0.000242473 0.000185643 0.000136391 9.4716e-05 6.06182e-05 3.40977e-05 1.51546e-05 3.78864e-06 0 0 3.99269e-05 0.000159708 0.000359342 0.00063883 0.000998172 0.00143737 0.00195642 0.00255532 0.00324318 0.0040291 0.00491307 0.0058951 0.00697518 0.00815333 0.00942953 0.0108038 0.0122402 0.013703 0.015192 0.0167074 0.0182491 0.019817 0.0214113 0.0230319 0.0246449 0.0262164 0.0277463 0.0292347 0.0306816 0.032087 0.0334508 0.0347731 0.0360363 0.0372226 0.0383322 0.039365 0.040321 0.0412002 0.0420026 0.0427282 0.0433741 0.0439373 0.0444178 0.0448157 0.0451309 0.0453634 0.0455132 0.0455804 0.0455723 0.0454962 0.0453522 0.0451402 0.0448603 0.0445125 0.0440967 0.043613 0.0430738 0.0424915 0.0418662 0.0411978 0.0404863 0.0397318 0.0389342 0.0380935 0.0372226 0.0363343 0.0354286 0.0345054 0.0335649 0.0326069 0.0316315 0.0306387 0.0296387 0.0286415 0.0276473 0.0266559 0.0256675 0.0246819 0.0236993 0.0227196 0.0217492 0.0207945 0.0198555 0.0189323 0.0180248 0.0171329 0.0162569 0.0153965 0.014555 0.0137356 0.0129383 0.012163 0.0114098 0.0106786 0.00996954 0.00928253 0.00861892 0.00798006 0.00736595 0.00677659 0.00621197 0.0056721 0.00515697 0.0046666 0.00420174 0.0037632 0.00335095 0.00296502 0.00260538 0.00227205 0.00196503 0.00168431 0.00142867 0.00119688 0.000988938 0.000804851 0.000644616 0.000508232 0.0003957 0.000307019 0.000235061 0.000172698 0.000119929 7.67548e-05 4.31745e-05 1.91887e-05 4.79717e-06 0 0 4.81807e-05 0.000192723 0.000433626 0.00077089 0.00120452 0.0017345 0.00236085 0.00308356 0.00391219 0.00485629 0.00591586 0.0070909 0.00838141 0.0097874 0.0113089 0.0129458 0.0146557 0.0163962 0.0181673 0.0199689 0.0218011 0.0236639 0.0255572 0.0274811 0.0293956 0.031261 0.0330772 0.0348442 0.036562 0.0382306 0.03985 0.0414202 0.0429204 0.0443296 0.045648 0.0468754 0.0480118 0.0490574 0.050012 0.0508757 0.0516449 0.0523161 0.0528892 0.0533642 0.0537412 0.0540202 0.0542011 0.0542839 0.0542774 0.0541901 0.054022 0.0537732 0.0534437 0.0530334 0.0525424 0.0519706 0.0513328 0.0506437 0.0499032 0.0491113 0.0482681 0.0473736 0.0464277 0.0454305 0.0443972 0.0433429 0.0422677 0.0411716 0.0400545 0.0389165 0.0377576 0.0365778 0.0353891 0.0342037 0.0330215 0.0318425 0.0306668 0.0294944 0.0283252 0.0271592 0.0260041 0.0248676 0.0237496 0.0226502 0.0215693 0.0205069 0.0194631 0.0184379 0.017435 0.0164583 0.0155077 0.0145833 0.013685 0.0128129 0.011967 0.0111473 0.0103553 0.00959262 0.00885935 0.00815544 0.0074809 0.00683572 0.0062199 0.00563345 0.00507726 0.0045522 0.00405829 0.00359552 0.0031639 0.00276342 0.00239408 0.00205589 0.00174745 0.00146739 0.00121569 0.000992353 0.000797388 0.000630792 0.000492564 0.000382704 0.000293008 0.000215271 0.000149494 9.5676e-05 5.38177e-05 2.3919e-05 5.97975e-06 0 0 5.73269e-05 0.000229308 0.000515942 0.00091723 0.00143317 0.00206377 0.00280902 0.00366892 0.00465319 0.00577154 0.00702397 0.00841047 0.00993106 0.0115857 0.0133745 0.0152973 0.0173046 0.019347 0.0214243 0.0235366 0.0256839 0.0278662 0.0300835 0.0323358 0.0345768 0.0367604 0.0388865 0.0409551 0.0429663 0.04492 0.0468163 0.0486551 0.0504121 0.0520629 0.0536076 0.0550461 0.0563784 0.0576046 0.0587246 0.0597384 0.0606418 0.0614305 0.0621046 0.0626639 0.0631086 0.0634386 0.063654 0.0637546 0.0637506 0.063652 0.0634587 0.0631708 0.0627883 0.0623111 0.0617393 0.0610728 0.0603288 0.0595245 0.0586598 0.0577347 0.0567493 0.0557035 0.0545973 0.0534308 0.0522217 0.0509878 0.0497291 0.0484456 0.0471373 0.0458042 0.0444463 0.0430636 0.0416703 0.0402805 0.0388943 0.0375117 0.0361326 0.0347571 0.0333851 0.0320167 0.0306608 0.0293265 0.0280138 0.0267227 0.0254532 0.0242052 0.0229788 0.021774 0.0205952 0.0194471 0.0183295 0.0172425 0.0161861 0.0151603 0.0141651 0.0132005 0.0122684 0.0113706 0.0105071 0.00967807 0.00888336 0.008123 0.00739701 0.00670538 0.00604911 0.0054292 0.00484565 0.00429846 0.00378763 0.00331316 0.00287506 0.00247331 0.00210638 0.00177273 0.00147235 0.00120524 0.000971401 0.000770837 0.000603546 0.000469528 0.000359482 0.000264109 0.000183409 0.000117382 6.60273e-05 2.93455e-05 7.33637e-06 0 0 6.73656e-05 0.000269462 0.00060629 0.00107785 0.00168414 0.00242516 0.00330091 0.0043114 0.00546619 0.00677485 0.0082374 0.00985382 0.0116241 0.0135483 0.0156264 0.0178583 0.020187 0.0225552 0.0249631 0.0274105 0.0298975 0.0324241 0.0349903 0.0375961 0.0401885 0.0427146 0.0451743 0.0475677 0.0498947 0.0521554 0.0543498 0.0564778 0.0585114 0.0604225 0.0622111 0.0638772 0.0654207 0.0668418 0.0681403 0.0693163 0.0703648 0.0712807 0.072064 0.0727149 0.0732331 0.0736188 0.073872 0.0739926 0.0739921 0.073882 0.0736623 0.0733329 0.072894 0.0723454 0.0716872 0.0709195 0.0700618 0.069134 0.068136 0.067068 0.0659298 0.0647214 0.063443 0.0620944 0.0606962 0.059269 0.0578127 0.0563275 0.0548132 0.0532699 0.0516975 0.0500962 0.0484822 0.0468721 0.0452658 0.0436634 0.0420648 0.04047 0.0388791 0.037292 0.0357193 0.0341713 0.0326482 0.0311499 0.0296764 0.0282277 0.0268038 0.0254047 0.0240357 0.022702 0.0214037 0.0201407 0.0189131 0.0177208 0.0165639 0.0154423 0.0143582 0.0133139 0.0123093 0.0113445 0.0104193 0.00953395 0.0086883 0.00788238 0.0071173 0.00639418 0.00571302 0.00507382 0.00447657 0.00392128 0.00340795 0.00293657 0.00250546 0.00211291 0.00175892 0.0014435 0.00116665 0.000928366 0.000728645 0.00056749 0.000434485 0.000319213 0.000221676 0.000141873 7.98033e-05 3.54681e-05 8.86703e-06 0 0 7.82968e-05 0.000313187 0.000704671 0.00125275 0.00195742 0.00281868 0.00383654 0.00501099 0.00635118 0.00786623 0.00955615 0.0114209 0.0134606 0.0156751 0.0180645 0.0206288 0.0233027 0.0260209 0.0287836 0.0315905 0.0344418 0.0373375 0.0402776 0.043262 0.0462307 0.0491235 0.0519406 0.0546818 0.0573472 0.0599367 0.0624505 0.0648884 0.0672184 0.0694085 0.0714585 0.0733687 0.0751388 0.076769 0.0782592 0.0796094 0.0808138 0.0818665 0.0827676 0.083517 0.0841147 0.0845607 0.084855 0.0849977 0.0850017 0.08488 0.0846327 0.0842596 0.0837609 0.0831365 0.0823864 0.0815106 0.0805317 0.0794721 0.0783319 0.0771111 0.0758096 0.0744274 0.0729646 0.0714212 0.0698206 0.0681864 0.0665186 0.0648172 0.0630822 0.0613136 0.0595113 0.0576755 0.0558248 0.0539783 0.0521359 0.0502976 0.0484633 0.0466332 0.0448072 0.0429853 0.0411795 0.039402 0.0376527 0.0359317 0.034239 0.0325744 0.0309381 0.0293301 0.0277564 0.0262231 0.0247303 0.0232779 0.0218659 0.0204944 0.0191633 0.0178726 0.0166249 0.0154226 0.0142659 0.0131546 0.0120889 0.0110686 0.0100938 0.00916444 0.00828184 0.00744716 0.00666042 0.0059216 0.00523072 0.00458777 0.00399275 0.00344567 0.00294467 0.00248792 0.00207541 0.00170716 0.00138314 0.00110338 0.000867862 0.000676591 0.000518015 0.000380583 0.000264293 0.000169148 9.51456e-05 4.2287e-05 1.05717e-05 0 0 9.01204e-05 0.000360482 0.000811084 0.00144193 0.00225301 0.00324434 0.0044159 0.00576771 0.00730816 0.00904567 0.0109802 0.0131118 0.0154405 0.0179662 0.020689 0.0236088 0.0266518 0.0297442 0.0328858 0.0360767 0.0393169 0.0426065 0.0459453 0.0493335 0.0527033 0.0559873 0.0591853 0.0622974 0.0653236 0.0682639 0.0711183 0.0738867 0.076533 0.0790207 0.0813499 0.0835205 0.0855326 0.0873862 0.0890812 0.0906177 0.0919889 0.0931881 0.0942152 0.0950703 0.0957533 0.0962643 0.0966032 0.0967701 0.0967795 0.0966461 0.0963699 0.0959508 0.095389 0.0946842 0.0938367 0.0928463 0.0917386 0.090539 0.0892475 0.087864 0.0863887 0.0848215 0.0831623 0.0814113 0.079595 0.0777402 0.0758468 0.0739149 0.0719444 0.0699353 0.0678877 0.0658015 0.0636982 0.0615992 0.0595046 0.0574143 0.0553283 0.0532467 0.0511694 0.0490964 0.0470415 0.0450185 0.0430274 0.0410682 0.0391409 0.0372454 0.0353819 0.0335502 0.0317574 0.0300104 0.0283093 0.026654 0.0250446 0.023481 0.0219633 0.0204914 0.0190683 0.0176968 0.0163769 0.0151086 0.0138919 0.0127268 0.0116134 0.0105516 0.00954271 0.00858813 0.00768783 0.00684181 0.00605008 0.00531264 0.00462948 0.0040006 0.00342402 0.00289776 0.00242182 0.00199619 0.00162088 0.00129588 0.0010212 0.000796831 0.000610074 0.000448218 0.000311262 0.000199208 0.000112054 4.9802e-05 1.24505e-05 0 0 0.000102588 0.000410352 0.000923292 0.00164141 0.0025647 0.00369317 0.00502681 0.00656563 0.00831706 0.0102885 0.01248 0.0148916 0.0175231 0.0203748 0.0234464 0.0267381 0.030167 0.0336501 0.0371876 0.0407793 0.0444254 0.0481257 0.0518804 0.0556893 0.0594772 0.0631686 0.0667636 0.0702622 0.0736644 0.0769701 0.0801794 0.0832923 0.086268 0.089066 0.0916861 0.0941284 0.0963928 0.0984795 0.100388 0.102119 0.103665 0.105017 0.106176 0.107142 0.107914 0.108494 0.10888 0.109073 0.109088 0.108944 0.108638 0.108172 0.107545 0.106757 0.105809 0.1047 0.103458 0.102114 0.100665 0.0991127 0.0974567 0.0956971 0.0938338 0.0918668 0.0898261 0.0877416 0.0856134 0.0834414 0.0812256 0.078966 0.0766627 0.0743156 0.0719489 0.0695867 0.067229 0.0648758 0.0625272 0.060183 0.0578434 0.0555084 0.0531933 0.050914 0.0486703 0.0464622 0.0442897 0.0421529 0.0400518 0.0379863 0.0359643 0.0339938 0.0320748 0.0302073 0.0283913 0.0266267 0.0249136 0.0232519 0.021645 0.0200961 0.0186052 0.0171723 0.0157973 0.0144803 0.0132214 0.0120204 0.0108788 0.00979818 0.00877839 0.00781948 0.00692145 0.00608429 0.00530802 0.00459262 0.003936 0.00333605 0.00279277 0.00230616 0.00187621 0.00150294 0.00118634 0.000926401 0.000709275 0.0005211 0.000361875 0.0002316 0.000130275 5.79e-05 1.4475e-05 0 0 0.000115451 0.000461803 0.00103906 0.00184721 0.00288627 0.00415623 0.00565709 0.00738885 0.00935778 0.0115701 0.0140259 0.0167252 0.0196678 0.0228539 0.0262834 0.0299564 0.0337806 0.0376641 0.0416068 0.0456086 0.0496697 0.05379 0.0579695 0.0622082 0.0664228 0.0705303 0.0745306 0.0784238 0.0822097 0.0858884 0.08946 0.0929243 0.0962364 0.099351 0.102268 0.104988 0.10751 0.109835 0.111962 0.113892 0.115616 0.117125 0.118419 0.119499 0.120363 0.121013 0.121448 0.121668 0.121692 0.121536 0.121201 0.120688 0.119995 0.119124 0.118073 0.116844 0.115467 0.113975 0.112367 0.110643 0.108803 0.106848 0.104777 0.10259 0.100321 0.0980022 0.0956346 0.0932178 0.0907519 0.0882368 0.0856725 0.0830592 0.0804235 0.0777925 0.0751661 0.0725444 0.0699274 0.067315 0.0647072 0.0621041 0.059523 0.0569814 0.0544792 0.0520165 0.0495931 0.0472092 0.0448648 0.0425597 0.040303 0.0381035 0.0359612 0.033876 0.031848 0.0298773 0.0279637 0.0261072 0.0243117 0.0225805 0.0209139 0.0193117 0.0177739 0.0163007 0.0148918 0.0135475 0.0122692 0.0110584 0.00991522 0.00883961 0.00783159 0.00689114 0.00601827 0.00521298 0.00447308 0.00379639 0.0031829 0.00263261 0.00214552 0.00172164 0.00136096 0.00106349 0.000814234 0.000598213 0.000415426 0.000265872 0.000149553 6.64681e-05 1.6617e-05 0 0 0.000128709 0.000514836 0.00115838 0.00205934 0.00321772 0.00463352 0.00630674 0.00823737 0.0104303 0.0128905 0.0156179 0.0186126 0.0218745 0.0254036 0.0292 0.0332636 0.0374928 0.0417861 0.0461434 0.0505646 0.05505 0.0595993 0.0642127 0.06889 0.0735403 0.0780724 0.0824863 0.086782 0.0909596 0.0950189 0.09896 0.102783 0.106438 0.109876 0.113096 0.116099 0.118885 0.121453 0.123803 0.125937 0.127843 0.129513 0.130945 0.132141 0.1331 0.133823 0.134309 0.134557 0.134589 0.134423 0.13406 0.133499 0.13274 0.131784 0.13063 0.129279 0.127765 0.126123 0.124353 0.122455 0.120428 0.118274 0.115991 0.113581 0.111079 0.108522 0.10591 0.103244 0.100523 0.0977475 0.0949172 0.0920321 0.089122 0.0862167 0.083316 0.0804201 0.0775289 0.0746425 0.0717607 0.0688837 0.0660306 0.0632208 0.0604543 0.0577311 0.0550511 0.0524143 0.0498208 0.0472706 0.0447735 0.0423394 0.0399682 0.0376601 0.0354149 0.0332328 0.0311136 0.0290574 0.0270682 0.02515 0.0233029 0.0215268 0.0198218 0.0181878 0.0166248 0.0151329 0.0137136 0.0123688 0.0110983 0.00990222 0.00878051 0.00773319 0.00676025 0.00586168 0.00503527 0.00427878 0.0035922 0.00297554 0.00242881 0.00195199 0.00154508 0.0012081 0.000924951 0.000679556 0.000471914 0.000302025 0.000169889 7.55062e-05 1.88765e-05 0 0 0.000142362 0.000569449 0.00128126 0.0022778 0.00355906 0.00512504 0.00697575 0.00911118 0.0115347 0.0142497 0.0172561 0.0205539 0.0241432 0.028024 0.0321962 0.0366598 0.0413036 0.0460161 0.0507973 0.0556473 0.0605661 0.0655536 0.0706099 0.075735 0.0808297 0.0857949 0.0906307 0.0953371 0.099914 0.104361 0.108679 0.112868 0.116873 0.12064 0.12417 0.127462 0.130516 0.133333 0.135912 0.138253 0.140345 0.142179 0.143754 0.145069 0.146125 0.146923 0.147461 0.14774 0.147781 0.147605 0.147213 0.146605 0.14578 0.144738 0.14348 0.142005 0.140352 0.138558 0.136623 0.134548 0.132332 0.129975 0.127477 0.124839 0.1221 0.1193 0.116441 0.11352 0.11054 0.107498 0.104397 0.101234 0.0980445 0.0948592 0.0916787 0.0885029 0.0853318 0.0821655 0.0790039 0.075847 0.0727161 0.0696323 0.0665956 0.063606 0.0606635 0.0577682 0.0549199 0.0521188 0.0493757 0.0467014 0.0440961 0.0415596 0.0390919 0.0366932 0.0343633 0.0321023 0.0299146 0.0278046 0.0257723 0.0238178 0.0219409 0.0201417 0.0184203 0.0167765 0.0152123 0.0137293 0.0123277 0.0110073 0.00976822 0.00861043 0.00753393 0.00653872 0.00562256 0.00478322 0.00402068 0.00333497 0.00272606 0.00219397 0.00173869 0.00136023 0.00104142 0.000765128 0.000531339 0.000340057 0.000191282 8.50143e-05 2.12536e-05 0 0 0.000156411 0.000625644 0.0014077 0.00250257 0.00391027 0.00563079 0.00766413 0.0100103 0.0126709 0.0156476 0.0189403 0.0225491 0.026474 0.0307149 0.0352719 0.040145 0.0452128 0.050354 0.0555687 0.0608567 0.0662182 0.071653 0.0771613 0.0827429 0.0882908 0.0936978 0.0989638 0.104089 0.109073 0.113916 0.118618 0.12318 0.127541 0.131645 0.13549 0.139076 0.142405 0.145475 0.148286 0.15084 0.153123 0.155125 0.156844 0.158282 0.159438 0.160312 0.160905 0.161215 0.161266 0.161082 0.160662 0.160006 0.159114 0.157986 0.156622 0.155022 0.153228 0.15128 0.149178 0.146923 0.144514 0.141951 0.139235 0.136365 0.133385 0.130338 0.127225 0.124046 0.120801 0.117489 0.114111 0.110666 0.107191 0.10372 0.100254 0.0967927 0.0933361 0.0898841 0.0864368 0.0829942 0.0795794 0.0762157 0.072903 0.0696412 0.0664305 0.0632708 0.0601621 0.0571044 0.0541096 0.0511897 0.0483447 0.0455744 0.0428791 0.0402586 0.0377129 0.0352421 0.0328509 0.0305443 0.0283221 0.0261844 0.0241312 0.0221625 0.0202782 0.0184785 0.0167651 0.0151401 0.0136033 0.0121549 0.0107947 0.00952287 0.00833933 0.0072441 0.00623496 0.0053097 0.00446834 0.00371087 0.00303729 0.0024476 0.00194179 0.00151988 0.00116366 0.000854931 0.000593702 0.000379969 0.000213733 9.49923e-05 2.37481e-05 0 0 0.000170855 0.000683419 0.00153769 0.00273368 0.00427137 0.00615077 0.00837189 0.0109347 0.0138389 0.0170843 0.0206707 0.0245982 0.0288668 0.0334765 0.0384273 0.0437192 0.0492206 0.0548 0.0604574 0.0661928 0.0720061 0.0778974 0.0838667 0.0899139 0.0959238 0.101781 0.107486 0.113037 0.118436 0.123683 0.128777 0.133718 0.138443 0.142889 0.147055 0.150942 0.15455 0.157879 0.160928 0.163699 0.166177 0.16835 0.170218 0.171781 0.173039 0.173992 0.17464 0.174984 0.175046 0.174854 0.174405 0.173702 0.172742 0.171527 0.170056 0.16833 0.166393 0.164288 0.162017 0.159579 0.156974 0.154202 0.151263 0.148158 0.144933 0.141635 0.138265 0.134822 0.131307 0.12772 0.12406 0.120327 0.116561 0.112799 0.109042 0.10529 0.101542 0.0977983 0.0940594 0.0903252 0.0866207 0.0829711 0.0793765 0.0758368 0.072352 0.0689222 0.0655473 0.0622274 0.0589753 0.0558042 0.052714 0.0497047 0.0467763 0.0439289 0.0411623 0.0384766 0.0358771 0.033369 0.0309522 0.0286268 0.0263927 0.02425 0.0221987 0.0202387 0.0183721 0.016601 0.0149252 0.0133449 0.01186 0.0104705 0.00917645 0.00797781 0.00687245 0.00585824 0.00493518 0.00410326 0.00336249 0.00271286 0.00215438 0.00168705 0.00129165 0.000948964 0.000659003 0.000421762 0.000237241 0.00010544 2.63601e-05 0 0 0.000185694 0.000742776 0.00167125 0.00297111 0.00464235 0.00668499 0.009