<?xml version="1.0"?> 
<VTKFile type="StructuredGrid" version="0.1"> 
<StructuredGrid WholeExtent="0 128 0 128 0 0"> 
<Piece Extent="0 128 0 128 0 0"> 
<PointData>
<DataArray type="Float32" Name="u" format="ascii" NumberOfComponents="1"> 
0 0 0 0 0 0 0 0 0 0 0 0 0 0 0 0 0 0 0 0 0 0 0 0 0 0 0 0 0 0 0 0 0 0 0 0 0 0 0 0 0 0 0 0 0 0 0 0 0 0 0 0 0 0 0 0 0 0 0 0 0 0 0 0 0 0 0 0 0 0 0 0 0 0 0 0 0 0 0 0 0 0 0 0 0 0 0 0 0 0 0 0 0 0 0 0 0 0 0 0 0 0 0 0 0 0 0 0 0 0 0 0 0 0 0 0 0 0 0 0 0 0 0 0 0 0 0 0 0 0 2.08772e-07 8.3509e-07 1.87895e-06 3.34036e-06 5.21931e-06 7.51581e-06 1.02299e-05 1.33614e-05 1.69712e-05 2.11196e-05 2.58068e-05 3.10327e-05 3.67974e-05 4.31008e-05 4.99429e-05 5.73238e-05 6.50474e-05 7.29177e-05 8.09349e-05 8.90988e-05 9.74094e-05 0.000105867 0.000114471 0.000123222 0.000131936 0.000140429 0.000148701 0.000156752 0.000164582 0.000172191 0.000179579 0.000186746 0.000193603 0.000200062 0.000206122 0.000211782 0.000217045 0.000221908 0.000226372 0.000230438 0.000234096 0.000237336 0.000240159 0.000242564 0.000244553 0.000246124 0.000247278 0.000248014 0.000248373 0.000248397 0.000248083 0.000247433 0.000246447 0.000245124 0.000243465 0.00024147 0.000239197 0.000236707 0.000233998 0.000231073 0.000227929 0.000224568 0.000220989 0.000217192 0.000213233 0.000209167 0.000204994 0.000200713 0.000196326 0.000191831 0.000187229 0.00018252 0.000177744 0.000172942 0.000168113 0.000163258 0.000158376 0.000153467 0.000148532 0.00014357 0.000138608 0.000133671 0.000128758 0.00012387 0.000119007 0.000114169 0.000109356 0.000104568 9.98232e-05 9.51399e-05 9.05182e-05 8.59581e-05 8.14596e-05 7.70227e-05 7.26475e-05 6.83338e-05 6.41019e-05 5.9972e-05 5.5944e-05 5.20179e-05 4.81938e-05 4.44717e-05 4.08514e-05 3.73332e-05 3.39443e-05 3.07125e-05 2.76376e-05 2.47196e-05 2.19587e-05 1.93547e-05 1.69076e-05 1.46175e-05 1.24991e-05 1.05669e-05 8.82101e-06 7.26138e-06 5.88803e-06 4.70094e-06 3.70013e-06 2.8856e-06 2.20929e-06 1.62315e-06 1.12719e-06 7.21399e-07 4.05787e-07 1.8035e-07 4.50875e-08 0 0 8.3509e-07 3.34036e-06 7.51581e-06 1.33614e-05 2.08772e-05 3.00632e-05 4.09194e-05 5.34457e-05 6.78847e-05 8.44785e-05 0.000103227 0.000124131 0.00014719 0.000172403 0.000199772 0.000229295 0.000260189 0.000291671 0.000323739 0.000356395 0.000389638 0.000423467 0.000457884 0.000492888 0.000527744 0.000561715 0.000594803 0.000627007 0.000658327 0.000688764 0.000718316 0.000746985 0.000774414 0.000800248 0.000824486 0.00084713 0.000868178 0.000887631 0.000905489 0.000921752 0.000936382 0.000949343 0.000960635 0.000970258 0.000978211 0.000984495 0.00098911 0.000992056 0.000993494 0.000993586 0.000992333 0.000989733 0.000985788 0.000980497 0.000973861 0.000965878 0.000956788 0.000946826 0.000935994 0.00092429 0.000911716 0.000898272 0.000883956 0.00086877 0.000852933 0.000836669 0.000819976 0.000802854 0.000785303 0.000767324 0.000748917 0.000730081 0.000710977 0.000691768 0.000672452 0.00065303 0.000633502 0.000613868 0.000594128 0.000574282 0.000554432 0.000534682 0.000515032 0.000495481 0.000476029 0.000456677 0.000437425 0.000418272 0.000399293 0.00038056 0.000362073 0.000343832 0.000325838 0.000308091 0.00029059 0.000273335 0.000256408 0.000239888 0.000223776 0.000208072 0.000192775 0.000177887 0.000163406 0.000149333 0.000135777 0.00012285 0.00011055 9.88785e-05 8.78346e-05 7.74186e-05 6.76305e-05 5.84702e-05 4.99964e-05 4.22677e-05 3.52841e-05 2.90455e-05 2.35521e-05 1.88038e-05 1.48005e-05 1.15424e-05 8.83714e-06 6.49259e-06 4.50875e-06 2.8856e-06 1.62315e-06 7.21399e-07 1.8035e-07 0 0 1.87895e-06 7.51581e-06 1.69106e-05 3.00632e-05 4.69738e-05 6.76423e-05 9.20687e-05 0.000120253 0.00015274 0.000190077 0.000232261 0.000279295 0.000331177 0.000387907 0.000449486 0.000515914 0.000585426 0.00065626 0.000728414 0.000801889 0.000876685 0.000952802 0.00103024 0.001109 0.00118742 0.00126386 0.00133831 0.00141077 0.00148124 0.00154972 0.00161621 0.00168072 0.00174243 0.00180056 0.00185509 0.00190604 0.0019534 0.00199717 0.00203735 0.00207394 0.00210686 0.00213602 0.00216143 0.00218308 0.00220097 0.00221511 0.0022255 0.00223213 0.00223536 0.00223557 0.00223275 0.0022269 0.00221802 0.00220612 0.00219119 0.00217323 0.00215277 0.00213036 0.00210599 0.00207965 0.00205136 0.00202111 0.0019889 0.00195473 0.0019191 0.0018825 0.00184494 0.00180642 0.00176693 0.00172648 0.00168506 0.00164268 0.0015997 0.00155648 0.00151302 0.00146932 0.00142538 0.0013812 0.00133679 0.00129213 0.00124747 0.00120303 0.00115882 0.00111483 0.00107107 0.00102752 0.000984207 0.000941113 0.000898409 0.000856259 0.000814664 0.000773623 0.000733136 0.000693204 0.000653827 0.000615004 0.000576917 0.000539748 0.000503496 0.000468162 0.000433745 0.000400245 0.000367663 0.000335998 0.000305499 0.000276412 0.000248738 0.000222477 0.000197628 0.000174192 0.000152169 0.000131558 0.000112492 9.51023e-05 7.93891e-05 6.53525e-05 5.29922e-05 4.23085e-05 3.33012e-05 2.59704e-05 1.98836e-05 1.46083e-05 1.01447e-05 6.49259e-06 3.65208e-06 1.62315e-06 4.05787e-07 0 0 3.34036e-06 1.33614e-05 3.00632e-05 5.34457e-05 8.3509e-05 0.000120253 0.000163678 0.000213783 0.000271539 0.000337914 0.000412909 0.000496524 0.000588758 0.000689613 0.000799086 0.00091718 0.00104076 0.00116668 0.00129496 0.00142558 0.00155855 0.00169387 0.00183154 0.00197155 0.00211097 0.00224686 0.00237921 0.00250803 0.00263331 0.00275505 0.00287326 0.00298794 0.00309766 0.00320099 0.00329795 0.00338852 0.00347271 0.00355053 0.00362196 0.00368701 0.00374553 0.00379737 0.00384254 0.00388103 0.00391284 0.00393798 0.00395644 0.00396822 0.00397398 0.00397434 0.00396933 0.00395893 0.00394315 0.00392199 0.00389544 0.00386351 0.00382715 0.0037873 0.00374397 0.00369716 0.00364687 0.00359309 0.00353582 0.00347508 0.00341173 0.00334668 0.0032799 0.00321141 0.00314121 0.0030693 0.00299567 0.00292032 0.00284391 0.00276707 0.00268981 0.00261212 0.00253401 0.00245547 0.00237651 0.00229713 0.00221773 0.00213873 0.00206013 0.00198192 0.00190412 0.00182671 0.0017497 0.00167309 0.00159717 0.00152224 0.00144829 0.00137533 0.00130335 0.00123236 0.00116236 0.00109334 0.00102563 0.000959552 0.000895104 0.000832287 0.000771101 0.000711547 0.000653623 0.000597331 0.000543109 0.000491399 0.000442201 0.000395514 0.000351339 0.000309675 0.000270522 0.000233881 0.000199986 0.000169071 0.000141136 0.000116182 9.42084e-05 7.52151e-05 5.92021e-05 4.61696e-05 3.53486e-05 2.59704e-05 1.8035e-05 1.15424e-05 6.49259e-06 2.8856e-06 7.21399e-07 0 0 5.21931e-06 2.08772e-05 4.69738e-05 8.3509e-05 0.000130483 0.000187895 0.000255746 0.000334036 0.000424279 0.000527991 0.00064517 0.000775818 0.000919935 0.00107752 0.00124857 0.00143309 0.00162618 0.00182294 0.00202337 0.00222747 0.00243524 0.00264667 0.00286178 0.00308055 0.0032984 0.00351072 0.00371752 0.00391879 0.00411454 0.00430477 0.00448948 0.00466865 0.00484009 0.00500155 0.00515304 0.00529456 0.00542611 0.0055477 0.00565931 0.00576095 0.00585239 0.0059334 0.00600397 0.00606411 0.00611382 0.0061531 0.00618194 0.00620035 0.00620934 0.00620991 0.00620208 0.00618583 0.00616118 0.00612811 0.00608663 0.00603674 0.00597992 0.00591766 0.00584996 0.00577682 0.00569823 0.0056142 0.00552473 0.00542981 0.00533083 0.00522918 0.00512485 0.00501784 0.00490815 0.00479578 0.00468073 0.004563 0.00444361 0.00432355 0.00420283 0.00408144 0.00395939 0.00383668 0.0037133 0.00358926 0.0034652 0.00334176 0.00321895 0.00309675 0.00297518 0.00285423 0.00273391 0.0026142 0.00249558 0.0023785 0.00226295 0.00214895 0.00203649 0.00192557 0.00181619 0.00170835 0.00160255 0.0014993 0.0013986 0.00130045 0.00120485 0.00111179 0.00102129 0.000933329 0.000848608 0.000767812 0.000690939 0.000617991 0.000548966 0.000483866 0.00042269 0.000365439 0.000312477 0.000264173 0.000220525 0.000181535 0.000147201 0.000117524 9.25033e-05 7.21399e-05 5.52321e-05 4.05787e-05 2.81797e-05 1.8035e-05 1.01447e-05 4.50875e-06 1.12719e-06 0 0 7.51581e-06 3.00632e-05 6.76423e-05 0.000120253 0.000187895 0.000270569 0.000368275 0.000481012 0.000610962 0.000760306 0.000929045 0.00111718 0.00132471 0.00155163 0.00179794 0.00206366 0.00234171 0.00262504 0.00291366 0.00320756 0.00350674 0.00381121 0.00412096 0.00443599 0.00474969 0.00505544 0.00535323 0.00564306 0.00592494 0.00619887 0.00646484 0.00672286 0.00696972 0.00720223 0.00742038 0.00762417 0.0078136 0.00798868 0.0081494 0.00829577 0.00842744 0.00854409 0.00864572 0.00873232 0.0088039 0.00886046 0.00890199 0.0089285 0.00894144 0.00894227 0.00893099 0.0089076 0.00887209 0.00882448 0.00876475 0.0086929 0.00861109 0.00852143 0.00842394 0.00831861 0.00820545 0.00808445 0.0079556 0.00781893 0.0076764 0.00753002 0.00737978 0.00722568 0.00706773 0.00690592 0.00674025 0.00657073 0.0063988 0.00622591 0.00605207 0.00587727 0.00570152 0.00552481 0.00534715 0.00516854 0.00498989 0.00481214 0.00463528 0.00445933 0.00428426 0.0041101 0.00393683 0.00376445 0.00359363 0.00342504 0.00325865 0.00309449 0.00293255 0.00277282 0.00261531 0.00246002 0.00230767 0.00215899 0.00201398 0.00187265 0.00173498 0.00160098 0.00147065 0.00134399 0.001222 0.00110565 0.000994952 0.000889907 0.000790512 0.000696768 0.000608674 0.000526232 0.000449967 0.000380409 0.000317557 0.00026141 0.000211969 0.000169234 0.000133205 0.000103882 7.95343e-05 5.84333e-05 4.05787e-05 2.59704e-05 1.46083e-05 6.49259e-06 1.62315e-06 0 0 1.02299e-05 4.09194e-05 9.20687e-05 0.000163678 0.000255746 0.000368275 0.000501263 0.00065471 0.000831587 0.00103486 0.00126453 0.0015206 0.00180307 0.00211194 0.0024472 0.00280886 0.00318732 0.00357297 0.00396581 0.00436584 0.00477306 0.00518748 0.00560908 0.00603788 0.00646486 0.00688101 0.00728634 0.00768084 0.00806451 0.00843735 0.00879937 0.00915056 0.00948657 0.00980304 0.0101 0.0103773 0.0106352 0.0108735 0.0110922 0.0112915 0.0114707 0.0116295 0.0117678 0.0118857 0.0119831 0.0120601 0.0121166 0.0121527 0.0121703 0.0121714 0.0121561 0.0121242 0.0120759 0.0120111 0.0119298 0.011832 0.0117206 0.0115986 0.0114659 0.0113226 0.0111685 0.0110038 0.0108285 0.0106424 0.0104484 0.0102492 0.0100447 0.00983496 0.00961997 0.00939972 0.00917423 0.00894349 0.00870947 0.00847416 0.00823754 0.00799962 0.0077604 0.00751989 0.00727807 0.00703495 0.00679179 0.00654986 0.00630914 0.00606964 0.00583136 0.0055943 0.00535846 0.00512384 0.00489134 0.00466185 0.00443539 0.00421195 0.00399152 0.00377411 0.00355973 0.00334836 0.00314099 0.00293863 0.00274126 0.00254888 0.0023615 0.00217911 0.00200172 0.00182932 0.00166327 0.00150491 0.00135424 0.00121126 0.00107597 0.000948378 0.000828473 0.00071626 0.000612456 0.000517779 0.00043223 0.000355808 0.000288513 0.000230346 0.000181307 0.000141394 0.000108255 7.95343e-05 5.52321e-05 3.53486e-05 1.98836e-05 8.83714e-06 2.20929e-06 0 0 1.33614e-05 5.34457e-05 0.000120253 0.000213783 0.000334036 0.000481012 0.00065471 0.000855132 0.00108615 0.00135166 0.00165164 0.0019861 0.00235503 0.00275845 0.00319635 0.00366872 0.00416303 0.00466673 0.00517983 0.00570232 0.0062342 0.00677548 0.00732615 0.00788621 0.0084439 0.00898744 0.00951685 0.0100321 0.0105332 0.0110202 0.0114931 0.0119518 0.0123906 0.012804 0.0131918 0.0135541 0.0138909 0.0142021 0.0144878 0.014748 0.0149821 0.0151895 0.0153702 0.0155241 0.0156514 0.0157519 0.0158258 0.0158729 0.0158959 0.0158974 0.0158773 0.0158357 0.0157726 0.015688 0.0155818 0.0154541 0.0153086 0.0151492 0.0149759 0.0147886 0.0145875 0.0143723 0.0141433 0.0139003 0.0136469 0.0133867 0.0131196 0.0128457 0.0125649 0.0122772 0.0119827 0.0116813 0.0113756 0.0110683 0.0107592 0.0104485 0.010136 0.00982189 0.00950605 0.00918851 0.00887091 0.00855491 0.00824051 0.00792769 0.00761647 0.00730684 0.0069988 0.00669236 0.00638868 0.00608895 0.00579316 0.00550132 0.00521341 0.00492945 0.00464944 0.00437336 0.00410252 0.00383821 0.00358042 0.00332915 0.00308441 0.00284619 0.00261449 0.00238932 0.00217244 0.0019656 0.0017688 0.00158206 0.00140535 0.0012387 0.00108209 0.000935523 0.000799942 0.000676283 0.000564545 0.000464729 0.000376834 0.00030086 0.000236809 0.000184678 0.000141394 0.000103882 7.21399e-05 4.61696e-05 2.59704e-05 1.15424e-05 2.8856e-06 0 0 1.6997e-05 6.79882e-05 0.000152973 0.000271953 0.000424926 0.000611894 0.000832855 0.00108781 0.00138151 0.0017187 0.00209938 0.00252356 0.00299122 0.00350238 0.00405703 0.00465517 0.00528095 0.00591854 0.00656792 0.0072291 0.00790208 0.00858685 0.00928343 0.0099918 0.0106971 0.0113846 0.0120542 0.0127059 0.0133398 0.0139558 0.0145539 0.0151342 0.0156894 0.0162123 0.016703 0.0171615 0.0175877 0.0179816 0.0183433 0.0186728 0.0189693 0.0192319 0.0194608 0.019656 0.0198174 0.019945 0.0200388 0.0200989 0.0201284 0.0201307 0.0201058 0.0200536 0.0199742 0.0198675 0.0197335 0.0195723 0.0193887 0.0191874 0.0189685 0.0187318 0.0184776 0.0182057 0.0179161 0.0176089 0.0172885 0.0169594 0.0166215 0.016275 0.0159198 0.0155558 0.0151832 0.0148018 0.014415 0.014026 0.0136349 0.0132416 0.0128461 0.0124484 0.0120486 0.0116466 0.0112445 0.0108444 0.0104463 0.0100502 0.00965609 0.00926401 0.00887393 0.00848585 0.00810127 0.00772168 0.00734707 0.00697745 0.00661282 0.00625317 0.00589851 0.00554884 0.00520578 0.00487098 0.00454442 0.00422612 0.00391607 0.00361426 0.00332071 0.00303541 0.00276057 0.00249842 0.00224895 0.00201217 0.00178807 0.00157666 0.00137793 0.00119188 0.00101971 0.000862614 0.000720588 0.000593634 0.000481751 0.00038494 0.0003032 0.000236531 0.000181094 0.000133049 9.2395e-05 5.91328e-05 3.32622e-05 1.47832e-05 3.6958e-06 0 0 2.12232e-05 8.48926e-05 0.000191008 0.00033957 0.000530579 0.000764033 0.00103993 0.00135828 0.0017245 0.002144 0.0026168 0.00314289 0.00372227 0.00435494 0.0050409 0.00578015 0.00655321 0.00734058 0.00814227 0.00895828 0.0097886 0.0106332 0.0114922 0.0123655 0.0132349 0.0140824 0.0149079 0.0157114 0.0164929 0.0172524 0.01799 0.0187056 0.0193903 0.0200354 0.0206409 0.0212067 0.0217328 0.0222192 0.022666 0.0230731 0.0234396 0.0237645 0.0240478 0.0242895 0.0244896 0.0246481 0.024765 0.0248404 0.0248781 0.0248821 0.0248526 0.0247893 0.0246925 0.024562 0.0243979 0.0242002 0.0239747 0.0237274 0.0234582 0.0231671 0.0228542 0.0225195 0.0221629 0.0217844 0.0213896 0.020984 0.0205675 0.0201402 0.0197021 0.0192531 0.0187933 0.0183227 0.0178453 0.0173651 0.0168822 0.0163966 0.0159082 0.015417 0.0149231 0.0144264 0.0139296 0.0134352 0.0129433 0.0124538 0.0119667 0.0114821 0.0109999 0.0105202 0.0100447 0.00957538 0.00911221 0.00865519 0.00820432 0.00775959 0.00732101 0.00688858 0.0064643 0.00605019 0.00564624 0.00525246 0.00486885 0.0044954 0.00413212 0.00377901 0.00343876 0.00311409 0.002805 0.00251148 0.00223355 0.00197118 0.0017244 0.00149319 0.00127905 0.00108347 0.000906445 0.000747986 0.000608086 0.000486747 0.000383969 0.000299751 0.000229497 0.00016861 0.00011709 7.49377e-05 4.21525e-05 1.87344e-05 4.68361e-06 0 0 2.60398e-05 0.000104159 0.000234358 0.000416636 0.000650994 0.000937431 0.00127595 0.00166654 0.00211512 0.00262757 0.0032039 0.0038441 0.00454818 0.00531613 0.00614797 0.00704368 0.0079798 0.00893287 0.00990289 0.0108899 0.0118938 0.0129146 0.0139524 0.0150072 0.0160572 0.0170807 0.0180778 0.0190484 0.0199925 0.0209101 0.0218013 0.022666 0.0234935 0.0242733 0.0250054 0.0256896 0.0263261 0.0269148 0.0274558 0.027949 0.0283932 0.0287872 0.0291311 0.0294247 0.0296682 0.0298614 0.0300045 0.0300974 0.0301448 0.0301515 0.0301176 0.030043 0.0299277 0.0297717 0.029575 0.0293376 0.0290666 0.0287691 0.028445 0.0280945 0.0277174 0.0273137 0.0268836 0.0264269 0.0259503 0.0254605 0.0249575 0.0244413 0.0239118 0.0233691 0.0228131 0.022244 0.0216665 0.0210856 0.0205013 0.0199135 0.0193223 0.0187277 0.0181296 0.0175281 0.0169264 0.0163275 0.0157316 0.0151385 0.0145484 0.0139611 0.0133767 0.0127953 0.0122189 0.0116501 0.0110886 0.0105345 0.00998792 0.00944872 0.00891694 0.00839259 0.00787808 0.00737584 0.00688587 0.00640818 0.00594276 0.0054896 0.00504872 0.00462011 0.004207 0.00381261 0.00343694 0.00308 0.00274178 0.00242228 0.0021215 0.00183945 0.00157795 0.00133884 0.00112212 0.000927784 0.000755839 0.000606283 0.000479116 0.000374337 0.000286602 0.000210565 0.000146226 9.35844e-05 5.26412e-05 2.33961e-05 5.84902e-06 0 0 3.14469e-05 0.000125787 0.000283022 0.00050315 0.000786171 0.00113209 0.0015409 0.0020126 0.00255337 0.00316939 0.00386066 0.00462718 0.00546895 0.00638596 0.00737822 0.00844573 0.00956071 0.0106954 0.0118498 0.0130238 0.0142176 0.015431 0.0166642 0.017917 0.019164 0.0203797 0.021564 0.022717 0.0238386 0.0249288 0.0259878 0.0270153 0.0279989 0.0289259 0.0297964 0.0306103 0.0313677 0.0320685 0.0327127 0.0333004 0.03383 0.0343001 0.0347106 0.0350616 0.035353 0.0355848 0.0357571 0.0358699 0.0359286 0.035939 0.0359009 0.0358145 0.0356796 0.0354963 0.0352646 0.0349845 0.0346644 0.0343126 0.0339291 0.0335139 0.033067 0.0325885 0.0320782 0.0315363 0.0309706 0.030389 0.0297915 0.0291782 0.0285489 0.0279037 0.0272426 0.0265657 0.0258786 0.0251874 0.024492 0.0237923 0.0230885 0.0223804 0.0216682 0.0209517 0.0202348 0.0195213 0.0188111 0.0181044 0.017401 0.016701 0.0160044 0.0153112 0.014624 0.0139457 0.0132762 0.0126155 0.0119636 0.0113206 0.0106863 0.0100609 0.00944711 0.00884793 0.00826331 0.00769326 0.00713778 0.00659687 0.00607052 0.00555873 0.00506529 0.00459398 0.00414479 0.00371771 0.00331277 0.00292994 0.00256924 0.00223066 0.00191642 0.00162873 0.0013676 0.00113303 0.00092501 0.000743548 0.000588641 0.000460291 0.00035241 0.000258914 0.000179801 0.000115073 6.47284e-05 2.87682e-05 7.19204e-06 0 0 3.74445e-05 0.000149778 0.000337 0.000599111 0.000936111 0.001348 0.00183478 0.00239645 0.00303926 0.00376948 0.00458711 0.00549214 0.00648458 0.00756442 0.00873167 0.00998633 0.011296 0.0126282 0.0139829 0.0153602 0.0167601 0.0181825 0.0196274 0.0210949 0.0225554 0.0239793 0.0253665 0.0267172 0.0280312 0.0293086 0.0305494 0.0317536 0.0329065 0.0339933 0.0350141 0.0359688 0.0368575 0.0376802 0.0384368 0.0391274 0.0397501 0.0403031 0.0407864 0.0412001 0.0415441 0.0418184 0.042023 0.0421579 0.0422296 0.0422445 0.0422025 0.0421038 0.0419483 0.041736 0.0414669 0.041141 0.0407681 0.0403578 0.0399103 0.0394254 0.0389032 0.0383437 0.0377469 0.0371127 0.0364505 0.0357695 0.0350696 0.0343509 0.0336134 0.032857 0.0320818 0.0312877 0.0304817 0.0296706 0.0288544 0.0280331 0.0272067 0.0263753 0.0255387 0.024697 0.0238548 0.0230164 0.022182 0.0213514 0.0205247 0.0197018 0.0188829 0.0180679 0.0172599 0.0164623 0.015675 0.0148981 0.0141314 0.0133751 0.0126291 0.0118934 0.0111714 0.0104665 0.00977856 0.00910772 0.00845393 0.00781719 0.0071975 0.00659486 0.00601364 0.00545819 0.00492852 0.00442463 0.00394651 0.00349417 0.00306761 0.00266682 0.00229445 0.00195315 0.0016429 0.00136372 0.0011156 0.000898541 0.000712545 0.000557611 0.000426921 0.000313656 0.000217817 0.000139403 7.8414e-05 3.48507e-05 8.71267e-06 0 0 4.40326e-05 0.00017613 0.000396293 0.000704521 0.00110081 0.00158517 0.00215759 0.00281808 0.00357278 0.00442783 0.00538322 0.00643897 0.00759507 0.00885151 0.0102083 0.0116655 0.0131855 0.0147312 0.0163023 0.017899 0.0195212 0.0211689 0.0228421 0.0245409 0.0262313 0.0278795 0.0294854 0.031049 0.0325704 0.0340495 0.0354863 0.0368809 0.0382163 0.0394754 0.0406584 0.0417651 0.0427956 0.0437499 0.044628 0.0454299 0.0461533 0.0467962 0.0473585 0.0478403 0.0482414 0.048562 0.048802 0.0489614 0.0490476 0.049068 0.0490224 0.0489111 0.0487339 0.0484908 0.0481819 0.0478071 0.0473777 0.0469049 0.0463886 0.045829 0.0452259 0.0445794 0.0438895 0.0431561 0.0423901 0.0416019 0.0407918 0.0399595 0.0391053 0.0382289 0.0373306 0.0364102 0.0354757 0.0345351 0.0335885 0.0326358 0.031677 0.0307122 0.0297412 0.0287642 0.0277864 0.026813 0.025844 0.0248795 0.0239193 0.0229636 0.0220123 0.0210654 0.0201267 0.0191999 0.0182851 0.0173822 0.0164913 0.0156123 0.0147453 0.0138902 0.013051 0.0122314 0.0114316 0.0106515 0.0098912 0.00915057 0.00842968 0.0077285 0.00705204 0.00640526 0.00578816 0.00520075 0.00464302 0.00411497 0.00361661 0.00314793 0.00271205 0.00231208 0.00194801 0.00161986 0.0013276 0.00107126 0.000850826 0.000666298 0.000510134 0.000374793 0.000260273 0.000166574 9.36981e-05 4.16436e-05 1.04109e-05 0 0 5.12111e-05 0.000204845 0.0004609 0.000819378 0.00128028 0.0018436 0.00250935 0.00327751 0.00415393 0.00514443 0.00624901 0.00746767 0.00880042 0.0102472 0.0118081 0.0134831 0.0152295 0.0170044 0.018808 0.0206401 0.0225009 0.0243903 0.0263083 0.028255 0.0301917 0.0320802 0.0339205 0.0357124 0.037456 0.0391514 0.0407984 0.0423972 0.0439283 0.0453723 0.0467293 0.0479991 0.0491819 0.0502777 0.0512863 0.0522079 0.0530398 0.0537795 0.0544269 0.0549821 0.0554451 0.0558158 0.0560942 0.0562805 0.0563828 0.0564095 0.0563606 0.0562362 0.0560362 0.0557606 0.0554095 0.0549827 0.0544932 0.0539537 0.0533641 0.0527246 0.0520351 0.0512955 0.050506 0.0496665 0.0487892 0.0478863 0.0469579 0.046004 0.0450246 0.0440196 0.042989 0.041933 0.0408606 0.039781 0.0386943 0.0376004 0.0364994 0.0353912 0.0342758 0.0331533 0.0320297 0.030911 0.0297974 0.0286887 0.027585 0.0264863 0.0253925 0.0243037 0.0232243 0.0221585 0.0211064 0.020068 0.0190433 0.0180323 0.0170349 0.0160513 0.0150858 0.0141428 0.0132225 0.0123247 0.0114496 0.010597 0.00976704 0.00895966 0.00818049 0.00743517 0.00672369 0.00604606 0.00540228 0.00479234 0.00421625 0.003674 0.00316922 0.00270554 0.00228294 0.00190144 0.00156103 0.00126171 0.00100349 0.000786352 0.00060205 0.000442323 0.000307169 0.000196588 0.000110581 4.9147e-05 1.22867e-05 0 0 5.89802e-05 0.000235921 0.000530822 0.000943684 0.00147451 0.00212329 0.00289003 0.00377474 0.00478272 0.0059193 0.00718448 0.00857825 0.0101006 0.0117516 0.0135312 0.0154393 0.0174277 0.0194479 0.0214999 0.0235837 0.0256993 0.0278468 0.030026 0.0322371 0.0344367 0.0365816 0.0386719 0.0407074 0.0426882 0.0446143 0.0464857 0.0483025 0.0500425 0.0516839 0.0532268 0.0546709 0.0560165 0.0572635 0.0584118 0.0594615 0.0604095 0.0612529 0.0619916 0.0626256 0.063155 0.0635797 0.0638997 0.064115 0.064235 0.064269 0.0642171 0.0640792 0.0638553 0.0635455 0.0631497 0.0626679 0.0621146 0.0615042 0.0608368 0.0601123 0.0593308 0.0584922 0.0575965 0.0566438 0.0556478 0.0546226 0.0535681 0.0524843 0.0513712 0.0502289 0.0490572 0.0478562 0.0466364 0.0454082 0.0441718 0.0429269 0.0416737 0.0404122 0.0391424 0.0378641 0.0365845 0.0353105 0.034042 0.0327791 0.0315217 0.0302698 0.0290236 0.0277829 0.0265527 0.0253381 0.024139 0.0229554 0.0217874 0.020635 0.019498 0.0183766 0.0172758 0.0162007 0.0151512 0.0141273 0.0131291 0.0121565 0.0112096 0.0102883 0.00939899 0.00854793 0.00773512 0.00696058 0.0062243 0.00552627 0.00486651 0.00424502 0.00366596 0.00313351 0.00264768 0.00220847 0.00181587 0.00146989 0.00117052 0.000917772 0.000702669 0.000516247 0.000358505 0.000229443 0.000129062 5.73608e-05 1.43402e-05 0 0 6.71811e-05 0.000268724 0.00060463 0.0010749 0.00167953 0.00241852 0.00329187 0.00429959 0.00544631 0.00673668 0.0081707 0.00974836 0.0114697 0.0133346 0.0153432 0.0174955 0.0197371 0.0220138 0.0243254 0.0266722 0.0290539 0.0314708 0.0339226 0.0364095 0.0388832 0.0412956 0.0436466 0.0459361 0.0481643 0.0503311 0.0524366 0.0544806 0.0564386 0.0582861 0.0600229 0.061649 0.0631646 0.0645695 0.0658638 0.0670475 0.068117 0.069069 0.0699033 0.0706201 0.0712192 0.0717007 0.0720646 0.0723108 0.0724499 0.0724921 0.0724375 0.0722862 0.0720379 0.0716929 0.0712511 0.0707124 0.0700931 0.0694094 0.0686611 0.0678485 0.0669713 0.0660297 0.0650236 0.0639531 0.0628337 0.0616811 0.0604952 0.059276 0.0580236 0.0567379 0.055419 0.0540668 0.0526931 0.0513099 0.049917 0.0485145 0.0471024 0.0456807 0.0442493 0.0428084 0.0413657 0.0399291 0.0384987 0.0370745 0.0356563 0.0342444 0.0328385 0.0314388 0.0300509 0.0286805 0.0273275 0.0259921 0.024674 0.0233735 0.0220904 0.0208247 0.0195823 0.0183686 0.0171837 0.0160277 0.0149005 0.0138021 0.0127325 0.0116917 0.0106868 0.00972467 0.0088054 0.00792896 0.00709535 0.00630458 0.00555665 0.00485154 0.00419405 0.00358894 0.00303622 0.00253589 0.00208794 0.00169237 0.0013492 0.0010584 0.000810339 0.000595351 0.000413438 0.000264601 0.000148838 6.61501e-05 1.65375e-05 0 0 7.56549e-05 0.000302619 0.000680894 0.00121048 0.00189137 0.00272358 0.00370709 0.00484191 0.00613188 0.00758083 0.00918875 0.0109557 0.0128815 0.0149664 0.0172103 0.0196131 0.0221145 0.0246541 0.027232 0.0298481 0.0325023 0.0351948 0.0379256 0.0406945 0.0434484 0.0461341 0.0487516 0.0513008 0.0537819 0.0561947 0.0585392 0.0608156 0.0629964 0.0650544 0.0669895 0.0688019 0.0704913 0.072058 0.0735018 0.0748228 0.0760169 0.0770803 0.0780128 0.0788146 0.0794856 0.0800257 0.0804351 0.0807137 0.0808729 0.0809242 0.0808676 0.0807031 0.0804307 0.0800504 0.0795622 0.0789661 0.07828 0.0775218 0.0766916 0.0757893 0.074815 0.0737686 0.0726501 0.0714596 0.0702144 0.0689318 0.0676118 0.0662545 0.0648599 0.0634278 0.0619584 0.0604517 0.0589208 0.0573789 0.0558261 0.0542623 0.0526875 0.0511018 0.0495051 0.0478975 0.0462878 0.0446848 0.0430884 0.0414989 0.039916 0.0383398 0.0367704 0.0352076 0.033658 0.0321277 0.0306169 0.0291255 0.0276535 0.026201 0.0247678 0.0233541 0.0219661 0.0206102 0.0192863 0.0179944 0.0167345 0.0155067 0.0143109 0.0131471 0.0120231 0.0109465 0.00991747 0.00893587 0.00800173 0.00711507 0.00627587 0.00548414 0.0047453 0.00406477 0.00344255 0.00287864 0.00237304 0.00192574 0.00153676 0.00120608 0.000923408 0.000678423 0.000471127 0.000301521 0.000169606 7.53803e-05 1.88451e-05 0 0 8.44017e-05 0.000337607 0.000759615 0.00135043 0.00211004 0.00303846 0.00413568 0.00540171 0.00683943 0.00845174 0.0102386 0.0122001 0.0143362 0.0166469 0.0191322 0.021792 0.0245599 0.027369 0.0302195 0.0331114 0.0360445 0.039019 0.0420348 0.045092 0.0481322 0.0510972 0.053987 0.0568015 0.0595408 0.0622049 0.0647938 0.0673074 0.0697158 0.071989 0.0741268 0.0761294 0.0779968 0.0797289 0.0813257 0.0827873 0.0841092 0.0852868 0.0863201 0.0872093 0.0879542 0.0885549 0.0890113 0.0893236 0.0895041 0.0895653 0.0895074 0.0893301 0.0890337 0.088618 0.0880831 0.0874289 0.0866752 0.0858417 0.0849283 0.083935 0.0828618 0.0817088 0.080476 0.0791633 0.0777898 0.0763748 0.0749181 0.0734199 0.07188 0.0702986 0.0686756 0.0670109 0.0653193 0.0636153 0.0618989 0.0601702 0.0584291 0.0566756 0.0549098 0.0531316 0.0513508 0.0495773 0.0478111 0.0460522 0.0443006 0.0425562 0.0408191 0.0390893 0.0373738 0.0356798 0.0340071 0.0323558 0.030726 0.0291175 0.0275304 0.0259648 0.0244275 0.0229254 0.0214587 0.0200273 0.0186311 0.0172703 0.0159447 0.0146545 0.0134079 0.0122136 0.0110713 0.00998131 0.00894344 0.00795773 0.00702419 0.00614281 0.00531971 0.004561 0.00386667 0.00323673 0.00267117 0.00217 0.00173322 0.00136082 0.00104188 0.000765461 0.00053157 0.000340205 0.000191365 8.50512e-05 2.12628e-05 0 0 9.34214e-05 0.000373686 0.000840793 0.00149474 0.00233554 0.00336317 0.00457765 0.00597897 0.00756896 0.00934943 0.0113204 0.0134818 0.0158337 0.0183761 0.021109 0.0240324 0.0270732 0.0301584 0.0332881 0.0364621 0.0396805 0.0429433 0.0462504 0.049602 0.0529346 0.0561848 0.0593527 0.0624381 0.0654412 0.0683619 0.0712002 0.0739561 0.0765968 0.0790897 0.0814347 0.0836318 0.085681 0.0875823 0.0893357 0.0909412 0.0923937 0.0936884 0.0948252 0.0958041 0.096625 0.0972881 0.0977933 0.0981405 0.0983434 0.0984155 0.0983567 0.0981672 0.0978468 0.0973957 0.0968137 0.0961009 0.0952788 0.0943689 0.093371 0.0922854 0.0911118 0.0898504 0.0885012 0.087064 0.08556 0.08401 0.082414 0.0807721 0.0790841 0.0773502 0.0755703 0.0737445 0.0718887 0.0700191 0.0681356 0.0662383 0.0643272 0.0624021 0.0604633 0.0585105 0.0565548 0.0546069 0.0526668 0.0507346 0.0488101 0.0468935 0.0449848 0.0430838 0.0411985 0.0393366 0.0374981 0.035683 0.0338913 0.032123 0.0303782 0.0286567 0.0269662 0.0253144 0.0237011 0.0221265 0.0205904 0.0190929 0.0176341 0.0162138 0.0148413 0.0135257 0.012267 0.0110653 0.00992046 0.00883257 0.0078016 0.00682755 0.00591727 0.00507761 0.00430857 0.00361015 0.00298234 0.00242514 0.00193857 0.00152261 0.00116575 0.000856466 0.000594768 0.000380652 0.000214117 9.51629e-05 2.37907e-05 0 0 0.000102714 0.000410857 0.000924427 0.00164343 0.00256785 0.00369771 0.00503299 0.00657371 0.00832046 0.0102739 0.0124339 0.0148007 0.0173741 0.0201541 0.0231408 0.0263342 0.0296546 0.0330224 0.0364376 0.0399002 0.0434102 0.0469676 0.0505724 0.0542246 0.0578557 0.061397 0.0648487 0.0682107 0.0714829 0.0746655 0.0777584 0.0807616 0.0836395 0.0863567 0.0889132 0.0913089 0.0935439 0.0956181 0.0975316 0.0992843 0.100871 0.102285 0.103528 0.104599 0.105498 0.106225 0.106781 0.107164 0.107391 0.107475 0.107416 0.107214 0.10687 0.106383 0.105754 0.104982 0.104091 0.103103 0.10202 0.100841 0.099565 0.0981934 0.0967257 0.095162 0.093525 0.0918375 0.0900995 0.0883111 0.0864721 0.0845827 0.0826428 0.0806524 0.0786291 0.0765903 0.0745362 0.0724666 0.0703817 0.0682813 0.0661656 0.0640344 0.0618997 0.0597734 0.0576555 0.0555459 0.0534447 0.0513518 0.0492673 0.0471912 0.045132 0.0430982 0.0410899 0.039107 0.0371495 0.0352175 0.033311 0.0314299 0.0295825 0.027777 0.0260135 0.0242919 0.0226123 0.0209746 0.0193789 0.0178251 0.0163231 0.0148829 0.0135045 0.0121878 0.0109328 0.00973958 0.0086081 0.00753836 0.00653799 0.00561463 0.00476826 0.0039989 0.00330653 0.00269117 0.00215281 0.00169145 0.00129501 0.000951438 0.000660721 0.000422861 0.00023786 0.000105715 2.64288e-05 0 0 0.00011228 0.000449119 0.00101052 0.00179648 0.002807 0.00404208 0.00550171 0.00718591 0.00909395 0.0112251 0.0135794 0.0161567 0.0189572 0.0219808 0.0252275 0.0286974 0.0323039 0.0359608 0.0396681 0.0434257 0.0472337 0.051092 0.0550007 0.0589597 0.0628953 0.0667338 0.0704751 0.0741192 0.0776661 0.0811159 0.0844685 0.0877239 0.0908438 0.0937899 0.0965623 0.0991608 0.101585 0.103836 0.105913 0.107817 0.10954 0.111077 0.112429 0.113594 0.114573 0.115367 0.115974 0.116395 0.116646 0.116743 0.116684 0.116471 0.116104 0.115581 0.114904 0.114072 0.113111 0.112045 0.110875 0.1096 0.108221 0.106738 0.10515 0.103457 0.101685 0.0998572 0.0979747 0.0960369 0.0940441 0.0919961 0.0898929 0.0877347 0.0855403 0.0833289 0.0811005 0.0788551 0.0765927 0.0743132 0.0720167 0.0697032 0.0673856 0.0650769 0.0627771 0.0604862 0.0582042 0.055931 0.0536668 0.0514114 0.0491743 0.0469646 0.0447825 0.0426278 0.0405007 0.0384011 0.036329 0.0342844 0.032276