<?xml version="1.0"?> 
<VTKFile type="StructuredGrid" version="0.1"> 
<StructuredGrid WholeExtent="0 128 0 128 0 0"> 
<Piece Extent="0 128 0 128 0 0"> 
<PointData>
<DataArray type="Float32" Name="u" format="ascii" NumberOfComponents="1"> 
0 0 0 0 0 0 0 0 0 0 0 0 0 0 0 0 0 0 0 0 0 0 0 0 0 0 0 0 0 0 0 0 0 0 0 0 0 0 0 0 0 0 0 0 0 0 0 0 0 0 0 0 0 0 0 0 0 0 0 0 0 0 0 0 0 0 0 0 0 0 0 0 0 0 0 0 0 0 0 0 0 0 0 0 0 0 0 0 0 0 0 0 0 0 0 0 0 0 0 0 0 0 0 0 0 0 0 0 0 0 0 0 0 0 0 0 0 0 0 0 0 0 0 0 0 0 0 0 0 0 3.95189e-07 1.58076e-06 3.5567e-06 6.32302e-06 9.87972e-06 1.42268e-05 1.93643e-05 2.52921e-05 3.21261e-05 3.9982e-05 4.88598e-05 5.87596e-05 6.96813e-05 8.16249e-05 9.45905e-05 0.000108578 0.000123216 0.000138132 0.000153327 0.000168801 0.000184553 0.000200583 0.000216893 0.000233481 0.000249988 0.000266057 0.000281687 0.000296877 0.000311629 0.000325942 0.000339815 0.00035325 0.000366059 0.000378058 0.000389245 0.000399622 0.000409188 0.000417944 0.000425888 0.000433021 0.000439315 0.000444739 0.000449293 0.000452979 0.000455794 0.000457741 0.000458818 0.000459026 0.000458446 0.000457161 0.000455169 0.000452472 0.000449069 0.00044496 0.000440145 0.000434624 0.000428535 0.000422013 0.000415059 0.000407673 0.000399855 0.000391604 0.000382922 0.000373807 0.000364401 0.000354844 0.000345136 0.000335277 0.000325268 0.000315107 0.000304796 0.000294333 0.00028383 0.000273396 0.000263031 0.000252735 0.000242508 0.00023235 0.000222261 0.000212241 0.000202357 0.000192674 0.000183192 0.000173912 0.000164833 0.000155955 0.00014728 0.000138805 0.00013056 0.000122571 0.000114839 0.000107363 0.000100144 9.31818e-05 8.64761e-05 8.0027e-05 7.38388e-05 6.7916e-05 6.22585e-05 5.68664e-05 5.17396e-05 4.68782e-05 4.22821e-05 3.79513e-05 3.38814e-05 3.00679e-05 2.65107e-05 2.32099e-05 2.01655e-05 1.73774e-05 1.48457e-05 1.25704e-05 1.05263e-05 8.68842e-06 7.05672e-06 5.63119e-06 4.41184e-06 3.39867e-06 2.59168e-06 1.99087e-06 1.52426e-06 1.11987e-06 7.77685e-07 4.97719e-07 2.79967e-07 1.2443e-07 3.11074e-08 0 0 1.58076e-06 6.32302e-06 1.42268e-05 2.52921e-05 3.95189e-05 5.69072e-05 7.7457e-05 0.000101168 0.000128504 0.000159928 0.000195439 0.000235038 0.000278725 0.0003265 0.000378362 0.000434312 0.000492863 0.000552528 0.000613308 0.000675202 0.000738211 0.000802334 0.000867571 0.000933923 0.000999954 0.00106423 0.00112675 0.00118751 0.00124652 0.00130377 0.00135926 0.001413 0.00146424 0.00151223 0.00155698 0.00159849 0.00163675 0.00167177 0.00170355 0.00173209 0.00175726 0.00177895 0.00179717 0.00181191 0.00182318 0.00183096 0.00183527 0.0018361 0.00183379 0.00182864 0.00182068 0.00180989 0.00179628 0.00177984 0.00176058 0.0017385 0.00171414 0.00168805 0.00166024 0.00163069 0.00159942 0.00156642 0.00153169 0.00149523 0.0014576 0.00141938 0.00138054 0.00134111 0.00130107 0.00126043 0.00121918 0.00117733 0.00113532 0.00109358 0.00105212 0.00101094 0.000970032 0.0009294 0.000889045 0.000848965 0.000809427 0.000770694 0.000732767 0.000695646 0.000659331 0.000623822 0.000589118 0.00055522 0.000522239 0.000490284 0.000459355 0.000429453 0.000400577 0.000372727 0.000345904 0.000320108 0.000295355 0.000271664 0.000249034 0.000227466 0.000206958 0.000187513 0.000169128 0.000151805 0.000135526 0.000120272 0.000106043 9.28397e-05 8.0662e-05 6.95097e-05 5.93829e-05 5.02815e-05 4.21052e-05 3.47537e-05 2.82269e-05 2.25248e-05 1.76474e-05 1.35947e-05 1.03667e-05 7.9635e-06 6.09705e-06 4.47947e-06 3.11074e-06 1.99087e-06 1.11987e-06 4.97719e-07 1.2443e-07 0 0 3.5567e-06 1.42268e-05 3.20103e-05 5.69072e-05 8.89175e-05 0.000128041 0.000174278 0.000227629 0.000289135 0.000359838 0.000439739 0.000528836 0.000627132 0.000734624 0.000851314 0.000977202 0.00110894 0.00124319 0.00137994 0.0015192 0.00166097 0.00180525 0.00195203 0.00210133 0.0022499 0.00239451 0.00253518 0.0026719 0.00280466 0.00293347 0.00305834 0.00317925 0.00329453 0.00340252 0.00350321 0.0035966 0.0036827 0.00376149 0.00383299 0.00389719 0.00395383 0.00400265 0.00404364 0.00407681 0.00410215 0.00411967 0.00412936 0.00413123 0.00412602 0.00411445 0.00409652 0.00407225 0.00404162 0.00400464 0.0039613 0.00391162 0.00385681 0.00379812 0.00373553 0.00366906 0.00359869 0.00352444 0.0034463 0.00336426 0.00327961 0.00319359 0.00310622 0.00301749 0.00292741 0.00283596 0.00274316 0.002649 0.00255447 0.00246056 0.00236728 0.00227461 0.00218257 0.00209115 0.00200035 0.00191017 0.00182121 0.00173406 0.00164873 0.0015652 0.00148349 0.0014036 0.00132552 0.00124925 0.00117504 0.00110314 0.00103355 0.000966268 0.000901298 0.000838636 0.000778285 0.000720243 0.000664549 0.000611244 0.000560327 0.000511798 0.000465657 0.000421904 0.000380539 0.000341562 0.000304933 0.000270611 0.000238597 0.000208889 0.000181489 0.000156397 0.000133611 0.000113133 9.47368e-05 7.81958e-05 6.35104e-05 5.06807e-05 3.97066e-05 3.0588e-05 2.33251e-05 1.79179e-05 1.37184e-05 1.00788e-05 6.99917e-06 4.47947e-06 2.5197e-06 1.11987e-06 2.79967e-07 0 0 6.32302e-06 2.52921e-05 5.69072e-05 0.000101168 0.000158076 0.000227629 0.000309828 0.000404673 0.000514017 0.000639712 0.000781757 0.000940154 0.0011149 0.001306 0.00151345 0.00173725 0.00197145 0.00221011 0.00245323 0.00270081 0.00295284 0.00320933 0.00347028 0.00373569 0.00399982 0.00425691 0.00450699 0.00475004 0.00498606 0.00521506 0.00543704 0.00565199 0.00585694 0.00604892 0.00622793 0.00639396 0.00654701 0.0066871 0.00681421 0.00692834 0.00702904 0.00711582 0.00718869 0.00724766 0.00729271 0.00732386 0.00734109 0.00734442 0.00733514 0.00731457 0.00728271 0.00723955 0.0071851 0.00711936 0.00704232 0.00695399 0.00685655 0.00675221 0.00664094 0.00652277 0.00639767 0.00626567 0.00612675 0.00598091 0.00583041 0.0056775 0.00552218 0.00536443 0.00520428 0.00504171 0.00487673 0.00470933 0.00454128 0.00437434 0.0042085 0.00404376 0.00388013 0.0037176 0.00355618 0.00339586 0.00323771 0.00308278 0.00293107 0.00278258 0.00263732 0.00249529 0.00235647 0.00222088 0.00208895 0.00196113 0.00183742 0.00171781 0.00160231 0.00149091 0.00138362 0.00128043 0.00118142 0.00108666 0.000996136 0.000909862 0.000827834 0.000750051 0.000676513 0.000607221 0.000542103 0.000481086 0.000424172 0.000371359 0.000322648 0.000278039 0.000237532 0.000201126 0.000168421 0.000139015 0.000112907 9.0099e-05 7.05894e-05 5.43787e-05 4.14669e-05 3.1854e-05 2.43882e-05 1.79179e-05 1.2443e-05 7.9635e-06 4.47947e-06 1.99087e-06 4.97719e-07 0 0 9.87972e-06 3.95189e-05 8.89175e-05 0.000158076 0.000246993 0.00035567 0.000484106 0.000632302 0.000803152 0.00099955 0.0012215 0.00146899 0.00174203 0.00204062 0.00236476 0.00271445 0.00308039 0.0034533 0.00383317 0.00422001 0.00461382 0.00501459 0.00542232 0.00583702 0.00624971 0.00665143 0.00704217 0.00742194 0.00779072 0.00814854 0.00849538 0.00883124 0.00915148 0.00945144 0.00973114 0.00999056 0.0102297 0.0104486 0.0106472 0.0108255 0.0109829 0.0111185 0.0112323 0.0113245 0.0113949 0.0114435 0.0114705 0.0114757 0.0114612 0.011429 0.0113792 0.0113118 0.0112267 0.011124 0.0110036 0.0108656 0.0107134 0.0105503 0.0103765 0.0101918 0.00999637 0.00979011 0.00957304 0.00934518 0.00911002 0.0088711 0.0086284 0.00838193 0.00813169 0.00787768 0.00761989 0.00735833 0.00709576 0.0068349 0.00657578 0.00631837 0.0060627 0.00580875 0.00555653 0.00530603 0.00505892 0.00481684 0.0045798 0.00434779 0.00412082 0.00389889 0.00368199 0.00347013 0.00326399 0.00306427 0.00287097 0.00268408 0.0025036 0.00232955 0.0021619 0.00200067 0.00184597 0.0016979 0.00155646 0.00142166 0.00129349 0.00117195 0.00105705 0.000948783 0.000847036 0.000751698 0.000662768 0.000580248 0.000504137 0.000434436 0.000371143 0.000314259 0.000263158 0.000217211 0.000176418 0.00014078 0.000110296 8.49668e-05 6.47921e-05 4.97719e-05 3.81066e-05 2.79967e-05 1.94421e-05 1.2443e-05 6.99917e-06 3.11074e-06 7.77685e-07 0 0 1.42268e-05 5.69072e-05 0.000128041 0.000227629 0.00035567 0.000512165 0.000697113 0.000910515 0.00115654 0.00143935 0.00175895 0.00211535 0.00250853 0.0029385 0.00340526 0.00390881 0.00443577 0.00497275 0.00551977 0.00607682 0.0066439 0.007221 0.00780814 0.00840531 0.00899958 0.00957806 0.0101407 0.0106876 0.0112186 0.0117339 0.0122333 0.012717 0.0131781 0.0136101 0.0140128 0.0143864 0.0147308 0.015046 0.015332 0.0155888 0.0158153 0.0160106 0.0161746 0.0163072 0.0164086 0.0164787 0.0165175 0.0165249 0.0165041 0.0164578 0.0163861 0.016289 0.0161665 0.0160186 0.0158452 0.0156465 0.0154272 0.0151925 0.0149421 0.0146762 0.0143948 0.0140978 0.0137852 0.0134571 0.0131184 0.0127744 0.0124249 0.01207 0.0117096 0.0113439 0.0109726 0.010596 0.0102179 0.00984226 0.00946912 0.00909846 0.00873029 0.0083646 0.0080014 0.00764069 0.00728484 0.00693625 0.0065949 0.00626082 0.00593398 0.00561439 0.00530206 0.00499698 0.00470015 0.00441255 0.00413419 0.00386507 0.00360519 0.00335455 0.00311314 0.00288097 0.0026582 0.00244498 0.00224131 0.00204719 0.00186263 0.00168761 0.00152215 0.00136625 0.00121973 0.00108244 0.000954386 0.000835558 0.000725958 0.000625587 0.000534446 0.000452534 0.000378947 0.000312783 0.000254042 0.000202723 0.000158826 0.000122352 9.33006e-05 7.16715e-05 5.48735e-05 4.03152e-05 2.79967e-05 1.79179e-05 1.00788e-05 4.47947e-06 1.11987e-06 0 0 1.93643e-05 7.7457e-05 0.000174278 0.000309828 0.000484106 0.000697113 0.000948849 0.00123931 0.00157418 0.00195912 0.00239413 0.00287922 0.00341438 0.00399962 0.00463493 0.00532032 0.00603757 0.00676847 0.00751302 0.00827123 0.00904308 0.00982859 0.0106277 0.0114406 0.0122494 0.0130368 0.0138027 0.014547 0.0152698 0.0159711 0.0166509 0.0173092 0.0179369 0.0185248 0.019073 0.0195815 0.0200502 0.0204792 0.0208685 0.021218 0.0215264 0.0217922 0.0220154 0.0221959 0.0223339 0.0224293 0.0224821 0.0224923 0.0224639 0.0224009 0.0223033 0.0221711 0.0220044 0.021803 0.0215671 0.0212966 0.0209982 0.0206786 0.0203379 0.019976 0.0195929 0.0191886 0.0187632 0.0183165 0.0178556 0.0173873 0.0169117 0.0164286 0.0159381 0.0154402 0.014935 0.0144223 0.0139077 0.0133964 0.0128885 0.012384 0.0118829 0.0113852 0.0108908 0.0103998 0.00991548 0.009441 0.0089764 0.00852167 0.0080768 0.00764182 0.0072167 0.00680145 0.00639742 0.00600597 0.0056271 0.00526079 0.00490706 0.00456591 0.00423733 0.00392132 0.0036181 0.00332788 0.00305067 0.00278645 0.00253524 0.00229703 0.00207182 0.00185962 0.00166019 0.00147333 0.00129903 0.00113729 0.000988109 0.000851494 0.00072744 0.000615949 0.000515789 0.000425733 0.000345779 0.000275928 0.00021618 0.000166535 0.000126992 9.75529e-05 7.46889e-05 5.48735e-05 3.81066e-05 2.43882e-05 1.37184e-05 6.09705e-06 1.52426e-06 0 0 2.52921e-05 0.000101168 0.000227629 0.000404673 0.000632302 0.000910515 0.00123931 0.00161869 0.00205607 0.00255885 0.00312703 0.00376061 0.0044596 0.005224 0.00605379 0.00694899 0.0078858 0.00884045 0.00981293 0.0108032 0.0118114 0.0128373 0.0138811 0.0149428 0.0159993 0.0170277 0.018028 0.0190002 0.0199443 0.0208603 0.0217482 0.022608 0.0234278 0.0241957 0.0249117 0.0255758 0.0261881 0.0267484 0.0272568 0.0277134 0.0281161 0.0284633 0.0287548 0.0289906 0.0291708 0.0292954 0.0293644 0.0293777 0.0293406 0.0292583 0.0291308 0.0289582 0.0287404 0.0284774 0.0281693 0.027816 0.0274262 0.0270088 0.0265638 0.0260911 0.0255907 0.0250627 0.024507 0.0239237 0.0233217 0.02271 0.0220887 0.0214577 0.0208171 0.0201668 0.0195069 0.0188373 0.0181651 0.0174973 0.016834 0.016175 0.0155205 0.0148704 0.0142247 0.0135834 0.0129508 0.0123311 0.0117243 0.0111303 0.0105493 0.00998115 0.00942589 0.00888353 0.00835582 0.00784454 0.00734968 0.00687124 0.00640923 0.00596364 0.00553447 0.00512172 0.00472568 0.00434662 0.00398455 0.00363945 0.00331134 0.0030002 0.00270605 0.00242889 0.00216841 0.00192435 0.00169669 0.00148544 0.00129059 0.00111216 0.000950126 0.000804504 0.000673684 0.000556059 0.00045163 0.000360396 0.000282358 0.000217515 0.000165868 0.000127416 9.75529e-05 7.16715e-05 4.97719e-05 3.1854e-05 1.79179e-05 7.9635e-06 1.99087e-06 0 0 3.2167e-05 0.000128668 0.000289503 0.000514672 0.000804174 0.00115801 0.00157618 0.00205869 0.0026146 0.00325301 0.00397392 0.00477731 0.0056632 0.00663158 0.00768246 0.00881582 0.0100016 0.0112098 0.0124404 0.0136934 0.0149688 0.0162665 0.0175867 0.0189292 0.0202652 0.0215657 0.0228307 0.0240601 0.0252541 0.0264125 0.0275354 0.0286228 0.0296597 0.030631 0.0315367 0.0323768 0.0331514 0.0338604 0.0345038 0.0350817 0.0355916 0.0360311 0.0364004 0.0366992 0.0369278 0.037086 0.0371738 0.0371914 0.0371452 0.0370418 0.0368813 0.0366636 0.0363888 0.0360568 0.0356677 0.0352215 0.0347291 0.0342018 0.0336394 0.033042 0.0324095 0.0317421 0.0310396 0.030302 0.0295409 0.0287674 0.0279817 0.0271837 0.0263735 0.025551 0.0247162 0.0238691 0.0230187 0.0221738 0.0213345 0.0205007 0.0196724 0.0188497 0.0180325 0.0172208 0.0164201 0.0156356 0.0148674 0.0141155 0.0133799 0.0126605 0.0119575 0.0112707 0.0106024 0.00995484 0.00932807 0.00872207 0.00813683 0.00757234 0.00702862 0.00650566 0.00600381 0.00552344 0.00506455 0.00462712 0.00421117 0.0038167 0.0034437 0.00309217 0.00276175 0.00245207 0.00216312 0.00189491 0.00164744 0.0014207 0.0012147 0.00102944 0.000862902 0.000713071 0.000579947 0.00046353 0.00036382 0.000280818 0.000214523 0.000164936 0.000126279 9.27763e-05 6.4428e-05 4.12339e-05 2.31941e-05 1.03085e-05 2.57712e-06 0 0 4.01456e-05 0.000160582 0.00036131 0.000642329 0.00100364 0.00144524 0.00196713 0.00256932 0.00326218 0.00405609 0.00495107 0.00594711 0.0070442 0.00824235 0.00954157 0.0109418 0.0124062 0.0138978 0.0154164 0.0169623 0.0185353 0.0201355 0.0217628 0.0234173 0.0250635 0.026666 0.0282248 0.0297399 0.0312114 0.0326391 0.0340231 0.0353634 0.0366415 0.037839 0.0389558 0.039992 0.0409475 0.0418223 0.0426165 0.04333 0.0439599 0.0445031 0.0449598 0.0453298 0.0456132 0.04581 0.0459201 0.0459437 0.0458886 0.0457632 0.0455672 0.0453007 0.0449638 0.0445564 0.0440785 0.0435301 0.0429248 0.0422762 0.0415843 0.0408491 0.0400707 0.0392489 0.0383838 0.0374754 0.0365377 0.0355847 0.0346164 0.0336329 0.032634 0.0316199 0.0305905 0.0295458 0.0284968 0.0274545 0.0264189 0.02539 0.0243678 0.0233523 0.0223434 0.0213413 0.0203525 0.0193836 0.0184348 0.0175059 0.016597 0.0157081 0.0148392 0.0139903 0.0131641 0.0123635 0.0115884 0.0108389 0.010115 0.00941665 0.00874384 0.0080966 0.00747536 0.00688059 0.00631227 0.00577042 0.00525502 0.00476608 0.0043036 0.00386759 0.00345756 0.00307305 0.00271407 0.00238061 0.00207267 0.00179026 0.00153337 0.001302 0.00109372 0.000906076 0.000739082 0.000592733 0.000467029 0.00036197 0.000277556 0.000213787 0.00016368 0.000120255 8.35104e-05 5.34467e-05 3.00637e-05 1.33617e-05 3.34042e-06 0 0 4.92279e-05 0.000196912 0.000443051 0.000787646 0.0012307 0.0017722 0.00241217 0.00315059 0.00399878 0.00496808 0.00605848 0.00726999 0.00860259 0.0100563 0.0116311 0.013327 0.0150996 0.0169042 0.018741 0.0206099 0.022511 0.0244442 0.0264095 0.0284069 0.0303941 0.0323286 0.0342105 0.0360396 0.0378162 0.03954 0.0412112 0.0428297 0.0443733 0.0458198 0.0471691 0.0484212 0.0495762 0.0506341 0.0515948 0.0524583 0.053221 0.0538792 0.054433 0.0548823 0.055227 0.0554674 0.0556032 0.0556345 0.055571 0.0554224 0.0551886 0.0548695 0.0544654 0.053976 0.0534015 0.0527417 0.0520132 0.0512322 0.0503986 0.0495126 0.0485741 0.0475831 0.0465396 0.0454436 0.0443121 0.0431618 0.0419928 0.0408051 0.0395988 0.0383737 0.0371299 0.0358674 0.0345996 0.0333395 0.0320874 0.0308431 0.0296067 0.0283782 0.0271576 0.0259448 0.024748 0.0235752 0.0224263 0.0213015 0.0202007 0.0191239 0.0180711 0.0170424 0.016041 0.0150705 0.0141307 0.0132218 0.0123438 0.0114965 0.0106801 0.00989454 0.00914033 0.00841806 0.00772773 0.00706933 0.00644288 0.00584836 0.00528577 0.00475513 0.00425583 0.0037873 0.00334954 0.00294254 0.0025663 0.00222083 0.00190612 0.00162218 0.00136612 0.00113508 0.000929037 0.000748006 0.000591984 0.00046097 0.000354965 0.000273969 0.000209757 0.000154108 0.000107019 6.84922e-05 3.85269e-05 1.71231e-05 4.28076e-06 0 0 5.94139e-05 0.000237656 0.000534725 0.000950623 0.00148535 0.0021389 0.00291128 0.00380249 0.00482443 0.00598898 0.00729616 0.00874596 0.0103384 0.0120734 0.0139511 0.0159714 0.0180816 0.0202292 0.0224141 0.0246363 0.0268958 0.0291926 0.0315267 0.0338981 0.036257 0.0385535 0.0407875 0.0429592 0.0450684 0.0471153 0.0490997 0.0510217 0.052855 0.0545733 0.0561765 0.0576646 0.0590377 0.0602957 0.0614387 0.0624666 0.063375 0.0641595 0.06482 0.0653567 0.0657694 0.0660582 0.066223 0.066264 0.0661923 0.0660195 0.0657454 0.0653701 0.0648935 0.0643157 0.0636367 0.0628565 0.0619943 0.0610696 0.0600823 0.0590324 0.0579199 0.0567448 0.0555071 0.0542069 0.0528641 0.0514987 0.0501109 0.0487005 0.0472677 0.0458123 0.0443344 0.042834 0.0413268 0.0398288 0.0383398 0.03686 0.0353892 0.0339275 0.0324749 0.0310314 0.0296066 0.0282102 0.0268421 0.0255023 0.024191 0.0229079 0.0216533 0.0204269 0.0192331 0.0180758 0.016955 0.0158708 0.0148231 0.013812 0.0128375 0.0118995 0.0109987 0.0101359 0.00931091 0.00852387 0.00777474 0.00706352 0.0063902 0.0057548 0.00515658 0.00459482 0.00406953 0.00358069 0.00312832 0.00271241 0.00233297 0.00198998 0.00168013 0.00140007 0.00114981 0.000929349 0.000738685 0.00057782 0.000446752 0.000345483 0.00026451 0.000194334 0.000134954 8.63706e-05 4.85835e-05 2.15927e-05 5.39816e-06 0 0 7.07037e-05 0.000282815 0.000636333 0.00113126 0.00176759 0.00254533 0.00346448 0.00452504 0.00573911 0.00711879 0.0086641 0.010375 0.0122516 0.0142937 0.0165015 0.0188749 0.0213525 0.0238727 0.0264357 0.0290413 0.0316897 0.0343807 0.0371145 0.0398909 0.0426522 0.0453406 0.047956 0.0504986 0.0529682 0.0553649 0.0576887 0.0599395 0.0620867 0.0640995 0.065978 0.0677221 0.0693318 0.0708072 0.0721482 0.0733548 0.0744218 0.0753438 0.0761209 0.076753 0.0772402 0.0775824 0.0777797 0.077832 0.0777526 0.0775545 0.0772377 0.0768023 0.0762483 0.0755756 0.0747843 0.0738743 0.0728682 0.0717885 0.0706352 0.0694084 0.0681079 0.0667339 0.0652862 0.063765 0.0621936 0.0605955 0.0589707 0.0573191 0.0556408 0.0539357 0.0522039 0.0504454 0.0486787 0.0469223 0.0451763 0.0434405 0.0417152 0.0400001 0.0382954 0.036601 0.0349283 0.0332887 0.031682 0.0301084 0.0285678 0.0270602 0.0255856 0.024144 0.0227403 0.0213794 0.0200612 0.0187858 0.0175531 0.0163631 0.0152159 0.0141114 0.0130505 0.012034 0.0110618 0.010134 0.00925061 0.00841157 0.0076169 0.0068666 0.0061598 0.00549561 0.00487404 0.00429508 0.00375874 0.00326501 0.0028139 0.00240541 0.00203572 0.00170106 0.0014014 0.00113676 0.000907132 0.000712518 0.000552916 0.000428327 0.000327938 0.000240934 0.000167315 0.000107082 6.02335e-05 2.67705e-05 6.69262e-06 0 0 8.30972e-05 0.000332389 0.000747875 0.00132956 0.00207743 0.0029915 0.00407176 0.00531822 0.00674282 0.00835752 0.0101623 0.0121572 0.0143422 0.0167172 0.0192824 0.0220376 0.0249121 0.0278348 0.0308058 0.0338251 0.0368927 0.0400086 0.0431728 0.0463852 0.0495797 0.05269 0.055716 0.0586578 0.0615155 0.0642888 0.066978 0.069583 0.0720683 0.0743985 0.0765737 0.0785937 0.0804587 0.0821685 0.0837233 0.085123 0.0863614 0.0874322 0.0883355 0.0890712 0.0896394 0.09004 0.0902731 0.0903386 0.0902517 0.0900273 0.0896655 0.0891663 0.0885296 0.0877555 0.0868441 0.0857952 0.0846348 0.0833889 0.0820575 0.0806407 0.0791383 0.0775504 0.075877 0.0741181 0.0723008 0.0704521 0.0685721 0.0666608 0.064718 0.062744 0.0607385 0.0587018 0.0566551 0.0546201 0.0525967 0.0505848 0.0485847 0.0465961 0.0446191 0.0426537 0.0407132 0.0388107 0.0369461 0.0351196 0.0333311 0.0315806 0.0298681 0.0281936 0.0265628 0.0249814 0.0234494 0.0219668 0.0205336 0.0191498 0.0178154 0.0165304 0.0152958 0.0141124 0.0129805 0.0118998 0.0108705 0.00989251 0.00896585 0.00809053 0.00726548 0.00648966 0.00576306 0.00508569 0.00445754 0.00387862 0.00334892 0.00286845 0.00243292 0.00203804 0.00168381 0.00137024 0.00109733 0.000865064 0.000673457 0.000522504 0.000400042 0.000293908 0.000204103 0.000130626 7.34771e-05 3.26565e-05 8.16412e-06 0 0 9.65944e-05 0.000386378 0.00086935 0.00154551 0.00241486 0.0034774 0.00473313 0.00618204 0.00783557 0.00970515 0.0117908 0.0140924 0.0166101 0.0193439 0.0222937 0.0254595 0.0287604 0.0321154 0.0355245 0.0389877 0.0425049 0.0460762 0.0497016 0.0533811 0.0570395 0.0606016 0.0640674 0.067437 0.0707102 0.0738872 0.0769678 0.0799522 0.0827998 0.0854703 0.0879635 0.0902794 0.0924182 0.0943798 0.0961641 0.0977712 0.0991939 0.100425 0.101464 0.102311 0.102967 0.103431 0.103703 0.103784 0.10369 0.103438 0.103029 0.102462 0.101738 0.100856 0.0998161 0.0986191 0.0972941 0.0958708 0.0943492 0.0927292 0.091011 0.0891944 0.0872794 0.0852662 0.0831856 0.0810686 0.0789153 0.0767256 0.0744995 0.072237 0.0699382 0.067603 0.0652561 0.0629221 0.060601 0.0582929 0.0559977 0.0537154 0.051446 0.0491895 0.0469612 0.0447761 0.0426344 0.040536 0.038481 0.0364692 0.0345008 0.0325756 0.0307004 0.0288817 0.0271195 0.0254139 0.0237647 0.0221721 0.020636 0.0191564 0.0177344 0.0163712 0.0150668 0.0138212 0.0126344 0.0115063 0.0104371 0.00942659 0.00847364 0.00757698 0.00673661 0.00595253 0.00522474 0.00455324 0.00393804 0.00337912 0.0028717 0.00241101 0.00199704 0.00162979 0.00130927 0.00103546 0.000808375 0.000628011 0.000480821 0.000353256 0.000245317 0.000157003 8.83141e-05 3.92507e-05 9.81268e-06 0 0 0.000111195 0.000444781 0.00100076 0.00177913 0.00277988 0.00400303 0.00544857 0.0071165 0.00901736 0.0111617 0.0135495 0.0161808 0.0190555 0.0221738 0.0255354 0.0291406 0.0328976 0.0367146 0.0405917 0.0445289 0.0485262 0.0525836 0.0567011 0.0608786 0.0650316 0.0690755 0.0730103 0.0768359 0.0805524 0.0841598 0.087658 0.0910471 0.0942813 0.0973147 0.100147 0.102779 0.10521 0.107441 0.10947 0.111299 0.112919 0.114321 0.115506 0.116473 0.117223 0.117756 0.11807 0.118168 0.118067 0.117787 0.117327 0.116689 0.115872 0.114876 0.1137 0.112346 0.110846 0.109234 0.10751 0.105674 0.103726 0.101666 0.0994935 0.0972092 0.0948479 0.0924449 0.0900001 0.0875135 0.0849851 0.0824149 0.0798029 0.0771492 0.0744817 0.0718284 0.0691894 0.0665647 0.0639542 0.061358 0.058776 0.0562083 0.0536723 0.0511851 0.0487469 0.0463577 0.0440174 0.041726 0.0394836 0.0372902 0.0351532 0.0330804 0.0310716 0.029127 0.0272464 0.02543 0.0236776 0.0219893 0.0203665 0.0188103 0.0173209 0.0158982 0.0145423 0.0132531 0.0120306 0.0108748 0.00978426 0.00875756 0.00779468 0.0068956 0.00606034 0.00528888 0.00458124 0.00393741 0.00335209 0.00281998 0.00234109 0.00191541 0.00154295 0.0012237 0.00095767 0.00074485 0.000570276 0.000418978 0.000290957 0.000186213 0.000104745 4.65531e-05 1.16383e-05 0 0 0.000126596 0.000506385 0.00113937 0.00202554 0.00316491 0.00455746 0.00620321 0.00810216 0.0102636 0.012697 0.0154023 0.0183795 0.0216286 0.0251496 0.0289425 0.0330072 0.037241 0.041541 0.0459071 0.0503393 0.0548376 0.0594021 0.0640328 0.0687295 0.0733981 0.0779442 0.0823677 0.0866687 0.0908472 0.0949031 0.0988365 0.102647 0.106284 0.109696 0.112883 0.115844 0.11858 0.121091 0.123377 0.125438 0.127263 0.128845 0.130182 0.131275 0.132123 0.132728 0.133088 0.133203 0.133096 0.132787 0.132277 0.131565 0.130652 0.129538 0.128222 0.126704 0.125023 0.123215 0.121281 0.11922 0.117033 0.11472 0.11228 0.109713 0.10706 0.104359 0.101611 0.0988149 0.0959716 0.0930807 0.0901423 0.0871564 0.0841545 0.0811682 0.0781976 0.0752425 0.072303 0.0693791 0.0664708 0.063578 0.0607205 0.0579177 0.0551697 0.0524765 0.049838 0.0472543 0.0447254 0.0422512 0.0398404 0.0375016 0.0352347 0.0330399 0.030917 0.028866 0.0268871 0.0249801 0.0231466 0.0213881 0.0197046 0.018096 0.0165625 0.0151039 0.0137203 0.0124118 0.0111765 0.0100128 0.00892081 0.00790042 0.00695166 0.00607453 0.00526903 0.00453516 0.00386711 0.00325909 0.00271109 0.00222312 0.00179517 0.00142724 0.00111934 0.000871462 0.000667213 0.000490197 0.000340415 0.000217865 0.000122549 5.44664e-05 1.36166e-05 0 0 0.000142493 0.000569973 0.00128244 0.00227989 0.00356233 0.00512976 0.00698217 0.00911958 0.0115499 0.0142811 0.0173131 0.0206459 0.0242796 0.0282142 0.0324496 0.0369858 0.0417085 0.0465033 0.0513702 0.0563091 0.0613201 0.0664033 0.0715585 0.0767858 0.081981 0.0870399 0.0919627 0.0967491 0.101399 0.105913 0.110291 0.114533 0.118581 0.122379 0.125927 0.129225 0.132273 0.135071 0.137618 0.139916 0.141952 0.143717 0.145211 0.146433 0.147383 0.148062 0.148469 0.148604 0.148491 0.148155 0.147593 0.146808 0.145798 0.144564 0.143105 0.141422 0.139556 0.13755 0.135402 0.133112 0.130682 0.128111 0.125398 0.122545 0.119594 0.116589 0.113531 0.11042 0.107255 0.104037 0.100766 0.0974407 0.0940974 0.0907709 0.0874613 0.0841686 0.0808927 0.0776337 0.0743916 0.0711663 0.0679798 0.064854 0.0617888 0.0587843 0.0558404 0.0529572 0.0501346 0.0473727 0.0446811 0.0420695 0.0395379 0.0370862 0.0347146 0.0324229 0.0302112 0.0280795 0.0260294 0.0240628 0.0221796 0.0203797 0.0186632 0.0170302 0.0154805 0.0140142 0.0126294 0.0113242 0.0100986 0.00895253 0.00788607 0.0068992 0.00599191 0.00516421 0.00440982 0.00372248 0.00310217 0.00254891 0.00206269 0.00164352 0.00129138 0.00100629 0.000770439 0.000566037 0.000393081 0.000251572 0.000141509 6.2893e-05 1.57232e-05 0 0 0.000158887 0.000635547 0.00142998 0.00254219 0.00397217 0.00571992 0.00778545 0.0101688 0.0128761 0.0159138 0.0192817 0.02298 0.0270086 0.0313675 0.0360567 0.0410763 0.0462999 0.0516015 0.056981 0.0624384 0.0679738 0.073587 0.0792782 0.0850473 0.0907802 0.0963629 0.101795 0.107077 0.112209 0.117191 0.122022 0.126703 0.131171 0.135363 0.13928 0.142922 0.146288 0.149379 0.152194 0.154734 0.156986 0.158939 0.160593 0.161947 0.163002 0.163757 0.164213 0.16437 0.164253 0.163888 0.163276 0.162416 0.161308 0.159953 0.15835 0.156499 0.154446 0.152237 0.149872 0.147351 0.144673 0.14184 0.13885 0.135703 0.132449 0.129136 0.125762 0.122329 0.118837 0.115285 0.111673 0.108002 0.10431 0.100636 0.0969806 0.093343 0.0897234 0.0861219 0.0825386 0.0789733 0.0754503 0.071994 0.0686042 0.0652811 0.0620246 0.0588347 0.0557114 0.0526547 0.0496754 0.0467842 0.0439811 0.0412661 0.0386393 0.0361006 0.03365 0.0312875 0.029015 0.0268345 0.0247459 0.0227493 0.0208446 0.0190318 0.017311 0.0156821 0.0141431 0.0126917 0.011328 0.0100519 0.00886356 0.00776289 0.00674989 0.00582457 0.00498023 0.00421015 0.00351434 0.0028928 0.00234553 0.00187253 0.00147379 0.00114933 0.000879954 0.000646497 0.000448956 0.000287332 0.000161624 7.1833e-05 1.79582e-05 0 0 0.000175776 0.000703105 0.00158199 0.00281242 0.00439441 0.00632795 0.00861304 0.0112497 0.0142423 0.0175951 0.0213083 0.0253818 0.0298156 0.0346096 0.039764 0.0452787 0.0510153 0.0568357 0.0627396 0.0687272 0.0747985 0.0809534 0.087192 0.0935142 0.0997959 0.105913 0.111865 0.117653 0.123276 0.128735 0.134028 0.139158 0.144054 0.148649 0.152942 0.156935 0.160626 0.164016 0.167105 0.169892 0.172365 0.174511 0.176328 0.177818 0.178981 0.179815 0.180322 0.180501 0.180381 0.179989 0.179325 0.17839 0.177184 0.175706 0.173956 0.171936 0.169693 0.167279 0.164693 0.161936 0.159007 0.155906 0.152633 0.149189 0.145626 0.141998 0.138303 0.134542 0.130716 0.126823 0.122865 0.118841 0.114793 0.110765 0.106756 0.102766 0.0987951 0.0948437 0.0909116 0.0869988 0.0831319 0.0793376 0.075616 0.071967 0.0683906 0.0648868 0.0614557 0.0580972 0.0548232 0.0516456 0.0485643 0.0455795 0.0426911 0.039899 0.0372033 0.0346041 0.0321033 0.0297032 0.0274037 0.0252048 0.0231065 0.0211089 0.0192119 0.0174155 0.0157174 0.0141152 0.012609 0.0111986 0.00988414 0.00866559 0.00754296 0.00651624 0.00557832 0.00472211 0.00394759 0.00325479 0.00264368 0.00211428 0.00166658 0.00130058 0.000995758 0.000731578 0.00050804 0.000325146 0.000182894 8.12864e-05 2.03216e-05 0 0 0.000193162 0.000772649 0.00173846 0.0030906 0.00482906 0.00695384 0.00946495 0.0123624 0.0156484 0.0193252 0.0233928 0.0278512 0.0327005 0.0379405 0.0435714 0.049593 0.0558547 0.0622057 0.068646 0.0751755 0.0817943 0.0885024 0.0952997 0.102186 0.109028 0.11569 0.122173 0.128477 0.134601 0.140546 0.146311 0.151897 0.15723 0.162236 0.166913 0.171264 0.175287 0.178982 0.18235 0.185391 0.188089 0.190431 0.192417 0.194046 0.195319 0.196235 0.196794 0.196997 0.196874 0.196455 0.195741 0.19473 0.193424 0.191822 0.189925 0.187731 0.185296 0.182674 0.179864 0.176867 0.173682 0.170309 0.16675 0.163003 0.159125 0.155176 0.151154 0.147059 0.142892 0.138653 0.134341 0.129956 0.125546 0.121156 0.116786 0.112437 0.108108 0.103799 0.0995108 0.095243 0.0910246 0.086885 0.0828241 0.0788419 0.0749384 0.0711136 0.0673675 0.0637002 0.0601245 0.0566537 0.0532877 0.0500264 0.0468699 0.0438183 0.0408714 0.0380293 0.0352943 0.0326688 0.0301527 0.0277461 0.025449 0.0232613 0.0211831 0.0192144 0.0173525 0.0155949 0.0139416 0.0123925 0.0109478 0.00960731 0.00837112 0.0072392 0.0062041 0.00525834 0.00440193 0.00363486 0.00295714 0.00236877 0.00186974 0.00146005 0.00111785 0.000821279 0.000570332 0.000365013 0.00020532 9.12532e-05 2.28133e-05 0 0 0.000211044 0.000844177 0.0018994 0.00337671 0.00527611 0.0075976 0.0103412 0.0135068 0.0170945 0.0211039 0.0255352 0.0303884 0.0356634 0.0413602 0.0474788 0.0540193 0.0608181 0.0677117 0.0747001 0.0817833 0.0889612 0.096234 0.103602 0.111064 0.118476 0.125695 0.132718 0.139548 0.146183 0.152624 0.15887 0.164922 0.1707 0.176124 0.181193 0.185909 0.19027 0.194277 0.19793 0.201229 0.204158 0.206701 0.208859 0.21063 0.212016 0.213016 0.21363 0.213859 0.213734 0.213289 0.212523 0.211437 0.21003 0.208303 0.206255 0.203887 0.201256 0.198422 0.195385 0.192144 0.188699 0.185051 0.181199 0.177143 0.172946 0.16867 0.164315 0.15988 0.155366 0.150773 0.146101 0.141349 0.136569 0.13181 0.127072 0.122356 0.117661 0.112988 0.108336 0.103706 0.0991285 0.0946361 0.0902286 0.0859059 0.081668 0.077515 0.0734469 0.0694636 0.0655795 0.0618086 0.058151 0.0546068 0.0511759 0.0478583 0.0446541 0.0415631 0.038588 0.0357314 0.0329932 0.0303734 0.0278721 0.0254892 0.0232247 0.0210787 0.0190483 0.0171307 0.0153258 0.0136338 0.0120545 0.0105881 0.00923437 0.00799347 0.00685757 0.00581886 0.00487735 0.00403304 0.00328592 0.00263599 0.00208327 0.00162773 0.00124623 0.0009156 0.000635834 0.000406933 0.0002289 0.000101733 2.54333e-05 0 0 0.000229423 0.000917691 0.0020648 0.00367076 0.00573557 0.00825922 0.0112417 0.014683 0.0185805 0.0229313 0.0277356 0.0329932 0.0387042 0.0448686 0.0514864 0.0585575 0.0659055 0.0733536 0.080902 0.0885505 0.0962993 0.104148 0.112097 0.120147 0.1