<?xml version="1.0"?> 
<VTKFile type="StructuredGrid" version="0.1"> 
<StructuredGrid WholeExtent="0 128 0 128 0 0"> 
<Piece Extent="0 128 0 128 0 0"> 
<PointData>
<DataArray type="Float32" Name="u" format="ascii" NumberOfComponents="1"> 
0 0 0 0 0 0 0 0 0 0 0 0 0 0 0 0 0 0 0 0 0 0 0 0 0 0 0 0 0 0 0 0 0 0 0 0 0 0 0 0 0 0 0 0 0 0 0 0 0 0 0 0 0 0 0 0 0 0 0 0 0 0 0 0 0 0 0 0 0 0 0 0 0 0 0 0 0 0 0 0 0 0 0 0 0 0 0 0 0 0 0 0 0 0 0 0 0 0 0 0 0 0 0 0 0 0 0 0 0 0 0 0 0 0 0 0 0 0 0 0 0 0 0 0 0 0 0 0 0 0 2.44987e-07 9.79947e-07 2.20488e-06 3.91979e-06 6.12467e-06 8.81952e-06 1.20044e-05 1.56792e-05 1.99149e-05 2.47824e-05 3.02819e-05 3.64131e-05 4.31763e-05 5.05713e-05 5.85981e-05 6.72568e-05 7.63186e-05 8.55549e-05 9.49656e-05 0.000104551 0.00011431 0.000124244 0.000134353 0.000144636 0.000154877 0.000164859 0.000174583 0.000184049 0.000193256 0.000202205 0.000210895 0.000219327 0.000227393 0.000234983 0.0002421 0.000248741 0.000254908 0.000260601 0.000265819 0.000270563 0.000274816 0.000278565 0.00028181 0.000284549 0.000286784 0.000288514 0.000289739 0.00029046 0.000290722 0.000290571 0.000290007 0.000289031 0.000287642 0.00028584 0.000283626 0.000280999 0.000278032 0.000274799 0.000271298 0.000267531 0.000263496 0.000259195 0.000254627 0.000249793 0.000244763 0.000239611 0.000234336 0.000228938 0.000223418 0.000217775 0.00021201 0.000206121 0.000200166 0.000194199 0.000188221 0.000182231 0.000176229 0.000170217 0.000164192 0.000158156 0.000152145 0.000146194 0.000140303 0.000134473 0.000128703 0.000122993 0.000117344 0.000111755 0.000106248 0.000100845 9.55469e-05 9.03524e-05 8.52621e-05 8.02758e-05 7.53937e-05 7.06156e-05 6.59591e-05 6.14414e-05 5.70626e-05 5.28227e-05 4.87217e-05 4.47596e-05 4.09364e-05 3.72521e-05 3.37267e-05 3.03804e-05 2.72131e-05 2.4225e-05 2.14158e-05 1.87858e-05 1.63348e-05 1.40628e-05 1.19751e-05 1.00769e-05 8.36817e-06 6.8489e-06 5.51911e-06 4.37879e-06 3.42794e-06 2.66656e-06 2.04159e-06 1.49994e-06 1.04163e-06 6.6664e-07 3.74985e-07 1.6666e-07 4.1665e-08 0 0 9.79947e-07 3.91979e-06 8.81952e-06 1.56792e-05 2.44987e-05 3.52781e-05 4.80174e-05 6.27166e-05 7.96595e-05 9.91298e-05 0.000121127 0.000145653 0.000172705 0.000202285 0.000234392 0.000269027 0.000305275 0.00034222 0.000379863 0.000418203 0.000457242 0.000496978 0.000537412 0.000578543 0.000619507 0.000659437 0.000698333 0.000736196 0.000773025 0.00080882 0.000843581 0.000877308 0.00090957 0.000939933 0.000968398 0.000994965 0.00101963 0.0010424 0.00106328 0.00108225 0.00109927 0.00111426 0.00112724 0.0011382 0.00114714 0.00115406 0.00115896 0.00116184 0.00116289 0.00116228 0.00116003 0.00115612 0.00115057 0.00114336 0.0011345 0.001124 0.00111213 0.00109919 0.00108519 0.00107012 0.00105399 0.00103678 0.00101851 0.000999171 0.000979052 0.000958443 0.000937344 0.000915753 0.000893672 0.000871101 0.000848038 0.000824485 0.000800663 0.000776796 0.000752882 0.000728923 0.000704917 0.000680866 0.000656769 0.000632625 0.00060858 0.000584776 0.000561213 0.000537891 0.000514811 0.000491973 0.000469375 0.000447019 0.000424992 0.000403382 0.000382187 0.00036141 0.000341048 0.000321103 0.000301575 0.000282462 0.000263836 0.000245766 0.00022825 0.000211291 0.000194887 0.000179038 0.000163746 0.000149008 0.000134907 0.000121522 0.000108853 9.68998e-05 8.56633e-05 7.51431e-05 6.5339e-05 5.62512e-05 4.79005e-05 4.03076e-05 3.34727e-05 2.73956e-05 2.20764e-05 1.75152e-05 1.37118e-05 1.06662e-05 8.16635e-06 5.99976e-06 4.1665e-06 2.66656e-06 1.49994e-06 6.6664e-07 1.6666e-07 0 0 2.20488e-06 8.81952e-06 1.98439e-05 3.52781e-05 5.5122e-05 7.93757e-05 0.000108039 0.000141112 0.000179234 0.000223042 0.000272537 0.000327718 0.000388586 0.000455141 0.000527383 0.000605311 0.000686868 0.000769994 0.000854691 0.000940957 0.00102879 0.0011182 0.00120918 0.00130172 0.00139389 0.00148373 0.00157125 0.00165644 0.00173931 0.00181984 0.00189806 0.00197394 0.00204653 0.00211485 0.0021789 0.00223867 0.00229418 0.00234541 0.00239237 0.00243506 0.00247335 0.00250709 0.00253629 0.00256094 0.00258106 0.00259663 0.00260766 0.00261414 0.0026165 0.00261514 0.00261007 0.00260128 0.00258878 0.00257256 0.00255263 0.00252899 0.00250229 0.00247319 0.00244168 0.00240778 0.00237147 0.00233276 0.00229165 0.00224813 0.00220287 0.0021565 0.00210902 0.00206045 0.00201076 0.00195998 0.00190809 0.00185509 0.00180149 0.00174779 0.00169398 0.00164008 0.00158606 0.00153195 0.00147773 0.00142341 0.0013693 0.00131575 0.00126273 0.00121026 0.00115833 0.00110694 0.00105609 0.00100579 0.000956233 0.000907609 0.000859922 0.000813172 0.000767358 0.000722482 0.000678543 0.00063554 0.000593631 0.000552973 0.000513564 0.000475405 0.000438496 0.000402837 0.000368428 0.000335269 0.00030354 0.000273423 0.000244918 0.000218025 0.000192742 0.000169072 0.000147013 0.000126565 0.000107776 9.06922e-05 7.53135e-05 6.16401e-05 4.9672e-05 3.94091e-05 3.08514e-05 2.39991e-05 1.83743e-05 1.34995e-05 9.37463e-06 5.99976e-06 3.37487e-06 1.49994e-06 3.74985e-07 0 0 3.91979e-06 1.56792e-05 3.52781e-05 6.27166e-05 9.79947e-05 0.000141112 0.00019207 0.000250866 0.000318638 0.000396519 0.00048451 0.00058261 0.00069082 0.00080914 0.00093757 0.00107611 0.0012211 0.00136888 0.00151945 0.00167281 0.00182897 0.00198791 0.00214965 0.00231417 0.00247803 0.00263775 0.00279333 0.00294478 0.0030921 0.00323528 0.00337432 0.00350923 0.00363828 0.00375973 0.00387359 0.00397986 0.00407854 0.00416962 0.00425311 0.004329 0.00439706 0.00445705 0.00450896 0.00455279 0.00458855 0.00461623 0.00463583 0.00464736 0.00465155 0.00464913 0.00464012 0.0046245 0.00460227 0.00457345 0.00453802 0.00449598 0.00444852 0.00439678 0.00434077 0.00428049 0.00421594 0.00414713 0.00407404 0.00399668 0.00391621 0.00383377 0.00374938 0.00366301 0.00357469 0.0034844 0.00339215 0.00329794 0.00320265 0.00310718 0.00301153 0.00291569 0.00281967 0.00272346 0.00262707 0.0025305 0.00243432 0.0023391 0.00224485 0.00215157 0.00205925 0.00196789 0.0018775 0.00178808 0.00169997 0.00161353 0.00152875 0.00144564 0.00136419 0.00128441 0.0012063 0.00112985 0.00105534 0.000983062 0.000913002 0.000845164 0.000779548 0.000716154 0.000654982 0.000596033 0.000539627 0.000486086 0.00043541 0.000387599 0.000342653 0.000300572 0.000261356 0.000225005 0.000191602 0.000161231 0.000133891 0.000109582 8.83057e-05 7.00606e-05 5.4847e-05 4.2665e-05 3.26654e-05 2.39991e-05 1.6666e-05 1.06662e-05 5.99976e-06 2.66656e-06 6.6664e-07 0 0 6.12467e-06 2.44987e-05 5.5122e-05 9.79947e-05 0.000153117 0.000220488 0.000300109 0.000391979 0.000497872 0.000619561 0.000757047 0.000910329 0.00107941 0.00126428 0.00146495 0.00168142 0.00190797 0.00213887 0.00237414 0.00261377 0.00285776 0.00310611 0.00335882 0.0036159 0.00387192 0.00412148 0.00436458 0.00460122 0.0048314 0.00505512 0.00527238 0.00548318 0.00568481 0.00587458 0.00605249 0.00621853 0.00637271 0.00651503 0.00664548 0.00676406 0.00687041 0.00696414 0.00704524 0.00711373 0.0071696 0.00721285 0.00724349 0.0072615 0.00726805 0.00726427 0.00725018 0.00722578 0.00719105 0.00714601 0.00709065 0.00702498 0.00695081 0.00686996 0.00678245 0.00668827 0.00658741 0.00647988 0.00636569 0.00624482 0.00611908 0.00599027 0.0058584 0.00572346 0.00558545 0.00544438 0.00530024 0.00515303 0.00500415 0.00485497 0.00470551 0.00455577 0.00440573 0.00425541 0.0041048 0.00395391 0.00380362 0.00365485 0.00350758 0.00336182 0.00321757 0.00307483 0.0029336 0.00279387 0.0026562 0.00252114 0.00238867 0.00225881 0.00213155 0.0020069 0.00188484 0.00176539 0.00164898 0.00153603 0.00142657 0.00132057 0.00121804 0.00111899 0.00102341 0.000931301 0.000843167 0.00075951 0.000680329 0.000605624 0.000535396 0.000469644 0.000408369 0.00035157 0.000299378 0.000251923 0.000209204 0.000171223 0.000137978 0.00010947 8.56985e-05 6.6664e-05 5.10397e-05 3.74985e-05 2.60406e-05 1.6666e-05 9.37463e-06 4.1665e-06 1.04163e-06 0 0 8.81952e-06 3.52781e-05 7.93757e-05 0.000141112 0.000220488 0.000317503 0.000432157 0.00056445 0.000716935 0.000892168 0.00109015 0.00131087 0.00155435 0.00182057 0.00210953 0.00242124 0.00274747 0.00307998 0.00341876 0.00376383 0.00411517 0.0044728 0.00483671 0.00520689 0.00557556 0.00593493 0.006285 0.00662576 0.00695722 0.00727938 0.00759223 0.00789578 0.00818613 0.0084594 0.00871559 0.00895469 0.00917671 0.00938164 0.00956949 0.00974025 0.00989339 0.0100284 0.0101452 0.0102438 0.0103242 0.0103865 0.0104306 0.0104566 0.010466 0.0104606 0.0104403 0.0104051 0.0103551 0.0102903 0.0102105 0.010116 0.0100092 0.00989275 0.00976673 0.0096311 0.00948587 0.00933103 0.00916659 0.00899253 0.00881147 0.00862599 0.00843609 0.00824178 0.00804305 0.00783991 0.00763234 0.00742036 0.00720597 0.00699116 0.00677594 0.0065603 0.00634426 0.00612779 0.00591092 0.00569363 0.00547722 0.00526298 0.00505092 0.00484102 0.0046333 0.00442775 0.00422438 0.00402317 0.00382493 0.00363044 0.00343969 0.00325269 0.00306943 0.00288993 0.00271417 0.00254216 0.00237453 0.00221189 0.00205425 0.00190162 0.00175398 0.00161135 0.00147371 0.00134107 0.00121416 0.00109369 0.000979673 0.000872098 0.00077097 0.000676287 0.000588051 0.000506261 0.000431104 0.000362769 0.000301254 0.000246561 0.000198688 0.000157636 0.000123406 9.59962e-05 7.34971e-05 5.39979e-05 3.74985e-05 2.39991e-05 1.34995e-05 5.99976e-06 1.49994e-06 0 0 1.20044e-05 4.80174e-05 0.000108039 0.00019207 0.000300109 0.000432157 0.000588213 0.000768278 0.000975829 0.00121434 0.00148381 0.00178424 0.00211564 0.00247799 0.00287131 0.00329558 0.00373961 0.00419219 0.00465332 0.00512299 0.00560121 0.00608798 0.00658329 0.00708716 0.00758896 0.0080781 0.00855458 0.0090184 0.00946955 0.00990804 0.0103339 0.010747 0.0111422 0.0115142 0.0118629 0.0121883 0.0124905 0.0127695 0.0130251 0.0132576 0.013466 0.0136497 0.0138087 0.0139429 0.0140524 0.0141372 0.0141972 0.0142325 0.0142454 0.014238 0.0142104 0.0141625 0.0140945 0.0140062 0.0138977 0.013769 0.0136236 0.0134651 0.0132936 0.013109 0.0129113 0.0127006 0.0124767 0.0122398 0.0119934 0.0117409 0.0114825 0.011218 0.0109475 0.010671 0.0103885 0.0100999 0.00980812 0.00951575 0.00922281 0.0089293 0.00863524 0.00834061 0.00804542 0.00774966 0.0074551 0.0071635 0.00687486 0.00658917 0.00630644 0.00602667 0.00574985 0.00547599 0.00520616 0.00494143 0.0046818 0.00442727 0.00417784 0.00393351 0.00369429 0.00346016 0.00323199 0.00301063 0.00279607 0.00258831 0.00238736 0.00219322 0.00200588 0.00182535 0.00165261 0.00148864 0.00133344 0.00118702 0.00104938 0.000920502 0.000800403 0.000689077 0.000586781 0.000493769 0.00041004 0.000335596 0.000270436 0.000214561 0.000167969 0.000130662 0.000100038 7.34971e-05 5.10397e-05 3.26654e-05 1.83743e-05 8.16635e-06 2.04159e-06 0 0 1.56792e-05 6.27166e-05 0.000141112 0.000250866 0.000391979 0.00056445 0.000768278 0.00100347 0.00127455 0.00158608 0.00193804 0.00233044 0.00276328 0.00323656 0.00375028 0.00430444 0.00488439 0.00547552 0.0060778 0.00669125 0.00731587 0.00795164 0.00859859 0.00925669 0.00991211 0.010551 0.0111733 0.0117791 0.0123684 0.0129411 0.0134973 0.0140369 0.0145531 0.0150389 0.0154944 0.0159194 0.0163141 0.0166785 0.0170124 0.017316 0.0175882 0.0178282 0.0180358 0.0182112 0.0183542 0.0184649 0.0185433 0.0185894 0.0186062 0.0185965 0.0185605 0.018498 0.0184091 0.0182938 0.0181521 0.0179839 0.0177941 0.0175871 0.0173631 0.017122 0.0168638 0.0165885 0.0162962 0.0159867 0.0156648 0.0153351 0.0149975 0.0146521 0.0142988 0.0139376 0.0135686 0.0131918 0.0128106 0.0124287 0.0120461 0.0116628 0.0112787 0.0108939 0.0105083 0.010122 0.00973728 0.00935641 0.00897941 0.00860626 0.00823698 0.00787156 0.00751001 0.00715231 0.00679988 0.00645411 0.006115 0.00578255 0.00545677 0.00513765 0.00482519 0.0045194 0.00422138 0.00393225 0.00365201 0.00338065 0.00311819 0.00286462 0.00261993 0.00238413 0.00215851 0.00194434 0.00174164 0.0015504 0.00137061 0.00120229 0.00104542 0.000900019 0.000766408 0.000644922 0.000535563 0.00043833 0.000353223 0.000280242 0.000219388 0.00017066 0.000130662 9.59962e-05 6.6664e-05 4.2665e-05 2.39991e-05 1.06662e-05 2.66656e-06 0 0 1.99415e-05 7.97659e-05 0.000179473 0.000319064 0.000498537 0.000717893 0.000977132 0.00127625 0.00162082 0.00201639 0.00246297 0.00296055 0.00350913 0.00410873 0.00475932 0.00546092 0.00619504 0.00694318 0.00770534 0.00848152 0.00927173 0.010076 0.0108942 0.0117265 0.0125553 0.0133633 0.0141503 0.0149164 0.0156617 0.016386 0.0170895 0.017772 0.0184249 0.0190394 0.0196156 0.0201534 0.0206528 0.0211138 0.0215365 0.0219208 0.0222655 0.0225693 0.0228323 0.0230545 0.0232358 0.0233763 0.023476 0.0235348 0.0235564 0.0235447 0.0234995 0.023421 0.023309 0.0231635 0.0229847 0.0227725 0.0225327 0.0222713 0.0219882 0.0216836 0.0213573 0.0210093 0.0206398 0.0202486 0.0198416 0.0194246 0.0189977 0.0185608 0.0181139 0.0176571 0.0171903 0.0167135 0.0162313 0.0157481 0.0152639 0.0147788 0.0142928 0.0138057 0.0133177 0.0128288 0.0123418 0.0118597 0.0113824 0.01091 0.0104425 0.00997987 0.00952209 0.00906918 0.00862292 0.00818507 0.00775566 0.00733466 0.00692209 0.00651794 0.00612221 0.0057349 0.00535743 0.00499119 0.00463619 0.00429243 0.00395991 0.00363863 0.00332859 0.00302978 0.00274384 0.00247236 0.00221536 0.00197283 0.00174477 0.00153118 0.00133207 0.00114743 0.000977696 0.000823295 0.000684228 0.000560496 0.000452098 0.000359034 0.000281305 0.00021891 0.000167603 0.000123137 8.55118e-05 5.47276e-05 3.07843e-05 1.36819e-05 3.42047e-06 0 0 2.48888e-05 9.95554e-05 0.000224 0.000398222 0.000622221 0.000895999 0.00121955 0.00159289 0.00202235 0.0025143 0.00306873 0.00368565 0.00436505 0.00510694 0.00591132 0.00677817 0.00768478 0.00860841 0.00954905 0.0105067 0.0114814 0.0124731 0.0134818 0.0145075 0.0155289 0.0165246 0.0174945 0.0184388 0.0193573 0.0202502 0.0211173 0.0219587 0.0227637 0.0235215 0.0242321 0.0248955 0.0255117 0.0260807 0.0266025 0.0270772 0.027503 0.0278786 0.0282039 0.0284789 0.0287036 0.028878 0.0290022 0.029076 0.029104 0.0290909 0.0290365 0.0289408 0.028804 0.0286259 0.0284066 0.0281461 0.0278516 0.0275303 0.0271822 0.0268075 0.0264059 0.0259776 0.0255226 0.0250408 0.0245394 0.0240256 0.0234995 0.0229609 0.02241 0.0218467 0.021271 0.0206829 0.020088 0.0194918 0.0188943 0.0182956 0.0176956 0.0170944 0.0164919 0.0158881 0.0152867 0.0146913 0.0141018 0.0135182 0.0129406 0.012369 0.0118033 0.0112436 0.0106921 0.0101509 0.00962012 0.0090997 0.00858964 0.00808996 0.00760065 0.00712171 0.00665488 0.00620189 0.00576275 0.00533745 0.00492599 0.00452838 0.0041446 0.00377468 0.00342056 0.00308423 0.00276568 0.00246491 0.00218192 0.00191672 0.0016693 0.00143966 0.00122836 0.00103595 0.000862442 0.000707828 0.00057211 0.000455288 0.000357362 0.000278331 0.000213097 0.000156561 0.000108723 6.95828e-05 3.91403e-05 1.73957e-05 4.34893e-06 0 0 3.05213e-05 0.000122085 0.000274692 0.000488341 0.000763032 0.00109877 0.00149554 0.00195336 0.00247914 0.0030798 0.00375534 0.00450575 0.00533104 0.00623121 0.00720626 0.00825618 0.00935362 0.0104712 0.0116089 0.0127668 0.0139448 0.015143 0.0163613 0.0175998 0.0188328 0.0200349 0.021206 0.0223462 0.0234554 0.0245336 0.0255808 0.0265971 0.0275695 0.0284851 0.0293438 0.0301458 0.0308908 0.0315791 0.0322105 0.0327851 0.033301 0.0337561 0.0341506 0.0344845 0.0347576 0.0349701 0.035122 0.0352131 0.035249 0.0352351 0.0351713 0.0350577 0.0348942 0.0346809 0.0344178 0.0341048 0.0337506 0.0333641 0.032945 0.0324936 0.0320097 0.0314933 0.0309445 0.0303633 0.0297583 0.0291381 0.0285029 0.0278525 0.027187 0.0265064 0.0258107 0.0250999 0.0243807 0.0236598 0.0229373 0.0222131 0.0214873 0.0207599 0.0200308 0.0193 0.018572 0.0178511 0.0171374 0.0164308 0.0157313 0.015039 0.0143537 0.0136757 0.0130074 0.0123516 0.0117084 0.0110777 0.0104594 0.00985373 0.00926052 0.00867983 0.00811374 0.00756436 0.00703167 0.00651569 0.00601642 0.00553384 0.00506797 0.00461881 0.00418869 0.00377995 0.00339261 0.00302665 0.00268208 0.0023589 0.0020571 0.0017767 0.00151839 0.00128289 0.0010702 0.000880328 0.000713261 0.000569005 0.000447559 0.000348923 0.000267144 0.000196269 0.000136298 8.72307e-05 4.90673e-05 2.18077e-05 5.45192e-06 0 0 3.68388e-05 0.000147355 0.000331549 0.000589421 0.00092097 0.0013262 0.0018051 0.00235768 0.0029912 0.00371289 0.00452277 0.00542084 0.00640709 0.00748153 0.00864415 0.00989495 0.0112016 0.0125316 0.013885 0.0152618 0.0166621 0.0180857 0.0195328 0.0210033 0.0224671 0.0238943 0.0252848 0.0266386 0.0279558 0.0292363 0.0304801 0.0316872 0.0328424 0.0339303 0.0349509 0.0359042 0.0367902 0.037609 0.0383605 0.0390446 0.0396592 0.0402018 0.0406724 0.0410711 0.0413978 0.0416526 0.0418353 0.0419462 0.0419914 0.0419773 0.041904 0.0417714 0.0415796 0.0413285 0.0410182 0.0406485 0.04023 0.0397727 0.0392767 0.038742 0.0381686 0.0375565 0.0369057 0.0362161 0.0354982 0.0347621 0.0340079 0.0332355 0.032445 0.0316363 0.0308095 0.0299645 0.0291094 0.0282522 0.0273928 0.0265314 0.0256678 0.0248022 0.0239344 0.0230645 0.0221977 0.0213394 0.0204894 0.0196478 0.0188146 0.0179898 0.0171733 0.0163653 0.0155688 0.0147873 0.0140205 0.0132686 0.0125315 0.0118092 0.0111018 0.0104093 0.00973401 0.00907858 0.00844297 0.00782717 0.0072312 0.00665504 0.0060987 0.00556218 0.00504821 0.00455954 0.00409615 0.00365805 0.00324524 0.00285772 0.00249549 0.00215855 0.00184779 0.00156412 0.00130752 0.00107799 0.00087555 0.000700184 0.000551895 0.000430685 0.000329743 0.00024226 0.000168236 0.000107671 6.05651e-05 2.69178e-05 6.72945e-06 0 0 4.38413e-05 0.000175365 0.000394572 0.000701461 0.00109603 0.00157829 0.00214823 0.00280585 0.00355851 0.00441358 0.00537105 0.00643093 0.00759321 0.0088579 0.010225 0.0116945 0.0132286 0.0147895 0.0163772 0.0179918 0.0196331 0.0213013 0.0229962 0.024718 0.0264317 0.0281027 0.0297308 0.0313161 0.0328585 0.0343582 0.035815 0.037229 0.0385822 0.039857 0.0410532 0.0421708 0.0432099 0.0441704 0.0450523 0.0458557 0.0465778 0.0472156 0.0477693 0.0482388 0.0486242 0.0489253 0.0491423 0.0492751 0.0493311 0.0493176 0.0492346 0.0490821 0.0488602 0.0485687 0.0482078 0.0477774 0.0472895 0.0467561 0.0461771 0.0455526 0.0448826 0.044167 0.0434059 0.0425993 0.0417592 0.0408976 0.0400145 0.0391099 0.0381839 0.0372363 0.0362673 0.0352767 0.0342741 0.0332689 0.032261 0.0312504 0.0302371 0.0292213 0.0282027 0.0271815 0.0261638 0.0251559 0.0241577 0.0231692 0.0221904 0.0212214 0.0202621 0.0193125 0.0183764 0.0174577 0.0165564 0.0156724 0.0148058 0.0139565 0.0131246 0.01231 0.0115157 0.0107446 0.00999663 0.00927188 0.00857033 0.00789196 0.00723678 0.00660479 0.00599914 0.00542297 0.00487629 0.0043591 0.0038714 0.00341319 0.00298446 0.00258522 0.00221657 0.00187963 0.00157438 0.00130083 0.00105898 0.000848825 0.000670372 0.000523618 0.000400895 0.000294535 0.000204538 0.000130904 7.36338e-05 3.27261e-05 8.18153e-06 0 0 5.1529e-05 0.000206116 0.000463761 0.000824463 0.00128822 0.00185504 0.00252492 0.00329785 0.00418109 0.00518186 0.00630016 0.00753601 0.0088894 0.0103603 0.0119488 0.0136548 0.0154347 0.017245 0.0190856 0.0209566 0.0228579 0.0247896 0.0267516 0.0287439 0.0307268 0.0326601 0.0345441 0.0363786 0.0381637 0.0398993 0.0415856 0.0432224 0.0447891 0.0462652 0.0476507 0.0489455 0.0501497 0.0512633 0.0522862 0.0532184 0.0540567 0.0547977 0.0554413 0.0559877 0.0564367 0.0567885 0.0570429 0.0572 0.0572682 0.0572559 0.0571631 0.0569897 0.0567359 0.0564016 0.0559867 0.0554914 0.0549293 0.0543143 0.0536464 0.0529255 0.0521517 0.051325 0.0504454 0.0495129 0.0485413 0.0475446 0.0465227 0.0454758 0.0444037 0.0433065 0.0421841 0.0410366 0.0398749 0.0387099 0.0375417 0.0363701 0.0351953 0.0340172 0.0328358 0.0316511 0.0304703 0.0293007 0.0281423 0.026995 0.0258588 0.0247338 0.02362 0.0225173 0.0214302 0.0203631 0.0193161 0.0182892 0.0172823 0.0162955 0.0153287 0.014382 0.0134588 0.0125623 0.0116927 0.0108498 0.0100338 0.00924461 0.00848222 0.00774664 0.00704146 0.00637026 0.00573305 0.00512981 0.00456056 0.00402529 0.00352401 0.0030567 0.00262472 0.00222942 0.00187079 0.00154883 0.00126354 0.00101493 0.000802988 0.000627721 0.000480599 0.000353093 0.000245204 0.00015693 8.82733e-05 3.92326e-05 9.80815e-06 0 0 5.99016e-05 0.000239607 0.000539115 0.000958426 0.00149754 0.00215646 0.00293518 0.0038337 0.00485892 0.00601773 0.00731012 0.00873609 0.0102956 0.0119888 0.0138155 0.0157758 0.0178199 0.0198981 0.0220102 0.0241564 0.0263365 0.0285507 0.0307989 0.0330811 0.0353521 0.0375666 0.0397246 0.0418262 0.0438712 0.0458598 0.0477918 0.0496674 0.051463 0.053155 0.0547435 0.0562285 0.0576098 0.0588877 0.060062 0.0611327 0.062096 0.0629479 0.0636884 0.0643176 0.0648354 0.0652419 0.065537 0.0657208 0.0658027 0.0657922 0.0656894 0.0654943 0.0652068 0.064827 0.0643549 0.0637904 0.0631493 0.0624473 0.0616844 0.0608607 0.059976 0.0590305 0.058024 0.0569567 0.0558444 0.0547031 0.0535326 0.0523331 0.0511044 0.0498467 0.0485599 0.0472441 0.0459117 0.0445753 0.0432349 0.0418906 0.0405422 0.0391899 0.0378335 0.0364732 0.0351172 0.0337739 0.0324432 0.0311252 0.0298198 0.0285271 0.027247 0.0259796 0.02473 0.0235033 0.0222996 0.0211189 0.0199611 0.0188262 0.0177143 0.0166254 0.0155632 0.0145318 0.0135311 0.012561 0.0116216 0.010713 0.00983501 0.00898773 0.00817519 0.00740141 0.00666641 0.00597018 0.00531273 0.00469404 0.00411413 0.003573 0.00307225 0.00261349 0.00219674 0.00182199 0.00148924 0.00119849 0.000949745 0.000742996 0.000568856 0.000417935 0.000290233 0.000185749 0.000104484 4.64372e-05 1.16093e-05 0 0 6.89594e-05 0.000275837 0.000620634 0.00110335 0.00172398 0.00248254 0.00337901 0.0044134 0.00559202 0.00692119 0.0084009 0.0100312 0.011812 0.0137433 0.0158252 0.0180576 0.0203843 0.0227487 0.025151 0.027591 0.0300689 0.0325847 0.0351382 0.0377296 0.0403078 0.0428221 0.0452724 0.0476588 0.0499811 0.0522394 0.0544338 0.0565642 0.0586039 0.0605264 0.0623316 0.0640195 0.0655902 0.0670436 0.0683797 0.0695985 0.0706956 0.0716663 0.0725106 0.0732287 0.0738204 0.0742857 0.0746248 0.0748374 0.0749345 0.0749266 0.0748137 0.0745958 0.0742729 0.0738451 0.0733123 0.0726745 0.0719495 0.0711551 0.0702913 0.0693581 0.0683554 0.0672833 0.0661418 0.0649309 0.0636686 0.062373 0.061044 0.0596818 0.0582861 0.0568571 0.0553948 0.0538992 0.0523845 0.050865 0.0493408 0.0478117 0.0462779 0.0447394 0.043196 0.0416479 0.0401045 0.0385754 0.0370605 0.0355598 0.0340734 0.0326012 0.0311433 0.0296996 0.028276 0.0268785 0.025507 0.0241615 0.0228421 0.0215487 0.0202813 0.01904 0.0178291 0.0166531 0.0155118 0.0144054 0.0133338 0.0122971 0.0112952 0.0103281 0.00940031 0.00851642 0.00767638 0.00688021 0.00612789 0.00541944 0.00475484 0.00413411 0.00355914 0.00303186 0.00255225 0.00212033 0.00173608 0.00139952 0.00111064 0.00086944 0.000665665 0.00048906 0.000339625 0.00021736 0.000122265 5.434e-05 1.3585e-05 0 0 7.85128e-05 0.000314051 0.000706615 0.0012562 0.00196282 0.00282646 0.00384713 0.00502482 0.00636508 0.00787347 0.00954997 0.0113946 0.0134073 0.0155882 0.0179372 0.0204543 0.0230763 0.0257399 0.0284452 0.0311922 0.0339808 0.0368111 0.039683 0.0425967 0.0454952 0.0483219 0.0510769 0.05376 0.0563713 0.0589108 0.0613786 0.0637745 0.0660687 0.0682315 0.0702627 0.0721623 0.0739305 0.0755671 0.0770722 0.0784457 0.0796826 0.0807775 0.0817305 0.0825417 0.0832109 0.0837382 0.0841236 0.084367 0.0844805 0.0844758 0.084353 0.084112 0.0837528 0.0832755 0.0826801 0.0819665 0.0811546 0.0802645 0.0792959 0.078249 0.0771238 0.0759202 0.0746383 0.073278 0.0718596 0.0704035 0.0689095 0.0673777 0.065808 0.0642006 0.0625553 0.0608722 0.0591674 0.057457 0.0557409 0.0540192 0.0522918 0.0505589 0.0488203 0.047076 0.0453369 0.0436136 0.0419063 0.0402148 0.0385391 0.0368793 0.0352355 0.0336074 0.032002 0.0304257 0.0288787 0.027361 0.0258724 0.0244131 0.0229831 0.0215822 0.0202156 0.0188881 0.0175997 0.0163504 0.0151402 0.0139692 0.0128372 0.0117444 0.0106958 0.00969623 0.00874582 0.00784454 0.00699239 0.00618938 0.00543549 0.00473074 0.00407736 0.0034776 0.00293146 0.00243893 0.00200002 0.00161473 0.00128305 0.001005 0.00076945 0.00056531 0.000392577 0.000251249 0.000141328 6.28123e-05 1.57031e-05 0 0 8.83726e-05 0.00035349 0.000795353 0.00141396 0.00220931 0.00318141 0.00433026 0.00565584 0.00716281 0.00885578 0.0107348 0.0127997 0.0150507 0.0174877 0.0201107 0.0229198 0.0258445 0.0288147 0.0318303 0.0348913 0.0379978 0.0411497 0.044347 0.0475898 0.0508154 0.0539612 0.0570272 0.0600134 0.0629198 0.0657464 0.0684932 0.0711602 0.0737143 0.0761224 0.0783844 0.0805004 0.0824703 0.0842943 0.0859722 0.0875041 0.0888841 0.0901063 0.0911708 0.0920775 0.0928264 0.0934175 0.0938509 0.0941266 0.0942575 0.0942568 0.0941246 0.0938607 0.0934652 0.0929382 0.0922795 0.0914892 0.0905893 0.089602 0.0885272 0.0873648 0.086115 0.0847777 0.0833528 0.0818405 0.0802632 0.0786434 0.0769812 0.0752766 0.0735295 0.0717399 0.0699079 0.0680335 0.0661346 0.0642291 0.062317 0.0603984 0.0584732 0.0565415 0.0546032 0.0526584 0.050719 0.0487971 0.0468928 0.0450059 0.0431366 0.0412847 0.0394504 0.0376336 0.0358417 0.0340824 0.0323555 0.0306611 0.0289992 0.0273697 0.0257728 0.0242083 0.0226818 0.0211988 0.0197592 0.0183632 0.0170106 0.0157015 0.0144358 0.0132137 0.0120405 0.0109218 0.00985757 0.00884782 0.00789255 0.00699176 0.00614544 0.0053536 0.00461886 0.00394383 0.00332851 0.00277291 0.00227701 0.00184083 0.00146436 0.0011476 0.000878634 0.000645527 0.000448283 0.000286901 0.000161382 7.17252e-05 1.79313e-05 0 0 9.85387e-05 0.000394155 0.000886848 0.00157662 0.00246347 0.00354739 0.0048284 0.00630648 0.0079852 0.00986813 0.0119553 0.0142466 0.0167422 0.0194419 0.0223459 0.0254541 0.028689 0.031973 0.0353061 0.0386884 0.0421199 0.0456004 0.0491302 0.0527091 0.0562685 0.05974 0.0631235 0.0664191 0.0696266 0.0727462 0.0757778 0.0787214 0.0815406 0.0841991 0.0866968 0.0890337 0.0912098 0.0932252 0.0950798 0.0967736 0.0983001 0.0996527 0.100831 0.101836 0.102667 0.103324 0.103807 0.104116 0.104265 0.10427 0.104128 0.103842 0.10341 0.102833 0.10211 0.101243 0.100254 0.0991678 0.0979851 0.0967055 0.095329 0.0938557 0.0922855 0.0906184 0.0888792 0.0870929 0.0852593 0.0833785 0.0814504 0.0794752 0.0774527 0.075383 0.0732859 0.0711813 0.0690691 0.0669494 0.0648221 0.0626873 0.0605449 0.058395 0.0562509 0.0541259 0.0520201 0.0499334 0.0478658 0.0458174 0.0437881 0.041778 0.0397953 0.0378484 0.0359373 0.0340619 0.0322223 0.0304185 0.0286505 0.0269182 0.0252278 0.0235852 0.0219906 0.0204438 0.018945 0.017494 0.0160909 0.0147358 0.0134345 0.0121931 0.0110116 0.00989005 0.00882837 0.00782658 0.00688469 0.0060027 0.00518364 0.00443054 0.00374342 0.00312225 0.00256706 0.00207783 0.00165456 0.00129726 0.000993217 0.000729711 0.000506743 0.000324316 0.000182428 8.1079e-05 2.02697e-05 0 0 0.000109011 0.000436044 0.0009811 0.00174418 0.00272528 0.0039244 0.00534154 0.00697671 0.00883225 0.0109105 0.0132115 0.0157352 0.0184816 0.0214508 0.0246427 0.0280573 0.0316097 0.0352148 0.0388728 0.0425835 0.046347 0.0501634 0.0540325 0.0579544 0.0618545 0.0656583 0.0693658 0.0729769 0.0764917 0.0799101 0.0832322 0.086458 0.0895477 0.0924617 0.0951998 0.0977623 0.100149 0.10236 0.104395 0.106254 0.107931 0.109417 0.110712 0.111818 0.112733 0.113457 0.113991 0.114335 0.114504 0.114514 0.114365 0.114056 0.113587 0.11296 0.112173 0.111227 0.110147 0.108962 0.10767 0.106271 0.104766 0.103154 0.101436 0.0996117 0.0977078 0.0957518 0.0937437 0.0916834 0.0895709 0.0874063 0.0851896 0.0829207 0.0806215 0.0783136 0.0759971 0.0736721 0.0713384 0.0689962 0.0666453 0.0642859 0.0619325 0.0595999 0.0572881 0.054997 0.0527268 0.0504773 0.0482486 0.0460407 0.0438627 0.0417238 0.0396241 0.0375634 0.0355419 0.0335594 0.0316161 0.0297119 0.0278535 0.0260474 0.0242937 0.0225923 0.0209434 0.0193468 0.0178026 0.0163107 0.0148778 0.0135102 0.012208 0.0109712 0.00979985 0.00869385 0.00765324 0.00667802 0.00577169 0.00493774 0.00417617 0.00348697 0.00287016 0.00232572 0.00185366 0.00145397 0.0011132 0.000817861 0.000567959 0.000363494 0.000204465 9.08734e-05 2.27183e-05 0 0 0.00011979 0.00047916 0.00107811 0.00191664 0.00299475 0.00431244 0.00586971 0.00766655 0.00970397 0.0119829 0.0145035 0.0172655 0.0202692 0.0235143 0.0270011 0.0307294 0.0346066 0.0385402 0.0425302 0.0465766 0.0506793 0.0548385 0.0590539 0.0633258 0.0675734 0.0717162 0.075754 0.079687 0.0835151 0.0872383 0.0908566 0.0943701 0.0977356 0.10091 0.103894 0.106686 0.109288 0.111698 0.113918 0.115946 0.117776 0.119398 0.120813 0.122022 0.123023 0.123817 0.124405 0.124785 0.124974 0.124991 0.124833 0.124502 0.123997 0.123319 0.122467 0.121441 0.120271 0.118984 0.117581 0.116061 0.114426 0.112674 0.110805 0.10882 0.106749 0.10462 0.102434 0.100191 0.0978909 0.0955334 0.0931186 0.0906467 0.0881412 0.0856261 0.0831012 0.0805666 0.0780223 0.0754682 0.0729045 0.070331 0.0677638 0.0652191 0.0626968 0.0601969 0.0577195 0.0552644 0.0528318 0.0504216 0.0480439 0.0457086 0.0434159 0.0411656 0.0389578 0.0367926 0.0346698 0.0325895 0.0305589 0.0285853 0.0266685 0.0248087 0.0230058 0.0212598 0.0195707 0.0179385 0.0163703 0.014873 0.0134467 0.0120914 0.010807 0.00959356 0.00845109 0.00737958 0.00638303 0.00546543 0.00462677 0.00386707 0.00318631 0.0025845 0.00206165 0.00161774 0.00123858 0.000909977 0.000631929 0.000404434 0.000227494 0.000101109 2.52771e-05 0 0 0.000130875 0.0005235 0.00117788 0.002094 0.00327188 0.0047115 0.00641288 0.008376 0.0106003 0.0130854 0.0158311 0.0188376 0.0221047 0.0256325 0.0294211 0.0334703 0.0376798 0.0419492 0.0462785 0.0506677 0.0551168 0.0596257 0.0641946 0.0688233 0.0734252 0.0779135 0.0822882 0.0865492 0.0906967 0.0947306 0.0986509 0.102458 0.106104 0.109544 0.112778 0.115805 0.118626 0.12124 0.123648 0.125849 0.127835 0.129597 0.131135 0.132449 0.133539 0.134404 0.135046 0.135464 0.135675 0.135699 0.135534 0.135181 0.13464 0.13391 0.132993 0.131887 0.130624 0.129234 0.127719 0.126077 0.124308 0.122413 0.120392 0.118245 0.116003 0.113698 0.111331 0.108902 0.10641 0.103856 0.10124 0.0985609 0.0958452 0.0931187 0.0903812 0.0876329 0.0848736 0.0821034 0.0793223 0.0765304 0.073745 0.0709836 0.0682463 0.0655331 0.0628439 0.0601788 0.0575378 0.0549208 0.0523389 0.0498028 0.0473127 0.0448685 0.0424702 0.0401178 0.0378114 0.0355509 0.0333441 0.0311989 0.0291151 0.0270929 0.0251322 0.023233 0.0213953 0.0196192 0.0179121 0.0162816 0.0147277 0.0132505 0.0118498 0.0105257 0.00927824 0.00810737 0.00