<?xml version="1.0"?> 
<VTKFile type="StructuredGrid" version="0.1"> 
<StructuredGrid WholeExtent="0 128 0 128 0 0"> 
<Piece Extent="0 128 0 128 0 0"> 
<PointData>
<DataArray type="Float32" Name="u" format="ascii" NumberOfComponents="1"> 
0 0 0 0 0 0 0 0 0 0 0 0 0 0 0 0 0 0 0 0 0 0 0 0 0 0 0 0 0 0 0 0 0 0 0 0 0 0 0 0 0 0 0 0 0 0 0 0 0 0 0 0 0 0 0 0 0 0 0 0 0 0 0 0 0 0 0 0 0 0 0 0 0 0 0 0 0 0 0 0 0 0 0 0 0 0 0 0 0 0 0 0 0 0 0 0 0 0 0 0 0 0 0 0 0 0 0 0 0 0 0 0 0 0 0 0 0 0 0 0 0 0 0 0 0 0 0 0 0 0 5.4538e-07 2.18152e-06 4.90842e-06 8.72608e-06 1.36345e-05 1.96337e-05 2.67236e-05 3.49043e-05 4.43379e-05 5.51866e-05 6.74503e-05 8.11291e-05 9.6223e-05 0.000112732 0.000130656 0.000149995 0.00017023 0.000190844 0.000211835 0.000233204 0.000254951 0.000277076 0.000299578 0.000322459 0.000345211 0.000367331 0.000388816 0.000409669 0.000429888 0.000449474 0.000468427 0.000486746 0.000504169 0.000520432 0.000535537 0.000549482 0.000562267 0.000573894 0.000584361 0.000593669 0.000601779 0.000608656 0.000614297 0.000618704 0.000621876 0.000623814 0.000624517 0.000623986 0.000622344 0.000619715 0.0006161 0.000611499 0.000605912 0.000599338 0.000591777 0.000583231 0.000573902 0.000563995 0.000553511 0.000542449 0.000530809 0.000518591 0.000505796 0.000492422 0.000478679 0.000464774 0.000450708 0.00043648 0.00042209 0.000407539 0.000392826 0.000377951 0.000363074 0.000348355 0.000333794 0.00031939 0.000305144 0.000291056 0.000277125 0.000263352 0.000249827 0.000236642 0.000223796 0.000211288 0.00019912 0.000187292 0.000175802 0.000164652 0.00015387 0.000143485 0.000133498 0.000123908 0.000114716 0.000105921 9.75242e-05 8.95244e-05 8.19128e-05 7.46799e-05 6.78258e-05 6.13505e-05 5.52539e-05 4.95361e-05 4.41971e-05 3.92369e-05 3.46293e-05 3.03483e-05 2.63939e-05 2.27661e-05 1.94649e-05 1.64903e-05 1.38423e-05 1.15208e-05 9.47502e-06 7.65384e-06 6.0573e-06 4.68539e-06 3.53813e-06 2.6155e-06 1.9175e-06 1.44415e-06 1.10568e-06 8.12333e-07 5.6412e-07 3.61037e-07 2.03083e-07 9.02593e-08 2.25648e-08 0 0 2.18152e-06 8.72608e-06 1.96337e-05 3.49043e-05 5.4538e-05 7.85347e-05 0.000106894 0.000139617 0.000177352 0.000220746 0.000269801 0.000324517 0.000384892 0.000450928 0.000522624 0.00059998 0.000680922 0.000763375 0.00084734 0.000932816 0.0010198 0.0011083 0.00119831 0.00128983 0.00138084 0.00146932 0.00155527 0.00163868 0.00171955 0.0017979 0.00187371 0.00194698 0.00201668 0.00208173 0.00214215 0.00219793 0.00224907 0.00229558 0.00233744 0.00237467 0.00240712 0.00243462 0.00245719 0.00247482 0.00248751 0.00249526 0.00249807 0.00249594 0.00248937 0.00247886 0.0024644 0.002446 0.00242365 0.00239735 0.00236711 0.00233292 0.00229561 0.00225598 0.00221404 0.0021698 0.00212324 0.00207436 0.00202318 0.00196969 0.00191472 0.0018591 0.00180283 0.00174592 0.00168836 0.00163015 0.0015713 0.0015118 0.0014523 0.00139342 0.00133518 0.00127756 0.00122058 0.00116422 0.0011085 0.00105341 0.000999309 0.000946567 0.000895182 0.000845154 0.000796482 0.000749167 0.000703209 0.000658607 0.000615479 0.00057394 0.000533992 0.000495633 0.000458865 0.000423686 0.000390097 0.000358098 0.000327651 0.00029872 0.000271303 0.000245402 0.000221016 0.000198145 0.000176788 0.000156947 0.000138517 0.000121393 0.000105576 9.10645e-05 7.78596e-05 6.59612e-05 5.53691e-05 4.60834e-05 3.79001e-05 3.06154e-05 2.42292e-05 1.87416e-05 1.41525e-05 1.0462e-05 7.67002e-06 5.77659e-06 4.4227e-06 3.24933e-06 2.25648e-06 1.44415e-06 8.12333e-07 3.61037e-07 9.02593e-08 0 0 4.90842e-06 1.96337e-05 4.41758e-05 7.85347e-05 0.00012271 0.000176703 0.000240513 0.000314139 0.000399041 0.000496679 0.000607053 0.000730162 0.000866007 0.00101459 0.0011759 0.00134995 0.00153207 0.00171759 0.00190651 0.00209884 0.00229456 0.00249368 0.0026962 0.00290213 0.0031069 0.00330597 0.00349935 0.00368702 0.003869 0.00404527 0.00421584 0.00438071 0.00453752 0.00468389 0.00481983 0.00494534 0.00506041 0.00516504 0.00525925 0.00534302 0.00541601 0.0054779 0.00552867 0.00556834 0.00559689 0.00561433 0.00562065 0.00561587 0.00560109 0.00557744 0.0055449 0.00550349 0.0054532 0.00539404 0.005326 0.00524908 0.00516512 0.00507596 0.0049816 0.00488204 0.00477728 0.00466732 0.00455216 0.0044318 0.00430811 0.00418297 0.00405637 0.00392832 0.00379881 0.00366785 0.00353543 0.00340156 0.00326767 0.0031352 0.00300415 0.00287451 0.0027463 0.0026195 0.00249413 0.00237017 0.00224845 0.00212978 0.00201416 0.0019016 0.00179208 0.00168563 0.00158222 0.00148187 0.00138483 0.00129137 0.00120148 0.00111518 0.00103245 0.000953293 0.000877718 0.00080572 0.000737215 0.000672119 0.000610432 0.000552154 0.000497285 0.000445825 0.000397774 0.000353132 0.000311664 0.000273135 0.000237545 0.000204895 0.000175184 0.000148413 0.00012458 0.000103688 8.52752e-05 6.88846e-05 5.45157e-05 4.21686e-05 3.18431e-05 2.35395e-05 1.72575e-05 1.29973e-05 9.95108e-06 7.311e-06 5.07708e-06 3.24933e-06 1.82775e-06 8.12333e-07 2.03083e-07 0 0 8.72608e-06 3.49043e-05 7.85347e-05 0.000139617 0.000218152 0.000314139 0.000427578 0.000558469 0.000709407 0.000882986 0.00107921 0.00129807 0.00153957 0.00180371 0.00209049 0.00239992 0.00272369 0.0030535 0.00338936 0.00373126 0.00407921 0.00443321 0.00479325 0.00515934 0.00552338 0.00587729 0.00622106 0.00655471 0.00687821 0.00719159 0.00749483 0.00778794 0.0080667 0.00832692 0.00856859 0.00879171 0.00899628 0.0091823 0.00934977 0.0094987 0.00962847 0.00973849 0.00982875 0.00989926 0.00995002 0.00998102 0.00999227 0.00998377 0.0099575 0.00991544 0.0098576 0.00978399 0.00969459 0.0095894 0.00946844 0.00933169 0.00918243 0.00902393 0.00885618 0.00867918 0.00849294 0.00829746 0.00809273 0.00787875 0.00765886 0.00743639 0.00721133 0.00698368 0.00675344 0.00652062 0.00628521 0.00604722 0.00580919 0.00557368 0.0053407 0.00511024 0.00488231 0.00465689 0.004434 0.00421363 0.00399724 0.00378627 0.00358073 0.00338061 0.00318593 0.00299667 0.00281283 0.00263443 0.00246192 0.00229576 0.00213597 0.00198253 0.00183546 0.00169474 0.00156039 0.00143239 0.0013106 0.00119488 0.00108521 0.000981608 0.000884063 0.000792578 0.000707154 0.00062779 0.000554068 0.000485573 0.000422303 0.000364258 0.000311439 0.000263845 0.000221476 0.000184333 0.0001516 0.000122461 9.69168e-05 7.49663e-05 5.661e-05 4.1848e-05 3.06801e-05 2.31064e-05 1.76908e-05 1.29973e-05 9.02593e-06 5.77659e-06 3.24933e-06 1.44415e-06 3.61037e-07 0 0 1.36345e-05 5.4538e-05 0.00012271 0.000218152 0.000340862 0.000490842 0.00066809 0.000872608 0.00110845 0.00137966 0.00168626 0.00202823 0.00240557 0.0028183 0.0032664 0.00374987 0.00425576 0.00477109 0.00529587 0.0058301 0.00637377 0.00692689 0.00748945 0.00806146 0.00863028 0.00918326 0.00972041 0.0102417 0.0107472 0.0112369 0.0117107 0.0121687 0.0126042 0.0130108 0.0133884 0.013737 0.0140567 0.0143473 0.014609 0.0148417 0.0150445 0.0152164 0.0153574 0.0154676 0.0155469 0.0155954 0.0156129 0.0155996 0.0155586 0.0154929 0.0154025 0.0152875 0.0151478 0.0149834 0.0147944 0.0145808 0.0143475 0.0140999 0.0138378 0.0135612 0.0132702 0.0129648 0.0126449 0.0123106 0.011967 0.0116194 0.0112677 0.010912 0.0105523 0.0101885 0.00982064 0.00944877 0.00907686 0.00870888 0.00834485 0.00798475 0.0076286 0.00727639 0.00692813 0.0065838 0.00624568 0.00591605 0.00559489 0.00528221 0.00497801 0.00468229 0.00439505 0.00411629 0.00384674 0.00358713 0.00333745 0.00309771 0.0028679 0.00264804 0.00243811 0.00223811 0.00204782 0.001867 0.00169565 0.00153376 0.00138135 0.0012384 0.00110493 0.000980921 0.000865732 0.000758707 0.000659848 0.000569153 0.000486623 0.000412257 0.000346057 0.000288021 0.000236876 0.000191346 0.000151432 0.000117135 8.84532e-05 6.53874e-05 4.79376e-05 3.61037e-05 2.76419e-05 2.03083e-05 1.4103e-05 9.02593e-06 5.07708e-06 2.25648e-06 5.6412e-07 0 0 1.96337e-05 7.85347e-05 0.000176703 0.000314139 0.000490842 0.000706812 0.00096205 0.00125656 0.00159617 0.00198672 0.00242821 0.00292065 0.00346403 0.00405835 0.00470361 0.00539982 0.0061283 0.00687038 0.00762606 0.00839534 0.00917823 0.00997472 0.0107848 0.0116085 0.0124276 0.0132239 0.0139974 0.0147481 0.015476 0.0161811 0.0168634 0.0175229 0.0181501 0.0187356 0.0192793 0.0197813 0.0202416 0.0206602 0.021037 0.0213721 0.0216641 0.0219116 0.0221147 0.0222733 0.0223875 0.0224573 0.0224826 0.0224635 0.0224044 0.0223097 0.0221796 0.022014 0.0218128 0.0215762 0.021304 0.0209963 0.0206605 0.0203038 0.0199264 0.0195282 0.0191091 0.0186693 0.0182086 0.0177272 0.0172324 0.0167319 0.0162255 0.0157133 0.0151952 0.0146714 0.0141417 0.0136062 0.0130707 0.0125408 0.0120166 0.011498 0.0109852 0.010478 0.0099765 0.00948067 0.00899378 0.00851911 0.00805664 0.00760638 0.00716834 0.0067425 0.00632888 0.00592746 0.00553931 0.00516546 0.00480593 0.0044607 0.00412978 0.00381317 0.00351087 0.00322288 0.00294886 0.00268848 0.00244173 0.00220862 0.00198914 0.0017833 0.0015911 0.00141253 0.00124665 0.00109254 0.000950181 0.00081958 0.000700737 0.000593651 0.000498322 0.00041475 0.000341101 0.000275538 0.000218063 0.000168674 0.000127373 9.41579e-05 6.90301e-05 5.19893e-05 3.98043e-05 2.9244e-05 2.03083e-05 1.29973e-05 7.311e-06 3.24933e-06 8.12333e-07 0 0 2.67236e-05 0.000106894 0.000240513 0.000427578 0.00066809 0.00096205 0.00130946 0.00171031 0.00217256 0.00270414 0.00330507 0.00397533 0.00471493 0.00552386 0.00640214 0.00734975 0.00834129 0.00935134 0.0103799 0.011427 0.0124926 0.0135767 0.0146793 0.0158005 0.0169153 0.0179992 0.019052 0.0200738 0.0210645 0.0220242 0.0229529 0.0238506 0.0247043 0.0255012 0.0262413 0.0269246 0.0275511 0.0281208 0.0286337 0.0290898 0.0294872 0.0298241 0.0301006 0.0303165 0.0304719 0.0305669 0.0306013 0.0305753 0.0304948 0.030366 0.0301889 0.0299635 0.0296897 0.0293675 0.0289971 0.0285783 0.0281212 0.0276358 0.027122 0.02658 0.0260096 0.025411 0.024784 0.0241287 0.0234553 0.0227739 0.0220847 0.0213875 0.0206824 0.0199694 0.0192485 0.0185196 0.0177906 0.0170694 0.0163559 0.0156501 0.0149521 0.0142617 0.0135791 0.0129042 0.0122415 0.0115954 0.010966 0.0103531 0.0097569 0.0091773 0.00861431 0.00806794 0.00753962 0.00703077 0.0065414 0.00607151 0.00562109 0.00519015 0.00477869 0.0043867 0.00401373 0.00365932 0.00332347 0.00300617 0.00270744 0.00242727 0.00216566 0.00192261 0.00169683 0.00148707 0.0012933 0.00111554 0.00095378 0.000808024 0.000678271 0.000564521 0.000464276 0.000375038 0.000296808 0.000229584 0.000173368 0.000128159 9.39577e-05 7.07633e-05 5.41781e-05 3.98043e-05 2.76419e-05 1.76908e-05 9.95108e-06 4.4227e-06 1.10568e-06 0 0 3.49043e-05 0.000139617 0.000314139 0.000558469 0.000872608 0.00125656 0.00171031 0.00223388 0.00283763 0.00353194 0.00431682 0.00519226 0.00615827 0.00721484 0.00836198 0.00959968 0.0108947 0.012214 0.0135574 0.0149251 0.0163169 0.0177328 0.019173 0.0206373 0.0220935 0.0235092 0.0248843 0.0262188 0.0275129 0.0287664 0.0299793 0.0311517 0.0322668 0.0333077 0.0342744 0.0351668 0.0359851 0.0367292 0.0373991 0.0379948 0.0385139 0.038954 0.039315 0.0395971 0.0398001 0.0399241 0.0399691 0.0399351 0.03983 0.0396618 0.0394304 0.0391359 0.0387783 0.0383576 0.0378738 0.0373268 0.0367297 0.0360957 0.0354247 0.0347167 0.0339718 0.0331898 0.0323709 0.031515 0.0306355 0.0297456 0.0288453 0.0279347 0.0270138 0.0260825 0.0251408 0.0241889 0.0232368 0.0222947 0.0213628 0.020441 0.0195292 0.0186276 0.017736 0.0168545 0.0159889 0.0151451 0.0143229 0.0135225 0.0127437 0.0119867 0.0112513 0.0105377 0.00984766 0.00918305 0.00854387 0.00793013 0.00734183 0.00677897 0.00624155 0.00572956 0.00524242 0.00477952 0.00434085 0.00392643 0.00353625 0.00317031 0.00282861 0.00251116 0.00221627 0.00194229 0.00168921 0.00145703 0.00124575 0.00105538 0.000885905 0.000737334 0.000606401 0.000489846 0.000387667 0.000299865 0.00022644 0.000167392 0.00012272 9.24255e-05 7.07633e-05 5.19893e-05 3.61037e-05 2.31064e-05 1.29973e-05 5.77659e-06 1.44415e-06 0 0 4.43992e-05 0.000177597 0.000399593 0.000710387 0.00110998 0.00159837 0.00217556 0.00284155 0.00360905 0.00449079 0.00548677 0.00659698 0.00782142 0.0091601 0.010613 0.0121802 0.0138196 0.0154894 0.0171896 0.0189201 0.020681 0.0224722 0.0242938 0.0261458 0.0279873 0.0297775 0.0315166 0.0332044 0.0348409 0.0364263 0.0379603 0.0394432 0.0408535 0.0421701 0.0433929 0.044522 0.0455573 0.0464988 0.0473466 0.0481006 0.0487578 0.0493151 0.0497725 0.0501301 0.0503877 0.0505454 0.0506032 0.0505612 0.0504292 0.0502174 0.0499257 0.0495542 0.0491028 0.0485716 0.0479605 0.0472695 0.0465152 0.045714 0.044866 0.0439712 0.0430295 0.042041 0.0410056 0.0399235 0.0388113 0.0376859 0.0365474 0.0353957 0.0342308 0.0330528 0.0318616 0.0306572 0.0294525 0.0282606 0.0270814 0.0259148 0.0247609 0.0236198 0.0224913 0.0213755 0.0202797 0.0192114 0.0181704 0.0171569 0.0161708 0.0152121 0.0142808 0.0133769 0.0125028 0.0116609 0.0108511 0.0100735 0.00932808 0.00861479 0.00793366 0.0072847 0.00666714 0.00608024 0.005524 0.00499842 0.0045035 0.00403924 0.00360564 0.0032027 0.0028283 0.00248034 0.00215881 0.00186371 0.00159504 0.0013528 0.00113699 0.00094762 0.000780572 0.000631748 0.000501148 0.00038877 0.000294616 0.000218685 0.000160977 0.000121492 9.30176e-05 6.83394e-05 4.74579e-05 3.03731e-05 1.70849e-05 7.59327e-06 1.89832e-06 0 0 5.54317e-05 0.000221727 0.000498886 0.000886908 0.00138579 0.00199554 0.00271615 0.00354763 0.00450452 0.00560138 0.0068382 0.00821499 0.00973174 0.0113885 0.0131851 0.0151218 0.0171468 0.0192087 0.0213073 0.0234427 0.0256149 0.0278239 0.0300697 0.0323523 0.0346218 0.0368281 0.0389714 0.0410516 0.0430688 0.0450228 0.0469137 0.0487416 0.0504803 0.0521035 0.0536115 0.0550041 0.0562813 0.0574431 0.0584897 0.0594208 0.0602328 0.0609217 0.0614876 0.0619305 0.0622504 0.0624472 0.062521 0.0624718 0.0623119 0.0620534 0.0616965 0.061241 0.0606871 0.0600346 0.0592837 0.0584342 0.0575066 0.056521 0.0554775 0.0543761 0.0532168 0.0519995 0.0507244 0.0493913 0.048021 0.0466342 0.045231 0.0438112 0.0423751 0.0409224 0.0394533 0.0379677 0.0364816 0.0350109 0.0335556 0.0321158 0.0306915 0.0292825 0.027889 0.026511 0.0251575 0.0238377 0.0225515 0.021299 0.0200802 0.018895 0.0177435 0.0166257 0.0155446 0.014503 0.013501 0.0125387 0.0116159 0.0107328 0.00988924 0.00908531 0.00832008 0.00759264 0.006903 0.00625116 0.00563711 0.00506085 0.00452239 0.00402173 0.00355625 0.00312333 0.00272299 0.00235522 0.00202001 0.00171737 0.00144731 0.00120981 0.000999885 0.000812533 0.000647756 0.000505553 0.000385923 0.000288868 0.000214387 0.00016248 0.000124399 9.1395e-05 6.34688e-05 4.062e-05 2.28488e-05 1.0155e-05 2.53875e-06 0 0 6.80019e-05 0.000272008 0.000612017 0.00108803 0.00170005 0.00244807 0.00333209 0.00435212 0.00552403 0.00686369 0.00837112 0.0100463 0.0118892 0.0138999 0.0160784 0.0184246 0.0208764 0.0233717 0.0259105 0.0284929 0.0311187 0.033788 0.0365008 0.039257 0.041997 0.044661 0.0472488 0.0497606 0.0521963 0.054556 0.0568395 0.059047 0.061147 0.063108 0.06493 0.066613 0.0681571 0.0695621 0.0708282 0.0719553 0.0729387 0.0737737 0.0744603 0.0749984 0.0753882 0.0756296 0.0757226 0.0756671 0.075478 0.0751698 0.0747426 0.0741964 0.0735311 0.0727468 0.0718434 0.070821 0.069704 0.0685168 0.0672593 0.0659316 0.0645337 0.0630655 0.0615271 0.0599184 0.0582646 0.0565904 0.054896 0.0531814 0.0514465 0.0496914 0.047916 0.0461204 0.0443238 0.0425455 0.0407856 0.039044 0.0373208 0.0356159 0.0339293 0.0322611 0.0306223 0.029024 0.0274661 0.0259487 0.0244719 0.0230355 0.0216395 0.0202841 0.0189728 0.0177093 0.0164935 0.0153255 0.0142053 0.0131329 0.0121083 0.0111314 0.0102012 0.00931673 0.00847787 0.00768465 0.00693708 0.00623516 0.00557888 0.00496826 0.00440011 0.00387128 0.00338176 0.00293156 0.00252067 0.0021491 0.00181685 0.00152391 0.00126434 0.0010322 0.000827492 0.000650212 0.000500362 0.000377942 0.000282951 0.000215389 0.000164907 0.000121156 8.41362e-05 5.38472e-05 3.0289e-05 1.34618e-05 3.36545e-06 0 0 8.21097e-05 0.000328439 0.000738987 0.00131375 0.00205274 0.00295595 0.00402337 0.00525502 0.00666758 0.00827774 0.0100855 0.0120909 0.0142939 0.0166945 0.0192927 0.0220885 0.0250083 0.0279786 0.0309994 0.0340706 0.0371922 0.0403643 0.0435869 0.0468599 0.050113 0.053276 0.0563487 0.0593313 0.0622236 0.0650258 0.0677377 0.0703595 0.0728538 0.0751835 0.0773485 0.0793489 0.0811847 0.0828558 0.0843623 0.0857041 0.0868756 0.087871 0.0886904 0.0893338 0.0898012 0.0900925 0.0902078 0.0901471 0.0899276 0.0895666 0.0890642 0.0884202 0.0876349 0.086708 0.0856397 0.0844299 0.0831075 0.0817013 0.0802113 0.0786376 0.0769801 0.0752388 0.0734138 0.071505 0.069542 0.0675546 0.0655426 0.0635062 0.0614452 0.0593597 0.0572497 0.0551153 0.0529792 0.0508646 0.0487713 0.0466994 0.044649 0.0426199 0.0406122 0.0386258 0.0366741 0.0347703 0.0329143 0.0311061 0.0293459 0.0276334 0.0259688 0.0243521 0.0227876 0.0212797 0.0198286 0.0184341 0.0170963 0.0158152 0.0145907 0.013423 0.0123106 0.0112525 0.0102486 0.0092989 0.00840342 0.00756216 0.00677511 0.00604228 0.00535989 0.00472417 0.00413512 0.00359274 0.00309702 0.00264798 0.00224561 0.00188991 0.00157393 0.00129075 0.00104036 0.00082275 0.000637933 0.000485906 0.000366667 0.000280218 0.000214542 0.000157623 0.00010946 7.00546e-05 3.94057e-05 1.75136e-05 4.37841e-06 0 0 9.77551e-05 0.00039102 0.000879796 0.00156408 0.00244388 0.00351918 0.00479 0.00625633 0.00793517 0.00984352 0.0119814 0.0143488 0.0169457 0.0197721 0.0228281 0.0261136 0.0295426 0.0330294 0.0365738 0.0401758 0.0438356 0.047553 0.0513281 0.0551609 0.0589698 0.0626732 0.0662711 0.0697636 0.0731506 0.0764322 0.0796083 0.0826789 0.0856006 0.08833 0.090867 0.0932117 0.0953641 0.0973241 0.0990918 0.100667 0.102043 0.103214 0.104178 0.104937 0.105489 0.105836 0.105977 0.105912 0.105661 0.105244 0.104661 0.103913 0.102998 0.101918 0.100672 0.0992608 0.0977169 0.0960745 0.0943336 0.0924941 0.0905561 0.0885195 0.0863845 0.0841509 0.0818534 0.0795267 0.0771707 0.0747855 0.0723711 0.0699274 0.0674545 0.0649523 0.0624479 0.059968 0.0575127 0.055082 0.0526759 0.0502944 0.0479375 0.0456052 0.043313 0.0410766 0.038896 0.0367712 0.0347021 0.0326889 0.0307313 0.0288296 0.0269889 0.0252144 0.0235063 0.0218645 0.0202889 0.0187797 0.0173367 0.01596 0.0146482 0.0134 0.0122152 0.0110939 0.0100361 0.00904185 0.00811107 0.0072438 0.00643558 0.00568201 0.00498306 0.00433875 0.00374906 0.00321402 0.0027336 0.00230781 0.00192867 0.00158818 0.00128635 0.00102316 0.000798635 0.00061276 0.000465538 0.000356969 0.000273304 0.000200795 0.000139441 8.92422e-05 5.01987e-05 2.23105e-05 5.57764e-06 0 0 0.000114938 0.000459753 0.00103444 0.00183901 0.00287345 0.00413777 0.00563197 0.00735604 0.00932679 0.011561 0.0140588 0.01682 0.0198447 0.0231329 0.0266846 0.0304998 0.0344793 0.0385239 0.0426337 0.0468087 0.0510488 0.0553541 0.0597245 0.0641601 0.0685673 0.0728526 0.0770161 0.0810577 0.0849774 0.0887752 0.0924512 0.0960053 0.0993874 0.102547 0.105485 0.108201 0.110695 0.112967 0.115017 0.116845 0.118442 0.119802 0.120923 0.121807 0.122453 0.12286 0.123029 0.122961 0.122677 0.122201 0.121534 0.120674 0.119622 0.118378 0.116942 0.115314 0.113532 0.111636 0.109626 0.107501 0.105262 0.102908 0.100439 0.0978561 0.0951986 0.0925067 0.0897803 0.0870194 0.0842241 0.0813944 0.0785302 0.0756316 0.0727297 0.0698558 0.0670098 0.0641918 0.0614017 0.0586395 0.0559053 0.0531991 0.0505389 0.047943 0.0454113 0.0429439 0.0405407 0.0382018 0.0359271 0.0337167 0.0315767 0.0295133 0.0275266 0.0256165 0.0237831 0.0220263 0.0203461 0.0187425 0.0172141 0.0157591 0.0143776 0.0130697 0.0118352 0.0106742 0.00958677 0.00857281 0.0076272 0.00674479 0.00592559 0.00516959 0.0044768 0.0038472 0.00328081 0.00277762 0.00232855 0.0019245 0.00156547 0.00125146 0.000982469 0.000758504 0.000579561 0.00044564 0.000341193 0.000250673 0.000174078 0.00011141 6.26682e-05 2.78525e-05 6.96313e-06 0 0 0.000133659 0.000534635 0.00120293 0.00213854 0.00334147 0.00481172 0.00654928 0.00855416 0.0108425 0.0134303 0.0163176 0.0195045 0.0229909 0.0267768 0.0308622 0.0352471 0.0398183 0.0444623 0.0491792 0.0539691 0.0588318 0.0637674 0.068776 0.0738574 0.0789055 0.0838143 0.0885836 0.0932135 0.0977039 0.102055 0.106267 0.110339 0.114214 0.117836 0.121204 0.124318 0.127178 0.129785 0.132137 0.134236 0.136072 0.137635 0.138926 0.139945 0.140691 0.141164 0.141366 0.141294 0.140977 0.140439 0.139681 0.138703 0.137505 0.136086 0.134448 0.132589 0.130554 0.128387 0.126089 0.123659 0.121097 0.118403 0.115578 0.112621 0.109578 0.106495 0.103371 0.100208 0.0970044 0.0937608 0.090477 0.0871531 0.0838248 0.080528 0.0772626 0.0740287 0.0708263 0.0676553 0.0645157 0.0614076 0.0583519 0.0553694 0.0524602 0.0496243 0.0468616 0.0441723 0.0415562 0.0390134 0.0365511 0.0341764 0.0318895 0.0296903 0.0275788 0.025555 0.0236189 0.0217705 0.0200081 0.0183299 0.0167359 0.0152262 0.0138006 0.0124593 0.0112022 0.0100293 0.00893473 0.00791253 0.00696271 0.00608527 0.00528022 0.00454754 0.00388725 0.00329934 0.00277357 0.00229969 0.00187771 0.00150763 0.00118943 0.000923139 0.000708738 0.000546233 0.000418209 0.000307256 0.000213372 0.000136558 7.68139e-05 3.41395e-05 8.53488e-06 0 0 0.000153917 0.000615668 0.00138525 0.00246267 0.00384793 0.00554102 0.00754194 0.00985069 0.0124822 0.0154513 0.018758 0.0224023 0.0263842 0.0307037 0.0353609 0.0403556 0.0455596 0.0508445 0.0562103 0.061657 0.0671846 0.0727931 0.0784825 0.0842529 0.0899846 0.0955581 0.100974 0.106231 0.11133 0.116271 0.121054 0.125679 0.130081 0.134196 0.138022 0.141562 0.144813 0.147777 0.150454 0.152842 0.154933 0.156714 0.158187 0.15935 0.160204 0.16075 0.160986 0.160913 0.16056 0.159958 0.159105 0.158001 0.156648 0.155044 0.15319 0.151086 0.148781 0.146327 0.143722 0.140967 0.138061 0.135006 0.131801 0.128445 0.124991 0.121491 0.117944 0.114351 0.110712 0.107026 0.103295 0.0995167 0.0957331 0.0919846 0.0882712 0.0845929 0.0809497 0.0773416 0.0737686 0.0702307 0.0667518 0.0633558 0.0600426 0.0568123 0.0536648 0.0506002 0.0476185 0.0447196 0.0419119 0.0392038 0.0365951 0.0340859 0.0316762 0.0293659 0.0271552 0.025044 0.0230304 0.0211124 0.0192901 0.0175634 0.0159324 0.0143971 0.0129574 0.0116133 0.0103582 0.00918521 0.00809441 0.00708579 0.00615933 0.00531503 0.00455291 0.00387296 0.00326373 0.00271377 0.00222309 0.00179167 0.00141953 0.00110666 0.000853069 0.000658746 0.000504352 0.000370544 0.000257323 0.000164686 9.26361e-05 4.11716e-05 1.02929e-05 0 0 0.000175302 0.000701209 0.00157772 0.00280484 0.00438256 0.00631088 0.00858981 0.0112193 0.0142127 0.0175832 0.0213309 0.0254556 0.0299574 0.0348364 0.0400924 0.0457256 0.0515918 0.0575469 0.063591 0.0697241 0.0759461 0.082257 0.0886569 0.0951458 0.10159 0.107857 0.113946 0.119858 0.125592 0.131148 0.136527 0.141728 0.146679 0.151307 0.155612 0.159595 0.163255 0.166592 0.169607 0.172298 0.174655 0.176665 0.178327 0.179642 0.18061 0.181231 0.181505 0.181432 0.181044 0.180375 0.179424 0.178191 0.176677 0.174882 0.172804 0.170446 0.167861 0.165107 0.162184 0.159091 0.155829 0.152397 0.148796 0.145025 0.141144 0.137209 0.133221 0.129181 0.125088 0.120942 0.116743 0.112491 0.108233 0.104013 0.0998315 0.0956893 0.0915858 0.0875212 0.0834953 0.0795083 0.075587 0.0717586 0.0680229 0.0643801 0.06083 0.0573726 0.0540081 0.0507364 0.0475669 0.0445092 0.0415632 0.038729 0.0360066 0.033396 0.0308971 0.0285099 0.0262325 0.0240626 0.0220002 0.0200454 0.0181982 0.0164586 0.0148265 0.0133019 0.0118774 0.0105451 0.00930531 0.00815783 0.00710272 0.00613998 0.0052696 0.00449158 0.00379327 0.003162 0.00259776 0.00210056 0.0016704 0.00130727 0.00101118 0.000782131 0.000598819 0.000439948 0.00030552 0.000195533 0.000109987 4.88832e-05 1.22208e-05 0 0 0.000197403 0.000789614 0.00177663 0.00315845 0.00493509 0.00710652 0.00967277 0.0126338 0.016001 0.0197855 0.0239874 0.0286066 0.0336432 0.0390973 0.0449686 0.0512574 0.0578032 0.0644459 0.0711854 0.0780217 0.0849549 0.0919849 0.0991117 0.106335 0.113509 0.120484 0.127262 0.133842 0.140225 0.14641 0.152397 0.158187 0.163698 0.168851 0.173646 0.178081 0.182159 0.185878 0.189238 0.19224 0.194869 0.197112 0.19897 0.200441 0.201527 0.202226 0.20254 0.202467 0.202045 0.201309 0.20026 0.198897 0.19722 0.19523 0.192926 0.190309 0.187441 0.184383 0.181135 0.177699 0.174073 0.170258 0.166254 0.16206 0.157742 0.153364 0.148927 0.14443 0.139873 0.135257 0.130581 0.125845 0.121101 0.116399 0.11174 0.107123 0.102549 0.0980166 0.0935272 0.0890801 0.0847058 0.0804342 0.0762655 0.0721996 0.0682366 0.0643764 0.060619 0.0569644 0.0534234 0.0500066 0.0467141 0.0435458 0.0405018 0.037582 0.0347865 0.0321152 0.0295659 0.0271363 0.0248263 0.0226361 0.0205656 0.0186148 0.0167837 0.0150722 0.013472 0.0119746 0.01058 0.00928811 0.008099 0.00701267 0.0060291 0.00514831 0.00435644 0.00363964 0.00299791 0.00243125 0.00193966 0.00152315 0.00118171 0.000915338 0.000700805 0.000514877 0.000357554 0.000228834 0.000128719 5.72086e-05 1.43022e-05 0 0 0.000220221 0.000880882 0.00198199 0.00352353 0.00550552 0.00792794 0.0107908 0.0140941 0.0178468 0.022058 0.0267275 0.0318554 0.0374417 0.0434864 0.0499895 0.056951 0.064194 0.0715415 0.0789935 0.0865501 0.0942112 0.101977 0.109847 0.117822 0.12574 0.133439 0.140921 0.148184 0.155229 0.162056 0.168665 0.175055 0.181139 0.186828 0.192122 0.197021 0.201525 0.205633 0.209347 0.212666 0.215575 0.218058 0.220115 0.221747 0.222953 0.223734 0.224089 0.224019 0.223563 0.22276 0.221612 0.220117 0.218276 0.216089 0.213556 0.210676 0.207519 0.204152 0.200575 0.196789 0.192794 0.188588 0.184173 0.179549 0.174786 0.169957 0.165061 0.160098 0.155068 0.149972 0.144809 0.139579 0.134338 0.129144 0.123996 0.118894 0.113838 0.108828 0.103864 0.0989463 0.094108 0.0893827 0.0847703 0.080271 0.0758847 0.0716114 0.0674511 0.0634038 0.0594815 0.0556961 0.0520477 0.0485362 0.0451617 0.0419241 0.0388235 0.0358598 0.0330306 0.0303335 0.0277685 0.0253355 0.0230346 0.0208657 0.018829 0.0169242 0.0151423 0.0134737 0.0119184 0.0104766 0.00914817 0.0079331 0.00683143 0.00584313 0.00495322 0.00414669 0.00342353 0.00278374 0.00222733 0.0017543 0.00136465 0.00105837 0.000810312 0.000595332 0.000413425 0.000264592 0.000148833 6.6148e-05 1.6537e-05 0 0 0.000243754 0.000975015 0.00219378 0.00390006 0.00609385 0.00877514 0.0119439 0.0156002 0.0197504 0.0244007 0.0295512 0.0352019 0.0413528 0.0480038 0.0551551 0.0628065 0.070764 0.0788336 0.0870153 0.095309 0.103715 0.112233 0.120863 0.129605 0.138283 0.146722 0.154922 0.162883 0.170605 0.178087 0.18533 0.192334 0.199002 0.205238 0.211041 0.216413 0.221352 0.22586 0.229935 0.233578 0.236772 0.2395 0.241763 0.243559 0.24489 0.245755 0.246154 0.246087 0.245598 0.244729 0.243481 0.241853 0.239846 0.237459 0.234693 0.231547 0.228097 0.224416 0.220504 0.216363 0.21199 0.207388 0.202555 0.197492 0.192276 0.186987 0.181623 0.176185 0.170673 0.165087 0.159426 0.153692 0.147945 0.142248 0.1366 0.131002 0.125454 0.119955 0.114506 0.109107 0.103794 0.0986039 0.0935374 0.0885943 0.0837744 0.0790778 0.0745045 0.0700546 0.0657412 0.0615777 0.057564 0.0537002 0.0499863 0.0464223 0.0430081 0.0397438 0.0366267 0.0336543 0.0308266 0.0281436 0.0256052 0.0232114 0.0209624 0.018858 0.016888 0.0150422 0.0133207 0.0117234 0.0102502 0.00890129 0.00767657 0.00657606 0.00558363 0.00468315 0.00387462 0.00315804 0.00253341 0.00200073 0.00156 0.00121122 0.00092734 0.000681311 0.000473132 0.000302805 0.000170328 7.57012e-05 1.89253e-05 0 0 0.000268003 0.00107201 0.00241203 0.00428805 0.00670008 0.00964811 0.0131322 0.0171522 0.0217116 0.0268137 0.0324586 0.0386462 0.0453765 0.0526495 0.0604653 0.0688237 0.0775133 0.0863223 0.0952507 0.104299 0.113466 0.122753 0.132159 0.141685 0.15114 0.160334 0.169267 0.17794 0.186351 0.194502 0.202393 0.210022 0.217286 0.22408 0.230404 0.236258 0.241642 0.246557 0.251001 0.254975 0.258461 0.26144 0.263913 0.265878 0.267337 0.268289 0.268734 0.268672 0.26815 0.267215 0.265866 0.264104 0.261929 0.25934 0.256338 0.252922 0.249174 0.245174 0.240922 0.236419 0.231664 0.226657 0.221399 0.215889 0.210212 0.204453 0.198613 0.192691 0.186687 0.180601 0.174434 0.168184 0.161921 0.15571 0.149553 0.143448 0.137397 0.131399 0.125454 0.119561 0.113763 0.108098 0.102567 0.0971693 0.0919056 0.0867755 0.0817792 0.0769166 0.0722024 0.0676512 0.063263 0.0590378 0.0549756 0.0510764 0.0473403 0.0437671 0.0403542 0.0370987 0.0340008 0.0310603 0.0282774 0.0256519 0.0231839 0.0208734 0.0187093 0.0166804 0.0147867 0.0130283 0.0114051 0.00991722 0.00856453 0.00734709 0.00624766 0.00524903 0.00435118 0.00355414 0.00285789 0.00226243 0.00176776 0.00137389 0.00105189 0.000772815 0.000536677 0.000343473 0.000193204 8.58683e-05 2.14671e-05 0 0 0.000292968 0.00117187 0.00263672 0.0046875 0.00732421 0.0105469 0.0143555 0.01875 0.0237305 0.029297 0.0354496 0.0421882 0.0495128 0.0574235 0.0659201 0.0750028 0.0844419 0.0940075 0.1037 0.113519 0.123464 0.133537 0.143736 0.154061 0.164308 0.174273 0.183955 0.193353 0.202469 0.211303 0.219853 0.22812 0.235992 0.243355 0.25021 0.256556 0.262394 0.267724 0.272545 0.276858 0.280642 0.283878 0.286565 0.288704 0.290294 0.291336 0.291829 0.291773 0.29122 0.290218 0.288769 0.286871 0.284525 0.281732 0.27849 0.2748 0.27075 0.266426 0.261828 0.256957 0.251813 0.246395 0.240704 0.234739 0.228593 0.222357 0.216031 0.209616 0.20311 0.196515 0.189831 0.183056 0.176265 0.169531 0.162853 0.156231 0.149666 0.143158 0.136706 0.130311 0.124016 0.117865 0.111858 0.105996 0.100278 0.0947046 0.0892752 0.0839901 0.0788653 0.0739168 0.0691447 0.064549 0.0601296 0.0558866 0.05182 0.0479298 0.0442129 0.0406667 0.037291 0.0340858 0.0310512 0.0281871 0.0254935 0.0229705 0.0206061 0.0183881 0.0163165 0.0143915 0.012613 0.0109809 0.00949532 0.00815622 0.00694531 0.00584431 0.00485322 0.00397204 0.00320077 0.0025394 0.00198794 0.00154639 0.00118395 0.000869844 0.000604058 0.000386597 0.000217461 9.66493e-05 2.41623e-05 0 0 0.00031865 0.0012746 0.00286785 0.0050984 0.00796625 0.0114714 0.0156138 0.0203936 0.025807 0.0318506 0.0385242 0.0458279 0.0537617 0.0623257 0.0715197 0.0813438 0.0915497 0.101889 0.112363 0.12297 0.13371 0.144585 0.155593 0.166734 0.17779 0.18854 0.198985 0.209125 0.218959 0.228487 0.23771 0.246628 0.255119 0.263063 0.270459 0.277308 0.283609 0.289362 0.294568 0.299226 0.303315 0.306813 0.30972 0.312036 0.313761 0.314896 0.315439 0.315391 0.314807 0.313739 0.312187 0.310153 0.307635 0.304634 0.