<?xml version="1.0"?> 
<VTKFile type="StructuredGrid" version="0.1"> 
<StructuredGrid WholeExtent="0 128 0 128 0 0"> 
<Piece Extent="0 128 0 128 0 0"> 
<PointData>
<DataArray type="Float32" Name="u" format="ascii" NumberOfComponents="1"> 
0 0 0 0 0 0 0 0 0 0 0 0 0 0 0 0 0 0 0 0 0 0 0 0 0 0 0 0 0 0 0 0 0 0 0 0 0 0 0 0 0 0 0 0 0 0 0 0 0 0 0 0 0 0 0 0 0 0 0 0 0 0 0 0 0 0 0 0 0 0 0 0 0 0 0 0 0 0 0 0 0 0 0 0 0 0 0 0 0 0 0 0 0 0 0 0 0 0 0 0 0 0 0 0 0 0 0 0 0 0 0 0 0 0 0 0 0 0 0 0 0 0 0 0 0 0 0 0 0 0 2.73543e-07 1.09417e-06 2.46189e-06 4.37669e-06 6.83858e-06 9.84756e-06 1.34036e-05 1.75068e-05 2.22362e-05 2.76713e-05 3.38119e-05 4.06581e-05 4.82099e-05 5.64673e-05 6.54302e-05 7.50987e-05 8.52175e-05 9.55314e-05 0.00010604 0.000116745 0.000127644 0.000138738 0.000150027 0.000161512 0.000172949 0.000184095 0.000194951 0.000205516 0.00021579 0.000225774 0.000235468 0.000244871 0.00025386 0.000262313 0.00027023 0.00027761 0.000284454 0.000290761 0.000296531 0.000301765 0.000306444 0.000310549 0.000314081 0.000317038 0.000319422 0.000321231 0.000322467 0.000323129 0.000323269 0.000322938 0.000322137 0.000320866 0.000319124 0.000316911 0.000314228 0.000311075 0.000307536 0.000303695 0.000299552 0.000295107 0.000290361 0.000285313 0.000279964 0.000274312 0.000268445 0.000262446 0.000256316 0.000250054 0.000243662 0.000237138 0.000230483 0.000223697 0.000216846 0.000209998 0.000203152 0.000196308 0.000189467 0.000182627 0.00017579 0.000168956 0.000162166 0.000155464 0.00014885 0.000142324 0.000135885 0.000129534 0.000123271 0.000117096 0.000111032 0.000105104 9.93103e-05 9.36523e-05 8.81296e-05 8.27421e-05 7.74898e-05 7.23728e-05 6.74061e-05 6.26048e-05 5.79687e-05 5.3498e-05 4.91926e-05 4.50525e-05 4.10778e-05 3.72684e-05 3.36392e-05 3.02049e-05 2.69657e-05 2.39215e-05 2.10723e-05 1.84182e-05 1.5959e-05 1.36948e-05 1.16243e-05 9.74609e-06 8.0601e-06 6.56638e-06 5.26493e-06 4.15573e-06 3.2388e-06 2.51414e-06 1.92489e-06 1.4142e-06 9.82085e-07 6.28535e-07 3.53551e-07 1.57134e-07 3.92834e-08 0 0 1.09417e-06 4.37669e-06 9.84756e-06 1.75068e-05 2.73543e-05 3.93902e-05 5.36145e-05 7.00271e-05 8.8945e-05 0.000110685 0.000135248 0.000162633 0.00019284 0.000225869 0.000261721 0.000300395 0.00034087 0.000382126 0.000424162 0.000466978 0.000510575 0.000554952 0.00060011 0.000646048 0.000691795 0.00073638 0.000779802 0.000822063 0.000863161 0.000903098 0.000941872 0.000979484 0.00101544 0.00104925 0.00108092 0.00111044 0.00113781 0.00116304 0.00118613 0.00120706 0.00122578 0.0012422 0.00125632 0.00126815 0.00127769 0.00128493 0.00128987 0.00129252 0.00129308 0.00129175 0.00128855 0.00128346 0.0012765 0.00126765 0.00125691 0.0012443 0.00123014 0.00121478 0.00119821 0.00118043 0.00116144 0.00114125 0.00111985 0.00109725 0.00107378 0.00104978 0.00102526 0.00100022 0.000974647 0.000948552 0.000921932 0.000894788 0.000867385 0.000839992 0.000812607 0.000785232 0.000757866 0.000730509 0.000703161 0.000675823 0.000648664 0.000621856 0.0005954 0.000569294 0.00054354 0.000518137 0.000493085 0.000468384 0.000444128 0.000420414 0.000397241 0.000374609 0.000352518 0.000330968 0.000309959 0.000289491 0.000269625 0.000250419 0.000231875 0.000213992 0.00019677 0.00018021 0.000164311 0.000149074 0.000134557 0.00012082 0.000107863 9.56861e-05 8.42893e-05 7.36726e-05 6.3836e-05 5.47794e-05 4.64973e-05 3.89844e-05 3.22404e-05 2.62655e-05 2.10597e-05 1.66229e-05 1.29552e-05 1.00566e-05 7.69955e-06 5.65681e-06 3.92834e-06 2.51414e-06 1.4142e-06 6.28535e-07 1.57134e-07 0 0 2.46189e-06 9.84756e-06 2.2157e-05 3.93902e-05 6.15472e-05 8.8628e-05 0.000120633 0.000157561 0.000200126 0.000249042 0.000304307 0.000365923 0.000433889 0.000508205 0.000588872 0.000675888 0.000766958 0.000859783 0.000954364 0.0010507 0.00114879 0.00124864 0.00135025 0.00145361 0.00155654 0.00165685 0.00175456 0.00184964 0.00194211 0.00203197 0.00211921 0.00220384 0.00228474 0.00236082 0.00243207 0.00249849 0.00256008 0.00261685 0.00266878 0.00271589 0.002758 0.00279495 0.00282673 0.00285334 0.0028748 0.00289108 0.00290221 0.00290816 0.00290942 0.00290645 0.00289924 0.00288779 0.00287211 0.0028522 0.00282806 0.00279968 0.00276782 0.00273325 0.00269597 0.00265596 0.00261325 0.00256782 0.00251967 0.00246881 0.002416 0.00236201 0.00230684 0.00225049 0.00219296 0.00213424 0.00207435 0.00201327 0.00195162 0.00188998 0.00182837 0.00176677 0.0017052 0.00164365 0.00158211 0.0015206 0.00145949 0.00139918 0.00133965 0.00128091 0.00122297 0.00116581 0.00110944 0.00105386 0.000999289 0.000945932 0.000893793 0.000842871 0.000793166 0.000744679 0.000697408 0.000651356 0.000606655 0.000563443 0.000521718 0.000481482 0.000442733 0.000405473 0.0003697 0.000335416 0.000302752 0.000271844 0.000242691 0.000215294 0.000189651 0.000165763 0.000143631 0.000123254 0.000104619 8.77148e-05 7.25409e-05 5.90975e-05 4.73843e-05 3.74016e-05 2.91492e-05 2.26272e-05 1.7324e-05 1.27278e-05 8.83877e-06 5.65681e-06 3.18196e-06 1.4142e-06 3.53551e-07 0 0 4.37669e-06 1.75068e-05 3.93902e-05 7.00271e-05 0.000109417 0.000157561 0.000214458 0.000280108 0.00035578 0.000442741 0.000540991 0.00065053 0.000771358 0.000903476 0.00104688 0.00120158 0.00136348 0.0015285 0.00169665 0.00186791 0.0020423 0.00221981 0.00240044 0.00258419 0.00276718 0.00294552 0.00311921 0.00328825 0.00345264 0.00361239 0.00376749 0.00391793 0.00406177 0.00419701 0.00432368 0.00444176 0.00455126 0.00465217 0.0047445 0.00482825 0.00490311 0.00496879 0.00502529 0.00507261 0.00511075 0.0051397 0.00515948 0.00517007 0.00517231 0.00516702 0.0051542 0.00513385 0.00510598 0.00507058 0.00502766 0.0049772 0.00492057 0.00485911 0.00479283 0.00472171 0.00464578 0.00456501 0.00447942 0.004389 0.00429511 0.00419913 0.00410105 0.00400087 0.00389859 0.00379421 0.00368773 0.00357915 0.00346954 0.00335997 0.00325043 0.00314093 0.00303146 0.00292204 0.00281265 0.00270329 0.00259466 0.00248743 0.0023816 0.00227718 0.00217416 0.00207255 0.00197234 0.00187353 0.00177651 0.00168166 0.00158897 0.00149844 0.00141007 0.00132387 0.00123984 0.00115797 0.0010785 0.00100168 0.000927499 0.000855968 0.000787082 0.000720841 0.000657245 0.000596294 0.000538226 0.000483279 0.000431451 0.000382744 0.000337157 0.00029469 0.000255344 0.000219118 0.000185989 0.000155937 0.000128962 0.000105062 8.42388e-05 6.64917e-05 5.18209e-05 4.02262e-05 3.07982e-05 2.26272e-05 1.57134e-05 1.00566e-05 5.65681e-06 2.51414e-06 6.28535e-07 0 0 6.83858e-06 2.73543e-05 6.15472e-05 0.000109417 0.000170965 0.000246189 0.00033509 0.000437669 0.000555906 0.000691782 0.000845298 0.00101645 0.00120525 0.00141168 0.00163575 0.00187747 0.00213044 0.00238829 0.00265101 0.00291861 0.00319109 0.00346845 0.00375069 0.0040378 0.00432372 0.00460237 0.00487376 0.00513789 0.00539476 0.00564436 0.0058867 0.00612177 0.00634651 0.00655783 0.00675575 0.00694025 0.00711134 0.00726902 0.00741328 0.00754413 0.00766111 0.00776374 0.00785202 0.00792595 0.00798554 0.00803079 0.00806168 0.00807823 0.00808173 0.00807346 0.00805344 0.00802165 0.0079781 0.00792279 0.00785571 0.00777688 0.00768839 0.00759236 0.00748879 0.00737768 0.00725902 0.00713283 0.00699909 0.00685781 0.00671112 0.00656114 0.00640789 0.00625136 0.00609155 0.00592845 0.00576208 0.00559242 0.00542116 0.00524995 0.0050788 0.0049077 0.00473666 0.00456568 0.00439476 0.00422389 0.00405415 0.0038866 0.00372125 0.00355809 0.00339713 0.00323836 0.00308178 0.0029274 0.0027758 0.00262759 0.00248276 0.00234131 0.00220324 0.00206855 0.00193725 0.00180932 0.00168515 0.00156512 0.00144922 0.00133745 0.00122981 0.00112631 0.00102694 0.00093171 0.000840979 0.000755123 0.000674143 0.000598038 0.000526808 0.000460454 0.000398975 0.000342371 0.000290608 0.000243652 0.000201503 0.00016416 0.000131623 0.000103893 8.09701e-05 6.28535e-05 4.81222e-05 3.53551e-05 2.45521e-05 1.57134e-05 8.83877e-06 3.92834e-06 9.82085e-07 0 0 9.84756e-06 3.93902e-05 8.8628e-05 0.000157561 0.000246189 0.000354512 0.00048253 0.000630244 0.000800505 0.000996167 0.00121723 0.00146369 0.00173556 0.00203282 0.00235549 0.00270355 0.00306783 0.00343913 0.00381746 0.0042028 0.00459518 0.00499457 0.00540099 0.00581443 0.00622615 0.00662742 0.00701822 0.00739857 0.00776845 0.00812788 0.00847684 0.00881535 0.00913897 0.00944328 0.00972828 0.00999396 0.0102403 0.0104674 0.0106751 0.0108636 0.011032 0.0111798 0.0113069 0.0114134 0.0114992 0.0115643 0.0116088 0.0116327 0.0116377 0.0116258 0.0115969 0.0115512 0.0114885 0.0114088 0.0113122 0.0111987 0.0110713 0.010933 0.0107839 0.0106239 0.010453 0.0102713 0.0100787 0.00987525 0.00966401 0.00944805 0.00922736 0.00900196 0.00877183 0.00853697 0.00829739 0.00805309 0.00780647 0.00755993 0.00731347 0.00706709 0.00682079 0.00657458 0.00632845 0.0060824 0.00583798 0.00559671 0.0053586 0.00512365 0.00489186 0.00466323 0.00443776 0.00421545 0.00399716 0.00378373 0.00357517 0.00337148 0.00317266 0.00297871 0.00278963 0.00260542 0.00242662 0.00225377 0.00208687 0.00192593 0.00177093 0.00162189 0.0014788 0.00134166 0.00121101 0.00108738 0.000970766 0.000861175 0.000758604 0.000663054 0.000574524 0.000493014 0.000418476 0.000350859 0.000290164 0.00023639 0.000189537 0.000149606 0.000116597 9.0509e-05 6.92959e-05 5.09113e-05 3.53551e-05 2.26272e-05 1.27278e-05 5.65681e-06 1.4142e-06 0 0 1.34036e-05 5.36145e-05 0.000120633 0.000214458 0.00033509 0.00048253 0.000656777 0.000857832 0.00108958 0.00135589 0.00165678 0.00199225 0.00236229 0.0027669 0.00320608 0.00367984 0.00417566 0.00468104 0.00519598 0.00572048 0.00625454 0.00679816 0.00735134 0.00791408 0.00847448 0.00902065 0.00955258 0.0100703 0.0105737 0.0110629 0.0115379 0.0119987 0.0124392 0.0128534 0.0132413 0.0136029 0.0139382 0.0142473 0.01453 0.0147865 0.0150158 0.0152169 0.01539 0.0155349 0.0156517 0.0157403 0.0158009 0.0158333 0.0158402 0.015824 0.0157847 0.0157224 0.0156371 0.0155287 0.0153972 0.0152427 0.0150692 0.014881 0.014678 0.0144603 0.0142277 0.0139803 0.0137182 0.0134413 0.0131538 0.0128598 0.0125595 0.0122527 0.0119394 0.0116198 0.0112937 0.0109612 0.0106255 0.0102899 0.00995444 0.00961909 0.00928386 0.00894874 0.00861373 0.00827883 0.00794613 0.00761774 0.00729365 0.00697386 0.00665837 0.00634718 0.00604029 0.0057377 0.00544057 0.00515008 0.00486621 0.00458896 0.00431835 0.00405436 0.003797 0.00354627 0.0033029 0.00306763 0.00284047 0.0026214 0.00241044 0.00220757 0.00201281 0.00182615 0.00164832 0.00148004 0.00132132 0.00117215 0.00103254 0.00090249 0.000781991 0.000671047 0.000569592 0.000477558 0.000394945 0.000321753 0.000257981 0.000203631 0.000158701 0.000123193 9.43195e-05 6.92959e-05 4.81222e-05 3.07982e-05 1.7324e-05 7.69955e-06 1.92489e-06 0 0 1.75068e-05 7.00271e-05 0.000157561 0.000280108 0.000437669 0.000630244 0.000857832 0.00112043 0.00142312 0.00177096 0.00216396 0.00260212 0.00308543 0.0036139 0.00418753 0.00480632 0.00545392 0.00611401 0.00678659 0.00747165 0.0081692 0.00887923 0.00960176 0.0103368 0.0110687 0.0117821 0.0124768 0.013153 0.0138106 0.0144496 0.0150699 0.0156717 0.0162471 0.0167881 0.0172947 0.017767 0.018205 0.0186087 0.018978 0.019313 0.0196124 0.0198752 0.0201012 0.0202904 0.020443 0.0205588 0.0206379 0.0206803 0.0206892 0.0206681 0.0206168 0.0205354 0.0204239 0.0202823 0.0201106 0.0199088 0.0196823 0.0194364 0.0191713 0.0188869 0.0185831 0.01826 0.0179177 0.017556 0.0171805 0.0167965 0.0164042 0.0160035 0.0155944 0.0151768 0.0147509 0.0143166 0.0138782 0.0134399 0.0130017 0.0125637 0.0121259 0.0116881 0.0112506 0.0108132 0.0103786 0.0099497 0.0095264 0.00910871 0.00869664 0.00829019 0.00788936 0.00749414 0.00710606 0.00672663 0.00635586 0.00599375 0.00564029 0.00529549 0.00495935 0.00463186 0.00431399 0.0040067 0.00371 0.00342387 0.00314833 0.00288336 0.00262898 0.00238518 0.00215291 0.00193312 0.00172581 0.00153098 0.00134863 0.00117876 0.00102138 0.00087647 0.000743957 0.00062375 0.000515847 0.000420249 0.000336955 0.000265967 0.000207283 0.000160905 0.000123193 9.0509e-05 6.28535e-05 4.02262e-05 2.26272e-05 1.00566e-05 2.51414e-06 0 0 2.22646e-05 8.90582e-05 0.000200381 0.000356233 0.000556614 0.000801524 0.00109096 0.00142493 0.00180964 0.00225131 0.00274993 0.0033055 0.00391803 0.00458751 0.00531395 0.00609734 0.00691705 0.00775244 0.00860352 0.00947027 0.0103527 0.0112508 0.0121646 0.0130941 0.0140197 0.0149218 0.0158004 0.0166555 0.0174871 0.0182952 0.0190798 0.0198409 0.0205686 0.0212529 0.0218938 0.0224913 0.0230454 0.0235562 0.0240236 0.0244476 0.0248267 0.0251594 0.0254456 0.0256855 0.0258788 0.0260258 0.0261263 0.0261804 0.0261923 0.026166 0.0261017 0.0259992 0.0258587 0.0256801 0.0254633 0.0252085 0.0249225 0.0246119 0.0242769 0.0239175 0.0235336 0.0231253 0.0226925 0.0222352 0.0217604 0.0212749 0.0207788 0.020272 0.0197546 0.0192265 0.0186877 0.0181382 0.0175836 0.017029 0.0164746 0.0159204 0.0153663 0.0148124 0.0142586 0.013705 0.013155 0.0126121 0.0120762 0.0115475 0.0110258 0.0105112 0.0100037 0.00950334 0.00901195 0.0085315 0.00806199 0.00760343 0.0071558 0.00671912 0.00629338 0.00587859 0.00547595 0.00508669 0.00471081 0.0043483 0.00399918 0.00366343 0.00334106 0.00303206 0.00273764 0.00245899 0.00219609 0.00194897 0.00171761 0.00150201 0.00130218 0.00111811 0.000949711 0.000796873 0.000659599 0.000537889 0.000431743 0.000341161 0.000266143 0.000206689 0.000158246 0.000116262 8.07377e-05 5.16721e-05 2.90656e-05 1.2918e-05 3.22951e-06 0 0 2.77845e-05 0.000111138 0.000250061 0.000444553 0.000694614 0.00100024 0.00136144 0.00177821 0.00225765 0.00280685 0.00342583 0.00411458 0.00487309 0.00570137 0.00659943 0.00756725 0.00857947 0.00961072 0.010661 0.0117303 0.0128187 0.013926 0.0150524 0.0161979 0.0173383 0.0184499 0.0195326 0.0205864 0.0216113 0.0226073 0.0235743 0.0245125 0.0254095 0.0262532 0.0270436 0.0277806 0.0284642 0.0290945 0.0296714 0.030195 0.0306633 0.0310745 0.0314285 0.0317253 0.0319649 0.0321474 0.0322726 0.0323407 0.0323568 0.0323258 0.0322479 0.0321229 0.031951 0.0317321 0.0314662 0.0311533 0.0308018 0.0304201 0.0300082 0.029566 0.0290935 0.0285909 0.028058 0.0274949 0.02691 0.0263119 0.0257005 0.0250759 0.024438 0.0237869 0.0231225 0.0224449 0.0217607 0.0210765 0.0203925 0.0197086 0.0190248 0.0183411 0.0176574 0.0169739 0.0162948 0.0156243 0.0149625 0.0143094 0.013665 0.0130293 0.0124023 0.0117839 0.0111766 0.0105828 0.0100025 0.00943559 0.00888219 0.00834226 0.00781581 0.00730283 0.00680482 0.00632329 0.00585824 0.00540966 0.00497756 0.00456194 0.0041628 0.00378014 0.0034154 0.00307004 0.00274406 0.00243745 0.00215023 0.00188237 0.0016339 0.00140481 0.00119499 0.00100437 0.000832932 0.000680686 0.000547628 0.000433759 0.000339079 0.000263587 0.000201809 0.000148268 0.000102964 6.58968e-05 3.7067e-05 1.64742e-05 4.11855e-06 0 0 3.40667e-05 0.000136267 0.0003066 0.000545068 0.000851668 0.0012264 0.00166927 0.00218027 0.00276714 0.00343761 0.00419168 0.00502935 0.00595062 0.0069555 0.00804397 0.00921605 0.0104412 0.0116889 0.012959 0.0142518 0.015567 0.0169048 0.0182651 0.0196479 0.0210246 0.0223665 0.0236735 0.0249458 0.0261832 0.0273858 0.0285536 0.0296865 0.03077 0.0317892 0.0327441 0.0336348 0.0344613 0.0352235 0.0359215 0.0365552 0.0371223 0.0376205 0.0380497 0.0384099 0.0387012 0.0389235 0.0390768 0.0391612 0.0391827 0.0391475 0.0390554 0.0389065 0.0387009 0.0384384 0.0381192 0.0377432 0.0373204 0.036861 0.036365 0.0358323 0.0352629 0.0346569 0.0340143 0.033335 0.0326292 0.0319074 0.0311693 0.0304151 0.0296447 0.0288581 0.0280554 0.0272365 0.0264094 0.0255824 0.0247554 0.0239283 0.0231012 0.0222741 0.021447 0.0206199 0.0197979 0.0189864 0.0181853 0.0173946 0.0166143 0.0158444 0.0150849 0.0143358 0.0136 0.0128805 0.0121773 0.0114902 0.0108195 0.0101649 0.00952663 0.00890459 0.0083006 0.0077165 0.00715228 0.00660794 0.00608349 0.00557891 0.00509421 0.0046294 0.00418618 0.00376628 0.0033697 0.00299643 0.00264648 0.00231986 0.00201654 0.00173655 0.0014798 0.00124623 0.00103585 0.000848638 0.00068461 0.000543761 0.000426091 0.000331601 0.000253882 0.000186526 0.000129532 8.29003e-05 4.66314e-05 2.07251e-05 5.18127e-06 0 0 4.11111e-05 0.000164444 0.00037 0.000657778 0.00102778 0.00148 0.00201444 0.00263111 0.00333811 0.00414357 0.00504747 0.00604982 0.00715062 0.00834988 0.00964758 0.0110437 0.0125022 0.0139868 0.0154977 0.0170346 0.0185978 0.0201871 0.0218027 0.0234444 0.0250785 0.0266714 0.0282231 0.0297336 0.0312028 0.0326308 0.0340175 0.035363 0.0366499 0.0378607 0.0389954 0.0400541 0.0410367 0.0419432 0.0427737 0.0435281 0.0442036 0.0447973 0.0453092 0.0457393 0.0460877 0.0463542 0.0465389 0.0466419 0.0466702 0.046631 0.0465243 0.04635 0.0461083 0.0457991 0.0454223 0.0449781 0.0444782 0.0439347 0.0433474 0.0427164 0.0420418 0.0413234 0.0405613 0.0397555 0.0389181 0.0380614 0.0371852 0.0362896 0.0353746 0.0344401 0.0334863 0.032513 0.03153 0.0305467 0.0295632 0.0285796 0.0275957 0.0266117 0.0256274 0.024643 0.0236645 0.0226984 0.0217445 0.0208029 0.0198735 0.0189564 0.0180516 0.017159 0.0162822 0.0154247 0.0145864 0.0137674 0.0129676 0.0121871 0.0114258 0.0106839 0.00996331 0.00926633 0.00859295 0.00794316 0.00731695 0.00671432 0.00613529 0.00557984 0.00504998 0.0045477 0.00407301 0.0036259 0.00320639 0.00281445 0.0024501 0.00211334 0.00180414 0.00152247 0.00126834 0.00104175 0.000842689 0.000671167 0.000527181 0.00041073 0.000314465 0.000231036 0.000160441 0.000102683 5.77589e-05 2.56706e-05 6.41766e-06 0 0 4.89177e-05 0.000195671 0.000440259 0.000782683 0.00122294 0.00176104 0.00239697 0.00313073 0.00397057 0.00492473 0.0059932 0.00717599 0.00847309 0.00988452 0.0114103 0.0130503 0.0147625 0.0165047 0.0182768 0.0200789 0.021911 0.0237731 0.0256651 0.0275871 0.0295 0.0313648 0.0331814 0.0349498 0.0366701 0.0383422 0.0399662 0.041542 0.0430493 0.0444678 0.0457975 0.0470383 0.0481904 0.0492537 0.0502282 0.0511138 0.0519073 0.052605 0.0532071 0.0537136 0.0541244 0.0544395 0.0546589 0.0547827 0.0548191 0.0547763 0.0546545 0.0544534 0.0541733 0.053814 0.0533756 0.0528581 0.0522753 0.0516411 0.0509554 0.0502185 0.0494301 0.0485903 0.0476991 0.0467565 0.0457767 0.0447739 0.0437482 0.0426994 0.0416277 0.040533 0.0394153 0.0382746 0.0371222 0.0359693 0.034816 0.0336623 0.0325082 0.0313536 0.0301986 0.0290431 0.0278945 0.0267602 0.0256402 0.0245344 0.0234428 0.0223655 0.0213024 0.0202536 0.0192232 0.0182152 0.0172298 0.016267 0.0153266 0.0144088 0.0135135 0.0126407 0.0117929 0.0109728 0.0101802 0.00941529 0.00867794 0.00796819 0.00728603 0.00663147 0.0060068 0.00541431 0.004854 0.00432587 0.00382993 0.00336616 0.00293458 0.00253518 0.002168 0.00183308 0.00153042 0.00126001 0.00102187 0.000815977 0.000642347 0.000500974 0.000383558 0.000281798 0.000195693 0.000125244 7.04495e-05 3.13109e-05 7.82772e-06 0 0 5.74864e-05 0.000229946 0.000517378 0.000919783 0.00143716 0.00206951 0.00281683 0.00367913 0.00466451 0.0057811 0.00702888 0.00840786 0.00991803 0.0115594 0.013332 0.0152358 0.0172221 0.0192424 0.0212965 0.0233846 0.0255067 0.0276626 0.0298525 0.0320763 0.0342892 0.0364466 0.0385484 0.0405945 0.0425851 0.0445201 0.0463995 0.0482233 0.0499681 0.0516104 0.0531502 0.0545876 0.0559225 0.0571549 0.0582849 0.0593123 0.0602333 0.0610436 0.0617434 0.0623326 0.0628113 0.0631793 0.0634368 0.0635837 0.0636295 0.0635836 0.063446 0.0632167 0.0628958 0.0624833 0.061979 0.0613831 0.0607115 0.0599801 0.0591891 0.0583383 0.0574278 0.0564575 0.0554276 0.0543379 0.0532049 0.052045 0.0508583 0.0496446 0.0484041 0.0471366 0.0458423 0.0445211 0.0431861 0.0418503 0.0405138 0.0391766 0.0378386 0.0364999 0.0351605 0.0338203 0.032488 0.031172 0.0298723 0.0285891 0.0273221 0.0260716 0.0248374 0.0236195 0.0224229 0.0212522 0.0201076 0.018989 0.0178965 0.01683 0.0157895 0.014775 0.0137895 0.0128358 0.0119141 0.0110244 0.0101665 0.0093405 0.00854644 0.00778428 0.00705664 0.0063661 0.00571266 0.00509633 0.00451711 0.00397499 0.00346998 0.00300208 0.0025714 0.00217806 0.00182208 0.00150344 0.00122214 0.000978192 0.00077159 0.000602333 0.000461161 0.000338812 0.000235286 0.000150583 8.47031e-05 3.76458e-05 9.41146e-06 0 0 6.68174e-05 0.00026727 0.000601356 0.00106908 0.00167043 0.00240543 0.00327405 0.00427631 0.00541994 0.00671267 0.00815449 0.00974542 0.0114854 0.0133746 0.0154128 0.0176001 0.019881 0.0221999 0.0245568 0.0269518 0.0293847 0.0318557 0.0343647 0.0369118 0.039446 0.0419168 0.044324 0.0466677 0.0489478 0.0511645 0.0533176 0.0554071 0.0574064 0.0592886 0.0610538 0.0627019 0.0642329 0.0656469 0.0669437 0.0681236 0.0691816 0.0701131 0.0709181 0.0715965 0.0721484 0.0725737 0.0728726 0.0730448 0.0731013 0.0730526 0.0728989 0.07264 0.0722759 0.0718068 0.0712326 0.0705532 0.0697869 0.068952 0.0680483 0.067076 0.066035 0.0649252 0.0637468 0.0624998 0.0612028 0.0598747 0.0585154 0.0571251 0.0557037 0.0542511 0.0527674 0.0512526 0.0497217 0.0481897 0.0466566 0.0451224 0.0435871 0.0420507 0.0405132 0.0389746 0.0374448 0.0359336 0.0344409 0.0329669 0.0315115 0.0300747 0.0286564 0.0272568 0.0258813 0.0245357 0.0232198 0.0219336 0.0206773 0.0194507 0.0182538 0.0170868 0.0159529 0.0148555 0.0137947 0.0127703 0.0117825 0.0108313 0.00991651 0.00903829 0.0081995 0.00740307 0.006649 0.00593729 0.00526793 0.00464094 0.0040563 0.00351402 0.00301432 0.00255742 0.00214331 0.00177201 0.00144351 0.00115781 0.000914909 0.000714807 0.000547274 0.000402079 0.000279222 0.000178702 0.00010052 4.46755e-05 1.11689e-05 0 0 7.69105e-05 0.000307642 0.000692195 0.00123057 0.00192276 0.00276878 0.00376862 0.00492227 0.00623685 0.00771944 0.00937005 0.0111887 0.0131753 0.01533 0.0176527 0.0201434 0.0227392 0.0253773 0.0280577 0.0307803 0.0335452 0.0363524 0.0392019 0.0420936 0.0449705 0.0477754 0.0505083 0.0531693 0.0557583 0.0582753 0.0607203 0.0630934 0.0653642 0.0675024 0.0695081 0.0713811 0.0731216 0.0747295 0.0762049 0.0775476 0.0787523 0.0798134 0.0807311 0.0815052 0.0821357 0.0826227 0.0829662 0.0831662 0.0832346 0.0831836 0.0830131 0.0827231 0.0823136 0.0817847 0.0811362 0.0803683 0.0795016 0.0785565 0.0775331 0.0764315 0.0752516 0.0739934 0.0726569 0.0712421 0.0697703 0.0682628 0.0667197 0.0651409 0.0635265 0.0618763 0.0601905 0.0584691 0.056729 0.0549874 0.0532443 0.0514997 0.0497535 0.0480059 0.0462567 0.044506 0.042765 0.041045 0.039346 0.037668 0.0360109 0.0343747 0.0327596 0.0311654 0.0295986 0.0280655 0.0265662 0.0251007 0.0236689 0.0222709 0.0209066 0.0195761 0.0182833 0.0170318 0.0158218 0.0146533 0.0135262 0.0124405 0.0113963 0.0103935 0.00943538 0.00852523 0.00766301 0.00684873 0.0060824 0.005364 0.00469353 0.00407101 0.00349677 0.00297114 0.00249413 0.00206575 0.00168598 0.00135483 0.00107231 0.000838396 0.000641897 0.000471598 0.000327499 0.000209599 0.0001179 5.23998e-05 1.30999e-05 0 0 8.75536e-05 0.000350214 0.000787982 0.00140086 0.00218884 0.00315193 0.00429013 0.00560343 0.0070981 0.00878038 0.0106503 0.0127078 0.0149529 0.0173857 0.020006 0.022814 0.0257391 0.0287107 0.0317289 0.0347936 0.0379049 0.0410627 0.0442672 0.0475181 0.050752 0.0539051 0.0569774 0.059969 0.0628798 0.0657098 0.068459 0.0711275 0.0736813 0.0760863 0.0783427 0.0804504 0.0824094 0.0842196 0.0858812 0.0873941 0.088752 0.0899488 0.0909843 0.0918586 0.0925716 0.0931235 0.0935141 0.0937436 0.0938252 0.0937723 0.093585 0.0932633 0.0928071 0.0922165 0.0914914 0.0906319 0.089661 0.0886017 0.0874541 0.0862182 0.084894 0.0834815 0.0819806 0.0803913 0.0787377 0.0770436 0.0753091 0.0735341 0.0717186 0.0698626 0.0679662 0.0660292 0.0640711 0.062111 0.0601488 0.0581847 0.0562185 0.0542504 0.0522802 0.0503081 0.0483467 0.0464086 0.044494 0.0426028 0.040735 0.0388906 0.0370696 0.035272 0.0335051 0.0317761 0.0300849 0.0284317 0.0268164 0.025239 0.0236995 0.0221979 0.0207386 0.0193258 0.0179595 0.0166398 0.0153667 0.0141401 0.01296 0.0118265 0.0107432 0.00971353 0.00873762 0.00781543 0.00694698 0.00613224 0.00537123 0.00466395 0.00401088 0.00341252 0.00286886 0.0023799 0.00194565 0.00156611 0.00124127 0.000971133 0.000743524 0.000546263 0.000379349 0.000242783 0.000136566 6.06958e-05 1.5174e-05 0 0 9.85343e-05 0.000394137 0.000886809 0.00157655 0.00246336 0.00354723 0.00482818 0.00630619 0.00798652 0.00987441 0.0119699 0.0142729 0.0167835 0.0195016 0.0224273 0.0255605 0.028823 0.0321362 0.0355002 0.0389149 0.0423804 0.0458967 0.0494638 0.0530817 0.05668 0.0601886 0.0636074 0.0669364 0.0701757 0.0733252 0.076385 0.0793549 0.0821975 0.0848749 0.0873873 0.0897346 0.0919168 0.0939339 0.0957859 0.0974728 0.0989876 0.100323 0.10148 0.102457 0.103255 0.103873 0.104313 0.104573 0.104669 0.104615 0.104411 0.104058 0.103555 0.102902 0.102099 0.101147 0.100071 0.0988956 0.0976219 0.0962496 0.0947787 0.0932091 0.0915409 0.0897742 0.0879354 0.0860511 0.0841215 0.0821464 0.0801259 0.07806 0.0759486 0.0737919 0.0716111 0.0694278 0.067242 0.0650536 0.0628626 0.0606691 0.0584731 0.0562745 0.0540876 0.0519265 0.0497913 0.047682 0.0455985 0.0435409 0.0415091 0.0395033 0.0375314 0.0356016 0.0337139 0.0318683 0.0300649 0.0283035 0.0265843 0.0249071 0.0232769 0.0216985 0.0201717 0.0186967 0.0172735 0.0159019 0.0145822 0.0133141 0.0121017 0.0109489 0.00985574 0.00882214 0.00784815 0.00693375 0.00607894 0.00528374 0.0045488 0.00387483 0.00326181 0.00270975 0.00221864 0.00178849 0.00141929 0.00111105 0.000850649 0.000624966 0.000434004 0.000277763 0.000156242 6.94407e-05 1.73602e-05 0 0 0.000109853 0.00043941 0.000988674 0.00175764 0.00274632 0.00395469 0.00538278 0.00703057 0.00890214 0.0110016 0.0133288 0.015884 0.0186669 0.0216778 0.0249165 0.028383 0.031991 0.0356538 0.0393716 0.0431443 0.0469719 0.0508544 0.0547918 0.0587842 0.0627545 0.0666259 0.0703983 0.0740717 0.0776461 0.0811216 0.0844981 0.0877756 0.0909128 0.0938682 0.0966419 0.0992338 0.101644 0.103872 0.105919 0.107784 0.109459 0.110937 0.112217 0.113299 0.114185 0.114872 0.115362 0.115655 0.115766 0.115711 0.115492 0.115107 0.114557 0.113841 0.11296 0.111914 0.110731 0.109438 0.108036 0.106526 0.104905 0.103176 0.101338 0.0993905 0.0973632 0.0952853 0.0931569 0.090978 0.0887485 0.0864685 0.084138 0.0817569 0.079349 0.0769379 0.0745237 0.0721063 0.0696858 0.0672621 0.0648352 0.0624052 0.0599878 0.0575987 0.055238 0.0529055 0.0506014 0.0483257 0.0460783 0.0438592 0.0416774 0.039542 0.0374531 0.0354104 0.0334142 0.0314643 0.0295608 0.0277037 0.0258983 0.0241499 0.0224584 0.020824 0.0192466 0.0177261 0.0162627 0.0148562 0.0135111 0.0122314 0.0110174 0.00986886 0.00878591 0.00776851 0.00681666 0.00593037 0.00511054 0.00435808 0.00367299 0.00305528 0.00250494 0.00202197 0.00160637 0.00125815 0.000963271 0.000707709 0.000491465 0.000314537 0.000176927 7.86343e-05 1.96586e-05 0 0 0.000121509 0.000486034 0.00109358 0.00194414 0.00303771 0.00437431 0.00595392 0.00777655 0.00984493 0.0121618 0.0147272 0.017541 0.0206034 0.0239142 0.0274736 0.0312814 0.035243 0.0392635 0.0433431 0.0474816 0.0516792 0.0559357 0.0602512 0.0646257 0.0689755 0.073217 0.07735 0.0813747 0.085291 0.0890989 0.0927985 0.0963896 0.0998272 0.103066 0.106106 0.108948 0.111591 0.114035 0.11628 0.118327 0.120166 0.121789 0.123196 0.124387 0.125361 0.12612 0.126662 0.126988 0.127115 0.127061 0.126826 0.12641 0.125812 0.125034 0.124074 0.122933 0.121641 0.120229 0.118698 0.117046 0.115275 0.113383 0.111372 0.10924 0.107021 0.104746 0.102415 0.100029 0.0975864 0.0950882 0.0925342 0.0899244 0.0872848 0.0846413 0.0819941 0.079343 0.076688 0.0740293 0.0713667 0.0687003 0.0660474 0.0634253 0.060834 0.0582735 0.0557438 0.053245 0.0507769 0.0483397 0.0459433 0.0435975 0.0413024 0.0390581 0.0368644 0.0347215 0.0326292 0.0305877 0.0286027 0.02668 0.0248196 0.0230216 0.0212859 0.0196126 0.0180016 0.0164529 0.0149712 0.013561 0.0122225 0.0109556 0.00976026 0.00863653 0.00758439 0.00660384 0.00569607 0.00486226 0.0041024 0.0034165 0.00280455 0.00226655 0.00180251 0.00141243 0.00108139 0.000794491 0.00055173 0.000353107 0.000198623 8.82768e-05 2.20692e-05 0 0 0.000133502 0.000534009 0.00120152 0.00213603 0.00333755 0.00480608 0.0065416 0.00854414 0.0108149 0.0133552 0.0161649 0.0192441 0.0225928 0.026211 0.0300986 0.0342557 0.0385791 0.0429654 0.0474148 0.0519271 0.0565024 0.0611407 0.065842 0.0706063 0.0753431 0.0799619 0.0844627 0.0888455 0.0931103 0.0972572 0.101286 0.105197 0.108941 0.112469 0.115781 0.118877 0.121757 0.124421 0.12687 0.129102 0.131109 0.132881 0.134418 0.135719 0.136785 0.137617 0.138213 0.138574 0.138718 0.138665 0.138415 0.137968 0.137323 0.13648 0.13544 0.134203 0.132801 0.131269 0.129606 0.127811 0.125886 0.123829 0.121642 0.119324 0.116909 0.114434 0.111897 0.109299 0.10664 0.103919 0.101137 0.0982943 0.0954185 0.092538 0.089653 0.0867635 0.0838694 0.0809707 0.0780674 0.0751596 0.0722662 0.0694061 0.0665793 0.0637858 0.0610256 0.0582987 0.0556052 0.0529449 0.0503289 0.0477679 0.0452621 0.0428113 0.0404156 0.038075 0.0357895 0.0335591 0.0313901 0.0292888 0.0272553 0.0252896 0.0233916 0.0215613 0.0197988 0.0181041 0.016482 0.0149378 0.0134712 0.0120823 0.0107712 0.0095378 0.00838212 0.00730416 0.00630542 0.00538738 0.00455004 0.0037934 0.00311747 0.00252224 0.00200771 0.00157389 0.00120501 0.000885312 0.0006148 0.000393472 0.000221328 9.8368e-05 2.4592e-05 0 0 0.000145833 0.000583333 0.0013125 0.00233333 0.00364583 0.00525 0.00714583 0.00933333 0.0118121 0.0145816 0.017642 0.0209932 0.0246351 0.0285679 0.0327915 0.0373059 0.0419992 0.0467594 0.0515865 0.0564806 0.0614415 0.0664694 0.0715641 0.0767258 0.0818571 0.0868605 0.0917362 0.0964841 0.101104 0.105596 0.109961 0.114197 0.118253 0.122076 0.125665 0.129021 0.132143 0.135032 0.137688 0.14011 0.142288 0.144212 0.145881 0.147296 0.148456 0.149362 0.150014 0.150411 0.150574 0.150523 0.150258 0.14978 0.149087 0.14818 0.147059 0.145725 0.144212 0.142557 0.14076 0.138821 0.136739 0.134515 0.132149 0.129641 0.127028 0.124348 0.121602 0.118788 0.115908 0.112961 0.109947 0.106867 0.10375 0.100628 0.0975006 0.0943679 0.0912298 0.0880863 0.0849375 0.0817833 0.0786444 0.0755413 0.072474 0.0694425 0.0664468 0.063487 0.060563 0.0576748 0.0548343 0.0520533 0.0493319 0.04667 0.0440676 0.0415248 0.0390416 0.0366178 0.0342605 0.0319764 0.0297655 0.0276279 0.0255635 0.0235724 0.0216545 0.0198098 0.0180437 0.0163616 0.0147634 0.0132491 0.0118187 0.0104723 0.00920987 0.00803133 0.00693857 0.00593343 0.0050159 0.00418599 0.0034437 0.00278903 0.00222197 0.00174253 0.00133412 0.000980172 0.000680