<?xml version="1.0"?> 
<VTKFile type="StructuredGrid" version="0.1"> 
<StructuredGrid WholeExtent="0 128 0 128 0 0"> 
<Piece Extent="0 128 0 128 0 0"> 
<PointData>
<DataArray type="Float32" Name="u" format="ascii" NumberOfComponents="1"> 
0 0 0 0 0 0 0 0 0 0 0 0 0 0 0 0 0 0 0 0 0 0 0 0 0 0 0 0 0 0 0 0 0 0 0 0 0 0 0 0 0 0 0 0 0 0 0 0 0 0 0 0 0 0 0 0 0 0 0 0 0 0 0 0 0 0 0 0 0 0 0 0 0 0 0 0 0 0 0 0 0 0 0 0 0 0 0 0 0 0 0 0 0 0 0 0 0 0 0 0 0 0 0 0 0 0 0 0 0 0 0 0 0 0 0 0 0 0 0 0 0 0 0 0 0 0 0 0 0 0 2.82551e-07 1.1302e-06 2.54296e-06 4.52082e-06 7.06378e-06 1.01718e-05 1.3845e-05 1.80833e-05 2.29685e-05 2.85827e-05 3.49257e-05 4.19975e-05 4.97983e-05 5.83279e-05 6.75864e-05 7.75738e-05 8.80263e-05 9.86803e-05 0.000109536 0.000120593 0.000131851 0.000143311 0.000154972 0.000166835 0.000178648 0.00019016 0.000201371 0.000212281 0.00022289 0.000233198 0.000243206 0.000252912 0.000262189 0.00027091 0.000279075 0.000286684 0.000293736 0.000300232 0.000306172 0.000311555 0.000316363 0.000320575 0.000324191 0.000327211 0.000329636 0.000331465 0.000332699 0.000333337 0.000333432 0.00033304 0.000332159 0.00033079 0.000328932 0.000326586 0.000323751 0.000320429 0.000316705 0.00031267 0.000308323 0.000303663 0.000298691 0.000293407 0.000287811 0.000281903 0.000275772 0.000269507 0.000263109 0.000256578 0.000249913 0.000243115 0.000236183 0.000229118 0.00022199 0.000214868 0.000207753 0.000200645 0.000193544 0.00018645 0.000179363 0.000172282 0.000165253 0.000158321 0.000151485 0.000144745 0.000138101 0.000131554 0.000125103 0.000118748 0.000112514 0.000106425 0.000100481 9.46809e-05 8.90259e-05 8.35157e-05 7.81502e-05 7.29295e-05 6.78679e-05 6.29795e-05 5.82645e-05 5.37228e-05 4.93544e-05 4.51593e-05 4.11376e-05 3.72891e-05 3.36273e-05 3.01653e-05 2.69031e-05 2.38409e-05 2.09784e-05 1.83159e-05 1.58532e-05 1.35903e-05 1.1524e-05 9.65092e-06 7.971e-06 6.48428e-06 5.19076e-06 4.09043e-06 3.18329e-06 2.46936e-06 1.8906e-06 1.38901e-06 9.64592e-07 6.17339e-07 3.47253e-07 1.54335e-07 3.85837e-08 0 0 1.1302e-06 4.52082e-06 1.01718e-05 1.80833e-05 2.82551e-05 4.06874e-05 5.538e-05 7.23331e-05 9.18741e-05 0.000114331 0.000139703 0.00016799 0.000199193 0.000233312 0.000270346 0.000310295 0.000352105 0.000394721 0.000438143 0.000482371 0.000527404 0.000573244 0.000619889 0.00066734 0.000714593 0.000760641 0.000805485 0.000849125 0.000891562 0.000932794 0.000972822 0.00101165 0.00104876 0.00108364 0.0011163 0.00114674 0.00117494 0.00120093 0.00122469 0.00124622 0.00126545 0.0012823 0.00129676 0.00130885 0.00131854 0.00132586 0.0013308 0.00133335 0.00133373 0.00133216 0.00132864 0.00132316 0.00131573 0.00130634 0.00129501 0.00128171 0.00126682 0.00125068 0.00123329 0.00121465 0.00119477 0.00117363 0.00115125 0.00112761 0.00110309 0.00107803 0.00105244 0.00102631 0.000999653 0.00097246 0.000944733 0.000916472 0.000887959 0.000859472 0.000831013 0.000802582 0.000774177 0.000745801 0.000717451 0.000689129 0.000661014 0.000633284 0.000605939 0.000578979 0.000552405 0.000526216 0.000500412 0.000474994 0.000450058 0.000425701 0.000401923 0.000378724 0.000356104 0.000334063 0.000312601 0.000291718 0.000271471 0.000251918 0.000233058 0.000214891 0.000197418 0.000180637 0.00016455 0.000149157 0.000134509 0.000120661 0.000107613 9.53634e-05 8.39138e-05 7.32635e-05 6.34127e-05 5.43614e-05 4.60961e-05 3.86037e-05 3.1884e-05 2.59371e-05 2.0763e-05 1.63617e-05 1.27332e-05 9.87743e-06 7.5624e-06 5.55605e-06 3.85837e-06 2.46936e-06 1.38901e-06 6.17339e-07 1.54335e-07 0 0 2.54296e-06 1.01718e-05 2.28866e-05 4.06874e-05 6.3574e-05 9.15466e-05 0.000124605 0.00016275 0.000206717 0.000257244 0.000314331 0.000377978 0.000448185 0.000524951 0.000608278 0.000698164 0.000792237 0.000888123 0.000985822 0.00108533 0.00118666 0.0012898 0.00139475 0.00150152 0.00160783 0.00171144 0.00181234 0.00191053 0.00200601 0.00209879 0.00218885 0.00227621 0.0023597 0.00243819 0.00251168 0.00258016 0.00264363 0.00270209 0.00275555 0.002804 0.00284727 0.00288517 0.00291772 0.0029449 0.00296673 0.00298319 0.00299429 0.00300003 0.00300089 0.00299736 0.00298943 0.00297711 0.00296039 0.00293927 0.00291376 0.00288386 0.00285035 0.00281403 0.0027749 0.00273297 0.00268822 0.00264067 0.0025903 0.00253713 0.00248195 0.00242557 0.00236799 0.0023092 0.00224922 0.00218803 0.00212565 0.00206206 0.00199791 0.00193381 0.00186978 0.00180581 0.0017419 0.00167805 0.00161427 0.00155054 0.00148728 0.00142489 0.00136336 0.0013027 0.00124291 0.00118399 0.00112593 0.00106874 0.00101263 0.000957826 0.000904326 0.000852128 0.000801233 0.000751641 0.000703352 0.000656366 0.000610811 0.000566816 0.000524381 0.000483505 0.00044419 0.000406434 0.000370238 0.000335602 0.000302645 0.000271487 0.000242128 0.000214568 0.000188806 0.000164843 0.000142679 0.000122313 0.000103716 8.68583e-05 7.1739e-05 5.83585e-05 4.67168e-05 3.68138e-05 2.86496e-05 2.22242e-05 1.70154e-05 1.25011e-05 8.68133e-06 5.55605e-06 3.12528e-06 1.38901e-06 3.47253e-07 0 0 4.52082e-06 1.80833e-05 4.06874e-05 7.23331e-05 0.00011302 0.00016275 0.00022152 0.000289332 0.000367497 0.000457323 0.000558811 0.000671961 0.000796773 0.000933247 0.00108138 0.00124118 0.00140842 0.00157889 0.00175257 0.00192948 0.00210962 0.00229298 0.00247956 0.00266936 0.00285837 0.00304256 0.00322194 0.0033965 0.00356625 0.00373118 0.00389129 0.00404659 0.00419503 0.00433457 0.0044652 0.00458694 0.00469978 0.00480372 0.00489875 0.00498489 0.00506181 0.0051292 0.00518705 0.00523538 0.00527418 0.00530345 0.00532318 0.00533339 0.00533492 0.00532864 0.00531454 0.00529263 0.00526291 0.00522537 0.00518002 0.00512686 0.00506729 0.00500272 0.00493316 0.00485861 0.00477906 0.00469452 0.00460498 0.00451045 0.00441235 0.00431212 0.00420975 0.00410525 0.00399861 0.00388984 0.00377893 0.00366589 0.00355183 0.00343789 0.00332405 0.00321033 0.00309671 0.0029832 0.00286981 0.00275652 0.00264406 0.00253313 0.00242375 0.00231592 0.00220962 0.00210486 0.00200165 0.00189998 0.00180023 0.0017028 0.00160769 0.00151489 0.00142441 0.00133625 0.0012504 0.00116687 0.00108589 0.00100767 0.000932232 0.000859565 0.000789671 0.000722549 0.000658201 0.000596626 0.000538036 0.000482644 0.00043045 0.000381454 0.000335655 0.000293054 0.000253651 0.000217446 0.000184385 0.000154415 0.000127536 0.000103749 8.30521e-05 6.54468e-05 5.09327e-05 3.95097e-05 3.02496e-05 2.22242e-05 1.54335e-05 9.87743e-06 5.55605e-06 2.46936e-06 6.17339e-07 0 0 7.06378e-06 2.82551e-05 6.3574e-05 0.00011302 0.000176595 0.000254296 0.000346125 0.000452082 0.000574213 0.000714567 0.000873142 0.00104994 0.00124496 0.0014582 0.00168966 0.00193934 0.00220066 0.00246701 0.00273839 0.00301482 0.00329628 0.00358277 0.00387431 0.00417088 0.0044662 0.004754 0.00503428 0.00530703 0.00557226 0.00582996 0.00608014 0.00632279 0.00655473 0.00677276 0.00697688 0.0071671 0.00734341 0.00750581 0.0076543 0.00778889 0.00790907 0.00801437 0.00810477 0.00818028 0.00824091 0.00828663 0.00831747 0.00833342 0.00833581 0.008326 0.00830397 0.00826974 0.0082233 0.00816465 0.00809378 0.00801071 0.00791764 0.00781675 0.00770807 0.00759158 0.00746728 0.00733518 0.00719528 0.00704757 0.0068943 0.00673769 0.00657774 0.00641445 0.00624783 0.00607787 0.00590458 0.00572795 0.00554974 0.0053717 0.00519383 0.00501614 0.00483861 0.00466125 0.00448407 0.00430706 0.00413134 0.00395802 0.00378712 0.00361862 0.00345253 0.00328885 0.00312758 0.00296871 0.00281286 0.00266063 0.00251202 0.00236702 0.00222565 0.00208789 0.00195376 0.00182324 0.0016967 0.00157449 0.00145661 0.00134307 0.00123386 0.00112898 0.00102844 0.000932228 0.000840682 0.000754132 0.000672578 0.000596021 0.000524461 0.000457897 0.00039633 0.000339759 0.000288101 0.000241273 0.000199275 0.000162107 0.000129769 0.000102261 7.95823e-05 6.17339e-05 4.7265e-05 3.47253e-05 2.41148e-05 1.54335e-05 8.68133e-06 3.85837e-06 9.64592e-07 0 0 1.01718e-05 4.06874e-05 9.15466e-05 0.00016275 0.000254296 0.000366186 0.00049842 0.000650998 0.000826867 0.00102898 0.00125732 0.00151191 0.00179274 0.0020998 0.00243311 0.00279266 0.00316895 0.00355249 0.00394329 0.00434134 0.00474664 0.0051592 0.005579 0.00600606 0.00643133 0.00684577 0.00724936 0.00764213 0.00802405 0.00839515 0.0087554 0.00910482 0.00943881 0.00975277 0.0100467 0.0103206 0.0105745 0.0108084 0.0110222 0.011216 0.0113891 0.0115407 0.0116709 0.0117796 0.0118669 0.0119328 0.0119772 0.0120001 0.0120036 0.0119894 0.0119577 0.0119084 0.0118415 0.0117571 0.011655 0.0115354 0.0114014 0.0112561 0.0110996 0.0109319 0.0107529 0.0105627 0.0103612 0.0101485 0.00992779 0.00970227 0.00947194 0.00923681 0.00899688 0.00875214 0.0085026 0.00824825 0.00799163 0.00773525 0.00747912 0.00722323 0.0069676 0.00671221 0.00645706 0.00620216 0.00594912 0.00569955 0.00545345 0.00521081 0.00497164 0.00473594 0.00450371 0.00427494 0.00405052 0.0038313 0.0036173 0.00340851 0.00320493 0.00300656 0.00281341 0.00262546 0.00244324 0.00226726 0.00209752 0.00193402 0.00177676 0.00162574 0.00148095 0.00134241 0.00121058 0.00108595 0.000968513 0.000858271 0.000755224 0.000659372 0.000570715 0.000489252 0.000414865 0.000347433 0.000286956 0.000233434 0.000186867 0.000147255 0.000114599 8.88968e-05 6.80616e-05 5.00045e-05 3.47253e-05 2.22242e-05 1.25011e-05 5.55605e-06 1.38901e-06 0 0 1.3845e-05 5.538e-05 0.000124605 0.00022152 0.000346125 0.00049842 0.000678405 0.000886081 0.00112546 0.00140055 0.00171136 0.00205788 0.00244012 0.00285807 0.00331173 0.00380111 0.00431329 0.00483534 0.00536725 0.00590904 0.0064607 0.00702224 0.00759364 0.00817492 0.00875376 0.00931785 0.00986719 0.0104018 0.0109216 0.0114267 0.0119171 0.0123927 0.0128473 0.0132746 0.0136747 0.0140475 0.0143931 0.0147114 0.0150024 0.0152662 0.0155018 0.0157082 0.0158854 0.0160334 0.0161522 0.0162418 0.0163022 0.0163335 0.0163382 0.016319 0.0162758 0.0162087 0.0161177 0.0160027 0.0158638 0.015701 0.0155186 0.0153208 0.0151078 0.0148795 0.0146359 0.014377 0.0141028 0.0138132 0.0135128 0.0132059 0.0128924 0.0125723 0.0122457 0.0119126 0.011573 0.0112268 0.0108775 0.0105285 0.0101799 0.00983163 0.00948367 0.00913606 0.00878878 0.00844184 0.00809742 0.00775772 0.00742275 0.00709249 0.00676696 0.00644614 0.00613005 0.00581867 0.00551321 0.00521483 0.00492355 0.00463936 0.00436227 0.00409227 0.00382936 0.00357355 0.00332553 0.003086 0.00285496 0.00263242 0.00241837 0.00221281 0.00201574 0.00182717 0.00164774 0.0014781 0.00131825 0.0011682 0.00102794 0.000897478 0.000776806 0.000665927 0.000564678 0.000472895 0.000390579 0.00031773 0.000254347 0.000200431 0.000155981 0.000120998 9.26394e-05 6.80616e-05 4.7265e-05 3.02496e-05 1.70154e-05 7.5624e-06 1.8906e-06 0 0 1.80833e-05 7.23331e-05 0.00016275 0.000289332 0.000452082 0.000650998 0.000886081 0.00115733 0.00146999 0.00182929 0.00223524 0.00268784 0.00318709 0.00373299 0.00432553 0.00496472 0.00563368 0.00631554 0.00701029 0.00771793 0.00843847 0.0091719 0.00991823 0.0106774 0.0114335 0.0121703 0.0128878 0.013586 0.014265 0.0149247 0.0155652 0.0161864 0.0167801 0.0173383 0.0178608 0.0183478 0.0187991 0.0192149 0.019595 0.0199396 0.0202472 0.0205168 0.0207482 0.0209415 0.0210967 0.0212138 0.0212927 0.0213335 0.0213397 0.0213146 0.0212582 0.0211705 0.0210516 0.0209015 0.0207201 0.0205074 0.0202691 0.0200109 0.0197327 0.0194344 0.0191162 0.0187781 0.0184199 0.0180418 0.0176494 0.0172485 0.016839 0.016421 0.0159944 0.0155594 0.0151157 0.0146636 0.0142073 0.0137516 0.0132962 0.0128413 0.0123868 0.0119328 0.0114792 0.0110261 0.0105762 0.0101325 0.00969502 0.00926366 0.00883848 0.00841945 0.00800659 0.0075999 0.00720092 0.00681121 0.00643076 0.00605958 0.00569766 0.005345 0.00500161 0.00466749 0.00434354 0.00403069 0.00372893 0.00343826 0.00315868 0.0028902 0.0026328 0.0023865 0.00215215 0.00193058 0.0017218 0.00152581 0.00134262 0.00117222 0.0010146 0.000869782 0.000737538 0.000617659 0.000510144 0.000414994 0.000332208 0.000261787 0.000203731 0.000158039 0.000120998 8.88968e-05 6.17339e-05 3.95097e-05 2.22242e-05 9.87743e-06 2.46936e-06 0 0 2.29975e-05 9.19901e-05 0.000206978 0.00036796 0.000574938 0.000827911 0.00112688 0.00147184 0.00186922 0.00232543 0.00284048 0.00341436 0.00404708 0.00473863 0.00548902 0.00629824 0.00714498 0.00800791 0.00888704 0.00978236 0.0106939 0.0116216 0.0125655 0.0135256 0.0144816 0.0154133 0.0163207 0.0172037 0.0180623 0.0188966 0.0197066 0.0204923 0.0212432 0.0219492 0.0226102 0.0232263 0.0237973 0.0243234 0.0248045 0.0252406 0.0256301 0.0259714 0.0262645 0.0265094 0.0267062 0.0268547 0.0269551 0.0270072 0.0270155 0.0269842 0.0269134 0.0268031 0.0266532 0.0264638 0.0262348 0.0259663 0.0256654 0.0253391 0.0249876 0.0246108 0.0242086 0.0237812 0.0233284 0.0228504 0.0223543 0.0218473 0.0213295 0.0208008 0.0202614 0.019711 0.0191498 0.0185778 0.0180007 0.017424 0.0168479 0.0162723 0.0156972 0.0151226 0.0145485 0.013975 0.0134056 0.012844 0.0122902 0.0117442 0.0112059 0.0106754 0.0101527 0.00963775 0.00913256 0.00863908 0.00815731 0.00768726 0.00722891 0.00678228 0.00634735 0.00592414 0.0055138 0.00511748 0.00473518 0.00436691 0.00401266 0.00367244 0.00334624 0.00303407 0.00273698 0.00245606 0.00219129 0.00194268 0.00171023 0.00149393 0.00129379 0.00110981 0.000941731 0.000789291 0.000652492 0.000531333 0.000425814 0.000335937 0.0002617 0.000203104 0.000155501 0.000114246 7.93374e-05 5.07759e-05 2.85615e-05 1.2694e-05 3.1735e-06 0 0 2.86986e-05 0.000114795 0.000258288 0.000459178 0.000717466 0.00103315 0.00140623 0.00183671 0.00233193 0.00289921 0.00353857 0.00425 0.00503351 0.00588908 0.00681673 0.00781645 0.00886203 0.00992726 0.0110121 0.0121167 0.0132409 0.0143847 0.0155482 0.0167313 0.0179093 0.0190574 0.0201755 0.0212636 0.0223218 0.0233501 0.0243484 0.0253168 0.0262425 0.027113 0.0279281 0.0286879 0.0293923 0.0300415 0.0306353 0.0311738 0.031655 0.0320768 0.0324393 0.0327424 0.0329862 0.0331706 0.0332957 0.0333614 0.0333731 0.033336 0.0332501 0.0331155 0.0329321 0.0326999 0.0324189 0.0320892 0.0317194 0.0313184 0.0308861 0.0304225 0.0299276 0.0294014 0.028844 0.0282552 0.0276441 0.0270195 0.0263814 0.0257299 0.0250648 0.0243863 0.0236944 0.0229889 0.022277 0.0215656 0.0208547 0.0201445 0.0194347 0.0187255 0.0180169 0.0173088 0.0166058 0.0159122 0.0152283 0.0145538 0.0138889 0.0132335 0.0125877 0.0119514 0.011327 0.0107171 0.0101216 0.00954051 0.00897385 0.0084216 0.00788377 0.00736036 0.00685279 0.0063625 0.00588948 0.00543374 0.00499527 0.00457407 0.00417015 0.00378351 0.00341543 0.00306721 0.00273885 0.00243036 0.00214173 0.00187296 0.00162406 0.00139501 0.00118554 0.000995358 0.000824461 0.000672851 0.000540528 0.000427492 0.000333742 0.000259279 0.00019851 0.000145844 0.000101281 6.48197e-05 3.64611e-05 1.62049e-05 4.05123e-06 0 0 3.51866e-05 0.000140746 0.000316679 0.000562986 0.000879665 0.00126672 0.00172414 0.00225194 0.00285811 0.00355063 0.00432952 0.00519476 0.00614637 0.00718433 0.00830866 0.00951934 0.0107848 0.0120736 0.0133856 0.0147209 0.0160794 0.0174612 0.0188663 0.0202946 0.0217165 0.0231024 0.0244522 0.0257659 0.0270435 0.0282851 0.0294906 0.03066 0.0317781 0.0328295 0.0338144 0.0347326 0.0355842 0.0363692 0.0370875 0.0377393 0.0383219 0.038833 0.0392725 0.0396404 0.0399367 0.0401614 0.0403146 0.0403962 0.0404125 0.0403699 0.0402683 0.0401077 0.0398883 0.0396098 0.0392725 0.0388762 0.0384314 0.0379487 0.0374281 0.0368696 0.0362732 0.0356388 0.0349665 0.0342563 0.0335189 0.0327651 0.0319948 0.0312081 0.0304049 0.0295853 0.0287492 0.0278967 0.0270362 0.0261763 0.0253168 0.0244579 0.0235995 0.0227416 0.0218843 0.0210275 0.0201766 0.0193372 0.0185092 0.0176926 0.0168875 0.0160938 0.0153115 0.0145407 0.0137843 0.0130453 0.0123236 0.0116193 0.0109325 0.010263 0.00961086 0.00897614 0.00836052 0.00776576 0.00719183 0.00663874 0.0061065 0.0055951 0.00510454 0.00463482 0.00418747 0.00376403 0.0033645 0.00298886 0.00263714 0.00230931 0.00200539 0.00172538 0.00146897 0.00123586 0.00102605 0.00083955 0.00067635 0.000536452 0.000419857 0.000326564 0.000250026 0.000183693 0.000127564 8.16411e-05 4.59231e-05 2.04103e-05 5.10257e-06 0 0 4.24614e-05 0.000169846 0.000382153 0.000679383 0.00106154 0.00152861 0.00208061 0.00271753 0.00344776 0.00427969 0.00521332 0.00624864 0.00738567 0.00862438 0.0099648 0.0114069 0.0129134 0.0144469 0.0160074 0.017595 0.0192096 0.0208512 0.0225198 0.0242155 0.0259033 0.0275484 0.0291508 0.0307104 0.0322273 0.0337016 0.035133 0.0365218 0.0378498 0.0390988 0.040269 0.0413604 0.0423728 0.0433064 0.0441611 0.044937 0.0456309 0.04624 0.0467641 0.0472034 0.0475578 0.0478272 0.0480118 0.0481115 0.0481337 0.0480858 0.0479679 0.0477798 0.0475218 0.0471936 0.0467954 0.0463271 0.0458012 0.0452301 0.0446137 0.0439521 0.0432454 0.0424934 0.0416961 0.0408537 0.0399788 0.0390841 0.0381697 0.0372355 0.0362816 0.0353079 0.0343145 0.0333013 0.0322785 0.0312561 0.0302341 0.0292126 0.0281916 0.0271709 0.0261507 0.025131 0.0241182 0.0231188 0.022133 0.0211606 0.0202017 0.0192563 0.0183243 0.0174058 0.0165044 0.0156236 0.0147633 0.0139237 0.0131048 0.0123064 0.0115286 0.0107715 0.010037 0.00932724 0.00864222 0.00798192 0.00734635 0.00673551 0.00614939 0.00558801 0.00505312 0.00454653 0.00406821 0.00361818 0.00319644 0.00280298 0.00243781 0.00210091 0.00179201 0.00151079 0.00125727 0.00103143 0.000833279 0.000662818 0.000520045 0.00040496 0.000310048 0.00022779 0.000158188 0.00010124 5.69476e-05 2.531e-05 6.32751e-06 0 0 5.05231e-05 0.000202092 0.000454708 0.00080837 0.00126308 0.00181883 0.00247563 0.00323348 0.00410089 0.00508639 0.00618997 0.00741164 0.0087514 0.0102092 0.0117852 0.0134792 0.0152477 0.0170472 0.0188776 0.020739 0.0226313 0.0245546 0.0265088 0.0284939 0.0304696 0.0323954 0.0342713 0.0360973 0.0378734 0.0395996 0.0412759 0.0429022 0.0444576 0.0459209 0.0472922 0.0485713 0.0497583 0.0508533 0.0518562 0.0527669 0.053582 0.0542978 0.0549143 0.0554315 0.0558494 0.056168 0.0563873 0.0565073 0.0565367 0.0564838 0.0563489 0.0561318 0.0558326 0.0554512 0.0549878 0.0544421 0.0538289 0.0531625 0.0524429 0.0516701 0.0508442 0.0499651 0.0490328 0.0480473 0.0470236 0.0459765 0.044906 0.0438121 0.0426948 0.0415542 0.0403901 0.0392027 0.0380037 0.036805 0.0356067 0.0344086 0.0332108 0.0320133 0.0308162 0.0296193 0.0284304 0.0272572 0.0260996 0.0249577 0.0238315 0.0227209 0.021626 0.0205467 0.0194873 0.018452 0.0174408 0.0164537 0.0154907 0.0145518 0.0136371 0.0127464 0.0118822 0.011047 0.0102407 0.00946327 0.00871483 0.00799531 0.00730472 0.00664307 0.00601238 0.00541469 0.00485001 0.00431833 0.00381965 0.00335397 0.00292129 0.00252162 0.00215467 0.00182017 0.0015181 0.00124849 0.00101132 0.000806589 0.000634306 0.000494467 0.000378576 0.000278138 0.000193151 0.000123617 6.95344e-05 3.09042e-05 7.72604e-06 0 0 5.93717e-05 0.000237487 0.000534345 0.000949947 0.00148429 0.00213738 0.00290921 0.00379979 0.00481749 0.00597073 0.00725948 0.00868376 0.0102436 0.0119389 0.0137697 0.0157361 0.0177878 0.0198744 0.0219961 0.0241529 0.0263446 0.0285714 0.0308331 0.03313 0.0354155 0.0376434 0.0398137 0.0419264 0.0439816 0.0459791 0.047919 0.0498013 0.0516017 0.0532958 0.0548837 0.0563653 0.0577407 0.0590097 0.0601726 0.0612291 0.0621751 0.0630064 0.0637229 0.0643246 0.0648116 0.0651837 0.0654411 0.0655837 0.0656214 0.0655639 0.0654113 0.0651636 0.0648207 0.0643827 0.0638495 0.0632212 0.0625144 0.0617459 0.0609156 0.0600235 0.0590696 0.0580539 0.0569765 0.0558372 0.0546534 0.0534423 0.0522038 0.0509379 0.0496447 0.0483241 0.0469762 0.0456008 0.0442119 0.0428231 0.0414344 0.0400458 0.0386573 0.0372689 0.0358807 0.0344925 0.0331134 0.0317523 0.0304092 0.029084 0.0277769 0.0264877 0.0252165 0.0239633 0.022733 0.0215306 0.020356 0.0192093 0.0180904 0.0169994 0.0159362 0.0149008 0.0138961 0.0129249 0.0119871 0.0110828 0.0102119 0.0093745 0.00857053 0.0078 0.00706524 0.00636853 0.00570988 0.00508929 0.00450675 0.00396227 0.00345585 0.00298749 0.00255695 0.00216397 0.00180856 0.00149073 0.00121046 0.000967765 0.000762639 0.000595083 0.000455611 0.000334734 0.000232454 0.000148771 8.36836e-05 3.71927e-05 9.29818e-06 0 0 6.90071e-05 0.000276028 0.000621064 0.00110411 0.00172518 0.00248425 0.00338135 0.00441645 0.00559757 0.0069327 0.00842185 0.010065 0.0118622 0.0138133 0.0159185 0.0181777 0.0205336 0.0229287 0.025363 0.0278366 0.0303495 0.0329016 0.0354929 0.0381235 0.0407409 0.0432924 0.0457781 0.0481979 0.0505519 0.0528401 0.0550625 0.0572191 0.059282 0.0612235 0.0630437 0.0647424 0.0663198 0.0677758 0.0691103 0.0703235 0.0714103 0.0723658 0.07319 0.0738828 0.0744443 0.0748744 0.0751732 0.0753407 0.075388 0.0753261 0.0751552 0.0748752 0.0744861 0.0739879 0.0733807 0.0726643 0.0718578 0.0709803 0.0700318 0.0690122 0.0679216 0.0667599 0.0655272 0.0642234 0.0628683 0.0614815 0.060063 0.0586129 0.0571311 0.0556177 0.0540726 0.0524958 0.0509031 0.0493103 0.0477173 0.0461243 0.0445311 0.0429377 0.0413442 0.0397506 0.0381671 0.0366041 0.0350616 0.0335395 0.0320378 0.0305567 0.0290959 0.0276557 0.0262416 0.0248593 0.0235089 0.0221904 0.0209037 0.0196489 0.018426 0.0172349 0.0160788 0.0149611 0.0138817 0.0128405 0.0118376 0.0108731 0.0099468 0.00905882 0.0082117 0.00740804 0.00664782 0.00593106 0.00525776 0.0046279 0.00404149 0.00349854 0.00299884 0.00254221 0.00212865 0.00175815 0.00143071 0.00114635 0.000905046 0.00070681 0.000541152 0.000397581 0.000276098 0.000176703 9.93952e-05 4.41756e-05 1.10439e-05 0 0 7.94293e-05 0.000317717 0.000714864 0.00127087 0.00198573 0.00285946 0.00389204 0.00508348 0.00644112 0.00797232 0.00967706 0.0115554 0.0136072 0.0158326 0.0182316 0.0208041 0.0234852 0.0262099 0.0289783 0.0317903 0.0346459 0.0375452 0.0404881 0.0434747 0.0464458 0.0493423 0.0521643 0.0549117 0.0575845 0.0601827 0.0627063 0.0651554 0.0674985 0.069704 0.0717721 0.0737027 0.0754958 0.0771514 0.0786695 0.0800502 0.0812876 0.082376 0.0833155 0.084106 0.0847475 0.0852401 0.0855836 0.0857782 0.0858363 0.0857704 0.0855806 0.0852667 0.0848289 0.084267 0.0835812 0.0827714 0.0818591 0.0808658 0.0797916 0.0786364 0.0774002 0.0760831 0.0746849 0.0732058 0.0716681 0.0700941 0.0684837 0.0668371 0.0651541 0.0634349 0.0616793 0.0598875 0.0580773 0.0562666 0.0544555 0.052644 0.050832 0.0490196 0.0472068 0.0453935 0.0435915 0.0418127 0.0400568 0.0383241 0.0366144 0.0349278 0.0332643 0.0316238 0.0300129 0.0284382 0.0268996 0.0253971 0.0239308 0.0225005 0.0211064 0.0197484 0.0184303 0.0171555 0.0159242 0.0147364 0.013592 0.012491 0.0114335 0.0104195 0.00945177 0.00853322 0.00766385 0.00684366 0.00607266 0.00535084 0.0046782 0.00405475 0.00348035 0.00295488 0.00247835 0.00205075 0.00167207 0.00134233 0.00106153 0.000829648 0.000635199 0.000466677 0.000324081 0.000207412 0.000116669 5.1853e-05 1.29632e-05 0 0 9.04191e-05 0.000361676 0.000813772 0.00144671 0.00226048 0.00325509 0.00443054 0.00578682 0.00733042 0.00906782 0.010999 0.013124 0.0154428 0.0179553 0.0206617 0.0235619 0.0265829 0.0296521 0.0327693 0.0359346 0.0391479 0.0424093 0.0457188 0.0490764 0.0524161 0.0556721 0.0588445 0.0619331 0.0649381 0.0678593 0.0706969 0.0734508 0.0760857 0.0785664 0.0808929 0.0830653 0.0850834 0.0869473 0.0886571 0.0902126 0.0916074 0.0928348 0.093895 0.0947878 0.0955133 0.0960714 0.0964622 0.0966858 0.0967558 0.0966864 0.0964775 0.096129 0.095641 0.0950135 0.0942465 0.09334 0.092318 0.0912047 0.09 0.0887039 0.0873165 0.0858378 0.0842677 0.0826062 0.0808785 0.0791096 0.0772995 0.0754482 0.0735558 0.0716221 0.0696473 0.0676312 0.0655942 0.0635564 0.0615178 0.0594784 0.0574381 0.0553971 0.0533553 0.0513127 0.0492826 0.0472783 0.0452997 0.0433469 0.0414198 0.0395185 0.037643 0.0357933 0.0339767 0.0322006 0.0304652 0.0287702 0.0271159 0.0255021 0.0239288 0.0223962 0.0209082 0.019469 0.0180786 0.016737 0.0154442 0.0142002 0.0130051 0.0118587 0.0107643 0.00972504 0.0087409 0.00781188 0.006938 0.00611923 0.0053556 0.00464709 0.00399368 0.00339534 0.00285206 0.00236385 0.0019307 0.00155262 0.00122961 0.000961658 0.00073627 0.000540933 0.000375648 0.000240415 0.000135233 6.01036e-05 1.50259e-05 0 0 0.000101757 0.000407028 0.000915813 0.00162811 0.00254393 0.00366325 0.00498609 0.00651245 0.00824776 0.0101975 0.0123616 0.0147401 0.0173329 0.0201402 0.0231619 0.026398 0.0297674 0.0331893 0.0366636 0.0401903 0.0437695 0.047401 0.051085 0.0548214 0.0585375 0.0621605 0.0656906 0.0691276 0.0724716 0.0757225 0.0788805 0.0819454 0.0848782 0.0876399 0.0902303 0.0926495 0.0948975 0.0969744 0.09888 0.100614 0.10217 0.10354 0.104724 0.105722 0.106533 0.107159 0.107599 0.107853 0.107936 0.107864 0.107636 0.107253 0.106715 0.106021 0.105172 0.104167 0.103034 0.101799 0.100462 0.0990228 0.0974817 0.0958386 0.0940935 0.0922464 0.0903252 0.0883577 0.0863441 0.0842842 0.0821781 0.0800257 0.0778271 0.0755823 0.0733137 0.071044 0.068773 0.0665008 0.0642274 0.0619527 0.0596769 0.0573998 0.0551364 0.0529014 0.0506949 0.0485169 0.0463674 0.0442463 0.0421537 0.0400896 0.0380623 0.03608 0.0341428 0.0322506 0.0304035 0.0286015 0.0268445 0.0251326 0.0234703 0.0218622 0.0203084 0.0188089 0.0173636 0.0159725 0.0146357 0.0133531 0.0121282 0.0109645 0.00986193 0.00882053 0.00784029 0.00692121 0.00606329 0.00526653 0.00453103 0.00385691 0.00324415 0.00269276 0.00220274 0.0017741 0.00140682 0.0011009 0.00084288 0.000619259 0.000430041 0.000275226 0.000154815 6.88065e-05 1.72016e-05 0 0 0.000113443 0.000453772 0.00102099 0.00181509 0.00283608 0.00408395 0.00555871 0.00726036 0.00919312 0.0113612 0.0137647 0.0164035 0.0192777 0.0223872 0.0257321 0.0293124 0.0330386 0.0368216 0.0406612 0.0445575 0.0485106 0.0525203 0.0565867 0.0607098 0.06481 0.0688076 0.0727026 0.0764951 0.080185 0.0837724 0.0872572 0.0906394 0.0938761 0.0969244 0.0997841 0.102455 0.104938 0.107232 0.109338 0.111256 0.112976 0.114492 0.115802 0.116908 0.117808 0.118504 0.118994 0.119279 0.119377 0.119302 0.119056 0.118639 0.11805 0.117289 0.116357 0.115254 0.114008 0.112649 0.111177 0.109593 0.107896 0.106085 0.104162 0.102126 0.100008 0.0978384 0.0956174 0.0933449 0.091021 0.0886457 0.0862189 0.0837407 0.0812359 0.0787294 0.0762212 0.0737113 0.0711997 0.0686864 0.0661714 0.0636547 0.0611528 0.058682 0.0562425 0.0538342 0.051457 0.0491111 0.0467964 0.0445129 0.0422698 0.0400764 0.0379325 0.0358383 0.0337937 0.0317987 0.0298534 0.0279576 0.0261166 0.0243353 0.0226138 0.0209521 0.0193501 0.0178078 0.0163254 0.0149027 0.0135435 0.0122516 0.0110269 0.0098696 0.00877954 0.00775677 0.00680127 0.00591306 0.00509241 0.0043396 0.00365463 0.0030375 0.00248821 0.00200676 0.00159315 0.00124739 0.00095503 0.000701655 0.00048726 0.000311847 0.000175414 7.79617e-05 1.94904e-05 0 0 0.000125477 0.000501909 0.0011293 0.00200764 0.00313693 0.00451718 0.00614839 0.00803055 0.0101665 0.0125592 0.0152085 0.0181144 0.0212771 0.0246964 0.0283724 0.0323051 0.0363965 0.0405488 0.044762 0.0490362 0.0533712 0.0577671 0.0622239 0.0667416 0.0712335 0.0756132 0.0798806 0.0840356 0.0880784 0.0920088 0.0958269 0.0995328 0.103079 0.10642 0.109554 0.112483 0.115205 0.117722 0.120032 0.122136 0.124025 0.12569 0.12713 0.128346 0.129337 0.130104 0.130647 0.130966 0.131078 0.131002 0.130738 0.130286 0.129646 0.128818 0.127802 0.126599 0.125239 0.123755 0.122146 0.120414 0.118558 0.116578 0.114474 0.112246 0.109927 0.107552 0.105119 0.10263 0.100085 0.097482 0.0948226 0.0921063 0.0893606 0.0866126 0.0838623 0.0811098 0.0783551 0.0755981 0.0728389 0.0700774 0.0673318 0.0646201 0.0619424 0.0592986 0.0566888 0.054113 0.0515711 0.0490631 0.0465993 0.0441897 0.0418343 0.0395332 0.0372864 0.0350938 0.0329555 0.0308714 0.0288472 0.0268883 0.0249947 0.0231665 0.0214037 0.0197062 0.0180741 0.0165074 0.0150101 0.0135863 0.0122359 0.0109591 0.00975576 0.00862591 0.00756955 0.00658668 0.00567781 0.00484341 0.00408349 0.00339805 0.00278709 0.00225062 0.00178862 0.0014011 0.00107272 0.000788121 0.000547306 0.000350276 0.00019703 8.7569e-05 2.18923e-05 0 0 0.00013786 0.000551439 0.00124074 0.00220575 0.00344649 0.00496295 0.00675512 0.00882302 0.0111679 0.0137912 0.0166928 0.0198728 0.0233311 0.0270677 0.0310827 0.035376 0.0398411 0.0443711 0.0489661 0.0536262 0.0583513 0.0631414 0.0679966 0.0729167 0.0778083 0.0825775 0.0872245 0.0917492 0.0961517 0.100432 0.10459 0.108625 0.112488 0.116127 0.119541 0.122732 0.125699 0.128442 0.130961 0.133256 0.135317 0.137134 0.138707 0.140036 0.141121 0.141962 0.142558 0.142911 0.143039 0.142963 0.142682 0.142195 0.141504 0.140609 0.139508 0.138202 0.136727 0.135116 0.133369 0.131487 0.12947 0.127317 0.125029 0.122605 0.120082 0.117498 0.11485 0.112141 0.109369 0.106535 0.103638 0.100679 0.0976879 0.0946936 0.0916964 0.0886964 0.0856936 0.0826879 0.0796793 0.0766679 0.0736735 0.0707157 0.0677947 0.0649103 0.0620627 0.0592518 0.0564777 0.0537402 0.0510506 0.0484199 0.0458482 0.0433355 0.0408816 0.0384868 0.0361509 0.0338739 0.0316619 0.029521 0.0274511 0.0254523 0.0235245 0.0216677 0.019882 0.0181673 0.0165281 0.0149686 0.0134889 0.012089 0.0107689 0.00952863 0.00836812 0.0072874 0.00628723 0.00536834 0.00453074 0.00377442 0.0030994 0.00250566 0.00199322 0.00156206 0.00119595 0.000878658 0.000610179 0.000390515 0.000219664 9.76287e-05 2.44072e-05 0 0 0.00015059 0.000602361 0.00135531 0.00240944 0.00376475 0.00542125 0.00737892 0.00963777 0.0121974 0.0150574 0.0182178 0.0216785 0.0254397 0.0295012 0.0338631 0.0385253 0.0433723 0.0482884 0.0532735 0.0583277 0.063451 0.0686433 0.0739048 0.0792353 0.0845341 0.0897004 0.0947344 0.0996359 0.104405 0.109042 0.113546 0.117917 0.122102 0.126044 0.129745 0.133203 0.136419 0.139393 0.142125 0.144615 0.146852 0.148825 0.150533 0.151978 0.153159 0.154075 0.154728 0.155116 0.155262 0.155185 0.154887 0.154366 0.153624 0.15266 0.151473 0.150065 0.148472 0.146732 0.144845 0.142811 0.14063 0.138302 0.135826 0.133204 0.130474 0.127676 0.12481 0.121876 0.118874 0.115804 0.112666 0.10946 0.106218 0.102972 0.0997235 0.0964711 0.0932152 0.0899557 0.0866928 0.0834263 0.0801778 0.0769688 0.0737993 0.0706693 0.0675787 0.0645277 0.0615162 0.0585442 0.0556238 0.0527672 0.0499742 0.0472449 0.0445794 0.0419776 0.0394395 0.0369651 0.0345609 0.0322336 0.029983 0.0278093 0.0257124 0.0236923 0.0217489 0.0198824 0.0180974 0.0163985 0.0147859 0.0132594 0.0118191 0.0104649 0.00919699 0.00801522 0.00692067 0.00591439 0.00499637 0.00416661 0.00342513 0.0027719 0.00220694 0.00173025 0.00