<?xml version="1.0"?> 
<VTKFile type="StructuredGrid" version="0.1"> 
<StructuredGrid WholeExtent="0 128 0 128 0 0"> 
<Piece Extent="0 128 0 128 0 0"> 
<PointData>
<DataArray type="Float32" Name="u" format="ascii" NumberOfComponents="1"> 
0 0 0 0 0 0 0 0 0 0 0 0 0 0 0 0 0 0 0 0 0 0 0 0 0 0 0 0 0 0 0 0 0 0 0 0 0 0 0 0 0 0 0 0 0 0 0 0 0 0 0 0 0 0 0 0 0 0 0 0 0 0 0 0 0 0 0 0 0 0 0 0 0 0 0 0 0 0 0 0 0 0 0 0 0 0 0 0 0 0 0 0 0 0 0 0 0 0 0 0 0 0 0 0 0 0 0 0 0 0 0 0 0 0 0 0 0 0 0 0 0 0 0 0 0 0 0 0 0 0 9.06188e-08 3.62475e-07 8.15569e-07 1.4499e-06 2.26547e-06 3.26228e-06 4.44032e-06 5.7996e-06 7.38382e-06 9.23668e-06 1.13582e-05 1.37483e-05 1.64071e-05 1.93345e-05 2.25306e-05 2.59953e-05 2.96278e-05 3.33271e-05 3.70933e-05 4.09265e-05 4.48265e-05 4.87934e-05 5.28271e-05 5.69278e-05 6.0992e-05 6.49165e-05 6.87012e-05 7.23461e-05 7.58513e-05 7.92167e-05 8.24424e-05 8.55283e-05 8.84336e-05 9.11175e-05 9.35799e-05 9.5821e-05 9.78406e-05 9.96388e-05 0.000101216 0.000102571 0.000103722 0.000104688 0.000105466 0.000106059 0.000106465 0.000106685 0.000106718 0.000106566 0.000106274 0.000105891 0.000105416 0.00010485 0.000104193 0.000103444 0.000102603 0.000101672 0.00010069 9.97008e-05 9.87033e-05 9.76977e-05 9.66841e-05 9.56625e-05 9.46328e-05 9.35951e-05 9.25613e-05 9.15434e-05 9.05414e-05 8.95554e-05 8.85852e-05 8.76309e-05 8.66925e-05 8.577e-05 8.4846e-05 8.3903e-05 8.29411e-05 8.19602e-05 8.09604e-05 7.99416e-05 7.89039e-05 7.78472e-05 7.67461e-05 7.55749e-05 7.43338e-05 7.30226e-05 7.16415e-05 7.01904e-05 6.86692e-05 6.70781e-05 6.54095e-05 6.36558e-05 6.1817e-05 5.98932e-05 5.78843e-05 5.57904e-05 5.36115e-05 5.13475e-05 4.90238e-05 4.66659e-05 4.42738e-05 4.18474e-05 3.93868e-05 3.68919e-05 3.43628e-05 3.17994e-05 2.92563e-05 2.67876e-05 2.43936e-05 2.20741e-05 1.98291e-05 1.76588e-05 1.55629e-05 1.35417e-05 1.16379e-05 9.89456e-06 8.3116e-06 6.88905e-06 5.62691e-06 4.52517e-06 3.58383e-06 2.8029e-06 2.14597e-06 1.57663e-06 1.09488e-06 7.00726e-07 3.94158e-07 1.75181e-07 4.37953e-08 0 0 3.62475e-07 1.4499e-06 3.26228e-06 5.7996e-06 9.06188e-06 1.30491e-05 1.77613e-05 2.31984e-05 2.95353e-05 3.69467e-05 4.54327e-05 5.49933e-05 6.56284e-05 7.73381e-05 9.01223e-05 0.000103981 0.000118511 0.000133308 0.000148373 0.000163706 0.000179306 0.000195173 0.000211309 0.000227711 0.000243968 0.000259666 0.000274805 0.000289385 0.000303405 0.000316867 0.00032977 0.000342113 0.000353734 0.00036447 0.00037432 0.000383284 0.000391362 0.000398555 0.000404862 0.000410284 0.00041489 0.000418751 0.000421866 0.000424236 0.00042586 0.00042674 0.000426873 0.000426262 0.000425095 0.000423562 0.000421664 0.0004194 0.00041677 0.000413775 0.000410414 0.000406687 0.000402761 0.000398803 0.000394813 0.000390791 0.000386736 0.00038265 0.000378531 0.00037438 0.000370245 0.000366174 0.000362166 0.000358221 0.000354341 0.000350524 0.00034677 0.00034308 0.000339384 0.000335612 0.000331764 0.000327841 0.000323842 0.000319767 0.000315616 0.000311389 0.000306984 0.0003023 0.000297335 0.000292091 0.000286566 0.000280761 0.000274677 0.000268312 0.000261638 0.000254623 0.000247268 0.000239573 0.000231537 0.000223162 0.000214446 0.00020539 0.000196095 0.000186664 0.000177095 0.00016739 0.000157547 0.000147568 0.000137451 0.000127198 0.000117025 0.000107151 9.75743e-05 8.82963e-05 7.93166e-05 7.06351e-05 6.22518e-05 5.41668e-05 4.65517e-05 3.95782e-05 3.32464e-05 2.75562e-05 2.25076e-05 1.81007e-05 1.43353e-05 1.12116e-05 8.58389e-06 6.30653e-06 4.37953e-06 2.8029e-06 1.57663e-06 7.00726e-07 1.75181e-07 0 0 8.15569e-07 3.26228e-06 7.34012e-06 1.30491e-05 2.03892e-05 2.93605e-05 3.99629e-05 5.21964e-05 6.64544e-05 8.31301e-05 0.000102224 0.000123735 0.000147664 0.000174011 0.000202775 0.000233958 0.00026665 0.000299944 0.00033384 0.000368338 0.000403438 0.00043914 0.000475444 0.00051235 0.000548928 0.000584248 0.000618311 0.000651115 0.000682662 0.000712951 0.000741982 0.000769755 0.000795902 0.000820057 0.000842219 0.000862389 0.000880565 0.000896749 0.00091094 0.000923139 0.000933502 0.000942189 0.000949198 0.00095453 0.000958186 0.000960164 0.000960465 0.00095909 0.000956464 0.000953016 0.000948744 0.00094365 0.000937733 0.000930993 0.000923431 0.000915045 0.000906212 0.000897307 0.000888329 0.000879279 0.000870157 0.000860962 0.000851695 0.000842356 0.000833052 0.000823891 0.000814873 0.000805998 0.000797267 0.000788678 0.000780233 0.00077193 0.000763614 0.000755127 0.00074647 0.000737642 0.000728644 0.000719475 0.000710135 0.000700625 0.000690715 0.000680174 0.000669004 0.000657204 0.000644773 0.000631713 0.000618023 0.000603703 0.000588685 0.000572902 0.000556353 0.000539039 0.000520959 0.000502114 0.000482503 0.000462127 0.000441214 0.000419993 0.000398464 0.000376626 0.000354481 0.000332027 0.000309265 0.000286195 0.000263306 0.000241089 0.000219542 0.000198667 0.000178462 0.000158929 0.000140067 0.000121875 0.000104741 8.90511e-05 7.48044e-05 6.20015e-05 5.06421e-05 4.07265e-05 3.22545e-05 2.52261e-05 1.93137e-05 1.41897e-05 9.85395e-06 6.30653e-06 3.54742e-06 1.57663e-06 3.94158e-07 0 0 1.4499e-06 5.7996e-06 1.30491e-05 2.31984e-05 3.62475e-05 5.21964e-05 7.10451e-05 9.27936e-05 0.000118141 0.000147787 0.000181731 0.000219973 0.000262514 0.000309352 0.000360489 0.000415925 0.000474044 0.000533234 0.000593493 0.000654823 0.000717223 0.000780694 0.000845234 0.000910845 0.000975872 0.00103866 0.00109922 0.00115754 0.00121362 0.00126747 0.00131908 0.00136845 0.00141494 0.00145788 0.00149728 0.00153314 0.00156545 0.00159422 0.00161945 0.00164114 0.00165956 0.001675 0.00168746 0.00169694 0.00170344 0.00170696 0.00170749 0.00170505 0.00170038 0.00169425 0.00168666 0.0016776 0.00166708 0.0016551 0.00164165 0.00162675 0.00161104 0.00159521 0.00157925 0.00156316 0.00154695 0.0015306 0.00151412 0.00149752 0.00148098 0.00146469 0.00144866 0.00143289 0.00141736 0.00140209 0.00138708 0.00137232 0.00135754 0.00134245 0.00132706 0.00131136 0.00129537 0.00127907 0.00126246 0.00124556 0.00122794 0.0012092 0.00118934 0.00116836 0.00114626 0.00112305 0.00109871 0.00107325 0.00104655 0.00101849 0.000989072 0.000958291 0.000926149 0.000892647 0.000857783 0.000821559 0.000784381 0.000746654 0.00070838 0.000669558 0.000630188 0.00059027 0.000549805 0.000508791 0.0004681 0.000428602 0.000390297 0.000353185 0.000317266 0.00028254 0.000249007 0.000216667 0.000186207 0.000158313 0.000132986 0.000110225 9.00305e-05 7.24026e-05 5.73413e-05 4.48464e-05 3.43356e-05 2.52261e-05 1.75181e-05 1.12116e-05 6.30653e-06 2.8029e-06 7.00726e-07 0 0 2.26547e-06 9.06188e-06 2.03892e-05 3.62475e-05 5.66367e-05 8.15569e-05 0.000111008 0.00014499 0.000184596 0.000230917 0.000283955 0.000343708 0.000410178 0.000483363 0.000563265 0.000649882 0.000740694 0.000833178 0.000927333 0.00102316 0.00112066 0.00121983 0.00132068 0.0014232 0.0015248 0.00162291 0.00171753 0.00180865 0.00189628 0.00198042 0.00206106 0.00213821 0.00221084 0.00227794 0.0023395 0.00239552 0.00244602 0.00249097 0.00253039 0.00256427 0.00259306 0.00261719 0.00263666 0.00265147 0.00266163 0.00266712 0.00266796 0.00266414 0.00265684 0.00264727 0.0026354 0.00262125 0.00260481 0.00258609 0.00256509 0.00254179 0.00251726 0.00249252 0.00246758 0.00244244 0.0024171 0.00239156 0.00236582 0.00233988 0.00231403 0.00228859 0.00226354 0.00223888 0.00221463 0.00219077 0.00216731 0.00214425 0.00212115 0.00209758 0.00207353 0.00204901 0.00202401 0.00199854 0.0019726 0.00194618 0.00191865 0.00188937 0.00185834 0.00182557 0.00179104 0.00175476 0.00171673 0.00167695 0.00163524 0.00159139 0.00154542 0.00149733 0.00144711 0.00139476 0.00134029 0.00128369 0.00122559 0.00116665 0.00110684 0.00104618 0.000984669 0.000922297 0.00085907 0.000794986 0.000731406 0.000669691 0.000609839 0.000551852 0.000495728 0.000441469 0.000389074 0.000338542 0.000290948 0.000247364 0.00020779 0.000172226 0.000140673 0.000113129 8.95958e-05 7.00726e-05 5.36493e-05 3.94158e-05 2.73721e-05 1.75181e-05 9.85395e-06 4.37953e-06 1.09488e-06 0 0 3.26228e-06 1.30491e-05 2.93605e-05 5.21964e-05 8.15569e-05 0.000117442 0.000159851 0.000208786 0.000265818 0.000332521 0.000408895 0.00049494 0.000590656 0.000696043 0.000811101 0.00093583 0.0010666 0.00119978 0.00133536 0.00147335 0.00161375 0.00175656 0.00190178 0.0020494 0.00219571 0.00233699 0.00247324 0.00260446 0.00273065 0.0028518 0.00296793 0.00307902 0.00318361 0.00328023 0.00336888 0.00344956 0.00352226 0.003587 0.00364376 0.00369256 0.00373401 0.00376875 0.00379679 0.00381812 0.00383274 0.00384066 0.00384186 0.00383636 0.00382586 0.00381206 0.00379498 0.0037746 0.00375093 0.00372397 0.00369372 0.00366018 0.00362485 0.00358923 0.00355332 0.00351712 0.00348063 0.00344385 0.00340678 0.00336942 0.00333221 0.00329556 0.00325949 0.00322399 0.00318907 0.00315471 0.00312093 0.00308772 0.00305446 0.00302051 0.00298588 0.00295057 0.00291457 0.0028779 0.00284054 0.0028025 0.00276286 0.0027207 0.00267602 0.00262881 0.00257909 0.00252685 0.00247209 0.00241481 0.00235474 0.00229161 0.00222541 0.00215615 0.00208384 0.00200846 0.00193001 0.00184851 0.00176486 0.00167997 0.00159386 0.00150651 0.00141792 0.00132811 0.00123706 0.00114478 0.00105323 0.000964355 0.000878169 0.000794667 0.000713849 0.000635715 0.000560266 0.000487501 0.000418965 0.000356204 0.000299218 0.000248006 0.000202569 0.000162906 0.000129018 0.000100904 7.7255e-05 5.67588e-05 3.94158e-05 2.52261e-05 1.41897e-05 6.30653e-06 1.57663e-06 0 0 4.44032e-06 1.77613e-05 3.99629e-05 7.10451e-05 0.000111008 0.000159851 0.000217576 0.00028418 0.000361807 0.000452597 0.000556551 0.000673668 0.000803948 0.000947392 0.001104 0.00127377 0.00145176 0.00163303 0.00181757 0.0020054 0.0021965 0.00239087 0.00258853 0.00278946 0.00298861 0.00318091 0.00336636 0.00354496 0.00371671 0.00388162 0.00403968 0.00419089 0.00433325 0.00446476 0.00458542 0.00469523 0.00479419 0.0048823 0.00495956 0.00502598 0.0050824 0.00512969 0.00516786 0.00519689 0.00521679 0.00522756 0.0052292 0.00522171 0.00520742 0.00518864 0.00516539 0.00513765 0.00510544 0.00506874 0.00502757 0.00498191 0.00493382 0.00488534 0.00483646 0.00478719 0.00473752 0.00468746 0.00463701 0.00458616 0.0045355 0.00448563 0.00443653 0.00438821 0.00434067 0.00429391 0.00424793 0.00420273 0.00415745 0.00411125 0.00406411 0.00401605 0.00396706 0.00391714 0.00386629 0.00381451 0.00376056 0.00370317 0.00364235 0.00357811 0.00351043 0.00343933 0.00336479 0.00328683 0.00320506 0.00311913 0.00302903 0.00293477 0.00283633 0.00273373 0.00262696 0.00251603 0.00240217 0.00228663 0.00216941 0.00205052 0.00192995 0.0018077 0.00168378 0.00155817 0.00143356 0.00131259 0.00119529 0.00108163 0.000971628 0.000865279 0.000762584 0.000663543 0.000570258 0.000484834 0.000407269 0.000337564 0.000275718 0.000221733 0.000175608 0.000137342 0.000105153 7.7255e-05 5.36493e-05 3.43356e-05 1.93137e-05 8.58389e-06 2.14597e-06 0 0 5.7996e-06 2.31984e-05 5.21964e-05 9.27936e-05 0.00014499 0.000208786 0.00028418 0.000371174 0.000472565 0.000591148 0.000726924 0.000879893 0.00105005 0.00123741 0.00144196 0.0016637 0.00189618 0.00213293 0.00237397 0.00261929 0.00286889 0.00312277 0.00338094 0.00364338 0.00390349 0.00415466 0.00439688 0.00463015 0.00485448 0.00506987 0.00527631 0.00547381 0.00565975 0.00583152 0.00598912 0.00613254 0.0062618 0.00637688 0.0064778 0.00656454 0.00663824 0.00670001 0.00674985 0.00678777 0.00681377 0.00682783 0.00682998 0.00682019 0.00680152 0.006777 0.00674663 0.0067104 0.00666832 0.0066204 0.00656662 0.00650699 0.00644418 0.00638085 0.00631701 0.00625265 0.00618778 0.0061224 0.0060565 0.00599009 0.00592392 0.00585878 0.00579465 0.00573154 0.00566945 0.00560838 0.00554832 0.00548928 0.00543014 0.00536979 0.00530823 0.00524546 0.00518147 0.00511626 0.00504985 0.00498222 0.00491175 0.00483679 0.00475736 0.00467345 0.00458506 0.00449218 0.00439483 0.004293 0.0041862 0.00407397 0.00395629 0.00383316 0.0037046 0.00357059 0.00343113 0.00328624 0.00313752 0.00298662 0.00283352 0.00267823 0.00252075 0.00236108 0.00219922 0.00203516 0.0018724 0.00171441 0.00156119 0.00141274 0.00126906 0.00113016 0.000996029 0.000866668 0.000744827 0.000633252 0.000531943 0.000440899 0.000360122 0.000289611 0.000229365 0.000179386 0.000137342 0.000100904 7.00726e-05 4.48464e-05 2.52261e-05 1.12116e-05 2.8029e-06 0 0 7.43048e-06 2.97219e-05 6.68743e-05 0.000118888 0.000185762 0.000267497 0.000364094 0.000475551 0.000605308 0.000756806 0.000930043 0.00112502 0.00134174 0.00158019 0.00184039 0.00212233 0.00241782 0.00271868 0.00302491 0.00333651 0.00365348 0.00397582 0.00430353 0.00463661 0.00496671 0.00528549 0.00559295 0.00588909 0.00617391 0.0064474 0.00670957 0.00696042 0.00719665 0.00741494 0.0076153 0.00779774 0.00796224 0.00810882 0.00823747 0.00834818 0.00844238 0.00852146 0.00858543 0.00863429 0.00866804 0.00868667 0.0086902 0.00867861 0.00865573 0.0086254 0.00858761 0.00854236 0.00848966 0.0084295 0.00836189 0.00828681 0.00820765 0.00812776 0.00804716 0.00796583 0.00788378 0.00780101 0.00771751 0.00763329 0.00754933 0.00746659 0.00738507 0.00730477 0.0072257 0.00714785 0.00707122 0.00699582 0.00692024 0.00684309 0.00676437 0.00668408 0.00660221 0.00651878 0.00643377 0.00634719 0.00625699 0.00616111 0.00605956 0.00595234 0.00583945 0.00572088 0.00559664 0.00546672 0.00533054 0.00518747 0.00503754 0.00488073 0.00471705 0.00454649 0.00436906 0.00418476 0.00399564 0.00380376 0.00360911 0.0034117 0.00321152 0.00300858 0.00280288 0.00259441 0.00238757 0.00218676 0.00199196 0.00180319 0.00162044 0.0014437 0.00127299 0.00110831 0.000953127 0.000810945 0.00068176 0.000565573 0.000462383 0.00037219 0.000294995 0.000230797 0.000176704 0.000129823 9.01551e-05 5.76993e-05 3.24559e-05 1.44248e-05 3.60621e-06 0 0 9.42332e-06 3.76933e-05 8.48099e-05 0.000150773 0.000235583 0.000339239 0.000461743 0.000603092 0.000767257 0.000958206 0.00117594 0.00142046 0.00169176 0.00198984 0.00231471 0.00266636 0.00303466 0.00340945 0.00379073 0.00417852 0.00457279 0.00497357 0.00538084 0.00579461 0.00620464 0.00660068 0.00698275 0.00735083 0.00770493 0.00804505 0.00837119 0.00868335 0.00897746 0.00924945 0.00949931 0.00972706 0.00993268 0.0101162 0.0102776 0.0104168 0.0105357 0.0106358 0.0107172 0.01078 0.010824 0.0108493 0.0108559 0.0108437 0.0108176 0.0107821 0.0107373 0.0106831 0.0106195 0.0105466 0.0104644 0.0103728 0.010276 0.0101781 0.0100791 0.00997903 0.00987787 0.00977563 0.0096723 0.00956788 0.00946358 0.00936062 0.00925898 0.00915868 0.00905971 0.00896207 0.00886576 0.00877079 0.00867546 0.00857809 0.00847867 0.00837722 0.00827372 0.00816818 0.0080606 0.00795098 0.00783683 0.00771567 0.00758749 0.0074523 0.0073101 0.00716088 0.00700465 0.0068414 0.00667042 0.00649101 0.00630315 0.00610685 0.0059021 0.00568892 0.00546729 0.00523722 0.00500123 0.00476186 0.00451911 0.00427297 0.00402345 0.00377054 0.00351425 0.00325457 0.00299689 0.0027466 0.00250369 0.00226816 0.00204002 0.00181926 0.00160588 0.00139989 0.00120561 0.0010274 0.000865242 0.000719145 0.000589105 0.000475125 0.000377202 0.000295339 0.000226119 0.000166128 0.000115367 7.38346e-05 4.1532e-05 1.84587e-05 4.61466e-06 0 0 1.17781e-05 4.71125e-05 0.000106003 0.00018845 0.000294453 0.000424012 0.000577128 0.000753799 0.000958412 0.00119535 0.00146461 0.0017662 0.00210012 0.00246635 0.00286492 0.00329581 0.00374669 0.00420524 0.00467144 0.00514531 0.00562683 0.00611602 0.00661287 0.00711738 0.00761726 0.00810022 0.00856625 0.00901536 0.00944756 0.00986282 0.0102612 0.0106426 0.0110022 0.011335 0.0116411 0.0119205 0.0121731 0.012399 0.0125981 0.0127705 0.0129181 0.0130431 0.0131453 0.0132248 0.0132816 0.0133156 0.013327 0.0133156 0.0132871 0.0132471 0.0131956 0.0131325 0.0130579 0.0129718 0.0128741 0.0127649 0.0126492 0.0125318 0.0124128 0.0122923 0.0121701 0.0120463 0.0119209 0.0117938 0.0116667 0.0115409 0.0114164 0.0112933 0.0111715 0.011051 0.0109319 0.0108142 0.0106958 0.0105748 0.0104511 0.0103249 0.010196 0.0100645 0.00993035 0.0097936 0.00965128 0.00950047 0.00934115 0.00917333 0.008997 0.00881218 0.00861885 0.00841703 0.00820587 0.00798457 0.00775311 0.00751151 0.00725976 0.00699785 0.0067258 0.0064436 0.00615429 0.00586093 0.00556352 0.00526205 0.00495653 0.00464696 0.00433333 0.00401564 0.00370036 0.00339393 0.00309637 0.00280766 0.00252781 0.00225682 0.00199468 0.00174141 0.00150228 0.00128261 0.00108239 0.000901614 0.000740289 0.000598413 0.000475987 0.00037301 0.000285586 0.000209818 0.000145707 9.32525e-05 5.24545e-05 2.33131e-05 5.82828e-06 0 0 1.44949e-05 5.79795e-05 0.000130454 0.000231918 0.000362372 0.000521815 0.000710249 0.000927672 0.00117877 0.00146824 0.00179606 0.00216226 0.00256681 0.00300973 0.00349102 0.00401066 0.00455393 0.00510605 0.00566704 0.00623689 0.0068156 0.00740318 0.00799962 0.00860492 0.00920458 0.0097841 0.0103435 0.0108827 0.0114018 0.0119007 0.0123795 0.0128382 0.0132708 0.0136717 0.0140408 0.0143781 0.0146835 0.0149572 0.0151991 0.0154092 0.0155898 0.0157432 0.0158696 0.0159688 0.0160408 0.0160858 0.0161036 0.0160942 0.0160643 0.0160204 0.0159625 0.0158906 0.0158048 0.0157049 0.015591 0.0154632 0.0153272 0.0151889 0.0150484 0.0149055 0.0147604 0.0146129 0.0144632 0.0143112 0.0141586 0.0140073 0.0138573 0.0137085 0.013561 0.0134148 0.0132698 0.013126 0.0129813 0.0128332 0.0126818 0.012527 0.012369 0.0122077 0.012043 0.011875 0.0117003 0.0115155 0.0113205 0.0111154 0.0109002 0.0106748 0.0104393 0.0101936 0.00993688 0.00966816 0.00938744 0.00909473 0.00879002 0.00847331 0.00814461 0.00780391 0.00745483 0.00710098 0.00674235 0.00637895 0.00601078 0.00563783 0.00526011 0.00487762 0.00449797 0.00412876 0.00377 0.00342168 0.00308381 0.00275638 0.0024394 0.00213287 0.00184314 0.00157659 0.0013332 0.00111298 0.000915934 0.000742056 0.000591349 0.000463811 0.000355105 0.000260894 0.000181176 0.000115953 6.52234e-05 2.89882e-05 7.24705e-06 0 0 1.75736e-05 7.02943e-05 0.000158162 0.000281177 0.00043934 0.000632649 0.000861106 0.00112471 0.00142834 0.00177686 0.00217029 0.00260862 0.00309185 0.00361997 0.004193 0.00481093 0.00545635 0.00611189 0.00677752 0.00745326 0.0081391 0.00883504 0.00954109 0.0102572 0.0109666 0.0116523 0.0123144 0.0129528 0.0135676 0.0141587 0.0147262 0.01527 0.0157834 0.0162595 0.0166982 0.0170997 0.017464 0.0177909 0.0180805 0.0183328 0.0185506 0.0187363 0.0188901 0.0190119 0.0191018 0.0191597 0.0191856 0.0191795 0.0191491 0.019102 0.0190381 0.0189575 0.0188601 0.018746 0.0186152 0.0184676 0.0183101 0.0181495 0.0179857 0.0178188 0.0176488 0.0174756 0.0172993 0.0171199 0.0169394 0.01676 0.0165817 0.0164045 0.0162283 0.0160533 0.0158792 0.0157063 0.0155318 0.0153533 0.0151706 0.0149837 0.0147928 0.0145978 0.0143986 0.0141953 0.013984 0.0137608 0.0135256 0.0132786 0.0130196 0.0127487 0.0124659 0.0121711 0.0118634 0.0115418 0.0112061 0.0108565 0.0104929 0.0101153 0.00972371 0.00931815 0.00890284 0.00848198 0.00805559 0.00762365 0.00718618 0.00674316 0.00629461 0.00584052 0.00538973 0.00495108 0.00452458 0.00411023 0.00370802 0.00331796 0.00294004 0.00257427 0.00222819 0.00190932 0.00161767 0.00135325 0.00111604 0.000906054 0.000723288 0.000567742 0.000434678 0.000319355 0.000221774 0.000141936 7.98387e-05 3.54839e-05 8.87097e-06 0 0 2.10143e-05 8.4057e-05 0.000189128 0.000336228 0.000525356 0.000756513 0.0010297 0.00134491 0.00170711 0.00212123 0.0025873 0.00310529 0.00367522 0.00429708 0.00497087 0.0056966 0.00645398 0.00722274 0.00800289 0.00879441 0.00959732 0.0104116 0.0112373 0.0120743 0.0129033 0.0137049 0.0144791 0.0152258 0.015945 0.0166369 0.0173013 0.0179382 0.0185399 0.0190983 0.0196135 0.0200856 0.0205144 0.0209 0.0212424 0.0215415 0.0218005 0.0220223 0.0222069 0.0223542 0.0224644 0.0225373 0.0225731 0.0225716 0.0225416 0.0224919 0.0224224 0.0223331 0.0222241 0.0220952 0.0219466 0.0217782 0.0215979 0.0214134 0.0212248 0.0210321 0.0208352 0.0206343 0.0204292 0.02022 0.0200091 0.019799 0.0195897 0.0193811 0.0191734 0.0189665 0.0187604 0.018555 0.0183475 0.018135 0.0179175 0.0176949 0.0174674 0.0172347 0.0169971 0.0167544 0.0165023 0.0162363 0.0159565 0.0156628 0.0153553 0.0150339 0.0146987 0.0143496 0.0139856 0.0136054 0.0132092 0.0127968 0.0123683 0.0119238 0.0114631 0.0109863 0.0104983 0.010004 0.00950324 0.00899617 0.00848274 0.00796296 0.00743682 0.00690432 0.00637563 0.00586089 0.00536012 0.0048733 0.00440044 0.00394154 0.0034966 0.00306562 0.00265741 0.00228081 0.00193581 0.00162241 0.00134061 0.00109041 0.000871804 0.000684803 0.000524303 0.000385202 0.000267501 0.000171201 9.63005e-05 4.28002e-05 1.07001e-05 0 0 2.48169e-05 9.92675e-05 0.000223352 0.00039707 0.000620422 0.000893408 0.00121603 0.00158828 0.00201508 0.00250135 0.00304708 0.00365227 0.00431693 0.00504105 0.00582463 0.00666768 0.0075468 0.00843862 0.00934314 0.0102604 0.0111903 0.0121329 0.0130882 0.0140562 0.0150148 0.0159418 0.0168374 0.0177015 0.0185341 0.0193351 0.0201047 0.0208428 0.0215403 0.0221882 0.0227866 0.0233355 0.0238348 0.0242845 0.0246846 0.0250352 0.0253396 0.0256012 0.0258198 0.0259957 0.0261286 0.0262187 0.026266 0.0262704 0.0262418 0.0261901 0.0261153 0.0260174 0.0258965 0.0257524 0.0255852 0.0253949 0.0251905 0.0249807 0.0247657 0.0245454 0.0243198 0.024089 0.0238528 0.0236114 0.0233676 0.0231241 0.0228811 0.0226385 0.0223963 0.0221545 0.0219131 0.0216721 0.0214284 0.0211785 0.0209226 0.0206607 0.0203927 0.0201186 0.0198385 0.0195523 0.0192551 0.018942 0.018613 0.0182681 0.0179072 0.0175304 0.0171377 0.016729 0.0163032 0.0158591 0.0153966 0.0149157 0.0144164 0.0138988 0.0133628 0.0128084 0.0122413 0.0116669 0.0110853 0.0104965 0.00990046 0.00929721 0.00868673 0.00806904 0.00745568 0.0068582 0.0062766 0.0057109 0.00516107 0.00462713 0.00410908 0.0036069 0.00313083 0.00269107 0.00228761 0.00192047 0.00158964 0.00129511 0.0010369 0.000814994 0.00062398 0.000458434 0.000318357 0.000203749 0.000114609 5.09371e-05 1.27343e-05 0 0 2.89815e-05 0.000115926 0.000260833 0.000463704 0.000724537 0.00104333 0.00142009 0.00185481 0.00235226 0.0029172 0.00354964 0.00424956 0.00501697 0.00585188 0.00675428 0.00772416 0.00873482 0.00975953 0.0107983 0.0118511 0.0129179 0.0139988 0.0150938 0.0162028 0.0173009 0.0183631 0.0193895 0.02038 0.0213347 0.0222535 0.0231365 0.0239836 0.0247846 0.0255292 0.0262176 0.0268495 0.0274252 0.0279444 0.0284074 0.028814 0.0291679 0.0294729 0.0297291 0.0299363 0.0300946 0.0302039 0.0302644 0.0302759 0.0302496 0.0301966 0.0301169 0.0300105 0.0298774 0.0297176 0.0295311 0.0293178 0.029088 0.0288515 0.0286084 0.0283588 0.0281025 0.0278397 0.0275703 0.0272942 0.0270149 0.0267355 0.026456 0.0261765 0.0258969 0.0256172 0.0253375 0.0250577 0.0247743 0.0244837 0.0241859 0.0238809 0.0235687 0.0232494 0.0229228 0.022589 0.0222426 0.021878 0.0214953 0.0210944 0.0206754 0.0202382 0.0197829 0.0193094 0.0188165 0.0183028 0.0177683 0.0172131 0.0166371 0.0160403 0.0154228 0.0147845 0.0141317 0.0134708 0.0128018 0.0121246 0.0114393 0.0107459 0.0100444 0.00933467 0.00862987 0.007943 0.00727405 0.00662302 0.00598991 0.00537473 0.00477747 0.00419813 0.00364843 0.00314008 0.00267308 0.00224743 0.00186312 0.00152017 0.00121857 0.000958315 0.00073371 0.000539052 0.000374342 0.000239579 0.000134763 5.98947e-05 1.49737e-05 0 0 3.34754e-05 0.000133902 0.000301278 0.000535606 0.000836885 0.00120511 0.00164029 0.00214242 0.002716 0.00336551 0.00409095 0.00489234 0.00576965 0.00672291 0.0077521 0.00885722 0.010008 0.0111742 0.0123558 0.0135528 0.0147652 0.015993 0.0172362 0.0184948 0.0197409 0.0209466 0.0221118 0.0232366 0.0243209 0.0253648 0.0263683 0.0273313 0.0282424 0.02909 0.0298742 0.0305949 0.0312521 0.0318459 0.0323762 0.0328431 0.0332505 0.0336027 0.0338995 0.0341411 0.0343273 0.0344582 0.0345339 0.0345542 0.0345315 0.0344783 0.0343946 0.0342802 0.0341353 0.0339598 0.0337537 0.0335171 0.0332611 0.032997 0.0327249 0.0324447 0.0321564 0.03186 0.0315555 0.031243 0.030926 0.0306084 0.0302902 0.0299713 0.0296517 0.0293314 0.0290105 0.0286889 0.0283627 0.0280281 0.0276851 0.0273336 0.0269737 0.0266053 0.0262285 0.0258432 0.0254435 0.0250232 0.0245825 0.0241213 0.0236396 0.0231374 0.0226147 0.0220715 0.0215064 0.0209181 0.0203065 0.0196716 0.0190135 0.0183321 0.0176274 0.0168995 0.0161554 0.0154022 0.0146399 0.0138685 0.0130881 0.0122986 0.0115 0.0106923 0.00989008 0.0091079 0.00834577 0.00760368 0.00688164 0.00617963 0.00549766 0.00483573 0.00420716 0.00362527 0.00309004 0.0026015 0.00215962 0.00176443 0.0014159 0.00111405 0.000852946 0.000626654 0.000435176 0.000278513 0.000156663 6.96282e-05 1.74071e-05 0 0 3.8266e-05 0.000153064 0.000344394 0.000612255 0.000956649 0.00137757 0.00187503 0.00244902 0.00310364 0.00384297 0.00466701 0.00557578 0.00656926 0.00764746 0.00881037 0.010058 0.0113564 0.0126714 0.0140032 0.0153517 0.0167169 0.0180989 0.0194975 0.0209129 0.0223141 0.02367 0.0249807 0.0262463 0.0274666 0.0286418 0.0297718 0.0308565 0.0318833 0.0328393 0.0337244 0.0345387 0.0352823 0.035955 0.0365569 0.037088 0.0375527 0.0379555 0.0382963 0.0385752 0.0387921 0.0389471 0.0390402 0.0390713 0.0390541 0.0390022 0.0389156 0.0387944 0.0386385 0.0384479 0.0382227 0.0379628 0.0376807 0.0373887 0.0370871 0.0367756 0.0364544 0.0361234 0.0357826 0.0354321 0.035076 0.0347184 0.0343594 0.0339989 0.0336371 0.0332738 0.032909 0.0325428 0.032171 0.0317894 0.031398 0.0309967 0.0305856 0.0301647 0.0297339 0.0292934 0.0288364 0.0283566 0.0278538 0.027328 0.0267794 0.0262078 0.0256133 0.0249959 0.0243541 0.0236865 0.0229931 0.0222738 0.0215287 0.0207578 0.0199611 0.0191385 0.018298 0.0174475 0.0165869 0.0157162 0.0148355 0.0139447 0.0130439 0.012133 0.0112282 0.0103455 0.00948513 0.00864692 0.00783092 0.00703712 0.00626552 0.00551613 0.00480396 0.00414403 0.00353634 0.00298089 0.00247768 0.00202671 0.00162798 0.00128149 0.000981138 0.000720836 0.000500581 0.000320372 0.000180209 8.00929e-05 2.00232e-05 0 0 4.33532e-05 0.000173413 0.000390179 0.000693652 0.00108383 0.00156072 0.00212431 0.00277461 0.00351518 0.00434958 0.00527782 0.00629989 0.0074158 0.00862554 0.00992911 0.0113265 0.0127798 0.0142512 0.0157405 0.0172478 0.0187731 0.0203164 0.0218777 0.0234571 0.0250203 0.0265334 0.0279964 0.0294092 0.0307719 0.0320845 0.0333469 0.0345592 0.0357073 0.0367769 0.0377682 0.0386811 0.0395156 0.0402717 0.0409494 0.0415487 0.0420744 0.0425313 0.0429193 0.0432386 0.043489 0.0436705 0.0437833 0.0438272 0.0438172 0.0437682 0.0436801 0.0435531 0.0433871 0.0431821 0.0429381 0.042655 0.0423467 0.0420267 0.041695 0.0413516 0.0409966 0.04063 0.0402516 0.0398616 0.0394646 0.0390653 0.0386636 0.0382595 0.037853 0.0374442 0.0370331 0.0366196 0.0361992 0.0357675 0.0353245 0.0348702 0.0344045 0.0339275 0.0334392 0.0329396 0.0324215 0.0318781 0.0313091 0.0307148 0.0300949 0.0294497 0.0287789 0.0280828 0.0273597 0.0266081 0.0258281 0.0250197 0.0241828 0.0233175 0.0224238 0.0215016 0.0205597 0.0196067 0.0186427 0.0176676 0.0166815 0.0156843 0.014676 0.0136567 0.0126441 0.0116559 0.0106921 0.00975272 0.00883776 0.0079472 0.00708106 0.00623933 0.00543883 0.00469638 0.00401197 0.00338561 0.0028173 0.00230703 0.0018548 0.00146062 0.00111829 0.0008216 0.000570556 0.000365156 0.0002054 9.12889e-05 2.28222e-05 0 0 4.87372e-05 0.000194949 0.000438634 0.000779795 0.00121843 0.00175454 0.00238812 0.00311918 0.00395062 0.00488534 0.00592336 0.00706467 0.00830926 0.00965714 0.0111083 0.0126628 0.0142785 0.0159135 0.0175677 0.0192411 0.0209338 0.0226457 0.0243769 0.0261273 0.0278596 0.0295368 0.0311587 0.0327253 0.0342367 0.0356929 0.0370938 0.0384394 0.0397143 0.0409031 0.0420056 0.0430219 0.043952 0.044796 0.0455537 0.0462252 0.0468156 0.0473301 0.0477687 0.0481312 0.0484178 0.0486285 0.0487632 0.0488219 0.0488209 0.0487763 0.0486881 0.0485564 0.0483811 0.0481622 0.0478998 0.0475938 0.0472591 0.0469107 0.0465486 0.0461727 0.045783 0.0453796 0.0449625 0.0445316 0.0440921 0.0436491 0.0432027 0.0427529 0.0422996 0.0418429 0.0413827 0.0409191 0.0404472 0.0399624 0.0394647 0.038954 0.0384304 0.0378938 0.0373443 0.0367818 0.0361988 0.0355877 0.0349486 0.0342814 0.0335861 0.0328628 0.0321115 0.031332 0.030523 0.0296829 0.0288116 0.0279093 0.0269758 0.0260112 0.0250155 0.0239887 0.0229404 0.0218799 0.0208073 0.0197227 0.018626 0.0175173 0.0163964 0.0152635 0.0141379 0.013039 0.0119667 0.0109211 0.00990215 0.00890988 0.00794427 0.00700534 0.00611178 0.00528231 0.00451694 0.00381566 0.00317847 0.00260537 0.00209637 0.00165146 0.0012644 0.000928945 0.000645101 0.000412864 0.000232236 0.000103216 2.5804e-05 0 0 5.44178e-05 0.000217671 0.00048976 0.000870684 0.00136044 0.00195904 0.00266647 0.00348274 0.00440996 0.00545026 0.00660365 0.00787011 0.00924965 0.0107423 0.012348 0.0140667 0.0158523 0.0176583 0.0194847 0.0213316 0.0231989 0.0250866 0.0269949 0.0289235 0.0308321 0.0326802 0.0344677 0.0361946 0.0378611 0.0394669 0.0410123 0.0424971 0.0439045 0.0452176 0.0464366 0.0475612 0.0485917 0.0495279 0.0503698 0.0511175 0.0517764 0.052352 0.0528442 0.0532531 0.0535787 0.053821 0.0539799 0.0540554 0.0540651 0.0540265 0.0539395 0.0538041 0.0536204 0.0533883 0.0531079 0.0527791 0.0524181 0.052041 0.0516479 0.0512388 0.0508136 0.0503724 0.0499152 0.0494419 0.0489583 0.04847 0.0479769 0.0474792 0.0469768 0.0464697 0.0459578 0.0454413 0.0449151 0.0443742 0.0438186 0.0432483 0.0426633 0.0420635 0.0414491 0.04082 0.0401681 0.0394855 0.0387721 0.038028 0.037253 0.0364473 0.0356109 0.0347437 0.0338442 0.0329108 0.0319436 0.0309425 0.0299076 0.0288389 0.0277363 0.0265999 0.02544 0.024267 0.0230809 0.0218816 0.0206692 0.0194437 0.0182051 0.0169534 0.0157096 0.0144948 0.0133089 0.012152 0.0110241 0.00992515 0.00885516 0.00781414 0.00682279 0.00590182 0.00505123 0.00427103 0.0035612 0.00292175 0.00235268 0.00185399 0.00141946 0.00104287 0.000724216 0.000463498 0.000260718 0.000115875 2.89686e-05 0 0 6.03951e-05 0.00024158 0.000543556 0.000966321 0.00150988 0.00217422 0.00295936 0.00386528 0.00489321 0.00604434 0.00731868 0.00871622 0.010237 0.0118809 0.0136481 0.0155385 0.0175012 0.0194856 0.0214916 0.0235192 0.0255685 0.0276393 0.0297317 0.0318458 0.0339377 0.0359635 0.0379233 0.0398171 0.0416449 0.0434067 0.0451025 0.0467322 0.0482777 0.0497207 0.0510611 0.0522991 0.0534345 0.0544674 0.0553977 0.0562256 0.0569567 0.0575969 0.0581461 0.0586044 0.0589717 0.059248 0.059