<?xml version="1.0"?> 
<VTKFile type="StructuredGrid" version="0.1"> 
<StructuredGrid WholeExtent="0 128 0 128 0 0"> 
<Piece Extent="0 128 0 128 0 0"> 
<PointData>
<DataArray type="Float32" Name="u" format="ascii" NumberOfComponents="1"> 
0 0 0 0 0 0 0 0 0 0 0 0 0 0 0 0 0 0 0 0 0 0 0 0 0 0 0 0 0 0 0 0 0 0 0 0 0 0 0 0 0 0 0 0 0 0 0 0 0 0 0 0 0 0 0 0 0 0 0 0 0 0 0 0 0 0 0 0 0 0 0 0 0 0 0 0 0 0 0 0 0 0 0 0 0 0 0 0 0 0 0 0 0 0 0 0 0 0 0 0 0 0 0 0 0 0 0 0 0 0 0 0 0 0 0 0 0 0 0 0 0 0 0 0 0 0 0 0 0 0 5.23016e-07 2.09206e-06 4.70714e-06 8.36825e-06 1.30754e-05 1.88286e-05 2.56278e-05 3.3473e-05 4.25196e-05 5.29227e-05 6.46824e-05 7.77987e-05 9.22716e-05 0.000108101 0.000125287 0.00014383 0.000163232 0.000182999 0.000203128 0.000223621 0.000244477 0.000265697 0.00028728 0.000309226 0.000331052 0.000352274 0.000372892 0.000392906 0.000412317 0.000431123 0.000449325 0.000466924 0.000483666 0.000499302 0.00051383 0.000527251 0.000539565 0.000550771 0.000560871 0.000569863 0.000577711 0.000584379 0.000589866 0.000594173 0.000597299 0.000599245 0.00060001 0.000599595 0.000598116 0.000595693 0.000592324 0.000588011 0.000582752 0.000576547 0.000569398 0.000561303 0.000552458 0.000543055 0.000533096 0.00052258 0.000511508 0.000499879 0.000487693 0.00047495 0.000461849 0.000448587 0.000435165 0.000421583 0.00040784 0.000393937 0.000379874 0.00036565 0.000351418 0.00033733 0.000323387 0.000309588 0.000295934 0.000282424 0.000269058 0.000255837 0.000242848 0.000230177 0.000217825 0.000205792 0.000194078 0.000182682 0.000171606 0.000160848 0.000150439 0.000140406 0.000130749 0.00012147 0.000112567 0.000104041 9.58924e-05 8.81202e-05 8.07174e-05 7.36769e-05 6.69985e-05 6.06823e-05 5.47283e-05 4.91364e-05 4.39068e-05 3.90393e-05 3.45111e-05 3.02992e-05 2.64035e-05 2.28243e-05 1.95613e-05 1.66146e-05 1.39842e-05 1.16702e-05 9.62523e-06 7.80216e-06 6.20097e-06 4.82167e-06 3.66425e-06 2.72872e-06 2.01507e-06 1.5233e-06 1.16628e-06 8.56857e-07 5.95039e-07 3.80825e-07 2.14214e-07 9.52063e-08 2.38016e-08 0 0 2.09206e-06 8.36825e-06 1.88286e-05 3.3473e-05 5.23016e-05 7.53143e-05 0.000102511 0.000133892 0.000170078 0.000211691 0.00025873 0.000311195 0.000369087 0.000432404 0.000501149 0.000575319 0.00065293 0.000731994 0.000812512 0.000894483 0.000977908 0.00106279 0.00114912 0.0012369 0.00132421 0.0014091 0.00149157 0.00157163 0.00164927 0.00172449 0.0017973 0.00186769 0.00193466 0.00199721 0.00205532 0.002109 0.00215826 0.00220309 0.00224348 0.00227945 0.00231084 0.00233752 0.00235946 0.00237669 0.0023892 0.00239698 0.00240004 0.00239838 0.00239247 0.00238277 0.0023693 0.00235204 0.00233101 0.00230619 0.00227759 0.00224521 0.00220983 0.00217222 0.00213238 0.00209032 0.00204603 0.00199952 0.00195077 0.0018998 0.0018474 0.00179435 0.00174066 0.00168633 0.00163136 0.00157575 0.00151949 0.0014626 0.00140567 0.00134932 0.00129355 0.00123835 0.00118373 0.00112969 0.00107623 0.00102335 0.00097139 0.000920707 0.0008713 0.000823168 0.000776311 0.00073073 0.000686424 0.000643394 0.000601754 0.000561622 0.000522997 0.00048588 0.000450269 0.000416166 0.00038357 0.000352481 0.00032287 0.000294708 0.000267994 0.000242729 0.000218913 0.000196546 0.000175627 0.000156157 0.000138044 0.000121197 0.000105614 9.1297e-05 7.82451e-05 6.64584e-05 5.59369e-05 4.66807e-05 3.85009e-05 3.12086e-05 2.48039e-05 1.92867e-05 1.4657e-05 1.09149e-05 8.06027e-06 6.0932e-06 4.66511e-06 3.42743e-06 2.38016e-06 1.5233e-06 8.56857e-07 3.80825e-07 9.52063e-08 0 0 4.70714e-06 1.88286e-05 4.23643e-05 7.53143e-05 0.000117679 0.000169457 0.00023065 0.000301257 0.000382676 0.000476304 0.000582142 0.000700189 0.000830445 0.00097291 0.00112758 0.00129447 0.00146909 0.00164699 0.00182815 0.00201259 0.00220029 0.00239127 0.00258552 0.00278303 0.00297947 0.00317047 0.00335603 0.00353616 0.00371085 0.00388011 0.00404393 0.00420231 0.004353 0.00449372 0.00462447 0.00474526 0.00485608 0.00495694 0.00504784 0.00512877 0.0051994 0.00525941 0.0053088 0.00534756 0.00537569 0.0053932 0.00540009 0.00539635 0.00538305 0.00536124 0.00533092 0.00529209 0.00524476 0.00518893 0.00512458 0.00505173 0.00497212 0.0048875 0.00479787 0.00470322 0.00460357 0.00449891 0.00438924 0.00427455 0.00415664 0.00403729 0.00391649 0.00379425 0.00367056 0.00354543 0.00341886 0.00329085 0.00316276 0.00303597 0.00291048 0.00278629 0.0026634 0.00254181 0.00242152 0.00230253 0.00218563 0.00207159 0.00196042 0.00185213 0.0017467 0.00164414 0.00154445 0.00144764 0.00135395 0.00126365 0.00117674 0.00109323 0.00101311 0.000936373 0.000863032 0.000793082 0.000726457 0.000663092 0.000602986 0.000546141 0.000492554 0.000442228 0.000395161 0.000351354 0.0003106 0.000272692 0.000237632 0.000205418 0.000176051 0.000149531 0.000125858 0.000105032 8.66271e-05 7.02194e-05 5.58088e-05 4.3395e-05 3.29783e-05 2.45585e-05 1.81356e-05 1.37097e-05 1.04965e-05 7.71171e-06 5.35535e-06 3.42743e-06 1.92793e-06 8.56857e-07 2.14214e-07 0 0 8.36825e-06 3.3473e-05 7.53143e-05 0.000133892 0.000209206 0.000301257 0.000410044 0.000535568 0.000680313 0.000846763 0.00103492 0.00124478 0.00147635 0.00172962 0.0020046 0.00230128 0.00261172 0.00292798 0.00325005 0.00357793 0.00391163 0.00425115 0.00459647 0.00494761 0.00529683 0.00563639 0.00596628 0.0062865 0.00659707 0.00689797 0.0071892 0.00747078 0.00773866 0.00798883 0.00822128 0.00843602 0.00863304 0.00881234 0.00897393 0.00911781 0.00924338 0.00935006 0.00943786 0.00950677 0.00955678 0.00958792 0.00960016 0.00959351 0.00956986 0.00953109 0.00947719 0.00940817 0.00932402 0.00922476 0.00911037 0.00898085 0.00883932 0.00868888 0.00852954 0.00836129 0.00818413 0.00799806 0.00780309 0.0075992 0.00738958 0.0071774 0.00696265 0.00674533 0.00652544 0.00630299 0.00607798 0.00585039 0.00562268 0.00539728 0.00517419 0.00495341 0.00473494 0.00451878 0.00430493 0.00409339 0.00388556 0.00368283 0.0034852 0.00329267 0.00310524 0.00292292 0.0027457 0.00257357 0.00240702 0.00224649 0.00209199 0.00194352 0.00180108 0.00166466 0.00153428 0.00140992 0.00129148 0.00117883 0.00107198 0.000970917 0.000875652 0.000786183 0.000702508 0.000624629 0.000552177 0.000484786 0.000422457 0.000365188 0.00031298 0.000265834 0.000223748 0.000186723 0.000154004 0.000124835 9.92156e-05 7.71467e-05 5.86281e-05 4.36595e-05 3.22411e-05 2.43728e-05 1.86604e-05 1.37097e-05 9.52063e-06 6.0932e-06 3.42743e-06 1.5233e-06 3.80825e-07 0 0 1.30754e-05 5.23016e-05 0.000117679 0.000209206 0.000326885 0.000470714 0.000640694 0.000836825 0.00106299 0.00132307 0.00161706 0.00194497 0.00230679 0.00270253 0.00313218 0.00359575 0.00408081 0.00457496 0.0050782 0.00559052 0.00611192 0.00664241 0.00718199 0.00773065 0.0082763 0.00880685 0.00932231 0.00982266 0.0103079 0.0107781 0.0112331 0.0116731 0.0120917 0.0124825 0.0128457 0.0131813 0.0134891 0.0137693 0.0140218 0.0142466 0.0144428 0.0146095 0.0147467 0.0148543 0.0149325 0.0149811 0.0150002 0.0149899 0.0149529 0.0148923 0.0148081 0.0147003 0.0145688 0.0144137 0.0142349 0.0140326 0.0138114 0.0135764 0.0133274 0.0130645 0.0127877 0.012497 0.0121923 0.0118738 0.0115462 0.0112147 0.0108791 0.0105396 0.010196 0.00984843 0.00949684 0.00914124 0.00878544 0.00843325 0.00808467 0.0077397 0.00739834 0.00706059 0.00672645 0.00639593 0.00607119 0.00575442 0.00544562 0.0051448 0.00485195 0.00456706 0.00429015 0.00402121 0.00376096 0.00351014 0.00326873 0.00303675 0.00281418 0.00260104 0.00239731 0.002203 0.00201794 0.00184192 0.00167496 0.00151706 0.00136821 0.00122841 0.00109767 0.000975982 0.000862777 0.000757479 0.000660089 0.000570606 0.000489032 0.000415365 0.000349606 0.000291755 0.000240631 0.000195054 0.000155024 0.000120542 9.16063e-05 6.8218e-05 5.03767e-05 3.80825e-05 2.91569e-05 2.14214e-05 1.4876e-05 9.52063e-06 5.35535e-06 2.38016e-06 5.95039e-07 0 0 1.88286e-05 7.53143e-05 0.000169457 0.000301257 0.000470714 0.000677829 0.0009226 0.00120503 0.0015307 0.00190522 0.00232857 0.00280075 0.00332178 0.00389164 0.00451034 0.00517787 0.00587637 0.00658795 0.00731261 0.00805035 0.00880117 0.00956508 0.0103421 0.0111321 0.0119179 0.0126819 0.0134241 0.0141446 0.0148434 0.0155204 0.0161757 0.0168092 0.017412 0.0179749 0.0184979 0.018981 0.0194243 0.0198278 0.0201913 0.0205151 0.0207976 0.0210376 0.0212352 0.0213902 0.0215028 0.0215728 0.0216004 0.0215854 0.0215322 0.0214449 0.0213237 0.0211684 0.0209791 0.0207557 0.0204983 0.0202069 0.0198885 0.01955 0.0191915 0.0188129 0.0184143 0.0179956 0.0175569 0.0170982 0.0166266 0.0161491 0.015666 0.015177 0.0146823 0.0141817 0.0136754 0.0131634 0.012651 0.0121439 0.0116419 0.0111452 0.0106536 0.0101673 0.00968609 0.00921013 0.00874251 0.00828637 0.0078417 0.00740851 0.0069868 0.00657657 0.00617782 0.00579054 0.00541579 0.0050546 0.00470698 0.00437292 0.00405242 0.00374549 0.00345213 0.00317233 0.00290583 0.00265237 0.00241195 0.00218456 0.00197022 0.00176891 0.00158064 0.00140541 0.0012424 0.00109077 0.000950528 0.000821673 0.000704206 0.000598125 0.000503432 0.000420127 0.000346508 0.000280878 0.000223235 0.00017358 0.000131913 9.82339e-05 7.25424e-05 5.48388e-05 4.1986e-05 3.08468e-05 2.14214e-05 1.37097e-05 7.71171e-06 3.42743e-06 8.56857e-07 0 0 2.56278e-05 0.000102511 0.00023065 0.000410044 0.000640694 0.0009226 0.00125576 0.00164018 0.00208346 0.00259321 0.00316944 0.00381214 0.00452131 0.00529695 0.00613907 0.00704766 0.00799839 0.00896693 0.00995327 0.0109574 0.0119794 0.0130191 0.0140767 0.0151521 0.0162215 0.0172614 0.0182717 0.0192524 0.0202035 0.021125 0.0220169 0.0228793 0.0236996 0.0244658 0.0251777 0.0258353 0.0264387 0.0269878 0.0274827 0.0279233 0.0283078 0.0286346 0.0289034 0.0291145 0.0292677 0.029363 0.0294005 0.0293801 0.0293077 0.029189 0.0290239 0.0288125 0.0285548 0.0282508 0.0279005 0.0275039 0.0270704 0.0266097 0.0261217 0.0256064 0.0250639 0.0244941 0.0238969 0.0232726 0.0226306 0.0219808 0.0213231 0.0206576 0.0199842 0.0193029 0.0186138 0.0179168 0.0172195 0.0165292 0.015846 0.0151698 0.0145008 0.0138388 0.0131839 0.012536 0.0118995 0.0112787 0.0106734 0.0100838 0.00950981 0.00895144 0.00840869 0.00788157 0.00737149 0.00687987 0.00640672 0.00595203 0.0055158 0.00509803 0.00469873 0.00431789 0.00395515 0.00361017 0.00328293 0.00297343 0.00268169 0.00240769 0.00215143 0.00191293 0.00169104 0.00148466 0.00129377 0.00111839 0.000958502 0.000814115 0.000685227 0.000571839 0.000471636 0.000382306 0.000303848 0.000236262 0.000179548 0.000133707 9.87383e-05 7.46417e-05 5.71476e-05 4.1986e-05 2.91569e-05 1.86604e-05 1.04965e-05 4.66511e-06 1.16628e-06 0 0 3.3473e-05 0.000133892 0.000301257 0.000535568 0.000836825 0.00120503 0.00164018 0.00214227 0.00272125 0.00338705 0.00413967 0.00497912 0.00590538 0.00691847 0.00801838 0.00920511 0.0104469 0.0117119 0.0130002 0.0143117 0.0156465 0.0170046 0.0183859 0.0197905 0.0211873 0.0225455 0.0238651 0.025146 0.0263883 0.0275919 0.0287568 0.0298831 0.0309546 0.0319553 0.0328851 0.0337441 0.0345321 0.0352494 0.0358957 0.0364712 0.0369735 0.0374002 0.0377514 0.0380271 0.0382271 0.0383517 0.0384006 0.0383741 0.0382794 0.0381244 0.0379088 0.0376327 0.0372961 0.036899 0.0364415 0.0359234 0.0353573 0.0347555 0.0341182 0.0334451 0.0327365 0.0319922 0.0312123 0.0303968 0.0295583 0.0287096 0.0278506 0.0269813 0.0261018 0.025212 0.0243119 0.0234016 0.0224907 0.0215891 0.0206968 0.0198136 0.0189398 0.0180751 0.0172197 0.0163736 0.0155422 0.0147313 0.0139408 0.0131707 0.012421 0.0116917 0.0109828 0.0102943 0.00962807 0.00898596 0.00836796 0.00777407 0.00720431 0.00665865 0.00613712 0.00563969 0.00516592 0.00471532 0.0042879 0.00388367 0.00350261 0.00314473 0.00281003 0.00249852 0.00220871 0.00193915 0.00168983 0.00146075 0.00125192 0.00106333 0.000894991 0.000746892 0.000616015 0.000499338 0.000396862 0.000308587 0.000234512 0.000174638 0.000128964 9.74913e-05 7.46417e-05 5.48388e-05 3.80825e-05 2.43728e-05 1.37097e-05 6.0932e-06 1.5233e-06 0 0 4.25777e-05 0.000170311 0.000383199 0.000681242 0.00106444 0.0015328 0.00208631 0.00272497 0.00346097 0.00430648 0.00526151 0.00632605 0.0075001 0.00878367 0.0101768 0.0116793 0.0132513 0.0148524 0.0164828 0.0181423 0.0198311 0.021549 0.0232962 0.0250725 0.026839 0.0285567 0.0302254 0.0318454 0.0334164 0.0349386 0.036412 0.0378365 0.0391918 0.0404575 0.0416337 0.0427203 0.0437174 0.044625 0.045443 0.0461714 0.0468073 0.0473477 0.0477926 0.048142 0.0483958 0.0485542 0.048617 0.0485843 0.0484656 0.0482703 0.0479985 0.0476502 0.0472254 0.046724 0.0461461 0.0454917 0.0447765 0.0440161 0.0432106 0.04236 0.0414642 0.0405233 0.0395373 0.0385062 0.0374459 0.0363726 0.0352863 0.0341868 0.0330743 0.0319488 0.0308102 0.0296585 0.0285061 0.0273653 0.0262361 0.0251185 0.0240126 0.0229183 0.0218356 0.0207645 0.0197121 0.0186855 0.0176847 0.0167096 0.0157603 0.0148367 0.0139389 0.0130669 0.012223 0.0114096 0.0106267 0.00987431 0.00915237 0.00846092 0.00779995 0.00716948 0.0065689 0.00599764 0.0054557 0.00494307 0.00445976 0.00400577 0.00358109 0.00318573 0.00281783 0.00247552 0.00215881 0.0018677 0.00160219 0.00136227 0.00114796 0.000959237 0.000792315 0.00064339 0.000512462 0.000399531 0.000304597 0.00022766 0.00016872 0.000127777 9.78294e-05 7.18747e-05 4.9913e-05 3.19443e-05 1.79687e-05 7.98607e-06 1.99652e-06 0 0 5.31551e-05 0.00021262 0.000478396 0.000850481 0.00132888 0.00191358 0.0026046 0.00340192 0.00431949 0.00537124 0.00655717 0.00787728 0.00933157 0.01092 0.0126427 0.0144995 0.0164411 0.0184181 0.0204305 0.0224783 0.0245615 0.0266801 0.028834 0.0310234 0.0332004 0.0353172 0.0373739 0.0393704 0.0413068 0.043183 0.0449991 0.046755 0.0484258 0.0499864 0.0514368 0.052777 0.0540071 0.055127 0.0561368 0.0570363 0.057822 0.05849 0.0590404 0.0594732 0.0597883 0.0599858 0.0600657 0.0600279 0.0598842 0.059646 0.0593135 0.0588865 0.0583652 0.0577495 0.0570394 0.0562349 0.0553554 0.05442 0.0534288 0.0523818 0.051279 0.0501204 0.048906 0.0476358 0.0463295 0.0450069 0.043668 0.0423127 0.0409411 0.0395532 0.038149 0.0367284 0.0353067 0.0338991 0.0325057 0.0311264 0.0297613 0.0284102 0.0270733 0.0257505 0.0244507 0.0231824 0.0219458 0.0207409 0.0195676 0.018426 0.017316 0.0162377 0.0151939 0.0141877 0.0132191 0.012288 0.0113944 0.0105384 0.00971991 0.00893898 0.0081949 0.00748695 0.00681513 0.00617945 0.00557991 0.00501651 0.00448925 0.00399812 0.00354082 0.00311507 0.00272085 0.00235817 0.00202703 0.00172742 0.00145936 0.00122283 0.00101321 0.000825874 0.000660828 0.000518068 0.000397594 0.000299406 0.000223505 0.000169889 0.000130071 9.55627e-05 6.6363e-05 4.24723e-05 2.38907e-05 1.06181e-05 2.65452e-06 0 0 6.52053e-05 0.000260821 0.000586847 0.00104328 0.00163013 0.00234739 0.00319506 0.00417314 0.00529683 0.00658134 0.00802667 0.00963281 0.0113998 0.0133276 0.0154162 0.0176656 0.0200163 0.0224089 0.0248433 0.0273196 0.0298377 0.0323977 0.0349995 0.0376431 0.0402714 0.0428272 0.0453105 0.0477212 0.0500594 0.052325 0.0545182 0.0566388 0.0586567 0.060542 0.0622945 0.0639142 0.0654013 0.0667556 0.0679772 0.069066 0.0700175 0.0708272 0.0714949 0.0720207 0.0724046 0.0726467 0.0727468 0.072705 0.0725353 0.0722514 0.0718535 0.0713416 0.0707156 0.0699755 0.0691213 0.0681531 0.067094 0.0659672 0.0647728 0.0635107 0.062181 0.0607836 0.0593185 0.0577857 0.0562091 0.0546125 0.0529958 0.051359 0.0497021 0.0480253 0.0463283 0.0446113 0.0428926 0.0411907 0.0395056 0.0378373 0.0361857 0.0345509 0.0329329 0.0313317 0.0297579 0.0282221 0.0267244 0.0252647 0.0238431 0.0224595 0.021114 0.0198065 0.0185407 0.0173202 0.016145 0.015015 0.0139304 0.0128911 0.011897 0.0109482 0.0100439 0.00918323 0.0083662 0.00759281 0.00686307 0.00617696 0.0055345 0.00493567 0.0043777 0.00385779 0.00337595 0.00293216 0.00252644 0.00215879 0.00182919 0.00153766 0.00127869 0.00104679 0.000841962 0.000664199 0.000513504 0.000389877 0.000293318 0.000223828 0.000171368 0.000125903 8.74326e-05 5.59569e-05 3.14757e-05 1.39892e-05 3.49731e-06 0 0 7.87282e-05 0.000314913 0.000708554 0.00125965 0.00196821 0.00283422 0.00385768 0.00503861 0.00639297 0.00793677 0.00966999 0.0115926 0.0137047 0.0160062 0.0184972 0.0211776 0.0239769 0.0268248 0.0297213 0.0326663 0.0356598 0.0387019 0.0417925 0.0449317 0.0480522 0.0510867 0.0540351 0.0568976 0.0596741 0.0623646 0.0649691 0.0674877 0.0698846 0.0721243 0.0742067 0.0761319 0.0778999 0.0795107 0.0809642 0.0822604 0.0833939 0.0843591 0.085156 0.0857845 0.0862448 0.0865367 0.0866603 0.0866155 0.0864189 0.0860866 0.0856188 0.0850154 0.0842764 0.0834019 0.0823918 0.0812461 0.0799923 0.0786578 0.0772426 0.0757467 0.07417 0.0725127 0.0707747 0.068956 0.0670848 0.0651893 0.0632696 0.0613256 0.0593574 0.0573649 0.0553482 0.0533072 0.0512638 0.04924 0.0472358 0.0452511 0.043286 0.0413404 0.0394144 0.0375079 0.0356337 0.0338045 0.0320202 0.0302809 0.0285866 0.0269372 0.0253329 0.0237735 0.0222634 0.0208071 0.0194045 0.0180556 0.0167604 0.0155189 0.0143312 0.0131972 0.0121159 0.0110865 0.0101089 0.00918315 0.00830922 0.00748712 0.00671685 0.0059984 0.00532846 0.00470369 0.0041241 0.00358968 0.00310043 0.00265636 0.00225746 0.00190374 0.00158877 0.00130615 0.00105586 0.000837924 0.000652327 0.000499073 0.000378161 0.000289592 0.000221719 0.000162895 0.000113122 7.2398e-05 4.07239e-05 1.80995e-05 4.52487e-06 0 0 9.37239e-05 0.000374896 0.000843515 0.00149958 0.0023431 0.00337406 0.00459247 0.00599833 0.00760792 0.00943753 0.0114871 0.0137568 0.0162464 0.0189561 0.0218858 0.0250355 0.0283229 0.0316659 0.0350643 0.0385183 0.0420277 0.0455927 0.0492132 0.0528892 0.0565426 0.0600955 0.0635479 0.0668998 0.0701511 0.0733019 0.0763521 0.0793018 0.0821094 0.0847333 0.0871735 0.0894301 0.091503 0.0933922 0.0950977 0.0966196 0.0979512 0.0990859 0.100024 0.100765 0.101309 0.101656 0.101806 0.101759 0.101535 0.101152 0.100609 0.099908 0.0990478 0.0980288 0.0968509 0.0955141 0.0940504 0.0924917 0.0908381 0.0890896 0.0872462 0.0853079 0.0832747 0.0811465 0.0789564 0.0767374 0.0744895 0.0722126 0.0699069 0.0675722 0.0652086 0.0628161 0.0604204 0.0580471 0.0556963 0.0533679 0.0510621 0.0487787 0.0465177 0.0442792 0.0420782 0.0399296 0.0378334 0.0357896 0.0337982 0.0318592 0.0299727 0.0281385 0.026362 0.0246483 0.0229975 0.0214095 0.0198843 0.018422 0.0170225 0.0156858 0.0144109 0.0131968 0.0120433 0.0109505 0.00991838 0.00894699 0.0080363 0.00718631 0.0063931 0.00565277 0.00496531 0.00433072 0.003749 0.00322015 0.00274417 0.00232106 0.00194344 0.00160393 0.00130253 0.00103924 0.000814063 0.000626993 0.000478033 0.000367183 0.000281124 0.00020654 0.000143431 9.17957e-05 5.16351e-05 2.29489e-05 5.73723e-06 0 0 0.000110192 0.00044077 0.000991732 0.00176308 0.00275481 0.00396693 0.00539943 0.00705232 0.00894168 0.0110836 0.0134781 0.0161252 0.0190249 0.0221771 0.0255819 0.0292393 0.0330543 0.036932 0.0408725 0.0448756 0.0489415 0.0530701 0.0572614 0.0615155 0.0657428 0.0698539 0.0738488 0.0777276 0.0814902 0.0851367 0.088667 0.0920811 0.095331 0.098369 0.101195 0.103809 0.10621 0.1084 0.110378 0.112144 0.113689 0.115008 0.116098 0.116961 0.117596 0.118004 0.118184 0.118137 0.117884 0.117446 0.116825 0.116019 0.11503 0.113856 0.112499 0.110957 0.109268 0.107469 0.105559 0.10354 0.10141 0.0991691 0.0968184 0.0943573 0.0918241 0.0892568 0.0866554 0.08402 0.0813506 0.0786471 0.0759096 0.073138 0.0703622 0.0676119 0.064887 0.0621877 0.059514 0.0568657 0.0542429 0.0516456 0.0490913 0.0465974 0.0441638 0.0417907 0.0394779 0.0372254 0.0350334 0.0329017 0.0308365 0.028844 0.0269241 0.0250769 0.0233022 0.0216003 0.0199709 0.0184142 0.016929 0.015514 0.0141692 0.0128948 0.0116905 0.0105566 0.00949284 0.00849938 0.00757162 0.00670502 0.00589957 0.00515527 0.00447213 0.00385014 0.00328931 0.00278962 0.0023427 0.00194015 0.00158197 0.00126816 0.000998712 0.000773638 0.000592934 0.000456599 0.000349584 0.000256837 0.000178359 0.00011415 6.42093e-05 2.85375e-05 7.13437e-06 0 0 0.000128134 0.000512535 0.0011532 0.00205014 0.00320334 0.00461281 0.00627855 0.00820056 0.0103942 0.012875 0.0156429 0.0186979 0.0220401 0.0256693 0.0295856 0.033789 0.0381711 0.0426233 0.0471457 0.0517383 0.0564011 0.0611341 0.0659373 0.0708106 0.0756526 0.0803617 0.0849379 0.0893812 0.0936916 0.0978691 0.101914 0.105826 0.10955 0.113031 0.116271 0.119268 0.122022 0.124535 0.126805 0.128832 0.130608 0.132124 0.133379 0.134374 0.135108 0.135582 0.135795 0.135748 0.135465 0.134971 0.134265 0.133349 0.132222 0.130884 0.129335 0.127575 0.125646 0.12359 0.121407 0.119097 0.11666 0.114096 0.111406 0.108588 0.105688 0.102747 0.0997674 0.0967478 0.0936885 0.0905896 0.0874511 0.0842729 0.0810893 0.0779344 0.0748081 0.0717105 0.0686417 0.0656015 0.06259 0.0596072 0.0566731 0.053808 0.0510116 0.0482842 0.0456256 0.0430359 0.040515 0.038063 0.035687 0.0333941 0.0311843 0.0290577 0.0270141 0.0250537 0.0231765 0.0213824 0.01967 0.0180382 0.0164869 0.015016 0.0136257 0.0123158 0.0110865 0.00993762 0.00886402 0.00786045 0.00692689 0.00606335 0.00526984 0.00454635 0.00389288 0.00330943 0.00278656 0.0023148 0.00189417 0.00152466 0.00120627 0.000939008 0.000722864 0.000557843 0.000427098 0.000313786 0.000217907 0.000139461 7.84466e-05 3.48652e-05 8.71629e-06 0 0 0.000147548 0.000590191 0.00132793 0.00236076 0.00368869 0.00531172 0.00722984 0.00944306 0.0119656 0.0148118 0.0179816 0.021475 0.025292 0.0294326 0.0338968 0.0386847 0.0436732 0.0487397 0.0538841 0.0591064 0.0644066 0.0697847 0.0752407 0.0807746 0.0862721 0.0916189 0.096815 0.10186 0.106755 0.111499 0.116093 0.120535 0.124765 0.128721 0.132401 0.135807 0.138939 0.141796 0.144378 0.146686 0.148708 0.150435 0.151867 0.153003 0.153843 0.154388 0.154638 0.154592 0.154278 0.153725 0.152931 0.151898 0.150625 0.149112 0.14736 0.145367 0.143183 0.140853 0.13838 0.135761 0.132998 0.13009 0.127037 0.12384 0.120547 0.117209 0.113825 0.110396 0.106921 0.1034 0.0998332 0.0962209 0.0926017 0.0890146 0.0854594 0.0819363 0.0784452 0.074986 0.0715589 0.0681638 0.0648236 0.0615612 0.0583768 0.0552702 0.0522414 0.0492905 0.0464175 0.0436224 0.0409133 0.0382985 0.035778 0.0333519 0.03102 0.0287824 0.0266392 0.0245902 0.0226341 0.0207694 0.0189961 0.0173143 0.0157238 0.0142248 0.0128172 0.011501 0.0102703 0.00911905 0.00804726 0.00705496 0.00614212 0.00530877 0.00455489 0.00388049 0.003275 0.00272789 0.00223914 0.00180876 0.00143675 0.0011231 0.000867823 0.000670912 0.000513667 0.000377388 0.000262075 0.000167728 9.4347e-05 4.1932e-05 1.0483e-05 0 0 0.00016804 0.000672158 0.00151236 0.00268863 0.00420099 0.00604943 0.00823394 0.0107545 0.0136239 0.0168547 0.020447 0.0244008 0.028716 0.0333927 0.0384308 0.0438304 0.0494536 0.0551624 0.0609569 0.0668371 0.0728029 0.0788545 0.0849916 0.0912145 0.0973955 0.103407 0.10925 0.114923 0.120427 0.125762 0.130927 0.135923 0.14068 0.14513 0.149271 0.153104 0.156628 0.159845 0.162753 0.165353 0.167634 0.169582 0.171198 0.172482 0.173435 0.174055 0.174343 0.1743 0.173955 0.173341 0.172457 0.171303 0.169879 0.168186 0.166222 0.163989 0.161539 0.158926 0.156149 0.15321 0.150107 0.146841 0.143412 0.139819 0.136119 0.132366 0.128562 0.124705 0.120796 0.116836 0.112823 0.108757 0.104684 0.100646 0.096643 0.0926755 0.0887435 0.0848467 0.0809854 0.0771594 0.0733946 0.0697171 0.0661267 0.0626235 0.0592075 0.0558787 0.0526371 0.0494826 0.0464247 0.0434727 0.0406267 0.0378865 0.0352523 0.032724 0.0303017 0.0279852 0.0257731 0.0236638 0.0216573 0.0197536 0.0179527 0.0162546 0.0146592 0.0131667 0.0117702 0.010463 0.00924513 0.00811659 0.00707739 0.0061275 0.00526693 0.00449569 0.0038021 0.0031745 0.0026129 0.00211727 0.00168764 0.001324 0.00102635 0.000794681 0.000608428 0.000447008 0.000310422 0.00019867 0.000111752 4.96676e-05 1.24169e-05 0 0 0.000189214 0.000756857 0.00170293 0.00302743 0.00473035 0.00681171 0.00927149 0.0121097 0.0153372 0.0189646 0.0229922 0.0274197 0.0322474 0.037475 0.0431027 0.0491305 0.0554049 0.0617725 0.0682335 0.0747877 0.0814352 0.088176 0.0950101 0.101937 0.108817 0.115509 0.122012 0.128327 0.134453 0.140391 0.146141 0.151702 0.156998 0.161952 0.166563 0.170832 0.174759 0.178343 0.181585 0.184485 0.187029 0.189204 0.19101 0.192446 0.193514 0.194212 0.194542 0.194502 0.194128 0.193453 0.192477 0.191201 0.189625 0.187748 0.185571 0.183093 0.180373 0.177472 0.174388 0.171121 0.167673 0.164042 0.160229 0.156233 0.152117 0.147942 0.143709 0.139416 0.135065 0.130655 0.126186 0.121658 0.11712 0.112621 0.108161 0.103739 0.0993555 0.095011 0.0907051 0.0864379 0.0822383 0.0781353 0.0741289 0.0702192 0.0664061 0.0626896 0.0590697 0.0555465 0.0521304 0.0488321 0.0456515 0.0425887 0.0396436 0.0368163 0.0341068 0.0315149 0.0290392 0.0266778 0.0244308 0.0222982 0.0202799 0.0183761 0.0165866 0.0149115 0.0133433 0.0118744 0.0105049 0.00923478 0.00806403 0.00699263 0.00602061 0.00514795 0.00436191 0.00364974 0.00301145 0.00244702 0.00195647 0.00153978 0.00119697 0.000928026 0.00071052 0.000522015 0.00036251 0.000232007 0.000130504 5.80016e-05 1.45004e-05 0 0 0.000211072 0.000844286 0.00189964 0.00337714 0.00527679 0.00759857 0.0103425 0.0135086 0.0171054 0.0211416 0.0256171 0.0305319 0.0358861 0.0416797 0.0479126 0.0545848 0.0615271 0.0685701 0.0757138 0.0829583 0.0903034 0.0977493 0.105296 0.112943 0.120537 0.127923 0.135101 0.142071 0.148833 0.155388 0.161734 0.167873 0.173719 0.179187 0.184279 0.188994 0.193331 0.197292 0.200875 0.204081 0.206895 0.209302 0.211302 0.212895 0.214081 0.214861 0.215233 0.215199 0.214795 0.214059 0.212992 0.211593 0.209862 0.207799 0.205405 0.202679 0.199686 0.196491 0.193094 0.189496 0.185695 0.181693 0.177489 0.173083 0.168543 0.163938 0.159266 0.154529 0.149726 0.144858 0.139923 0.134923 0.129911 0.124941 0.120012 0.115126 0.110281 0.105479 0.100718 0.0959992 0.0913545 0.0868159 0.0823835 0.0780572 0.0738372 0.0697233 0.0657155 0.061814 0.0580304 0.0543766 0.0508526 0.0474584 0.0441939 0.0410593 0.0380544 0.0351793 0.0324322 0.0298112 0.0273165 0.0249479 0.0227055 0.0205894 0.0185994 0.0167355 0.0149896 0.0133533 0.0118266 0.0104095 0.00910205 0.00790418 0.00681592 0.00583727 0.00495443 0.00415361 0.0034348 0.002798 0.00224322 0.00177045 0.00137969 0.00107095 0.000819943 0.000602407 0.000418338 0.000267736 0.000150602 6.69341e-05 1.67335e-05 0 0 0.000233612 0.000934446 0.0021025 0.00373779 0.00584029 0.00841002 0.011447 0.0149511 0.0189286 0.0233855 0.0283217 0.0337373 0.0396323 0.0460066 0.0528603 0.0601934 0.0678202 0.075555 0.0833979 0.0913487 0.0994076 0.107574 0.115849 0.124232 0.132555 0.14065 0.148517 0.156157 0.163568 0.170751 0.177707 0.184434 0.190842 0.196836 0.202418 0.207588 0.212345 0.216689 0.220621 0.22414 0.22723 0.229875 0.232074 0.233828 0.235137 0.236 0.236417 0.236389 0.235957 0.235161 0.234001 0.232478 0.230591 0.22834 0.225726 0.222748 0.219477 0.215984 0.212269 0.208333 0.204174 0.199794 0.195192 0.190368 0.185396 0.180352 0.175235 0.170044 0.164781 0.159444 0.154035 0.148552 0.143056 0.137604 0.132198 0.126837 0.121521 0.11625 0.111024 0.105843 0.100743 0.0957588 0.0908903 0.0861376 0.0815007 0.0769796 0.0725745 0.0682851 0.0641247 0.0601063 0.0562299 0.0524956 0.0489032 0.0454529 0.0421446 0.0389783 0.0359521 0.0330642 0.0303144 0.0277029 0.0252295 0.0228944 0.0206975 0.0186388 0.0167092 0.0148997 0.0132102 0.0116408 0.0101914 0.00886213 0.00765286 0.00656364 0.00557966 0.00468609 0.00388294 0.00317021 0.00254789 0.00201599 0.00157451 0.00122344 0.000936696 0.000688185 0.000477906 0.00030586 0.000172046 7.6465e-05 1.91162e-05 0 0 0.000256834 0.00102734 0.00231151 0.00410935 0.00642086 0.00924604 0.0125849 0.0164374 0.0208068 0.0256964 0.031106 0.0370358 0.0434858 0.0504558 0.057946 0.0659564 0.0742843 0.0827274 0.0912857 0.0999591 0.108748 0.117651 0.12667 0.135804 0.144872 0.153691 0.162261 0.170583 0.178657 0.186482 0.194059 0.201387 0.208367 0.214898 0.220981 0.226615 0.2318 0.236536 0.240824 0.244663 0.248036 0.250924 0.253327 0.255246 0.25668 0.257629 0.258094 0.258074 0.257614 0.256758 0.255505 0.253856 0.251811 0.24937 0.246532 0.243299 0.239746 0.23595 0.231912 0.227632 0.22311 0.218345 0.213338 0.208088 0.202677 0.197185 0.191613 0.185961 0.180228 0.174414 0.16852 0.162545 0.156555 0.150612 0.144718 0.138872 0.133074 0.127325 0.121624 0.115971 0.110405 0.104964 0.0996494 0.0944602 0.0893967 0.0844588 0.0796465 0.0749598 0.0704132 0.0660211 0.0617834 0.0577002 0.0537715 0.0499972 0.0463773 0.042912 0.0395991 0.0364366 0.0334246 0.0305631 0.0278519 0.0252913 0.0228811 0.0206213 0.0185021 0.0165136 0.0146558 0.0129287 0.0113322 0.00986648 0.00853143 0.00732707 0.0062376 0.00524721 0.00435589 0.00356365 0.0028705 0.00227642 0.00178143 0.00138551 0.00106078 0.000779349 0.000541214 0.000346377 0.000194837 8.65943e-05 2.16486e-05 0 0 0.00028074 0.00112296 0.00252666 0.00449184 0.0070185 0.0101066 0.0137563 0.0179674 0.02274 0.0280743 0.0339701 0.0404276 0.0474467 0.0550274 0.0631697 0.0718736 0.0809194 0.0900873 0.0993773 0.108789 0.118324 0.12798 0.137759 0.147659 0.157486 0.167044 0.176332 0.185351 0.1941 0.20258 0.21079 0.218732 0.226295 0.233374 0.239967 0.246074 0.251696 0.256833 0.261485 0.265651 0.269312 0.272449 0.275061 0.277148 0.278711 0.27975 0.280264 0.280254 0.279766 0.27885 0.277503 0.275728 0.273523 0.270889 0.267825 0.264332 0.260493 0.25639 0.252024 0.247394 0.242502 0.237346 0.231926 0.226243 0.220385 0.214438 0.208403 0.202279 0.196068 0.189768 0.183379 0.176903 0.170408 0.163964 0.157572 0.151231 0.144941 0.138703 0.132516 0.126381 0.120338 0.114432 0.108661 0.103025 0.0975251 0.0921606 0.0869316 0.0818382 0.0768961 0.0721211 0.0675132 0.0630724 0.0587987 0.0546921 0.0507527 0.0469803 0.043373 0.0399286 0.0366471 0.0335284 0.0305727 0.0277799 0.02515 0.022683 0.0203682 0.018195 0.0161632 0.0142731 0.0125244 0.0109172 0.00945164 0.00812756 0.00692825 0.00583694 0.00485363 0.00397833 0.00321103 0.00255174 0.00200044 0.00155715 0.0011922 0.000875899 0.000608263 0.000389288 0.000218975 9.73221e-05 2.43305e-05 0 0 0.000305328 0.00122131 0.00274796 0.00488526 0.00763321 0.0109918 0.0149611 0.019541 0.0247282 0.0305192 0.0369139 0.0439126 0.051515 0.0597212 0.0685312 0.0779451 0.0877253 0.0976345 0.107673 0.11784 0.128136 0.13856 0.149114 0.159797 0.170399 0.18071 0.19073 0.200459 0.209897 0.219045 0.227901 0.236467 0.244626 0.252262 0.259376 0.265966 0.272034 0.27758 0.282602 0.287102 0.291058 0.294449 0.297274 0.299535 0.301231 0.302361 0.302927 0.3029