<?xml version="1.0"?> 
<VTKFile type="StructuredGrid" version="0.1"> 
<StructuredGrid WholeExtent="0 128 0 128 0 0"> 
<Piece Extent="0 128 0 128 0 0"> 
<PointData>
<DataArray type="Float32" Name="u" format="ascii" NumberOfComponents="1"> 
0 0 0 0 0 0 0 0 0 0 0 0 0 0 0 0 0 0 0 0 0 0 0 0 0 0 0 0 0 0 0 0 0 0 0 0 0 0 0 0 0 0 0 0 0 0 0 0 0 0 0 0 0 0 0 0 0 0 0 0 0 0 0 0 0 0 0 0 0 0 0 0 0 0 0 0 0 0 0 0 0 0 0 0 0 0 0 0 0 0 0 0 0 0 0 0 0 0 0 0 0 0 0 0 0 0 0 0 0 0 0 0 0 0 0 0 0 0 0 0 0 0 0 0 0 0 0 0 0 0 4.72603e-07 1.89041e-06 4.25343e-06 7.56164e-06 1.18151e-05 1.70137e-05 2.31575e-05 3.02466e-05 3.84205e-05 4.7819e-05 5.84421e-05 7.02898e-05 8.33621e-05 9.76589e-05 0.00011318 0.000129926 0.00014745 0.000165304 0.000183488 0.000202002 0.000220847 0.000240022 0.000259527 0.000279363 0.000299095 0.000318288 0.000336944 0.00035506 0.000372639 0.00038968 0.000406182 0.000422146 0.000437346 0.000451556 0.000464776 0.000477006 0.000488246 0.000498496 0.000507756 0.000516027 0.000523273 0.000529461 0.000534592 0.000538664 0.000541678 0.000543634 0.000544533 0.000544373 0.000543258 0.000541292 0.000538474 0.000534805 0.000530284 0.000524911 0.000518687 0.000511611 0.000503856 0.000495591 0.000486819 0.000477538 0.000467748 0.00045745 0.000446643 0.000435328 0.00042368 0.000411875 0.000399913 0.000387793 0.000375516 0.000363082 0.00035049 0.000337742 0.000324972 0.000312316 0.000299775 0.000287348 0.000275036 0.000262838 0.000250755 0.000238786 0.000227011 0.000215509 0.000204279 0.000193322 0.000182638 0.000172227 0.000162088 0.000152222 0.000142657 0.000133423 0.000124518 0.000115943 0.000107698 9.97821e-05 9.21966e-05 8.49409e-05 7.80124e-05 7.14084e-05 6.51288e-05 5.91737e-05 5.35431e-05 4.82369e-05 4.32552e-05 3.8598e-05 3.42496e-05 3.0194e-05 2.64315e-05 2.29618e-05 1.97852e-05 1.69015e-05 1.43107e-05 1.20129e-05 9.9694e-06 8.14158e-06 6.52943e-06 5.13296e-06 3.95216e-06 2.98703e-06 2.23757e-06 1.70379e-06 1.30446e-06 9.58382e-07 6.65543e-07 4.25947e-07 2.39595e-07 1.06487e-07 2.66217e-08 0 0 1.89041e-06 7.56164e-06 1.70137e-05 3.02466e-05 4.72603e-05 6.80548e-05 9.26301e-05 0.000120986 0.000153682 0.000191276 0.000233769 0.000281159 0.000333448 0.000390636 0.000452722 0.000519706 0.000589799 0.000661215 0.000733951 0.000808009 0.000883388 0.000960088 0.00103811 0.00111745 0.00119638 0.00127315 0.00134777 0.00142024 0.00149056 0.00155872 0.00162473 0.00168858 0.00174938 0.00180622 0.0018591 0.00190802 0.00195298 0.00199398 0.00203103 0.00206411 0.00209309 0.00211785 0.00213837 0.00215466 0.00216671 0.00217454 0.00217813 0.00217749 0.00217303 0.00216517 0.0021539 0.00213922 0.00212114 0.00209964 0.00207475 0.00204645 0.00201542 0.00198237 0.00194728 0.00191015 0.00187099 0.0018298 0.00178657 0.00174131 0.00169472 0.0016475 0.00159965 0.00155117 0.00150206 0.00145233 0.00140196 0.00135097 0.00129989 0.00124926 0.0011991 0.00114939 0.00110014 0.00105135 0.00100302 0.000955145 0.000908044 0.000862035 0.000817116 0.000773289 0.000730552 0.000688907 0.000648352 0.000608888 0.00057063 0.000533691 0.000498071 0.000463771 0.00043079 0.000399129 0.000368786 0.000339764 0.00031205 0.000285633 0.000260515 0.000236695 0.000214172 0.000192948 0.000173021 0.000154392 0.000136998 0.000120776 0.000105726 9.18473e-05 7.91407e-05 6.76058e-05 5.72428e-05 4.80516e-05 3.98776e-05 3.25663e-05 2.61177e-05 2.05318e-05 1.58086e-05 1.19481e-05 8.95029e-06 6.81516e-06 5.21786e-06 3.83353e-06 2.66217e-06 1.70379e-06 9.58382e-07 4.25947e-07 1.06487e-07 0 0 4.25343e-06 1.70137e-05 3.82808e-05 6.80548e-05 0.000106336 0.000153123 0.000208418 0.000272219 0.000345785 0.000430371 0.000525979 0.000632608 0.000750259 0.000878931 0.00101862 0.00116934 0.00132705 0.00148773 0.00165139 0.00181802 0.00198762 0.0021602 0.00233575 0.00251427 0.00269185 0.00286459 0.00303249 0.00319554 0.00335375 0.00350712 0.00365564 0.00379931 0.00393611 0.004064 0.00418298 0.00429305 0.00439421 0.00448646 0.00456981 0.00464424 0.00470946 0.00476515 0.00481133 0.00484798 0.0048751 0.00489271 0.00490079 0.00489936 0.00488932 0.00487163 0.00484627 0.00481324 0.00477255 0.0047242 0.00466818 0.0046045 0.0045347 0.00446032 0.00438137 0.00429784 0.00420973 0.00411705 0.00401979 0.00391795 0.00381312 0.00370688 0.00359921 0.00349014 0.00337964 0.00326774 0.00315441 0.00303967 0.00292474 0.00281084 0.00269797 0.00258613 0.00247532 0.00236554 0.00225679 0.00214908 0.0020431 0.00193958 0.00183851 0.0017399 0.00164374 0.00155004 0.00145879 0.00137 0.00128392 0.0012008 0.00112066 0.00104348 0.000969278 0.000898039 0.000829769 0.000764468 0.000702112 0.000642675 0.000586159 0.000532563 0.000481888 0.000434132 0.000389297 0.000347382 0.000308246 0.000271746 0.000237883 0.000206656 0.000178066 0.000152113 0.000128796 0.000108116 8.97246e-05 7.32742e-05 5.87649e-05 4.61966e-05 3.55694e-05 2.68833e-05 2.01382e-05 1.53341e-05 1.17402e-05 8.62543e-06 5.98988e-06 3.83353e-06 2.15636e-06 9.58382e-07 2.39595e-07 0 0 7.56164e-06 3.02466e-05 6.80548e-05 0.000120986 0.000189041 0.000272219 0.000370521 0.000483945 0.000614728 0.000765105 0.000935074 0.00112464 0.00133379 0.00156254 0.00181089 0.00207882 0.0023592 0.00264486 0.0029358 0.00323204 0.00353355 0.00384035 0.00415244 0.00446981 0.00478552 0.00509261 0.0053911 0.00568097 0.00596223 0.00623487 0.00649891 0.00675433 0.00699753 0.00722489 0.00743641 0.00763209 0.00781193 0.00797594 0.0081241 0.00825643 0.00837237 0.00847138 0.00855347 0.00861862 0.00866685 0.00869815 0.00871252 0.00870997 0.00869213 0.00866067 0.00861559 0.00855688 0.00848454 0.00839858 0.00829899 0.00818578 0.00806169 0.00792946 0.0077891 0.0076406 0.00748397 0.0073192 0.00714629 0.00696525 0.00677889 0.00659 0.0063986 0.00620469 0.00600826 0.00580931 0.00560785 0.00540387 0.00519954 0.00499705 0.0047964 0.00459757 0.00440057 0.00420541 0.00401208 0.00382058 0.00363218 0.00344814 0.00326847 0.00309316 0.00292221 0.00275563 0.00259341 0.00243555 0.00228252 0.00213476 0.00199228 0.00185508 0.00172316 0.00159651 0.00147515 0.00135905 0.0012482 0.00114253 0.00104206 0.000946779 0.000856689 0.000771791 0.000692084 0.000617569 0.000547993 0.000483104 0.000422903 0.000367389 0.000316563 0.000270423 0.000228971 0.000192206 0.00015951 0.000130265 0.000104471 8.21273e-05 6.32345e-05 4.77925e-05 3.58012e-05 2.72606e-05 2.08714e-05 1.53341e-05 1.06487e-05 6.81516e-06 3.83353e-06 1.70379e-06 4.25947e-07 0 0 1.18151e-05 4.72603e-05 0.000106336 0.000189041 0.000295377 0.000425343 0.000578938 0.000756164 0.000960513 0.00119548 0.00146105 0.00175725 0.00208405 0.00244147 0.00282951 0.00324816 0.00368625 0.00413259 0.00458719 0.00505005 0.00552117 0.00600055 0.00648818 0.00698408 0.00747737 0.00795721 0.00842359 0.00887651 0.00931598 0.00974199 0.0101545 0.0105536 0.0109336 0.0112889 0.0116194 0.0119251 0.0122061 0.0124624 0.0126939 0.0129007 0.0130818 0.0132365 0.0133648 0.0134666 0.013542 0.0135909 0.0136133 0.0136093 0.0135815 0.0135323 0.0134619 0.0133701 0.0132571 0.0131228 0.0129672 0.0127903 0.0125964 0.0123898 0.0121705 0.0119384 0.0116937 0.0114362 0.0111661 0.0108832 0.010592 0.0102969 0.00999782 0.00969483 0.0093879 0.00907705 0.00876226 0.00844354 0.00812429 0.0078079 0.00749437 0.0071837 0.0068759 0.00657095 0.00626887 0.00596966 0.00567528 0.00538772 0.00510698 0.00483305 0.00456595 0.00430567 0.0040522 0.00380555 0.00356644 0.00333557 0.00311294 0.00289857 0.00269244 0.00249455 0.00230492 0.00212352 0.00195031 0.00178521 0.00162822 0.00147934 0.00133858 0.00120592 0.00108138 0.000964951 0.000856239 0.000754851 0.000660786 0.000574046 0.000494629 0.000422536 0.000357767 0.000300322 0.000249235 0.000203539 0.000163236 0.000128324 9.88039e-05 7.46757e-05 5.59393e-05 4.25947e-05 3.26116e-05 2.39595e-05 1.66386e-05 1.06487e-05 5.98988e-06 2.66217e-06 6.65543e-07 0 0 1.70137e-05 6.80548e-05 0.000153123 0.000272219 0.000425343 0.000612493 0.000833671 0.00108888 0.00138314 0.00172149 0.00210392 0.00253043 0.00300104 0.00351572 0.00407449 0.00467735 0.0053082 0.00595093 0.00660556 0.00727208 0.00795049 0.00864079 0.00934299 0.0100571 0.0107674 0.0114584 0.01213 0.0127822 0.013415 0.0140285 0.0146225 0.0151972 0.0157444 0.016256 0.0167319 0.0171722 0.0175769 0.0179459 0.0182792 0.018577 0.0188378 0.0190606 0.0192453 0.0193919 0.0195004 0.0195708 0.0196032 0.0195974 0.0195573 0.0194865 0.0193851 0.019253 0.0190902 0.0188968 0.0186727 0.018418 0.0181388 0.0178413 0.0175255 0.0171914 0.0168389 0.0164682 0.0160792 0.0156718 0.0152525 0.0148275 0.0143969 0.0139605 0.0135186 0.0130709 0.0126177 0.0121587 0.011699 0.0112434 0.0107919 0.0103445 0.00990129 0.00946217 0.00902718 0.0085963 0.0081724 0.00775831 0.00735405 0.0069596 0.00657497 0.00620016 0.00583517 0.00548 0.00513567 0.00480322 0.00448264 0.00417394 0.00387711 0.00359216 0.00331908 0.00305787 0.00280845 0.0025707 0.00234464 0.00213025 0.00192755 0.00173653 0.00155719 0.00138953 0.00123298 0.00108699 0.000951532 0.000826626 0.000712266 0.000608452 0.000515185 0.000432464 0.000358898 0.000293097 0.00023506 0.000184787 0.000142278 0.000107533 8.05526e-05 6.13364e-05 4.69607e-05 3.45017e-05 2.39595e-05 1.53341e-05 8.62543e-06 3.83353e-06 9.58382e-07 0 0 2.31575e-05 9.26301e-05 0.000208418 0.000370521 0.000578938 0.000833671 0.00113472 0.00148208 0.00188261 0.00234313 0.00286366 0.0034442 0.00408474 0.00478529 0.00554584 0.00636639 0.00722504 0.00809988 0.0089909 0.00989811 0.0108215 0.0117611 0.0127168 0.0136888 0.0146556 0.0155961 0.0165102 0.017398 0.0182593 0.0190943 0.0199029 0.0206851 0.0214299 0.0221262 0.022774 0.0233733 0.023924 0.0244263 0.0248801 0.0252853 0.0256404 0.0259436 0.026195 0.0263945 0.0265422 0.0266381 0.0266821 0.0266743 0.0266197 0.0265233 0.0263852 0.0262054 0.0259839 0.0257207 0.0254157 0.025069 0.0246889 0.024284 0.0238541 0.0233993 0.0229197 0.022415 0.0218855 0.0213311 0.0207603 0.0201819 0.0195957 0.0190019 0.0184003 0.017791 0.017174 0.0165493 0.0159236 0.0153035 0.014689 0.0140801 0.0134768 0.0128791 0.012287 0.0117005 0.0111235 0.0105599 0.0100097 0.00947279 0.00894926 0.00843911 0.00794231 0.00745888 0.00699022 0.00653771 0.00610137 0.00568119 0.00527718 0.00488932 0.00451763 0.00416211 0.00382261 0.00349901 0.00319131 0.00289951 0.00262361 0.00236361 0.00211951 0.0018913 0.00167823 0.00147951 0.00129514 0.00112513 0.000969473 0.000828171 0.000701224 0.000588631 0.0004885 0.000398937 0.000319942 0.000251515 0.000193656 0.000146364 0.000109641 8.34857e-05 6.39187e-05 4.69607e-05 3.26116e-05 2.08714e-05 1.17402e-05 5.21786e-06 1.30446e-06 0 0 3.02466e-05 0.000120986 0.000272219 0.000483945 0.000756164 0.00108888 0.00148208 0.00193578 0.00245891 0.00306042 0.0037403 0.00449855 0.00533517 0.00625017 0.00724354 0.00831529 0.00943679 0.0105794 0.0117432 0.0129281 0.0141342 0.0153614 0.0166098 0.0178792 0.0191421 0.0203704 0.0215644 0.0227239 0.0238489 0.0249395 0.0259956 0.0270173 0.0279901 0.0288996 0.0297456 0.0305284 0.0312477 0.0319037 0.0324964 0.0330257 0.0334895 0.0338855 0.0342139 0.0344745 0.0346674 0.0347926 0.0348501 0.0348399 0.0347685 0.0346427 0.0344623 0.0342275 0.0339382 0.0335943 0.033196 0.0327431 0.0322468 0.0317179 0.0311564 0.0305624 0.0299359 0.0292768 0.0285852 0.027861 0.0271155 0.02636 0.0255944 0.0248188 0.024033 0.0232372 0.0224314 0.0216155 0.0207982 0.0199882 0.0191856 0.0183903 0.0176023 0.0168216 0.0160483 0.0152823 0.0145287 0.0137926 0.0130739 0.0123726 0.0116888 0.0110225 0.0103736 0.00974221 0.00913008 0.00853905 0.00796914 0.00742033 0.00689264 0.00638606 0.00590058 0.00543622 0.00499279 0.00457013 0.00416824 0.00378712 0.00342676 0.00308716 0.00276834 0.00247027 0.00219197 0.00193242 0.00169161 0.00146956 0.00126625 0.00108169 0.000915884 0.000768825 0.000638041 0.000521061 0.000417884 0.000328509 0.000252938 0.00019117 0.000143205 0.000109043 8.34857e-05 6.13364e-05 4.25947e-05 2.72606e-05 1.53341e-05 6.81516e-06 1.70379e-06 0 0 3.84716e-05 0.000153886 0.000346244 0.000615545 0.000961789 0.00138498 0.00188511 0.00246218 0.00312715 0.00389098 0.00475366 0.0057152 0.0067756 0.00793485 0.00919295 0.0105499 0.0119696 0.0134158 0.0148885 0.0163878 0.0179136 0.019466 0.0210449 0.0226504 0.0242474 0.0258008 0.0273107 0.028777 0.0301998 0.0315791 0.0329148 0.034207 0.0354374 0.0365877 0.037658 0.0386482 0.0395583 0.0403884 0.0411384 0.0418084 0.0423955 0.0428971 0.043313 0.0436433 0.043888 0.0440471 0.0441206 0.0441085 0.0440191 0.0438608 0.0436335 0.0433373 0.0429721 0.042538 0.0420349 0.0414629 0.0408358 0.0401675 0.039458 0.0387072 0.0379153 0.0370821 0.0362077 0.0352921 0.0343495 0.0333941 0.0324259 0.0314449 0.030451 0.0294444 0.028425 0.0273928 0.0263588 0.0253339 0.0243183 0.0233119 0.0223147 0.0213268 0.020348 0.0193784 0.0184244 0.0174925 0.0165826 0.0156948 0.014829 0.0139853 0.0131635 0.0123639 0.0115886 0.0108399 0.010118 0.00942276 0.00875421 0.00811233 0.00749715 0.00690865 0.00634663 0.00581087 0.00530137 0.00481814 0.00436117 0.00393046 0.00352601 0.00314782 0.00279462 0.00246513 0.00215933 0.00187724 0.00161885 0.00138417 0.00117319 0.000985918 0.000819238 0.000670045 0.000538339 0.00042412 0.000327388 0.000248143 0.000186384 0.000142113 0.000108805 7.99383e-05 5.55127e-05 3.55281e-05 1.99846e-05 8.88203e-06 2.22051e-06 0 0 4.80232e-05 0.000192093 0.000432209 0.000768372 0.00120058 0.00172884 0.00235314 0.00307349 0.00390242 0.00485246 0.00592362 0.00711589 0.00842928 0.00986378 0.0114194 0.0130961 0.0148495 0.0166351 0.0184528 0.0203027 0.0221849 0.0240992 0.0260456 0.0280243 0.0299923 0.0319066 0.0337674 0.0355746 0.0373282 0.0390282 0.0406745 0.0422673 0.0437841 0.0452024 0.0465221 0.0477434 0.0488662 0.0498905 0.0508163 0.0516436 0.052369 0.0529889 0.0535035 0.0539125 0.0542162 0.0544144 0.0545072 0.0544946 0.0543868 0.0541939 0.0539159 0.053553 0.053105 0.052572 0.0519539 0.0512508 0.0504797 0.0496576 0.0487846 0.0478606 0.0468856 0.0458597 0.0447828 0.0436549 0.0424936 0.0413163 0.040123 0.0389138 0.0376886 0.0364473 0.0351902 0.033917 0.0326414 0.031377 0.0301238 0.0288818 0.0276509 0.0264313 0.0252228 0.0240254 0.0228472 0.0216961 0.020572 0.0194751 0.0184051 0.0173623 0.0163465 0.0153577 0.014399 0.0134731 0.0125801 0.0117199 0.0108926 0.0100981 0.00933656 0.00860784 0.00791174 0.00724801 0.00661665 0.00601765 0.00545102 0.00491676 0.00441486 0.00394534 0.00350659 0.00309704 0.00271668 0.00236552 0.00204354 0.00175076 0.00148718 0.00125279 0.00104381 0.000856468 0.000690765 0.000546698 0.000424269 0.000323476 0.00024432 0.000186801 0.00014302 0.000105076 7.29693e-05 4.67003e-05 2.62689e-05 1.16751e-05 2.91877e-06 0 0 5.89016e-05 0.000235606 0.000530115 0.000942426 0.00147254 0.00212046 0.00288618 0.0037697 0.0047847 0.00594486 0.00725016 0.00870061 0.0102962 0.012037 0.0139229 0.0159539 0.0180766 0.0202373 0.0224361 0.024673 0.0269479 0.0292608 0.0316119 0.0340009 0.0363768 0.038688 0.0409346 0.0431165 0.0452339 0.0472867 0.0492748 0.0511984 0.0530303 0.0547435 0.0563381 0.0578141 0.0591714 0.0604101 0.0615301 0.0625314 0.0634099 0.0641611 0.0647852 0.0652821 0.0656519 0.0658945 0.0660099 0.0659981 0.0658714 0.0656419 0.0653096 0.0648745 0.0643367 0.0636961 0.0629528 0.0621066 0.0611782 0.0601881 0.0591361 0.0580223 0.0568468 0.0556095 0.0543104 0.0529495 0.0515479 0.0501267 0.0486859 0.0472255 0.0457456 0.044246 0.0427269 0.0411881 0.0396462 0.0381175 0.036602 0.0350998 0.0336109 0.0321352 0.0306727 0.0292235 0.0277971 0.0264033 0.0250421 0.0237134 0.0224172 0.0211535 0.0199224 0.0187238 0.0175613 0.0164385 0.0153553 0.0143117 0.0133078 0.0123435 0.0114188 0.0105338 0.00968813 0.00888155 0.00811406 0.00738565 0.00669631 0.00604606 0.0054349 0.00486281 0.00432788 0.00382816 0.00336366 0.00293438 0.00254031 0.00218147 0.00185784 0.00156943 0.00131175 0.00108033 0.00087516 0.000696243 0.00054358 0.00041717 0.000317013 0.000243109 0.00018613 0.000136749 9.49645e-05 6.07773e-05 3.41872e-05 1.51943e-05 3.79858e-06 0 0 7.11067e-05 0.000284427 0.00063996 0.00113771 0.00177767 0.00255984 0.00348423 0.00455083 0.00577402 0.00716817 0.00873329 0.0104694 0.0123764 0.0144544 0.0167034 0.0191234 0.0216509 0.0242225 0.0268384 0.0294984 0.0322026 0.034951 0.0377436 0.0405803 0.0434008 0.0461448 0.0488121 0.0514029 0.053917 0.0563546 0.0587156 0.061 0.0631759 0.0652112 0.067106 0.0688602 0.0704739 0.071947 0.0732797 0.0744717 0.0755181 0.0764136 0.0771583 0.0777522 0.0781951 0.0784873 0.0786286 0.078619 0.078473 0.0782048 0.0778144 0.0773019 0.0766673 0.0759105 0.0750316 0.0740306 0.0729316 0.0717589 0.0705126 0.0691926 0.0677989 0.0663315 0.0647904 0.0631757 0.0615123 0.0598252 0.0581145 0.0563801 0.0546221 0.0528404 0.0510351 0.0492061 0.047373 0.0455553 0.043753 0.0419661 0.0401946 0.0384385 0.0366978 0.0349725 0.0332741 0.0316142 0.0299927 0.0284097 0.0268651 0.025359 0.0238914 0.0224621 0.0210756 0.0197361 0.0184437 0.0171982 0.0159998 0.0148483 0.0137439 0.0126865 0.0116758 0.0107115 0.00979361 0.00892213 0.00809705 0.00731838 0.00658611 0.00590025 0.00525848 0.00465849 0.00410027 0.00358383 0.00310917 0.00267628 0.00228518 0.00193584 0.00162307 0.00134163 0.00109152 0.000872755 0.000685322 0.000529224 0.000404462 0.000311035 0.000238137 0.000174957 0.000121498 7.77589e-05 4.37394e-05 1.94397e-05 4.85993e-06 0 0 8.46384e-05 0.000338554 0.000761746 0.00135421 0.00211596 0.00304698 0.00414728 0.00541686 0.00687035 0.0085224 0.010373 0.0124222 0.0146699 0.0171161 0.019761 0.0226044 0.0255723 0.0285907 0.0316597 0.0347792 0.0379492 0.0411697 0.0444408 0.0477624 0.0510645 0.054277 0.0574001 0.0604336 0.0633776 0.0662321 0.068997 0.0716724 0.074221 0.0766054 0.0788257 0.0808818 0.0827737 0.0845015 0.0860651 0.0874646 0.0886938 0.0897465 0.0906227 0.0913226 0.0918459 0.0921928 0.0923633 0.0923573 0.0921915 0.0918826 0.0914305 0.0908352 0.0900968 0.0892152 0.0881904 0.0870225 0.0857397 0.0843702 0.0829141 0.0813713 0.0797419 0.0780258 0.076223 0.0743337 0.0723869 0.0704119 0.0684088 0.0663775 0.0643181 0.0622306 0.0601149 0.057971 0.0558219 0.0536904 0.0515766 0.0494805 0.047402 0.0453412 0.043298 0.0412725 0.0392782 0.0373287 0.035424 0.0335641 0.0317491 0.0299788 0.0282533 0.0265726 0.0249419 0.0233661 0.0218452 0.0203794 0.0189686 0.0176127 0.0163119 0.015066 0.0138747 0.0127379 0.0116553 0.0106271 0.00965323 0.0087337 0.00786851 0.00705765 0.0062984 0.00558802 0.00492651 0.00431388 0.00375011 0.00323521 0.00276919 0.00235203 0.00197776 0.00164037 0.00133986 0.00107623 0.000849495 0.000659639 0.000506668 0.000390581 0.000299038 0.000219702 0.000152571 9.76452e-05 5.49254e-05 2.44113e-05 6.10282e-06 0 0 9.94969e-05 0.000397987 0.000895472 0.00159195 0.00248742 0.00358189 0.00487535 0.0063678 0.00807371 0.0100075 0.0121693 0.014559 0.0171766 0.0200221 0.0230956 0.026397 0.0298409 0.0333419 0.0369 0.0405152 0.0441875 0.047917 0.0517035 0.0555472 0.0593677 0.0630848 0.0666985 0.0702087 0.0736155 0.0769189 0.0801189 0.0832154 0.0861655 0.0889261 0.0914972 0.0938787 0.0960708 0.0980734 0.0998864 0.10151 0.102937 0.10416 0.105178 0.105993 0.106604 0.107011 0.107214 0.107213 0.107027 0.106675 0.106158 0.105474 0.104625 0.10361 0.102429 0.101083 0.0996026 0.0980219 0.0963406 0.0945585 0.0926758 0.0906923 0.0886082 0.0864233 0.0841716 0.0818867 0.0795688 0.0772178 0.0748337 0.0724165 0.0699662 0.0674828 0.0649929 0.0625229 0.060073 0.0576431 0.0552332 0.0528433 0.0504734 0.0481235 0.0458094 0.0435468 0.0413359 0.0391766 0.0370689 0.0350128 0.0330083 0.0310554 0.02916 0.0273282 0.02556 0.0238553 0.0222142 0.0206366 0.0191226 0.0176722 0.016285 0.0149606 0.0136991 0.0125006 0.0113649 0.010292 0.00928208 0.00833501 0.00744764 0.00661676 0.00584239 0.00512451 0.00446313 0.00385825 0.00330988 0.002818 0.00237582 0.00197654 0.00162016 0.00130668 0.0010361 0.000808415 0.00062363 0.000481745 0.000368836 0.000270981 0.000188182 0.000120436 6.77454e-05 3.0109e-05 7.52726e-06 0 0 0.000115682 0.000462728 0.00104114 0.00185091 0.00289205 0.00416455 0.00566842 0.00740365 0.00938409 0.0116236 0.0141222 0.0168798 0.0198966 0.0231724 0.0267072 0.0305012 0.0344566 0.038476 0.0425593 0.0467065 0.0509177 0.0551928 0.0595318 0.0639348 0.0683106 0.0725681 0.0767073 0.0807282 0.0846309 0.0884153 0.0920813 0.0956291 0.0990095 0.102173 0.105121 0.107851 0.110365 0.112663 0.114744 0.116608 0.118247 0.119653 0.120826 0.121765 0.12247 0.122942 0.123181 0.123186 0.12298 0.122583 0.121996 0.121219 0.120252 0.119095 0.117748 0.116211 0.11452 0.112714 0.110792 0.108754 0.106601 0.104331 0.101946 0.0994447 0.0968664 0.0942497 0.0915945 0.0889008 0.0861687 0.0833981 0.080589 0.0777415 0.0748859 0.0720528 0.0692421 0.0664539 0.0636881 0.0609448 0.0582239 0.0555254 0.0528676 0.0502686 0.0477285 0.0452472 0.0428247 0.0404611 0.0381563 0.0359103 0.0337301 0.0316226 0.0295879 0.0276259 0.0257366 0.0239201 0.0221763 0.0205052 0.0189065 0.0173798 0.0159251 0.0145425 0.0132319 0.0119934 0.0108268 0.00973234 0.00870619 0.00774471 0.00684789 0.00601573 0.00524824 0.00454541 0.00390724 0.00333374 0.00281726 0.00235016 0.00193244 0.00156409 0.00124513 0.000975551 0.00075535 0.000584528 0.000447529 0.000328797 0.000228331 0.000146132 8.21992e-05 3.6533e-05 9.13324e-06 0 0 0.000133194 0.000532775 0.00119874 0.0021311 0.00332985 0.00479498 0.0065265 0.0085244 0.0108015 0.0133706 0.0162317 0.0193847 0.0228298 0.0265669 0.0305959 0.034917 0.0394195 0.043993 0.0486375 0.053353 0.0581396 0.0629971 0.0679256 0.072925 0.077893 0.0827268 0.0874265 0.0919921 0.0964236 0.100721 0.104884 0.108914 0.112753 0.116347 0.119696 0.122799 0.125657 0.128269 0.130637 0.132758 0.134625 0.136227 0.137564 0.138636 0.139444 0.139986 0.140264 0.140277 0.140049 0.139606 0.138946 0.13807 0.136978 0.135671 0.134147 0.132407 0.130493 0.128446 0.126268 0.123958 0.121516 0.118942 0.116236 0.113398 0.110471 0.107501 0.104486 0.101427 0.0983233 0.0951755 0.0919834 0.0887471 0.0855011 0.08228 0.079084 0.0759129 0.0727668 0.0696457 0.0665495 0.0634784 0.0604529 0.057494 0.0546016 0.0517758 0.0490164 0.0463236 0.0436972 0.0411374 0.0386521 0.0362493 0.033929 0.0316912 0.0295359 0.0274631 0.0254727 0.0235649 0.0217392 0.0199953 0.0183332 0.0167529 0.0152544 0.0138377 0.0125028 0.0112496 0.0100741 0.00897186 0.00794302 0.00698754 0.00610543 0.00529667 0.00456128 0.00389925 0.00330207 0.00276121 0.00227668 0.00184847 0.0014766 0.00116105 0.000901825 0.000698929 0.000535118 0.000393148 0.000273019 0.000174732 9.82869e-05 4.36831e-05 1.09208e-05 0 0 0.000151673 0.000606692 0.00136506 0.00242677 0.00379183 0.00546023 0.00743198 0.00970707 0.0122969 0.0152129 0.0184549 0.0220231 0.0259175 0.0301379 0.0346845 0.0395572 0.044632 0.049785 0.055016 0.0603251 0.0657124 0.0711777 0.0767212 0.0823427 0.087928 0.0933627 0.0986467 0.10378 0.108763 0.113595 0.118277 0.122808 0.127126 0.131168 0.134936 0.138428 0.141645 0.144586 0.147252 0.149643 0.151747 0.153554 0.155063 0.156275 0.157189 0.157806 0.158126 0.158148 0.157899 0.157408 0.156673 0.155696 0.154475 0.153011 0.151304 0.149354 0.147207 0.144912 0.142468 0.139875 0.137133 0.134242 0.131202 0.128013 0.124724 0.121385 0.117996 0.114556 0.111065 0.107524 0.103933 0.100291 0.0966376 0.0930118 0.0894136 0.0858429 0.0822997 0.0787841 0.075296 0.0718354 0.0684258 0.0650907 0.0618301 0.0586439 0.0555322 0.0524949 0.0495322 0.0466438 0.0438391 0.041127 0.0385075 0.0359807 0.0335466 0.0312051 0.0289563 0.0268001 0.0247362 0.0227643 0.0208844 0.0190963 0.0174003 0.0157961 0.014284 0.0128637 0.0115307 0.0102801 0.00911185 0.00802606 0.00702268 0.00610171 0.00526316 0.00450702 0.00382391 0.00320442 0.00264856 0.00215632 0.00172771 0.00136273 0.00106138 0.000823653 0.000630609 0.000463305 0.000321739 0.000205913 0.000115826 5.14783e-05 1.28696e-05 0 0 0.00017076 0.000683041 0.00153684 0.00273217 0.00426901 0.00614737 0.00836726 0.0109287 0.0138413 0.0171148 0.0207492 0.0247445 0.0291008 0.0338179 0.0388959 0.0443349 0.0499968 0.0557438 0.0615759 0.067493 0.0734952 0.0795826 0.0857549 0.0920124 0.0982286 0.104277 0.110158 0.115872 0.121418 0.126797 0.132008 0.137051 0.141858 0.146359 0.150554 0.154443 0.158027 0.161304 0.164276 0.166942 0.16929 0.171306 0.172993 0.174348 0.175373 0.176066 0.17643 0.176462 0.176194 0.175655 0.174845 0.173764 0.172413 0.170791 0.168898 0.166735 0.164353 0.161804 0.159089 0.156208 0.153161 0.149947 0.146567 0.143021 0.139363 0.135648 0.131876 0.128047 0.124162 0.12022 0.11622 0.112164 0.108095 0.104055 0.100046 0.0960667 0.0921174 0.0881981 0.0843089 0.0804497 0.0766468 0.0729263 0.0692884 0.065733 0.0622602 0.0588698 0.0555619 0.0523366 0.049204 0.0461744 0.0432478 0.0404242 0.0377035 0.0350859 0.0325712 0.0301595 0.0278505 0.0256438 0.0235393 0.0215372 0.0196373 0.0178398 0.0161445 0.0145515 0.0130555 0.0116512 0.0103385 0.00911738 0.00798795 0.00695017 0.00600402 0.00514952 0.00437642 0.00367449 0.00304373 0.00248413 0.0019957 0.00157843 0.00123233 0.000957401 0.00073301 0.000538538 0.000373985 0.00023935 0.000134634 5.98375e-05 1.49594e-05 0 0 0.000190456 0.000761823 0.0017141 0.00304729 0.00476139 0.00685641 0.00933233 0.0121892 0.0154346 0.0190764 0.0231145 0.0275489 0.0323797 0.0376067 0.0432301 0.0492499 0.0555137 0.0618694 0.0683171 0.0748567 0.0814882 0.0882116 0.0950269 0.101934 0.108795 0.115471 0.121962 0.128268 0.134389 0.140325 0.146077 0.151644 0.156949 0.161918 0.16655 0.170845 0.174803 0.178424 0.181709 0.184656 0.187253 0.189485 0.191352 0.192855 0.193993 0.194767 0.195175 0.19522 0.194932 0.194346 0.19346 0.192276 0.190793 0.18901 0.186929 0.184549 0.181928 0.179122 0.176132 0.172958 0.1696 0.166058 0.162332 0.158421 0.154386 0.150289 0.146127 0.141902 0.137614 0.133262 0.128846 0.124367 0.119873 0.115411 0.110981 0.106584 0.10222 0.0978878 0.0935882 0.0893212 0.0851157 0.0810009 0.0769767 0.0730432 0.0692003 0.0654481 0.0617866 0.0582157 0.0547469 0.0513915 0.0481497 0.0450214 0.0420066 0.0391053 0.0363174 0.0336431 0.0310819 0.0286336 0.0262981 0.0240754 0.0219656 0.0199685 0.0180844 0.016313 0.0146486 0.0130852 0.0116228 0.0102615 0.00900126 0.00784205 0.00678388 0.00582676 0.00495963 0.00417144 0.0034622 0.00283191 0.00228055 0.00180815 0.00141469 0.00110017 0.00084232 0.000618847 0.000429755 0.000275043 0.000154712 6.87608e-05 1.71902e-05 0 0 0.000210759 0.000843037 0.00189683 0.00337215 0.00526898 0.00758733 0.0103272 0.0134886 0.0170769 0.0210977 0.0255508 0.0304363 0.0357542 0.0415045 0.0476871 0.0543022 0.0611828 0.068162 0.0752397 0.0824162 0.0896912 0.0970648 0.104537 0.112108 0.119627 0.126943 0.134057 0.140968 0.147676 0.154182 0.160485 0.166585 0.1724 0.177846 0.182924 0.187633 0.191974 0.195946 0.19955 0.202785 0.205637 0.208089 0.210142 0.211796 0.213051 0.213907 0.214363 0.214421 0.214115 0.213481 0.21252 0.211231 0.209614 0.20767 0.205398 0.202798 0.199934 0.196866 0.193597 0.190125 0.186451 0.182574 0.178495 0.174214 0.169796 0.165308 0.160749 0.15612 0.15142 0.146651 0.14181 0.1369 0.131972 0.127078 0.122219 0.117396 0.112607 0.107853 0.103134 0.0984499 0.0938327 0.0893143 0.0848949 0.0805743 0.0763527 0.0722299 0.0682061 0.0642811 0.0604677 0.0567784 0.0532134 0.0497725 0.0464558 0.0432633 0.040195 0.0372509 0.0344306 0.0317339 0.0291607 0.0267111 0.0243851 0.0221825 0.0201036 0.0181481 0.0163098 0.0145821 0.012965 0.0114585 0.0100626 0.00877735 0.00760273 0.00653872 0.00557351 0.00469526 0.00390397 0.00319964 0.00258228 0.00205188 0.00160844 0.00125197 0.00095854 0.000704233 0.000489051 0.000312993 0.000176058 7.82481e-05 1.9562e-05 0 0 0.000231671 0.000926684 0.00208504 0.00370673 0.00579177 0.00834015 0.0113519 0.0148269 0.0187682 0.0231786 0.0280581 0.0334067 0.0392243 0.0455111 0.052267 0.0594919 0.067004 0.0746213 0.0823438 0.0901714 0.0981042 0.106142 0.114285 0.122534 0.130724 0.138694 0.146443 0.153971 0.161278 0.168365 0.175231 0.181876 0.18821 0.194143 0.199676 0.204808 0.209539 0.21387 0.2178 0.221329 0.224441 0.227119 0.229362 0.231171 0.232546 0.233487 0.233993 0.234065 0.233742 0.233061 0.232023 0.230629 0.228877 0.226769 0.224303 0.221481 0.218369 0.215037 0.211483 0.207709 0.203713 0.199496 0.195058 0.190399 0.185591 0.180705 0.175742 0.170701 0.165582 0.160386 0.155113 0.149762 0.144391 0.139057 0.13376 0.128501 0.123279 0.118094 0.112946 0.107836 0.102798 0.0978667 0.093043 0.0883265 0.0837172 0.0792152 0.0748204 0.0705329 0.0663664 0.0623351 0.0584388 0.0546775 0.0510513 0.0475601 0.0442039 0.0409829 0.0378965 0.0349447 0.0321272 0.0294443 0.0268957 0.0244817 0.0222021 0.0200569 0.0180392 0.0161418 0.0143648 0.0127082 0.011172 0.00975608 0.00846057 0.00728542 0.00621807 0.00524594 0.00436903 0.00358735 0.00290088 0.00230963 0.0018136 0.00141279 0.00108167 0.000794695 0.000551872 0.000353198 0.000198674 8.82995e-05 2.20749e-05 0 0 0.000253191 0.00101276 0.00227872 0.00405105 0.00632977 0.00911486 0.0124063 0.0162042 0.0205085 0.0253192 0.0306364 0.03646 0.0427901 0.0496266 0.0569696 0.064819 0.0729775 0.0812475 0.0896292 0.0981225 0.106727 0.115444 0.124272 0.133212 0.142087 0.150724 0.159121 0.167279 0.175197 0.182876 0.190315 0.197515 0.204379 0.210809 0.216806 0.222369 0.227499 0.232196 0.236459 0.240289 0.243667 0.246575 0.249013 0.250981 0.252479 0.253507 0.254065 0.254153 0.253812 0.253085 0.251971 0.25047 0.248582 0.246308 0.243646 0.240598 0.237236 0.233633 0.229791 0.225709 0.221386 0.216823 0.21202 0.206977 0.201771 0.19648 0.191105 0.185644 0.180099 0.174469 0.168754 0.162954 0.157131 0.151348 0.145604 0.1399 0.134236 0.128611 0.123025 0.117479 0.112011 0.106658 0.101421 0.0962996 0.091294 0.086404 0.0816296 0.0769709 0.0724431 0.0680614 0.0638258 0.0597363 0.0557928 0.0519955 0.0483442 0.044839 0.0414796 0.0382658 0.0351976 0.0322748 0.0294977 0.026866 0.02438 0.0220394 0.0198368 0.0177645 0.0158225 0.0140108 0.0123294 0.0107782 0.0093574 0.00806686 0.00689332 0.0058235 0.0048574 0.00399501 0.00323634 0.00258139 0.00203016 0.00158264 0.00121171 0.000890234 0.000618218 0.000395659 0.000222558 9.89149e-05 2.47287e-05 0 0 0.000275318 0.00110127 0.00247787 0.0044051 0.00688296 0.00991147 0.0134906 0.0176204 0.0222977 0.0275195 0.0332857 0.0395963 0.0464514 0.053851 0.061795 0.0702834 0.0791031 0.0880406 0.097096 0.106269 0.115561 0.12497 0.134497 0.144142 0.153716 0.163033 0.17209 0.18089 0.189431 0.197714 0.205738 0.213504 0.220907 0.227844 0.234314 0