<?xml version="1.0"?> 
<VTKFile type="StructuredGrid" version="0.1"> 
<StructuredGrid WholeExtent="0 128 0 128 0 0"> 
<Piece Extent="0 128 0 128 0 0"> 
<PointData>
<DataArray type="Float32" Name="u" format="ascii" NumberOfComponents="1"> 
0 0 0 0 0 0 0 0 0 0 0 0 0 0 0 0 0 0 0 0 0 0 0 0 0 0 0 0 0 0 0 0 0 0 0 0 0 0 0 0 0 0 0 0 0 0 0 0 0 0 0 0 0 0 0 0 0 0 0 0 0 0 0 0 0 0 0 0 0 0 0 0 0 0 0 0 0 0 0 0 0 0 0 0 0 0 0 0 0 0 0 0 0 0 0 0 0 0 0 0 0 0 0 0 0 0 0 0 0 0 0 0 0 0 0 0 0 0 0 0 0 0 0 0 0 0 0 0 0 0 5.58599e-07 2.23439e-06 5.02739e-06 8.93758e-06 1.3965e-05 2.01096e-05 2.73713e-05 3.57503e-05 4.54127e-05 5.65246e-05 6.90862e-05 8.30973e-05 9.8558e-05 0.000115468 0.000133828 0.000153638 0.000174365 0.000195479 0.000216979 0.000238865 0.000261138 0.000283797 0.000306842 0.000330274 0.000353573 0.000376222 0.00039822 0.000419567 0.000440263 0.000460308 0.000479703 0.000498447 0.000516271 0.000532904 0.000548347 0.000562601 0.000575664 0.000587537 0.00059822 0.000607713 0.000615978 0.000622976 0.000628707 0.000633173 0.000636371 0.000638303 0.000638969 0.000638368 0.000636628 0.000633878 0.000630118 0.000625346 0.000619565 0.000612772 0.000604969 0.000596156 0.000586542 0.000576338 0.000565543 0.000554159 0.000542184 0.000529619 0.000516464 0.000502719 0.000488597 0.000474313 0.000459867 0.000445258 0.000430487 0.000415554 0.000400458 0.0003852 0.000369944 0.000354852 0.000339927 0.000325167 0.000310572 0.000296143 0.000281879 0.000267781 0.000253941 0.000240452 0.000227315 0.000214528 0.000202093 0.000190009 0.000178276 0.000166894 0.000155892 0.000145301 0.000135119 0.000125346 0.000115983 0.00010703 9.84867e-05 9.03529e-05 8.26181e-05 7.52719e-05 6.83142e-05 6.17451e-05 5.55645e-05 4.97725e-05 4.43689e-05 3.9354e-05 3.46996e-05 3.03779e-05 2.63888e-05 2.27324e-05 1.94086e-05 1.64175e-05 1.3759e-05 1.14332e-05 9.38678e-06 7.56667e-06 5.97283e-06 4.60525e-06 3.46393e-06 2.54888e-06 1.86009e-06 1.39757e-06 1.07001e-06 7.86132e-07 5.45925e-07 3.49392e-07 1.96533e-07 8.7348e-08 2.1837e-08 0 0 2.23439e-06 8.93758e-06 2.01096e-05 3.57503e-05 5.58599e-05 8.04382e-05 0.000109485 0.000143001 0.000181651 0.000226099 0.000276345 0.000332389 0.000394232 0.000461873 0.000535313 0.000614551 0.00069746 0.000781915 0.000867915 0.000955461 0.00104455 0.00113519 0.00122737 0.0013211 0.00141429 0.00150489 0.00159288 0.00167827 0.00176105 0.00184123 0.00191881 0.00199379 0.00206508 0.00213162 0.00219339 0.0022504 0.00230266 0.00235015 0.00239288 0.00243085 0.00246391 0.0024919 0.00251483 0.00253269 0.00254548 0.00255321 0.00255588 0.00255347 0.00254651 0.00253551 0.00252047 0.00250139 0.00247826 0.00245109 0.00241988 0.00238462 0.00234617 0.00230535 0.00226217 0.00221663 0.00216874 0.00211848 0.00206586 0.00201087 0.00195439 0.00189725 0.00183947 0.00178103 0.00172195 0.00166222 0.00160183 0.0015408 0.00147977 0.00141941 0.00135971 0.00130067 0.00124229 0.00118457 0.00112752 0.00107112 0.00101576 0.000961809 0.000909258 0.000858112 0.000808371 0.000760035 0.000713103 0.000667576 0.00062357 0.000581203 0.000540475 0.000501385 0.000463934 0.000428121 0.000393947 0.000361412 0.000330472 0.000301088 0.000273257 0.00024698 0.000222258 0.00019909 0.000177476 0.000157416 0.000138798 0.000121512 0.000105555 9.09295e-05 7.76344e-05 6.56699e-05 5.50359e-05 4.57326e-05 3.75471e-05 3.02667e-05 2.38913e-05 1.8421e-05 1.38557e-05 1.01955e-05 7.44037e-06 5.59027e-06 4.28005e-06 3.14453e-06 2.1837e-06 1.39757e-06 7.86132e-07 3.49392e-07 8.7348e-08 0 0 5.02739e-06 2.01096e-05 4.52465e-05 8.04382e-05 0.000125685 0.000180986 0.000246342 0.000321753 0.000408714 0.000508722 0.000621776 0.000747876 0.000887022 0.00103921 0.00120445 0.00138274 0.00156929 0.00175931 0.00195281 0.00214979 0.00235024 0.00255417 0.00276158 0.00297246 0.00318216 0.003386 0.00358398 0.0037761 0.00396237 0.00414278 0.00431733 0.00448602 0.00464644 0.00479614 0.00493513 0.00506341 0.00518097 0.00528783 0.00538398 0.00546942 0.0055438 0.00560678 0.00565837 0.00569855 0.00572734 0.00574473 0.00575072 0.00574531 0.00572966 0.00570491 0.00567106 0.00562812 0.00557608 0.00551495 0.00544472 0.0053654 0.00527888 0.00518704 0.00508989 0.00498743 0.00487966 0.00476657 0.00464818 0.00452447 0.00439737 0.00426882 0.0041388 0.00400732 0.00387439 0.00373999 0.00360412 0.0034668 0.00332949 0.00319367 0.00305934 0.0029265 0.00279515 0.00266529 0.00253691 0.00241003 0.00228547 0.00216407 0.00204583 0.00193075 0.00181884 0.00171008 0.00160448 0.00150205 0.00140303 0.00130771 0.00121607 0.00112812 0.00104385 0.000963272 0.000886381 0.000813176 0.000743563 0.000677447 0.000614828 0.000555706 0.000500081 0.000447952 0.000399321 0.000354186 0.000312296 0.000273401 0.000237499 0.000204591 0.000174677 0.000147757 0.000123831 0.000102898 8.44811e-05 6.81001e-05 5.37555e-05 4.14472e-05 3.11754e-05 2.29399e-05 1.67408e-05 1.25781e-05 9.63011e-06 7.07519e-06 4.91332e-06 3.14453e-06 1.7688e-06 7.86132e-07 1.96533e-07 0 0 8.93758e-06 3.57503e-05 8.04382e-05 0.000143001 0.000223439 0.000321753 0.000437941 0.000572005 0.000726603 0.000904394 0.00110538 0.00132956 0.00157693 0.00184749 0.00214125 0.0024582 0.00278984 0.00312766 0.00347166 0.00382184 0.00417821 0.00454075 0.00490947 0.00528438 0.00565717 0.00601955 0.00637151 0.00671307 0.00704421 0.00736493 0.00767525 0.00797515 0.00826033 0.00852646 0.00877356 0.00900161 0.00921062 0.00940059 0.00957152 0.00972341 0.00985564 0.00996761 0.0100593 0.0101308 0.0101819 0.0102129 0.0102235 0.0102139 0.0101861 0.0101421 0.0100819 0.0100055 0.00991303 0.00980436 0.00967951 0.00953849 0.00938467 0.0092214 0.00904869 0.00886654 0.00867494 0.00847391 0.00826342 0.0080435 0.00781755 0.00758901 0.00735787 0.00712413 0.0068878 0.00664886 0.00640733 0.0061632 0.0059191 0.00567764 0.00543883 0.00520267 0.00496915 0.00473829 0.00451007 0.00428449 0.00406305 0.00384723 0.00363703 0.00343245 0.00323348 0.00304014 0.00285241 0.0026703 0.00249428 0.00232481 0.0021619 0.00200554 0.00185573 0.00171248 0.00157579 0.00144565 0.00132189 0.00120435 0.00109303 0.000987922 0.000889032 0.000796359 0.000709903 0.000629664 0.000555194 0.000486046 0.000422221 0.000363718 0.000310538 0.000262679 0.000220144 0.000182931 0.000150189 0.000121067 9.55653e-05 7.3684e-05 5.54229e-05 4.07821e-05 2.97615e-05 2.23611e-05 1.71202e-05 1.25781e-05 8.7348e-06 5.59027e-06 3.14453e-06 1.39757e-06 3.49392e-07 0 0 1.3965e-05 5.58599e-05 0.000125685 0.000223439 0.000349124 0.000502739 0.000684283 0.000893758 0.00113532 0.00141312 0.00172715 0.00207743 0.00246395 0.00288671 0.0033457 0.00384094 0.00435913 0.00488697 0.00542447 0.00597163 0.00652845 0.00709492 0.00767105 0.00825684 0.00883933 0.00940554 0.00995549 0.0104892 0.0110066 0.0115077 0.0119926 0.0124612 0.0129068 0.0133226 0.0137087 0.014065 0.0143916 0.0146884 0.0149555 0.0151928 0.0153994 0.0155744 0.0157177 0.0158293 0.0159093 0.0159576 0.0159742 0.0159592 0.0159157 0.015847 0.0157529 0.0156337 0.0154891 0.0153193 0.0151242 0.0149039 0.0146635 0.0144084 0.0141386 0.013854 0.0135546 0.0132405 0.0129116 0.012568 0.0122149 0.0118578 0.0114967 0.0111315 0.0107622 0.0103888 0.0100115 0.00963 0.00924859 0.00887131 0.00849817 0.00812917 0.0077643 0.00740357 0.00704698 0.00669452 0.00634852 0.0060113 0.00568286 0.0053632 0.00505232 0.00475022 0.00445689 0.00417235 0.00389731 0.00363252 0.00337797 0.00313365 0.00289958 0.00267576 0.00246217 0.00225882 0.00206545 0.0018818 0.00170786 0.00154363 0.00138911 0.00124431 0.00110922 0.000983849 0.00086749 0.000759447 0.00065972 0.000568309 0.000485215 0.000410437 0.000343975 0.000285829 0.00023467 0.000189167 0.000149321 0.000115131 8.65983e-05 6.3722e-05 4.65023e-05 3.49392e-05 2.67503e-05 1.96533e-05 1.36481e-05 8.7348e-06 4.91332e-06 2.1837e-06 5.45925e-07 0 0 2.01096e-05 8.04382e-05 0.000180986 0.000321753 0.000502739 0.000723944 0.000985368 0.00128701 0.00163486 0.00203489 0.0024871 0.0029915 0.00354809 0.00415686 0.00481781 0.00553096 0.00627714 0.00703724 0.00781124 0.00859915 0.00940096 0.0102167 0.0110463 0.0118899 0.0127286 0.013544 0.0143359 0.0151044 0.0158495 0.0165711 0.0172693 0.0179441 0.0185857 0.0191845 0.0197405 0.0202536 0.0207239 0.0211513 0.0215359 0.0218777 0.0221752 0.0224271 0.0226335 0.0227942 0.0229094 0.0229789 0.0230029 0.0229812 0.0229186 0.0228196 0.0226842 0.0225125 0.0223043 0.0220598 0.0217789 0.0214616 0.0211155 0.0207482 0.0203596 0.0199497 0.0195186 0.0190663 0.0185927 0.0180979 0.0175895 0.0170753 0.0165552 0.0160293 0.0154975 0.0149599 0.0144165 0.0138672 0.013318 0.0127747 0.0122374 0.011706 0.0111806 0.0106611 0.0101476 0.00964011 0.00914187 0.00865628 0.00818332 0.00772301 0.00727534 0.00684031 0.00641793 0.00600818 0.00561213 0.00523083 0.00486427 0.00451246 0.0041754 0.00385309 0.00354552 0.0032527 0.00297425 0.00270979 0.00245931 0.00222282 0.00200032 0.00179181 0.00159728 0.00141674 0.00124919 0.0010936 0.000949997 0.000818365 0.000698709 0.000591029 0.000495324 0.000411594 0.000337924 0.0002724 0.000215022 0.000165789 0.000124702 9.17597e-05 6.69633e-05 5.03124e-05 3.85205e-05 2.83007e-05 1.96533e-05 1.25781e-05 7.07519e-06 3.14453e-06 7.86132e-07 0 0 2.73713e-05 0.000109485 0.000246342 0.000437941 0.000684283 0.000985368 0.0013412 0.00175177 0.00222522 0.00276971 0.00338522 0.00407177 0.00482934 0.00565795 0.00655758 0.00752825 0.00854389 0.00957846 0.010632 0.0117044 0.0127958 0.013906 0.0150353 0.0161834 0.0173251 0.0184349 0.0195128 0.0205588 0.0215729 0.0225551 0.0235055 0.0244239 0.0252973 0.0261123 0.026869 0.0275674 0.0282075 0.0287893 0.0293128 0.0297779 0.0301829 0.0305258 0.0308067 0.0310255 0.0311822 0.0312769 0.0313095 0.03128 0.0311948 0.03106 0.0308758 0.030642 0.0303587 0.0300258 0.0296435 0.0292116 0.0287405 0.0282405 0.0277116 0.0271538 0.026567 0.0259513 0.0253067 0.0246332 0.0239413 0.0232413 0.0225335 0.0218177 0.0210939 0.0203621 0.0196225 0.0188748 0.0181272 0.0173878 0.0166564 0.0159332 0.015218 0.014511 0.0138121 0.0131213 0.0124431 0.0117822 0.0111384 0.0105119 0.00990255 0.00931042 0.00873551 0.0081778 0.00763873 0.00711974 0.00662081 0.00614196 0.00568319 0.00524448 0.00482585 0.00442729 0.00404829 0.00368832 0.0033474 0.00302551 0.00272266 0.00243885 0.00217408 0.00192834 0.00170028 0.00148852 0.00129305 0.00111389 0.000951021 0.000804456 0.00067419 0.000560225 0.000459952 0.000370767 0.000292669 0.000225657 0.000169733 0.000124895 9.11445e-05 6.84808e-05 5.24306e-05 3.85205e-05 2.67503e-05 1.71202e-05 9.63011e-06 4.28005e-06 1.07001e-06 0 0 3.57503e-05 0.000143001 0.000321753 0.000572005 0.000893758 0.00128701 0.00175177 0.00228802 0.00290641 0.00361758 0.00442152 0.00531823 0.00630771 0.00738997 0.008565 0.00983281 0.0111594 0.0125106 0.0138866 0.0152874 0.0167128 0.018163 0.0196379 0.0211375 0.0226287 0.0240782 0.0254861 0.0268523 0.0281768 0.0294597 0.030701 0.0319006 0.0330413 0.0341059 0.0350942 0.0360064 0.0368425 0.0376024 0.0382861 0.0388936 0.0394226 0.0398705 0.0402373 0.040523 0.0407278 0.0408514 0.040894 0.0408555 0.0407442 0.0405682 0.0403275 0.0400222 0.0396521 0.0392174 0.038718 0.038154 0.0375387 0.0368856 0.0361948 0.0354662 0.0346998 0.0338956 0.0330537 0.032174 0.0312702 0.030356 0.0294315 0.0284965 0.0275512 0.0265955 0.0256293 0.0246528 0.0236764 0.0227106 0.0217553 0.0208107 0.0198766 0.0189531 0.0180403 0.017138 0.0162522 0.0153889 0.0145481 0.0137298 0.0129339 0.0121606 0.0114096 0.0106812 0.00997712 0.00929925 0.00864759 0.00802216 0.00742294 0.00684993 0.00630315 0.00578258 0.00528756 0.0048174 0.00437211 0.00395169 0.00355613 0.00318544 0.00283961 0.00251865 0.00222077 0.00194418 0.00168888 0.00145487 0.00124215 0.00105072 0.000880575 0.000731722 0.000600754 0.000484267 0.000382261 0.000294736 0.000221692 0.000163128 0.000119046 8.94443e-05 6.84808e-05 5.03124e-05 3.49392e-05 2.23611e-05 1.25781e-05 5.59027e-06 1.39757e-06 0 0 4.54759e-05 0.000181903 0.000409283 0.000727614 0.0011369 0.00163713 0.00222832 0.00291046 0.00369658 0.00459973 0.0056199 0.00675709 0.0080113 0.00938254 0.0108708 0.0124761 0.0141554 0.0158657 0.0176071 0.0193796 0.021183 0.0230175 0.024883 0.0267796 0.0286654 0.0304985 0.032279 0.0340068 0.035682 0.0373045 0.0388744 0.0403916 0.0418344 0.0431809 0.0444312 0.0455852 0.046643 0.0476045 0.0484698 0.0492388 0.0499085 0.0504757 0.0509404 0.0513026 0.0515624 0.0517197 0.0517745 0.0517268 0.051587 0.0513654 0.0510619 0.0506767 0.0502096 0.0496606 0.0490299 0.0483174 0.04754 0.0467147 0.0458417 0.0449208 0.043952 0.0429354 0.041871 0.0407587 0.0396159 0.0384598 0.0372905 0.036108 0.0349123 0.0337033 0.0324811 0.0312457 0.0300103 0.0287882 0.0275795 0.0263841 0.0252019 0.0240332 0.0228777 0.0217355 0.0206142 0.0195213 0.0184567 0.0174206 0.0164128 0.0154334 0.0144823 0.0135597 0.0126678 0.0118091 0.0109835 0.010191 0.00943171 0.00870555 0.00801254 0.00735267 0.0067251 0.00612898 0.00556432 0.0050311 0.00452934 0.00405903 0.00362016 0.00321275 0.00283453 0.00248323 0.00215885 0.0018614 0.00159086 0.00134725 0.00113057 0.000940801 0.000773676 0.000624908 0.000494497 0.000382443 0.000288746 0.000213405 0.000156421 0.000117794 9.01861e-05 6.62592e-05 4.60133e-05 2.94485e-05 1.65648e-05 7.36213e-06 1.84053e-06 0 0 5.67774e-05 0.00022711 0.000510996 0.000908438 0.00141943 0.00204399 0.00278209 0.00363375 0.00461388 0.00573739 0.00700429 0.00841456 0.00996822 0.0116653 0.0135057 0.0154895 0.0175638 0.0196757 0.0218252 0.0240124 0.0262372 0.0284996 0.0307996 0.0331372 0.0354612 0.0377204 0.0399147 0.0420443 0.044109 0.0461089 0.048044 0.0499142 0.0516929 0.0533531 0.0548949 0.0563182 0.0576232 0.0588097 0.0598778 0.0608275 0.0616549 0.062356 0.062931 0.0633798 0.0637023 0.0638987 0.0639689 0.0639128 0.0637432 0.0634727 0.0631013 0.062629 0.0620557 0.0613816 0.0606065 0.0597305 0.0587745 0.0577593 0.056685 0.0555515 0.0543588 0.0531069 0.0517959 0.0504258 0.0490177 0.0475931 0.046152 0.0446943 0.0432201 0.0417293 0.0402219 0.038698 0.0371739 0.035666 0.0341744 0.0326989 0.0312397 0.0297966 0.0283698 0.0269592 0.0255741 0.0242238 0.0229085 0.021628 0.0203823 0.0191715 0.0179956 0.0168545 0.0157513 0.0146889 0.0136673 0.0126865 0.0117466 0.0108474 0.00998913 0.00917164 0.00839395 0.00765503 0.00695488 0.00629351 0.0056709 0.00508707 0.00454201 0.00403572 0.00356541 0.00312827 0.00272431 0.00235353 0.00201593 0.0017115 0.00144025 0.00120218 0.000992066 0.000804699 0.000640076 0.000498196 0.000379061 0.000282671 0.000209024 0.000158121 0.000121062 8.89433e-05 6.17662e-05 3.95304e-05 2.22358e-05 9.88259e-06 2.47065e-06 0 0 6.96548e-05 0.000278619 0.000626894 0.00111448 0.00174137 0.00250757 0.00341309 0.00445791 0.00565831 0.00703057 0.00857468 0.0102906 0.0121785 0.0142381 0.0164697 0.018873 0.0213846 0.0239406 0.026541 0.0291859 0.0318753 0.0346091 0.0373874 0.0402102 0.0430161 0.0457438 0.0483933 0.0509647 0.0534579 0.055873 0.0582098 0.0604685 0.0626168 0.0646224 0.0664853 0.0682055 0.0697831 0.071218 0.0725102 0.0736597 0.0746618 0.0755116 0.0762092 0.0767545 0.0771477 0.0773886 0.0774772 0.0774136 0.0772129 0.0768903 0.0764457 0.0758792 0.0751907 0.0743803 0.0734479 0.0723935 0.0712423 0.0700194 0.0687247 0.0673583 0.0659201 0.0644102 0.0628286 0.0611752 0.0594758 0.057756 0.0560158 0.0542553 0.0524745 0.0506732 0.0488516 0.0470097 0.0451672 0.0433439 0.0415399 0.0397552 0.0379898 0.0362435 0.0345166 0.0328089 0.0311318 0.0294966 0.0279033 0.026352 0.0248425 0.023375 0.0219494 0.0205657 0.0192276 0.0179387 0.016699 0.0155086 0.0143675 0.0132756 0.0122329 0.0112395 0.0102941 0.00939554 0.00854381 0.0077389 0.00698082 0.00626958 0.00560516 0.00498756 0.00441341 0.00387931 0.00338527 0.00293128 0.00251734 0.00214346 0.00180963 0.00151585 0.00125592 0.00102364 0.000818996 0.000641996 0.000492639 0.000370925 0.000276854 0.000210426 0.000161108 0.000118365 8.21978e-05 5.26066e-05 2.95912e-05 1.31516e-05 3.28791e-06 0 0 8.41083e-05 0.000336433 0.000756974 0.00134573 0.00210271 0.0030279 0.00412131 0.00538293 0.00682988 0.00847926 0.0103311 0.0123853 0.014642 0.0171012 0.0197627 0.0226267 0.0256177 0.0286603 0.0317544 0.0349001 0.0380974 0.0413462 0.0446466 0.0479986 0.05133 0.0545687 0.0577148 0.0607681 0.0637287 0.0665967 0.0693719 0.0720545 0.0746062 0.0769888 0.0792025 0.0812471 0.0831227 0.0848293 0.0863669 0.0877354 0.0889292 0.0899423 0.0907749 0.0914269 0.0918983 0.0921892 0.0922995 0.0922292 0.0919961 0.0916181 0.0910951 0.0904273 0.0896144 0.0886567 0.0875539 0.0863063 0.0849434 0.0834949 0.0819609 0.0803412 0.078636 0.0768453 0.074969 0.073007 0.07099 0.0689484 0.0668821 0.0647911 0.0626755 0.0605352 0.0583703 0.0561808 0.0539901 0.0518219 0.0496762 0.047553 0.0454522 0.0433739 0.0413181 0.0392848 0.0372874 0.0353396 0.0334414 0.0315926 0.0297935 0.0280438 0.0263438 0.0246932 0.0230966 0.0215585 0.0200788 0.0186574 0.0172945 0.01599 0.0147439 0.0135562 0.0124256 0.0113505 0.0103311 0.00936728 0.0084591 0.00760654 0.0068096 0.00606827 0.00537854 0.00473635 0.00414172 0.00359464 0.00309511 0.00264313 0.0022387 0.00188182 0.00156525 0.00128173 0.00103126 0.000813842 0.000629479 0.000478169 0.000359912 0.000274709 0.000210324 0.000154524 0.000107308 6.86771e-05 3.86309e-05 1.71693e-05 4.29232e-06 0 0 0.000100138 0.000400551 0.000901239 0.0016022 0.00250344 0.00360496 0.00490674 0.00640881 0.00812858 0.0100835 0.0122735 0.0146986 0.0173589 0.0202543 0.0233849 0.0267505 0.0302632 0.0338349 0.0374655 0.041155 0.0449034 0.0487109 0.0525772 0.0565025 0.0604031 0.0641952 0.067879 0.0714544 0.0749214 0.07828 0.0815302 0.0846721 0.087661 0.0904524 0.0930465 0.095443 0.0976421 0.0996437 0.101448 0.103055 0.104457 0.105648 0.106628 0.107397 0.107954 0.108301 0.108436 0.108359 0.108093 0.107656 0.10705 0.106273 0.105327 0.104211 0.102925 0.101469 0.0998777 0.0981859 0.0963934 0.0945003 0.0925065 0.0904121 0.088217 0.0859213 0.0835605 0.0811703 0.0787507 0.0763016 0.0738232 0.0713153 0.068778 0.0662112 0.0636427 0.0611 0.0585832 0.0560922 0.0536271 0.0511878 0.0487743 0.0463867 0.0440409 0.0417528 0.0395225 0.0373499 0.0352351 0.033178 0.0311787 0.0292371 0.0273585 0.0255483 0.0238064 0.0221328 0.0205276 0.0189907 0.0175221 0.0161218 0.0147883 0.0135199 0.0123167 0.0111787 0.0101057 0.00909796 0.00815533 0.00727786 0.00646079 0.00569939 0.00499367 0.00434361 0.00374923 0.00321051 0.00272747 0.00230009 0.00192004 0.00157896 0.00127686 0.00101373 0.00078958 0.000604402 0.000458198 0.000350968 0.00026871 0.00019742 0.000137097 8.77421e-05 4.93549e-05 2.19355e-05 5.48388e-06 0 0 0.000117743 0.000470972 0.00105969 0.00188389 0.00294357 0.00423875 0.00576941 0.00753555 0.0095544 0.0118432 0.0144019 0.0172306 0.0203291 0.0236977 0.0273361 0.0312445 0.0353211 0.0394643 0.0436741 0.0479505 0.0522935 0.056703 0.0611791 0.0657218 0.0702352 0.0746233 0.0788861 0.0830237 0.087036 0.090923 0.0946848 0.0983213 0.101781 0.105013 0.108017 0.110793 0.113341 0.115661 0.117753 0.119617 0.121245 0.122629 0.123769 0.124664 0.125316 0.125723 0.125886 0.125805 0.125503 0.125004 0.124309 0.123417 0.122328 0.121043 0.11956 0.117881 0.116045 0.114092 0.112022 0.109835 0.107532 0.105111 0.102573 0.0999179 0.0971871 0.0944217 0.0916217 0.0887869 0.0859175 0.0830133 0.0800746 0.0771011 0.074125 0.0711782 0.0682609 0.0653729 0.0625143 0.0596851 0.0568852 0.0541148 0.0513922 0.0487362 0.0461468 0.0436238 0.0411674 0.0387775 0.0364542 0.0341973 0.0320132 0.0299081 0.027882 0.0259349 0.0240668 0.0222776 0.0205675 0.0189363 0.0173824 0.0159038 0.0145007 0.013173 0.0119207 0.0107438 0.00964236 0.00861631 0.00766016 0.00676843 0.00594111 0.0051782 0.0044797 0.00384561 0.00327593 0.00277066 0.0023203 0.00191535 0.00155581 0.00124167 0.000972944 0.000749624 0.000571711 0.000439206 0.000336267 0.000247053 0.000171565 0.000109801 6.17633e-05 2.74504e-05 6.86259e-06 0 0 0.000136924 0.000547697 0.00123232 0.00219079 0.00342311 0.00492927 0.00670929 0.00876315 0.0111074 0.0137584 0.0167163 0.0199811 0.0235527 0.0274311 0.0316164 0.0361086 0.0407914 0.0455487 0.0503805 0.0552867 0.0602675 0.0653227 0.0704524 0.0756566 0.0808264 0.0858528 0.090736 0.0954759 0.100072 0.104526 0.108836 0.113002 0.116967 0.120671 0.124115 0.127298 0.13022 0.132882 0.135283 0.137424 0.139294 0.140886 0.142197 0.14323 0.143983 0.144456 0.14465 0.144564 0.144226 0.143663 0.142873 0.141859 0.140618 0.139152 0.137461 0.135543 0.133446 0.131214 0.128848 0.126347 0.123711 0.120941 0.118036 0.114997 0.11187 0.108703 0.105495 0.102247 0.0989584 0.0956295 0.0922601 0.0888503 0.0854369 0.0820565 0.0787092 0.075395 0.0721139 0.0688658 0.0656508 0.0624689 0.0593415 0.0562899 0.0533142 0.0504144 0.0475904 0.0448424 0.0421702 0.0395739 0.0370607 0.0346379 0.0323056 0.0300636 0.027912 0.0258509 0.0238801 0.0219997 0.0202078 0.0185022 0.0168831 0.0153504 0.0139041 0.0125442 0.0112707 0.0100836 0.00897666 0.00794347 0.00698404 0.00609839 0.00528652 0.00454841 0.00388408 0.00329352 0.00276603 0.00229089 0.0018681 0.00149766 0.00117957 0.000913834 0.000700451 0.00053942 0.000412994 0.000303424 0.000210711 0.000134855 7.5856e-05 3.37138e-05 8.42844e-06 0 0 0.000157682 0.000630726 0.00141913 0.0025229 0.00394204 0.00567653 0.00772639 0.0100916 0.0127875 0.0158292 0.0192168 0.0229502 0.0270296 0.0314548 0.0362259 0.0413428 0.046674 0.0520879 0.0575844 0.0631636 0.0688254 0.0745699 0.080397 0.0863068 0.0921767 0.097884 0.103429 0.108811 0.114031 0.119088 0.123983 0.128715 0.133218 0.137426 0.141339 0.144956 0.148279 0.151305 0.154037 0.156474 0.158604 0.160417 0.161913 0.163092 0.163955 0.1645 0.164728 0.164639 0.164263 0.163631 0.162743 0.161598 0.160197 0.15854 0.156626 0.154455 0.15208 0.149552 0.14687 0.144034 0.141045 0.137903 0.134607 0.131158 0.127609 0.124013 0.120371 0.116682 0.112946 0.109164 0.105335 0.101459 0.0975785 0.0937349 0.0899283 0.0861586 0.0824259 0.07873 0.0750711 0.0714491 0.0678885 0.0644137 0.0610247 0.0577216 0.0545042 0.0513726 0.0483268 0.0453668 0.042501 0.0397377 0.0370771 0.0345189 0.0320633 0.0297103 0.0274599 0.025312 0.0232644 0.021315 0.0194638 0.0177107 0.0160558 0.014499 0.0130403 0.0116798 0.0104103 0.0092245 0.00812247 0.0071042 0.00616969 0.00531893 0.00455193 0.00386869 0.00325722 0.00270557 0.00221373 0.00178169 0.00140946 0.00109703 0.00084442 0.000651613 0.000498891 0.000366532 0.000254536 0.000162903 9.1633e-05 4.07258e-05 1.01814e-05 0 0 0.000179595 0.000718378 0.00161635 0.00287351 0.00448986 0.00646541 0.00880013 0.0114941 0.0145607 0.0180138 0.0218532 0.0260789 0.030691 0.0356894 0.0410741 0.0468452 0.052855 0.0589555 0.065147 0.0714293 0.0778025 0.0842665 0.0908214 0.0974672 0.104067 0.110484 0.116719 0.122771 0.128641 0.134328 0.139832 0.145154 0.150218 0.154952 0.159354 0.163425 0.167164 0.170572 0.173649 0.176394 0.178796 0.180841 0.182531 0.183864 0.184841 0.185462 0.185727 0.185636 0.185222 0.18452 0.18353 0.182251 0.180683 0.178827 0.176683 0.17425 0.171587 0.16875 0.16574 0.162557 0.159201 0.155671 0.151969 0.148093 0.144104 0.140062 0.135967 0.131818 0.127617 0.123362 0.119053 0.114692 0.110324 0.105997 0.101711 0.0974655 0.0932611 0.0890976 0.0849748 0.080893 0.0768795 0.0729622 0.0691409 0.0654158 0.0617867 0.0582536 0.0548167 0.0514758 0.0482406 0.0451206 0.0421158 0.0392262 0.0364518 0.0337926 0.0312486 0.0288197 0.0265037 0.0242981 0.0222028 0.0202179 0.0183434 0.0165792 0.0149255 0.013382 0.0119409 0.0105939 0.00934109 0.00818243 0.00711792 0.00614757 0.00527139 0.00448936 0.00378824 0.00315477 0.00258896 0.00209081 0.00166032 0.00129748 0.0010023 0.000774778 0.00059319 0.000435813 0.000302648 0.000193695 0.000108953 4.84236e-05 1.21059e-05 0 0 0.000202243 0.000808973 0.00182019 0.00323589 0.00505608 0.00728076 0.00990992 0.0129436 0.0163933 0.0202706 0.0245755 0.029308 0.0344681 0.0400558 0.0460711 0.052514 0.0592201 0.0660251 0.0729291 0.0799319 0.0870337 0.0942343 0.101534 0.108932 0.116279 0.123422 0.130362 0.137098 0.143632 0.149962 0.156089 0.162013 0.167651 0.172922 0.177824 0.182358 0.186524 0.190321 0.193751 0.196813 0.199492 0.201776 0.203663 0.205155 0.20625 0.20695 0.207254 0.207162 0.206711 0.205939 0.204846 0.203431 0.201696 0.199639 0.197261 0.194561 0.191605 0.188455 0.185111 0.181574 0.177844 0.173921 0.169804 0.165493 0.161056 0.156559 0.152002 0.147384 0.142707 0.137969 0.133171 0.128313 0.123447 0.118626 0.113849 0.109118 0.104431 0.0997884 0.0951907 0.0906378 0.0861605 0.0817896 0.0775253 0.0733674 0.069316 0.0653711 0.0615327 0.0578008 0.0541862 0.0506996 0.0473411 0.0441107 0.0410083 0.038034 0.0351878 0.0324697 0.029877 0.0274071 0.0250601 0.0228359 0.0207345 0.018756 0.0169003 0.0151674 0.0135484 0.0120341 0.0106246 0.00931988 0.00811993 0.00702476 0.00603437 0.00514875 0.00435341 0.00363385 0.00299007 0.00242208 0.00192986 0.00151343 0.00117278 0.000907913 0.000695121 0.000510701 0.000354654 0.000226978 0.000127675 5.67446e-05 1.41861e-05 0 0 0.000225628 0.000902511 0.00203065 0.00361005 0.0056407 0.0081226 0.0110558 0.0144402 0.018285 0.0225995 0.0273837 0.0326375 0.0383609 0.0445539 0.0512166 0.0583489 0.0657694 0.0732967 0.0809308 0.0886715 0.0965191 0.104473 0.112534 0.120702 0.128811 0.136696 0.144356 0.151792 0.159004 0.165992 0.172755 0.179294 0.185517 0.191336 0.196749 0.201756 0.206357 0.210553 0.214344 0.217729 0.220693 0.22322 0.225311 0.226965 0.228183 0.228964 0.229309 0.229217 0.22873 0.227888 0.226691 0.22514 0.223234 0.220974 0.218358 0.215388 0.212134 0.208666 0.204983 0.201087 0.196976 0.192651 0.188112 0.183359 0.178465 0.173503 0.168475 0.163379 0.158216 0.152985 0.147688 0.142322 0.136948 0.131622 0.126344 0.121115 0.115934 0.110802 0.105719 0.100684 0.0957314 0.0908961 0.0861778 0.0815765 0.0770923 0.072725 0.0684748 0.0643417 0.0603376 0.0564747 0.0527529 0.0491723 0.0457329 0.0424347 0.0392776 0.0362617 0.0333841 0.0306421 0.0280356 0.0255646 0.0232292 0.0210293 0.0189649 0.017036 0.0152328 0.0135451 0.011973 0.0105166 0.00917572 0.00795049 0.00684087 0.00584686 0.00495274 0.00414281 0.00341706 0.00277549 0.0022181 0.00174489 0.00135586 0.00105102 0.000804685 0.000591197 0.000410554 0.000262754 0.000147799 6.56886e-05 1.64221e-05 0 0 0.000249748 0.000998992 0.00224773 0.00399597 0.0062437 0.00899093 0.0122377 0.0159839 0.0202361 0.0250007 0.0302778 0.0360674 0.0423694 0.0491839 0.0565108 0.0643502 0.072503 0.0807703 0.089152 0.0976481 0.106259 0.114984 0.123823 0.132777 0.141665 0.150307 0.158703 0.166854 0.174758 0.182416 0.189828 0.196995 0.203816 0.210194 0.216128 0.221619 0.226665 0.231268 0.235428 0.239143 0.242398 0.245175 0.247474 0.249296 0.250639 0.251505 0.251893 0.251803 0.251279 0.250367 0.249067 0.247377 0.245299 0.242832 0.239976 0.236732 0.233175 0.229383 0.225356 0.221093 0.216595 0.211862 0.206893 0.201689 0.19633 0.190896 0.185387 0.179803 0.174145 0.168411 0.162603 0.156721 0.150826 0.144985 0.139195 0.133458 0.127773 0.12214 0.116559 0.111031 0.105592 0.100281 0.0950984 0.090043 0.0851154 0.0803154 0.0756431 0.0710984 0.0666949 0.0624459 0.0583513 0.0544112 0.0506257 0.0469946 0.043518 0.0401959 0.0370252 0.0340031 0.0311294 0.0284041 0.0258273 0.023399 0.0211192 0.0189878 0.016994 0.0151268 0.0133863 0.0117725 0.0102853 0.00892477 0.0076909 0.00658369 0.00558624 0.00468165 0.00386992 0.00315104 0.00252502 0.00199185 0.00155154 0.00120409 0.000921882 0.000677301 0.000470348 0.000301023 0.000169325 7.52557e-05 1.88139e-05 0 0 0.000274604 0.00109842 0.00247144 0.00439366 0.0068651 0.00988574 0.0134556 0.0175747 0.0222463 0.0274741 0.0332579 0.0395977 0.0464936 0.0539456 0.0619536 0.0705177 0.0794208 0.0884458 0.0975927 0.106862 0.116252 0.125765 0.1354 0.145157 0.15484 0.164255 0.173403 0.182282 0.190893 0.199235 0.20731 0.215117 0.222548 0.229496 0.235963 0.241946 0.247447 0.252466 0.257002 0.261055 0.264608 0.26764 0.270153 0.272145 0.273618 0.274571 0.275004 0.274917 0.274359 0.273377 0.271971 0.270142 0.26789 0.265214 0.262114 0.258591 0.254728 0.250607 0.24623 0.241595 0.236703 0.231554 0.226148 0.220484 0.214651 0.208735 0.202737 0.196656 0.190493 0.184247 0.177918 0.171507 0.165083 0.158714 0.152402 0.146145 0.139945 0.1338 0.127711 0.121679 0.115743 0.109946 0.104287 0.098767 0.0933853 0.0881421 0.0830374 0.0780711 0.0732581 0.0686132 0.0641362 0.0598273 0.0556865 0.0517137 0.0479089 0.0442722 0.0408003 0.03749 0.0343414 0.0313544 0.028529 0.0258653 0.0233632 0.0210228 0.0188321 0.0167793 0.0148645 0.0130876 0.0114486 0.00994758 0.00858445 0.00735925 0.00625391 0.00525037 0.00434865 0.00354873 0.00285062 0.00225432 0.00175982 0.00136713 0.00104671 0.000769013 0.000534037 0.000341783 0.000192253 8.54459e-05 2.13615e-05 0 0 0.000300196 0.00120078 0.00270176 0.00480313 0.00750489 0.010807 0.0147096 0.0192125 0.0243159 0.0300196 0.0363239 0.0432285 0.0507336 0.0588391 0.0675451 0.0768515 0.0865227 0.0963232 0.106253 0.116312 0.1265 0.136818 0.147265 0.157841 0.168336 0.178541 0.188454 0.198077 0.207409 0.21645 0.2252 0.233659 0.241712 0.249243 0.256252 0.262739 0.268703 0.274146 0.279067 0.283465 0.287322 0.290615 0.293346 0.295515 0.29712 0.298163 0.298644 0.298561 0.297968 0.296916 0.295406 0.293436 0.291007 0.288119 0.284772 0.280967 0.276792 0.272338 0.267604 0.262591 0.257298 0.251726 0.245875 0.239745 0.233429 0.227023 0.220526 0.213938 0.20726 0.200492 0.193632 0.186682 0.179717 0.172811 0.165965 0.159178 0.152451 0.145784 0.139176 0.132628 0.126184 0.119889 0.113744 0.107748 0.101902 0.0962053 0.0906578 0.0852597 0.0800272 0.0749766 0.0701077 0.0654207 0.0609154 0.056592 0.0524504 0.0484906 0.0447092 0.0411029 0.0376716 0.0344154 0.0313342 0.028428 0.0256969 0.0231409 0.0207471 0.0185026 0.0164076 0.014462 0.0126658 0.0110189 0.00952153 0.00817352 0.00695573 0.00584897 0.00485325 0.00396856 0.00319491 0.00253229 0.0019807 0.00154015 0.00117917 0.000866332 0.00060162 0.000385036 0.000216583 9.62591e-05 2.40648e-05 0 0 0.000326523 0.00130609 0.00293871 0.00522437 0.00816307 0.0117548 0.0159996 0.0208975 0.0264446 0.0326374 0.0394758 0.0469597 0.0550893 0.0638644 0.0732852 0.0833516 0.0938089 0.104403 0.115133 0.125999 0.137002 0.148142 0.159418 0.17083 0.182153 0.193163 0.203858 0.214239 0.224306 0.234059 0.243498 0.252623 0.26131 0.269434 0.276996 0.283996 0.290434 0.296309 0.301622 0.306373 0.31054 0.314101 0.317055 0.319404 0.321146 0.322282 0.322811 0.322735 0.322108 0.320