<?xml version="1.0"?> 
<VTKFile type="StructuredGrid" version="0.1"> 
<StructuredGrid WholeExtent="0 128 0 128 0 0"> 
<Piece Extent="0 128 0 128 0 0"> 
<PointData>
<DataArray type="Float32" Name="u" format="ascii" NumberOfComponents="1"> 
0 0 0 0 0 0 0 0 0 0 0 0 0 0 0 0 0 0 0 0 0 0 0 0 0 0 0 0 0 0 0 0 0 0 0 0 0 0 0 0 0 0 0 0 0 0 0 0 0 0 0 0 0 0 0 0 0 0 0 0 0 0 0 0 0 0 0 0 0 0 0 0 0 0 0 0 0 0 0 0 0 0 0 0 0 0 0 0 0 0 0 0 0 0 0 0 0 0 0 0 0 0 0 0 0 0 0 0 0 0 0 0 0 0 0 0 0 0 0 0 0 0 0 0 0 0 0 0 0 0 1.24435e-07 4.97741e-07 1.11992e-06 1.99096e-06 3.11088e-06 4.47967e-06 6.09732e-06 7.96385e-06 1.01213e-05 1.26118e-05 1.54352e-05 1.85916e-05 2.2081e-05 2.59034e-05 3.00588e-05 3.45472e-05 3.92415e-05 4.40146e-05 4.88666e-05 5.37975e-05 5.88072e-05 6.38958e-05 6.90632e-05 7.43095e-05 7.95158e-05 8.45632e-05 8.94517e-05 9.41814e-05 9.87522e-05 0.000103164 0.000107417 0.000111511 0.000115399 0.000119033 0.000122414 0.000125541 0.000128414 0.000131033 0.000133399 0.00013551 0.00013738 0.000139019 0.000140427 0.000141604 0.00014255 0.000143266 0.000143751 0.000144005 0.000144069 0.000143984 0.000143748 0.000143364 0.000142829 0.000142145 0.000141312 0.000140329 0.000139235 0.000138072 0.000136837 0.000135532 0.000134157 0.000132711 0.000131194 0.000129607 0.000127969 0.0001263 0.0001246 0.000122869 0.000121108 0.000119316 0.000117492 0.000115638 0.000113752 0.000111834 0.000109882 0.000107898 0.000105881 0.000103832 0.000101749 9.96341e-05 9.74774e-05 9.52702e-05 9.30125e-05 9.07044e-05 8.83459e-05 8.5937e-05 8.34776e-05 8.09677e-05 7.84083e-05 7.58002e-05 7.31433e-05 7.04378e-05 6.76834e-05 6.48804e-05 6.20287e-05 5.91282e-05 5.62025e-05 5.32751e-05 5.0346e-05 4.74152e-05 4.44828e-05 4.15486e-05 3.86127e-05 3.56752e-05 3.27836e-05 2.99858e-05 2.72818e-05 2.46714e-05 2.21548e-05 1.97319e-05 1.74028e-05 1.51674e-05 1.30655e-05 1.1137e-05 9.38188e-06 7.8001e-06 6.39168e-06 5.15662e-06 4.09493e-06 3.2066e-06 2.45505e-06 1.80371e-06 1.25258e-06 8.0165e-07 4.50928e-07 2.00412e-07 5.01031e-08 0 0 4.97741e-07 1.99096e-06 4.47967e-06 7.96385e-06 1.24435e-05 1.79187e-05 2.43893e-05 3.18554e-05 4.04852e-05 5.0447e-05 6.17408e-05 7.43664e-05 8.83241e-05 0.000103614 0.000120235 0.000138189 0.000156966 0.000176059 0.000195467 0.00021519 0.000235229 0.000255583 0.000276253 0.000297238 0.000318063 0.000338253 0.000357807 0.000376726 0.000395009 0.000412657 0.000429669 0.000446046 0.000461597 0.000476134 0.000489656 0.000502163 0.000513655 0.000524132 0.000533594 0.000542041 0.00054952 0.000556075 0.000561707 0.000566416 0.000570202 0.000573065 0.000575004 0.000576021 0.000576277 0.000575934 0.000574993 0.000573454 0.000571317 0.000568581 0.000565247 0.000561314 0.000556941 0.000552286 0.000547349 0.000542129 0.000536627 0.000530842 0.000524775 0.000518426 0.000511874 0.000505199 0.0004984 0.000491477 0.000484432 0.000477262 0.000469969 0.000462553 0.00045501 0.000447335 0.00043953 0.000431593 0.000423525 0.000415327 0.000406997 0.000398536 0.000389909 0.000381081 0.00037205 0.000362818 0.000353384 0.000343748 0.00033391 0.000323871 0.000313633 0.000303201 0.000292573 0.000281751 0.000270734 0.000259522 0.000248115 0.000236513 0.00022481 0.0002131 0.000201384 0.000189661 0.000177931 0.000166194 0.000154451 0.000142701 0.000131135 0.000119943 0.000109127 9.86857e-05 8.86193e-05 7.89278e-05 6.96112e-05 6.06695e-05 5.22621e-05 4.45481e-05 3.75275e-05 3.12004e-05 2.55667e-05 2.06265e-05 1.63797e-05 1.28264e-05 9.82021e-06 7.21485e-06 5.01031e-06 3.2066e-06 1.80371e-06 8.0165e-07 2.00412e-07 0 0 1.11992e-06 4.47967e-06 1.00792e-05 1.79187e-05 2.79979e-05 4.0317e-05 5.48759e-05 7.16747e-05 9.10918e-05 0.000113506 0.000138917 0.000167324 0.000198729 0.000233131 0.000270529 0.000310925 0.000353173 0.000396132 0.0004398 0.000484178 0.000529265 0.000575062 0.000621569 0.000668786 0.000715642 0.000761069 0.000805066 0.000847633 0.00088877 0.000928477 0.000966755 0.0010036 0.00103859 0.0010713 0.00110173 0.00112987 0.00115572 0.0011793 0.00120059 0.00121959 0.00123642 0.00125117 0.00126384 0.00127444 0.00128295 0.0012894 0.00129376 0.00129605 0.00129662 0.00129585 0.00129373 0.00129027 0.00128546 0.00127931 0.0012718 0.00126296 0.00125312 0.00124264 0.00123153 0.00121979 0.00120741 0.0011944 0.00118074 0.00116646 0.00115172 0.0011367 0.0011214 0.00110582 0.00108997 0.00107384 0.00105743 0.00104074 0.00102377 0.0010065 0.000988942 0.000971084 0.000952932 0.000934485 0.000915744 0.000896707 0.000877296 0.000857431 0.000837113 0.00081634 0.000795113 0.000773433 0.000751298 0.00072871 0.000705675 0.000682202 0.00065829 0.00063394 0.000609151 0.000583924 0.000558258 0.000532154 0.000505822 0.000479476 0.000453114 0.000426737 0.000400345 0.000373937 0.000347515 0.000321077 0.000295053 0.000269873 0.000245536 0.000222043 0.000199393 0.000177588 0.000156625 0.000136506 0.00011759 0.000100233 8.44369e-05 7.02009e-05 5.75251e-05 4.64096e-05 3.68544e-05 2.88594e-05 2.20955e-05 1.62334e-05 1.12732e-05 7.21485e-06 4.05835e-06 1.80371e-06 4.50928e-07 0 0 1.99096e-06 7.96385e-06 1.79187e-05 3.18554e-05 4.97741e-05 7.16747e-05 9.75572e-05 0.000127422 0.000161941 0.000201788 0.000246963 0.000297466 0.000353296 0.000414455 0.000480941 0.000552755 0.000627864 0.000704234 0.000781866 0.00086076 0.000940916 0.00102233 0.00110501 0.00118895 0.00127225 0.00135301 0.00143123 0.0015069 0.00158004 0.00165063 0.00171868 0.00178418 0.00184639 0.00190454 0.00195862 0.00200865 0.00205462 0.00209653 0.00213438 0.00216817 0.00219808 0.0022243 0.00224683 0.00226566 0.00228081 0.00229226 0.00230002 0.00230408 0.00230511 0.00230374 0.00229997 0.00229382 0.00228527 0.00227432 0.00226099 0.00224526 0.00222777 0.00220914 0.00218939 0.00216852 0.00214651 0.00212337 0.0020991 0.00207371 0.0020475 0.0020208 0.0019936 0.00196591 0.00193773 0.00190905 0.00187988 0.00185021 0.00182004 0.00178934 0.00175812 0.00172637 0.0016941 0.00166131 0.00162799 0.00159415 0.00155964 0.00152432 0.0014882 0.00145127 0.00141353 0.00137499 0.00133564 0.00129548 0.00125453 0.0012128 0.00117029 0.001127 0.00108294 0.00103809 0.000992459 0.000946051 0.00089924 0.000852402 0.000805536 0.000758644 0.000711724 0.000664778 0.000617804 0.000570803 0.000524538 0.000479774 0.000436508 0.000394743 0.000354477 0.000315711 0.000278445 0.000242678 0.000209048 0.000178192 0.00015011 0.000124802 0.000102267 8.2506e-05 6.55189e-05 5.13056e-05 3.92808e-05 2.88594e-05 2.00412e-05 1.28264e-05 7.21485e-06 3.2066e-06 8.0165e-07 0 0 3.11088e-06 1.24435e-05 2.79979e-05 4.97741e-05 7.7772e-05 0.000111992 0.000152433 0.000199096 0.000253033 0.000315294 0.00038588 0.00046479 0.000552026 0.000647585 0.00075147 0.00086368 0.000981037 0.00110037 0.00122167 0.00134494 0.00147018 0.00159739 0.00172658 0.00185774 0.00198789 0.00211408 0.00223629 0.00235454 0.00246881 0.0025791 0.00268543 0.00278779 0.00288498 0.00297584 0.00306035 0.00313852 0.00321034 0.00327582 0.00333496 0.00338776 0.0034345 0.00347547 0.00351067 0.0035401 0.00356376 0.00358165 0.00359378 0.00360013 0.00360173 0.00359959 0.00359371 0.00358409 0.00357073 0.00355363 0.00353279 0.00350821 0.00348088 0.00345179 0.00342093 0.00338831 0.00335392 0.00331776 0.00327985 0.00324016 0.00319921 0.00315749 0.003115 0.00307173 0.0030277 0.00298289 0.00293731 0.00289096 0.00284381 0.00279584 0.00274706 0.00269746 0.00264703 0.00259579 0.00254373 0.00249085 0.00243693 0.00238175 0.00232531 0.00226761 0.00220865 0.00214842 0.00208694 0.00202419 0.00196021 0.00189501 0.00182858 0.00176094 0.00169209 0.00162201 0.00155072 0.0014782 0.00140506 0.00133188 0.00125865 0.00118538 0.00111207 0.00103871 0.000965318 0.00089188 0.000819591 0.000749646 0.000682044 0.000616786 0.000553871 0.000493299 0.00043507 0.000379185 0.000326638 0.000278425 0.000234547 0.000195002 0.000159792 0.000128916 0.000102373 8.0165e-05 6.13763e-05 4.50928e-05 3.13144e-05 2.00412e-05 1.12732e-05 5.01031e-06 1.25258e-06 0 0 4.47967e-06 1.79187e-05 4.0317e-05 7.16747e-05 0.000111992 0.000161268 0.000219504 0.000286699 0.000364367 0.000454023 0.000555667 0.000669298 0.000794917 0.000932523 0.00108212 0.0012437 0.00141269 0.00158453 0.0017592 0.00193671 0.00211706 0.00230025 0.00248628 0.00267514 0.00286257 0.00304428 0.00322026 0.00339053 0.00355508 0.00371391 0.00386702 0.00401441 0.00415438 0.00428521 0.0044069 0.00451946 0.00462289 0.00471719 0.00480235 0.00487837 0.00494568 0.00500467 0.00505536 0.00509774 0.00513182 0.00515758 0.00517504 0.00518419 0.00518649 0.00518341 0.00517494 0.00516109 0.00514185 0.00511723 0.00508722 0.00505183 0.00501247 0.00497058 0.00492614 0.00487916 0.00482964 0.00477758 0.00472298 0.00466584 0.00460687 0.00454679 0.0044856 0.0044233 0.00435988 0.00429536 0.00422972 0.00416298 0.00409509 0.00402602 0.00395577 0.00388434 0.00381173 0.00373794 0.00366297 0.00358683 0.00350918 0.00342973 0.00334845 0.00326536 0.00318045 0.00309373 0.00300519 0.00291484 0.0028227 0.00272881 0.00263316 0.00253576 0.0024366 0.00233569 0.00223303 0.00212861 0.00202329 0.0019179 0.00181246 0.00170695 0.00160138 0.00149575 0.00139006 0.00128431 0.00118021 0.00107949 0.000982144 0.000888172 0.000797574 0.00071035 0.000626501 0.000546026 0.000470359 0.000400933 0.000337748 0.000280803 0.0002301 0.000185638 0.000147417 0.000115438 8.83819e-05 6.49336e-05 4.50928e-05 2.88594e-05 1.62334e-05 7.21485e-06 1.80371e-06 0 0 6.09732e-06 2.43893e-05 5.48759e-05 9.75572e-05 0.000152433 0.000219504 0.000298769 0.000390229 0.000495944 0.000617976 0.000756324 0.000910989 0.00108197 0.00126927 0.00147288 0.00169281 0.00192283 0.00215672 0.00239447 0.00263608 0.00288155 0.00313089 0.0033841 0.00364117 0.00389627 0.0041436 0.00438314 0.00461489 0.00483886 0.00505504 0.00526344 0.00546406 0.00565457 0.00583264 0.00599828 0.00615149 0.00629227 0.00642061 0.00653653 0.00664001 0.00673162 0.00681192 0.00688091 0.0069386 0.00698497 0.00702004 0.0070438 0.00705625 0.00705939 0.00705519 0.00704367 0.00702481 0.00699863 0.00696511 0.00692427 0.0068761 0.00682253 0.00676551 0.00670502 0.00664108 0.00657368 0.00650282 0.0064285 0.00635072 0.00627046 0.00618869 0.0061054 0.0060206 0.00593429 0.00584646 0.00575713 0.00566628 0.00557387 0.00547986 0.00538424 0.00528701 0.00518819 0.00508775 0.00498571 0.00488207 0.00477639 0.00466824 0.00455761 0.00444452 0.00432895 0.00421091 0.0040904 0.00396742 0.00384201 0.00371421 0.00358402 0.00345145 0.00331649 0.00317914 0.0030394 0.00289728 0.00275392 0.00261048 0.00246695 0.00232335 0.00217966 0.00203588 0.00189202 0.00174808 0.0016064 0.00146931 0.00133681 0.0012089 0.00108559 0.000966865 0.000852737 0.000743202 0.000640211 0.000545714 0.000459712 0.000382205 0.000313192 0.000252675 0.000200652 0.000157123 0.000120298 8.83819e-05 6.13763e-05 3.92808e-05 2.20955e-05 9.82021e-06 2.45505e-06 0 0 7.96385e-06 3.18554e-05 7.16747e-05 0.000127422 0.000199096 0.000286699 0.000390229 0.000509686 0.000647764 0.000807152 0.000987852 0.00118986 0.00141319 0.00165782 0.00192376 0.00221102 0.00251145 0.00281694 0.00312747 0.00344304 0.00376366 0.00408933 0.00442005 0.00475581 0.00508901 0.00541204 0.00572491 0.00602761 0.00632014 0.00660251 0.0068747 0.00713673 0.00738556 0.00761814 0.00783449 0.0080346 0.00821848 0.00838611 0.00853751 0.00867266 0.00879232 0.0088972 0.00898731 0.00906266 0.00912323 0.00916903 0.00920007 0.00921633 0.00922043 0.00921495 0.00919989 0.00917526 0.00914106 0.00909729 0.00904395 0.00898103 0.00891106 0.00883658 0.00875758 0.00867406 0.00858603 0.00849348 0.00839641 0.00829482 0.00818999 0.00808318 0.0079744 0.00786364 0.0077509 0.0076362 0.00751951 0.00740085 0.00728015 0.00715736 0.00703247 0.00690549 0.00677641 0.00664523 0.00651195 0.00637658 0.00623855 0.00609729 0.0059528 0.00580508 0.00565414 0.00549997 0.00534256 0.00518194 0.00501813 0.00485121 0.00468117 0.00450802 0.00433174 0.00415235 0.00396983 0.0037842 0.00359696 0.00340961 0.00322214 0.00303458 0.0028469 0.00265911 0.00247122 0.00228321 0.00209815 0.00191909 0.00174603 0.00157897 0.00141791 0.00126284 0.00111378 0.000970713 0.000836193 0.000712769 0.00060044 0.000499206 0.000409067 0.000330024 0.000262076 0.000205222 0.000157123 0.000115438 8.0165e-05 5.13056e-05 2.88594e-05 1.28264e-05 3.2066e-06 0 0 1.01588e-05 4.06353e-05 9.14294e-05 0.000162541 0.000253971 0.000365718 0.000497782 0.000650165 0.000826162 0.00102907 0.00125889 0.00151562 0.00179927 0.00210982 0.00244729 0.00281167 0.00319267 0.00358 0.00397367 0.00437368 0.00478002 0.00519269 0.00561169 0.00603703 0.00645911 0.00686834 0.0072647 0.00764822 0.00801888 0.00837668 0.00872162 0.00905372 0.00936911 0.00966398 0.00993832 0.0101921 0.0104254 0.0106381 0.0108304 0.011002 0.0111541 0.0112875 0.0114021 0.0114981 0.0115754 0.011634 0.0116739 0.011695 0.0117008 0.0116944 0.0116759 0.0116452 0.0116024 0.0115474 0.0114802 0.011401 0.0113127 0.0112187 0.0111189 0.0110134 0.0109021 0.010785 0.0106621 0.0105335 0.0104007 0.0102654 0.0101275 0.00998711 0.00984414 0.00969863 0.00955057 0.00939997 0.00924675 0.00909085 0.00893227 0.008771 0.00860706 0.00844044 0.00827114 0.00809915 0.00792379 0.00774433 0.00756078 0.00737315 0.00718143 0.00698562 0.00678572 0.00658174 0.00637374 0.00616181 0.00594595 0.00572615 0.00550242 0.00527475 0.00504315 0.00480762 0.00457006 0.00433237 0.00409454 0.00385659 0.00361852 0.00338031 0.00314197 0.00290351 0.00266876 0.00244159 0.00222199 0.00200996 0.0018055 0.00160861 0.00141929 0.00123754 0.0010666 0.000909683 0.0007668 0.000637947 0.000523126 0.000422336 0.000335577 0.000262849 0.000201244 0.000147853 0.000102676 6.57123e-05 3.69632e-05 1.64281e-05 4.10702e-06 0 0 1.27618e-05 5.10473e-05 0.000114856 0.000204189 0.000319046 0.000459426 0.000625329 0.000816757 0.00103747 0.00129125 0.00157808 0.00189797 0.00225092 0.00263692 0.00305598 0.0035081 0.00398058 0.00446074 0.00494857 0.00544407 0.00594724 0.00645809 0.00697661 0.0075028 0.00802491 0.00853119 0.00902163 0.00949623 0.009955 0.0103979 0.010825 0.0112363 0.011627 0.0119924 0.0123325 0.0126474 0.0129369 0.0132012 0.0134401 0.0136538 0.0138433 0.0140097 0.014153 0.0142732 0.0143703 0.0144443 0.0144952 0.014523 0.0145317 0.0145254 0.0145039 0.0144674 0.0144157 0.014349 0.0142671 0.0141702 0.0140621 0.0139468 0.0138241 0.0136943 0.0135571 0.0134127 0.013261 0.0131021 0.0129379 0.0127705 0.0125997 0.0124257 0.0122484 0.0120678 0.011884 0.0116969 0.0115064 0.0113126 0.0111154 0.0109148 0.0107108 0.0105035 0.0102927 0.0100786 0.00986022 0.0096368 0.00940834 0.00917482 0.00893624 0.00869261 0.00844392 0.00819018 0.0079315 0.007668 0.00739968 0.00712654 0.00684858 0.0065658 0.0062782 0.00598578 0.00569088 0.00539584 0.00510067 0.00480536 0.00450992 0.00421434 0.00391863 0.00362278 0.00333151 0.00304952 0.00277683 0.00251342 0.0022593 0.00201447 0.00177893 0.00155268 0.00133971 0.00114404 0.000965658 0.000804568 0.000660769 0.000534261 0.000425045 0.000333119 0.000255044 0.00018738 0.000130125 8.32798e-05 4.68449e-05 2.082e-05 5.20499e-06 0 0 1.57728e-05 6.30914e-05 0.000141956 0.000252365 0.000394321 0.000567822 0.000772869 0.00100946 0.0012817 0.00159369 0.00194542 0.00233691 0.00276814 0.00323912 0.00374984 0.00430032 0.0048752 0.00545914 0.00605215 0.00665421 0.00726535 0.00788554 0.00851479 0.00915311 0.00978641 0.0104006 0.0109957 0.0115717 0.0121285 0.0126663 0.0131849 0.0136845 0.0141592 0.0146035 0.0150172 0.0154004 0.015753 0.0160752 0.0163669 0.016628 0.0168599 0.0170638 0.0172398 0.0173878 0.0175079 0.0176 0.0176641 0.0177003 0.0177132 0.0177078 0.017684 0.0176418 0.0175811 0.0175021 0.0174047 0.0172888 0.0171593 0.0170208 0.0168732 0.0167167 0.0165512 0.0163767 0.0161932 0.0160007 0.0158016 0.0155984 0.015391 0.0151794 0.0149637 0.0147438 0.0145198 0.0142916 0.0140593 0.0138227 0.0135819 0.0133369 0.0130877 0.0128343 0.0125767 0.0123148 0.0120478 0.0117747 0.0114955 0.0112101 0.0109186 0.0106209 0.0103172 0.0100073 0.00969141 0.00936978 0.00904237 0.00870919 0.00837022 0.00802548 0.00767496 0.00731867 0.00695941 0.00660003 0.00624052 0.00588088 0.00552112 0.00516122 0.00480119 0.00444104 0.0040864 0.0037429 0.00341056 0.00308937 0.00277933 0.00248044 0.0021927 0.00191611 0.00165554 0.00141584 0.00119702 0.000999068 0.000821996 0.000665799 0.000530478 0.000416032 0.000318524 0.000234018 0.000162512 0.000104008 5.85045e-05 2.6002e-05 6.5005e-06 0 0 1.91919e-05 7.67675e-05 0.000172727 0.00030707 0.000479797 0.000690908 0.000940402 0.00122828 0.00155884 0.00193639 0.00236092 0.00283243 0.00335093 0.00391641 0.00452887 0.00518832 0.00587652 0.00657521 0.00728441 0.00800411 0.00873432 0.00947503 0.0102262 0.010988 0.0117436 0.0124766 0.0131869 0.0138745 0.0145394 0.0151817 0.0158014 0.0163983 0.0169658 0.0174971 0.0179922 0.0184511 0.0188738 0.0192603 0.0196105 0.0199246 0.0202039 0.0204499 0.0206626 0.0208421 0.0209882 0.021101 0.0211805 0.0212267 0.0212453 0.0212417 0.0212161 0.0211684 0.0210986 0.0210068 0.0208928 0.0207568 0.0206042 0.0204407 0.0202662 0.0200808 0.0198843 0.0196769 0.0194585 0.0192292 0.0189917 0.0187491 0.0185013 0.0182482 0.01799 0.0177266 0.017458 0.0171842 0.0169052 0.016621 0.0163317 0.0160373 0.0157377 0.0154329 0.015123 0.014808 0.0144867 0.0141581 0.0138221 0.0134789 0.0131284 0.0127706 0.0124054 0.012033 0.0116535 0.0112671 0.010874 0.0104741 0.0100674 0.00965381 0.00923345 0.00880629 0.00837567 0.00794494 0.0075141 0.00708316 0.0066521 0.00622094 0.00578966 0.00535828 0.00493342 0.00452172 0.00412318 0.0037378 0.00336558 0.00300651 0.0026606 0.00232785 0.00201408 0.00172508 0.00146087 0.00122145 0.00100681 0.00081695 0.000651877 0.000511588 0.000391684 0.000287768 0.000199839 0.000127897 7.1942e-05 3.19742e-05 7.99356e-06 0 0 2.30189e-05 9.20758e-05 0.00020717 0.000368303 0.000575474 0.000828682 0.00112793 0.00147321 0.0018689 0.00231935 0.00282456 0.00338454 0.00399929 0.0046688 0.00539307 0.00617211 0.00698453 0.00780895 0.00864536 0.00949377 0.0103542 0.0112266 0.012111 0.0130074 0.0138965 0.0147591 0.0155952 0.0164047 0.0171878 0.0179443 0.0186742 0.0193777 0.0200467 0.0206734 0.0212576 0.0217996 0.0222991 0.0227563 0.0231711 0.0235436 0.0238753 0.0241679 0.0244215 0.0246359 0.0248112 0.0249474 0.0250445 0.0251025 0.0251279 0.0251271 0.0251003 0.0250473 0.0249682 0.0248629 0.0247316 0.0245741 0.0243969 0.0242066 0.0240031 0.0237864 0.0235565 0.0233134 0.0230571 0.0227876 0.0225083 0.0222227 0.0219306 0.0216322 0.0213274 0.0210161 0.0206985 0.0203745 0.0200442 0.0197077 0.0193649 0.019016 0.0186608 0.0182994 0.0179318 0.0175579 0.0171767 0.0167868 0.0163884 0.0159814 0.0155658 0.0151415 0.0147087 0.0142673 0.0138177 0.0133601 0.0128946 0.0124213 0.01194 0.0114508 0.0109537 0.0104487 0.00993965 0.00943056 0.00892141 0.00841218 0.00790287 0.00739349 0.00688403 0.0063745 0.00587259 0.00538598 0.00491469 0.00445871 0.00401804 0.00359268 0.00318263 0.0027879 0.00241532 0.00207177 0.00175723 0.00147171 0.0012152 0.000987713 0.000789241 0.000619786 0.000474524 0.00034863 0.000242104 0.000154947 8.71574e-05 3.87366e-05 9.68416e-06 0 0 2.7254e-05 0.000109016 0.000245286 0.000436064 0.000681351 0.000981145 0.00133545 0.00174426 0.00221187 0.00274257 0.00333636 0.00399324 0.00471322 0.00549628 0.00634244 0.00725169 0.00819925 0.00916035 0.010135 0.0111232 0.0121249 0.0131402 0.014169 0.0152113 0.0162451 0.0172482 0.0182206 0.0191624 0.0200735 0.0209539 0.0218036 0.0226227 0.023402 0.0241322 0.0248135 0.0254458 0.0260291 0.0265634 0.0270487 0.027485 0.0278741 0.0282179 0.0285163 0.0287693 0.0289769 0.0291392 0.029256 0.0293275 0.029361 0.029364 0.0293365 0.0292784 0.0291898 0.0290706 0.0289209 0.0287407 0.0285374 0.0283185 0.0280838 0.0278336 0.0275677 0.0272861 0.0269889 0.026676 0.0263514 0.0260191 0.0256791 0.0253313 0.0249757 0.0246125 0.0242414 0.0238627 0.0234763 0.0230826 0.0226815 0.0222729 0.021857 0.0214336 0.0210029 0.0205647 0.0201179 0.0196611 0.0191942 0.0187174 0.0182306 0.0177338 0.0172271 0.0167103 0.016184 0.0156487 0.0151042 0.0145507 0.0139881 0.0134164 0.0128356 0.0122457 0.0116513 0.0110569 0.0104624 0.00986795 0.00927343 0.00867888 0.00808431 0.00748971 0.00690389 0.00633569 0.00578509 0.00525211 0.00473673 0.00423896 0.0037588 0.00329625 0.00285928 0.0024559 0.00208608 0.00174985 0.00144718 0.00117809 0.000942571 0.000740627 0.000567043 0.000416603 0.000289308 0.000185157 0.000104151 4.62892e-05 1.15723e-05 0 0 3.18971e-05 0.000127589 0.000287074 0.000510354 0.000797428 0.0011483 0.00156296 0.00204142 0.00258775 0.00320605 0.00389631 0.00465853 0.00549272 0.00639886 0.00737697 0.00842705 0.00952067 0.0106294 0.0117533 0.0128923 0.0140465 0.0152158 0.0164002 0.0175998 0.0187894 0.0199438 0.0210632 0.0221474 0.0231966 0.0242106 0.0251895 0.0261333 0.0270315 0.0278737 0.0286597 0.0293897 0.0300636 0.0306814 0.0312432 0.0317488 0.0322004 0.0325998 0.0329471 0.0332423 0.0334854 0.0336763 0.0338151 0.0339018 0.0339447 0.0339524 0.0339247 0.0338617 0.0337634 0.0336298 0.0334609 0.0332567 0.0330256 0.0327762 0.0325085 0.0322223 0.0319179 0.031595 0.0312539 0.0308943 0.030521 0.0301384 0.0297465 0.0293455 0.0289351 0.0285156 0.0280867 0.0276486 0.0272016 0.0267458 0.0262814 0.0258082 0.0253263 0.0248357 0.0243364 0.0238284 0.0233103 0.0227807 0.0222396 0.0216871 0.021123 0.0205475 0.0199605 0.0193619 0.0187525 0.0181328 0.0175027 0.0168623 0.0162116 0.0155506 0.0148793 0.0141976 0.0135108 0.012824 0.0121372 0.0114505 0.0107638 0.0100771 0.00939049 0.00870389 0.00802734 0.00737083 0.00673438 0.00611798 0.00552163 0.00494534 0.00438909 0.0038529 0.00334596 0.00287747 0.00244744 0.00205586 0.00170274 0.00138808 0.00111187 0.000874112 0.000669242 0.000491688 0.00034145 0.000218528 0.000122922 5.4632e-05 1.3658e-05 0 0 3.69483e-05 0.000147793 0.000332534 0.000591172 0.000923707 0.00133014 0.00181046 0.00236469 0.00299655 0.00370979 0.00450441 0.00538041 0.00633779 0.00737654 0.00849668 0.00969819 0.0109488 0.0122162 0.0135003 0.0148013 0.016119 0.0174535 0.0188048 0.0201728 0.0215294 0.022846 0.0241229 0.0253599 0.0265571 0.0277144 0.0288319 0.0299095 0.0309355 0.0318977 0.0327964 0.0336314 0.0344027 0.0351105 0.0357546 0.0363351 0.036854 0.0373137 0.037714 0.0380549 0.0383365 0.0385588 0.0387217 0.0388253 0.038879 0.0388922 0.038865 0.0387973 0.0386892 0.0385406 0.0383515 0.038122 0.0378616 0.03758 0.037277 0.0369527 0.0366071 0.0362402 0.0358521 0.0354426 0.035017 0.0345805 0.0341331 0.0336748 0.0332056 0.0327254 0.0322344 0.0317324 0.03122 0.0306973 0.0301646 0.0296217 0.0290687 0.0285056 0.0279323 0.0273489 0.0267539 0.0261458 0.0255246 0.0248903 0.0242429 0.0235824 0.0229089 0.0222222 0.0215232 0.0208125 0.0200902 0.0193563 0.0186107 0.0178535 0.0170846 0.0163041 0.0155179 0.0147317 0.0139457 0.0131597 0.0123739 0.0115882 0.0108026 0.0100171 0.00924292 0.00849142 0.00776256 0.00705634 0.00637276 0.00571182 0.00507351 0.00445785 0.00387534 0.00333649 0.00284129 0.00238976 0.00198189 0.00161768 0.00129713 0.00102024 0.00078112 0.000573884 0.000398531 0.00025506 0.000143471 6.37649e-05 1.59412e-05 0 0 4.23339e-05 0.000169336 0.000381005 0.000677343 0.00105835 0.00152402 0.00207436 0.00270937 0.00343232 0.00424648 0.00515185 0.00614843 0.00723623 0.00841524 0.00968546 0.0110469 0.0124631 0.0138978 0.0153509 0.0168225 0.0183125 0.0198209 0.0213478 0.0228931 0.0244252 0.0259125 0.027355 0.0287528 0.0301057 0.0314139 0.0326772 0.0338958 0.0350562 0.0361451 0.0371624 0.0381083 0.0389826 0.0397854 0.0405166 0.0411764 0.0417669 0.0422905 0.0427472 0.043137 0.0434599 0.0437159 0.043905 0.0440272 0.044093 0.0441129 0.044087 0.0440151 0.0438973 0.0437337 0.0435241 0.0432687 0.0429781 0.042663 0.0423235 0.0419595 0.0415711 0.0411581 0.0407208 0.040259 0.0397786 0.0392854 0.0387796 0.038261 0.0377297 0.0371857 0.036629 0.0360595 0.0354779 0.0348846 0.0342796 0.0336629 0.0330346 0.0323946 0.031743 0.0310796 0.0304031 0.0297117 0.0290056 0.0282847 0.0275491 0.0267986 0.0260334 0.0252534 0.0244595 0.0236526 0.0228327 0.0219998 0.0211539 0.0202949 0.019423 0.0185381 0.0176468 0.0167557 0.0158647 0.014974 0.0140834 0.013193 0.0123028 0.0114128 0.0105356 0.00968367 0.00885707 0.0080558 0.00727984 0.00652921 0.00580391 0.00510392 0.00444116 0.00382753 0.00326302 0.00274763 0.00228137 0.00186423 0.00149621 0.00117732 0.000901384 0.000662242 0.00045989 0.00029433 0.00016556 7.35824e-05 1.83956e-05 0 0 4.79806e-05 0.000191922 0.000431825 0.000767689 0.00119951 0.0017273 0.00235105 0.00307076 0.00388911 0.0048088 0.00582982 0.00695217 0.00817585 0.00950086 0.0109272 0.0124549 0.0140433 0.0156517 0.0172801 0.0189287 0.0205972 0.0222858 0.0239945 0.0257232 0.027437 0.0291009 0.0307149 0.032279 0.0337932 0.0352575 0.036672 0.0380365 0.0393362 0.0405564 0.0416969 0.0427578 0.0437392 0.0446408 0.0454629 0.0462054 0.0468707 0.0474613 0.0479773 0.0484185 0.0487851 0.049077 0.0492942 0.0494367 0.0495161 0.0495439 0.0495202 0.049445 0.0493182 0.0491399 0.0489101 0.0486287 0.0483076 0.0479587 0.0475821 0.0471776 0.0467453 0.0462852 0.0457974 0.0452817 0.0447448 0.0441932 0.0436269 0.043046 0.0424504 0.0418401 0.0412151 0.0405755 0.0399218 0.0392549 0.0385746 0.0378811 0.0371743 0.0364541 0.0357207 0.0349739 0.0342122 0.033434 0.0326393 0.0318281 0.0310003 0.030156 0.0292951 0.0284177 0.0275249 0.0266177 0.0256961 0.0247601 0.0238097 0.0228449 0.0218658 0.0208722 0.0198716 0.0188712 0.0178712 0.0168714 0.0158718 0.0148726 0.0138736 0.0128749 0.0118903 0.0109338 0.0100054 0.00910497 0.00823263 0.00738834 0.00657211 0.00578393 0.00503717 0.00434518 0.00370798 0.00312556 0.00259791 0.00212505 0.00170697 0.00134366 0.00102874 0.000755809 0.000524867 0.000335915 0.000188952 8.39788e-05 2.09947e-05 0 0 5.38882e-05 0.000215553 0.000484994 0.000862212 0.00134721 0.00193998 0.00264052 0.00344885 0.00436693 0.00539675 0.00653831 0.00779161 0.00915665 0.0106334 0.0122219 0.0139222 0.0156891 0.0174777 0.0192879 0.0211197 0.0229732 0.0248482 0.026745 0.0286633 0.0305649 0.0324113 0.0342025 0.0359387 0.0376196 0.0392454 0.0408161 0.0423316 0.0437756 0.0451317 0.0463998 0.0475801 0.0486725 0.049677 0.0505935 0.0514222 0.0521655 0.0528262 0.0534042 0.0538995 0.054312 0.0546419 0.0548891 0.0550536 0.0551481 0.0551852 0.0551648 0.055087 0.0549519 0.0547593 0.0545093 0.054202 0.0538502 0.0534671 0.0530527 0.052607 0.0521299 0.0516215 0.0510818 0.0505107 0.0499156 0.0493038 0.0486751 0.0480297 0.0473675 0.0466885 0.0459928 0.0452802 0.0445518 0.0438083 0.0430498 0.0422763 0.0414877 0.0406841 0.0398654 0.0390317 0.0381814 0.0373126 0.0364256 0.0355202 0.0345965 0.0336544 0.032694 0.0317153 0.0307195 0.0297079 0.0286805 0.0276372 0.0265782 0.0255034 0.0244128 0.0233064 0.0221922 0.0210784 0.019965 0.0188519 0.0177392 0.0166268 0.0155148 0.0144031 0.0133071 0.0122418 0.0112074 0.0102038 0.00923111 0.0082892 0.00737812 0.00649787 0.00566335 0.00488945 0.00417619 0.00352355 0.00293154 0.00240015 0.00192939 0.00151926 0.00116319 0.000854586 0.000593463 0.000379816 0.000213647 9.4954e-05 2.37385e-05 0 0 6.00569e-05 0.000240228 0.000540512 0.000960911 0.00150142 0.00216205 0.00294279 0.00384364 0.00486577 0.00601033 0.00727733 0.00866676 0.0101786 0.0118129 0.0135697 0.0154488 0.0174008 0.0193759 0.0213742 0.0233957 0.0254403 0.0275081 0.0295991 0.0317132 0.0338087 0.0358436 0.0378179 0.0397317 0.0415849 0.0433775 0.0451096 0.0467812 0.0483742 0.0498709 0.0512712 0.0525751 0.0537826 0.0548937 0.0559084 0.0568267 0.0576514 0.0583851 0.0590279 0.0595798 0.0600408 0.0604108 0.0606899 0.0608781 0.0609891 0.0610366 0.0610207 0.0609412 0.0607983 0.0605919 0.060322 0.0599886 0.0596059 0.0591882 0.0587355 0.0582477 0.0577249 0.057167 0.0565741 0.0559461 0.0552911 0.0546171 0.0539241 0.0532121 0.0524811 0.051731 0.0509619 0.0501738 0.0493678 0.0485449 0.0477051 0.0468485 0.0459749 0.0450846 0.0441773 0.0432531 0.0423105 0.0413476 0.0403645 0.0393612 0.0383377 0.037294 0.0362301 0.035146 0.0340432 0.0329231 0.0317858 0.0306312 0.0294594 0.0282704 0.0270641 0.0258406 0.0246087 0.0233772 0.0221462 0.0209156 0.0196854 0.0184557 0.0172264 0.0159976 0.0147858 0.0136077 0.0124633 0.0113524 0.0102753 0.00923178 0.00822193 0.00724573 0.0063197 0.00546033 0.00466763 0.0039416 0.00328223 0.00268953 0.0021635 0.00170413 0.00130473 0.000958574 0.000665676 0.000426033 0.000239643 0.000106508 2.6627e-05 0 0 6.64866e-05 0.000265947 0.00059838 0.00106379 0.00166217 0.00239352 0.00325785 0.00425514 0.00538564 0.00664955 0.00804688 0.00957762 0.0112418 0.0130394 0.0149703 0.0170348 0.0191782 0.0213463 0.0235391 0.0257566 0.0279987 0.0302655 0.032557 0.0348731 0.0371685 0.0393978 0.041561 0.0436581 0.045689 0.0476539 0.0495526 0.0513852 0.0531322 0.0547741 0.056311 0.0577428 0.0590694 0.060291 0.0614075 0.062419 0.0633282 0.064138 0.0648484 0.0654595 0.0659712 0.0663836 0.0666965 0.0669101 0.0670392 0.0670984 0.0670879 0.0670075 0.0668574 0.0666376 0.0663479 0.0659885 0.0655747 0.065122 0.0646303 0.0640997 0.0635301 0.0629216 0.0622742 0.0615878 0.0608713 0.0601333 0.059374 0.0585933 0.0577911 0.0569676 0.0561226 0.0552563 0.0543698 0.0534646 0.0525405 0.0515977 0.050636 0.0496555 0.0486562 0.0476381 0.0465995 0.0455388 0.044456 0.0433511 0.042224 0.0410748 0.0399034 0.0387099 0.037496 0.0362634 0.0350121 0.0337421 0.0324534 0.0311459 0.0298198 0.0284749 0.027121 0.0257676 0.0244147 0.0230624 0.0217106 0.0203593 0.0190086 0.0176583 0.0163267 0.0150315 0.0137729 0.0125507 0.0113652 0.0102161 0.00910355 0.00802754 0.00700623 0.00605782 0.00518232 0.00437971 0.00365 0.00299319 0.00240927 0.00189826 0.00145335 0.00106777 0.000741508 0.000474565 0.000266943 0.000118641 2.96603e-05 0 0 7.31774e-05 0.000292709 0.000658596 0.00117084 0.00182943 0.00263438 0.00358569 0.00468335 0.00592653 0.0073144 0.00884695 0.0105242 0.0123461 0.0143127 0.016424 0.01868 0.0210214 0.0233889 0.0257826 0.0282024 0.0306483 0.0331203 0.0356185 0.0381429 0.0406443 0.043074 0.0454318 0.0477178 0.049932 0.0520744 0.0541449 0.0561437 0.0580495 0.0598413 0.0615192 0.0630831 0.064533 0.065869 0.067091 0.068199 0.069196 0.0700849 0.0708658 0.0715387 0.0721035 0.0725603 0.072909 0.0731497 0.0732982 0.0733704 0.0733664 0.073286 0.0731294 0.0728964 0.0725872 0.0722017 0.0717566 0.0712684 0.0707372 0.070163 0.0695457 0.0688855 0.0681822 0.0674359 0.0666561 0.0658524 0.0650247 0.0641731 0.