<?xml version="1.0"?> 
<VTKFile type="StructuredGrid" version="0.1"> 
<StructuredGrid WholeExtent="0 128 0 128 0 0"> 
<Piece Extent="0 128 0 128 0 0"> 
<PointData>
<DataArray type="Float32" Name="u" format="ascii" NumberOfComponents="1"> 
0 0 0 0 0 0 0 0 0 0 0 0 0 0 0 0 0 0 0 0 0 0 0 0 0 0 0 0 0 0 0 0 0 0 0 0 0 0 0 0 0 0 0 0 0 0 0 0 0 0 0 0 0 0 0 0 0 0 0 0 0 0 0 0 0 0 0 0 0 0 0 0 0 0 0 0 0 0 0 0 0 0 0 0 0 0 0 0 0 0 0 0 0 0 0 0 0 0 0 0 0 0 0 0 0 0 0 0 0 0 0 0 0 0 0 0 0 0 0 0 0 0 0 0 0 0 0 0 0 0 6.25837e-07 2.50335e-06 5.63254e-06 1.00134e-05 1.56459e-05 2.25301e-05 3.0666e-05 4.00536e-05 5.08793e-05 6.33295e-05 7.74042e-05 9.31035e-05 0.000110427 0.000129376 0.000149948 0.000172146 0.00019537 0.000219022 0.000243103 0.000267612 0.000292549 0.000317915 0.000343709 0.000369931 0.000395998 0.000421324 0.000445911 0.000469757 0.000492863 0.000515229 0.000536856 0.000557741 0.000577584 0.000596081 0.000613231 0.000629035 0.000643493 0.000656604 0.000668369 0.000678788 0.00068782 0.000695424 0.000701601 0.000706351 0.000709673 0.000711568 0.000712035 0.000711075 0.000708835 0.000705463 0.000700959 0.000695322 0.000688553 0.000680652 0.000671619 0.000661454 0.000650396 0.000638686 0.000626324 0.00061331 0.000599643 0.000585325 0.000570354 0.000554731 0.000538699 0.000522501 0.000506137 0.000489607 0.000472912 0.00045605 0.000439023 0.00042183 0.000404656 0.000387687 0.000370923 0.000354364 0.000338009 0.000321859 0.000305915 0.000290174 0.000274743 0.000259722 0.000245113 0.000230916 0.00021713 0.000203756 0.000190793 0.000178242 0.000166132 0.000154493 0.000143326 0.000132629 0.000122404 0.000112649 0.000103366 9.45541e-05 8.61965e-05 7.82768e-05 7.0795e-05 6.37511e-05 5.71451e-05 5.09769e-05 4.52467e-05 3.99544e-05 3.50627e-05 3.05343e-05 2.63692e-05 2.25674e-05 1.91289e-05 1.60537e-05 1.33417e-05 1.09931e-05 8.94339e-06 7.12822e-06 5.54759e-06 4.20151e-06 3.08996e-06 2.21296e-06 1.5705e-06 1.16258e-06 8.90104e-07 6.53954e-07 4.54135e-07 2.90646e-07 1.63489e-07 7.26616e-08 1.81654e-08 0 0 2.50335e-06 1.00134e-05 2.25301e-05 4.00536e-05 6.25837e-05 9.01206e-05 0.000122664 0.000160214 0.000203517 0.000253318 0.000309617 0.000372414 0.000441709 0.000517502 0.000599794 0.000688583 0.000781479 0.000876088 0.00097241 0.00107045 0.0011702 0.00127166 0.00137483 0.00147972 0.00158399 0.0016853 0.00178364 0.00187903 0.00197145 0.00206092 0.00214742 0.00223097 0.00231034 0.00238432 0.00245292 0.00251614 0.00257397 0.00262642 0.00267348 0.00271515 0.00275128 0.0027817 0.00280641 0.0028254 0.00283869 0.00284627 0.00284814 0.0028443 0.00283534 0.00282185 0.00280383 0.00278129 0.00275421 0.00272261 0.00268648 0.00264581 0.00260158 0.00255474 0.0025053 0.00245324 0.00239857 0.0023413 0.00228142 0.00221892 0.00215479 0.00209 0.00202455 0.00195843 0.00189165 0.0018242 0.00175609 0.00168732 0.00161862 0.00155075 0.00148369 0.00141745 0.00135204 0.00128744 0.00122366 0.0011607 0.00109897 0.00103889 0.000980453 0.000923664 0.000868521 0.000815024 0.000763173 0.000712968 0.000664528 0.000617973 0.000573303 0.000530517 0.000489615 0.000450598 0.000413465 0.000378216 0.000344786 0.000313107 0.00028318 0.000255004 0.00022858 0.000203908 0.000180987 0.000159818 0.000140251 0.000122137 0.000105477 9.02696e-05 7.65155e-05 6.42146e-05 5.33669e-05 4.39724e-05 3.57736e-05 2.85129e-05 2.21904e-05 1.6806e-05 1.23599e-05 8.85185e-06 6.28201e-06 4.65034e-06 3.56042e-06 2.61582e-06 1.81654e-06 1.16258e-06 6.53954e-07 2.90646e-07 7.26616e-08 0 0 5.63254e-06 2.25301e-05 5.06928e-05 9.01206e-05 0.000140813 0.000202771 0.000275994 0.000360482 0.000457913 0.000569965 0.000696638 0.000837931 0.000993845 0.00116438 0.00134954 0.00154931 0.00175833 0.0019712 0.00218792 0.0024085 0.00263294 0.00286123 0.00309338 0.00332938 0.00356398 0.00379192 0.0040132 0.00422781 0.00443577 0.00463706 0.0048317 0.00501967 0.00519826 0.00536473 0.00551908 0.00566131 0.00579143 0.00590944 0.00601532 0.00610909 0.00619038 0.00625882 0.00631441 0.00635716 0.00638706 0.00640411 0.00640832 0.00639968 0.00637952 0.00634917 0.00630863 0.0062579 0.00619698 0.00612587 0.00604457 0.00595308 0.00585356 0.00574817 0.00563692 0.00551979 0.00539679 0.00526792 0.00513318 0.00499258 0.00484829 0.00470251 0.00455523 0.00440646 0.0042562 0.00410445 0.00395121 0.00379647 0.0036419 0.00348918 0.00333831 0.00318927 0.00304208 0.00289673 0.00275323 0.00261157 0.00247268 0.0023375 0.00220602 0.00207824 0.00195417 0.0018338 0.00171714 0.00160418 0.00149519 0.00139044 0.00128993 0.00119366 0.00110163 0.00101384 0.000930296 0.000850987 0.000775768 0.000704491 0.000637155 0.000573759 0.000514305 0.000458793 0.000407221 0.00035959 0.000315565 0.000274809 0.000237323 0.000203107 0.00017216 0.000144483 0.000120076 9.89379e-05 8.04905e-05 6.4154e-05 4.99283e-05 3.78136e-05 2.78097e-05 1.99167e-05 1.41345e-05 1.04633e-05 8.01094e-06 5.88559e-06 4.08721e-06 2.61582e-06 1.4714e-06 6.53954e-07 1.63489e-07 0 0 1.00134e-05 4.00536e-05 9.01206e-05 0.000160214 0.000250335 0.000360482 0.000490657 0.000640858 0.000814068 0.00101327 0.00123847 0.00148966 0.00176684 0.00207001 0.00239918 0.00275433 0.00312592 0.00350435 0.00388964 0.00428178 0.00468078 0.00508663 0.00549934 0.0059189 0.00633596 0.00674119 0.00713457 0.00751611 0.00788581 0.00824367 0.00858969 0.00892386 0.00924135 0.00953729 0.0098117 0.0100646 0.0102959 0.0105057 0.0106939 0.0108606 0.0110051 0.0111268 0.0112256 0.0113016 0.0113548 0.0113851 0.0113926 0.0113772 0.0113414 0.0112874 0.0112153 0.0111252 0.0110169 0.0108904 0.0107459 0.0105833 0.0104063 0.010219 0.0100212 0.00981296 0.00959429 0.00936519 0.00912566 0.00887569 0.00861918 0.00836001 0.00809819 0.00783371 0.00756659 0.0072968 0.00702437 0.00674927 0.00647449 0.00620299 0.00593477 0.00566982 0.00540815 0.00514975 0.00489463 0.00464279 0.00439588 0.00415555 0.00392181 0.00369466 0.00347408 0.00326009 0.00305269 0.00285187 0.00265811 0.00247189 0.00229321 0.00212207 0.00195846 0.00180239 0.00165386 0.00151287 0.00137914 0.00125243 0.00113272 0.00102002 0.000914321 0.000815631 0.000723948 0.000639271 0.000561004 0.000488549 0.000421908 0.000361078 0.000306062 0.000256859 0.000213468 0.00017589 0.000143094 0.000114052 8.87615e-05 6.72241e-05 4.94394e-05 3.54074e-05 2.5128e-05 1.86014e-05 1.42417e-05 1.04633e-05 7.26616e-06 4.65034e-06 2.61582e-06 1.16258e-06 2.90646e-07 0 0 1.56459e-05 6.25837e-05 0.000140813 0.000250335 0.000391148 0.000563254 0.000766651 0.00100134 0.00127198 0.00158324 0.0019351 0.00232759 0.00276068 0.00323439 0.00374871 0.00430365 0.00488424 0.00547555 0.00607756 0.00669029 0.00731372 0.00794786 0.00859272 0.00924828 0.00989994 0.0105331 0.0111478 0.0117439 0.0123216 0.0128807 0.0134214 0.0139435 0.0144396 0.014902 0.0153308 0.0157259 0.0160873 0.0164151 0.0167092 0.0169697 0.0171955 0.0173856 0.01754 0.0176588 0.0177418 0.0177892 0.0178009 0.0177769 0.0177209 0.0176366 0.017524 0.017383 0.0172138 0.0170163 0.0167905 0.0165363 0.0162599 0.0159672 0.0156581 0.0153327 0.0149911 0.0146331 0.0142588 0.0138683 0.0134675 0.0130625 0.0126534 0.0122402 0.0118228 0.0114013 0.0109756 0.0105457 0.0101164 0.00969218 0.00927307 0.00885909 0.00845023 0.00804649 0.00764786 0.00725436 0.00686856 0.00649305 0.00612783 0.0057729 0.00542825 0.0050939 0.00476983 0.00445605 0.0041533 0.00386233 0.00358314 0.00331573 0.00306009 0.00281623 0.00258415 0.00236385 0.00215491 0.00195692 0.00176987 0.00159378 0.00142863 0.00127442 0.00113117 0.000998861 0.000876569 0.000763358 0.000659231 0.000564185 0.000478222 0.000401342 0.000333543 0.000274828 0.000223585 0.000178206 0.00013869 0.000105038 7.72491e-05 5.5324e-05 3.92626e-05 2.90646e-05 2.22526e-05 1.63489e-05 1.13534e-05 7.26616e-06 4.08721e-06 1.81654e-06 4.54135e-07 0 0 2.25301e-05 9.01206e-05 0.000202771 0.000360482 0.000563254 0.000811085 0.00110398 0.00144193 0.00183165 0.00227986 0.00278655 0.00335172 0.00397538 0.00465752 0.00539814 0.00619725 0.00703331 0.00788479 0.00875169 0.00963401 0.0105318 0.0114449 0.0123735 0.0133175 0.0142559 0.0151677 0.0160528 0.0169113 0.0177431 0.0185483 0.0193268 0.0200787 0.020793 0.0214589 0.0220763 0.0226453 0.0231657 0.0236377 0.0240613 0.0244364 0.0247615 0.0250353 0.0252576 0.0254286 0.0255482 0.0256164 0.0256333 0.0255987 0.0255181 0.0253967 0.0252345 0.0250316 0.0247879 0.0245035 0.0241783 0.0238123 0.0234143 0.0229927 0.0225477 0.0220792 0.0215872 0.0210717 0.0205327 0.0199703 0.0193932 0.01881 0.0182209 0.0176259 0.0170248 0.0164178 0.0158048 0.0151859 0.0145676 0.0139567 0.0133532 0.0127571 0.0121683 0.0115869 0.0110129 0.0104463 0.00989073 0.00935 0.00882408 0.00831297 0.00781669 0.00733521 0.00686855 0.00641671 0.00598076 0.00556176 0.00515973 0.00477465 0.00440653 0.00405538 0.00372118 0.00340395 0.00310307 0.00281796 0.00254862 0.00229504 0.00205722 0.00183517 0.00162888 0.00143836 0.00126226 0.00109924 0.000949292 0.000812427 0.00068864 0.000577932 0.000480302 0.000395752 0.000321962 0.000256616 0.000199713 0.000151254 0.000111239 7.96666e-05 5.65381e-05 4.18531e-05 3.20437e-05 2.35423e-05 1.63489e-05 1.04633e-05 5.88559e-06 2.61582e-06 6.53954e-07 0 0 3.0666e-05 0.000122664 0.000275994 0.000490657 0.000766651 0.00110398 0.00150264 0.00196263 0.00249308 0.00310314 0.00379281 0.00456207 0.00541094 0.0063394 0.00734747 0.00843515 0.00957312 0.0107321 0.011912 0.013113 0.0143349 0.0155778 0.0168417 0.0181266 0.0194039 0.0206449 0.0218496 0.0230181 0.0241503 0.0252462 0.0263059 0.0273293 0.0283016 0.029208 0.0300483 0.0308227 0.0315311 0.0321736 0.0327501 0.0332606 0.0337032 0.0340758 0.0343785 0.0346112 0.034774 0.0348668 0.0348897 0.0348427 0.0347329 0.0345677 0.034347 0.0340708 0.0337391 0.033352 0.0329093 0.0324112 0.0318694 0.0312956 0.0306899 0.0300522 0.0293825 0.0286809 0.0279473 0.0271818 0.0263962 0.0256025 0.0248007 0.0239908 0.0231727 0.0223465 0.0215121 0.0206697 0.0198281 0.0189967 0.0181752 0.0173638 0.0165624 0.0157711 0.0149898 0.0142185 0.0134624 0.0127264 0.0120106 0.0113149 0.0106394 0.00998404 0.00934887 0.00873386 0.00814047 0.00757017 0.00702296 0.00649883 0.00599778 0.00551982 0.00506494 0.00463315 0.00422363 0.00383556 0.00346895 0.0031238 0.00280011 0.00249787 0.00221709 0.00195777 0.00171807 0.00149618 0.00129209 0.0011058 0.000937315 0.000786629 0.000653745 0.000538662 0.000438226 0.000349283 0.000271832 0.000205874 0.000151408 0.000108435 7.69546e-05 5.69667e-05 4.36151e-05 3.20437e-05 2.22526e-05 1.42417e-05 8.01094e-06 3.56042e-06 8.90104e-07 0 0 4.00536e-05 0.000160214 0.000360482 0.000640858 0.00100134 0.00144193 0.00196263 0.00256343 0.00325627 0.00405309 0.00495387 0.00595862 0.00706734 0.00828004 0.0095967 0.0110173 0.0125037 0.0140174 0.0155586 0.0171271 0.0187231 0.0203465 0.0219974 0.0236756 0.0253439 0.0269648 0.0285383 0.0300644 0.0315432 0.0329747 0.0343588 0.0356955 0.0369654 0.0381492 0.0392468 0.0402582 0.0411835 0.0420227 0.0427756 0.0434424 0.0440205 0.0445072 0.0449025 0.0452065 0.0454191 0.0455403 0.0455703 0.0455088 0.0453654 0.0451496 0.0448613 0.0445006 0.0440674 0.0435617 0.0429836 0.042333 0.0416253 0.0408759 0.0400847 0.0392518 0.0383772 0.0374608 0.0365026 0.0355028 0.0344767 0.03344 0.0323928 0.0313349 0.0302663 0.0291872 0.0280975 0.0269971 0.025898 0.024812 0.0237391 0.0226793 0.0216326 0.020599 0.0195785 0.0185712 0.0175835 0.0166222 0.0156873 0.0147786 0.0138963 0.0130404 0.0122108 0.0114075 0.0106325 0.00988757 0.00917284 0.00848827 0.00783384 0.00720956 0.00661544 0.00605146 0.00551657 0.00500971 0.00453088 0.00408007 0.00365728 0.00326252 0.00289579 0.00255708 0.00224402 0.0019542 0.00168763 0.00144431 0.00122425 0.00102743 0.000853871 0.000703559 0.000572377 0.000456206 0.000355046 0.000268896 0.000197758 0.00014163 0.000100512 7.44054e-05 5.69667e-05 4.18531e-05 2.90646e-05 1.86014e-05 1.04633e-05 4.65034e-06 1.16258e-06 0 0 5.09522e-05 0.000203809 0.00045857 0.000815236 0.00127381 0.00183428 0.00249666 0.00326094 0.00414175 0.00515371 0.00629681 0.00757106 0.00897646 0.010513 0.0121807 0.0139795 0.0158612 0.0177772 0.0197276 0.0217125 0.0237317 0.0257854 0.0278735 0.029996 0.0321057 0.0341556 0.0361456 0.0380757 0.039946 0.0417563 0.0435068 0.0451974 0.0468036 0.048301 0.0496894 0.050969 0.0521397 0.0532015 0.0541544 0.0549984 0.0557302 0.0563466 0.0568474 0.0572328 0.0575026 0.057657 0.0576959 0.0576193 0.0574391 0.0571672 0.0568037 0.0563485 0.0558016 0.0551631 0.0544329 0.053611 0.0527169 0.0517699 0.05077 0.0497173 0.0486117 0.0474532 0.0462418 0.0449776 0.0436802 0.0423693 0.0410448 0.0397068 0.0383552 0.0369902 0.0356116 0.0342195 0.0328288 0.0314547 0.030097 0.0287559 0.0274312 0.026123 0.0248313 0.0235561 0.0223058 0.0210887 0.0199049 0.0187543 0.017637 0.016553 0.0155022 0.0144847 0.0135029 0.0125592 0.0116536 0.0107861 0.00995675 0.00916552 0.0084124 0.00769741 0.0070192 0.00637644 0.00576913 0.00519726 0.00466085 0.00415988 0.00369437 0.0032643 0.00286666 0.00249843 0.0021596 0.00185019 0.00157018 0.00131958 0.00109839 0.000906603 0.000739042 0.000590517 0.000461029 0.000350578 0.000259164 0.000186787 0.000133446 9.9142e-05 7.59056e-05 5.57674e-05 3.87274e-05 2.47855e-05 1.39418e-05 6.19638e-06 1.54909e-06 0 0 6.36213e-05 0.000254485 0.000572592 0.00101794 0.00159053 0.00229037 0.00311745 0.00407177 0.00517005 0.00642904 0.00784871 0.00942907 0.0111701 0.0130719 0.0151343 0.0173575 0.0196818 0.0220478 0.0244555 0.0269049 0.029396 0.0319287 0.0345032 0.0371193 0.0397194 0.0422458 0.0446984 0.0470773 0.0493825 0.0516139 0.0537716 0.0558556 0.0578357 0.0596818 0.0613939 0.0629721 0.0644163 0.0657265 0.0669028 0.0679451 0.0688493 0.0696112 0.070231 0.0707085 0.0710438 0.0712368 0.0712876 0.0711962 0.0709772 0.0706451 0.0701999 0.0696417 0.0689705 0.0681862 0.0672889 0.0662785 0.0651789 0.0640139 0.0627835 0.0614877 0.0601266 0.0587 0.0572081 0.0556508 0.0540523 0.0524368 0.0508044 0.0491551 0.0474887 0.0458055 0.0441052 0.042388 0.0406724 0.0389768 0.0373014 0.035646 0.0340107 0.0323955 0.0308003 0.0292253 0.0276807 0.026177 0.0247141 0.0232921 0.0219109 0.0205706 0.0192712 0.0180126 0.0167979 0.0156301 0.0145093 0.0134355 0.0124086 0.0114286 0.0104956 0.00960953 0.0087688 0.00797177 0.00721844 0.00650882 0.00584291 0.0052207 0.00464219 0.0041074 0.00361258 0.00315401 0.0027317 0.00234565 0.00199584 0.0016823 0.001405 0.00116396 0.000952848 0.000765347 0.000601457 0.000461176 0.000344505 0.000251443 0.000181991 0.000136149 0.000104239 7.65839e-05 5.31832e-05 3.40373e-05 1.9146e-05 8.50932e-06 2.12733e-06 0 0 7.80609e-05 0.000312244 0.000702548 0.00124897 0.00195152 0.00281019 0.00382499 0.0049959 0.00634118 0.00787906 0.00960956 0.0115327 0.0136484 0.0159567 0.0184576 0.0211511 0.0239656 0.0268293 0.0297422 0.0327044 0.0357159 0.0387765 0.0418865 0.0450456 0.048185 0.0512354 0.0541968 0.0570693 0.0598529 0.0625475 0.0651532 0.0676699 0.0700615 0.0722916 0.0743603 0.0762676 0.0780135 0.0795979 0.0810209 0.0822825 0.0833776 0.0843012 0.0850532 0.0856336 0.0860425 0.0862798 0.0863455 0.0862397 0.0859798 0.0855833 0.0850502 0.0843804 0.0835741 0.0826312 0.0815516 0.0803354 0.0790113 0.0776079 0.0761252 0.0745632 0.0729219 0.0712013 0.0694015 0.0675223 0.065593 0.0636428 0.0616718 0.0596798 0.0576669 0.0556331 0.0535784 0.0515028 0.0494287 0.0473784 0.0453521 0.0433496 0.0413711 0.0394164 0.0374856 0.0355787 0.0337083 0.0318871 0.0301149 0.0283919 0.026718 0.0250932 0.0235176 0.0219911 0.0205175 0.0191005 0.0177401 0.0164364 0.0151893 0.0139988 0.012865 0.0117878 0.0107654 0.00979569 0.00887881 0.00801473 0.00720345 0.00644496 0.00573927 0.00508638 0.00448178 0.00392096 0.00340393 0.0029307 0.00250125 0.00211558 0.00177371 0.00147562 0.00121379 0.000980697 0.000776328 0.000600689 0.000453779 0.000335599 0.000246148 0.000185427 0.000141967 0.000104302 7.24323e-05 4.63567e-05 2.60756e-05 1.15892e-05 2.89729e-06 0 0 9.4271e-05 0.000377084 0.000848439 0.00150834 0.00235677 0.00339376 0.00461928 0.00603334 0.00765512 0.0095038 0.0115794 0.0138818 0.0164112 0.0191674 0.0221505 0.0253605 0.0287125 0.0321216 0.0355878 0.0391111 0.0426914 0.0463288 0.0500233 0.0537749 0.0575023 0.0611242 0.0646407 0.0680516 0.071357 0.074557 0.0776515 0.0806404 0.083481 0.0861304 0.0885886 0.0908555 0.0929311 0.0948156 0.0965087 0.0980107 0.0993153 0.100416 0.101314 0.102008 0.102499 0.102786 0.10287 0.10275 0.102447 0.101982 0.101354 0.100565 0.0996124 0.0984979 0.0972211 0.0957819 0.0942142 0.092552 0.0907951 0.0889437 0.0869977 0.0849571 0.0828219 0.0805921 0.0783023 0.0759872 0.0736467 0.0712808 0.0688896 0.066473 0.064031 0.0615637 0.0590976 0.0566595 0.0542492 0.0518669 0.0495124 0.0471858 0.0448872 0.0426164 0.0403887 0.038219 0.0361074 0.0340538 0.0320583 0.0301209 0.0282416 0.0264203 0.0246616 0.0229702 0.0213459 0.0197888 0.0182989 0.0168762 0.0155206 0.0142323 0.0130089 0.0118482 0.0107502 0.00971501 0.00874249 0.00783269 0.00698561 0.00620125 0.00547425 0.00479927 0.00417629 0.00360533 0.00308638 0.00261944 0.00220451 0.0018416 0.00152188 0.00123657 0.000985643 0.000769118 0.000586988 0.000439254 0.000325916 0.000246975 0.00018909 0.000138923 9.64745e-05 6.17437e-05 3.47308e-05 1.54359e-05 3.85898e-06 0 0 0.000112252 0.000449006 0.00101026 0.00179602 0.00280629 0.00404106 0.00550032 0.0071841 0.00911189 0.0113032 0.0137581 0.0164765 0.0194585 0.022704 0.0262131 0.0299857 0.0339226 0.0379248 0.0419922 0.0461248 0.0503226 0.0545856 0.0589138 0.0633072 0.0676715 0.0719125 0.07603 0.0800242 0.083895 0.0876425 0.0912665 0.0947672 0.0980944 0.101198 0.104079 0.106736 0.109169 0.111379 0.113366 0.11513 0.116662 0.117957 0.119013 0.119832 0.120413 0.120755 0.12086 0.120726 0.120379 0.119841 0.119113 0.118194 0.117085 0.115786 0.114297 0.112618 0.110788 0.108846 0.106793 0.104629 0.102354 0.0999672 0.0974694 0.0948602 0.0921803 0.08947 0.0867293 0.0839583 0.081157 0.0783253 0.0754632 0.0725708 0.0696793 0.06682 0.0639927 0.0611976 0.0584346 0.0557037 0.053005 0.0503384 0.0477217 0.0451727 0.0426914 0.0402778 0.0379318 0.0356536 0.033443 0.0313001 0.0292304 0.0272393 0.0253267 0.0234928 0.0217374 0.0200607 0.0184625 0.0169429 0.0154994 0.0141293 0.0128327 0.0116096 0.01046 0.00938386 0.00838119 0.007452 0.00659 0.00578893 0.00504878 0.00436956 0.00375126 0.00319387 0.00269742 0.00226188 0.00187711 0.00153295 0.0012294 0.000966462 0.00074413 0.000562409 0.000421296 0.000320793 0.000245607 0.000180446 0.00012531 8.01983e-05 4.51115e-05 2.00496e-05 5.01239e-06 0 0 0.000132003 0.00052801 0.00118802 0.00211204 0.00330006 0.00475209 0.00646812 0.00844816 0.0107115 0.0132774 0.0161458 0.0193168 0.0227904 0.0265666 0.0306453 0.0350265 0.0395959 0.0442389 0.0489554 0.0537456 0.0586094 0.0635468 0.0685578 0.0736424 0.0786926 0.0836001 0.0883649 0.0929872 0.0974668 0.101804 0.105998 0.11005 0.113902 0.117495 0.120831 0.123908 0.126728 0.12929 0.131593 0.133639 0.135418 0.136923 0.138151 0.139105 0.139784 0.140188 0.140316 0.140169 0.139775 0.13916 0.138325 0.137269 0.135993 0.134497 0.13278 0.130843 0.128731 0.12649 0.12412 0.12162 0.11899 0.116232 0.113344 0.110327 0.107227 0.104091 0.10092 0.0977122 0.094469 0.0911899 0.0878749 0.0845242 0.0811737 0.0778599 0.0745826 0.0713419 0.0681377 0.0649701 0.0618391 0.0587446 0.0557075 0.0527483 0.049867 0.0470638 0.0443385 0.0416913 0.039122 0.0366307 0.0342238 0.0319078 0.0296826 0.0275483 0.0255049 0.0235523 0.0216906 0.0199197 0.0182369 0.016639 0.0151263 0.0136986 0.012356 0.0110985 0.00992603 0.00883863 0.00782903 0.00688996 0.0060214 0.00522337 0.00449586 0.00383888 0.00325242 0.00273648 0.00227948 0.00186986 0.00150761 0.00119272 0.000925207 0.000705062 0.000532287 0.000406882 0.000311519 0.000228871 0.000158938 0.000101721 5.72178e-05 2.54301e-05 6.35753e-06 0 0 0.000153524 0.000614096 0.00138172 0.00245638 0.0038381 0.00552686 0.00752268 0.00982554 0.0124539 0.0154262 0.0187425 0.0224027 0.0264069 0.030755 0.0354471 0.0404831 0.0457323 0.0510637 0.0564775 0.0619735 0.0675519 0.0732125 0.0789554 0.0847806 0.0905654 0.096187 0.101645 0.10694 0.112072 0.117041 0.121847 0.126489 0.130903 0.135021 0.138845 0.142373 0.145607 0.148546 0.15119 0.15354 0.155584 0.157313 0.158728 0.159828 0.160613 0.161083 0.161238 0.161079 0.160635 0.159939 0.158991 0.157789 0.156335 0.154629 0.15267 0.150458 0.148045 0.145484 0.142774 0.139915 0.136907 0.133751 0.130446 0.126991 0.123442 0.119851 0.116217 0.112542 0.108826 0.105067 0.101266 0.0974237 0.0935809 0.0897793 0.0860189 0.0822997 0.0786217 0.074985 0.0713895 0.0678351 0.0643459 0.0609456 0.0576343 0.0544119 0.0512785 0.048234 0.0452784 0.0424119 0.0396417 0.0369756 0.0344135 0.0319553 0.0296012 0.027351 0.0252049 0.0231627 0.0212213 0.0193774 0.0176309 0.015982 0.0144305 0.0129766 0.0116201 0.0103612 0.00919134 0.00810234 0.00709415 0.00616677 0.00532021 0.00455445 0.00386951 0.00326538 0.00272899 0.00224729 0.00182025 0.0014479 0.00113022 0.000867216 0.00065889 0.000505241 0.000386825 0.000284198 0.00019736 0.00012631 7.10496e-05 3.15776e-05 7.8944e-06 0 0 0.000176816 0.000707264 0.00159134 0.00282906 0.0044204 0.00636538 0.00866398 0.0113162 0.0143391 0.0177498 0.0215481 0.0257341 0.0303079 0.0352694 0.0406186 0.0463555 0.0523318 0.0583995 0.0645584 0.0708086 0.07715 0.0835827 0.0901066 0.0967218 0.10329 0.109673 0.115871 0.121884 0.127712 0.133355 0.138812 0.144084 0.149097 0.153776 0.15812 0.162131 0.165807 0.169149 0.172157 0.174831 0.177159 0.17913 0.180743 0.182 0.182899 0.183442 0.183627 0.183455 0.18296 0.182179 0.181111 0.179755 0.178113 0.176183 0.173966 0.171462 0.16873 0.165828 0.162757 0.159516 0.156105 0.152524 0.148774 0.144855 0.140826 0.136749 0.132623 0.128449 0.124227 0.119956 0.115637 0.111269 0.106901 0.102578 0.0983015 0.094071 0.0898867 0.0857483 0.0816561 0.0776099 0.0736371 0.0697648 0.0659931 0.0623221 0.0587516 0.0552817 0.0519124 0.0486437 0.0454843 0.0424429 0.0395194 0.0367139 0.0340264 0.0314569 0.0290054 0.0266719 0.0244527 0.0223443 0.0203466 0.0184597 0.0166835 0.0150181 0.0134635 0.0120196 0.0106769 0.00942608 0.00826703 0.00719976 0.00622429 0.0053406 0.0045487 0.0038486 0.00322565 0.00266523 0.00216734 0.00173199 0.00135916 0.00104887 0.000801104 0.000615871 0.000471526 0.000346428 0.000240575 0.000153968 8.66069e-05 3.8492e-05 9.62299e-06 0 0 0.000201411 0.000805643 0.0018127 0.00322257 0.00503527 0.00725079 0.00986913 0.0128903 0.0163294 0.0202016 0.0245069 0.0292454 0.0344169 0.0400215 0.0460592 0.05253 0.0592675 0.0661052 0.0730432 0.0800815 0.08722 0.0944588 0.101798 0.109237 0.116623 0.1238 0.130769 0.137531 0.144084 0.150429 0.156566 0.162495 0.168133 0.173396 0.178283 0.182796 0.186934 0.190697 0.194084 0.197097 0.199722 0.201945 0.203767 0.205189 0.206208 0.206827 0.207045 0.206861 0.206315 0.205446 0.204254 0.202739 0.200902 0.198741 0.196257 0.19345 0.190386 0.187131 0.183684 0.180045 0.176215 0.172194 0.167981 0.163577 0.159049 0.154466 0.149827 0.145134 0.140385 0.13558 0.13072 0.125805 0.120888 0.116021 0.111206 0.106442 0.101728 0.097066 0.0924547 0.0878943 0.0834159 0.07905 0.0747968 0.0706562 0.0666283 0.0627131 0.0589104 0.0552205 0.0516531 0.0482182 0.0449159 0.0417461 0.0387088 0.0358041 0.0330319 0.0303923 0.0278812 0.0254946 0.0232327 0.0210952 0.0190824 0.0171941 0.0154304 0.0137913 0.012266 0.010844 0.00952525 0.00830971 0.00719741 0.00618834 0.00528251 0.00447991 0.00376434 0.00311957 0.00254562 0.00204248 0.00161014 0.00124862 0.000957902 0.000737998 0.00056503 0.000415124 0.00028828 0.000184499 0.000103781 4.61249e-05 1.15312e-05 0 0 0.000226841 0.000907363 0.00204157 0.00362945 0.00567102 0.00816627 0.0111152 0.0145178 0.018387 0.0227355 0.0275633 0.0328706 0.0386572 0.0449232 0.0516685 0.0588932 0.0664122 0.0740401 0.0817771 0.0896232 0.0975782 0.105642 0.113816 0.122098 0.130319 0.138308 0.146066 0.153592 0.160887 0.16795 0.174781 0.181381 0.187657 0.193517 0.198959 0.203985 0.208595 0.212788 0.216564 0.219924 0.222852 0.225334 0.22737 0.22896 0.230104 0.230802 0.231054 0.23086 0.230264 0.229307 0.227991 0.226315 0.22428 0.221885 0.21913 0.216016 0.212615 0.209 0.205171 0.201128 0.196872 0.192401 0.187717 0.182819 0.177783 0.172684 0.167522 0.162298 0.157011 0.151661 0.146249 0.140774 0.135296 0.129874 0.124508 0.119197 0.113943 0.108744 0.103601 0.0985139 0.0935172 0.0886454 0.0838985 0.0792763 0.0747791 0.0704067 0.0661591 0.0620363 0.0580497 0.0542104 0.0505185 0.0469739 0.0435767 0.0403268 0.0372242 0.034269 0.0314568 0.0287833 0.0262484 0.0238521 0.0215945 0.0194756 0.0174953 0.0156537 0.0139389 0.012339 0.010854 0.009484 0.00822889 0.00708871 0.00606345 0.00515313 0.00433997 0.0036062 0.00295182 0.00237684 0.00188125 0.00146506 0.00112826 0.000870848 0.000666743 0.000489852 0.000340175 0.000217712 0.000122463 5.4428e-05 1.3607e-05 0 0 0.000253106 0.00101242 0.00227795 0.0040497 0.00632765 0.00911182 0.0124022 0.0161988 0.0205118 0.0253512 0.0307172 0.0366098 0.0430288 0.0499744 0.0574465 0.0654452 0.0737659 0.0822042 0.0907601 0.0994336 0.108225 0.117133 0.12616 0.135304 0.144378 0.153198 0.161761 0.170069 0.178121 0.185917 0.193458 0.200743 0.20767 0.214139 0.220148 0.225698 0.23079 0.235422 0.239596 0.24331 0.246549 0.249296 0.251552 0.253315 0.254588 0.255368 0.255657 0.255454 0.254806 0.253762 0.252321 0.250482 0.248247 0.245615 0.242585 0.239159 0.235415 0.231435 0.227218 0.222764 0.218074 0.213146 0.207982 0.202581 0.197026 0.191401 0.185706 0.179941 0.174106 0.1682 0.162224 0.156178 0.150127 0.144136 0.138207 0.132338 0.126529 0.120782 0.115095 0.109468 0.103941 0.098551 0.0932981 0.0881823 0.0832038 0.0783625 0.0736583 0.0690914 0.0646742 0.0604195 0.0563272 0.0523973 0.0486299 0.0450248 0.0415822 0.0383021 0.0351796 0.0322102 0.0293937 0.0267303 0.02422 0.0218626 0.0196582 0.0176069 0.0156955 0.013911 0.0122534 0.0107226 0.00931872 0.00804169 0.00689153 0.00586825 0.00495254 0.00412511 0.00338596 0.00273509 0.0021725 0.00169819 0.00131217 0.00101442 0.000776666 0.000570612 0.000396258 0.000253605 0.000142653 6.34013e-05 1.58503e-05 0 0 0.000280207 0.00112083 0.00252186 0.00448331 0.00700517 0.0100874 0.0137301 0.0179332 0.0227038 0.028049 0.0339687 0.040463 0.0475318 0.0551753 0.0633932 0.0721858 0.0813286 0.0905974 0.0999921 0.109513 0.119159 0.128932 0.13883 0.148855 0.158802 0.168469 0.177855 0.186961 0.195786 0.204331 0.212595 0.220579 0.228171 0.235262 0.24185 0.247935 0.253519 0.2586 0.263179 0.267256 0.270813 0.273831 0.276312 0.278254 0.279658 0.280524 0.280851 0.280641 0.279944 0.278811 0.277244 0.275241 0.272803 0.26993 0.266622 0.262879 0.258788 0.254437 0.249826 0.244954 0.239822 0.234429 0.228776 0.222863 0.21678 0.21062 0.204381 0.198064 0.191669 0.185195 0.178644 0.172014 0.165378 0.158808 0.152303 0.145863 0.139489 0.13318 0.126936 0.120758 0.114688 0.108767 0.102996 0.0973743 0.0919025 0.0865805 0.0814082 0.0763855 0.0715266 0.0668454 0.062342 0.0580164 0.0538685 0.0498984 0.046106 0.0424915 0.0390496 0.0357753 0.0326688 0.0297299 0.0269586 0.024355 0.0219191 0.0196508 0.0175359 0.0155601 0.0137233 0.0120256 0.0104669 0.00904729 0.00776675 0.00662526 0.00560204 0.00467629 0.00384802 0.00311721 0.00248388 0.00194802 0.00150963 0.00116872 0.000894799 0.000657404 0.00045653 0.000292179 0.000164351 7.30448e-05 1.82612e-05 0 0 0.000308142 0.00123257 0.00277328 0.00493028 0.00770356 0.0110931 0.015099 0.0197211 0.0249631 0.0308287 0.0373177 0.0444302 0.0521662 0.0605257 0.0695086 0.0791151 0.0891004 0.0992197 0.109473 0.119861 0.130382 0.141038 0.151828 0.162751 0.173589 0.184121 0.194347 0.204268 0.213882 0.223191 0.232193 0.24089 0.249161 0.256886 0.264064 0.270696 0.276782 0.282322 0.287315 0.291763 0.295644 0.29894 0.301651 0.303776 0.305315 0.306269 0.306638 0.306421 0.305675 0.304454 0.30276 0.300591 0.297949 0.294832 0.291242 0.287178 0.282734 0.278006 0.272993 0.267697 0.262115 0.256249 0.250099 0.243665 0.237045 0.230338 0.223545 0.216666 0.2097 0.202648 0.19551 0.188285 0.181052 0.173889 0.166796 0.159773 0.15282 0.145938 0.139125 0.132383 0.125757 0.119293 0.112991 0.106852 0.100875 0.0950608 0.0894086 0.0839188 0.0786068 0.0734882 0.068563 0.0638311 0.0592926 0.0549474 0.0507956 0.0468372 0.0430667 0.0394788 0.0360735 0.0328507 0.0298106 0.026953 0.024278 0.0217855 0.0194601 0.0172862 0.0152638 0.0133929 0.0116734 0.0101055 0.0086891 0.00742417 0.00628848 0.00525976 0.004338 0.00352321 0.00281539 0.00221454 0.00172065 0.00133374 0.00102114 0.000750227 0.000520991 0.000333434 0.000187557 8.33586e-05 2.08396e-05 0 0 0.000336913 0.00134765 0.00303222 0.00539061 0.00842283 0.0121289 0.0165088 0.0215625 0.0272897 0.0336903 0.0407642 0.0485113 0.0569318 0.0660256 0.0757927 0.0862331 0.0970812 0.108071 0.119203 0.130477 0.141893 0.153451 0.165151 0.176993 0.18874 0.200155 0.211239 0.22199 0.232409 0.242497 0.252253 0.261677 0.270639 0.279011 0.286791 0.293981 0.300579 0.306587 0.312003 0.316829 0.321042 0.324622 0.327568 0.329881 0.33156 0.332605 0.333017 0.332796 0.332 0.330691 0.328869 0.326533 0.323683 0.32032 0.316444 0.312053 0.307252 0.302141 0.296721 0.290993 0.284955 0.278608 0.271952 0.264986 0.257819 0.250557 0.2432 0.235748 0.228201 0.220559 0.212821 0.204989 0.197147 0.189379 0.181686 0.174068 0.166525 0.159056 0.151662 0.144343 0.137148 0.130129 0.123285 0.116616 0.110122 0.103803 0.0976597 0.0916912 0.0859149 0.0803479 0.07499 0.0698414 0.064902 0.0601719 0.0556509 0.0513392 0.047231 0.0433205 0.0396079 0.0360929 0.0327758 0.0296564 0.0267348 0.0240109 0.021468 0.0190893 0.0168748 0.0148245 0.0129383 0.0112164 0.00965858 0.00826498 0.00701186 0.00587551 0.00485592 0.0039531 0.00316704 0.00249775 0.00194523 0.00150948 0.0011557 0.000849082 0.000589641 0.00037737 0.000212271 9.43425e-05 2.35856e-05 0 0 0.000366519 0.00146608 0.00329868 0.00586431 0.00916299 0.0131947 0.0179595 0.0234572 0.0296836 0.0366339 0.0443082 0.0527065 0.0618288 0.0716752 0.0822455 0.0935399 0.105271 0.117152 0.129182 0.141363 0.153693 0.166172 0.178801 0.19158 0.204255 0.216571 0.228528 0.240127 0.251368 0.26225 0.272773 0.282938 0.292606 0.301637 0.310031 0.317789 0.32491 0.331395 0.337244 0.342455 0.347008 0.350877 0.354065 0.356569 0.358392 0.359531 0.359989 0.359763 0.35892 0.357523 0.355571 0.353066 0.350007 0.346394 0.342228 0.337507 0.332342 0.326843 0.32101 0.314842 0.30834 0.301504 0.294333 