<?xml version="1.0"?> 
<VTKFile type="StructuredGrid" version="0.1"> 
<StructuredGrid WholeExtent="0 128 0 128 0 0"> 
<Piece Extent="0 128 0 128 0 0"> 
<PointData>
<DataArray type="Float32" Name="u" format="ascii" NumberOfComponents="1"> 
0 0 0 0 0 0 0 0 0 0 0 0 0 0 0 0 0 0 0 0 0 0 0 0 0 0 0 0 0 0 0 0 0 0 0 0 0 0 0 0 0 0 0 0 0 0 0 0 0 0 0 0 0 0 0 0 0 0 0 0 0 0 0 0 0 0 0 0 0 0 0 0 0 0 0 0 0 0 0 0 0 0 0 0 0 0 0 0 0 0 0 0 0 0 0 0 0 0 0 0 0 0 0 0 0 0 0 0 0 0 0 0 0 0 0 0 0 0 0 0 0 0 0 0 0 0 0 0 0 0 2.81961e-07 1.12785e-06 2.53765e-06 4.51138e-06 7.04904e-06 1.01506e-05 1.38161e-05 1.80455e-05 2.29206e-05 2.8523e-05 3.48527e-05 4.19098e-05 4.96943e-05 5.82061e-05 6.74452e-05 7.74117e-05 8.78424e-05 9.84741e-05 0.000109307 0.000120341 0.000131576 0.000143012 0.000154649 0.000166487 0.000178275 0.000189763 0.000200951 0.000211838 0.000222426 0.000232713 0.000242699 0.000252385 0.000261644 0.000270348 0.000278497 0.00028609 0.000293129 0.000299613 0.000305541 0.000310915 0.000315714 0.000319919 0.00032353 0.000326546 0.000328968 0.000330796 0.00033203 0.00033267 0.000332768 0.00033238 0.000331504 0.000330141 0.000328291 0.000325954 0.000323129 0.000319818 0.000316107 0.000312084 0.00030775 0.000303105 0.000298148 0.000292879 0.000287299 0.000281408 0.000275294 0.000269047 0.000262666 0.000256153 0.000249506 0.000242725 0.000235812 0.000228765 0.000221654 0.000214551 0.000207453 0.000200363 0.000193279 0.000186201 0.00017913 0.000172065 0.000165052 0.000158135 0.000151313 0.000144587 0.000137957 0.000131422 0.000124984 0.000118641 0.000112418 0.000106339 0.000100404 9.46137e-05 8.89673e-05 8.34651e-05 7.8107e-05 7.2893e-05 6.78376e-05 6.29549e-05 5.8245e-05 5.37079e-05 4.93436e-05 4.51521e-05 4.11335e-05 3.72876e-05 3.36278e-05 3.01677e-05 2.6907e-05 2.38459e-05 2.09844e-05 1.83224e-05 1.58599e-05 1.3597e-05 1.15305e-05 9.65703e-06 7.97673e-06 6.48957e-06 5.19553e-06 4.09464e-06 3.18687e-06 2.47224e-06 1.89281e-06 1.39064e-06 9.65721e-07 6.18061e-07 3.47659e-07 1.54515e-07 3.86288e-08 0 0 1.12785e-06 4.51138e-06 1.01506e-05 1.80455e-05 2.81961e-05 4.06025e-05 5.52645e-05 7.21821e-05 9.16824e-05 0.000114092 0.000139411 0.000167639 0.000198777 0.000232824 0.000269781 0.000309647 0.00035137 0.000393897 0.000437228 0.000481363 0.000526303 0.000572046 0.000618594 0.000665946 0.0007131 0.000759052 0.000803804 0.000847354 0.000889703 0.00093085 0.000970797 0.00100954 0.00104658 0.00108139 0.00111399 0.00114436 0.00117252 0.00119845 0.00122217 0.00124366 0.00126286 0.00127968 0.00129412 0.00130618 0.00131587 0.00132319 0.00132812 0.00133068 0.00133107 0.00132952 0.00132602 0.00132057 0.00131316 0.00130382 0.00129252 0.00127927 0.00126443 0.00124834 0.001231 0.00121242 0.00119259 0.00117152 0.0011492 0.00112563 0.00110118 0.00107619 0.00105067 0.00102461 0.000998022 0.000970901 0.000943246 0.000915059 0.000886617 0.000858202 0.000829813 0.000801451 0.000773114 0.000744804 0.00071652 0.000688262 0.000660209 0.000632539 0.000605252 0.000578348 0.000551827 0.000525689 0.000499934 0.000474562 0.000449671 0.000425355 0.000401617 0.000378455 0.000355869 0.00033386 0.000312428 0.000291572 0.00027135 0.00025182 0.00023298 0.000214832 0.000197375 0.000180609 0.000164534 0.00014915 0.000134511 0.000120671 0.000107628 9.53838e-05 8.39376e-05 7.32896e-05 6.34398e-05 5.43881e-05 4.61219e-05 3.86281e-05 3.19069e-05 2.59583e-05 2.07821e-05 1.63785e-05 1.27475e-05 9.88898e-06 7.57125e-06 5.56255e-06 3.86288e-06 2.47224e-06 1.39064e-06 6.18061e-07 1.54515e-07 0 0 2.53765e-06 1.01506e-05 2.28389e-05 4.06025e-05 6.34413e-05 9.13555e-05 0.000124345 0.00016241 0.000206285 0.000256707 0.000313675 0.000377189 0.000447249 0.000523855 0.000607007 0.000696705 0.000790582 0.000886267 0.000983762 0.00108307 0.00118418 0.0012871 0.00139184 0.00149838 0.00160448 0.00170787 0.00180856 0.00190655 0.00200183 0.00209441 0.00218429 0.00227147 0.0023548 0.00243313 0.00250647 0.00257481 0.00263816 0.00269651 0.00274987 0.00279824 0.00284143 0.00287927 0.00291177 0.00293892 0.00296072 0.00297717 0.00298827 0.00299403 0.00299491 0.00299142 0.00298354 0.00297127 0.00295462 0.00293359 0.00290817 0.00287836 0.00284496 0.00280876 0.00276975 0.00272794 0.00268333 0.00263591 0.00258569 0.00253267 0.00247765 0.00242142 0.002364 0.00230537 0.00224555 0.00218453 0.0021223 0.00205888 0.00199489 0.00193096 0.00186708 0.00180326 0.00173951 0.00167581 0.00161217 0.00154859 0.00148547 0.00142321 0.00136182 0.00130128 0.00124161 0.0011828 0.00112485 0.00106777 0.00101176 0.00095705 0.000903638 0.000851523 0.000800706 0.000751186 0.000702963 0.000656037 0.000610538 0.000566594 0.000524205 0.000483371 0.000444093 0.000406369 0.000370201 0.000335588 0.000302651 0.000271509 0.000242163 0.000214613 0.00018886 0.000164902 0.000142739 0.000122373 0.000103774 8.69133e-05 7.17906e-05 5.84061e-05 4.67598e-05 3.68517e-05 2.86819e-05 2.22502e-05 1.70353e-05 1.25157e-05 8.69149e-06 5.56255e-06 3.12894e-06 1.39064e-06 3.47659e-07 0 0 4.51138e-06 1.80455e-05 4.06025e-05 7.21821e-05 0.000112785 0.00016241 0.000221058 0.000288729 0.000366729 0.000456368 0.000557644 0.000670558 0.000795109 0.000931297 0.00107912 0.00123859 0.00140548 0.00157559 0.00174891 0.00192545 0.00210521 0.00228819 0.00247438 0.00266379 0.0028524 0.00303621 0.00321521 0.00338942 0.00355881 0.0037234 0.00388319 0.00403817 0.00418631 0.00432557 0.00445594 0.00457744 0.00469006 0.0047938 0.00488866 0.00497464 0.00505143 0.00511871 0.00517648 0.00522474 0.00526349 0.00529274 0.00531248 0.00532271 0.00532429 0.00531808 0.00530407 0.00528226 0.00525266 0.00521526 0.00517007 0.00511708 0.00505771 0.00499335 0.004924 0.00484967 0.00477036 0.00468607 0.00459679 0.00450252 0.0044047 0.00430475 0.00420266 0.00409844 0.00399209 0.0038836 0.00377299 0.00366023 0.00354647 0.00343281 0.00331925 0.0032058 0.00309246 0.00297922 0.00286608 0.00275305 0.00264084 0.00253015 0.00242101 0.00231339 0.00220731 0.00210276 0.00199974 0.00189825 0.00179868 0.00170142 0.00160647 0.00151382 0.00142348 0.00133544 0.00124971 0.00116629 0.0010854 0.00100728 0.00093192 0.000859327 0.000789498 0.000722434 0.000658135 0.000596601 0.000538045 0.000482683 0.000430512 0.000381535 0.00033575 0.000293158 0.000253759 0.000217553 0.000184487 0.000154513 0.000127628 0.000103833 8.31285e-05 6.55142e-05 5.099e-05 3.95559e-05 3.0285e-05 2.22502e-05 1.54515e-05 9.88898e-06 5.56255e-06 2.47224e-06 6.18061e-07 0 0 7.04904e-06 2.81961e-05 6.34413e-05 0.000112785 0.000176226 0.000253765 0.000345403 0.000451138 0.000573015 0.000713075 0.000871319 0.00104775 0.00124236 0.00145515 0.00168613 0.00193529 0.00219606 0.00246185 0.00273267 0.00300852 0.00328939 0.00357529 0.00386621 0.00416216 0.00445688 0.00474408 0.00502377 0.00529596 0.00556064 0.00581781 0.00606748 0.00630964 0.0065411 0.0067587 0.00696241 0.00715226 0.00732822 0.00749032 0.00763853 0.00777288 0.00789286 0.00799798 0.00808825 0.00816366 0.00822421 0.00826991 0.00830075 0.00831674 0.00831921 0.0083095 0.0082876 0.00825353 0.00820728 0.00814885 0.00807824 0.00799544 0.00790267 0.0078021 0.00769375 0.00757762 0.00745369 0.00732198 0.00718248 0.00703519 0.00688235 0.00672617 0.00656666 0.00640382 0.00623764 0.00606813 0.00589529 0.00571912 0.00554136 0.00536376 0.00518633 0.00500907 0.00483196 0.00465502 0.00447825 0.00430164 0.0041263 0.00395337 0.00378282 0.00361467 0.00344892 0.00328556 0.00312459 0.00296602 0.00281044 0.00265847 0.0025101 0.00236534 0.00222418 0.00208663 0.00195267 0.00182233 0.00169594 0.00157387 0.00145612 0.0013427 0.00123359 0.0011288 0.00102834 0.000932189 0.000840696 0.000754191 0.000672676 0.000596148 0.00052461 0.00045806 0.000396499 0.000339926 0.000288262 0.000241426 0.000199418 0.000162239 0.000129888 0.000102366 7.96718e-05 6.18061e-05 4.73203e-05 3.47659e-05 2.4143e-05 1.54515e-05 8.69149e-06 3.86288e-06 9.65721e-07 0 0 1.01506e-05 4.06025e-05 9.13555e-05 0.00016241 0.000253765 0.000365422 0.00049738 0.000649639 0.000825141 0.00102683 0.0012547 0.00150875 0.00178899 0.00209542 0.00242803 0.00278682 0.00316233 0.00354507 0.00393505 0.00433227 0.00473672 0.00514842 0.00556735 0.00599352 0.0064179 0.00683147 0.00723423 0.00762618 0.00800732 0.00837765 0.00873717 0.00908588 0.00941919 0.00973252 0.0100259 0.0102992 0.0105526 0.0107861 0.0109995 0.0111929 0.0113657 0.0115171 0.0116471 0.0117557 0.0118429 0.0119087 0.0119531 0.0119761 0.0119797 0.0119657 0.0119342 0.0118851 0.0118185 0.0117343 0.0116327 0.0115134 0.0113798 0.011235 0.011079 0.0109118 0.0107333 0.0105437 0.0103428 0.0101307 0.00991058 0.00968568 0.00945599 0.00922149 0.0089822 0.00873811 0.00848922 0.00823553 0.00797956 0.00772382 0.00746832 0.00721306 0.00695803 0.00670324 0.00644868 0.00619436 0.00594188 0.00569285 0.00544726 0.00520513 0.00496644 0.0047312 0.00449941 0.00427106 0.00404704 0.0038282 0.00361455 0.00340609 0.00320282 0.00300474 0.00281185 0.00262415 0.00244215 0.00226638 0.00209682 0.00193348 0.00177637 0.00162548 0.0014808 0.00134235 0.0012106 0.00108604 0.000968653 0.000858454 0.000755438 0.000659606 0.000570958 0.000489493 0.000415097 0.000347653 0.000287162 0.000233624 0.000187039 0.000147407 0.000114727 8.90008e-05 6.81413e-05 5.0063e-05 3.47659e-05 2.22502e-05 1.25157e-05 5.56255e-06 1.39064e-06 0 0 1.38161e-05 5.52645e-05 0.000124345 0.000221058 0.000345403 0.00049738 0.00067699 0.000884231 0.00112311 0.00139763 0.00170778 0.00205358 0.00243502 0.0028521 0.00330482 0.00379317 0.00430428 0.00482523 0.00535604 0.0058967 0.00644721 0.00700757 0.00757778 0.00815784 0.00873548 0.00929839 0.0098466 0.0103801 0.0108989 0.0114029 0.0118923 0.0123669 0.0128206 0.013247 0.0136463 0.0140184 0.0143633 0.014681 0.0149715 0.0152348 0.01547 0.015676 0.015853 0.0160008 0.0161195 0.016209 0.0162695 0.0163008 0.0163056 0.0162866 0.0162437 0.0161769 0.0160863 0.0159717 0.0158333 0.0156711 0.0154892 0.0152921 0.0150798 0.0148521 0.0146092 0.0143511 0.0140777 0.013789 0.0134894 0.0131833 0.0128707 0.0125515 0.0122258 0.0118935 0.0115548 0.0112095 0.0108611 0.010513 0.0101652 0.00981777 0.00947065 0.00912385 0.00877737 0.00843121 0.00808756 0.0077486 0.00741433 0.00708476 0.00675988 0.00643969 0.00612419 0.00581339 0.00550847 0.0052106 0.00491981 0.00463607 0.0043594 0.00408979 0.00382724 0.00357176 0.00332404 0.00308479 0.002854 0.00263169 0.00241784 0.00221246 0.00201554 0.00182709 0.00164776 0.00147822 0.00131844 0.00116845 0.00102824 0.000897797 0.000777137 0.000666255 0.000564993 0.000473195 0.00039086 0.000317989 0.000254581 0.000200637 0.000156157 0.00012114 9.27478e-05 6.81413e-05 4.73203e-05 3.0285e-05 1.70353e-05 7.57125e-06 1.89281e-06 0 0 1.80455e-05 7.21821e-05 0.00016241 0.000288729 0.000451138 0.000649639 0.000884231 0.00115491 0.00146692 0.00182547 0.00223058 0.00268223 0.00318043 0.00372519 0.00431649 0.00495435 0.00562191 0.00630234 0.00699564 0.00770181 0.00842084 0.00915274 0.00989751 0.0106551 0.0114096 0.0121448 0.0128609 0.0135577 0.0142352 0.0148936 0.0155327 0.0161527 0.0167452 0.0173023 0.0178238 0.0183098 0.0187603 0.0191752 0.0195546 0.0198986 0.0202057 0.0204748 0.0207059 0.020899 0.021054 0.021171 0.0212499 0.0212909 0.0212972 0.0212723 0.0212163 0.021129 0.0210106 0.0208611 0.0206803 0.0204683 0.0202308 0.0199734 0.019696 0.0193987 0.0190815 0.0187443 0.0183872 0.0180101 0.0176188 0.017219 0.0168106 0.0163938 0.0159684 0.0155344 0.0150919 0.0146409 0.0141859 0.0137312 0.013277 0.0128232 0.0123698 0.0119169 0.0114643 0.0110122 0.0105633 0.0101206 0.00968402 0.00925356 0.00882923 0.00841102 0.00799895 0.007593 0.00719473 0.00680569 0.00642587 0.00605527 0.00569391 0.00534176 0.00499885 0.00466515 0.0043416 0.00402911 0.00372768 0.00343731 0.00315799 0.00288974 0.00263254 0.0023864 0.00215218 0.00193073 0.00172205 0.00152614 0.001343 0.00117263 0.00101504 0.00087021 0.00073795 0.00061805 0.000510511 0.000415332 0.000332514 0.000262057 0.00020396 0.000158224 0.00012114 8.90008e-05 6.18061e-05 3.95559e-05 2.22502e-05 9.88898e-06 2.47224e-06 0 0 2.29495e-05 9.17982e-05 0.000206546 0.000367193 0.000573738 0.000826183 0.00112453 0.00146877 0.00186532 0.00232058 0.00283455 0.00340724 0.00403863 0.00472874 0.00547756 0.00628509 0.00713006 0.00799119 0.00886848 0.00976193 0.0106715 0.0115973 0.0125392 0.0134973 0.0144514 0.0153811 0.0162866 0.0171678 0.0180247 0.0188573 0.0196656 0.0204496 0.0211991 0.0219037 0.0225634 0.0231782 0.0237481 0.0242732 0.0247534 0.0251887 0.0255775 0.0259183 0.026211 0.0264556 0.0266521 0.0268005 0.0269009 0.0269532 0.0269617 0.0269308 0.0268604 0.0267506 0.0266013 0.0264126 0.0261844 0.0259168 0.0256169 0.0252917 0.0249412 0.0245655 0.0241646 0.0237384 0.0232869 0.0228102 0.0223155 0.02181 0.0212936 0.0207664 0.0202283 0.0196794 0.0191197 0.0185492 0.0179735 0.0173983 0.0168235 0.0162493 0.0156756 0.0151024 0.0145296 0.0139574 0.0133893 0.0128289 0.0122763 0.0117313 0.0111941 0.0106647 0.010143 0.00962898 0.00912469 0.00863206 0.00815109 0.00768178 0.00722413 0.00677814 0.00634382 0.00592116 0.00551131 0.00511545 0.00473358 0.00436568 0.00401177 0.00367183 0.00334589 0.00303392 0.00273701 0.00245623 0.00219159 0.00194307 0.00171069 0.00149444 0.00129433 0.00111034 0.000942243 0.000789778 0.000652948 0.000531754 0.000426196 0.000336273 0.000261986 0.000203335 0.000155678 0.000114376 7.94277e-05 5.08337e-05 2.8594e-05 1.27084e-05 3.17711e-06 0 0 2.86388e-05 0.000114555 0.000257749 0.000458221 0.00071597 0.001031 0.0014033 0.00183288 0.00232706 0.00289317 0.00353119 0.00424114 0.005023 0.00587679 0.0068025 0.00780013 0.00884353 0.00990654 0.0109892 0.0120914 0.0132132 0.0143547 0.0155157 0.0166964 0.0178719 0.0190176 0.0201334 0.0212193 0.0222753 0.0233015 0.0242977 0.0252642 0.026188 0.0270567 0.0278702 0.0286285 0.0293316 0.0299795 0.0305722 0.0311098 0.0315901 0.0320112 0.0323732 0.0326759 0.0329194 0.0331037 0.0332288 0.0332947 0.0333067 0.03327 0.0331846 0.0330506 0.032868 0.0326367 0.0323567 0.0320281 0.0316595 0.0312598 0.0308288 0.0303666 0.0298731 0.0293485 0.0287927 0.0282056 0.0275962 0.0269733 0.026337 0.0256872 0.025024 0.0243472 0.0236571 0.0229534 0.0222433 0.0215337 0.0208246 0.020116 0.019408 0.0187005 0.0179935 0.017287 0.0165855 0.0158935 0.0152109 0.0145379 0.0138743 0.0132202 0.0125756 0.0119404 0.0113172 0.0107083 0.0101138 0.00953365 0.00896785 0.00841641 0.00787932 0.00735658 0.00684964 0.00635992 0.00588742 0.00543214 0.00499409 0.00457326 0.00416965 0.00378326 0.0034154 0.00306737 0.00273917 0.0024308 0.00214227 0.00187356 0.00162468 0.00139564 0.00118615 0.000995935 0.000825005 0.000673355 0.000540985 0.000427895 0.000334086 0.000259557 0.000198723 0.000146001 0.000101389 6.48891e-05 3.65001e-05 1.62223e-05 4.05557e-06 0 0 3.51133e-05 0.000140453 0.000316019 0.000561812 0.000877832 0.00126408 0.00172055 0.00224725 0.00285215 0.00354323 0.00432049 0.00518393 0.00613355 0.00716935 0.00829132 0.00949948 0.0107623 0.0120484 0.0133577 0.0146902 0.0160459 0.0174248 0.0188269 0.0202523 0.0216712 0.0230542 0.0244012 0.0257122 0.0269872 0.0282262 0.0294292 0.0305963 0.0317121 0.0327614 0.0337443 0.0346607 0.0355107 0.0362942 0.0370112 0.0376618 0.0382434 0.0387537 0.0391925 0.0395599 0.0398559 0.0400805 0.0402337 0.0403155 0.0403321 0.04029 0.040189 0.0400293 0.0398107 0.0395333 0.0391971 0.0388022 0.0383588 0.0378777 0.0373587 0.0368019 0.0362072 0.0355747 0.0349044 0.0341962 0.0334609 0.0327091 0.031941 0.0311564 0.0303553 0.0295379 0.028704 0.0278537 0.0269954 0.0261375 0.0252802 0.0244234 0.023567 0.0227112 0.0218558 0.0210009 0.0201519 0.0193143 0.0184881 0.0176732 0.0168697 0.0160775 0.0152967 0.0145273 0.0137723 0.0130345 0.012314 0.0116109 0.0109251 0.0102565 0.00960534 0.00897144 0.00835659 0.00776251 0.00718922 0.0066367 0.00610497 0.00559401 0.00510383 0.00463444 0.00418736 0.00376415 0.00336481 0.00298933 0.00263772 0.00230998 0.0020061 0.00172609 0.00146966 0.00123652 0.00102668 0.000840133 0.00067688 0.000536922 0.000420258 0.000326889 0.000250274 0.000183875 0.000127691 8.17222e-05 4.59687e-05 2.04305e-05 5.10764e-06 0 0 4.2373e-05 0.000169492 0.000381357 0.000677968 0.00105932 0.00152543 0.00207628 0.00271187 0.00344058 0.00427078 0.00520246 0.00623562 0.00737027 0.00860641 0.00994402 0.0113831 0.0128865 0.0144168 0.015974 0.0175583 0.0191695 0.0208077 0.0224729 0.024165 0.0258493 0.027491 0.02909 0.0306465 0.0321603 0.0336314 0.03506 0.0364459 0.0377712 0.0390178 0.0401857 0.0412749 0.0422854 0.0432172 0.0440704 0.0448448 0.0455376 0.0461456 0.046669 0.0471077 0.0474616 0.0477309 0.0479155 0.0480154 0.048038 0.0479907 0.0478735 0.0476864 0.0474294 0.0471025 0.0467057 0.046239 0.0457148 0.0451455 0.044531 0.0438715 0.0431668 0.042417 0.0416221 0.040782 0.0399096 0.0390174 0.0381054 0.0371738 0.0362224 0.0352513 0.0342605 0.0332499 0.0322297 0.0312098 0.0301904 0.0291713 0.0281527 0.0271344 0.0261166 0.0250991 0.0240886 0.0230914 0.0221076 0.0211373 0.0201803 0.0192367 0.0183065 0.0173897 0.0164899 0.0156106 0.0147518 0.0139135 0.0130958 0.0122986 0.0115219 0.0107657 0.0100321 0.00932323 0.00863897 0.00797935 0.00734439 0.00673409 0.00614844 0.00558744 0.00505288 0.00454657 0.00406849 0.00361866 0.00319706 0.0028037 0.00243858 0.0021017 0.00179278 0.00151154 0.00125798 0.00103209 0.000833883 0.000663354 0.000520503 0.000405331 0.000310332 0.000227999 0.000158333 0.000101333 5.69997e-05 2.53332e-05 6.3333e-06 0 0 5.0418e-05 0.000201672 0.000453762 0.000806687 0.00126045 0.00181505 0.00247048 0.00322675 0.00409236 0.0050758 0.00617708 0.00739621 0.00873317 0.010188 0.0117606 0.0134511 0.0152159 0.0170116 0.0188382 0.0206957 0.0225841 0.0245034 0.0264535 0.0284345 0.0304061 0.0323279 0.0341999 0.0360221 0.0377946 0.0395172 0.0411901 0.0428132 0.0443654 0.0458258 0.0471943 0.048471 0.0496557 0.0507486 0.0517496 0.0526588 0.0534724 0.0541871 0.0548026 0.0553191 0.0557366 0.056055 0.0562743 0.0563946 0.0564244 0.0563722 0.0562381 0.0560221 0.0557241 0.0553443 0.0548824 0.0543387 0.0537274 0.0530631 0.0523457 0.0515753 0.0507518 0.0498753 0.0489457 0.0479631 0.0469422 0.045898 0.0448304 0.0437395 0.0426252 0.0414875 0.0403265 0.0391421 0.0379462 0.0367505 0.0355551 0.0343599 0.033165 0.0319703 0.0307759 0.0295817 0.0283955 0.0272248 0.0260697 0.0249301 0.0238061 0.0226977 0.0216048 0.0205275 0.01947 0.0184365 0.017427 0.0164415 0.01548 0.0145425 0.013629 0.0127394 0.0118763 0.0110421 0.0102367 0.0094601 0.00871237 0.00799349 0.00730346 0.00664227 0.00601197 0.00541463 0.00485023 0.00431878 0.00382028 0.00335473 0.00292213 0.00252248 0.00215552 0.00182099 0.00151889 0.00124923 0.00101199 0.000807191 0.000634822 0.000494885 0.000378896 0.000278373 0.000193314 0.000123721 6.95931e-05 3.09303e-05 7.73257e-06 0 0 5.92482e-05 0.000236993 0.000533233 0.000947971 0.0014812 0.00213293 0.00290316 0.00379188 0.00480747 0.0059583 0.00724438 0.00866569 0.0102222 0.011914 0.0137411 0.0157033 0.0177507 0.019833 0.0219503 0.0241025 0.0262897 0.0285118 0.0307689 0.0330609 0.0353417 0.037565 0.0397308 0.0418392 0.0438901 0.0458835 0.0478195 0.049698 0.0514948 0.0531855 0.0547702 0.056249 0.0576217 0.0588883 0.060049 0.0611037 0.0620481 0.062878 0.0635934 0.0641943 0.0646807 0.0650526 0.0653101 0.065453 0.0654912 0.0654345 0.0652829 0.0650363 0.0646949 0.0642585 0.0637273 0.0631011 0.0623966 0.0616305 0.0608028 0.0599134 0.0589624 0.0579497 0.0568753 0.0557393 0.0545589 0.0533511 0.052116 0.0508535 0.0495637 0.0482466 0.0469022 0.0455304 0.044145 0.0427596 0.0413743 0.0399891 0.0386039 0.0372188 0.0358337 0.0344487 0.0330726 0.0317144 0.0303741 0.0290517 0.0277472 0.0264605 0.0251917 0.0239408 0.0227128 0.0215124 0.0203398 0.0191949 0.0180777 0.0169883 0.0159265 0.0148926 0.0138891 0.012919 0.0119823 0.0110789 0.0102089 0.00937222 0.0085689 0.00779892 0.00706462 0.00636832 0.00571001 0.0050897 0.00450739 0.00396307 0.00345674 0.00298841 0.00255786 0.00216487 0.00180942 0.00149154 0.00121121 0.000968433 0.000763213 0.000595548 0.000455967 0.000334996 0.000232636 0.000148887 8.3749e-05 3.72218e-05 9.30544e-06 0 0 6.88636e-05 0.000275454 0.000619772 0.00110182 0.00172159 0.00247909 0.00337432 0.00440727 0.00558593 0.00691829 0.00840433 0.0100441 0.0118375 0.0137846 0.0158854 0.0181399 0.0204908 0.0228809 0.0253102 0.0277786 0.0302863 0.0328331 0.035419 0.0380442 0.0406561 0.0432023 0.0456828 0.0480977 0.0504469 0.0527304 0.0549482 0.0571004 0.0591592 0.0610969 0.0629134 0.0646089 0.0661832 0.0676364 0.0689685 0.0701796 0.0712645 0.0722184 0.0730413 0.0737332 0.0742941 0.0747239 0.0750228 0.0751906 0.0752384 0.0751775 0.0750077 0.0747291 0.0743417 0.0738454 0.0732403 0.0725263 0.0717225 0.0708478 0.0699022 0.0688857 0.0677984 0.0666401 0.0654109 0.0641109 0.0627595 0.0613766 0.059962 0.0585158 0.0570379 0.0555285 0.0539874 0.0524146 0.050826 0.0492372 0.0476481 0.0460589 0.0444694 0.0428798 0.04129 0.0396999 0.03812 0.0365603 0.035021 0.0335021 0.0320035 0.0305252 0.0290672 0.0276296 0.026218 0.0248382 0.02349 0.0221736 0.0208889 0.0196359 0.0184147 0.0172251 0.0160705 0.0149541 0.0138759 0.0128359 0.011834 0.0108703 0.00994476 0.00905741 0.00821084 0.00740765 0.00664785 0.00593142 0.00525837 0.0046287 0.00404242 0.00349951 0.00299982 0.00254317 0.00212958 0.00175903 0.00143153 0.00114708 0.000905677 0.000707322 0.000541544 0.000397869 0.000276298 0.000176831 9.94672e-05 4.42077e-05 1.10519e-05 0 0 7.92643e-05 0.000317057 0.000713379 0.00126823 0.00198161 0.00285351 0.00388395 0.00507291 0.00642774 0.00795575 0.00965695 0.0115313 0.0135789 0.0157997 0.0181936 0.0207608 0.0234363 0.0261553 0.0289179 0.0317241 0.0345738 0.0374671 0.0404039 0.0433842 0.0463492 0.0492397 0.0520558 0.0547975 0.0574649 0.0600578 0.0625763 0.0650204 0.0673587 0.0695599 0.0716239 0.0735507 0.0753404 0.0769929 0.0785082 0.0798864 0.0811217 0.0822083 0.0831464 0.0839358 0.0845766 0.0850688 0.0854124 0.0856074 0.0856662 0.0856013 0.0854127 0.0851004 0.0846644 0.0841048 0.0834214 0.0826144 0.0817051 0.080715 0.0796441 0.0784924 0.0772599 0.0759466 0.0745525 0.0730776 0.0715442 0.0699745 0.0683685 0.0667263 0.0650479 0.0633331 0.0615821 0.0597949 0.0579893 0.0561831 0.0543765 0.0525693 0.0507616 0.0489534 0.0471448 0.0453356 0.0435376 0.0417625 0.0400104 0.0382812 0.036575 0.0348917 0.0332313 0.0315938 0.0299858 0.0284138 0.0268778 0.0253777 0.0239136 0.0224855 0.0210933 0.0197371 0.0184206 0.0171474 0.0159175 0.0147309 0.0135876 0.0124877 0.011431 0.0104177 0.00945063 0.00853263 0.00766373 0.00684393 0.00607324 0.00535165 0.00467916 0.00405577 0.00348138 0.00295591 0.00247935 0.0020517 0.00167296 0.00134313 0.00106221 0.000830207 0.000635627 0.000466992 0.0003243 0.000207552 0.000116748 5.18879e-05 1.2972e-05 0 0 9.02313e-05 0.000360925 0.000812082 0.0014437 0.00225578 0.00324833 0.00442133 0.0057748 0.0073152 0.00904898 0.0109762 0.0130967 0.0154107 0.017918 0.0206187 0.0235129 0.0265276 0.0295904 0.0327011 0.0358598 0.0390665 0.0423211 0.0456237 0.0489743 0.0523071 0.0555564 0.0587221 0.0618044 0.0648032 0.0677185 0.0705503 0.0732986 0.0759282 0.078404 0.080726 0.0828941 0.0849083 0.0867688 0.0884754 0.0900281 0.0914205 0.092646 0.0937045 0.0945961 0.0953208 0.0958786 0.0962694 0.0964933 0.0965642 0.0964958 0.0962883 0.0959416 0.0954557 0.0948307 0.0940664 0.093163 0.0921443 0.0910346 0.0898336 0.0885415 0.0871583 0.0856839 0.0841183 0.0824616 0.0807387 0.0789747 0.0771695 0.0753232 0.0734358 0.0715072 0.0695375 0.0675266 0.0654948 0.063462 0.0614284 0.0593939 0.0573585 0.0553223 0.0532852 0.0512471 0.0492215 0.0472215 0.0452471 0.0432983 0.0413751 0.0394775 0.0376055 0.0357592 0.0339458 0.0321728 0.0304403 0.0287481 0.0270962 0.0254848 0.0239138 0.0223831 0.020897 0.0194595 0.0180707 0.0167306 0.0154391 0.0141962 0.013002 0.0118565 0.0107628 0.00972421 0.00874061 0.00781204 0.00693851 0.00612002 0.00535656 0.00464814 0.00399476 0.00339642 0.00285312 0.00236486 0.00193165 0.00155348 0.00123035 0.000962263 0.000736733 0.000541273 0.000375884 0.000240566 0.000135318 6.01414e-05 1.50354e-05 0 0 0.000101546 0.000406183 0.000913912 0.00162473 0.00253865 0.00365565 0.00497574 0.00649893 0.00823064 0.0101763 0.0123359 0.0147094 0.0172969 0.0200984 0.0231137 0.0263431 0.0297055 0.0331203 0.0365874 0.0401068 0.0436785 0.0473025 0.0509788 0.0547074 0.0584158 0.0620313 0.0655541 0.068984 0.0723212 0.0755655 0.078717 0.0817758 0.0847027 0.0874588 0.0900441 0.0924586 0.0947024 0.0967753 0.0986774 0.100409 0.101962 0.103329 0.104512 0.105508 0.106319 0.106944 0.107384 0.107638 0.107722 0.107651 0.107425 0.107044 0.106508 0.105817 0.104971 0.10397 0.10284 0.101609 0.100276 0.0988416 0.0973051 0.0956668 0.0939267 0.0920849 0.0901691 0.0882071 0.0861989 0.0841446 0.0820441 0.0798973 0.0777045 0.0754654 0.0732026 0.0709384 0.068673 0.0664063 0.0641383 0.0618689 0.0595983 0.0573263 0.0550679 0.0528377 0.0506359 0.0484624 0.0463171 0.0442002 0.0421116 0.0400513 0.0380276 0.0360487 0.0341147 0.0322256 0.0303813 0.0285819 0.0268274 0.0251177 0.0234575 0.0218514 0.0202994 0.0188015 0.0173576 0.0159678 0.0146321 0.0133505 0.0121264 0.0109634 0.00986144 0.00882055 0.00784073 0.00692196 0.00606425 0.00526759 0.00453214 0.00385803 0.00324526 0.00269384 0.00220375 0.00177501 0.00140761 0.00110155 0.000843375 0.000619623 0.000430293 0.000275388 0.000154906 6.88469e-05 1.72117e-05 0 0 0.000113208 0.000452831 0.00101887 0.00181132 0.00283019 0.00407548 0.00554718 0.0072453 0.00917405 0.0113377 0.0137361 0.0163695 0.0192377 0.0223407 0.0256787 0.0292514 0.0329699 0.036745 0.0405767 0.0444649 0.0484097 0.0524111 0.0564691 0.0605836 0.0646753 0.0686646 0.0725516 0.0763363 0.0800187 0.0835987 0.0870764 0.0904518 0.093682 0.0967242 0.0995783 0.102244 0.104722 0.107012 0.109114 0.111028 0.112746 0.114259 0.115567 0.116671 0.117571 0.118266 0.118756 0.119042 0.11914 0.119067 0.118823 0.118408 0.117821 0.117064 0.116135 0.115035 0.113793 0.112439 0.110972 0.109392 0.1077 0.105895 0.103978 0.101947 0.0998353 0.0976717 0.0954567 0.0931903 0.0908726 0.0885035 0.086083 0.0836111 0.0811126 0.0786124 0.0761103 0.0736065 0.0711008 0.0685934 0.0660841 0.0635731 0.0610767 0.0586112 0.0561768 0.0537735 0.0514011 0.0490598 0.0467494 0.0444701 0.0422311 0.0400414 0.0379011 0.0358102 0.0337688 0.0317768 0.0298342 0.0279409 0.0261022 0.0243231 0.0226035 0.0209436 0.0193432 0.0178024 0.0163212 0.0148995 0.0135412 0.0122501 0.0110262 0.00986946 0.00877987 0.00775745 0.0068022 0.00591412 0.00509353 0.00434075 0.00365578 0.00303862 0.00248927 0.00200773 0.00159399 0.00124807 0.000955555 0.00070204 0.000487528 0.000312018 0.00017551 7.80045e-05 1.95011e-05 0 0 0.000125217 0.000500869 0.00112695 0.00200347 0.00313043 0.00450782 0.00613564 0.0080139 0.0101454 0.0125331 0.0151769 0.0180769 0.0212329 0.0246451 0.0283135 0.032238 0.0363209 0.0404646 0.044669 0.0489343 0.0532603 0.057647 0.0620946 0.0666029 0.0710856 0.0754562 0.0797148 0.0838613 0.0878957 0.0918182 0.0956285 0.0993268 0.102866 0.1062 0.109329 0.112251 0.114969 0.11748 0.119786 0.121887 0.123772 0.125434 0.126872 0.128087 0.129077 0.129844 0.130386 0.130705 0.130819 0.130744 0.130482 0.130033 0.129396 0.128571 0.127559 0.126359 0.125003 0.123524 0.121921 0.120194 0.118344 0.116369 0.114271 0.112049 0.109737 0.107368 0.104943 0.102461 0.0999214 0.0973256 0.0946731 0.0919638 0.089225 0.0864838 0.0837403 0.0809944 0.0782462 0.0754956 0.0727427 0.0699874 0.0672478 0.064542 0.0618699 0.0592316 0.056627 0.0540562 0.0515191 0.0490158 0.0465563 0.0441509 0.0417995 0.0395021 0.0372587 0.0350694 0.0329341 0.0308528 0.028831 0.0268745 0.0249831 0.0231569 0.0213959 0.0197 0.0180693 0.0165037 0.0150074 0.0135845 0.0122349 0.0109588 0.00975595 0.00862651 0.00757043 0.00658773 0.00567893 0.00484458 0.00408467 0.00339921 0.0027882 0.00225163 0.0017895 0.00140182 0.00107327 0.000788526 0.000547587 0.000350456 0.000197131 8.7614e-05 2.19035e-05 0 0 0.000137574 0.000550296 0.00123817 0.00220118 0.00343935 0.00495266 0.00674113 0.00880474 0.0111448 0.0137626 0.0166582 0.0198316 0.0232827 0.0270116 0.0310182 0.0353026 0.0397583 0.0442789 0.0488644 0.0535148 0.0582301 0.0630103 0.0678553 0.0727653 0.0776467 0.0824061 0.0870435 0.0915589 0.0959524 0.100224 0.104373 0.108401 0.112256 0.115887 0.119295 0.122479 0.125441 0.128178 0.130693 0.132984 0.135041 0.136855 0.138426 0.139753 0.140837 0.141677 0.142274 0.142627 0.142757 0.142682 0.142403 0.141919 0.141231 0.140339 0.139242 0.137941 0.13647 0.134864 0.133123 0.131247 0.129235 0.127089 0.124807 0.122391 0.119875 0.117297 0.114657 0.111955 0.109191 0.106364 0.103475 0.100524 0.0975396 0.0945528 0.0915629 0.0885702 0.0855744 0.0825757 0.079574 0.0765694 0.0735815 0.0706301 0.0677152 0.0648368 0.0619949 0.0591895 0.0564206 0.0536881 0.0510033 0.0483772 0.0458098 0.0433011 0.040851 0.0384597 0.0361271 0.0338532 0.031644 0.0295057 0.0274382 0.0254415 0.0235156 0.0216606 0.0198764 0.018163 0.0165249 0.0149664 0.0134876 0.0120885 0.010769 0.00952912 0.00836894 0.00728841 0.00628834 0.00536951 0.00453194 0.00377561 0.00310054 0.00250671 0.00199413 0.00156281 0.00119652 0.000879079 0.000610472 0.000390702 0.00021977 9.76755e-05 2.44189e-05 0 0 0.000150278 0.000601113 0.0013525 0.00240445 0.00375696 0.00541002 0.00736364 0.00961781 0.0121721 0.0150262 0.01818 0.0216336 0.0253869 0.02944 0.0337928 0.0384454 0.0432823 0.0481881 0.0531629 0.0582066 0.0633192 0.0685008 0.0737513 0.0790707 0.0843586 0.0895143 0.0945378 0.0994293 0.104189 0.108816 0.113311 0.117674 0.12185 0.125784 0.129477 0.132929 0.136139 0.139107 0.141834 0.14432 0.146553 0.148523 0.150229 0.151672 0.152851 0.153767 0.154419 0.154808 0.154955 0.15488 0.154584 0.154066 0.153327 0.152367 0.151185 0.149781 0.148194 0.146459 0.144578 0.14255 0.140376 0.138054 0.135586 0.132971 0.130249 0.127458 0.1246 0.121674 0.11868 0.115618 0.112488 0.10929 0.106057 0.102819 0.0995783 0.0963337 0.0930854 0.0898336 0.086578 0.0833189 0.0800775 0.0768754 0.0737126 0.070589 0.0675047 0.0644596 0.0614538 0.0584873 0.0555721 0.0527204 0.0499321 0.0472072 0.0445458 0.0419478 0.0394133 0.0369422 0.0345411 0.0322166 0.0299686 0.0277973 0.0257025 0.0236842 0.0217426 0.0198775 0.0180937 0.016396 0.0147842 0.0132586 0.0118189 0.0104653 0.00919772 0.00801617 0.00692175 0.00591555 0.00499758 0.00416782 0.00342629 0.00277298 0.00220789 0.00173102 0.