<?xml version="1.0"?> 
<VTKFile type="StructuredGrid" version="0.1"> 
<StructuredGrid WholeExtent="0 128 0 128 0 0"> 
<Piece Extent="0 128 0 128 0 0"> 
<PointData>
<DataArray type="Float32" Name="u" format="ascii" NumberOfComponents="1"> 
0 0 0 0 0 0 0 0 0 0 0 0 0 0 0 0 0 0 0 0 0 0 0 0 0 0 0 0 0 0 0 0 0 0 0 0 0 0 0 0 0 0 0 0 0 0 0 0 0 0 0 0 0 0 0 0 0 0 0 0 0 0 0 0 0 0 0 0 0 0 0 0 0 0 0 0 0 0 0 0 0 0 0 0 0 0 0 0 0 0 0 0 0 0 0 0 0 0 0 0 0 0 0 0 0 0 0 0 0 0 0 0 0 0 0 0 0 0 0 0 0 0 0 0 0 0 0 0 0 0 2.49157e-07 9.96629e-07 2.24241e-06 3.98651e-06 6.22893e-06 8.96966e-06 1.22087e-05 1.59461e-05 2.02539e-05 2.52043e-05 3.07973e-05 3.7033e-05 4.39112e-05 5.14321e-05 5.95955e-05 6.84016e-05 7.76177e-05 8.70113e-05 9.65825e-05 0.000106331 0.000116257 0.000126361 0.000136642 0.000147101 0.000157517 0.00016767 0.00017756 0.000187186 0.00019655 0.000205651 0.000214489 0.000223064 0.000231266 0.000238984 0.000246218 0.000252969 0.000259237 0.000265021 0.000270322 0.000275139 0.000279457 0.00028326 0.000286548 0.000289321 0.00029158 0.000293323 0.000294552 0.000295266 0.000295512 0.000295337 0.00029474 0.000293723 0.000292284 0.000290423 0.000288142 0.000285439 0.00028239 0.000279068 0.000275475 0.000271609 0.000267471 0.000263061 0.000258379 0.000253425 0.000248273 0.000242996 0.000237596 0.000232071 0.000226423 0.00022065 0.000214753 0.000208732 0.000202644 0.000196547 0.00019044 0.000184324 0.000178198 0.000172062 0.000165917 0.000159763 0.000153635 0.000147572 0.000141574 0.00013564 0.00012977 0.000123965 0.000118224 0.000112547 0.000106957 0.000101476 9.61034e-05 9.08396e-05 8.56846e-05 8.06384e-05 7.57009e-05 7.08722e-05 6.61693e-05 6.16093e-05 5.71922e-05 5.29179e-05 4.87865e-05 4.4798e-05 4.09523e-05 3.72495e-05 3.37089e-05 3.03498e-05 2.7172e-05 2.41758e-05 2.1361e-05 1.87276e-05 1.62757e-05 1.40053e-05 1.19205e-05 1.00256e-05 8.32054e-06 6.80535e-06 5.48002e-06 4.34456e-06 3.39896e-06 2.64322e-06 2.02372e-06 1.48681e-06 1.03251e-06 6.60805e-07 3.71703e-07 1.65201e-07 4.13003e-08 0 0 9.96629e-07 3.98651e-06 8.96966e-06 1.59461e-05 2.49157e-05 3.58786e-05 4.88348e-05 6.37842e-05 8.10155e-05 0.000100817 0.000123189 0.000148132 0.000175645 0.000205728 0.000238382 0.000273606 0.000310471 0.000348045 0.00038633 0.000425324 0.000465029 0.000505444 0.000546568 0.000588403 0.000630067 0.000670678 0.000710238 0.000748746 0.000786201 0.000822605 0.000857956 0.000892256 0.000925062 0.000955935 0.000984873 0.00101188 0.00103695 0.00106008 0.00108129 0.00110055 0.00111783 0.00113304 0.00114619 0.00115728 0.00116632 0.00117329 0.00117821 0.00118106 0.00118205 0.00118135 0.00117896 0.00117489 0.00116913 0.00116169 0.00115257 0.00114176 0.00112956 0.00111627 0.0011019 0.00108644 0.00106988 0.00105225 0.00103352 0.0010137 0.000993091 0.000971985 0.000950384 0.000928285 0.000905691 0.0008826 0.000859013 0.000834929 0.000810578 0.000786189 0.000761761 0.000737295 0.000712792 0.000688249 0.000663669 0.00063905 0.000614541 0.00059029 0.000566296 0.00054256 0.000519081 0.000495859 0.000472895 0.000450189 0.000427829 0.000405904 0.000384413 0.000363358 0.000342738 0.000322554 0.000302804 0.000283489 0.000264677 0.000246437 0.000228769 0.000211672 0.000195146 0.000179192 0.000163809 0.000148998 0.000134836 0.000121399 0.000108688 9.67031e-05 8.54439e-05 7.49105e-05 6.5103e-05 5.60212e-05 4.76821e-05 4.01024e-05 3.32822e-05 2.72214e-05 2.19201e-05 1.73782e-05 1.35958e-05 1.05729e-05 8.09486e-06 5.94725e-06 4.13003e-06 2.64322e-06 1.48681e-06 6.60805e-07 1.65201e-07 0 0 2.24241e-06 8.96966e-06 2.01817e-05 3.58786e-05 5.60604e-05 8.07269e-05 0.000109878 0.000143515 0.000182285 0.000226839 0.000277176 0.000333297 0.000395201 0.000462889 0.00053636 0.000615614 0.000698559 0.000783102 0.000869242 0.00095698 0.00104632 0.00113725 0.00122978 0.00132391 0.00141765 0.00150903 0.00159804 0.00168468 0.00176895 0.00185086 0.0019304 0.00200758 0.00208139 0.00215085 0.00221596 0.00227672 0.00233313 0.00238519 0.00243289 0.00247625 0.00251511 0.00254934 0.00257893 0.00260389 0.00262422 0.00263991 0.00265097 0.0026574 0.00265961 0.00265803 0.00265266 0.0026435 0.00263055 0.00261381 0.00259328 0.00256895 0.00254151 0.00251162 0.00247927 0.00244448 0.00240724 0.00236755 0.00232541 0.00228083 0.00223445 0.00218697 0.00213836 0.00208864 0.0020378 0.00198585 0.00193278 0.00187859 0.0018238 0.00176892 0.00171396 0.00165891 0.00160378 0.00154856 0.00149326 0.00143786 0.00138272 0.00132815 0.00127417 0.00122076 0.00116793 0.00111568 0.00106401 0.00101292 0.000962614 0.000913283 0.00086493 0.000817557 0.000771162 0.000725746 0.000681308 0.00063785 0.000595524 0.000554484 0.00051473 0.000476261 0.000439079 0.000403182 0.000368571 0.000335246 0.00030338 0.000273148 0.000244548 0.000217582 0.000192249 0.000168549 0.000146482 0.000126048 0.000107285 9.02304e-05 7.48849e-05 6.12481e-05 4.93202e-05 3.9101e-05 3.05906e-05 2.3789e-05 1.82134e-05 1.33813e-05 9.29257e-06 5.94725e-06 3.34533e-06 1.48681e-06 3.71703e-07 0 0 3.98651e-06 1.59461e-05 3.58786e-05 6.37842e-05 9.96629e-05 0.000143515 0.000195339 0.000255137 0.000324062 0.000403269 0.000492757 0.000592528 0.000702579 0.000822913 0.000953528 0.00109443 0.00124188 0.00139218 0.00154532 0.0017013 0.00186012 0.00202177 0.00218627 0.00235361 0.00252027 0.00268271 0.00284095 0.00299498 0.0031448 0.00329042 0.00343182 0.00356902 0.00370025 0.00382374 0.00393949 0.00404751 0.00414779 0.00424034 0.00432514 0.00440222 0.0044713 0.00453215 0.00458476 0.00462914 0.00466527 0.00469317 0.00471284 0.00472426 0.00472819 0.00472539 0.00471585 0.00469956 0.00467654 0.00464677 0.00461027 0.00456703 0.00451824 0.00446509 0.0044076 0.00434574 0.00427954 0.00420898 0.00413407 0.0040548 0.00397236 0.00388794 0.00380153 0.00371314 0.00362276 0.0035304 0.00343605 0.00333972 0.00324231 0.00314475 0.00304704 0.00294918 0.00285117 0.002753 0.00265468 0.0025562 0.00245817 0.00236116 0.00226518 0.00217024 0.00207632 0.00198344 0.00189158 0.00180076 0.00171131 0.00162361 0.00153765 0.00145343 0.00137095 0.00129021 0.00121121 0.00113396 0.00105871 0.000985749 0.000915075 0.000846687 0.000780584 0.000716768 0.000655237 0.000595993 0.000539343 0.000485596 0.000434753 0.000386813 0.000341776 0.000299642 0.000260412 0.000224085 0.000190728 0.00016041 0.000133129 0.000108886 8.76803e-05 6.95129e-05 5.43833e-05 4.22915e-05 3.23794e-05 2.3789e-05 1.65201e-05 1.05729e-05 5.94725e-06 2.64322e-06 6.60805e-07 0 0 6.22893e-06 2.49157e-05 5.60604e-05 9.96629e-05 0.000155723 0.000224241 0.000305218 0.000398651 0.000506347 0.000630107 0.000769933 0.000925824 0.00109778 0.0012858 0.00148989 0.00171004 0.00194044 0.00217528 0.00241456 0.00265828 0.00290643 0.00315902 0.00341605 0.00367752 0.00393792 0.00419174 0.00443899 0.00467966 0.00491376 0.00514128 0.00536223 0.0055766 0.00578164 0.00597459 0.00615546 0.00632423 0.00648092 0.00662552 0.00675804 0.00687847 0.00698641 0.00708149 0.00716369 0.00723303 0.00728949 0.00733308 0.00736381 0.00738166 0.0073878 0.00738342 0.00736851 0.00734307 0.00730709 0.00726059 0.00720355 0.00713598 0.00705975 0.00697671 0.00688687 0.00679023 0.00668678 0.00657653 0.00645948 0.00633563 0.00620682 0.00607491 0.0059399 0.00580178 0.00566057 0.00551625 0.00536883 0.00521831 0.00506611 0.00491368 0.00476101 0.0046081 0.00445495 0.00430156 0.00414793 0.00399407 0.00384088 0.00368931 0.00353935 0.003391 0.00324425 0.00309912 0.00295559 0.00281368 0.00267393 0.0025369 0.00240258 0.00227099 0.00214212 0.00201596 0.00189252 0.00177181 0.00165423 0.00154023 0.0014298 0.00132295 0.00121966 0.00111995 0.00102381 0.000931239 0.000842723 0.000758744 0.000679301 0.000604395 0.000534025 0.000468191 0.000406893 0.000350132 0.000298013 0.00025064 0.000208014 0.000170134 0.000137001 0.000108614 8.49739e-05 6.60805e-05 5.05929e-05 3.71703e-05 2.58127e-05 1.65201e-05 9.29257e-06 4.13003e-06 1.03251e-06 0 0 8.96966e-06 3.58786e-05 8.07269e-05 0.000143515 0.000224241 0.000322908 0.000439513 0.000574058 0.00072914 0.000907355 0.0011087 0.00133319 0.0015808 0.00185155 0.00214544 0.00246246 0.00279424 0.00313241 0.00347697 0.00382792 0.00418526 0.00454899 0.00491912 0.00529563 0.0056706 0.00603611 0.00639214 0.00673871 0.00707581 0.00740344 0.00772161 0.0080303 0.00832556 0.00860341 0.00886386 0.0091069 0.00933253 0.00954076 0.00973158 0.00990499 0.0100604 0.0101973 0.0103157 0.0104156 0.0104969 0.0105596 0.0106039 0.0106296 0.0106384 0.0106321 0.0106107 0.010574 0.0105222 0.0104552 0.0103731 0.0102758 0.010166 0.0100465 0.00991709 0.00977793 0.00962896 0.00947021 0.00930165 0.0091233 0.00893782 0.00874787 0.00855345 0.00835457 0.00815122 0.0079434 0.00773111 0.00751436 0.0072952 0.0070757 0.00685585 0.00663566 0.00641512 0.00619424 0.00597302 0.00575145 0.00553087 0.00531261 0.00509666 0.00488304 0.00467173 0.00446273 0.00425606 0.0040517 0.00385046 0.00365313 0.00345972 0.00327023 0.00308465 0.00290298 0.00272523 0.0025514 0.0023821 0.00221794 0.00205892 0.00190504 0.00175631 0.00161273 0.00147428 0.00134098 0.00121352 0.00109259 0.000978194 0.000870328 0.000768995 0.000674195 0.000585927 0.000504191 0.000429139 0.000360921 0.000299539 0.000244993 0.000197281 0.000156404 0.000122362 9.51559e-05 7.28538e-05 5.35252e-05 3.71703e-05 2.3789e-05 1.33813e-05 5.94725e-06 1.48681e-06 0 0 1.22087e-05 4.88348e-05 0.000109878 0.000195339 0.000305218 0.000439513 0.000598226 0.000781357 0.00099244 0.00123501 0.00150907 0.00181462 0.00215165 0.00252017 0.00292018 0.00335168 0.00380327 0.00426356 0.00473254 0.00521023 0.00569661 0.00619169 0.00669546 0.00720794 0.00771832 0.00821581 0.00870042 0.00917213 0.00963096 0.0100769 0.01051 0.0109301 0.011332 0.0117102 0.0120647 0.0123955 0.0127026 0.012986 0.0132458 0.0134818 0.0136934 0.0138797 0.0140408 0.0141767 0.0142874 0.0143728 0.0144331 0.014468 0.0144801 0.0144715 0.0144423 0.0143924 0.0143219 0.0142307 0.014119 0.0139865 0.0138371 0.0136744 0.0134983 0.0133088 0.0131061 0.01289 0.0126606 0.0124178 0.0121654 0.0119068 0.0116422 0.0113715 0.0110947 0.0108118 0.0105229 0.0102279 0.00992958 0.00963081 0.00933157 0.00903187 0.0087317 0.00843106 0.00812995 0.00782837 0.00752813 0.00723105 0.00693713 0.00664635 0.00635874 0.00607427 0.00579297 0.00551481 0.0052409 0.00497232 0.00470906 0.00445114 0.00419855 0.00395128 0.00370935 0.00347274 0.0032423 0.00301886 0.00280242 0.00259298 0.00239054 0.0021951 0.00200666 0.00182523 0.00165174 0.00148714 0.00133143 0.00118461 0.00104669 0.000917654 0.000797511 0.00068626 0.000584105 0.000491254 0.000407707 0.000333462 0.000268521 0.000212883 0.000166549 0.000129518 9.91621e-05 7.28538e-05 5.05929e-05 3.23794e-05 1.82134e-05 8.09486e-06 2.02372e-06 0 0 1.59461e-05 6.37842e-05 0.000143515 0.000255137 0.000398651 0.000574058 0.000781357 0.00102055 0.00129625 0.00161308 0.00197103 0.00237011 0.00281032 0.00329165 0.00381411 0.0043777 0.00496753 0.00556873 0.00618128 0.00680519 0.00744047 0.0080871 0.00874509 0.00941445 0.0100811 0.0107309 0.0113638 0.0119799 0.0125792 0.0131617 0.0137273 0.0142761 0.014801 0.015295 0.015758 0.01619 0.0165912 0.0169613 0.0173006 0.0176089 0.0178852 0.0181286 0.0183391 0.0185166 0.0186611 0.0187727 0.0188513 0.018897 0.0189128 0.0189016 0.0188634 0.0187982 0.0187062 0.0185871 0.0184411 0.0182681 0.018073 0.0178604 0.0176304 0.017383 0.0171182 0.0168359 0.0165363 0.0162192 0.0158895 0.0155518 0.0152061 0.0148526 0.0144911 0.0141216 0.0137442 0.0133589 0.0129692 0.012579 0.0121882 0.0117967 0.0114047 0.011012 0.0106187 0.0102248 0.00983266 0.00944464 0.00906074 0.00868095 0.00830529 0.00793375 0.00756632 0.00720302 0.00684526 0.00649446 0.00615062 0.00581374 0.00548382 0.00516086 0.00484486 0.00453582 0.00423484 0.003943 0.0036603 0.00338675 0.00312234 0.00286707 0.00262095 0.00238397 0.00215737 0.00194238 0.00173901 0.00154725 0.0013671 0.00119857 0.00104165 0.000896339 0.000762913 0.000641638 0.000532515 0.000435542 0.000350721 0.000278052 0.000217533 0.000169166 0.000129518 9.51559e-05 6.60805e-05 4.22915e-05 2.3789e-05 1.05729e-05 2.64322e-06 0 0 2.02807e-05 8.11227e-05 0.000182526 0.000324491 0.000507017 0.000730104 0.000993753 0.00129796 0.00164839 0.00205069 0.00250486 0.00301091 0.00356883 0.00417862 0.00484028 0.00555382 0.00630043 0.0070613 0.00783645 0.00862586 0.00942955 0.0102475 0.0110797 0.0119262 0.0127692 0.0135909 0.0143914 0.0151706 0.0159285 0.0166651 0.0173805 0.0180746 0.0187386 0.0193634 0.0199491 0.0204957 0.0210033 0.0214717 0.0219011 0.0222913 0.0226412 0.0229494 0.023216 0.0234409 0.0236241 0.0237657 0.0238656 0.0239239 0.0239443 0.0239306 0.0238828 0.0238009 0.0236848 0.0235347 0.0233504 0.0231321 0.0228856 0.0226171 0.0223265 0.0220139 0.0216792 0.0213225 0.0209437 0.0205428 0.0201259 0.0196989 0.0192618 0.0188146 0.0183574 0.01789 0.0174126 0.0169251 0.0164322 0.0159384 0.0154439 0.0149485 0.0144524 0.0139554 0.0134576 0.0129591 0.0124627 0.0119715 0.0114855 0.0110048 0.0105292 0.0100588 0.00959357 0.00913356 0.00868055 0.00823634 0.00780093 0.00737432 0.00695651 0.0065475 0.00614728 0.00575587 0.00537464 0.00500497 0.00464685 0.0043003 0.00396531 0.00364189 0.00333002 0.00302971 0.00274252 0.00246999 0.00221213 0.00196894 0.00174042 0.00152656 0.00132737 0.00114284 0.000973332 0.00081919 0.000680415 0.000557006 0.000448964 0.000356288 0.000278979 0.000217037 0.000166169 0.000122083 8.47799e-05 5.42592e-05 3.05208e-05 1.35648e-05 3.3912e-06 0 0 2.53115e-05 0.000101246 0.000227804 0.000404984 0.000632788 0.000911214 0.00124026 0.00161994 0.00205669 0.002557 0.00312085 0.00374825 0.00443919 0.00519369 0.00601173 0.00689331 0.00781533 0.00875467 0.00971132 0.0106853 0.0116766 0.0126852 0.0137111 0.0147543 0.0157931 0.0168057 0.0177922 0.0187525 0.0196867 0.0205947 0.0214765 0.0223322 0.0231507 0.0239212 0.0246436 0.0253179 0.0259441 0.0265222 0.0270523 0.0275342 0.0279665 0.0283475 0.0286772 0.0289555 0.0291826 0.0293584 0.0294829 0.0295561 0.0295826 0.029567 0.0295093 0.0294096 0.0292678 0.0290839 0.0288579 0.0285898 0.0282871 0.0279571 0.0275998 0.0272152 0.0268033 0.0263642 0.0258978 0.0254041 0.0248905 0.0243644 0.0238257 0.0232745 0.0227108 0.0221345 0.0215458 0.0209444 0.0203363 0.0197271 0.0191169 0.0185055 0.0178931 0.0172796 0.0166651 0.0160495 0.0154365 0.0148299 0.0142296 0.0136357 0.0130481 0.012467 0.0118921 0.0113237 0.0107638 0.0102148 0.00967657 0.0091492 0.00863267 0.00812698 0.00763212 0.0071481 0.00667662 0.00621937 0.00577637 0.00534761 0.00493308 0.0045328 0.00414675 0.00377495 0.00341928 0.00308163 0.002762 0.00246039 0.0021768 0.00191124 0.0016637 0.00143417 0.00122313 0.00103103 0.000857857 0.000703625 0.00056833 0.000451971 0.00035455 0.000276065 0.000211362 0.000155287 0.000107838 6.90163e-05 3.88217e-05 1.72541e-05 4.31352e-06 0 0 3.10385e-05 0.000124154 0.000279347 0.000496617 0.000775964 0.00111739 0.00152089 0.00198647 0.00252116 0.003132 0.00381899 0.00458213 0.00542142 0.00633686 0.00732845 0.00839619 0.00951226 0.0106488 0.0118059 0.0129834 0.0141815 0.0154001 0.0166391 0.0178987 0.0191528 0.0203753 0.0215663 0.0227258 0.0238538 0.0249503 0.0260153 0.0270488 0.0280375 0.0289684 0.0298413 0.0306564 0.0314135 0.0321128 0.0327541 0.0333376 0.0338612 0.0343228 0.0347226 0.0350606 0.0353366 0.0355508 0.0357031 0.0357935 0.0358275 0.0358107 0.035743 0.0356244 0.0354549 0.0352346 0.0349635 0.0346414 0.0342774 0.0338803 0.0334501 0.0329868 0.0324905 0.0319611 0.0313986 0.030803 0.0301833 0.0295482 0.0288979 0.0282322 0.0275513 0.0268551 0.0261436 0.0254168 0.0246817 0.0239451 0.0232072 0.0224678 0.021727 0.0209847 0.0202411 0.019496 0.018754 0.0180196 0.0172929 0.0165738 0.0158622 0.0151583 0.014462 0.0137733 0.013095 0.0124297 0.0117775 0.0111384 0.0105123 0.00989932 0.00929938 0.00871252 0.00814078 0.00758622 0.00704884 0.00652865 0.00602564 0.00553981 0.00507116 0.00461969 0.00418765 0.00377729 0.0033886 0.0030216 0.00267627 0.00235261 0.00205064 0.00177034 0.00151231 0.00127715 0.00106484 0.0008754 0.00070882 0.000565102 0.000444246 0.000346252 0.000265099 0.000194767 0.000135255 8.6563e-05 4.86917e-05 2.16407e-05 5.41018e-06 0 0 3.74618e-05 0.000149847 0.000337156 0.000599389 0.000936545 0.00134862 0.00183563 0.00239756 0.00304178 0.00377569 0.00459929 0.00551256 0.00651551 0.00760814 0.00879046 0.0100625 0.0113912 0.0127438 0.0141202 0.0155204 0.0169444 0.0183922 0.0198639 0.0213594 0.0228482 0.0242996 0.0257137 0.0270905 0.0284299 0.0297321 0.0309969 0.0322244 0.0333989 0.0345049 0.0355424 0.0365113 0.0374117 0.0382435 0.0390067 0.0397014 0.0403252 0.0408755 0.0413524 0.041756 0.0420861 0.0423428 0.0425262 0.0426361 0.0426791 0.0426617 0.0425837 0.0424453 0.0422464 0.041987 0.0416672 0.0412868 0.0408565 0.0403868 0.0398775 0.0393289 0.0387407 0.0381131 0.0374461 0.0367396 0.0360042 0.0352504 0.0344783 0.0336878 0.032879 0.0320518 0.0312062 0.0303423 0.0294683 0.0285925 0.0277148 0.0268352 0.0259538 0.0250706 0.0241855 0.0232986 0.0224153 0.0215409 0.0206754 0.0198189 0.0189714 0.0181328 0.0173032 0.0164826 0.0156742 0.0148812 0.0141038 0.0133419 0.0125954 0.0118645 0.0111491 0.0104491 0.00976712 0.00910551 0.00846428 0.00784344 0.00724298 0.00666291 0.00610322 0.00556392 0.00504763 0.00455697 0.00409195 0.00365256 0.00323881 0.00285068 0.0024882 0.00215134 0.00184088 0.00155755 0.00130137 0.00107233 0.000870434 0.000695679 0.000548067 0.000427596 0.000327379 0.000240523 0.00016703 0.000106899 6.01308e-05 2.67248e-05 6.6812e-06 0 0 4.45813e-05 0.000178325 0.000401231 0.0007133 0.00111453 0.00160493 0.00218448 0.0028532 0.00361857 0.00448808 0.00546173 0.00653952 0.00772146 0.00900753 0.0103977 0.0118921 0.0134522 0.0150395 0.0166541 0.018296 0.0199652 0.0216617 0.0233854 0.0251364 0.0268793 0.0285786 0.0302343 0.0318464 0.0334149 0.0349399 0.0364212 0.037859 0.039235 0.0405309 0.0417468 0.0428826 0.0439385 0.0449142 0.04581 0.0466257 0.0473585 0.0480054 0.0485665 0.0490417 0.0494311 0.0497346 0.0499522 0.050084 0.0501375 0.05012 0.0500316 0.0498723 0.0496421 0.049341 0.048969 0.0485261 0.0480245 0.0474765 0.0468821 0.0462412 0.045554 0.0448203 0.0440403 0.0432138 0.0423532 0.041471 0.0405669 0.0396412 0.0386937 0.0377245 0.0367335 0.0357209 0.0346961 0.0336691 0.0326397 0.0316079 0.0305738 0.0295373 0.0284985 0.0274574 0.0264203 0.0253936 0.0243772 0.0233713 0.0223757 0.0213905 0.0204158 0.0194514 0.0185013 0.0175693 0.0166554 0.0157596 0.014882 0.0140225 0.0131812 0.0123579 0.0115556 0.0107772 0.0100227 0.00929197 0.00858511 0.00790211 0.00724296 0.00660765 0.00599922 0.00542068 0.00487204 0.00435328 0.00386442 0.00340545 0.00297636 0.00257717 0.00220882 0.00187224 0.00156744 0.00129442 0.00105317 0.000843704 0.000666013 0.000520099 0.000398201 0.000292556 0.000203164 0.000130025 7.31389e-05 3.25062e-05 8.12655e-06 0 0 5.23969e-05 0.000209588 0.000471572 0.000838351 0.00130992 0.00188629 0.00256745 0.0033534 0.00425152 0.00526916 0.00640633 0.00766303 0.00903926 0.010535 0.0121503 0.0138851 0.0156951 0.017536 0.0194078 0.0213104 0.023244 0.0252084 0.0272036 0.0292298 0.0312462 0.0332123 0.0351282 0.0369937 0.0388089 0.0405738 0.0422884 0.0439526 0.0455456 0.0470462 0.0484545 0.0497704 0.0509939 0.0521251 0.053164 0.0541105 0.0549612 0.0557126 0.0563648 0.0569178 0.0573715 0.057726 0.0579812 0.0581372 0.0582025 0.0581856 0.0580866 0.0579054 0.0576421 0.0572966 0.0568689 0.0563591 0.0557813 0.0551494 0.0544637 0.053724 0.0529303 0.0520827 0.0511812 0.0502257 0.0492305 0.0482099 0.0471638 0.0460924 0.0449955 0.0438733 0.0427256 0.0415525 0.0403652 0.039175 0.0379818 0.0367858 0.0355868 0.0343849 0.0331801 0.0319723 0.030769 0.0295777 0.0283982 0.0272307 0.0260751 0.0249314 0.0237996 0.0226798 0.0215763 0.0204939 0.0194323 0.0183917 0.0173721 0.0163734 0.0153957 0.0144389 0.0135063 0.0126014 0.011724 0.0108742 0.010052 0.0092574 0.00849035 0.00775088 0.00704243 0.00636842 0.00572887 0.00512376 0.00455311 0.0040169 0.00351515 0.00304784 0.00261614 0.00222122 0.00186305 0.00154166 0.00125703 0.00100917 0.000798084 0.00062376 0.000477566 0.000350865 0.000243656 0.00015594 8.77162e-05 3.8985e-05 9.74625e-06 0 0 6.09088e-05 0.000243635 0.000548179 0.000974541 0.00152272 0.00219272 0.00298453 0.00389816 0.00494063 0.00611893 0.00743309 0.00888308 0.0104689 0.0121906 0.0140481 0.0160415 0.0181201 0.0202333 0.0223812 0.0245636 0.0267806 0.0290323 0.0313186 0.0336394 0.0359489 0.0382008 0.0403953 0.0425323 0.0446118 0.0466338 0.0485983 0.0505053 0.0523309 0.0540509 0.0556654 0.0571745 0.058578 0.0598761 0.0610686 0.0621557 0.0631332 0.0639971 0.0647475 0.0653842 0.0659075 0.0663171 0.0666131 0.0667956 0.0668742 0.0668586 0.0667487 0.0665446 0.0662463 0.0658538 0.065367 0.064786 0.0641269 0.0634057 0.0626224 0.0617771 0.0608697 0.0599002 0.0588687 0.0577752 0.0566359 0.0554671 0.054269 0.0530415 0.0517845 0.0504981 0.0491824 0.0478372 0.0464755 0.0451102 0.0437413 0.0423689 0.0409929 0.0396133 0.0382301 0.0368433 0.0354615 0.0340933 0.0327385 0.0313973 0.0300696 0.0287555 0.0274548 0.0261677 0.0248994 0.023655 0.0224346 0.0212381 0.0200656 0.0189171 0.0177926 0.016692 0.0156192 0.014578 0.0135683 0.0125903 0.0116437 0.0107288 0.00984542 0.00899361 0.00817724 0.00740018 0.00666244 0.005964 0.00530487 0.00468505 0.00410454 0.00356334 0.00306285 0.00260447 0.00218821 0.00181406 0.00148202 0.00119209 0.00094428 0.000738579 0.000565474 0.000415451 0.000288507 0.000184645 0.000103863 4.61612e-05 1.15403e-05 0 0 7.01169e-05 0.000280468 0.000631052 0.00112187 0.00175292 0.00252421 0.00343573 0.00448748 0.0056859 0.0070374 0.00854199 0.0101997 0.0120104 0.0139743 0.0160913 0.0183613 0.0207271 0.0231314 0.0255742 0.0280555 0.0305752 0.0331335 0.0357302 0.0383654 0.0409873 0.043544 0.0460357 0.0484622 0.0508236 0.0531199 0.055351 0.057517 0.0595907 0.061545 0.0633797 0.065095 0.0666908 0.0681671 0.069524 0.0707613 0.0718745 0.0728589 0.0737144 0.0744411 0.0750389 0.0755079 0.075848 0.0760593 0.0761526 0.0761389 0.076018 0.0757899 0.0754548 0.0750126 0.0744632 0.0738067 0.0730613 0.0722451 0.0713582 0.0704006 0.0693721 0.0682729 0.067103 0.0658623 0.0645694 0.0632428 0.0618824 0.0604883 0.0590606 0.0575991 0.0561039 0.0545749 0.053027 0.0514747 0.0499181 0.0483572 0.046792 0.0452225 0.0436486 0.0420705 0.0404978 0.0389403 0.037398 0.035871 0.0343592 0.0328627 0.0313813 0.0299152 0.0284703 0.0270526 0.0256621 0.0242988 0.0229627 0.0216537 0.0203719 0.0191174 0.0178943 0.016707 0.0155556 0.01444 0.0133602 0.0123163 0.0113081 0.0103358 0.00940367 0.00851597 0.00767275 0.00687399 0.00611971 0.00540989 0.00474455 0.00412367 0.00354894 0.00302202 0.00254291 0.00211161 0.00172813 0.00139246 0.0011046 0.000864556 0.000661925 0.000486312 0.000337717 0.000216139 0.000121578 5.40347e-05 1.35087e-05 0 0 7.98284e-05 0.000319314 0.000718456 0.00127726 0.00199571 0.00287382 0.00391159 0.00510902 0.00647175 0.00800544 0.00971009 0.0115857 0.0136323 0.0158498 0.0182383 0.0207977 0.0234638 0.0261723 0.0289232 0.0317165 0.0345521 0.0374302 0.0403506 0.0433135 0.0462609 0.0491354 0.0519367 0.054665 0.0573201 0.0599022 0.0624112 0.0648472 0.0671796 0.069378 0.0714424 0.0733728 0.0751691 0.0768315 0.0783599 0.0797543 0.0810093 0.0821195 0.0830851 0.083906 0.0845821 0.0851135 0.0855002 0.0857421 0.0858514 0.0858402 0.0857084 0.0854561 0.0850832 0.0845897 0.0839757 0.0832411 0.0824064 0.0814918 0.0804973 0.079423 0.0782688 0.0770348 0.075721 0.0743273 0.0728745 0.0713835 0.0698543 0.0682868 0.066681 0.065037 0.0633548 0.0616343 0.0598921 0.0581448 0.0563924 0.0546349 0.0528722 0.0511044 0.0493315 0.0475535 0.0457814 0.0440263 0.0422881 0.040567 0.0388628 0.0371756 0.0355053 0.0338521 0.0322226 0.0306236 0.0290552 0.0275173 0.0260099 0.0245331 0.0230867 0.0216709 0.0202905 0.0189504 0.0176504 0.0163907 0.0151713 0.0139921 0.0128531 0.0117543 0.0107006 0.00969673 0.00874266 0.0078384 0.00698397 0.00617935 0.00542455 0.00471957 0.00406638 0.00346697 0.00292132 0.00242945 0.00199134 0.00160701 0.00127644 0.000999644 0.000765352 0.0005623 0.000390486 0.000249911 0.000140575 6.24777e-05 1.56194e-05 0 0 8.98507e-05 0.000359403 0.000808656 0.00143761 0.00224627 0.00323462 0.00440268 0.00575044 0.00728262 0.00900395 0.0109144 0.013014 0.0153028 0.0177807 0.0204477 0.0233039 0.0262778 0.0292979 0.0323642 0.0354768 0.0386356 0.0418406 0.0450919 0.0483894 0.0516694 0.0548682 0.0579857 0.0610221 0.0639772 0.0668511 0.0696438 0.0723552 0.0749517 0.0773994 0.0796983 0.0818485 0.0838498 0.0857024 0.0874062 0.0889613 0.0903614 0.0916008 0.0926792 0.0935967 0.0943533 0.0949491 0.0953839 0.0956579 0.0957843 0.0957764 0.0956342 0.0953577 0.094947 0.094402 0.0937227 0.0929091 0.0919839 0.0909694 0.0898658 0.088673 0.087391 0.0860199 0.0845596 0.0830101 0.0813945 0.0797361 0.0780347 0.0762904 0.0745031 0.072673 0.0707999 0.0688839 0.0669434 0.0649969 0.0630444 0.061086 0.0591215 0.057151 0.0551746 0.0531921 0.0512161 0.0492587 0.0473201 0.0454002 0.0434991 0.0416167 0.039753 0.0379081 0.0360894 0.0343047 0.032554 0.0308371 0.0291541 0.0275051 0.02589 0.0243088 0.0227669 0.0212698 0.0198173 0.0184096 0.0170466 0.0157283 0.0144548 0.0132259 0.012047 0.0109234 0.00985503 0.00884189 0.00788399 0.00698134 0.00613393 0.00534177 0.00460717 0.00393246 0.00331763 0.00276269 0.00226764 0.00183247 0.00145719 0.0011418 0.000874189 0.000642261 0.000446015 0.000285449 0.000160565 7.13624e-05 1.78406e-05 0 0 0.000100184 0.000400734 0.000901652 0.00160294 0.00250459 0.00360661 0.00490899 0.00641175 0.00811851 0.0100329 0.012155 0.0144847 0.017022 0.019767 0.0227197 0.02588 0.0291691 0.0325082 0.0358974 0.0393365 0.0428257 0.0463648 0.049954 0.0535932 0.0572126 0.0607424 0.0641828 0.0675335 0.0707948 0.0739665 0.0770486 0.0800412 0.0829071 0.0856093 0.0881476 0.0905222 0.0927329 0.0947798 0.096663 0.0983823 0.0999311 0.101302 0.102497 0.103513 0.104353 0.105015 0.105499 0.105807 0.105951 0.105947 0.105795 0.105495 0.105046 0.104449 0.103704 0.102811 0.101794 0.100678 0.0994637 0.0981505 0.0967387 0.0952281 0.0936188 0.0919108 0.0901295 0.0883005 0.0864238 0.0844992 0.082527 0.0805069 0.0784391 0.0763236 0.0741807 0.0720309 0.0698741 0.0677104 0.0655398 0.0633623 0.0611778 0.0589864 0.0568018 0.0546376 0.052494 0.0503708 0.0482682 0.046186 0.0441243 0.0420831 0.0400709 0.038096 0.0361584 0.0342582 0.0323954 0.0305699 0.0287817 0.027031 0.0253235 0.0236653 0.0220563 0.0204967 0.0189862 0.0175251 0.0161132 0.0147505 0.0134429 0.012196 0.0110099 0.00988445 0.00881979 0.00781588 0.0068727 0.00599027 0.00517129 0.00441848 0.00373183 0.00311134 0.00255701 0.00206885 0.00164685 0.00129102 0.000988435 0.000726197 0.000504303 0.000322754 0.000181549 8.06885e-05 2.01721e-05 0 0 0.000110827 0.000443309 0.000997444 0.00177323 0.00277068 0.00398978 0.00543053 0.00709294 0.00897941 0.0110923 0.0134318 0.0159976 0.01879 0.0218088 0.0250541 0.0285259 0.0321378 0.0358033 0.0395226 0.0432956 0.0471224 0.0510028 0.054937 0.0589248 0.0628906 0.0667582 0.0705278 0.0741994 0.0777729 0.0812483 0.0846257 0.0879051 0.0910459 0.0940076 0.0967902 0.0993938 0.101818 0.104064 0.10613 0.108017 0.109718 0.111225 0.112537 0.113656 0.11458 0.11531 0.115846 0.116188 0.116352 0.116353 0.116192 0.115868 0.115381 0.114732 0.11392 0.112946 0.111836 0.110618 0.109291 0.107856 0.106312 0.10466 0.102899 0.101029 0.0990795 0.0970768 0.0950214 0.0929133 0.0907524 0.0885388 0.0862725 0.0839534 0.0816041 0.0792467 0.0768815 0.0745083 0.0721272 0.0697381 0.0673411 0.0649362 0.0625385 0.060163 0.0578097 0.0554788 0.05317 0.0508835 0.0486193 0.0463773 0.0441669 0.0419973 0.0398686 0.0377806 0.0357336 0.0337274 0.031762 0.0298374 0.0279602 0.0261369 0.0243674 0.0226519 0.0209901 0.0193823 0.0178283 0.0163282 0.0148882 0.0135145 0.0122071 0.0109661 0.00979136 0.00868295 0.00764085 0.00666507 0.00575875 0.00492503 0.00416391 0.00347539 0.00285947 0.00231615 0.00184543 0.0014473 0.00110809 0.000814107 0.000565352 0.000361825 0.000203527 9.04563e-05 2.26141e-05 0 0 0.000121781 0.000487126 0.00109603 0.0019485 0.00304454 0.00438413 0.00596729 0.00779401 0.00986532 0.0121822 0.0147448 0.0175529 0.0206067 0.0239061 0.027451 0.0312416 0.0351837 0.0391832 0.04324 0.0473541 0.0515257 0.0557545 0.0600408 0.0643844 0.0687033 0.0729155 0.0770209 0.0810196 0.0849115 0.0886967 0.0923751 0.0959469 0.0993679 0.102594 0.105626 0.108463 0.111106 0.113554 0.115808 0.117867 0.119723 0.121368 0.122801 0.124024 0.125035 0.125836 0.126425 0.126803 0.126987 0.126994 0.126823 0.126476 0.125951 0.12525 0.124371 0.123315 0.122111 0.120789 0.119348 0.117788 0.116111 0.114314 0.112399 0.110366 0.108244 0.106065 0.103828 0.101533 0.0991796 0.0967687 0.0943 0.0917735 0.0892135 0.0866445 0.0840665 0.0814796 0.0788836 0.0762786 0.0736647 0.0710417 0.0684262 0.0658348 0.0632674 0.060724 0.0582046 0.0557093 0.053238 0.0507906 0.0483775 0.0460088 0.0436844 0.0414044 0.0391688 0.0369775 0.0348307 0.0327282 0.0306771 0.0286846 0.0267506 0.0248752 0.0230584 0.0213 0.0196002 0.017959 0.016383 0.014879 0.0134469 0.0120868 0.0107987 0.00958255 0.00843838 0.00736617 0.00636955 0.00545213 0.00461389 0.00385486 0.00317501 0.00257436 0.00205291 0.00161065 0.00123315 0.000905991 0.00062916 0.000402663 0.000226498 0.000100666 2.51664e-05 0 0 0.000133046 0.000532185 0.00119742 0.00212874 0.00332616 0.00478967 0.00651927 0.00851497 0.0107762 0.0133026 0.016094 0.0191505 0.0224721 0.0260587 0.0299104 0.0340272 0.038307 0.0426477 0.0470494 0.051512 0.0560355 0.06062 0.0652654 0.0699718 0.0746508 0.0792142 0.083662 0.0879941 0.0922106 0.0963116 0.100297 0.104167 0.107873 0.11137 0.114656 0.117731 0.120596 0.123251 0.125696 0.12793 0.129945 0.131731 0.133289 0.134618 0.135719 0.136591 0.137235 0.137651 0.137856 0.137869 0.13769 0.13732 0.136757 0.136002 0.135056 0.133917 0.132618 0.13119 0.129634 0.127949 0.126135 0.124192 0.122121 0.11992 0.117624 0.115265 0.112843 0.110357 0.107808 0.105197 0.102522 0.0997837 0.097009 0.0942242 0.0914293 0.0886243 0.0858091 0.0829838 0.0801483 0.0773028 0.074465 0.0716531 0.068867 0.0661066 0.063372 0.0606632 0.0579803 0.0553231 0.0527027 0.0501304 0.0476059 0.0451295 0.042701 0.0403204 0.0379878 0.0357032 0.0334742 0.0313084 0.029206 0.0271668 0.0251909 0.0232782 0.0214289 0.0196428 0.0179272 0.0162893 0.0147291 0.0132466 0.0118418 0.0105147 0.00926529 0.0080935