<?xml version="1.0"?> 
<VTKFile type="StructuredGrid" version="0.1"> 
<StructuredGrid WholeExtent="0 128 0 128 0 0"> 
<Piece Extent="0 128 0 128 0 0"> 
<PointData>
<DataArray type="Float32" Name="u" format="ascii" NumberOfComponents="1"> 
0 0 0 0 0 0 0 0 0 0 0 0 0 0 0 0 0 0 0 0 0 0 0 0 0 0 0 0 0 0 0 0 0 0 0 0 0 0 0 0 0 0 0 0 0 0 0 0 0 0 0 0 0 0 0 0 0 0 0 0 0 0 0 0 0 0 0 0 0 0 0 0 0 0 0 0 0 0 0 0 0 0 0 0 0 0 0 0 0 0 0 0 0 0 0 0 0 0 0 0 0 0 0 0 0 0 0 0 0 0 0 0 0 0 0 0 0 0 0 0 0 0 0 0 0 0 0 0 0 0 8.79866e-08 3.51946e-07 7.9188e-07 1.40779e-06 2.19967e-06 3.16752e-06 4.31134e-06 5.63114e-06 7.1711e-06 8.97539e-06 1.1044e-05 1.3377e-05 1.59743e-05 1.88359e-05 2.19619e-05 2.53522e-05 2.8908e-05 3.25307e-05 3.62202e-05 3.99764e-05 4.37995e-05 4.76894e-05 5.1646e-05 5.56694e-05 5.96572e-05 6.35069e-05 6.72184e-05 7.07918e-05 7.42271e-05 7.75242e-05 8.06832e-05 8.37041e-05 8.65461e-05 8.91684e-05 9.1571e-05 9.37539e-05 9.57171e-05 9.74606e-05 9.89845e-05 0.000100289 0.000101391 0.000102309 0.000103043 0.000103593 0.000103959 0.000104141 0.000104139 0.000103953 0.000103631 0.000103221 0.000102723 0.000102138 0.000101465 0.000100704 9.98552e-05 9.89188e-05 9.79369e-05 9.69515e-05 9.59629e-05 9.49708e-05 9.39754e-05 9.29766e-05 9.19745e-05 9.0969e-05 8.99717e-05 8.8994e-05 8.80361e-05 8.70979e-05 8.61794e-05 8.52806e-05 8.44015e-05 8.35421e-05 8.26837e-05 8.18076e-05 8.09137e-05 8.00021e-05 7.90727e-05 7.81256e-05 7.71607e-05 7.61782e-05 7.5151e-05 7.40524e-05 7.28824e-05 7.16409e-05 7.03281e-05 6.89438e-05 6.7488e-05 6.59609e-05 6.43543e-05 6.26602e-05 6.08785e-05 5.90093e-05 5.70527e-05 5.50085e-05 5.28767e-05 5.06575e-05 4.83765e-05 4.60594e-05 4.37063e-05 4.13171e-05 3.88919e-05 3.64307e-05 3.39334e-05 3.14e-05 2.88856e-05 2.64448e-05 2.40777e-05 2.17843e-05 1.95647e-05 1.74187e-05 1.53465e-05 1.3348e-05 1.14659e-05 9.74314e-06 8.1796e-06 6.77531e-06 5.53027e-06 4.44448e-06 3.51794e-06 2.75065e-06 2.10597e-06 1.54724e-06 1.07447e-06 6.87663e-07 3.86811e-07 1.71916e-07 4.2979e-08 0 0 3.51946e-07 1.40779e-06 3.16752e-06 5.63114e-06 8.79866e-06 1.26701e-05 1.72454e-05 2.25246e-05 2.86844e-05 3.59015e-05 4.4176e-05 5.35079e-05 6.38971e-05 7.53436e-05 8.78475e-05 0.000101409 0.000115632 0.000130123 0.000144881 0.000159906 0.000175198 0.000190757 0.000206584 0.000222678 0.000238629 0.000254028 0.000268874 0.000283167 0.000296908 0.000310097 0.000322733 0.000334816 0.000346184 0.000356673 0.000366284 0.000375016 0.000382868 0.000389843 0.000395938 0.000401155 0.000405564 0.000409237 0.000412173 0.000414373 0.000415837 0.000416565 0.000416556 0.000415812 0.000414523 0.000412883 0.000410893 0.000408551 0.000405859 0.000402815 0.000399421 0.000395675 0.000391747 0.000387806 0.000383851 0.000379883 0.000375902 0.000371907 0.000367898 0.000363876 0.000359887 0.000355976 0.000352144 0.000348392 0.000344718 0.000341122 0.000337606 0.000334168 0.000330735 0.00032723 0.000323655 0.000320008 0.000316291 0.000312502 0.000308643 0.000304713 0.000300604 0.00029621 0.000291529 0.000286564 0.000281312 0.000275775 0.000269952 0.000263844 0.000257417 0.000250641 0.000243514 0.000236037 0.000228211 0.000220034 0.000211507 0.00020263 0.000193506 0.000184238 0.000174825 0.000165268 0.000155568 0.000145723 0.000135734 0.0001256 0.000115542 0.000105779 9.63108e-05 8.71373e-05 7.82587e-05 6.96749e-05 6.1386e-05 5.33919e-05 4.58637e-05 3.89726e-05 3.27184e-05 2.71012e-05 2.21211e-05 1.77779e-05 1.40718e-05 1.10026e-05 8.42388e-06 6.18897e-06 4.2979e-06 2.75065e-06 1.54724e-06 6.87663e-07 1.71916e-07 0 0 7.9188e-07 3.16752e-06 7.12692e-06 1.26701e-05 1.9797e-05 2.85077e-05 3.88021e-05 5.06803e-05 6.45399e-05 8.07785e-05 9.93961e-05 0.000120393 0.000143768 0.000169523 0.000197657 0.00022817 0.000260172 0.000292776 0.000325982 0.000359788 0.000394195 0.000429204 0.000464814 0.000501025 0.000536915 0.000571562 0.000604966 0.000637126 0.000668044 0.000697718 0.000726149 0.000753337 0.000778915 0.000802515 0.000824139 0.000843785 0.000861454 0.000877146 0.00089086 0.000902598 0.000912518 0.000920782 0.00092739 0.00093234 0.000935634 0.000937271 0.000937252 0.000935576 0.000932677 0.000928988 0.000924509 0.000919241 0.000913182 0.000906334 0.000898697 0.000890269 0.000881432 0.000872564 0.000863666 0.000854737 0.000845779 0.00083679 0.00082777 0.000818721 0.000809745 0.000800946 0.000792325 0.000783881 0.000775614 0.000767525 0.000759613 0.000751879 0.000744153 0.000736268 0.000728223 0.000720019 0.000711654 0.00070313 0.000694447 0.000685603 0.000676359 0.000666471 0.000655941 0.000644768 0.000632952 0.000620494 0.000607392 0.000593648 0.000579189 0.000563941 0.000547907 0.000531084 0.000513474 0.000495076 0.000475891 0.000455917 0.000435388 0.000414534 0.000393356 0.000371854 0.000350027 0.000327876 0.0003054 0.0002826 0.00025997 0.000238003 0.000216699 0.000196059 0.000176082 0.000156769 0.000138118 0.000120132 0.000103193 8.76883e-05 7.36164e-05 6.09778e-05 4.97724e-05 4.00003e-05 3.16615e-05 2.47559e-05 1.89537e-05 1.39252e-05 9.67027e-06 6.18897e-06 3.4813e-06 1.54724e-06 3.86811e-07 0 0 1.40779e-06 5.63114e-06 1.26701e-05 2.25246e-05 3.51946e-05 5.06803e-05 6.89815e-05 9.00983e-05 0.000114738 0.000143606 0.000176704 0.000214032 0.000255588 0.000301374 0.00035139 0.000405635 0.000462529 0.000520491 0.000579523 0.000639623 0.000700792 0.00076303 0.000826336 0.000890711 0.000954516 0.00101611 0.00107549 0.00113267 0.00118763 0.00124039 0.00129093 0.00133927 0.00138474 0.00142669 0.00146514 0.00150006 0.00153147 0.00155937 0.00158375 0.00160462 0.00162226 0.00163695 0.00164869 0.00165749 0.00166335 0.00166626 0.00166623 0.00166325 0.00165809 0.00165153 0.00164357 0.00163421 0.00162344 0.00161126 0.00159768 0.0015827 0.00156699 0.00155122 0.00153541 0.00151953 0.00150361 0.00148763 0.00147159 0.0014555 0.00143955 0.0014239 0.00140858 0.00139357 0.00137887 0.00136449 0.00135042 0.00133667 0.00132294 0.00130892 0.00129462 0.00128003 0.00126516 0.00125001 0.00123457 0.00121885 0.00120242 0.00118484 0.00116612 0.00114625 0.00112525 0.0011031 0.00107981 0.00105537 0.00102967 0.00100256 0.000974056 0.00094415 0.000912843 0.000880135 0.000846028 0.00081052 0.000774023 0.00073695 0.0006993 0.000661074 0.000622271 0.000582891 0.000542934 0.000502401 0.000462169 0.000423116 0.000385243 0.000348549 0.000313035 0.0002787 0.000245544 0.000213568 0.000183455 0.00015589 0.000130874 0.000108405 8.84843e-05 7.11117e-05 5.62871e-05 4.40105e-05 3.36955e-05 2.47559e-05 1.71916e-05 1.10026e-05 6.18897e-06 2.75065e-06 6.87663e-07 0 0 2.19967e-06 8.79866e-06 1.9797e-05 3.51946e-05 5.49916e-05 7.9188e-05 0.000107784 0.000140779 0.000179277 0.000224385 0.0002761 0.000334424 0.000399357 0.000470898 0.000549047 0.000633804 0.000722701 0.000813268 0.000905504 0.000999411 0.00109499 0.00119223 0.00129115 0.00139174 0.00149143 0.00158767 0.00168046 0.0017698 0.00185568 0.00193811 0.00201708 0.0020926 0.00216365 0.00222921 0.00228927 0.00234385 0.00239293 0.00243652 0.00247461 0.00250722 0.00253477 0.00255773 0.00257608 0.00258983 0.00259898 0.00260353 0.00260348 0.00259882 0.00259077 0.00258052 0.00256808 0.00255345 0.00253662 0.0025176 0.00249638 0.00247297 0.00244842 0.00242379 0.00239907 0.00237427 0.00234939 0.00232442 0.00229936 0.00227422 0.00224929 0.00222485 0.0022009 0.00217745 0.00215448 0.00213201 0.00211004 0.00208855 0.00206709 0.00204519 0.00202284 0.00200005 0.00197682 0.00195314 0.00192902 0.00190445 0.00187877 0.00185131 0.00182206 0.00179102 0.0017582 0.00172359 0.0016872 0.00164902 0.00160886 0.0015665 0.00152196 0.00147523 0.00142632 0.00137521 0.00132192 0.00126644 0.00120941 0.00115148 0.00109266 0.00103293 0.000972298 0.000910767 0.000848334 0.000785001 0.000722139 0.000661119 0.000601942 0.000544608 0.000489117 0.000435468 0.000383662 0.000333699 0.000286648 0.000243579 0.00020449 0.000169383 0.000138257 0.000111112 8.79486e-05 6.87663e-05 5.26492e-05 3.86811e-05 2.68619e-05 1.71916e-05 9.67027e-06 4.2979e-06 1.07447e-06 0 0 3.16752e-06 1.26701e-05 2.85077e-05 5.06803e-05 7.9188e-05 0.000114031 0.000155208 0.000202721 0.000258159 0.000323114 0.000397584 0.000481571 0.000575074 0.000678092 0.000790627 0.000912678 0.00104069 0.00117111 0.00130393 0.00143915 0.00157678 0.00171682 0.00185926 0.0020041 0.00214766 0.00228625 0.00241986 0.00254851 0.00267217 0.00279087 0.0029046 0.00301335 0.00311566 0.00321006 0.00329655 0.00337514 0.00344582 0.00350858 0.00356344 0.00361039 0.00365007 0.00368313 0.00370956 0.00372936 0.00374254 0.00374909 0.00374901 0.0037423 0.00373071 0.00371595 0.00369804 0.00367696 0.00365273 0.00362534 0.00359479 0.00356108 0.00352573 0.00349026 0.00345466 0.00341895 0.00338311 0.00334716 0.00331108 0.00327488 0.00323898 0.00320378 0.0031693 0.00313552 0.00310246 0.0030701 0.00303845 0.00300752 0.00297661 0.00294507 0.00291289 0.00288007 0.00284662 0.00281252 0.00277779 0.00274241 0.00270544 0.00266589 0.00262377 0.00257907 0.00253181 0.00248198 0.00242957 0.00237459 0.00231675 0.00225577 0.00219163 0.00212434 0.0020539 0.0019803 0.00190356 0.00182367 0.00174155 0.00165814 0.00157343 0.00148742 0.00140011 0.0013115 0.0012216 0.0011304 0.00103988 0.000952012 0.000866797 0.000784236 0.000704328 0.000627074 0.000552474 0.000480527 0.000412774 0.000350753 0.000294466 0.000243911 0.00019909 0.000160001 0.000126646 9.90235e-05 7.58149e-05 5.57007e-05 3.86811e-05 2.47559e-05 1.39252e-05 6.18897e-06 1.54724e-06 0 0 4.31134e-06 1.72454e-05 3.88021e-05 6.89815e-05 0.000107784 0.000155208 0.000211256 0.000275926 0.000351384 0.000439794 0.000541157 0.000655472 0.000782739 0.000922959 0.00107613 0.00124226 0.00141649 0.001594 0.00177479 0.00195885 0.00214618 0.00233678 0.00253065 0.0027278 0.0029232 0.00311184 0.0032937 0.0034688 0.00363713 0.00379869 0.00395348 0.0041015 0.00424076 0.00436925 0.00448698 0.00459394 0.00469014 0.00477557 0.00485024 0.00491414 0.00496816 0.00501315 0.00504912 0.00507607 0.00509401 0.00510292 0.00510282 0.00509369 0.00507791 0.00505782 0.00503344 0.00500475 0.00497177 0.00493449 0.0048929 0.00484702 0.00479891 0.00475063 0.00470218 0.00465357 0.0046048 0.00455586 0.00450675 0.00445748 0.00440861 0.00436071 0.00431377 0.0042678 0.00422279 0.00417875 0.00413567 0.00409356 0.0040515 0.00400857 0.00396477 0.0039201 0.00387456 0.00382815 0.00378088 0.00373273 0.0036824 0.00362857 0.00357124 0.00351041 0.00344607 0.00337824 0.00330691 0.00323208 0.00315336 0.00307035 0.00298305 0.00289146 0.00279558 0.00269541 0.00259096 0.00248222 0.00237045 0.00225691 0.00214161 0.00202454 0.0019057 0.0017851 0.00166274 0.0015386 0.00141539 0.00129579 0.00117981 0.00106743 0.000958669 0.000853518 0.000751978 0.000654051 0.000561831 0.000477414 0.0004008 0.00033199 0.000270983 0.00021778 0.000172379 0.000134782 0.000103192 7.58149e-05 5.26492e-05 3.36955e-05 1.89537e-05 8.42388e-06 2.10597e-06 0 0 5.63114e-06 2.25246e-05 5.06803e-05 9.00983e-05 0.000140779 0.000202721 0.000275926 0.000360393 0.00045895 0.000574425 0.000706817 0.000856126 0.00102235 0.0012055 0.00140556 0.00162254 0.00185011 0.00208197 0.00231809 0.00255849 0.00280317 0.00305212 0.00330534 0.00356284 0.00381806 0.00406444 0.00430198 0.00453068 0.00475053 0.00496155 0.00516373 0.00535706 0.00553895 0.00570678 0.00586054 0.00600025 0.00612589 0.00623748 0.00633501 0.00641847 0.00648902 0.00654779 0.00659477 0.00662997 0.0066534 0.00666504 0.0066649 0.00665299 0.00663237 0.00660614 0.00657429 0.00653682 0.00649374 0.00644504 0.00639073 0.0063308 0.00626796 0.0062049 0.00614162 0.00607813 0.00601443 0.0059505 0.00588637 0.00582202 0.00575819 0.00569562 0.00563431 0.00557426 0.00551548 0.00545796 0.0054017 0.00534669 0.00529176 0.00523568 0.00517848 0.00512013 0.00506065 0.00500004 0.00493829 0.0048754 0.00480966 0.00473935 0.00466447 0.00458502 0.004501 0.0044124 0.00431924 0.0042215 0.00411867 0.00401025 0.00389623 0.0037766 0.00365137 0.00352054 0.00338411 0.00324208 0.00309609 0.0029478 0.0027972 0.0026443 0.00248908 0.00233156 0.00217174 0.0020096 0.00184868 0.00169246 0.00154097 0.0013942 0.00125214 0.0011148 0.000982176 0.00085427 0.00073382 0.000623561 0.000523494 0.00043362 0.000353937 0.000284447 0.000225148 0.000176042 0.000134782 9.90235e-05 6.87663e-05 4.40105e-05 2.47559e-05 1.10026e-05 2.75065e-06 0 0 7.21839e-06 2.88736e-05 6.49655e-05 0.000115494 0.00018046 0.000259862 0.000353701 0.000461977 0.000588168 0.000735754 0.000904734 0.00109511 0.00130688 0.00154004 0.0017946 0.00207055 0.00235988 0.00265457 0.00295462 0.00326004 0.00357082 0.00388696 0.00420847 0.00453534 0.00485929 0.00517205 0.00547362 0.005764 0.00604319 0.00631119 0.00656799 0.00681361 0.00704474 0.00725807 0.00745361 0.00763137 0.00779133 0.0079335 0.00805789 0.00816448 0.00825471 0.00833001 0.00839039 0.00843583 0.00846634 0.00848192 0.00848258 0.0084683 0.00844298 0.00841049 0.00837085 0.00832405 0.00827008 0.00820896 0.00814067 0.00806523 0.00798603 0.00790648 0.0078266 0.00774636 0.00766578 0.00758486 0.00750359 0.00742197 0.00734095 0.00726146 0.0071835 0.00710706 0.00703216 0.00695879 0.00688695 0.00681664 0.00674636 0.0066746 0.00660137 0.00652666 0.00645048 0.00637283 0.0062937 0.00621309 0.00612886 0.00603883 0.00594302 0.00584142 0.00573403 0.00562085 0.00550188 0.00537712 0.00524593 0.00510767 0.00496233 0.00480992 0.00465044 0.00448388 0.00431025 0.00412955 0.00394386 0.00375525 0.00356374 0.00336931 0.00317198 0.00297174 0.00276858 0.00256252 0.00235798 0.00215939 0.00196675 0.00178007 0.00159934 0.00142456 0.00125573 0.00109285 0.000939406 0.000798865 0.000671229 0.000556498 0.000454673 0.000365753 0.000289738 0.000226628 0.000173512 0.000127478 8.85266e-05 5.6657e-05 3.18696e-05 1.41643e-05 3.54106e-06 0 0 9.16455e-06 3.66582e-05 8.2481e-05 0.000146633 0.000229114 0.000329924 0.000449063 0.000586531 0.000746347 0.000932529 0.00114508 0.00138399 0.00164927 0.00194092 0.00225893 0.0026033 0.00296411 0.0033314 0.00370518 0.00408544 0.0044722 0.00486544 0.00526517 0.00567138 0.00607393 0.00646266 0.00683756 0.00719864 0.00754589 0.00787932 0.00819893 0.00850472 0.00879262 0.00905857 0.00930256 0.0095246 0.00972469 0.00990283 0.010059 0.0101933 0.0103073 0.0104028 0.0104798 0.0105384 0.0105785 0.0106 0.0106031 0.0105877 0.0105586 0.0105205 0.0104734 0.0104173 0.0103522 0.0102782 0.0101951 0.0101031 0.0100063 0.00990879 0.0098107 0.00971198 0.00961264 0.00951266 0.00941206 0.00931084 0.00921015 0.00911117 0.0090139 0.00891833 0.00882447 0.00873232 0.00864187 0.00855313 0.00846428 0.0083735 0.00828081 0.00818619 0.00808964 0.00799118 0.00789078 0.00778847 0.00768162 0.0075676 0.00744643 0.00731811 0.00718263 0.00703998 0.00689019 0.00673323 0.00656836 0.00639479 0.00621253 0.00602159 0.00582196 0.00561364 0.00539663 0.00517093 0.0049391 0.00470371 0.00446475 0.00422223 0.00397614 0.00372648 0.00347326 0.00321647 0.00296155 0.00271393 0.00247361 0.00224058 0.00201486 0.00179643 0.0015853 0.00138146 0.00118926 0.001013 0.000852685 0.000708324 0.000579911 0.000467447 0.000370932 0.000290366 0.000222311 0.000163331 0.000113424 7.25915e-05 4.08327e-05 1.81479e-05 4.53697e-06 0 0 1.14696e-05 4.58786e-05 0.000103227 0.000183514 0.000286741 0.000412907 0.000562012 0.000734057 0.000933487 0.00116475 0.00142785 0.00172277 0.00204953 0.00240813 0.00279855 0.00322081 0.00366281 0.00411245 0.00456975 0.0050347 0.0055073 0.00598755 0.00647544 0.00697099 0.00746199 0.00793626 0.00839379 0.00883459 0.00925864 0.00966596 0.0100565 0.0104304 0.0107826 0.0111083 0.0114074 0.01168 0.011926 0.0121455 0.0123384 0.0125048 0.0126467 0.0127661 0.0128631 0.0129377 0.0129898 0.0130194 0.0130266 0.0130113 0.0129793 0.0129362 0.0128819 0.0128166 0.0127402 0.0126527 0.0125541 0.0124444 0.0123287 0.0122118 0.0120939 0.011975 0.011855 0.0117339 0.0116118 0.0114886 0.0113658 0.0112448 0.0111255 0.0110081 0.0108924 0.0107785 0.0106664 0.0105562 0.0104455 0.0103324 0.0102168 0.0100987 0.00997814 0.00985508 0.00972955 0.00960153 0.00946793 0.00932566 0.00917471 0.00901509 0.00884679 0.00866981 0.00848416 0.00828984 0.00808595 0.00787162 0.00764684 0.00741161 0.00716593 0.0069098 0.00664323 0.00636621 0.00608182 0.00579317 0.00550023 0.00520303 0.00490155 0.00459579 0.00428577 0.00397146 0.0036594 0.00335609 0.00306154 0.00277574 0.0024987 0.00223041 0.00197088 0.00172011 0.00148337 0.00126595 0.00106786 0.000889096 0.000729651 0.000589529 0.000468731 0.000367256 0.00028118 0.000206581 0.000143459 9.18139e-05 5.16453e-05 2.29535e-05 5.73837e-06 0 0 1.41336e-05 5.65346e-05 0.000127203 0.000226138 0.000353341 0.000508811 0.000692549 0.000904553 0.00114959 0.00143242 0.00175304 0.00211146 0.00250767 0.00294167 0.00341347 0.00392306 0.00445597 0.00499774 0.00554835 0.00610781 0.00667612 0.00725328 0.00783929 0.00843415 0.00902347 0.00959286 0.0101423 0.0106718 0.0111814 0.0116711 0.0121408 0.0125906 0.0130147 0.0134072 0.0137681 0.0140974 0.0143952 0.0146614 0.0148961 0.0150991 0.015273 0.0154201 0.0155403 0.0156337 0.0157003 0.01574 0.0157529 0.0157391 0.015705 0.0156575 0.0155965 0.015522 0.015434 0.0153325 0.0152176 0.0150892 0.0149532 0.0148156 0.0146763 0.0145354 0.0143928 0.0142486 0.0141028 0.0139553 0.0138079 0.0136622 0.0135183 0.0133763 0.013236 0.0130974 0.0129607 0.0128257 0.0126901 0.0125513 0.0124093 0.0122642 0.012116 0.0119646 0.01181 0.0116523 0.0114878 0.011313 0.0111279 0.0109324 0.0107265 0.0105103 0.0102838 0.0100469 0.00979872 0.00953815 0.00926524 0.00897997 0.00868235 0.00837238 0.00805006 0.00771539 0.00737203 0.00702363 0.00667019 0.00631172 0.00594822 0.00557968 0.0052061 0.00482748 0.00445152 0.00408587 0.00373055 0.00338555 0.00305087 0.00272651 0.00241248 0.00210878 0.00182174 0.00155774 0.00131676 0.00109882 0.000903894 0.000732 0.000583135 0.000457297 0.000350118 0.000257229 0.000178632 0.000114324 6.43073e-05 2.8581e-05 7.14526e-06 0 0 1.71566e-05 6.86263e-05 0.000154409 0.000274505 0.000428914 0.000617636 0.000840672 0.00109802 0.00139465 0.00173553 0.00212066 0.00255004 0.00302367 0.00354155 0.00410368 0.00471006 0.00534361 0.00598724 0.00664096 0.00730477 0.00797867 0.00866265 0.00935672 0.0100609 0.0107584 0.0114325 0.0120831 0.0127104 0.0133143 0.0138947 0.0144518 0.0149854 0.0154889 0.0159553 0.0163846 0.016777 0.0171323 0.0174507 0.017732 0.0179762 0.0181862 0.0183645 0.0185113 0.0186264 0.0187099 0.0187619 0.0187822 0.0187709 0.0187357 0.0186844 0.018617 0.0185334 0.0184336 0.0183177 0.0181856 0.0180374 0.0178799 0.0177201 0.0175578 0.0173932 0.0172262 0.0170568 0.016885 0.0167109 0.0165364 0.0163635 0.0161924 0.0160229 0.0158551 0.015689 0.0155246 0.0153618 0.015198 0.0150302 0.0148584 0.0146827 0.0145031 0.0143196 0.0141321 0.0139407 0.0137413 0.0135296 0.0133059 0.0130699 0.0128218 0.0125616 0.0122891 0.0120045 0.0117067 0.0113944 0.0110677 0.0107267 0.0103712 0.0100014 0.00961712 0.00921848 0.00880971 0.00839509 0.00797463 0.00754831 0.00711614 0.00667813 0.00623426 0.00578454 0.0053379 0.00490326 0.00448063 0.00406999 0.00367136 0.00328473 0.0029101 0.00254748 0.00220438 0.00188835 0.00159939 0.00133748 0.00110264 0.00089486 0.000714143 0.000560489 0.000429125 0.000315275 0.000218941 0.000140122 7.88188e-05 3.50306e-05 8.75765e-06 0 0 2.05384e-05 8.21537e-05 0.000184846 0.000328615 0.00051346 0.000739383 0.00100638 0.00131446 0.00166867 0.00207409 0.00253071 0.00303852 0.00359754 0.00420776 0.00486918 0.0055818 0.00632571 0.00708097 0.0078476 0.00862559 0.00941494 0.0102156 0.0110277 0.0118512 0.0126667 0.0134551 0.0142163 0.0149503 0.0156572 0.0163369 0.0169894 0.0176148 0.0182051 0.0187526 0.0192571 0.0197187 0.0201374 0.0205132 0.0208461 0.0211361 0.0213862 0.0215996 0.0217761 0.0219159 0.0220188 0.022085 0.0221143 0.0221069 0.0220715 0.022017 0.0219435 0.0218508 0.021739 0.0216081 0.0214581 0.0212891 0.0211088 0.0209253 0.0207385 0.0205484 0.020355 0.0201584 0.0199585 0.0197554 0.0195513 0.0193487 0.0191477 0.0189481 0.01875 0.0185533 0.0183582 0.0181645 0.0179692 0.017769 0.017564 0.0173542 0.0171396 0.0169202 0.0166959 0.0164668 0.0162283 0.0159756 0.0157087 0.0154278 0.0151327 0.0148235 0.0145001 0.0141626 0.0138098 0.0134403 0.0130543 0.0126517 0.0122325 0.0117968 0.0113444 0.0108755 0.0103949 0.00990756 0.00941353 0.00891279 0.00840532 0.00789115 0.00737025 0.00684263 0.00631856 0.00580828 0.00531178 0.00482908 0.00436018 0.00390506 0.00346374 0.00303621 0.00263129 0.00225779 0.00191573 0.00160509 0.00132589 0.00107811 0.000861756 0.000676834 0.000518201 0.000380719 0.000264388 0.000169208 9.51798e-05 4.23021e-05 1.05755e-05 0 0 2.42792e-05 9.71167e-05 0.000218513 0.000388467 0.000606979 0.00087405 0.00118968 0.00155387 0.00197166 0.00244809 0.00298318 0.00357691 0.00422929 0.00494031 0.00570998 0.0065383 0.00740228 0.00827893 0.00916826 0.0100703 0.0109849 0.0119123 0.0128523 0.013805 0.0147484 0.0156607 0.0165417 0.0173915 0.0182101 0.0189975 0.0197537 0.0204787 0.0211635 0.0217991 0.0223854 0.0229225 0.0234104 0.0238491 0.0242385 0.0245787 0.0248731 0.0251252 0.0253348 0.025502 0.0256269 0.0257093 0.0257494 0.025747 0.0257123 0.0256553 0.0255759 0.0254743 0.0253502 0.0252039 0.0250352 0.0248442 0.0246398 0.0244312 0.0242182 0.024001 0.0237794 0.0235535 0.0233233 0.0230888 0.0228527 0.0226178 0.0223841 0.0221517 0.0219204 0.0216903 0.0214614 0.0212337 0.0210037 0.0207679 0.0205262 0.0202787 0.0200254 0.0197663 0.0195014 0.0192306 0.0189488 0.0186508 0.0183365 0.0180059 0.0176591 0.0172961 0.0169167 0.0165212 0.0161081 0.015676 0.015225 0.0147551 0.0142663 0.0137586 0.0132319 0.0126864 0.0121275 0.011561 0.0109869 0.0104052 0.00981576 0.00921873 0.00861407 0.00800176 0.00739349 0.0068009 0.00622402 0.00566282 0.00511732 0.00458751 0.00407339 0.00357497 0.00310245 0.00266606 0.0022658 0.00190165 0.00157364 0.00128174 0.00102597 0.00080633 0.000617346 0.000453561 0.000314973 0.000201582 0.00011339 5.03956e-05 1.25989e-05 0 0 2.83789e-05 0.000113515 0.00025541 0.000454062 0.000709472 0.00102164 0.00139056 0.00181625 0.0023036 0.00285755 0.00347808 0.00416519 0.0049189 0.00573919 0.00662607 0.00757954 0.00857331 0.00958111 0.0106029 0.0116388 0.0126886 0.0137525 0.0148305 0.0159224 0.0170036 0.0180492 0.0190594 0.020034 0.0209731 0.0218767 0.0227447 0.0235772 0.024364 0.0250948 0.0257696 0.0263885 0.0269513 0.0274582 0.0279092 0.0283041 0.0286469 0.0289413 0.0291873 0.0293849 0.0295341 0.0296349 0.0296873 0.0296913 0.0296582 0.0295992 0.0295144 0.0294038 0.0292673 0.0291049 0.0289168 0.0287027 0.028473 0.0282378 0.0279971 0.0277509 0.0274992 0.027242 0.0269793 0.0267111 0.0264405 0.0261708 0.0259018 0.0256337 0.0253664 0.0251 0.0248343 0.0245694 0.0243015 0.0240267 0.0237449 0.0234562 0.0231606 0.022858 0.0225485 0.0222321 0.0219029 0.0215553 0.0211891 0.0208043 0.0204011 0.0199793 0.0195391 0.0190803 0.0186015 0.0181014 0.0175798 0.0170369 0.0164725 0.0158868 0.0152797 0.0146512 0.0140076 0.0133555 0.0126948 0.0120254 0.0113475 0.0106609 0.00996571 0.00926192 0.00856268 0.00788115 0.00721732 0.0065712 0.00594278 0.00533207 0.00473906 0.00416376 0.00361788 0.00311316 0.00264958 0.00222716 0.00184589 0.00150577 0.0012068 0.000948978 0.000726561 0.0005338 0.000370694 0.000237244 0.00013345 5.93111e-05 1.48278e-05 0 0 3.2808e-05 0.000131232 0.000295272 0.000524929 0.000820201 0.00118109 0.00160759 0.00209972 0.00266212 0.00329946 0.00401176 0.004799 0.00566119 0.00659832 0.0076104 0.00869742 0.0098296 0.0109772 0.0121401 0.0133184 0.0145121 0.0157211 0.0169456 0.0181854 0.0194128 0.0206002 0.0217475 0.0228547 0.0239218 0.0249489 0.0259359 0.0268828 0.0277781 0.0286104 0.0293797 0.0300859 0.030729 0.0313091 0.0318261 0.0322801 0.0326752 0.0330156 0.0333012 0.0335321 0.0337083 0.0338297 0.0338965 0.0339085 0.0338783 0.0338185 0.0337291 0.03361 0.0334614 0.0332831 0.0330753 0.0328378 0.032582 0.0323194 0.03205 0.0317736 0.0314904 0.0312003 0.0309034 0.0305996 0.0302925 0.0299857 0.0296792 0.029373 0.0290671 0.0287616 0.0284563 0.0281514 0.0278425 0.0275255 0.0272003 0.0268669 0.0265254 0.0261757 0.0258179 0.0254519 0.0250713 0.0246699 0.0242475 0.0238043 0.0233401 0.022855 0.022349 0.0218221 0.0212727 0.0206994 0.0201021 0.0194808 0.0188356 0.0181664 0.0174732 0.016756 0.016022 0.0152784 0.0145252 0.0137624 0.01299 0.0122079 0.0114162 0.0106149 0.00981866 0.00904223 0.00828559 0.00754875 0.00683171 0.00613446 0.00545701 0.00479935 0.00417483 0.00359677 0.00306517 0.00258004 0.00214137 0.00174917 0.00140343 0.00110416 0.000845372 0.00062109 0.000431312 0.00027604 0.000155272 6.901e-05 1.72525e-05 0 0 3.75373e-05 0.000150149 0.000337836 0.000600597 0.000938433 0.00135134 0.00183933 0.00240239 0.00304481 0.00377087 0.00458059 0.00547394 0.00645095 0.00751159 0.00865589 0.00988383 0.0111619 0.0124567 0.0137682 0.0150964 0.0164412 0.0178028 0.019181 0.0205759 0.0219567 0.0232928 0.024584 0.0258304 0.027032 0.0281888 0.0293008 0.030368 0.0313776 0.0323168 0.0331857 0.0339842 0.0347123 0.0353701 0.0359575 0.0364745 0.0369257 0.0373156 0.0376441 0.0379114 0.0381173 0.038262 0.0383453 0.0383673 0.0383418 0.0382827 0.0381901 0.0380637 0.0379038 0.0377103 0.0374831 0.0372223 0.0369405 0.0366503 0.0363516 0.0360444 0.0357289 0.0354049 0.0350724 0.0347315 0.0343862 0.0340406 0.0336946 0.0333482 0.0330015 0.0326543 0.0323069 0.0319591 0.0316063 0.031244 0.0308722 0.0304909 0.0301001 0.0296997 0.0292899 0.0288705 0.0284347 0.0279755 0.0274929 0.0269869 0.0264574 0.0259046 0.0253285 0.0247289 0.0241043 0.0234531 0.0227753 0.0220708 0.0213398 0.0205821 0.0197979 0.018987 0.0181575 0.0173173 0.0164665 0.015605 0.0147328 0.01385 0.0129565 0.0120524 0.0111539 0.0102774 0.00942272 0.00859002 0.00777926 0.00699042 0.00622352 0.00547854 0.00477055 0.00411458 0.00351063 0.00295871 0.00245881 0.00201094 0.00161508 0.00127126 0.000973307 0.000715083 0.000496585 0.000317815 0.000178771 7.94536e-05 1.98634e-05 0 0 4.25667e-05 0.000170267 0.0003831 0.000681067 0.00106417 0.0015324 0.00208577 0.00272427 0.00345168 0.00427177 0.00518456 0.00619003 0.00728818 0.00847902 0.00976255 0.0111388 0.0125703 0.0140198 0.0154873 0.0169727 0.0184761 0.0199974 0.0215367 0.023094 0.0246354 0.026127 0.027569 0.0289612 0.0303037 0.0315964 0.0328395 0.0340328 0.0351623 0.0362139 0.0371876 0.0380834 0.0389012 0.0396411 0.0403031 0.0408872 0.0413983 0.0418412 0.042216 0.0425227 0.0427611 0.0429315 0.0430337 0.0430678 0.0430488 0.0429921 0.0428974 0.0427649 0.0425946 0.0423864 0.0421403 0.0418564 0.0415484 0.0412303 0.0409019 0.0405633 0.0402145 0.0398555 0.0394863 0.0391069 0.0387218 0.0383355 0.037948 0.0375593 0.0371694 0.0367783 0.036386 0.0359926 0.035593 0.0351824 0.0347608 0.0343283 0.0338847 0.0334302 0.0329646 0.0324881 0.031993 0.031472 0.0309251 0.0303521 0.0297532 0.0291283 0.0284775 0.0278007 0.0270962 0.0263624 0.0255993 0.0248069 0.0239852 0.0231341 0.0222538 0.0213441 0.020414 0.0194721 0.0185184 0.0175531 0.016576 0.0155872 0.0145867 0.0135745 0.0125684 0.0115865 0.0106287 0.009695 0.00878541 0.00789994 0.00703857 0.00620132 0.00540504 0.00466659 0.00398597 0.00336317 0.00279821 0.00229107 0.00184176 0.00145027 0.00111037 0.000815779 0.000566513 0.000362569 0.000203945 9.06421e-05 2.26605e-05 0 0 4.78962e-05 0.000191585 0.000431065 0.000766338 0.0011974 0.00172426 0.00234691 0.00306535 0.00388273 0.00480217 0.00582367 0.00694725 0.00817289 0.0095006 0.0109304 0.0124622 0.0140547 0.0156664 0.0172973 0.0189473 0.0206166 0.0223051 0.0240128 0.0257396 0.0274487 0.0291029 0.0307024 0.032247 0.0337368 0.0351718 0.0365519 0.0378773 0.0391324 0.0403017 0.0413854 0.0423834 0.0432957 0.0441223 0.0448632 0.0455184 0.0460931 0.0465926 0.0470169 0.0473659 0.0476398 0.0478384 0.0479618 0.0480099 0.0479993 0.0479464 0.0478511 0.0477136 0.0475336 0.0473114 0.0470468 0.0467399 0.0464058 0.0460595 0.045701 0.0453303 0.0449474 0.0445524 0.0441452 0.0437258 0.0432992 0.0428704 0.0424395 0.0420063 0.041571 0.0411335 0.0406938 0.0402518 0.0398025 0.0393406 0.0388661 0.038379 0.0378793 0.037367 0.036842 0.0363045 0.0357464 0.0351596 0.0345442 0.0339001 0.0332274 0.032526 0.031796 0.0310374 0.0302484 0.0294274 0.0285742 0.027689 0.0267717 0.0258224 0.024841 0.0238275 0.0227915 0.0217427 0.0206812 0.0196068 0.0185196 0.0174196 0.0163068 0.0151811 0.0140623 0.0129697 0.0119035 0.0108637 0.00985018 0.00886301 0.00790218 0.00696769 0.00607831 0.00525281 0.00449118 0.00379343 0.00315956 0.00258957 0.00208345 0.00164121 0.00125655 0.000923179 0.000641096 0.000410302 0.000230795 0.000102575 2.56439e-05 0 0 5.35257e-05 0.000214103 0.000481731 0.000856411 0.00133814 0.00192693 0.00262276 0.00342564 0.00433795 0.00536205 0.00649793 0.00774561 0.00910508 0.0105763 0.0121594 0.0138542 0.0156151 0.0173965 0.0191982 0.0210203 0.0228629 0.0247258 0.0266091 0.0285129 0.0303967 0.0322205 0.0339842 0.0356878 0.0373314 0.0389148 0.0404381 0.0419013 0.0432877 0.0445803 0.0457792 0.0468844 0.0478958 0.0488135 0.0496376 0.0503679 0.05101 0.0515697 0.0520467 0.0524412 0.0527532 0.0529826 0.0531295 0.0531938 0.0531933 0.0531458 0.0530512 0.0529096 0.052721 0.0524854 0.0522027 0.051873 0.0515126 0.0511379 0.0507488 0.0503454 0.0499276 0.0494954 0.049049 0.0485881 0.0481184 0.0476454 0.047169 0.0466893 0.0462062 0.0457198 0.04523 0.0447369 0.044235 0.0437187 0.043188 0.0426431 0.0420838 0.0415101 0.0409222 0.0403198 0.0396947 0.0390381 0.0383501 0.0376307 0.0368799 0.0360977 0.0352842 0.0344392 0.033561 0.032648 0.0317 0.0307172 0.0296995 0.0286469 0.0275593 0.0264369 0.0252901 0.0241293 0.0229547 0.021766 0.0205635 0.019347 0.0181167 0.0168723 0.0156354 0.014427 0.0132472 0.0120961 0.0109736 0.00987965 0.00881434 0.00777765 0.00679035 0.00587323 0.00502627 0.00424948 0.00354287 0.00290643 0.00234016 0.00184406 0.00141186 0.00103728 0.000720335 0.000461014 0.00025932 0.000115254 2.88134e-05 0 0 5.94553e-05 0.000237821 0.000535098 0.000951285 0.00148638 0.00214039 0.00291331 0.00380514 0.00481735 0.00595142 0.00720734 0.00858511 0.0100847 0.0117062 0.0134495 0.0153147 0.0172516 0.0192101 0.0211901 0.0231917 0.0252148 0.0272595 0.0293258 0.0314137 0.0334795 0.0354798 0.0374145 0.0392837 0.0410874 0.0428255 0.044498 0.046105 0.0476283 0.0490495 0.0503688 0.0515862 0.0527015 0.0537149 0.0546263 0.0554358 0.0561491 0.0567724 0.0573055 0.0577485 0.0581014 0.0583642 0.0585368 0.058619