<?xml version="1.0"?> 
<VTKFile type="StructuredGrid" version="0.1"> 
<StructuredGrid WholeExtent="0 128 0 128 0 0"> 
<Piece Extent="0 128 0 128 0 0"> 
<PointData>
<DataArray type="Float32" Name="u" format="ascii" NumberOfComponents="1"> 
0 0 0 0 0 0 0 0 0 0 0 0 0 0 0 0 0 0 0 0 0 0 0 0 0 0 0 0 0 0 0 0 0 0 0 0 0 0 0 0 0 0 0 0 0 0 0 0 0 0 0 0 0 0 0 0 0 0 0 0 0 0 0 0 0 0 0 0 0 0 0 0 0 0 0 0 0 0 0 0 0 0 0 0 0 0 0 0 0 0 0 0 0 0 0 0 0 0 0 0 0 0 0 0 0 0 0 0 0 0 0 0 0 0 0 0 0 0 0 0 0 0 0 0 0 0 0 0 0 0 6.45357e-07 2.58143e-06 5.80821e-06 1.03257e-05 1.61339e-05 2.32329e-05 3.16225e-05 4.13029e-05 5.24661e-05 6.53044e-05 7.98178e-05 9.60062e-05 0.00011387 0.000133408 0.000154622 0.00017751 0.000201457 0.000225843 0.00025067 0.000275937 0.000301644 0.000327791 0.000354379 0.000381407 0.000408271 0.00043437 0.000459702 0.000484268 0.000508068 0.000531102 0.00055337 0.000574871 0.000595293 0.000614324 0.000631964 0.000648212 0.000663069 0.000676534 0.000688607 0.00069929 0.000708539 0.000716315 0.000722618 0.000727446 0.000730801 0.000732683 0.00073309 0.000732024 0.000729638 0.000726085 0.000721365 0.000715477 0.000708423 0.000700202 0.000690814 0.000680259 0.000668785 0.000656642 0.000643828 0.000630345 0.000616192 0.000601368 0.000585875 0.000569712 0.000553131 0.000536383 0.000519468 0.000502386 0.000485137 0.000467721 0.000450138 0.000432388 0.000414663 0.000397154 0.000379861 0.000362785 0.000345924 0.000329279 0.00031285 0.000296637 0.000280747 0.000265285 0.000250253 0.000235649 0.000221474 0.000207728 0.000194411 0.000181522 0.000169093 0.000157152 0.0001457 0.000134737 0.000124262 0.000114277 0.00010478 9.57718e-05 8.72342e-05 7.91488e-05 7.15154e-05 6.43343e-05 5.76052e-05 5.13283e-05 4.55035e-05 4.01309e-05 3.51704e-05 3.0582e-05 2.63659e-05 2.25218e-05 1.90499e-05 1.59502e-05 1.32226e-05 1.08672e-05 8.81636e-06 7.00245e-06 5.42549e-06 4.08547e-06 2.98241e-06 2.1163e-06 1.48714e-06 1.09493e-06 8.38309e-07 6.159e-07 4.27708e-07 2.73733e-07 1.53975e-07 6.84334e-08 1.71083e-08 0 0 2.58143e-06 1.03257e-05 2.32329e-05 4.13029e-05 6.45357e-05 9.29314e-05 0.00012649 0.000165211 0.000209864 0.000261218 0.000319271 0.000384025 0.000455479 0.000533633 0.000618487 0.000710042 0.000805827 0.000903373 0.00100268 0.00110375 0.00120658 0.00131117 0.00141752 0.00152563 0.00163309 0.00173748 0.00183881 0.00193707 0.00203227 0.00212441 0.00221348 0.00229948 0.00238117 0.0024573 0.00252786 0.00259285 0.00265227 0.00270613 0.00275443 0.00279716 0.00283416 0.00286526 0.00289047 0.00290979 0.00292321 0.00293073 0.00293236 0.0029281 0.00291855 0.00290434 0.00288546 0.00286191 0.00283369 0.00280081 0.00276326 0.00272103 0.00267514 0.00262657 0.00257531 0.00252138 0.00246477 0.00240547 0.0023435 0.00227885 0.00221252 0.00214553 0.00207787 0.00200954 0.00194055 0.00187088 0.00180055 0.00172955 0.00165865 0.00158862 0.00151945 0.00145114 0.00138369 0.00131712 0.0012514 0.00118655 0.00112299 0.00106114 0.00100101 0.000942596 0.000885896 0.000830912 0.000777643 0.000726089 0.000676371 0.000628608 0.0005828 0.000538947 0.000497049 0.000457107 0.000419119 0.000383087 0.000348937 0.000316595 0.000286062 0.000257337 0.000230421 0.000205313 0.000182014 0.000160524 0.000140682 0.000122328 0.000105463 9.00873e-05 7.61998e-05 6.38009e-05 5.28906e-05 4.34689e-05 3.52655e-05 2.80098e-05 2.17019e-05 1.63419e-05 1.19297e-05 8.46521e-06 5.94857e-06 4.37973e-06 3.35323e-06 2.4636e-06 1.71083e-06 1.09493e-06 6.159e-07 2.73733e-07 6.84334e-08 0 0 5.80821e-06 2.32329e-05 5.22739e-05 9.29314e-05 0.000145205 0.000209096 0.000284602 0.000371726 0.000472195 0.00058774 0.00071836 0.000864056 0.00102483 0.00120067 0.0013916 0.00159759 0.00181311 0.00203259 0.00225603 0.00248343 0.0027148 0.00295012 0.00318941 0.00343266 0.00367444 0.00390933 0.00413732 0.00435842 0.00457262 0.00477992 0.00498033 0.00517384 0.00535764 0.00552892 0.00568767 0.00583391 0.00596762 0.0060888 0.00619747 0.00629361 0.00637685 0.00644684 0.00650356 0.00654702 0.00657721 0.00659414 0.00659781 0.00658822 0.00656674 0.00653476 0.00649228 0.0064393 0.00637581 0.00630182 0.00621732 0.00612233 0.00601907 0.00590977 0.00579445 0.0056731 0.00554572 0.00541232 0.00527288 0.00512741 0.00497818 0.00482744 0.00467521 0.00452147 0.00436623 0.00420949 0.00405124 0.0038915 0.00373197 0.00357439 0.00341875 0.00326506 0.00311331 0.00296351 0.00281565 0.00266974 0.00252672 0.00238757 0.00225228 0.00212084 0.00199327 0.00186955 0.0017497 0.0016337 0.00152183 0.00141437 0.0013113 0.00121263 0.00111836 0.00102849 0.000943019 0.000861946 0.000785108 0.000712339 0.000643639 0.000579008 0.000518447 0.000461955 0.000409532 0.000361178 0.000316534 0.000275238 0.000237293 0.000202696 0.000171449 0.000143552 0.000119004 9.78051e-05 7.93473e-05 6.3022e-05 4.88294e-05 3.67693e-05 2.68417e-05 1.90467e-05 1.33843e-05 9.8544e-06 7.54478e-06 5.5431e-06 3.84938e-06 2.4636e-06 1.38578e-06 6.159e-07 1.53975e-07 0 0 1.03257e-05 4.13029e-05 9.29314e-05 0.000165211 0.000258143 0.000371726 0.00050596 0.000660846 0.000839458 0.00104487 0.00127708 0.0015361 0.00182191 0.00213453 0.00247395 0.00284017 0.00322331 0.00361349 0.00401072 0.00441499 0.0048263 0.00524466 0.00567006 0.00610251 0.00653234 0.00694992 0.00735524 0.0077483 0.00812909 0.00849763 0.00885391 0.00919793 0.00952469 0.00982919 0.0101114 0.0103714 0.0106091 0.0108245 0.0110177 0.0111886 0.0113366 0.011461 0.0115619 0.0116391 0.0116928 0.0117229 0.0117294 0.0117124 0.0116742 0.0116174 0.0115418 0.0114476 0.0113348 0.0112032 0.011053 0.0108841 0.0107006 0.0105063 0.0103012 0.0100855 0.00985906 0.00962189 0.00937401 0.0091154 0.0088501 0.00858212 0.00831148 0.00803817 0.00776219 0.00748353 0.00720221 0.00691822 0.00663462 0.00635447 0.00607778 0.00580455 0.00553478 0.00526846 0.0050056 0.0047462 0.00449195 0.00424457 0.00400405 0.00377038 0.00354359 0.00332365 0.00311057 0.00290436 0.00270548 0.00251443 0.0023312 0.00215579 0.0019882 0.00182843 0.00167648 0.00153235 0.00139575 0.00126638 0.00114425 0.00102935 0.000921683 0.000821253 0.000728056 0.000642094 0.000562726 0.000489313 0.000421854 0.000360349 0.000304799 0.000255203 0.000211562 0.000173876 0.000141062 0.000112039 8.68078e-05 6.53676e-05 4.77186e-05 3.38608e-05 2.37943e-05 1.75189e-05 1.34129e-05 9.8544e-06 6.84334e-06 4.37973e-06 2.4636e-06 1.09493e-06 2.73733e-07 0 0 1.61339e-05 6.45357e-05 0.000145205 0.000258143 0.000403348 0.000580821 0.000790562 0.00103257 0.00131165 0.00163261 0.00199544 0.00240015 0.00284674 0.0033352 0.00386554 0.00443776 0.00503642 0.00564608 0.00626675 0.00689842 0.0075411 0.00819478 0.00885947 0.00953517 0.0102068 0.0108592 0.0114926 0.0121067 0.0127017 0.0132776 0.0138342 0.0143718 0.0148823 0.0153581 0.0157991 0.0162053 0.0165767 0.0169133 0.0172152 0.0174822 0.0177135 0.0179079 0.0180654 0.0181862 0.01827 0.0183171 0.0183273 0.0183006 0.018241 0.0181521 0.0180341 0.0178869 0.0177106 0.017505 0.0172703 0.0170065 0.0167196 0.016416 0.0160957 0.0157586 0.0154048 0.0150342 0.0146469 0.0142428 0.0138283 0.0134096 0.0129867 0.0125596 0.0121284 0.011693 0.0112535 0.0108097 0.0103666 0.00992886 0.00949654 0.00906961 0.00864809 0.00823197 0.00782125 0.00741593 0.00701867 0.00663214 0.00625632 0.00589123 0.00553685 0.0051932 0.00486027 0.00453806 0.00422732 0.0039288 0.0036425 0.00336842 0.00310656 0.00285692 0.0026195 0.00239429 0.00218086 0.00197872 0.00178789 0.00160836 0.00144013 0.00128321 0.00113759 0.00100327 0.00087926 0.000764551 0.000659146 0.000563046 0.000476249 0.000398755 0.000330566 0.000271681 0.000220409 0.000175061 0.000135637 0.000102137 7.45603e-05 5.29076e-05 3.71786e-05 2.73733e-05 2.09577e-05 1.53975e-05 1.06927e-05 6.84334e-06 3.84938e-06 1.71083e-06 4.27708e-07 0 0 2.32329e-05 9.29314e-05 0.000209096 0.000371726 0.000580821 0.000836383 0.00113841 0.0014869 0.00188878 0.00235096 0.00287344 0.00345622 0.00409931 0.00480269 0.00556638 0.00639037 0.00725244 0.00813035 0.00902412 0.00993373 0.0108592 0.0118005 0.0127576 0.0137306 0.0146978 0.0156373 0.0165493 0.0174337 0.0182905 0.0191197 0.0199213 0.0206954 0.0214306 0.0221157 0.0227507 0.0233356 0.0238705 0.0243552 0.0247899 0.0251744 0.0255074 0.0257874 0.0260142 0.0261881 0.0263088 0.0263766 0.0263913 0.0263529 0.026267 0.0261391 0.0259691 0.0257572 0.0255032 0.0252073 0.0248693 0.0244893 0.0240763 0.0236391 0.0231778 0.0226924 0.0221829 0.0216493 0.0210915 0.0205096 0.0199127 0.0193098 0.0187008 0.0180859 0.0174649 0.0168379 0.016205 0.015566 0.0149279 0.0142976 0.013675 0.0130602 0.0124533 0.011854 0.0112626 0.0106789 0.0101069 0.00955028 0.0090091 0.00848337 0.00797307 0.00747821 0.00699879 0.0065348 0.00608734 0.00565747 0.0052452 0.00485052 0.00447344 0.00411396 0.00377207 0.00344778 0.00314043 0.00284936 0.00257456 0.00231603 0.00207379 0.00184782 0.00163813 0.00144471 0.00126613 0.00110095 0.000949171 0.000810786 0.000685798 0.000574208 0.000476015 0.00039122 0.000317389 0.000252088 0.000195318 0.000147077 0.000107367 7.61869e-05 5.35371e-05 3.94176e-05 3.01791e-05 2.21724e-05 1.53975e-05 9.8544e-06 5.5431e-06 2.4636e-06 6.159e-07 0 0 3.16225e-05 0.00012649 0.000284602 0.00050596 0.000790562 0.00113841 0.0015495 0.00202384 0.00257084 0.00319992 0.00391107 0.0047043 0.00557961 0.006537 0.00757647 0.00869801 0.00987138 0.0110663 0.0122828 0.0135209 0.0147806 0.0160618 0.0173646 0.0186889 0.0200053 0.0212841 0.0225254 0.0237292 0.0248954 0.026024 0.0271151 0.0281687 0.0291694 0.0301019 0.0309662 0.0317624 0.0324904 0.0331502 0.0337418 0.0342652 0.0347184 0.0350994 0.0354083 0.0356449 0.0358093 0.0359015 0.0359214 0.0358692 0.0357523 0.0355782 0.0353469 0.0350584 0.0347127 0.0343099 0.0338499 0.0333327 0.0327705 0.0321754 0.0315476 0.0308869 0.0301934 0.0294671 0.0287079 0.0279159 0.0271034 0.0262828 0.0254539 0.0246169 0.0237717 0.0229183 0.0220568 0.021187 0.0203185 0.0194606 0.0186132 0.0177764 0.0169503 0.0161347 0.0153297 0.0145352 0.0137566 0.012999 0.0122624 0.0115468 0.0108522 0.0101787 0.00952613 0.0088946 0.00828555 0.00770045 0.0071393 0.0066021 0.00608885 0.00559956 0.00513421 0.00469282 0.00427448 0.00387829 0.00350426 0.00315238 0.00282266 0.00251509 0.00222967 0.00196641 0.00172335 0.00149852 0.00129193 0.00110357 0.000933447 0.000781561 0.00064791 0.000532494 0.000432002 0.00034312 0.000265849 0.000200188 0.000146138 0.000103699 7.287e-05 5.36518e-05 4.10771e-05 3.01791e-05 2.09577e-05 1.34129e-05 7.54478e-06 3.35323e-06 8.38309e-07 0 0 4.13029e-05 0.000165211 0.000371726 0.000660846 0.00103257 0.0014869 0.00202384 0.00264338 0.00335783 0.00417948 0.00510834 0.0061444 0.00728766 0.00853812 0.00989579 0.0113607 0.0128932 0.014454 0.0160429 0.01766 0.0193052 0.0209786 0.0226802 0.02441 0.0261294 0.0277997 0.0294209 0.0309932 0.0325164 0.0339905 0.0354157 0.0367917 0.0380988 0.0393168 0.0404457 0.0414856 0.0424364 0.0432982 0.0440709 0.0447545 0.0453465 0.0458442 0.0462475 0.0465566 0.0467713 0.0468917 0.0469178 0.0468496 0.0466968 0.0464694 0.0461673 0.0457906 0.0453391 0.0448129 0.0442121 0.0435366 0.0428022 0.0420251 0.041205 0.0403421 0.0394363 0.0384876 0.037496 0.0364616 0.0354004 0.0343285 0.0332459 0.0321527 0.0310487 0.0299341 0.0288088 0.0276729 0.0265385 0.0254179 0.0243111 0.0232182 0.0221391 0.0210738 0.0200224 0.0189848 0.0179678 0.0169783 0.0160162 0.0150815 0.0141743 0.0132946 0.0124423 0.0116174 0.0108219 0.0100577 0.0093248 0.00862315 0.00795279 0.00731371 0.00670591 0.00612939 0.00558299 0.00506552 0.00457699 0.00411739 0.00368673 0.00328501 0.00291223 0.00256838 0.0022509 0.00195725 0.00168741 0.0014414 0.0012192 0.00102081 0.000846249 0.000695503 0.000564247 0.000448157 0.000347231 0.00026147 0.000190874 0.000135443 9.51771e-05 7.00758e-05 5.36518e-05 3.94176e-05 2.73733e-05 1.75189e-05 9.8544e-06 4.37973e-06 1.09493e-06 0 0 5.25419e-05 0.000210168 0.000472877 0.000840671 0.00131355 0.00189151 0.00257455 0.00336268 0.00427097 0.00531448 0.00649321 0.00780718 0.00925636 0.0108408 0.0125604 0.0144153 0.0163554 0.018331 0.0203418 0.0223881 0.0244697 0.0265866 0.0287389 0.0309266 0.033101 0.0352134 0.0372637 0.0392521 0.0411785 0.0430429 0.0448453 0.0465857 0.0482388 0.0497794 0.0512074 0.052523 0.0537259 0.0548164 0.0557943 0.0566596 0.0574091 0.0580394 0.0585504 0.0589421 0.0592147 0.059368 0.0594021 0.0593169 0.0591249 0.0588384 0.0584575 0.057982 0.0574121 0.0567477 0.0559888 0.0551354 0.0542077 0.0532256 0.0521892 0.0510986 0.0499536 0.0487543 0.0475007 0.0461928 0.0448509 0.0434954 0.0421263 0.0407436 0.0393473 0.0379374 0.0365138 0.0350766 0.0336414 0.0322235 0.030823 0.0294399 0.0280742 0.0267259 0.025395 0.0240815 0.022794 0.0215412 0.020323 0.0191395 0.0179907 0.0168765 0.0157969 0.0147521 0.0137443 0.0127761 0.0118474 0.0109583 0.0101087 0.00929872 0.00852825 0.00779733 0.00710449 0.00644825 0.00582861 0.00524557 0.00469913 0.0041893 0.00371607 0.00327943 0.00287617 0.00250302 0.00216001 0.00184712 0.00156436 0.00131172 0.00108921 0.000896828 0.000729125 0.000580656 0.000451422 0.000341423 0.000250659 0.000179129 0.000126834 9.37732e-05 7.17951e-05 5.27474e-05 3.66301e-05 2.34433e-05 1.31869e-05 5.86082e-06 1.46521e-06 0 0 6.56077e-05 0.000262431 0.00059047 0.00104972 0.00164019 0.00236188 0.00321478 0.00419889 0.00533146 0.00662972 0.00809368 0.00972332 0.0115187 0.0134797 0.0156064 0.0178988 0.0202955 0.022735 0.0252173 0.0277425 0.0303104 0.0329213 0.0355749 0.0382714 0.0409511 0.0435545 0.0460816 0.0485323 0.0509066 0.0532046 0.0554263 0.0575716 0.0596095 0.0615089 0.0632699 0.0648924 0.0663764 0.067722 0.0689291 0.0699977 0.0709237 0.0717028 0.0723351 0.0728206 0.0731593 0.0733511 0.0733961 0.0732943 0.0730608 0.0727108 0.0722442 0.0716612 0.0709616 0.0701455 0.0692129 0.0681638 0.0670228 0.0658147 0.0645394 0.063197 0.0617874 0.0603106 0.0587666 0.0571555 0.0555023 0.053832 0.0521446 0.0504401 0.0487186 0.04698 0.0452243 0.0434516 0.0416809 0.0399313 0.038203 0.0364959 0.0348099 0.0331452 0.0315016 0.0298792 0.0282887 0.0267408 0.0252354 0.0237727 0.0223525 0.0209748 0.0196398 0.0183473 0.0171005 0.0159023 0.0147529 0.0136522 0.0126002 0.0115969 0.0106423 0.00973646 0.0088775 0.00806368 0.00729498 0.00657141 0.00589297 0.00525966 0.00467147 0.00412841 0.00362649 0.00316172 0.00273408 0.00234359 0.00199024 0.00167403 0.00139497 0.00115305 0.000941633 0.000754076 0.000590381 0.000450547 0.000334575 0.000242464 0.000174215 0.000129828 9.93992e-05 7.3028e-05 5.07139e-05 3.24569e-05 1.8257e-05 8.11422e-06 2.02855e-06 0 0 8.05002e-05 0.000322001 0.000724502 0.001288 0.00201251 0.00289801 0.00394451 0.00515202 0.00653932 0.00812522 0.00990972 0.0118928 0.0140745 0.0164548 0.0190337 0.0218112 0.0247133 0.027666 0.0306692 0.0337231 0.0368275 0.0399826 0.0431882 0.0464444 0.0496798 0.0528232 0.0558745 0.0588337 0.0617007 0.0644757 0.0671586 0.0697495 0.0722108 0.0745053 0.076633 0.0785938 0.0803878 0.0820149 0.0834752 0.0847687 0.0858902 0.0868346 0.0876018 0.088192 0.0886051 0.088841 0.0888999 0.0887816 0.0885044 0.0880864 0.0875276 0.086828 0.0859876 0.0850064 0.0838844 0.0826216 0.0812477 0.0797924 0.0782556 0.0766373 0.0749376 0.0731565 0.0712939 0.0693498 0.0673545 0.0653382 0.0633007 0.0612422 0.0591627 0.057062 0.0549404 0.0527976 0.0506569 0.0485415 0.0464512 0.0443861 0.0423463 0.0403316 0.0383422 0.036378 0.0344519 0.0325771 0.0307535 0.028981 0.0272597 0.0255897 0.0239708 0.0224031 0.0208904 0.0194365 0.0180413 0.0167048 0.0154272 0.0142083 0.0130481 0.0119468 0.010902 0.0099118 0.0089761 0.00809491 0.00726824 0.00649608 0.00577844 0.00511532 0.00450189 0.00393333 0.00340963 0.00293081 0.00249685 0.00210776 0.00176353 0.00146417 0.00120177 0.000968416 0.000764106 0.000588842 0.000442623 0.000325449 0.000237321 0.000178239 0.000136464 0.000100259 6.96245e-05 4.45597e-05 2.50648e-05 1.11399e-05 2.78498e-06 0 0 9.72195e-05 0.000388878 0.000874975 0.00155551 0.00243049 0.0034999 0.00476375 0.00622205 0.00789453 0.00980097 0.0119414 0.0143157 0.016924 0.0197662 0.0228424 0.0261525 0.0296089 0.033124 0.0366977 0.04033 0.0440209 0.0477705 0.0515787 0.0554456 0.0592871 0.0630194 0.0666425 0.0701563 0.0735609 0.0768563 0.0800424 0.0831193 0.0860428 0.0887686 0.0912968 0.0936273 0.0957601 0.0976953 0.0994328 0.100973 0.102309 0.103435 0.10435 0.105056 0.105552 0.105838 0.105913 0.105779 0.105456 0.104965 0.104308 0.103482 0.10249 0.10133 0.100003 0.0985089 0.0968824 0.0951586 0.0933377 0.0914196 0.0894044 0.087292 0.0850824 0.0827757 0.0804076 0.078014 0.0755947 0.0731499 0.0706795 0.0681835 0.0656619 0.0631148 0.0605696 0.0580538 0.0555675 0.0531107 0.0506833 0.0482853 0.0459168 0.0435778 0.0412837 0.0390501 0.0368771 0.0347645 0.0327125 0.030721 0.02879 0.0269195 0.0251141 0.0233784 0.0217125 0.0201162 0.0185897 0.0171328 0.0157457 0.0144282 0.0131781 0.0119926 0.010872 0.00981606 0.00882494 0.00789857 0.00703698 0.00624015 0.00550236 0.00481786 0.00418667 0.00360877 0.00308418 0.00261288 0.00219489 0.00183019 0.00150954 0.00122368 0.000972599 0.000756307 0.000574802 0.000428084 0.000316152 0.000239007 0.00018299 0.000134441 9.33621e-05 5.97517e-05 3.36104e-05 1.49379e-05 3.73448e-06 0 0 0.000115765 0.000463062 0.00104189 0.00185225 0.00289414 0.00416756 0.00567251 0.00740899 0.00939711 0.011657 0.0141886 0.0169919 0.020067 0.0234138 0.0270324 0.0309227 0.0349824 0.039109 0.0433026 0.0475631 0.0518906 0.0562851 0.0607465 0.0652749 0.0697729 0.0741431 0.0783855 0.0825002 0.0864871 0.0903462 0.0940776 0.0976812 0.101105 0.104299 0.107261 0.109993 0.112493 0.114763 0.116802 0.11861 0.120179 0.121503 0.122581 0.123413 0.124 0.124341 0.124436 0.124286 0.123915 0.123348 0.122584 0.121625 0.120469 0.119117 0.11757 0.115826 0.113927 0.111913 0.109786 0.107544 0.105188 0.102717 0.100132 0.0974332 0.0946616 0.0918594 0.0890265 0.0861631 0.083269 0.0803444 0.077389 0.0744031 0.0714188 0.0684685 0.065552 0.0626695 0.0598209 0.0570062 0.0542254 0.0514785 0.0487839 0.0461598 0.0436062 0.0411232 0.0387107 0.0363688 0.0340973 0.0318965 0.0297716 0.0277283 0.0257666 0.0238863 0.0220877 0.0203705 0.018735 0.0171809 0.0157056 0.0143061 0.0129826 0.0117349 0.0105631 0.00946714 0.00844708 0.00750291 0.00662789 0.00581531 0.00506518 0.00437748 0.00375223 0.00318942 0.00268904 0.00225111 0.00186494 0.00151986 0.00121586 0.000952943 0.000731113 0.000550368 0.000410708 0.000312132 0.000238976 0.000175574 0.000121927 7.8033e-05 4.38936e-05 1.95083e-05 4.87706e-06 0 0 0.000136138 0.000544553 0.00122524 0.00217821 0.00340345 0.00490097 0.00667077 0.00871284 0.011047 0.0136932 0.0166514 0.0199215 0.0235036 0.0273977 0.0316038 0.0361218 0.0408337 0.0456211 0.050484 0.0554226 0.0604367 0.0655264 0.0706916 0.0759324 0.0811372 0.0861943 0.0911036 0.0958653 0.100479 0.104946 0.109264 0.113435 0.117399 0.121096 0.124526 0.12769 0.130587 0.133218 0.135582 0.137679 0.139501 0.141039 0.142293 0.143263 0.143949 0.144351 0.144469 0.144303 0.143882 0.143233 0.142357 0.141254 0.139924 0.138367 0.136583 0.134572 0.132381 0.130057 0.1276 0.12501 0.122287 0.119432 0.116443 0.113322 0.110116 0.106874 0.103596 0.100282 0.0969313 0.0935446 0.0901217 0.0866626 0.0832047 0.0797854 0.0764047 0.0730626 0.0697591 0.0664943 0.063268 0.0600804 0.0569527 0.0539062 0.050941 0.0480571 0.0452544 0.042533 0.0398929 0.037334 0.0348629 0.0324861 0.0302035 0.0280152 0.0259212 0.0239214 0.022016 0.0202048 0.0184846 0.0168524 0.0153079 0.0138514 0.0124826 0.0112018 0.0100088 0.00890359 0.00787849 0.00692569 0.00604517 0.00523694 0.00450101 0.00383736 0.003246 0.00272693 0.00226797 0.00185696 0.00149388 0.00117875 0.000911556 0.000692302 0.000520988 0.000397614 0.000304423 0.000223658 0.000155318 9.94035e-05 5.59145e-05 2.48509e-05 6.21272e-06 0 0 0.000158338 0.00063335 0.00142504 0.0025334 0.00395844 0.00570015 0.00775854 0.0101336 0.0128443 0.0159097 0.0193298 0.0231045 0.0272338 0.0317178 0.0365565 0.0417498 0.0471627 0.0526601 0.0582419 0.0639082 0.069659 0.0754943 0.081414 0.0874182 0.0933801 0.099173 0.104797 0.110252 0.115538 0.120654 0.125602 0.130381 0.134923 0.13916 0.143092 0.14672 0.150042 0.15306 0.155774 0.158182 0.160276 0.162044 0.163488 0.164606 0.1654 0.165868 0.166012 0.165831 0.165356 0.164622 0.163627 0.162372 0.160856 0.159081 0.157044 0.154748 0.152245 0.149589 0.14678 0.143818 0.140704 0.137436 0.134016 0.130443 0.126772 0.123059 0.119304 0.115506 0.111666 0.107784 0.10386 0.0998932 0.0959271 0.0920045 0.0881255 0.08429 0.080498 0.0767495 0.0730446 0.0693832 0.0657899 0.0622893 0.0588814 0.0555662 0.0523436 0.0492138 0.0461766 0.0432321 0.0403879 0.0376517 0.0350233 0.0325028 0.0300902 0.0277855 0.0255887 0.0234998 0.0215152 0.0196313 0.017848 0.0161655 0.0145836 0.0131025 0.011722 0.0104422 0.00925416 0.00814898 0.00712664 0.00618715 0.00533051 0.00455671 0.00386575 0.00325765 0.00271864 0.00223498 0.00180668 0.00143373 0.00111613 0.000853885 0.000646993 0.000495453 0.000379331 0.000278692 0.000193536 0.000123863 6.96731e-05 3.09658e-05 7.74146e-06 0 0 0.000182364 0.000729455 0.00164127 0.00291782 0.00455909 0.00656509 0.00893582 0.0116713 0.014789 0.0183065 0.0222237 0.0265408 0.0312576 0.0363742 0.0418906 0.0478067 0.0539696 0.0602262 0.0665763 0.0730202 0.0795577 0.0861888 0.0929136 0.0997321 0.106501 0.113079 0.119465 0.125659 0.131662 0.137472 0.143091 0.148519 0.153677 0.158491 0.162959 0.167081 0.170858 0.17429 0.177377 0.180118 0.182502 0.184517 0.186164 0.187442 0.188352 0.188892 0.189064 0.188868 0.188339 0.187514 0.186393 0.184977 0.183265 0.181257 0.178953 0.176353 0.173518 0.170509 0.167326 0.163968 0.160436 0.15673 0.15285 0.148795 0.144629 0.140413 0.136149 0.131836 0.127474 0.123063 0.118604 0.114095 0.109586 0.105126 0.100714 0.0963516 0.0920375 0.087772 0.0835552 0.0793871 0.0752957 0.0713091 0.0674273 0.0636504 0.0599783 0.056411 0.0529485 0.0495908 0.0463468 0.0432252 0.0402259 0.0373491 0.0345947 0.0319627 0.0294532 0.027066 0.0247973 0.0226429 0.0206029 0.0186773 0.0168661 0.0151692 0.0135868 0.0121187 0.0107549 0.00948519 0.00830959 0.00722811 0.00624073 0.00534746 0.00454831 0.00384326 0.00321693 0.00265392 0.00215424 0.00171788 0.00134484 0.00103512 0.000788723 0.000605649 0.0004637 0.000340678 0.000236582 0.000151412 8.51694e-05 3.78531e-05 9.46327e-06 0 0 0.000207735 0.00083094 0.00186962 0.00332376 0.00519338 0.00747846 0.010179 0.013295 0.0168421 0.0208357 0.0252759 0.0301627 0.0354961 0.041276 0.0475026 0.0541757 0.0611235 0.0681742 0.0753277 0.0825841 0.0899434 0.0974056 0.104971 0.112638 0.12025 0.127646 0.134827 0.141792 0.148542 0.155076 0.161394 0.167498 0.173299 0.178713 0.18374 0.188379 0.19263 0.196494 0.19997 0.203059 0.205746 0.20802 0.20988 0.211325 0.212356 0.212973 0.213177 0.212966 0.212381 0.211464 0.210214 0.208631 0.206715 0.204466 0.201885 0.19897 0.195791 0.192416 0.188843 0.185074 0.181108 0.176946 0.172586 0.16803 0.163348 0.15861 0.153816 0.148966 0.14406 0.139098 0.134079 0.129005 0.12393 0.118909 0.113942 0.109029 0.104169 0.0993634 0.0946117 0.0899139 0.0853017 0.0808068 0.0764294 0.0721693 0.0680266 0.0640013 0.0600933 0.0563027 0.0526396 0.049114 0.0457259 0.0424753 0.0393622 0.0363867 0.0335486 0.0308481 0.0282806 0.0258418 0.0235316 0.0213501 0.0192973 0.0173731 0.0155776 0.0139107 0.0123611 0.0109173 0.00957939 0.00834735 0.00722116 0.00620083 0.00528635 0.00447774 0.00375791 0.00310982 0.00253345 0.0020288 0.00159589 0.0012347 0.000945232 0.000727495 0.000556989 0.000409216 0.000284178 0.000181874 0.000102304 4.54685e-05 1.13671e-05 0 0 0.00023397 0.000935881 0.00210573 0.00374352 0.00584926 0.00842293 0.0114645 0.0149741 0.0189648 0.0234497 0.028429 0.0339025 0.0398704 0.0463325 0.0532889 0.0607397 0.0684935 0.0763591 0.0843366 0.0924259 0.100627 0.10894 0.117365 0.125902 0.134374 0.142607 0.1506 0.158353 0.165867 0.17314 0.180173 0.186967 0.193425 0.199453 0.20505 0.210217 0.214953 0.219258 0.223133 0.226577 0.229575 0.232114 0.234191 0.235809 0.236966 0.237663 0.237899 0.237675 0.237035 0.236025 0.234645 0.232893 0.230771 0.228279 0.225416 0.222182 0.218654 0.214905 0.210937 0.20675 0.202342 0.197715 0.192868 0.187801 0.182593 0.177322 0.171987 0.166589 0.161127 0.155602 0.150014 0.144363 0.138709 0.133114 0.127578 0.122102 0.116684 0.111326 0.106026 0.100786 0.0956396 0.0906237 0.085738 0.0809823 0.0763567 0.0718612 0.0674958 0.0632605 0.0591667 0.0552257 0.0514377 0.0478025 0.0443202 0.0409907 0.0378142 0.0347905 0.0319149 0.0291825 0.0265933 0.0241474 0.0218446 0.019685 0.0176687 0.0157956 0.014053 0.0124283 0.0109214 0.00953241 0.00826127 0.007108 0.00607259 0.00515504 0.00433664 0.00359869 0.00294118 0.00236412 0.00186749 0.00145131 0.00111558 0.000860285 0.000658656 0.00048391 0.000336049 0.000215071 0.000120978 5.37678e-05 1.3442e-05 0 0 0.000261069 0.00104428 0.00234962 0.00417711 0.00652673 0.00939849 0.0127924 0.0167084 0.021157 0.0261485 0.0316829 0.0377602 0.0443805 0.0515437 0.0592498 0.0674988 0.0760796 0.0847809 0.0936029 0.102545 0.111609 0.120792 0.130097 0.139522 0.148874 0.157962 0.166785 0.175343 0.183637 0.191665 0.199428 0.206927 0.214056 0.22071 0.22689 0.232595 0.237826 0.242583 0.246865 0.250672 0.253989 0.256798 0.2591 0.260894 0.262181 0.26296 0.263231 0.262996 0.262302 0.261198 0.259686 0.257765 0.255435 0.252695 0.249547 0.245989 0.242106 0.237979 0.233608 0.228995 0.224138 0.219038 0.213694 0.208108 0.202364 0.196549 0.190663 0.184706 0.178678 0.172578 0.166408 0.160166 0.153921 0.147741 0.141624 0.135571 0.129583 0.123658 0.117798 0.112002 0.106309 0.10076 0.0953532 0.0900895 0.0849687 0.0799909 0.075156 0.0704641 0.065928 0.0615603 0.0573612 0.0533306 0.0494685 0.045775 0.04225 0.0388935 0.0357003 0.0326651 0.029788 0.027069 0.024508 0.0221051 0.0198602 0.0177734 0.0158307 0.0140181 0.0123356 0.0107833 0.00936108 0.00806899 0.00690702 0.00587517 0.00495312 0.00412055 0.00337745 0.00272382 0.00215966 0.00168497 0.00129976 0.00100402 0.000768702 0.00056476 0.000392195 0.000251005 0.00014119 6.27512e-05 1.56878e-05 0 0 0.000289032 0.00115613 0.00260129 0.00462451 0.0072258 0.0104052 0.0141626 0.0184981 0.0234188 0.028932 0.0350377 0.0417358 0.0490264 0.0569095 0.065385 0.074453 0.0838818 0.0934397 0.103127 0.112943 0.122888 0.132962 0.143166 0.153498 0.16375 0.173712 0.183382 0.192762 0.201852 0.210651 0.219159 0.227377 0.23519 0.242484 0.249258 0.255514 0.26125 0.266468 0.271166 0.275345 0.278987 0.282073 0.284604 0.28658 0.288 0.288865 0.289174 0.288928 0.28818 0.286984 0.285339 0.283246 0.280705 0.277715 0.274277 0.270391 0.266147 0.261635 0.256856 0.25181 0.246496 0.240914 0.235066 0.228949 0.22266 0.216291 0.209843 0.203316 0.19671 0.190025 0.18326 0.176417 0.169568 0.162789 0.156078 0.149437 0.142865 0.136362 0.129928 0.123563 0.117311 0.111215 0.105275 0.0994907 0.0938625 0.0883902 0.0830739 0.0779136 0.0729235 0.0681178 0.0634965 0.0590597 0.0548074 0.0507394 0.0468559 0.0431569 0.0396366 0.0362896 0.0331157 0.030115 0.0272875 0.0246332 0.0221521 0.0198442 0.0176942 0.0156868 0.0138221 0.0121 0.0105206 0.00908378 0.00778963 0.00663813 0.00560735 0.00467539 0.00384224 0.0031079 0.00247238 0.00193567 0.00149778 0.0011587 0.000887126 0.000651766 0.000452615 0.000289674 0.000162942 7.24185e-05 1.81046e-05 0 0 0.000317859 0.00127143 0.00286073 0.00508574 0.00794647 0.0114429 0.0155751 0.020343 0.0257502 0.0318003 0.0384933 0.0458293 0.0538082 0.06243 0.0716947 0.0816023 0.0919001 0.102335 0.112908 0.123618 0.134465 0.14545 0.156572 0.167832 0.179002 0.189855 0.200391 0.21061 0.220512 0.230098 0.239366 0.248317 0.256828 0.264774 0.272156 0.278973 0.285225 0.290913 0.296036 0.300595 0.304569 0.307939 0.310705 0.312867 0.314424 0.315378 0.315727 0.315472 0.31467 0.31338 0.311602 0.309336 0.306581 0.303338 0.299607 0.295387 0.290777 0.285875 0.280681 0.275194 0.269416 0.263345 0.256982 0.250326 0.243481 0.236549 0.229528 0.22242 0.215225 0.207942 0.200572 0.193114 0.185649 0.178258 0.170941 0.163699 0.15653 0.149436 0.142416 0.13547 0.128645 0.12199 0.115503 0.109186 0.103038 0.0970592 0.0912495 0.0856089 0.0801532 0.0748981 0.0698436 0.0649898 0.0603366 0.055884 0.0516321 0.0475807 0.043724 0.0400559 0.0365764 0.0332855 0.0301832 0.0272695 0.0245444 0.0220079 0.0196434 0.0174344 0.0153808 0.0134825 0.0117398 0.0101524 0.00872044 0.00744391 0.00629932 0.00526321 0.00433555 0.00351637 0.00280566 0.00220341 0.00170963 0.00132432 0.00101393 0.000744928 0.000517311 0.000331079 0.000186232 8.27697e-05 2.06924e-05 0 0 0.000347549 0.0013902 0.00312794 0.00556079 0.00868873 0.0125118 0.0170299 0.0222431 0.0281511 0.0347533 0.0420498 0.0500406 0.0587257 0.0681051 0.0781788 0.0889468 0.100135 0.111468 0.122947 0.134571 0.146341 0.158256 0.170316 0.182523 0.194629 0.206392 0.217811 0.228887 0.239618 0.250005 0.260049 0.269748 0.278971 0.287582 0.295583 0.302972 0.309751 0.315919 0.321476 0.326422 0.330736 0.334396 0.337403 0.339755 0.341454 0.342499 0.34289 0.342627 0.341772 0.340389 0.338477 0.336035 0.333065 0.329565 0.325536 0.320978 0.315997 0.310698 0.305082 0.299149 0.292897 0.286329 0.279442 0.272239 0.264828 0.257321 0.249718 0.242018 0.234222 0.22633 0.218342 0.210257 0.202164 0.194149 0.186214 0.178357 0.17058 0.162881 0.155261 0.147721 0.140311 0.133083 0.126038 0.119176 0.112496 0.105998 0.0996828 0.0935501 0.0876171 0.0819013 0.0764025 0.0711209 0.0660563 0.0612088 0.0565784 0.052165 0.0479624 0.0439641 0.04017 0.0365803 0.0331949 0.0300138 0.027037 0.0242646 0.0216785 0.0192608 0.0170116 0.0149309 0.0130186 0.0112748 0.00969943 0.00829252 0.00702904 0.00588401 0.0048574 0.00394923 0.00315949 0.00248819 0.00193532 0.00150088 0.00114911 0.000844245 0.000586281 0.00037522 0.000211061 9.3805e-05 2.34512e-05 0 0 0.000378103 0.00151241 0.00340293 0.00604965 0.00945259 0.0136117 0.0185271 0.0241986 0.0306216 0.0377911 0.0457072 0.0543699 0.0637791 0.0739349 0.0848373 0.0964863 0.108585 0.120837 0.133243 0.145802 0.158514 0.171379 0.184398 0.19757 0.210633 0.223324 0.235644 0.247592 0.259169 0.270374 0.281208 0.29167 0.301617 0.310907 0.319538 0.327512 0.334828 0.341485 0.347485 0.352827 0.357488 0.361444 0.364697 0.367244 0.369088 0.370227 0.370663 0.370393 0.369487 0.36801 0.365962 0.363343 0.360154 0.356395 0.352065 0.347164 0.341806 0.336105 0.330061 0.323673 0.316941 0.309866 0.302448 0.294686 0.2867 0.278609 0.270412 0.26211 