<?xml version="1.0"?> 
<VTKFile type="StructuredGrid" version="0.1"> 
<StructuredGrid WholeExtent="0 128 0 128 0 0"> 
<Piece Extent="0 128 0 128 0 0"> 
<PointData>
<DataArray type="Float32" Name="u" format="ascii" NumberOfComponents="1"> 
0 0 0 0 0 0 0 0 0 0 0 0 0 0 0 0 0 0 0 0 0 0 0 0 0 0 0 0 0 0 0 0 0 0 0 0 0 0 0 0 0 0 0 0 0 0 0 0 0 0 0 0 0 0 0 0 0 0 0 0 0 0 0 0 0 0 0 0 0 0 0 0 0 0 0 0 0 0 0 0 0 0 0 0 0 0 0 0 0 0 0 0 0 0 0 0 0 0 0 0 0 0 0 0 0 0 0 0 0 0 0 0 0 0 0 0 0 0 0 0 0 0 0 0 0 0 0 0 0 0 6.44592e-07 2.57837e-06 5.80133e-06 1.03135e-05 1.61148e-05 2.32053e-05 3.1585e-05 4.12539e-05 5.24039e-05 6.5227e-05 7.97232e-05 9.58925e-05 0.000113735 0.00013325 0.000154439 0.0001773 0.000201218 0.000225576 0.000250374 0.000275611 0.000301288 0.000327405 0.000353961 0.000380957 0.000407791 0.000433859 0.000459162 0.0004837 0.000507473 0.000530481 0.000552723 0.000574201 0.0005946 0.00061361 0.000631231 0.000647462 0.000662303 0.000675754 0.000687816 0.000698488 0.000707729 0.000715498 0.000721796 0.000726621 0.000729975 0.000731857 0.000732267 0.000731205 0.000728824 0.000725278 0.000720566 0.000714689 0.000707646 0.000699437 0.000690063 0.000679523 0.000668066 0.000655939 0.000643144 0.000629679 0.000615544 0.000600741 0.000585268 0.000569126 0.000552566 0.00053584 0.000518946 0.000501886 0.000484658 0.000467264 0.000449703 0.000431975 0.000414272 0.000396784 0.000379512 0.000362455 0.000345614 0.000328989 0.000312579 0.000296384 0.000280512 0.000265068 0.000250052 0.000235464 0.000221304 0.000207573 0.000194269 0.000181394 0.000168977 0.000157048 0.000145607 0.000134654 0.00012419 0.000114213 0.000104724 9.57241e-05 8.71935e-05 7.91146e-05 7.14872e-05 6.43114e-05 5.75872e-05 5.13145e-05 4.54934e-05 4.01239e-05 3.51661e-05 3.05802e-05 2.6366e-05 2.25236e-05 1.9053e-05 1.59543e-05 1.32273e-05 1.08721e-05 8.82133e-06 7.00736e-06 5.43026e-06 4.09001e-06 2.98662e-06 2.12008e-06 1.4904e-06 1.09758e-06 8.40334e-07 6.17389e-07 4.28742e-07 2.74395e-07 1.54347e-07 6.85987e-08 1.71497e-08 0 0 2.57837e-06 1.03135e-05 2.32053e-05 4.12539e-05 6.44592e-05 9.28213e-05 0.00012634 0.000165016 0.000209616 0.000260908 0.000318893 0.00038357 0.000454939 0.000533001 0.000617755 0.000709201 0.000804873 0.000902304 0.00100149 0.00110244 0.00120515 0.00130962 0.00141584 0.00152383 0.00163116 0.00173544 0.00183665 0.0019348 0.00202989 0.00212192 0.00221089 0.0022968 0.0023784 0.00245444 0.00252492 0.00258985 0.00264921 0.00270302 0.00275126 0.00279395 0.00283091 0.00286199 0.00288718 0.00290648 0.0029199 0.00292743 0.00292907 0.00292482 0.0029153 0.00290111 0.00288227 0.00285876 0.00283058 0.00279775 0.00276025 0.00271809 0.00267226 0.00262376 0.00257257 0.00251871 0.00246218 0.00240296 0.00234107 0.00227651 0.00221027 0.00214336 0.00207578 0.00200754 0.00193863 0.00186906 0.00179881 0.0017279 0.00165709 0.00158714 0.00151805 0.00144982 0.00138246 0.00131595 0.00125031 0.00118554 0.00112205 0.00106027 0.00100021 0.000941855 0.000885216 0.00083029 0.000777077 0.000725576 0.000675907 0.000628191 0.000582428 0.000538617 0.000496758 0.000456852 0.000418898 0.000382896 0.000348774 0.000316458 0.000285949 0.000257246 0.000230349 0.000205258 0.000181974 0.000160496 0.000140665 0.000122321 0.000105464 9.00943e-05 7.62121e-05 6.3817e-05 5.29092e-05 4.34886e-05 3.52853e-05 2.80295e-05 2.1721e-05 1.636e-05 1.19465e-05 8.48033e-06 5.96161e-06 4.39032e-06 3.36134e-06 2.46955e-06 1.71497e-06 1.09758e-06 6.17389e-07 2.74395e-07 6.85987e-08 0 0 5.80133e-06 2.32053e-05 5.2212e-05 9.28213e-05 0.000145033 0.000208848 0.000284265 0.000371285 0.000471635 0.000587043 0.000717509 0.000863032 0.00102361 0.00119925 0.00138995 0.0015957 0.00181096 0.00203018 0.00225336 0.0024805 0.00271159 0.00294664 0.00318565 0.00342862 0.00367012 0.00390473 0.00413246 0.0043533 0.00456726 0.00477433 0.00497451 0.0051678 0.0053514 0.00552249 0.00568108 0.00582715 0.00596072 0.00608179 0.00619034 0.00628639 0.00636956 0.00643948 0.00649616 0.00653959 0.00656977 0.00658671 0.0065904 0.00658085 0.00655942 0.0065275 0.0064851 0.0064322 0.00636881 0.00629494 0.00621057 0.00611571 0.00601259 0.00590345 0.00578829 0.00566711 0.0055399 0.00540667 0.00526741 0.00512214 0.0049731 0.00482256 0.00467052 0.00451697 0.00436193 0.00420538 0.00404733 0.00388778 0.00372845 0.00357106 0.00341561 0.0032621 0.00311053 0.0029609 0.00281321 0.00266746 0.00252461 0.00238561 0.00225047 0.00211917 0.00199174 0.00186815 0.00174842 0.00163255 0.00152079 0.00141343 0.00131046 0.00121189 0.00111771 0.00102792 0.00094252 0.000861517 0.000784742 0.000712031 0.000643385 0.000578803 0.000518284 0.000461831 0.000409441 0.000361116 0.000316495 0.000275221 0.000237294 0.000202712 0.000171477 0.000143588 0.000119046 9.78493e-05 7.93919e-05 6.30663e-05 4.88723e-05 3.68101e-05 2.68796e-05 1.90807e-05 1.34136e-05 9.87822e-06 7.56301e-06 5.5565e-06 3.85868e-06 2.46955e-06 1.38912e-06 6.17389e-07 1.54347e-07 0 0 1.03135e-05 4.12539e-05 9.28213e-05 0.000165016 0.000257837 0.000371285 0.00050536 0.000660063 0.000838463 0.00104363 0.00127557 0.00153428 0.00181976 0.002132 0.00247102 0.0028368 0.00321949 0.00360922 0.00400598 0.00440977 0.00482061 0.00523847 0.00566338 0.00609532 0.00652465 0.00694175 0.0073466 0.00773921 0.00811957 0.00848769 0.00884357 0.00918721 0.00951361 0.00981777 0.0100997 0.0103594 0.0105968 0.0108121 0.011005 0.0111758 0.0113237 0.011448 0.0115487 0.0116259 0.0116796 0.0117097 0.0117163 0.0116993 0.0116612 0.0116045 0.0115291 0.011435 0.0113223 0.011191 0.011041 0.0108724 0.0106891 0.010495 0.0102903 0.0100749 0.00984871 0.00961185 0.00936429 0.00910602 0.00884106 0.00857344 0.00830314 0.00803017 0.00775453 0.00747623 0.00719525 0.00691161 0.00662835 0.00634854 0.00607219 0.00579928 0.00552982 0.00526382 0.00500126 0.00474215 0.00448819 0.00424108 0.00400083 0.00376742 0.00354086 0.00332116 0.00310831 0.0029023 0.00270363 0.00251277 0.00232971 0.00215447 0.00198703 0.00182741 0.00167559 0.00153159 0.0013951 0.00126583 0.0011438 0.00102898 0.000921395 0.000821032 0.000727895 0.000641983 0.000562658 0.000489282 0.000421855 0.000360377 0.000304848 0.000255268 0.000211637 0.000173954 0.000141141 0.000112118 8.68841e-05 6.54402e-05 4.77859e-05 3.39213e-05 2.38464e-05 1.75613e-05 1.34454e-05 9.87822e-06 6.85987e-06 4.39032e-06 2.46955e-06 1.09758e-06 2.74395e-07 0 0 1.61148e-05 6.44592e-05 0.000145033 0.000257837 0.00040287 0.000580133 0.000789626 0.00103135 0.0013101 0.00163068 0.00199308 0.00239731 0.00284337 0.00333126 0.00386097 0.00443251 0.00503046 0.0056394 0.00625934 0.00689027 0.0075322 0.00818511 0.00884903 0.00952393 0.0101948 0.0108465 0.0114791 0.0120925 0.0126868 0.013262 0.0138181 0.014355 0.014865 0.0153403 0.0157808 0.0161865 0.0165576 0.0168938 0.0171954 0.0174622 0.0176932 0.0178875 0.0180449 0.0181655 0.0182494 0.0182964 0.0183067 0.0182801 0.0182206 0.018132 0.0180142 0.0178672 0.0176912 0.0174859 0.0172516 0.0169881 0.0167016 0.0163985 0.0160786 0.015742 0.0153886 0.0150185 0.0146317 0.0142282 0.0138142 0.013396 0.0129737 0.0125471 0.0121165 0.0116816 0.0112426 0.0107994 0.0103568 0.0099196 0.00948779 0.00906138 0.00864035 0.00822471 0.00781447 0.00740961 0.0070128 0.00662669 0.00625129 0.00588659 0.0055326 0.00518931 0.00485673 0.00453485 0.00422442 0.0039262 0.00364017 0.00336635 0.00310474 0.00285532 0.00261811 0.0023931 0.00217984 0.00197786 0.00178718 0.00160778 0.00143968 0.00128286 0.00113734 0.0010031 0.000879154 0.000764504 0.000659149 0.00056309 0.000476325 0.000398856 0.000330682 0.000271804 0.000220533 0.000175184 0.000135756 0.00010225 7.46655e-05 5.30021e-05 3.72601e-05 2.74395e-05 2.10084e-05 1.54347e-05 1.07186e-05 6.85987e-06 3.85868e-06 1.71497e-06 4.28742e-07 0 0 2.32053e-05 9.28213e-05 0.000208848 0.000371285 0.000580133 0.000835392 0.00113706 0.00148514 0.00188654 0.00234817 0.00287004 0.00345213 0.00409445 0.00479701 0.00555979 0.00638281 0.00724386 0.00812074 0.00901345 0.00992199 0.0108464 0.0117866 0.0127426 0.0137145 0.0146805 0.0156189 0.0165298 0.0174132 0.018269 0.0190973 0.019898 0.0206712 0.0214056 0.02209 0.0227243 0.0233086 0.0238429 0.0243271 0.0247614 0.0251456 0.0254782 0.0257579 0.0259846 0.0261584 0.0262791 0.0263468 0.0263616 0.0263234 0.0262377 0.02611 0.0259404 0.0257288 0.0254753 0.0251797 0.0248423 0.0244628 0.0240504 0.0236138 0.0231532 0.0226684 0.0221596 0.0216267 0.0210697 0.0204885 0.0198924 0.0192902 0.0186821 0.0180679 0.0174477 0.0168215 0.0161893 0.0155511 0.0149138 0.0142842 0.0136624 0.0130484 0.0124421 0.0118436 0.0112528 0.0106698 0.0100984 0.00954244 0.00900186 0.0084767 0.00796695 0.00747261 0.00699369 0.00653018 0.00608317 0.00565372 0.00524185 0.00484755 0.00447082 0.00411167 0.00377008 0.00344607 0.00313897 0.00284812 0.00257354 0.00231521 0.00207314 0.00184732 0.00163776 0.00144446 0.00126598 0.00110089 0.000949175 0.000810849 0.000685909 0.000574353 0.000476183 0.000391397 0.000317568 0.000252265 0.000195489 0.00014724 0.000107518 7.6323e-05 5.36545e-05 3.95129e-05 3.0252e-05 2.2226e-05 1.54347e-05 9.87822e-06 5.5565e-06 2.46955e-06 6.17389e-07 0 0 3.1585e-05 0.00012634 0.000284265 0.00050536 0.000789626 0.00113706 0.00154767 0.00202144 0.00256779 0.00319612 0.00390644 0.00469873 0.00557301 0.00652926 0.0075675 0.00868771 0.0098597 0.0110532 0.0122683 0.0135049 0.0147631 0.0160428 0.0173441 0.0186669 0.0199818 0.0212591 0.022499 0.0237013 0.0248662 0.0259936 0.0270834 0.0281358 0.0291354 0.0300669 0.0309303 0.0317256 0.0324528 0.0331119 0.033703 0.0342259 0.0346787 0.0350594 0.035368 0.0356044 0.0357688 0.035861 0.0358811 0.035829 0.0357124 0.0355386 0.0353078 0.0350198 0.0346747 0.0342724 0.0338131 0.0332966 0.0327352 0.032141 0.031514 0.0308542 0.0301617 0.0294363 0.0286781 0.0278872 0.0270758 0.0262561 0.0254284 0.0245924 0.0237483 0.0228959 0.0220355 0.0211668 0.0202993 0.0194424 0.0185961 0.0177603 0.0169351 0.0161204 0.0153164 0.0145228 0.0137451 0.0129883 0.0122525 0.0115377 0.0108439 0.0101711 0.00951919 0.0088883 0.00827986 0.00769534 0.00713474 0.00659806 0.00608529 0.00559643 0.0051315 0.00469048 0.00427248 0.00387661 0.00350287 0.00315126 0.00282177 0.00251441 0.00222918 0.00196607 0.00172314 0.00149843 0.00129193 0.00110366 0.000933598 0.000781758 0.000648137 0.000532735 0.000432245 0.000343361 0.000266083 0.000200411 0.000146344 0.000103884 7.30297e-05 5.37814e-05 4.11764e-05 3.0252e-05 2.10084e-05 1.34454e-05 7.56301e-06 3.36134e-06 8.40334e-07 0 0 4.12539e-05 0.000165016 0.000371285 0.000660063 0.00103135 0.00148514 0.00202144 0.00264025 0.00335385 0.00417453 0.00510228 0.00613712 0.00727903 0.00852801 0.00988408 0.0113472 0.012878 0.0144369 0.0160239 0.0176391 0.0192824 0.0209539 0.0226535 0.0243813 0.0260986 0.027767 0.0293864 0.0309568 0.0324783 0.0339508 0.0353743 0.0367488 0.0380544 0.0392711 0.0403988 0.0414375 0.0423874 0.0432483 0.0440202 0.0447032 0.0452946 0.0457919 0.0461949 0.0465038 0.0467184 0.0468388 0.0468651 0.0467971 0.0466448 0.0464178 0.0461163 0.0457401 0.0452893 0.044764 0.044164 0.0434895 0.0427562 0.0419801 0.0411612 0.0402994 0.0393948 0.0384474 0.0374572 0.0364241 0.0353643 0.0342937 0.0332126 0.0321207 0.0310181 0.0299049 0.028781 0.0276464 0.0265134 0.0253942 0.0242888 0.0231971 0.0221193 0.0210553 0.020005 0.0189686 0.0179528 0.0169643 0.0160033 0.0150697 0.0141635 0.0132846 0.0124332 0.0116092 0.0108145 0.0100511 0.00931885 0.00861787 0.00794813 0.00730963 0.00670237 0.00612634 0.00558039 0.00506333 0.00457518 0.00411593 0.00368558 0.00328413 0.00291158 0.00256793 0.00225063 0.00195713 0.00168742 0.00144151 0.00121939 0.00102107 0.000846547 0.000695817 0.000564565 0.000448471 0.000347537 0.000261761 0.000191144 0.000135685 9.53858e-05 7.02451e-05 5.37814e-05 3.95129e-05 2.74395e-05 1.75613e-05 9.87822e-06 4.39032e-06 1.09758e-06 0 0 5.24796e-05 0.000209919 0.000472317 0.000839674 0.00131199 0.00188927 0.0025715 0.0033587 0.0042659 0.00530818 0.00648552 0.00779793 0.0092454 0.0108279 0.0125455 0.0143982 0.0163361 0.0183093 0.0203178 0.0223616 0.0244408 0.0265553 0.0287051 0.0308902 0.033062 0.0351719 0.03722 0.0392061 0.0411302 0.0429925 0.0447929 0.0465313 0.0481826 0.0497215 0.051148 0.0524622 0.0536639 0.0547532 0.0557301 0.0565947 0.0573434 0.0579731 0.0584838 0.0588753 0.0591477 0.0593011 0.0593354 0.0592505 0.059059 0.0587731 0.0583928 0.0579181 0.0573491 0.0566857 0.0559279 0.0550758 0.0541494 0.0531687 0.0521337 0.0510445 0.0499011 0.0487034 0.0474514 0.0461452 0.0448051 0.0434514 0.042084 0.0407031 0.0393085 0.0379003 0.0364785 0.0350431 0.0336096 0.0321934 0.0307946 0.0294131 0.028049 0.0267023 0.0253729 0.0240609 0.0227749 0.0215235 0.0203067 0.0191244 0.0179768 0.0168638 0.0157854 0.0147416 0.0137349 0.0127676 0.0118398 0.0109516 0.0101028 0.0092935 0.00852372 0.00779342 0.00710115 0.00644543 0.00582628 0.00524368 0.00469763 0.00418814 0.00371521 0.00327884 0.00287579 0.00250284 0.00215999 0.00184724 0.00156458 0.00131203 0.00108957 0.000897209 0.000729512 0.000581041 0.000451798 0.000341781 0.000250991 0.000179428 0.000127092 9.39831e-05 7.19558e-05 5.28655e-05 3.67122e-05 2.34958e-05 1.32164e-05 5.87395e-06 1.46849e-06 0 0 6.55299e-05 0.00026212 0.000589769 0.00104848 0.00163825 0.00235908 0.00321097 0.00419391 0.00532514 0.00662186 0.00808408 0.00971179 0.011505 0.0134637 0.0155879 0.0178776 0.0202714 0.0227081 0.0251875 0.0277097 0.0302746 0.0328824 0.035533 0.0382263 0.0409029 0.0435033 0.0460274 0.0484753 0.050847 0.0531424 0.0553615 0.0575044 0.0595401 0.0614374 0.0631965 0.0648172 0.0662997 0.0676439 0.0688498 0.0699174 0.0708425 0.071621 0.0722528 0.072738 0.0730765 0.0732684 0.0733136 0.0732122 0.0729793 0.07263 0.0721643 0.0715822 0.0708837 0.0700689 0.0691377 0.0680901 0.0669507 0.0657443 0.0644708 0.0631301 0.0617224 0.0602476 0.0587057 0.0570967 0.0554456 0.0537774 0.0520922 0.0503899 0.0486705 0.0469341 0.0451805 0.04341 0.0416414 0.039894 0.0381677 0.0364626 0.0347787 0.0331158 0.0314742 0.0298536 0.0282649 0.0267187 0.025215 0.0237539 0.0223352 0.020959 0.0196254 0.0183342 0.0170886 0.0158917 0.0147434 0.0136437 0.0125927 0.0115903 0.0106366 0.00973148 0.00887324 0.00806007 0.00729198 0.00656895 0.005891 0.00525813 0.00467032 0.00412759 0.00362595 0.00316141 0.00273399 0.00234367 0.00199046 0.00167436 0.00139536 0.00115348 0.000942071 0.000754516 0.000590814 0.000450963 0.000334963 0.000242815 0.000174519 0.000130075 9.95885e-05 7.3167e-05 5.08104e-05 3.25187e-05 1.82918e-05 8.12967e-06 2.03242e-06 0 0 8.04047e-05 0.000321619 0.000723642 0.00128647 0.00201012 0.00289457 0.00393983 0.0051459 0.00653156 0.00811558 0.00989796 0.0118787 0.0140578 0.0164353 0.0190112 0.0217854 0.024684 0.0276332 0.0306329 0.0336832 0.036784 0.0399353 0.0431372 0.0463896 0.0496213 0.0527611 0.0558088 0.0587646 0.0616284 0.0644003 0.0670802 0.0696681 0.0721267 0.0744187 0.0765441 0.0785028 0.0802949 0.0819204 0.0833792 0.0846714 0.0857919 0.0867355 0.0875021 0.0880919 0.0885048 0.0887408 0.0888 0.0886822 0.0884056 0.0879885 0.0874307 0.0867323 0.0858932 0.0849135 0.0837932 0.0825322 0.0811603 0.079707 0.0781723 0.0765562 0.0748588 0.07308 0.0712199 0.0692784 0.0672856 0.0652719 0.063237 0.0611811 0.0591042 0.0570062 0.0548871 0.052747 0.0506089 0.048496 0.0464082 0.0443456 0.0423081 0.0402958 0.0383087 0.0363467 0.0344228 0.0325501 0.0307285 0.0289579 0.0272385 0.0255702 0.0239531 0.022387 0.0208758 0.0194233 0.0180295 0.0166943 0.0154179 0.0142001 0.013041 0.0119405 0.0108967 0.00990725 0.00897228 0.00809176 0.00726569 0.00649407 0.0057769 0.00511418 0.0045011 0.00393284 0.00340941 0.0029308 0.00249702 0.00210806 0.00176393 0.00146462 0.00120224 0.000968896 0.000764584 0.000589305 0.000443059 0.000325846 0.000237666 0.00017852 0.000136679 0.000100417 6.97343e-05 4.463e-05 2.51044e-05 1.11575e-05 2.78937e-06 0 0 9.7104e-05 0.000388416 0.000873936 0.00155366 0.0024276 0.00349574 0.0047581 0.00621465 0.00788516 0.00978933 0.0119272 0.0142987 0.0169039 0.0197428 0.0228153 0.0261215 0.0295738 0.0330847 0.0366542 0.0402823 0.0439689 0.0477141 0.0515178 0.0553802 0.0592172 0.0629452 0.0665641 0.0700739 0.0734747 0.0767663 0.0799489 0.0830223 0.0859426 0.0886654 0.0911908 0.0935188 0.0956494 0.0975826 0.0993184 0.100857 0.102192 0.103317 0.104232 0.104937 0.105433 0.105718 0.105794 0.10566 0.105338 0.104849 0.104192 0.103368 0.102378 0.10122 0.0998945 0.0984023 0.096778 0.0950567 0.0932383 0.0913228 0.0893103 0.0872007 0.084994 0.0826903 0.0803253 0.0779347 0.0755185 0.0730768 0.0706095 0.0681166 0.0655981 0.0630541 0.060512 0.0579993 0.055516 0.053062 0.0506375 0.0482423 0.0458765 0.0435401 0.0412486 0.0390176 0.0368469 0.0347367 0.0326869 0.0306975 0.0287685 0.0269 0.0250964 0.0233625 0.0216981 0.0201034 0.0185783 0.0171228 0.0157369 0.0144206 0.0131714 0.011987 0.0108672 0.0098121 0.0088217 0.00789599 0.00703496 0.00623862 0.00550125 0.00481713 0.00418626 0.00360863 0.00308426 0.00261314 0.00219526 0.00183064 0.00151002 0.00122418 0.000973108 0.000756808 0.000575278 0.00042852 0.000316534 0.000239318 0.000183228 0.000134617 9.34838e-05 5.98296e-05 3.36542e-05 1.49574e-05 3.73935e-06 0 0 0.000115628 0.000462511 0.00104065 0.00185004 0.0028907 0.0041626 0.00566576 0.00740018 0.00938593 0.0116431 0.0141717 0.0169717 0.0200432 0.023386 0.0270003 0.030886 0.0349409 0.0390627 0.0432513 0.0475068 0.0518293 0.0562186 0.0606748 0.0651979 0.0696906 0.0740558 0.0782933 0.0824033 0.0863857 0.0902404 0.0939676 0.0975672 0.100988 0.104177 0.107137 0.109865 0.112363 0.114631 0.116667 0.118473 0.120041 0.121364 0.122441 0.123273 0.12386 0.124201 0.124297 0.124147 0.123777 0.12321 0.122448 0.12149 0.120337 0.118987 0.117442 0.1157 0.113804 0.111793 0.109669 0.10743 0.105077 0.10261 0.100028 0.0973325 0.0945645 0.0917659 0.0889367 0.0860769 0.0831864 0.0802654 0.0773137 0.0743314 0.0713508 0.068404 0.065491 0.0626119 0.0597666 0.0569552 0.0541777 0.0514339 0.0487423 0.0461212 0.0435704 0.0410901 0.0386802 0.0363408 0.0340717 0.0318731 0.0297504 0.0277092 0.0257493 0.0238709 0.0220739 0.0203584 0.0187243 0.0171716 0.0156975 0.0142992 0.0129767 0.01173 0.010559 0.00946387 0.0084445 0.00750091 0.0066264 0.00581428 0.00506453 0.00437717 0.00375219 0.00318959 0.00268937 0.00225153 0.00186542 0.00152037 0.00121639 0.000953471 0.000731622 0.000550838 0.000411121 0.000312471 0.000239235 0.000175765 0.000122059 7.81177e-05 4.39412e-05 1.95294e-05 4.88235e-06 0 0 0.000135976 0.000543905 0.00122379 0.00217562 0.0033994 0.00489514 0.00666283 0.00870247 0.0110339 0.0136769 0.0166316 0.0198978 0.0234757 0.0273652 0.0315663 0.0360789 0.0407852 0.0455669 0.0504242 0.0553569 0.0603651 0.0654489 0.0706081 0.0758428 0.0810415 0.0860927 0.0909965 0.0957527 0.100361 0.104823 0.109136 0.113303 0.117262 0.120955 0.124382 0.127542 0.130436 0.133064 0.135426 0.137521 0.139342 0.140878 0.142131 0.143101 0.143787 0.144189 0.144307 0.144142 0.143721 0.143074 0.1422 0.141099 0.139771 0.138216 0.136435 0.134426 0.132238 0.129917 0.127464 0.124877 0.122158 0.119307 0.116322 0.113205 0.110003 0.106766 0.103492 0.100181 0.096835 0.0934525 0.0900338 0.0865789 0.0831252 0.07971 0.0763334 0.0729953 0.0696957 0.0664346 0.0632121 0.0600281 0.0569039 0.0538609 0.050899 0.0480182 0.0452186 0.0425001 0.0398627 0.0373065 0.0348379 0.0324634 0.0301831 0.0279969 0.0259049 0.023907 0.0220032 0.0201936 0.0184749 0.016844 0.0153008 0.0138454 0.0124777 0.0111977 0.0100055 0.00890104 0.00787655 0.00692428 0.00604424 0.00523641 0.0045008 0.00383741 0.00324625 0.0027273 0.00226842 0.00185746 0.00149442 0.0011793 0.000912089 0.0006928 0.000521429 0.000397976 0.000304701 0.000223862 0.00015546 9.94941e-05 5.59654e-05 2.48735e-05 6.21838e-06 0 0 0.000158149 0.000632596 0.00142334 0.00253038 0.00395373 0.00569336 0.0077493 0.0101215 0.012829 0.0158908 0.0193068 0.023077 0.0272014 0.0316801 0.0365131 0.0417002 0.0471067 0.0525976 0.0581729 0.0638325 0.0695765 0.0754049 0.0813177 0.0873149 0.0932699 0.0990561 0.104674 0.110122 0.115402 0.120513 0.125455 0.130229 0.134765 0.138998 0.142926 0.14655 0.149869 0.152884 0.155594 0.158001 0.160092 0.161859 0.163302 0.16442 0.165213 0.165681 0.165825 0.165645 0.165172 0.164439 0.163446 0.162193 0.16068 0.158906 0.156873 0.15458 0.15208 0.149428 0.146623 0.143666 0.140555 0.137292 0.133876 0.130308 0.126642 0.122934 0.119183 0.11539 0.111555 0.107678 0.103758 0.0997966 0.0958353 0.0919175 0.0880431 0.0842121 0.0804246 0.0766805 0.0729798 0.0693226 0.0657334 0.0622367 0.0588326 0.055521 0.0523019 0.0491754 0.0461414 0.0432 0.0403587 0.0376252 0.0349994 0.0324813 0.030071 0.0277685 0.0255737 0.0234866 0.0215037 0.0196213 0.0178395 0.0161583 0.0145776 0.0130975 0.011718 0.010439 0.0092517 0.00814715 0.00712536 0.00618635 0.0053301 0.00455661 0.0038659 0.00325794 0.00271904 0.00223546 0.00180721 0.00143428 0.00111668 0.000854406 0.000647458 0.000495836 0.000379624 0.000278908 0.000193686 0.000123959 6.97269e-05 3.09897e-05 7.74743e-06 0 0 0.000182146 0.000728586 0.00163932 0.00291434 0.00455366 0.00655727 0.00892517 0.0116574 0.0147714 0.0182847 0.0221973 0.0265092 0.0312204 0.0363309 0.0418408 0.0477499 0.0539055 0.0601546 0.0664973 0.0729336 0.0794634 0.0860868 0.0928038 0.0996143 0.106376 0.112946 0.119324 0.125512 0.131507 0.137311 0.142924 0.148345 0.153498 0.158306 0.162769 0.166888 0.170661 0.174089 0.177173 0.179911 0.182293 0.184307 0.185952 0.187229 0.188138 0.188679 0.188852 0.188656 0.188128 0.187305 0.186187 0.184773 0.183063 0.181058 0.178758 0.176162 0.173331 0.170326 0.167147 0.163794 0.160267 0.156566 0.15269 0.148641 0.14448 0.14027 0.136011 0.131704 0.127347 0.122942 0.118488 0.113984 0.109481 0.105026 0.10062 0.0962624 0.0919533 0.0876928 0.0834809 0.0793175 0.0752308 0.0712487 0.0673712 0.0635984 0.0599303 0.0563668 0.0529079 0.0495538 0.046313 0.0431945 0.0401983 0.0373242 0.0345725 0.0319429 0.0294356 0.0270506 0.0247838 0.0226312 0.0205929 0.0186688 0.0168589 0.0151633 0.013582 0.0121148 0.0107518 0.00948287 0.00830792 0.00722699 0.00624008 0.00534719 0.00454832 0.00384346 0.00321727 0.00265436 0.00215475 0.00171843 0.0013454 0.00103566 0.000789206 0.000606048 0.000464006 0.000340902 0.000236738 0.000151512 8.52256e-05 3.7878e-05 9.46951e-06 0 0 0.000207487 0.000829949 0.00186739 0.0033198 0.00518718 0.00746955 0.0101669 0.0132792 0.016822 0.0208109 0.0252458 0.0301268 0.0354538 0.0412269 0.047446 0.0541112 0.0610508 0.0680932 0.0752383 0.0824862 0.0898368 0.0972902 0.104846 0.112505 0.120108 0.127496 0.134668 0.141625 0.148367 0.154894 0.161206 0.167302 0.173097 0.178505 0.183527 0.188161 0.192407 0.196267 0.19974 0.202826 0.205511 0.207783 0.209641 0.211085 0.212116 0.212733 0.212937 0.212727 0.212144 0.211228 0.209981 0.2084 0.206488 0.204242 0.201665 0.198755 0.19558 0.192209 0.188641 0.184877 0.180917 0.17676 0.172406 0.167856 0.16318 0.158448 0.15366 0.148816 0.143916 0.13896 0.133948 0.12888 0.123811 0.118796 0.113835 0.108927 0.104074 0.0992736 0.0945273 0.0898348 0.0852279 0.0807381 0.0763655 0.0721101 0.0679719 0.0639508 0.060047 0.0562604 0.052601 0.0490789 0.0456942 0.0424468 0.0393366 0.0363638 0.0335284 0.0308302 0.0282649 0.0258282 0.0235199 0.0213401 0.0192889 0.0173661 0.0155718 0.013906 0.0123573 0.0109144 0.00957727 0.00834587 0.00722022 0.00620033 0.0052862 0.00447782 0.00375816 0.0031102 0.00253392 0.00202934 0.00159644 0.00123524 0.000945727 0.000727905 0.000557303 0.000409447 0.000284338 0.000181976 0.000102362 4.54941e-05 1.13735e-05 0 0 0.000233691 0.000934764 0.00210322 0.00373906 0.00584228 0.00841288 0.0114509 0.0149562 0.0189421 0.0234218 0.0283951 0.0338621 0.0398229 0.0462773 0.0532255 0.0606674 0.068412 0.0762683 0.0842364 0.0923162 0.100508 0.108811 0.117226 0.125753 0.134216 0.142439 0.150423 0.158167 0.165672 0.172937 0.179962 0.186749 0.1932 0.199221 0.204812 0.209973 0.214704 0.219005 0.222876 0.226317 0.229313 0.231849 0.233925 0.235541 0.236698 0.237394 0.237631 0.237408 0.236771 0.235763 0.234384 0.232636 0.230518 0.228029 0.22517 0.221941 0.218418 0.214675 0.210712 0.20653 0.202128 0.197507 0.192667 0.187607 0.182405 0.177141 0.171812 0.166421 0.160966 0.155448 0.149867 0.144222 0.138575 0.132987 0.127458 0.121988 0.116577 0.111225 0.105931 0.100697 0.0955565 0.0905463 0.085666 0.0809155 0.076295 0.0718043 0.0674435 0.0632126 0.059123 0.055186 0.0514017 0.04777 0.0442911 0.0409647 0.0377911 0.0347701 0.031897 0.0291669 0.0265798 0.0241358 0.0218348 0.0196768 0.0176619 0.01579 0.0140485 0.0124248 0.0109188 0.00953051 0.00826 0.00710724 0.00607223 0.00515496 0.00433677 0.00359898 0.0029416 0.00236461 0.00186803 0.00145185 0.00111607 0.000860697 0.000658971 0.000484142 0.00033621 0.000215174 0.000121036 5.37936e-05 1.34484e-05 0 0 0.000260757 0.00104303 0.00234682 0.00417212 0.00651894 0.00938727 0.0127771 0.0166885 0.0211317 0.0261173 0.0316451 0.0377152 0.0443276 0.0514822 0.0591792 0.0674184 0.075989 0.0846801 0.0934916 0.102424 0.111476 0.120649 0.129943 0.139357 0.148699 0.157776 0.166589 0.175137 0.183421 0.19144 0.199195 0.206685 0.213806 0.220453 0.226626 0.232326 0.237551 0.242303 0.24658 0.250384 0.253698 0.256505 0.258805 0.260598 0.261884 0.262663 0.262935 0.262701 0.262009 0.260908 0.259398 0.25748 0.255154 0.252419 0.249275 0.245722 0.241844 0.237723 0.233359 0.228751 0.223901 0.218807 0.213471 0.207892 0.202155 0.196348 0.190469 0.184519 0.178499 0.172407 0.166244 0.16001 0.153773 0.1476 0.14149 0.135445 0.129463 0.123546 0.117692 0.111903 0.106217 0.100673 0.0952727 0.0900148 0.0848996 0.0799271 0.0750974 0.0704104 0.0658789 0.0615157 0.0573207 0.0532941 0.0494357 0.0457456 0.0422238 0.0388703 0.0356799 0.0326473 0.0297726 0.0270557 0.0244967 0.0220956 0.0198523 0.0177669 0.0158254 0.0140139 0.0123324 0.0107809 0.00935941 0.00806791 0.0069064 0.00587489 0.00495309 0.00412072 0.00337777 0.00272425 0.00216016 0.00168549 0.00130024 0.00100442 0.000769012 0.000564989 0.000392353 0.000251106 0.000141247 6.27765e-05 1.56941e-05 0 0 0.000288686 0.00115475 0.00259818 0.00461898 0.00721716 0.0103927 0.0141456 0.0184759 0.0233908 0.0288974 0.0349958 0.041686 0.0489679 0.0568416 0.065307 0.0743643 0.0837818 0.0933284 0.103004 0.112809 0.122742 0.132805 0.142996 0.153317 0.163557 0.173506 0.183166 0.192535 0.201615 0.210404 0.218902 0.227111 0.234915 0.242201 0.248969 0.255218 0.260948 0.26616 0.270854 0.275029 0.278667 0.281751 0.28428 0.286254 0.287674 0.288539 0.288849 0.288604 0.287858 0.286664 0.285023 0.282933 0.280396 0.277411 0.273978 0.270097 0.265859 0.261354 0.256581 0.251542 0.246235 0.240661 0.23482 0.228711 0.22243 0.216069 0.20963 0.203111 0.196513 0.189836 0.18308 0.176245 0.169404 0.162633 0.15593 0.149297 0.142733 0.136237 0.129811 0.123454 0.117209 0.111119 0.105186 0.0994079 0.0937858 0.0883194 0.0830087 0.0778538 0.0728688 0.068068 0.0634513 0.0590189 0.0547706 0.0507065 0.0468266 0.0431308 0.0396136 0.0362694 0.0330982 0.0300999 0.0272747 0.0246223 0.022143 0.0198366 0.017688 0.0156818 0.0138182 0.0120971 0.0105185 0.00908234 0.00778873 0.00663762 0.00560713 0.00467542 0.00384246 0.00310826 0.00247283 0.00193615 0.00149824 0.00115909 0.000887425 0.000651986 0.000452768 0.000289772 0.000162996 7.24429e-05 1.81107e-05 0 0 0.000317478 0.00126991 0.0028573 0.00507965 0.00793696 0.0114292 0.0155564 0.0203186 0.0257193 0.0317622 0.0384473 0.0457745 0.0537439 0.0623554 0.0716091 0.081505 0.0917906 0.102213 0.112774 0.123471 0.134306 0.145278 0.156387 0.167633 0.17879 0.189631 0.200155 0.210362 0.220253 0.229827 0.239085 0.248027 0.256528 0.264466 0.271839 0.278649 0.284895 0.290577 0.295695 0.30025 0.30422 0.307588 0.310351 0.312512 0.314068 0.315022 0.315372 0.315118 0.314319 0.313032 0.311257 0.308994 0.306244 0.303006 0.29928 0.295066 0.290463 0.285568 0.28038 0.274901 0.26913 0.263067 0.256713 0.250066 0.24323 0.236306 0.229294 0.222196 0.215009 0.207735 0.200374 0.192925 0.185469 0.178087 0.170779 0.163545 0.156385 0.149299 0.142287 0.135349 0.128532 0.121884 0.115405 0.109095 0.102953 0.096981 0.0911774 0.0855427 0.0800926 0.0748429 0.0697935 0.0649444 0.0602957 0.0558473 0.0515993 0.0475516 0.0436983 0.0400333 0.0365567 0.0332684 0.0301686 0.0272571 0.0245339 0.0219992 0.0196362 0.0174286 0.0153762 0.013479 0.0117371 0.0101505 0.0087192 0.00744313 0.00629889 0.00526306 0.00433565 0.00351664 0.00280603 0.00220384 0.00171006 0.00132468 0.00101421 0.000745134 0.000517454 0.000331171 0.000186284 8.27927e-05 2.06982e-05 0 0 0.000347133 0.00138853 0.00312419 0.00555412 0.00867832 0.0124968 0.0170095 0.0222165 0.0281174 0.0347117 0.0419995 0.0499808 0.0586555 0.0680237 0.0780854 0.0888406 0.100015 0.111335 0.1228 0.134411 0.146167 0.158068 0.170114 0.182306 0.194399 0.206148 0.217554 0.228617 0.239336 0.249712 0.259744 0.269433 0.278645 0.287247 0.295239 0.302621 0.309392 0.315554 0.321106 0.326047 0.330357 0.334014 0.337018 0.339369 0.341067 0.342112 0.342504 0.342243 0.341391 0.34001 0.338101 0.335664 0.332698 0.329204 0.325181 0.320629 0.315655 0.310364 0.304756 0.29883 0.292587 0.286027 0.27915 0.271955 0.264554 0.257057 0.249463 0.241773 0.233987 0.226105 0.218126 0.210051 0.201967 0.193963 0.186037 0.178189 0.170421 0.162731 0.155121 0.147589 0.140187 0.132968 0.12593 0.119075 0.112403 0.105912 0.0996036 0.0934773 0.0875505 0.0818405 0.0763472 0.0710708 0.0660111 0.0611682 0.056542 0.0521327 0.0479337 0.0439388 0.040148 0.0365612 0.0331785 0.0299998 0.0270252 0.0242546 0.0216702 0.0192541 0.0170063 0.0149267 0.0130155 0.0112725 0.00969782 0.00829143 0.00702836 0.00588367 0.00485734 0.00394938 0.00315978 0.00248856 0.0019357 0.00150121 0.00114937 0.000844433 0.000586412 0.000375304 0.000211108 9.38259e-05 2.34565e-05 0 0 0.00037765 0.0015106 0.00339885 0.0060424 0.00944125 0.0135954 0.0185048 0.0241696 0.0305848 0.0377458 0.0456524 0.0543047 0.0637028 0.0738465 0.0847359 0.096371 0.108456 0.120693 0.133084 0.145628 0.158325 0.171175 0.184179 0.197335 0.210383 0.22306 0.235365 0.2473 0.258863 0.270056 0.280878 0.291328 0.301265 0.310544 0.319167 0.327132 0.33444 0.341091 0.347085 0.352422 0.357078 0.361031 0.364281 0.366827 0.36867 0.36981 0.370245 0.369978 0.369074 0.3676 0.365556 0.362942 0.359758 0.356004 0.35168 0.346787 0.341436 0.335743 0.329707 0.323328 0.316605 0.30954 0.302131 0.294379 0.286403 0.278322 0.270136 0.261844 0.25344