<?xml version="1.0"?> 
<VTKFile type="StructuredGrid" version="0.1"> 
<StructuredGrid WholeExtent="0 128 0 128 0 0"> 
<Piece Extent="0 128 0 128 0 0"> 
<PointData>
<DataArray type="Float32" Name="u" format="ascii" NumberOfComponents="1"> 
0 0 0 0 0 0 0 0 0 0 0 0 0 0 0 0 0 0 0 0 0 0 0 0 0 0 0 0 0 0 0 0 0 0 0 0 0 0 0 0 0 0 0 0 0 0 0 0 0 0 0 0 0 0 0 0 0 0 0 0 0 0 0 0 0 0 0 0 0 0 0 0 0 0 0 0 0 0 0 0 0 0 0 0 0 0 0 0 0 0 0 0 0 0 0 0 0 0 0 0 0 0 0 0 0 0 0 0 0 0 0 0 0 0 0 0 0 0 0 0 0 0 0 0 0 0 0 0 0 0 3.3931e-07 1.35724e-06 3.05379e-06 5.42896e-06 8.48275e-06 1.22152e-05 1.66262e-05 2.17158e-05 2.75829e-05 3.43261e-05 4.19455e-05 5.0441e-05 5.98128e-05 7.00606e-05 8.11847e-05 9.31849e-05 0.000105744 0.000118543 0.000131583 0.000144864 0.000158386 0.000172148 0.000186151 0.000200395 0.000214574 0.000228385 0.000241826 0.000254897 0.0002676 0.000279933 0.000291898 0.000303492 0.000314561 0.000324946 0.000334648 0.000343667 0.000352003 0.000359655 0.000366624 0.000372909 0.000378486 0.00038333 0.000387441 0.000390818 0.000393462 0.000395372 0.000396549 0.000396993 0.000396771 0.000395949 0.000394529 0.000392509 0.00038989 0.000386672 0.000382855 0.000378439 0.000373537 0.000368259 0.000362607 0.000356581 0.00035018 0.000343404 0.000336254 0.000328729 0.000320945 0.000313017 0.000304945 0.000296728 0.000288368 0.000279864 0.000271215 0.000262423 0.000253577 0.000244769 0.000235997 0.000227263 0.000218567 0.000209907 0.000201285 0.000192701 0.000184209 0.000175868 0.000167676 0.000159633 0.00015174 0.000143997 0.000136404 0.00012896 0.000121692 0.000114626 0.000107763 0.000101102 9.46435e-05 8.83872e-05 8.23333e-05 7.64818e-05 7.08419e-05 6.54231e-05 6.02253e-05 5.52486e-05 5.04929e-05 4.59583e-05 4.16447e-05 3.75522e-05 3.36847e-05 3.00463e-05 2.6637e-05 2.34566e-05 2.05054e-05 1.77832e-05 1.52901e-05 1.3026e-05 1.09762e-05 9.12586e-06 7.47508e-06 6.02381e-06 4.77205e-06 3.71981e-06 2.86707e-06 2.21385e-06 1.69498e-06 1.24529e-06 8.64787e-07 5.53464e-07 3.11323e-07 1.38366e-07 3.45915e-08 0 0 1.35724e-06 5.42896e-06 1.22152e-05 2.17158e-05 3.3931e-05 4.88607e-05 6.65048e-05 8.68634e-05 0.000110332 0.000137304 0.000167782 0.000201764 0.000239251 0.000280243 0.000324739 0.00037274 0.000422974 0.000474172 0.000526333 0.000579456 0.000633542 0.000688592 0.000744604 0.000801579 0.000858297 0.000913538 0.000967302 0.00101959 0.0010704 0.00111973 0.00116759 0.00121397 0.00125824 0.00129979 0.00133859 0.00137467 0.00140801 0.00143862 0.00146649 0.00149164 0.00151395 0.00153332 0.00154976 0.00156327 0.00157385 0.00158149 0.0015862 0.00158797 0.00158708 0.0015838 0.00157811 0.00157004 0.00155956 0.00154669 0.00153142 0.00151376 0.00149415 0.00147304 0.00145043 0.00142632 0.00140072 0.00137362 0.00134502 0.00131492 0.00128378 0.00125207 0.00121978 0.00118691 0.00115347 0.00111945 0.00108486 0.00104969 0.00101431 0.000979074 0.000943989 0.000909054 0.000874267 0.00083963 0.000805142 0.000770803 0.000736838 0.000703471 0.000670703 0.000638533 0.000606962 0.000575989 0.000545615 0.000515839 0.000486768 0.000458505 0.000431052 0.000404408 0.000378574 0.000353549 0.000329333 0.000305927 0.000283368 0.000261692 0.000240901 0.000220994 0.000201972 0.000183833 0.000166579 0.000150209 0.000134739 0.000120185 0.000106548 9.38266e-05 8.20216e-05 7.11328e-05 6.11602e-05 5.21039e-05 4.39046e-05 3.65035e-05 2.99003e-05 2.40952e-05 1.90882e-05 1.48792e-05 1.14683e-05 8.85542e-06 6.77993e-06 4.98117e-06 3.45915e-06 2.21385e-06 1.24529e-06 5.53464e-07 1.38366e-07 0 0 3.05379e-06 1.22152e-05 2.74841e-05 4.88607e-05 7.63448e-05 0.000109936 0.000149636 0.000195443 0.000248246 0.000308935 0.000377509 0.000453969 0.000538315 0.000630546 0.000730662 0.000838664 0.000951692 0.00106689 0.00118425 0.00130378 0.00142547 0.00154933 0.00167536 0.00180355 0.00193117 0.00205546 0.00217643 0.00229408 0.0024084 0.0025194 0.00262708 0.00273143 0.00283105 0.00292452 0.00301184 0.003093 0.00316802 0.00323689 0.00329961 0.00335618 0.00340638 0.00344997 0.00348697 0.00351736 0.00354116 0.00355835 0.00356895 0.00357294 0.00357094 0.00356354 0.00355076 0.00353258 0.00350901 0.00348005 0.0034457 0.00340595 0.00336183 0.00331433 0.00326347 0.00320923 0.00315162 0.00309064 0.00302628 0.00295856 0.0028885 0.00281715 0.0027445 0.00267055 0.00259531 0.00251877 0.00244094 0.00236181 0.00228219 0.00220292 0.00212398 0.00204537 0.0019671 0.00188917 0.00181157 0.00173431 0.00165788 0.00158281 0.00150908 0.0014367 0.00136566 0.00129598 0.00122763 0.00116064 0.00109523 0.00103164 0.000969867 0.000909919 0.000851792 0.000795485 0.000741 0.000688336 0.000637577 0.000588807 0.000542028 0.000497237 0.000454436 0.000413624 0.000374802 0.00033797 0.000303162 0.000270417 0.000239733 0.00021111 0.000184549 0.000160049 0.000137611 0.000117234 9.87854e-05 8.21328e-05 6.72757e-05 5.42143e-05 4.29485e-05 3.34783e-05 2.58037e-05 1.99247e-05 1.52548e-05 1.12076e-05 7.78308e-06 4.98117e-06 2.80191e-06 1.24529e-06 3.11323e-07 0 0 5.42896e-06 2.17158e-05 4.88607e-05 8.68634e-05 0.000135724 0.000195443 0.000266019 0.000347454 0.000441326 0.000549218 0.000671128 0.000807057 0.000957004 0.00112097 0.00129896 0.00149096 0.0016919 0.00189669 0.00210533 0.00231782 0.00253417 0.00275437 0.00297842 0.00320632 0.00343319 0.00365415 0.00386921 0.00407836 0.0042816 0.00447893 0.00467036 0.00485588 0.00503298 0.00519914 0.00535437 0.00549867 0.00563204 0.00575448 0.00586598 0.00596655 0.00605578 0.00613329 0.00619905 0.00625309 0.00629539 0.00632596 0.00634479 0.00635189 0.00634833 0.00633519 0.00631246 0.00628014 0.00623824 0.00618676 0.00612569 0.00605503 0.00597659 0.00589215 0.00580172 0.00570529 0.00560287 0.00549446 0.00538006 0.00525966 0.00513512 0.00500827 0.00487911 0.00474765 0.00461389 0.00447782 0.00433944 0.00419877 0.00405723 0.0039163 0.00377596 0.00363621 0.00349707 0.00335852 0.00322057 0.00308321 0.00294735 0.00281388 0.00268281 0.00255413 0.00242785 0.00230396 0.00218246 0.00206336 0.00194707 0.00183402 0.00172421 0.00161763 0.0015143 0.0014142 0.00131733 0.00122371 0.00113347 0.00104677 0.000963604 0.000883977 0.000807886 0.000735332 0.000666315 0.000600835 0.000538955 0.000480741 0.000426191 0.000375306 0.000328086 0.000284531 0.000244641 0.000208415 0.000175619 0.000146014 0.000119601 9.6381e-05 7.63528e-05 5.95169e-05 4.58732e-05 3.54217e-05 2.71197e-05 1.99247e-05 1.38366e-05 8.85542e-06 4.98117e-06 2.21385e-06 5.53464e-07 0 0 8.48275e-06 3.3931e-05 7.63448e-05 0.000135724 0.000212069 0.000305379 0.000415655 0.000542896 0.000689572 0.000858153 0.00104864 0.00126103 0.00149532 0.00175152 0.00202962 0.00232962 0.00264359 0.00296358 0.00328958 0.0036216 0.00395964 0.0043037 0.00465377 0.00500987 0.00536436 0.00570961 0.00604564 0.00637244 0.00669 0.00699833 0.00729744 0.00758731 0.00786403 0.00812366 0.00836621 0.00859168 0.00880007 0.00899137 0.00916559 0.00932273 0.00946216 0.00958326 0.00968602 0.00977045 0.00983655 0.00988431 0.00991374 0.00992483 0.00991927 0.00989873 0.00986322 0.00981272 0.00974725 0.00966681 0.00957139 0.00946099 0.00933842 0.00920648 0.00906518 0.00891452 0.00875449 0.0085851 0.00840634 0.00821822 0.00802362 0.00782542 0.00762361 0.00741821 0.0072092 0.00699659 0.00678038 0.00656057 0.00633943 0.00611921 0.00589993 0.00568159 0.00546417 0.00524769 0.00503214 0.00481752 0.00460523 0.00439669 0.00419189 0.00399083 0.00379351 0.00359993 0.00341009 0.003224 0.0030423 0.00286566 0.00269408 0.00252755 0.00236609 0.00220968 0.00205833 0.00191204 0.00177105 0.00163558 0.00150563 0.00138121 0.00126232 0.00114896 0.00104112 0.000938805 0.000842118 0.000751158 0.000665924 0.000586416 0.000512635 0.00044458 0.000382251 0.000325649 0.000274404 0.000228147 0.000186877 0.000150595 0.000119301 9.29952e-05 7.16769e-05 5.53464e-05 4.23746e-05 3.11323e-05 2.16197e-05 1.38366e-05 7.78308e-06 3.45915e-06 8.64787e-07 0 0 1.22152e-05 4.88607e-05 0.000109936 0.000195443 0.000305379 0.000439746 0.000598543 0.00078177 0.000992984 0.00123574 0.00151004 0.00181588 0.00215326 0.00252218 0.00292265 0.00335466 0.00380677 0.00426755 0.00473699 0.0052151 0.00570188 0.00619732 0.00670143 0.00721421 0.00772467 0.00822184 0.00870572 0.00917631 0.0096336 0.0100776 0.0105083 0.0109257 0.0113242 0.0116981 0.0120473 0.012372 0.0126721 0.0129476 0.0131985 0.0134247 0.0136255 0.0137999 0.0139479 0.0140694 0.0141646 0.0142334 0.0142758 0.0142918 0.0142837 0.0142542 0.014203 0.0141303 0.014036 0.0139202 0.0137828 0.0136238 0.0134473 0.0132573 0.0130539 0.0128369 0.0126065 0.0123625 0.0121051 0.0118342 0.011554 0.0112686 0.010978 0.0106822 0.0103812 0.0100751 0.00976375 0.00944722 0.00912877 0.00881167 0.0084959 0.00818148 0.0078684 0.00755667 0.00724627 0.00693722 0.00663154 0.00633124 0.00603632 0.0057468 0.00546266 0.0051839 0.00491053 0.00464255 0.00438091 0.00412655 0.00387947 0.00363968 0.00340717 0.00318194 0.002964 0.00275334 0.00255031 0.00235523 0.00216811 0.00198895 0.00181774 0.0016545 0.00149921 0.00135188 0.00121265 0.00108167 0.00095893 0.000844439 0.000738194 0.000640195 0.000550442 0.000468935 0.000395142 0.000328531 0.000269103 0.000216857 0.000171794 0.000133913 0.000103215 7.96988e-05 6.10194e-05 4.48306e-05 3.11323e-05 1.99247e-05 1.12076e-05 4.98117e-06 1.24529e-06 0 0 1.66262e-05 6.65048e-05 0.000149636 0.000266019 0.000415655 0.000598543 0.000814684 0.00106408 0.00135156 0.00168198 0.00205533 0.00247161 0.00293083 0.00343297 0.00397805 0.00456606 0.00518144 0.00580861 0.00644757 0.00709834 0.00776089 0.00843525 0.0091214 0.00981934 0.0105141 0.0111908 0.0118495 0.01249 0.0131124 0.0137167 0.014303 0.0148711 0.0154135 0.0159224 0.0163978 0.0168397 0.0172481 0.0176231 0.0179646 0.0182726 0.0185458 0.0187832 0.0189846 0.0191501 0.0192796 0.0193732 0.0194309 0.0194527 0.0194418 0.0194015 0.0193319 0.0192329 0.0191046 0.0189469 0.0187599 0.0185435 0.0183033 0.0180447 0.0177678 0.0174725 0.0171588 0.0168268 0.0164764 0.0161077 0.0157263 0.0153378 0.0149423 0.0145397 0.01413 0.0137133 0.0132895 0.0128587 0.0124253 0.0119937 0.0115639 0.0111359 0.0107098 0.0102855 0.00986299 0.00944233 0.00902626 0.00861752 0.00821611 0.00782203 0.00743528 0.00705587 0.00668378 0.00631903 0.0059629 0.00561669 0.00528039 0.004954 0.00463753 0.00433098 0.00403433 0.00374761 0.00347125 0.00320573 0.00295104 0.00270718 0.00247415 0.00225195 0.00204059 0.00184006 0.00165055 0.00147227 0.00130521 0.00114938 0.00100476 0.000871377 0.000749213 0.000638272 0.000537832 0.000447167 0.000366279 0.000295167 0.000233831 0.000182271 0.000140487 0.000108479 8.30542e-05 6.10194e-05 4.23746e-05 2.71197e-05 1.52548e-05 6.77993e-06 1.69498e-06 0 0 2.17158e-05 8.68634e-05 0.000195443 0.000347454 0.000542896 0.00078177 0.00106408 0.00138981 0.00176531 0.00219687 0.00268451 0.00322823 0.00382802 0.00448388 0.00519582 0.00596384 0.00676759 0.00758675 0.00842132 0.0092713 0.0101367 0.0110175 0.0119137 0.0128253 0.0137328 0.0146166 0.0154768 0.0163134 0.0171264 0.0179157 0.0186814 0.0194235 0.0201319 0.0207966 0.0214175 0.0219947 0.0225282 0.0230179 0.0234639 0.0238662 0.0242231 0.0245331 0.0247962 0.0250124 0.0251816 0.0253038 0.0253792 0.0254076 0.0253933 0.0253408 0.0252498 0.0251206 0.024953 0.024747 0.0245027 0.0242201 0.0239063 0.0235686 0.0232069 0.0228212 0.0224115 0.0219779 0.0215202 0.0210387 0.0205405 0.0200331 0.0195165 0.0189906 0.0184556 0.0179113 0.0173578 0.0167951 0.0162289 0.0156652 0.0151038 0.0145449 0.0139883 0.0134341 0.0128823 0.0123328 0.0117894 0.0112555 0.0107312 0.0102165 0.00971139 0.00921583 0.00872984 0.00825343 0.00778828 0.00733608 0.00689683 0.00647053 0.00605718 0.00565678 0.00526933 0.00489483 0.00453388 0.00418708 0.00385442 0.00353591 0.00323154 0.00294133 0.00266526 0.00240334 0.00215582 0.00192296 0.00170476 0.00150123 0.00131235 0.00113812 0.000978564 0.000833662 0.000702474 0.000584055 0.000478405 0.000385524 0.000305411 0.000238068 0.000183493 0.000141687 0.000108479 7.96988e-05 5.53464e-05 3.54217e-05 1.99247e-05 8.85542e-06 2.21385e-06 0 0 2.76173e-05 0.000110469 0.000248555 0.000441876 0.000690432 0.000994222 0.00135325 0.00176751 0.00224474 0.00279271 0.0034114 0.00410081 0.00486095 0.00569181 0.0065934 0.00756571 0.00858306 0.00961976 0.0106758 0.0117512 0.012846 0.0139601 0.0150935 0.0162463 0.0173938 0.0185115 0.0195993 0.0206573 0.0216854 0.0226836 0.0236519 0.0245904 0.0254864 0.0263271 0.0271125 0.0278427 0.0285176 0.0291373 0.0297017 0.0302109 0.0306627 0.0310553 0.0313885 0.0316623 0.0318769 0.0320321 0.0321279 0.0321644 0.0321471 0.0320812 0.0319668 0.0318039 0.0315925 0.0313325 0.0310241 0.0306672 0.0302709 0.0298442 0.0293871 0.0288997 0.0283819 0.0278338 0.0272553 0.0266464 0.0260165 0.0253749 0.0247216 0.0240566 0.0233799 0.0226915 0.0219913 0.0212795 0.0205633 0.01985 0.0191398 0.0184325 0.0177282 0.0170269 0.0163285 0.0156331 0.0149453 0.0142695 0.0136059 0.0129543 0.0123148 0.0116874 0.0110721 0.0104688 0.00987981 0.00930717 0.0087509 0.008211 0.00768746 0.0071803 0.0066895 0.00621508 0.00575778 0.00531837 0.00489685 0.00449321 0.00410747 0.00373961 0.00338964 0.00305756 0.00274368 0.00244833 0.0021715 0.00191319 0.00167341 0.00145215 0.00124941 0.0010652 0.000898326 0.000747614 0.000613061 0.000494669 0.000392436 0.000306363 0.000236449 0.000182695 0.000139876 0.000102766 7.13654e-05 4.56739e-05 2.56915e-05 1.14185e-05 2.85462e-06 0 0 3.44636e-05 0.000137854 0.000310173 0.000551418 0.000861591 0.00124069 0.00168872 0.00220567 0.00280041 0.00348178 0.0042498 0.00510445 0.00604574 0.00707366 0.00818823 0.00938943 0.0106457 0.0119254 0.0132286 0.0145553 0.0159055 0.0172791 0.0186762 0.0200968 0.0215107 0.0228879 0.0242284 0.0255321 0.026799 0.0280293 0.0292228 0.0303795 0.0314839 0.0325203 0.0334888 0.0343893 0.0352219 0.0359865 0.0366831 0.0373118 0.0378699 0.038355 0.0387671 0.039106 0.039372 0.0395648 0.0396846 0.0397313 0.0397116 0.039632 0.0394926 0.0392934 0.0390344 0.0387156 0.0383369 0.0378985 0.0374113 0.0368866 0.0363244 0.0357247 0.0350874 0.0344126 0.0337003 0.0329504 0.0321745 0.031384 0.030579 0.0297593 0.0289252 0.0280764 0.0272131 0.0263352 0.0254518 0.024572 0.0236957 0.0228229 0.0219538 0.0210882 0.0202261 0.0193676 0.0185183 0.0176838 0.0168641 0.0160593 0.0152693 0.0144941 0.0137338 0.0129883 0.0122603 0.0115524 0.0108647 0.0101971 0.0095497 0.00892245 0.00831534 0.00772839 0.00716253 0.00661871 0.00609692 0.00559717 0.00511946 0.00466378 0.00423014 0.00381853 0.00342934 0.00306293 0.00271931 0.00239847 0.00210042 0.00182515 0.00157267 0.00134297 0.00113464 0.000946261 0.000777827 0.000629341 0.000500803 0.000392213 0.000303572 0.000234878 0.000179829 0.000132119 9.17493e-05 5.87195e-05 3.30297e-05 1.46799e-05 3.66997e-06 0 0 4.22549e-05 0.00016902 0.000380294 0.000676078 0.00105637 0.00152118 0.00207049 0.00270431 0.0034323 0.0042641 0.00519971 0.00623914 0.00738238 0.00862944 0.00998031 0.011435 0.0129555 0.0145037 0.0160798 0.0176836 0.0193152 0.0209746 0.0226617 0.0243767 0.0260834 0.0277458 0.0293639 0.0309378 0.0324674 0.0339528 0.0353939 0.0367907 0.0381244 0.0393763 0.0405464 0.0416346 0.0426409 0.0435655 0.0444081 0.045169 0.0458448 0.0464325 0.0469321 0.0473435 0.0476669 0.0479021 0.0480491 0.0481081 0.0480868 0.0479933 0.0478274 0.0475893 0.0472789 0.0468962 0.0464411 0.0459138 0.0453277 0.044696 0.0440188 0.0432961 0.042528 0.0417143 0.0408552 0.0399506 0.0390143 0.0380603 0.0370884 0.0360988 0.0350913 0.0340661 0.033023 0.0319622 0.0308945 0.029831 0.0287715 0.0277162 0.026665 0.025618 0.024575 0.0235362 0.0225083 0.0214983 0.020506 0.0195316 0.0185749 0.0176361 0.016715 0.0158118 0.0149296 0.0140717 0.0132382 0.0124289 0.0116439 0.0108832 0.0101468 0.00943477 0.00874813 0.00808809 0.00745464 0.00684778 0.00626752 0.00571384 0.00518676 0.00468628 0.00421281 0.00376678 0.0033482 0.00295707 0.00259338 0.00225714 0.00194834 0.00166699 0.00141143 0.00118 0.000972702 0.000789541 0.000630514 0.00049562 0.000384861 0.000298235 0.000228336 0.000167757 0.000116498 7.45588e-05 4.19393e-05 1.86397e-05 4.65992e-06 0 0 5.09911e-05 0.000203964 0.00045892 0.000815858 0.00127478 0.00183568 0.00249856 0.00326343 0.00414042 0.00513965 0.00626114 0.00750489 0.00887088 0.0103591 0.0119696 0.0137024 0.0155124 0.0173547 0.0192292 0.0211361 0.0230751 0.0250465 0.0270501 0.029086 0.0311118 0.0330852 0.0350061 0.0368745 0.0386906 0.0404541 0.0421653 0.043824 0.045408 0.046895 0.0482852 0.0495785 0.0507748 0.0518743 0.0528768 0.0537824 0.0545873 0.0552876 0.0558835 0.0563748 0.0567616 0.0570439 0.0572216 0.0572949 0.0572729 0.057165 0.0569712 0.0566915 0.0563258 0.0558743 0.0553368 0.0547134 0.0540199 0.0532722 0.0524702 0.0516141 0.0507036 0.049739 0.0487201 0.047647 0.0465361 0.0454038 0.04425 0.0430749 0.0418784 0.0406605 0.0394212 0.0381605 0.0368915 0.0356271 0.0343674 0.0331124 0.031862 0.0306163 0.0293753 0.028139 0.0269155 0.025713 0.0245315 0.0233711 0.0222316 0.0211132 0.0200158 0.0189394 0.0178879 0.0168652 0.0158714 0.0149063 0.0139701 0.0130626 0.012184 0.0113342 0.0105146 0.00972652 0.00897001 0.00824505 0.00755165 0.0068898 0.00625951 0.00566078 0.00509408 0.00455988 0.00405818 0.00358899 0.0031523 0.00274811 0.00237643 0.00203725 0.00172868 0.00144882 0.00119769 0.000975269 0.000781567 0.000616583 0.000480316 0.000372766 0.000285399 0.000209681 0.000145612 9.31915e-05 5.24202e-05 2.32979e-05 5.82447e-06 0 0 6.06723e-05 0.000242689 0.00054605 0.000970756 0.00151681 0.0021842 0.00297294 0.00388302 0.00492476 0.00610845 0.00743409 0.00890169 0.0105112 0.0122627 0.0141562 0.0161916 0.0183165 0.0204783 0.022677 0.0249127 0.0271853 0.0294949 0.0318414 0.0342248 0.036596 0.038906 0.0411548 0.0433422 0.0454684 0.0475333 0.049537 0.0514793 0.0533345 0.0550765 0.0567054 0.058221 0.0596235 0.0609129 0.062089 0.063152 0.0640973 0.0649204 0.0656212 0.0661998 0.0666561 0.0669902 0.067202 0.0672916 0.0672697 0.0671472 0.0669239 0.0665999 0.0661752 0.0656499 0.0650238 0.064297 0.063488 0.0626153 0.0616787 0.0606784 0.0596144 0.0584866 0.057295 0.0560396 0.0547397 0.0534144 0.0520638 0.0506878 0.0492864 0.0478597 0.0464076 0.0449301 0.0434426 0.0419603 0.0404832 0.0390113 0.0375446 0.0360832 0.0346269 0.0331759 0.0317397 0.0303279 0.0289407 0.0275778 0.0262394 0.0249255 0.0236361 0.022371 0.0211351 0.0199329 0.0187643 0.0176294 0.0165282 0.0154607 0.0144269 0.0134267 0.0124619 0.011534 0.010643 0.00978897 0.00897185 0.00819165 0.00744839 0.00674205 0.00607315 0.00544221 0.00484924 0.00429422 0.00377716 0.00329806 0.00285692 0.00245374 0.00208639 0.00175274 0.00145278 0.00118652 0.000953964 0.000755102 0.000589937 0.000458471 0.000351017 0.00025789 0.00017909 0.000114618 6.44725e-05 2.86544e-05 7.16361e-06 0 0 7.12983e-05 0.000285193 0.000641685 0.00114077 0.00178246 0.00256674 0.00349362 0.00456309 0.00578533 0.00717048 0.00871855 0.0104295 0.0123035 0.0143403 0.01654 0.0189027 0.0213677 0.0238745 0.0264232 0.0290135 0.0316457 0.0343197 0.0370354 0.039793 0.0425361 0.0452084 0.04781 0.0503408 0.052801 0.0551903 0.057509 0.0597569 0.0619041 0.0639207 0.0658068 0.0675622 0.069187 0.0706813 0.0720449 0.073278 0.0743751 0.0753309 0.0761454 0.0768185 0.0773504 0.077741 0.0779903 0.0780983 0.0780774 0.0779398 0.0776855 0.0773147 0.0768272 0.076223 0.0755022 0.0746648 0.0737321 0.0727252 0.0716443 0.0704893 0.0692602 0.067957 0.0665798 0.0651284 0.0636252 0.0620923 0.0605297 0.0589373 0.0573153 0.0556636 0.0539822 0.052271 0.0505479 0.0488306 0.047119 0.0454131 0.0437129 0.0420185 0.0403299 0.038647 0.036981 0.0353431 0.0337334 0.0321518 0.0305984 0.029073 0.0275758 0.0261068 0.0246712 0.0232746 0.0219169 0.0205981 0.0193183 0.0180774 0.0168754 0.0157123 0.0145901 0.0135105 0.0124737 0.0114795 0.0105281 0.0096194 0.00875338 0.00793008 0.00715003 0.0064138 0.00572138 0.00507277 0.00446798 0.003907 0.00338983 0.00291648 0.00248457 0.00209174 0.00173799 0.00142331 0.0011477 0.000911177 0.000713725 0.00055535 0.00042519 0.000312384 0.000216934 0.000138837 7.80961e-05 3.47094e-05 8.67734e-06 0 0 8.28693e-05 0.000331477 0.000745824 0.00132591 0.00207173 0.0029833 0.0040606 0.00530364 0.00672212 0.00832575 0.0101145 0.0120885 0.0142475 0.0165917 0.0191211 0.0218356 0.0246661 0.0275435 0.0304676 0.0334386 0.0364563 0.039521 0.0426324 0.0457906 0.0489319 0.0519922 0.0549718 0.0578704 0.0606882 0.0634252 0.0660813 0.0686565 0.0711167 0.0734277 0.0755894 0.077602 0.0794653 0.0811795 0.0827444 0.0841601 0.0854204 0.086519 0.0874559 0.0882311 0.0888446 0.0892964 0.0895866 0.089715 0.0896958 0.0895428 0.0892561 0.0888357 0.0882815 0.0875937 0.0867721 0.0858168 0.084752 0.083602 0.0823669 0.0810466 0.0796411 0.0781504 0.0765745 0.0749135 0.0731926 0.0714374 0.0696477 0.0678236 0.0659652 0.0640723 0.062145 0.0601833 0.0582075 0.056238 0.0542747 0.0523177 0.0503669 0.0484224 0.0464842 0.0445522 0.0426394 0.0407586 0.0389098 0.0370931 0.0353084 0.0335558 0.0318351 0.0301466 0.0284963 0.0268905 0.0253293 0.0238126 0.0223404 0.0209127 0.0195296 0.018191 0.0168991 0.0156561 0.014462 0.0133168 0.0122205 0.011173 0.0101745 0.00922487 0.00832471 0.00747462 0.0066746 0.00592464 0.00522474 0.00457491 0.00397515 0.00342546 0.00292322 0.00246583 0.0020533 0.00168562 0.00136279 0.00108481 0.000851679 0.000663403 0.000507918 0.000373164 0.000259142 0.000165851 9.3291e-05 4.14627e-05 1.03657e-05 0 0 9.53852e-05 0.000381541 0.000858467 0.00152616 0.00238463 0.00343387 0.00467388 0.00610465 0.00773514 0.00957426 0.011622 0.0138784 0.0163435 0.0190171 0.0218994 0.0249904 0.0282117 0.031485 0.0348104 0.0381878 0.0416172 0.0450987 0.0486322 0.0522177 0.0557835 0.0592576 0.0626401 0.065931 0.0691302 0.0722379 0.0752539 0.0781782 0.0809723 0.0835974 0.0860534 0.0883404 0.0904585 0.0924075 0.0941875 0.0957985 0.0972334 0.0984848 0.0995528 0.100437 0.101139 0.101656 0.101991 0.102142 0.102125 0.101956 0.101636 0.101163 0.100538 0.0997619 0.0988333 0.0977528 0.0965478 0.0952457 0.0938466 0.0923504 0.0907571 0.0890667 0.0872792 0.0853947 0.0834419 0.0814496 0.0794179 0.0773466 0.0752359 0.0730857 0.070896 0.0686668 0.0664212 0.0641824 0.0619504 0.0597251 0.0575066 0.0552948 0.0530899 0.0508916 0.0487148 0.0465743 0.0444698 0.0424016 0.0403695 0.0383737 0.036414 0.0344904 0.0326102 0.0307805 0.0290013 0.0272726 0.0255944 0.0239667 0.0223894 0.0208627 0.019389 0.0179707 0.0166079 0.0153007 0.0140489 0.0128526 0.0117118 0.0106264 0.0095972 0.00862469 0.0077089 0.00684982 0.00604746 0.00530181 0.00461289 0.00398067 0.00340233 0.00287502 0.00239872 0.00197346 0.00159921 0.00127599 0.0010038 0.00078263 0.000599201 0.000440229 0.000305715 0.000195657 0.000110057 4.89144e-05 1.22286e-05 0 0 0.000108583 0.000434334 0.000977251 0.00173734 0.00271459 0.003909 0.00532059 0.00694934 0.00880317 0.01089 0.0132097 0.0157625 0.0185482 0.021567 0.0248187 0.0283033 0.0319331 0.0356202 0.0393647 0.0431664 0.0470254 0.0509417 0.0549152 0.0589461 0.0629543 0.0668595 0.0706619 0.0743615 0.0779583 0.0814521 0.0848432 0.0881313 0.0912733 0.0942257 0.0969886 0.0995618 0.101945 0.10414 0.106144 0.107959 0.109576 0.110987 0.112193 0.113192 0.113985 0.114572 0.114953 0.115129 0.115115 0.114931 0.114576 0.11405 0.113352 0.112484 0.111445 0.110235 0.108884 0.107424 0.105855 0.104176 0.102388 0.10049 0.0984821 0.0963651 0.0941709 0.0919319 0.0896481 0.0873194 0.0849459 0.0825276 0.0800644 0.0775564 0.0750296 0.07251 0.0699976 0.0674925 0.0649946 0.0625039 0.0600204 0.0575442 0.0550918 0.0526799 0.0503084 0.0479774 0.0456868 0.0434367 0.041227 0.0390578 0.0369371 0.0348732 0.0328659 0.0309154 0.0290215 0.0271843 0.0254038 0.02368 0.0220157 0.0204138 0.0188742 0.0173969 0.015982 0.0146295 0.0133392 0.0121113 0.0109464 0.00984516 0.0088075 0.00783346 0.00692305 0.00607625 0.00529308 0.00457353 0.00391453 0.00331303 0.00276901 0.00228249 0.00185345 0.00148191 0.00116785 0.000911285 0.000697702 0.000512598 0.000355971 0.000227821 0.000128149 5.69553e-05 1.42388e-05 0 0 0.000122201 0.000488805 0.00109981 0.00195522 0.00305503 0.00439925 0.00598787 0.00782089 0.00990498 0.0122468 0.0148464 0.0177038 0.0208189 0.0241918 0.0278224 0.0317108 0.0357593 0.0398702 0.0440437 0.0482796 0.0525779 0.0569387 0.061362 0.0658478 0.0703076 0.0746531 0.0788843 0.0830011 0.0870036 0.0908918 0.0946656 0.0983251 0.101822 0.105109 0.108185 0.11105 0.113705 0.11615 0.118384 0.120408 0.122211 0.123786 0.125132 0.126249 0.127137 0.127796 0.128225 0.128426 0.128417 0.128218 0.127828 0.127248 0.126478 0.125517 0.124366 0.123024 0.121526 0.119906 0.118163 0.116299 0.114312 0.112203 0.109971 0.107617 0.105177 0.102687 0.100146 0.0975552 0.0949137 0.0922218 0.0894796 0.086687 0.083873 0.0810666 0.0782679 0.0754769 0.0726934 0.0699176 0.0671495 0.0643889 0.0616546 0.0589651 0.0563203 0.0537203 0.0511651 0.0486546 0.0461889 0.043768 0.041401 0.0390969 0.0368559 0.0346778 0.0325627 0.0305106 0.0285215 0.0265954 0.0247354 0.0229448 0.0212234 0.0195714 0.0179886 0.0164752 0.0150311 0.0136563 0.0123514 0.0111172 0.00995363 0.00886071 0.00783842 0.00688678 0.00600578 0.00519541 0.00445244 0.00377361 0.00315892 0.00260838 0.00212198 0.00169971 0.0013416 0.00104762 0.000802084 0.000589286 0.000409227 0.000261905 0.000147322 6.54763e-05 1.63691e-05 0 0 0.000136239 0.000544956 0.00122615 0.00217982 0.00340597 0.0049046 0.00667571 0.00871929 0.0110406 0.0136449 0.0165321 0.0197023 0.0231555 0.0268916 0.0309107 0.0352128 0.0396901 0.044235 0.0488474 0.0535273 0.0582749 0.0630899 0.0679725 0.0729227 0.0778436 0.0826384 0.0873071 0.0918497 0.0962663 0.100557 0.104721 0.108759 0.112619 0.116246 0.119642 0.122806 0.125738 0.128439 0.130907 0.133144 0.135139 0.136881 0.138371 0.139609 0.140594 0.141326 0.141807 0.142034 0.142031 0.141817 0.141393 0.140759 0.139915 0.138861 0.137596 0.136121 0.134473 0.132691 0.130772 0.128719 0.12653 0.124206 0.121747 0.119152 0.116462 0.113715 0.110913 0.108054 0.105139 0.102168 0.0991415 0.0960585 0.0929514 0.0898524 0.0867613 0.0836782 0.0806032 0.0775361 0.074477 0.0714259 0.0684033 0.0654299 0.0625056 0.0596305 0.0568045 0.0540276 0.0512998 0.0486212 0.0460018 0.0434518 0.0409712 0.03856 0.0362182 0.0339457 0.0317426 0.0296089 0.0275481 0.0255637 0.0236556 0.021824 0.0200687 0.0183898 0.0167873 0.0152611 0.0138121 0.0124408 0.0111473 0.00993156 0.00879359 0.0077334 0.00675098 0.00584633 0.00501606 0.00425676 0.00356846 0.00295113 0.00240478 0.00192942 0.00152504 0.00119164 0.000912347 0.000670296 0.000465483 0.000297909 0.000167574 7.44773e-05 1.86193e-05 0 0 0.000150696 0.000602785 0.00135627 0.00241114 0.0037674 0.00542506 0.00738411 0.00964455 0.01221 0.0150841 0.0182667 0.021758 0.0255579 0.0296664 0.0340835 0.0388093 0.0437256 0.0487144 0.0537758 0.0589097 0.0641162 0.0693952 0.0747468 0.0801708 0.0855621 0.0908153 0.0959304 0.100907 0.105746 0.110447 0.11501 0.119434 0.123663 0.127639 0.131361 0.134829 0.138044 0.141006 0.143714 0.146169 0.148359 0.150272 0.15191 0.153271 0.154356 0.155165 0.155697 0.155953 0.155956 0.155729 0.155271 0.154583 0.153664 0.152515 0.151135 0.149525 0.147726 0.145778 0.143681 0.141436 0.139042 0.136499 0.133808 0.130968 0.128023 0.125016 0.121947 0.118816 0.115622 0.112367 0.10905 0.105671 0.102265 0.0988672 0.0954778 0.0920967 0.0887238 0.0853592 0.082003 0.078655 0.0753379 0.0720744 0.0688644 0.0657079 0.0626049 0.0595555 0.0565596 0.0536173 0.0507396 0.0479378 0.0452119 0.0425619 0.0399877 0.0374895 0.035067 0.0327205 0.0304537 0.0282704 0.0261708 0.0241547 0.0222221 0.0203732 0.0186078 0.016926 0.0153285 0.013816 0.0123885 0.011046 0.00978855 0.00861611 0.00752868 0.00652628 0.00560538 0.00476249 0.00399761 0.00331074 0.00270187 0.00217102 0.00171817 0.00134333 0.00102849 0.000755626 0.00052474 0.000335834 0.000188906 8.39584e-05 2.09896e-05 0 0 0.000165573 0.000662292 0.00149016 0.00264917 0.00413933 0.00596063 0.00811308 0.0105967 0.0134132 0.0165644 0.0200503 0.0238709 0.0280262 0.0325162 0.0373409 0.0425003 0.0478658 0.0533086 0.058829 0.0644267 0.070102 0.0758546 0.0816847 0.0875922 0.0934633 0.0991839 0.104754 0.110174 0.115444 0.120563 0.125532 0.13035 0.134956 0.139286 0.14334 0.147119 0.150623 0.153851 0.156804 0.159482 0.161871 0.16396 0.165748 0.167236 0.168424 0.169311 0.169897 0.170183 0.170193 0.169952 0.169461 0.168718 0.167724 0.16648 0.164984 0.163237 0.161284 0.159168 0.156891 0.15445 0.151848 0.149083 0.146156 0.143067 0.139862 0.13659 0.133249 0.12984 0.126363 0.122818 0.119205 0.115524 0.111813 0.108111 0.104417 0.100732 0.0970553 0.0933871 0.0897274 0.0860763 0.0824584 0.0788984 0.0753965 0.0719525 0.0685665 0.0652384 0.0619683 0.0587563 0.0556144 0.052555 0.049578 0.0466835 0.0438715 0.0411419 0.0384948 0.0359302 0.0334522 0.0310651 0.0287689 0.0265635 0.0244491 0.0224254 0.0204927 0.0186508 0.0169006 0.0152427 0.0136772 0.0122041 0.0108233 0.00953491 0.0083389 0.00723525 0.00622041 0.00529078 0.00444638 0.0036872 0.00301325 0.00242451 0.001921 0.00150271 0.00115051 0.000845276 0.000586997 0.000375678 0.000211319 9.39196e-05 2.34799e-05 0 0 0.00018087 0.000723478 0.00162783 0.00289391 0.00452174 0.00651131 0.00886261 0.0115757 0.0146502 0.0180859 0.0218829 0.026041 0.0305604 0.035441 0.0406828 0.0462858 0.0521106 0.0580176 0.0640069 0.0700784 0.0762321 0.0824681 0.0887863 0.0951868 0.101547 0.107744 0.113779 0.11965 0.125358 0.130904 0.136287 0.141506 0.146496 0.151187 0.155581 0.159677 0.163475 0.166975 0.170178 0.173082 0.175675 0.177943 0.179886 0.181504 0.182796 0.183764 0.184406 0.184723 0.184742 0.184488 0.183963 0.183166 0.182096 0.180755 0.179142 0.177257 0.175147 0.172862 0.1704 0.167762 0.164948 0.161957 0.15879 0.155447 0.151979 0.148436 0.144819 0.141128 0.137362 0.133522 0.129607 0.125619 0.121597 0.117584 0.11358 0.109585 0.105598 0.10162 0.0976504 0.0936898 0.0897647 0.0859021 0.082102 0.0783643 0.0746891 0.0710763 0.067526 0.0640381 0.0606261 0.0573032 0.0540695 0.0509249 0.0478694 0.0449031 0.042026 0.039238 0.0365437 0.0339477 0.03145 0.0290506 0.0267494 0.0245465 0.0224419 0.0204356 0.0185284 0.016721 0.0150134 0.0134057 0.0118978 0.0104898 0.00918161 0.00797326 0.00686115 0.00584165 0.00491478 0.00408053 0.00333891 0.00268991 0.00213353 0.00166977 0.00127842 0.000939247 0.000652255 0.000417443 0.000234812 0.000104361 2.60902e-05 0 0 0.000196586 0.000786343 0.00176927 0.00314537 0.00491465 