<?xml version="1.0"?> 
<VTKFile type="StructuredGrid" version="0.1"> 
<StructuredGrid WholeExtent="0 128 0 128 0 0"> 
<Piece Extent="0 128 0 128 0 0"> 
<PointData>
<DataArray type="Float32" Name="u" format="ascii" NumberOfComponents="1"> 
0 0 0 0 0 0 0 0 0 0 0 0 0 0 0 0 0 0 0 0 0 0 0 0 0 0 0 0 0 0 0 0 0 0 0 0 0 0 0 0 0 0 0 0 0 0 0 0 0 0 0 0 0 0 0 0 0 0 0 0 0 0 0 0 0 0 0 0 0 0 0 0 0 0 0 0 0 0 0 0 0 0 0 0 0 0 0 0 0 0 0 0 0 0 0 0 0 0 0 0 0 0 0 0 0 0 0 0 0 0 0 0 0 0 0 0 0 0 0 0 0 0 0 0 0 0 0 0 0 0 5.8422e-07 2.33688e-06 5.25798e-06 9.34752e-06 1.46055e-05 2.10319e-05 2.86268e-05 3.73901e-05 4.74958e-05 5.91179e-05 7.22564e-05 8.69113e-05 0.000103083 0.00012077 0.000139974 0.000160695 0.000182375 0.000204457 0.000226942 0.00024983 0.00027312 0.000296813 0.000320908 0.000345406 0.000369763 0.000393435 0.000416422 0.000438725 0.000460343 0.000481276 0.000501525 0.000521089 0.000539686 0.000557033 0.00057313 0.000587978 0.000601576 0.000613925 0.000625023 0.000634872 0.000643433 0.000650665 0.000656568 0.000661144 0.000664392 0.000666311 0.000666903 0.000666166 0.000664237 0.00066125 0.000657206 0.000652105 0.000645947 0.000638731 0.000630459 0.000621128 0.000610963 0.000600183 0.000588789 0.000576782 0.00056416 0.000550924 0.000537074 0.000522611 0.000507758 0.000492742 0.000477562 0.000462218 0.00044671 0.000431039 0.000415204 0.000399206 0.000383215 0.000367406 0.000351777 0.000336328 0.00032106 0.000305973 0.000291066 0.00027634 0.000261891 0.000247816 0.000234116 0.00022079 0.000207838 0.00019526 0.000183057 0.000171228 0.000159803 0.000148811 0.000138252 0.000128127 0.000118434 0.000109175 0.000100349 9.19558e-05 8.39831e-05 7.64178e-05 6.92599e-05 6.25095e-05 5.61664e-05 5.02308e-05 4.47026e-05 3.95818e-05 3.48368e-05 3.04363e-05 2.638e-05 2.26682e-05 1.93007e-05 1.62775e-05 1.35988e-05 1.12643e-05 9.21678e-06 7.39866e-06 5.80995e-06 4.45066e-06 3.32078e-06 2.42032e-06 1.74928e-06 1.30766e-06 1.00118e-06 7.35559e-07 5.10805e-07 3.26915e-07 1.8389e-07 8.17288e-08 2.04322e-08 0 0 2.33688e-06 9.34752e-06 2.10319e-05 3.73901e-05 5.8422e-05 8.41277e-05 0.000114507 0.00014956 0.000189983 0.000236472 0.000289026 0.000347645 0.000412331 0.000483081 0.000559898 0.00064278 0.000729499 0.000817829 0.00090777 0.00099932 0.00109248 0.00118725 0.00128363 0.00138162 0.00147905 0.00157374 0.00166569 0.0017549 0.00184137 0.00192511 0.0020061 0.00208436 0.00215874 0.00222813 0.00229252 0.00235191 0.00240631 0.0024557 0.00250009 0.00253949 0.00257373 0.00260266 0.00262627 0.00264458 0.00265757 0.00266525 0.00266761 0.00266466 0.00265695 0.002645 0.00262883 0.00260842 0.00258379 0.00255493 0.00252183 0.00248451 0.00244385 0.00240073 0.00235516 0.00230713 0.00225664 0.0022037 0.0021483 0.00209044 0.00203103 0.00197097 0.00191025 0.00184887 0.00178684 0.00172416 0.00166082 0.00159682 0.00153286 0.00146962 0.00140711 0.00134531 0.00128424 0.00122389 0.00116426 0.00110536 0.00104756 0.000991264 0.000936463 0.000883159 0.000831352 0.000781042 0.000732229 0.000684914 0.000639213 0.000595245 0.00055301 0.000512507 0.000473737 0.0004367 0.000401395 0.000367823 0.000335932 0.000305671 0.00027704 0.000250038 0.000224666 0.000200923 0.00017881 0.000158327 0.000139347 0.000121745 0.00010552 9.06727e-05 7.72027e-05 6.51102e-05 5.4395e-05 4.50573e-05 3.68671e-05 2.95946e-05 2.32398e-05 1.78026e-05 1.32831e-05 9.6813e-06 6.99713e-06 5.23064e-06 4.00471e-06 2.94224e-06 2.04322e-06 1.30766e-06 7.35559e-07 3.26915e-07 8.17288e-08 0 0 5.25798e-06 2.10319e-05 4.73218e-05 8.41277e-05 0.00013145 0.000189287 0.000257641 0.000336511 0.000427462 0.000532061 0.000650308 0.000782202 0.000927744 0.00108693 0.00125977 0.00144625 0.00164137 0.00184012 0.00204248 0.00224847 0.00245808 0.00267132 0.00288817 0.00310865 0.00332787 0.00354091 0.0037478 0.00394853 0.00414309 0.00433149 0.00451373 0.0046898 0.00485717 0.0050133 0.00515817 0.0052918 0.00541419 0.00552532 0.00562521 0.00571385 0.00579089 0.00585598 0.00590912 0.0059503 0.00597953 0.0059968 0.00600213 0.0059955 0.00597813 0.00595125 0.00591486 0.00586895 0.00581352 0.00574858 0.00567413 0.00559016 0.00549866 0.00540165 0.0052991 0.00519103 0.00507744 0.00495832 0.00483367 0.00470349 0.00456982 0.00443467 0.00429805 0.00415996 0.00402039 0.00387935 0.00373684 0.00359285 0.00344894 0.00330665 0.00316599 0.00302695 0.00288954 0.00275375 0.00261959 0.00248706 0.00235702 0.00223034 0.00210704 0.00198711 0.00187054 0.00175734 0.00164752 0.00154106 0.00143823 0.0013393 0.00124427 0.00115314 0.00106591 0.000982575 0.000903139 0.000827602 0.000755848 0.00068776 0.000623339 0.000562585 0.000505498 0.000452077 0.000402323 0.000356236 0.000313531 0.000273926 0.00023742 0.000204014 0.000173706 0.000146498 0.000122389 0.000101379 8.2951e-05 6.65879e-05 5.22895e-05 4.00559e-05 2.9887e-05 2.17829e-05 1.57436e-05 1.17689e-05 9.0106e-06 6.62003e-06 4.59724e-06 2.94224e-06 1.65501e-06 7.35559e-07 1.8389e-07 0 0 9.34752e-06 3.73901e-05 8.41277e-05 0.00014956 0.000233688 0.000336511 0.000458029 0.000598242 0.000759933 0.000945887 0.0011561 0.00139058 0.00164932 0.00193233 0.00223959 0.00257112 0.002918 0.00327132 0.00363108 0.00399728 0.00436992 0.00474901 0.00513453 0.0055265 0.0059162 0.00629496 0.00666276 0.0070196 0.00736549 0.00770042 0.0080244 0.00833743 0.00863497 0.00891253 0.00917009 0.00940765 0.00962522 0.0098228 0.0100004 0.010158 0.0102949 0.0104106 0.0105051 0.0105783 0.0106303 0.010661 0.0106704 0.0106587 0.0106278 0.01058 0.0105153 0.0104337 0.0103352 0.0102197 0.0100873 0.00993806 0.0097754 0.00960293 0.00942063 0.00922851 0.00902656 0.00881479 0.00859319 0.00836177 0.00812413 0.00788387 0.00764098 0.00739548 0.00714736 0.00689663 0.00664327 0.00638729 0.00613145 0.00587849 0.00562843 0.00538125 0.00513696 0.00489556 0.00465705 0.00442143 0.00419025 0.00396506 0.00374585 0.00353264 0.00332541 0.00312417 0.00292892 0.00273965 0.00255685 0.00238098 0.00221204 0.00205003 0.00189495 0.0017468 0.00160558 0.00147129 0.00134373 0.00122269 0.00110816 0.00100015 0.000898663 0.000803693 0.000715241 0.000633308 0.000557389 0.00048698 0.000422081 0.000362691 0.000308811 0.000260441 0.00021758 0.000180229 0.000147469 0.000118379 9.29592e-05 7.12105e-05 5.31325e-05 3.87252e-05 2.79885e-05 2.09226e-05 1.60188e-05 1.17689e-05 8.17288e-06 5.23064e-06 2.94224e-06 1.30766e-06 3.26915e-07 0 0 1.46055e-05 5.8422e-05 0.00013145 0.000233688 0.000365138 0.000525798 0.00071567 0.000934752 0.0011874 0.00147795 0.00180641 0.00217278 0.00257707 0.00301926 0.00349936 0.00401737 0.00455937 0.00511143 0.00567356 0.00624575 0.006828 0.00742032 0.00802271 0.00863515 0.00924407 0.00983587 0.0104106 0.0109681 0.0115086 0.0120319 0.0125381 0.0130272 0.0134921 0.0139258 0.0143283 0.0146995 0.0150394 0.0153481 0.0156256 0.0158718 0.0160858 0.0162666 0.0164142 0.0165286 0.0166098 0.0166578 0.0166726 0.0166542 0.0166059 0.0165313 0.0164302 0.0163026 0.0161487 0.0159683 0.0157615 0.0155282 0.0152741 0.0150046 0.0147197 0.0144195 0.014104 0.0137731 0.0134269 0.0130653 0.0126939 0.0123185 0.011939 0.0115554 0.0111678 0.010776 0.0103801 0.00998014 0.00958038 0.00918514 0.00879442 0.0084082 0.0080265 0.00764932 0.00727665 0.00690849 0.00654727 0.0061954 0.00585289 0.00551974 0.00519595 0.00488151 0.00457643 0.00428071 0.00399508 0.00372028 0.00345631 0.00320317 0.00296086 0.00272937 0.00250872 0.0022989 0.00209958 0.00191045 0.0017315 0.00156274 0.00140416 0.00125577 0.00111756 0.000989544 0.000870921 0.000760906 0.000659501 0.000566705 0.000482517 0.000406939 0.000339969 0.000281608 0.00023042 0.000184966 0.000145249 0.000111266 8.30196e-05 6.05081e-05 4.37321e-05 3.26915e-05 2.50294e-05 1.8389e-05 1.27701e-05 8.17288e-06 4.59724e-06 2.04322e-06 5.10805e-07 0 0 2.10319e-05 8.41277e-05 0.000189287 0.000336511 0.000525798 0.000757149 0.00103056 0.00134604 0.00170985 0.00212825 0.00260123 0.00312881 0.00371098 0.00434773 0.00503908 0.00578502 0.00656549 0.00736046 0.00816993 0.00899388 0.00983233 0.0106853 0.0115527 0.0124346 0.0133115 0.0141637 0.0149912 0.0157941 0.0165724 0.017326 0.0180549 0.0187592 0.0194287 0.0200532 0.0206327 0.0211672 0.0216567 0.0221013 0.0225008 0.0228554 0.0231636 0.0234239 0.0236365 0.0238012 0.0239181 0.0239872 0.0240085 0.023982 0.0239125 0.023805 0.0236594 0.0234758 0.0232541 0.0229943 0.0226965 0.0223606 0.0219947 0.0216066 0.0211964 0.0207641 0.0203098 0.0198333 0.0193347 0.018814 0.0182793 0.0177387 0.0171922 0.0166398 0.0160816 0.0155174 0.0149474 0.0143714 0.0137958 0.0132266 0.012664 0.0121078 0.0115582 0.011015 0.0104784 0.00994822 0.00942806 0.00892138 0.00842817 0.00794843 0.00748217 0.00702938 0.00659006 0.00616422 0.00575292 0.00535721 0.00497709 0.00461256 0.00426363 0.0039303 0.00361256 0.00331041 0.00302339 0.00275104 0.00249336 0.00225034 0.00202199 0.00180831 0.00160929 0.00142494 0.00125413 0.00109571 0.000949682 0.000816055 0.000694825 0.000585992 0.000489555 0.000405516 0.000331804 0.000266352 0.000209158 0.000160224 0.000119548 8.71317e-05 6.29742e-05 4.70758e-05 3.60424e-05 2.64801e-05 1.8389e-05 1.17689e-05 6.62003e-06 2.94224e-06 7.35559e-07 0 0 2.86268e-05 0.000114507 0.000257641 0.000458029 0.00071567 0.00103056 0.00140271 0.00183211 0.0023273 0.00289678 0.00354057 0.00425866 0.00505105 0.00591775 0.00685875 0.00787405 0.00893637 0.0100184 0.0111202 0.0122417 0.0133829 0.0145438 0.0157245 0.0169249 0.0181184 0.0192783 0.0204047 0.0214975 0.0225568 0.0235825 0.0245747 0.0255334 0.0264446 0.0272946 0.0280834 0.0288109 0.0294772 0.0300823 0.0306261 0.0311087 0.0315282 0.0318826 0.0321719 0.0323961 0.0325552 0.0326493 0.0326782 0.0326421 0.0325476 0.0324013 0.0322031 0.0319532 0.0316514 0.0312978 0.0308925 0.0304353 0.0299372 0.029409 0.0288507 0.0282623 0.0276438 0.0269953 0.0263166 0.0256079 0.0248801 0.0241443 0.0234005 0.0226487 0.0218888 0.0211209 0.020345 0.0195611 0.0187776 0.0180029 0.0172371 0.0164801 0.0157319 0.0149927 0.0142622 0.0135406 0.0128326 0.012143 0.0114717 0.0108187 0.0101841 0.00956776 0.00896981 0.00839019 0.00783036 0.00729175 0.00677437 0.00627821 0.00580328 0.00534957 0.00491709 0.00450583 0.00411517 0.00374447 0.00339374 0.00306296 0.00275215 0.00246131 0.00219043 0.00193951 0.001707 0.00149138 0.00129262 0.00111074 0.000945734 0.0007976 0.000666339 0.000551952 0.000451622 0.000362534 0.000284687 0.000218082 0.000162718 0.000118596 8.57149e-05 6.40753e-05 4.90577e-05 3.60424e-05 2.50294e-05 1.60188e-05 9.0106e-06 4.00471e-06 1.00118e-06 0 0 3.73901e-05 0.00014956 0.000336511 0.000598242 0.000934752 0.00134604 0.00183211 0.00239297 0.00303973 0.00378355 0.00462441 0.00556233 0.00659729 0.0077293 0.00895836 0.0102845 0.011672 0.0130853 0.0145243 0.0159891 0.0174797 0.018996 0.0205381 0.022106 0.0236648 0.0251798 0.026651 0.0280784 0.029462 0.0308017 0.0320976 0.0333497 0.0345399 0.0356501 0.0366804 0.0376306 0.0385009 0.0392912 0.0400015 0.0406318 0.0411797 0.0416425 0.0420204 0.0423132 0.0425211 0.0426439 0.0426818 0.0426346 0.0425112 0.04232 0.0420612 0.0417347 0.0413406 0.0408788 0.0403493 0.0397522 0.0391016 0.0384117 0.0376825 0.036914 0.0361062 0.0352591 0.0343728 0.0334471 0.0324965 0.0315355 0.0305639 0.0295819 0.0285895 0.0275865 0.0265731 0.0255492 0.0245258 0.023514 0.0225137 0.021525 0.0205478 0.0195823 0.0186282 0.0176857 0.016761 0.0158602 0.0149834 0.0141305 0.0133016 0.0124967 0.0117157 0.0109586 0.0102274 0.00952392 0.00884816 0.00820011 0.00757979 0.0069872 0.00642232 0.00588517 0.00537492 0.00489074 0.00443264 0.00400061 0.00359465 0.00321477 0.00286096 0.00253323 0.00222956 0.00194792 0.00168832 0.00145076 0.00123524 0.00104176 0.00087032 0.000720917 0.000589874 0.000473514 0.000371837 0.000284842 0.00021253 0.000154901 0.000111954 8.36903e-05 6.40753e-05 4.70758e-05 3.26915e-05 2.09226e-05 1.17689e-05 5.23064e-06 1.30766e-06 0 0 4.75627e-05 0.000190251 0.000428064 0.000761003 0.00118907 0.00171226 0.00233057 0.00304401 0.00386623 0.00481085 0.0058779 0.00706736 0.00837924 0.00981353 0.0113702 0.0130494 0.0148059 0.0165947 0.0184159 0.0202694 0.0221553 0.0240735 0.026024 0.0280069 0.0299783 0.0318943 0.0337548 0.03556 0.0373098 0.0390042 0.0406432 0.0422268 0.0437322 0.0451365 0.0464397 0.0476418 0.0487429 0.0497429 0.0506419 0.0514397 0.0521334 0.0527195 0.0531982 0.0535694 0.0538332 0.0539895 0.0540384 0.0539798 0.0538246 0.0535839 0.0532576 0.0528456 0.0523481 0.051765 0.0510963 0.0503419 0.0495199 0.0486482 0.0477266 0.0467553 0.0457342 0.0446633 0.0435427 0.0423722 0.0411703 0.0399549 0.0387263 0.0374843 0.0362289 0.0349602 0.0336781 0.0323828 0.031088 0.0298077 0.028542 0.0272908 0.0260541 0.024832 0.0236244 0.0224313 0.0212607 0.0201203 0.0190101 0.0179302 0.0168805 0.0158611 0.0148719 0.013913 0.0129867 0.0120955 0.0112393 0.0104182 0.00963214 0.00888111 0.00816513 0.0074842 0.00683729 0.00622335 0.00564239 0.00509442 0.00457942 0.00409741 0.00364837 0.00323231 0.00284668 0.00248892 0.00215903 0.00185702 0.00158287 0.0013366 0.0011182 0.000927677 0.000760394 0.000611727 0.000481676 0.00037024 0.000277421 0.000203217 0.000147629 0.000110657 8.47217e-05 6.22445e-05 4.32254e-05 2.76642e-05 1.55611e-05 6.91606e-06 1.72901e-06 0 0 5.93855e-05 0.000237542 0.00053447 0.000950168 0.00148464 0.00213788 0.00290989 0.00380067 0.00482584 0.006001 0.00732615 0.00880129 0.0104264 0.0122016 0.0141267 0.0162018 0.0183715 0.0205804 0.0228285 0.0251158 0.0274422 0.0298079 0.0322127 0.0346568 0.0370863 0.0394476 0.0417407 0.0439656 0.0461223 0.0482108 0.0502311 0.0521832 0.054039 0.0557704 0.0573775 0.0588602 0.0602186 0.0614526 0.0625623 0.0635476 0.0644045 0.0651292 0.0657214 0.0661814 0.066509 0.0667043 0.0667672 0.0666978 0.0665094 0.0662155 0.065816 0.065311 0.0647003 0.0639841 0.0631623 0.062235 0.0612241 0.0601516 0.0590176 0.057822 0.0565649 0.0552462 0.053866 0.0524242 0.0509433 0.0494456 0.0479313 0.0464003 0.0448525 0.043288 0.0417068 0.040109 0.0385116 0.0369319 0.0353699 0.0338256 0.0322989 0.03079 0.0292988 0.0278253 0.0263792 0.0249702 0.0235984 0.0222638 0.0209663 0.019706 0.0184828 0.0172968 0.016151 0.0150483 0.0139888 0.0129724 0.0119993 0.0110692 0.0101824 0.00933871 0.00853693 0.00777581 0.00705535 0.00637555 0.00573641 0.00513792 0.0045801 0.00406293 0.00358327 0.00313796 0.002727 0.00235039 0.00200814 0.00170024 0.00142669 0.0011875 0.000977016 0.000789609 0.000625274 0.000484014 0.000365828 0.000270715 0.000198677 0.000149712 0.000114623 8.42129e-05 5.84811e-05 3.74279e-05 2.10532e-05 9.35698e-06 2.33925e-06 0 0 7.28585e-05 0.000291434 0.000655727 0.00116574 0.00182146 0.00262291 0.00357007 0.00466294 0.00591857 0.00735398 0.00896916 0.0107641 0.0127389 0.0148934 0.0172277 0.0197418 0.0223689 0.0250424 0.0277621 0.0305282 0.0333405 0.0361992 0.0391042 0.0420555 0.0449888 0.0478399 0.0506087 0.0532953 0.0558996 0.0584216 0.0608614 0.0632189 0.0654603 0.067552 0.0694938 0.0712857 0.0729279 0.0744202 0.0757627 0.0769553 0.0779932 0.0788715 0.0795901 0.0801491 0.0805485 0.0807882 0.0808683 0.0807888 0.0805656 0.0802149 0.0797366 0.0791307 0.0783972 0.0775362 0.0765476 0.0754314 0.0742141 0.0729221 0.0715556 0.0701143 0.0685985 0.0670079 0.0653428 0.063603 0.0618156 0.0600076 0.058179 0.0563299 0.0544602 0.05257 0.0506592 0.0487278 0.0467966 0.0448865 0.0429974 0.0411294 0.0392824 0.0374564 0.0356514 0.0338675 0.0321165 0.0304101 0.0287484 0.0271314 0.0255591 0.0240314 0.0225484 0.0211101 0.0197202 0.0183823 0.0170965 0.0158628 0.0146812 0.0135516 0.0124741 0.0114487 0.0104739 0.00954813 0.00867151 0.00784401 0.00706561 0.00633633 0.00565615 0.00502509 0.00443932 0.00389503 0.00339222 0.00293089 0.00251105 0.00213268 0.00179579 0.00150038 0.00123974 0.00100716 0.000802633 0.000626164 0.000477751 0.000357396 0.000265097 0.000200855 0.000153779 0.000112981 7.84589e-05 5.02137e-05 2.82452e-05 1.25534e-05 3.13836e-06 0 0 8.79817e-05 0.000351927 0.000791835 0.00140771 0.00219954 0.00316734 0.0043111 0.00563083 0.00714442 0.00886979 0.0108069 0.0129559 0.0153166 0.017889 0.0206733 0.0236693 0.0267981 0.0299806 0.0332167 0.0365066 0.0398502 0.0432475 0.0466985 0.0502032 0.0536859 0.0570711 0.0603588 0.0635489 0.0666415 0.0696365 0.072534 0.0753339 0.0779963 0.0804811 0.0827885 0.0849184 0.0868708 0.0886457 0.0902431 0.0916629 0.0928994 0.0939465 0.0948042 0.0954726 0.0959516 0.0962413 0.0963417 0.0962526 0.0959931 0.095582 0.0950193 0.0943049 0.0934389 0.0924212 0.091252 0.0899311 0.0884899 0.0869597 0.0853404 0.0836321 0.0818348 0.0799484 0.077973 0.0759085 0.0737871 0.0716408 0.0694695 0.0672733 0.0650521 0.0628061 0.0605351 0.0582392 0.0559431 0.0536716 0.0514247 0.0492022 0.0470044 0.0448311 0.0426823 0.0405582 0.0384726 0.03644 0.0344601 0.032533 0.0306588 0.0288373 0.0270687 0.0253529 0.0236943 0.0220976 0.0205626 0.0190893 0.0176779 0.0163282 0.0150403 0.0138141 0.012648 0.0115403 0.0104909 0.00949978 0.00856703 0.00769261 0.00687653 0.00611879 0.00541484 0.00476014 0.0041547 0.00359852 0.00309159 0.00263391 0.00222549 0.00186633 0.00154857 0.00126438 0.00101375 0.000796689 0.000613191 0.000463258 0.00034689 0.000264086 0.000202191 0.000148548 0.000103159 6.60215e-05 3.71371e-05 1.65054e-05 4.12634e-06 0 0 0.000104755 0.00041902 0.000942795 0.00167608 0.00261888 0.00377118 0.005133 0.00670432 0.00850339 0.0105484 0.0128395 0.0153765 0.0181595 0.0211885 0.0244635 0.0279844 0.031659 0.035395 0.0391924 0.0430511 0.0469712 0.0509527 0.0549955 0.0590997 0.0631775 0.0671413 0.070991 0.0747266 0.0783481 0.0818555 0.0852489 0.0885282 0.0916467 0.0945579 0.0972618 0.0997582 0.102047 0.104129 0.106003 0.10767 0.109123 0.110354 0.111364 0.112152 0.112719 0.113064 0.113187 0.113089 0.112792 0.112317 0.111664 0.110833 0.109825 0.108639 0.107276 0.105734 0.104052 0.102264 0.100372 0.0983754 0.0962739 0.0940676 0.0917566 0.0893409 0.0868579 0.0843451 0.0818026 0.0792303 0.0766282 0.0739963 0.0713347 0.0686433 0.0659511 0.0632872 0.0606515 0.0580441 0.055465 0.0529141 0.0503915 0.0478971 0.0454476 0.0430597 0.0407334 0.0384686 0.0362654 0.0341237 0.0320436 0.030025 0.0280734 0.026194 0.0243869 0.022652 0.0209894 0.019399 0.0178809 0.0164351 0.0150595 0.0137523 0.0125134 0.0113429 0.0102407 0.00920678 0.00824124 0.00734403 0.00650982 0.00573329 0.00501444 0.00435327 0.00374977 0.00320394 0.0027158 0.00228533 0.0019035 0.00156127 0.00125863 0.000995589 0.000772147 0.000588303 0.000444055 0.000339405 0.000259857 0.000190915 0.00013258 8.48513e-05 4.77289e-05 2.12128e-05 5.30321e-06 0 0 0.000123179 0.000492714 0.00110861 0.00197086 0.00307946 0.00443443 0.00603575 0.00788343 0.00999548 0.0123899 0.0150668 0.018026 0.0212677 0.0247917 0.0285982 0.032687 0.0369517 0.0412857 0.045689 0.0501617 0.0547036 0.0593148 0.0639953 0.0687451 0.0734637 0.0780504 0.0825052 0.0868283 0.0910194 0.0950787 0.0990062 0.102802 0.106412 0.109782 0.112913 0.115805 0.118458 0.12087 0.123044 0.124978 0.126664 0.128095 0.129269 0.130187 0.130849 0.131255 0.131405 0.131299 0.130962 0.130419 0.129671 0.128716 0.127556 0.12619 0.124618 0.122841 0.120899 0.118836 0.116651 0.114344 0.111916 0.109366 0.106694 0.1039 0.101028 0.0981208 0.0951784 0.092201 0.0891884 0.0861407 0.0830579 0.0799399 0.0768205 0.0737332 0.0706781 0.067655 0.0646642 0.0617054 0.0587788 0.0558844 0.0530415 0.0502695 0.0475684 0.0449382 0.0423789 0.0398906 0.0374732 0.0351267 0.0328574 0.0306717 0.0285695 0.0265508 0.0246157 0.0227641 0.020996 0.0193115 0.0177083 0.0161842 0.0147392 0.0133733 0.0120865 0.0108788 0.00975027 0.00870081 0.00772427 0.00681448 0.00597144 0.00519514 0.00448558 0.00384278 0.00326671 0.0027574 0.00230453 0.00189782 0.00153727 0.00122287 0.00095462 0.000732529 0.000556594 0.000426813 0.000326779 0.000240082 0.000166724 0.000106703 6.00206e-05 2.66758e-05 6.66895e-06 0 0 0.000143252 0.000573009 0.00128927 0.00229204 0.00358131 0.00515708 0.00701936 0.00916815 0.0116207 0.0143943 0.0174889 0.0209045 0.0246411 0.0286988 0.0330775 0.0377772 0.0426762 0.0476527 0.0527067 0.0578382 0.0630473 0.0683338 0.0736979 0.0791395 0.0845444 0.0897984 0.0949016 0.0998539 0.104655 0.109306 0.113806 0.118155 0.122291 0.126154 0.129744 0.133059 0.136101 0.13887 0.141364 0.143585 0.145523 0.147168 0.148519 0.149578 0.150343 0.150816 0.150995 0.150882 0.150504 0.14989 0.14904 0.147954 0.146632 0.145074 0.14328 0.14125 0.139032 0.136675 0.134177 0.131539 0.12876 0.125842 0.122784 0.119586 0.116297 0.112968 0.109597 0.106185 0.102733 0.0992392 0.0957047 0.0921292 0.0885514 0.0850097 0.0815042 0.078035 0.0746019 0.0712051 0.0678444 0.06452 0.0612541 0.0580691 0.054965 0.0519418 0.0489994 0.046138 0.0433574 0.0406578 0.0380463 0.0355305 0.0331103 0.0307857 0.0285567 0.0264233 0.0243855 0.0224434 0.0205943 0.0188359 0.0171681 0.015591 0.0141046 0.0127088 0.0114036 0.0101891 0.00905819 0.00800371 0.00702569 0.00612413 0.00529904 0.00455041 0.00387824 0.00328253 0.00275167 0.00227405 0.00184966 0.00147852 0.00116061 0.000895938 0.000684505 0.000526309 0.000402955 0.000296049 0.000205589 0.000131577 7.40121e-05 3.28943e-05 8.22357e-06 0 0 0.000164976 0.000659905 0.00148479 0.00263962 0.0041244 0.00593914 0.00808383 0.0105585 0.013379 0.0165614 0.0201057 0.0240118 0.0282798 0.0329097 0.0379014 0.0432549 0.0488324 0.0544959 0.0602454 0.0660809 0.0720023 0.0780098 0.0841033 0.0902827 0.0964196 0.102385 0.10818 0.113804 0.119256 0.124538 0.129648 0.134587 0.139286 0.143674 0.147752 0.151521 0.154979 0.158127 0.160965 0.163493 0.165699 0.167573 0.169115 0.170324 0.171201 0.171746 0.171958 0.171837 0.171417 0.170728 0.169771 0.168546 0.167052 0.165291 0.163261 0.160963 0.158452 0.15578 0.152949 0.149958 0.146808 0.143498 0.140028 0.136399 0.132666 0.128886 0.125058 0.121183 0.117261 0.113292 0.109275 0.105211 0.101144 0.0971166 0.0931301 0.089184 0.0852783 0.0814131 0.0775883 0.073804 0.0700856 0.0664587 0.0629233 0.0594793 0.0561269 0.0528659 0.0496964 0.0466183 0.0436402 0.0407706 0.0380095 0.0353568 0.0328126 0.0303768 0.0280495 0.0258307 0.0237176 0.0217075 0.0198003 0.0179961 0.0162949 0.0146966 0.0132013 0.011809 0.0105116 0.00930097 0.0081772 0.00714025 0.00619013 0.00532683 0.00455036 0.00386072 0.00324491 0.00268994 0.00219582 0.00176254 0.00139011 0.00107853 0.000827788 0.000637893 0.000488386 0.000358815 0.000249177 0.000159473 8.97036e-05 3.98683e-05 9.96707e-06 0 0 0.000187912 0.000751648 0.00169121 0.00300659 0.0046978 0.00676483 0.00920769 0.0120264 0.0152351 0.018848 0.0228651 0.0272864 0.032112 0.0373417 0.0429757 0.0490139 0.0553014 0.0616835 0.06816 0.0747311 0.0813967 0.0881568 0.0950114 0.101961 0.108861 0.115569 0.122085 0.128408 0.134539 0.140478 0.146225 0.15178 0.157064 0.162001 0.166589 0.170829 0.174722 0.178266 0.181462 0.184311 0.186798 0.188913 0.190653 0.192021 0.193015 0.193636 0.193883 0.193757 0.193293 0.192527 0.19146 0.190091 0.188421 0.186448 0.184174 0.181598 0.178781 0.175784 0.172607 0.16925 0.165712 0.161994 0.158096 0.154018 0.149823 0.145573 0.14127 0.136913 0.132501 0.128035 0.123516 0.118942 0.114364 0.10983 0.105342 0.100898 0.0964984 0.0921439 0.0878341 0.0835691 0.0793777 0.0752887 0.0713022 0.0674181 0.0636364 0.0599571 0.0563803 0.052906 0.0495437 0.0463033 0.0431848 0.040188 0.0373132 0.0345601 0.0319289 0.0294196 0.027029 0.0247543 0.0225953 0.0205522 0.0186249 0.0168133 0.0151176 0.0135377 0.0120644 0.0106888 0.00941086 0.00823052 0.0071478 0.00616271 0.00527524 0.0044854 0.0037788 0.00314107 0.00257218 0.00207216 0.001641 0.00127869 0.000985239 0.000760648 0.000582371 0.000427865 0.000297128 0.000190162 0.000106966 4.75405e-05 1.18851e-05 0 0 0.000211622 0.000846487 0.0019046 0.00338595 0.00529054 0.00761838 0.0103695 0.0135438 0.0171534 0.0212105 0.0257149 0.0306667 0.0360658 0.0419124 0.0482063 0.0549477 0.0619641 0.0690834 0.0763055 0.0836305 0.0910583 0.098589 0.106222 0.113959 0.12164 0.129106 0.136359 0.143398 0.150223 0.156834 0.163231 0.169414 0.175297 0.180793 0.185903 0.190626 0.194962 0.198912 0.202475 0.205651 0.208426 0.210787 0.212732 0.214262 0.215377 0.216076 0.216361 0.21623 0.215724 0.214882 0.213704 0.212189 0.210339 0.208153 0.205631 0.202773 0.199646 0.196318 0.192789 0.189058 0.185126 0.180993 0.176659 0.172124 0.167457 0.162729 0.15794 0.15309 0.148179 0.143207 0.138174 0.133079 0.127979 0.122928 0.117925 0.112972 0.108067 0.103212 0.0984057 0.0936483 0.0889722 0.0844097 0.0799606 0.0756251 0.0714031 0.0672947 0.0632998 0.0594184 0.0556615 0.05204 0.0485541 0.0452035 0.0419885 0.0389088 0.0359647 0.033156 0.0304794 0.0279318 0.025513 0.0232231 0.0210621 0.01903 0.0171267 0.0153524 0.0136968 0.0121498 0.0107116 0.00938195 0.00816098 0.00704867 0.00604502 0.00515001 0.00434792 0.00362298 0.0029752 0.00240458 0.00191111 0.0014948 0.00115565 0.000893659 0.000684208 0.000502683 0.000349086 0.000223415 0.000125671 5.58537e-05 1.39634e-05 0 0 0.000236105 0.000944421 0.00212495 0.00377768 0.00590263 0.00849979 0.0115692 0.0151107 0.0191341 0.0236489 0.028655 0.0341525 0.0401414 0.0466217 0.0535933 0.0610563 0.0688205 0.0766957 0.0846819 0.092779 0.100987 0.109306 0.117736 0.126277 0.134756 0.142998 0.151004 0.158774 0.166307 0.173605 0.180666 0.187491 0.193984 0.200052 0.205694 0.21091 0.215699 0.220063 0.224001 0.227513 0.230583 0.233195 0.23535 0.237047 0.238286 0.239068 0.239392 0.239258 0.23871 0.237791 0.236501 0.23484 0.232808 0.230406 0.227632 0.224487 0.221046 0.217381 0.213494 0.209384 0.205051 0.200495 0.195717 0.190715 0.185568 0.180353 0.175069 0.169716 0.164295 0.158806 0.153248 0.147622 0.141989 0.136408 0.130881 0.125406 0.119985 0.114618 0.109303 0.104042 0.0988692 0.0938215 0.0888986 0.0841005 0.0794271 0.0748785 0.0704546 0.0661556 0.0619935 0.0579808 0.0541174 0.0504033 0.0468385 0.043423 0.0401568 0.0370399 0.0340688 0.0312399 0.0285532 0.0260088 0.0236065 0.0213465 0.0192287 0.0172531 0.0154086 0.013684 0.0120793 0.0105945 0.00922968 0.00798473 0.00685968 0.00585455 0.00495225 0.00413569 0.00340487 0.0027598 0.00220046 0.00172688 0.00133903 0.00103693 0.000793897 0.000583271 0.000405049 0.000259232 0.000145818 6.48079e-05 1.6202e-05 0 0 0.000261362 0.00104545 0.00235226 0.0041818 0.00653406 0.00940904 0.0128068 0.0167272 0.0211771 0.0261632 0.0316855 0.037744 0.0443386 0.0514695 0.0591366 0.0673398 0.0758707 0.0845204 0.0932891 0.102177 0.111183 0.120309 0.129553 0.138916 0.14821 0.157244 0.166019 0.174535 0.182792 0.19079 0.198529 0.206009 0.213126 0.219777 0.225962 0.231681 0.236934 0.241721 0.246042 0.249897 0.253268 0.256139 0.258508 0.260377 0.261744 0.262611 0.262976 0.26284 0.262251 0.261255 0.259853 0.258044 0.255828 0.253206 0.250177 0.246742 0.242981 0.238975 0.234723 0.230227 0.225486 0.2205 0.215269 0.209793 0.204157 0.198444 0.192655 0.186791 0.18085 0.174833 0.16874 0.162571 0.156393 0.150272 0.144208 0.138201 0.132252 0.126361 0.120526 0.114749 0.109069 0.103524 0.0981162 0.0928442 0.0877083 0.0827086 0.077845 0.0731175 0.0685398 0.0641256 0.0598747 0.0557872 0.0518631 0.0481025 0.0445052 0.0410714 0.0377971 0.0346787 0.031716 0.0289092 0.0262582 0.023763 0.0214236 0.0192399 0.0171999 0.0152913 0.0135141 0.0118683 0.0103539 0.00897087 0.00771925 0.00659902 0.0055918 0.00467919 0.00386119 0.00313782 0.00250905 0.0019749 0.00153537 0.00119045 0.000911437 0.000669627 0.000465019 0.000297612 0.000167407 7.4403e-05 1.86008e-05 0 0 0.000287393 0.00114957 0.00258654 0.00459829 0.00718483 0.0103462 0.0140823 0.0183932 0.0232824 0.0287534 0.0348063 0.041441 0.0486576 0.056456 0.0648362 0.0737982 0.0831145 0.0925575 0.102127 0.111824 0.121647 0.131596 0.141673 0.151876 0.162001 0.171844 0.181404 0.190682 0.199677 0.20839 0.21682 0.224968 0.232722 0.239968 0.246708 0.252941 0.258666 0.263886 0.268598 0.272803 0.276482 0.279617 0.282206 0.28425 0.28575 0.286704 0.287113 0.286977 0.286347 0.285275 0.283759 0.2818 0.279399 0.276554 0.273267 0.269536 0.265451 0.261097 0.256476 0.251588 0.246432 0.241008 0.235316 0.229357 0.223222 0.217004 0.210701 0.204314 0.197843 0.191288 0.184649 0.177926 0.171191 0.164519 0.157907 0.151357 0.144868 0.138441 0.132075 0.12577 0.11957 0.113518 0.107613 0.101856 0.0962467 0.0907849 0.0854708 0.0803042 0.0753004 0.0704743 0.065826 0.0613554 0.0570625 0.0529474 0.04901 0.0452504 0.0416644 0.0382481 0.0350014 0.0319244 0.0290171 0.0262793 0.0237113 0.0213128 0.0190708 0.0169718 0.015016 0.0132032 0.0115336 0.0100071 0.00862371 0.00738341 0.00626656 0.00525348 0.00434417 0.00353864 0.00283687 0.00223889 0.00174467 0.00135423 0.00103683 0.000761752 0.000528995 0.000338557 0.000190438 8.46391e-05 2.11598e-05 0 0 0.000314198 0.00125679 0.00282778 0.00502717 0.00785495 0.0113111 0.0153957 0.0201087 0.02545 0.0314196 0.0380175 0.0452437 0.0530982 0.061581 0.0706921 0.0804315 0.0905521 0.100807 0.111196 0.12172 0.132377 0.143169 0.154095 0.165155 0.17613 0.186797 0.197159 0.207214 0.216963 0.226405 0.235541 0.24437 0.252772 0.260625 0.267931 0.274688 0.280896 0.286556 0.291668 0.296231 0.300225 0.30363 0.306444 0.308669 0.310303 0.311348 0.311803 0.311668 0.310998 0.309849 0.308219 0.306109 0.30352 0.30045 0.2969 0.292871 0.288456 0.28375 0.278753 0.273466 0.267888 0.262018 0.255859 0.249408 0.242766 0.236031 0.229204 0.222285 0.215274 0.20817 0.200974 0.193686 0.186385 0.179149 0.171978 0.164873 0.157833 0.150859 0.143949 0.137106 0.130375 0.123803 0.11739 0.111136 0.105042 0.0991075 0.093332 0.0877157 0.0822753 0.0770271 0.0719713 0.0671078 0.0624366 0.0579577 0.0536712 0.0495769 0.0456707 0.0419482 0.0384094 0.0350544 0.0318832 0.0288956 0.0260918 0.0234717 0.0210211 0.0187254 0.0165849 0.0145993 0.0127689 0.0110934 0.00957307 0.00820774 0.00697654 0.00585856 0.0048538 0.00396226 0.00318393 0.00251882 0.00196693 0.00152826 0.00117007 0.000859646 0.000596976 0.000382065 0.000214911 9.55162e-05 2.38791e-05 0 0 0.000341777 0.00136711 0.00307599 0.00546843 0.00854441 0.012304 0.0167471 0.0218737 0.0276799 0.0341617 0.0413191 0.049152 0.0576605 0.0668447 0.0767043 0.0872396 0.0981834 0.109269 0.120496 0.131865 0.143375 0.155027 0.16682 0.178755 0.190596 0.202105 0.213284 0.224132 0.234649 0.244834 0.254689 0.264213 0.273276 0.281749 0.289631 0.296922 0.303623 0.309733 0.315252 0.320181 0.324497 0.328177 0.331222 0.333631 0.335405 0.336543 0.337046 0.336914 0.336205 0.334978 0.333233 0.330971 0.328191 0.324893 0.321078 0.316745 0.3119