<?xml version="1.0"?> 
<VTKFile type="StructuredGrid" version="0.1"> 
<StructuredGrid WholeExtent="0 128 0 128 0 0"> 
<Piece Extent="0 128 0 128 0 0"> 
<PointData>
<DataArray type="Float32" Name="u" format="ascii" NumberOfComponents="1"> 
0 0 0 0 0 0 0 0 0 0 0 0 0 0 0 0 0 0 0 0 0 0 0 0 0 0 0 0 0 0 0 0 0 0 0 0 0 0 0 0 0 0 0 0 0 0 0 0 0 0 0 0 0 0 0 0 0 0 0 0 0 0 0 0 0 0 0 0 0 0 0 0 0 0 0 0 0 0 0 0 0 0 0 0 0 0 0 0 0 0 0 0 0 0 0 0 0 0 0 0 0 0 0 0 0 0 0 0 0 0 0 0 0 0 0 0 0 0 0 0 0 0 0 0 0 0 0 0 0 0 1.11153e-07 4.44613e-07 1.00038e-06 1.77845e-06 2.77883e-06 4.00152e-06 5.44651e-06 7.11382e-06 9.04514e-06 1.12822e-05 1.3825e-05 1.66736e-05 1.98279e-05 2.32879e-05 2.70537e-05 3.11252e-05 3.53855e-05 3.97177e-05 4.41219e-05 4.85979e-05 5.31458e-05 5.77657e-05 6.24574e-05 6.7221e-05 7.19448e-05 7.65169e-05 8.09374e-05 8.52062e-05 8.93234e-05 9.32889e-05 9.71028e-05 0.000100765 0.000104232 0.00010746 0.00011045 0.0001132 0.000115712 0.000117985 0.00012002 0.000121815 0.000123386 0.000124747 0.000125898 0.00012684 0.000127571 0.000128092 0.000128403 0.000128504 0.000128438 0.000128248 0.000127933 0.000127494 0.000126931 0.000126243 0.000125431 0.000124495 0.000123473 0.000122407 0.000121294 0.000120136 0.000118933 0.000117684 0.00011639 0.00011505 0.000113681 0.000112299 0.000110904 0.000109496 0.000108074 0.00010664 0.000105192 0.000103732 0.00010225 0.000100741 9.9204e-05 9.76388e-05 9.60456e-05 9.44245e-05 9.27754e-05 9.10983e-05 8.93779e-05 8.75988e-05 8.57611e-05 8.38647e-05 8.19097e-05 7.9896e-05 7.78237e-05 7.56927e-05 7.35003e-05 7.12438e-05 6.89232e-05 6.65385e-05 6.40898e-05 6.15769e-05 5.89999e-05 5.63588e-05 5.36775e-05 5.09798e-05 4.82657e-05 4.55352e-05 4.27883e-05 4.0025e-05 3.72454e-05 3.44493e-05 3.16874e-05 2.90101e-05 2.64174e-05 2.39093e-05 2.14859e-05 1.91471e-05 1.68929e-05 1.47233e-05 1.26805e-05 1.08064e-05 9.10118e-06 7.56475e-06 6.19714e-06 4.99833e-06 3.96833e-06 3.10714e-06 2.3789e-06 1.74777e-06 1.21373e-06 7.76785e-07 4.36942e-07 1.94196e-07 4.85491e-08 0 0 4.44613e-07 1.77845e-06 4.00152e-06 7.11382e-06 1.11153e-05 1.60061e-05 2.17861e-05 2.84553e-05 3.61806e-05 4.51288e-05 5.53001e-05 6.66942e-05 7.93114e-05 9.31515e-05 0.000108215 0.000124501 0.000141542 0.000158871 0.000176488 0.000194392 0.000212583 0.000231063 0.00024983 0.000268884 0.000287779 0.000306068 0.00032375 0.000340825 0.000357294 0.000373156 0.000388411 0.00040306 0.000416928 0.000429841 0.000441799 0.000452802 0.000462849 0.000471941 0.000480079 0.00048726 0.000493545 0.000498989 0.000503594 0.000507358 0.000510283 0.000512368 0.000513612 0.000514017 0.000513753 0.000512992 0.000511734 0.000509977 0.000507724 0.000504973 0.000501725 0.000497979 0.000493893 0.000489626 0.000485177 0.000480546 0.000475732 0.000470737 0.00046556 0.000460201 0.000454725 0.000449197 0.000443616 0.000437983 0.000432297 0.000426559 0.000420769 0.000414926 0.000409001 0.000402965 0.000396816 0.000390555 0.000384183 0.000377698 0.000371102 0.000364393 0.000357512 0.000350395 0.000343044 0.000335459 0.000327639 0.000319584 0.000311295 0.000302771 0.000294001 0.000284975 0.000275693 0.000266154 0.000256359 0.000246308 0.000236 0.000225435 0.00021471 0.000203919 0.000193063 0.000182141 0.000171153 0.0001601 0.000148982 0.000137797 0.00012675 0.00011604 0.00010567 9.56373e-05 8.59436e-05 7.65883e-05 6.75715e-05 5.88933e-05 5.07218e-05 4.32257e-05 3.64047e-05 3.0259e-05 2.47885e-05 1.99933e-05 1.58733e-05 1.24286e-05 9.51562e-06 6.99107e-06 4.85491e-06 3.10714e-06 1.74777e-06 7.76785e-07 1.94196e-07 0 0 1.00038e-06 4.00152e-06 9.00342e-06 1.60061e-05 2.50095e-05 3.60137e-05 4.90186e-05 6.40243e-05 8.14063e-05 0.00010154 0.000124425 0.000150062 0.000178451 0.000209591 0.000243483 0.000280127 0.00031847 0.00035746 0.000397097 0.000437381 0.000478313 0.000519891 0.000562117 0.000604989 0.000647503 0.000688652 0.000728436 0.000766856 0.000803911 0.0008396 0.000873925 0.000906886 0.000938089 0.000967143 0.000994048 0.0010188 0.00104141 0.00106187 0.00108018 0.00109634 0.00111048 0.00112273 0.00113309 0.00114156 0.00114814 0.00115283 0.00115563 0.00115654 0.00115595 0.00115423 0.0011514 0.00114745 0.00114238 0.00113619 0.00112888 0.00112045 0.00111126 0.00110166 0.00109165 0.00108123 0.0010704 0.00105916 0.00104751 0.00103545 0.00102313 0.00101069 0.000998136 0.000985462 0.000972669 0.000959759 0.00094673 0.000933584 0.000920253 0.00090667 0.000892836 0.000878749 0.000864411 0.000849821 0.000834979 0.000819885 0.000804401 0.00078839 0.00077185 0.000754783 0.000737187 0.000719064 0.000700413 0.000681234 0.000661503 0.000641194 0.000620309 0.000598847 0.000576808 0.000554192 0.000530999 0.000507229 0.000483098 0.000458818 0.000434391 0.000409817 0.000385095 0.000360225 0.000335208 0.000310044 0.000285187 0.000261091 0.000237757 0.000215184 0.000193373 0.000172324 0.000152036 0.00013251 0.000114124 9.72577e-05 8.19106e-05 6.80828e-05 5.57742e-05 4.4985e-05 3.5715e-05 2.79643e-05 2.14101e-05 1.57299e-05 1.09235e-05 6.99107e-06 3.93248e-06 1.74777e-06 4.36942e-07 0 0 1.77845e-06 7.11382e-06 1.60061e-05 2.84553e-05 4.44613e-05 6.40243e-05 8.71442e-05 0.000113821 0.000144722 0.000180515 0.0002212 0.000266777 0.000317246 0.000372606 0.000432859 0.000498003 0.000566168 0.000635484 0.00070595 0.000777567 0.000850333 0.000924251 0.000999319 0.00107554 0.00115112 0.00122427 0.001295 0.0013633 0.00142917 0.00149262 0.00155365 0.00161224 0.00166771 0.00171937 0.0017672 0.00181121 0.0018514 0.00188777 0.00192031 0.00194904 0.00197418 0.00199596 0.00201437 0.00202943 0.00204113 0.00204947 0.00205445 0.00205607 0.00205501 0.00205197 0.00204693 0.00203991 0.0020309 0.00201989 0.0020069 0.00199192 0.00197557 0.0019585 0.00194071 0.00192218 0.00190293 0.00188295 0.00186224 0.00184081 0.0018189 0.00179679 0.00177446 0.00175193 0.00172919 0.00170624 0.00168308 0.00165971 0.00163601 0.00161186 0.00158726 0.00156222 0.00153673 0.00151079 0.00148441 0.00145757 0.00143005 0.00140158 0.00137218 0.00134184 0.00131056 0.00127834 0.00124518 0.00121108 0.001176 0.0011399 0.00110277 0.00106462 0.00102544 0.00098523 0.000943998 0.000901741 0.00085884 0.000815677 0.000772251 0.000728563 0.000684613 0.000640401 0.000595926 0.000551189 0.000506998 0.000464161 0.000422678 0.000382549 0.000343774 0.000306353 0.000270286 0.000235573 0.000202887 0.000172903 0.000145619 0.000121036 9.91542e-05 7.99733e-05 6.34933e-05 4.97143e-05 3.80625e-05 2.79643e-05 1.94196e-05 1.24286e-05 6.99107e-06 3.10714e-06 7.76785e-07 0 0 2.77883e-06 1.11153e-05 2.50095e-05 4.44613e-05 6.94709e-05 0.000100038 0.000136163 0.000177845 0.000226128 0.000282055 0.000345625 0.000416839 0.000495696 0.000582197 0.000676341 0.000778129 0.000884638 0.000992944 0.00110305 0.00121495 0.00132865 0.00144414 0.00156144 0.00168053 0.00179862 0.00191292 0.00202343 0.00213016 0.00223308 0.00233222 0.00242757 0.00251913 0.0026058 0.00268651 0.00276124 0.00283001 0.00289281 0.00294963 0.00300049 0.00304538 0.00308465 0.00311868 0.00314746 0.00317099 0.00318927 0.0032023 0.00321008 0.00321261 0.00321096 0.0032062 0.00319833 0.00318736 0.00317327 0.00315608 0.00313578 0.00311237 0.00308683 0.00306016 0.00303235 0.00300341 0.00297333 0.00294211 0.00290975 0.00287626 0.00284203 0.00280748 0.0027726 0.00273739 0.00270186 0.002666 0.00262981 0.00259329 0.00255626 0.00251853 0.0024801 0.00244097 0.00240114 0.00236061 0.00231939 0.00227746 0.00223445 0.00218997 0.00214403 0.00209662 0.00204774 0.0019974 0.00194559 0.00189232 0.00183751 0.00178109 0.00172308 0.00166346 0.00160224 0.00153942 0.001475 0.00140897 0.00134194 0.00127449 0.00120664 0.00113838 0.00106971 0.00100063 0.000931135 0.000861233 0.000792185 0.000725252 0.000660435 0.000597733 0.000537147 0.000478677 0.000422322 0.000368083 0.000317011 0.00027016 0.00022753 0.000189119 0.000154928 0.000124958 9.92083e-05 7.76785e-05 5.94726e-05 4.36942e-05 3.03432e-05 1.94196e-05 1.09235e-05 4.85491e-06 1.21373e-06 0 0 4.00152e-06 1.60061e-05 3.60137e-05 6.40243e-05 0.000100038 0.000144055 0.000196075 0.000256097 0.000325625 0.000406159 0.0004977 0.000600248 0.000713803 0.000838364 0.000973932 0.00112051 0.00127388 0.00142984 0.00158839 0.00174952 0.00191325 0.00207956 0.00224847 0.00241996 0.00259001 0.00275461 0.00291375 0.00306742 0.00321564 0.0033584 0.0034957 0.00362754 0.00375236 0.00386857 0.00397619 0.00407522 0.00416564 0.00424747 0.00432071 0.00438534 0.0044419 0.0044909 0.00453234 0.00456622 0.00459255 0.00461131 0.00462251 0.00462616 0.00462378 0.00461693 0.0046056 0.0045898 0.00456952 0.00454476 0.00451552 0.00448181 0.00444504 0.00440663 0.00436659 0.00432491 0.00428159 0.00423664 0.00419004 0.00414181 0.00409253 0.00404277 0.00399255 0.00394185 0.00389068 0.00383903 0.00378692 0.00373434 0.00368101 0.00362668 0.00357134 0.003515 0.00345764 0.00339928 0.00333991 0.00327954 0.0032176 0.00315356 0.0030874 0.00301913 0.00294875 0.00287626 0.00280165 0.00272494 0.00264601 0.00256478 0.00248124 0.00239539 0.00230723 0.00221677 0.002124 0.00202892 0.00193239 0.00183527 0.00173756 0.00163927 0.00154038 0.0014409 0.00134083 0.00124018 0.00114075 0.00104436 0.000951026 0.000860736 0.000773492 0.000689295 0.000608144 0.000530039 0.000456497 0.000389031 0.000327642 0.000272331 0.000223097 0.00017994 0.00014286 0.000111857 8.56406e-05 6.29196e-05 4.36942e-05 2.79643e-05 1.57299e-05 6.99107e-06 1.74777e-06 0 0 5.44651e-06 2.17861e-05 4.90186e-05 8.71442e-05 0.000136163 0.000196075 0.000266879 0.000348577 0.000443212 0.000552828 0.000677426 0.000817005 0.000971565 0.00114111 0.00132563 0.00152513 0.00173389 0.00194617 0.00216197 0.0023813 0.00260415 0.00283052 0.00306041 0.00329383 0.0035253 0.00374933 0.00396593 0.0041751 0.00437685 0.00457116 0.00475804 0.00493749 0.00510737 0.00526556 0.00541204 0.00554682 0.0056699 0.00578128 0.00588096 0.00596894 0.00604592 0.00611262 0.00616902 0.00621514 0.00625097 0.0062765 0.00629175 0.00629671 0.00629348 0.00628415 0.00626874 0.00624722 0.00621962 0.00618592 0.00614613 0.00610024 0.00605019 0.00599792 0.00594342 0.00588668 0.00582772 0.00576653 0.00570311 0.00563747 0.00557039 0.00550266 0.0054343 0.00536529 0.00529564 0.00522535 0.00515442 0.00508285 0.00501027 0.00493632 0.00486099 0.0047843 0.00470624 0.0046268 0.004546 0.00446382 0.00437952 0.00429234 0.0042023 0.00410937 0.00401358 0.0039149 0.00381336 0.00370894 0.00360151 0.00349095 0.00337724 0.00326039 0.0031404 0.00301727 0.002891 0.00276158 0.0026302 0.00249801 0.00236502 0.00223122 0.00209663 0.00196123 0.00182502 0.00168802 0.00155268 0.00142149 0.00129445 0.00117156 0.00105281 0.000938207 0.000827751 0.000721442 0.000621343 0.000529514 0.000445958 0.000370673 0.00030366 0.000244918 0.000194448 0.00015225 0.000116566 8.56406e-05 5.94726e-05 3.80625e-05 2.14101e-05 9.51562e-06 2.3789e-06 0 0 7.11382e-06 2.84553e-05 6.40243e-05 0.000113821 0.000177845 0.000256097 0.000348577 0.000455284 0.000578889 0.000722061 0.000884801 0.00106711 0.00126898 0.00149042 0.00173143 0.00199201 0.00226467 0.00254194 0.0028238 0.00311027 0.00340133 0.003697 0.00399727 0.00430215 0.00460447 0.00489708 0.00517999 0.0054532 0.0057167 0.00597049 0.00621458 0.00644897 0.00667086 0.00687746 0.00706879 0.00724483 0.00740559 0.00755106 0.00768126 0.00779617 0.00789672 0.00798383 0.0080575 0.00811773 0.00816453 0.00819788 0.0082178 0.00822428 0.00822005 0.00820787 0.00818774 0.00815964 0.00812358 0.00807957 0.00802759 0.00796766 0.00790229 0.00783402 0.00776283 0.00768873 0.00761172 0.0075318 0.00744897 0.00736322 0.00727561 0.00718715 0.00709786 0.00700773 0.00691676 0.00682495 0.0067323 0.00663882 0.00654402 0.00644743 0.00634905 0.00624888 0.00614692 0.00604317 0.00593763 0.00583029 0.00572019 0.00560633 0.00548871 0.00536734 0.00524222 0.00511335 0.00498071 0.00484433 0.00470402 0.0045596 0.00441109 0.00425847 0.00410174 0.00394092 0.00377599 0.00360696 0.00343536 0.00326271 0.003089 0.00291425 0.00273845 0.0025616 0.0023837 0.00220476 0.00202799 0.00185665 0.00169071 0.0015302 0.0013751 0.00122541 0.00108114 0.000942292 0.000811549 0.000691611 0.000582476 0.000484144 0.000396617 0.000319893 0.000253973 0.000198857 0.00015225 0.000111857 7.76785e-05 4.97143e-05 2.79643e-05 1.24286e-05 3.10714e-06 0 0 9.08634e-06 3.63454e-05 8.17771e-05 0.000145381 0.000227158 0.000327108 0.000445231 0.000581526 0.000739267 0.00092173 0.00112891 0.00136082 0.00161744 0.00189878 0.00220485 0.00253563 0.00288167 0.00323347 0.00359105 0.00395441 0.00432353 0.00469844 0.00507911 0.00546556 0.00584876 0.00621968 0.00657833 0.00692471 0.00725881 0.00758063 0.00789018 0.00818745 0.00846893 0.00873107 0.00897389 0.00919738 0.00940154 0.00958637 0.00975188 0.00989805 0.0100261 0.010137 0.010231 0.010308 0.0103679 0.0104108 0.0104367 0.0104455 0.0104409 0.010426 0.0104011 0.0103661 0.0103209 0.0102657 0.0102003 0.0101248 0.0100424 0.0099562 0.0098663 0.00977265 0.00967526 0.00957413 0.00946925 0.00936063 0.00924959 0.00913743 0.00902416 0.00890977 0.00879427 0.00867765 0.00855993 0.00844108 0.00832053 0.00819769 0.00807254 0.0079451 0.00781536 0.00768333 0.007549 0.00741237 0.00727221 0.0071273 0.00697764 0.00682322 0.00666405 0.00650013 0.00633145 0.00615801 0.00597961 0.00579604 0.00560728 0.00541335 0.00521424 0.00500996 0.00480049 0.00458585 0.00436796 0.00414875 0.00392823 0.00370639 0.00348323 0.00325875 0.00303295 0.00280584 0.00258149 0.00236397 0.00215328 0.00194943 0.00175242 0.00156224 0.00137889 0.00120238 0.00103613 0.000883534 0.000744611 0.000619356 0.000507767 0.000409847 0.000325594 0.000255008 0.00019524 0.000143442 9.96124e-05 6.3752e-05 3.58605e-05 1.5938e-05 3.9845e-06 0 0 1.1447e-05 4.5788e-05 0.000103023 0.000183152 0.000286175 0.000412092 0.000560903 0.000732608 0.000930958 0.0011597 0.00141885 0.00170838 0.00202832 0.00237865 0.00275937 0.0031705 0.00360031 0.00403711 0.00448091 0.00493169 0.00538947 0.00585423 0.00632599 0.00680473 0.00727941 0.00773895 0.00818336 0.00861264 0.00902679 0.0094258 0.00980968 0.0101784 0.0105277 0.0108532 0.0111548 0.0114326 0.0116866 0.0119168 0.0121231 0.0123056 0.0124657 0.0126048 0.0127228 0.0128198 0.0128957 0.0129506 0.0129844 0.0129972 0.0129932 0.0129766 0.0129474 0.0129056 0.0128512 0.0127842 0.0127045 0.0126123 0.0125114 0.0124057 0.0122953 0.01218 0.01206 0.0119352 0.0118056 0.0116713 0.0115337 0.0113947 0.0112541 0.011112 0.0109684 0.0108233 0.0106766 0.0105285 0.010378 0.0102247 0.0100685 0.00990931 0.00974723 0.00958222 0.00941429 0.00924344 0.0090682 0.00888707 0.00870007 0.00850719 0.00830844 0.0081038 0.00789329 0.0076769 0.0074544 0.00722554 0.00699033 0.00674878 0.00650086 0.0062466 0.00598599 0.00571902 0.00544808 0.00517554 0.0049014 0.00462566 0.00434832 0.00406938 0.00378885 0.00350671 0.00322796 0.0029576 0.00269563 0.00244203 0.00219683 0.00196 0.00173157 0.00151151 0.00130408 0.0011135 0.000939781 0.000782917 0.000642911 0.000519761 0.000413468 0.000324032 0.000248087 0.000182268 0.000126575 8.10079e-05 4.5567e-05 2.0252e-05 5.063e-06 0 0 1.41958e-05 5.67832e-05 0.000127762 0.000227133 0.000354895 0.000511049 0.000695595 0.000908532 0.00115396 0.00143599 0.0017546 0.00210981 0.00250162 0.00293002 0.00339501 0.0038966 0.0044206 0.00495286 0.00549337 0.00604213 0.00659914 0.0071644 0.0077379 0.00831966 0.00889641 0.00945488 0.00999507 0.010517 0.0110206 0.011506 0.0119731 0.0124219 0.0128472 0.0132437 0.0136115 0.0139505 0.0142608 0.0145422 0.0147949 0.0150189 0.0152157 0.015387 0.0155328 0.0156531 0.0157479 0.0158172 0.015861 0.0158793 0.0158771 0.0158596 0.0158266 0.0157781 0.0157143 0.0156351 0.0155404 0.0154303 0.0153095 0.0151827 0.0150498 0.0149109 0.014766 0.0146151 0.0144581 0.0142951 0.014128 0.0139589 0.0137878 0.0136145 0.0134392 0.0132619 0.0130824 0.0129009 0.0127166 0.0125285 0.0123369 0.0121415 0.0119425 0.0117398 0.0115335 0.0113235 0.0111081 0.0108856 0.010656 0.0104192 0.0101754 0.00992437 0.00966624 0.00940099 0.00912836 0.00884811 0.00856024 0.00826474 0.00796161 0.00765086 0.00733248 0.00700648 0.00667572 0.00634307 0.00600852 0.00567208 0.00533374 0.00499351 0.00465138 0.00430736 0.00396743 0.00363756 0.00331775 0.00300801 0.00270833 0.00241871 0.00213916 0.00186968 0.00161541 0.00138151 0.00116798 0.00097483 0.000802047 0.000649636 0.000517597 0.000405929 0.000310789 0.000228335 0.000158566 0.000101482 5.70837e-05 2.53706e-05 6.34264e-06 0 0 1.73328e-05 6.9331e-05 0.000155995 0.000277324 0.000433319 0.000623979 0.000849305 0.0011093 0.00140828 0.00175057 0.00213618 0.0025651 0.00303734 0.00355289 0.00411176 0.00471394 0.00534255 0.00598072 0.00662844 0.00728571 0.00795254 0.00862892 0.00931486 0.0100103 0.0106998 0.0113675 0.0120135 0.0126378 0.0132404 0.0138212 0.0143804 0.0149179 0.0154274 0.0159028 0.016344 0.0167511 0.017124 0.0174628 0.0177674 0.0180378 0.018276 0.0184838 0.0186611 0.0188081 0.0189246 0.0190108 0.0190665 0.0190918 0.0190926 0.0190749 0.0190386 0.0189838 0.0189103 0.0188184 0.0187078 0.0185787 0.0184366 0.0182869 0.0181298 0.0179653 0.0177932 0.0176137 0.0174266 0.0172321 0.0170325 0.0168302 0.0166251 0.0164172 0.0162067 0.0159934 0.0157773 0.0155585 0.0153361 0.0151092 0.0148777 0.0146417 0.0144012 0.0141562 0.0139067 0.0136526 0.013392 0.013123 0.0128454 0.0125594 0.0122649 0.0119618 0.0116503 0.0113303 0.0110015 0.0106638 0.010317 0.00996124 0.00959648 0.00922273 0.00883998 0.00844823 0.00805089 0.00765134 0.00724959 0.00684563 0.00643948 0.00603112 0.00562056 0.0052078 0.00479988 0.00440383 0.00401965 0.00364735 0.00328692 0.00293836 0.00260168 0.00227688 0.00197011 0.00168756 0.00142922 0.00119509 0.000985177 0.000799472 0.00063798 0.000500699 0.000383348 0.000281643 0.000195586 0.000125175 7.04108e-05 3.12937e-05 7.82342e-06 0 0 2.08578e-05 8.34313e-05 0.000187721 0.000333725 0.000521446 0.000750882 0.00102203 0.0013349 0.00169391 0.00210347 0.00256358 0.00307426 0.00363549 0.00424727 0.00490962 0.00562252 0.00636614 0.00712068 0.00788611 0.00866244 0.00944968 0.0102478 0.0110569 0.0118768 0.0126895 0.0134767 0.0142386 0.014975 0.0156859 0.0163715 0.0170316 0.0176663 0.0182684 0.0188304 0.0193524 0.0198344 0.0202764 0.0206784 0.0210405 0.0213625 0.0216466 0.0218951 0.0221077 0.0222846 0.0224258 0.0225312 0.0226008 0.0226347 0.0226397 0.0226227 0.0225836 0.0225225 0.0224393 0.0223341 0.0222068 0.0220575 0.0218926 0.0217186 0.0215354 0.0213431 0.0211416 0.020931 0.0207113 0.0204824 0.0202472 0.0200084 0.0197661 0.0195202 0.0192708 0.0190178 0.0187613 0.0185012 0.0182366 0.0179666 0.017691 0.0174099 0.0171234 0.0168313 0.0165337 0.0162307 0.0159199 0.0155991 0.0152684 0.0149276 0.0145769 0.0142162 0.0138455 0.0134648 0.0130739 0.0126725 0.0122606 0.0118383 0.0114055 0.0109622 0.0105085 0.0100443 0.00957357 0.00910035 0.0086246 0.00814633 0.00766554 0.00718223 0.00669639 0.00620803 0.00572531 0.00525641 0.00480133 0.00436006 0.0039326 0.00351896 0.00311913 0.00273311 0.0023682 0.00203165 0.00172349 0.00144371 0.0011923 0.000969269 0.000774617 0.000608342 0.000465762 0.000342193 0.000237634 0.000152086 8.55481e-05 3.80214e-05 9.50535e-06 0 0 2.47711e-05 9.90842e-05 0.00022294 0.000396337 0.000619277 0.000891758 0.00121378 0.00158535 0.00201085 0.00249467 0.00303681 0.00363727 0.00429605 0.00501316 0.00578859 0.00662233 0.00749139 0.00837274 0.00926638 0.0101723 0.0110905 0.0120211 0.0129639 0.013919 0.0148655 0.0157826 0.0166703 0.0175286 0.0183574 0.0191568 0.0199268 0.0206673 0.02137 0.0220264 0.0226365 0.0232003 0.0237179 0.0241891 0.0246141 0.0249928 0.0253276 0.0256208 0.0258726 0.0260827 0.0262514 0.0263784 0.026464 0.026508 0.0265183 0.0265028 0.0264614 0.0263942 0.0263011 0.0261822 0.0260374 0.0258667 0.0256777 0.0254776 0.0252665 0.0250444 0.0248112 0.0245671 0.024312 0.0240458 0.023772 0.0234936 0.0232107 0.0229233 0.0226315 0.0223352 0.0220343 0.021729 0.0214182 0.0211007 0.0207767 0.0204461 0.0201089 0.0197651 0.0194147 0.0190578 0.0186917 0.0183141 0.0179248 0.017524 0.0171115 0.0166874 0.0162517 0.0158045 0.0153454 0.0148742 0.0143911 0.0138958 0.0133886 0.0128693 0.012338 0.0117946 0.0112438 0.0106901 0.0101336 0.00957417 0.00901192 0.00844682 0.00787886 0.00730804 0.00674374 0.00619532 0.00566279 0.00514614 0.00464537 0.00416049 0.0036915 0.00323839 0.00280965 0.00241379 0.0020508 0.00172067 0.00142341 0.00115903 0.000927508 0.000728859 0.000558033 0.000409983 0.00028471 0.000182215 0.000102496 4.55537e-05 1.13884e-05 0 0 2.90724e-05 0.00011629 0.000261652 0.000465159 0.000726811 0.00104661 0.00142455 0.00186064 0.0023591 0.00292417 0.00355585 0.00425414 0.00501904 0.00585055 0.00674867 0.00771339 0.00871829 0.00973691 0.0107693 0.0118153 0.0128752 0.0139487 0.015036 0.0161369 0.0172279 0.0182852 0.0193088 0.0202986 0.0212547 0.0221771 0.0230658 0.0239208 0.0247323 0.0254909 0.0261965 0.026849 0.0274485 0.0279949 0.0284884 0.0289288 0.0293189 0.0296611 0.0299557 0.0302024 0.0304014 0.0305526 0.0306561 0.0307117 0.0307286 0.0307154 0.0306722 0.030599 0.0304958 0.0303627 0.0301995 0.0300064 0.0297917 0.0295639 0.0293231 0.0290691 0.0288021 0.028522 0.0282288 0.0279225 0.0276069 0.0272857 0.026959 0.0266267 0.0262889 0.0259455 0.0255965 0.0252419 0.0248807 0.0245117 0.0241349 0.0237503 0.0233579 0.0229577 0.0225497 0.0221339 0.0217075 0.0212678 0.0208148 0.0203484 0.0198686 0.0193755 0.0188691 0.0183494 0.0178161 0.0172691 0.0167084 0.016134 0.0155458 0.014944 0.0143285 0.0136992 0.0130615 0.0124206 0.0117765 0.0111292 0.0104786 0.0098249 0.00916797 0.00850784 0.00785515 0.00722054 0.00660402 0.00600558 0.00542523 0.00486297 0.00431879 0.0037927 0.00329449 0.00283397 0.00241113 0.00202599 0.00167852 0.00136874 0.00109665 0.000862248 0.000660159 0.000485015 0.000336816 0.000215562 0.000121254 5.38905e-05 1.34726e-05 0 0 3.37619e-05 0.000135048 0.000303857 0.000540191 0.000844048 0.00121543 0.00165433 0.00216076 0.00273866 0.00339198 0.00412072 0.00492488 0.00580445 0.00675945 0.00778986 0.00889569 0.0100468 0.0112132 0.0123947 0.0135915 0.0148035 0.0160307 0.0172731 0.0185307 0.0197767 0.0209845 0.0221539 0.0232851 0.0243779 0.0254325 0.0264487 0.0274267 0.0283554 0.0292239 0.0300322 0.0307803 0.0314682 0.0320958 0.0326633 0.0331705 0.0336205 0.034016 0.034357 0.0346437 0.0348759 0.0350536 0.035177 0.0352459 0.0352703 0.0352603 0.0352158 0.0351369 0.0350235 0.0348756 0.0346933 0.0344765 0.0342347 0.0339776 0.0337052 0.0334174 0.0331142 0.0327956 0.0324617 0.0321124 0.031752 0.0313849 0.031011 0.0306303 0.0302429 0.0298487 0.0294477 0.02904 0.0286243 0.0281995 0.0277655 0.0273225 0.0268703 0.026409 0.0259385 0.025459 0.0249673 0.0244603 0.0239382 0.0234009 0.0228483 0.0222806 0.0216976 0.0210995 0.020486 0.019857 0.0192125 0.0185526 0.0178772 0.0171863 0.0164799 0.0157581 0.0150267 0.0142918 0.0135533 0.0128113 0.0120657 0.0113165 0.0105637 0.00980742 0.00905954 0.00833208 0.00762503 0.0069384 0.00627219 0.00562639 0.00500101 0.00439605 0.0038227 0.00329219 0.00280451 0.00235965 0.00195762 0.00159842 0.00128205 0.00100851 0.000772141 0.000567287 0.00039395 0.000252128 0.000141822 6.30319e-05 1.5758e-05 0 0 3.87819e-05 0.000155128 0.000349037 0.00062051 0.000969547 0.00139615 0.00190031 0.00248204 0.00314487 0.00389235 0.00472446 0.00564122 0.00664262 0.00772866 0.00889934 0.0101547 0.0114607 0.0127833 0.0141227 0.0154788 0.0168515 0.018241 0.0196471 0.0210699 0.0224795 0.023846 0.0251695 0.0264498 0.027687 0.0288811 0.0300321 0.03114 0.0321925 0.0331773 0.0340944 0.0349437 0.0357253 0.0364392 0.0370853 0.0376637 0.0381776 0.03863 0.039021 0.0393505 0.0396186 0.0398253 0.0399705 0.0400543 0.0400878 0.0400821 0.0400371 0.0399529 0.0398296 0.039667 0.0394652 0.0392241 0.0389546 0.0386672 0.0383619 0.0380389 0.0376979 0.0373391 0.0369625 0.036568 0.0361605 0.0357449 0.0353212 0.0348894 0.0344495 0.0340014 0.0335452 0.0330809 0.0326073 0.0321231 0.0316283 0.031123 0.0306071 0.0300807 0.0295437 0.0289961 0.0284346 0.027856 0.0272603 0.0266473 0.0260172 0.02537 0.0247055 0.0240239 0.0233251 0.0226089 0.0218755 0.0211247 0.0203566 0.0195712 0.0187685 0.0179484 0.0171178 0.0162832 0.0154446 0.0146022 0.0137558 0.0129055 0.0120512 0.011193 0.0103443 0.00951835 0.00871527 0.00793504 0.00717764 0.00644307 0.00573134 0.00504245 0.00438909 0.00378397 0.00322709 0.00271845 0.00225805 0.00184589 0.00148196 0.00116627 0.000892928 0.000656029 0.000455575 0.000291568 0.000164007 7.28921e-05 1.8223e-05 0 0 4.40746e-05 0.000176299 0.000396672 0.000705194 0.00110187 0.00158669 0.00215966 0.00282078 0.00357306 0.0044195 0.00536012 0.00639491 0.00752386 0.00874699 0.0100643 0.0114757 0.0129434 0.0144291 0.015933 0.017455 0.0189952 0.0205535 0.0221299 0.0237245 0.0253041 0.0268356 0.0283191 0.0297545 0.0311419 0.0324812 0.0337724 0.0350156 0.036197 0.037303 0.0383335 0.0392885 0.0401681 0.0409723 0.041701 0.0423542 0.0429354 0.043448 0.0438918 0.044267 0.0445735 0.0448114 0.0449805 0.045081 0.0451251 0.045125 0.0450807 0.0449923 0.0448596 0.0446828 0.0444618 0.0441966 0.0438991 0.043581 0.0432425 0.0428834 0.0425037 0.0421036 0.041683 0.0412418 0.0407856 0.0403197 0.0398442 0.0393591 0.0388644 0.0383601 0.0378462 0.0373226 0.0367882 0.0362417 0.0356831 0.0351123 0.0345295 0.0339345 0.0333274 0.0327082 0.0320734 0.0314193 0.0307461 0.0300536 0.029342 0.0286112 0.0278611 0.0270919 0.0263035 0.0254959 0.0246691 0.0238231 0.022958 0.0220736 0.0211701 0.0202473 0.0193129 0.0183741 0.017431 0.0164835 0.0155318 0.0145758 0.0136154 0.0126508 0.0116966 0.0107678 0.0098642 0.00898594 0.00813298 0.00730533 0.00650297 0.00572592 0.00498845 0.00430484 0.00367508 0.00309918 0.00257714 0.00210896 0.00169463 0.00133416 0.00102147 0.000750465 0.000521156 0.00033354 0.000187616 8.3385e-05 2.08463e-05 0 0 4.96401e-05 0.000198561 0.000446761 0.000794242 0.001241 0.00178704 0.00243237 0.00317697 0.00402321 0.00497346 0.0060277 0.00718595 0.00844819 0.00981444 0.0112847 0.0128589 0.014495 0.0161505 0.0178256 0.0195203 0.0212345 0.0229683 0.0247216 0.0264944 0.0282504 0.0299533 0.0316029 0.0331994 0.0347427 0.0362328 0.0376697 0.0390534 0.0403688 0.0416009 0.0427495 0.0438148 0.0447967 0.0456952 0.0465103 0.0472421 0.047894 0.0484699 0.0489695 0.0493931 0.0497405 0.0500118 0.050207 0.050326 0.0503823 0.0503892 0.0503467 0.0502549 0.0501137 0.0499231 0.0496832 0.0493939 0.0490682 0.0487192 0.0483467 0.0479509 0.0475317 0.0470891 0.0466231 0.0461338 0.0456271 0.0451092 0.04458 0.0440396 0.0434878 0.0429249 0.0423506 0.0417651 0.0411671 0.0405553 0.0399297 0.0392904 0.0386373 0.0379704 0.0372898 0.0365953 0.0358834 0.0351501 0.0343956 0.0336198 0.0328226 0.0320042 0.0311645 0.0303034 0.0294212 0.0285179 0.0275935 0.0266479 0.0256813 0.0246936 0.0236847 0.0226548 0.021612 0.0205645 0.0195123 0.0184554 0.0173937 0.0163274 0.0152564 0.0141808 0.0131166 0.0120803 0.0110718 0.0100911 0.00913823 0.00821316 0.00731591 0.00644647 0.00562078 0.00485478 0.00414846 0.00350183 0.00291489 0.00238763 0.00192006 0.00151217 0.00115776 0.000850597 0.000590692 0.000378043 0.000212649 9.45108e-05 2.36277e-05 0 0 5.54784e-05 0.000221914 0.000499306 0.000887655 0.00138696 0.00199722 0.00271844 0.00355062 0.00449534 0.0055542 0.0067272 0.00801434 0.00941561 0.010931 0.0125606 0.0143042 0.0161155 0.0179476 0.0198006 0.0216746 0.0235695 0.0254853 0.027422 0.0293796 0.0313185 0.0331989 0.0350208 0.0367843 0.0384893 0.0401358 0.0417238 0.0432534 0.044708 0.0460711 0.0473426 0.0485226 0.049611 0.0506079 0.0515133 0.0523272 0.0530533 0.0536957 0.0542542 0.0547288 0.0551197 0.0554267 0.0556499 0.0557893 0.0558593 0.0558746 0.0558351 0.0557408 0.0555918 0.055388 0.0551293 0.054816 0.054462 0.0540816 0.0536747 0.0532414 0.0527817 0.0522956 0.051783 0.051244 0.0506853 0.0501135 0.0495286 0.0489307 0.0483197 0.0476956 0.0470585 0.0464083 0.0457439 0.0450638 0.0443683 0.0436572 0.0429306 0.0421884 0.0414307 0.0406575 0.0398648 0.0390486 0.0382089 0.0373457 0.0364591 0.035549 0.0346155 0.0336585 0.0326782 0.0316749 0.0306485 0.0295991 0.0285266 0.0274311 0.0263125 0.0251709 0.0240152 0.0228544 0.0216886 0.0205176 0.0193416 0.0181604 0.0169742 0.0157829 0.0146043 0.013456 0.0123381 0.0112505 0.0101934 0.00916657 0.00817015 0.00720409 0.00628609 0.0054338 0.00464725 0.00392641 0.0032713 0.00268191 0.00215825 0.00170031 0.0013018 0.000956425 0.000664184 0.000425078 0.000239106 0.000106269 2.65673e-05 0 0 6.15895e-05 0.000246358 0.000554305 0.000985432 0.00153974 0.00221722 0.00301788 0.00394173 0.00498945 0.00616174 0.00745862 0.00888007 0.0104261 0.0120967 0.0138919 0.0158117 0.0178048 0.0198203 0.021858 0.0239179 0.0260001 0.0281045 0.0302312 0.0323802 0.0345083 0.0365725 0.0385728 0.0405092 0.0423817 0.0441903 0.045935 0.0476157 0.0492146 0.0507135 0.0521126 0.0534118 0.0546111 0.0557105 0.05671 0.0576096 0.0584133 0.0591254 0.0597457 0.0602742 0.060711 0.061056 0.0613092 0.0614707 0.0615562 0.0615812 0.0615458 0.06145 0.0612938 0.0610773 0.0608003 0.0604628 0.0600804 0.0596683 0.0592265 0.058755 0.0582539 0.0577231 0.0571626 0.0565725 0.05596 0.0553325 0.05469 0.0540324 0.0533599 0.0526724 0.0519699 0.0512523 0.0505185 0.0497674 0.0489988 0.0482128 0.0474094 0.0465886 0.0457503 0.0448947 0.0440175 0.0431145 0.0421859 0.0412316 0.0402515 0.0392457 0.0382142 0.037157 0.0360745 0.0349668 0.0338342 0.0326765 0.0314938 0.0302861 0.0290533 0.0277955 0.0265224 0.0252439 0.0239598 0.0226703 0.0213753 0.0200748 0.0187688 0.0174573 0.0161596 0.0148948 0.013663 0.0124642 0.0112984 0.0101656 0.00906569 0.00799879 0.00698436 0.00604191 0.00517143 0.00437291 0.00364637 0.0029918 0.0024092 0.00189857 0.0014536 0.00106795 0.00074163 0.000474643 0.000266987 0.000118661 2.96652e-05 0 0 6.79733e-05 0.000271893 0.00061176 0.00108757 0.00169933 0.00244704 0.00333069 0.00435029 0.00550553 0.00679608 0.00822196 0.00978316 0.0114797 0.0133115 0.0152787 0.0173812 0.0195631 0.0217686 0.0239976 0.0262502 0.0285264 0.030826 0.0331493 0.0354961 0.0378199 0.0400742 0.042259 0.0443743 0.04642 0.0483963 0.050303 0.0521403 0.0538885 0.0555283 0.0570596 0.0584825 0.0597969 0.0610028 0.0621003 0.0630893 0.0639741 0.064759 0.065444 0.0660291 0.0665143 0.0668996 0.067185 0.0673705 0.0674729 0.067509 0.0674789 0.0673825 0.0672199 0.066991 0.0666959 0.0663345 0.0659234 0.0654793 0.065002 0.0644916 0.0639481 0.0633716 0.0627619 0.0621191 0.061