<?xml version="1.0"?> 
<VTKFile type="StructuredGrid" version="0.1"> 
<StructuredGrid WholeExtent="0 128 0 128 0 0"> 
<Piece Extent="0 128 0 128 0 0"> 
<PointData>
<DataArray type="Float32" Name="u" format="ascii" NumberOfComponents="1"> 
0 0 0 0 0 0 0 0 0 0 0 0 0 0 0 0 0 0 0 0 0 0 0 0 0 0 0 0 0 0 0 0 0 0 0 0 0 0 0 0 0 0 0 0 0 0 0 0 0 0 0 0 0 0 0 0 0 0 0 0 0 0 0 0 0 0 0 0 0 0 0 0 0 0 0 0 0 0 0 0 0 0 0 0 0 0 0 0 0 0 0 0 0 0 0 0 0 0 0 0 0 0 0 0 0 0 0 0 0 0 0 0 0 0 0 0 0 0 0 0 0 0 0 0 0 0 0 0 0 0 5.48492e-07 2.19397e-06 4.93643e-06 8.77587e-06 1.37123e-05 1.97457e-05 2.68761e-05 3.51035e-05 4.45909e-05 5.55016e-05 6.78354e-05 8.15925e-05 9.67727e-05 0.000113376 0.000131403 0.000150853 0.000171204 0.000191935 0.000213046 0.000234537 0.000256408 0.000278658 0.000301289 0.000324299 0.00034718 0.000369424 0.000391031 0.000412 0.000432331 0.000452026 0.000471082 0.000489502 0.000507019 0.00052337 0.000538554 0.000552572 0.000565423 0.000577107 0.000587625 0.000596977 0.000605124 0.000612029 0.000617692 0.000622112 0.000625291 0.000627227 0.000627922 0.000627374 0.000625709 0.000623052 0.000619403 0.000614761 0.000609128 0.000602503 0.000594885 0.000586276 0.00057688 0.000566903 0.000556346 0.000545208 0.000533489 0.000521189 0.000508309 0.000494848 0.000481016 0.000467022 0.000452866 0.000438548 0.000424069 0.000409427 0.000394624 0.000379659 0.000364693 0.000349886 0.000335239 0.000320751 0.000306423 0.000292254 0.000278245 0.000264395 0.000250796 0.00023754 0.000224625 0.000212052 0.000199821 0.000187932 0.000176385 0.00016518 0.000154346 0.000143913 0.00013388 0.000124247 0.000115015 0.000106183 9.77509e-05 8.97196e-05 8.20789e-05 7.48193e-05 6.79408e-05 6.14434e-05 5.5327e-05 4.95918e-05 4.42375e-05 3.92644e-05 3.46458e-05 3.03552e-05 2.63927e-05 2.27581e-05 1.94516e-05 1.64731e-05 1.38226e-05 1.15002e-05 9.45421e-06 7.63329e-06 6.03739e-06 4.6665e-06 3.52064e-06 2.5998e-06 1.90397e-06 1.43317e-06 1.09727e-06 8.06158e-07 5.59832e-07 3.58292e-07 2.01539e-07 8.95731e-08 2.23933e-08 0 0 2.19397e-06 8.77587e-06 1.97457e-05 3.51035e-05 5.48492e-05 7.89828e-05 0.000107504 0.000140414 0.000178364 0.000222006 0.000271342 0.00032637 0.000387091 0.000453505 0.000525611 0.00060341 0.000684816 0.00076774 0.000852184 0.000938148 0.00102563 0.00111463 0.00120515 0.0012972 0.00138872 0.0014777 0.00156412 0.001648 0.00172933 0.0018081 0.00188433 0.00195801 0.00202808 0.00209348 0.00215422 0.00221029 0.00226169 0.00230843 0.0023505 0.00238791 0.0024205 0.00244812 0.00247077 0.00248845 0.00250116 0.00250891 0.00251169 0.0025095 0.00250284 0.00249221 0.00247761 0.00245905 0.00243651 0.00241001 0.00237954 0.0023451 0.00230752 0.00226761 0.00222538 0.00218083 0.00213396 0.00208476 0.00203324 0.00197939 0.00192406 0.00186809 0.00181146 0.00175419 0.00169627 0.00163771 0.0015785 0.00151864 0.00145877 0.00139954 0.00134096 0.001283 0.00122569 0.00116902 0.00111298 0.00105758 0.00100319 0.000950158 0.000898498 0.000848207 0.000799283 0.000751727 0.00070554 0.00066072 0.000617385 0.000575651 0.000535519 0.000496988 0.000460059 0.00042473 0.000391004 0.000358878 0.000328316 0.000299277 0.000271763 0.000245774 0.000221308 0.000198367 0.00017695 0.000157058 0.000138583 0.000121421 0.000105571 9.10325e-05 7.78064e-05 6.58924e-05 5.52905e-05 4.60006e-05 3.78169e-05 3.05332e-05 2.41495e-05 1.8666e-05 1.40826e-05 1.03992e-05 7.61589e-06 5.73268e-06 4.38908e-06 3.22463e-06 2.23933e-06 1.43317e-06 8.06158e-07 3.58292e-07 8.95731e-08 0 0 4.93643e-06 1.97457e-05 4.44278e-05 7.89828e-05 0.000123411 0.000177711 0.000241885 0.000315931 0.000401318 0.000499514 0.000610519 0.000734332 0.000870955 0.00102039 0.00118262 0.00135767 0.00154084 0.00172742 0.00191741 0.00211083 0.00230767 0.00250792 0.0027116 0.00291869 0.00312462 0.00332482 0.00351928 0.003708 0.00389098 0.00406823 0.00423974 0.00440552 0.00456317 0.00471033 0.00484699 0.00497314 0.0050888 0.00519397 0.00528863 0.00537279 0.00544611 0.00550826 0.00555922 0.00559901 0.00562762 0.00564505 0.00565129 0.00564636 0.00563138 0.00560747 0.00557462 0.00553285 0.00548215 0.00542253 0.00535397 0.00527648 0.00519192 0.00510213 0.00500711 0.00490687 0.0048014 0.00469071 0.00457478 0.00445363 0.00432914 0.0042032 0.00407579 0.00394693 0.00381662 0.00368484 0.00355162 0.00341693 0.00328223 0.00314897 0.00301715 0.00288676 0.00275781 0.00263029 0.00250421 0.00237956 0.00225717 0.00213786 0.00202162 0.00190847 0.00179839 0.00169139 0.00158746 0.00148662 0.00138912 0.00129522 0.00120492 0.00111822 0.00103513 0.000955644 0.000879758 0.000807476 0.00073871 0.000673374 0.000611468 0.000552991 0.000497943 0.000446326 0.000398138 0.00035338 0.000311812 0.000273197 0.000237534 0.000204823 0.000175064 0.000148258 0.000124404 0.000103501 8.50879e-05 6.86996e-05 5.43365e-05 4.19985e-05 3.16857e-05 2.33982e-05 1.71357e-05 1.28985e-05 9.87543e-06 7.25542e-06 5.03849e-06 3.22463e-06 1.81386e-06 8.06158e-07 2.01539e-07 0 0 8.77587e-06 3.51035e-05 7.89828e-05 0.000140414 0.000219397 0.000315931 0.000430018 0.000561656 0.000713455 0.000888026 0.00108537 0.00130548 0.00154836 0.00181402 0.00210244 0.00241364 0.00273926 0.00307096 0.00340874 0.00375259 0.00410252 0.00445853 0.00482062 0.00518878 0.00555488 0.00591079 0.00625649 0.006592 0.0069173 0.00723241 0.00753732 0.00783203 0.0081123 0.00837392 0.00861686 0.00884115 0.00904676 0.00923372 0.009402 0.00955163 0.00968198 0.00979246 0.00988307 0.0099538 0.0100047 0.0100356 0.0100467 0.010038 0.0100113 0.00996883 0.00991044 0.00983618 0.00974605 0.00964005 0.00951817 0.00938041 0.00923008 0.00907045 0.00890154 0.00872333 0.00853582 0.00833903 0.00813295 0.00791757 0.00769625 0.00747235 0.00724585 0.00701677 0.0067851 0.00655083 0.00631398 0.00607454 0.00583508 0.00559818 0.00536382 0.00513202 0.00490277 0.00467607 0.00445192 0.00423033 0.00401274 0.00380063 0.00359399 0.00339283 0.00319713 0.00300691 0.00282216 0.00264288 0.00246954 0.00230261 0.00214208 0.00198795 0.00184023 0.00169892 0.00156401 0.00143551 0.00131326 0.00119711 0.00108705 0.000983095 0.000885233 0.000793468 0.000707801 0.00062823 0.000554333 0.000485684 0.000422283 0.00036413 0.000311226 0.00026357 0.000221162 0.000184003 0.000151267 0.000122133 9.65982e-05 7.4664e-05 5.63302e-05 4.15967e-05 3.04636e-05 2.29307e-05 1.75563e-05 1.28985e-05 8.95731e-06 5.73268e-06 3.22463e-06 1.43317e-06 3.58292e-07 0 0 1.37123e-05 5.48492e-05 0.000123411 0.000219397 0.000342807 0.000493643 0.000671902 0.000877587 0.00111477 0.00138754 0.00169589 0.00203981 0.00241932 0.0028344 0.00328507 0.00377131 0.0042801 0.00479838 0.00532615 0.00586342 0.00641019 0.00696646 0.00753221 0.00810747 0.00867951 0.00923561 0.00977577 0.0103 0.0108083 0.0113006 0.0117771 0.0122375 0.0126755 0.0130842 0.0134638 0.0138143 0.0141356 0.0144277 0.0146906 0.0149244 0.0151281 0.0153007 0.0154423 0.0155528 0.0156323 0.0156807 0.015698 0.0156843 0.0156427 0.0155763 0.0154851 0.015369 0.0152282 0.0150626 0.0148721 0.0146569 0.014422 0.0141726 0.0139086 0.0136302 0.0133372 0.0130297 0.0127077 0.0123712 0.0120254 0.0116755 0.0113216 0.0109637 0.0106017 0.0102357 0.0098656 0.00949147 0.00911732 0.00874715 0.00838097 0.00801878 0.00766058 0.00730636 0.00695613 0.00660989 0.00626991 0.00593849 0.00561562 0.00530129 0.00499552 0.0046983 0.00440962 0.0041295 0.00385866 0.00359782 0.00334699 0.00310618 0.00287537 0.00265457 0.00244377 0.00224299 0.00205197 0.00187048 0.00169852 0.00153609 0.00138318 0.00123979 0.00110594 0.00098161 0.000866145 0.000758881 0.000659817 0.000568953 0.00048629 0.000411828 0.000345566 0.000287504 0.000236355 0.000190832 0.000150935 0.000116663 8.8016e-05 6.49949e-05 4.75993e-05 3.58292e-05 2.74318e-05 2.01539e-05 1.39958e-05 8.95731e-06 5.03849e-06 2.23933e-06 5.59832e-07 0 0 1.97457e-05 7.89828e-05 0.000177711 0.000315931 0.000493643 0.000710845 0.00096754 0.00126373 0.00160527 0.00199806 0.00244208 0.00293733 0.00348382 0.00408154 0.0047305 0.00543069 0.00616334 0.00690966 0.00766966 0.00844333 0.00923068 0.0100317 0.0108464 0.0116748 0.0124985 0.0132993 0.0140771 0.014832 0.0155639 0.0162729 0.016959 0.0176221 0.0182527 0.0188413 0.0193879 0.0198926 0.0203552 0.0207759 0.0211545 0.0214912 0.0217845 0.022033 0.0222369 0.022396 0.0225105 0.0225802 0.0226052 0.0225855 0.0225255 0.0224299 0.0222985 0.0221314 0.0219286 0.0216901 0.0214159 0.0211059 0.0207677 0.0204085 0.0200285 0.0196275 0.0192056 0.0187628 0.0182991 0.0178145 0.0173166 0.0168128 0.0163032 0.0157877 0.0152665 0.0147394 0.0142065 0.0136677 0.0131289 0.0125959 0.0120686 0.011547 0.0110312 0.0105212 0.0100168 0.00951824 0.00902867 0.00855142 0.00808649 0.00763386 0.00719355 0.00676555 0.00634986 0.00594648 0.00555646 0.00518086 0.00481967 0.00447289 0.00414053 0.00382257 0.00351903 0.0032299 0.00295484 0.0026935 0.00244587 0.00221196 0.00199177 0.0017853 0.00159255 0.00141352 0.00124725 0.00109279 0.000950136 0.000819293 0.000700258 0.000593032 0.000497614 0.000414006 0.000340352 0.000274798 0.000217346 0.000167994 0.000126743 9.35926e-05 6.8543e-05 5.15941e-05 3.95017e-05 2.90217e-05 2.01539e-05 1.28985e-05 7.25542e-06 3.22463e-06 8.06158e-07 0 0 2.68761e-05 0.000107504 0.000241885 0.000430018 0.000671902 0.00096754 0.00131693 0.00172007 0.00218496 0.00271958 0.00332394 0.00399803 0.00474186 0.00555543 0.00643874 0.00739178 0.00838899 0.00940482 0.0104393 0.0114923 0.012564 0.0136543 0.0147631 0.0158906 0.0170118 0.0181018 0.0191605 0.020188 0.0211842 0.0221493 0.023083 0.0239856 0.0248439 0.0256451 0.0263891 0.027076 0.0277057 0.0282783 0.0287936 0.0292519 0.0296511 0.0299894 0.0302669 0.0304835 0.0306393 0.0307341 0.0307682 0.0307413 0.0306597 0.0305295 0.0303507 0.0301233 0.0298473 0.0295226 0.0291494 0.0287275 0.0282671 0.0277783 0.027261 0.0267152 0.026141 0.0255383 0.0249072 0.0242476 0.0235698 0.0228841 0.0221904 0.0214889 0.0207794 0.0200619 0.0193366 0.0186033 0.0178699 0.0171444 0.0164267 0.0157168 0.0150147 0.0143205 0.013634 0.0129554 0.012289 0.0116394 0.0110066 0.0103905 0.00979122 0.00920866 0.00864286 0.00809382 0.00756297 0.00705173 0.00656011 0.00608811 0.00563572 0.00520295 0.0047898 0.00439626 0.00402187 0.00366615 0.0033291 0.00301073 0.00271103 0.00243 0.00216764 0.00192396 0.00169764 0.00148741 0.00129324 0.00111515 0.000953129 0.000807182 0.000677309 0.000563508 0.000463256 0.000374031 0.000295832 0.000228659 0.000172511 0.00012739 9.32946e-05 7.02253e-05 5.37663e-05 3.95017e-05 2.74318e-05 1.75563e-05 9.87543e-06 4.38908e-06 1.09727e-06 0 0 3.51035e-05 0.000140414 0.000315931 0.000561656 0.000877587 0.00126373 0.00172007 0.00224662 0.00285382 0.0035521 0.00434147 0.00522192 0.00619345 0.00725607 0.00840978 0.00965457 0.0109571 0.0122838 0.013635 0.0150104 0.0164101 0.0178341 0.0192825 0.0207551 0.0222195 0.0236432 0.025026 0.026368 0.0276692 0.0289296 0.0301493 0.0313281 0.0324492 0.0334957 0.0344675 0.0353646 0.0361871 0.0369349 0.037608 0.0382065 0.0387279 0.0391698 0.0395323 0.0398152 0.0400186 0.0401425 0.040187 0.0401519 0.0400454 0.0398753 0.0396418 0.0393447 0.0389842 0.0385602 0.0380727 0.0375217 0.0369203 0.0362818 0.0356061 0.0348933 0.0341433 0.0333561 0.0325318 0.0316703 0.030785 0.0298894 0.0289834 0.0280671 0.0271404 0.0262033 0.0252559 0.0242982 0.0233403 0.0223927 0.0214553 0.0205281 0.0196111 0.0187043 0.0178077 0.0169213 0.016051 0.0152025 0.014376 0.0135713 0.0127885 0.0120276 0.0112886 0.0105715 0.00987816 0.00921042 0.0085683 0.00795181 0.00736094 0.00679569 0.00625606 0.00574205 0.00525305 0.00478844 0.00434821 0.00393238 0.00354093 0.00317387 0.0028312 0.00251292 0.00221733 0.00194273 0.00168913 0.00145652 0.0012449 0.00105428 0.000884648 0.00073601 0.00060507 0.000488531 0.000386393 0.000298656 0.000225321 0.000166387 0.000121854 9.17229e-05 7.02253e-05 5.15941e-05 3.58292e-05 2.29307e-05 1.28985e-05 5.73268e-06 1.43317e-06 0 0 4.46527e-05 0.000178611 0.000401874 0.000714443 0.00111632 0.0016075 0.00218798 0.00285777 0.00362966 0.00451644 0.00551811 0.00663467 0.00786613 0.00921247 0.0106737 0.0122498 0.0138987 0.015578 0.0172879 0.0190283 0.0207992 0.0226006 0.0244326 0.026295 0.028147 0.0299473 0.0316961 0.0333933 0.035039 0.0366331 0.0381756 0.0396665 0.0410845 0.0424082 0.0436375 0.0447724 0.045813 0.0467593 0.0476112 0.0483687 0.0490289 0.0495885 0.0500476 0.0504063 0.0506644 0.050822 0.0508791 0.0508358 0.050702 0.0504878 0.0501934 0.0498186 0.0493636 0.0488282 0.0482124 0.0475164 0.0467566 0.0459498 0.0450959 0.0441949 0.0432469 0.0422517 0.0412095 0.0401203 0.0390008 0.0378683 0.0367225 0.0355635 0.0343914 0.0332061 0.0320075 0.0307958 0.029584 0.0283849 0.0271987 0.0260254 0.0248648 0.0237172 0.0225823 0.0214603 0.0203585 0.0192844 0.0182379 0.017219 0.0162278 0.0152642 0.0143283 0.01342 0.0125417 0.0116958 0.0108823 0.0101012 0.00935249 0.00863617 0.00795224 0.00730071 0.00668079 0.00609172 0.00553349 0.00500611 0.00450958 0.00404389 0.00360905 0.00320506 0.00282977 0.00248102 0.00215881 0.00186316 0.00159405 0.00135149 0.00113548 0.000946011 0.000778946 0.000630136 0.00049958 0.000387279 0.000293232 0.00021744 0.000159903 0.000120621 9.23502e-05 6.78491e-05 4.71174e-05 3.01552e-05 1.69623e-05 7.53879e-06 1.8847e-06 0 0 5.57485e-05 0.000222994 0.000501737 0.000891976 0.00139371 0.00200695 0.00273168 0.00356791 0.00453027 0.0056334 0.0068773 0.00826197 0.00978742 0.0114536 0.0132606 0.0152084 0.017245 0.0193186 0.0214292 0.0235768 0.0257614 0.027983 0.0302416 0.0325371 0.0348194 0.0370383 0.0391936 0.0412854 0.0433137 0.0452786 0.0471799 0.0490178 0.0507658 0.0523978 0.0539138 0.0553136 0.0565973 0.057765 0.0588166 0.0597522 0.0605678 0.0612596 0.0618276 0.0622719 0.0625924 0.0627892 0.0628621 0.0628113 0.0626491 0.0623878 0.0620274 0.061568 0.0610095 0.060352 0.0595953 0.0587397 0.0578053 0.0568128 0.055762 0.0546531 0.0534859 0.0522605 0.0509768 0.049635 0.0482558 0.0468601 0.045448 0.0440193 0.0425742 0.0411125 0.0396344 0.0381397 0.0366447 0.0351652 0.0337014 0.0322532 0.0308206 0.0294037 0.0280023 0.0266166 0.0252556 0.0239286 0.0226356 0.0213765 0.0201514 0.0189602 0.0178029 0.0166796 0.0155933 0.0145468 0.0135402 0.0125735 0.0116467 0.0107598 0.00991276 0.00910564 0.00833747 0.00760733 0.00691522 0.00626113 0.00564506 0.00506702 0.00452701 0.00402502 0.0035584 0.00312449 0.0027233 0.00235481 0.00201904 0.00171599 0.00144564 0.00120801 0.000998041 0.000810686 0.000645945 0.000503818 0.000384306 0.000287407 0.000213123 0.000161453 0.000123612 9.08171e-05 6.30675e-05 4.03632e-05 2.27043e-05 1.00908e-05 2.5227e-06 0 0 6.8391e-05 0.000273564 0.000615519 0.00109426 0.00170978 0.00246208 0.00335116 0.00437703 0.00555564 0.00690298 0.00841904 0.0101038 0.0119573 0.0139795 0.0161705 0.0185302 0.0209961 0.0235057 0.026059 0.028656 0.0312968 0.0339813 0.0367095 0.0394815 0.042237 0.0449159 0.0475183 0.0500442 0.0524934 0.0548661 0.0571622 0.0593818 0.0614932 0.0634647 0.0652963 0.0669881 0.0685401 0.0699522 0.0712244 0.0723568 0.0733446 0.0741831 0.0748723 0.0754121 0.0758027 0.076044 0.0761359 0.0760786 0.0758867 0.0755752 0.0751439 0.0745928 0.0739221 0.0731316 0.0722214 0.0711915 0.0700665 0.0688708 0.0676046 0.0662678 0.0648603 0.0633823 0.0618337 0.0602146 0.0585499 0.056865 0.0551599 0.0534344 0.0516887 0.0499227 0.0481365 0.0463299 0.0445225 0.0427336 0.0409633 0.0392116 0.0374784 0.0357638 0.0340677 0.0323902 0.0307423 0.0291353 0.0275691 0.0260437 0.0245592 0.0231154 0.0217125 0.0203504 0.0190328 0.0177633 0.0165419 0.0153687 0.0142435 0.0131665 0.0121376 0.0111569 0.0102231 0.00933529 0.00849339 0.00769742 0.00694738 0.00624326 0.00558507 0.0049728 0.00440324 0.00387316 0.00338258 0.00293149 0.00251988 0.00214777 0.00181514 0.00152201 0.00126235 0.00103018 0.000825488 0.000648275 0.000498541 0.000376288 0.000281513 0.000214219 0.000164011 0.000120498 8.36793e-05 5.35547e-05 3.01245e-05 1.33887e-05 3.34717e-06 0 0 8.25802e-05 0.000330321 0.000743222 0.00132128 0.0020645 0.00297289 0.00404643 0.00528513 0.00670579 0.00832519 0.0101433 0.0121602 0.0143759 0.0167902 0.0194034 0.0222152 0.0251518 0.0281391 0.0311772 0.0342659 0.0374054 0.0405955 0.0438364 0.047128 0.0503996 0.0535804 0.0566704 0.0596696 0.0625781 0.0653957 0.0681226 0.0707587 0.0732665 0.0756087 0.0777852 0.079796 0.0816412 0.0833207 0.0848345 0.0861826 0.0873593 0.088359 0.0891815 0.0898269 0.0902952 0.0905865 0.0907006 0.0906376 0.0904149 0.0900499 0.0895427 0.0888931 0.0881013 0.0871671 0.0860907 0.084872 0.08354 0.0821239 0.0806235 0.079039 0.0773703 0.0756173 0.0737802 0.0718589 0.0698832 0.067883 0.0658582 0.0638089 0.0617351 0.0596367 0.0575138 0.0553663 0.0532174 0.0510901 0.0489845 0.0469005 0.0448382 0.0427975 0.0407785 0.0387811 0.0368186 0.0349044 0.0330385 0.0312208 0.0294513 0.0277301 0.0260571 0.0244324 0.0228604 0.0213454 0.0198875 0.0184867 0.017143 0.0158564 0.0146268 0.0134543 0.0123377 0.0112756 0.010268 0.009315 0.00841653 0.0075726 0.00678323 0.00604839 0.00536427 0.00472703 0.00413667 0.00359318 0.00309657 0.00264683 0.00224398 0.001888 0.00157188 0.00128862 0.00103821 0.000820649 0.00063594 0.000484081 0.000365075 0.000278919 0.000213548 0.000156892 0.000108953 6.97298e-05 3.9223e-05 1.74325e-05 4.35811e-06 0 0 9.8316e-05 0.000393264 0.000884844 0.00157306 0.0024579 0.00353938 0.00481748 0.00629222 0.0079807 0.00990001 0.0120502 0.0144312 0.017043 0.0198857 0.0229592 0.0262635 0.0297123 0.033219 0.0367837 0.0404064 0.044087 0.0478257 0.0516223 0.0554768 0.0593073 0.0630316 0.0666498 0.0701618 0.0735677 0.0768674 0.0800609 0.0831483 0.0860859 0.0888299 0.0913803 0.0937373 0.0959007 0.0978705 0.0996468 0.10123 0.102612 0.103787 0.104755 0.105516 0.10607 0.106417 0.106556 0.106488 0.106234 0.105812 0.105224 0.104469 0.103547 0.102458 0.101203 0.099781 0.098226 0.096572 0.0948189 0.0929668 0.0910157 0.0889655 0.0868163 0.084568 0.0822556 0.0799139 0.077543 0.0751427 0.0727132 0.0702544 0.0677663 0.065249 0.0627294 0.0602347 0.0577649 0.05532 0.0529 0.0505049 0.0481346 0.0457893 0.0434845 0.0412359 0.0390436 0.0369075 0.0348277 0.0328041 0.0308367 0.0289256 0.0270759 0.0252931 0.023577 0.0219277 0.0203451 0.0188294 0.0173804 0.0159981 0.0146812 0.0134282 0.0122391 0.0111139 0.0100525 0.00905506 0.00812149 0.00725181 0.00644151 0.00568609 0.00498555 0.00433988 0.0037491 0.00321318 0.00273215 0.00230599 0.00192663 0.00158601 0.00128411 0.00102094 0.0007965 0.000610789 0.000463807 0.000355554 0.000272221 0.000199999 0.000138888 8.88885e-05 4.99998e-05 2.22221e-05 5.55553e-06 0 0 0.000115598 0.000462394 0.00104039 0.00184958 0.00288996 0.00416154 0.00566432 0.0073983 0.00938038 0.0116275 0.0141396 0.0169167 0.0199588 0.0232659 0.026838 0.0306751 0.0346775 0.0387453 0.0428787 0.0470775 0.0513419 0.0556717 0.060067 0.0645278 0.0689601 0.0732696 0.0774565 0.0815207 0.0854622 0.0892811 0.0929773 0.0965508 0.0999512 0.103128 0.106082 0.108812 0.111319 0.113602 0.115661 0.117498 0.119103 0.120468 0.121594 0.12248 0.123127 0.123534 0.123702 0.123631 0.123343 0.122862 0.122187 0.12132 0.120259 0.119006 0.117559 0.115919 0.114124 0.112215 0.110191 0.108051 0.105796 0.103427 0.100942 0.0983419 0.0956672 0.0929579 0.0902141 0.0874359 0.0846231 0.0817759 0.0788941 0.0759778 0.0730585 0.0701674 0.0673046 0.0644701 0.0616638 0.0588859 0.0561362 0.0534148 0.05074 0.0481299 0.0455846 0.0431041 0.0406884 0.0383374 0.0360513 0.0338299 0.0316795 0.0296063 0.0276103 0.0256915 0.0238499 0.0220855 0.0203982 0.0187882 0.0172537 0.0157932 0.0144066 0.013094 0.0118553 0.0106906 0.00959985 0.00858304 0.00763495 0.00675035 0.00592924 0.00517161 0.00447747 0.00384682 0.00327965 0.00277598 0.0023266 0.00192234 0.00156319 0.00124915 0.000980222 0.00075641 0.00057771 0.000444123 0.000340031 0.000249819 0.000173485 0.000111031 6.24548e-05 2.77577e-05 6.93942e-06 0 0 0.000134428 0.00053771 0.00120985 0.00215084 0.00336069 0.00483939 0.00658695 0.00860336 0.0109048 0.0135075 0.0164115 0.0196167 0.0231231 0.0269308 0.0310398 0.0354499 0.0400474 0.0447181 0.0494621 0.0542793 0.0591699 0.0641337 0.0691707 0.0742811 0.0793579 0.0842944 0.0890905 0.0937463 0.0982617 0.102637 0.106872 0.110966 0.114863 0.118504 0.12189 0.12502 0.127895 0.130514 0.132878 0.134987 0.136831 0.138401 0.139697 0.140719 0.141466 0.14194 0.142139 0.142065 0.141743 0.141199 0.140433 0.139447 0.138238 0.136809 0.135158 0.133285 0.131235 0.129053 0.126739 0.124292 0.121713 0.119001 0.116157 0.113181 0.110118 0.107015 0.103872 0.100688 0.0974648 0.0942011 0.0908971 0.087553 0.0842046 0.0808881 0.0776035 0.0743506 0.0711296 0.0679405 0.0647831 0.0616576 0.058585 0.0555862 0.0526614 0.0498104 0.0470333 0.0443301 0.0417008 0.0391454 0.0366711 0.0342851 0.0319875 0.0297782 0.0276573 0.0256247 0.0236804 0.0218245 0.0200551 0.0183705 0.0167706 0.0152554 0.013825 0.0124793 0.0112183 0.0100421 0.00894459 0.0079198 0.00696772 0.00608835 0.00528169 0.00454774 0.00388649 0.00329796 0.00277179 0.00229761 0.00187544 0.00150527 0.00118711 0.000920944 0.000706783 0.000544626 0.000416979 0.000306352 0.000212744 0.000136156 7.6588e-05 3.40391e-05 8.50978e-06 0 0 0.000154803 0.000619213 0.00139323 0.00247685 0.00387008 0.00557292 0.00758536 0.00990741 0.012554 0.0155402 0.018866 0.0225313 0.0265361 0.0308805 0.0355645 0.040588 0.045822 0.0511373 0.0565339 0.0620118 0.067571 0.0732115 0.0789334 0.0847365 0.0905008 0.0961059 0.101552 0.106839 0.111966 0.116935 0.121744 0.126394 0.13082 0.134956 0.138804 0.142361 0.145629 0.148608 0.151298 0.153698 0.155798 0.157587 0.159065 0.160232 0.161088 0.161633 0.161867 0.161791 0.161433 0.160823 0.159962 0.158849 0.157484 0.155868 0.153999 0.15188 0.149559 0.147086 0.144463 0.141689 0.138765 0.135689 0.132462 0.129084 0.125608 0.122085 0.118516 0.1149 0.111238 0.10753 0.103775 0.0999744 0.0961679 0.092397 0.0886616 0.0849618 0.0812975 0.0776687 0.0740755 0.0705178 0.0670196 0.063605 0.060274 0.0570265 0.0538626 0.0507822 0.0477854 0.0448721 0.0420507 0.0393295 0.0367086 0.0341879 0.0317673 0.0294471 0.027227 0.0251071 0.0230855 0.0211601 0.019331 0.0175981 0.0159615 0.0144211 0.0129769 0.011629 0.0103704 0.00919445 0.00810101 0.00709011 0.00616175 0.00531594 0.00455267 0.00387194 0.00326219 0.00271183 0.00222087 0.00178931 0.00141715 0.00110439 0.000851028 0.000657063 0.000503064 0.000369598 0.000256665 0.000164266 9.23995e-05 4.10664e-05 1.02666e-05 0 0 0.000176313 0.000705251 0.00158681 0.002821 0.00440782 0.00634726 0.00863933 0.011284 0.0142947 0.0176846 0.0214538 0.0256023 0.0301301 0.0350372 0.0403236 0.0459892 0.0518892 0.0578786 0.0639574 0.0701256 0.0763832 0.0827302 0.0891666 0.0956924 0.102174 0.108476 0.114599 0.120544 0.12631 0.131897 0.137305 0.142535 0.147513 0.152165 0.156494 0.160497 0.164176 0.16753 0.170559 0.173263 0.17563 0.177649 0.179317 0.180637 0.181607 0.182228 0.1825 0.182422 0.182028 0.181351 0.180391 0.179148 0.177621 0.175811 0.173718 0.171342 0.168739 0.165966 0.163022 0.159908 0.156624 0.153169 0.149544 0.145748 0.141841 0.137881 0.133868 0.129802 0.125684 0.121512 0.117287 0.11301 0.108725 0.10448 0.100274 0.0961078 0.0919805 0.0878926 0.0838439 0.0798345 0.0758915 0.0720422 0.0682863 0.064624 0.0610553 0.0575802 0.0541986 0.0509106 0.0477256 0.0446532 0.0416934 0.0388461 0.0361115 0.0334894 0.0309798 0.0285829 0.0262963 0.024118 0.0220479 0.020086 0.0182324 0.016487 0.0148498 0.0133208 0.0118923 0.0105566 0.00931372 0.00816361 0.00710629 0.00614175 0.00527001 0.00449105 0.00379208 0.00316029 0.00259568 0.00209826 0.00166802 0.00130496 0.00100909 0.000780396 0.00059749 0.000438973 0.000304842 0.000195099 0.000109743 4.87747e-05 1.21937e-05 0 0 0.000198543 0.000794171 0.00178689 0.00317669 0.00496357 0.00714754 0.0097286 0.0127067 0.0160933 0.0198997 0.0241258 0.0287717 0.0338374 0.0393229 0.0452282 0.0515532 0.0581368 0.0648178 0.071596 0.0784715 0.0854444 0.0925146 0.0996821 0.106947 0.114161 0.121176 0.127992 0.134609 0.141027 0.147246 0.153267 0.159088 0.164629 0.16981 0.17463 0.179089 0.183187 0.186924 0.190301 0.193317 0.195958 0.198211 0.200076 0.201552 0.20264 0.203339 0.20365 0.203573 0.203144 0.2024 0.20134 0.199965 0.198275 0.196269 0.193948 0.191311 0.188422 0.185342 0.182072 0.178612 0.174962 0.171121 0.16709 0.162869 0.158523 0.154117 0.149651 0.145126 0.140541 0.135896 0.131191 0.126427 0.121654 0.116924 0.112237 0.107593 0.102992 0.0984341 0.0939191 0.0894471 0.0850485 0.0807535 0.0765623 0.0724747 0.0684909 0.0646107 0.0608342 0.0571614 0.0536031 0.0501699 0.0468618 0.0436789 0.0406211 0.0376885 0.034881 0.0321987 0.0296391 0.0272 0.0248814 0.0226831 0.0206054 0.018648 0.0168111 0.0150946 0.01349 0.0119886 0.0105905 0.00929557 0.00810391 0.0070155 0.00603033 0.0051484 0.00435571 0.00363826 0.00299605 0.00242908 0.00193735 0.00152086 0.0011796 0.000913585 0.000699464 0.000513892 0.000356869 0.000228396 0.000128473 5.70991e-05 1.42748e-05 0 0 0.000221494 0.000885975 0.00199344 0.0035439 0.00553734 0.00797377 0.0108532 0.0141756 0.01795 0.0221855 0.026882 0.0320395 0.0376581 0.0437378 0.0502784 0.0572802 0.0645649 0.0719548 0.0794497 0.0870496 0.0947546 0.102565 0.11048 0.1185 0.126463 0.134206 0.14173 0.149034 0.156118 0.162983 0.169628 0.176054 0.18217 0.18789 0.193212 0.198136 0.202663 0.206792 0.210524 0.213859 0.21678 0.219274 0.221339 0.222976 0.224185 0.224966 0.225319 0.225244 0.22478 0.223969 0.222809 0.221301 0.219445 0.21724 0.214687 0.211787 0.208606 0.205216 0.201614 0.197802 0.193779 0.189546 0.185101 0.180447 0.175653 0.170793 0.165865 0.160871 0.15581 0.150682 0.145487 0.140225 0.134953 0.129728 0.124549 0.119417 0.114332 0.109293 0.104301 0.0993556 0.0944904 0.0897392 0.0851019 0.0805786 0.0761692 0.0718737 0.0676923 0.0636247 0.0596831 0.0558795 0.0522138 0.048686 0.0452962 0.0420444 0.0389304 0.0359544 0.0331139 0.0304062 0.0278314 0.0253894 0.0230804 0.0209042 0.0188609 0.0169505 0.0151635 0.0134905 0.0119313 0.010486 0.00915464 0.00793718 0.00683363 0.005844 0.0049531 0.00414576 0.00342199 0.00278179 0.00222515 0.00175208 0.00136257 0.00105663 0.000808984 0.000594355 0.000412747 0.000264158 0.000148589 6.60395e-05 1.65099e-05 0 0 0.000245165 0.00098066 0.00220649 0.00392264 0.00612913 0.00882594 0.0120131 0.0156906 0.0198647 0.024542 0.0297223 0.0354057 0.0415921 0.0482817 0.0554743 0.0631699 0.0711735 0.0792896 0.0875184 0.0958598 0.104314 0.112881 0.12156 0.130352 0.13908 0.147567 0.155813 0.163818 0.171583 0.179107 0.186389 0.193432 0.200136 0.206405 0.21224 0.217639 0.222604 0.227134 0.231229 0.234889 0.238097 0.240837 0.243108 0.244911 0.246245 0.24711 0.247506 0.247434 0.246937 0.246058 0.244797 0.243155 0.241131 0.238725 0.235938 0.232769 0.229293 0.225586 0.221648 0.217477 0.213076 0.208442 0.203577 0.198481 0.193231 0.187908 0.18251 0.177037 0.171491 0.16587 0.160175 0.154405 0.148624 0.142893 0.137212 0.131581 0.126 0.12047 0.11499 0.10956 0.104217 0.0989991 0.0939052 0.0889355 0.0840903 0.0793693 0.0747727 0.0703004 0.0659658 0.0617821 0.0577494 0.0538677 0.0501369 0.046557 0.0431282 0.0398502 0.0367206 0.0337364 0.0308979 0.0282049 0.0256575 0.0232556 0.0209993 0.0188885 0.0169129 0.0150621 0.0133361 0.0117349 0.0102585 0.0089068 0.00767992 0.00657784 0.00558423 0.00468278 0.0038735 0.00315638 0.00253142 0.00199863 0.001558 0.00120954 0.00092605 0.000680363 0.000472475 0.000302384 0.000170091 7.55959e-05 1.8899e-05 0 0 0.000269557 0.00107823 0.00242601 0.00431291 0.00673893 0.00970406 0.0132083 0.0172517 0.0218375 0.0269692 0.0326468 0.0388702 0.0456395 0.0529547 0.0608157 0.0692226 0.0779624 0.0868223 0.0958022 0.104902 0.114122 0.123462 0.132922 0.142502 0.152011 0.161257 0.170241 0.178962 0.187421 0.195617 0.203551 0.211222 0.218525 0.225356 0.231713 0.237598 0.24301 0.247949 0.252415 0.256408 0.259909 0.262901 0.265383 0.267355 0.268817 0.269769 0.270211 0.270144 0.269613 0.268667 0.267305 0.265527 0.263333 0.260724 0.257699 0.254258 0.250482 0.246454 0.242173 0.237638 0.232851 0.227811 0.222518 0.216971 0.211258 0.205462 0.199585 0.193625 0.187584 0.18146 0.175255 0.168967 0.162666 0.156418 0.150224 0.144084 0.137997 0.131964 0.125985 0.12006 0.114229 0.108533 0.102972 0.0975457 0.0922541 0.0870974 0.0820756 0.0771886 0.0724511 0.0678778 0.0634687 0.0592238 0.055143 0.0512265 0.0474742 0.043886 0.0404592 0.0371908 0.034081 0.0311295 0.0283366 0.0257021 0.0232261 0.0209085 0.0187382 0.0167037 0.014805 0.0130423 0.0114154 0.00992435 0.0085692 0.00734993 0.00624911 0.00524933 0.00435057 0.00355285 0.00285616 0.00226051 0.00176589 0.0013723 0.00105066 0.000771916 0.000536053 0.000343074 0.000192979 8.57685e-05 2.14421e-05 0 0 0.00029467 0.00117868 0.00265203 0.00471472 0.00736675 0.0106081 0.0144388 0.0188589 0.0238683 0.0294672 0.0356554 0.0424331 0.0498002 0.0577568 0.0663027 0.0754381 0.0849318 0.0945528 0.104301 0.114177 0.124179 0.134309 0.144567 0.154951 0.165257 0.175278 0.185014 0.194466 0.203633 0.212515 0.221112 0.229425 0.237339 0.244742 0.251633 0.258013 0.263881 0.269237 0.274082 0.278415 0.282216 0.285465 0.288163 0.290309 0.291902 0.292944 0.293435 0.293373 0.29281 0.291797 0.290333 0.288418 0.286053 0.283237 0.27997 0.276253 0.272173 0.267819 0.263189 0.258285 0.253106 0.247652 0.241923 0.235919 0.229733 0.223456 0.21709 0.210634 0.204088 0.197452 0.190726 0.183911 0.177079 0.170304 0.163586 0.156926 0.150322 0.143777 0.137288 0.130856 0.124526 0.118342 0.112303 0.106409 0.100661 0.0950581 0.0896009 0.0842891 0.0791389 0.0741664 0.0693715 0.0647543 0.0603147 0.0560527 0.0519685 0.0480618 0.0443298 0.0407694 0.0373806 0.0341634 0.0311178 0.0282438 0.0255414 0.0230106 0.0206392 0.018415 0.016338 0.0144081 0.0126254 0.0109898 0.00950146 0.00816027 0.00694774 0.00584539 0.00485321 0.00397121 0.00319937 0.00253771 0.00198623 0.00154491 0.00118282 0.000869013 0.000603481 0.000386228 0.000217253 9.6557e-05 2.41393e-05 0 0 0.000320503 0.00128201 0.00288453 0.00512805 0.00801258 0.0115381 0.0157047 0.0205122 0.0259571 0.0320358 0.0387482 0.0460944 0.0540743 0.062688 0.0719354 0.0818165 0.0920817 0.102481 0.113015 0.123683 0.134486 0.145422 0.156493 0.167699 0.178818 0.189629 0.200133 0.210329 0.220218 0.2298 0.239074 0.24804 0.256578 0.264564 0.271999 0.278883 0.285216 0.290999 0.29623 0.30091 0.305017 0.30853 0.311448 0.313772 0.315501 0.316636 0.317176 0.317122 0.316527 0.315446 0.31388 0.311827 0