<?xml version="1.0"?> 
<VTKFile type="StructuredGrid" version="0.1"> 
<StructuredGrid WholeExtent="0 128 0 128 0 0"> 
<Piece Extent="0 128 0 128 0 0"> 
<PointData>
<DataArray type="Float32" Name="u" format="ascii" NumberOfComponents="1"> 
0 0 0 0 0 0 0 0 0 0 0 0 0 0 0 0 0 0 0 0 0 0 0 0 0 0 0 0 0 0 0 0 0 0 0 0 0 0 0 0 0 0 0 0 0 0 0 0 0 0 0 0 0 0 0 0 0 0 0 0 0 0 0 0 0 0 0 0 0 0 0 0 0 0 0 0 0 0 0 0 0 0 0 0 0 0 0 0 0 0 0 0 0 0 0 0 0 0 0 0 0 0 0 0 0 0 0 0 0 0 0 0 0 0 0 0 0 0 0 0 0 0 0 0 0 0 0 0 0 0 3.64907e-07 1.45963e-06 3.28416e-06 5.8385e-06 9.12266e-06 1.31366e-05 1.78804e-05 2.3354e-05 2.9664e-05 3.69167e-05 4.51124e-05 5.42509e-05 6.43322e-05 7.53565e-05 8.73235e-05 0.000100233 0.000113744 0.000127512 0.000141539 0.000155824 0.000170367 0.000185168 0.000200227 0.000215545 0.000230791 0.000245636 0.00026008 0.000274123 0.000287765 0.000301006 0.000313846 0.000326286 0.000338154 0.00034928 0.000359665 0.000369309 0.000378211 0.000386371 0.00039379 0.000400468 0.000406377 0.00041149 0.000415808 0.00041933 0.000422057 0.000423988 0.000425123 0.000425463 0.000425081 0.00042405 0.000422372 0.000420045 0.00041707 0.000413447 0.000409176 0.000404257 0.000398812 0.000392967 0.00038672 0.000380072 0.000373023 0.000365573 0.000357721 0.000349468 0.00034094 0.000332265 0.000323443 0.000314473 0.000305355 0.00029609 0.000286678 0.000277118 0.00026751 0.000257954 0.000248449 0.000238997 0.000229595 0.000220246 0.000210948 0.000201702 0.000192569 0.000183608 0.000174822 0.000166208 0.000157768 0.000149502 0.000141409 0.000133489 0.00012577 0.000118278 0.000111014 0.000103977 9.71672e-05 9.0585e-05 8.42301e-05 7.81027e-05 7.22098e-05 6.65585e-05 6.11487e-05 5.59805e-05 5.10539e-05 4.63689e-05 4.19254e-05 3.77235e-05 3.37633e-05 3.00447e-05 2.65678e-05 2.33326e-05 2.03392e-05 1.75874e-05 1.50772e-05 1.28088e-05 1.07625e-05 8.91875e-06 7.27751e-06 5.83879e-06 4.60262e-06 3.56897e-06 2.73785e-06 2.10927e-06 1.61491e-06 1.18646e-06 8.23934e-07 5.27318e-07 2.96616e-07 1.31829e-07 3.29573e-08 0 0 1.45963e-06 5.8385e-06 1.31366e-05 2.3354e-05 3.64907e-05 5.25465e-05 7.15217e-05 9.34161e-05 0.000118656 0.000147667 0.00018045 0.000217004 0.000257329 0.000301426 0.000349294 0.000400934 0.000454976 0.00051005 0.000566157 0.000623296 0.000681468 0.000740672 0.000800909 0.000862179 0.000923163 0.000982543 0.00104032 0.00109649 0.00115106 0.00120402 0.00125539 0.00130514 0.00135261 0.00139712 0.00143866 0.00147723 0.00151284 0.00154548 0.00157516 0.00160187 0.00162551 0.00164596 0.00166323 0.00167732 0.00168823 0.00169595 0.00170049 0.00170185 0.00170032 0.0016962 0.00168949 0.00168018 0.00166828 0.00165379 0.0016367 0.00161703 0.00159525 0.00157187 0.00154688 0.00152029 0.00149209 0.00146229 0.00143088 0.00139787 0.00136376 0.00132906 0.00129377 0.00125789 0.00122142 0.00118436 0.00114671 0.00110847 0.00107004 0.00103182 0.000993798 0.000955986 0.000918382 0.000880984 0.000843793 0.000806808 0.000770274 0.000734434 0.000699287 0.000664833 0.000631074 0.000598008 0.000565636 0.000533957 0.00050308 0.000473113 0.000444055 0.000415907 0.000388669 0.00036234 0.000336921 0.000312411 0.000288839 0.000266234 0.000244595 0.000223922 0.000204216 0.000185476 0.000167702 0.000150894 0.000135053 0.000120179 0.000106271 9.33306e-05 8.13566e-05 7.03494e-05 6.0309e-05 5.12353e-05 4.30501e-05 3.5675e-05 2.911e-05 2.33552e-05 1.84105e-05 1.42759e-05 1.09514e-05 8.43708e-06 6.45964e-06 4.74586e-06 3.29573e-06 2.10927e-06 1.18646e-06 5.27318e-07 1.31829e-07 0 0 3.28416e-06 1.31366e-05 2.95574e-05 5.25465e-05 8.2104e-05 0.00011823 0.000160924 0.000210186 0.000266976 0.000332251 0.000406011 0.000488258 0.00057899 0.000678208 0.000785912 0.000902101 0.0010237 0.00114761 0.00127385 0.00140242 0.0015333 0.00166651 0.00180205 0.0019399 0.00207712 0.00221072 0.00234072 0.00246711 0.00258988 0.00270906 0.00282462 0.00293657 0.00304338 0.00314352 0.00323699 0.00332378 0.00340389 0.00347734 0.00354411 0.00360421 0.00365739 0.00370341 0.00374227 0.00377397 0.00379851 0.00381589 0.00382611 0.00382916 0.00382572 0.00381645 0.00380135 0.00378041 0.00375363 0.00372102 0.00368258 0.00363831 0.00358931 0.0035367 0.00348048 0.00342065 0.00335721 0.00329015 0.00321949 0.00314521 0.00306846 0.00299039 0.00291098 0.00283025 0.0027482 0.00266481 0.0025801 0.00249406 0.00240759 0.00232159 0.00223604 0.00215097 0.00206636 0.00198221 0.00189853 0.00181532 0.00173312 0.00165248 0.0015734 0.00149588 0.00141992 0.00134552 0.00127268 0.0012014 0.00113193 0.0010645 0.000999124 0.000935791 0.000874504 0.000815265 0.000758071 0.000702925 0.000649888 0.000599026 0.000550338 0.000503825 0.000459485 0.00041732 0.000377329 0.000339512 0.000303869 0.000270402 0.00023911 0.000209994 0.000183052 0.000158286 0.000135695 0.000115279 9.68627e-05 8.02687e-05 6.54976e-05 5.25492e-05 4.14235e-05 3.21207e-05 2.46407e-05 1.89834e-05 1.45342e-05 1.06782e-05 7.4154e-06 4.74586e-06 2.66955e-06 1.18646e-06 2.96616e-07 0 0 5.8385e-06 2.3354e-05 5.25465e-05 9.34161e-05 0.000145963 0.000210186 0.000286087 0.000373664 0.000474623 0.000590668 0.000721798 0.000868014 0.00102932 0.0012057 0.00139718 0.00160374 0.0018199 0.0020402 0.00226463 0.00249318 0.00272587 0.00296269 0.00320364 0.00344872 0.00369265 0.00393017 0.00416128 0.00438597 0.00460424 0.0048161 0.00502154 0.00522057 0.00541046 0.00558848 0.00575464 0.00590894 0.00605137 0.00618194 0.00630064 0.00640748 0.00650203 0.00658384 0.00665293 0.00670928 0.00675291 0.0067838 0.00680197 0.0068074 0.00680129 0.0067848 0.00675795 0.00672072 0.00667312 0.00661515 0.00654682 0.00646811 0.006381 0.00628747 0.00618753 0.00608116 0.00596837 0.00584916 0.00572353 0.00559148 0.00545504 0.00531624 0.00517508 0.00503156 0.00488568 0.00473745 0.00458685 0.00443389 0.00428016 0.00412726 0.00397519 0.00382395 0.00367353 0.00352394 0.00337517 0.00322723 0.0030811 0.00293773 0.00279715 0.00265933 0.0025243 0.00239203 0.00226254 0.00213583 0.00201232 0.00189245 0.00177622 0.00166363 0.00155467 0.00144936 0.00134768 0.00124964 0.00115536 0.00106494 0.000978379 0.000895688 0.000816863 0.000741902 0.000670807 0.000603576 0.000540212 0.000480715 0.000425085 0.000373322 0.000325426 0.000281398 0.000241236 0.000204941 0.0001722 0.0001427 0.00011644 9.34207e-05 7.36419e-05 5.71035e-05 4.38057e-05 3.37483e-05 2.58386e-05 1.89834e-05 1.31829e-05 8.43708e-06 4.74586e-06 2.10927e-06 5.27318e-07 0 0 9.12266e-06 3.64907e-05 8.2104e-05 0.000145963 0.000228067 0.000328416 0.000447011 0.00058385 0.000741599 0.000922919 0.00112781 0.00135627 0.00160831 0.00188391 0.00218309 0.00250584 0.0028436 0.00318781 0.00353848 0.0038956 0.00425917 0.0046292 0.00500568 0.00538862 0.00576977 0.00614089 0.00650199 0.00685307 0.00719412 0.00752515 0.00784616 0.00815714 0.00845384 0.008732 0.00899163 0.00923271 0.00945526 0.00965928 0.00984475 0.0100117 0.0101594 0.0102873 0.0103952 0.0104832 0.0105514 0.0105997 0.0106281 0.0106366 0.010627 0.0106013 0.0105593 0.0105011 0.0104268 0.0103362 0.0102294 0.0101064 0.00997031 0.00982418 0.00966801 0.00950181 0.00932558 0.00913931 0.00894302 0.00873669 0.0085235 0.00830663 0.00808607 0.00786182 0.00763388 0.00740226 0.00716695 0.00692795 0.00668775 0.00644885 0.00621124 0.00597491 0.00573989 0.00550615 0.00527371 0.00504255 0.00481421 0.00459021 0.00437054 0.00415521 0.00394421 0.00373755 0.00353522 0.00333723 0.00314425 0.00295696 0.00277535 0.00259942 0.00242918 0.00226462 0.00210575 0.00195257 0.00180525 0.00166396 0.00152872 0.00139951 0.00127635 0.00115922 0.00104814 0.000943088 0.000844082 0.000751118 0.000664196 0.000583316 0.000508479 0.000439684 0.000376931 0.000320221 0.000269063 0.000222969 0.000181938 0.00014597 0.000115065 8.92242e-05 6.84463e-05 5.27318e-05 4.03728e-05 2.96616e-05 2.05983e-05 1.31829e-05 7.4154e-06 3.29573e-06 8.23934e-07 0 0 1.31366e-05 5.25465e-05 0.00011823 0.000210186 0.000328416 0.000472919 0.000643695 0.000840745 0.0010679 0.001329 0.00162405 0.00195303 0.00231596 0.00271283 0.00314365 0.0036084 0.00409478 0.00459045 0.00509541 0.00560966 0.00613321 0.00666605 0.00720818 0.00775961 0.00830847 0.00884289 0.00936287 0.00986842 0.0103595 0.0108362 0.0112985 0.0117463 0.0121735 0.0125741 0.0129479 0.0132951 0.0136156 0.0139094 0.0141764 0.0144168 0.0146296 0.0148136 0.0149691 0.0150959 0.015194 0.0152636 0.0153044 0.0153167 0.0153029 0.0152658 0.0152054 0.0151216 0.0150145 0.0148841 0.0147303 0.0145532 0.0143572 0.0141468 0.0139219 0.0136826 0.0134288 0.0131606 0.0128779 0.0125808 0.0122738 0.0119615 0.0116439 0.011321 0.0109928 0.0106593 0.0103204 0.00997625 0.00963036 0.00928634 0.00894418 0.00860388 0.00826544 0.00792886 0.00759414 0.00726128 0.00693247 0.0066099 0.00629358 0.0059835 0.00567967 0.00538207 0.00509072 0.00480561 0.00452772 0.00425802 0.0039965 0.00374316 0.00349802 0.00326106 0.00303229 0.0028117 0.00259955 0.00239611 0.00220135 0.0020153 0.00183794 0.00166928 0.00150931 0.00135805 0.00121548 0.00108161 0.000956442 0.000839975 0.00073221 0.000633145 0.000542781 0.000461118 0.000387451 0.000321075 0.00026199 0.000210197 0.000165694 0.000128483 9.85627e-05 7.59337e-05 5.81368e-05 4.27127e-05 2.96616e-05 1.89834e-05 1.06782e-05 4.74586e-06 1.18646e-06 0 0 1.78804e-05 7.15217e-05 0.000160924 0.000286087 0.000447011 0.000643695 0.000876141 0.00114435 0.00145353 0.00180892 0.00221051 0.00265829 0.00315228 0.00369247 0.00427885 0.00491144 0.00557345 0.00624811 0.00693542 0.00763538 0.00834798 0.00907324 0.00981114 0.0105617 0.0113087 0.0120362 0.0127439 0.013432 0.0141005 0.0147493 0.0153785 0.015988 0.0165695 0.0171147 0.0176236 0.0180961 0.0185323 0.0189322 0.0192957 0.0196229 0.0199125 0.020163 0.0203746 0.0205472 0.0206808 0.0207754 0.020831 0.0208477 0.0208289 0.0207785 0.0206962 0.0205822 0.0204364 0.0202589 0.0200496 0.0198086 0.0195418 0.0192554 0.0189493 0.0186235 0.0182781 0.0179131 0.0175283 0.0171239 0.0167061 0.016281 0.0158487 0.0154092 0.0149624 0.0145084 0.0140472 0.0135788 0.013108 0.0126397 0.012174 0.0117108 0.0112502 0.0107921 0.0103365 0.0098834 0.00943586 0.00899681 0.00856626 0.00814421 0.00773066 0.0073256 0.00692904 0.00654098 0.00616273 0.00579563 0.00543968 0.00509486 0.00476119 0.00443866 0.00412728 0.00382703 0.00353828 0.00326137 0.00299629 0.00274305 0.00250164 0.00227207 0.00205435 0.00184845 0.0016544 0.00147219 0.00130182 0.0011433 0.000996619 0.00086178 0.000738785 0.000627633 0.000527364 0.000437019 0.000356598 0.000286101 0.000225528 0.000174879 0.000134155 0.000103354 7.91306e-05 5.81368e-05 4.03728e-05 2.58386e-05 1.45342e-05 6.45964e-06 1.61491e-06 0 0 2.3354e-05 9.34161e-05 0.000210186 0.000373664 0.00058385 0.000840745 0.00114435 0.00149466 0.00189849 0.00236267 0.00288719 0.00347206 0.00411726 0.00482281 0.00558871 0.00641494 0.00727961 0.0081608 0.00905851 0.00997274 0.0109035 0.0118508 0.0128146 0.0137949 0.0147706 0.0157207 0.0166451 0.0175439 0.018417 0.0192644 0.0200862 0.0208823 0.0216418 0.0223539 0.0230186 0.0236357 0.0242055 0.0247277 0.0252026 0.0256299 0.0260081 0.0263354 0.0266117 0.0268371 0.0270116 0.0271352 0.0272079 0.0272296 0.0272052 0.0271392 0.0270318 0.0268829 0.0266925 0.0264606 0.0261873 0.0258724 0.025524 0.0251499 0.0247501 0.0243246 0.0238735 0.0233966 0.0228941 0.0223659 0.0218202 0.021265 0.0207003 0.0201263 0.0195427 0.0189498 0.0183474 0.0177355 0.0171206 0.016509 0.0159008 0.0152958 0.0146941 0.0140957 0.0135007 0.0129089 0.0123244 0.0117509 0.0111886 0.0106373 0.0100972 0.00956813 0.00905017 0.00854331 0.00804928 0.00756981 0.00710488 0.00665451 0.0062187 0.00579744 0.00539073 0.00499858 0.00462143 0.00425974 0.00391352 0.00358275 0.00326745 0.00296761 0.00268323 0.00241431 0.00216085 0.00192286 0.00170034 0.00149329 0.00130171 0.00112559 0.000964944 0.000819765 0.000688801 0.0005708 0.00046576 0.000373683 0.000294567 0.000228414 0.000175223 0.000134993 0.000103354 7.59337e-05 5.27318e-05 3.37483e-05 1.89834e-05 8.43708e-06 2.10927e-06 0 0 2.97012e-05 0.000118805 0.000267311 0.000475219 0.00074253 0.00106924 0.00145536 0.00190088 0.00241415 0.00300353 0.00366902 0.00441062 0.00522833 0.00612215 0.00709208 0.00813811 0.00923258 0.0103478 0.0114837 0.0126405 0.0138179 0.0150161 0.0162351 0.0174748 0.0187086 0.01991 0.021079 0.0222156 0.0233197 0.0243914 0.0254307 0.0264375 0.0273982 0.0282989 0.0291396 0.0299204 0.0306412 0.031302 0.0319029 0.0324438 0.0329225 0.0333369 0.0336869 0.0339726 0.0341938 0.0343507 0.0344432 0.0344714 0.0344411 0.0343584 0.0342231 0.0340354 0.0337952 0.0335026 0.0331574 0.0327598 0.0323197 0.031847 0.0313419 0.0308042 0.0302339 0.0296312 0.0289959 0.0283281 0.0276381 0.026936 0.026222 0.025496 0.0247579 0.0240079 0.0232459 0.0224719 0.021694 0.0209202 0.0201506 0.0193851 0.0186237 0.0178665 0.0171134 0.0163644 0.0156246 0.0148987 0.0141868 0.013489 0.0128051 0.0121353 0.0114795 0.0108377 0.0102121 0.00960484 0.00901603 0.00844561 0.00789359 0.00735997 0.00684475 0.00634792 0.00587006 0.00541176 0.004973 0.0045538 0.00415414 0.00377403 0.00341348 0.00307247 0.00275101 0.0024491 0.00216673 0.00190392 0.00166065 0.00143693 0.00123275 0.00104813 0.000881481 0.000731241 0.000597408 0.000479983 0.000378966 0.000294357 0.000226155 0.000174361 0.000133495 9.80779e-05 6.81097e-05 4.35902e-05 2.45195e-05 1.08975e-05 2.72439e-06 0 0 3.70658e-05 0.000148263 0.000333592 0.000593052 0.000926644 0.00133437 0.00181622 0.00237221 0.00301188 0.00374478 0.00457092 0.0054903 0.00650291 0.00760876 0.00880784 0.0101002 0.0114517 0.0128284 0.0142302 0.0156572 0.0171094 0.0185868 0.0200893 0.021617 0.0231373 0.0246177 0.0260582 0.0274589 0.0288196 0.0301404 0.0314212 0.0326622 0.0338464 0.0349568 0.0359935 0.0369564 0.0378455 0.0386609 0.0394026 0.0400704 0.0406618 0.0411739 0.0416068 0.0419604 0.0422347 0.0424297 0.0425455 0.042582 0.0425465 0.0424462 0.0422813 0.0420516 0.0417573 0.0413981 0.0409743 0.0404857 0.0399447 0.0393635 0.0387421 0.0380804 0.0373785 0.0366365 0.0358542 0.0350317 0.0341817 0.0333167 0.0324368 0.0315419 0.0306322 0.0297075 0.0287679 0.0278133 0.0268538 0.0258992 0.0249497 0.0240051 0.0230655 0.0221308 0.0212012 0.0202765 0.0193629 0.0184664 0.0175872 0.0167252 0.0158804 0.0150527 0.0142423 0.0134491 0.0126757 0.0119251 0.011197 0.0104917 0.00980893 0.00914886 0.00851144 0.00789666 0.00730526 0.00673794 0.0061947 0.00567555 0.00518049 0.00470951 0.00426262 0.00383981 0.00344107 0.00306638 0.00271574 0.00238916 0.00208663 0.00180815 0.00155372 0.00132334 0.00111512 0.000927164 0.000759471 0.000612043 0.000484878 0.000377977 0.00029134 0.000224966 0.00017224 0.000126544 8.78775e-05 5.62416e-05 3.16359e-05 1.40604e-05 3.5151e-06 0 0 4.54477e-05 0.000181791 0.000409029 0.000727163 0.00113619 0.00163612 0.00222694 0.00290865 0.00369167 0.00458642 0.00559289 0.00671108 0.00794099 0.00928263 0.010736 0.0123011 0.0139369 0.0156025 0.0172979 0.0190231 0.020778 0.0225628 0.0243773 0.0262216 0.0280567 0.0298438 0.0315827 0.0332736 0.0349164 0.0365112 0.0380578 0.0395563 0.0409864 0.0423277 0.0435801 0.0447437 0.0458185 0.0468045 0.0477016 0.0485099 0.0492259 0.0498464 0.0503712 0.0508005 0.0511341 0.0513721 0.0515145 0.0515613 0.0515212 0.0514028 0.0512063 0.0509315 0.0505785 0.0501473 0.0496379 0.0490503 0.0483991 0.0476993 0.0469507 0.0461534 0.0453073 0.0444125 0.043469 0.0424767 0.041451 0.040407 0.0393447 0.0382642 0.0371654 0.0360484 0.0349132 0.0337597 0.0326 0.0314461 0.030298 0.0291558 0.0280194 0.0268888 0.025764 0.024645 0.0235393 0.0224542 0.0213898 0.020346 0.0193229 0.0183205 0.0173386 0.0163775 0.0154403 0.0145304 0.0136479 0.0127926 0.0119647 0.0111641 0.0103908 0.00964481 0.00892701 0.00823828 0.00757861 0.00694802 0.00634649 0.00577403 0.00523064 0.00471632 0.00423102 0.00377471 0.00334737 0.00294901 0.00257964 0.00223924 0.00192783 0.0016454 0.00138972 0.00115857 0.00095195 0.000769862 0.000612304 0.000479276 0.000370778 0.00028681 0.000219589 0.000161331 0.000112035 7.17026e-05 4.03327e-05 1.79256e-05 4.48141e-06 0 0 5.48469e-05 0.000219388 0.000493622 0.000877551 0.00137117 0.00197449 0.0026875 0.0035102 0.00445354 0.00552844 0.00673492 0.00807297 0.00954258 0.0111438 0.0128765 0.0147408 0.0166882 0.0186702 0.0206868 0.022738 0.0248237 0.0269441 0.029099 0.0312885 0.0334668 0.0355882 0.0376525 0.03966 0.0416104 0.0435038 0.0453403 0.0471199 0.0488183 0.0504115 0.0518996 0.0532825 0.0545602 0.0557326 0.0568 0.0577621 0.0586149 0.0593543 0.0599803 0.0604929 0.0608922 0.061178 0.0613504 0.0614094 0.0613653 0.0612281 0.0609981 0.060675 0.060259 0.0597501 0.0591482 0.0584533 0.0576829 0.0568544 0.0559678 0.0550231 0.0540203 0.0529593 0.0518403 0.0506631 0.049446 0.0482068 0.0469458 0.0456627 0.0443578 0.0430308 0.0416819 0.0403111 0.0389326 0.0375608 0.0361957 0.0348372 0.0334854 0.0321403 0.0308019 0.0294701 0.0281539 0.026862 0.0255946 0.0243515 0.0231328 0.0219384 0.0207685 0.019623 0.0185058 0.017421 0.0163686 0.0153486 0.0143609 0.0134057 0.0124828 0.0115923 0.0107353 0.00991277 0.00912473 0.00837119 0.00765215 0.00696761 0.00631756 0.00570201 0.00512088 0.00457408 0.00406161 0.00358348 0.00313968 0.00273022 0.00235509 0.0020143 0.00170527 0.00142545 0.00117484 0.00095344 0.000761243 0.000598252 0.000464469 0.000359892 0.000275543 0.000202439 0.000140583 8.99731e-05 5.06099e-05 2.24933e-05 5.62332e-06 0 0 6.52636e-05 0.000261054 0.000587372 0.00104422 0.00163159 0.00234949 0.00319791 0.00417687 0.00529747 0.00657086 0.00799702 0.00957596 0.0113077 0.0131922 0.0152294 0.0174195 0.0197057 0.0220315 0.024397 0.0268019 0.0292465 0.0317307 0.0342544 0.0368178 0.0393676 0.0418509 0.0442676 0.0466178 0.0489014 0.0511184 0.0532689 0.0553528 0.057342 0.0592084 0.0609519 0.0625726 0.0640705 0.0654455 0.0666977 0.067827 0.0688287 0.0696976 0.070434 0.0710377 0.0715088 0.0718473 0.0720531 0.0721263 0.0720787 0.0719222 0.0716567 0.0712822 0.0707988 0.0702065 0.0695052 0.0686949 0.0677961 0.0668289 0.0657933 0.0646895 0.0635173 0.0622769 0.0609681 0.059591 0.0581667 0.0567163 0.05524 0.0537376 0.0522091 0.0506546 0.0490741 0.0474675 0.0458516 0.0442433 0.0426426 0.0410493 0.0394636 0.0378855 0.0363148 0.0347517 0.0332066 0.0316899 0.0302015 0.0287415 0.0273099 0.0259067 0.0245319 0.0231855 0.0218722 0.0205967 0.0193591 0.0181594 0.0169976 0.0158736 0.0147875 0.0137393 0.0127302 0.0117614 0.0108331 0.00994508 0.00909747 0.00829023 0.00752336 0.00679687 0.00611063 0.00546449 0.00485847 0.00429256 0.00376676 0.00328108 0.00283551 0.00243005 0.00206179 0.00172782 0.00142815 0.00116278 0.000931695 0.000734907 0.000572413 0.000444213 0.0003401 0.00024987 0.000173521 0.000111053 6.24674e-05 2.77633e-05 6.94082e-06 0 0 7.66975e-05 0.00030679 0.000690278 0.00122716 0.00191744 0.00276111 0.00375818 0.00490864 0.00622348 0.00771366 0.00937918 0.0112201 0.0132363 0.0154278 0.0177948 0.020337 0.0229893 0.0256864 0.0284283 0.031215 0.0340464 0.0369226 0.0398436 0.0428094 0.0457591 0.048632 0.051428 0.0541472 0.0567894 0.0593549 0.0618434 0.0642551 0.0665575 0.0687181 0.070737 0.0726141 0.0743494 0.075943 0.0773948 0.0787048 0.0798673 0.0808764 0.0817323 0.0824349 0.0829841 0.08338 0.0836227 0.083712 0.0836615 0.0834849 0.0831821 0.0827531 0.0821979 0.0815165 0.0807089 0.0797751 0.0787386 0.0776226 0.0764273 0.0751527 0.0737986 0.0723652 0.0708524 0.0692602 0.0676131 0.0659355 0.0642273 0.0624886 0.0607195 0.0589198 0.0570896 0.0552288 0.0533571 0.0514937 0.0496387 0.0477922 0.045954 0.0441242 0.0423029 0.0404899 0.0386975 0.0369377 0.0352106 0.0335161 0.0318544 0.0302253 0.0286288 0.027065 0.0255394 0.0240576 0.0226196 0.0212253 0.0198747 0.0185679 0.0173049 0.0160856 0.0149116 0.0137843 0.0127036 0.0116697 0.0106824 0.0097419 0.00884805 0.00800091 0.00720027 0.00644595 0.00573795 0.00507625 0.00446088 0.00389182 0.00336907 0.00289264 0.00245926 0.00206567 0.00171188 0.00139787 0.00112366 0.00088924 0.00069461 0.000539771 0.000413262 0.000303621 0.000210848 0.000134943 7.59053e-05 3.37357e-05 8.43393e-06 0 0 8.91489e-05 0.000356596 0.00080234 0.00142638 0.00222872 0.00320936 0.0043683 0.00570553 0.00723155 0.00895685 0.0108814 0.0130053 0.0153284 0.0178508 0.0205725 0.0234934 0.0265391 0.0296349 0.0327809 0.0359771 0.0392234 0.0425199 0.0458666 0.0492634 0.0526413 0.0559314 0.0591337 0.0622481 0.0652746 0.0682132 0.071064 0.0738269 0.0764649 0.0789409 0.0812549 0.0834069 0.085397 0.0872251 0.0888912 0.0903953 0.0917307 0.0928907 0.0938752 0.0946843 0.095318 0.0957762 0.096059 0.0961664 0.0961137 0.0959163 0.0955743 0.0950876 0.0944562 0.0936801 0.0927593 0.0916939 0.0905104 0.0892357 0.0878698 0.0864125 0.084864 0.0832242 0.0814932 0.0796709 0.0777852 0.0758642 0.0739078 0.071916 0.0698889 0.0678264 0.0657285 0.0635952 0.0614489 0.0593119 0.0571842 0.0550657 0.0529565 0.0508566 0.0487659 0.0466846 0.0446265 0.0426056 0.0406219 0.0386754 0.0367661 0.0348941 0.0330592 0.0312616 0.0295076 0.0278037 0.0261498 0.024546 0.0229923 0.0214886 0.0200349 0.0186314 0.0172796 0.0159812 0.0147364 0.013545 0.0124071 0.0113226 0.0102916 0.00931412 0.00838982 0.00751846 0.00670004 0.00593456 0.00522203 0.00456243 0.00395579 0.00340208 0.00289769 0.00243901 0.00202602 0.00165873 0.00133714 0.00106125 0.00083106 0.000646568 0.000495029 0.000363695 0.000252566 0.000161642 9.09236e-05 4.04105e-05 1.01026e-05 0 0 0.000102618 0.00041047 0.000923558 0.00164188 0.00256544 0.00369423 0.00502826 0.00656753 0.00832169 0.0103004 0.0125037 0.0149316 0.017584 0.020461 0.0235626 0.0268887 0.0303549 0.033877 0.0374547 0.0410882 0.0447775 0.0485225 0.0523232 0.0561797 0.0600143 0.0637492 0.0673846 0.0709205 0.0743567 0.0776934 0.0809305 0.0840681 0.0870641 0.0898766 0.0925056 0.0949512 0.0972133 0.0992919 0.101187 0.102899 0.104419 0.10574 0.106863 0.107786 0.108511 0.109036 0.109362 0.10949 0.109435 0.109217 0.108833 0.108286 0.107574 0.106697 0.105656 0.104451 0.103112 0.101668 0.100121 0.0984691 0.0967136 0.094854 0.0928905 0.0908229 0.088683 0.0865025 0.0842814 0.0820197 0.0797173 0.0773744 0.0749908 0.0725666 0.0701272 0.0676979 0.0652789 0.0628699 0.0604711 0.0580825 0.0557041 0.0533358 0.0509936 0.0486934 0.0464353 0.0442192 0.0420452 0.0399132 0.0378232 0.0357752 0.0337767 0.0318349 0.0299499 0.0281217 0.0263503 0.0246356 0.0229777 0.0213765 0.0198341 0.0183524 0.0169314 0.015571 0.0142713 0.0130324 0.0118541 0.0107365 0.00967926 0.00868201 0.00774475 0.00686748 0.00605021 0.00529293 0.00459565 0.00395836 0.00337708 0.00284782 0.00237057 0.00194534 0.00157213 0.00125094 0.000981763 0.000764603 0.000585399 0.000430089 0.000298673 0.000191151 0.000107522 4.77877e-05 1.19469e-05 0 0 0.000116822 0.000467288 0.0010514 0.00186915 0.00292055 0.00420559 0.00572428 0.00747661 0.00947115 0.0117165 0.0142125 0.0169594 0.019957 0.0232054 0.0267046 0.0304545 0.0343606 0.038328 0.0423567 0.0464468 0.0505983 0.0548112 0.0590854 0.063421 0.0677314 0.07193 0.0760169 0.0799919 0.0838552 0.0876066 0.0912463 0.0947742 0.0981433 0.101307 0.104264 0.107016 0.109562 0.111902 0.114036 0.115964 0.117678 0.119168 0.120435 0.121478 0.122297 0.122893 0.123266 0.123415 0.12336 0.123119 0.122694 0.122084 0.121289 0.120309 0.119143 0.117793 0.116292 0.114673 0.112937 0.111084 0.109113 0.107025 0.10482 0.102497 0.100092 0.0976418 0.0951451 0.0926022 0.0900131 0.0873779 0.0846966 0.0819691 0.0792241 0.0764901 0.073767 0.0710551 0.0683541 0.0656641 0.0629852 0.0603173 0.0576784 0.0550865 0.0525417 0.0500439 0.0475931 0.0451893 0.0428325 0.0405228 0.0382684 0.0360778 0.0339509 0.0318878 0.0298884 0.0279528 0.0260809 0.0242728 0.0225306 0.0208566 0.0192508 0.0177132 0.0162438 0.0148426 0.0135095 0.0122447 0.0110476 0.00991787 0.00885544 0.00786033 0.00693254 0.00607207 0.00527892 0.00455309 0.00389025 0.00328604 0.00274047 0.00225354 0.00182525 0.0014556 0.00114459 0.000892216 0.000683103 0.000501871 0.000348522 0.000223054 0.000125468 5.57635e-05 1.39409e-05 0 0 0.000131481 0.000525923 0.00118333 0.00210369 0.00328702 0.0047333 0.00644255 0.00841476 0.0106572 0.0131771 0.0159744 0.0190492 0.0224014 0.0260311 0.0299382 0.0341228 0.0384795 0.0429032 0.0473938 0.0519512 0.0565756 0.0612668 0.066025 0.07085 0.0756464 0.0803185 0.0848663 0.0892898 0.093589 0.0977639 0.101815 0.105741 0.109491 0.113012 0.116305 0.119369 0.122205 0.124812 0.127191 0.129341 0.131252 0.132915 0.13433 0.135496 0.136414 0.137083 0.137503 0.137675 0.13762 0.137359 0.136892 0.136219 0.13534 0.134254 0.132963 0.131466 0.129801 0.128004 0.126076 0.124018 0.121828 0.119508 0.117056 0.114473 0.111799 0.109073 0.106296 0.103466 0.100585 0.0976512 0.0946659 0.0916289 0.0885717 0.0855264 0.082493 0.0794713 0.0764615 0.0734635 0.0704773 0.0675029 0.0645605 0.0616701 0.0588318 0.0560455 0.0533113 0.0506292 0.0479991 0.0454211 0.0429046 0.0404588 0.0380839 0.0357798 0.0335466 0.0313842 0.0292926 0.0272718 0.0253244 0.0234527 0.0216569 0.019937 0.0182928 0.0167245 0.015232 0.0138153 0.0124739 0.0112073 0.0100155 0.00889841 0.00785612 0.0068886 0.00599584 0.00517786 0.00443 0.00374759 0.00313064 0.00257915 0.00209311 0.00167253 0.00131741 0.00102775 0.000786868 0.000578107 0.000401463 0.000256937 0.000144527 6.42341e-05 1.60585e-05 0 0 0.000146593 0.000586374 0.00131934 0.0023455 0.00366484 0.00527736 0.00718308 0.00938198 0.0118798 0.0146822 0.0177892 0.0212008 0.0249171 0.0289379 0.0332633 0.0378934 0.0427119 0.0476027 0.0525659 0.0576014 0.0627093 0.0678894 0.0731419 0.0784667 0.0837592 0.0889146 0.0939329 0.0988141 0.103558 0.108165 0.112635 0.116968 0.121107 0.124994 0.128629 0.132012 0.135144 0.138024 0.140653 0.143029 0.145143 0.146983 0.148549 0.149842 0.15086 0.151604 0.152075 0.152271 0.152217 0.151935 0.151426 0.15069 0.149726 0.148535 0.147116 0.14547 0.143638 0.141661 0.139538 0.137271 0.134859 0.132302 0.129599 0.126752 0.123804 0.120797 0.117733 0.114611 0.111432 0.108194 0.104899 0.101546 0.0981702 0.0948071 0.0914566 0.0881187 0.0847933 0.0814805 0.0781802 0.0748926 0.0716398 0.0684441 0.0653056 0.0622242 0.0592 0.056233 0.0533231 0.0504703 0.0476851 0.044978 0.0423489 0.0397978 0.0373247 0.0349297 0.0326126 0.0303737 0.0282155 0.0261409 0.0241498 0.0222424 0.0204185 0.0186782 0.0170215 0.0154484 0.0139582 0.0125504 0.0112249 0.00998174 0.00882096 0.00774252 0.00674642 0.00583268 0.00499634 0.00423248 0.00354108 0.00292216 0.00237571 0.00190173 0.00150023 0.00117119 0.000896695 0.000658796 0.000457498 0.000292798 0.000164699 7.31996e-05 1.82999e-05 0 0 0.00016216 0.000648642 0.00145944 0.00259457 0.00405401 0.00583777 0.00794586 0.0103783 0.0131389 0.0162319 0.019657 0.0234144 0.027504 0.0319259 0.03668 0.0417663 0.0470576 0.0524266 0.0578732 0.0633974 0.0689994 0.074679 0.0804362 0.0862711 0.0920698 0.0977183 0.103217 0.108565 0.113763 0.118811 0.123709 0.128456 0.132991 0.137251 0.141235 0.144945 0.148379 0.151537 0.154421 0.157029 0.15935 0.161371 0.163092 0.164514 0.165636 0.166458 0.16698 0.167202 0.16715 0.166848 0.166298 0.165498 0.164448 0.16315 0.161602 0.159805 0.157804 0.155643 0.153323 0.150844 0.148205 0.145407 0.14245 0.139334 0.136105 0.132814 0.129458 0.126038 0.122554 0.119007 0.115395 0.11172 0.108019 0.104332 0.100658 0.0969971 0.0933495 0.0897152 0.0860941 0.0824863 0.0789163 0.0754085 0.0719631 0.0685799 0.0652591 0.0620005 0.0588042 0.0556703 0.0526101 0.0496352 0.0467458 0.0439416 0.0412228 0.0385893 0.0360411 0.0335783 0.0312039 0.0289209 0.0267294 0.0246294 0.0226208 0.0207037 0.018878 0.0171438 0.0155004 0.013947 0.0124836 0.0111103 0.00982705 0.00863383 0.00753066 0.00651753 0.00558927 0.00474069 0.00397179 0.00328258 0.00267305 0.0021432 0.00169304 0.00132256 0.00101258 0.000743939 0.000516625 0.00033064 0.000185985 8.26599e-05 2.0665e-05 0 0 0.000178181 0.000712726 0.00160363 0.0028509 0.00445454 0.00641453 0.00873089 0.0114036 0.0144347 0.0178261 0.0215778 0.0256899 0.0301624 0.0349951 0.0401882 0.0457417 0.0515167 0.0573747 0.0633155 0.0693392 0.0754459 0.0816354 0.0879079 0.0942632 0.100578 0.10673 0.112718 0.118542 0.124203 0.1297 0.135034 0.140205 0.145144 0.149784 0.154124 0.158166 0.161908 0.165352 0.168496 0.171341 0.173873 0.176079 0.177959 0.179513 0.180741 0.181643 0.182219 0.182468 0.182419 0.182098 0.181506 0.180642 0.179506 0.178099 0.176421 0.174471 0.172298 0.169951 0.16743 0.164736 0.161867 0.158824 0.155608 0.152217 0.148705 0.145122 0.141469 0.137746 0.133953 0.130089 0.126155 0.122152 0.118119 0.114101 0.110097 0.106107 0.10213 0.0981676 0.0942189 0.0902842 0.0863901 0.0825634 0.0788043 0.0751127 0.0714885 0.0679319 0.0644427 0.061021 0.0576795 0.0544306 0.0512746 0.0482113 0.0452408 0.042363 0.039578 0.0368858 0.0342896 0.031793 0.0293958 0.027098 0.0248997 0.0228009 0.0208016 0.0189017 0.0171005 0.0153972 0.0137917 0.0122841 0.0108744 0.00956254 0.00834855 0.00723243 0.00620879 0.00527224 0.00442278 0.00366041 0.00298513 0.00239694 0.00189585 0.00148184 0.00113453 0.000833536 0.000578844 0.00037046 0.000208384 9.26151e-05 2.31538e-05 0 0 0.000194657 0.000778627 0.00175191 0.00311451 0.00486642 0.00700764 0.00953818 0.012458 0.015767 0.0194649 0.0235517 0.0280274 0.032892 0.0381455 0.043788 0.0498193 0.0560892 0.062447 0.0688929 0.0754269 0.0820488 0.0887588 0.0955569 0.102443 0.109284 0.115949 0.122436 0.128746 0.134879 0.140834 0.146613 0.152214 0.157565 0.162592 0.167296 0.171677 0.175734 0.179467 0.182877 0.185964 0.188712 0.191107 0.19315 0.19484 0.196177 0.197161 0.197792 0.19807 0.198024 0.197685 0.197051 0.196123 0.1949 0.193384 0.191573 0.189467 0.187121 0.184585 0.18186 0.178947 0.175844 0.172553 0.169073 0.165404 0.161602 0.157723 0.153768 0.149735 0.145627 0.141441 0.137179 0.13284 0.12847 0.124115 0.119774 0.115447 0.111135 0.106838 0.102555 0.0982861 0.0940611 0.0899088 0.0858292 0.0818224 0.0778884 0.074027 0.0702384 0.0665226 0.0628932 0.0593642 0.0559354 0.0526069 0.0493788 0.0462509 0.0432233 0.040296 0.0374727 0.0347569 0.0321488 0.0296483 0.0272553 0.02497 0.0227922 0.0207221 0.0187586 0.016901 0.0151492 0.0135032 0.011963 0.0105286 0.0092001 0.00797737 0.00685489 0.00582712 0.00489403 0.00405564 0.00331195 0.00266295 0.00210865 0.00164904 0.00126255 0.000927586 0.000644157 0.00041226 0.000231896 0.000103065 2.57663e-05 0 0 0.000211586 0.000846344 0.00190428 0.00338538 0.00528965 0.0076171 0.0103677 0.0135415 0.0171359 0.0211482 0.0255785 0.0304267 0.0356929 0.0