<?xml version="1.0"?> 
<VTKFile type="StructuredGrid" version="0.1"> 
<StructuredGrid WholeExtent="0 128 0 128 0 0"> 
<Piece Extent="0 128 0 128 0 0"> 
<PointData>
<DataArray type="Float32" Name="u" format="ascii" NumberOfComponents="1"> 
0 0 0 0 0 0 0 0 0 0 0 0 0 0 0 0 0 0 0 0 0 0 0 0 0 0 0 0 0 0 0 0 0 0 0 0 0 0 0 0 0 0 0 0 0 0 0 0 0 0 0 0 0 0 0 0 0 0 0 0 0 0 0 0 0 0 0 0 0 0 0 0 0 0 0 0 0 0 0 0 0 0 0 0 0 0 0 0 0 0 0 0 0 0 0 0 0 0 0 0 0 0 0 0 0 0 0 0 0 0 0 0 0 0 0 0 0 0 0 0 0 0 0 0 0 0 0 0 0 0 2.5153e-07 1.00612e-06 2.26377e-06 4.02448e-06 6.28825e-06 9.05509e-06 1.2325e-05 1.60979e-05 2.04468e-05 2.54444e-05 3.10907e-05 3.73857e-05 4.43294e-05 5.19219e-05 6.01631e-05 6.90531e-05 7.8357e-05 8.78402e-05 9.75026e-05 0.000107344 0.000117365 0.000127565 0.000137945 0.000148503 0.000159019 0.000169269 0.000179253 0.000188971 0.000198424 0.000207611 0.000216533 0.000225189 0.000233468 0.000241258 0.00024856 0.000255373 0.000261697 0.000267533 0.000272881 0.000277739 0.000282093 0.000285927 0.000289239 0.000292032 0.000294303 0.000296055 0.000297285 0.000297995 0.000298232 0.000298042 0.000297427 0.000296385 0.000294917 0.000293023 0.000290704 0.000287958 0.000284861 0.000281489 0.000277843 0.000273921 0.000269724 0.000265252 0.000260505 0.000255483 0.000250261 0.000244914 0.000239442 0.000233846 0.000228124 0.000222278 0.000216306 0.00021021 0.000204048 0.000197876 0.000191697 0.000185508 0.000179312 0.000173107 0.000166893 0.000160672 0.000154479 0.000148353 0.000142293 0.0001363 0.000130374 0.000124515 0.000118722 0.000112996 0.000107359 0.000101833 9.64187e-05 9.11158e-05 8.59243e-05 8.08442e-05 7.58755e-05 7.10181e-05 6.62891e-05 6.17051e-05 5.72663e-05 5.29726e-05 4.8824e-05 4.48205e-05 4.09621e-05 3.72489e-05 3.36996e-05 3.03331e-05 2.71494e-05 2.41486e-05 2.13305e-05 1.86953e-05 1.62428e-05 1.39732e-05 1.189e-05 9.99688e-06 8.29386e-06 6.78093e-06 5.45809e-06 4.32534e-06 3.38268e-06 2.63011e-06 2.01368e-06 1.47944e-06 1.02739e-06 6.57528e-07 3.69859e-07 1.64382e-07 4.10955e-08 0 0 1.00612e-06 4.02448e-06 9.05509e-06 1.60979e-05 2.5153e-05 3.62203e-05 4.92999e-05 6.43917e-05 8.17871e-05 0.000101777 0.000124363 0.000149543 0.000177318 0.000207688 0.000240653 0.000276212 0.000313428 0.000351361 0.00039001 0.000429377 0.00046946 0.000510261 0.000551779 0.000594013 0.000636075 0.000677074 0.000717011 0.000755885 0.000793697 0.000830446 0.000866132 0.000900756 0.000933872 0.000965033 0.00099424 0.00102149 0.00104679 0.00107013 0.00109152 0.00111096 0.00112837 0.00114371 0.00115696 0.00116813 0.00117721 0.00118422 0.00118914 0.00119198 0.00119293 0.00119217 0.00118971 0.00118554 0.00117967 0.00117209 0.00116281 0.00115183 0.00113944 0.00112596 0.00111137 0.00109568 0.0010789 0.00106101 0.00104202 0.00102193 0.00100104 0.000979656 0.000957769 0.000935383 0.000912496 0.000889111 0.000865226 0.000840841 0.00081619 0.000791505 0.000766786 0.000742034 0.000717248 0.000692428 0.000667574 0.000642686 0.000617915 0.00059341 0.000569173 0.000545201 0.000521497 0.000498059 0.000474888 0.000451983 0.000429435 0.000407332 0.000385675 0.000364463 0.000343697 0.000323377 0.000303502 0.000284073 0.000265156 0.00024682 0.000229065 0.00021189 0.000195296 0.000179282 0.000163848 0.000148995 0.000134798 0.000121332 0.000108598 9.65943e-05 8.53221e-05 7.4781e-05 6.49713e-05 5.58927e-05 4.75599e-05 3.99875e-05 3.31754e-05 2.71237e-05 2.18324e-05 1.73014e-05 1.35307e-05 1.05204e-05 8.05472e-06 5.91775e-06 4.10955e-06 2.63011e-06 1.47944e-06 6.57528e-07 1.64382e-07 0 0 2.26377e-06 9.05509e-06 2.03739e-05 3.62203e-05 5.65943e-05 8.14958e-05 0.000110925 0.000144881 0.000184021 0.000228999 0.000279816 0.000336471 0.000398965 0.000467297 0.000541468 0.000621478 0.000705213 0.000790561 0.000877523 0.000966098 0.00105629 0.00114809 0.0012415 0.00133653 0.00143117 0.00152342 0.00161327 0.00170074 0.00178582 0.0018685 0.0019488 0.0020267 0.00210121 0.00217132 0.00223704 0.00229836 0.00235528 0.0024078 0.00245592 0.00249965 0.00253884 0.00257334 0.00260316 0.00262829 0.00264873 0.00266449 0.00267557 0.00268196 0.00268408 0.00268238 0.00267684 0.00266746 0.00265426 0.00263721 0.00261633 0.00259162 0.00256375 0.00253341 0.00250058 0.00246529 0.00242752 0.00238727 0.00234455 0.00229935 0.00225235 0.00220423 0.00215498 0.00210461 0.00205312 0.0020005 0.00194676 0.00189189 0.00183643 0.00178089 0.00172527 0.00166958 0.00161381 0.00155796 0.00150204 0.00144604 0.00139031 0.00133517 0.00128064 0.0012267 0.00117337 0.00112063 0.0010685 0.00101696 0.000966229 0.000916497 0.000867769 0.000820042 0.000773319 0.000727598 0.000682879 0.000639163 0.000596602 0.000555346 0.000515396 0.000476753 0.000439416 0.000403384 0.000368659 0.00033524 0.000303296 0.000272998 0.000244345 0.000217337 0.000191975 0.000168257 0.000146185 0.000125759 0.00010701 8.99719e-05 7.46447e-05 6.10284e-05 4.91228e-05 3.89281e-05 3.04442e-05 2.3671e-05 1.81231e-05 1.33149e-05 9.24649e-06 5.91775e-06 3.32873e-06 1.47944e-06 3.69859e-07 0 0 4.02448e-06 1.60979e-05 3.62203e-05 6.43917e-05 0.000100612 0.000144881 0.0001972 0.000257567 0.000327148 0.00040711 0.00049745 0.000598171 0.000709271 0.000830751 0.00096261 0.00110485 0.00125371 0.00140544 0.00156004 0.00171751 0.00187784 0.00204104 0.00220711 0.00237605 0.0025443 0.0027083 0.00286804 0.00302354 0.00317479 0.00332178 0.00346453 0.00360303 0.00373549 0.00386013 0.00397696 0.00408597 0.00418716 0.00428053 0.00436609 0.00444383 0.00451349 0.00457483 0.00462783 0.00467251 0.00470885 0.00473687 0.00475656 0.00476792 0.00477171 0.00476867 0.00475883 0.00474216 0.00471868 0.00468838 0.00465126 0.00460732 0.00455778 0.00450383 0.00444548 0.00438274 0.00431559 0.00424404 0.00416808 0.00408773 0.00400418 0.00391863 0.00383108 0.00374153 0.00364999 0.00355644 0.0034609 0.00336336 0.00326476 0.00316602 0.00306715 0.00296814 0.00286899 0.00276971 0.00267029 0.00257074 0.00247166 0.00237364 0.00227669 0.00218081 0.00208599 0.00199224 0.00189955 0.00180793 0.00171774 0.00162933 0.0015427 0.00145785 0.00137479 0.00129351 0.00121401 0.00113629 0.00106063 0.000987282 0.00091626 0.000847561 0.000781183 0.000717128 0.000655394 0.000595982 0.000539193 0.00048533 0.000434391 0.000386377 0.000341288 0.000299124 0.000259885 0.000223571 0.00019024 0.00015995 0.000132702 0.000108495 8.73295e-05 6.92055e-05 5.41229e-05 4.20818e-05 3.22189e-05 2.3671e-05 1.64382e-05 1.05204e-05 5.91775e-06 2.63011e-06 6.57528e-07 0 0 6.28825e-06 2.5153e-05 5.65943e-05 0.000100612 0.000157206 0.000226377 0.000308124 0.000402448 0.000511169 0.000636109 0.000777266 0.000934642 0.00110824 0.00129805 0.00150408 0.00172633 0.00195892 0.002196 0.00243756 0.00268361 0.00293413 0.00318913 0.00344862 0.00371258 0.00397547 0.00423171 0.00448132 0.00472428 0.0049606 0.00519029 0.00541333 0.00562973 0.0058367 0.00603146 0.006214 0.00638433 0.00654244 0.00668833 0.00682201 0.00694348 0.00705233 0.00714817 0.00723099 0.00730079 0.00735759 0.00740136 0.00743213 0.00744988 0.00745579 0.00745105 0.00743567 0.00740962 0.00737293 0.00732559 0.00726759 0.00719894 0.00712153 0.00703724 0.00694607 0.00684802 0.0067431 0.0066313 0.00651263 0.00638708 0.00625653 0.00612285 0.00598606 0.00584614 0.0057031 0.00555694 0.00540766 0.00525526 0.00510119 0.00494691 0.00479242 0.00463771 0.0044828 0.00432767 0.00417234 0.00401679 0.00386197 0.00370881 0.00355733 0.00340751 0.00325936 0.00311287 0.00296805 0.0028249 0.00268397 0.00254583 0.00241047 0.0022779 0.00214811 0.0020211 0.00189689 0.00177545 0.00165723 0.00154263 0.00143166 0.00132431 0.0012206 0.00112051 0.00102405 0.000931222 0.00084249 0.000758328 0.000678736 0.000603714 0.000533263 0.000467382 0.00040607 0.000349329 0.00029725 0.000249922 0.000207347 0.000169523 0.000136452 0.000108134 8.45671e-05 6.57528e-05 5.0342e-05 3.69859e-05 2.56847e-05 1.64382e-05 9.24649e-06 4.10955e-06 1.02739e-06 0 0 9.05509e-06 3.62203e-05 8.14958e-05 0.000144881 0.000226377 0.000325983 0.000443699 0.000579525 0.000736084 0.000915997 0.00111926 0.00134588 0.00159586 0.00186919 0.00216587 0.00248591 0.00282085 0.00316225 0.00351009 0.00386439 0.00422514 0.00459235 0.00496601 0.00534612 0.00572467 0.00609367 0.0064531 0.00680296 0.00714327 0.00747401 0.00779519 0.00810681 0.00840485 0.0086853 0.00894816 0.00919343 0.00942111 0.0096312 0.0098237 0.00999861 0.0101554 0.0102934 0.0104126 0.0105131 0.0105949 0.010658 0.0107023 0.0107278 0.0107363 0.0107295 0.0107074 0.0106699 0.010617 0.0105488 0.0104653 0.0103665 0.010255 0.0101336 0.0100023 0.00986116 0.00971007 0.00954908 0.00937819 0.00919739 0.0090094 0.00881691 0.00861992 0.00841844 0.00821247 0.008002 0.00778703 0.00756757 0.00734571 0.00712355 0.00690108 0.00667831 0.00645523 0.00623185 0.00600816 0.00578417 0.00556123 0.00534069 0.00512255 0.00490681 0.00469347 0.00448253 0.00427399 0.00406785 0.00386491 0.00366599 0.00347107 0.00328017 0.00309328 0.00291039 0.00273152 0.00255665 0.00238641 0.00222138 0.00206159 0.00190701 0.00175766 0.00161354 0.00147464 0.00134096 0.00121319 0.00109199 0.00097738 0.000869349 0.000767899 0.000673029 0.000584741 0.000503034 0.000428039 0.000359888 0.000298579 0.000244114 0.000196491 0.000155712 0.000121777 9.4684e-05 7.24924e-05 5.32598e-05 3.69859e-05 2.3671e-05 1.33149e-05 5.91775e-06 1.47944e-06 0 0 1.2325e-05 4.92999e-05 0.000110925 0.0001972 0.000308124 0.000443699 0.000603924 0.000788799 0.00100189 0.00124677 0.00152344 0.0018319 0.00217214 0.00254417 0.00294799 0.0033836 0.00383949 0.00430417 0.00477763 0.00525987 0.00575089 0.0062507 0.00675929 0.00727666 0.00779192 0.00829416 0.00878338 0.00925959 0.00972278 0.010173 0.0106101 0.0110343 0.0114399 0.0118217 0.0121794 0.0125133 0.0128232 0.0131091 0.0133711 0.0136092 0.0138226 0.0140104 0.0141727 0.0143096 0.0144209 0.0145067 0.014567 0.0146018 0.0146133 0.0146041 0.0145739 0.0145229 0.0144509 0.0143581 0.0142445 0.0141099 0.0139582 0.013793 0.0136143 0.0134221 0.0132165 0.0129974 0.0127648 0.0125187 0.0122628 0.0120008 0.0117327 0.0114584 0.0111781 0.0108916 0.010599 0.0103003 0.00999833 0.00969594 0.00939313 0.00908992 0.00878628 0.00848224 0.00817778 0.0078729 0.00756946 0.00726928 0.00697236 0.00667872 0.00638834 0.00610122 0.00581738 0.0055368 0.00526058 0.00498982 0.00472452 0.00446468 0.00421029 0.00396137 0.0037179 0.00347989 0.00324816 0.00302355 0.00280605 0.00259566 0.00239237 0.0021962 0.00200714 0.00182519 0.00165128 0.00148632 0.00133032 0.00118328 0.0010452 0.000916068 0.000795898 0.000684686 0.000582609 0.000489847 0.000406399 0.000332266 0.000267447 0.000211942 0.000165752 0.000128875 9.86703e-05 7.24924e-05 5.0342e-05 3.22189e-05 1.81231e-05 8.05472e-06 2.01368e-06 0 0 1.60979e-05 6.43917e-05 0.000144881 0.000257567 0.000402448 0.000579525 0.000788799 0.00103027 0.00130859 0.00162844 0.0019898 0.00239268 0.00283708 0.003323 0.00385044 0.0044194 0.00501485 0.00562177 0.00624016 0.00687003 0.00751137 0.00816418 0.00882846 0.00950421 0.0101772 0.0108332 0.0114722 0.0120942 0.0126991 0.0132871 0.0138581 0.0144121 0.014942 0.0154405 0.0159078 0.0163439 0.0167486 0.0171221 0.0174644 0.0177753 0.018054 0.0182993 0.0185113 0.01869 0.0188354 0.0189475 0.0190262 0.0190717 0.0190868 0.0190747 0.0190353 0.0189686 0.0188747 0.0187535 0.018605 0.0184293 0.0182311 0.0180153 0.0177819 0.0175309 0.0172623 0.0169761 0.0166723 0.0163509 0.0160167 0.0156745 0.0153243 0.0149661 0.0145999 0.0142258 0.0138436 0.0134535 0.013059 0.0126641 0.0122686 0.0118725 0.011476 0.0110788 0.0106812 0.010283 0.00988664 0.00949457 0.00910676 0.00872322 0.00834395 0.00796894 0.00759821 0.00723173 0.00687096 0.00651731 0.0061708 0.00583141 0.00549916 0.00517403 0.00485603 0.00454516 0.0042425 0.00394913 0.00366504 0.00339024 0.00312473 0.00286851 0.00262158 0.00238393 0.00215677 0.00194132 0.00173756 0.00154551 0.00136515 0.0011965 0.00103954 0.000894283 0.000760959 0.0006398 0.000530807 0.00043398 0.000349318 0.000276822 0.000216492 0.000168327 0.000128875 9.4684e-05 6.57528e-05 4.20818e-05 2.3671e-05 1.05204e-05 2.63011e-06 0 0 2.04737e-05 8.18948e-05 0.000184263 0.000327579 0.000511843 0.000737053 0.00100321 0.00131032 0.00166408 0.00207021 0.0025287 0.00303957 0.0036028 0.00421839 0.00488635 0.00560668 0.0063604 0.00712853 0.00791106 0.008708 0.00951936 0.0103451 0.0111853 0.0120399 0.0128909 0.0137205 0.0145286 0.0153152 0.0160803 0.0168239 0.0175461 0.0182467 0.0189169 0.0195476 0.0201387 0.0206904 0.0212025 0.0216752 0.0221083 0.0225019 0.0228547 0.0231654 0.0234339 0.0236604 0.0238447 0.0239869 0.0240869 0.0241449 0.0241645 0.0241497 0.0241003 0.0240165 0.0238981 0.0237452 0.0235579 0.023336 0.0230857 0.0228132 0.0225183 0.0222012 0.0218617 0.0215 0.0211159 0.0207096 0.020287 0.0198543 0.0194114 0.0189584 0.0184952 0.0180219 0.0175385 0.0170449 0.0165459 0.0160462 0.0155457 0.0150446 0.0145427 0.0140401 0.0135368 0.0130328 0.0125311 0.0120348 0.0115439 0.0110584 0.0105782 0.0101034 0.00963403 0.00917002 0.0087132 0.00826539 0.00782659 0.00739681 0.00697604 0.00656428 0.00616153 0.0057678 0.00538444 0.00501282 0.00465295 0.00430482 0.00396844 0.00364379 0.00333089 0.00302973 0.00274183 0.00246871 0.00221037 0.0019668 0.001738 0.00152398 0.00132474 0.00114028 0.000970893 0.000816893 0.000678279 0.00055505 0.000447206 0.000354747 0.000277673 0.000215985 0.000165363 0.000121491 8.4369e-05 5.39962e-05 3.03729e-05 1.3499e-05 3.37476e-06 0 0 2.5552e-05 0.000102208 0.000229968 0.000408833 0.000638801 0.000919874 0.00125205 0.00163533 0.00207624 0.0025813 0.00315051 0.00378388 0.00448139 0.00524306 0.00606888 0.00695885 0.00788964 0.00883791 0.00980367 0.0107869 0.0117876 0.0128059 0.0138416 0.0148947 0.0159435 0.0169657 0.0179616 0.0189311 0.0198741 0.0207907 0.0216808 0.0225446 0.0233708 0.0241485 0.0248775 0.025558 0.0261899 0.0267732 0.0273079 0.027794 0.0282299 0.0286139 0.028946 0.0292263 0.0294547 0.0296312 0.0297559 0.0298287 0.0298543 0.0298373 0.0297777 0.0296756 0.0295309 0.0293437 0.0291139 0.0288415 0.0285341 0.0281991 0.0278365 0.0274464 0.0270286 0.0265833 0.0261105 0.02561 0.0250894 0.0245563 0.0240105 0.0234521 0.0228812 0.0222976 0.0217014 0.0210925 0.0204769 0.0198604 0.0192429 0.0186244 0.0180049 0.0173845 0.0167631 0.0161408 0.0155213 0.0149083 0.014302 0.0137022 0.013109 0.0125224 0.0119424 0.011369 0.0108044 0.0102509 0.00970857 0.00917728 0.0086571 0.00814801 0.00765001 0.00716312 0.006689 0.00622935 0.00578417 0.00535344 0.00493718 0.00453539 0.00414806 0.00377519 0.00341863 0.00308023 0.00275999 0.0024579 0.00217397 0.0019082 0.00166058 0.00143112 0.00122022 0.00102827 0.000855292 0.000701272 0.000566212 0.000450112 0.000352973 0.000274794 0.000210389 0.000154572 0.000107341 6.86985e-05 3.86429e-05 1.71746e-05 4.29366e-06 0 0 3.1333e-05 0.000125332 0.000281997 0.000501327 0.000783324 0.00112799 0.00153532 0.00200531 0.00254507 0.00316171 0.00385522 0.00462561 0.00547287 0.006397 0.00739801 0.00847589 0.00960255 0.0107499 0.011918 0.0131068 0.0143162 0.0155464 0.0167973 0.0180688 0.0193348 0.020569 0.0217714 0.0229419 0.0240806 0.0251874 0.0262625 0.0273057 0.0283037 0.0292432 0.0301242 0.0309467 0.0317107 0.0324162 0.0330632 0.0336516 0.0341796 0.0346449 0.0350477 0.0353879 0.0356655 0.0358806 0.0360331 0.0361231 0.036156 0.0361375 0.0360675 0.0359461 0.0357732 0.0355489 0.0352731 0.0349459 0.0345762 0.0341731 0.0337365 0.0332665 0.0327631 0.0322263 0.031656 0.0310522 0.0304241 0.0297806 0.0291217 0.0284474 0.0277577 0.0270526 0.0263322 0.0255963 0.0248522 0.0241067 0.02336 0.0226119 0.0218626 0.021112 0.0203601 0.0196069 0.018857 0.018115 0.0173809 0.0166547 0.0159364 0.0152259 0.0145234 0.0138287 0.0131447 0.012474 0.0118167 0.0111728 0.0105423 0.00992522 0.00932148 0.00873113 0.00815619 0.00759871 0.00705868 0.0065361 0.00603097 0.00554329 0.00507307 0.00462029 0.00418716 0.00377588 0.00338643 0.00301882 0.00267306 0.00234913 0.00204705 0.0017668 0.00150893 0.00127394 0.00106185 0.000872644 0.000706334 0.000562916 0.000442389 0.000344755 0.000263953 0.000193925 0.00013467 8.61887e-05 4.84811e-05 2.15472e-05 5.38679e-06 0 0 3.78165e-05 0.000151266 0.000340348 0.000605063 0.000945411 0.00136139 0.00185301 0.00242025 0.00307058 0.00381145 0.00464284 0.00556477 0.00657723 0.00768022 0.00887375 0.0101578 0.0114992 0.0128646 0.014254 0.0156675 0.0171051 0.0185667 0.0200524 0.0215621 0.023065 0.0245302 0.0259578 0.0273476 0.0286997 0.0300142 0.0312909 0.03253 0.0337155 0.0348318 0.0358788 0.0368566 0.037765 0.0386042 0.0393742 0.0400748 0.0407037 0.0412584 0.0417388 0.0421451 0.0424772 0.042735 0.0429186 0.043028 0.0430697 0.0430503 0.0429696 0.0428278 0.0426249 0.0423608 0.0420355 0.041649 0.041212 0.0407351 0.0402184 0.0396617 0.0390652 0.0384288 0.0377525 0.0370363 0.036291 0.0355271 0.0347448 0.0339441 0.0331248 0.0322871 0.031431 0.0305563 0.0296716 0.0287852 0.0278971 0.0270073 0.0261158 0.0252226 0.0243278 0.0234312 0.0225385 0.021655 0.0207808 0.0199159 0.0190603 0.0182139 0.0173769 0.0165491 0.0157339 0.0149345 0.0141511 0.0133835 0.0126318 0.0118959 0.0111759 0.0104718 0.00978601 0.0091209 0.00847649 0.00785279 0.0072498 0.00666751 0.00610592 0.00556505 0.00504743 0.00455565 0.00408969 0.00364957 0.00323527 0.00284679 0.00248415 0.00214734 0.00183703 0.00155389 0.00129794 0.00106917 0.000867574 0.000693159 0.000545924 0.000425867 0.000326055 0.00023955 0.000166354 0.000106467 5.98876e-05 2.66167e-05 6.65418e-06 0 0 4.50025e-05 0.00018001 0.000405023 0.00072004 0.00112506 0.00162009 0.00220512 0.00288016 0.00365277 0.0045305 0.00551336 0.00660135 0.00779447 0.00909272 0.0104961 0.0120046 0.0135794 0.0151818 0.0168118 0.0184692 0.0201543 0.0218668 0.023607 0.0253746 0.0271341 0.0288495 0.0305209 0.0321482 0.0337316 0.0352709 0.0367662 0.0382175 0.0396063 0.0409142 0.0421413 0.0432875 0.0443528 0.0453372 0.0462408 0.0470635 0.0478023 0.0484543 0.0490195 0.049498 0.0498896 0.0501944 0.0504124 0.0505435 0.0505955 0.0505757 0.0504842 0.050321 0.050086 0.0497794 0.049401 0.0489509 0.0484415 0.0478852 0.047282 0.0466318 0.0459348 0.0451908 0.0444 0.0435622 0.04269 0.041796 0.04088 0.0399423 0.0389826 0.0380011 0.0369977 0.0359725 0.0349352 0.0338958 0.0328542 0.0318104 0.0307645 0.0297164 0.0286661 0.0276137 0.0265656 0.0255282 0.0245016 0.0234858 0.0224807 0.0214864 0.0205029 0.0195302 0.0185721 0.0176326 0.0167116 0.0158092 0.0149254 0.0140601 0.0132134 0.0123852 0.0115785 0.0107959 0.0100376 0.00930353 0.00859367 0.00790804 0.00724663 0.00660945 0.00599944 0.00541955 0.00486978 0.00435013 0.00386059 0.00340118 0.00297189 0.00257272 0.00220451 0.00186813 0.00156358 0.00129084 0.00104993 0.000840842 0.000663575 0.000518131 0.000396694 0.000291449 0.000202395 0.000129533 7.28622e-05 3.23832e-05 8.0958e-06 0 0 5.28912e-05 0.000211565 0.00047602 0.000846259 0.00132228 0.00190408 0.00259167 0.00338503 0.00429162 0.00531887 0.00646679 0.00773536 0.00912459 0.0106345 0.012265 0.0140163 0.0158434 0.0177017 0.0195912 0.0215119 0.0234637 0.0254468 0.027461 0.0295064 0.0315419 0.0335267 0.0354606 0.0373438 0.0391761 0.0409576 0.0426883 0.0443682 0.045976 0.0474905 0.0489117 0.0502395 0.0514741 0.0526153 0.0536631 0.0546177 0.0554754 0.0562327 0.0568898 0.0574464 0.0579028 0.0582587 0.0585144 0.0586697 0.0587332 0.0587137 0.0586111 0.0584254 0.0581566 0.0578047 0.0573697 0.0568516 0.0562648 0.0556234 0.0549274 0.054177 0.053372 0.0525125 0.0515984 0.0506299 0.0496212 0.048587 0.0475273 0.0464419 0.045331 0.0441945 0.0430325 0.0418448 0.040643 0.0394385 0.0382313 0.0370213 0.0358086 0.0345933 0.0333751 0.0321543 0.0309383 0.0297346 0.0285433 0.0273643 0.0261977 0.0250435 0.0239015 0.022772 0.0216593 0.0205681 0.0194983 0.01845 0.0174231 0.0164177 0.0154338 0.0144713 0.0135335 0.0126238 0.011742 0.0108883 0.0100626 0.00926487 0.00849518 0.0077535 0.00704318 0.00636757 0.00572668 0.0051205 0.00454904 0.00401229 0.00351026 0.00304294 0.00261139 0.00221666 0.00185875 0.00153767 0.00125341 0.00100596 0.000795345 0.000621547 0.000475872 0.00034962 0.000242792 0.000155387 8.74051e-05 3.88467e-05 9.71167e-06 0 0 6.14824e-05 0.00024593 0.000553341 0.000983718 0.00153706 0.00221337 0.00301264 0.00393487 0.00498716 0.00617657 0.00750312 0.00896679 0.0105676 0.0123055 0.0141806 0.0161928 0.0182911 0.0204242 0.0225924 0.0247955 0.0270335 0.0293065 0.0316144 0.0339573 0.0362886 0.0385619 0.0407771 0.0429342 0.0450333 0.0470743 0.0490573 0.0509821 0.0528247 0.0545606 0.05619 0.0577127 0.0591288 0.0604383 0.0616411 0.0627374 0.0637229 0.0645936 0.0653495 0.0659905 0.0665167 0.0669281 0.0672246 0.0674064 0.067483 0.0674643 0.0673504 0.0671411 0.0668366 0.0664367 0.0659416 0.0653512 0.0646817 0.0639496 0.0631547 0.062297 0.0613767 0.0603936 0.0593479 0.0582393 0.0570847 0.0559004 0.0546865 0.0534431 0.05217 0.0508674 0.0495351 0.0481733 0.046795 0.0454134 0.0440283 0.04264 0.0412483 0.0398532 0.0384548 0.0370531 0.0356567 0.0342743 0.0329059 0.0315516 0.0302113 0.028885 0.0275727 0.0262745 0.0249955 0.0237411 0.0225112 0.0213059 0.0201251 0.0189689 0.0178372 0.0167301 0.0156512 0.0146045 0.0135897 0.0126071 0.0116565 0.010738 0.00985158 0.0089972 0.00817865 0.00739972 0.00666041 0.0059607 0.00530061 0.00468013 0.00409927 0.00355801 0.00305766 0.00259948 0.00218347 0.00180965 0.001478 0.00118853 0.000941232 0.000736114 0.000563588 0.000414064 0.000287545 0.000184029 0.000103516 4.60072e-05 1.15018e-05 0 0 7.07762e-05 0.000283105 0.000636986 0.00113242 0.0017694 0.00254794 0.00346803 0.00452967 0.00573936 0.00710359 0.00862235 0.0102957 0.0121235 0.0141059 0.0162428 0.0185342 0.0209224 0.0233494 0.0258153 0.02832 0.0308636 0.033446 0.0360673 0.0387274 0.0413741 0.0439551 0.0464702 0.0489196 0.0513032 0.053621 0.055873 0.0580593 0.0601523 0.0621246 0.0639761 0.0657069 0.067317 0.0688063 0.0701748 0.0714226 0.072545 0.073537 0.0743988 0.0751303 0.0757315 0.0762025 0.0765432 0.0767536 0.0768448 0.0768276 0.076702 0.0764682 0.076126 0.0756755 0.0751167 0.0744495 0.0736924 0.0728638 0.0719637 0.0709921 0.069949 0.0688344 0.0676483 0.0663906 0.0650803 0.063736 0.0623578 0.0609457 0.0594997 0.0580197 0.0565058 0.054958 0.0533912 0.0518203 0.0502454 0.0486664 0.0470834 0.0454963 0.0439052 0.04231 0.0407207 0.0391472 0.0375895 0.0360475 0.0345214 0.033011 0.0315164 0.0300377 0.0285807 0.0271516 0.0257503 0.0243769 0.0230313 0.0217135 0.0204236 0.0191615 0.0179315 0.016738 0.0155808 0.01446 0.0133755 0.0123275 0.0113158 0.0103405 0.00940586 0.008516 0.00767095 0.00687072 0.0061153 0.00540469 0.00473891 0.00411793 0.00354331 0.00301658 0.00253773 0.00210677 0.00172371 0.00138853 0.00110124 0.000861833 0.000659841 0.000484781 0.000336654 0.000215458 0.000121195 5.38646e-05 1.34661e-05 0 0 8.05778e-05 0.000322311 0.000725201 0.00128925 0.00201445 0.0029008 0.00394831 0.00515698 0.00653251 0.00808062 0.0098013 0.0116946 0.0137604 0.0159988 0.0184098 0.0209933 0.0236845 0.0264186 0.0291954 0.0320151 0.0348775 0.0377827 0.0407308 0.0437216 0.046697 0.0495985 0.0524263 0.0551802 0.0578603 0.0604666 0.0629991 0.0654577 0.0678118 0.0700305 0.0721137 0.0740615 0.0758739 0.0775508 0.0790924 0.0804985 0.0817638 0.0828827 0.0838553 0.0846816 0.0853616 0.0858952 0.0862826 0.0865236 0.0866304 0.0866154 0.0864784 0.0862196 0.0858388 0.085336 0.0847114 0.0839649 0.083117 0.0821884 0.0811792 0.0800892 0.0789186 0.0776673 0.0763352 0.0749225 0.0734502 0.0719394 0.0703901 0.0688023 0.0671761 0.0655113 0.0638081 0.0620664 0.060303 0.0585348 0.0567618 0.054984 0.0532013 0.0514138 0.0496214 0.0478242 0.0460335 0.0442603 0.0425047 0.0407668 0.0390464 0.0373437 0.0356585 0.033991 0.0323479 0.0307361 0.0291555 0.0276062 0.0260882 0.0246014 0.0231459 0.0217216 0.0203334 0.0189861 0.0176796 0.016414 0.0151893 0.0140054 0.0128624 0.0117603 0.0107037 0.00969735 0.00874118 0.00783522 0.00697946 0.00617392 0.00541858 0.00471345 0.00406035 0.0034611 0.00291572 0.00242419 0.00198652 0.00160271 0.00127276 0.000996665 0.000763072 0.000560624 0.000389322 0.000249166 0.000140156 6.22916e-05 1.55729e-05 0 0 9.06927e-05 0.000362771 0.000816234 0.00145108 0.00226732 0.00326494 0.00444394 0.00580433 0.00735088 0.00908836 0.0110168 0.0131361 0.0154464 0.0179476 0.0206397 0.0235228 0.0265246 0.0295732 0.0326684 0.0358103 0.0389989 0.0422342 0.0455161 0.0488448 0.0521557 0.0553846 0.0585315 0.0615964 0.0645792 0.06748 0.0702988 0.0730355 0.0756561 0.0781263 0.0804461 0.0826156 0.0846348 0.0865036 0.088222 0.0897902 0.0912018 0.0924507 0.093537 0.0944606 0.0952215 0.0958197 0.0962553 0.0965282 0.0966519 0.0966398 0.0964919 0.0962082 0.0957887 0.0952334 0.0945423 0.0937155 0.0927757 0.0917457 0.0906257 0.0894155 0.0881152 0.0867248 0.0852443 0.0836737 0.0820364 0.080356 0.0786323 0.0768655 0.0750554 0.0732022 0.0713057 0.0693661 0.067402 0.0654323 0.0634569 0.0614759 0.0594891 0.0574967 0.0554986 0.0534949 0.051498 0.0495206 0.0475625 0.045624 0.0437048 0.0418051 0.0399248 0.038064 0.0362302 0.0344312 0.0326668 0.0309373 0.0292424 0.0275823 0.0259569 0.0243662 0.0228156 0.0213105 0.0198507 0.0184364 0.0170675 0.015744 0.0144659 0.0132333 0.0120511 0.0109247 0.00985395 0.00883887 0.00787947 0.00697574 0.00612768 0.0053353 0.00460076 0.0039262 0.00331162 0.00275704 0.00226244 0.00182783 0.00145321 0.00113857 0.000871718 0.000640446 0.000444754 0.000284643 0.000160112 7.11607e-05 1.77902e-05 0 0 0.000101121 0.000404483 0.000910087 0.00161793 0.00252802 0.00364035 0.00495492 0.00647173 0.00819447 0.0101268 0.0122688 0.0146203 0.0171815 0.0199523 0.0229326 0.0261226 0.0294427 0.0328132 0.0362342 0.0397058 0.0432278 0.0468003 0.0504233 0.0540968 0.0577503 0.0613134 0.064786 0.0681682 0.07146 0.0746613 0.0777722 0.0807926 0.0836851 0.086412 0.0889734 0.0913693 0.0935996 0.0956645 0.0975638 0.0992975 0.100859 0.102241 0.103444 0.104467 0.105311 0.105976 0.106461 0.106768 0.106909 0.106901 0.106742 0.106434 0.105976 0.105368 0.104609 0.103701 0.102668 0.101536 0.100303 0.0989709 0.0975389 0.0960071 0.0943756 0.0926443 0.090839 0.0889858 0.0870845 0.0851351 0.0831377 0.0810922 0.0789987 0.0768571 0.0746882 0.0725128 0.0703307 0.0681421 0.0659469 0.0637451 0.0615368 0.0593219 0.0571143 0.054928 0.0527629 0.0506191 0.0484966 0.0463953 0.0443153 0.0422565 0.0402275 0.0382368 0.0362843 0.03437 0.032494 0.0306562 0.0288567 0.0270954 0.0253783 0.0237112 0.0220942 0.0205271 0.0190102 0.0175432 0.0161263 0.0147594 0.0134481 0.0121981 0.0110093 0.00988168 0.0088153 0.00781015 0.00686622 0.0059835 0.00516454 0.00441186 0.00372545 0.00310531 0.00255146 0.00206388 0.00164258 0.00128755 0.000985781 0.000724247 0.000502949 0.000321888 0.000181062 8.04719e-05 2.0118e-05 0 0 0.000111862 0.000447448 0.00100676 0.00178979 0.00279655 0.00402703 0.00548124 0.00715917 0.00906326 0.011196 0.0135573 0.0161472 0.0189657 0.0220128 0.0252886 0.0287929 0.0324387 0.0361387 0.0398929 0.0437014 0.0475641 0.0514811 0.0554523 0.0594777 0.0634807 0.0673847 0.0711897 0.0748956 0.0785025 0.0820104 0.0854192 0.088729 0.0918988 0.0948877 0.0976956 0.100323 0.102768 0.105033 0.107118 0.109021 0.110735 0.112253 0.113575 0.114701 0.115631 0.116364 0.116901 0.117242 0.117402 0.117398 0.11723 0.116897 0.1164 0.115739 0.114913 0.113923 0.112795 0.111558 0.110212 0.108755 0.10719 0.105514 0.103729 0.101834 0.099858 0.0978288 0.0957465 0.0936112 0.0914229 0.0891814 0.0868869 0.0845394 0.0821615 0.0797761 0.0773832 0.0749827 0.0725747 0.0701591 0.067736 0.0653053 0.0628824 0.0604826 0.0581059 0.0557523 0.0534218 0.0511143 0.04883 0.0465687 0.0443399 0.0421529 0.0400078 0.0379044 0.0358429 0.0338232 0.0318453 0.0299092 0.0280214 0.0261883 0.0244099 0.0226862 0.0210173 0.019403 0.0178435 0.0163387 0.0148947 0.0135175 0.0122071 0.0109636 0.00978698 0.00867716 0.00763418 0.00665805 0.0057517 0.00491808 0.00415719 0.00346902 0.00285357 0.00231086 0.00184087 0.0014436 0.00110526 0.000812027 0.000563908 0.000360901 0.000203007 9.02252e-05 2.25563e-05 0 0 0.000122916 0.000491666 0.00110625 0.00196666 0.00307291 0.00442499 0.00602291 0.00786665 0.00995728 0.0122958 0.0148823 0.0177167 0.020799 0.0241293 0.0277075 0.0315336 0.0355126 0.0395496 0.0436444 0.0477972 0.0520079 0.0562765 0.060603 0.0649875 0.069347 0.0735987 0.0777426 0.0817786 0.0857069 0.0895273 0.09324 0.0968448 0.100297 0.103553 0.106613 0.109475 0.112141 0.114611 0.116883 0.11896 0.120831 0.122488 0.123932 0.125163 0.12618 0.126984 0.127574 0.127951 0.128131 0.128132 0.127955 0.127598 0.127062 0.126347 0.125452 0.124379 0.123156 0.121814 0.120351 0.118769 0.117067 0.115246 0.113304 0.111243 0.109093 0.106885 0.104619 0.102294 0.099911 0.0974698 0.0949705 0.092413 0.089822 0.0872225 0.0846144 0.0819977 0.0793724 0.0767386 0.0740961 0.0714451 0.0688023 0.0661844 0.0635914 0.0610234 0.0584803 0.0559621 0.0534688 0.0510005 0.0485673 0.0461796 0.0438374 0.0415405 0.0392891 0.0370831 0.0349226 0.0328075 0.0307449 0.0287417 0.026798 0.0249137 0.0230889 0.0213235 0.0196176 0.0179712 0.0163908 0.0148829 0.0134476 0.0120847 0.0107945 0.00957676 0.00843158 0.00735894 0.00636224 0.00544487 0.00460684 0.00384815 0.00316879 0.00256877 0.00204808 0.00160673 0.00123015 0.000903786 0.000627629 0.000401683 0.000225946 0.000100421 2.51052e-05 0 0 0.000134284 0.000537136 0.00120856 0.00214855 0.0033571 0.00483423 0.00657992 0.00859418 0.0108765 0.0134264 0.0162439 0.0193289 0.0226815 0.0263016 0.0301894 0.0343447 0.0386645 0.0430459 0.0474888 0.0519932 0.0565592 0.0611866 0.0658757 0.0706262 0.0753491 0.0799553 0.0844447 0.0888173 0.0930731 0.0972121 0.101234 0.10514 0.108881 0.112409 0.115725 0.118828 0.121718 0.124396 0.126861 0.129114 0.131145 0.132945 0.134514 0.135852 0.136959 0.137835 0.13848 0.138894 0.139096 0.139103 0.138916 0.138535 0.13796 0.137191 0.136228 0.135071 0.133751 0.132301 0.130722 0.129012 0.127172 0.125202 0.123102 0.120872 0.118545 0.116155 0.113701 0.111183 0.108602 0.105957 0.103249 0.100478 0.0976696 0.0948518 0.0920242 0.089187 0.0863401 0.0834836 0.0806173 0.0777414 0.074874 0.0720334 0.0692195 0.0664325 0.0636722 0.0609386 0.0582319 0.0555519 0.0529098 0.0503169 0.0477731 0.0452783 0.0428327 0.0404362 0.0380887 0.0357904 0.0335488 0.0313714 0.0292583 0.0272095 0.0252249 0.0233047 0.0214486 0.0196569 0.0179365 0.0162943 0.0147305 0.013245 0.0118378 0.010509 0.00925841 0.00808617 0.00699615 0.00599223 0.00507