<?xml version="1.0"?> 
<VTKFile type="StructuredGrid" version="0.1"> 
<StructuredGrid WholeExtent="0 128 0 128 0 0"> 
<Piece Extent="0 128 0 128 0 0"> 
<PointData>
<DataArray type="Float32" Name="u" format="ascii" NumberOfComponents="1"> 
0 0 0 0 0 0 0 0 0 0 0 0 0 0 0 0 0 0 0 0 0 0 0 0 0 0 0 0 0 0 0 0 0 0 0 0 0 0 0 0 0 0 0 0 0 0 0 0 0 0 0 0 0 0 0 0 0 0 0 0 0 0 0 0 0 0 0 0 0 0 0 0 0 0 0 0 0 0 0 0 0 0 0 0 0 0 0 0 0 0 0 0 0 0 0 0 0 0 0 0 0 0 0 0 0 0 0 0 0 0 0 0 0 0 0 0 0 0 0 0 0 0 0 0 0 0 0 0 0 0 7.06994e-07 2.82798e-06 6.36295e-06 1.13119e-05 1.76749e-05 2.54518e-05 3.46427e-05 4.52476e-05 5.74763e-05 7.15386e-05 8.74345e-05 0.000105164 0.000124727 0.000146124 0.000169354 0.000194418 0.000220636 0.000247332 0.000274503 0.000302151 0.000330275 0.000358875 0.000387951 0.000417504 0.000446871 0.000475388 0.000503056 0.000529875 0.000555844 0.000580964 0.000605235 0.000628657 0.000650887 0.000671584 0.000690748 0.000708379 0.000724476 0.000739039 0.00075207 0.000763567 0.000773488 0.000781792 0.000788478 0.000793546 0.000796997 0.000798829 0.000799044 0.000797641 0.000794791 0.000790667 0.000785267 0.000778593 0.000770643 0.000761419 0.00075092 0.000739145 0.000726371 0.000712872 0.000698648 0.000683699 0.000668025 0.000651626 0.000634502 0.000616653 0.000598357 0.00057989 0.000561253 0.000542446 0.000523468 0.00050432 0.000485002 0.000465514 0.000446066 0.000426868 0.000407921 0.000389225 0.00037078 0.000352586 0.000334642 0.000316949 0.000299623 0.000282779 0.000266419 0.000250541 0.000235145 0.000220233 0.000205803 0.000191856 0.000178422 0.000165533 0.000153188 0.000141386 0.000130129 0.000119416 0.000109247 9.96223e-05 9.0518e-05 8.19105e-05 7.37998e-05 6.6186e-05 5.9069e-05 5.24488e-05 4.63255e-05 4.0699e-05 3.55209e-05 3.0743e-05 2.63651e-05 2.23872e-05 1.88094e-05 1.56317e-05 1.2854e-05 1.04764e-05 8.42113e-06 6.61045e-06 5.04438e-06 3.72291e-06 2.64605e-06 1.81378e-06 1.22611e-06 8.8305e-07 6.76086e-07 4.96716e-07 3.44942e-07 2.20763e-07 1.24179e-07 5.51907e-08 1.37977e-08 0 0 2.82798e-06 1.13119e-05 2.54518e-05 4.52476e-05 7.06994e-05 0.000101807 0.000138571 0.00018099 0.000229905 0.000286154 0.000349738 0.000420656 0.000498908 0.000584495 0.000677416 0.000777671 0.000882546 0.000989326 0.00109801 0.0012086 0.0013211 0.0014355 0.00155181 0.00167002 0.00178748 0.00190155 0.00201222 0.0021195 0.00222338 0.00232386 0.00242094 0.00251463 0.00260355 0.00268634 0.00276299 0.00283351 0.0028979 0.00295616 0.00300828 0.00305427 0.00309395 0.00312717 0.00315391 0.00317419 0.00318799 0.00319532 0.00319617 0.00319056 0.00317916 0.00316267 0.00314107 0.00311437 0.00308257 0.00304568 0.00300368 0.00295658 0.00290548 0.00285149 0.00279459 0.00273479 0.0026721 0.0026065 0.00253801 0.00246661 0.00239343 0.00231956 0.00224501 0.00216978 0.00209387 0.00201728 0.00194001 0.00186206 0.00178426 0.00170747 0.00163169 0.0015569 0.00148312 0.00141034 0.00133857 0.0012678 0.00119849 0.00113112 0.00106567 0.00100216 0.000940582 0.000880931 0.000823212 0.000767424 0.00071369 0.000662132 0.00061275 0.000565545 0.000520516 0.000477664 0.000436989 0.000398489 0.000362072 0.000327642 0.000295199 0.000264744 0.000236276 0.000209795 0.000185302 0.000162796 0.000142084 0.000122972 0.00010546 8.95488e-05 7.52376e-05 6.25267e-05 5.1416e-05 4.19056e-05 3.36845e-05 2.64418e-05 2.01775e-05 1.48917e-05 1.05842e-05 7.25512e-06 4.90446e-06 3.5322e-06 2.70434e-06 1.98686e-06 1.37977e-06 8.8305e-07 4.96716e-07 2.20763e-07 5.51907e-08 0 0 6.36295e-06 2.54518e-05 5.72665e-05 0.000101807 0.000159074 0.000229066 0.000311784 0.000407229 0.000517287 0.000643847 0.00078691 0.000946476 0.00112254 0.00131511 0.00152419 0.00174976 0.00198573 0.00222598 0.00247053 0.00271936 0.00297247 0.00322987 0.00349156 0.00375754 0.00402184 0.00427849 0.0045275 0.00476887 0.0050026 0.00522868 0.00544712 0.00565791 0.00585799 0.00604426 0.00621673 0.00637541 0.00652028 0.00665135 0.00676863 0.0068721 0.0069614 0.00703613 0.0070963 0.00714192 0.00717297 0.00718946 0.00719139 0.00717877 0.00715312 0.007116 0.0070674 0.00700733 0.00693579 0.00685277 0.00675828 0.00665231 0.00653734 0.00641585 0.00628783 0.00615329 0.00601222 0.00586463 0.00571052 0.00554988 0.00538521 0.00521901 0.00505128 0.00488201 0.00471121 0.00453888 0.00436502 0.00418962 0.00401459 0.00384181 0.00367129 0.00350303 0.00333702 0.00317327 0.00301178 0.00285254 0.00269661 0.00254501 0.00239777 0.00225487 0.00211631 0.0019821 0.00185223 0.0017267 0.0016058 0.0014898 0.00137869 0.00127248 0.00117116 0.00107474 0.000983224 0.000896601 0.000814662 0.000737194 0.000664198 0.000595674 0.000531621 0.000472039 0.000416929 0.000366291 0.000319688 0.000276687 0.000237285 0.000201485 0.000169285 0.000140685 0.000115686 9.42876e-05 7.57901e-05 5.94941e-05 4.53994e-05 3.35062e-05 2.38144e-05 1.6324e-05 1.1035e-05 7.94745e-06 6.08477e-06 4.47044e-06 3.10447e-06 1.98686e-06 1.11761e-06 4.96716e-07 1.24179e-07 0 0 1.13119e-05 4.52476e-05 0.000101807 0.00018099 0.000282798 0.000407229 0.000554283 0.000723962 0.000919621 0.00114462 0.00139895 0.00168262 0.00199563 0.00233798 0.00270966 0.00311068 0.00353018 0.0039573 0.00439205 0.00483441 0.00528439 0.005742 0.00620722 0.00668007 0.00714993 0.00760621 0.00804889 0.00847799 0.0088935 0.00929543 0.00968376 0.0100585 0.0104142 0.0107453 0.011052 0.0113341 0.0115916 0.0118246 0.0120331 0.0122171 0.0123758 0.0125087 0.0126157 0.0126967 0.0127519 0.0127813 0.0127847 0.0127622 0.0127167 0.0126507 0.0125643 0.0124575 0.0123303 0.0121827 0.0120147 0.0118263 0.0116219 0.0114059 0.0111784 0.0109392 0.0106884 0.010426 0.010152 0.00986645 0.00957371 0.00927824 0.00898005 0.00867913 0.00837549 0.00806913 0.00776004 0.00744822 0.00713705 0.00682989 0.00652674 0.00622761 0.00593248 0.00564137 0.00535427 0.00507119 0.00479397 0.00452447 0.0042627 0.00400865 0.00376233 0.00352373 0.00329285 0.0030697 0.00285476 0.00264853 0.002451 0.00226218 0.00208207 0.00191066 0.00174795 0.00159396 0.00144829 0.00131057 0.0011808 0.00105898 0.000945103 0.000839181 0.000741207 0.000651184 0.000568335 0.000491887 0.000421841 0.000358195 0.00030095 0.000250107 0.000205664 0.000167622 0.000134738 0.000105767 8.07101e-05 5.95666e-05 4.23367e-05 2.90205e-05 1.96178e-05 1.41288e-05 1.08174e-05 7.94745e-06 5.51907e-06 3.5322e-06 1.98686e-06 8.8305e-07 2.20763e-07 0 0 1.76749e-05 7.06994e-05 0.000159074 0.000282798 0.000441871 0.000636295 0.000866068 0.00113119 0.00143691 0.00178847 0.00218586 0.0026291 0.00311818 0.00365309 0.00423385 0.00486044 0.00551591 0.00618329 0.00686257 0.00755377 0.00825686 0.00897187 0.00969879 0.0104376 0.0111718 0.0118847 0.0125764 0.0132469 0.0138961 0.0145241 0.0151309 0.0157164 0.0162722 0.0167896 0.0172687 0.0177095 0.0181119 0.018476 0.0188017 0.0190892 0.0193372 0.0195448 0.019712 0.0198387 0.0199249 0.0199707 0.0199761 0.019941 0.0198698 0.0197667 0.0196317 0.0194648 0.0192661 0.0190355 0.018773 0.0184786 0.0181593 0.0178218 0.0174662 0.0170925 0.0167006 0.0162906 0.0158625 0.0154163 0.0149589 0.0144973 0.0140313 0.0135611 0.0130867 0.012608 0.0121251 0.0116378 0.0111516 0.0106717 0.010198 0.00973064 0.00926951 0.00881465 0.00836605 0.00792373 0.00749057 0.00706948 0.00666047 0.00626352 0.00587863 0.00550582 0.00514508 0.0047964 0.00446056 0.00413832 0.00382969 0.00353466 0.00325323 0.0029854 0.00273118 0.00249056 0.00226295 0.00204776 0.00184499 0.00165465 0.00147672 0.00131122 0.00115814 0.00101747 0.000888024 0.000768574 0.000659126 0.00055968 0.000470235 0.000390792 0.00032135 0.00026191 0.000210528 0.000165261 0.00012611 9.30728e-05 6.61511e-05 4.53445e-05 3.06528e-05 2.20763e-05 1.69021e-05 1.24179e-05 8.62354e-06 5.51907e-06 3.10447e-06 1.37977e-06 3.44942e-07 0 0 2.54518e-05 0.000101807 0.000229066 0.000407229 0.000636295 0.000916264 0.00124714 0.00162891 0.00206915 0.00257539 0.00314764 0.0037859 0.00449017 0.00526045 0.00609674 0.00699904 0.00794291 0.00890394 0.00988211 0.0108774 0.0118899 0.0129195 0.0139663 0.0150302 0.0160873 0.017114 0.01811 0.0190755 0.0200104 0.0209147 0.0217885 0.0226316 0.0234319 0.024177 0.0248669 0.0255016 0.0260811 0.0266054 0.0270745 0.0274884 0.0278456 0.0281445 0.0283852 0.0285677 0.0286919 0.0287578 0.0287656 0.0287151 0.0286125 0.028464 0.0282696 0.0280293 0.0277432 0.0274111 0.0270331 0.0266092 0.0261494 0.0256634 0.0251513 0.0246132 0.0240489 0.0234585 0.0228421 0.0221995 0.0215408 0.020876 0.0202051 0.0195281 0.0188449 0.0181555 0.0174601 0.0167585 0.0160584 0.0153673 0.0146852 0.0140121 0.0133481 0.0126931 0.0120471 0.0114102 0.0107864 0.0101801 0.00959107 0.00901946 0.00846523 0.00792838 0.00740891 0.00690682 0.00642321 0.00595919 0.00551475 0.00508991 0.00468465 0.00429898 0.0039329 0.0035864 0.00325865 0.00294878 0.00265679 0.00238269 0.00212648 0.00188816 0.00166772 0.00146516 0.00127875 0.00110675 0.000949142 0.000805939 0.000677139 0.00056274 0.000462744 0.00037715 0.000303161 0.000237976 0.000181598 0.000134025 9.52576e-05 6.5296e-05 4.41401e-05 3.17898e-05 2.43391e-05 1.78818e-05 1.24179e-05 7.94745e-06 4.47044e-06 1.98686e-06 4.96716e-07 0 0 3.46427e-05 0.000138571 0.000311784 0.000554283 0.000866068 0.00124714 0.00169749 0.00221713 0.00281634 0.00350539 0.00428429 0.00515303 0.00611162 0.00716006 0.00829834 0.00952647 0.0108112 0.0121192 0.0134506 0.0148054 0.0161835 0.0175849 0.0190096 0.0204577 0.0218967 0.023294 0.0246497 0.0259639 0.0272364 0.0284672 0.0296565 0.0308042 0.0318935 0.0329076 0.0338467 0.0347105 0.0354993 0.0362129 0.0368514 0.0374148 0.0379009 0.0383078 0.0386354 0.0388838 0.0390528 0.0391426 0.0391531 0.0390844 0.0389448 0.0387427 0.0384781 0.038151 0.0377615 0.0373095 0.0367951 0.0362181 0.0355922 0.0349307 0.0342337 0.0335012 0.0327332 0.0319297 0.0310906 0.030216 0.0293195 0.0284146 0.0275014 0.0265798 0.0256499 0.0247117 0.0237651 0.0228102 0.0218572 0.0209165 0.0199882 0.019072 0.0181682 0.0172767 0.0163975 0.0155305 0.0146815 0.0138562 0.0130545 0.0122765 0.0115221 0.0107914 0.0100844 0.00940095 0.0087427 0.00811111 0.00750619 0.00692793 0.00637633 0.00585139 0.00535311 0.00488149 0.00443538 0.00401361 0.00361619 0.00324311 0.00289438 0.00256999 0.00226995 0.00199425 0.00174053 0.00150641 0.00129189 0.00109697 0.000921661 0.000765952 0.000629846 0.000513344 0.000412635 0.000323912 0.000247175 0.000182423 0.000129656 8.88752e-05 6.00796e-05 4.32695e-05 3.31282e-05 2.43391e-05 1.69021e-05 1.08174e-05 6.08477e-06 2.70434e-06 6.76086e-07 0 0 4.52476e-05 0.00018099 0.000407229 0.000723962 0.00113119 0.00162891 0.00221713 0.00289585 0.00367848 0.00457847 0.00559581 0.00673049 0.00798253 0.00935191 0.0108386 0.0124427 0.0141207 0.0158292 0.0175682 0.0193376 0.0211376 0.022968 0.0248289 0.0267203 0.0285997 0.0304248 0.0321956 0.033912 0.035574 0.0371817 0.038735 0.040234 0.0416568 0.0429814 0.0442079 0.0453362 0.0463664 0.0472985 0.0481325 0.0488683 0.0495033 0.0500347 0.0504626 0.050787 0.0510078 0.0511251 0.0511388 0.051049 0.0508666 0.0506027 0.0502571 0.0498299 0.0493212 0.0487308 0.0480589 0.0473053 0.0464877 0.0456238 0.0447135 0.0437567 0.0427536 0.041704 0.0406081 0.0394658 0.0382948 0.037113 0.0359202 0.0347165 0.033502 0.0322765 0.0310401 0.0297929 0.0285482 0.0273196 0.026107 0.0249104 0.0237299 0.0225655 0.0214171 0.0202847 0.0191759 0.0180979 0.0170508 0.0160346 0.0150493 0.0140949 0.0131714 0.0122788 0.011419 0.0105941 0.009804 0.00904872 0.00832826 0.00764263 0.00699182 0.00637583 0.00579315 0.00524227 0.00472319 0.0042359 0.00378041 0.00335672 0.00296483 0.00260473 0.00227334 0.00196755 0.00168736 0.00143278 0.0012038 0.00100043 0.000822657 0.00067049 0.000538952 0.000423069 0.000322841 0.000238266 0.000169347 0.000116082 7.84713e-05 5.65152e-05 4.32695e-05 3.17898e-05 2.20763e-05 1.41288e-05 7.94745e-06 3.5322e-06 8.8305e-07 0 0 5.75612e-05 0.000230245 0.000518051 0.000920979 0.00143903 0.0020722 0.0028205 0.00368392 0.00467891 0.00582192 0.00711296 0.00855202 0.0101391 0.0118742 0.0137573 0.0157885 0.0179128 0.0200753 0.0222761 0.0245152 0.0267925 0.029108 0.0314618 0.0338539 0.0362307 0.0385388 0.0407782 0.0429489 0.0450508 0.047084 0.0490486 0.0509444 0.0527438 0.0544192 0.0559706 0.057398 0.0587014 0.0598808 0.0609362 0.0618675 0.0626714 0.0633444 0.0638866 0.0642978 0.0645781 0.0647276 0.0647461 0.0646338 0.0644044 0.0640718 0.063636 0.0630969 0.0624547 0.0617092 0.0608605 0.0599086 0.0588756 0.057784 0.0566335 0.0554243 0.0541563 0.0528296 0.0514441 0.0499998 0.0485192 0.0470247 0.0455163 0.0439939 0.0424577 0.0409076 0.0393436 0.0377656 0.0361908 0.0346362 0.0331018 0.0315876 0.0300936 0.0286198 0.0271661 0.0257327 0.0243288 0.022964 0.0216382 0.0203514 0.0191036 0.0178949 0.0167251 0.0155944 0.0145051 0.0134599 0.0124588 0.0115016 0.0105885 0.00971939 0.00889432 0.00811327 0.00737435 0.00667565 0.00601717 0.00539892 0.00482088 0.00428307 0.00378548 0.00332811 0.00290704 0.00251837 0.00216208 0.00183819 0.00154668 0.00128756 0.00106084 0.000866497 0.000698285 0.000549935 0.000421449 0.000312826 0.000224065 0.000155167 0.000106133 7.69611e-05 5.89233e-05 4.32906e-05 3.00629e-05 1.92403e-05 1.08227e-05 4.81007e-06 1.20252e-06 0 0 7.18781e-05 0.000287512 0.000646903 0.00115005 0.00179695 0.00258761 0.00352203 0.0046002 0.00584093 0.00726304 0.00886651 0.0106514 0.0126176 0.0147652 0.0170941 0.0196044 0.0222286 0.0248991 0.0276159 0.030379 0.0331884 0.0360441 0.0389462 0.0418945 0.0448237 0.0476683 0.0504282 0.0531035 0.0556942 0.0582002 0.0606216 0.0629583 0.0651765 0.067242 0.069155 0.0709154 0.0725232 0.0739784 0.0752811 0.0764311 0.0774243 0.0782563 0.0789271 0.0794368 0.0797852 0.0799726 0.0799987 0.0798637 0.0795844 0.0791778 0.078644 0.0779829 0.0771945 0.0762789 0.0752359 0.0740657 0.0727955 0.0714526 0.070037 0.0685488 0.0669878 0.0653542 0.0636479 0.0618689 0.0600449 0.0582033 0.0563443 0.0544679 0.052574 0.0506626 0.0487337 0.0467874 0.0448446 0.0429265 0.0410329 0.0391639 0.0373196 0.0354998 0.0337047 0.0319341 0.0301999 0.0285135 0.026875 0.0252845 0.0237419 0.0222472 0.0208005 0.0194016 0.0180539 0.0167603 0.015521 0.0143359 0.013205 0.0121284 0.0111059 0.0101377 0.00922138 0.00835466 0.00753754 0.00677001 0.00605208 0.00538375 0.004765 0.00419586 0.00367148 0.00318705 0.00274256 0.00233802 0.00197341 0.00164876 0.00136404 0.00111927 0.000906806 0.000719 0.000555854 0.00041737 0.000303546 0.000214383 0.000149882 0.000110041 8.42502e-05 6.18981e-05 4.29848e-05 2.75103e-05 1.54745e-05 6.87756e-06 1.71939e-06 0 0 8.81983e-05 0.000352793 0.000793785 0.00141117 0.00220496 0.00317514 0.00432172 0.00564469 0.00716456 0.00890182 0.0108565 0.0130285 0.0154179 0.0180247 0.020849 0.0238905 0.0270682 0.0303005 0.0335874 0.036929 0.0403253 0.0437763 0.0472819 0.0508422 0.0543788 0.0578133 0.0611457 0.0643759 0.0675041 0.0705302 0.0734541 0.0762759 0.0789548 0.0814498 0.083761 0.0858883 0.0878318 0.0895914 0.0911671 0.0925591 0.0937618 0.0947703 0.0955843 0.0962039 0.0966292 0.09686 0.0968965 0.0967386 0.0964066 0.0959208 0.0952813 0.0944879 0.0935408 0.0924399 0.0911852 0.0897767 0.0882472 0.0866297 0.0849239 0.0831301 0.081248 0.0792779 0.0772196 0.0750731 0.0728718 0.0706489 0.0684045 0.0661384 0.0638507 0.0615414 0.0592106 0.0568582 0.0545096 0.0521902 0.0499002 0.0476394 0.0454079 0.0432057 0.0410328 0.0388891 0.0367889 0.0347463 0.0327613 0.030834 0.0289642 0.0271521 0.0253976 0.0237007 0.0220653 0.0204953 0.0189908 0.0175516 0.0161779 0.0148695 0.0136266 0.0124491 0.0113342 0.0102793 0.00928429 0.00834919 0.00747401 0.00665875 0.00590341 0.00520799 0.00456666 0.00397359 0.0034288 0.00293227 0.002484 0.00208401 0.00173228 0.00142882 0.00116452 0.000930262 0.000726056 0.000551899 0.00040779 0.00029373 0.000209718 0.000155755 0.00011925 8.76122e-05 6.08418e-05 3.89388e-05 2.19031e-05 9.73469e-06 2.43367e-06 0 0 0.000106522 0.000426088 0.000958697 0.00170435 0.00266305 0.00383479 0.00521957 0.0068174 0.00864979 0.0107383 0.0130828 0.0156835 0.0185402 0.021653 0.0250219 0.0286468 0.0324315 0.0362795 0.0401908 0.0441654 0.0482033 0.0523046 0.0564691 0.060697 0.064896 0.0689738 0.0729306 0.0767661 0.0804806 0.0840739 0.0875461 0.0908972 0.0940788 0.0970426 0.0997885 0.102317 0.104627 0.10672 0.108594 0.110251 0.111684 0.112886 0.113858 0.114599 0.11511 0.11539 0.11544 0.115259 0.114871 0.114301 0.113548 0.112612 0.111493 0.110192 0.108708 0.107042 0.105231 0.103315 0.101294 0.0991682 0.096937 0.0946006 0.0921591 0.0896125 0.0870001 0.0843615 0.0816966 0.0790054 0.076288 0.0735442 0.0707742 0.067978 0.0651857 0.0624276 0.0597037 0.057014 0.0543586 0.0517374 0.0491504 0.0465976 0.044096 0.0416624 0.039297 0.0369997 0.0347705 0.0326094 0.0305163 0.0284914 0.0265394 0.0246649 0.022868 0.0211487 0.019507 0.0179429 0.0164564 0.0150475 0.0137129 0.0124496 0.0112574 0.0101365 0.00908668 0.00810809 0.0072007 0.0063645 0.00559257 0.004878 0.00422079 0.00362094 0.00307845 0.00259332 0.00216555 0.00179514 0.00147142 0.00118372 0.000932055 0.000716413 0.000536797 0.000393206 0.000285642 0.000214103 0.000163923 0.000120433 8.3634e-05 5.35258e-05 3.01083e-05 1.33814e-05 3.34536e-06 0 0 0.000126849 0.000507395 0.00114164 0.00202958 0.00317122 0.00456656 0.00621559 0.00811832 0.0102966 0.0127724 0.0155456 0.0186162 0.0219843 0.0256498 0.0296128 0.0338733 0.0383185 0.0428361 0.0474259 0.052088 0.0568223 0.0616289 0.0665077 0.0714588 0.0763752 0.0811499 0.0857829 0.0902741 0.0946237 0.0988315 0.102898 0.106822 0.110548 0.11402 0.117238 0.120201 0.122909 0.125363 0.127563 0.129508 0.131191 0.132605 0.133748 0.134623 0.135227 0.135562 0.135628 0.135424 0.134978 0.134318 0.133443 0.132355 0.131052 0.129536 0.127805 0.12586 0.123747 0.121509 0.119148 0.116663 0.114055 0.111322 0.108467 0.105487 0.10243 0.099341 0.0962207 0.093069 0.0898857 0.0866709 0.0834246 0.0801468 0.0768729 0.0736385 0.0704434 0.0672878 0.0641716 0.0610949 0.0580575 0.0550596 0.0521211 0.0492619 0.0464821 0.0437817 0.0411607 0.0386191 0.0361568 0.0337739 0.0314761 0.0292691 0.0271528 0.0251273 0.0231925 0.0213485 0.0195953 0.0179328 0.0163574 0.0148655 0.0134569 0.0121318 0.0108901 0.00973176 0.00865687 0.00766538 0.00674922 0.00590027 0.00511854 0.00440404 0.00375675 0.00317669 0.00266384 0.00221822 0.00182751 0.00147938 0.00117385 0.000910912 0.000690566 0.000512813 0.000377653 0.000285085 0.000218268 0.000160361 0.000111361 7.12713e-05 4.00901e-05 1.78178e-05 4.45446e-06 0 0 0.000149179 0.000596716 0.00134261 0.00238687 0.00372948 0.00537045 0.00730977 0.00954746 0.0121051 0.0150042 0.0182447 0.0218268 0.0257503 0.0300154 0.0346219 0.0395699 0.0447294 0.0499704 0.0552928 0.0606968 0.0661823 0.0717493 0.0773978 0.0831277 0.0888165 0.0943415 0.0997026 0.1049 0.109933 0.114803 0.119509 0.124051 0.128364 0.132383 0.136108 0.13954 0.142678 0.145522 0.148072 0.150329 0.152283 0.153925 0.155255 0.156274 0.156982 0.157377 0.157461 0.157234 0.156727 0.155971 0.154968 0.153717 0.152218 0.150471 0.148476 0.146233 0.143794 0.141212 0.138485 0.135615 0.132601 0.129443 0.126142 0.122696 0.119161 0.115587 0.111977 0.108329 0.104644 0.100922 0.0971617 0.0933646 0.0895713 0.0858229 0.0821194 0.0784607 0.074847 0.0712781 0.0677542 0.0642751 0.0608642 0.0575447 0.0543167 0.0511801 0.048135 0.0451813 0.042319 0.0395482 0.0368755 0.0343078 0.031845 0.0294872 0.0272343 0.0250863 0.0230433 0.0211051 0.0192678 0.017527 0.0158828 0.0143352 0.0128842 0.0115298 0.0102719 0.00911065 0.0080366 0.0070404 0.00612205 0.00528156 0.00451891 0.00383411 0.00322717 0.00269808 0.00223278 0.00181724 0.00145144 0.0011354 0.000869099 0.000652551 0.000485752 0.000368702 0.000282287 0.000207395 0.000144024 9.21754e-05 5.18487e-05 2.30439e-05 5.76096e-06 0 0 0.000173513 0.000694051 0.00156161 0.0027762 0.00433782 0.00624646 0.00850212 0.0111048 0.0140751 0.0174336 0.0211803 0.0253152 0.0298383 0.0347495 0.040049 0.0457367 0.0516639 0.0576822 0.0637916 0.0699919 0.0762833 0.0826657 0.0891392 0.0957037 0.10222 0.108549 0.11469 0.120643 0.12641 0.131988 0.137379 0.142583 0.147525 0.152131 0.156401 0.160335 0.163934 0.167196 0.170123 0.172714 0.174959 0.176847 0.178379 0.179554 0.180373 0.180835 0.18094 0.180689 0.180118 0.179262 0.178122 0.176698 0.17499 0.172997 0.17072 0.168159 0.165374 0.162422 0.159306 0.156024 0.152576 0.148963 0.145185 0.141241 0.137193 0.133101 0.128965 0.124786 0.120563 0.116296 0.111986 0.107631 0.103281 0.0989809 0.0947315 0.0905328 0.0863847 0.0822872 0.0782403 0.0742441 0.0703253 0.0665109 0.0628007 0.0591948 0.0556932 0.0522959 0.0490028 0.0458141 0.0427376 0.0397811 0.0369448 0.0342285 0.0316324 0.0291563 0.0268003 0.0245644 0.022444 0.0204342 0.0185351 0.0167467 0.0150691 0.0135021 0.0120458 0.0107003 0.00945472 0.00829839 0.00723132 0.0062535 0.00536492 0.0045656 0.00385553 0.0032347 0.00268725 0.00219729 0.00176483 0.00138987 0.00107239 0.000812418 0.000609938 0.000464952 0.000355979 0.000261536 0.000181622 0.000116238 6.53839e-05 2.90595e-05 7.26488e-06 0 0 0.00019985 0.000799398 0.00179865 0.00319759 0.00499624 0.00719458 0.00979263 0.0127904 0.0162068 0.0200607 0.0243523 0.0290814 0.0342481 0.0398523 0.0458942 0.0523736 0.0591223 0.0659717 0.0729221 0.0799733 0.0871254 0.0943783 0.101732 0.109187 0.116585 0.123771 0.130744 0.137505 0.144052 0.150387 0.156509 0.162419 0.168031 0.173263 0.178115 0.182586 0.186676 0.190386 0.193715 0.196664 0.19922 0.201372 0.203119 0.204462 0.205401 0.205935 0.206064 0.205789 0.205151 0.20419 0.202905 0.201298 0.199368 0.197115 0.194539 0.19164 0.188485 0.185142 0.18161 0.177889 0.17398 0.169882 0.165596 0.161121 0.156526 0.151881 0.147185 0.142439 0.137642 0.132794 0.127896 0.122947 0.118002 0.113112 0.10828 0.103504 0.0987847 0.0941221 0.089516 0.0849666 0.0805045 0.0761603 0.0719341 0.0678258 0.0638354 0.0599629 0.0562084 0.0525718 0.0490623 0.0456891 0.0424521 0.0393513 0.0363868 0.0335585 0.0308665 0.0283107 0.025886 0.023587 0.0214137 0.0193663 0.0174446 0.0156488 0.0139786 0.0124343 0.0110036 0.00967425 0.00844635 0.00731986 0.00629479 0.00537114 0.00454891 0.0038281 0.00319091 0.00261955 0.00211402 0.00167432 0.00130045 0.000992416 0.000750211 0.000573836 0.000439344 0.000322783 0.000224155 0.000143459 8.06958e-05 3.58648e-05 8.9662e-06 0 0 0.000227664 0.000910658 0.00204898 0.00364263 0.00569161 0.00819592 0.0111556 0.0145705 0.0184576 0.0228334 0.027698 0.0330514 0.0388937 0.0452247 0.0520445 0.0593531 0.0669615 0.0746805 0.0825102 0.0904507 0.0985018 0.106664 0.114936 0.123319 0.131638 0.139718 0.147559 0.15516 0.162522 0.169646 0.17653 0.183175 0.189486 0.195371 0.200829 0.205859 0.210463 0.214639 0.218388 0.22171 0.224592 0.227019 0.228992 0.230511 0.231576 0.232187 0.232343 0.232045 0.231338 0.230268 0.228835 0.227039 0.224879 0.222356 0.21947 0.21622 0.212683 0.208932 0.204969 0.200793 0.196404 0.191802 0.186987 0.181959 0.176796 0.171575 0.166296 0.160959 0.155564 0.150111 0.1446 0.139031 0.133464 0.12796 0.122519 0.11714 0.111825 0.106572 0.101381 0.0962535 0.0912233 0.086325 0.0815589 0.0769248 0.0724227 0.0680527 0.0638147 0.0597088 0.0557455 0.0519351 0.0482779 0.0447736 0.0414225 0.0382243 0.0351792 0.0322872 0.0295424 0.0269391 0.0244773 0.022157 0.0199781 0.0179408 0.0160449 0.0142905 0.0126639 0.0111514 0.00975298 0.00846871 0.00729855 0.00624251 0.00530057 0.00447276 0.00373931 0.0030805 0.00249632 0.00198676 0.00155184 0.00119155 0.000905889 0.000694859 0.000532002 0.000390858 0.000271429 0.000173715 9.77146e-05 4.34287e-05 1.08572e-05 0 0 0.000256432 0.00102573 0.00230789 0.00410291 0.00641079 0.00923154 0.0125652 0.0164116 0.0207851 0.0256995 0.0311549 0.0371514 0.0436889 0.0507674 0.058387 0.0665475 0.0750387 0.0836501 0.0923818 0.101234 0.110206 0.119298 0.128511 0.137844 0.147104 0.156097 0.164825 0.173286 0.181481 0.189409 0.197071 0.204467 0.211493 0.218044 0.224121 0.229723 0.23485 0.239503 0.243682 0.247386 0.250601 0.25331 0.255515 0.257215 0.25841 0.2591 0.259285 0.258965 0.258191 0.257012 0.255429 0.253441 0.251049 0.248253 0.245052 0.241447 0.237521 0.233357 0.228955 0.224316 0.219439 0.214324 0.208971 0.20338 0.197638 0.19183 0.185956 0.180016 0.174011 0.16794 0.161803 0.1556 0.149399 0.143267 0.137203 0.131208 0.125282 0.119424 0.113636 0.107916 0.102303 0.0968369 0.091517 0.0863435 0.0813163 0.0764354 0.0717009 0.0671127 0.0626827 0.0584229 0.0543333 0.0504137 0.0466644 0.0430851 0.0396761 0.0364371 0.033362 0.0304445 0.0276844 0.0250818 0.0226367 0.0203492 0.0182191 0.0162465 0.0144163 0.0127131 0.0111371 0.00968809 0.00836622 0.00717145 0.00610377 0.00516319 0.00432804 0.00357666 0.00290905 0.0023252 0.00182513 0.00140883 0.00107629 0.000827525 0.000633574 0.000465483 0.000323252 0.000206881 0.000116371 5.17203e-05 1.29301e-05 0 0 0.000286152 0.00114461 0.00257537 0.00457843 0.00715379 0.0103015 0.0140214 0.0183137 0.0231893 0.028659 0.0347231 0.0413814 0.0486339 0.0564806 0.0649216 0.0739569 0.083354 0.0928806 0.102537 0.112322 0.122238 0.132282 0.142457 0.15276 0.162982 0.172909 0.182543 0.191882 0.200927 0.209677 0.218134 0.226297 0.234051 0.241282 0.247991 0.254177 0.259839 0.26498 0.269597 0.273692 0.277247 0.280245 0.282687 0.284573 0.285902 0.286674 0.286891 0.28655 0.285709 0.284421 0.282686 0.280506 0.277879 0.274806 0.271286 0.26732 0.263 0.258416 0.253569 0.248458 0.243084 0.237447 0.231547 0.225383 0.219051 0.212645 0.206165 0.199611 0.192983 0.186281 0.179506 0.172656 0.165807 0.159032 0.152333 0.145707 0.139157 0.132681 0.12628 0.119953 0.113744 0.107696 0.101809 0.096082 0.0905162 0.0851112 0.0798669 0.0747835 0.0698742 0.0651524 0.0606182 0.0562716 0.0521125 0.0481409 0.044357 0.0407605 0.0373448 0.0341029 0.0310349 0.0281407 0.0254204 0.0228739 0.0205013 0.0183025 0.0162608 0.0143595 0.0125986 0.010978 0.00949782 0.00815797 0.0069585 0.00589938 0.00495708 0.00410802 0.0033522 0.00268964 0.00212032 0.00164424 0.00126141 0.000971833 0.00074406 0.000546656 0.000379622 0.000242958 0.000136664 6.07396e-05 1.51849e-05 0 0 0.000316824 0.0012673 0.00285142 0.00506919 0.00792061 0.0114057 0.0155244 0.0202767 0.0256702 0.0317121 0.0384024 0.0457412 0.0537285 0.0623642 0.0716484 0.0815811 0.0919073 0.102372 0.112975 0.123717 0.134597 0.145616 0.156773 0.168069 0.179273 0.190154 0.200712 0.210948 0.220861 0.230451 0.239718 0.248663 0.25716 0.265086 0.272439 0.279221 0.28543 0.291067 0.296133 0.300626 0.304529 0.307823 0.310509 0.312585 0.314052 0.31491 0.31516 0.3148 0.313892 0.312494 0.310608 0.308232 0.305368 0.302014 0.298172 0.29384 0.289119 0.284109 0.278809 0.27322 0.267341 0.261173 0.254716 0.247969 0.241036 0.23402 0.226923 0.219743 0.21248 0.205135 0.197708 0.190198 0.182687 0.175257 0.167907 0.160638 0.153449 0.146341 0.139313 0.132366 0.125546 0.118902 0.112433 0.10614 0.100022 0.0940799 0.0883128 0.0827211 0.0773197 0.0721236 0.0671328 0.0623472 0.0577668 0.0533917 0.0492219 0.0452574 0.0414907 0.0379145 0.0345289 0.0313337 0.0283291 0.025515 0.0228914 0.0204584 0.0181975 0.0160906 0.0141376 0.0123385 0.0106933 0.00920208 0.00786475 0.00668135 0.00562643 0.00467458 0.00382579 0.00308007 0.0024374 0.0018978 0.00146126 0.00112778 0.000863459 0.000634378 0.000440541 0.000281946 0.000158595 7.04865e-05 1.76216e-05 0 0 0.000348449 0.0013938 0.00313604 0.00557519 0.00871123 0.0125442 0.017074 0.0223007 0.0282278 0.0348585 0.0421929 0.050231 0.0589728 0.0684183 0.0785674 0.0894203 0.100699 0.112124 0.123697 0.135417 0.147284 0.159299 0.171461 0.18377 0.195977 0.207831 0.219334 0.230484 0.241283 0.251729 0.261824 0.271566 0.280821 0.289455 0.297466 0.304855 0.311622 0.317767 0.32329 0.32819 0.332449 0.336045 0.338979 0.341251 0.342861 0.343808 0.344093 0.343716 0.342741 0.341233 0.339194 0.336621 0.333516 0.329879 0.325709 0.321006 0.315879 0.310436 0.304676 0.298601 0.292209 0.285501 0.278477 0.271136 0.263592 0.255956 0.24823 0.240411 0.232502 0.224501 0.216409 0.208226 0.20004 0.19194 0.183927 0.176 0.168159 0.160404 0.152736 0.145153 0.137709 0.130455 0.123392 0.116518 0.109835 0.103342 0.0970385 0.0909256 0.0850194 0.0793365 0.0738769 0.0686405 0.0636274 0.0588375 0.054271 0.0499276 0.0457997 0.0418792 0.0381663 0.0346609 0.0313629 0.0282725 0.0253896 0.0227141 0.0202263 0.0179063 0.015754 0.0137695 0.0119528 0.0103038 0.00882254 0.00750908 0.00633611 0.00527635 0.00432981 0.00349649 0.00277639 0.0021695 0.00167583 0.00129538 0.000991773 0.00072865 0.000506007 0.000323844 0.000182162 8.09611e-05 2.02403e-05 0 0 0.000381027 0.00152411 0.00342924 0.00609643 0.00952567 0.013717 0.0186703 0.0243857 0.0308621 0.0380984 0.0460946 0.0548507 0.0643668 0.0746427 0.0856786 0.0974744 0.109728 0.122137 0.134702 0.147423 0.160299 0.173331 0.186519 0.199863 0.213093 0.225941 0.238407 0.250491 0.262193 0.273513 0.28445 0.295006 0.305034 0.314389 0.32307 0.331079 0.338415 0.345078 0.351067 0.356384 0.361006 0.364911 0.3681 0.370572 0.372328 0.373367 0.373689 0.373296 0.372255 0.370637 0.368443 0.365672 0.362324 0.358399 0.353897 0.348818 0.34328 0.337397 0.331171 0.324601 0.317688 0.310431 0.30283 0.294886 0.28672 0.278453 0.270086 0.261618 0.253049 0.24438 0.23561 0.22674 0.217865 0.209082 0.200392 0.191793 0.183286 0.174871 0.166548 0.158316 0.150233 0.142356 0.134683 0.127216 0.119953 0.112896 0.106044 0.099397 0.0929733 0.0867912 0.0808506 0.0751516 0.0696942 0.0644783 0.0595041 0.0547713 0.0502718 0.0459971 0.0419472 0.0381221 0.0345218 0.0311463 0.0279957 0.0250698 0.0223473 0.0198066 0.0174479 0.0152711 0.0132761 0.011463 0.00983186 0.00838258 0.00708609 0.00591332 0.00486426 0.00393891 0.00313727 0.00245934 0.00190512 0.00147461 0.001129 0.00082947 0.000576021 0.000368653 0.000207368 9.21633e-05 2.30408e-05 0 0 0.000414557 0.00165823 0.00373101 0.00663291 0.0103639 0.014924 0.0203133 0.0265316 0.0335731 0.0414317 0.0501075 0.0596004 0.0699104 0.0810376 0.092982 0.105743 0.118995 0.132411 0.145991 0.159735 0.173642 0.187713 0.201949 0.216348 0.230622 0.244484 0.257933 0.270968 0.283591 0.295801 0.307598 0.318982 0.329798 0.339888 0.349253 0.357894 0.365809 0.373 0.379466 0.385207 0.390199 0.39442 0.397869 0.400547 0.402453 0.403587 0.40395 0.40354 0.402434 0.400707 0.398357 0.395385 0.391791 0.387575 0.382737 0.377277 0.371321 0.364992 0.358293 0.351221 0.343778 0.335963 0.327776 0.319218 0.310419 0.30151 0.292491 0.283361 0.274121 0.264771 0.25531 0.24574 0.236163 0.226