<?xml version="1.0"?> 
<VTKFile type="StructuredGrid" version="0.1"> 
<StructuredGrid WholeExtent="0 128 0 128 0 0"> 
<Piece Extent="0 128 0 128 0 0"> 
<PointData>
<DataArray type="Float32" Name="u" format="ascii" NumberOfComponents="1"> 
0 0 0 0 0 0 0 0 0 0 0 0 0 0 0 0 0 0 0 0 0 0 0 0 0 0 0 0 0 0 0 0 0 0 0 0 0 0 0 0 0 0 0 0 0 0 0 0 0 0 0 0 0 0 0 0 0 0 0 0 0 0 0 0 0 0 0 0 0 0 0 0 0 0 0 0 0 0 0 0 0 0 0 0 0 0 0 0 0 0 0 0 0 0 0 0 0 0 0 0 0 0 0 0 0 0 0 0 0 0 0 0 0 0 0 0 0 0 0 0 0 0 0 0 0 0 0 0 0 0 6.35503e-07 2.54201e-06 5.71953e-06 1.0168e-05 1.58876e-05 2.28781e-05 3.11396e-05 4.06722e-05 5.1665e-05 6.43074e-05 7.85994e-05 9.45409e-05 0.000112132 0.000131373 0.000152263 0.000174803 0.000198384 0.0002224 0.000246851 0.000271735 0.000297054 0.000322807 0.000348994 0.000375616 0.000402078 0.000427787 0.000452743 0.000476946 0.000500396 0.000523094 0.000545038 0.000566229 0.000586359 0.00060512 0.000622513 0.000638538 0.000653193 0.00066648 0.000678398 0.000688948 0.000698088 0.000705778 0.000712017 0.000716806 0.000720144 0.000722033 0.000722471 0.000721458 0.000719146 0.000715684 0.000711073 0.000705312 0.000698402 0.000690342 0.000681133 0.000670774 0.00065951 0.000647586 0.000635 0.000621753 0.000607845 0.000593276 0.000578047 0.000562156 0.000545852 0.000529381 0.000512744 0.00049594 0.00047897 0.000461834 0.000444531 0.000427062 0.000409615 0.000392379 0.000375352 0.000358536 0.000341931 0.000325536 0.000309351 0.000293377 0.000277717 0.000262478 0.00024766 0.000233261 0.000219282 0.000205724 0.000192585 0.000179867 0.000167599 0.00015581 0.000144502 0.000133673 0.000123324 0.000113455 0.000104066 9.5157e-05 8.67103e-05 7.87085e-05 7.11516e-05 6.40397e-05 5.73728e-05 5.11508e-05 4.53737e-05 4.00417e-05 3.51159e-05 3.05578e-05 2.63674e-05 2.25447e-05 1.90897e-05 1.60023e-05 1.32826e-05 1.09307e-05 8.88039e-06 7.06585e-06 5.48705e-06 4.14398e-06 3.03665e-06 2.16505e-06 1.52919e-06 1.12905e-06 8.64433e-07 6.35093e-07 4.41037e-07 2.82264e-07 1.58773e-07 7.05659e-08 1.76415e-08 0 0 2.54201e-06 1.0168e-05 2.28781e-05 4.06722e-05 6.35503e-05 9.15124e-05 0.000124559 0.000162689 0.00020666 0.00025723 0.000314398 0.000378164 0.000448528 0.000525491 0.000609052 0.000699211 0.000793538 0.000889602 0.000987403 0.00108694 0.00118822 0.00129123 0.00139598 0.00150246 0.00160831 0.00171115 0.00181097 0.00190779 0.00200159 0.00209237 0.00218015 0.00226491 0.00234544 0.00242048 0.00249005 0.00255415 0.00261277 0.00266592 0.00271359 0.00275579 0.00279235 0.00282311 0.00284807 0.00286722 0.00288058 0.00288813 0.00288988 0.00288583 0.00287658 0.00286274 0.00284429 0.00282125 0.00279361 0.00276137 0.00272453 0.0026831 0.00263804 0.00259034 0.00254 0.00248701 0.00243138 0.00237311 0.00231219 0.00224862 0.00218341 0.00211752 0.00205097 0.00198376 0.00191588 0.00184734 0.00177812 0.00170825 0.00163846 0.00156951 0.00150141 0.00143415 0.00136772 0.00130214 0.0012374 0.00117351 0.00111087 0.00104991 0.000990638 0.000933043 0.000877129 0.000822895 0.000770341 0.000719468 0.000670395 0.000623241 0.000578007 0.000534692 0.000493297 0.000453821 0.000416265 0.000380628 0.000346841 0.000314834 0.000284606 0.000256159 0.000229491 0.000204603 0.000181495 0.000160167 0.000140464 0.000122231 0.00010547 9.01787e-05 7.63586e-05 6.40092e-05 5.31306e-05 4.37226e-05 3.55216e-05 2.82634e-05 2.19482e-05 1.65759e-05 1.21466e-05 8.6602e-06 6.11674e-06 4.51622e-06 3.45773e-06 2.54037e-06 1.76415e-06 1.12905e-06 6.35093e-07 2.82264e-07 7.05659e-08 0 0 5.71953e-06 2.28781e-05 5.14757e-05 9.15124e-05 0.000142988 0.000205903 0.000280257 0.00036605 0.000464985 0.000578767 0.000707395 0.000850868 0.00100919 0.00118235 0.00137037 0.00157322 0.00178546 0.0020016 0.00222166 0.00244562 0.00267349 0.00290526 0.00314095 0.00338054 0.0036187 0.00385008 0.00407469 0.00429252 0.00450357 0.00470784 0.00490534 0.00509606 0.00527723 0.00544608 0.00560262 0.00574684 0.00587874 0.00599832 0.00610558 0.00620053 0.00628279 0.006352 0.00640815 0.00645125 0.0064813 0.00649829 0.00650223 0.00649312 0.00647231 0.00644115 0.00639965 0.00634781 0.00628561 0.00621308 0.00613019 0.00603697 0.00593559 0.00582827 0.005715 0.00559578 0.00547061 0.00533949 0.00520242 0.0050594 0.00491266 0.00476443 0.00461469 0.00446346 0.00431073 0.0041565 0.00400078 0.00384356 0.00368654 0.00353141 0.00337817 0.00322683 0.00307738 0.00292982 0.00278416 0.00264039 0.00249946 0.00236231 0.00222894 0.00209935 0.00197354 0.00185151 0.00173327 0.0016188 0.00150839 0.00140229 0.00130052 0.00120306 0.00110992 0.0010211 0.000936596 0.000856413 0.000780393 0.000708376 0.000640365 0.000576357 0.000516355 0.000460357 0.000408364 0.000360375 0.000316043 0.00027502 0.000237307 0.000202902 0.000171807 0.000144021 0.000119544 9.8376e-05 7.99235e-05 6.35927e-05 4.93835e-05 3.72959e-05 2.73299e-05 1.94855e-05 1.37627e-05 1.01615e-05 7.77989e-06 5.71584e-06 3.96933e-06 2.54037e-06 1.42896e-06 6.35093e-07 1.58773e-07 0 0 1.0168e-05 4.06722e-05 9.15124e-05 0.000162689 0.000254201 0.00036605 0.000498234 0.000650755 0.00082664 0.00102892 0.00125759 0.00151265 0.00179411 0.00210196 0.00243621 0.00279684 0.00317415 0.00355841 0.00394961 0.00434776 0.00475286 0.00516491 0.00558391 0.00600985 0.00643325 0.00684459 0.00724389 0.00763114 0.00800634 0.0083695 0.0087206 0.00905966 0.00938174 0.00968193 0.00996021 0.0102166 0.0104511 0.0106637 0.0108544 0.0110232 0.0111694 0.0112924 0.0113923 0.0114689 0.0115223 0.0115525 0.0115595 0.0115433 0.0115063 0.0114509 0.0113772 0.011285 0.0111744 0.0110455 0.0108981 0.0107324 0.0105522 0.0103614 0.01016 0.00994805 0.00972552 0.00949242 0.00924875 0.0089945 0.00873362 0.00847009 0.0082039 0.00793504 0.00766352 0.00738934 0.0071125 0.00683299 0.00655384 0.00627806 0.00600564 0.00573658 0.00547089 0.00520857 0.00494962 0.00469403 0.00444348 0.00419966 0.00396255 0.00373217 0.00350851 0.00329158 0.00308136 0.00287787 0.00268158 0.00249296 0.00231203 0.00213877 0.00197319 0.00181528 0.00166506 0.00152251 0.00138736 0.00125934 0.00113843 0.00102464 0.000917964 0.000818412 0.00072598 0.000640666 0.000561854 0.000488925 0.000421878 0.000360715 0.000305434 0.000256037 0.000212522 0.000174891 0.000142086 0.000113054 8.77928e-05 6.63037e-05 4.85864e-05 3.46408e-05 2.4467e-05 1.80649e-05 1.38309e-05 1.01615e-05 7.05659e-06 4.51622e-06 2.54037e-06 1.12905e-06 2.82264e-07 0 0 1.58876e-05 6.35503e-05 0.000142988 0.000254201 0.000397189 0.000571953 0.000778491 0.0010168 0.00129163 0.00160769 0.00196498 0.00236352 0.0028033 0.00328432 0.00380657 0.00437007 0.00495961 0.00556001 0.00617127 0.00679338 0.00742635 0.00807017 0.00872486 0.0093904 0.0100519 0.0106947 0.0113186 0.0119237 0.0125099 0.0130773 0.0136259 0.0141557 0.014659 0.015128 0.0155628 0.0159634 0.0163298 0.016662 0.01696 0.0172237 0.0174522 0.0176444 0.0178004 0.0179201 0.0180036 0.0180508 0.0180618 0.0180365 0.0179786 0.0178921 0.0177768 0.0176328 0.01746 0.0172585 0.0170283 0.0167694 0.0164878 0.0161896 0.015875 0.0155438 0.0151961 0.0148319 0.0144512 0.0140539 0.0136463 0.0132345 0.0128186 0.0123985 0.0119743 0.0115458 0.0111133 0.0106766 0.0102404 0.00980946 0.00938381 0.00896341 0.00854827 0.00813839 0.00773377 0.00733442 0.00694294 0.00656196 0.00619149 0.00583152 0.00548205 0.00514309 0.00481463 0.00449667 0.00418997 0.00389526 0.00361254 0.00334182 0.0030831 0.00283638 0.00260166 0.00237893 0.00216776 0.00196771 0.00177879 0.00160099 0.00143432 0.00127877 0.00113434 0.00100104 0.000877897 0.000763945 0.000659185 0.000563617 0.000477241 0.000400058 0.000332066 0.000273267 0.00022201 0.000176646 0.000137176 0.0001036 7.59163e-05 5.41263e-05 3.82296e-05 2.82264e-05 2.16108e-05 1.58773e-05 1.10259e-05 7.05659e-06 3.96933e-06 1.76415e-06 4.41037e-07 0 0 2.28781e-05 9.15124e-05 0.000205903 0.00036605 0.000571953 0.000823612 0.00112103 0.0014642 0.00185994 0.00231507 0.00282958 0.00340347 0.00403675 0.00472942 0.00548147 0.0062929 0.00714184 0.00800642 0.00888663 0.00978247 0.0106939 0.0116211 0.0125638 0.0135222 0.0144748 0.0154003 0.0162988 0.0171701 0.0180143 0.0188314 0.0196214 0.0203842 0.0211089 0.0217843 0.0224105 0.0229874 0.023515 0.0239933 0.0244223 0.0248021 0.0251312 0.025408 0.0256326 0.025805 0.0259252 0.0259932 0.0260089 0.0259725 0.0258892 0.0257646 0.0255986 0.0253912 0.0251425 0.0248523 0.0245208 0.0241479 0.0237424 0.0233131 0.02286 0.0223831 0.0218824 0.021358 0.0208097 0.0202376 0.0196507 0.0190577 0.0184588 0.0178538 0.0172429 0.016626 0.0160031 0.0153742 0.0147461 0.0141256 0.0135127 0.0129073 0.0123095 0.0117193 0.0111366 0.0105616 0.00999783 0.00944923 0.00891575 0.00839739 0.00789416 0.00740605 0.00693307 0.00647521 0.00603355 0.00560917 0.00520206 0.00481223 0.00443967 0.00408439 0.00374638 0.00342565 0.00312157 0.00283351 0.00256146 0.00230543 0.00206542 0.00184143 0.00163345 0.0014415 0.00126417 0.00110008 0.000949226 0.000811609 0.000687228 0.000576083 0.000478175 0.000393504 0.000319694 0.000254371 0.000197534 0.000149183 0.000109319 7.79418e-05 5.50507e-05 4.0646e-05 3.11196e-05 2.28634e-05 1.58773e-05 1.01615e-05 5.71584e-06 2.54037e-06 6.35093e-07 0 0 3.11396e-05 0.000124559 0.000280257 0.000498234 0.000778491 0.00112103 0.00152584 0.00199294 0.00253159 0.00315106 0.00385137 0.00463251 0.00549447 0.00643726 0.00746088 0.00856534 0.00972084 0.0108976 0.0120957 0.013315 0.0145556 0.0158175 0.0171007 0.0184052 0.0197018 0.0209616 0.0221844 0.0233704 0.0245194 0.0256316 0.0267068 0.0277452 0.0287316 0.0296509 0.0305032 0.0312883 0.0320065 0.0326575 0.0332415 0.0337584 0.0342063 0.0345831 0.0348888 0.0351235 0.0352871 0.0353796 0.0354011 0.0353514 0.0352381 0.0350685 0.0348426 0.0345603 0.0342217 0.0338268 0.0333755 0.0328679 0.032316 0.0317317 0.031115 0.0304659 0.0297844 0.0290705 0.0283243 0.0275456 0.0267467 0.0259397 0.0251244 0.0243011 0.0234695 0.0226299 0.021782 0.020926 0.0200711 0.0192265 0.0183923 0.0175683 0.0167546 0.0159513 0.0151582 0.0143755 0.0136082 0.0128614 0.0121353 0.0114298 0.0107448 0.0100805 0.00943668 0.00881348 0.00821233 0.0076347 0.00708058 0.00654998 0.00604289 0.00555931 0.00509924 0.0046627 0.0042488 0.00385672 0.00348643 0.00313795 0.00281127 0.00250639 0.00222331 0.00196204 0.00172068 0.00149733 0.001292 0.00110469 0.000935393 0.000784113 0.000650849 0.000535602 0.000435139 0.000346227 0.000268866 0.000203055 0.000148796 0.000106087 7.49301e-05 5.53237e-05 4.23572e-05 3.11196e-05 2.16108e-05 1.38309e-05 7.77989e-06 3.45773e-06 8.64433e-07 0 0 4.06722e-05 0.000162689 0.00036605 0.000650755 0.0010168 0.0014642 0.00199294 0.00260302 0.00330656 0.00411567 0.00503036 0.00605062 0.00717645 0.00840785 0.00974483 0.0111874 0.0126966 0.0142336 0.0157984 0.0173911 0.0190115 0.0206596 0.0223356 0.0240394 0.025733 0.0273784 0.0289756 0.0305246 0.0320254 0.033478 0.0348824 0.0362386 0.037527 0.0387277 0.0398409 0.0408664 0.0418044 0.0426547 0.0434175 0.0440927 0.0446776 0.0451698 0.0455691 0.0458756 0.0460892 0.0462101 0.0462381 0.0461733 0.0460253 0.0458038 0.0455086 0.04514 0.0446977 0.0441819 0.0435925 0.0429295 0.0422087 0.0414455 0.04064 0.0397922 0.0389021 0.0379697 0.036995 0.035978 0.0349345 0.0338804 0.0328156 0.0317402 0.0306541 0.0295574 0.02845 0.027332 0.0262154 0.0251122 0.0240225 0.0229463 0.0218836 0.0208343 0.0197985 0.0187761 0.0177739 0.0167986 0.0158502 0.0149287 0.0140341 0.0131663 0.0123255 0.0115115 0.0107263 0.00997185 0.00924811 0.00855507 0.00789275 0.00726114 0.00666024 0.00609005 0.00554946 0.00503734 0.0045537 0.00409854 0.00367186 0.00327365 0.00290392 0.00256267 0.00224742 0.0019557 0.00168751 0.00144286 0.00122174 0.00102415 0.000850089 0.000699562 0.000568345 0.000452215 0.000351171 0.000265215 0.000194346 0.000138563 9.78679e-05 7.22595e-05 5.53237e-05 4.0646e-05 2.82264e-05 1.80649e-05 1.01615e-05 4.51622e-06 1.12905e-06 0 0 5.17394e-05 0.000206958 0.000465655 0.000827831 0.00129349 0.00186262 0.00253523 0.00331132 0.00420574 0.00523332 0.00639407 0.00768799 0.00911508 0.0106753 0.0123688 0.0141953 0.016106 0.0180515 0.0200318 0.0220471 0.0240973 0.0261823 0.0283022 0.030457 0.0325988 0.0346796 0.0366995 0.0386585 0.0405566 0.0423938 0.04417 0.0458853 0.0475147 0.0490335 0.0504416 0.051739 0.0529257 0.0540017 0.054967 0.0558217 0.0565623 0.0571855 0.0576914 0.0580799 0.0583512 0.058505 0.0585415 0.0584607 0.0582746 0.0579955 0.0576234 0.0571581 0.0565998 0.0559485 0.0552041 0.0543666 0.0534558 0.0524914 0.0514734 0.0504019 0.0492768 0.0480981 0.0468658 0.0455799 0.0442604 0.0429274 0.0415808 0.0402206 0.0388469 0.0374596 0.0360587 0.0346443 0.0332315 0.0318357 0.0304568 0.0290948 0.0277498 0.0264217 0.0251106 0.0238164 0.0225477 0.0213129 0.020112 0.0189451 0.0178122 0.0167132 0.0156482 0.0146171 0.0136225 0.0126666 0.0117496 0.0108714 0.010032 0.00923148 0.00846977 0.00774689 0.00706143 0.00641199 0.00579857 0.00522117 0.0046798 0.00417444 0.0037051 0.00327178 0.00287135 0.00250069 0.00215979 0.00184866 0.00156728 0.00131568 0.00109383 0.000901754 0.000734123 0.000585627 0.000456266 0.00034604 0.000254948 0.000182991 0.000130169 9.6481e-05 7.38683e-05 5.42706e-05 3.76879e-05 2.41202e-05 1.35676e-05 6.03006e-06 1.50752e-06 0 0 6.4605e-05 0.00025842 0.000581445 0.00103368 0.00161512 0.00232578 0.00316564 0.00413472 0.00524998 0.00652842 0.00797002 0.00957479 0.0113427 0.0132738 0.0153681 0.0176256 0.0199857 0.0223882 0.0248328 0.0273198 0.029849 0.0324204 0.0350341 0.0376901 0.0403296 0.0428942 0.0453837 0.0477982 0.0501376 0.0524021 0.0545915 0.0567058 0.0587146 0.0605871 0.0623235 0.0639237 0.0653876 0.0667154 0.067907 0.0689623 0.0698773 0.0706478 0.0712738 0.0717553 0.0720923 0.0722847 0.0723327 0.0722361 0.0720099 0.0716689 0.0712132 0.0706427 0.0699574 0.0691574 0.0682425 0.067213 0.0660929 0.0649065 0.0636538 0.0623349 0.0609497 0.0594983 0.0579806 0.0563966 0.054771 0.0531283 0.0514686 0.049792 0.0480983 0.0463876 0.0446598 0.0429151 0.0411721 0.0394498 0.0377482 0.0360671 0.0344067 0.0327669 0.0311478 0.0295493 0.027982 0.0264563 0.0249724 0.0235302 0.0221297 0.0207709 0.0194538 0.0181784 0.0169478 0.015765 0.01463 0.0135428 0.0125035 0.011512 0.0105683 0.00967238 0.00882262 0.00801727 0.00725633 0.0065398 0.00586768 0.00523997 0.00465668 0.00411779 0.00361945 0.00315781 0.00273287 0.00234461 0.00199306 0.00167819 0.00140002 0.00115855 0.000947284 0.000759757 0.000595965 0.000455906 0.000339582 0.000246992 0.000178137 0.000133016 0.00010184 7.48213e-05 5.19593e-05 3.32539e-05 1.87053e-05 8.31348e-06 2.07837e-06 0 0 7.92689e-05 0.000317075 0.00071342 0.0012683 0.00198172 0.00285368 0.00388417 0.00507321 0.0064393 0.00800096 0.00975821 0.011711 0.0138594 0.0162034 0.0187429 0.0214781 0.0243359 0.0272437 0.0302014 0.033209 0.0362665 0.039374 0.0425313 0.0457386 0.0489255 0.052022 0.055028 0.0579435 0.0607684 0.0635029 0.0661469 0.0687003 0.0711265 0.0733886 0.0754865 0.0774204 0.0791901 0.0807957 0.0822372 0.0835147 0.0846229 0.0855568 0.0863163 0.0869016 0.0873126 0.0875492 0.0876116 0.0874996 0.0872311 0.086824 0.0862781 0.0855936 0.0847704 0.0838085 0.0827079 0.0814686 0.0801198 0.0786907 0.0771812 0.0755913 0.073921 0.0721704 0.0703394 0.0684281 0.0664661 0.0644831 0.0624791 0.0604541 0.0584082 0.0563413 0.0542534 0.0521445 0.0500374 0.0479548 0.0458968 0.0438633 0.0418543 0.0398699 0.0379101 0.0359747 0.0340768 0.0322289 0.0304313 0.0286838 0.0269864 0.0253392 0.0237421 0.0221952 0.0207022 0.0192669 0.0178893 0.0165693 0.0153071 0.0141026 0.0129557 0.0118665 0.010833 0.00985318 0.00892697 0.00805442 0.00723551 0.00647026 0.00575865 0.00510069 0.00449172 0.00392707 0.00340674 0.00293073 0.00249905 0.00211169 0.00176865 0.00146994 0.00120783 0.000974605 0.000770267 0.000594814 0.000448248 0.000330567 0.000241772 0.000181864 0.000139239 0.000102298 7.10405e-05 4.54659e-05 2.55746e-05 1.13665e-05 2.84162e-06 0 0 9.57311e-05 0.000382924 0.00086158 0.0015317 0.00239328 0.00344632 0.00469082 0.00612679 0.00777368 0.00965096 0.0117586 0.0140967 0.0166651 0.019464 0.0224932 0.0257528 0.0291565 0.0326181 0.0361376 0.0397149 0.04335 0.047043 0.0507939 0.0546026 0.0583865 0.0620632 0.0656325 0.0690944 0.072449 0.0756963 0.0788362 0.0818688 0.0847505 0.0874378 0.0899306 0.0922291 0.0943331 0.0962427 0.0979579 0.0994787 0.100799 0.101912 0.102819 0.103519 0.104012 0.104299 0.104378 0.104251 0.103938 0.103461 0.102818 0.102011 0.101039 0.0999019 0.0986002 0.0971336 0.0955368 0.093844 0.0920554 0.090171 0.0881906 0.0861144 0.0839424 0.0816744 0.0793458 0.0769918 0.0746122 0.0722072 0.0697767 0.0673207 0.0648393 0.0623324 0.0598271 0.0573505 0.0549025 0.0524832 0.0500926 0.0477306 0.0453974 0.0430928 0.0408321 0.0386308 0.0364887 0.0344059 0.0323824 0.0304182 0.0285132 0.0266676 0.0248858 0.0231724 0.0215275 0.019951 0.0184429 0.0170033 0.0156321 0.0143293 0.0130927 0.0119197 0.0108105 0.00976503 0.0087833 0.00786529 0.00701102 0.00622049 0.00548815 0.00480845 0.00418141 0.00360702 0.00308527 0.00261618 0.00219973 0.00183593 0.00151576 0.00123017 0.000979173 0.000762764 0.000580945 0.000433716 0.000321076 0.000243025 0.000186066 0.000136701 9.49315e-05 6.07562e-05 3.41753e-05 1.5189e-05 3.79726e-06 0 0 0.000113992 0.000455967 0.00102593 0.00182387 0.00284979 0.0041037 0.00558559 0.00729547 0.00925314 0.0114784 0.0139713 0.0167318 0.0197599 0.0230556 0.0266189 0.0304498 0.0344476 0.0385114 0.0426413 0.0468373 0.0510994 0.0554275 0.0598217 0.064282 0.0687126 0.0730176 0.0771971 0.081251 0.0851794 0.0889822 0.0926594 0.0962111 0.0995865 0.102735 0.105656 0.10835 0.110817 0.113056 0.115069 0.116854 0.118405 0.119714 0.120782 0.121607 0.122191 0.122533 0.122633 0.122491 0.122131 0.121579 0.120833 0.119895 0.118763 0.117438 0.115919 0.114208 0.112344 0.110367 0.108277 0.106074 0.103759 0.10133 0.0987893 0.0961356 0.0934102 0.0906543 0.0878679 0.0850511 0.0822038 0.079326 0.0764177 0.0734789 0.0705414 0.0676369 0.0647654 0.061927 0.0591216 0.0563491 0.0536097 0.0509033 0.048248 0.0456618 0.0431447 0.0406966 0.0383177 0.0360079 0.0337672 0.0315955 0.0294985 0.0274815 0.0255446 0.0236877 0.0219109 0.0202141 0.0185974 0.0170608 0.0156015 0.0142169 0.0129069 0.0116716 0.010511 0.00942508 0.00841379 0.00747718 0.00660874 0.00580197 0.00505688 0.00437346 0.00375171 0.00319165 0.00269325 0.00225653 0.00187107 0.00152645 0.00122268 0.000959756 0.000737675 0.000556438 0.000416046 0.000316499 0.00024232 0.000178031 0.000123632 7.91247e-05 4.45077e-05 1.97812e-05 4.9453e-06 0 0 0.000134051 0.000536203 0.00120646 0.00214481 0.00335127 0.00482582 0.00656848 0.00857924 0.0108777 0.0134833 0.0163962 0.0196163 0.0231437 0.0269782 0.03112 0.0355691 0.040209 0.0449235 0.0497126 0.0545763 0.0595146 0.0645275 0.0696149 0.074777 0.0799037 0.0848854 0.0897219 0.0944133 0.0989595 0.103361 0.107617 0.111727 0.115635 0.11928 0.122662 0.125783 0.128641 0.131237 0.13357 0.135642 0.137442 0.138963 0.140205 0.141166 0.141849 0.142252 0.142375 0.142218 0.141811 0.141179 0.140324 0.139245 0.137942 0.136416 0.134665 0.132692 0.13054 0.128258 0.125845 0.1233 0.120625 0.117818 0.11488 0.111811 0.108659 0.105471 0.102246 0.0989859 0.0956894 0.092357 0.0889885 0.085584 0.0821803 0.0788141 0.0754856 0.0721946 0.0689412 0.0657254 0.0625472 0.0594065 0.0563244 0.053322 0.0503992 0.0475559 0.0447923 0.0421083 0.0395039 0.0369791 0.0345404 0.0321942 0.0299406 0.0277796 0.0257111 0.0237351 0.0218517 0.0200609 0.0183596 0.0167447 0.0152162 0.0137742 0.0124187 0.0111496 0.00996696 0.00887077 0.00785349 0.00690762 0.00603314 0.00523006 0.00449838 0.0038381 0.00324921 0.00273173 0.00227376 0.00186345 0.0015008 0.00118579 0.000918436 0.000698734 0.000526684 0.000402286 0.000308001 0.000226286 0.000157143 0.000100572 5.65715e-05 2.51429e-05 6.28573e-06 0 0 0.000155908 0.000623632 0.00140317 0.00249453 0.0038977 0.00561268 0.00763949 0.00997811 0.0126473 0.0156657 0.0190333 0.0227503 0.0268165 0.0312319 0.0359966 0.0411106 0.0464409 0.0518545 0.0573516 0.062932 0.0685958 0.0743429 0.0801735 0.0860874 0.09196 0.0976664 0.103207 0.108581 0.113789 0.118832 0.123708 0.128418 0.132895 0.137072 0.14095 0.144527 0.147805 0.150784 0.153462 0.155841 0.157909 0.159658 0.161087 0.162197 0.162986 0.163455 0.163605 0.163434 0.162976 0.162261 0.161289 0.160061 0.158577 0.156836 0.154838 0.152585 0.150127 0.147519 0.14476 0.14185 0.138789 0.135578 0.132215 0.128702 0.125093 0.121441 0.117747 0.114011 0.110234 0.106414 0.102552 0.0986476 0.0947436 0.0908821 0.0870629 0.083286 0.0795515 0.0758594 0.0722096 0.0686022 0.0650614 0.0616114 0.0582522 0.0549838 0.0518062 0.0487194 0.0457234 0.0428182 0.0400114 0.0373105 0.0347155 0.0322265 0.0298434 0.0275662 0.025395 0.0233296 0.0213668 0.0195031 0.0177384 0.0160728 0.0145063 0.0130389 0.0116705 0.0104012 0.00922242 0.0081254 0.00711021 0.00617683 0.00532528 0.00455554 0.00386762 0.00326153 0.00272384 0.00224117 0.00181351 0.00144087 0.00112323 0.000860604 0.00065299 0.000500387 0.000383109 0.000281468 0.000195464 0.000125097 7.0367e-05 3.12742e-05 7.81855e-06 0 0 0.000179564 0.000718254 0.00161607 0.00287302 0.00448909 0.00646429 0.00879861 0.0114921 0.0145619 0.0180255 0.0218827 0.0261337 0.0307783 0.0358166 0.0412486 0.0470744 0.0531431 0.0593044 0.0655581 0.0719042 0.0783428 0.0848738 0.0914973 0.0982133 0.104881 0.111361 0.117652 0.123755 0.129669 0.135395 0.140933 0.146282 0.151367 0.156112 0.160518 0.164584 0.168311 0.171697 0.174744 0.177451 0.179807 0.1818 0.18343 0.184698 0.185602 0.186144 0.186322 0.186138 0.185627 0.184824 0.18373 0.182344 0.180667 0.178698 0.176438 0.173887 0.171104 0.168149 0.165022 0.161723 0.158252 0.154609 0.150794 0.146808 0.142711 0.138565 0.134371 0.130128 0.125836 0.121496 0.117107 0.11267 0.108232 0.103841 0.0994973 0.0952012 0.0909525 0.0867512 0.0825972 0.0784905 0.0744589 0.07053 0.0667037 0.0629802 0.0593593 0.0558412 0.0524257 0.0491129 0.0459115 0.0428304 0.0398694 0.0370285 0.0343079 0.0317074 0.0292272 0.0268671 0.0246233 0.0224921 0.0204735 0.0185674 0.0167739 0.0150929 0.0135245 0.0120686 0.0107155 0.00945531 0.00828807 0.00721376 0.00623239 0.00534396 0.00454847 0.00384592 0.00322131 0.00265961 0.00216083 0.00172498 0.00135205 0.00104205 0.000794963 0.000610801 0.000467645 0.000343576 0.000238594 0.0001527 8.58939e-05 3.81751e-05 9.54377e-06 0 0 0.000204543 0.000818172 0.00184089 0.00327269 0.00511358 0.00736355 0.0100226 0.0130908 0.0165833 0.0205157 0.0248878 0.0296997 0.0349514 0.0406429 0.0467742 0.0533452 0.0601869 0.0671301 0.074175 0.0813213 0.0885693 0.0959187 0.10337 0.110922 0.11842 0.125706 0.13278 0.139642 0.146293 0.152732 0.158959 0.164974 0.170693 0.176031 0.180988 0.185563 0.189757 0.19357 0.197002 0.200052 0.202708 0.204957 0.206797 0.20823 0.209256 0.209874 0.210084 0.209887 0.209322 0.208429 0.207209 0.20566 0.203784 0.201579 0.199047 0.196187 0.193066 0.189751 0.186241 0.182538 0.178641 0.17455 0.170264 0.165785 0.16118 0.15652 0.151804 0.147033 0.142206 0.137324 0.132385 0.127391 0.122396 0.117453 0.112562 0.107724 0.102938 0.0982045 0.0935236 0.0888951 0.0843503 0.0799205 0.0756057 0.0714059 0.0673211 0.0633513 0.0594965 0.0557566 0.0521418 0.048662 0.0453171 0.0421073 0.0390325 0.0360926 0.0332878 0.030618 0.028079 0.0256665 0.0233807 0.0212214 0.0191888 0.0172827 0.0155032 0.0138504 0.012313 0.0108803 0.00955202 0.00832831 0.00720913 0.00619449 0.00528438 0.0044788 0.00376113 0.00311472 0.00253957 0.00203569 0.00160307 0.00124171 0.000951617 0.000732788 0.000561041 0.000412193 0.000286245 0.000183197 0.000103048 4.57992e-05 1.14498e-05 0 0 0.000230372 0.000921488 0.00207335 0.00368595 0.0057593 0.00829339 0.0112882 0.0147438 0.0186731 0.0230892 0.0279921 0.0333817 0.0392581 0.0456213 0.0524712 0.0598079 0.0674432 0.0751889 0.0830451 0.0910117 0.0990887 0.107276 0.115574 0.123983 0.132328 0.140438 0.148313 0.155951 0.163354 0.170522 0.177454 0.18415 0.190516 0.196459 0.201978 0.207074 0.211746 0.215995 0.21982 0.223222 0.226185 0.228695 0.230752 0.232355 0.233506 0.234203 0.234448 0.234239 0.233621 0.232638 0.23129 0.229576 0.227498 0.225055 0.222246 0.219073 0.215609 0.211928 0.20803 0.203915 0.199584 0.195035 0.190271 0.185289 0.180167 0.174983 0.169735 0.164425 0.159051 0.153615 0.148115 0.142553 0.136988 0.13148 0.12603 0.120637 0.115301 0.110023 0.104803 0.0996395 0.0945689 0.0896257 0.0848099 0.0801216 0.0755607 0.0711273 0.0668213 0.0626428 0.058603 0.0547134 0.0509738 0.0473843 0.0439449 0.0406556 0.0375164 0.0345273 0.0316837 0.028981 0.0264192 0.0239983 0.0217183 0.0195793 0.0175811 0.0157239 0.0139954 0.0123832 0.0108874 0.00950792 0.00824488 0.00709822 0.00606794 0.00515404 0.00433829 0.00360245 0.00294653 0.00237052 0.00187442 0.00145824 0.00112196 0.000865607 0.00066273 0.000486904 0.000338128 0.000216402 0.000121726 5.41004e-05 1.35251e-05 0 0 0.00025705 0.0010282 0.00231345 0.0041128 0.00642626 0.00925381 0.0125955 0.0164512 0.0208313 0.0257461 0.0311956 0.0371796 0.0436984 0.0507518 0.0583398 0.0664625 0.0749121 0.0834807 0.0921685 0.100975 0.109901 0.118946 0.12811 0.137394 0.146606 0.155559 0.164251 0.172683 0.180854 0.188766 0.196417 0.203808 0.210835 0.217396 0.22349 0.229117 0.234278 0.238972 0.243199 0.24696 0.250237 0.253015 0.255294 0.257072 0.258352 0.259132 0.259412 0.259193 0.258522 0.257449 0.255973 0.254093 0.251811 0.249125 0.246037 0.242545 0.238732 0.234679 0.230386 0.225853 0.22108 0.216067 0.210814 0.205321 0.199672 0.193953 0.188163 0.182303 0.176372 0.17037 0.164298 0.158155 0.152007 0.145923 0.1399 0.13394 0.128043 0.122207 0.116434 0.110724 0.105115 0.0996455 0.0943164 0.0891273 0.0840782 0.0791692 0.0744003 0.0697714 0.0652953 0.0609846 0.0568394 0.0528596 0.0490453 0.0453964 0.0419129 0.0385949 0.0354374 0.0324354 0.029589 0.026898 0.0243626 0.0219826 0.0197582 0.0176893 0.0157624 0.013964 0.0122941 0.0107526 0.00933964 0.00805516 0.00689915 0.00587163 0.00495279 0.00412282 0.00338171 0.00272948 0.00216612 0.00169163 0.00130601 0.00100926 0.000772713 0.000567708 0.000394241 0.000252314 0.000141927 6.30786e-05 1.57697e-05 0 0 0.000284578 0.00113831 0.0025612 0.00455325 0.00711445 0.0102448 0.0139443 0.018213 0.023058 0.0284864 0.0344982 0.0410935 0.0482722 0.0560343 0.0643799 0.073309 0.0825935 0.0920055 0.101545 0.111212 0.121007 0.130929 0.140979 0.151156 0.161254 0.171067 0.180594 0.189836 0.198792 0.207463 0.215848 0.223948 0.23165 0.238841 0.245522 0.251692 0.257351 0.2625 0.267138 0.271266 0.274865 0.277917 0.280423 0.282382 0.283794 0.284659 0.284978 0.28475 0.284027 0.282863 0.281257 0.27921 0.276721 0.27379 0.270418 0.266604 0.262437 0.258006 0.253311 0.248353 0.243131 0.237644 0.231894 0.22588 0.219695 0.213431 0.207089 0.200668 0.194168 0.187589 0.180932 0.174196 0.167455 0.160781 0.154174 0.147634 0.141162 0.134757 0.128419 0.122148 0.115988 0.10998 0.104125 0.0984229 0.0928736 0.0874771 0.0822334 0.0771425 0.0722186 0.0674757 0.0629139 0.0585332 0.0543335 0.0503149 0.0464774 0.042821 0.0393403 0.03603 0.0328901 0.0299206 0.0271215 0.0244927 0.0220344 0.0197465 0.0176142 0.0156228 0.0137722 0.0120624 0.0104934 0.00906531 0.00777803 0.00663159 0.00560463 0.00467581 0.00384512 0.00311257 0.00247816 0.00194188 0.00150374 0.00116374 0.000890989 0.000654605 0.000454586 0.000290935 0.000163651 7.27338e-05 1.81835e-05 0 0 0.000312955 0.00125182 0.0028166 0.00500728 0.00782388 0.0112664 0.0153348 0.0200291 0.025353 0.0313099 0.0379 0.0451232 0.0529796 0.061469 0.0705916 0.0803473 0.0904874 0.100763 0.111175 0.121722 0.132405 0.143224 0.154179 0.165269 0.176271 0.186963 0.197342 0.207411 0.217168 0.226614 0.235748 0.244571 0.252961 0.260796 0.268075 0.274799 0.280968 0.286581 0.291639 0.296141 0.300069 0.303402 0.30614 0.308283 0.309832 0.310785 0.311144 0.310909 0.310135 0.30888 0.307144 0.304927 0.302229 0.29905 0.29539 0.291248 0.286722 0.281908 0.276805 0.271414 0.265735 0.259767 0.253511 0.246967 0.240236 0.233417 0.226511 0.219519 0.212439 0.205273 0.198019 0.190678 0.18333 0.176054 0.168851 0.161719 0.154659 0.147672 0.140756 0.133913 0.127188 0.120629 0.114236 0.108009 0.101947 0.0960509 0.0903206 0.0847561 0.0793729 0.0741866 0.0691973 0.064405 0.0598097 0.0554113 0.0512099 0.0472054 0.0433922 0.0397646 0.0363225 0.033066 0.029995 0.0271096 0.0244098 0.0218956 0.0195508 0.0173595 0.0153216 0.0134372 0.0117062 0.0101287 0.00870456 0.0074339 0.0062938 0.00526142 0.00433675 0.0035198 0.00281055 0.00220901 0.00171518 0.00132906 0.00101756 0.000747595 0.000519163 0.000332264 0.000186899 8.30661e-05 2.07665e-05 0 0 0.000342182 0.00136873 0.00307963 0.0054749 0.00855454 0.0123185 0.0167669 0.0218996 0.0277164 0.0342168 0.041401 0.0492689 0.0578205 0.0670558 0.0769748 0.0875775 0.098594 0.109754 0.121058 0.132506 0.144097 0.155832 0.167711 0.179733 0.191659 0.203246 0.214496 0.225408 0.235982 0.246218 0.256117 0.265678 0.274769 0.283259 0.291149 0.298438 0.305126 0.311213 0.3167 0.321585 0.325848 0.329468 0.332444 0.334777 0.336466 0.337511 0.337912 0.33767 0.336846 0.3355 0.333633 0.331245 0.328335 0.324904 0.320952 0.316479 0.311588 0.306384 0.300867 0.295037 0.288893 0.282436 0.275666 0.268582 0.261294 0.253911 0.246431 0.238856 0.231186 0.22342 0.215558 0.2076 0.199634 0.191744 0.18393 0.176194 0.168534 0.160952 0.153446 0.146017 0.138715 0.131593 0.124649 0.117884 0.111298 0.104891 0.098662 0.0926121 0.0867582 0.0811174 0.0756897 0.0704752 0.0654737 0.0606854 0.0561102 0.0517482 0.0475932 0.0436392 0.0398862 0.0363342 0.0329833 0.0298333 0.0268844 0.0241364 0.0215722 0.0191742 0.0169425 0.0148771 0.012978 0.0112452 0.00967875 0.00827856 0.00702032 0.00587967 0.00485661 0.00395115 0.00316327 0.00249299 0.0019403 0.00150521 0.00115242 0.000846678 0.000587971 0.000376301 0.000211669 9.40753e-05 2.35188e-05 0 0 0.000372257 0.00148903 0.00335032 0.00595612 0.00930644 0.0134013 0.0182406 0.0238245 0.0301482 0.0372071 0.0450012 0.0535305 0.062795 0.0727947 0.0835295 0.0949996 0.106913 0.118978 0.131194 0.143562 0.156081 0.168752 0.181575 0.194548 0.207415 0.219917 0.232055 0.243827 0.255234 0.266276 0.276954 0.287266 0.297073 0.306232 0.314744 0.322609 0.329827 0.336398 0.342321 0.347598 0.352204 0.356117 0.359336 0.361862 0.363695 0.364835 0.365281 0.365034 0.36416 0.362723 0.360724 0.358162 0.355039 0.351353 0.347106 0.342296 0.337035 0.331436 0.325498 0.319221 0.312605 0.30565 0.298357 