<?xml version="1.0"?> 
<VTKFile type="StructuredGrid" version="0.1"> 
<StructuredGrid WholeExtent="0 128 0 128 0 0"> 
<Piece Extent="0 128 0 128 0 0"> 
<PointData>
<DataArray type="Float32" Name="u" format="ascii" NumberOfComponents="1"> 
0 0 0 0 0 0 0 0 0 0 0 0 0 0 0 0 0 0 0 0 0 0 0 0 0 0 0 0 0 0 0 0 0 0 0 0 0 0 0 0 0 0 0 0 0 0 0 0 0 0 0 0 0 0 0 0 0 0 0 0 0 0 0 0 0 0 0 0 0 0 0 0 0 0 0 0 0 0 0 0 0 0 0 0 0 0 0 0 0 0 0 0 0 0 0 0 0 0 0 0 0 0 0 0 0 0 0 0 0 0 0 0 0 0 0 0 0 0 0 0 0 0 0 0 0 0 0 0 0 0 3.90158e-07 1.56063e-06 3.51143e-06 6.24253e-06 9.75396e-06 1.40457e-05 1.91178e-05 2.49701e-05 3.17171e-05 3.94728e-05 4.82372e-05 5.80105e-05 6.87926e-05 8.05834e-05 9.3383e-05 0.000107191 0.000121642 0.000136367 0.000151368 0.000166644 0.000182195 0.000198022 0.000214123 0.0002305 0.000246798 0.000262664 0.000278097 0.000293097 0.000307664 0.000321799 0.000335501 0.00034877 0.000361424 0.000373278 0.000384333 0.000394588 0.000404044 0.000412701 0.000420558 0.000427617 0.000433847 0.00043922 0.000443735 0.000447394 0.000450196 0.00045214 0.000453228 0.000453458 0.000452912 0.000451669 0.00044973 0.000447095 0.000443763 0.000439735 0.000435011 0.000429591 0.000423609 0.0004172 0.000410363 0.0004031 0.00039541 0.000387292 0.000378748 0.000369776 0.000360516 0.000351105 0.000341544 0.000331833 0.000321972 0.00031196 0.000301797 0.000291484 0.00028113 0.000270841 0.000260618 0.000250462 0.000240372 0.000230348 0.00022039 0.000210498 0.000200737 0.000191174 0.000181807 0.000172637 0.000163664 0.000154887 0.000146308 0.000137925 0.000129766 0.00012186 0.000114205 0.000106802 9.96504e-05 9.27508e-05 8.61031e-05 7.97071e-05 7.35677e-05 6.76898e-05 6.20732e-05 5.67181e-05 5.16245e-05 4.67922e-05 4.22214e-05 3.7912e-05 3.38603e-05 3.00626e-05 2.65188e-05 2.32289e-05 2.0193e-05 1.7411e-05 1.4883e-05 1.26089e-05 1.05646e-05 8.7258e-06 7.09262e-06 5.665e-06 4.44295e-06 3.42647e-06 2.61556e-06 2.01022e-06 1.53908e-06 1.13075e-06 7.85242e-07 5.02555e-07 2.82687e-07 1.25639e-07 3.14097e-08 0 0 1.56063e-06 6.24253e-06 1.40457e-05 2.49701e-05 3.90158e-05 5.61828e-05 7.6471e-05 9.98805e-05 0.000126868 0.000157891 0.000192949 0.000232042 0.00027517 0.000322334 0.000373532 0.000428766 0.000486567 0.000545469 0.000605473 0.000666577 0.000728782 0.000792087 0.000856494 0.000922001 0.000987194 0.00105066 0.00111239 0.00117239 0.00123066 0.0012872 0.001342 0.00139508 0.00144569 0.00149311 0.00153733 0.00157835 0.00161618 0.0016508 0.00168223 0.00171047 0.00173539 0.00175688 0.00177494 0.00178958 0.00180078 0.00180856 0.00181291 0.00181383 0.00181165 0.00180668 0.00179892 0.00178838 0.00177505 0.00175894 0.00174005 0.00171836 0.00169444 0.0016688 0.00164145 0.0016124 0.00158164 0.00154917 0.00151499 0.00147911 0.00144206 0.00140442 0.00136618 0.00132733 0.00128789 0.00124784 0.00120719 0.00116594 0.00112452 0.00108336 0.00104247 0.00100185 0.000961487 0.00092139 0.000881558 0.000841991 0.000802949 0.000764695 0.000727227 0.000690547 0.000654655 0.000619549 0.000585231 0.0005517 0.000519066 0.000487439 0.000456819 0.000427207 0.000398601 0.000371003 0.000344412 0.000318828 0.000294271 0.000270759 0.000248293 0.000226873 0.000206498 0.000187169 0.000168886 0.000151648 0.000135441 0.00012025 0.000106075 9.29156e-05 8.07719e-05 6.9644e-05 5.95319e-05 5.04356e-05 4.22583e-05 3.49032e-05 2.83705e-05 2.266e-05 1.77718e-05 1.37059e-05 1.04622e-05 8.04088e-06 6.1563e-06 4.523e-06 3.14097e-06 2.01022e-06 1.13075e-06 5.02555e-07 1.25639e-07 0 0 3.51143e-06 1.40457e-05 3.16028e-05 5.61828e-05 8.77856e-05 0.000126411 0.00017206 0.000224731 0.000285454 0.000355255 0.000434135 0.000522095 0.000619133 0.000725251 0.000840447 0.000964722 0.00109478 0.00122731 0.00136231 0.0014998 0.00163976 0.0017822 0.00192711 0.0020745 0.00222119 0.00236398 0.00250287 0.00263787 0.00276898 0.00289619 0.00301951 0.00313893 0.00325281 0.0033595 0.00345899 0.00355129 0.0036364 0.00371431 0.00378503 0.00384855 0.00390462 0.00395298 0.00399362 0.00402655 0.00405176 0.00406926 0.00407905 0.00408112 0.0040762 0.00406502 0.00404757 0.00402385 0.00399387 0.00395762 0.0039151 0.00386632 0.00381248 0.0037548 0.00369327 0.0036279 0.00355869 0.00348563 0.00340873 0.00332799 0.00324464 0.00315995 0.0030739 0.0029865 0.00289774 0.00280764 0.00271617 0.00262336 0.00253017 0.00243757 0.00234557 0.00225416 0.00216334 0.00207313 0.00198351 0.00189448 0.00180664 0.00172056 0.00163626 0.00155373 0.00147297 0.00139399 0.00131677 0.00124132 0.0011679 0.00109674 0.00102784 0.000961215 0.000896853 0.000834757 0.000774928 0.000717364 0.000662109 0.000609208 0.000558659 0.000510463 0.00046462 0.00042113 0.000379993 0.000341208 0.000304743 0.000270563 0.000238669 0.00020906 0.000181737 0.000156699 0.000133947 0.00011348 9.50811e-05 7.85322e-05 6.38336e-05 5.0985e-05 3.99865e-05 3.08382e-05 2.354e-05 1.8092e-05 1.38517e-05 1.01767e-05 7.06718e-06 4.523e-06 2.54419e-06 1.13075e-06 2.82687e-07 0 0 6.24253e-06 2.49701e-05 5.61828e-05 9.98805e-05 0.000156063 0.000224731 0.000305884 0.000399522 0.000507473 0.000631564 0.000771796 0.000928168 0.00110068 0.00128933 0.00149413 0.00171506 0.00194627 0.00218188 0.00242189 0.00266631 0.00291513 0.00316835 0.00342598 0.00368801 0.00394878 0.00420262 0.00444955 0.00468955 0.00492263 0.00514878 0.00536802 0.00558032 0.00578278 0.00597244 0.00614932 0.00631341 0.00646471 0.00660322 0.00672894 0.00684187 0.00694155 0.00702751 0.00709977 0.00715831 0.00720313 0.00723424 0.00725164 0.00725533 0.00724659 0.0072267 0.00719568 0.00715352 0.00710021 0.00703577 0.00696018 0.00687345 0.00677774 0.00667519 0.00656581 0.0064496 0.00632656 0.00619668 0.00605997 0.00591642 0.00576826 0.00561769 0.00546471 0.00530933 0.00515154 0.00499135 0.00482875 0.00466375 0.00449807 0.00433345 0.00416989 0.00400739 0.00384595 0.00368556 0.00352623 0.00336796 0.0032118 0.00305878 0.00290891 0.00276219 0.00261862 0.0024782 0.00234092 0.0022068 0.00207626 0.00194976 0.00182728 0.00170883 0.00159441 0.00148401 0.00137765 0.00127531 0.00117708 0.00108304 0.000993172 0.00090749 0.000825992 0.000748676 0.000675543 0.000606593 0.000541765 0.000481001 0.0004243 0.000371662 0.000323088 0.000278576 0.000238128 0.000201742 0.000169033 0.000139613 0.000113482 9.064e-05 7.10872e-05 5.48235e-05 4.1849e-05 3.21635e-05 2.46252e-05 1.8092e-05 1.25639e-05 8.04088e-06 4.523e-06 2.01022e-06 5.02555e-07 0 0 9.75396e-06 3.90158e-05 8.77856e-05 0.000156063 0.000243849 0.000351143 0.000477944 0.000624253 0.000792926 0.000986819 0.00120593 0.00145026 0.00171981 0.00201458 0.00233457 0.00267978 0.00304104 0.00340918 0.0037842 0.0041661 0.00455489 0.00495055 0.00535309 0.00576251 0.00616996 0.0065666 0.00695242 0.00732742 0.0076916 0.00804497 0.00838752 0.00871926 0.00903559 0.00933194 0.00960831 0.0098647 0.0101011 0.0103175 0.010514 0.0106904 0.0108462 0.0109805 0.0110934 0.0111849 0.0112549 0.0113035 0.0113307 0.0113365 0.0113228 0.0112917 0.0112433 0.0111774 0.0110941 0.0109934 0.0108753 0.0107398 0.0105902 0.01043 0.0102591 0.0100775 0.00988524 0.00968231 0.0094687 0.00924441 0.0090129 0.00877764 0.00853861 0.00829583 0.00804929 0.00779899 0.00754493 0.00728711 0.00702824 0.00677102 0.00651546 0.00626155 0.00600929 0.00575869 0.00550974 0.00526244 0.00501843 0.00477934 0.00454517 0.00431592 0.00409159 0.00387218 0.00365769 0.00344812 0.00324416 0.00304649 0.00285512 0.00267004 0.00249126 0.00231877 0.00215258 0.00199268 0.00183919 0.00169224 0.00155183 0.00141795 0.00129061 0.00116981 0.00105554 0.000947801 0.000846508 0.000751564 0.000662969 0.000580723 0.000504825 0.000435275 0.000372074 0.000315222 0.000264114 0.000218145 0.000177315 0.000141625 0.000111074 8.56618e-05 6.5389e-05 5.02555e-05 3.84769e-05 2.82687e-05 1.96311e-05 1.25639e-05 7.06718e-06 3.14097e-06 7.85242e-07 0 0 1.40457e-05 5.61828e-05 0.000126411 0.000224731 0.000351143 0.000505645 0.000688239 0.000898925 0.00114181 0.00142102 0.00173654 0.00208838 0.00247653 0.002901 0.00336179 0.00385889 0.0043791 0.00490923 0.00544925 0.00599919 0.00655903 0.00712879 0.00770845 0.00829801 0.00888474 0.0094559 0.0100115 0.0105515 0.0110759 0.0115848 0.012078 0.0125557 0.0130113 0.013438 0.013836 0.0142052 0.0145456 0.0148572 0.0151401 0.0153942 0.0156185 0.0158119 0.0159745 0.0161062 0.016207 0.0162771 0.0163162 0.0163245 0.0163048 0.0162601 0.0161903 0.0160954 0.0159755 0.0158305 0.0156604 0.0154653 0.0152499 0.0150192 0.0147731 0.0145116 0.0142348 0.0139425 0.0136349 0.0133119 0.0129786 0.0126398 0.0122956 0.011946 0.011591 0.0112305 0.0108647 0.0104934 0.0101207 0.00975027 0.00938226 0.00901663 0.00865338 0.00829251 0.00793402 0.00757792 0.00722654 0.00688225 0.00654505 0.00621493 0.00589189 0.00557594 0.00526708 0.0049653 0.00467159 0.00438695 0.00411137 0.00384486 0.00358741 0.00333903 0.00309971 0.00286945 0.00264844 0.00243683 0.00223464 0.00204185 0.00185848 0.00168452 0.00151997 0.00136483 0.00121897 0.00108225 0.000954676 0.00083624 0.000726947 0.000626796 0.000535787 0.00045392 0.000380324 0.000314129 0.000255334 0.00020394 0.000159946 0.000123353 9.41602e-05 7.23679e-05 5.54067e-05 4.0707e-05 2.82687e-05 1.8092e-05 1.01767e-05 4.523e-06 1.13075e-06 0 0 1.91178e-05 7.6471e-05 0.00017206 0.000305884 0.000477944 0.000688239 0.00093677 0.00122354 0.00155414 0.00193417 0.00236363 0.00284252 0.00337084 0.00394859 0.00457577 0.00525238 0.00596045 0.006682 0.00741704 0.00816557 0.00892758 0.00970307 0.0104921 0.0112945 0.0120931 0.0128705 0.0136267 0.0143617 0.0150755 0.0157681 0.0164395 0.0170897 0.0177098 0.0182906 0.0188323 0.0193348 0.0197982 0.0202223 0.0206074 0.0209532 0.0212585 0.0215218 0.021743 0.0219223 0.0220596 0.0221549 0.0222082 0.0222194 0.0221927 0.0221318 0.0220368 0.0219076 0.0217444 0.021547 0.0213156 0.02105 0.0207568 0.0204428 0.0201078 0.0197519 0.0193751 0.0189773 0.0185586 0.018119 0.0176653 0.0172042 0.0167357 0.0162598 0.0157766 0.015286 0.0147881 0.0142827 0.0137753 0.0132712 0.0127703 0.0122726 0.0117782 0.011287 0.0107991 0.0103144 0.00983612 0.00936751 0.00890854 0.00845921 0.00801952 0.00758948 0.00716908 0.00675832 0.00635856 0.00597113 0.00559604 0.00523328 0.00488287 0.00454479 0.00421905 0.00390565 0.00360482 0.0033168 0.00304159 0.00277919 0.0025296 0.00229282 0.00206885 0.00185769 0.00165916 0.00147307 0.00129942 0.00113822 0.000989456 0.000853139 0.000729266 0.000617836 0.000517664 0.000427564 0.000347538 0.000277585 0.000217705 0.000167897 0.000128162 9.85008e-05 7.54147e-05 5.54067e-05 3.84769e-05 2.46252e-05 1.38517e-05 6.1563e-06 1.53908e-06 0 0 2.49701e-05 9.98805e-05 0.000224731 0.000399522 0.000624253 0.000898925 0.00122354 0.00159809 0.00202989 0.00252626 0.00308718 0.00371267 0.00440272 0.00515734 0.00597651 0.00686025 0.00778507 0.00872751 0.00968756 0.0106652 0.0116605 0.0126734 0.0137039 0.014752 0.0157951 0.0168105 0.0177982 0.0187582 0.0196905 0.0205951 0.0214721 0.0223213 0.0231311 0.0238898 0.0245973 0.0252536 0.0258588 0.0264129 0.0269157 0.0273675 0.0277662 0.0281101 0.0283991 0.0286332 0.0288125 0.028937 0.0290066 0.0290213 0.0289863 0.0289068 0.0287827 0.0286141 0.0284008 0.0281431 0.0278407 0.0274938 0.027111 0.0267008 0.0262633 0.0257984 0.0253062 0.0247867 0.0242399 0.0236657 0.023073 0.0224707 0.0218588 0.0212373 0.0206062 0.0199654 0.019315 0.018655 0.0179923 0.0173338 0.0166796 0.0160296 0.0153838 0.0147422 0.0141049 0.0134718 0.0128472 0.0122351 0.0116356 0.0110488 0.0104745 0.00991279 0.00936369 0.0088272 0.00830505 0.00779902 0.00730911 0.00683531 0.00637762 0.00593605 0.0055106 0.00510125 0.00470833 0.00433214 0.00397269 0.00362996 0.00330397 0.0029947 0.00270217 0.00242637 0.00216706 0.00192401 0.0016972 0.00148665 0.00129235 0.0011143 0.00095251 0.000806969 0.000676132 0.000558452 0.000453927 0.00036256 0.000284349 0.000219294 0.000167396 0.000128654 9.85008e-05 7.23679e-05 5.02555e-05 3.21635e-05 1.8092e-05 8.04088e-06 2.01022e-06 0 0 3.17573e-05 0.000127029 0.000285816 0.000508117 0.000793933 0.00114326 0.00155611 0.00203247 0.0025813 0.00321157 0.00392326 0.00471639 0.00559095 0.00654694 0.00758436 0.00870321 0.00987383 0.0110666 0.0122814 0.0135184 0.0147775 0.0160587 0.0173621 0.0186875 0.0200066 0.0212906 0.0225396 0.0237536 0.0249327 0.0260767 0.0271858 0.0282598 0.029284 0.0302436 0.0311386 0.0319689 0.0327345 0.0334356 0.034072 0.0346437 0.0351485 0.0355839 0.03595 0.0362467 0.0364741 0.0366321 0.0367208 0.0367401 0.0366966 0.0365967 0.0364404 0.0362278 0.0359588 0.0356334 0.0352516 0.0348134 0.0343298 0.0338115 0.0332587 0.0326712 0.0320491 0.0313924 0.0307011 0.0299751 0.0292258 0.0284642 0.0276904 0.0269043 0.0261061 0.0252956 0.0244728 0.0236379 0.0227995 0.0219664 0.0211386 0.0203161 0.0194989 0.018687 0.0178804 0.0170791 0.0162885 0.0155137 0.0147548 0.0140118 0.0132848 0.0125736 0.0118783 0.011199 0.0105377 0.00989685 0.00927636 0.00867623 0.00809648 0.00753709 0.00699808 0.00647943 0.00598155 0.00550483 0.00504926 0.00461485 0.0042016 0.0038095 0.00343856 0.00308878 0.00275985 0.00245145 0.0021636 0.00189629 0.00164952 0.00142329 0.0012176 0.00103246 0.000865908 0.000716017 0.000582784 0.000466208 0.000366289 0.000283027 0.000216422 0.000166475 0.000127457 9.36422e-05 6.50293e-05 4.16188e-05 2.34106e-05 1.04047e-05 2.60117e-06 0 0 3.96339e-05 0.000158535 0.000356705 0.000634142 0.000990847 0.00142682 0.00194206 0.00253657 0.00322059 0.00400437 0.0048879 0.0058712 0.00695425 0.00813706 0.00941963 0.010802 0.0122476 0.01372 0.0152193 0.0167454 0.0182983 0.0198781 0.0214847 0.0231181 0.0247434 0.0263256 0.0278648 0.0293609 0.0308139 0.0322239 0.0335908 0.0349146 0.0361772 0.0373602 0.0384638 0.0394878 0.0404323 0.0412973 0.0420828 0.0427888 0.0434123 0.0439505 0.0444032 0.0447705 0.0450525 0.045249 0.0453602 0.0453859 0.0453342 0.045213 0.0450222 0.0447619 0.0444321 0.0440327 0.0435638 0.0430254 0.0424308 0.0417935 0.0411133 0.0403904 0.0396246 0.0388161 0.0379648 0.0370706 0.0361475 0.0352091 0.0342555 0.0332867 0.0323026 0.0313033 0.0302888 0.0292591 0.0282249 0.0271971 0.0261758 0.0251608 0.0241523 0.0231501 0.0221544 0.0211651 0.0201887 0.0192319 0.0182945 0.0173767 0.0164784 0.0155996 0.0147404 0.0139006 0.0130832 0.0122908 0.0115235 0.0107813 0.0100642 0.00937218 0.00870523 0.00806335 0.00744704 0.00685681 0.00629264 0.00575454 0.00524251 0.00475654 0.00429665 0.00386282 0.00345467 0.00307179 0.0027142 0.00238188 0.00207485 0.0017931 0.00153662 0.00130543 0.00109717 0.000909489 0.00074239 0.000595871 0.000469934 0.000364579 0.000279804 0.000215611 0.000165077 0.000121281 8.4223e-05 5.39027e-05 3.03203e-05 1.34757e-05 3.36892e-06 0 0 4.85997e-05 0.000194399 0.000437398 0.000777596 0.00121499 0.00174959 0.00238139 0.00311038 0.00394775 0.00490466 0.00598111 0.0071771 0.00849264 0.00992772 0.0114823 0.0131565 0.0149063 0.0166879 0.0185011 0.0203462 0.0222229 0.0241315 0.0260717 0.0280437 0.0300056 0.0319156 0.0337738 0.03558 0.0373343 0.0390367 0.0406872 0.0422858 0.0438106 0.0452396 0.0465729 0.0478104 0.0489521 0.049998 0.0509482 0.0518026 0.0525577 0.0532097 0.0537587 0.0542047 0.0545477 0.0547877 0.0549247 0.0549587 0.0548991 0.0547556 0.054528 0.0542164 0.0538208 0.0533411 0.0527774 0.0521297 0.0514141 0.0506466 0.0498272 0.0489559 0.0480328 0.0470578 0.0460309 0.0449522 0.0438382 0.0427055 0.0415543 0.0403844 0.0391959 0.0379887 0.0367629 0.0355185 0.0342685 0.0330261 0.0317912 0.0305638 0.029344 0.0281317 0.0269269 0.0257297 0.0245479 0.0233896 0.0222547 0.0211433 0.0200554 0.0189909 0.0179498 0.0169322 0.0159415 0.0149809 0.0140507 0.0131506 0.0122809 0.0114413 0.010632 0.009853 0.00910481 0.00838808 0.00770282 0.00704903 0.0064267 0.00583583 0.00527643 0.00474849 0.00425152 0.00378502 0.00334899 0.00294343 0.00256834 0.00222372 0.00190958 0.0016259 0.00136992 0.00113887 0.000932745 0.000751551 0.000595286 0.000463949 0.000357541 0.000276061 0.00021136 0.000155285 0.000107836 6.90153e-05 3.88211e-05 1.72538e-05 4.31346e-06 0 0 5.86549e-05 0.00023462 0.000527894 0.000938479 0.00146637 0.00211158 0.00287409 0.00375391 0.00476279 0.00591244 0.00720288 0.0086341 0.0102061 0.0119189 0.0137725 0.0157668 0.01785 0.0199701 0.022127 0.0243207 0.0265513 0.0288188 0.0311232 0.0334643 0.0357932 0.0380606 0.0402665 0.0424109 0.0444937 0.0465151 0.048475 0.0503734 0.0521843 0.0538818 0.055466 0.0569366 0.0582939 0.0595378 0.0606683 0.0616853 0.0625845 0.0633616 0.0640165 0.0645492 0.0649598 0.0652482 0.0654144 0.0654584 0.0653914 0.0652246 0.0649579 0.0645913 0.0641249 0.0635586 0.0628924 0.0621264 0.0612795 0.0603708 0.0594003 0.0583679 0.0572736 0.0561175 0.0548996 0.0536198 0.0522978 0.0509535 0.0495867 0.0481974 0.0467858 0.0453517 0.0438952 0.0424162 0.0409304 0.0394533 0.0379849 0.0365251 0.035074 0.0336316 0.0321979 0.0307729 0.0293661 0.027987 0.0266355 0.0253118 0.0240157 0.0227474 0.0215067 0.0202937 0.0191125 0.0179672 0.0168577 0.0157841 0.0147464 0.0137445 0.0127785 0.0118484 0.0109548 0.0100987 0.00927981 0.00849832 0.00775417 0.00704736 0.00637791 0.0057458 0.00515042 0.00459115 0.00406799 0.00358094 0.00313 0.00271517 0.00233646 0.00199385 0.00168415 0.00140415 0.00115385 0.000933246 0.000742343 0.000581138 0.000449633 0.000347827 0.000266305 0.000195653 0.00013587 8.69567e-05 4.89131e-05 2.17392e-05 5.43479e-06 0 0 6.97994e-05 0.000279198 0.000628195 0.00111679 0.00174499 0.00251278 0.00342017 0.00446716 0.0056657 0.00702771 0.00855321 0.0102422 0.0120947 0.0141106 0.0162901 0.018633 0.0210787 0.0235667 0.0260968 0.0286691 0.0312835 0.0339402 0.036639 0.03938 0.0421062 0.0447605 0.047343 0.0498535 0.0522923 0.0546591 0.0569541 0.0591773 0.0612983 0.0632868 0.0651429 0.0668666 0.0684578 0.0699166 0.0712429 0.0724367 0.0734929 0.0744062 0.0751766 0.0758041 0.0762887 0.0766304 0.0768292 0.0768851 0.076811 0.0766199 0.0763118 0.0758866 0.0753443 0.0746851 0.0739088 0.0730154 0.0720272 0.0709662 0.0698326 0.0686262 0.0673471 0.0659952 0.0645707 0.0630734 0.0615264 0.0599529 0.0583527 0.0567258 0.0550724 0.0533923 0.0516856 0.0499523 0.0482105 0.0464787 0.0447567 0.0430446 0.0413424 0.03965 0.0379675 0.0362948 0.0346432 0.0330239 0.0314368 0.029882 0.0283594 0.026869 0.025411 0.0239851 0.0225964 0.0212496 0.0199447 0.0186818 0.0174608 0.0162818 0.0151447 0.0140495 0.0129972 0.0119885 0.0110236 0.0101024 0.00922491 0.00839114 0.00760108 0.00685473 0.00615135 0.00549016 0.00487118 0.0042944 0.00375982 0.00326744 0.00281727 0.0024093 0.00203987 0.00170534 0.0014057 0.00114096 0.000911106 0.000716146 0.00055608 0.000430907 0.000329913 0.000242385 0.000168323 0.000107727 6.05963e-05 2.69317e-05 6.73292e-06 0 0 8.20333e-05 0.000328133 0.0007383 0.00131253 0.00205083 0.0029532 0.00401963 0.00525013 0.00665648 0.00825048 0.0100321 0.0120014 0.0141583 0.0165029 0.0190351 0.0217549 0.0245924 0.0274776 0.0304105 0.0333912 0.0364195 0.0394955 0.0426193 0.0457907 0.0489445 0.0520154 0.0550032 0.057908 0.0607299 0.0634688 0.0661246 0.0686975 0.0711525 0.0734546 0.0756038 0.0776002 0.0794437 0.0811343 0.0826721 0.084057 0.0852828 0.0863435 0.087239 0.0879693 0.0885345 0.0889344 0.0891692 0.0892388 0.089158 0.0889416 0.0885897 0.0881023 0.0874792 0.0867206 0.0858265 0.0847968 0.083657 0.0824328 0.0811241 0.0797309 0.0782532 0.076691 0.0750443 0.0733131 0.071524 0.0697038 0.0678523 0.0659696 0.0640556 0.0621105 0.0601341 0.0581265 0.0561089 0.0541023 0.0521068 0.0501223 0.048149 0.0461867 0.0442355 0.0422954 0.0403793 0.0385004 0.0366586 0.0348539 0.0330864 0.031356 0.0296627 0.0280065 0.0263931 0.0248281 0.0233117 0.0218437 0.0204242 0.0190531 0.0177305 0.0164564 0.0152317 0.0140577 0.0129342 0.0118613 0.0108389 0.00986716 0.00894595 0.0080753 0.00725431 0.00648207 0.00575857 0.00508381 0.0044578 0.00388053 0.00335201 0.00287223 0.00243708 0.00204244 0.00168831 0.00137468 0.00110157 0.000868973 0.000676883 0.000525302 0.000402184 0.000295482 0.000205196 0.000131326 7.38706e-05 3.28314e-05 8.20785e-06 0 0 9.53565e-05 0.000381426 0.000858208 0.0015257 0.00238391 0.00343283 0.00467247 0.00610281 0.00773515 0.00958073 0.0116396 0.0139117 0.016397 0.0190956 0.0220075 0.0251326 0.0283911 0.031703 0.0350683 0.0384871 0.0419593 0.0454849 0.049064 0.0526965 0.0563083 0.0598252 0.0632472 0.0665743 0.0698066 0.072944 0.0759865 0.0789341 0.081747 0.0843852 0.0868487 0.0891375 0.0912516 0.0931911 0.0949559 0.096546 0.0979543 0.0991735 0.100204 0.101045 0.101697 0.10216 0.102434 0.102519 0.102432 0.10219 0.101792 0.101238 0.10053 0.0996653 0.0986456 0.0974705 0.0961691 0.0947706 0.0932748 0.091682 0.0899919 0.0882047 0.0863203 0.0843388 0.0822906 0.0802062 0.0780855 0.0759287 0.0737356 0.0715063 0.0692408 0.0669391 0.0646254 0.0623241 0.0600351 0.0577583 0.0554939 0.0532418 0.051002 0.0487746 0.0465744 0.0444165 0.042301 0.0402277 0.0381968 0.0362081 0.0342618 0.0323577 0.0305025 0.0287028 0.0269586 0.0252697 0.0236364 0.0220584 0.020536 0.0190689 0.0176586 0.0163061 0.0150116 0.013775 0.0125962 0.0114754 0.0104125 0.0094075 0.00845932 0.00756687 0.00673015 0.00594918 0.00522394 0.00455444 0.00394068 0.00338265 0.00287577 0.00241544 0.00200166 0.00163443 0.00131375 0.00103962 0.00081204 0.000631012 0.000483119 0.000354944 0.000246489 0.000157753 8.87361e-05 3.94382e-05 9.85956e-06 0 0 0.000109769 0.000439076 0.000987921 0.0017563 0.00274422 0.00395168 0.00537868 0.00702522 0.00890168 0.0110185 0.0133756 0.015973 0.0188108 0.0218889 0.0252074 0.0287661 0.0324747 0.0362427 0.04007 0.0439568 0.0479028 0.0519083 0.0559731 0.0600973 0.0641974 0.0681899 0.072075 0.0758525 0.0795224 0.0830848 0.0865397 0.0898871 0.0930817 0.0960785 0.0988774 0.101478 0.103882 0.106087 0.108094 0.109904 0.111507 0.112896 0.114071 0.115031 0.115777 0.116308 0.116625 0.116727 0.116634 0.116364 0.115918 0.115295 0.114495 0.113519 0.112366 0.111037 0.109563 0.107979 0.106285 0.104479 0.102563 0.100536 0.0983989 0.0961506 0.0938261 0.0914601 0.0890524 0.0866031 0.0841122 0.0815797 0.0790056 0.07639 0.0737602 0.0711441 0.0685416 0.0659526 0.0633772 0.0608153 0.0582671 0.0557324 0.0532284 0.0507722 0.0483638 0.0460033 0.0436905 0.0414255 0.0392083 0.0370389 0.0349248 0.0328737 0.0308854 0.02896 0.0270975 0.0252979 0.0235611 0.0218873 0.0202777 0.0187339 0.0172558 0.0158435 0.0144968 0.0132159 0.0120008 0.0108513 0.00976636 0.00874456 0.00778594 0.0068905 0.00605824 0.00528917 0.00458328 0.00394056 0.00335595 0.00282435 0.00234576 0.00192019 0.00154763 0.00122808 0.000961553 0.000748037 0.000572716 0.000420771 0.000292202 0.000187009 0.000105193 4.67523e-05 1.16881e-05 0 0 0.000124971 0.000499883 0.00112474 0.00199953 0.00312427 0.00449895 0.00612357 0.00799813 0.0101319 0.012534 0.0152045 0.0181433 0.0213506 0.0248262 0.0285703 0.0325827 0.036762 0.0410066 0.0453166 0.0496919 0.0541326 0.0586386 0.06321 0.0678468 0.0724558 0.0769441 0.0813117 0.0855585 0.0896847 0.09369 0.0975747 0.101339 0.104931 0.108302 0.11145 0.114377 0.117082 0.119564 0.121825 0.123864 0.125671 0.127237 0.128563 0.129648 0.130492 0.131095 0.131457 0.131578 0.13148 0.131183 0.130687 0.129992 0.129099 0.128007 0.126716 0.125226 0.123575 0.121798 0.119897 0.117871 0.11572 0.113444 0.111043 0.108517 0.105905 0.103246 0.100539 0.0977853 0.0949841 0.0921356 0.0892399 0.0862968 0.0833375 0.0803931 0.0774635 0.0745486 0.0716487 0.0687635 0.0658932 0.0630377 0.0602163 0.0574485 0.0547341 0.0520732 0.0494658 0.0469118 0.0444114 0.0419644 0.0395795 0.0372652 0.0350215 0.0328484 0.030746 0.0287141 0.0267529 0.0248623 0.0230439 0.0212994 0.0196287 0.0180319 0.016509 0.01506 0.0136848 0.0123835 0.0111545 0.00999653 0.00890944 0.00789327 0.00694802 0.00607368 0.00527026 0.00453776 0.00387062 0.00326327 0.00271571 0.00222794 0.00179997 0.00143179 0.0011234 0.000874801 0.000669769 0.000492075 0.000341719 0.0002187 0.000123019 5.4675e-05 1.36688e-05 0 0 0.000140662 0.000562647 0.00126596 0.00225059 0.00351654 0.00506382 0.00689242 0.00900235 0.0114014 0.0140974 0.0170904 0.0203803 0.0239672 0.027851 0.0320318 0.0365096 0.0411714 0.0459045 0.0507088 0.0555843 0.060531 0.065549 0.0706382 0.0757986 0.0809275 0.0859222 0.0907826 0.0955087 0.100101 0.104558 0.108882 0.113071 0.11707 0.120822 0.124328 0.127587 0.1306 0.133366 0.135886 0.138159 0.140175 0.141923 0.143404 0.144616 0.145561 0.146238 0.146648 0.146789 0.146687 0.146362 0.145817 0.14505 0.144062 0.142853 0.141422 0.13977 0.137938 0.135966 0.133855 0.131604 0.129214 0.126684 0.124015 0.121206 0.118302 0.115343 0.112332 0.109268 0.10615 0.102979 0.0997548 0.0964775 0.0931816 0.0899018 0.0866379 0.0833901 0.0801583 0.0769426 0.0737428 0.0705591 0.067413 0.0643262 0.0612986 0.0583302 0.055421 0.052571 0.0497803 0.0470488 0.0443862 0.041802 0.0392963 0.0368691 0.0345204 0.0322501 0.0300583 0.0279449 0.0259119 0.023961 0.0220922 0.0203056 0.0186011 0.0169788 0.0154386 0.0139805 0.012603 0.0113042 0.0100842 0.00894298 0.00788056 0.00689694 0.0059921 0.00516606 0.00441279 0.00372631 0.0031066 0.00255367 0.00206752 0.00164815 0.00129555 0.00100973 0.000773074 0.000567972 0.000394425 0.000252432 0.000141993 6.3108e-05 1.5777e-05 0 0 0.000156842 0.000627367 0.00141158 0.00250947 0.00392104 0.0056463 0.00768525 0.0100379 0.0127104 0.0157089 0.0190334 0.022684 0.0266607 0.0309633 0.035592 0.0405468 0.045703 0.0509363 0.0562465 0.0616338 0.067098 0.0726393 0.0782575 0.0839528 0.0896125 0.0951241 0.100488 0.105703 0.11077 0.11569 0.120461 0.125084 0.129498 0.133639 0.13751 0.141109 0.144436 0.147492 0.150276 0.152789 0.155019 0.156953 0.158592 0.159936 0.160985 0.161739 0.162198 0.162361 0.162255 0.161904 0.161309 0.16047 0.159386 0.158058 0.156486 0.154669 0.152653 0.150483 0.148158 0.145679 0.143046 0.140258 0.137316 0.134219 0.131016 0.127753 0.124431 0.12105 0.117609 0.114109 0.11055 0.106932 0.103292 0.0996701 0.096065 0.092477 0.0889062 0.0853526 0.0818161 0.0782968 0.0748185 0.0714054 0.0680572 0.0647741 0.0615561 0.058403 0.0553151 0.0522921 0.0493449 0.0464842 0.0437099 0.041022 0.0384206 0.0359057 0.0334772 0.0311352 0.0288816 0.0267187 0.0246462 0.0226644 0.0207731 0.0189724 0.0172622 0.0156426 0.0141116 0.0126675 0.0113102 0.0100396 0.00885588 0.00775893 0.00674879 0.00582544 0.00498247 0.00421348 0.00351845 0.00289738 0.00235029 0.00187717 0.00147801 0.00115282 0.000882628 0.000648462 0.000450321 0.000288205 0.000162115 7.20513e-05 1.80128e-05 0 0 0.000173511 0.000694044 0.0015616 0.00277618 0.00433778 0.0062464 0.00850204 0.0111047 0.0140587 0.0173683 0.0210336 0.0250545 0.029431 0.0341631 0.0392509 0.0446943 0.0503569 0.0561021 0.06193 0.0678405 0.0738337 0.0799096 0.0860681 0.0923093 0.0985107 0.10455 0.110427 0.116142 0.121694 0.127084 0.132312 0.137378 0.142214 0.146754 0.150996 0.154942 0.15859 0.161942 0.164997 0.167755 0.170203 0.172328 0.174129 0.175608 0.176764 0.177596 0.178106 0.178292 0.178184 0.177807 0.177162 0.17625 0.17507 0.173622 0.171906 0.169922 0.16772 0.165348 0.162807 0.160096 0.157215 0.154164 0.150944 0.147555 0.144048 0.140475 0.136836 0.133132 0.129363 0.125527 0.121627 0.11766 0.11367 0.109698 0.105745 0.101809 0.0978923 0.0939934 0.0901129 0.0862506 0.0824328 0.078686 0.0750101 0.0714051 0.067871 0.0644078 0.0610156 0.0576942 0.0544556 0.0513116 0.0482621 0.0453071 0.0424468 0.039681 0.0370097 0.0344331 0.0319532 0.0295725 0.0272909 0.0251084 0.023025 0.0210407 0.0191556 0.0173696 0.0156806 0.0140865 0.0125874 0.0111832 0.00987397 0.00865967 0.00754032 0.00651591 0.00557965 0.00472476 0.00395123 0.00325907 0.00264828 0.00211884 0.00167078 0.00130408 0.000998433 0.000733543 0.000509405 0.000326019 0.000183386 8.15048e-05 2.03762e-05 0 0 0.000190669 0.000762678 0.00171603 0.00305071 0.00476674 0.0068641 0.0093428 0.0122028 0.0154464 0.0190757 0.0230908 0.0274916 0.0322781 0.0374504 0.0430084 0.0489522 0.0551329 0.0614019 0.067759 0.0742044 0.080738 0.0873599 0.0940699 0.100868 0.107622 0.1142 0.1206 0.126824 0.132871 0.138742 0.144436 0.149953 0.15522 0.160165 0.164787 0.169086 0.173063 0.176716 0.180047 0.183056 0.185727 0.188046 0.190015 0.191631 0.192897 0.193811 0.194373 0.194584 0.194474 0.194071 0.193377 0.192391 0.191114 0.189544 0.187683 0.185531 0.183139 0.180563 0.177801 0.174854 0.171722 0.168404 0.164902 0.161214 0.157397 0.153508 0.149548 0.145515 0.14141 0.137233 0.132983 0.128662 0.124314 0.119986 0.115677 0.111387 0.107116 0.102865 0.0986332 0.0944205 0.0902559 0.0861681 0.0821572 0.0782231 0.0743659 0.0705855 0.0668819 0.0632552 0.0597183 0.0562843 0.052953 0.0497245 0.0465988 0.0435759 0.0406559 0.0378386 0.0351266 0.0325225 0.0300261 0.0276376 0.0253568 0.0231839 0.0211188 0.0191615 0.0173097 0.0155612 0.0139158 0.0123737 0.0109348 0.00959915 0.0083667 0.00723747 0.00620434 0.00526017 0.00440497 0.00363874 0.00296148 0.00237318 0.00187385 0.0014635 0.00112049 0.000823216 0.000571678 0.000365874 0.000205804 9.14685e-05 2.28671e-05 0 0 0.000208317 0.000833268 0.00187485 0.00333307 0.00520793 0.00749941 0.0102075 0.0133323 0.0168735 0.0208312 0.0252051 0.0299955 0.0352021 0.0408252 0.0468646 0.0533203 0.0600311 0.0668356 0.0737337 0.0807255 0.087811 0.0949901 0.102263 0.109629 0.116947 0.124073 0.131008 0.137751 0.144303 0.150663 0.156831 0.162809 0.168516 0.173874 0.178882 0.183542 0.187853 0.191815 0.195428 0.198692 0.201591 0.20411 0.206248 0.208006 0.209384 0.210382 0.210999 0.211236 0.211125 0.210697 0.209954 0.208894 0.207518 0.205826 0.203818 0.201493 0.19891 0.196126 0.19314 0.189954 0.186566 0.182977 0.179187 0.175196 0.171064 0.166854 0.162565 0.158197 0.153751 0.149225 0.144621 0.139938 0.135226 0.130534 0.125862 0.12121 0.116579 0.111968 0.107377 0.102807 0.0982878 0.0938517 0.0894985 0.0852281 0.0810406 0.0769359 0.0729141 0.0689751 0.0651331 0.0614022 0.0577826 0.0542741 0.0508767 0.0475906 0.0444156 0.0413517 0.0384018 0.0355685 0.0328519 0.0302519 0.0277686 0.0254019 0.0231518 0.0210184 0.0189991 0.0170915 0.0152955 0.0136112 0.0120385 0.0105774 0.00922793 0.00799012 0.00685652 0.0058197 0.00487965 0.00403638 0.00328989 0.00264017 0.00208724 0.00163108 0.0012488 0.000917482 0.00063714 0.00040777 0.000229371 0.000101942 2.54856e-05 0 0 0.000226454 0.000905815 0.00203808 0.00362326 0.00566134 0.00815234 0.0110962 0.014493 0.01834 0.0226345 0.0273765 0.032566 0.038203 0.0442874 0.0508194 0.0577988 0.0650515 0.0724033 0.079854 0.0874038 0.0950525 0.1028 0.110647 0.118593