<?xml version="1.0"?> 
<VTKFile type="StructuredGrid" version="0.1"> 
<StructuredGrid WholeExtent="0 128 0 128 0 0"> 
<Piece Extent="0 128 0 128 0 0"> 
<PointData>
<DataArray type="Float32" Name="u" format="ascii" NumberOfComponents="1"> 
0 0 0 0 0 0 0 0 0 0 0 0 0 0 0 0 0 0 0 0 0 0 0 0 0 0 0 0 0 0 0 0 0 0 0 0 0 0 0 0 0 0 0 0 0 0 0 0 0 0 0 0 0 0 0 0 0 0 0 0 0 0 0 0 0 0 0 0 0 0 0 0 0 0 0 0 0 0 0 0 0 0 0 0 0 0 0 0 0 0 0 0 0 0 0 0 0 0 0 0 0 0 0 0 0 0 0 0 0 0 0 0 0 0 0 0 0 0 0 0 0 0 0 0 0 0 0 0 0 0 2.01066e-07 8.04263e-07 1.80959e-06 3.21705e-06 5.02664e-06 7.23837e-06 9.85222e-06 1.28682e-05 1.63448e-05 2.03403e-05 2.48549e-05 2.98884e-05 3.5441e-05 4.15126e-05 4.81032e-05 5.52127e-05 6.26521e-05 7.02321e-05 7.79526e-05 8.58138e-05 9.38155e-05 0.000101958 0.000110241 0.000118664 0.000127051 0.000135224 0.000143184 0.00015093 0.000158463 0.000165781 0.000172886 0.000179778 0.000186371 0.000192581 0.000198407 0.00020385 0.00020891 0.000213587 0.00021788 0.000221791 0.00022531 0.00022843 0.000231151 0.000233474 0.000235398 0.000236923 0.00023805 0.000238777 0.000239145 0.000239194 0.000238923 0.000238332 0.000237422 0.000236192 0.000234642 0.000232773 0.000230641 0.000228302 0.000225758 0.000223006 0.000220049 0.000216886 0.000213516 0.00020994 0.000206209 0.000202375 0.000198439 0.0001944 0.000190258 0.000186013 0.000181665 0.000177214 0.000172697 0.000168151 0.000163576 0.000158972 0.000154339 0.000149676 0.000144984 0.000140263 0.000135536 0.000130826 0.000126134 0.000121459 0.000116801 0.00011216 0.000107537 0.000102931 9.83593e-05 9.38399e-05 8.93725e-05 8.49572e-05 8.05939e-05 7.62826e-05 7.20233e-05 6.78161e-05 6.36816e-05 5.96405e-05 5.56928e-05 5.18386e-05 4.80778e-05 4.44104e-05 4.08364e-05 3.73559e-05 3.3998e-05 3.0792e-05 2.77379e-05 2.48357e-05 2.20853e-05 1.94869e-05 1.70403e-05 1.47456e-05 1.26197e-05 1.06794e-05 8.92471e-06 7.35562e-06 5.97214e-06 4.77427e-06 3.76201e-06 2.93536e-06 2.24739e-06 1.65114e-06 1.14663e-06 7.33841e-07 4.12786e-07 1.8346e-07 4.58651e-08 0 0 8.04263e-07 3.21705e-06 7.23837e-06 1.28682e-05 2.01066e-05 2.89535e-05 3.94089e-05 5.14728e-05 6.53791e-05 8.13613e-05 9.94195e-05 0.000119554 0.000141764 0.00016605 0.000192413 0.000220851 0.000250609 0.000280928 0.000311811 0.000343255 0.000375262 0.000407831 0.000440963 0.000474657 0.000508205 0.000540898 0.000572737 0.000603721 0.00063385 0.000663125 0.000691546 0.000719112 0.000745484 0.000770323 0.000793629 0.000815402 0.000835641 0.000854348 0.000871522 0.000887162 0.000901238 0.00091372 0.000924606 0.000933897 0.000941592 0.000947693 0.000952198 0.000955108 0.000956582 0.000956776 0.000955692 0.00095333 0.000949689 0.000944769 0.00093857 0.000931093 0.000922564 0.000913209 0.00090303 0.000892026 0.000880196 0.000867542 0.000854063 0.000839758 0.000824836 0.000809501 0.000793756 0.000777599 0.00076103 0.00074405 0.000726659 0.000708856 0.000690789 0.000672606 0.000654305 0.000635888 0.000617354 0.000598703 0.000579936 0.000561052 0.000542144 0.000523305 0.000504535 0.000485834 0.000467203 0.00044864 0.000430147 0.000411723 0.000393437 0.00037536 0.00035749 0.000339829 0.000322376 0.00030513 0.000288093 0.000271264 0.000254726 0.000238562 0.000222771 0.000207354 0.000192311 0.000177642 0.000163346 0.000149424 0.000135992 0.000123168 0.000110952 9.93427e-05 8.83413e-05 7.79475e-05 6.81613e-05 5.89826e-05 5.04789e-05 4.27176e-05 3.56988e-05 2.94225e-05 2.38885e-05 1.90971e-05 1.5048e-05 1.17415e-05 8.98955e-06 6.60457e-06 4.58651e-06 2.93536e-06 1.65114e-06 7.33841e-07 1.8346e-07 0 0 1.80959e-06 7.23837e-06 1.62863e-05 2.89535e-05 4.52398e-05 6.51453e-05 8.867e-05 0.000115814 0.000147103 0.000183063 0.000223694 0.000268996 0.000318969 0.000373613 0.000432929 0.000496915 0.000563869 0.000632089 0.000701574 0.000772324 0.00084434 0.00091762 0.000992166 0.00106798 0.00114346 0.00121702 0.00128866 0.00135837 0.00142616 0.00149203 0.00155598 0.001618 0.00167734 0.00173323 0.00178566 0.00183465 0.00188019 0.00192228 0.00196092 0.00199611 0.00202779 0.00205587 0.00208036 0.00210127 0.00211858 0.00213231 0.00214245 0.00214899 0.00215231 0.00215275 0.00215031 0.00214499 0.0021368 0.00212573 0.00211178 0.00209496 0.00207577 0.00205472 0.00203182 0.00200706 0.00198044 0.00195197 0.00192164 0.00188946 0.00185588 0.00182138 0.00178595 0.0017496 0.00171232 0.00167411 0.00163498 0.00159493 0.00155428 0.00151336 0.00147219 0.00143075 0.00138905 0.00134708 0.00130486 0.00126237 0.00121982 0.00117744 0.0011352 0.00109313 0.00105121 0.00100944 0.000967831 0.000926376 0.000885234 0.000844559 0.000804353 0.000764615 0.000725345 0.000686543 0.00064821 0.000610345 0.000573134 0.000536765 0.000501236 0.000466547 0.0004327 0.000399694 0.000367528 0.000336203 0.000305982 0.000277128 0.000249641 0.000223521 0.000198768 0.000175382 0.000153363 0.000132711 0.000113578 9.61147e-05 8.03224e-05 6.62005e-05 5.37492e-05 4.29684e-05 3.38581e-05 2.64183e-05 2.02265e-05 1.48603e-05 1.03196e-05 6.60457e-06 3.71507e-06 1.65114e-06 4.12786e-07 0 0 3.21705e-06 1.28682e-05 2.89535e-05 5.14728e-05 8.04263e-05 0.000115814 0.000157636 0.000205891 0.000261516 0.000325445 0.000397678 0.000478215 0.000567056 0.000664201 0.000769651 0.000883404 0.00100243 0.00112371 0.00124724 0.00137302 0.00150105 0.00163133 0.00176385 0.00189863 0.00203282 0.00216359 0.00229095 0.00241488 0.0025354 0.0026525 0.00276618 0.00287645 0.00298194 0.00308129 0.00317451 0.00326161 0.00334257 0.00341739 0.00348609 0.00354865 0.00360495 0.00365488 0.00369842 0.00373559 0.00376637 0.00379077 0.00380879 0.00382043 0.00382633 0.00382711 0.00382277 0.00381332 0.00379875 0.00377907 0.00375428 0.00372437 0.00369025 0.00365284 0.00361212 0.0035681 0.00352079 0.00347017 0.00341625 0.00335903 0.00329934 0.00323801 0.00317502 0.0031104 0.00304412 0.0029762 0.00290664 0.00283542 0.00276316 0.00269042 0.00261722 0.00254355 0.00246942 0.00239481 0.00231974 0.00224421 0.00216858 0.00209322 0.00201814 0.00194334 0.00186881 0.00179456 0.00172059 0.00164689 0.00157375 0.00150144 0.00142996 0.00135932 0.0012895 0.00122052 0.00115237 0.00108506 0.00101891 0.000954248 0.000891085 0.000829418 0.000769244 0.000710566 0.000653383 0.000597694 0.000543968 0.000492672 0.000443806 0.000397371 0.000353365 0.00031179 0.000272645 0.00023593 0.000201916 0.000170871 0.000142795 0.00011769 9.55542e-05 7.63883e-05 6.01922e-05 4.69658e-05 3.59582e-05 2.64183e-05 1.8346e-05 1.17415e-05 6.60457e-06 2.93536e-06 7.33841e-07 0 0 5.02664e-06 2.01066e-05 4.52398e-05 8.04263e-05 0.000125666 0.000180959 0.000246306 0.000321705 0.000408619 0.000508508 0.000621372 0.000747211 0.000886025 0.00103781 0.00120258 0.00138032 0.0015663 0.0017558 0.00194882 0.00214534 0.00234539 0.00254895 0.00275602 0.0029666 0.00317628 0.00338061 0.0035796 0.00377325 0.00396156 0.00414453 0.00432216 0.00449445 0.00465927 0.00481452 0.00496018 0.00509626 0.00522276 0.00533967 0.00544701 0.00554476 0.00563274 0.00571075 0.00577879 0.00583685 0.00588495 0.00592308 0.00595124 0.00596943 0.00597864 0.00597985 0.00597308 0.00595831 0.00593555 0.0059048 0.00586606 0.00581933 0.00576602 0.00570756 0.00564394 0.00557516 0.00550123 0.00542214 0.00533789 0.00524849 0.00515522 0.00505938 0.00496097 0.00485999 0.00475644 0.00465031 0.00454162 0.00443035 0.00431743 0.00420379 0.00408941 0.0039743 0.00385846 0.0037419 0.0036246 0.00350657 0.0033884 0.00327066 0.00315334 0.00303647 0.00292002 0.002804 0.00268842 0.00257327 0.00245898 0.002346 0.00223431 0.00212393 0.00201485 0.00190707 0.00180058 0.0016954 0.00159204 0.00149101 0.00139232 0.00129596 0.00120194 0.00111026 0.00102091 0.000933897 0.00084995 0.0007698 0.000693447 0.000620892 0.000552133 0.000487172 0.000426008 0.000368641 0.000315493 0.000266985 0.000223118 0.00018389 0.000149303 0.000119357 9.40503e-05 7.33841e-05 5.61847e-05 4.12786e-05 2.86657e-05 1.8346e-05 1.03196e-05 4.58651e-06 1.14663e-06 0 0 7.23837e-06 2.89535e-05 6.51453e-05 0.000115814 0.000180959 0.000260581 0.00035468 0.000463256 0.000588412 0.000732252 0.000894776 0.00107598 0.00127588 0.00149445 0.00173171 0.00198766 0.00225548 0.00252836 0.00280629 0.0030893 0.00337736 0.00367048 0.00396867 0.00427191 0.00457384 0.00486808 0.00515463 0.00543349 0.00570465 0.00596813 0.00622391 0.00647201 0.00670935 0.00693291 0.00714266 0.00733861 0.00752077 0.00768913 0.00784369 0.00798446 0.00811115 0.00822348 0.00832145 0.00840507 0.00847433 0.00852924 0.00856978 0.00859598 0.00860924 0.00861099 0.00860123 0.00857997 0.0085472 0.00850292 0.00844713 0.00837983 0.00830307 0.00821888 0.00812727 0.00802823 0.00792177 0.00780788 0.00768656 0.00755782 0.00742352 0.00728551 0.0071438 0.00699839 0.00684927 0.00669645 0.00653993 0.00637971 0.0062171 0.00605345 0.00588875 0.00572299 0.00555619 0.00538833 0.00521942 0.00504947 0.00487929 0.00470974 0.00454082 0.00437251 0.00420483 0.00403776 0.00387132 0.00370551 0.00354093 0.00337824 0.00321741 0.00305846 0.00290138 0.00274617 0.00259284 0.00244138 0.00229254 0.00214706 0.00200494 0.00186619 0.0017308 0.00159877 0.00147011 0.00134481 0.00122393 0.00110851 0.000998564 0.000894084 0.000795072 0.000701528 0.000613452 0.000530843 0.00045431 0.000384459 0.000321289 0.000264802 0.000214997 0.000171874 0.000135432 0.000105673 8.0906e-05 5.94411e-05 4.12786e-05 2.64183e-05 1.48603e-05 6.60457e-06 1.65114e-06 0 0 9.85222e-06 3.94089e-05 8.867e-05 0.000157636 0.000246306 0.00035468 0.000482759 0.000630542 0.000800893 0.000996676 0.00121789 0.00146453 0.00173661 0.00203412 0.00235706 0.00270542 0.00306995 0.00344137 0.00381968 0.00420488 0.00459696 0.00499593 0.00540179 0.00581455 0.00622551 0.006626 0.00701602 0.00739558 0.00776467 0.00812329 0.00847144 0.00880912 0.00913218 0.00943645 0.00972195 0.00998867 0.0102366 0.0104658 0.0106761 0.0108677 0.0110402 0.0111931 0.0113264 0.0114402 0.0115345 0.0116092 0.0116644 0.0117001 0.0117181 0.0117205 0.0117072 0.0116783 0.0116337 0.0115734 0.0114975 0.0114059 0.0113014 0.0111868 0.0110621 0.0109273 0.0107824 0.0106274 0.0104623 0.010287 0.0101042 0.00991639 0.00972351 0.00952559 0.00932262 0.00911462 0.00890157 0.00868349 0.00846217 0.00823942 0.00801524 0.00778963 0.00756259 0.00733412 0.00710422 0.00687288 0.00664126 0.00641049 0.00618056 0.00595147 0.00572324 0.00549584 0.0052693 0.0050436 0.00481961 0.00459816 0.00437925 0.0041629 0.0039491 0.00373785 0.00352914 0.00332299 0.0031204 0.00292238 0.00272895 0.00254009 0.00235581 0.00217611 0.00200098 0.00183044 0.0016659 0.00150881 0.00135916 0.00121695 0.00108218 0.000954857 0.000834976 0.000722537 0.000618366 0.000523291 0.000437311 0.000360425 0.000292635 0.000233939 0.000184338 0.000143833 0.000110122 8.0906e-05 5.61847e-05 3.59582e-05 2.02265e-05 8.98955e-06 2.24739e-06 0 0 1.28682e-05 5.14728e-05 0.000115814 0.000205891 0.000321705 0.000463256 0.000630542 0.000823565 0.00104606 0.00130178 0.00159071 0.00191286 0.00226823 0.00265681 0.0030786 0.00353362 0.00400974 0.00449485 0.00498897 0.00549208 0.00600419 0.0065253 0.00705541 0.00759451 0.00813127 0.00865437 0.00916379 0.00965953 0.0101416 0.01061 0.0110647 0.0115058 0.0119277 0.0123252 0.0126981 0.0130464 0.0133703 0.0136696 0.0139443 0.0141946 0.0144198 0.0146195 0.0147937 0.0149423 0.0150655 0.0151631 0.0152352 0.0152817 0.0153053 0.0153084 0.0152911 0.0152533 0.015195 0.0151163 0.0150171 0.0148975 0.014761 0.0146113 0.0144485 0.0142724 0.0140831 0.0138807 0.013665 0.0134361 0.0131974 0.012952 0.0127001 0.0124416 0.0121765 0.0119048 0.0116265 0.0113417 0.0110526 0.0107617 0.0104689 0.0101742 0.00987767 0.00957926 0.00927898 0.00897683 0.0086743 0.00837288 0.00807256 0.00777335 0.00747525 0.00717825 0.00688235 0.00658756 0.00629499 0.00600575 0.00571984 0.00543726 0.00515801 0.00488209 0.00460949 0.00434023 0.00407562 0.00381699 0.00356434 0.00331767 0.00307698 0.00284226 0.00261353 0.00239078 0.00217587 0.00197069 0.00177522 0.00158948 0.00141346 0.00124716 0.00109058 0.000943721 0.000807662 0.000683482 0.000571181 0.000470759 0.000382217 0.000305553 0.000240769 0.000187863 0.000143833 0.000105673 7.33841e-05 4.69658e-05 2.64183e-05 1.17415e-05 2.93536e-06 0 0 1.63708e-05 6.54832e-05 0.000147337 0.000261933 0.00040927 0.000589349 0.000802169 0.00104773 0.00133061 0.0016554 0.00202208 0.00243066 0.00288115 0.00337353 0.00390782 0.004484 0.00508679 0.00570088 0.00632627 0.00696296 0.00761095 0.00827024 0.00894083 0.00962273 0.0103016 0.0109633 0.0116076 0.0122347 0.0128445 0.013437 0.0140123 0.0145702 0.0151041 0.0156069 0.0160788 0.0165196 0.0169295 0.0173083 0.0176562 0.0179731 0.0182583 0.0185113 0.018732 0.0189205 0.0190766 0.0192005 0.0192921 0.0193515 0.0193818 0.0193861 0.0193646 0.0193172 0.0192439 0.0191447 0.0190196 0.0188687 0.0186964 0.0185074 0.0183016 0.0180791 0.0178399 0.017584 0.0173113 0.0170219 0.01672 0.0164097 0.016091 0.015764 0.0154286 0.0150849 0.0147328 0.0143723 0.0140065 0.0136382 0.0132676 0.0128946 0.0125192 0.0121414 0.0117613 0.0113787 0.0109957 0.010614 0.0102337 0.00985483 0.00947733 0.00910121 0.00872648 0.00835314 0.0079826 0.00761628 0.00725416 0.00689626 0.00654256 0.00619308 0.00584781 0.00550676 0.00517159 0.00484398 0.00452393 0.00421144 0.00390652 0.00360916 0.00331936 0.00303712 0.00276479 0.00250474 0.00225697 0.00202146 0.00179824 0.00158728 0.0013886 0.00120219 0.00102942 0.000871673 0.000728942 0.000601228 0.000488532 0.000390853 0.000308191 0.000240546 0.000184168 0.000135307 9.39632e-05 6.01364e-05 3.38267e-05 1.50341e-05 3.75853e-06 0 0 2.04444e-05 8.17778e-05 0.000184 0.000327111 0.000511111 0.000736 0.00100178 0.00130844 0.00166123 0.00206536 0.00252083 0.00302765 0.00358581 0.00419532 0.00485617 0.00556836 0.00631309 0.00707153 0.00784368 0.00862954 0.00942912 0.0102424 0.0110694 0.0119101 0.0127471 0.0135628 0.0143572 0.0151304 0.0158824 0.0166131 0.0173225 0.0180107 0.0186692 0.0192896 0.0198718 0.020416 0.020922 0.0213899 0.0218196 0.0222113 0.022564 0.022877 0.0231502 0.0233836 0.0235773 0.0237313 0.0238455 0.0239199 0.0239585 0.0239651 0.0239397 0.0238824 0.0237931 0.0236719 0.0235186 0.0233335 0.0231219 0.0228897 0.0226367 0.0223631 0.0220687 0.0217536 0.0214178 0.0210613 0.0206892 0.0203067 0.0199138 0.0195105 0.0190968 0.0186727 0.0182382 0.0177933 0.0173417 0.0168871 0.0164294 0.0159688 0.0155051 0.0150384 0.0145687 0.014096 0.0136226 0.0131509 0.0126809 0.0122126 0.0117459 0.011281 0.0108177 0.0103561 0.00989793 0.00944496 0.00899719 0.00855461 0.00811722 0.00768503 0.00725802 0.00683622 0.00642167 0.00601644 0.00562053 0.00523393 0.00485666 0.0044887 0.00413006 0.00378075 0.00344362 0.00312157 0.00281458 0.00252267 0.00224583 0.00198405 0.00173735 0.00150572 0.00129086 0.0010945 0.000916633 0.000757256 0.00061637 0.000493975 0.000390072 0.000304661 0.000233256 0.000171372 0.000119008 7.61653e-05 4.2843e-05 1.90413e-05 4.76033e-06 0 0 2.50892e-05 0.000100357 0.000225803 0.000401427 0.000627229 0.00090321 0.00122937 0.00160571 0.00203791 0.00253166 0.00308696 0.00370381 0.0043822 0.00512215 0.00592365 0.00678669 0.00768863 0.0086068 0.0095412 0.0104918 0.0114587 0.0124418 0.0134412 0.0144567 0.0154676 0.0164529 0.0174126 0.0183467 0.0192552 0.0201381 0.0209954 0.0218271 0.0226231 0.0233731 0.0240772 0.0247355 0.0253478 0.0259142 0.0264347 0.0269092 0.0273369 0.0277165 0.0280482 0.0283319 0.0285676 0.0287554 0.0288952 0.028987 0.0290355 0.0290453 0.0290164 0.0289488 0.0288426 0.0286977 0.0285141 0.0282919 0.0280377 0.0277584 0.0274539 0.0271243 0.0267695 0.0263895 0.0259844 0.0255541 0.0251049 0.024643 0.0241684 0.0236811 0.023181 0.0226683 0.0221428 0.0216047 0.0210583 0.0205081 0.0199542 0.0193966 0.0188352 0.0182701 0.0177012 0.0171286 0.0165552 0.0159837 0.0154141 0.0148466 0.0142811 0.0137175 0.013156 0.0125964 0.012041 0.0114918 0.0109489 0.0104123 0.00988198 0.00935791 0.00884013 0.00832862 0.00782587 0.00733437 0.00685413 0.00638513 0.00592739 0.0054809 0.00504566 0.00462167 0.00421236 0.00382116 0.00344807 0.0030931 0.00275624 0.00243748 0.00213684 0.00185431 0.00159199 0.00135197 0.00113426 0.000938841 0.000765729 0.00061492 0.000486414 0.00038021 0.000291098 0.000213868 0.00014852 9.50525e-05 5.3467e-05 2.37631e-05 5.94078e-06 0 0 3.0305e-05 0.00012122 0.000272745 0.000484879 0.000757624 0.00109098 0.00148494 0.00193952 0.00246065 0.0030543 0.00372047 0.00445914 0.00527033 0.00615404 0.00711026 0.00813899 0.00921341 0.0103067 0.0114188 0.0125498 0.0136997 0.0148685 0.0160561 0.0172625 0.0184632 0.0196337 0.0207738 0.0218836 0.022963 0.0240122 0.025031 0.0260196 0.0269658 0.0278576 0.028695 0.0294781 0.0302069 0.0308812 0.0315012 0.0320669 0.0325768 0.0330299 0.033426 0.0337652 0.0340475 0.0342728 0.0344412 0.0345527 0.0346127 0.0346267 0.0345946 0.0345165 0.0343924 0.0342223 0.0340061 0.0337439 0.0334437 0.0331134 0.0327531 0.0323627 0.0319422 0.0314917 0.0310112 0.0305005 0.0299673 0.0294187 0.0288549 0.0282757 0.0276813 0.0270716 0.0264467 0.0258064 0.0251562 0.0245014 0.0238421 0.0231782 0.0225097 0.0218366 0.0211589 0.0204767 0.0197933 0.0191122 0.0184334 0.0177569 0.0170828 0.0164109 0.0157414 0.0150741 0.0144117 0.0137568 0.0131094 0.0124694 0.0118368 0.0112118 0.0105941 0.00998395 0.00938419 0.00879778 0.00822473 0.00766505 0.00711871 0.00658574 0.00606613 0.00555988 0.005071 0.00460352 0.00415744 0.00373275 0.00332946 0.00294757 0.00258708 0.00224798 0.00193281 0.00164408 0.00138181 0.00114598 0.000936612 0.000753688 0.000597215 0.000467192 0.000357694 0.000262796 0.000182497 0.000116798 6.56989e-05 2.91995e-05 7.29988e-06 0 0 3.60918e-05 0.000144367 0.000324826 0.000577469 0.000902295 0.00129931 0.0017685 0.00230988 0.00292946 0.00363329 0.00442136 0.00529366 0.0062502 0.00729098 0.008416 0.00962525 0.0108874 0.0121712 0.0134766 0.0148036 0.0161521 0.0175223 0.0189141 0.0203275 0.021734 0.023105 0.0244407 0.025741 0.0270058 0.0282353 0.0294294 0.030588 0.0316972 0.0327429 0.0337252 0.034644 0.0354992 0.036291 0.0370194 0.0376842 0.038284 0.0388171 0.0392837 0.0396836 0.0400169 0.0402836 0.0404836 0.0406171 0.0406902 0.0407093 0.0406744 0.0405854 0.0404425 0.0402455 0.0399946 0.0396896 0.0393399 0.0389548 0.0385342 0.0380783 0.037587 0.0370602 0.0364981 0.0359005 0.0352762 0.0346337 0.0339731 0.0332944 0.0325976 0.0318827 0.0311497 0.0303985 0.0296355 0.028867 0.028093 0.0273134 0.0265284 0.0257378 0.0249417 0.02414 0.023337 0.0225365 0.0217387 0.0209435 0.020151 0.0193611 0.0185738 0.0177892 0.0170102 0.01624 0.0154785 0.0147258 0.0139818 0.0132465 0.01252 0.0118022 0.0110966 0.0104067 0.00973235 0.00907367 0.00843064 0.00780324 0.00719149 0.00659538 0.00601955 0.00546865 0.00494267 0.00444163 0.00396551 0.00351431 0.00308805 0.00268671 0.0023133 0.00197083 0.00165929 0.00137869 0.00112902 0.000910279 0.000722476 0.000565607 0.000433043 0.000318154 0.00022094 0.000141402 7.95385e-05 3.53505e-05 8.83761e-06 0 0 4.24497e-05 0.000169799 0.000382048 0.000679196 0.00106124 0.00152819 0.00208004 0.00271678 0.00344434 0.00426862 0.00518962 0.00620735 0.0073218 0.00853297 0.00984087 0.0112455 0.0127107 0.0142003 0.0157144 0.017253 0.018816 0.0204034 0.0220153 0.0236516 0.0252798 0.026867 0.0284134 0.0299189 0.0313836 0.0328074 0.0341904 0.0355325 0.0368175 0.0380292 0.0391677 0.0402329 0.0412249 0.0421436 0.0429891 0.0437612 0.0444583 0.0450782 0.0456212 0.0460871 0.0464759 0.0467877 0.0470224 0.0471801 0.0472679 0.0472931 0.0472557 0.0471556 0.0469929 0.0467675 0.0464795 0.0461288 0.0457263 0.0452824 0.0447974 0.0442712 0.0437037 0.043095 0.0424451 0.041754 0.0410316 0.040288 0.0395232 0.0387372 0.03793 0.0371016 0.0362519 0.035381 0.0344962 0.0336049 0.0327069 0.0318025 0.0308914 0.0299738 0.0290496 0.0281188 0.0271863 0.0262567 0.0253301 0.0244064 0.0234858 0.0225681 0.0216534 0.0207416 0.0198364 0.0189414 0.0180564 0.0171816 0.0163169 0.0154623 0.0146178 0.0137834 0.0129632 0.012161 0.011377 0.010611 0.00986315 0.00913339 0.00842173 0.00772817 0.007058 0.00641654 0.00580378 0.00521972 0.00466437 0.00413771 0.00363976 0.00317051 0.00273349 0.00233222 0.00196671 0.00163695 0.00134294 0.00108469 0.000862197 0.000675456 0.000517146 0.000379944 0.00026385 0.000168864 9.4986e-05 4.2216e-05 1.0554e-05 0 0 4.93787e-05 0.000197515 0.000444408 0.00079006 0.00123447 0.00177763 0.00241956 0.00316024 0.00400528 0.00496029 0.00602527 0.00720022 0.00848514 0.00988002 0.0113849 0.0129997 0.0146832 0.0163941 0.0181324 0.0198981 0.0216912 0.0235117 0.0253597 0.027235 0.0291006 0.0309196 0.0326919 0.0344175 0.0360964 0.0377286 0.0393141 0.0408529 0.0423265 0.0437164 0.0450226 0.0462451 0.0473839 0.048439 0.0494103 0.050298 0.0510997 0.0518132 0.0524385 0.0529756 0.0534244 0.0537851 0.0540575 0.0542418 0.0543459 0.0543782 0.0543386 0.054227 0.0540436 0.0537882 0.0534609 0.0530617 0.0526029 0.0520965 0.0515426 0.0509413 0.0502924 0.0495961 0.0488523 0.048061 0.0472336 0.0463817 0.0455052 0.0446041 0.0436784 0.0427281 0.0417533 0.0407539 0.0397383 0.038715 0.0376839 0.0366452 0.0355987 0.0345445 0.0334826 0.032413 0.0313411 0.0302726 0.0292074 0.0281456 0.0270871 0.0260319 0.02498 0.0239314 0.0228904 0.0218609 0.020843 0.0198367 0.018842 0.0178589 0.0168875 0.0159276 0.0149838 0.0140609 0.0131586 0.0122771 0.0114163 0.0105762 0.00975686 0.00895825 0.00818637 0.00744721 0.00674077 0.00606705 0.00542605 0.00481777 0.00424221 0.00369938 0.00319336 0.00272825 0.00230405 0.00192077 0.00157839 0.00127693 0.00101638 0.000796737 0.000610002 0.000448165 0.000311225 0.000199184 0.000112041 4.97961e-05 1.2449e-05 0 0 5.68788e-05 0.000227515 0.000511909 0.00091006 0.00142197 0.00204764 0.00278706 0.00364024 0.00461229 0.00570831 0.0069283 0.00827227 0.00974021 0.0113321 0.013048 0.0148879 0.0168049 0.0187525 0.0207305 0.022739 0.0247779 0.0268473 0.0289472 0.0310775 0.0331966 0.0352628 0.0372762 0.0392366 0.0411441 0.0429987 0.0448005 0.0465493 0.0482243 0.0498045 0.0512899 0.0526804 0.0539761 0.0551771 0.0562832 0.0572945 0.0582083 0.059022 0.0597356 0.0603492 0.0608626 0.0612758 0.061589 0.0618021 0.0619242 0.0619645 0.061923 0.0617997 0.0615945 0.0613076 0.0609388 0.0604882 0.0599697 0.0593968 0.0587698 0.0580886 0.0573531 0.0565635 0.0557196 0.0548215 0.0538822 0.0529147 0.051919 0.050895 0.0498429 0.0487625 0.0476539 0.0465171 0.0453617 0.0441973 0.043024 0.0418416 0.0406503 0.03945 0.0382407 0.0370225 0.0358016 0.0345844 0.0333709 0.032161 0.0309549 0.0297525 0.0285537 0.0273586 0.026172 0.0249986 0.0238383 0.0226912 0.0215573 0.0204366 0.019329 0.0182347 0.0171586 0.0161062 0.0150772 0.0140718 0.01309 0.0121316 0.0111969 0.0102856 0.00940464 0.00856064 0.00775362 0.00698359 0.00625054 0.00555448 0.0048954 0.00427331 0.00369291 0.00315892 0.00267133 0.00223014 0.00183536 0.00148699 0.00118502 0.000929452 0.000711612 0.000522817 0.000363067 0.000232363 0.000130704 5.80907e-05 1.45227e-05 0 0 6.4798e-05 0.000259192 0.000583182 0.00103677 0.00161995 0.00233273 0.0031751 0.00414707 0.00525309 0.0064976 0.0078806 0.00940211 0.0110621 0.0128606 0.0147976 0.0168731 0.0190346 0.0212297 0.0234583 0.0257205 0.0280162 0.0303455 0.0327083 0.0351047 0.0374882 0.0398124 0.0420772 0.0442826 0.0464286 0.0485153 0.0505426 0.0525106 0.0543957 0.0561745 0.0578469 0.059413 0.0608726 0.062226 0.063473 0.0646136 0.0656448 0.0665635 0.0673697 0.0680634 0.0686447 0.0691134 0.0694696 0.0697134 0.0698548 0.0699041 0.0698612 0.0697261 0.0694989 0.0691796 0.0687681 0.0682644 0.067684 0.0670424 0.0663395 0.0655753 0.0647499 0.0638632 0.0629152 0.061906 0.0608501 0.0597622 0.0586422 0.0574902 0.0563061 0.05509 0.0538418 0.0525617 0.0512603 0.0499486 0.0486265 0.0472942 0.0459515 0.0445985 0.0432352 0.0418615 0.0404847 0.039112 0.0377433 0.0363787 0.0350181 0.0336616 0.0323091 0.0309607 0.0296217 0.0282975 0.0269882 0.0256937 0.024414 0.0231491 0.021899 0.0206638 0.0194492 0.018261 0.0170993 0.0159641 0.0148553 0.013773 0.0127171 0.0116877 0.0106922 0.00973808 0.00882537 0.00795407 0.00712417 0.00633567 0.00558857 0.00488287 0.00422394 0.00361715 0.0030625 0.00256 0.00210964 0.00171143 0.00136536 0.00107143 0.000820313 0.000602679 0.000418527 0.000267857 0.00015067 6.69643e-05 1.67411e-05 0 0 7.29843e-05 0.000291937 0.000656859 0.00116775 0.00182461 0.00262744 0.00357623 0.004671 0.00591539 0.00731309 0.00886407 0.0105684 0.0124259 0.0144368 0.016601 0.0189184 0.0213308 0.0237798 0.0262654 0.0287876 0.0313464 0.0339417 0.0365737 0.0392422 0.0418961 0.0444839 0.0470058 0.0494618 0.0518517 0.0541756 0.0564336 0.0586256 0.0607256 0.0627074 0.0645712 0.0663168 0.0679444 0.0694538 0.0708451 0.0721184 0.07327 0.0742965 0.0751978 0.0759741 0.0766252 0.0771513 0.0775521 0.0778279 0.0779898 0.0780489 0.0780053 0.0778589 0.0776098 0.077258 0.0768035 0.0762462 0.0756033 0.0748919 0.074112 0.0732635 0.0723466 0.0713611 0.0703072 0.0691847 0.06801 0.0667992 0.0655524 0.0642697 0.0629509 0.0615961 0.0602053 0.0587785 0.0573278 0.0558654 0.0543912 0.0529053 0.0514077 0.0498983 0.0483771 0.0468442 0.0453077 0.0437755 0.0422478 0.0407244 0.0392055 0.0376909 0.0361808 0.034675 0.0331797 0.0317009 0.0302385 0.0287927 0.0273633 0.0259504 0.024554 0.0231741 0.0218171 0.0204896 0.0191914 0.0179227 0.0166833 0.0154734 0.0142929 0.0131418 0.0120283 0.0109608 0.00993905 0.00896321 0.00803325 0.00714916 0.00631095 0.00551861 0.00477822 0.00409587 0.00347155 0.00290527 0.00239703 0.00194681 0.00155464 0.0012205 0.000934443 0.000686529 0.000476757 0.000305124 0.000171632 7.6281e-05 1.90703e-05 0 0 8.14379e-05 0.000325752 0.000732941 0.00130301 0.00203595 0.00293176 0.00399046 0.00521203 0.00659922 0.00815478 0.00987871 0.011771 0.0138317 0.0160607 0.0184581 0.0210239 0.0236936 0.026403 0.0291519 0.0319403 0.0347684 0.037636 0.0405432 0.0434899 0.0464201 0.0492776 0.0520622 0.0547742 0.0574133 0.0599798 0.0624734 0.0648943 0.0672139 0.0694033 0.0714627 0.073392 0.0751913 0.0768605 0.0783997 0.0798088 0.0810838 0.0822209 0.08322 0.0840811 0.0848042 0.0853894 0.0858365 0.0861457 0.0863291 0.086399 0.0863553 0.0861981 0.0859273 0.085543 0.0850451 0.0844337 0.0837275 0.0829454 0.0820873 0.0811533 0.0801433 0.0790574 0.0778955 0.0766577 0.0753618 0.0740258 0.0726497 0.0712335 0.0697772 0.0682808 0.0667443 0.0651676 0.0635643 0.0619478 0.060318 0.058675 0.0570188 0.0553493 0.0536666 0.0519706 0.0502705 0.048575 0.0468843 0.0451983 0.043517 0.0418405 0.0401687 0.0385016 0.036846 0.0352086 0.0335893 0.0319882 0.0304053 0.0288405 0.027294 0.0257656 0.0242624 0.0227917 0.0213534 0.0199475 0.018574 0.017233 0.0159243 0.014648 0.0134131 0.0122287 0.0110946 0.010011 0.00897777 0.00799495 0.00706253 0.00618052 0.00535576 0.00459508 0.00389847 0.00326595 0.00269751 0.00219314 0.00175286 0.00137666 0.001054 0.000774369 0.000537756 0.000344164 0.000193592 8.6041e-05 2.15102e-05 0 0 9.01587e-05 0.000360635 0.000811428 0.00144254 0.00225397 0.00324571 0.00441777 0.00577015 0.00730455 0.00902267 0.0109245 0.0130101 0.0152793 0.0177323 0.020369 0.0231895 0.026123 0.0290991 0.0321176 0.0351787 0.0382822 0.0414283 0.0446168 0.0478479 0.0510604 0.0541932 0.0572463 0.0602198 0.0631135 0.0659276 0.068662 0.0713168 0.0738606 0.0762621 0.0785215 0.0806386 0.0826135 0.0844461 0.0861366 0.0876848 0.0890863 0.0903368 0.0914362 0.0923845 0.0931817 0.0938278 0.0943228 0.0946667 0.0948728 0.0949543 0.0949112 0.0947435 0.0944512 0.0940344 0.0934929 0.0928268 0.0920567 0.0912029 0.0902656 0.0892446 0.0881401 0.086952 0.0856803 0.084325 0.0829057 0.0814421 0.0799341 0.0783818 0.0767851 0.0751441 0.0734587 0.071729 0.0699698 0.0681957 0.0664069 0.0646032 0.0627848 0.0609516 0.0591035 0.0572407 0.0553731 0.0535104 0.0516528 0.0498003 0.0479528 0.0461103 0.0442729 0.0424406 0.0406207 0.0388207 0.0370406 0.0352803 0.03354 0.0318195 0.0301189 0.0284382 0.0267852 0.0251676 0.0235854 0.0220387 0.0205274 0.0190516 0.0176112 0.0162063 0.0148466 0.0135419 0.0122922 0.0110974 0.00995774 0.00887303 0.00784333 0.00686862 0.00595656 0.00511477 0.00434327 0.00364204 0.00301109 0.00245041 0.00196002 0.00153991 0.00117899 0.000866197 0.000601525 0.000384976 0.000216549 9.62441e-05 2.4061e-05 0 0 9.91466e-05 0.000396586 0.00089232 0.00158635 0.00247867 0.00356928 0.00485818 0.00634538 0.0080314 0.00991676 0.0120015 0.0142855 0.0167689 0.0194517 0.0223337 0.0254152 0.028619 0.0318681 0.0351627 0.0385026 0.0418879 0.0453186 0.0487947 0.0523161 0.0558169 0.0592309 0.0625581 0.0657986 0.0689523 0.0720193 0.0749995 0.0778929 0.0806657 0.0832838 0.0857474 0.0880564 0.0902108 0.0922106 0.0940558 0.0957464 0.0972775 0.0986442 0.0998464 0.100884 0.101758 0.102467 0.103011 0.103391 0.103621 0.103715 0.103673 0.103495 0.103182 0.102732 0.102147 0.101426 0.100591 0.0996644 0.0986467 0.0975375 0.0963369 0.0950448 0.0936614 0.0921865 0.0906415 0.0890479 0.0874055 0.0857144 0.0839745 0.082186 0.0803487 0.0784627 0.0765442 0.0746092 0.0726578 0.07069 0.0687058 0.0667051 0.064688 0.0626545 0.0606155 0.0585818 0.0565534 0.0545304 0.0525127 0.0505004 0.0484935 0.0464918 0.0445037 0.0425372 0.0405923 0.038669 0.0367673 0.0348873 0.0330288 0.031192 0.0293853 0.027617 0.0258873 0.0241962 0.0225435 0.0209294 0.0193537 0.0178166 0.0163286 0.0149003 0.0135316 0.0122225 0.0109732 0.00978342 0.00865333 0.0075829 0.00658062 0.00565496 0.00480593 0.00403353 0.00333777 0.00271863 0.00217612 0.00171025 0.00130941 0.000962013 0.000668065 0.000427562 0.000240503 0.00010689 2.67226e-05 0 0 0.000108402 0.000433607 0.000975616 0.00173443 0.00271004 0.00390246 0.00531169 0.00693771 0.00877976 0.0108371 0.0131096 0.0155974 0.0183004 0.0212187 0.0243522 0.027701 0.0311815 0.0347102 0.0382871 0.0419122 0.0455855 0.049307 0.0530767 0.0568945 0.0606895 0.0643906 0.0679976 0.0715106 0.0749296 0.0782547 0.0814857 0.0846227 0.0876292 0.0904685 0.0931406 0.0956456 0.0979834 0.100154 0.102157 0.103994 0.105657 0.107143 0.108451 0.10958 0.110532 0.111305 0.111901 0.112319 0.112573 0.112681 0.112641 0.112453 0.112119 0.111637 0.111007 0.11023 0.10933 0.10833 0.107231 0.106032 0.104734 0.103336 0.101839 0.100242 0.0985694 0.0968433 0.0950639 0.0932313 0.0913455 0.0894065 0.0874142 0.0853687 0.0832876 0.0811883 0.0790709 0.0769353 0.0747817 0.0726099 0.07042 0.0682119 0.0659977 0.063789 0.061586 0.0593886 0.0571969 0.0550107 0.0528303 0.0506554 0.048495 0.0463581 0.0442444 0.0421542 0.0400873 0.0380439 0.036023