<?xml version="1.0"?> 
<VTKFile type="StructuredGrid" version="0.1"> 
<StructuredGrid WholeExtent="0 128 0 128 0 0"> 
<Piece Extent="0 128 0 128 0 0"> 
<PointData>
<DataArray type="Float32" Name="u" format="ascii" NumberOfComponents="1"> 
0 0 0 0 0 0 0 0 0 0 0 0 0 0 0 0 0 0 0 0 0 0 0 0 0 0 0 0 0 0 0 0 0 0 0 0 0 0 0 0 0 0 0 0 0 0 0 0 0 0 0 0 0 0 0 0 0 0 0 0 0 0 0 0 0 0 0 0 0 0 0 0 0 0 0 0 0 0 0 0 0 0 0 0 0 0 0 0 0 0 0 0 0 0 0 0 0 0 0 0 0 0 0 0 0 0 0 0 0 0 0 0 0 0 0 0 0 0 0 0 0 0 0 0 0 0 0 0 0 0 3.89742e-07 1.55897e-06 3.50768e-06 6.23588e-06 9.74356e-06 1.40307e-05 1.90974e-05 2.49435e-05 3.16832e-05 3.94307e-05 4.81858e-05 5.79486e-05 6.87191e-05 8.04973e-05 9.32832e-05 0.000107077 0.000121512 0.000136221 0.000151206 0.000166466 0.000182001 0.00019781 0.000213895 0.000230254 0.000246535 0.000262383 0.0002778 0.000292784 0.000307336 0.000321456 0.000335144 0.0003484 0.00036104 0.000372883 0.000383926 0.000394172 0.000403619 0.000412267 0.000420118 0.00042717 0.000433395 0.000438763 0.000443276 0.000446932 0.000449733 0.000451677 0.000452765 0.000452998 0.000452454 0.000451215 0.00044928 0.00044665 0.000443324 0.000439303 0.000434587 0.000429175 0.000423201 0.000416801 0.000409975 0.000402722 0.000395042 0.000386936 0.000378403 0.000369443 0.000360195 0.000350796 0.000341247 0.000331548 0.000321699 0.000311699 0.000301549 0.000291249 0.000280906 0.000270629 0.000260419 0.000250274 0.000240195 0.000230182 0.000220235 0.000210353 0.000200603 0.00019105 0.000181692 0.000172531 0.000163567 0.000154799 0.000146227 0.000137852 0.000129701 0.000121801 0.000114152 0.000106755 9.96095e-05 9.27152e-05 8.60722e-05 7.96806e-05 7.35453e-05 6.76711e-05 6.20579e-05 5.67059e-05 5.1615e-05 4.67852e-05 4.22164e-05 3.79088e-05 3.38586e-05 3.00622e-05 2.65195e-05 2.32305e-05 2.01953e-05 1.74138e-05 1.48861e-05 1.26121e-05 1.05677e-05 8.72891e-06 7.0956e-06 5.6678e-06 4.44553e-06 3.42878e-06 2.61754e-06 2.01183e-06 1.5403e-06 1.13165e-06 7.85869e-07 5.02956e-07 2.82913e-07 1.25739e-07 3.14348e-08 0 0 1.55897e-06 6.23588e-06 1.40307e-05 2.49435e-05 3.89742e-05 5.61229e-05 7.63895e-05 9.97741e-05 0.000126733 0.000157723 0.000192743 0.000231794 0.000274876 0.000321989 0.000373133 0.000428307 0.000486047 0.000544886 0.000604825 0.000665864 0.000728002 0.00079124 0.000855578 0.000921016 0.000986139 0.00104953 0.0011112 0.00117114 0.00122935 0.00128583 0.00134058 0.0013936 0.00144416 0.00149153 0.00153571 0.00157669 0.00161448 0.00164907 0.00168047 0.00170868 0.00173358 0.00175505 0.0017731 0.00178773 0.00179893 0.00180671 0.00181106 0.00181199 0.00180982 0.00180486 0.00179712 0.0017866 0.0017733 0.00175721 0.00173835 0.0017167 0.00169281 0.00166721 0.0016399 0.00161089 0.00158017 0.00154774 0.00151361 0.00147777 0.00144078 0.00140318 0.00136499 0.00132619 0.0012868 0.0012468 0.0012062 0.00116499 0.00112362 0.00108252 0.00104167 0.0010011 0.00096078 0.000920727 0.000880939 0.000841413 0.000802413 0.000764198 0.000726769 0.000690126 0.000654268 0.000619196 0.000584909 0.000551408 0.000518803 0.000487204 0.00045661 0.000427021 0.000398438 0.000370861 0.000344289 0.000318723 0.000294181 0.000270684 0.000248232 0.000226824 0.00020646 0.000187141 0.000168866 0.000151635 0.000135434 0.000120249 0.000106078 9.2922e-05 8.07811e-05 6.96552e-05 5.95443e-05 5.04484e-05 4.2271e-05 3.49156e-05 2.83824e-05 2.26712e-05 1.77821e-05 1.37151e-05 1.04702e-05 8.0473e-06 6.16121e-06 4.52661e-06 3.14348e-06 2.01183e-06 1.13165e-06 5.02956e-07 1.25739e-07 0 0 3.50768e-06 1.40307e-05 3.15691e-05 5.61229e-05 8.7692e-05 0.000126277 0.000171876 0.000224492 0.000285149 0.000354876 0.000433672 0.000521537 0.000618472 0.000724476 0.000839549 0.000963691 0.0010936 0.00122599 0.00136086 0.00149819 0.001638 0.00178029 0.00192505 0.00207229 0.00221881 0.00236145 0.0025002 0.00263506 0.00276603 0.00289311 0.0030163 0.0031356 0.00324936 0.00335594 0.00345534 0.00354755 0.00363257 0.00371041 0.00378106 0.00384453 0.00390055 0.00394887 0.00398948 0.00402239 0.0040476 0.00406509 0.00407489 0.00407698 0.00407209 0.00406093 0.00404352 0.00401985 0.00398992 0.00395373 0.00391128 0.00386257 0.00380881 0.00375121 0.00368977 0.0036245 0.00355538 0.00348242 0.00340562 0.00332499 0.00324175 0.00315717 0.00307123 0.00298393 0.00289529 0.00280529 0.00271394 0.00262124 0.00252816 0.00243567 0.00234377 0.00225246 0.00216175 0.00207164 0.00198211 0.00189318 0.00180543 0.00171945 0.00163523 0.00155278 0.0014721 0.00139319 0.00131605 0.00124067 0.00116731 0.00109621 0.00102737 0.000960797 0.000896486 0.000834437 0.00077465 0.000717126 0.000661908 0.00060904 0.000558521 0.000510353 0.000464535 0.000421066 0.000379948 0.000341179 0.000304728 0.000270559 0.000238675 0.000209074 0.000181757 0.000156724 0.000133975 0.000113509 9.51097e-05 7.85602e-05 6.38604e-05 5.10102e-05 4.00098e-05 3.0859e-05 2.35579e-05 1.81064e-05 1.38627e-05 1.01849e-05 7.07282e-06 4.52661e-06 2.54622e-06 1.13165e-06 2.82913e-07 0 0 6.23588e-06 2.49435e-05 5.61229e-05 9.97741e-05 0.000155897 0.000224492 0.000305558 0.000399096 0.000506932 0.000630891 0.000770972 0.000927177 0.00109951 0.00128796 0.00149253 0.00171323 0.00194419 0.00217954 0.0024193 0.00266345 0.00291201 0.00316496 0.00342231 0.00368406 0.00394456 0.00419813 0.0044448 0.00468455 0.00491738 0.0051433 0.00536231 0.0055744 0.00577665 0.00596612 0.00614282 0.00630675 0.0064579 0.00659628 0.00672188 0.00683472 0.00693431 0.00702021 0.00709241 0.00715092 0.00719572 0.00722683 0.00724425 0.00724796 0.00723926 0.00721944 0.00718848 0.0071464 0.00709319 0.00702885 0.00695339 0.00686679 0.00677122 0.00666882 0.0065596 0.00644355 0.00632067 0.00619097 0.00605444 0.00591109 0.00576311 0.00561274 0.00545996 0.00530477 0.00514718 0.00498719 0.00482478 0.00465998 0.0044945 0.00433007 0.0041667 0.00400438 0.00384312 0.00368291 0.00352375 0.00336565 0.00320965 0.00305679 0.00290708 0.0027605 0.00261707 0.00247678 0.00233964 0.00220563 0.00207521 0.00194881 0.00182644 0.00170808 0.00159375 0.00148344 0.00137716 0.00127489 0.00117672 0.00108274 0.000992927 0.000907294 0.00082584 0.000748562 0.000675463 0.000606541 0.000541738 0.000480995 0.000424311 0.000371688 0.000323124 0.000278621 0.000238177 0.000201793 0.000169084 0.000139663 0.00011353 9.06849e-05 7.11285e-05 5.48604e-05 4.18807e-05 3.21892e-05 2.46449e-05 1.81064e-05 1.25739e-05 8.0473e-06 4.52661e-06 2.01183e-06 5.02956e-07 0 0 9.74356e-06 3.89742e-05 8.7692e-05 0.000155897 0.000243589 0.000350768 0.000477434 0.000623588 0.000792081 0.000985767 0.00120464 0.00144871 0.00171798 0.00201243 0.00233208 0.00267692 0.00303779 0.00340554 0.00378016 0.00416165 0.00455001 0.00494525 0.00534736 0.00575635 0.00616337 0.00655958 0.006945 0.0073196 0.00768341 0.00803641 0.00837861 0.00871 0.00902601 0.00932206 0.00959816 0.00985429 0.0100905 0.0103067 0.0105029 0.0106792 0.0108349 0.0109691 0.0110819 0.0111733 0.0112433 0.0112919 0.0113191 0.0113249 0.0113113 0.0112804 0.011232 0.0111663 0.0110831 0.0109826 0.0108647 0.0107294 0.01058 0.01042 0.0102494 0.010068 0.00987605 0.00967339 0.00946006 0.00923607 0.00900487 0.0087699 0.00853118 0.00828871 0.00804247 0.00779248 0.00753873 0.00728122 0.00702265 0.00676574 0.00651047 0.00625685 0.00600487 0.00575455 0.00550587 0.00525883 0.00501508 0.00477624 0.00454231 0.00431328 0.00408917 0.00386997 0.00365568 0.0034463 0.00324252 0.00304502 0.00285381 0.00266888 0.00249024 0.00231788 0.00215181 0.00199202 0.00183863 0.00169178 0.00155145 0.00141765 0.00129037 0.00116963 0.00105541 0.00094772 0.000846465 0.000751554 0.000662986 0.000580762 0.000504882 0.000435345 0.000372152 0.000315302 0.000264194 0.000218223 0.00017739 0.000141695 0.000111138 8.57194e-05 6.54385e-05 5.02956e-05 3.85076e-05 2.82913e-05 1.96467e-05 1.25739e-05 7.07282e-06 3.14348e-06 7.85869e-07 0 0 1.40307e-05 5.61229e-05 0.000126277 0.000224492 0.000350768 0.000505106 0.000687506 0.000897967 0.0011406 0.0014195 0.00173469 0.00208615 0.00247389 0.0028979 0.00335819 0.00385476 0.00437442 0.00490397 0.00544342 0.00599277 0.00655202 0.00712116 0.0077002 0.00828914 0.00887525 0.0094458 0.0100008 0.0105402 0.0110641 0.0115724 0.0120652 0.0125424 0.0129975 0.0134238 0.0138213 0.0141902 0.0145303 0.0148416 0.0151242 0.0153781 0.0156022 0.0157955 0.0159579 0.0160896 0.0161904 0.0162604 0.0162996 0.0163079 0.0162883 0.0162437 0.0161741 0.0160794 0.0159597 0.0158149 0.0156451 0.0154503 0.0152352 0.0150049 0.0147591 0.014498 0.0142215 0.0139297 0.0136225 0.0132999 0.012967 0.0126287 0.0122849 0.0119357 0.0115812 0.0112212 0.0108558 0.010485 0.0101126 0.00974266 0.00937507 0.00900986 0.00864702 0.00828655 0.00792845 0.00757272 0.00722172 0.00687778 0.00654092 0.00621113 0.00588841 0.00557276 0.00526418 0.00496268 0.00466923 0.00438483 0.00410949 0.00384319 0.00358594 0.00333775 0.0030986 0.0028685 0.00264763 0.00243616 0.00223409 0.00204141 0.00185814 0.00168427 0.00151979 0.00136472 0.00121891 0.00108224 0.0009547 0.000836298 0.00072703 0.000626897 0.000535899 0.000454035 0.000380439 0.000314241 0.000255442 0.000204041 0.000160039 0.000123436 9.42315e-05 7.24257e-05 5.54509e-05 4.07395e-05 2.82913e-05 1.81064e-05 1.01849e-05 4.52661e-06 1.13165e-06 0 0 1.90974e-05 7.63895e-05 0.000171876 0.000305558 0.000477434 0.000687506 0.000935772 0.00122223 0.00155248 0.0019321 0.0023611 0.00283948 0.00336724 0.00394437 0.00457088 0.00524676 0.00595407 0.00667485 0.00740911 0.00815683 0.00891803 0.00969269 0.0104808 0.0112824 0.0120802 0.0128568 0.0136122 0.0143464 0.0150595 0.0157514 0.0164221 0.0170716 0.017691 0.0182712 0.0188124 0.0193144 0.0197773 0.0202011 0.0205858 0.0209313 0.0212363 0.0214994 0.0217205 0.0218997 0.0220369 0.0221322 0.0221855 0.0221969 0.0221702 0.0221095 0.0220147 0.0218859 0.0217229 0.0215259 0.0212947 0.0210296 0.0207369 0.0204233 0.0200888 0.0197334 0.0193571 0.0189598 0.0185417 0.0181027 0.0176495 0.017189 0.0167211 0.0162459 0.0157632 0.0152733 0.0147759 0.0142712 0.0137644 0.0132608 0.0127605 0.0122634 0.0117695 0.0112789 0.0107915 0.0103073 0.00982956 0.00936143 0.00890292 0.00845404 0.00801478 0.00758515 0.00716514 0.00675475 0.00635534 0.00596825 0.00559347 0.00523101 0.00488087 0.00454304 0.00421754 0.00390435 0.00360372 0.00331588 0.00304084 0.00277859 0.00252913 0.00229247 0.00206861 0.00185753 0.00165907 0.00147305 0.00129945 0.00113829 0.000989568 0.000853276 0.000729418 0.000617992 0.000517819 0.000427717 0.000347684 0.000277722 0.000217831 0.00016801 0.00012826 9.85794e-05 7.54749e-05 5.54509e-05 3.85076e-05 2.46449e-05 1.38627e-05 6.16121e-06 1.5403e-06 0 0 2.49435e-05 9.97741e-05 0.000224492 0.000399096 0.000623588 0.000897967 0.00122223 0.00159639 0.00202773 0.00252356 0.00308389 0.00370871 0.00439802 0.00515183 0.00597012 0.00685291 0.00777675 0.00871817 0.0096772 0.0106538 0.011648 0.0126598 0.0136893 0.0147363 0.0157782 0.0167925 0.0177792 0.0187382 0.0196695 0.0205732 0.0214492 0.0222976 0.0231066 0.0238645 0.0245713 0.025227 0.0258316 0.0263851 0.0268875 0.0273389 0.0277373 0.0280808 0.0283697 0.0286037 0.0287829 0.0289073 0.028977 0.0289918 0.0289571 0.0288777 0.0287539 0.0285856 0.0283728 0.0281154 0.0278135 0.0274672 0.0270849 0.0266753 0.0262384 0.0257742 0.0252827 0.0247639 0.0242178 0.0236443 0.0230525 0.022451 0.0218398 0.0212191 0.0205887 0.0199487 0.0192991 0.0186399 0.017978 0.0173203 0.0166668 0.0160175 0.0153725 0.0147316 0.014095 0.0134626 0.0128386 0.0122272 0.0116283 0.011042 0.0104683 0.00990713 0.00935855 0.00882254 0.00830085 0.00779526 0.00730575 0.00683234 0.00637501 0.00593377 0.00550862 0.00509956 0.0047069 0.00433095 0.00397171 0.00362918 0.00330336 0.00299425 0.00270185 0.00242616 0.00216695 0.00192398 0.00169725 0.00148675 0.0012925 0.00111448 0.000952709 0.000807174 0.000676335 0.00055865 0.000454118 0.000362739 0.000284514 0.000219442 0.000167523 0.000128757 9.85794e-05 7.24257e-05 5.02956e-05 3.21892e-05 1.81064e-05 8.0473e-06 2.01183e-06 0 0 3.17235e-05 0.000126894 0.000285511 0.000507575 0.000793087 0.00114204 0.00155445 0.0020303 0.00257855 0.00320814 0.00391907 0.00471135 0.00558497 0.00653994 0.00757625 0.0086939 0.00986327 0.0110547 0.0122683 0.013504 0.0147617 0.0160416 0.0173435 0.0186676 0.0199852 0.0212678 0.0225156 0.0237283 0.0249061 0.026049 0.0271568 0.0282298 0.029253 0.0302116 0.0311056 0.0319351 0.0327001 0.0334005 0.0340363 0.0346075 0.0351119 0.0355469 0.0359127 0.0362093 0.0364366 0.0365946 0.0366833 0.0367028 0.0366595 0.0365599 0.036404 0.0361917 0.0359232 0.0355983 0.0352172 0.0347797 0.0342968 0.0337793 0.0332272 0.0326405 0.0320193 0.0313635 0.0306731 0.0299481 0.0291997 0.0284391 0.0276663 0.0268812 0.0260839 0.0252744 0.0244527 0.0236188 0.0227813 0.0219492 0.0211224 0.0203008 0.0194845 0.0186735 0.0178678 0.0170674 0.0162776 0.0155036 0.0147455 0.0140033 0.0132769 0.0125664 0.0118718 0.011193 0.0105324 0.00989205 0.00927208 0.00867244 0.00809314 0.00753418 0.00699555 0.00647727 0.00597971 0.00550329 0.005048 0.00461384 0.00420081 0.00380891 0.00343814 0.0030885 0.00275969 0.0024514 0.00216364 0.00189641 0.00164969 0.00142351 0.00121784 0.00103271 0.000866158 0.000716262 0.00058302 0.00046643 0.000366494 0.00028321 0.00021658 0.000166603 0.000127555 9.3714e-05 6.50792e-05 4.16507e-05 2.34285e-05 1.04127e-05 2.60317e-06 0 0 3.95916e-05 0.000158366 0.000356324 0.000633465 0.000989789 0.0014253 0.00193999 0.00253386 0.00321715 0.00400009 0.00488268 0.00586492 0.00694682 0.00812836 0.00940955 0.0107904 0.0122345 0.0137053 0.015203 0.0167275 0.0182788 0.0198568 0.0214617 0.0230934 0.0247169 0.0262975 0.027835 0.0293296 0.0307811 0.0321896 0.0335551 0.0348775 0.0361388 0.0373207 0.0384231 0.0394461 0.0403897 0.0412539 0.0420387 0.042744 0.043367 0.0439048 0.0443572 0.0447243 0.0450061 0.0452026 0.0453139 0.0453398 0.0452883 0.0451675 0.0449771 0.0447173 0.0443881 0.0439894 0.0435213 0.0429837 0.04239 0.0417536 0.0410744 0.0403524 0.0395877 0.0387803 0.0379301 0.0370371 0.0361152 0.035178 0.0342257 0.033258 0.0322752 0.0312771 0.0302639 0.0292353 0.0282024 0.0271758 0.0261557 0.0251419 0.0241345 0.0231334 0.0221388 0.0211505 0.0201752 0.0192193 0.0182829 0.017366 0.0164686 0.0155906 0.0147322 0.0138932 0.0130765 0.0122848 0.0115182 0.0107766 0.01006 0.00936851 0.00870203 0.0080606 0.0074447 0.00685484 0.00629102 0.00575323 0.00524148 0.00475576 0.00429607 0.00386243 0.00345443 0.00307169 0.00271421 0.00238199 0.00207503 0.00179333 0.0015369 0.00130572 0.00109746 0.000909773 0.000742664 0.000596132 0.000470176 0.000364795 0.000279991 0.000215762 0.000165193 0.000121366 8.42821e-05 5.39405e-05 3.03416e-05 1.34851e-05 3.37128e-06 0 0 4.85478e-05 0.000194191 0.00043693 0.000776765 0.00121369 0.00174772 0.00237884 0.00310706 0.00394353 0.00489941 0.00597471 0.00716943 0.00848355 0.00991709 0.01147 0.0131424 0.0148903 0.01667 0.0184813 0.0203244 0.0221991 0.0241056 0.0260438 0.0280137 0.0299735 0.0318815 0.0337377 0.035542 0.0372945 0.0389951 0.0406439 0.0422409 0.0437641 0.0451917 0.0465236 0.0477599 0.0489005 0.0499455 0.0508948 0.0517484 0.0525028 0.0531543 0.0537029 0.0541487 0.0544915 0.0547315 0.0548686 0.0549028 0.0548436 0.0547004 0.0544734 0.0541624 0.0537674 0.0532886 0.0527258 0.0520791 0.0513645 0.0505981 0.0497799 0.0489099 0.047988 0.0470143 0.0459888 0.0449115 0.043799 0.0426678 0.041518 0.0403496 0.0391625 0.0379569 0.0367326 0.0354896 0.0342412 0.0330002 0.0317667 0.0305407 0.0293223 0.0281113 0.0269078 0.0257119 0.0245314 0.0233743 0.0222406 0.0211303 0.0200434 0.0189799 0.0179398 0.0169231 0.0159332 0.0149735 0.014044 0.0131448 0.0122757 0.0114368 0.0106281 0.00984956 0.00910187 0.00838561 0.00770077 0.00704735 0.00642536 0.0058348 0.00527566 0.00474795 0.00425117 0.00378484 0.00334895 0.00294351 0.00256852 0.00222397 0.00190986 0.00162621 0.00137023 0.00113918 0.000933053 0.000751846 0.00059556 0.000464196 0.000357755 0.000276235 0.000211492 0.000155382 0.000107904 6.90588e-05 3.88456e-05 1.72647e-05 4.31617e-06 0 0 5.85922e-05 0.000234369 0.00052733 0.000937475 0.0014648 0.00210932 0.00287102 0.0037499 0.00475769 0.00590611 0.00719517 0.00862486 0.0101952 0.0119061 0.0137577 0.0157499 0.0178309 0.0199486 0.0221032 0.0242946 0.0265229 0.0287879 0.0310898 0.0334285 0.0357549 0.0380199 0.0402234 0.0423655 0.0444462 0.0464655 0.0484234 0.0503198 0.0521289 0.0538247 0.0554072 0.0568765 0.0582324 0.0594751 0.0606046 0.0616207 0.0625192 0.0632956 0.0639501 0.0644825 0.0648928 0.0651812 0.0653475 0.0653918 0.0653252 0.0651588 0.0648927 0.0645269 0.0640613 0.0634959 0.0628309 0.062066 0.0612204 0.060313 0.0593439 0.0583129 0.0572202 0.0560656 0.0548493 0.0535712 0.052251 0.0509083 0.0495433 0.0481558 0.0467459 0.0453136 0.0438588 0.0423817 0.0408976 0.0394222 0.0379555 0.0364974 0.035048 0.0336072 0.032175 0.0307515 0.0293462 0.0279685 0.0266184 0.025296 0.0240012 0.0227341 0.0214946 0.0202827 0.0191026 0.0179582 0.0168497 0.015777 0.0147401 0.0137389 0.0127736 0.0118442 0.0109512 0.0100956 0.00927724 0.00849621 0.00775247 0.00704603 0.00637689 0.00574506 0.00514991 0.00459084 0.00406786 0.00358096 0.00313014 0.0027154 0.00233675 0.00199417 0.00168449 0.00140449 0.00115419 0.00093357 0.000742647 0.000581414 0.000449872 0.000348021 0.000266454 0.000195762 0.000135946 8.70054e-05 4.89405e-05 2.17513e-05 5.43783e-06 0 0 6.97247e-05 0.000278899 0.000627522 0.00111559 0.00174312 0.00251009 0.00341651 0.00446238 0.00565963 0.00702018 0.00854405 0.0102312 0.0120817 0.0140955 0.0162726 0.018613 0.0210561 0.0235413 0.0260687 0.0286383 0.03125 0.0339038 0.0365997 0.0393378 0.0420611 0.0447125 0.0472923 0.0498002 0.0522364 0.0546008 0.0568934 0.0591143 0.0612331 0.0632196 0.0650739 0.0667959 0.0683855 0.0698429 0.071168 0.0723608 0.0734161 0.0743287 0.0750985 0.0757257 0.07621 0.0765517 0.0767506 0.0768068 0.0767332 0.0765426 0.0762352 0.0758108 0.0752696 0.0746114 0.0738364 0.0729444 0.0719576 0.0708982 0.0697662 0.0685615 0.0672841 0.0659341 0.0645115 0.0630162 0.0614713 0.0598997 0.0583015 0.0566768 0.0550254 0.0533473 0.0516427 0.0499115 0.0481718 0.046442 0.044722 0.0430118 0.0413115 0.039621 0.0379403 0.0362695 0.0346196 0.033002 0.0314165 0.0298632 0.0283421 0.0268532 0.0253965 0.023972 0.0225845 0.0212389 0.0199351 0.0186732 0.0174532 0.0162751 0.0151388 0.0140444 0.0129927 0.0119848 0.0110204 0.0100998 0.00922279 0.00838946 0.00759978 0.00685376 0.00615065 0.00548971 0.00487094 0.00429434 0.00375991 0.00326765 0.00281755 0.00240962 0.00204022 0.0017057 0.00140606 0.00114131 0.000911436 0.000716448 0.000556343 0.000431121 0.000330077 0.000242506 0.000168407 0.00010778 6.06264e-05 2.69451e-05 6.73627e-06 0 0 8.19453e-05 0.000327781 0.000737508 0.00131113 0.00204863 0.00295003 0.00401532 0.0052445 0.00664935 0.00824163 0.0100213 0.0119885 0.0141431 0.0164851 0.0190146 0.0217315 0.024566 0.0274481 0.0303779 0.0333553 0.0363804 0.0394531 0.0425735 0.0457416 0.048892 0.0519596 0.0549443 0.0578461 0.060665 0.063401 0.0660541 0.0686243 0.0710768 0.0733766 0.0755237 0.0775181 0.0793598 0.0810488 0.0825852 0.0839688 0.0851937 0.0862535 0.0871484 0.0878782 0.0884431 0.088843 0.0890779 0.0891478 0.0890675 0.0888519 0.0885008 0.0880143 0.0873924 0.0866351 0.0857423 0.0847142 0.0835762 0.0823537 0.0810469 0.0796556 0.07818 0.0766199 0.0749754 0.0732465 0.0714598 0.0696419 0.0677927 0.0659124 0.0640009 0.0620581 0.0600841 0.058079 0.0560637 0.0540595 0.0520663 0.0500841 0.0481129 0.0461528 0.0442038 0.0422657 0.0403517 0.0384747 0.0366348 0.034832 0.0330662 0.0313374 0.0296457 0.027991 0.026379 0.0248155 0.0233003 0.0218335 0.0204151 0.0190451 0.0177235 0.0164502 0.0152264 0.0140532 0.0129304 0.0118581 0.0108363 0.00986507 0.00894431 0.00807405 0.00725339 0.00648144 0.0057582 0.00508366 0.00445782 0.00388069 0.00335227 0.00287254 0.00243743 0.0020428 0.00168868 0.00137505 0.00110193 0.000869298 0.000677167 0.000525535 0.000402362 0.000295613 0.000205287 0.000131384 7.39033e-05 3.28459e-05 8.21148e-06 0 0 9.52541e-05 0.000381017 0.000857287 0.00152407 0.00238135 0.00342915 0.00466745 0.00609627 0.00772684 0.00957045 0.0116271 0.0138967 0.0163794 0.0190751 0.0219838 0.0251056 0.0283605 0.0316689 0.0350306 0.0384457 0.0419142 0.045436 0.0490113 0.0526399 0.0562478 0.059761 0.0631794 0.066503 0.0697319 0.072866 0.0759054 0.07885 0.08166 0.0842955 0.0867565 0.0890431 0.0911552 0.0930928 0.094856 0.0964447 0.0978518 0.09907 0.1001 0.10094 0.101592 0.102055 0.102329 0.102415 0.102328 0.102086 0.101689 0.101137 0.10043 0.0995668 0.0985488 0.0973755 0.0960761 0.0946796 0.093186 0.0915953 0.0899076 0.0881229 0.086241 0.0842621 0.0822166 0.0801348 0.0780169 0.0758627 0.0736724 0.0714459 0.0691831 0.0668842 0.0645733 0.0622746 0.0599882 0.0577141 0.0554523 0.0532027 0.0509653 0.0487402 0.0465424 0.0443868 0.0422734 0.0402022 0.0381732 0.0361865 0.034242 0.0323397 0.0304862 0.028688 0.0269452 0.0252578 0.0236258 0.022049 0.0205277 0.0190617 0.0176523 0.0163008 0.015007 0.0137712 0.0125931 0.0114729 0.0104105 0.00940593 0.00845814 0.00756604 0.00672962 0.00594891 0.00522388 0.00455454 0.0039409 0.00338295 0.00287611 0.00241581 0.00200204 0.00163481 0.00131412 0.00103996 0.000812345 0.000631261 0.000483309 0.000355085 0.000246586 0.000157815 8.87711e-05 3.94538e-05 9.86346e-06 0 0 0.000109651 0.000438604 0.00098686 0.00175442 0.00274128 0.00394744 0.0053729 0.00701767 0.00889212 0.0110066 0.0133612 0.0159559 0.0187906 0.0218654 0.0251802 0.0287352 0.0324398 0.0362037 0.0400269 0.0439095 0.0478513 0.0518525 0.0559129 0.0600327 0.0641284 0.0681167 0.0719976 0.0757712 0.0794373 0.082996 0.0864473 0.0897912 0.0929826 0.0959763 0.0987724 0.101371 0.103772 0.105975 0.107981 0.109788 0.11139 0.112778 0.113952 0.114912 0.115657 0.116188 0.116505 0.116608 0.116515 0.116247 0.115801 0.115179 0.114381 0.113407 0.112256 0.110928 0.109457 0.107876 0.106183 0.104381 0.102467 0.100443 0.0983084 0.096063 0.0937416 0.0913786 0.088974 0.0865278 0.08404 0.0815107 0.0789397 0.0763271 0.0737006 0.0710875 0.068488 0.0659019 0.0633294 0.0607705 0.058225 0.055693 0.0531917 0.0507381 0.0483322 0.0459739 0.0436634 0.0414006 0.0391855 0.0370181 0.0349059 0.0328566 0.03087 0.0289462 0.0270852 0.0252869 0.0235515 0.0218788 0.0202704 0.0187276 0.0172504 0.0158389 0.0144931 0.0132129 0.0119983 0.0108494 0.00976488 0.00874349 0.00778522 0.00689009 0.00605808 0.0052892 0.00458345 0.00394083 0.00335627 0.00282471 0.00234615 0.00192058 0.00154802 0.00122845 0.000961876 0.000748302 0.000572918 0.00042092 0.000292305 0.000187075 0.00010523 4.67689e-05 1.16922e-05 0 0 0.000124836 0.000499346 0.00112353 0.00199738 0.00312091 0.00449411 0.00611698 0.00798953 0.010121 0.0125205 0.0151881 0.0181238 0.0213276 0.0247995 0.0285395 0.0325476 0.0367224 0.0409624 0.0452678 0.0496384 0.0540743 0.0585755 0.063142 0.0677738 0.0723779 0.0768614 0.0812244 0.0854668 0.0895886 0.0935898 0.0974704 0.10123 0.104819 0.108186 0.111332 0.114256 0.116958 0.119438 0.121697 0.123734 0.125539 0.127104 0.128429 0.129513 0.130357 0.13096 0.131322 0.131444 0.131346 0.13105 0.130555 0.129862 0.12897 0.12788 0.126591 0.125104 0.123455 0.121681 0.119783 0.117759 0.115611 0.113338 0.110941 0.108418 0.105809 0.103154 0.10045 0.0977001 0.0949024 0.0920575 0.0891652 0.0862257 0.08327 0.080329 0.0774027 0.0744913 0.0715945 0.0687126 0.0658454 0.062993 0.0601746 0.0574097 0.0546981 0.0520398 0.049435 0.0468835 0.0443854 0.0419407 0.0395579 0.0372457 0.0350039 0.0328326 0.0307318 0.0287016 0.0267418 0.0248525 0.0230354 0.021292 0.0196225 0.0180266 0.0165046 0.0150563 0.0136818 0.0123811 0.0111527 0.00999519 0.00890851 0.00789269 0.00694772 0.00607362 0.00527037 0.00453799 0.00387091 0.00326362 0.00271609 0.00222834 0.00180037 0.00143216 0.00112373 0.000875079 0.000669982 0.000492232 0.000341828 0.00021877 0.000123058 5.46924e-05 1.36731e-05 0 0 0.00014051 0.000562041 0.00126459 0.00224816 0.00351276 0.00505837 0.006885 0.00899266 0.0113891 0.0140823 0.017072 0.0203584 0.0239414 0.027821 0.0319973 0.0364702 0.041127 0.045855 0.0506541 0.0555244 0.0604658 0.0654784 0.0705621 0.075717 0.0808404 0.0858298 0.090685 0.0954062 0.0999933 0.104446 0.108765 0.11295 0.116945 0.120693 0.124196 0.127452 0.130461 0.133225 0.135742 0.138014 0.140028 0.141775 0.143254 0.144466 0.145411 0.146088 0.146497 0.146639 0.146537 0.146214 0.14567 0.144905 0.143919 0.142711 0.141283 0.139634 0.137804 0.135835 0.133727 0.131479 0.129092 0.126566 0.123901 0.121096 0.118195 0.11524 0.112233 0.109172 0.106058 0.102891 0.0996712 0.0963978 0.0931059 0.0898299 0.0865698 0.0833257 0.0800976 0.0768854 0.0736892 0.0705089 0.0673662 0.0642825 0.061258 0.0582926 0.0553863 0.0525391 0.049751 0.0470221 0.0443618 0.0417799 0.0392764 0.0368512 0.0345043 0.0322358 0.0300456 0.0279338 0.0259021 0.0239525 0.022085 0.0202995 0.018596 0.0169745 0.0154351 0.0139778 0.0126008 0.0113025 0.010083 0.0089422 0.00788011 0.00689676 0.00599212 0.00516621 0.00441305 0.00372663 0.00310698 0.00255407 0.00206793 0.00164853 0.0012959 0.00101002 0.000773293 0.000568134 0.000394537 0.000252504 0.000142033 6.31259e-05 1.57815e-05 0 0 0.000156673 0.000626691 0.00141005 0.00250676 0.00391682 0.00564022 0.00767696 0.0100271 0.0126967 0.0156919 0.0190129 0.0226596 0.0266319 0.0309299 0.0355536 0.040503 0.0456537 0.0508813 0.0561858 0.0615673 0.0670257 0.072561 0.0781732 0.0838623 0.0895159 0.0950217 0.10038 0.105589 0.110652 0.115566 0.120332 0.12495 0.129359 0.133497 0.137363 0.140959 0.144283 0.147336 0.150118 0.152628 0.154856 0.156789 0.158427 0.15977 0.160819 0.161572 0.162031 0.162195 0.162089 0.16174 0.161146 0.160309 0.159227 0.157901 0.156332 0.154518 0.152505 0.150338 0.148016 0.145541 0.142911 0.140127 0.137189 0.134096 0.130897 0.127639 0.124321 0.120944 0.117508 0.114012 0.110457 0.106843 0.103208 0.0995902 0.0959893 0.0924054 0.0888386 0.0852889 0.0817563 0.0782408 0.0747663 0.0713567 0.068012 0.0647322 0.0615173 0.0583673 0.0552823 0.0522621 0.0493176 0.0464594 0.0436874 0.0410018 0.0384026 0.0358896 0.0334629 0.0311226 0.0288706 0.0267091 0.024638 0.0226574 0.0207672 0.0189675 0.0172582 0.0156393 0.0141091 0.0126655 0.0113087 0.0100386 0.00885525 0.00775861 0.0067487 0.00582552 0.00498266 0.00421376 0.00351879 0.00289777 0.00235069 0.00187755 0.00147836 0.00115311 0.000882851 0.000648625 0.000450434 0.000288278 0.000162156 7.20695e-05 1.80174e-05 0 0 0.000173324 0.000693295 0.00155991 0.00277318 0.00433309 0.00623966 0.00849287 0.0110927 0.0140435 0.0173496 0.0210109 0.0250274 0.0293992 0.0341262 0.0392085 0.044646 0.0503025 0.0560415 0.0618631 0.0677672 0.073754 0.0798233 0.0859752 0.0922097 0.0984045 0.104437 0.110308 0.116017 0.121563 0.126948 0.13217 0.137231 0.142062 0.146597 0.150835 0.154777 0.158422 0.161771 0.164823 0.167578 0.170024 0.172147 0.173948 0.175425 0.176581 0.177413 0.177923 0.17811 0.178002 0.177626 0.176983 0.176073 0.174895 0.173449 0.171736 0.169756 0.167557 0.165189 0.162651 0.159943 0.157067 0.15402 0.150805 0.14742 0.143917 0.140349 0.136715 0.133016 0.129251 0.12542 0.121524 0.117563 0.113577 0.10961 0.105661 0.10173 0.0978176 0.0939231 0.0900468 0.0861887 0.082375 0.0786321 0.07496 0.0713586 0.0678281 0.0643682 0.0609792 0.0576609 0.0544252 0.051284 0.0482371 0.0452846 0.0424266 0.039663 0.0369937 0.0344189 0.0319408 0.0295617 0.0272816 0.0251004 0.0230183 0.0210351 0.019151 0.0173658 0.0156775 0.0140841 0.0125856 0.0111819 0.00987314 0.00865919 0.00754011 0.00651589 0.00557977 0.00472499 0.00395154 0.00325943 0.00264866 0.00211923 0.00167113 0.00130437 0.000998656 0.000733707 0.000509519 0.000326092 0.000183427 8.1523e-05 2.03807e-05 0 0 0.000190463 0.000761854 0.00171417 0.00304741 0.00476159 0.00685668 0.00933271 0.0121897 0.0154297 0.0190551 0.0230658 0.0274619 0.0322432 0.0374099 0.0429619 0.0488992 0.0550732 0.0613354 0.0676857 0.0741242 0.0806507 0.0872654 0.0939683 0.100759 0.107506 0.114076 0.12047 0.126688 0.132728 0.138593 0.144281 0.149792 0.155054 0.159994 0.164611 0.168906 0.172879 0.176529 0.179857 0.182863 0.185531 0.187849 0.189816 0.191432 0.192697 0.19361 0.194173 0.194385 0.194275 0.193874 0.193182 0.192198 0.190923 0.189356 0.187498 0.185349 0.182961 0.180388 0.17763 0.174687 0.17156 0.168247 0.164749 0.161066 0.157254 0.153371 0.149415 0.145387 0.141287 0.137115 0.132871 0.128555 0.124213 0.119889 0.115585 0.1113 0.107035 0.102788 0.0985606 0.0943525 0.0901923 0.0861088 0.082102 0.0781719 0.0743185 0.0705418 0.0668418 0.0632184 0.0596848 0.0562537 0.0529253 0.0496995 0.0465764 0.0435559 0.0406381 0.0378228 0.0351128 0.0325104 0.0300156 0.0276286 0.0253492 0.0231775 0.0211135 0.0191572 0.0173062 0.0155584 0.0139137 0.0123722 0.0109338 0.00959849 0.00836635 0.00723734 0.00620436 0.00526033 0.00440523 0.00363906 0.00296184 0.00237355 0.0018742 0.00146378 0.00112071 0.000823378 0.00057179 0.000365946 0.000205845 9.14865e-05 2.28716e-05 0 0 0.000208092 0.000832367 0.00187282 0.00332947 0.00520229 0.0074913 0.0101965 0.0133179 0.0168553 0.0208086 0.0251778 0.029963 0.035164 0.040781 0.0468138 0.0532626 0.0599661 0.0667632 0.0736538 0.0806381 0.0877159 0.0948873 0.102152 0.109511 0.116821 0.123939 0.130866 0.137602 0.144147 0.150501 0.156663 0.162634 0.168335 0.173687 0.178691 0.183347 0.187653 0.191612 0.195221 0.198482 0.201379 0.203895 0.206032 0.20779 0.209167 0.210164 0.210782 0.211019 0.210909 0.210483 0.209741 0.208684 0.20731 0.205621 0.203616 0.201295 0.198716 0.195936 0.192955 0.189773 0.18639 0.182806 0.179021 0.175035 0.170909 0.166704 0.16242 0.158058 0.153617 0.149097 0.144499 0.139821 0.135115 0.130428 0.125762 0.121115 0.116489 0.111884 0.107298 0.102732 0.0982183 0.0937869 0.0894381 0.0851721 0.0809887 0.076888 0.07287 0.0689347 0.0650962 0.0613686 0.0577521 0.0542466 0.050852 0.0475685 0.0443959 0.0413343 0.0383864 0.0355551 0.0328402 0.0302419 0.02776 0.0253947 0.0231458 0.0210134 0.0189951 0.0170883 0.015293 0.0136093 0.0120371 0.0105765 0.00922741 0.00798986 0.00685645 0.00581977 0.00487985 0.00403666 0.00329022 0.00264053 0.00208757 0.00163136 0.00124901 0.00091764 0.00063725 0.00040784 0.00022941 0.00010196 2.549e-05 0 0 0.000226208 0.000904834 0.00203588 0.00361933 0.00565521 0.0081435 0.0110842 0.0144773 0.0183202 0.02261 0.0273469 0.0325307 0.0381616 0.0442394 0.0507643 0.0577361 0.064981 0.0723247 0.0797674 0.087309 0.0949495 0.102689 