<?xml version="1.0"?> 
<VTKFile type="StructuredGrid" version="0.1"> 
<StructuredGrid WholeExtent="0 128 0 128 0 0"> 
<Piece Extent="0 128 0 128 0 0"> 
<PointData>
<DataArray type="Float32" Name="u" format="ascii" NumberOfComponents="1"> 
0 0 0 0 0 0 0 0 0 0 0 0 0 0 0 0 0 0 0 0 0 0 0 0 0 0 0 0 0 0 0 0 0 0 0 0 0 0 0 0 0 0 0 0 0 0 0 0 0 0 0 0 0 0 0 0 0 0 0 0 0 0 0 0 0 0 0 0 0 0 0 0 0 0 0 0 0 0 0 0 0 0 0 0 0 0 0 0 0 0 0 0 0 0 0 0 0 0 0 0 0 0 0 0 0 0 0 0 0 0 0 0 0 0 0 0 0 0 0 0 0 0 0 0 0 0 0 0 0 0 6.94258e-07 2.77703e-06 6.24832e-06 1.11081e-05 1.73565e-05 2.49933e-05 3.40187e-05 4.44325e-05 5.64412e-05 7.02507e-05 8.58613e-05 0.000103273 0.000122485 0.000143499 0.000166313 0.000190929 0.000216679 0.000242898 0.000269587 0.000296744 0.000324371 0.000352466 0.000381031 0.000410064 0.000438916 0.000466936 0.000494124 0.00052048 0.000546004 0.000570696 0.000594556 0.000617584 0.000639444 0.000659799 0.000678651 0.000695998 0.000711842 0.000726181 0.000739016 0.000750347 0.000760132 0.000768328 0.000774936 0.000779956 0.000783388 0.000785231 0.000785486 0.000784153 0.000781399 0.000777393 0.000772133 0.000765621 0.000757855 0.000748837 0.000738566 0.000727042 0.000714535 0.000701314 0.000687379 0.000672731 0.000657369 0.000641293 0.000624504 0.000607001 0.000589056 0.000570942 0.000552658 0.000534205 0.000515582 0.00049679 0.000477828 0.000458696 0.000439602 0.000420751 0.000402144 0.00038378 0.00036566 0.000347784 0.000330152 0.000312763 0.000295732 0.000279173 0.000263085 0.000247469 0.000232325 0.000217653 0.000203452 0.000189723 0.000176496 0.000163802 0.000151641 0.000140012 0.000128916 0.000118353 0.000108323 9.88254e-05 8.9838e-05 8.13382e-05 7.33261e-05 6.58016e-05 5.87647e-05 5.22155e-05 4.61539e-05 4.05799e-05 3.54469e-05 3.07082e-05 2.63638e-05 2.24137e-05 1.88579e-05 1.56963e-05 1.29291e-05 1.05562e-05 8.50198e-06 6.69074e-06 5.12252e-06 3.79731e-06 2.71511e-06 1.87593e-06 1.27976e-06 9.26601e-07 7.09429e-07 5.21213e-07 3.61954e-07 2.3165e-07 1.30303e-07 5.79126e-08 1.44781e-08 0 0 2.77703e-06 1.11081e-05 2.49933e-05 4.44325e-05 6.94258e-05 9.99732e-05 0.000136075 0.00017773 0.000225765 0.000281003 0.000343445 0.000413091 0.000489941 0.000573995 0.000665253 0.000763715 0.000866716 0.000971594 0.00107835 0.00118698 0.00129748 0.00140987 0.00152412 0.00164026 0.00175567 0.00186775 0.0019765 0.00208192 0.00218402 0.00228279 0.00237822 0.00247034 0.00255778 0.0026392 0.0027146 0.00278399 0.00284737 0.00290472 0.00295606 0.00300139 0.00304053 0.00307331 0.00309974 0.00311982 0.00313355 0.00314092 0.00314194 0.00313661 0.0031256 0.00310957 0.00308853 0.00306248 0.00303142 0.00299535 0.00295426 0.00290817 0.00285814 0.00280525 0.00274952 0.00269092 0.00262947 0.00256517 0.00249801 0.002428 0.00235622 0.00228377 0.00221063 0.00213682 0.00206233 0.00198716 0.00191131 0.00183478 0.00175841 0.001683 0.00160857 0.00153512 0.00146264 0.00139114 0.00132061 0.00125105 0.00118293 0.00111669 0.00105234 0.000989878 0.000929301 0.000870611 0.000813808 0.000758892 0.000705984 0.000655208 0.000606563 0.000560049 0.000515665 0.000473413 0.000433292 0.000395301 0.000359352 0.000325353 0.000293304 0.000263206 0.000235059 0.000208862 0.000184616 0.00016232 0.000141788 0.000122833 0.000105455 8.96547e-05 7.54314e-05 6.27854e-05 5.17165e-05 4.22249e-05 3.40079e-05 2.6763e-05 2.04901e-05 1.51892e-05 1.08604e-05 7.50371e-06 5.11903e-06 3.7064e-06 2.83772e-06 2.08485e-06 1.44781e-06 9.26601e-07 5.21213e-07 2.3165e-07 5.79126e-08 0 0 6.24832e-06 2.49933e-05 5.62349e-05 9.99732e-05 0.000156208 0.00022494 0.000306168 0.000399893 0.00050797 0.000632257 0.000772752 0.000929455 0.00110237 0.00129149 0.00149682 0.00171836 0.00195011 0.00218609 0.00242628 0.0026707 0.00291934 0.0031722 0.00342928 0.00369058 0.00395025 0.00420243 0.00444712 0.00468432 0.00491404 0.00513627 0.00535101 0.00555826 0.00575499 0.0059382 0.00610786 0.00626399 0.00640658 0.00653563 0.00665114 0.00675312 0.00684118 0.00691495 0.00697443 0.0070196 0.00705049 0.00706708 0.00706938 0.00705738 0.00703259 0.00699653 0.0069492 0.00689059 0.0068207 0.00673953 0.00664709 0.00654338 0.00643081 0.00631182 0.00618641 0.00605458 0.00591632 0.00577164 0.00562053 0.00546301 0.0053015 0.00513848 0.00497392 0.00480784 0.00464024 0.00447111 0.00430045 0.00412826 0.00395641 0.00378676 0.00361929 0.00345402 0.00329094 0.00313006 0.00297137 0.00281487 0.00266159 0.00251256 0.00236777 0.00222722 0.00209093 0.00195887 0.00183107 0.00170751 0.00158847 0.00147422 0.00136477 0.00126011 0.00116025 0.00106518 0.000974906 0.000889428 0.000808542 0.000732044 0.000659935 0.000592214 0.000528883 0.000469939 0.000415385 0.000365219 0.000319022 0.000276374 0.000237274 0.000201723 0.000169721 0.000141267 0.000116362 9.50061e-05 7.65178e-05 6.02167e-05 4.61027e-05 3.41758e-05 2.4436e-05 1.68834e-05 1.15178e-05 8.33941e-06 6.38486e-06 4.69092e-06 3.25758e-06 2.08485e-06 1.17273e-06 5.21213e-07 1.30303e-07 0 0 1.11081e-05 4.44325e-05 9.99732e-05 0.00017773 0.000277703 0.000399893 0.000544299 0.000710921 0.000903058 0.00112401 0.00137378 0.00165237 0.00195977 0.00229598 0.00266101 0.00305486 0.00346687 0.00388638 0.00431339 0.00474791 0.00518993 0.00563946 0.00609649 0.00656103 0.00702266 0.00747098 0.00790599 0.00832769 0.00873607 0.00913114 0.0095129 0.00988134 0.0102311 0.0105568 0.0108584 0.011136 0.0113895 0.0116189 0.0118243 0.0120055 0.0121621 0.0122932 0.012399 0.0124793 0.0125342 0.0125637 0.0125678 0.0125464 0.0125024 0.0124383 0.0123541 0.0122499 0.0121257 0.0119814 0.0118171 0.0116327 0.0114326 0.011221 0.0109981 0.0107637 0.0105179 0.0102607 0.00999206 0.00971201 0.0094249 0.00913507 0.00884253 0.00854728 0.00824931 0.00794863 0.00764524 0.00733914 0.00703362 0.00673201 0.0064343 0.00614048 0.00585057 0.00556455 0.00528243 0.00500421 0.00473171 0.00446677 0.00420936 0.00395951 0.0037172 0.00348244 0.00325523 0.00303557 0.00282394 0.00262083 0.00242625 0.00224019 0.00206266 0.00189365 0.00173317 0.00158121 0.00143741 0.00130141 0.00117322 0.00105283 0.000940236 0.000835448 0.000738462 0.000649279 0.00056715 0.000491331 0.00042182 0.000358619 0.000301726 0.000251142 0.000206866 0.0001689 0.000136032 0.000107052 8.19603e-05 6.07569e-05 4.34418e-05 3.00149e-05 2.04761e-05 1.48256e-05 1.13509e-05 8.33941e-06 5.79126e-06 3.7064e-06 2.08485e-06 9.26601e-07 2.3165e-07 0 0 1.73565e-05 6.94258e-05 0.000156208 0.000277703 0.000433911 0.000624832 0.000850466 0.00111081 0.00141103 0.00175627 0.00214653 0.00258182 0.00306213 0.00358747 0.00415783 0.00477322 0.00541698 0.00607246 0.00673967 0.00741861 0.00810927 0.00881166 0.00952577 0.0102516 0.0109729 0.0116734 0.0123531 0.013012 0.0136501 0.0142674 0.0148639 0.0154396 0.0159861 0.016495 0.0169663 0.0174 0.017796 0.0181545 0.0184754 0.0187587 0.0190033 0.0192082 0.0193734 0.0194989 0.0195847 0.0196308 0.0196372 0.0196038 0.019535 0.0194348 0.0193033 0.0191405 0.0189464 0.0187209 0.0184641 0.018176 0.0178634 0.0175328 0.0171845 0.0168183 0.0164342 0.0160323 0.0156126 0.015175 0.0147264 0.0142735 0.0138165 0.0133551 0.0128895 0.0124197 0.0119457 0.0114674 0.01099 0.0105188 0.0100536 0.0095945 0.00914151 0.00869461 0.0082538 0.00781908 0.0073933 0.00697932 0.00657713 0.00618673 0.00580813 0.00544132 0.0050863 0.00474307 0.0044124 0.00409505 0.00379102 0.0035003 0.00322291 0.00295883 0.00270807 0.00247063 0.00224595 0.00203346 0.00183315 0.00164504 0.00146912 0.00130539 0.00115385 0.0010145 0.000886172 0.000767705 0.000659094 0.000560342 0.000471446 0.000392409 0.000323228 0.000263906 0.000212549 0.000167269 0.000128063 9.49327e-05 6.78778e-05 4.68982e-05 3.19939e-05 2.3165e-05 1.77357e-05 1.30303e-05 9.04884e-06 5.79126e-06 3.25758e-06 1.44781e-06 3.61954e-07 0 0 2.49933e-05 9.99732e-05 0.00022494 0.000399893 0.000624832 0.000899759 0.00122467 0.00159957 0.00203188 0.00252903 0.00309101 0.00371782 0.00440947 0.00516596 0.00598728 0.00687343 0.00780045 0.00874435 0.00970513 0.0106828 0.0116774 0.0126888 0.0137171 0.0147623 0.015801 0.0168097 0.0177885 0.0187373 0.0196562 0.0205451 0.021404 0.022233 0.02302 0.0237528 0.0244314 0.0250559 0.0256263 0.0261425 0.0266046 0.0270125 0.0273647 0.0276598 0.0278977 0.0280784 0.028202 0.0282683 0.0282775 0.0282295 0.0281304 0.0279861 0.0277968 0.0275623 0.0272828 0.0269581 0.0265884 0.0261735 0.0257232 0.0252473 0.0247456 0.0242183 0.0236653 0.0230865 0.0224821 0.021852 0.021206 0.0205539 0.0198957 0.0192314 0.018561 0.0178844 0.0172018 0.0165131 0.0158257 0.015147 0.0144772 0.0138161 0.0131638 0.0125202 0.0118855 0.0112595 0.0106464 0.0100502 0.00947107 0.0089089 0.00836371 0.0078355 0.00732427 0.00683003 0.00635386 0.00589687 0.00545907 0.00504044 0.00464099 0.00426072 0.00389963 0.00355771 0.00323417 0.00292818 0.00263974 0.00236886 0.00211553 0.00187976 0.00166154 0.00146088 0.00127609 0.00110549 0.000949096 0.000806892 0.000678883 0.000565068 0.000465449 0.000380024 0.000306071 0.000240867 0.000184411 0.000136703 9.7744e-05 6.75334e-05 4.60713e-05 3.33576e-05 2.55394e-05 1.87637e-05 1.30303e-05 8.33941e-06 4.69092e-06 2.08485e-06 5.21213e-07 0 0 3.40187e-05 0.000136075 0.000306168 0.000544299 0.000850466 0.00122467 0.00166691 0.00217719 0.00276562 0.00344229 0.0042072 0.00506037 0.00600178 0.00703144 0.00814935 0.0093555 0.0106173 0.011902 0.0132098 0.0145405 0.0158942 0.0172709 0.0186705 0.0200932 0.0215069 0.0228799 0.0242121 0.0255035 0.0267542 0.0279641 0.0291333 0.0302616 0.0313327 0.0323302 0.0332539 0.0341039 0.0348802 0.0355829 0.0362118 0.036767 0.0372464 0.0376481 0.0379719 0.0382178 0.038386 0.0384763 0.0384888 0.0384235 0.0382886 0.0380922 0.0378345 0.0375154 0.0371349 0.036693 0.0361897 0.0356251 0.0350122 0.0343644 0.0336816 0.0329638 0.0322111 0.0314234 0.0306007 0.029743 0.0288637 0.0279762 0.0270802 0.026176 0.0252635 0.0243427 0.0234135 0.0224761 0.0215405 0.0206168 0.019705 0.0188052 0.0179174 0.0170414 0.0161774 0.0153254 0.0144909 0.0136795 0.0128912 0.012126 0.0113839 0.010665 0.00996915 0.00929642 0.00864831 0.0080263 0.0074304 0.0068606 0.0063169 0.00579931 0.00530782 0.00484244 0.00440206 0.00398557 0.00359298 0.00322428 0.00287947 0.00255856 0.00226154 0.00198842 0.0017369 0.0015047 0.00129182 0.00109827 0.000924035 0.000769121 0.000633528 0.000517255 0.000416597 0.000327846 0.000251003 0.000186068 0.00013304 9.19205e-05 6.27081e-05 4.54034e-05 3.4762e-05 2.55394e-05 1.77357e-05 1.13509e-05 6.38486e-06 2.83772e-06 7.09429e-07 0 0 4.44325e-05 0.00017773 0.000399893 0.000710921 0.00111081 0.00159957 0.00217719 0.00284368 0.00361223 0.00449605 0.00549512 0.00660946 0.00783906 0.00918392 0.010644 0.0122194 0.0138675 0.0155455 0.0172536 0.0189916 0.0207597 0.0225578 0.024386 0.0262441 0.0280907 0.0298839 0.031624 0.0333107 0.0349443 0.0365246 0.0380516 0.0395254 0.0409244 0.0422272 0.0434337 0.0445439 0.0455579 0.0464756 0.047297 0.0480222 0.0486484 0.049173 0.0495959 0.0499172 0.0501368 0.0502548 0.0502711 0.0501858 0.0500096 0.0497531 0.0494165 0.0489997 0.0485027 0.0479256 0.0472682 0.0465307 0.0457302 0.0448841 0.0439923 0.0430548 0.0420716 0.0410428 0.0399682 0.038848 0.0376996 0.0365403 0.0353701 0.0341891 0.0329972 0.0317945 0.030581 0.0293565 0.0281345 0.026928 0.0257372 0.0245619 0.0234023 0.0222582 0.0211297 0.0200168 0.0189269 0.0178671 0.0168375 0.015838 0.0148688 0.0139298 0.0130209 0.0121423 0.0112958 0.0104833 0.00970501 0.00896078 0.00825065 0.00757461 0.00693267 0.00632482 0.00574963 0.00520565 0.00469287 0.0042113 0.00376094 0.00334179 0.00295385 0.00259711 0.0022686 0.00196532 0.00168728 0.00143447 0.0012069 0.00100457 0.000827465 0.000675599 0.000544127 0.000428208 0.000327841 0.000243028 0.000173767 0.000120059 8.19045e-05 5.93025e-05 4.54034e-05 3.33576e-05 2.3165e-05 1.48256e-05 8.33941e-06 3.7064e-06 9.26601e-07 0 0 5.65242e-05 0.000226097 0.000508717 0.000904387 0.0014131 0.00203487 0.00276968 0.00361755 0.00459463 0.0057171 0.00698496 0.00839822 0.00995686 0.0116609 0.0135103 0.0155051 0.0175915 0.0197155 0.0218772 0.0240765 0.0263135 0.0285882 0.0309006 0.0332506 0.0355858 0.0378536 0.0400542 0.0421874 0.0442533 0.0462519 0.0481832 0.0500471 0.0518165 0.0534643 0.0549905 0.056395 0.0576778 0.058839 0.0598786 0.0607965 0.0615893 0.0622536 0.0627894 0.0631967 0.0634755 0.0636258 0.0636477 0.063541 0.0633193 0.0629962 0.0625717 0.0620457 0.0614183 0.0606895 0.0598593 0.0589276 0.0579162 0.056847 0.05572 0.0545351 0.0532924 0.0519918 0.0506333 0.049217 0.0477649 0.0462989 0.044819 0.0433253 0.0418178 0.0402965 0.0387612 0.0372122 0.035666 0.0341395 0.0326326 0.0311453 0.0296777 0.0282296 0.0268012 0.0253924 0.0240125 0.0226707 0.021367 0.0201015 0.018874 0.0176847 0.0165336 0.0154205 0.014348 0.0133187 0.0123325 0.0113893 0.0104893 0.0096324 0.00881859 0.00804789 0.00731847 0.00662854 0.00597808 0.00536709 0.00479558 0.00426355 0.00377099 0.00331791 0.00290053 0.00251507 0.00216154 0.00183992 0.00155023 0.00129246 0.00106661 0.000872689 0.000704591 0.000556226 0.000427593 0.000318693 0.000229525 0.000160089 0.000110387 8.04162e-05 6.15687e-05 4.52341e-05 3.14126e-05 2.01041e-05 1.13085e-05 5.02601e-06 1.2565e-06 0 0 7.05828e-05 0.000282331 0.000635245 0.00112932 0.00176457 0.00254098 0.00345856 0.0045173 0.00573569 0.00713223 0.00870692 0.0104598 0.0123907 0.0144998 0.0167871 0.0192525 0.0218298 0.0244527 0.0271212 0.0298353 0.0325951 0.0354004 0.0382514 0.0411479 0.0440258 0.0468208 0.0495329 0.0521621 0.0547083 0.0571716 0.0595521 0.0618496 0.0640308 0.0660623 0.0679442 0.0696763 0.0712588 0.0726916 0.0739747 0.0751082 0.0760877 0.0769089 0.077572 0.0780768 0.0784233 0.0786116 0.0786417 0.0785136 0.0782438 0.0778489 0.0773289 0.0766839 0.0759137 0.0750185 0.0739982 0.0728529 0.0716092 0.0702939 0.0689071 0.0674488 0.0659189 0.0643174 0.0626444 0.0608999 0.0591108 0.0573044 0.0554806 0.0536395 0.0517809 0.0499049 0.0480116 0.0461009 0.0441935 0.0423099 0.0404503 0.0386145 0.0368027 0.0350148 0.0332508 0.0315107 0.029806 0.0281481 0.026537 0.0249728 0.0234553 0.0219847 0.020561 0.019184 0.0178571 0.0165832 0.0153624 0.0141946 0.01308 0.0120185 0.01101 0.0100547 0.00915019 0.00829439 0.00748726 0.00672881 0.00601903 0.00535793 0.00474551 0.00418176 0.00366203 0.00318166 0.00274067 0.00233903 0.00197677 0.00165387 0.00137033 0.00112616 0.000913921 0.000726177 0.000562927 0.000424173 0.000309914 0.000220149 0.00015488 0.000114106 8.73626e-05 6.41848e-05 4.45728e-05 2.85266e-05 1.60462e-05 7.13164e-06 1.78291e-06 0 0 8.66084e-05 0.000346433 0.000779475 0.00138573 0.00216521 0.0031179 0.00424381 0.00554294 0.00703543 0.00874145 0.010661 0.0127941 0.0151407 0.0177008 0.0204744 0.0234616 0.0265824 0.0297571 0.0329857 0.0362681 0.0396043 0.0429944 0.0464383 0.0499361 0.0534108 0.0567855 0.0600601 0.0632347 0.0663093 0.0692838 0.0721583 0.0749328 0.0775671 0.080021 0.0822946 0.0843879 0.0863008 0.0880333 0.0895855 0.0909574 0.0921436 0.093139 0.0939436 0.0945573 0.0949801 0.0952122 0.0952533 0.0951036 0.094783 0.0943112 0.0936882 0.0929142 0.091989 0.0909126 0.0896852 0.0883066 0.0868091 0.0852248 0.0835537 0.0817958 0.0799512 0.0780198 0.0760016 0.0738967 0.0717376 0.069557 0.067355 0.0651315 0.0628865 0.06062 0.0583321 0.0560227 0.0537167 0.0514392 0.0491902 0.0469696 0.0447775 0.0426138 0.0404785 0.0383717 0.0363073 0.0342992 0.0323474 0.0304519 0.0286127 0.0268298 0.0251032 0.0234329 0.0218228 0.0202767 0.0187947 0.0173767 0.0160227 0.0147328 0.013507 0.0123452 0.0112448 0.0102032 0.00922042 0.00829646 0.00743129 0.00662494 0.00587739 0.00518864 0.00455309 0.00396509 0.00342467 0.00293181 0.00248651 0.00208878 0.00173861 0.00143601 0.00117212 0.00093806 0.000733844 0.000559469 0.000414934 0.00030024 0.000215386 0.000160373 0.000122785 9.02096e-05 6.26455e-05 4.00931e-05 2.25524e-05 1.00233e-05 2.50582e-06 0 0 0.000104601 0.000418404 0.000941408 0.00167362 0.00261502 0.00376563 0.00512545 0.00669446 0.00849384 0.0105448 0.0128472 0.0154012 0.0182067 0.0212637 0.0245722 0.0281323 0.0318494 0.0356288 0.0394706 0.0433748 0.0473413 0.0513702 0.0554615 0.0596152 0.0637407 0.0677476 0.0716357 0.0754053 0.0790561 0.0825884 0.0860019 0.0892968 0.0924255 0.0953406 0.0980419 0.10053 0.102804 0.104864 0.106711 0.108344 0.109757 0.110944 0.111904 0.112638 0.113146 0.113427 0.113482 0.113311 0.112937 0.112383 0.11165 0.110737 0.109644 0.108372 0.10692 0.105289 0.103516 0.101639 0.0996596 0.0975762 0.0953892 0.0930988 0.0907048 0.0882073 0.085645 0.0830566 0.0804421 0.0778014 0.0751346 0.0724417 0.0697226 0.0669774 0.0642358 0.0615275 0.0588523 0.0562105 0.0536019 0.0510265 0.0484844 0.0459755 0.0435165 0.0411241 0.0387982 0.0365389 0.0343461 0.0322199 0.0301602 0.0281671 0.0262452 0.0243993 0.0226294 0.0209354 0.0193175 0.0177755 0.0163094 0.0149194 0.0136022 0.012355 0.0111776 0.01007 0.00903236 0.00806457 0.00716664 0.00633857 0.00557371 0.00486536 0.00421354 0.00361824 0.00307946 0.0025972 0.00217146 0.00180225 0.00147918 0.00119188 0.000940344 0.000724581 0.000544586 0.00040036 0.000291903 0.000219215 0.000167837 0.000123309 8.56309e-05 5.48038e-05 3.08271e-05 1.37009e-05 3.42524e-06 0 0 0.000124561 0.000498242 0.00112104 0.00199297 0.00311401 0.00448418 0.00610346 0.00797187 0.0101109 0.0125421 0.0152655 0.018281 0.0215887 0.0251886 0.0290806 0.0332648 0.0376306 0.0420677 0.0465759 0.0511554 0.055806 0.0605278 0.0653209 0.0701851 0.0750155 0.0797071 0.0842599 0.0886738 0.092949 0.0970853 0.101083 0.104942 0.108606 0.112021 0.115186 0.118102 0.120768 0.123184 0.125351 0.127268 0.128928 0.130323 0.131454 0.13232 0.132921 0.133257 0.133329 0.133136 0.132706 0.132064 0.131213 0.130151 0.128879 0.127396 0.125703 0.123799 0.12173 0.119538 0.117225 0.11479 0.112233 0.109554 0.106754 0.103832 0.100833 0.0978032 0.0947419 0.0916492 0.0885252 0.0853699 0.0821832 0.0789653 0.0757508 0.0725746 0.0694367 0.0663372 0.0632759 0.060253 0.0572683 0.0543219 0.0514335 0.0486227 0.0458894 0.0432337 0.0406556 0.038155 0.035732 0.0333866 0.0311243 0.028951 0.0268665 0.024871 0.0229642 0.0211464 0.0194174 0.0177773 0.0162226 0.0147497 0.0133587 0.0120495 0.0108222 0.00967682 0.00861325 0.00763155 0.00672389 0.00588247 0.00510728 0.00439833 0.00375561 0.00317913 0.00266888 0.00222486 0.0018351 0.00148763 0.00118243 0.000919508 0.00069887 0.000520511 0.000384433 0.000290634 0.000222517 0.000163482 0.000113529 7.26585e-05 4.08704e-05 1.81646e-05 4.54116e-06 0 0 0.000146487 0.000585948 0.00131838 0.00234379 0.00366218 0.00527353 0.00717787 0.00937517 0.0118867 0.0147336 0.0179159 0.0214337 0.0252869 0.0294755 0.0339995 0.0388589 0.0439262 0.0490738 0.0543017 0.0596099 0.0649984 0.0704673 0.0760164 0.0816459 0.0872353 0.0926641 0.0979325 0.10304 0.107988 0.112775 0.117401 0.121867 0.126109 0.130062 0.133727 0.137104 0.140193 0.142993 0.145506 0.14773 0.149657 0.151278 0.152593 0.153602 0.154305 0.154702 0.154793 0.154578 0.154089 0.153356 0.152379 0.151158 0.149694 0.147985 0.146034 0.143838 0.14145 0.138921 0.13625 0.133437 0.130483 0.127387 0.124149 0.12077 0.117302 0.113797 0.110254 0.106675 0.103058 0.0994047 0.095714 0.0919862 0.0882616 0.0845807 0.0809434 0.0773497 0.0737996 0.0702932 0.0668303 0.0634111 0.0600584 0.056795 0.053621 0.0505364 0.0475411 0.0446351 0.0418186 0.0390914 0.0364602 0.0339318 0.0315061 0.0291832 0.026963 0.0248456 0.0228309 0.020919 0.0191058 0.0173874 0.0157638 0.014235 0.0128009 0.0114617 0.0102172 0.00906756 0.00800364 0.00701642 0.0061059 0.00527209 0.00451497 0.00383457 0.00323086 0.00270386 0.0022399 0.00182531 0.00146009 0.00114425 0.000877785 0.000660692 0.000492974 0.000374629 0.000286825 0.000210729 0.00014634 9.36573e-05 5.26822e-05 2.34143e-05 5.85358e-06 0 0 0.000170381 0.000681522 0.00153343 0.00272609 0.00425951 0.0061337 0.00834865 0.0109044 0.0138211 0.0171191 0.0207985 0.0248591 0.0293011 0.0341243 0.0393288 0.0449147 0.050736 0.0566471 0.0626479 0.0687384 0.0749186 0.0811885 0.0875482 0.0939975 0.1004 0.106619 0.112654 0.118505 0.124173 0.129656 0.134957 0.140073 0.144933 0.149464 0.153665 0.157536 0.161079 0.164291 0.167175 0.169729 0.171943 0.173807 0.175321 0.176484 0.177298 0.177761 0.177875 0.177638 0.177087 0.176256 0.175146 0.173757 0.172088 0.17014 0.167913 0.165406 0.162678 0.159787 0.156734 0.153517 0.150138 0.146596 0.142891 0.139023 0.135052 0.131037 0.12698 0.122879 0.118734 0.114546 0.110315 0.10604 0.101768 0.0975457 0.0933723 0.0892481 0.085173 0.0811472 0.0771705 0.073243 0.0693911 0.0656411 0.061993 0.0584469 0.0550026 0.0516603 0.0484199 0.0452815 0.0422528 0.0393416 0.0365481 0.0338722 0.0313138 0.0288731 0.0265499 0.0243443 0.0222518 0.020268 0.0183929 0.0166263 0.0149684 0.0134192 0.0119786 0.0106466 0.00941295 0.00826721 0.00720939 0.0062395 0.00535754 0.00456351 0.00385741 0.00323924 0.00269355 0.00220492 0.00177334 0.00139881 0.00108133 0.000820903 0.000617526 0.000471201 0.000360763 0.00026505 0.000184063 0.0001178 6.62626e-05 2.945e-05 7.36251e-06 0 0 0.000196241 0.000784964 0.00176617 0.00313986 0.00490603 0.00706468 0.00961581 0.0125594 0.0159142 0.0196988 0.0239131 0.0285573 0.0336313 0.0391351 0.0450688 0.0514322 0.0580602 0.0647877 0.0716145 0.0785408 0.0855665 0.0926916 0.0999161 0.10724 0.11451 0.121571 0.128423 0.135067 0.141503 0.147731 0.15375 0.15956 0.16508 0.170226 0.174999 0.179399 0.183426 0.187079 0.190359 0.193265 0.195786 0.19791 0.199637 0.200967 0.2019 0.202436 0.202574 0.202316 0.2017 0.200766 0.199516 0.197948 0.196062 0.193859 0.191339 0.188502 0.185412 0.182138 0.178677 0.175031 0.171199 0.167181 0.162978 0.158589 0.154082 0.149525 0.144918 0.14026 0.135552 0.130794 0.125986 0.121127 0.116271 0.11147 0.106723 0.102032 0.0973961 0.0928149 0.0882888 0.0838177 0.0794317 0.075161 0.0710055 0.0669653 0.0630403 0.0592306 0.0555361 0.0519569 0.048502 0.0451806 0.0419925 0.0389379 0.0360167 0.0332288 0.0305744 0.0280534 0.0256608 0.0233916 0.0212459 0.0192236 0.0173247 0.0155493 0.0138973 0.0123687 0.0109518 0.00963483 0.00841775 0.00730058 0.00628332 0.00536597 0.00454853 0.003831 0.00319608 0.00262647 0.00212217 0.00168318 0.00130951 0.00100114 0.000758091 0.000580348 0.000444329 0.000326446 0.000226699 0.000145087 8.16115e-05 3.62718e-05 9.06794e-06 0 0 0.000223552 0.000894209 0.00201197 0.00357684 0.00558881 0.00804788 0.0109541 0.0143073 0.0181242 0.0224213 0.0271984 0.0324557 0.0381931 0.0444106 0.0511082 0.058286 0.0657583 0.0733398 0.0810305 0.0888302 0.0967391 0.104757 0.112884 0.12112 0.129294 0.137234 0.144939 0.15241 0.159647 0.166649 0.173417 0.179951 0.186159 0.191947 0.197317 0.202267 0.206799 0.210911 0.214605 0.21788 0.220722 0.223118 0.225068 0.226572 0.22763 0.228243 0.228409 0.228129 0.227447 0.226409 0.225013 0.223261 0.221151 0.218684 0.21586 0.21268 0.209216 0.205542 0.201659 0.197566 0.193263 0.188751 0.18403 0.179099 0.174034 0.168912 0.163732 0.158495 0.1532 0.147847 0.142437 0.13697 0.131504 0.126099 0.120755 0.115471 0.110249 0.105088 0.0999876 0.0949482 0.0900037 0.0851884 0.0805021 0.0759448 0.0715166 0.0672174 0.0630473 0.0590063 0.0551047 0.051353 0.0477511 0.0442991 0.040997 0.0378447 0.0348423 0.0319897 0.0292815 0.0267121 0.0242816 0.0219899 0.0198371 0.0178231 0.0159479 0.0142116 0.0126009 0.0111026 0.00971673 0.00844327 0.00728222 0.00623358 0.00529735 0.00447353 0.00374293 0.00308635 0.00250381 0.0019953 0.00156081 0.00120036 0.000913931 0.000701533 0.000537111 0.000394612 0.000274036 0.000175383 9.86531e-05 4.38458e-05 1.09615e-05 0 0 0.000251798 0.00100719 0.00226618 0.00402877 0.00629495 0.00906473 0.0123381 0.0161151 0.0204095 0.0252354 0.0305928 0.0364815 0.0429016 0.0498532 0.0573362 0.0653506 0.07369 0.082148 0.0907245 0.0994196 0.108233 0.117166 0.126216 0.135386 0.144484 0.153322 0.161898 0.170214 0.178269 0.186064 0.193597 0.20087 0.207779 0.214224 0.220202 0.225715 0.230763 0.235345 0.239462 0.243113 0.246284 0.248959 0.251138 0.252821 0.254008 0.2547 0.254896 0.254596 0.25385 0.252705 0.251164 0.249225 0.246888 0.244154 0.241023 0.237494 0.233649 0.22957 0.225257 0.22071 0.215929 0.210914 0.205665 0.200181 0.194548 0.18885 0.183086 0.177258 0.171364 0.165404 0.15938 0.15329 0.147201 0.141179 0.135224 0.129335 0.123513 0.117758 0.112069 0.106448 0.100931 0.0955572 0.0903265 0.0852388 0.0802941 0.0754925 0.0708338 0.0663182 0.0619574 0.0577632 0.0537356 0.0498747 0.0461803 0.0426525 0.0392913 0.0360968 0.0330628 0.0301834 0.0274586 0.0248883 0.0224726 0.0202115 0.0181049 0.0161529 0.0143408 0.0126538 0.0110921 0.00965553 0.00834416 0.00715799 0.006097 0.00516121 0.00432956 0.00358098 0.00291549 0.00233307 0.00183374 0.00141748 0.00108431 0.000834216 0.000638696 0.000469246 0.000325866 0.000208554 0.000117312 5.21385e-05 1.30346e-05 0 0 0.000280978 0.00112391 0.0025288 0.00449565 0.00702445 0.0101152 0.0137679 0.0179826 0.0227701 0.0281413 0.0340962 0.0406348 0.0477571 0.0554631 0.0637528 0.0726262 0.0818553 0.0912121 0.100697 0.110309 0.120049 0.129917 0.139913 0.150036 0.160079 0.169834 0.179301 0.18848 0.197371 0.205974 0.214289 0.222316 0.229942 0.237055 0.243656 0.249744 0.255318 0.26038 0.26493 0.268966 0.272472 0.275433 0.277846 0.279713 0.281034 0.281809 0.282036 0.281718 0.280907 0.279657 0.277968 0.275841 0.273275 0.27027 0.266826 0.262944 0.258713 0.254222 0.249473 0.244464 0.239196 0.233669 0.227882 0.221837 0.215625 0.20934 0.202981 0.196549 0.190044 0.183466 0.176814 0.170089 0.163364 0.156711 0.15013 0.143622 0.137187 0.130824 0.124534 0.118316 0.112213 0.106267 0.100479 0.0948473 0.089373 0.0840557 0.0788957 0.0738927 0.0690602 0.0644113 0.0599461 0.0556645 0.0515665 0.0476523 0.0439216 0.0403746 0.0370048 0.0338055 0.0307769 0.0279188 0.0252314 0.0227146 0.0203683 0.0181927 0.0161715 0.0142885 0.0125438 0.0109373 0.00946915 0.0081392 0.0069475 0.00589406 0.00495597 0.00411036 0.0033572 0.00269651 0.00212828 0.00165252 0.00126923 0.000978396 0.000749085 0.000550348 0.000382186 0.000244599 0.000137587 6.11498e-05 1.52874e-05 0 0 0.000311093 0.00124437 0.00279983 0.00497748 0.00777731 0.0111993 0.0152435 0.0199099 0.0252059 0.0311388 0.0377087 0.0449156 0.0527594 0.0612401 0.0703579 0.0801126 0.0902541 0.100532 0.110947 0.121499 0.132187 0.143012 0.153973 0.165071 0.17608 0.186772 0.197148 0.207209 0.216953 0.226381 0.235493 0.244289 0.252647 0.260443 0.267678 0.274352 0.280465 0.286017 0.291008 0.295437 0.299287 0.302539 0.305194 0.30725 0.308708 0.309568 0.30983 0.309494 0.308618 0.307262 0.305425 0.303108 0.30031 0.297031 0.293271 0.28903 0.284407 0.279499 0.274305 0.268827 0.263064 0.257016 0.250683 0.244065 0.237263 0.23038 0.223416 0.216369 0.209241 0.202031 0.194739 0.187366 0.179991 0.172694 0.165475 0.158334 0.151272 0.144288 0.137382 0.130554 0.123851 0.117319 0.110959 0.10477 0.098753 0.0929072 0.0872328 0.0817298 0.076413 0.0712972 0.0663824 0.0616686 0.0571558 0.052844 0.0487331 0.0448233 0.0411074 0.0375785 0.0342365 0.0310815 0.0281134 0.0253323 0.0227381 0.0203309 0.018093 0.0160066 0.0140719 0.0122887 0.0106572 0.00917721 0.00784884 0.00667206 0.00562218 0.00467447 0.00382895 0.00308561 0.00244445 0.00190548 0.00146868 0.00113407 0.000868276 0.000637917 0.000442998 0.000283519 0.000159479 7.08797e-05 1.77199e-05 0 0 0.000342141 0.00136857 0.00307927 0.00547426 0.00855354 0.0123171 0.0167649 0.0218971 0.0277169 0.034228 0.0414303 0.0493238 0.0579085 0.0671844 0.0771516 0.0878099 0.0988865 0.110108 0.121476 0.132988 0.144646 0.156449 0.168398 0.180491 0.192485 0.204134 0.215439 0.226399 0.237014 0.247284 0.257209 0.26679 0.275893 0.284386 0.292269 0.299541 0.306203 0.312255 0.317697 0.322528 0.326729 0.330279 0.33318 0.335429 0.337029 0.337977 0.338276 0.337924 0.336985 0.335522 0.333536 0.331027 0.327993 0.324437 0.320356 0.315753 0.310731 0.305399 0.299755 0.2938 0.287533 0.280955 0.274066 0.266866 0.259464 0.251973 0.24439 0.236717 0.228954 0.2211 0.213156 0.205121 0.197082 0.189128 0.181257 0.17347 0.165767 0.158148 0.150612 0.14316 0.135843 0.128712 0.121767 0.115008 0.108434 0.102047 0.0958452 0.0898294 0.0840159 0.078421 0.0730447 0.067887 0.062948 0.0582276 0.0537258 0.0494427 0.0453706 0.0415022 0.0378374 0.0343762 0.0311186 0.0280647 0.0252143 0.0225676 0.0201053 0.0178082 0.0156763 0.0137097 0.0119082 0.010272 0.00880102 0.00749523 0.00632816 0.00527333 0.00433073 0.00350037 0.00278224 0.00217634 0.00168268 0.00130125 0.00099627 0.000731954 0.000508301 0.000325313 0.000182988 8.13282e-05 2.0332e-05 0 0 0.000374125 0.0014965 0.00336712 0.005986 0.00935312 0.0134685 0.0183321 0.023944 0.0303032 0.0374089 0.045261 0.0538595 0.0632045 0.0732959 0.0841338 0.0957181 0.107753 0.119941 0.132282 0.144778 0.157427 0.17023 0.183186 0.196296 0.209296 0.221922 0.234173 0.246051 0.257554 0.268683 0.279438 0.289818 0.299681 0.308885 0.317427 0.32531 0.332532 0.339094 0.344996 0.350237 0.354797 0.358653 0.361805 0.364253 0.365997 0.367038 0.367375 0.367008 0.366006 0.364437 0.3623 0.359597 0.356326 0.352488 0.348083 0.343111 0.337686 0.331923 0.325821 0.319382 0.312604 0.305487 0.298033 0.29024 0.282228 0.274116 0.265905 0.257594 0.249183 0.240673 0.232063 0.223354 0.214639 0.206013 0.197477 0.18903 0.180673 0.172404 0.164226 0.156136 0.148191 0.140447 0.132903 0.12556 0.118417 0.111475 0.104733 0.0981916 0.0918688 0.0857825 0.0799329 0.0743197 0.0689432 0.0638032 0.0588997 0.0542328 0.0497945 0.0455768 0.0415796 0.0378031 0.0342471 0.0309117 0.027797 0.0249028 0.0222085 0.0196933 0.0173572 0.0152002 0.0132224 0.0114236 0.00980403 0.00836355 0.00707393 0.00590693 0.00486255 0.00394079 0.00314165 0.00246512 0.00191121 0.00147992 0.00113307 0.000832458 0.000578096 0.000369981 0.000208114 9.24953e-05 2.31238e-05 0 0 0.000407043 0.00162817 0.00366338 0.00651268 0.0101761 0.0146535 0.0199451 0.0260507 0.0329647 0.0406814 0.0492007 0.0585227 0.0686474 0.0795747 0.0913046 0.103837 0.116852 0.130029 0.143367 0.156867 0.170529 0.184353 0.198339 0.212486 0.226512 0.240134 0.253351 0.266165 0.278573 0.290578 0.302178 0.313374 0.324012 0.333939 0.343154 0.351659 0.359452 0.366535 0.372906 0.378566 0.383491 0.387659 0.391068 0.39372 0.395614 0.396749 0.397127 0.396747 0.395682 0.394006 0.391718 0.388818 0.385307 0.381185 0.376451 0.371105 0.365271 0.359071 0.352505 0.345573 0.338275 0.330611 0.322582 0.314186 0.305553 0.296811 0.28796 0.278999 0.269929 0.26075 0.251462 0.24