<?xml version="1.0"?> 
<VTKFile type="StructuredGrid" version="0.1"> 
<StructuredGrid WholeExtent="0 128 0 128 0 0"> 
<Piece Extent="0 128 0 128 0 0"> 
<PointData>
<DataArray type="Float32" Name="u" format="ascii" NumberOfComponents="1"> 
0 0 0 0 0 0 0 0 0 0 0 0 0 0 0 0 0 0 0 0 0 0 0 0 0 0 0 0 0 0 0 0 0 0 0 0 0 0 0 0 0 0 0 0 0 0 0 0 0 0 0 0 0 0 0 0 0 0 0 0 0 0 0 0 0 0 0 0 0 0 0 0 0 0 0 0 0 0 0 0 0 0 0 0 0 0 0 0 0 0 0 0 0 0 0 0 0 0 0 0 0 0 0 0 0 0 0 0 0 0 0 0 0 0 0 0 0 0 0 0 0 0 0 0 0 0 0 0 0 0 4.26525e-07 1.7061e-06 3.83872e-06 6.82439e-06 1.06631e-05 1.53549e-05 2.08997e-05 2.72976e-05 3.46739e-05 4.31542e-05 5.27383e-05 6.34264e-05 7.52183e-05 8.81141e-05 0.000102114 0.000117218 0.000133023 0.000149128 0.000165533 0.000182237 0.000199241 0.000216545 0.000234148 0.000252051 0.000269864 0.000287199 0.000304054 0.000320431 0.000336328 0.000351747 0.000366687 0.000381148 0.000394927 0.000407824 0.000419838 0.000430968 0.000441216 0.00045058 0.000459061 0.00046666 0.000473343 0.000479081 0.000483873 0.00048772 0.00049062 0.000492575 0.000493585 0.000493648 0.000492856 0.000491299 0.000488977 0.00048589 0.000482037 0.00047742 0.000472037 0.000465889 0.000459127 0.000451902 0.000444213 0.000436061 0.000427445 0.000418366 0.000408823 0.000398818 0.000388503 0.000378035 0.000367413 0.000356637 0.000345707 0.000334624 0.000323387 0.000311996 0.000300571 0.000289235 0.000277985 0.000266823 0.000255748 0.00024476 0.00023386 0.000223047 0.000212393 0.000201969 0.000191775 0.000181812 0.00017208 0.000162577 0.000153305 0.000144264 0.00013548 0.000126984 0.000118774 0.00011085 0.000103212 9.58615e-05 8.87971e-05 8.20191e-05 7.55291e-05 6.93287e-05 6.34177e-05 5.77962e-05 5.24643e-05 4.74219e-05 4.26689e-05 3.82055e-05 3.40225e-05 3.01108e-05 2.64704e-05 2.31013e-05 2.00035e-05 1.7177e-05 1.46219e-05 1.2338e-05 1.02948e-05 8.46163e-06 6.83845e-06 5.42527e-06 4.2221e-06 3.22893e-06 2.44577e-06 1.87261e-06 1.43372e-06 1.05334e-06 7.31489e-07 4.68153e-07 2.63336e-07 1.17038e-07 2.92596e-08 0 0 1.7061e-06 6.82439e-06 1.53549e-05 2.72976e-05 4.26525e-05 6.14196e-05 8.35988e-05 0.00010919 0.000138696 0.000172617 0.000210953 0.000253705 0.000300873 0.000352457 0.000408456 0.00046887 0.000532092 0.000596512 0.000662131 0.000728948 0.000796964 0.000866179 0.000936592 0.0010082 0.00107946 0.00114879 0.00121622 0.00128172 0.00134531 0.00140699 0.00146675 0.00152459 0.00157971 0.0016313 0.00167935 0.00172387 0.00176486 0.00180232 0.00183625 0.00186664 0.00189337 0.00191632 0.00193549 0.00195088 0.00196248 0.0019703 0.00197434 0.00197459 0.00197142 0.0019652 0.00195591 0.00194356 0.00192815 0.00190968 0.00188815 0.00186356 0.00183651 0.00180761 0.00177685 0.00174424 0.00170978 0.00167346 0.00163529 0.00159527 0.00155401 0.00151214 0.00146965 0.00142655 0.00138283 0.00133849 0.00129355 0.00124798 0.00120229 0.00115694 0.00111194 0.00106729 0.00102299 0.000979041 0.000935439 0.000892187 0.00084957 0.000807875 0.000767101 0.000727249 0.000688318 0.000650309 0.000613221 0.000577055 0.000541922 0.000507935 0.000475094 0.000443399 0.00041285 0.000383446 0.000355188 0.000328076 0.000302117 0.000277315 0.000253671 0.000231185 0.000209857 0.000189687 0.000170676 0.000152822 0.00013609 0.000120443 0.000105881 9.24051e-05 8.0014e-05 6.87081e-05 5.84875e-05 4.93521e-05 4.11793e-05 3.38465e-05 2.73538e-05 2.17011e-05 1.68884e-05 1.29157e-05 9.78307e-06 7.49045e-06 5.73488e-06 4.21338e-06 2.92596e-06 1.87261e-06 1.05334e-06 4.68153e-07 1.17038e-07 0 0 3.83872e-06 1.53549e-05 3.45485e-05 6.14196e-05 9.5968e-05 0.000138194 0.000188097 0.000245678 0.000312065 0.000388388 0.000474645 0.000570837 0.000676965 0.000793027 0.000919025 0.00105496 0.00119721 0.00134215 0.00148979 0.00164013 0.00179317 0.0019489 0.00210733 0.00226846 0.00242878 0.00258479 0.00273649 0.00288387 0.00302695 0.00316572 0.00330018 0.00343033 0.00355435 0.00367042 0.00377854 0.00387872 0.00397094 0.00405522 0.00413155 0.00419994 0.00426009 0.00431173 0.00435486 0.00438948 0.00441558 0.00443318 0.00444226 0.00444283 0.0044357 0.00442169 0.00440079 0.00437301 0.00433833 0.00429678 0.00424833 0.004193 0.00413215 0.00406712 0.00399792 0.00392455 0.00384701 0.00376529 0.00367941 0.00358936 0.00349653 0.00340231 0.00330671 0.00320973 0.00311136 0.00301161 0.00291048 0.00280796 0.00270514 0.00260311 0.00250187 0.00240141 0.00230173 0.00220284 0.00210474 0.00200742 0.00191153 0.00181772 0.00172598 0.00163631 0.00154872 0.00146319 0.00137975 0.00129837 0.00121932 0.00114285 0.00106896 0.000997648 0.000928911 0.000862754 0.000799174 0.000738172 0.000679762 0.000623958 0.000570759 0.000520166 0.000472179 0.000426797 0.00038402 0.000343849 0.000306202 0.000270997 0.000238233 0.000207912 0.000180032 0.000154593 0.000131597 0.000111042 9.26534e-05 7.61547e-05 6.1546e-05 4.88274e-05 3.79989e-05 2.90604e-05 2.20119e-05 1.68535e-05 1.29035e-05 9.4801e-06 6.5834e-06 4.21338e-06 2.37003e-06 1.05334e-06 2.63336e-07 0 0 6.82439e-06 2.72976e-05 6.14196e-05 0.00010919 0.00017061 0.000245678 0.000334395 0.000436761 0.000554783 0.000690467 0.000843813 0.00101482 0.00120349 0.00140983 0.00163382 0.00187548 0.00212837 0.00238605 0.00264852 0.00291579 0.00318786 0.00346471 0.00374637 0.00403281 0.00431783 0.00459518 0.00486486 0.00512689 0.00538125 0.00562795 0.00586699 0.00609836 0.00631884 0.00652519 0.00671741 0.0068955 0.00705945 0.00720928 0.00734498 0.00746655 0.00757349 0.0076653 0.00774197 0.00780352 0.00784993 0.00788121 0.00789735 0.00789837 0.0078857 0.00786078 0.00782363 0.00777423 0.00771259 0.00763871 0.00755259 0.00745423 0.00734604 0.00723043 0.00710741 0.00697697 0.00683912 0.00669386 0.00654118 0.00638108 0.00621605 0.00604855 0.0058786 0.00570619 0.00553131 0.00535398 0.00517418 0.00499193 0.00480914 0.00462775 0.00444776 0.00426916 0.00409197 0.00391616 0.00374176 0.00356875 0.00339828 0.0032315 0.00306841 0.002909 0.00275327 0.00260124 0.00245288 0.00230822 0.00216769 0.00203174 0.00190038 0.0017736 0.0016514 0.00153378 0.00142075 0.00131231 0.00120847 0.00110926 0.00101468 0.00092474 0.000839429 0.00075875 0.000682703 0.000611288 0.00054436 0.000481772 0.000423526 0.000369621 0.000320056 0.000274833 0.00023395 0.000197408 0.000164717 0.000135386 0.000109415 8.68043e-05 6.75536e-05 5.16629e-05 3.91323e-05 2.99618e-05 2.29395e-05 1.68535e-05 1.17038e-05 7.49045e-06 4.21338e-06 1.87261e-06 4.68153e-07 0 0 1.06631e-05 4.26525e-05 9.5968e-05 0.00017061 0.000266578 0.000383872 0.000522493 0.000682439 0.000866848 0.00107885 0.00131846 0.00158566 0.00188046 0.00220285 0.00255285 0.00293044 0.00332557 0.0037282 0.00413832 0.00455593 0.00498103 0.00541362 0.0058537 0.00630127 0.0067466 0.00717996 0.00760135 0.00801076 0.0084082 0.00879367 0.00916717 0.00952869 0.00987319 0.0101956 0.0104959 0.0107742 0.0110304 0.0112645 0.0114765 0.0116665 0.0118336 0.011977 0.0120968 0.012193 0.0122655 0.0123144 0.0123396 0.0123412 0.0123214 0.0122825 0.0122244 0.0121472 0.0120509 0.0119355 0.0118009 0.0116472 0.0114782 0.0112975 0.0111053 0.0109015 0.0106861 0.0104591 0.0102206 0.00997044 0.00971257 0.00945087 0.00918531 0.00891592 0.00864268 0.00836559 0.00808466 0.00779989 0.00751429 0.00723087 0.00694963 0.00667057 0.0063937 0.00611901 0.0058465 0.00557617 0.00530982 0.00504922 0.00479438 0.00454531 0.00430199 0.00406443 0.00383263 0.00360659 0.00338701 0.00317459 0.00296934 0.00277124 0.00258031 0.00239654 0.00221993 0.00205048 0.00188823 0.00173322 0.00158544 0.00144491 0.00131161 0.00118555 0.00106672 0.000955137 0.000850562 0.000752769 0.000661759 0.000577532 0.000500088 0.000429426 0.000365547 0.00030845 0.000257371 0.000211541 0.000170961 0.000135632 0.000105552 8.07232e-05 6.11442e-05 4.68153e-05 3.5843e-05 2.63336e-05 1.82872e-05 1.17038e-05 6.5834e-06 2.92596e-06 7.31489e-07 0 0 1.53549e-05 6.14196e-05 0.000138194 0.000245678 0.000383872 0.000552776 0.00075239 0.000982713 0.00124826 0.00155355 0.00189858 0.00228335 0.00270786 0.00317211 0.0036761 0.00421983 0.00478883 0.00536861 0.00595918 0.00656053 0.00717268 0.00779561 0.00842933 0.00907383 0.00971511 0.0103391 0.0109459 0.0115355 0.0121078 0.0126629 0.0132007 0.0137213 0.0142174 0.0146817 0.0151142 0.0155149 0.0158838 0.0162209 0.0165262 0.0167997 0.0170404 0.0172469 0.0174194 0.0175579 0.0176623 0.0177327 0.017769 0.0177713 0.0177428 0.0176868 0.0176032 0.017492 0.0173533 0.0171871 0.0169933 0.016772 0.0165286 0.0162685 0.0159917 0.0156982 0.015388 0.0150612 0.0147176 0.0143574 0.0139861 0.0136092 0.0132269 0.0128389 0.0124455 0.0120465 0.0116419 0.0112318 0.0108206 0.0104124 0.0100075 0.00960562 0.00920692 0.00881137 0.00841896 0.00802969 0.00764613 0.00727088 0.00690391 0.00654524 0.00619486 0.00585278 0.00551899 0.00519349 0.0048773 0.00457142 0.00427585 0.00399059 0.00371565 0.00345101 0.00319669 0.00295269 0.00271905 0.00249583 0.00228304 0.00208066 0.00188871 0.00170719 0.00153608 0.0013754 0.00122481 0.00108399 0.000952933 0.000831646 0.000720126 0.000618373 0.000526387 0.000444169 0.000370614 0.000304619 0.000246184 0.00019531 0.000151995 0.000116241 8.80477e-05 6.7414e-05 5.16139e-05 3.79204e-05 2.63336e-05 1.68535e-05 9.4801e-06 4.21338e-06 1.05334e-06 0 0 2.08997e-05 8.35988e-05 0.000188097 0.000334395 0.000522493 0.00075239 0.00102409 0.00133758 0.00169902 0.00211455 0.00258418 0.00310789 0.0036857 0.00431759 0.00500358 0.00574366 0.00651812 0.00730727 0.0081111 0.00892962 0.00976281 0.0106107 0.0114732 0.0123505 0.0132233 0.0140727 0.0148986 0.0157011 0.0164801 0.0172356 0.0179676 0.0186762 0.0193514 0.0199834 0.0205721 0.0211175 0.0216196 0.0220784 0.022494 0.0228663 0.0231938 0.023475 0.0237098 0.0238983 0.0240404 0.0241362 0.0241856 0.0241888 0.0241499 0.0240737 0.0239599 0.0238086 0.0236198 0.0233936 0.0231298 0.0228286 0.0224972 0.0221432 0.0217664 0.021367 0.0209448 0.0204999 0.0200323 0.0195421 0.0190366 0.0185237 0.0180032 0.0174752 0.0169396 0.0163966 0.0158459 0.0152878 0.014728 0.0141725 0.0136213 0.0130743 0.0125316 0.0119933 0.0114591 0.0109293 0.0104072 0.00989647 0.00939699 0.0089088 0.0084319 0.00796628 0.00751196 0.00706892 0.00663854 0.0062222 0.0058199 0.00543164 0.00505741 0.00469721 0.00435106 0.00401894 0.00370093 0.0033971 0.00310747 0.00283202 0.00257075 0.00232367 0.00209078 0.00187207 0.0016671 0.00147543 0.00129705 0.00113196 0.000980172 0.000841675 0.000716472 0.000604563 0.000504446 0.00041462 0.000335084 0.000265838 0.000206883 0.000158218 0.000119843 9.1758e-05 7.02522e-05 5.16139e-05 3.5843e-05 2.29395e-05 1.29035e-05 5.73488e-06 1.43372e-06 0 0 2.72976e-05 0.00010919 0.000245678 0.000436761 0.000682439 0.000982713 0.00133758 0.00174705 0.00221913 0.00276187 0.00337525 0.00405929 0.00481397 0.00563931 0.00653529 0.00750192 0.00851347 0.00954419 0.0105941 0.0116632 0.0127514 0.0138589 0.0149855 0.0161313 0.0172713 0.0183807 0.0194595 0.0205076 0.021525 0.0225118 0.0234679 0.0243934 0.0252754 0.0261008 0.0268696 0.027582 0.0282378 0.0288371 0.0293799 0.0298662 0.030294 0.0306612 0.0309679 0.0312141 0.0313997 0.0315248 0.0315894 0.0315935 0.0315428 0.0314431 0.0312945 0.0310969 0.0308504 0.0305549 0.0302104 0.0298169 0.0293841 0.0289217 0.0284296 0.0279079 0.0273565 0.0267754 0.0261647 0.0255243 0.0248642 0.0241942 0.0235144 0.0228248 0.0221253 0.0214159 0.0206967 0.0199677 0.0192366 0.018511 0.017791 0.0170767 0.0163679 0.0156647 0.014967 0.014275 0.0135931 0.012926 0.0122736 0.011636 0.0110131 0.0104049 0.00981154 0.00923287 0.00867075 0.00812696 0.00760151 0.00709438 0.00660559 0.00613514 0.00568301 0.00524922 0.00483386 0.00443703 0.00405873 0.00369896 0.00335771 0.003035 0.00273081 0.00244515 0.00217744 0.00192709 0.0016941 0.00147848 0.00128022 0.00109933 0.0009358 0.000789633 0.000658869 0.000541544 0.000437661 0.000347217 0.000270214 0.000206652 0.000156529 0.000119847 9.1758e-05 6.7414e-05 4.68153e-05 2.99618e-05 1.68535e-05 7.49045e-06 1.87261e-06 0 0 3.47188e-05 0.000138875 0.000312469 0.000555501 0.00086797 0.00124988 0.00170122 0.002222 0.00282206 0.00351123 0.00428951 0.0051569 0.0061134 0.00715901 0.00829373 0.00951757 0.010798 0.0121025 0.0134311 0.0147838 0.0161605 0.0175614 0.0189863 0.0204353 0.0218769 0.0232799 0.0246441 0.0259695 0.0272562 0.0285042 0.0297134 0.0308839 0.0319994 0.0330434 0.034016 0.0349171 0.0357469 0.0365052 0.0371921 0.0378076 0.0383492 0.0388142 0.0392027 0.0395146 0.0397501 0.039909 0.0399914 0.0399973 0.039934 0.0398087 0.0396215 0.0393723 0.0390611 0.0386881 0.0382531 0.0377561 0.0372094 0.0366251 0.0360032 0.0353438 0.0346469 0.0339123 0.0331402 0.0323306 0.0314959 0.0306487 0.029789 0.0289168 0.028032 0.0271348 0.026225 0.0253028 0.0243778 0.0234598 0.0225488 0.0216448 0.0207478 0.0198579 0.0189749 0.018099 0.0172359 0.0163914 0.0155655 0.0147583 0.0139696 0.0131996 0.0124482 0.0117154 0.0110035 0.0103147 0.00964916 0.00900678 0.00838757 0.00779154 0.00721869 0.00666901 0.00614264 0.00563969 0.00516018 0.00470409 0.00427144 0.00386222 0.00347643 0.00311407 0.0027744 0.00245668 0.00216091 0.00188708 0.00163521 0.00140528 0.00119731 0.00101128 0.000844733 0.000695211 0.00056271 0.000447231 0.000348774 0.000267337 0.000202923 0.00015553 0.000119077 8.74854e-05 6.07537e-05 3.88824e-05 2.18713e-05 9.7206e-06 2.43015e-06 0 0 4.33337e-05 0.000173335 0.000390003 0.000693339 0.00108334 0.00156001 0.00212335 0.00277336 0.00352128 0.00437838 0.00534464 0.00642008 0.00760469 0.00889847 0.0103014 0.0118135 0.0133948 0.0150054 0.0166451 0.018314 0.0200121 0.0217394 0.023496 0.0252817 0.0270582 0.028787 0.0304682 0.0321016 0.0336874 0.0352255 0.036716 0.0381587 0.0395337 0.0408209 0.0420202 0.0431316 0.0441552 0.0450909 0.0459388 0.0466988 0.0473678 0.0479426 0.0484231 0.0488094 0.0491014 0.0492992 0.0494028 0.0494121 0.0493362 0.0491838 0.048955 0.0486499 0.0482683 0.0478103 0.0472759 0.0466651 0.0459929 0.0452743 0.0445092 0.0436977 0.0428397 0.0419353 0.0409845 0.0399872 0.0389589 0.037915 0.0368555 0.0357804 0.0346897 0.0335834 0.0324615 0.031324 0.030183 0.0290505 0.0279264 0.0268109 0.0257038 0.0246052 0.0235152 0.0224336 0.0213677 0.0203247 0.0193045 0.0183072 0.0173327 0.0163811 0.0154523 0.0145464 0.0136662 0.0128145 0.0119914 0.0111968 0.0104307 0.0096932 0.00898421 0.00830376 0.00765201 0.00702914 0.00643514 0.00587002 0.00533377 0.00482639 0.00434789 0.00389825 0.00347657 0.00308191 0.00271427 0.00237365 0.00206005 0.00177348 0.00151392 0.00128139 0.00107289 0.000885438 0.000719029 0.000573664 0.000449344 0.000346069 0.000263839 0.000202653 0.000155156 0.000113992 7.91614e-05 5.06633e-05 2.84981e-05 1.26658e-05 3.16646e-06 0 0 5.31423e-05 0.000212569 0.000478281 0.000850277 0.00132856 0.00191312 0.00260397 0.00340111 0.0043168 0.00536332 0.00654066 0.00784884 0.00928785 0.0108577 0.0125583 0.0143898 0.016304 0.0182527 0.020236 0.0222538 0.0243062 0.0263931 0.0285145 0.0306705 0.0328151 0.0349021 0.0369317 0.0389039 0.0408186 0.0426758 0.0444755 0.0462178 0.0478785 0.0494333 0.0508823 0.0522254 0.0534628 0.0545943 0.0556199 0.0565398 0.0573499 0.0580463 0.0586291 0.0590982 0.0594536 0.0596954 0.0598235 0.0598379 0.0597494 0.0595685 0.0592952 0.0589297 0.0584718 0.0579215 0.057279 0.0565441 0.0557349 0.0548694 0.0539476 0.0529695 0.0519351 0.0508444 0.0496974 0.0484942 0.0472532 0.0459931 0.0447139 0.0434156 0.0420983 0.0407618 0.0394062 0.0380315 0.0366523 0.0352831 0.033924 0.0325749 0.0312358 0.0299067 0.0285877 0.0272788 0.0259885 0.0247258 0.0234905 0.0222826 0.0211023 0.0199494 0.0188239 0.017726 0.016659 0.0156263 0.0146282 0.0136644 0.012735 0.0118401 0.0109796 0.0101535 0.009362 0.00860539 0.00788363 0.00719673 0.00654469 0.00592751 0.00534518 0.0047977 0.00428395 0.00380277 0.00335419 0.00293818 0.00255475 0.00220391 0.00188565 0.00159998 0.00134335 0.00111223 0.000906617 0.000726517 0.000571927 0.000442847 0.000339278 0.000261218 0.000199995 0.000146935 0.000102038 6.53045e-05 3.67338e-05 1.63261e-05 4.08153e-06 0 0 6.41445e-05 0.000256578 0.000577301 0.00102631 0.00160361 0.0023092 0.00314308 0.00410525 0.0052086 0.00646604 0.00787757 0.00944318 0.0111629 0.0130366 0.0150645 0.0172465 0.0195255 0.0218446 0.0242039 0.0266033 0.0290427 0.0315223 0.034042 0.0366018 0.0391475 0.0416252 0.0440348 0.0463763 0.0486497 0.0508549 0.0529921 0.0550612 0.0570335 0.0588805 0.0606022 0.0621985 0.0636695 0.0650152 0.0662355 0.0673305 0.0682954 0.0691255 0.0698208 0.0703812 0.0708068 0.0710976 0.0712536 0.0712747 0.0711735 0.0709627 0.070642 0.0702117 0.0696716 0.0690218 0.0682622 0.0673929 0.0664352 0.0654104 0.0643184 0.0631593 0.061933 0.0606396 0.0592791 0.0578515 0.0563788 0.054883 0.0533643 0.0518225 0.0502577 0.0486699 0.0470591 0.0454252 0.0437857 0.0421578 0.0405415 0.0389368 0.0373438 0.0357624 0.0341926 0.0326345 0.0310983 0.0295947 0.0281235 0.0266847 0.0252784 0.0239045 0.0225631 0.0212541 0.0199817 0.0187502 0.0175595 0.0164096 0.0153005 0.0142322 0.0132048 0.0122181 0.0112726 0.0103684 0.00950565 0.00868424 0.00790421 0.00716557 0.0064683 0.00581241 0.00519653 0.00461928 0.00408066 0.00358067 0.00311931 0.00269659 0.0023125 0.00196703 0.0016561 0.00137558 0.00112547 0.000905788 0.000716521 0.000557671 0.000429239 0.000331224 0.000253593 0.000186313 0.000129384 8.2806e-05 4.65784e-05 2.07015e-05 5.17537e-06 0 0 7.63404e-05 0.000305362 0.000687064 0.00122145 0.00190851 0.00274826 0.00374068 0.00488579 0.0061967 0.00768656 0.00935535 0.0112031 0.0132298 0.0154354 0.0178199 0.0203834 0.0230593 0.0257811 0.0285488 0.0313623 0.0342218 0.0371271 0.0400783 0.0430754 0.0460556 0.0489563 0.0517774 0.0545188 0.0571807 0.059763 0.0622657 0.0646888 0.0669989 0.0691627 0.07118 0.073051 0.0747756 0.0763538 0.0777856 0.079071 0.0802044 0.0811801 0.081998 0.0826583 0.0831609 0.0835058 0.0836929 0.0837224 0.0836087 0.0833664 0.0829955 0.0824959 0.0818678 0.081111 0.0802257 0.0792117 0.0780939 0.0768972 0.0756215 0.0742669 0.0728334 0.0713209 0.0697295 0.0680592 0.0663357 0.0645848 0.0628066 0.061001 0.0591681 0.0573078 0.0554202 0.0535052 0.0515831 0.0496744 0.0477789 0.0458967 0.0440278 0.0421722 0.0403298 0.0385007 0.0366972 0.0349314 0.0332035 0.0315133 0.029861 0.0282464 0.0266697 0.0251307 0.0236346 0.0221861 0.0207854 0.0194324 0.0181272 0.0168696 0.0156598 0.0144978 0.0133838 0.0123183 0.0113012 0.0103325 0.00941233 0.00854057 0.00771726 0.00694238 0.00621432 0.00553142 0.00489369 0.00430113 0.00375373 0.00325151 0.00279445 0.00238256 0.00201114 0.00167549 0.0013756 0.00111148 0.000883127 0.000690541 0.000533723 0.000412671 0.000315951 0.000232128 0.0001612 0.000103168 5.80319e-05 2.57919e-05 6.44799e-06 0 0 8.973e-05 0.00035892 0.00080757 0.00143568 0.00224325 0.00323028 0.00439677 0.00574272 0.0072811 0.00902486 0.010974 0.0131286 0.0154885 0.0180538 0.0208246 0.0238007 0.0269054 0.0300621 0.0332706 0.036531 0.0398433 0.0432075 0.0466235 0.0500914 0.0535394 0.0568954 0.0601594 0.0633315 0.0664117 0.0694 0.0722963 0.0751008 0.0777747 0.0802797 0.0826157 0.0847828 0.0867808 0.0886099 0.0902701 0.0917613 0.0930768 0.09421 0.0951609 0.0959296 0.0965159 0.0969199 0.0971417 0.0971811 0.0970549 0.0967797 0.0963556 0.0957824 0.0950603 0.0941893 0.0931693 0.0920003 0.0907109 0.0893299 0.0878571 0.0862925 0.0846363 0.0828883 0.0810486 0.0791172 0.0771238 0.0750984 0.0730408 0.0709512 0.0688294 0.0666755 0.0644895 0.0622713 0.0600447 0.057833 0.0556363 0.0534545 0.0512878 0.0491361 0.0469993 0.0448775 0.042785 0.040736 0.0387305 0.0367686 0.0348501 0.0329752 0.0311438 0.029356 0.0276174 0.0259341 0.0243059 0.0227328 0.021215 0.0197523 0.0183447 0.0169924 0.0156956 0.0144549 0.0132702 0.0121416 0.0110691 0.0100525 0.00909205 0.00818762 0.00733731 0.0065392 0.00579327 0.00509954 0.00445801 0.00386867 0.00333152 0.00284656 0.00240848 0.00201196 0.00165699 0.00134359 0.00107174 0.000841457 0.000652729 0.00050556 0.000387069 0.000284377 0.000197484 0.00012639 7.10943e-05 3.15975e-05 7.89937e-06 0 0 0.000104313 0.000417253 0.00093882 0.00166901 0.00260783 0.00375528 0.00511135 0.00667605 0.00846178 0.010481 0.0127336 0.0152196 0.0179391 0.0208921 0.0240785 0.0274983 0.0310639 0.0346876 0.0383694 0.0421093 0.0459073 0.0497634 0.0536776 0.0576499 0.0615987 0.0654424 0.0691809 0.0728144 0.0763427 0.0797659 0.083084 0.086297 0.0893608 0.0922316 0.0949093 0.0973939 0.0996853 0.101784 0.103689 0.105401 0.106913 0.108215 0.109309 0.110195 0.110872 0.11134 0.1116 0.111651 0.111512 0.111203 0.110722 0.110071 0.109249 0.108257 0.107093 0.105759 0.104286 0.102708 0.101025 0.0992361 0.0973417 0.0953418 0.0932364 0.0910256 0.0887433 0.0864238 0.084067 0.0816729 0.0792415 0.0767729 0.074267 0.0717237 0.0691702 0.0666335 0.0641135 0.0616103 0.0591238 0.0566541 0.0542011 0.0517649 0.0493618 0.0470084 0.0447046 0.0424504 0.0402458 0.0380908 0.0359855 0.0339297 0.0319303 0.029994 0.0281209 0.0263109 0.0245639 0.0228802 0.0212595 0.0197019 0.018208 0.0167783 0.0154128 0.0141115 0.0128744 0.0117014 0.0105927 0.00954812 0.00856551 0.00764261 0.00677942 0.00597593 0.00523214 0.00454807 0.00392369 0.00335903 0.00284811 0.00238499 0.00196966 0.00160212 0.00128237 0.00101042 0.000786258 0.000609889 0.000466946 0.000343063 0.000238238 0.000152472 8.57657e-05 3.81181e-05 9.52952e-06 0 0 0.00012009 0.000480361 0.00108081 0.00192144 0.00300226 0.00432325 0.00588442 0.00768577 0.00973876 0.0120548 0.014634 0.0174763 0.0205816 0.0239501 0.0275816 0.0314762 0.0355347 0.0396576 0.0438451 0.0480972 0.0524138 0.0567949 0.0612406 0.0657508 0.0702337 0.0745974 0.078842 0.0829674 0.0869736 0.0908607 0.0946287 0.0982775 0.101757 0.105018 0.108061 0.110884 0.113489 0.115875 0.118042 0.119991 0.121712 0.123196 0.124444 0.125454 0.126229 0.126766 0.127067 0.127131 0.12698 0.126635 0.126096 0.125362 0.124435 0.123313 0.121997 0.120487 0.11882 0.117033 0.115125 0.113098 0.11095 0.108681 0.106293 0.103784 0.101194 0.0985611 0.0958851 0.0931663 0.0904046 0.0876001 0.0847526 0.0818623 0.0789599 0.076076 0.0732107 0.070364 0.0675359 0.0647263 0.0619353 0.0591628 0.0564277 0.0537487 0.0511257 0.0485588 0.046048 0.0435932 0.0411946 0.038852 0.0365732 0.0343661 0.0322305 0.0301665 0.0281741 0.0262533 0.0244041 0.0226265 0.0209211 0.0192886 0.0177289 0.0162422 0.0148283 0.0134873 0.0122191 0.0110239 0.00989892 0.00884167 0.00785212 0.00693027 0.00607614 0.00528971 0.00457098 0.00391997 0.00333004 0.00279458 0.00231359 0.00188707 0.00151501 0.00119743 0.000934309 0.00072566 0.000555583 0.000408184 0.000283461 0.000181415 0.000102046 4.53537e-05 1.13384e-05 0 0 0.000136734 0.000546938 0.00123061 0.00218775 0.00341836 0.00492244 0.00669999 0.008751 0.0110857 0.0137142 0.0166365 0.0198526 0.0233625 0.0271663 0.0312639 0.0356554 0.0402292 0.0448741 0.04959 0.0543769 0.0592348 0.0641638 0.0691638 0.0742348 0.0792745 0.0841803 0.0889523 0.0935905 0.098095 0.102466 0.106702 0.110805 0.114719 0.118387 0.121809 0.124987 0.127918 0.130604 0.133045 0.135241 0.137181 0.138855 0.140263 0.141405 0.142281 0.142892 0.143237 0.143316 0.143153 0.142771 0.142171 0.141353 0.140316 0.139061 0.137587 0.135895 0.134026 0.132022 0.129881 0.127605 0.125194 0.122646 0.119964 0.117145 0.114234 0.111275 0.108266 0.105209 0.102103 0.0989488 0.0957454 0.0924932 0.0892268 0.0859808 0.0827551 0.0795499 0.0763651 0.0732007 0.0700567 0.0669331 0.063851 0.0608317 0.0578752 0.0549814 0.0521504 0.0493822 0.0466767 0.0440339 0.0414628 0.038972 0.0365617 0.0342317 0.0319822 0.029813 0.0277242 0.0257159 0.0237886 0.0219433 0.0201799 0.0184985 0.0168989 0.0153812 0.0139455 0.0125916 0.0113168 0.0101179 0.00899512 0.00794834 0.00697758 0.00608285 0.00526415 0.00452148 0.00384755 0.00323511 0.00268414 0.00219464 0.00176662 0.00140008 0.00109501 0.000851419 0.000651868 0.000478923 0.000332586 0.000212855 0.000119731 5.32137e-05 1.33034e-05 0 0 0.00015392 0.000615678 0.00138528 0.00246271 0.00384799 0.0055411 0.00754206 0.00985085 0.0124761 0.0154265 0.0187021 0.0223027 0.0262285 0.0304794 0.0350554 0.0399566 0.045059 0.0502388 0.055496 0.0608306 0.0662426 0.071732 0.0772988 0.0829429 0.0885514 0.094011 0.0993219 0.104484 0.109497 0.114362 0.119077 0.123644 0.128 0.132084 0.135895 0.139433 0.142699 0.145692 0.148413 0.150861 0.153025 0.154893 0.156466 0.157743 0.158725 0.159411 0.159802 0.159897 0.159723 0.159305 0.158644 0.15774 0.156593 0.155203 0.153569 0.151693 0.149619 0.147393 0.145016 0.142488 0.139808 0.136976 0.133993 0.130859 0.127622 0.124329 0.120982 0.11758 0.114123 0.110611 0.107044 0.103422 0.0997839 0.0961679 0.0925741 0.0890024 0.0854529 0.0819255 0.0784204 0.0749374 0.0715002 0.0681326 0.0648344 0.0616058 0.0584468 0.0553572 0.0523372 0.0493867 0.0465156 0.0437339 0.0410416 0.0384386 0.0359249 0.0335006 0.0311657 0.0289201 0.0267647 0.0247005 0.0227273 0.0208453 0.0190543 0.0173545 0.0157458 0.0142281 0.0127983 0.011453 0.0101922 0.00901588 0.00792407 0.00691676 0.00599396 0.00515565 0.00439395 0.00370094 0.00307665 0.00252105 0.00203416 0.00161598 0.00126649 0.000985713 0.000754687 0.000554464 0.000385044 0.000246428 0.000138616 6.16071e-05 1.54018e-05 0 0 0.000171646 0.000686583 0.00154481 0.00274633 0.00429114 0.00617924 0.00841064 0.0109853 0.0139102 0.017192 0.0208308 0.0248266 0.0291795 0.0338893 0.0389561 0.0443799 0.0500241 0.0557518 0.0615633 0.0674583 0.073437 0.0794994 0.0856454 0.091875 0.0980644 0.10409 0.109951 0.115647 0.12118 0.126549 0.131753 0.136793 0.141601 0.146109 0.150317 0.154224 0.157831 0.161138 0.164144 0.166851 0.169244 0.171312 0.173053 0.174469 0.175559 0.176324 0.176762 0.176875 0.17669 0.176237 0.175515 0.174525 0.173266 0.171739 0.169944 0.167879 0.165597 0.163147 0.16053 0.157744 0.154791 0.151671 0.148383 0.144927 0.141357 0.137725 0.134032 0.130278 0.126463 0.122586 0.118648 0.114649 0.110631 0.106638 0.102668 0.0987214 0.0947991 0.0909008 0.0870263 0.0831757 0.0793753 0.0756512 0.0720034 0.0684321 0.0649371 0.0615184 0.0581762 0.0549103 0.0517318 0.0486518 0.0456702 0.0427871 0.0400024 0.0373162 0.0347284 0.0322391 0.0298493 0.0275599 0.025371 0.0232825 0.0212946 0.019407 0.01762 0.0159334 0.0143436 0.0128469 0.0114433 0.0101329 0.00891561 0.00779144 0.0067604 0.00582249 0.00496921 0.00419209 0.00349112 0.0028663 0.00231763 0.00184512 0.00144875 0.00112854 0.000864041 0.000634805 0.000440837 0.000282136 0.000158701 7.05339e-05 1.76335e-05 0 0 0.000189913 0.000759651 0.00170921 0.0030386 0.00474782 0.00683686 0.00930572 0.0121544 0.0153877 0.0190105 0.0230227 0.0274243 0.0322154 0.037396 0.0429659 0.0489253 0.0551244 0.0614131 0.0677917 0.07426 0.0808182 0.087466 0.0942037 0.101031 0.107813 0.114416 0.120839 0.127081 0.133144 0.139027 0.14473 0.150253 0.155522 0.160463 0.165075 0.169359 0.173315 0.176942 0.180241 0.183211 0.185839 0.18811 0.190025 0.191583 0.192784 0.193629 0.194117 0.194249 0.194055 0.193567 0.192784 0.191707 0.190336 0.18867 0.18671 0.184456 0.181962 0.179284 0.176422 0.173376 0.170145 0.16673 0.163131 0.159348 0.155439 0.151462 0.147417 0.143304 0.139123 0.134875 0.130559 0.126174 0.121769 0.11739 0.113035 0.108707 0.104404 0.100126 0.0958745 0.0916482 0.0874762 0.0833876 0.0793822 0.0754601 0.0716213 0.0678658 0.0641936 0.0606046 0.0571112 0.0537255 0.0504475 0.0472771 0.0442145 0.0412596 0.0384125 0.035673 0.0330423 0.0305217 0.028111 0.0258103 0.0236196 0.0215389 0.0195681 0.0177073 0.0159525 0.0142996 0.0127485 0.0112994 0.00995219 0.00870689 0.00756348 0.00652199 0.00557336 0.00470854 0.00392755 0.00323038 0.00261703 0.0020875 0.0016418 0.00127991 0.000979929 0.000719948 0.000499964 0.000319977 0.000179987 7.99942e-05 1.99986e-05 0 0 0.000208721 0.000834882 0.00187849 0.00333953 0.00521801 0.00751394 0.0102273 0.0133581 0.0169089 0.0208821 0.0252777 0.0300959 0.0353364 0.0409994 0.0470849 0.0535929 0.0603599 0.0672227 0.0741814 0.0812358 0.088386 0.0956319 0.102974 0.110411 0.117799 0.12499 0.131986 0.138785 0.145389 0.151796 0.158008 0.164024 0.169763 0.175145 0.18017 0.184839 0.18915 0.193104 0.196701 0.199941 0.202809 0.205289 0.207381 0.209085 0.2104 0.211328 0.211868 0.21202 0.211817 0.211294 0.21045 0.209286 0.207801 0.205995 0.203868 0.201421 0.198713 0.195804 0.192693 0.189382 0.185869 0.182155 0.178239 0.174123 0.169868 0.165539 0.161136 0.156657 0.152104 0.147477 0.142775 0.137998 0.133197 0.128424 0.123678 0.118959 0.114267 0.109602 0.104965 0.100355 0.095803 0.0913417 0.0869707 0.0826899 0.0784995 0.0743993 0.0703894 0.0664698 0.0626539 0.0589551 0.0553734 0.0519089 0.0485614 0.045331 0.0422178 0.0392216 0.0363439 0.0335858 0.0309474 0.0284286 0.0260294 0.02375 0.0215902 0.01955 0.0176251 0.015811 0.0141078 0.0125154 0.0110338 0.0096631 0.00840321 0.00725415 0.00620637 0.00525031 0.00438595 0.0036133 0.00293236 0.00234313 0.00184562 0.00143981 0.00110235 0.000809892 0.000562425 0.000359952 0.000202473 8.9988e-05 2.2497e-05 0 0 0.000228069 0.000912278 0.00205262 0.00364911 0.00570173 0.0082105 0.0111754 0.0145964 0.0184736 0.0228067 0.0275959 0.0328412 0.0385424 0.0446997 0.0513131 0.0583825 0.0657307 0.0731806 0.0807322 0.0883855 0.0961404 0.103997 0.111955 0.120015 0.12802 0.135812 0.143392 0.150759 0.157914 0.164857 0.171587 0.178105 0.184323 0.190156 0.195602 0.200662 0.205336 0.209624 0.213526 0.217042 0.220155 0.222848 0.225121 0.226974 0.228407 0.22942 0.230014 0.230187 0.229977 0.22942 0.228514 0.227262 0.225662 0.223714 0.221419 0.218776 0.21585 0.212706 0.209343 0.205762 0.201962 0.197944 0.193706 0.189251 0.184645 0.179958 0.175189 0.170338 0.165406 0.160392 0.155297 0.150119 0.144916 0.139741 0.134595 0.129478 0.124389 0.119329 0.114298 0.109295 0.104356 0.0995137 0.094769 0.0901216 0.0855716 0.081119 0.0767637 0.0725058 0.0683599 0.0643407 0.0604481 0.0566822 0.0530429 0.0495303 0.0461444 0.0428851 0.0397539 0.0367522 0.03388 0.0311373 0.0285241 0.0260404 0.0236862 0.0214614 0.0193614 0.0173813 0.0155211 0.0137808 0.0121605 0.0106601 0.00927957 0.00801899 0.00686827 0.00581738 0.0048663 0.00401505 0.00326362 0.00261201 0.00206021 0.00160824 0.00123131 0.000904637 0.00062822 0.000402061 0.000226159 0.000100515 2.51288e-05 0 0 0.000247959 0.000991837 0.00223163 0.00396735 0.00619898 0.00892653 0.01215 0.0158694 0.0200818 0.0247845 0.0299773 0.0356603 0.0418335 0.0484968 0.0556504 0.0632942 0.0712367 0.0792868 0.0874443 0.0957092 0.104082 0.112561 0.121149 0.129844 0.138477 0.146882 0