<?xml version="1.0"?> 
<VTKFile type="StructuredGrid" version="0.1"> 
<StructuredGrid WholeExtent="0 128 0 128 0 0"> 
<Piece Extent="0 128 0 128 0 0"> 
<PointData>
<DataArray type="Float32" Name="u" format="ascii" NumberOfComponents="1"> 
0 0 0 0 0 0 0 0 0 0 0 0 0 0 0 0 0 0 0 0 0 0 0 0 0 0 0 0 0 0 0 0 0 0 0 0 0 0 0 0 0 0 0 0 0 0 0 0 0 0 0 0 0 0 0 0 0 0 0 0 0 0 0 0 0 0 0 0 0 0 0 0 0 0 0 0 0 0 0 0 0 0 0 0 0 0 0 0 0 0 0 0 0 0 0 0 0 0 0 0 0 0 0 0 0 0 0 0 0 0 0 0 0 0 0 0 0 0 0 0 0 0 0 0 0 0 0 0 0 0 2.89119e-07 1.15648e-06 2.60207e-06 4.6259e-06 7.22797e-06 1.04083e-05 1.41668e-05 1.85036e-05 2.35024e-05 2.92472e-05 3.57377e-05 4.29742e-05 5.09565e-05 5.96847e-05 6.91588e-05 7.93788e-05 9.00747e-05 0.000100977 0.000112085 0.000123399 0.000134919 0.000146646 0.000158578 0.000170716 0.000182804 0.000194582 0.000206052 0.000217213 0.000228066 0.000238609 0.000248844 0.000258771 0.000268257 0.000277173 0.000285518 0.000293292 0.000300496 0.000307128 0.00031319 0.000318681 0.000323581 0.000327869 0.000331546 0.000334611 0.000337065 0.000338907 0.000340137 0.000340756 0.000340818 0.000340379 0.000339439 0.000337997 0.000336054 0.000333609 0.000330663 0.000327216 0.000323358 0.000319181 0.000314684 0.000309867 0.000304731 0.000299274 0.000293498 0.000287403 0.00028108 0.000274622 0.000268029 0.000261302 0.000254439 0.000247441 0.000240309 0.000233041 0.000225712 0.000218392 0.000211083 0.000203783 0.000196494 0.000189216 0.000181947 0.000174689 0.000167487 0.000160388 0.000153391 0.000146497 0.000139706 0.000133017 0.00012643 0.000119946 0.000113589 0.000107384 0.00010133 9.54285e-05 8.96781e-05 8.40793e-05 7.86322e-05 7.33366e-05 6.82064e-05 6.32553e-05 5.84832e-05 5.38902e-05 4.94762e-05 4.52412e-05 4.11853e-05 3.73085e-05 3.36229e-05 3.01406e-05 2.68617e-05 2.37861e-05 2.09138e-05 1.82449e-05 1.57794e-05 1.35172e-05 1.14536e-05 9.58396e-06 7.90817e-06 6.42627e-06 5.13826e-06 4.04414e-06 3.14391e-06 2.43757e-06 1.86627e-06 1.37114e-06 9.52178e-07 6.09394e-07 3.42784e-07 1.52348e-07 3.80871e-08 0 0 1.15648e-06 4.6259e-06 1.04083e-05 1.85036e-05 2.89119e-05 4.16331e-05 5.66673e-05 7.40144e-05 9.40098e-05 0.000116989 0.000142951 0.000171897 0.000203826 0.000238739 0.000276635 0.000317515 0.000360299 0.000403907 0.000448339 0.000493596 0.000539677 0.000586582 0.000634312 0.000682866 0.000731215 0.000778329 0.000824208 0.000868852 0.000912262 0.000954437 0.000995377 0.00103508 0.00107303 0.00110869 0.00114207 0.00117317 0.00120198 0.00122851 0.00125276 0.00127472 0.00129432 0.00131148 0.00132618 0.00133844 0.00134826 0.00135563 0.00136055 0.00136302 0.00136327 0.00136152 0.00135775 0.00135199 0.00134421 0.00133444 0.00132265 0.00130886 0.00129343 0.00127672 0.00125874 0.00123947 0.00121892 0.0011971 0.00117399 0.00114961 0.00112432 0.00109849 0.00107212 0.00104521 0.00101776 0.000989766 0.000961236 0.000932166 0.000902846 0.000873568 0.00084433 0.000815133 0.000785978 0.000756863 0.000727789 0.000698757 0.000669949 0.000641552 0.000613566 0.000585989 0.000558823 0.000532066 0.000505721 0.000479785 0.000454357 0.000429536 0.000405322 0.000381714 0.000358712 0.000336317 0.000314529 0.000293347 0.000272826 0.000253021 0.000233933 0.000215561 0.000197905 0.000180965 0.000164741 0.000149234 0.000134492 0.000120562 0.000107447 9.51443e-05 8.36554e-05 7.29798e-05 6.31176e-05 5.40689e-05 4.58146e-05 3.83359e-05 3.16327e-05 2.57051e-05 2.05531e-05 1.61766e-05 1.25757e-05 9.7503e-06 7.46507e-06 5.48454e-06 3.80871e-06 2.43757e-06 1.37114e-06 6.09394e-07 1.52348e-07 0 0 2.60207e-06 1.04083e-05 2.34186e-05 4.16331e-05 6.50517e-05 9.36745e-05 0.000127501 0.000166532 0.000211522 0.000263224 0.00032164 0.000386768 0.000458609 0.000537163 0.000622429 0.000714409 0.000810672 0.00090879 0.00100876 0.00111059 0.00121427 0.00131981 0.0014272 0.00153645 0.00164523 0.00175124 0.00185447 0.00195492 0.00205259 0.00214748 0.0022396 0.00232894 0.00241432 0.00249456 0.00256966 0.00263963 0.00270446 0.00276416 0.00281871 0.00286813 0.00291223 0.00295082 0.00298391 0.0030115 0.00303358 0.00305016 0.00306123 0.0030668 0.00306736 0.00306341 0.00305495 0.00304197 0.00302448 0.00300248 0.00297597 0.00294495 0.00291023 0.00287263 0.00283215 0.0027888 0.00274257 0.00269347 0.00264149 0.00258663 0.00252972 0.0024716 0.00241227 0.00235172 0.00228995 0.00222697 0.00216278 0.00209737 0.0020314 0.00196553 0.00189974 0.00183405 0.00176845 0.00170294 0.00163753 0.0015722 0.00150739 0.00144349 0.00138052 0.00131848 0.00125735 0.00119715 0.00113787 0.00107952 0.0010223 0.000966457 0.000911974 0.000858856 0.000807103 0.000756714 0.00070769 0.00066003 0.000613858 0.000569298 0.000526349 0.000485011 0.000445285 0.000407171 0.000370668 0.000335777 0.000302606 0.000271265 0.000241755 0.000214075 0.000188225 0.000164205 0.000142015 0.000121655 0.000103083 8.62557e-05 7.11736e-05 5.78365e-05 4.62444e-05 3.63973e-05 2.82952e-05 2.19382e-05 1.67964e-05 1.23402e-05 8.5696e-06 5.48454e-06 3.08506e-06 1.37114e-06 3.42784e-07 0 0 4.6259e-06 1.85036e-05 4.16331e-05 7.40144e-05 0.000115648 0.000166532 0.000226669 0.000296058 0.000376039 0.000467955 0.000571804 0.000687587 0.000815305 0.000954956 0.00110654 0.00127006 0.0014412 0.00161563 0.00179336 0.00197438 0.00215871 0.00234633 0.00253725 0.00273146 0.00292486 0.00311331 0.00329683 0.00347541 0.00364905 0.00381775 0.00398151 0.00414033 0.00429212 0.00443477 0.00456829 0.00469268 0.00480793 0.00491405 0.00501104 0.0050989 0.0051773 0.00524591 0.00530474 0.00535378 0.00539303 0.0054225 0.00544219 0.00545209 0.00545309 0.00544606 0.00543102 0.00540795 0.00537686 0.00533775 0.00529061 0.00523546 0.00517373 0.0051069 0.00503494 0.00495787 0.00487569 0.00478839 0.00469598 0.00459845 0.00449728 0.00439396 0.00428847 0.00418083 0.00407103 0.00395906 0.00384494 0.00372866 0.00361138 0.00349427 0.00337732 0.00326053 0.00314391 0.00302745 0.00291116 0.00279503 0.0026798 0.00256621 0.00245426 0.00234396 0.00223529 0.00212827 0.00202288 0.00191914 0.00181743 0.00171815 0.00162129 0.00152686 0.00143485 0.00134527 0.00125811 0.00117339 0.0010913 0.00101208 0.000935731 0.000862242 0.000791619 0.00072386 0.000658965 0.000596936 0.000537966 0.00048225 0.000429787 0.000380577 0.000334621 0.000291919 0.000252471 0.000216275 0.000183258 0.000153343 0.000126531 0.00010282 8.22122e-05 6.47063e-05 5.03026e-05 3.90012e-05 2.98603e-05 2.19382e-05 1.52348e-05 9.7503e-06 5.48454e-06 2.43757e-06 6.09394e-07 0 0 7.22797e-06 2.89119e-05 6.50517e-05 0.000115648 0.000180699 0.000260207 0.000354171 0.00046259 0.000587561 0.000731179 0.000893444 0.00107436 0.00127391 0.00149212 0.00172897 0.00198447 0.00225187 0.00252442 0.00280212 0.00308497 0.00337298 0.00366614 0.00396445 0.00426791 0.00457009 0.00486455 0.0051513 0.00543033 0.00570164 0.00596523 0.00622111 0.00646927 0.00670643 0.00692933 0.00713795 0.00733231 0.0075124 0.00767821 0.00782976 0.00796703 0.00808953 0.00819673 0.00828865 0.00836528 0.00842661 0.00847266 0.00850342 0.00851889 0.00852045 0.00850947 0.00848596 0.00844992 0.00840134 0.00834023 0.00826658 0.0081804 0.00808396 0.00797952 0.0078671 0.00774668 0.00761826 0.00748186 0.00733746 0.00718507 0.007027 0.00686556 0.00670074 0.00653254 0.00636098 0.00618604 0.00600772 0.00582603 0.00564279 0.0054598 0.00527706 0.00509458 0.00491236 0.00473039 0.00454868 0.00436723 0.00418718 0.0040097 0.00383479 0.00366243 0.00349264 0.00332542 0.00316075 0.00299865 0.00283973 0.0026846 0.00253326 0.00238571 0.00224195 0.00210198 0.0019658 0.00183342 0.00170516 0.00158138 0.00146208 0.00134725 0.0012369 0.00113103 0.00102963 0.000932713 0.000840572 0.000753515 0.000671542 0.000594652 0.000522846 0.000456124 0.000394485 0.00033793 0.000286341 0.000239599 0.000197704 0.000160657 0.000128457 0.000101104 7.85978e-05 6.09394e-05 4.66567e-05 3.42784e-05 2.38044e-05 1.52348e-05 8.5696e-06 3.80871e-06 9.52178e-07 0 0 1.04083e-05 4.16331e-05 9.36745e-05 0.000166532 0.000260207 0.000374698 0.000510006 0.00066613 0.000846088 0.0010529 0.00128656 0.00154707 0.00183444 0.00214865 0.00248972 0.00285764 0.00324269 0.00363516 0.00403505 0.00444236 0.00485709 0.00527924 0.00570881 0.00614579 0.00658093 0.00700496 0.00741787 0.00781967 0.00821036 0.00858993 0.0089584 0.00931575 0.00965726 0.00997823 0.0102787 0.0105585 0.0108178 0.0110566 0.0112748 0.0114725 0.0116489 0.0118033 0.0119357 0.012046 0.0121343 0.0122006 0.0122449 0.0122672 0.0122694 0.0122536 0.0122198 0.0121679 0.0120979 0.0120099 0.0119039 0.0117798 0.0116409 0.0114905 0.0113286 0.0111552 0.0109703 0.0107739 0.0105659 0.0103465 0.0101189 0.0098864 0.00964906 0.00940686 0.00915981 0.00890789 0.00865112 0.00838949 0.00812561 0.00786211 0.00759897 0.0073362 0.0070738 0.00681177 0.0065501 0.00628881 0.00602954 0.00577397 0.00552209 0.0052739 0.0050294 0.0047886 0.00455148 0.00431806 0.00408922 0.00386583 0.0036479 0.00343543 0.00322841 0.00302686 0.00283076 0.00264012 0.00245543 0.00227719 0.0021054 0.00194005 0.00178114 0.00162868 0.00148267 0.00134311 0.00121042 0.00108506 0.00096702 0.000856299 0.000752898 0.000656818 0.000568059 0.00048662 0.000412331 0.000345023 0.000284694 0.000231346 0.000184977 0.000145589 0.000113181 8.77527e-05 6.71857e-05 4.93609e-05 3.42784e-05 2.19382e-05 1.23402e-05 5.48454e-06 1.37114e-06 0 0 1.41668e-05 5.66673e-05 0.000127501 0.000226669 0.000354171 0.000510006 0.000694174 0.000906677 0.00115162 0.00143311 0.00175115 0.00210574 0.00249687 0.00292455 0.00338878 0.00388956 0.00441366 0.00494786 0.00549216 0.00604655 0.00661104 0.00718563 0.00777032 0.00836511 0.00895738 0.00953452 0.0100965 0.0106434 0.0111752 0.0116919 0.0121934 0.0126798 0.0131446 0.0135815 0.0139904 0.0143713 0.0147243 0.0150493 0.0153463 0.0156154 0.0158555 0.0160656 0.0162458 0.0163959 0.0165162 0.0166064 0.0166667 0.016697 0.0167001 0.0166786 0.0166325 0.0165618 0.0164666 0.0163469 0.0162025 0.0160336 0.0158446 0.0156399 0.0154195 0.0151835 0.0149318 0.0146644 0.0143814 0.0140827 0.0137729 0.0134565 0.0131334 0.0128038 0.0124675 0.0121246 0.0117751 0.011419 0.0110599 0.0107012 0.010343 0.00998538 0.00962823 0.00927157 0.00891542 0.00855977 0.00820688 0.00785902 0.00751618 0.00717837 0.00684558 0.00651781 0.00619508 0.00587736 0.00556588 0.00526182 0.00496519 0.004676 0.00439423 0.00411989 0.00385298 0.0035935 0.00334212 0.00309951 0.00286568 0.00264062 0.00242433 0.00221682 0.00201808 0.00182812 0.00164752 0.00147689 0.00131622 0.00116552 0.00102478 0.000894003 0.000773191 0.000662344 0.000561229 0.000469614 0.0003875 0.000314887 0.000251775 0.000198163 0.000154052 0.000119441 9.14471e-05 6.71857e-05 4.66567e-05 2.98603e-05 1.67964e-05 7.46507e-06 1.86627e-06 0 0 1.85036e-05 7.40144e-05 0.000166532 0.000296058 0.00046259 0.00066613 0.000906677 0.00118423 0.00150416 0.00187182 0.00228722 0.00275035 0.00326122 0.00381982 0.00442616 0.00508024 0.00576478 0.00646251 0.00717343 0.00789753 0.00863483 0.00938532 0.010149 0.0109259 0.0116994 0.0124533 0.0131873 0.0139016 0.0145962 0.015271 0.015926 0.0165613 0.0171685 0.0177391 0.0182732 0.0187707 0.0192317 0.0196562 0.0200442 0.0203956 0.0207092 0.0209836 0.0212189 0.0214151 0.0215721 0.02169 0.0217688 0.0218084 0.0218124 0.0217843 0.0217241 0.0216318 0.0215074 0.021351 0.0211625 0.0209418 0.0206949 0.0204276 0.0201398 0.0198315 0.0195028 0.0191536 0.0187839 0.0183938 0.0179891 0.0175758 0.0171539 0.0167233 0.0162841 0.0158363 0.0153798 0.0149146 0.0144455 0.0139771 0.0135093 0.0130421 0.0125756 0.0121098 0.0116446 0.0111801 0.0107192 0.0102648 0.00981705 0.00937582 0.00894116 0.00851306 0.00809153 0.00767656 0.00726972 0.00687258 0.00648515 0.00610742 0.0057394 0.00538108 0.00503246 0.00469354 0.00436521 0.00404834 0.00374292 0.00344897 0.00316647 0.00289544 0.00263586 0.00238774 0.00215186 0.001929 0.00171915 0.00152231 0.00133849 0.00116768 0.00100988 0.000865102 0.000733033 0.000613374 0.000506123 0.000411281 0.000328849 0.000258825 0.00020121 0.000156005 0.000119441 8.77527e-05 6.09394e-05 3.90012e-05 2.19382e-05 9.7503e-06 2.43757e-06 0 0 2.3532e-05 9.41279e-05 0.000211788 0.000376512 0.000588299 0.000847151 0.00115307 0.00150605 0.00191266 0.00237948 0.00290651 0.00349375 0.00414119 0.00484884 0.0056167 0.00644477 0.00731122 0.00819424 0.00909382 0.01001 0.0109427 0.011892 0.0128578 0.0138402 0.0148184 0.0157717 0.0167 0.0176033 0.0184816 0.019335 0.0201634 0.0209669 0.0217348 0.0224565 0.0231321 0.0237616 0.0243448 0.024882 0.0253729 0.0258177 0.0262147 0.0265622 0.0268603 0.0271088 0.0273079 0.0274575 0.0275576 0.0276082 0.0276138 0.0275788 0.0275031 0.027387 0.0272302 0.0270328 0.0267948 0.0265162 0.0262044 0.0258667 0.025503 0.0251135 0.024698 0.0242566 0.0237893 0.0232961 0.0227845 0.0222619 0.0217283 0.0211838 0.0206283 0.0200618 0.0194844 0.018896 0.0183025 0.0177098 0.0171179 0.0165268 0.0159365 0.015347 0.0147583 0.0141704 0.013587 0.0130119 0.0124451 0.0118865 0.0113363 0.0107943 0.0102606 0.00973519 0.00922004 0.00871716 0.00822655 0.0077482 0.00728212 0.0068283 0.00638675 0.00595747 0.00554156 0.00514014 0.00475321 0.00438077 0.00402281 0.00367935 0.00335037 0.00303588 0.00273685 0.00245427 0.00218813 0.00193842 0.00170516 0.00148834 0.00128795 0.00110401 0.000936137 0.000783962 0.000647484 0.000526704 0.000421622 0.000332237 0.00025855 0.000200561 0.000153555 0.000112816 7.83441e-05 5.01403e-05 2.82039e-05 1.25351e-05 3.13377e-06 0 0 2.93653e-05 0.000117461 0.000264287 0.000469844 0.000734132 0.00105715 0.0014389 0.00187938 0.0023861 0.00296657 0.0036208 0.00434878 0.00515051 0.00602599 0.00697523 0.00799822 0.00906814 0.0101582 0.0112683 0.0123985 0.0135488 0.0147192 0.0159097 0.0171204 0.0183257 0.0195003 0.0206442 0.0217573 0.0228398 0.0238916 0.0249126 0.025903 0.0268496 0.0277394 0.0285725 0.0293488 0.0300683 0.0307311 0.0313371 0.0318863 0.0323767 0.0328062 0.0331747 0.0334823 0.033729 0.0339147 0.0340396 0.0341034 0.0341118 0.0340701 0.0339783 0.0338365 0.0336446 0.0334027 0.0331106 0.0327685 0.0323854 0.0319702 0.0315229 0.0310437 0.0305324 0.0299891 0.0294137 0.0288063 0.0281761 0.0275322 0.0268747 0.0262036 0.0255188 0.0248204 0.0241084 0.0233827 0.0226507 0.0219196 0.0211893 0.0204599 0.0197314 0.0190038 0.0182771 0.0175512 0.0168309 0.0161207 0.0154207 0.0147308 0.0140511 0.0133815 0.0127221 0.0120728 0.0114362 0.0108146 0.0102082 0.00961683 0.00904059 0.00847945 0.00793341 0.00740246 0.006888 0.00639137 0.0059126 0.00545167 0.00500858 0.00458335 0.00417595 0.00378641 0.00341589 0.00306558 0.00273549 0.00242561 0.00213593 0.00186647 0.00161722 0.00138819 0.00117893 0.000989039 0.000818505 0.000667331 0.000535516 0.00042306 0.000329964 0.000256227 0.000196174 0.000144128 0.000100089 6.40568e-05 3.6032e-05 1.60142e-05 4.00355e-06 0 0 3.60035e-05 0.000144014 0.000324031 0.000576056 0.000900087 0.00129613 0.00176417 0.00230422 0.00292447 0.00363308 0.00443007 0.00531543 0.00628917 0.00735127 0.00850176 0.00974061 0.0110355 0.0123543 0.0136968 0.0150631 0.0164532 0.0178671 0.0193048 0.0207663 0.0222212 0.0236391 0.02502 0.0263639 0.0276708 0.0289407 0.0301736 0.0313695 0.0325128 0.0335876 0.0345942 0.0355323 0.0364021 0.0372036 0.0379367 0.0386014 0.0391952 0.0397155 0.0401624 0.0405357 0.0408355 0.0410619 0.0412148 0.0412941 0.0413065 0.0412583 0.0411497 0.0409805 0.0407508 0.0404606 0.0401099 0.0396987 0.0392378 0.0387381 0.0381995 0.0376221 0.0370059 0.0363509 0.035657 0.0349243 0.0341638 0.0333867 0.032593 0.0317826 0.0309557 0.030112 0.0292518 0.0283749 0.0274901 0.0266063 0.0257233 0.0248413 0.0239603 0.0230801 0.0222009 0.0213226 0.0204508 0.0195912 0.0187438 0.0179086 0.0170855 0.0162746 0.0154759 0.0146894 0.0139181 0.0131649 0.01243 0.0117133 0.0110148 0.0103345 0.00967242 0.00902853 0.00840452 0.00780204 0.00722109 0.00666168 0.00612379 0.00560744 0.00511262 0.00463933 0.00418897 0.00376294 0.00336124 0.00298386 0.00263081 0.00230209 0.0019977 0.00171763 0.00146142 0.00122861 0.00101919 0.000833161 0.000670531 0.000531294 0.000415452 0.000323004 0.0002473 0.00018169 0.000126173 8.07509e-05 4.54224e-05 2.01877e-05 5.04693e-06 0 0 4.34466e-05 0.000173787 0.00039102 0.000695146 0.00108617 0.00156408 0.00212888 0.00278058 0.00352776 0.00437901 0.00533433 0.00639371 0.00755716 0.00882468 0.0101963 0.0116719 0.0132134 0.0147826 0.0163794 0.0180038 0.0196559 0.0213357 0.023043 0.024778 0.026505 0.0281881 0.0298274 0.0314228 0.0329745 0.0344823 0.0359464 0.0373666 0.0387244 0.0400013 0.0411972 0.0423122 0.0433463 0.0442995 0.0451717 0.045963 0.0466702 0.0472903 0.0478232 0.0482689 0.0486275 0.0488989 0.0490832 0.0491802 0.0491978 0.0491434 0.0490171 0.0488189 0.0485487 0.0482067 0.0477927 0.0473067 0.0467617 0.0461704 0.0455327 0.0448488 0.0441186 0.043342 0.0425192 0.04165 0.0407478 0.0398255 0.0388833 0.037921 0.0369388 0.0359367 0.0349145 0.0338724 0.0328207 0.0317699 0.0307201 0.0296711 0.0286231 0.027576 0.0265298 0.0254845 0.0244468 0.0234235 0.0224145 0.0214199 0.0204396 0.0194737 0.0185222 0.017585 0.0166658 0.0157681 0.0148921 0.0140376 0.0132048 0.0123935 0.0116038 0.0108357 0.0100911 0.00937214 0.00867869 0.00801079 0.00736844 0.00675163 0.00616037 0.00559465 0.00505611 0.00454635 0.00406537 0.00361319 0.0031898 0.00279519 0.00242937 0.00209233 0.0017836 0.00150266 0.00124953 0.0010242 0.000826667 0.000656939 0.000515014 0.00040089 0.000306932 0.000225501 0.000156598 0.000100223 5.63752e-05 2.50556e-05 6.26391e-06 0 0 5.16947e-05 0.000206779 0.000465252 0.000827115 0.00129237 0.00186101 0.00253304 0.00330846 0.00419599 0.00520437 0.00633357 0.00758362 0.0089545 0.0104462 0.0120588 0.0137922 0.0156018 0.0174431 0.0193161 0.0212206 0.0231569 0.0251248 0.0271244 0.0291556 0.031177 0.0331473 0.0350664 0.0369343 0.038751 0.0405165 0.0422309 0.0438941 0.0454844 0.0469803 0.0483816 0.0496885 0.0509009 0.0520187 0.0530421 0.053971 0.0548016 0.0555303 0.0561571 0.0566819 0.0571048 0.0574258 0.0576448 0.0577618 0.0577858 0.0577254 0.0575807 0.0573517 0.0570384 0.0566408 0.0561589 0.0555927 0.0549571 0.0542671 0.0535226 0.0527237 0.0518703 0.0509625 0.0500003 0.0489836 0.0479279 0.0468485 0.0457454 0.0446187 0.0434683 0.0422943 0.0410966 0.0398752 0.0386425 0.0374106 0.0361795 0.0349493 0.0337199 0.0324914 0.0312637 0.0300369 0.0288188 0.0276174 0.0264327 0.0252647 0.0241134 0.0229788 0.0218608 0.0207596 0.0196793 0.0186242 0.0175944 0.0165898 0.0156105 0.0146564 0.0137275 0.0128239 0.0119478 0.0111017 0.0102854 0.00949901 0.00874252 0.00801591 0.00731919 0.00665237 0.00601728 0.00541579 0.0048479 0.00431359 0.00381288 0.00334576 0.00291224 0.00251231 0.00214547 0.00181121 0.00150953 0.00124044 0.00100392 0.000799996 0.00062865 0.000489887 0.000375069 0.000275561 0.000191362 0.000122472 6.88903e-05 3.06179e-05 7.65448e-06 0 0 6.07477e-05 0.000242991 0.000546729 0.000971963 0.00151869 0.00218692 0.00297664 0.00388785 0.00492916 0.00610914 0.00742781 0.00888515 0.0104812 0.0122159 0.0140893 0.0161014 0.0182007 0.0203358 0.0225068 0.0247136 0.0269562 0.0292346 0.0315488 0.0338989 0.0362373 0.0385167 0.0407369 0.0428981 0.0450002 0.0470433 0.0490272 0.0509521 0.0527929 0.0545247 0.0561474 0.0576611 0.0590657 0.0603614 0.0615479 0.0626255 0.0635895 0.0644358 0.0651642 0.0657748 0.0662676 0.0666425 0.0668996 0.0670388 0.0670703 0.0670042 0.0668404 0.0665789 0.0662198 0.065763 0.0652086 0.0645565 0.063824 0.0630282 0.0621691 0.0612468 0.0602612 0.0592124 0.0581003 0.056925 0.0557042 0.0544557 0.0531795 0.0518757 0.0505442 0.049185 0.0477981 0.0463835 0.0449555 0.0435282 0.0421016 0.0406758 0.0392507 0.0378263 0.0364027 0.0349798 0.0335669 0.0321731 0.0307985 0.0294431 0.0281069 0.0267898 0.0254919 0.0242131 0.0229586 0.0217332 0.0205369 0.0193698 0.0182319 0.0171232 0.0160436 0.0149932 0.0139746 0.0129906 0.0120412 0.0111263 0.010246 0.00940029 0.0085891 0.00781248 0.00707251 0.00637128 0.0057088 0.00508506 0.00450007 0.00395382 0.00344631 0.00297755 0.00254703 0.00215424 0.00179919 0.00148188 0.0012023 0.000960463 0.00075636 0.000589993 0.000451714 0.000331871 0.000230466 0.000147498 8.29678e-05 3.68746e-05 9.21864e-06 0 0 7.06056e-05 0.000282422 0.000635451 0.00112969 0.00176514 0.0025418 0.00345968 0.00451876 0.00572725 0.00709334 0.00861703 0.0102983 0.0121372 0.0141337 0.0162878 0.0185995 0.02101 0.0234607 0.0259516 0.0284826 0.0310537 0.033665 0.0363164 0.039008 0.0416859 0.0442963 0.0468391 0.0493144 0.0517223 0.0540626 0.0563353 0.0585406 0.0606498 0.0626345 0.0644945 0.0662301 0.067841 0.0693274 0.0706892 0.0719264 0.0730339 0.0740066 0.0748445 0.0755475 0.0761157 0.0765491 0.0768476 0.0770113 0.0770516 0.0769799 0.0767962 0.0765006 0.0760929 0.0755733 0.0749418 0.0741982 0.0733623 0.0724537 0.0714723 0.0704182 0.0692913 0.0680917 0.0668193 0.0654742 0.0640767 0.0626472 0.0611856 0.059692 0.0581663 0.0566086 0.0550189 0.0533972 0.0517597 0.0501227 0.0484864 0.0468506 0.0452154 0.0435808 0.0419468 0.0403133 0.038691 0.0370905 0.0355119 0.033955 0.03242 0.0309067 0.0294153 0.0279457 0.0265037 0.025095 0.0237197 0.0223777 0.0210691 0.0197939 0.018552 0.0173435 0.0161715 0.015039 0.0139461 0.0128928 0.011879 0.0109048 0.00997009 0.00907498 0.00822178 0.00741282 0.00664809 0.00592761 0.00525136 0.00461935 0.00403158 0.00348806 0.00298828 0.00253176 0.00211851 0.00174853 0.0014218 0.00113834 0.000898144 0.00070121 0.000536864 0.000394431 0.00027391 0.000175302 9.86076e-05 4.38256e-05 1.09564e-05 0 0 8.12685e-05 0.000325074 0.000731416 0.0013003 0.00203171 0.00292566 0.00398215 0.00520118 0.00659027 0.00815696 0.00990123 0.0118231 0.0139226 0.0161996 0.0186543 0.0212865 0.0240298 0.0268178 0.0296504 0.0325277 0.0354495 0.038416 0.0414271 0.0444829 0.0475227 0.050486 0.0533729 0.0561832 0.058917 0.0615744 0.0641552 0.0666596 0.0690552 0.0713096 0.073423 0.0753954 0.0772266 0.0789168 0.0804658 0.0818738 0.0831348 0.0842428 0.0851979 0.0860001 0.0866493 0.0871455 0.0874888 0.0876792 0.0877294 0.0876524 0.0874481 0.0871166 0.0866578 0.0860717 0.0853584 0.0845178 0.0835722 0.0825436 0.0814321 0.0802377 0.0789605 0.0776003 0.0761572 0.0746312 0.0730454 0.0714229 0.0697636 0.0680676 0.0663348 0.0645653 0.0627591 0.0609162 0.059055 0.0571943 0.0553339 0.0534738 0.0516142 0.0497548 0.0478959 0.0460373 0.0441912 0.0423697 0.0405728 0.0388005 0.0370528 0.0353297 0.0336311 0.0319572 0.0303145 0.0287097 0.0271426 0.0256134 0.0241221 0.0226685 0.0212528 0.019875 0.0185385 0.0172469 0.0160001 0.0147983 0.0136414 0.0125293 0.0114622 0.0104399 0.0094651 0.00854039 0.00766577 0.00684122 0.00606675 0.00534237 0.00466806 0.00404383 0.00346922 0.00294378 0.0024675 0.00204038 0.00166242 0.00133363 0.001054 0.000823537 0.00063052 0.000463239 0.000321694 0.000205884 0.00011581 5.1471e-05 1.28678e-05 0 0 9.25118e-05 0.000370047 0.000832606 0.00148019 0.00231279 0.00333042 0.00453308 0.00592075 0.00750009 0.00927774 0.0112537 0.013428 0.0158005 0.0183714 0.0211406 0.024108 0.0271992 0.0303396 0.0335291 0.0367678 0.0400556 0.0433926 0.0467787 0.050214 0.053631 0.056962 0.0602073 0.0633667 0.0664402 0.0694279 0.0723297 0.0751457 0.0778397 0.0803754 0.0827529 0.0849721 0.0870332 0.088936 0.0906805 0.0922668 0.0936881 0.0949377 0.0960154 0.0969213 0.0976555 0.0982179 0.0986085 0.0988273 0.0988887 0.0988068 0.0985818 0.0982135 0.097702 0.0970474 0.0962495 0.0953085 0.094249 0.0930961 0.0918496 0.0905096 0.0890761 0.087549 0.0859284 0.0842143 0.0824326 0.0806091 0.0787441 0.0768373 0.0748888 0.0728987 0.0708669 0.0687934 0.0666991 0.0646049 0.0625108 0.0604168 0.0583229 0.0562291 0.0541354 0.0520418 0.049962 0.0479096 0.0458848 0.0438874 0.0419174 0.039975 0.03806 0.0361726 0.0343201 0.03251 0.0307425 0.0290174 0.0273348 0.0256946 0.024097 0.0225418 0.0210331 0.0195747 0.0181669 0.0168094 0.0155024 0.0142458 0.0130396 0.0118838 0.0107813 0.00973501 0.00874481 0.00781075 0.00693282 0.00611104 0.00534539 0.00463588 0.00398211 0.00338367 0.00284056 0.00235279 0.00192036 0.00154326 0.00122149 0.000955058 0.000731216 0.00053722 0.00037307 0.000238765 0.000134305 5.96911e-05 1.49228e-05 0 0 0.000104111 0.000416444 0.000937 0.00166578 0.00260278 0.003748 0.00510144 0.00666311 0.00843858 0.0104334 0.0126477 0.0150813 0.0177343 0.0206067 0.0236985 0.0270097 0.0304573 0.0339586 0.0375134 0.0411219 0.044784 0.0484996 0.0522689 0.0560918 0.0598937 0.0636003 0.0672114 0.0707271 0.0741474 0.0774723 0.0807017 0.0838357 0.0868342 0.089657 0.0923041 0.0947756 0.0970713 0.0991914 0.101136 0.102904 0.10449 0.105884 0.107088 0.1081 0.108922 0.109552 0.109992 0.110241 0.110314 0.110228 0.109983 0.109578 0.109013 0.108289 0.107406 0.106363 0.105188 0.103909 0.102526 0.101038 0.0994454 0.0977486 0.0959473 0.0940417 0.0920604 0.0900324 0.0879576 0.0858359 0.0836675 0.0814523 0.0791903 0.0768816 0.0745493 0.0722167 0.069884 0.067551 0.0652178 0.0628843 0.0605506 0.0582167 0.0558979 0.0536094 0.0513513 0.0491236 0.0469263 0.0447593 0.0426227 0.0405165 0.0384491 0.0364288 0.0344558 0.0325299 0.0306512 0.0288197 0.0270354 0.0252983 0.0236128 0.0219833 0.0204099 0.0188925 0.0174312 0.0160259 0.0146766 0.0133834 0.0121494 0.0109776 0.00986819 0.00882102 0.00783614 0.00691354 0.00605324 0.00525522 0.00451918 0.00384482 0.00323214 0.00268113 0.0021918 0.00176414 0.00139816 0.00109386 0.000837486 0.000615296 0.000427289 0.000273465 0.000153824 6.83662e-05 1.70915e-05 0 0 0.000116066 0.000464265 0.0010446 0.00185706 0.00290166 0.00417839 0.00568725 0.00742825 0.00940572 0.011624 0.0140832 0.0167831 0.0197239 0.0229056 0.026328 0.0299913 0.033804 0.0376747 0.0416033 0.04559 0.0496346 0.0537371 0.0578977 0.0621162 0.0663111 0.0704008 0.0743852 0.0782645 0.0820386 0.0857075 0.0892711 0.0927296 0.0960387 0.0991544 0.102077 0.104806 0.107341 0.109683 0.111832 0.113787 0.11554 0.117083 0.118415 0.119537 0.120448 0.121149 0.121639 0.121919 0.122006 0.121916 0.121651 0.121209 0.120591 0.119798 0.118828 0.117682 0.11639 0.114983 0.113461 0.111822 0.110068 0.108199 0.106214 0.104113 0.101929 0.0996926 0.0974041 0.0950635 0.0926709 0.0902262 0.0877295 0.0851807 0.0826055 0.0800298 0.0774534 0.0748764 0.0722987 0.0697205 0.0671416 0.0645621 0.061999 0.0594691 0.0569725 0.0545093 0.0520793 0.0496826 0.0473192 0.0449891 0.0427016 0.0404661 0.0382826 0.036151 0.0340714 0.0320438 0.0300681 0.0281444 0.0262776 0.0244725 0.0227292 0.0210476 0.0194277 0.0178696 0.0163733 0.0149387 0.0135692 0.0122683 0.0110359 0.00987204 0.0087767 0.00774988 0.0067916 0.00590184 0.00508045 0.00432724 0.00364222 0.00302539 0.00247674 0.00199629 0.00158402 0.00123994 0.000949329 0.000697466 0.000484351 0.000309985 0.000174367 7.74962e-05 1.93741e-05 0 0 0.000128378 0.000513511 0.0011554 0.00205404 0.00320944 0.0046216 0.0062905 0.00821617 0.0104015 0.0128495 0.0155602 0.0185335 0.0217694 0.025268 0.0290292 0.0330531 0.0372394 0.041488 0.0457989 0.050172 0.0546074 0.0591051 0.063665 0.0682872 0.0728829 0.0773635 0.0817288 0.0859789 0.0901138 0.0941335 0.098038 0.101827 0.105453 0.108868 0.112071 0.115062 0.117842 0.120411 0.122768 0.124914 0.126839 0.128533 0.129997 0.131231 0.132234 0.133007 0.13355 0.133863 0.133963 0.133871 0.133586 0.133108 0.132437 0.131572 0.130515 0.129265 0.127855 0.126318 0.124654 0.122863 0.120945 0.1189 0.116728 0.114429 0.112038 0.10959 0.107084 0.10452 0.101899 0.0992204 0.0964843 0.0936908 0.0908679 0.088044 0.085219 0.082393 0.0795658 0.0767376 0.0739083 0.071078 0.0682652 0.0654886 0.0627483 0.0600443 0.0573764 0.0547448 0.0521494 0.0495903 0.0470777 0.0446219 0.0422229 0.0398808 0.0375954 0.0353669 0.0331952 0.0310803 0.0290276 0.0270424 0.0251248 0.0232747 0.0214921 0.0197771 0.0181296 0.0165496 0.0150409 0.013607 0.012248 0.0109638 0.0097545 0.00862006 0.00756048 0.00657576 0.0056659 0.00483092 0.00407081 0.00338556 0.00277519 0.00223969 0.00177906 0.0013933 0.00106674 0.000783731 0.000544258 0.000348325 0.000195933 8.70812e-05 2.17703e-05 0 0 0.000141045 0.00056418 0.0012694 0.00225672 0.00352612 0.00507762 0.0069112 0.00902687 0.011426 0.01411 0.0170787 0.0203323 0.0238707 0.027694 0.031802 0.0361949 0.0407635 0.0453985 0.0501 0.054868 0.0597025 0.0646035 0.0695709 0.0746049 0.0796094 0.0844884 0.089242 0.0938702 0.098373 0.10275 0.107002 0.111129 0.115078 0.118797 0.122286 0.125545 0.128575 0.131375 0.133945 0.136285 0.138386 0.140235 0.141834 0.143183 0.144281 0.145128 0.145725 0.146071 0.146187 0.146093 0.145788 0.145274 0.144549 0.143613 0.142468 0.141112 0.139582 0.137914 0.136106 0.13416 0.132076 0.129852 0.12749 0.12499 0.122388 0.119724 0.116996 0.114206 0.111352 0.108435 0.105455 0.102412 0.0993364 0.0962594 0.0931809 0.0901007 0.087019 0.0839356 0.0808507 0.0777642 0.0746965 0.071668 0.0686787 0.0657286 0.0628177 0.059946 0.0571134 0.0543201 0.0515772 0.0488961 0.0462767 0.0437191 0.0412231 0.038789 0.0364165 0.0341058 0.0318627 0.029693 0.0275966 0.0255738 0.0236243 0.0217482 0.0199455 0.0182163 0.0165643 0.0149937 0.0135044 0.0120963 0.0107696 0.00952407 0.00835987 0.00727696 0.00627555 0.00535587 0.0045179 0.00376166 0.00308715 0.00249435 0.00198329 0.00155394 0.00118973 0.000874091 0.000607007 0.000388485 0.000218523 9.71212e-05 2.42803e-05 0 0 0.000154068 0.000616273 0.00138661 0.00246509 0.0038517 0.00554645 0.00754934 0.00986036 0.0124791 0.0154053 0.0186388 0.0221797 0.0260279 0.0301835 0.0346465 0.0394168 0.0443762 0.0494061 0.0545067 0.059678 0.0649198 0.0702323 0.0756154 0.0810692 0.0864903 0.0917756 0.096925 0.101939 0.106816 0.111558 0.116164 0.120634 0.124912 0.128942 0.132723 0.136255 0.13954 0.142575 0.145363 0.147902 0.150181 0.152189 0.153926 0.155392 0.156587 0.157511 0.158163 0.158545 0.158677 0.158581 0.158258 0.157707 0.156928 0.155921 0.154686 0.153224 0.151572 0.14977 0.147817 0.145714 0.14346 0.141055 0.1385 0.135794 0.132979 0.130095 0.127142 0.12412 0.121029 0.11787 0.114641 0.111344 0.108011 0.104676 0.101339 0.0979997 0.0946582 0.0913146 0.0879689 0.084621 0.081293 0.0780073 0.0747637 0.0715624 0.0684031 0.0652861 0.0622112 0.0591785 0.0562003 0.0532888 0.050444 0.047666 0.0449546 0.04231 0.0397322 0.037221 0.0347829 0.0324242 0.0301448 0.0279448 0.0258242 0.023783 0.0218211 0.0199385 0.0181396 0.0164285 0.0148051 0.0132696 0.0118219 0.0104619 0.00918979 0.00800545 0.00690939 0.00590208 0.00498351 0.00415369 0.00341261 0.00276028 0.0021967 0.00172186 0.0013183 0.000968545 0.00067260