<?xml version="1.0"?> 
<VTKFile type="StructuredGrid" version="0.1"> 
<StructuredGrid WholeExtent="0 128 0 128 0 0"> 
<Piece Extent="0 128 0 128 0 0"> 
<PointData>
<DataArray type="Float32" Name="u" format="ascii" NumberOfComponents="1"> 
0 0 0 0 0 0 0 0 0 0 0 0 0 0 0 0 0 0 0 0 0 0 0 0 0 0 0 0 0 0 0 0 0 0 0 0 0 0 0 0 0 0 0 0 0 0 0 0 0 0 0 0 0 0 0 0 0 0 0 0 0 0 0 0 0 0 0 0 0 0 0 0 0 0 0 0 0 0 0 0 0 0 0 0 0 0 0 0 0 0 0 0 0 0 0 0 0 0 0 0 0 0 0 0 0 0 0 0 0 0 0 0 0 0 0 0 0 0 0 0 0 0 0 0 0 0 0 0 0 0 4.45936e-07 1.78375e-06 4.01343e-06 7.13498e-06 1.11484e-05 1.60537e-05 2.18509e-05 2.85399e-05 3.62523e-05 4.51193e-05 5.51412e-05 6.63177e-05 7.86489e-05 9.21349e-05 0.000106776 0.000122571 0.0001391 0.000155942 0.000173096 0.000190563 0.000208343 0.000226435 0.00024484 0.000263557 0.000282179 0.000300297 0.000317911 0.000335021 0.000351628 0.000367731 0.000383329 0.000398424 0.000412804 0.000426255 0.000438778 0.000450373 0.00046104 0.000470779 0.000479589 0.000487472 0.000494394 0.000500324 0.00050526 0.000509203 0.000512153 0.00051411 0.000515074 0.000515044 0.000514118 0.00051239 0.00050986 0.000506528 0.000502395 0.000497461 0.000491724 0.000485186 0.000478006 0.000470343 0.000462198 0.000453571 0.00044446 0.000434868 0.000424793 0.000414235 0.000403358 0.000392326 0.000381139 0.000369796 0.000358298 0.000346645 0.000334836 0.000322872 0.00031088 0.000298986 0.000287191 0.000275495 0.000263897 0.000252399 0.000240999 0.000229697 0.00021857 0.00020769 0.000197059 0.000186676 0.000176541 0.000166654 0.000157016 0.000147626 0.000138512 0.000129703 0.000121199 0.000113 0.000105106 9.75163e-05 9.02315e-05 8.32516e-05 7.65761e-05 7.0205e-05 6.41383e-05 5.83758e-05 5.29176e-05 4.77637e-05 4.29142e-05 3.83689e-05 3.4116e-05 3.01437e-05 2.64517e-05 2.30403e-05 1.99093e-05 1.70588e-05 1.44887e-05 1.21992e-05 1.0156e-05 8.32526e-06 6.70689e-06 5.30091e-06 4.10733e-06 3.12613e-06 2.35732e-06 1.8009e-06 1.37881e-06 1.01301e-06 7.03476e-07 4.50225e-07 2.53251e-07 1.12556e-07 2.8139e-08 0 0 1.78375e-06 7.13498e-06 1.60537e-05 2.85399e-05 4.45936e-05 6.42148e-05 8.74035e-05 0.00011416 0.000145009 0.000180477 0.000220565 0.000265271 0.000314596 0.00036854 0.000427103 0.000490284 0.000556401 0.000623768 0.000692385 0.000762253 0.000833371 0.00090574 0.000979359 0.00105423 0.00112872 0.00120119 0.00127164 0.00134009 0.00140651 0.00147092 0.00153332 0.0015937 0.00165121 0.00170502 0.00175511 0.00180149 0.00184416 0.00188311 0.00191836 0.00194989 0.00197758 0.00200129 0.00202104 0.00203681 0.00204861 0.00205644 0.00206029 0.00206018 0.00205647 0.00204956 0.00203944 0.00202611 0.00200958 0.00198984 0.0019669 0.00194074 0.00191202 0.00188137 0.00184879 0.00181428 0.00177784 0.00173947 0.00169917 0.00165694 0.00161343 0.0015693 0.00152455 0.00147918 0.00143319 0.00138658 0.00133934 0.00129149 0.00124352 0.00119594 0.00114876 0.00110198 0.00105559 0.00100959 0.000963995 0.00091879 0.000874278 0.00083076 0.000788235 0.000746702 0.000706163 0.000666617 0.000628063 0.000590503 0.000554049 0.000518814 0.000484798 0.000452001 0.000420423 0.000390065 0.000360926 0.000333006 0.000306305 0.00028082 0.000256553 0.000233503 0.00021167 0.000191055 0.000171657 0.000153476 0.000136464 0.000120575 0.000105807 9.21611e-05 7.96372e-05 6.82351e-05 5.7955e-05 4.87966e-05 4.06241e-05 3.3301e-05 2.68276e-05 2.12037e-05 1.64293e-05 1.25045e-05 9.42927e-06 7.20359e-06 5.51525e-06 4.05202e-06 2.8139e-06 1.8009e-06 1.01301e-06 4.50225e-07 1.12556e-07 0 0 4.01343e-06 1.60537e-05 3.61208e-05 6.42148e-05 0.000100336 0.000144483 0.000196658 0.000256859 0.00032627 0.000406074 0.00049627 0.000596859 0.000707841 0.000829214 0.000960981 0.00110314 0.0012519 0.00140348 0.00155787 0.00171507 0.00187509 0.00203791 0.00220356 0.00237201 0.00253961 0.00270267 0.0028612 0.00301519 0.00316465 0.00330957 0.00344996 0.00358582 0.00371523 0.00383629 0.003949 0.00405335 0.00414936 0.00423701 0.0043163 0.00438725 0.00444955 0.00450291 0.00454734 0.00458283 0.00460938 0.00462699 0.00463566 0.0046354 0.00462706 0.00461151 0.00458874 0.00455876 0.00452156 0.00447714 0.00442552 0.00436668 0.00430205 0.00423309 0.00415978 0.00408214 0.00400014 0.00391381 0.00382313 0.00372811 0.00363022 0.00353093 0.00343025 0.00332816 0.00322468 0.0031198 0.00301352 0.00290585 0.00279792 0.00269087 0.00258472 0.00247945 0.00237508 0.00227159 0.00216899 0.00206728 0.00196713 0.00186921 0.00177353 0.00168008 0.00158887 0.00149989 0.00141314 0.00132863 0.00124661 0.00116733 0.00109079 0.001017 0.000945953 0.000877647 0.000812084 0.000749264 0.000689185 0.000631845 0.000577244 0.000525382 0.000476258 0.000429873 0.000386227 0.00034532 0.000307044 0.000271293 0.000238066 0.000207363 0.000179184 0.000153529 0.000130399 0.000109792 9.14041e-05 7.49273e-05 6.0362e-05 4.77082e-05 3.69659e-05 2.81351e-05 2.12159e-05 1.62081e-05 1.24093e-05 9.11705e-06 6.33128e-06 4.05202e-06 2.27926e-06 1.01301e-06 2.53251e-07 0 0 7.13498e-06 2.85399e-05 6.42148e-05 0.00011416 0.000178375 0.000256859 0.000349614 0.000456639 0.000580036 0.00072191 0.000882258 0.00106108 0.00125838 0.00147416 0.00170841 0.00196114 0.0022256 0.00249507 0.00276954 0.00304901 0.00333348 0.00362296 0.00391744 0.00421691 0.00451486 0.00480475 0.00508658 0.00536034 0.00562605 0.00588369 0.00613327 0.00637479 0.00660486 0.00682007 0.00702044 0.00720596 0.00737663 0.00753246 0.00767343 0.00779956 0.00791031 0.00800518 0.00808416 0.00814725 0.00819445 0.00822576 0.00824118 0.00824071 0.00822589 0.00819823 0.00815776 0.00810445 0.00803832 0.00795937 0.00786759 0.00776298 0.0076481 0.0075255 0.00739517 0.00725713 0.00711137 0.00695788 0.00679668 0.00662776 0.00645373 0.00627722 0.00609822 0.00591674 0.00573277 0.00554631 0.00535738 0.00516595 0.00497407 0.00478378 0.00459506 0.00440792 0.00422236 0.00403838 0.00385598 0.00367516 0.00349711 0.00332304 0.00315294 0.00298681 0.00282465 0.00266647 0.00251225 0.00236201 0.00221619 0.00207525 0.00193919 0.001808 0.00168169 0.00156026 0.0014437 0.00133202 0.00122522 0.00112328 0.00102621 0.000934012 0.000846681 0.00076422 0.000686627 0.000613903 0.000545857 0.000482299 0.000423228 0.000368645 0.000318549 0.000272941 0.00023182 0.000195187 0.000162496 0.000133204 0.00010731 8.48146e-05 6.57172e-05 5.0018e-05 3.77171e-05 2.88144e-05 2.2061e-05 1.62081e-05 1.12556e-05 7.20359e-06 4.05202e-06 1.8009e-06 4.50225e-07 0 0 1.11484e-05 4.45936e-05 0.000100336 0.000178375 0.00027871 0.000401343 0.000546272 0.000713498 0.000906307 0.00112798 0.00137853 0.00165794 0.00196622 0.00230337 0.00266939 0.00306428 0.00347751 0.00389855 0.00432741 0.00476408 0.00520857 0.00566087 0.00612099 0.00658893 0.00705447 0.00750742 0.00794778 0.00837553 0.0087907 0.00919326 0.00958323 0.00996061 0.0103201 0.0106564 0.0109694 0.0112593 0.011526 0.0117695 0.0119897 0.0121868 0.0123599 0.0125081 0.0126315 0.0127301 0.0128038 0.0128527 0.0128768 0.0128761 0.0128529 0.0128097 0.0127465 0.0126632 0.0125599 0.0124365 0.0122931 0.0121297 0.0119502 0.0117586 0.011555 0.0113393 0.0111115 0.0108717 0.0106198 0.0103559 0.010084 0.00980815 0.00952847 0.0092449 0.00895745 0.00866612 0.0083709 0.0080718 0.00777199 0.00747465 0.00717978 0.00688737 0.00659744 0.00630997 0.00602497 0.00574244 0.00546424 0.00519225 0.00492647 0.00466689 0.00441352 0.00416635 0.0039254 0.00369064 0.0034628 0.00324258 0.00302999 0.00282501 0.00262765 0.00243791 0.00225579 0.00208129 0.0019144 0.00175513 0.00160346 0.00145939 0.00132294 0.00119409 0.00107285 0.000959223 0.000852901 0.000753591 0.000661293 0.000576007 0.000497732 0.00042647 0.000362218 0.000304979 0.0002539 0.000208131 0.000167672 0.000132523 0.000102683 7.81532e-05 5.8933e-05 4.50225e-05 3.44703e-05 2.53251e-05 1.75869e-05 1.12556e-05 6.33128e-06 2.8139e-06 7.03476e-07 0 0 1.60537e-05 6.42148e-05 0.000144483 0.000256859 0.000401343 0.000577933 0.000786632 0.00102744 0.00130508 0.0016243 0.00198508 0.00238744 0.00283136 0.00331686 0.00384392 0.00441256 0.00500761 0.00561391 0.00623147 0.00686028 0.00750034 0.00815166 0.00881423 0.00948806 0.0101584 0.0108107 0.0114448 0.0120608 0.0126586 0.0132383 0.0137999 0.0143433 0.0148609 0.0153452 0.015796 0.0162134 0.0165974 0.016948 0.0172652 0.017549 0.0177982 0.0180117 0.0181894 0.0183313 0.0184375 0.018508 0.0185426 0.0185416 0.0185082 0.018446 0.018355 0.018235 0.0180862 0.0179086 0.0177021 0.0174667 0.0172082 0.0169324 0.0166391 0.0163285 0.0160006 0.0156552 0.0152925 0.0149125 0.0145209 0.0141237 0.013721 0.0133127 0.0128987 0.0124792 0.0120541 0.0116234 0.0111917 0.0107635 0.0103389 0.00991782 0.00950031 0.00908635 0.00867595 0.00826911 0.0078685 0.00747684 0.00709411 0.00672032 0.00635547 0.00599955 0.00565257 0.00531453 0.00498644 0.00466932 0.00436318 0.00406801 0.00378381 0.00351059 0.00324834 0.00299706 0.00275674 0.00252738 0.00230898 0.00210153 0.00190503 0.00171949 0.00154491 0.00138128 0.00122818 0.00108517 0.000952262 0.00082945 0.000716735 0.000614116 0.000521595 0.00043917 0.000365617 0.000299709 0.000241448 0.000190833 0.000147864 0.000112541 8.48635e-05 6.48324e-05 4.96373e-05 3.64682e-05 2.53251e-05 1.62081e-05 9.11705e-06 4.05202e-06 1.01301e-06 0 0 2.18509e-05 8.74035e-05 0.000196658 0.000349614 0.000546272 0.000786632 0.00107069 0.00139846 0.00177636 0.00221085 0.00270192 0.00324957 0.0038538 0.00451461 0.00523201 0.00600598 0.00681591 0.00764116 0.00848172 0.0093376 0.0102088 0.0110953 0.0119971 0.0129143 0.0138268 0.0147145 0.0155776 0.016416 0.0172298 0.0180188 0.0187831 0.0195228 0.0202274 0.0208865 0.0215001 0.0220683 0.0225909 0.0230681 0.0234999 0.0238861 0.0242253 0.0245159 0.0247577 0.0249509 0.0250955 0.0251914 0.0252386 0.0252372 0.0251918 0.0251071 0.0249831 0.0248199 0.0246174 0.0243756 0.0240945 0.0237741 0.0234223 0.0230468 0.0226477 0.022225 0.0217786 0.0213085 0.0208148 0.0202975 0.0197645 0.019224 0.0186758 0.01812 0.0175566 0.0169856 0.016407 0.0158207 0.0152331 0.0146503 0.0140724 0.0134993 0.012931 0.0123675 0.0118089 0.0112552 0.0107099 0.0101768 0.00965587 0.0091471 0.0086505 0.00816605 0.00769378 0.00723366 0.0067871 0.00635547 0.00593877 0.00553701 0.00515019 0.0047783 0.00442134 0.00407933 0.00375223 0.00344005 0.00314277 0.00286041 0.00259296 0.00234042 0.00210279 0.00188008 0.00167169 0.00147704 0.00129614 0.00112897 0.000975556 0.00083588 0.000709948 0.000597759 0.000497645 0.000407938 0.000328638 0.000259745 0.000201259 0.00015318 0.000115509 8.8244e-05 6.75618e-05 4.96373e-05 3.44703e-05 2.2061e-05 1.24093e-05 5.51525e-06 1.37881e-06 0 0 2.85399e-05 0.00011416 0.000256859 0.000456639 0.000713498 0.00102744 0.00139846 0.00182656 0.00232015 0.00288764 0.00352903 0.00424433 0.00503353 0.00589664 0.00683364 0.00784455 0.00890241 0.00998029 0.0110782 0.012196 0.0133339 0.0144918 0.0156697 0.0168677 0.0180594 0.019219 0.0203463 0.0214414 0.0225042 0.0235348 0.0245331 0.0254992 0.0264194 0.0272803 0.0280818 0.0288239 0.0295065 0.0301298 0.0306937 0.0311982 0.0316412 0.0320207 0.0323366 0.032589 0.0327778 0.032903 0.0329647 0.0329628 0.0329035 0.0327929 0.032631 0.0324178 0.0321533 0.0318375 0.0314703 0.0310519 0.0305924 0.030102 0.0295807 0.0290285 0.0284455 0.0278315 0.0271867 0.026511 0.0258149 0.0251089 0.0243929 0.0236669 0.0229311 0.0221853 0.0214295 0.0206638 0.0198963 0.0191351 0.0183802 0.0176317 0.0168894 0.0161535 0.0154239 0.0147006 0.0139885 0.0132922 0.0126118 0.0119472 0.0112986 0.0106659 0.010049 0.00944805 0.00886478 0.00830102 0.00775676 0.00723202 0.00672678 0.00624104 0.00577482 0.0053281 0.00490087 0.00449312 0.00410485 0.00373605 0.00338673 0.00305688 0.00274651 0.00245561 0.00218343 0.00192919 0.00169291 0.00147458 0.0012742 0.00109176 0.000927279 0.000780746 0.000649985 0.000532817 0.000429241 0.000339258 0.000262869 0.000200072 0.000150868 0.000115258 8.8244e-05 6.48324e-05 4.50225e-05 2.88144e-05 1.62081e-05 7.20359e-06 1.8009e-06 0 0 3.62997e-05 0.000145199 0.000326697 0.000580795 0.000907493 0.00130679 0.00177869 0.00232318 0.00295058 0.0036712 0.00448504 0.00539208 0.00639235 0.00748583 0.00867252 0.00995243 0.0112915 0.0126557 0.014045 0.0154595 0.016899 0.0183637 0.0198535 0.0213685 0.0228756 0.0243419 0.0257675 0.0271524 0.0284965 0.0297999 0.0310624 0.0322843 0.0334482 0.0345371 0.0355509 0.0364897 0.0373534 0.0381421 0.0388557 0.0394943 0.0400552 0.0405357 0.0409359 0.0412557 0.0414952 0.0416543 0.041733 0.0417315 0.0416573 0.0415182 0.0413141 0.0410452 0.0407114 0.0403127 0.0398491 0.0393205 0.03874 0.0381203 0.0374616 0.0367637 0.0360267 0.0352506 0.0344354 0.0335811 0.0327009 0.0318081 0.0309026 0.0299845 0.0290538 0.0281104 0.0271543 0.0261857 0.0252146 0.0242515 0.0232964 0.0223492 0.0214099 0.0204785 0.0195551 0.0186396 0.0177381 0.0168567 0.0159953 0.015154 0.0143327 0.0135315 0.0127504 0.0119893 0.0112506 0.0105365 0.00984715 0.00918242 0.00854234 0.00792693 0.00733618 0.00677009 0.00622864 0.00571182 0.00521963 0.00475207 0.00430914 0.00389084 0.00349717 0.00312813 0.00278275 0.00246006 0.00216006 0.00188275 0.00162814 0.00139621 0.00118698 0.00100044 0.000833853 0.000684483 0.000552331 0.000437396 0.000339678 0.000259178 0.000195895 0.000149829 0.000114713 8.42788e-05 5.85269e-05 3.74572e-05 2.10697e-05 9.36431e-06 2.34108e-06 0 0 4.53091e-05 0.000181237 0.000407782 0.000724946 0.00113273 0.00163113 0.00222015 0.00289978 0.00368183 0.00457808 0.00558853 0.00671318 0.00795203 0.00930508 0.0107723 0.0123538 0.0140076 0.0156918 0.0174065 0.0191517 0.0209274 0.0227335 0.02457 0.0264371 0.0282942 0.0301013 0.0318581 0.0335648 0.0352214 0.0368278 0.038384 0.0398901 0.0413249 0.0426674 0.0439175 0.0450754 0.0461409 0.0471141 0.0479949 0.0487834 0.0494763 0.0500703 0.0505653 0.0509613 0.0512584 0.0514565 0.0515557 0.0515559 0.0514666 0.0512973 0.051048 0.0507186 0.0503091 0.0498196 0.04925 0.0486004 0.0478866 0.0471244 0.0463139 0.045455 0.0445477 0.0435921 0.0425882 0.0415359 0.0404515 0.0393513 0.0382354 0.0371037 0.0359563 0.034793 0.0336141 0.0324193 0.0312215 0.0300333 0.0288547 0.0276858 0.0265264 0.0253767 0.0242366 0.0231061 0.0219928 0.0209041 0.01984 0.0188006 0.0177857 0.0167956 0.01583 0.0148891 0.0139757 0.0130926 0.0122399 0.0114176 0.0106257 0.00986407 0.00913285 0.00843199 0.00776149 0.00712135 0.00651156 0.00593212 0.00538303 0.00486429 0.00437591 0.00391788 0.003489 0.00308805 0.00271505 0.00236999 0.00205287 0.00176369 0.00150245 0.00126915 0.00106046 0.000873076 0.000706981 0.00056218 0.000438673 0.00033646 0.00025554 0.000195915 0.000149997 0.000110202 7.65291e-05 4.89786e-05 2.75505e-05 1.22447e-05 3.06117e-06 0 0 5.55682e-05 0.000222273 0.000500113 0.000889091 0.0013892 0.00200045 0.00272284 0.00355636 0.00451388 0.00560826 0.00683951 0.00820761 0.00971257 0.0113544 0.0131331 0.0150486 0.0170506 0.0190886 0.0211627 0.0232728 0.0254189 0.0276011 0.0298192 0.0320735 0.0343155 0.036497 0.0386181 0.0406787 0.0426788 0.0446185 0.0464977 0.0483165 0.0500494 0.0516711 0.0531816 0.0545808 0.0558689 0.0570457 0.0581113 0.0590656 0.0599047 0.0606244 0.0612248 0.0617058 0.0620674 0.0623097 0.0624326 0.0624362 0.0623317 0.0621305 0.0618325 0.0614378 0.0609463 0.0603581 0.0596732 0.0588915 0.0580322 0.0571142 0.0561376 0.0551024 0.0540085 0.0528561 0.051645 0.0503753 0.0490666 0.0477385 0.0463912 0.0450246 0.0436386 0.0422333 0.0408087 0.0393648 0.0379169 0.0364804 0.0350552 0.0336415 0.0322391 0.0308481 0.0294685 0.0281003 0.0267525 0.0254344 0.0241459 0.022887 0.0216577 0.020458 0.0192879 0.0181474 0.01704 0.0159692 0.0149351 0.0139376 0.0129767 0.0120525 0.0111648 0.0103138 0.00949944 0.00872171 0.00798063 0.00727618 0.00660839 0.00597724 0.00538273 0.00482487 0.00430218 0.00381318 0.00335789 0.00293629 0.00254839 0.00219418 0.00187368 0.00158687 0.00132982 0.00109859 0.00089319 0.00071361 0.000559852 0.000431917 0.000329804 0.000253514 0.000194097 0.000142602 9.90291e-05 6.33786e-05 3.56505e-05 1.58446e-05 3.96116e-06 0 0 6.70768e-05 0.000268307 0.000603691 0.00107323 0.00167692 0.00241477 0.00328676 0.00429292 0.00544674 0.00676176 0.00823798 0.00987538 0.011674 0.0136338 0.0157548 0.0180369 0.0204206 0.0228462 0.0253135 0.0278227 0.0303737 0.0329665 0.0356012 0.0382776 0.0409392 0.0435291 0.0460473 0.0484939 0.0508688 0.0531721 0.0554036 0.0575636 0.0596218 0.0615483 0.0633431 0.0650061 0.0665374 0.067937 0.0692048 0.0703409 0.0713403 0.0721982 0.0729145 0.0734892 0.0739224 0.0742139 0.0743639 0.0743723 0.0742524 0.0740176 0.0736677 0.0732029 0.0726232 0.0719284 0.0711187 0.070194 0.0691768 0.0680897 0.0669328 0.0657059 0.0644091 0.0630424 0.0616058 0.0600993 0.0585462 0.0569698 0.0553701 0.0537471 0.0521008 0.0504311 0.0487382 0.047022 0.0453008 0.0435927 0.0418979 0.0402163 0.0385479 0.0368927 0.0352508 0.033622 0.0320173 0.0304477 0.028913 0.0274133 0.0259485 0.0245187 0.023124 0.0217642 0.0204436 0.0191664 0.0179327 0.0167424 0.0155955 0.0144921 0.0134321 0.0124156 0.0114425 0.0105129 0.00962684 0.00878427 0.00798522 0.00722967 0.00651762 0.00584908 0.00522228 0.00463544 0.00408856 0.00358165 0.00311469 0.0026877 0.00230067 0.0019536 0.00164192 0.00136104 0.00111096 0.000891686 0.000703216 0.00054555 0.000418687 0.000322628 0.000247012 0.000181478 0.000126027 8.06571e-05 4.53696e-05 2.01643e-05 5.04107e-06 0 0 7.98351e-05 0.00031934 0.000718516 0.00127736 0.00199588 0.00287406 0.00391192 0.00510945 0.00648041 0.00803857 0.00978393 0.0117165 0.0138363 0.0161432 0.0186374 0.0213187 0.0241176 0.0269644 0.029859 0.0328014 0.0357917 0.0388298 0.0419158 0.0450496 0.0481655 0.0511976 0.0541459 0.0570105 0.0597914 0.0624884 0.0651017 0.0676313 0.0700421 0.0722989 0.074402 0.0763511 0.0781464 0.0797879 0.0812755 0.0826092 0.0837832 0.0847916 0.0856344 0.0863116 0.0868231 0.0871691 0.0873495 0.0873642 0.0872288 0.0869586 0.0865537 0.086014 0.0853396 0.0845303 0.0835864 0.0825076 0.0813204 0.080051 0.0786994 0.0772655 0.0757495 0.0741512 0.0724707 0.070708 0.0688904 0.067045 0.065172 0.0632712 0.0613427 0.0593866 0.0574027 0.0553911 0.0533732 0.0513704 0.0493828 0.0474103 0.0454529 0.0435106 0.0415834 0.0396713 0.0377872 0.0359438 0.0341412 0.0323794 0.0306583 0.0289779 0.0273383 0.0257395 0.0241864 0.0226841 0.0212327 0.019832 0.0184821 0.017183 0.0159347 0.0147372 0.0135906 0.0124949 0.0114502 0.0104564 0.00951352 0.00862158 0.00778059 0.00699053 0.00624932 0.00555483 0.00490708 0.00430607 0.00375179 0.00324424 0.00278343 0.00236935 0.00199676 0.00166041 0.00136029 0.00109641 0.000868765 0.000677358 0.000522189 0.000403256 0.000308743 0.000226832 0.000157522 0.000100814 5.67079e-05 2.52035e-05 6.30088e-06 0 0 9.3843e-05 0.000375372 0.000844587 0.00150149 0.00234607 0.00337835 0.00459831 0.00600595 0.00761488 0.00943869 0.0114774 0.0137309 0.0161994 0.0188827 0.0217809 0.024894 0.0281416 0.0314433 0.0347991 0.0382089 0.0416729 0.045191 0.0487631 0.0523894 0.0559943 0.0595025 0.0629139 0.0662285 0.0694465 0.0725676 0.075592 0.0785197 0.0813102 0.0839231 0.0863583 0.088616 0.090696 0.0925985 0.0943233 0.0958706 0.0972333 0.0984046 0.0993844 0.100173 0.10077 0.101175 0.101389 0.101412 0.101261 0.100954 0.10049 0.099871 0.0990955 0.098164 0.0970763 0.0958326 0.094463 0.092998 0.0914374 0.0897812 0.0880296 0.0861824 0.0842396 0.0822014 0.0800991 0.0779643 0.0757969 0.073597 0.0713645 0.0690996 0.066802 0.064472 0.0621342 0.0598135 0.0575099 0.0552233 0.0529539 0.0507016 0.0484664 0.0462483 0.0440621 0.0419229 0.0398307 0.0377853 0.0357869 0.0338355 0.0319309 0.0300733 0.0282685 0.0265224 0.024835 0.0232064 0.0216364 0.0201252 0.0186726 0.0172788 0.0159438 0.0146678 0.0134507 0.0122925 0.0111933 0.010153 0.00917164 0.00824922 0.00738328 0.00657135 0.00581344 0.00510955 0.00445967 0.0038638 0.00332195 0.00283411 0.00239435 0.0019967 0.00164118 0.00132778 0.0010565 0.000827343 0.00064031 0.000495399 0.00037929 0.000278662 0.000193515 0.00012385 6.96654e-05 3.09624e-05 7.7406e-06 0 0 0.000109101 0.000436402 0.000981905 0.00174561 0.00272751 0.00392762 0.00534593 0.00698243 0.00885016 0.0109621 0.0133183 0.0159187 0.0187634 0.0218523 0.0251854 0.0287628 0.0324926 0.0362829 0.0401338 0.0440453 0.0480173 0.05205 0.0561431 0.0602969 0.0644256 0.0684437 0.0723512 0.076148 0.0798341 0.0834096 0.0868745 0.0902287 0.0934262 0.0964206 0.0992121 0.101801 0.104186 0.106369 0.108348 0.110125 0.111691 0.113037 0.114165 0.115073 0.115762 0.116232 0.116484 0.116516 0.116349 0.116003 0.115478 0.114774 0.113891 0.112829 0.111589 0.110169 0.108605 0.106931 0.105147 0.103253 0.101249 0.099136 0.0969126 0.0945794 0.0921724 0.0897275 0.0872449 0.0847244 0.0821662 0.0795701 0.0769363 0.0742646 0.0715836 0.0689218 0.0662791 0.0636555 0.0610511 0.0584659 0.0558997 0.0533528 0.0508421 0.0483849 0.0459813 0.0436312 0.0413345 0.0390914 0.0369017 0.0347656 0.0326898 0.0306812 0.0287398 0.0268655 0.0250585 0.0233186 0.0216459 0.0200403 0.0185022 0.0170315 0.0156283 0.0142927 0.0130245 0.0118239 0.0106908 0.00962514 0.00862417 0.00768501 0.00680765 0.00599209 0.00523834 0.00454638 0.00391623 0.00334789 0.00283467 0.00236992 0.00195363 0.00158579 0.00126642 0.000995503 0.000773049 0.000599055 0.000458652 0.000336968 0.000234006 0.000149764 8.42421e-05 3.74409e-05 9.36024e-06 0 0 0.000125608 0.000502431 0.00113047 0.00200972 0.00314019 0.00452188 0.00615477 0.00803889 0.0101862 0.0126089 0.0153067 0.0182799 0.0215283 0.0250519 0.0288509 0.032925 0.0371705 0.0414832 0.0458632 0.0503105 0.054825 0.0594068 0.0640559 0.0687722 0.0734595 0.0780214 0.0824578 0.0867688 0.0909543 0.0950145 0.0989492 0.102758 0.10639 0.109792 0.112963 0.115905 0.118617 0.121099 0.123351 0.125372 0.127155 0.128689 0.129975 0.131012 0.131801 0.132341 0.132632 0.132675 0.132492 0.132106 0.131516 0.130723 0.129726 0.128526 0.127123 0.125516 0.123745 0.121849 0.119828 0.117681 0.115409 0.113012 0.11049 0.107842 0.10511 0.102335 0.0995159 0.0966535 0.0937476 0.0907983 0.0878054 0.0847691 0.0817216 0.0786954 0.0756905 0.0727069 0.0697445 0.0668033 0.0638835 0.0609849 0.0581271 0.0553299 0.0525931 0.0499168 0.047301 0.0447457 0.0422508 0.0398164 0.0374504 0.0351606 0.0329469 0.0308095 0.0287483 0.0267632 0.0248544 0.0230218 0.0212656 0.019586 0.0179831 0.0164568 0.0150072 0.0136343 0.012338 0.0111183 0.00997199 0.00889579 0.00788969 0.00695369 0.00608779 0.00529199 0.00456628 0.00391068 0.00331775 0.00278006 0.00229763 0.00187045 0.00149852 0.00118184 0.000920407 0.000714226 0.000546829 0.000401752 0.000278994 0.000178556 0.000100438 4.46391e-05 1.11598e-05 0 0 0.000143024 0.000572097 0.00128722 0.00228839 0.0035756 0.00514887 0.00700818 0.00915354 0.0115956 0.0143452 0.0174021 0.0207665 0.0244383 0.0284175 0.0327042 0.0372983 0.0420831 0.0469419 0.0518748 0.0568816 0.0619625 0.0671174 0.0723464 0.0776494 0.0829189 0.0880476 0.0930355 0.0978824 0.102589 0.107154 0.111578 0.115862 0.119946 0.123772 0.12734 0.13065 0.133703 0.136497 0.139033 0.141311 0.143321 0.145051 0.146502 0.147674 0.148567 0.149181 0.149515 0.14957 0.149372 0.148944 0.148288 0.147403 0.146289 0.144946 0.143374 0.141573 0.139588 0.137461 0.135193 0.132783 0.130232 0.12754 0.124707 0.121732 0.118662 0.115542 0.112373 0.109155 0.105887 0.102569 0.0992018 0.0957851 0.0923554 0.0889491 0.0855662 0.0822067 0.0788706 0.0755579 0.0722686 0.0690026 0.0657823 0.0626296 0.0595446 0.0565273 0.0535777 0.0506958 0.0478817 0.0451352 0.0424653 0.039881 0.0373824 0.0349692 0.0326417 0.0303997 0.0282433 0.0261725 0.0241876 0.0222888 0.0204762 0.0187497 0.0171094 0.0155553 0.0140873 0.0127054 0.0114061 0.0101854 0.00904347 0.00798026 0.00699579 0.00609004 0.00526303 0.00451474 0.00383701 0.00322165 0.00266868 0.00217809 0.00174988 0.00138405 0.00108059 0.000839523 0.00064276 0.000472232 0.000327939 0.000209881 0.000118058 5.24702e-05 1.31175e-05 0 0 0.00016101 0.000644039 0.00144909 0.00257615 0.00402524 0.00579635 0.00788947 0.0103046 0.0130509 0.0161373 0.0195639 0.0233308 0.0274378 0.031885 0.0366724 0.0418 0.047138 0.0525567 0.058056 0.0636359 0.0692965 0.0750378 0.0808597 0.0867622 0.0926268 0.0983347 0.103886 0.10928 0.114518 0.1196 0.124524 0.129292 0.133838 0.138098 0.142071 0.145758 0.149158 0.152271 0.155098 0.157639 0.15988 0.161812 0.163433 0.164744 0.165744 0.166434 0.166813 0.166882 0.166669 0.1662 0.165477 0.164499 0.163266 0.161779 0.160036 0.158039 0.155835 0.153474 0.150954 0.148277 0.145443 0.14245 0.1393 0.135992 0.132577 0.129107 0.12558 0.121998 0.11836 0.114667 0.110918 0.107113 0.103292 0.0994976 0.0957283 0.0919846 0.0882663 0.0845734 0.0809061 0.0772642 0.0736726 0.0701559 0.0667143 0.0633477 0.0600561 0.0568394 0.0536978 0.0506312 0.0476497 0.0447632 0.0419719 0.0392757 0.0366746 0.0341686 0.0317578 0.029442 0.0272218 0.0250973 0.0230688 0.021136 0.0192991 0.017558 0.0159128 0.0143634 0.0129057 0.0115355 0.0102528 0.0090577 0.00795008 0.00692997 0.00599739 0.00515233 0.00438589 0.0036892 0.00306225 0.00250503 0.00201755 0.00159982 0.00125182 0.00097356 0.000745382 0.000547627 0.000380297 0.00024339 0.000136907 6.08475e-05 1.52119e-05 0 0 0.000179564 0.000718257 0.00161608 0.00287303 0.00448911 0.00646431 0.00879865 0.0114921 0.0145519 0.0179853 0.0217922 0.0259727 0.0305267 0.0354543 0.0407555 0.0464302 0.0523352 0.0583275 0.0644068 0.0705733 0.076827 0.0831678 0.0895958 0.0961109 0.102583 0.108883 0.115009 0.120963 0.126744 0.132352 0.137787 0.143049 0.148067 0.152769 0.157156 0.161227 0.164983 0.168422 0.171547 0.174355 0.176835 0.178972 0.180767 0.18222 0.183331 0.1841 0.184526 0.18461 0.184383 0.183874 0.183084 0.182012 0.180659 0.179025 0.177109 0.174912 0.172487 0.169887 0.167113 0.164164 0.16104 0.157742 0.154269 0.150622 0.146856 0.143027 0.139137 0.135184 0.131169 0.127092 0.122953 0.118751 0.114532 0.110341 0.106177 0.10204 0.0979314 0.0938499 0.089796 0.0857695 0.081798 0.0779089 0.0741022 0.0703779 0.0667359 0.0631764 0.0596993 0.0563046 0.0530034 0.0498071 0.0467156 0.0437289 0.040847 0.03807 0.0353977 0.0328303 0.0303681 0.0280116 0.0257608 0.0236157 0.0215763 0.0196425 0.0178145 0.0160922 0.0144709 0.0129461 0.0115178 0.010186 0.00895066 0.00781178 0.00676937 0.00582344 0.00496441 0.00418271 0.00347833 0.00285128 0.00230156 0.00182916 0.00143408 0.00111634 0.000854695 0.000627939 0.000436069 0.000279084 0.000156985 6.9771e-05 1.74427e-05 0 0 0.000198688 0.000794751 0.00178819 0.00317901 0.0049672 0.00715276 0.0097357 0.012716 0.0160988 0.0198891 0.0240869 0.0286922 0.0337051 0.0391255 0.0449534 0.0511889 0.0576748 0.0642543 0.0709274 0.0776939 0.084554 0.0915075 0.0985547 0.105695 0.112788 0.119691 0.126405 0.132929 0.139264 0.14541 0.151366 0.157133 0.162632 0.167786 0.172595 0.177059 0.181177 0.18495 0.188378 0.191461 0.194183 0.196531 0.198505 0.200104 0.201329 0.202179 0.202654 0.202755 0.202514 0.201965 0.201107 0.199942 0.198467 0.196684 0.194593 0.192194 0.189544 0.186702 0.183669 0.180443 0.177025 0.173416 0.169615 0.165621 0.161498 0.157305 0.153043 0.148713 0.144313 0.139845 0.135308 0.130701 0.126075 0.121479 0.116912 0.112374 0.107866 0.103387 0.0989383 0.0945186 0.0901586 0.0858885 0.0817083 0.0776179 0.0736174 0.0697068 0.0658861 0.0621552 0.0585266 0.0550127 0.0516134 0.0483288 0.0451589 0.0421037 0.0391631 0.0363372 0.0336265 0.0310315 0.0285523 0.0261887 0.0239409 0.0218088 0.0197924 0.0178917 0.0161017 0.0144173 0.0128384 0.0113652 0.00999753 0.00873546 0.00757898 0.00652809 0.00557256 0.00470218 0.00391694 0.00321684 0.00260188 0.00207206 0.00162738 0.00126785 0.000970699 0.000713166 0.000495254 0.000316963 0.000178292 7.92407e-05 1.98102e-05 0 0 0.000218381 0.000873522 0.00196542 0.00349409 0.00545951 0.0078617 0.0107006 0.0139764 0.0176915 0.0218487 0.026448 0.0314895 0.036973 0.0428986 0.0492663 0.0560761 0.0631568 0.0703373 0.0776175 0.0849976 0.0924774 0.100057 0.107736 0.115515 0.123241 0.130761 0.138074 0.14518 0.152081 0.158775 0.165262 0.171543 0.177534 0.183148 0.188388 0.193252 0.197741 0.201854 0.205592 0.208955 0.211926 0.21449 0.216646 0.218395 0.219737 0.22067 0.221197 0.221315 0.221062 0.220473 0.219548 0.218287 0.21669 0.214757 0.212488 0.209883 0.207005 0.203918 0.200621 0.197114 0.193398 0.189472 0.185336 0.180991 0.176503 0.171939 0.167299 0.162584 0.157792 0.152925 0.147982 0.142963 0.137921 0.132911 0.127933 0.122986 0.11807 0.113186 0.108333 0.103511 0.0987544 0.0940948 0.0895326 0.0850678 0.0807005 0.0764306 0.0722582 0.0681831 0.0642192 0.06038 0.0566654 0.0530755 0.0496103 0.0462698 0.043054 0.0399629 0.0369971 0.0341572 0.0314432 0.0288552 0.026393 0.0240568 0.0218465 0.0197621 0.0177981 0.0159489 0.0142146 0.0125952 0.0110907 0.00970102 0.0084262 0.00726626 0.00621034 0.00524761 0.00437806 0.0036017 0.00291852 0.00232853 0.00183173 0.00142811 0.00109339 0.00080331 0.000557854 0.000357027 0.000200827 8.92566e-05 2.23142e-05 0 0 0.000238642 0.000954569 0.00214778 0.00381828 0.00596606 0.00859112 0.0116935 0.0152731 0.01933 0.0238642 0.0288756 0.0343643 0.0403303 0.0467735 0.053694 0.0610917 0.068781 0.0765763 0.0844774 0.0924844 0.100597 0.108816 0.117141 0.125571 0.133943 0.142091 0.150015 0.157716 0.165193 0.172446 0.179475 0.186281 0.192771 0.198856 0.204535 0.209808 0.214674 0.219135 0.22319 0.226839 0.230064 0.232848 0.235191 0.237094 0.238555 0.239575 0.240154 0.240292 0.240028 0.239399 0.238407 0.23705 0.235329 0.233244 0.230794 0.227981 0.224872 0.221535 0.21797 0.214177 0.210157 0.205909 0.201434 0.19673 0.191872 0.18693 0.181905 0.176797 0.171606 0.166332 0.160975 0.155535 0.150071 0.144639 0.139241 0.133876 0.128544 0.123245 0.11798 0.112748 0.107585 0.102528 0.0975751 0.0927275 0.0879851 0.0833478 0.0788156 0.0743884 0.0700812 0.0659089 0.0618715 0.0579689 0.0542012 0.0505684 0.0470704 0.0437074 0.0404798 0.0373886 0.0344337 0.031615 0.0289326 0.0263866 0.0239768 0.0217032 0.01956 0.0175411 0.0156465 0.0138762 0.0122302 0.0107084 0.00931105 0.00803796 0.00687775 0.005819 0.0048617 0.00400587 0.00325149 0.00259857 0.0020471 0.0015971 0.00122278 0.000898369 0.000623867 0.000399275 0.000224592 9.98188e-05 2.49547e-05 0 0 0.000259473 0.00103789 0.00233526 0.00415157 0.00648683 0.00934103 0.0127142 0.0166063 0.0210144 0.0259355 0.0313696 0.0373168 0.043777 0.0507503 0.0582366 0.0662359 0.0745477 0.0829713 0.0915069 0.100154 0.108914 0.117785 0.126768 0.135863 0.144893 0.153682 0.16223 0.170535 0.1786 0.186423 0.194005 0