<?xml version="1.0"?> 
<VTKFile type="StructuredGrid" version="0.1"> 
<StructuredGrid WholeExtent="0 128 0 128 0 0"> 
<Piece Extent="0 128 0 128 0 0"> 
<PointData>
<DataArray type="Float32" Name="u" format="ascii" NumberOfComponents="1"> 
0 0 0 0 0 0 0 0 0 0 0 0 0 0 0 0 0 0 0 0 0 0 0 0 0 0 0 0 0 0 0 0 0 0 0 0 0 0 0 0 0 0 0 0 0 0 0 0 0 0 0 0 0 0 0 0 0 0 0 0 0 0 0 0 0 0 0 0 0 0 0 0 0 0 0 0 0 0 0 0 0 0 0 0 0 0 0 0 0 0 0 0 0 0 0 0 0 0 0 0 0 0 0 0 0 0 0 0 0 0 0 0 0 0 0 0 0 0 0 0 0 0 0 0 0 0 0 0 0 0 1.97718e-07 7.90871e-07 1.77946e-06 3.16348e-06 4.94294e-06 7.11784e-06 9.68817e-06 1.26539e-05 1.60726e-05 2.00018e-05 2.44414e-05 2.93915e-05 3.4852e-05 4.08229e-05 4.73043e-05 5.42962e-05 6.16122e-05 6.9066e-05 7.66578e-05 8.43874e-05 9.22549e-05 0.00010026 0.000108403 0.000116685 0.000124929 0.000132963 0.000140787 0.0001484 0.000155803 0.000162995 0.000169976 0.000176747 0.000183224 0.000189325 0.000195049 0.000200397 0.000205367 0.000209962 0.000214179 0.00021802 0.000221478 0.000224544 0.00022722 0.000229505 0.0002314 0.000232903 0.000234016 0.000234738 0.000235108 0.000235167 0.000234913 0.000234346 0.000233467 0.000232276 0.000230773 0.000228957 0.000226885 0.000224611 0.000222137 0.000219461 0.000216584 0.000213505 0.000210226 0.000206746 0.000203114 0.000199382 0.000195548 0.000191614 0.000187579 0.000183443 0.000179206 0.000174869 0.000170466 0.000166032 0.000161569 0.000157075 0.00015255 0.000147996 0.000143411 0.000138796 0.000134173 0.000129564 0.000124968 0.000120387 0.00011582 0.000111267 0.000106727 0.000102202 9.77074e-05 9.32607e-05 8.88618e-05 8.45107e-05 8.02074e-05 7.59519e-05 7.17441e-05 6.75842e-05 6.3493e-05 5.94915e-05 5.55795e-05 5.17573e-05 4.80246e-05 4.43816e-05 4.08283e-05 3.73646e-05 3.40205e-05 3.08261e-05 2.77812e-05 2.48861e-05 2.21405e-05 1.95446e-05 1.70983e-05 1.48016e-05 1.26725e-05 1.07286e-05 8.97006e-06 7.39684e-06 6.00894e-06 4.80635e-06 3.78909e-06 2.95714e-06 2.26406e-06 1.66339e-06 1.15513e-06 7.39286e-07 4.15848e-07 1.84821e-07 4.62054e-08 0 0 7.90871e-07 3.16348e-06 7.11784e-06 1.26539e-05 1.97718e-05 2.84713e-05 3.87527e-05 5.06157e-05 6.42906e-05 8.00072e-05 9.77656e-05 0.000117566 0.000139408 0.000163292 0.000189217 0.000217185 0.000246449 0.000276264 0.000306631 0.00033755 0.000369019 0.000401041 0.000433614 0.000466738 0.000499717 0.000531854 0.000563148 0.000593601 0.000623211 0.000651979 0.000679904 0.000706988 0.000732897 0.0007573 0.000780196 0.000801586 0.00082147 0.000839847 0.000856717 0.000872082 0.000885911 0.000898178 0.000908881 0.000918021 0.000925599 0.000931613 0.000936064 0.000938952 0.000940434 0.000940667 0.00093965 0.000937384 0.000933869 0.000929105 0.000923092 0.000915829 0.00090754 0.000898445 0.000888546 0.000877843 0.000866335 0.000854022 0.000840904 0.000826982 0.000812456 0.000797526 0.000782193 0.000766457 0.000750316 0.000733773 0.000716826 0.000699475 0.000681863 0.000664129 0.000646274 0.000628298 0.000610201 0.000591983 0.000573644 0.000555184 0.000536691 0.000518255 0.000499874 0.000481549 0.00046328 0.000445066 0.000426909 0.000408807 0.000390829 0.000373043 0.000355447 0.000338043 0.000320829 0.000303807 0.000286977 0.000270337 0.000253972 0.000237966 0.000222318 0.000207029 0.000192099 0.000177527 0.000163313 0.000149458 0.000136082 0.000123304 0.000111125 9.95442e-05 8.8562e-05 7.81784e-05 6.83932e-05 5.92066e-05 5.06899e-05 4.29144e-05 3.58803e-05 2.95874e-05 2.40357e-05 1.92254e-05 1.51564e-05 1.18286e-05 9.05625e-06 6.65357e-06 4.62054e-06 2.95714e-06 1.66339e-06 7.39286e-07 1.84821e-07 0 0 1.77946e-06 7.11784e-06 1.60151e-05 2.84713e-05 4.44865e-05 6.40605e-05 8.71935e-05 0.000113885 0.000144654 0.000180016 0.000219973 0.000264523 0.000313668 0.000367406 0.000425739 0.000488665 0.000554509 0.000621594 0.00068992 0.000759486 0.000830294 0.000902342 0.000975631 0.00105016 0.00112436 0.00119667 0.00126708 0.0013356 0.00140222 0.00146695 0.00152978 0.00159072 0.00164902 0.00170392 0.00175544 0.00180357 0.00184831 0.00188966 0.00192761 0.00196218 0.0019933 0.0020209 0.00204498 0.00206555 0.0020826 0.00209613 0.00210614 0.00211264 0.00211598 0.0021165 0.00211421 0.00210911 0.00210121 0.00209049 0.00207696 0.00206062 0.00204196 0.0020215 0.00199923 0.00197515 0.00194925 0.00192155 0.00189203 0.00186071 0.00182803 0.00179443 0.00175993 0.00172453 0.00168821 0.00165099 0.00161286 0.00157382 0.00153419 0.00149429 0.00145412 0.00141367 0.00137295 0.00133196 0.0012907 0.00124916 0.00120756 0.00116607 0.00112472 0.00108348 0.00104238 0.0010014 0.000960545 0.000919817 0.000879366 0.000839346 0.000799756 0.000760596 0.000721866 0.000683567 0.000645697 0.000608258 0.000571437 0.000535423 0.000500216 0.000465815 0.000432222 0.000399435 0.000367455 0.000336281 0.000306184 0.000277434 0.000250031 0.000223975 0.000199265 0.000175901 0.000153885 0.000133215 0.000114052 9.65575e-05 8.07306e-05 6.65716e-05 5.40804e-05 4.32572e-05 3.41018e-05 2.66143e-05 2.03766e-05 1.49705e-05 1.03962e-05 6.65357e-06 3.74263e-06 1.66339e-06 4.15848e-07 0 0 3.16348e-06 1.26539e-05 2.84713e-05 5.06157e-05 7.90871e-05 0.000113885 0.000155011 0.000202463 0.000257162 0.000320029 0.000391062 0.000470263 0.000557631 0.000653166 0.000756869 0.000868738 0.000985795 0.00110506 0.00122652 0.0013502 0.00147608 0.00160416 0.00173445 0.00186695 0.00199887 0.00212741 0.00225259 0.0023744 0.00249284 0.00260791 0.00271962 0.00282795 0.00293159 0.0030292 0.00312078 0.00320634 0.00328588 0.00335939 0.00342687 0.00348833 0.00354364 0.00359271 0.00363552 0.00367209 0.00370239 0.00372645 0.00374426 0.00375581 0.00376174 0.00376267 0.0037586 0.00374954 0.00373548 0.00371642 0.00369237 0.00366332 0.00363016 0.00359378 0.00355419 0.00351137 0.00346534 0.00341609 0.00336362 0.00330793 0.00324982 0.00319011 0.00312877 0.00306583 0.00300127 0.00293509 0.0028673 0.0027979 0.00272745 0.00265652 0.0025851 0.00251319 0.0024408 0.00236793 0.00229458 0.00222074 0.00214677 0.00207302 0.00199949 0.00192619 0.00185312 0.00178027 0.00170764 0.00163523 0.00156332 0.00149217 0.00142179 0.00135217 0.00128332 0.00121523 0.00114791 0.00108135 0.00101589 0.000951863 0.000889273 0.000828116 0.000768394 0.000710106 0.000653252 0.000597833 0.000544328 0.000493217 0.0004445 0.000398177 0.000354248 0.000312713 0.000273573 0.000236826 0.000202759 0.000171658 0.000143521 0.000118349 9.6143e-05 7.69016e-05 6.06254e-05 4.73143e-05 3.6225e-05 2.66143e-05 1.84821e-05 1.18286e-05 6.65357e-06 2.95714e-06 7.39286e-07 0 0 4.94294e-06 1.97718e-05 4.44865e-05 7.90871e-05 0.000123574 0.000177946 0.000242204 0.000316348 0.000401816 0.000500045 0.000611035 0.000734786 0.000871299 0.00102057 0.00118261 0.0013574 0.0015403 0.00172665 0.00191644 0.00210968 0.00230637 0.00250651 0.00271009 0.00291711 0.00312323 0.00332409 0.00351968 0.00371 0.00389507 0.00407487 0.0042494 0.00441867 0.00458061 0.00473312 0.00487623 0.00500991 0.00513419 0.00524904 0.00535448 0.00545051 0.00553694 0.00561361 0.00568051 0.00573763 0.00578499 0.00582258 0.0058504 0.00586845 0.00587771 0.00587917 0.00587281 0.00585865 0.00583668 0.00580691 0.00576932 0.00572393 0.00567212 0.00561528 0.00555341 0.00548652 0.00541459 0.00533764 0.00525565 0.00516864 0.00507785 0.00498454 0.00488871 0.00479035 0.00468948 0.00458608 0.00448016 0.00437172 0.00426164 0.00415081 0.00403921 0.00392686 0.00381376 0.00369989 0.00358528 0.0034699 0.00335432 0.00323909 0.00312421 0.00300968 0.0028955 0.00278166 0.00266818 0.00255505 0.00244268 0.00233152 0.00222154 0.00211277 0.00200518 0.0018988 0.0017936 0.00168961 0.00158733 0.00148729 0.00138949 0.00129393 0.00120062 0.00110954 0.00102071 0.000934114 0.000850512 0.000770651 0.000694531 0.000622152 0.000553513 0.000488615 0.000427458 0.000370041 0.000316812 0.000268215 0.000224252 0.000184921 0.000150223 0.000120159 9.47272e-05 7.39286e-05 5.66016e-05 4.15848e-05 2.88783e-05 1.84821e-05 1.03962e-05 4.62054e-06 1.15513e-06 0 0 7.11784e-06 2.84713e-05 6.40605e-05 0.000113885 0.000177946 0.000256242 0.000348774 0.000455542 0.000578615 0.000720065 0.00087989 0.00105809 0.00125467 0.00146962 0.00170295 0.00195466 0.00221804 0.00248638 0.00275968 0.00303795 0.00332118 0.00360937 0.00390252 0.00420064 0.00449745 0.00478668 0.00506833 0.00534241 0.0056089 0.00586781 0.00611914 0.00636289 0.00659607 0.0068157 0.00702177 0.00721428 0.00739323 0.00755862 0.00771046 0.00784873 0.0079732 0.0080836 0.00817993 0.00826219 0.00833039 0.00838451 0.00842458 0.00845057 0.00846391 0.008466 0.00845685 0.00843646 0.00840482 0.00836195 0.00830783 0.00824246 0.00816786 0.00808601 0.00799692 0.00790059 0.00779701 0.0076862 0.00756814 0.00744284 0.0073121 0.00717774 0.00703974 0.00689811 0.00675285 0.00660396 0.00645143 0.00629528 0.00613676 0.00597716 0.00581647 0.00565468 0.00549181 0.00532785 0.0051628 0.00499666 0.00483022 0.00466429 0.00449886 0.00433394 0.00416952 0.0040056 0.00384218 0.00367927 0.00351747 0.00335738 0.00319902 0.00304238 0.00288747 0.00273427 0.00258279 0.00243303 0.00228575 0.00214169 0.00200086 0.00186326 0.00172889 0.00159774 0.00146982 0.00134512 0.00122474 0.00110974 0.00100012 0.000895898 0.000797058 0.000703605 0.000615539 0.000532859 0.000456209 0.00038623 0.000322922 0.000266286 0.000216322 0.000173029 0.000136407 0.000106457 8.15062e-05 5.98821e-05 4.15848e-05 2.66143e-05 1.49705e-05 6.65357e-06 1.66339e-06 0 0 9.68817e-06 3.87527e-05 8.71935e-05 0.000155011 0.000242204 0.000348774 0.00047472 0.000620043 0.000787559 0.000980088 0.00119763 0.00144018 0.00170775 0.00200032 0.00231791 0.00266051 0.003019 0.00338424 0.00375623 0.00413498 0.00452049 0.00491275 0.00531177 0.00571754 0.00612153 0.00651521 0.00689857 0.00727161 0.00763433 0.00798674 0.00832883 0.0086606 0.00897799 0.00927692 0.0095574 0.00981943 0.010063 0.0102881 0.0104948 0.010683 0.0108524 0.0110027 0.0111338 0.0112458 0.0113386 0.0114123 0.0114668 0.0115022 0.0115203 0.0115232 0.0115107 0.011483 0.0114399 0.0113815 0.0113079 0.0112189 0.0111174 0.011006 0.0108847 0.0107536 0.0106126 0.0104618 0.0103011 0.0101305 0.00995259 0.0097697 0.00958187 0.00938909 0.00919138 0.00898872 0.00878112 0.00856857 0.00835282 0.00813558 0.00791686 0.00769665 0.00747496 0.00725179 0.00702714 0.006801 0.00657447 0.00634862 0.00612345 0.00589897 0.00567517 0.00545206 0.00522963 0.00500789 0.00478766 0.00456977 0.00435423 0.00414102 0.00393016 0.00372164 0.00351546 0.00331163 0.00311116 0.00291508 0.0027234 0.00253611 0.00235321 0.0021747 0.00200059 0.00183086 0.001667 0.00151048 0.00136128 0.00121942 0.00108489 0.000957685 0.000837817 0.000725281 0.000620951 0.000525702 0.000439533 0.000362445 0.000294438 0.000235511 0.000185665 0.0001449 0.000110939 8.15062e-05 5.66016e-05 3.6225e-05 2.03766e-05 9.05625e-06 2.26406e-06 0 0 1.26539e-05 5.06157e-05 0.000113885 0.000202463 0.000316348 0.000455542 0.000620043 0.000809852 0.00102865 0.00128011 0.00156425 0.00188105 0.00223052 0.00261267 0.00302748 0.00347495 0.00394318 0.00442023 0.0049061 0.00540079 0.00590431 0.00641665 0.00693782 0.00746781 0.00799547 0.00850966 0.00901037 0.00949761 0.00997137 0.0104317 0.0108785 0.0113118 0.0117264 0.0121168 0.0124831 0.0128254 0.0131435 0.0134375 0.0137075 0.0139533 0.0141746 0.0143708 0.0145421 0.0146883 0.0148096 0.0149058 0.014977 0.0150232 0.0150469 0.0150507 0.0150344 0.0149982 0.0149419 0.0148657 0.0147695 0.0146533 0.0145206 0.0143751 0.0142167 0.0140455 0.0138614 0.0136643 0.0134545 0.0132317 0.0129993 0.0127604 0.0125151 0.0122633 0.0120051 0.0117404 0.0114692 0.0111916 0.0109098 0.0106261 0.0103404 0.0100528 0.00976322 0.00947173 0.00917831 0.00888294 0.00858706 0.00829207 0.00799798 0.00770478 0.00741247 0.00712106 0.00683054 0.00654092 0.00625327 0.00596868 0.00568715 0.00540868 0.00513327 0.00486092 0.00459163 0.00432539 0.00406355 0.00380745 0.00355709 0.00331246 0.00307358 0.00284042 0.00261301 0.00239133 0.00217731 0.00197287 0.001778 0.00159271 0.00141699 0.00125085 0.00109429 0.000947306 0.000811038 0.000686631 0.000574084 0.000473398 0.000384572 0.000307607 0.000242502 0.000189257 0.0001449 0.000106457 7.39286e-05 4.73143e-05 2.66143e-05 1.18286e-05 2.95714e-06 0 0 1.60988e-05 6.43951e-05 0.000144889 0.00025758 0.000402469 0.000579556 0.00078884 0.00103032 0.00130851 0.0016279 0.00198851 0.00239033 0.00283335 0.00331759 0.00384304 0.0044097 0.0050025 0.00560639 0.00622136 0.00684741 0.00748454 0.00813276 0.00879206 0.00946244 0.0101299 0.0107802 0.0114136 0.0120299 0.0126292 0.0132115 0.0137767 0.014325 0.0148494 0.0153435 0.015807 0.0162402 0.0166428 0.017015 0.0173568 0.0176681 0.0179483 0.018197 0.018414 0.0185994 0.0187531 0.0188753 0.0189658 0.0190247 0.0190552 0.0190603 0.0190402 0.0189947 0.018924 0.0188279 0.0187066 0.0185599 0.0183925 0.0182087 0.0180087 0.0177923 0.0175595 0.0173105 0.0170452 0.0167635 0.0164696 0.0161675 0.0158571 0.0155386 0.0152119 0.014877 0.0145338 0.0141825 0.0138259 0.0134667 0.0131051 0.012741 0.0123745 0.0120055 0.011634 0.01126 0.0108853 0.0105118 0.0101394 0.00976807 0.0093979 0.00902884 0.00866091 0.0082941 0.00792978 0.00756934 0.00721276 0.00686005 0.00651122 0.00616625 0.00582515 0.00548793 0.00515626 0.00483186 0.0045147 0.00420481 0.00390216 0.00360678 0.00331865 0.00303777 0.00276657 0.00250746 0.00226044 0.00202551 0.00180267 0.00159192 0.00139326 0.0012067 0.00103367 0.000875639 0.0007326 0.000604554 0.000491502 0.000393443 0.000310377 0.000242304 0.000185514 0.000136296 9.465e-05 6.0576e-05 3.4074e-05 1.5144e-05 3.786e-06 0 0 2.01063e-05 8.04254e-05 0.000180957 0.000321702 0.000502659 0.000723829 0.000985211 0.00128681 0.00163376 0.00203121 0.00247917 0.00297762 0.00352658 0.00412603 0.00477599 0.00547645 0.00620888 0.00695476 0.00771409 0.00848687 0.00927309 0.0100728 0.0108859 0.0117124 0.0125353 0.0133371 0.0141181 0.0148781 0.0156171 0.0163352 0.0170323 0.0177085 0.0183555 0.0189651 0.0195372 0.0200718 0.020569 0.0210287 0.0214509 0.0218357 0.0221823 0.0224899 0.0227586 0.0229883 0.0231791 0.0233309 0.0234437 0.0235176 0.0235564 0.0235639 0.0235402 0.0234853 0.0233992 0.0232818 0.0231332 0.0229533 0.0227478 0.022522 0.022276 0.0220098 0.0217234 0.0214168 0.02109 0.020743 0.0203808 0.0200084 0.0196257 0.0192329 0.0188298 0.0184166 0.0179931 0.0175595 0.0171192 0.0166757 0.0162292 0.0157795 0.0153267 0.0148708 0.0144117 0.0139496 0.0134865 0.0130249 0.0125645 0.0121056 0.0116479 0.0111917 0.0107367 0.0102832 0.00983268 0.00938696 0.008946 0.00850983 0.00807842 0.00765179 0.00722993 0.00681285 0.00640262 0.00600134 0.00560899 0.0052256 0.00485114 0.00448563 0.00412905 0.00378143 0.00344569 0.0031248 0.00281876 0.00252756 0.00225121 0.0019897 0.00174303 0.00151122 0.00129605 0.00109935 0.000921105 0.000761324 0.000620005 0.000497147 0.000392751 0.000306816 0.000234906 0.000172584 0.00011985 7.67041e-05 4.3146e-05 1.9176e-05 4.794e-06 0 0 2.46766e-05 9.87066e-05 0.00022209 0.000394826 0.000616916 0.000888359 0.00120916 0.00157931 0.0020044 0.00249004 0.00303622 0.00364293 0.00431019 0.00503799 0.00582633 0.00667521 0.00756232 0.00846535 0.00938429 0.0103192 0.0112699 0.0122367 0.0132193 0.0142178 0.0152117 0.0161804 0.0171238 0.018042 0.018935 0.0198027 0.0206452 0.0214625 0.0222447 0.0229817 0.0236735 0.0243203 0.024922 0.0254785 0.0259899 0.0264563 0.0268765 0.0272497 0.027576 0.0278552 0.0280873 0.0282725 0.0284107 0.0285018 0.0285506 0.0285615 0.0285347 0.02847 0.0283676 0.0282273 0.0280493 0.0278335 0.0275865 0.0273149 0.0270188 0.0266982 0.026353 0.0259833 0.025589 0.0251702 0.0247329 0.0242831 0.0238208 0.0233461 0.0228589 0.0223592 0.0218471 0.0213225 0.0207897 0.020253 0.0197125 0.0191681 0.0186198 0.0180677 0.0175117 0.0169518 0.0163907 0.0158313 0.0152735 0.0147172 0.0141626 0.0136095 0.013058 0.0125082 0.011962 0.0114215 0.0108869 0.010358 0.00983488 0.00931753 0.00880595 0.00830015 0.00780262 0.00731589 0.00683997 0.00637483 0.0059205 0.00547697 0.00504423 0.00462229 0.00421468 0.0038249 0.00345296 0.00309886 0.0027626 0.00244418 0.0021436 0.00186086 0.00159818 0.00135776 0.0011396 0.000943708 0.000770082 0.000618721 0.000489625 0.000382794 0.000293076 0.000215321 0.000149529 9.56984e-05 5.38304e-05 2.39246e-05 5.98115e-06 0 0 2.98097e-05 0.000119239 0.000268287 0.000476955 0.000745242 0.00107315 0.00146067 0.00190782 0.00242044 0.00300439 0.00365966 0.00438627 0.0051842 0.00605347 0.00699406 0.00800598 0.00906281 0.0101381 0.011232 0.0123443 0.0134751 0.0146244 0.0157922 0.0169786 0.0181592 0.0193099 0.0204308 0.0215218 0.0225829 0.0236141 0.0246155 0.0255869 0.0265168 0.0273932 0.0282161 0.0289857 0.0297018 0.0303645 0.0309738 0.0315297 0.0320309 0.0324764 0.032866 0.0331999 0.033478 0.0337003 0.0338667 0.0339774 0.0340377 0.034053 0.0340234 0.0339487 0.0338291 0.0336645 0.0334549 0.0332003 0.0329086 0.0325875 0.0322371 0.0318574 0.0314483 0.0310099 0.0305422 0.0300451 0.0295259 0.0289917 0.0284425 0.0278783 0.0272991 0.0267049 0.0260957 0.0254715 0.0248374 0.0241986 0.0235551 0.0229069 0.0222539 0.0215962 0.0209337 0.0202665 0.0195979 0.0189311 0.0182662 0.0176031 0.0169418 0.0162824 0.0156248 0.014969 0.0143176 0.0136731 0.0130354 0.0124046 0.0117806 0.0111635 0.0105532 0.00994983 0.00935627 0.00877553 0.00820762 0.00765252 0.00711025 0.00658081 0.00606418 0.00556038 0.00507352 0.00460774 0.00416304 0.00373941 0.00333685 0.00295537 0.00259497 0.00225564 0.00194005 0.00165086 0.00138808 0.00115171 0.000941732 0.000758163 0.000600997 0.000470236 0.000360025 0.000264508 0.000183686 0.000117559 6.6127e-05 2.93898e-05 7.34744e-06 0 0 3.55054e-05 0.000142022 0.000319549 0.000568087 0.000887636 0.0012782 0.00173977 0.00227235 0.00288187 0.00357425 0.00434951 0.00520762 0.00614861 0.00717246 0.00827918 0.00946876 0.0107104 0.0119732 0.0132571 0.0145623 0.0158886 0.0172361 0.0186048 0.0199947 0.0213777 0.0227258 0.024039 0.0253174 0.0265608 0.0277694 0.028943 0.0300818 0.0311719 0.0321996 0.033165 0.034068 0.0349085 0.0356867 0.0364025 0.037056 0.0376456 0.0381699 0.0386289 0.0390226 0.039351 0.0396141 0.0398119 0.0399444 0.0400179 0.0400386 0.0400064 0.0399215 0.0397838 0.0395933 0.03935 0.0390539 0.0387141 0.0383397 0.0379308 0.0374873 0.0370093 0.0364967 0.0359495 0.0353678 0.0347599 0.0341342 0.0334907 0.0328295 0.0321504 0.0314536 0.030739 0.0300066 0.0292624 0.0285126 0.027757 0.0269958 0.0262289 0.0254562 0.0246779 0.0238939 0.0231081 0.0223243 0.0215427 0.0207632 0.0199857 0.0192103 0.018437 0.0176658 0.0168997 0.0161416 0.0153916 0.0146495 0.0139156 0.0131896 0.0124717 0.0117619 0.0110636 0.0103802 0.00971195 0.00905866 0.00842039 0.00779714 0.0071889 0.00659567 0.00602223 0.00547334 0.004949 0.00444921 0.00397397 0.00352328 0.00309714 0.00269555 0.00232167 0.00197867 0.00166656 0.00138532 0.00113496 0.000915473 0.00072687 0.000569144 0.000435751 0.000320144 0.000222322 0.000142286 8.00359e-05 3.55715e-05 8.89288e-06 0 0 4.17639e-05 0.000167056 0.000375875 0.000668222 0.0010441 0.0015035 0.00204643 0.00267289 0.00338869 0.00419964 0.00510574 0.006107 0.00720341 0.00839497 0.00968168 0.0110635 0.012505 0.0139704 0.0154597 0.0169731 0.0185104 0.0200717 0.0216569 0.0232661 0.0248672 0.026428 0.0279485 0.0294288 0.0308687 0.0322684 0.0336279 0.034947 0.03621 0.037401 0.0385201 0.0395671 0.0405421 0.0414451 0.0422761 0.0430352 0.0437204 0.0443302 0.0448644 0.0453231 0.0457063 0.046014 0.0462461 0.0464028 0.046491 0.046518 0.0464838 0.0463883 0.0462316 0.0460137 0.0457346 0.0453941 0.045003 0.0445716 0.0441 0.0435881 0.043036 0.0424436 0.041811 0.0411381 0.0404348 0.0397105 0.0389655 0.0381996 0.0374128 0.0366053 0.0357769 0.0349276 0.0340646 0.0331948 0.0323182 0.0314349 0.0305448 0.0296479 0.0287443 0.0278338 0.0269212 0.0260109 0.025103 0.0241974 0.0232942 0.0223933 0.0214947 0.0205985 0.0197081 0.0188271 0.0179553 0.0170929 0.0162398 0.015396 0.0145615 0.0137363 0.0129245 0.01213 0.011353 0.0105932 0.00985092 0.00912596 0.00841839 0.00772818 0.0070608 0.00642169 0.00581084 0.00522825 0.00467394 0.00414788 0.0036501 0.00318058 0.00274304 0.00234118 0.00197502 0.00164454 0.00134975 0.00109065 0.000867241 0.000679517 0.000520256 0.000382229 0.000265436 0.000169879 9.55571e-05 4.24698e-05 1.06175e-05 0 0 4.85851e-05 0.00019434 0.000437266 0.000777362 0.00121463 0.00174906 0.00238067 0.00310945 0.0039409 0.00488055 0.00592838 0.00708439 0.0083486 0.00972099 0.0112016 0.0127903 0.0144466 0.0161298 0.0178398 0.0195767 0.0213405 0.0231311 0.0249486 0.026793 0.0286278 0.0304165 0.0321593 0.033856 0.0355067 0.0371114 0.03867 0.0401827 0.0416312 0.0429974 0.0442814 0.0454831 0.0466025 0.0476397 0.0485946 0.0494672 0.0502555 0.0509573 0.0515727 0.0521016 0.052544 0.0528999 0.0531694 0.0533525 0.0534571 0.0534915 0.0534555 0.0533492 0.0531727 0.0529258 0.0526086 0.0522211 0.0517753 0.0512832 0.0507446 0.0501597 0.0495284 0.0488507 0.0481266 0.0473562 0.0465505 0.0457207 0.0448668 0.0439887 0.0430864 0.04216 0.0412095 0.0402348 0.039244 0.0382454 0.0372387 0.0362242 0.0352016 0.0341712 0.0331327 0.0320864 0.0310373 0.0299909 0.0289471 0.0279058 0.0268672 0.0258313 0.0247979 0.0237671 0.022743 0.0217295 0.0207268 0.0197347 0.0187533 0.0177826 0.0168225 0.0158731 0.0149391 0.0140249 0.0131306 0.0122563 0.0114018 0.0105673 0.00975264 0.00895791 0.00818923 0.00745278 0.00674856 0.00607655 0.00543676 0.0048292 0.00425386 0.00371074 0.00320415 0.00273839 0.00231347 0.00192938 0.00158612 0.0012837 0.00102211 0.000801356 0.000613538 0.000450763 0.00031303 0.000200339 0.000112691 5.00847e-05 1.25212e-05 0 0 5.5969e-05 0.000223876 0.000503721 0.000895505 0.00139923 0.00201489 0.00274248 0.00358202 0.00453851 0.00561697 0.00681741 0.00813981 0.00958419 0.0111505 0.0128389 0.0146491 0.0165354 0.0184514 0.0203974 0.0223732 0.0243789 0.0264145 0.0284799 0.0305752 0.0326594 0.0346914 0.0366713 0.0385991 0.0404747 0.0422982 0.0440695 0.0457887 0.0474353 0.0489887 0.0504489 0.0518159 0.0530898 0.0542704 0.0553579 0.0563522 0.0572508 0.0580513 0.0587537 0.0593579 0.059864 0.060272 0.0605818 0.0607936 0.0609162 0.0609589 0.0609215 0.0608042 0.0606068 0.0603295 0.0599722 0.0595349 0.0590311 0.0584743 0.0578647 0.057202 0.0564864 0.0557179 0.0548964 0.054022 0.0531073 0.0521648 0.0511946 0.0501967 0.0491711 0.0481177 0.0470367 0.0459279 0.0448007 0.0436642 0.0425185 0.0413636 0.0401994 0.039026 0.0378433 0.0366515 0.0354564 0.0342642 0.0330749 0.0318885 0.0307049 0.0295243 0.0283465 0.0271716 0.0260042 0.024849 0.0237058 0.0225749 0.021456 0.0203493 0.0192548 0.0181724 0.0171073 0.0160649 0.015045 0.0140478 0.0130731 0.0121211 0.0111917 0.0102848 0.00940753 0.00856663 0.00776215 0.00699409 0.00626245 0.00556723 0.00490842 0.00428603 0.00370501 0.0031703 0.00268191 0.00223983 0.00184407 0.00149462 0.00119148 0.00093466 0.000715599 0.000525746 0.000365101 0.000233665 0.000131437 5.84162e-05 1.46041e-05 0 0 6.37668e-05 0.000255067 0.000573901 0.00102027 0.00159417 0.0022956 0.00312457 0.00408107 0.00516948 0.00639414 0.00775508 0.00925228 0.0108858 0.0126555 0.0145615 0.0166038 0.0187306 0.0208904 0.023083 0.0253086 0.027567 0.0298584 0.0321826 0.0345398 0.0368841 0.0391699 0.0413973 0.0435661 0.0456764 0.0477282 0.0497215 0.0516563 0.0535095 0.0552583 0.0569025 0.0584422 0.0598773 0.061208 0.0624341 0.0635557 0.0645698 0.0654737 0.0662673 0.0669507 0.0675237 0.0679865 0.068339 0.0685812 0.0687232 0.0687751 0.0687369 0.0686086 0.0683901 0.0680816 0.0676829 0.0671941 0.0666303 0.0660067 0.0653232 0.0645799 0.0637768 0.0629138 0.0619909 0.0610082 0.0599799 0.0589201 0.0578287 0.0567059 0.0555516 0.0543659 0.0531486 0.0518999 0.0506301 0.0493497 0.0480587 0.0467571 0.0454449 0.044122 0.0427886 0.0414445 0.0400967 0.038752 0.0374105 0.0360721 0.0347369 0.0334048 0.0320759 0.0307501 0.0294327 0.028129 0.0268389 0.0255625 0.0242997 0.0230506 0.0218151 0.0205933 0.0193911 0.0182142 0.0170627 0.0159367 0.014836 0.0137608 0.0127109 0.0116865 0.0106951 0.00974453 0.0088347 0.00796563 0.00713733 0.0063498 0.00560302 0.00489701 0.00423741 0.00362984 0.00307431 0.00257082 0.00211937 0.00171996 0.00137259 0.00107725 0.000824772 0.000605955 0.000420802 0.000269313 0.000151489 6.73283e-05 1.68321e-05 0 0 7.18294e-05 0.000287317 0.000646464 0.00114927 0.00179573 0.00258586 0.00351964 0.00459708 0.00582177 0.00719729 0.00872365 0.0104008 0.0122289 0.0142077 0.0163374 0.018618 0.0209919 0.0234016 0.0258473 0.0283288 0.0308462 0.0333995 0.0359886 0.0386136 0.0412241 0.0437695 0.0462499 0.0486652 0.0510155 0.0533008 0.055521 0.0576763 0.0597409 0.0616895 0.063522 0.0652384 0.0668388 0.068323 0.0696912 0.0709433 0.0720761 0.0730861 0.0739736 0.0747383 0.0753804 0.0758998 0.0762965 0.0765706 0.0767332 0.0767952 0.0767568 0.0766179 0.0763785 0.0760387 0.0755984 0.0750576 0.0744332 0.0737418 0.0729834 0.0721581 0.0712659 0.0703068 0.0692807 0.0681877 0.0670435 0.0658639 0.0646489 0.0633986 0.0621129 0.0607917 0.0594352 0.0580434 0.0566277 0.0552001 0.0537603 0.0523086 0.0508447 0.0493688 0.0478808 0.0463808 0.0448764 0.0433754 0.0418778 0.0403836 0.0388928 0.0374054 0.0359214 0.0344408 0.0329695 0.0315133 0.0300724 0.0286466 0.0272361 0.0258407 0.0244605 0.0230955 0.0217523 0.0204372 0.0191505 0.0178919 0.0166616 0.0154596 0.0142858 0.0131403 0.0120314 0.0109678 0.00994925 0.00897591 0.00804775 0.00716474 0.00632691 0.00553425 0.00479312 0.00410992 0.00348463 0.00291726 0.00240781 0.00195627 0.00156266 0.00122696 0.000939391 0.000690165 0.000479281 0.00030674 0.000172541 7.6685e-05 1.91712e-05 0 0 8.01568e-05 0.000320627 0.000721411 0.00128251 0.00200392 0.00288565 0.00392768 0.00513004 0.00649538 0.00802641 0.00972312 0.0115855 0.0136136 0.0158073 0.0181667 0.0206918 0.0233192 0.0259853 0.0286902 0.0314339 0.0342165 0.0370378 0.0398979 0.0427968 0.0456793 0.0484901 0.0512291 0.0538965 0.0564921 0.059016 0.0614682 0.0638487 0.0661295 0.0682823 0.0703074 0.0722046 0.073974 0.0756156 0.0771293 0.0785152 0.0797695 0.0808886 0.0818723 0.0827208 0.083434 0.0840119 0.0844545 0.0847618 0.084946 0.0850191 0.0849811 0.0848321 0.084572 0.0842009 0.0837187 0.0831255 0.0824396 0.0816795 0.0808452 0.0799366 0.0789539 0.0778969 0.0767657 0.0755602 0.074298 0.0729963 0.0716552 0.0702747 0.0688547 0.0673954 0.0658966 0.0643584 0.0627936 0.0612153 0.0596234 0.058018 0.0563989 0.0547663 0.0531201 0.0514603 0.0497955 0.0481344 0.0464769 0.044823 0.0431727 0.0415261 0.039883 0.0382436 0.0366144 0.0350019 0.0334062 0.0318273 0.0302651 0.0287196 0.0271909 0.0256789 0.0241909 0.022734 0.0213082 0.0199135 0.01855 0.0172176 0.0159164 0.0146462 0.0134164 0.0122363 0.0111058 0.0100249 0.00899369 0.00801207 0.00708009 0.00619773 0.00537216 0.00461054 0.00391288 0.00327916 0.00270939 0.00220357 0.0017617 0.00138378 0.00105946 0.000778376 0.000540539 0.000345945 0.000194594 8.64862e-05 2.16216e-05 0 0 8.87491e-05 0.000354997 0.000798742 0.00141999 0.00221873 0.00319497 0.00434871 0.00567995 0.00719033 0.00888151 0.0107535 0.0128062 0.0150398 0.0174542 0.0200493 0.0228253 0.0257124 0.0286413 0.0316118 0.034624 0.0376778 0.0407733 0.0439105 0.0470894 0.0502498 0.0533317 0.056335 0.0592598 0.0621061 0.0648738 0.067563 0.0701737 0.0726751 0.0750368 0.0772587 0.0793408 0.0812831 0.0830856 0.0847483 0.0862712 0.0876502 0.088881 0.0899636 0.0908982 0.0916845 0.0923227 0.0928128 0.0931548 0.0933617 0.0934467 0.0934099 0.0932512 0.0929706 0.0925682 0.0920438 0.0913976 0.0906496 0.0898199 0.0889085 0.0879154 0.0868406 0.0856841 0.0844459 0.083126 0.0817434 0.0803173 0.0788475 0.0773342 0.0757773 0.0741767 0.0725326 0.0708449 0.0691278 0.0673955 0.065648 0.0638854 0.0621076 0.0603146 0.0585064 0.0566831 0.0548541 0.053029 0.0512076 0.0493902 0.0475765 0.0457667 0.0439607 0.0421586 0.0403676 0.0385949 0.0368405 0.0351044 0.0333867 0.0316873 0.0300062 0.0283435 0.0267069 0.0251044 0.0235359 0.0220015 0.0205012 0.0190348 0.0176026 0.0162043 0.0148502 0.0135502 0.0123044 0.0111127 0.00997516 0.00889178 0.00786254 0.00688746 0.00597452 0.00513171 0.00435904 0.00365651 0.00302411 0.00246184 0.00196971 0.00154771 0.00118497 0.000870589 0.000604576 0.000386928 0.000217647 9.67321e-05 2.4183e-05 0 0 9.76063e-05 0.000390425 0.000878457 0.0015617 0.00244016 0.00351383 0.00478271 0.00624681 0.0079066 0.00976258 0.0118147 0.0140631 0.0165076 0.0191483 0.0219852 0.0250183 0.0281717 0.0313696 0.034612 0.0378989 0.0412302 0.0446061 0.0480264 0.0514912 0.0549355 0.0582943 0.0615676 0.0647553 0.0678575 0.0708742 0.0738054 0.0766511 0.079378 0.0819529 0.0843759 0.086647 0.088766 0.0907331 0.0925483 0.0942115 0.0957181 0.0970634 0.0982475 0.0992704 0.100132 0.100832 0.101372 0.101749 0.10198 0.102078 0.102043 0.101875 0.101574 0.10114 0.100574 0.099874 0.0990632 0.098163 0.0971734 0.0960945 0.0949261 0.0936684 0.0923214 0.0908849 0.0893798 0.0878268 0.0862259 0.0845771 0.0828804 0.0811358 0.0793433 0.0775029 0.0756301 0.0737405 0.071834 0.0699107 0.0679706 0.0660136 0.0640398 0.0620492 0.0600521 0.0580591 0.0560701 0.0540852 0.0521043 0.0501274 0.0481546 0.0461858 0.044229 0.0422921 0.0403751 0.0384781 0.036601 0.0347438 0.0329066 0.0310892 0.0293004 0.0275486 0.0258337 0.0241559 0.0225151 0.0209112 0.0193444 0.0178146 0.0163327 0.0149094 0.013545 0.0122392 0.0109922 0.00980386 0.00867429 0.00760344 0.0066002 0.00567343 0.00482313 0.00404931 0.00335196 0.00273109 0.00218669 0.00171876 0.00131593 0.000966803 0.000671391 0.00042969 0.000241701 0.000107423 2.68556e-05 0 0 0.000106728 0.000426914 0.000960555 0.00170765 0.00266821 0.00384222 0.00522969 0.00683062 0.00864419 0.0106696 0.0129069 0.015356 0.018017 0.0208898 0.0239745 0.027271 0.030697 0.0341703 0.0376909 0.0412587 0.0448738 0.0485361 0.0522456 0.0560024 0.0597365 0.063378 0.0669268 0.0703829 0.0737464 0.0770172 0.0801954 0.0832809 0.086238 0.0890307 0.091659 0.0941231 0.0964228 0.0985581 0.100529 0.102336 0.103973 0.105436 0.106724 0.107838 0.108776 0.109541 0.110131 0.110546 0.110802 0.110913 0.110881 0.110704 0.110383 0.109918 0.109308 0.108555 0.10768 0.106709 0.10564 0.104474 0.10321 0.10185 0.100392 0.098837 0.0972072 0.095525 0.0937904 0.0920035 0.0901643 0.0882727 0.0863288 0.0843325 0.0823007 0.0802504 0.0781815 0.0760941 0.073988 0.0718634 0.0697202 0.0675585 0.0653896 0.0632249 0.0610644 0.0589081 0.056756 0.0546081 0.0524645 0.0503251 0.0481985 0.0460936 0.0440101 0.0419482 0.