<?xml version="1.0"?> 
<VTKFile type="StructuredGrid" version="0.1"> 
<StructuredGrid WholeExtent="0 128 0 128 0 0"> 
<Piece Extent="0 128 0 128 0 0"> 
<PointData>
<DataArray type="Float32" Name="u" format="ascii" NumberOfComponents="1"> 
0 0 0 0 0 0 0 0 0 0 0 0 0 0 0 0 0 0 0 0 0 0 0 0 0 0 0 0 0 0 0 0 0 0 0 0 0 0 0 0 0 0 0 0 0 0 0 0 0 0 0 0 0 0 0 0 0 0 0 0 0 0 0 0 0 0 0 0 0 0 0 0 0 0 0 0 0 0 0 0 0 0 0 0 0 0 0 0 0 0 0 0 0 0 0 0 0 0 0 0 0 0 0 0 0 0 0 0 0 0 0 0 0 0 0 0 0 0 0 0 0 0 0 0 0 0 0 0 0 0 4.27911e-07 1.71164e-06 3.8512e-06 6.84657e-06 1.06978e-05 1.54048e-05 2.09676e-05 2.73863e-05 3.47866e-05 4.32945e-05 5.29099e-05 6.36328e-05 7.54633e-05 8.84013e-05 0.000102447 0.0001176 0.000133457 0.000149615 0.000166073 0.000182832 0.000199891 0.000217251 0.000234911 0.000252873 0.000270744 0.000288134 0.000305044 0.000321473 0.000337421 0.000352888 0.000367875 0.000382382 0.000396204 0.000409141 0.000421191 0.000432355 0.000442632 0.000452023 0.000460528 0.000468147 0.000474847 0.000480599 0.000485402 0.000489255 0.000492159 0.000494114 0.00049512 0.000495177 0.000494376 0.000492807 0.00049047 0.000487365 0.000483493 0.000478852 0.000473445 0.000467269 0.000460477 0.000453221 0.000445499 0.000437313 0.000428662 0.000419546 0.000409966 0.00039992 0.000389566 0.000379057 0.000368395 0.000357578 0.000346608 0.000335484 0.000324206 0.000312774 0.000301309 0.000289932 0.000278644 0.000267443 0.000256331 0.000245307 0.000234371 0.000223523 0.000212835 0.000202378 0.000192153 0.00018216 0.000172399 0.000162869 0.000153571 0.000144504 0.000135697 0.000127178 0.000118947 0.000111004 0.000103348 9.59798e-05 8.88996e-05 8.21072e-05 7.56039e-05 6.93912e-05 6.34691e-05 5.78376e-05 5.24966e-05 4.74462e-05 4.26863e-05 3.8217e-05 3.4029e-05 3.0113e-05 2.64689e-05 2.30968e-05 1.99966e-05 1.71685e-05 1.46122e-05 1.2328e-05 1.02848e-05 8.4518e-06 6.82897e-06 5.41632e-06 4.21384e-06 3.22154e-06 2.43941e-06 1.86746e-06 1.42977e-06 1.05044e-06 7.29475e-07 4.66864e-07 2.62611e-07 1.16716e-07 2.9179e-08 0 0 1.71164e-06 6.84657e-06 1.54048e-05 2.73863e-05 4.27911e-05 6.16192e-05 8.38705e-05 0.000109545 0.000139147 0.000173178 0.00021164 0.000254531 0.000301853 0.000353605 0.000409787 0.000470399 0.000533828 0.000598458 0.000664291 0.000731326 0.000799564 0.000869004 0.000939646 0.00101149 0.00108297 0.00115254 0.00122017 0.00128589 0.00134968 0.00141155 0.0014715 0.00152953 0.00158482 0.00163656 0.00168476 0.00172942 0.00177053 0.00180809 0.00184211 0.00187259 0.00189939 0.0019224 0.00194161 0.00195702 0.00196864 0.00197646 0.00198048 0.00198071 0.0019775 0.00197123 0.00196188 0.00194946 0.00193397 0.00191541 0.00189378 0.00186908 0.00184191 0.00181288 0.001782 0.00174925 0.00171465 0.00167819 0.00163986 0.00159968 0.00155826 0.00151623 0.00147358 0.00143031 0.00138643 0.00134194 0.00129682 0.0012511 0.00120524 0.00115973 0.00111458 0.00106977 0.00102532 0.000981228 0.000937483 0.000894091 0.000851339 0.000809513 0.000768614 0.000728641 0.000689595 0.000651476 0.000614283 0.000578017 0.00054279 0.000508713 0.000475788 0.000444014 0.000413391 0.000383919 0.000355598 0.000328429 0.000302416 0.000277565 0.000253876 0.00023135 0.000209986 0.000189785 0.000170745 0.000152868 0.000136116 0.000120452 0.000105876 9.23872e-05 7.99866e-05 6.86738e-05 5.8449e-05 4.9312e-05 4.11392e-05 3.38072e-05 2.73159e-05 2.16653e-05 1.68554e-05 1.28861e-05 9.75764e-06 7.46983e-06 5.71909e-06 4.20178e-06 2.9179e-06 1.86746e-06 1.05044e-06 4.66864e-07 1.16716e-07 0 0 3.8512e-06 1.54048e-05 3.46608e-05 6.16192e-05 9.628e-05 0.000138643 0.000188709 0.000246477 0.00031308 0.000389651 0.000476189 0.000572695 0.00067917 0.000795611 0.000922021 0.0010584 0.00120111 0.00134653 0.00149466 0.00164548 0.00179902 0.00195526 0.0021142 0.00227585 0.00243669 0.00259321 0.00274539 0.00289325 0.00303679 0.003176 0.00331088 0.00344143 0.00356584 0.00368227 0.00379072 0.00389119 0.00398369 0.00406821 0.00414475 0.00421332 0.00427363 0.00432539 0.00436861 0.00440329 0.00442943 0.00444703 0.00445608 0.0044566 0.00444938 0.00443526 0.00441423 0.00438628 0.00435143 0.00430967 0.004261 0.00420542 0.0041443 0.00407899 0.00400949 0.00393582 0.00385796 0.00377592 0.00368969 0.00359928 0.00350609 0.00341151 0.00331555 0.0032182 0.00311947 0.00301935 0.00291785 0.00281497 0.00271178 0.00260939 0.00250779 0.00240699 0.00230698 0.00220776 0.00210934 0.00201171 0.00191551 0.0018214 0.00172938 0.00163944 0.00155159 0.00146582 0.00138214 0.00130054 0.00122128 0.00114461 0.00107052 0.000999032 0.00093013 0.000863818 0.000800097 0.000738965 0.000680435 0.000624521 0.000571222 0.000520538 0.000472469 0.000427016 0.000384177 0.000343953 0.000306261 0.000271017 0.00023822 0.000207871 0.00017997 0.000154516 0.00013151 0.000110952 9.25633e-05 7.60662e-05 6.14608e-05 4.87469e-05 3.79246e-05 2.89938e-05 2.19547e-05 1.68071e-05 1.28679e-05 9.454e-06 6.56528e-06 4.20178e-06 2.3635e-06 1.05044e-06 2.62611e-07 0 0 6.84657e-06 2.73863e-05 6.16192e-05 0.000109545 0.000171164 0.000246477 0.000335482 0.000438181 0.000556586 0.000692712 0.000846558 0.00101813 0.00120741 0.00141442 0.00163915 0.0018816 0.00213531 0.00239383 0.00265716 0.00292531 0.00319826 0.00347601 0.00375858 0.00404596 0.0043319 0.00461014 0.0048807 0.00514356 0.00539873 0.00564621 0.00588601 0.00611811 0.00633927 0.00654625 0.00673905 0.00691767 0.00708211 0.00723237 0.00736845 0.00749034 0.00759756 0.00768958 0.00776642 0.00782808 0.00787455 0.00790583 0.00792193 0.00792284 0.00791001 0.00788491 0.00784751 0.00779784 0.00773588 0.00766164 0.00757511 0.00747631 0.00736764 0.00725153 0.00712799 0.00699701 0.00685859 0.00671274 0.00655945 0.00639873 0.00623305 0.00606491 0.00589431 0.00572125 0.00554573 0.00536774 0.00518729 0.00500438 0.00482095 0.00463892 0.0044583 0.00427909 0.0041013 0.00392491 0.00374993 0.00357636 0.00340536 0.00323805 0.00307446 0.00291456 0.00275838 0.0026059 0.00245713 0.00231207 0.00217116 0.00203485 0.00190315 0.00177606 0.00165356 0.00153568 0.00142239 0.00131372 0.00120966 0.00111026 0.00101551 0.000925401 0.000839945 0.000759139 0.000682981 0.000611473 0.000544465 0.000481808 0.000423503 0.000369549 0.000319946 0.000274695 0.000233796 0.000197248 0.000164557 0.000135229 0.000109264 8.66611e-05 6.74214e-05 5.15446e-05 3.90305e-05 2.98793e-05 2.28763e-05 1.68071e-05 1.16716e-05 7.46983e-06 4.20178e-06 1.86746e-06 4.66864e-07 0 0 1.06978e-05 4.27911e-05 9.628e-05 0.000171164 0.000267444 0.00038512 0.000524191 0.000684657 0.000869666 0.00108236 0.00132275 0.00159082 0.00188658 0.00221003 0.00256117 0.00294 0.00333642 0.00374036 0.00415182 0.00457079 0.00499727 0.00543127 0.00587279 0.00632181 0.00676859 0.00720335 0.00762609 0.00803681 0.00843552 0.00882221 0.00919688 0.00955954 0.00990511 0.0102285 0.0105298 0.0108089 0.0110658 0.0113006 0.0115132 0.0117037 0.0118712 0.012015 0.012135 0.0122314 0.012304 0.0123529 0.012378 0.0123794 0.0123594 0.0123202 0.0122617 0.0121841 0.0120873 0.0119713 0.0118361 0.0116817 0.0115119 0.0113305 0.0111375 0.0109328 0.0107166 0.0104887 0.0102491 0.00999801 0.00973914 0.00947643 0.00920986 0.00893946 0.0086652 0.0083871 0.00810515 0.00781935 0.00753273 0.00724831 0.0069661 0.00668609 0.00640828 0.00613267 0.00585927 0.00558807 0.00532087 0.00505946 0.00480384 0.00455401 0.00430997 0.00407172 0.00383927 0.00361261 0.00339244 0.00317946 0.00297368 0.00277509 0.00258369 0.0023995 0.00222249 0.00205268 0.0018901 0.00173478 0.00158673 0.00144594 0.00131241 0.00118615 0.00106716 0.000955426 0.000850726 0.000752825 0.000661723 0.00057742 0.000499916 0.000429212 0.000365306 0.0003082 0.00025712 0.000211295 0.000170724 0.000135408 0.000105346 8.05384e-05 6.09852e-05 4.66864e-05 3.57443e-05 2.62611e-05 1.82369e-05 1.16716e-05 6.56528e-06 2.9179e-06 7.29475e-07 0 0 1.54048e-05 6.16192e-05 0.000138643 0.000246477 0.00038512 0.000554573 0.000754835 0.000985907 0.00125232 0.0015586 0.00190476 0.00229078 0.00271668 0.00318245 0.00368808 0.00423359 0.00480445 0.00538612 0.00597862 0.00658194 0.00719608 0.00782103 0.00845681 0.00910341 0.00974677 0.0103728 0.0109816 0.011573 0.0121471 0.012704 0.0132435 0.0137657 0.0142634 0.0147291 0.0151629 0.0155648 0.0159348 0.0162728 0.016579 0.0168533 0.0170945 0.0173016 0.0174745 0.0176132 0.0177177 0.0177881 0.0178243 0.0178264 0.0177975 0.017741 0.0176569 0.0175451 0.0174057 0.0172387 0.017044 0.0168217 0.0165772 0.0163159 0.016038 0.0157433 0.0154318 0.0151037 0.0147588 0.0143971 0.0140244 0.0136461 0.0132622 0.0128728 0.0124779 0.0120774 0.0116714 0.0112599 0.0108471 0.0104376 0.0100312 0.00962796 0.00922792 0.00883105 0.00843735 0.00804682 0.00766205 0.00728562 0.00691752 0.00655777 0.00620636 0.00586328 0.00552855 0.00520215 0.00488511 0.00457842 0.00428209 0.00399613 0.00372052 0.00345527 0.00320039 0.00295586 0.00272174 0.00249808 0.00228489 0.00208215 0.00188988 0.00170806 0.00153671 0.00137581 0.00122505 0.00108407 0.000952881 0.000831485 0.000719879 0.000618065 0.000526041 0.000443808 0.000370253 0.000304265 0.000245843 0.000194987 0.000151698 0.000115975 8.78187e-05 6.72285e-05 5.14718e-05 3.7816e-05 2.62611e-05 1.68071e-05 9.454e-06 4.20178e-06 1.05044e-06 0 0 2.09676e-05 8.38705e-05 0.000188709 0.000335482 0.000524191 0.000754835 0.00102741 0.00134193 0.00170455 0.00212143 0.00259259 0.00311801 0.0036977 0.00433166 0.00501989 0.00576239 0.00653939 0.00733111 0.00813757 0.00895875 0.00979466 0.0106453 0.0115107 0.0123908 0.0132664 0.0141186 0.0149471 0.0157522 0.0165336 0.0172915 0.0180259 0.0187367 0.019414 0.0200479 0.0206383 0.0211854 0.021689 0.0221491 0.0225659 0.0229392 0.0232675 0.0235493 0.0237847 0.0239735 0.0241158 0.0242116 0.0242609 0.0242637 0.0242244 0.0241475 0.024033 0.0238809 0.0236911 0.0234638 0.0231988 0.0228962 0.0225634 0.0222078 0.0218295 0.0214283 0.0210044 0.0205578 0.0200883 0.0195961 0.0190887 0.0185738 0.0180513 0.0175213 0.0169838 0.0164387 0.0158861 0.0153259 0.0147641 0.0142067 0.0136535 0.0131047 0.0125602 0.01202 0.0114842 0.0109526 0.0104289 0.00991653 0.00941552 0.00892586 0.00844754 0.00798058 0.00752497 0.00708071 0.00664917 0.00623174 0.00582841 0.00543917 0.00506404 0.00470301 0.00435608 0.00402325 0.00370459 0.00340017 0.00310999 0.00283404 0.00257233 0.00232486 0.00209163 0.00187264 0.00166742 0.00147554 0.00129698 0.00113174 0.000979836 0.000841255 0.000716 0.000604072 0.000503956 0.000414138 0.00033462 0.0002654 0.000206478 0.000157855 0.000119531 9.15054e-05 7.00588e-05 5.14718e-05 3.57443e-05 2.28763e-05 1.28679e-05 5.71909e-06 1.42977e-06 0 0 2.73863e-05 0.000109545 0.000246477 0.000438181 0.000684657 0.000985907 0.00134193 0.00175272 0.00222634 0.00277085 0.00338623 0.0040725 0.00482965 0.00565768 0.00655659 0.00752639 0.00854124 0.00957533 0.0106287 0.0117012 0.012793 0.0139041 0.0150343 0.0161838 0.0173276 0.0184406 0.0195228 0.0205742 0.0215949 0.0225849 0.023544 0.0244724 0.0253571 0.026185 0.0269562 0.0276707 0.0283285 0.0289295 0.0294738 0.0299614 0.0303902 0.0307583 0.0310657 0.0313123 0.0314982 0.0316233 0.0316877 0.0316913 0.0316401 0.0315396 0.0313901 0.0311914 0.0309435 0.0306466 0.0303005 0.0299052 0.0294705 0.0290061 0.028512 0.027988 0.0274344 0.026851 0.0262378 0.0255949 0.0249322 0.0242597 0.0235773 0.022885 0.0221829 0.021471 0.0207492 0.0200175 0.0192838 0.0185557 0.0178332 0.0171164 0.0164052 0.0156996 0.0149997 0.0143055 0.0136214 0.0129522 0.0122978 0.0116583 0.0110335 0.0104236 0.00982853 0.00924827 0.00868463 0.00813941 0.00761261 0.00710423 0.00661426 0.00614271 0.00568958 0.00525486 0.00483865 0.00444104 0.00406202 0.0037016 0.00335978 0.00303655 0.00273192 0.00244589 0.00217786 0.00192723 0.00169401 0.00147819 0.00127979 0.00109878 0.000935184 0.000788991 0.000658228 0.000540915 0.000437054 0.000346644 0.000269686 0.000206178 0.000156122 0.000119517 9.15054e-05 6.72285e-05 4.66864e-05 2.98793e-05 1.68071e-05 7.46983e-06 1.86746e-06 0 0 3.48317e-05 0.000139327 0.000313485 0.000557307 0.000870793 0.00125394 0.00170675 0.00222923 0.00283124 0.00352265 0.00430347 0.00517369 0.00613332 0.00718235 0.00832078 0.00954862 0.0108332 0.012142 0.0134749 0.014832 0.0162133 0.0176187 0.0190482 0.0205019 0.0219483 0.0233557 0.0247243 0.026054 0.0273448 0.0285967 0.0298098 0.030984 0.0321029 0.0331501 0.0341256 0.0350295 0.0358617 0.0366222 0.037311 0.0379281 0.0384711 0.0389372 0.0393265 0.0396391 0.0398748 0.0400338 0.0401159 0.0401213 0.0400572 0.0399309 0.0397425 0.0394919 0.0391791 0.0388042 0.0383672 0.0378679 0.0373188 0.036732 0.0361075 0.0354454 0.0347455 0.034008 0.0332329 0.03242 0.0315821 0.0307316 0.0298686 0.0289931 0.0281051 0.0272046 0.0262915 0.0253659 0.0244376 0.0235164 0.0226023 0.0216952 0.0207952 0.0199023 0.0190165 0.0181377 0.0172719 0.0164247 0.0155963 0.0147866 0.0139956 0.0132233 0.0124698 0.011735 0.0110211 0.0103306 0.00966332 0.00901934 0.00839864 0.00780122 0.00722709 0.00667623 0.00614878 0.00564484 0.00516442 0.00470752 0.00427413 0.00386426 0.0034779 0.00311507 0.00277499 0.00245691 0.00216084 0.00188676 0.00163469 0.00140463 0.00119656 0.00101049 0.000843948 0.000694438 0.000561963 0.000446523 0.000348119 0.00026675 0.000202417 0.00015512 0.000118764 8.72548e-05 6.05936e-05 3.87799e-05 2.18137e-05 9.69498e-06 2.42375e-06 0 0 4.34748e-05 0.000173899 0.000391273 0.000695596 0.00108687 0.00156509 0.00213026 0.00278239 0.00353275 0.00439264 0.00536206 0.00644101 0.00762949 0.0089275 0.010335 0.0118521 0.0134386 0.0150544 0.0166994 0.0183738 0.0200775 0.0218104 0.0235727 0.0253642 0.0271465 0.0288809 0.0305674 0.0322061 0.033797 0.03534 0.0368351 0.0382824 0.0396617 0.0409528 0.0421557 0.0432705 0.044297 0.0452355 0.0460857 0.0468478 0.0475185 0.0480946 0.0485762 0.0489631 0.0492555 0.0494534 0.0495567 0.0495654 0.0494884 0.0493349 0.0491046 0.0487977 0.0484142 0.047954 0.0474171 0.0468035 0.0461284 0.0454066 0.0446383 0.0438234 0.0429619 0.0420538 0.0410992 0.040098 0.0390656 0.0380177 0.0369542 0.0358751 0.0347803 0.0336699 0.032544 0.0314024 0.0302573 0.0291208 0.0279928 0.0268735 0.0257627 0.0246605 0.0235668 0.0224817 0.0214124 0.0203661 0.0193428 0.0183425 0.0173651 0.0164107 0.0154793 0.0145709 0.0136883 0.0128344 0.0120092 0.0112126 0.0104447 0.00970541 0.00899483 0.00831292 0.00765983 0.00703573 0.0064406 0.00587445 0.00533728 0.00482909 0.00434987 0.00389964 0.00347744 0.00308233 0.00271431 0.00237337 0.00205953 0.00177277 0.00151309 0.00128051 0.00107199 0.000884546 0.00071816 0.000572837 0.000448576 0.000345378 0.000263242 0.000202168 0.000154785 0.00011372 7.89721e-05 5.05421e-05 2.84299e-05 1.26355e-05 3.15888e-06 0 0 5.33155e-05 0.000213262 0.00047984 0.000853048 0.00133289 0.00191936 0.00261246 0.00341219 0.00433087 0.00538081 0.006562 0.00787446 0.00931817 0.0108931 0.0125994 0.0144369 0.0163573 0.0183124 0.0203022 0.0223266 0.0243856 0.0264793 0.0286077 0.0307707 0.0329222 0.035016 0.0370522 0.0390306 0.0409514 0.0428145 0.0446199 0.0463677 0.0480335 0.0495931 0.0510465 0.0523937 0.0536346 0.0547694 0.0557979 0.0567203 0.0575324 0.0582305 0.0588146 0.0592845 0.0596404 0.0598822 0.06001 0.0600236 0.0599339 0.0597516 0.0594766 0.0591089 0.0586487 0.0580957 0.0574502 0.0567119 0.0558992 0.0550299 0.0541042 0.053122 0.0520834 0.0509883 0.0498367 0.0486287 0.0473829 0.0461179 0.0448339 0.0435307 0.0422084 0.0408671 0.0395065 0.0381269 0.0367428 0.0353688 0.0340049 0.0326512 0.0313076 0.0299741 0.0286508 0.0273375 0.0260432 0.0247765 0.0235374 0.0223259 0.021142 0.0199858 0.0188571 0.0177561 0.0166862 0.0156509 0.0146501 0.0136839 0.0127523 0.0118553 0.0109928 0.0101649 0.00937182 0.00861369 0.00789055 0.0072024 0.00654923 0.00593104 0.00534784 0.00479962 0.00428523 0.0038035 0.00335443 0.00293803 0.00255428 0.0022032 0.00188478 0.00159903 0.00134237 0.00111124 0.000905648 0.000725586 0.000571057 0.00044206 0.000338596 0.000260664 0.000199571 0.000146623 0.000101822 6.51659e-05 3.66558e-05 1.62915e-05 4.07287e-06 0 0 6.43539e-05 0.000257416 0.000579185 0.00102966 0.00160885 0.00231674 0.00315334 0.00411865 0.00522561 0.00648716 0.0079033 0.00947404 0.0111994 0.0130793 0.0151138 0.0173029 0.0195894 0.0219162 0.0242831 0.0266903 0.0291378 0.0316254 0.0341533 0.0367214 0.0392755 0.0417612 0.0441785 0.0465275 0.0488081 0.0510204 0.0531643 0.0552399 0.0572184 0.0590711 0.060798 0.0623991 0.0638744 0.0652239 0.0664476 0.0675456 0.068513 0.069345 0.0700418 0.0706033 0.0710294 0.0713203 0.0714758 0.0714961 0.0713936 0.071181 0.0708583 0.0704255 0.0698826 0.0692296 0.0684664 0.0675932 0.0666312 0.0656019 0.0645053 0.0633414 0.0621101 0.0608115 0.0594455 0.0580122 0.0565338 0.0550323 0.0535078 0.0519602 0.0503896 0.0487959 0.0471792 0.0455395 0.0438941 0.0422604 0.0406385 0.0390284 0.0374299 0.0358433 0.0342683 0.0327051 0.0311641 0.0296557 0.0281799 0.0267368 0.0253263 0.0239484 0.0226032 0.0212906 0.0200148 0.01878 0.0175862 0.0164334 0.0153216 0.0142508 0.013221 0.0122322 0.0112847 0.0103787 0.00951429 0.00869137 0.00790998 0.00717013 0.0064718 0.00581501 0.00519835 0.00462041 0.0040812 0.00358072 0.00311896 0.00269593 0.00231163 0.00196606 0.00165507 0.00137452 0.00112442 0.00090477 0.000715561 0.000556798 0.000428479 0.000330605 0.000253119 0.000185965 0.000129143 8.26512e-05 4.64913e-05 2.06628e-05 5.1657e-06 0 0 7.65899e-05 0.00030636 0.000689309 0.00122544 0.00191475 0.00275724 0.00375291 0.00490176 0.00621696 0.00771169 0.00938595 0.0112397 0.0132731 0.0154859 0.0178783 0.0204502 0.0231349 0.0258656 0.0286423 0.0314651 0.0343338 0.0372487 0.0402095 0.0432164 0.0462063 0.0491163 0.0519465 0.0546968 0.0573671 0.0599576 0.0624682 0.064899 0.0672163 0.0693867 0.0714101 0.0732867 0.0750163 0.0765991 0.0780349 0.0793238 0.0804601 0.0814381 0.0822579 0.0829193 0.0834226 0.0837675 0.0839542 0.0839827 0.0838674 0.0836232 0.0832498 0.0827474 0.082116 0.0813555 0.0804659 0.0794473 0.0783246 0.0771227 0.0758416 0.0744813 0.0730419 0.0715233 0.0699255 0.0682486 0.0665184 0.0647608 0.0629758 0.0611634 0.0593236 0.0574565 0.055562 0.0536401 0.0517112 0.0497957 0.0478937 0.046005 0.0441297 0.0422679 0.0404195 0.0385845 0.0367751 0.0350038 0.0332706 0.0315753 0.029918 0.0282988 0.0267175 0.0251743 0.023674 0.0222217 0.0208174 0.019461 0.0181525 0.016892 0.0156795 0.0145149 0.0133986 0.0123309 0.0113118 0.0103414 0.00941954 0.00854634 0.00772176 0.0069458 0.00621679 0.00553306 0.00489462 0.00430145 0.00375357 0.00325096 0.00279364 0.0023816 0.00201009 0.00167439 0.00137449 0.00111039 0.00088209 0.00068959 0.000532891 0.000411993 0.000315432 0.000231746 0.000160935 0.000102998 5.79365e-05 2.57495e-05 6.43738e-06 0 0 9.00237e-05 0.000360095 0.000810213 0.00144038 0.00225059 0.00324085 0.00441116 0.00576151 0.00730493 0.00905441 0.01101 0.0131716 0.0155393 0.018113 0.0208928 0.0238787 0.0269937 0.0301607 0.0333797 0.0366508 0.0399739 0.0433491 0.0467763 0.0502555 0.0537146 0.0570815 0.0603561 0.0635384 0.0666284 0.0696262 0.0725317 0.0753449 0.0780272 0.0805399 0.082883 0.0850565 0.0870605 0.0888948 0.0905596 0.0920548 0.0933737 0.0945097 0.0954627 0.0962328 0.0968199 0.097224 0.0974452 0.0974834 0.0973555 0.097078 0.0966511 0.0960747 0.0953488 0.0944734 0.0934486 0.0922742 0.0909792 0.0895921 0.088113 0.086542 0.0848789 0.0831239 0.0812768 0.0793378 0.0773366 0.0753034 0.073238 0.0711404 0.0690107 0.0668489 0.0646549 0.0624288 0.0601941 0.0579746 0.0557703 0.0535811 0.051407 0.0492481 0.0471042 0.0449756 0.0428764 0.0408209 0.0388092 0.0368413 0.0349171 0.0330367 0.0312001 0.0294072 0.027664 0.0259761 0.0243437 0.0227667 0.0212451 0.0197789 0.0183682 0.0170128 0.0157133 0.0144701 0.0132831 0.0121524 0.0110779 0.0100597 0.0090977 0.00819199 0.00734056 0.00654146 0.00579468 0.00510023 0.0044581 0.00386829 0.00333081 0.00284565 0.00240745 0.00201085 0.00165585 0.00134244 0.00107064 0.000840438 0.000651833 0.000504827 0.000386508 0.000283965 0.000197198 0.000126207 7.09912e-05 3.15517e-05 7.88791e-06 0 0 0.000104655 0.00041862 0.000941895 0.00167448 0.00261638 0.00376758 0.0051281 0.00669792 0.00848951 0.0105153 0.0127753 0.0152695 0.017998 0.0209606 0.0241575 0.0275886 0.0311659 0.0348015 0.0384953 0.0422475 0.0460579 0.0499266 0.0538536 0.0578389 0.0618005 0.0656567 0.0694073 0.0730524 0.076592 0.0800261 0.0833547 0.0865777 0.0896511 0.0925308 0.0952166 0.0977086 0.100007 0.102111 0.104022 0.105739 0.107254 0.10856 0.109656 0.110543 0.111221 0.11169 0.111949 0.111998 0.111858 0.111546 0.111062 0.110407 0.109581 0.108583 0.107414 0.106074 0.104595 0.10301 0.10132 0.0995233 0.0976211 0.0956131 0.0934993 0.0912797 0.0889886 0.0866601 0.0842943 0.0818912 0.0794507 0.076973 0.0744579 0.0719055 0.0693429 0.0667972 0.0642684 0.0617566 0.0592617 0.0567837 0.0543226 0.0518785 0.0494677 0.0471069 0.0447959 0.0425348 0.0403237 0.0381624 0.036051 0.0339895 0.0319846 0.0300432 0.0281651 0.0263505 0.0245993 0.0229115 0.0212871 0.0197261 0.018229 0.0167964 0.0154282 0.0141244 0.0128851 0.0117101 0.0105996 0.00955359 0.00856967 0.0076456 0.0067814 0.00597705 0.00523255 0.00454791 0.00392313 0.0033582 0.00284713 0.00238389 0.00196849 0.00160093 0.00128122 0.00100934 0.000785304 0.000609107 0.000466347 0.000342623 0.000237932 0.000152277 8.56556e-05 3.80692e-05 9.51729e-06 0 0 0.000120484 0.000481936 0.00108436 0.00192775 0.0030121 0.00433743 0.00590372 0.00771098 0.0097707 0.0120944 0.014682 0.0175336 0.0206492 0.0240287 0.0276722 0.0315796 0.0356514 0.0397879 0.0439892 0.0482552 0.0525859 0.0569814 0.0614416 0.0659665 0.070464 0.0748418 0.0791001 0.0832388 0.0872579 0.0911573 0.0949372 0.0985974 0.102088 0.105359 0.108411 0.111243 0.113855 0.116248 0.118422 0.120375 0.122101 0.123589 0.124839 0.125852 0.126627 0.127165 0.127465 0.127528 0.127374 0.127026 0.126483 0.125745 0.124813 0.123685 0.122363 0.120847 0.119172 0.117377 0.115461 0.113425 0.111268 0.108991 0.106593 0.104074 0.101474 0.0988309 0.0961448 0.0934157 0.0906437 0.0878288 0.084971 0.0820702 0.0791574 0.0762634 0.0733881 0.0705316 0.0676938 0.0648748 0.0620746 0.0592931 0.0565493 0.0538618 0.0512306 0.0486559 0.0461376 0.0436757 0.0412701 0.0389209 0.0366359 0.0344228 0.0322817 0.0302124 0.0282151 0.0262897 0.0244362 0.0226547 0.0209457 0.0193098 0.017747 0.0162575 0.014841 0.0134977 0.0122276 0.0110306 0.0099041 0.00884549 0.00785476 0.0069319 0.00607693 0.00528983 0.00457061 0.00391927 0.00332913 0.00279352 0.00231243 0.00188586 0.00151382 0.0011963 0.000933304 0.000724833 0.000554951 0.000407719 0.000283138 0.000181208 0.00010193 4.53021e-05 1.13255e-05 0 0 0.000137183 0.000548734 0.00123465 0.00219493 0.00342958 0.0049386 0.00672199 0.00877974 0.0111221 0.0137592 0.0166911 0.0199178 0.0234393 0.0272556 0.0313667 0.0357726 0.0403615 0.0450217 0.0497531 0.0545557 0.0594296 0.0643747 0.069391 0.0744786 0.0795346 0.0844564 0.0892438 0.093897 0.0984158 0.1028 0.107051 0.111166 0.115092 0.118771 0.122204 0.125391 0.128331 0.131025 0.133473 0.135674 0.137619 0.139297 0.140708 0.141853 0.142731 0.143341 0.143685 0.143763 0.143597 0.143212 0.142608 0.141785 0.140743 0.139481 0.138001 0.136301 0.134424 0.13241 0.130261 0.127975 0.125554 0.122996 0.120303 0.117473 0.114551 0.11158 0.10856 0.105491 0.102374 0.0992077 0.0959926 0.0927286 0.0894505 0.0861931 0.0829562 0.07974 0.0765443 0.0733693 0.0702149 0.0670811 0.0639891 0.0609603 0.0579946 0.055092 0.0522525 0.0494761 0.0467628 0.0441127 0.0415345 0.039037 0.0366203 0.0342844 0.0320293 0.0298549 0.0277613 0.0257485 0.0238171 0.021968 0.0202011 0.0185164 0.0169139 0.0153936 0.0139556 0.0125997 0.0113231 0.0101227 0.00899853 0.00795057 0.00697883 0.00608332 0.00526403 0.00452096 0.00384677 0.00323412 0.00268301 0.00219344 0.00176541 0.00139892 0.00109397 0.000850558 0.000651208 0.000478439 0.000332249 0.000212639 0.00011961 5.31599e-05 1.329e-05 0 0 0.000154426 0.000617703 0.00138983 0.00247081 0.00386064 0.00555932 0.00756686 0.00988324 0.0125172 0.0154773 0.0187636 0.0223761 0.0263148 0.0305797 0.0351708 0.0400882 0.0452074 0.0504043 0.0556787 0.0610309 0.0664606 0.071968 0.077553 0.0832156 0.0888423 0.0943197 0.0996477 0.104826 0.109856 0.114736 0.119466 0.124047 0.128417 0.132513 0.136336 0.139885 0.14316 0.146162 0.14889 0.151345 0.153514 0.155387 0.156964 0.158243 0.159226 0.159913 0.160303 0.160396 0.160219 0.159798 0.159133 0.158223 0.15707 0.155673 0.154032 0.152146 0.150063 0.147828 0.145441 0.142901 0.140211 0.137368 0.134373 0.131226 0.127976 0.124671 0.121311 0.117896 0.114426 0.110901 0.107321 0.103686 0.100035 0.096406 0.0927997 0.0892157 0.0856541 0.0821149 0.0785981 0.0751038 0.0716555 0.0682772 0.0649689 0.0617304 0.0585618 0.0554632 0.0524345 0.0494757 0.0465967 0.0438075 0.0411081 0.0384984 0.0359785 0.0335483 0.031208 0.0289573 0.0267973 0.0247288 0.0227516 0.020866 0.0190717 0.017369 0.0157576 0.0142377 0.0128059 0.0114588 0.0101965 0.00901881 0.00792588 0.00691766 0.00599415 0.00515537 0.00439333 0.00370007 0.00307559 0.00251988 0.00203295 0.0016148 0.00126543 0.000984832 0.000754012 0.000553968 0.0003847 0.000246208 0.000138492 6.1552e-05 1.5388e-05 0 0 0.000172211 0.000688843 0.0015499 0.00275537 0.00430527 0.00619959 0.00843833 0.0110215 0.013956 0.0172486 0.0208994 0.0249084 0.0292756 0.034001 0.0390845 0.0445263 0.050189 0.0559357 0.0617662 0.0676807 0.073679 0.0797612 0.0859274 0.0921774 0.098387 0.104432 0.110312 0.116027 0.121577 0.126963 0.132184 0.13724 0.142063 0.146585 0.150805 0.154724 0.158342 0.161658 0.164673 0.167387 0.169786 0.171859 0.173604 0.175023 0.176115 0.176879 0.177317 0.177427 0.17724 0.176783 0.176056 0.17506 0.173795 0.17226 0.170456 0.168382 0.16609 0.163629 0.161 0.158203 0.155238 0.152105 0.148804 0.145334 0.14175 0.138104 0.134397 0.130629 0.126799 0.122908 0.118956 0.114943 0.11091 0.106902 0.102918 0.0989587 0.0950231 0.0911117 0.0872244 0.0833612 0.0795485 0.0758126 0.0721535 0.0685712 0.0650657 0.061637 0.058285 0.0550099 0.0518227 0.0487343 0.0457449 0.0428543 0.0400627 0.03737 0.0347762 0.0322813 0.0298863 0.0275921 0.0253988 0.0233063 0.0213146 0.0194238 0.0176338 0.0159446 0.0143526 0.0128539 0.0114486 0.0101366 0.00891805 0.00779284 0.00676099 0.00582251 0.00496883 0.00419138 0.00349017 0.0028652 0.00231646 0.00184396 0.00144769 0.00112766 0.000863362 0.000634307 0.000440491 0.000281914 0.000158577 7.04785e-05 1.76196e-05 0 0 0.000190539 0.000762156 0.00171485 0.00304862 0.00476347 0.0068594 0.00933641 0.0121945 0.0154385 0.0190732 0.0230987 0.0275148 0.0323218 0.0375194 0.0431078 0.0490869 0.0553064 0.0616159 0.0680155 0.0745051 0.0810848 0.0877545 0.0945143 0.101364 0.108169 0.114793 0.121236 0.127499 0.133581 0.139483 0.145204 0.150744 0.15603 0.160986 0.165612 0.169909 0.173876 0.177514 0.180822 0.1838 0.186435 0.188712 0.190631 0.192192 0.193395 0.19424 0.194727 0.194857 0.194659 0.194167 0.193379 0.192295 0.190917 0.189243 0.187273 0.185009 0.182504 0.179814 0.17694 0.173881 0.170637 0.167208 0.163595 0.159797 0.155872 0.151879 0.147819 0.143691 0.139494 0.13523 0.130898 0.126498 0.122077 0.117682 0.113313 0.108969 0.104651 0.10036 0.0960936 0.0918534 0.087668 0.0835664 0.0795485 0.0756144 0.071764 0.0679974 0.0643145 0.0607155 0.0572123 0.0538174 0.0505307 0.0473523 0.044282 0.0413199 0.038466 0.0357204 0.033084 0.030558 0.0281425 0.0258373 0.0236425 0.0215581 0.019584 0.0177204 0.0159631 0.0143079 0.0127549 0.011304 0.00995536 0.00870886 0.00756453 0.00652237 0.00557325 0.00470804 0.00392675 0.00322938 0.00261592 0.00208638 0.00164075 0.00127903 0.000979258 0.000719455 0.000499621 0.000319758 0.000179864 7.99394e-05 1.99848e-05 0 0 0.00020941 0.00083764 0.00188469 0.00335056 0.00523525 0.00753876 0.0102611 0.0134022 0.0169647 0.0209511 0.0253613 0.0301953 0.0354532 0.041135 0.0472406 0.0537701 0.0605595 0.067445 0.0744266 0.0815042 0.088678 0.0959478 0.103314 0.110776 0.118187 0.125402 0.13242 0.139242 0.145867 0.152295 0.158526 0.164561 0.170318 0.175717 0.180757 0.185439 0.189763 0.193729 0.197336 0.200585 0.20346 0.205946 0.208043 0.20975 0.211067 0.211996 0.212534 0.212684 0.212478 0.21195 0.2111 0.209929 0.208436 0.206621 0.204484 0.202026 0.199306 0.196384 0.19326 0.189934 0.186407 0.182678 0.178747 0.174614 0.170343 0.165997 0.161576 0.157081 0.152511 0.147866 0.143147 0.138353 0.133535 0.128745 0.123982 0.119247 0.114539 0.109859 0.105206 0.10058 0.096014 0.0915385 0.0871538 0.0828599 0.0786568 0.0745445 0.070523 0.0665922 0.0627657 0.0590569 0.0554657 0.0519922 0.0486363 0.045398 0.0422775 0.0392745 0.0363905 0.0336265 0.0309827 0.028459 0.0260553 0.0237718 0.0216084 0.0195651 0.0176374 0.0158208 0.0141153 0.012521 0.0110378 0.00966573 0.00840478 0.00725496 0.0062066 0.00525006 0.00438534 0.00361243 0.00293134 0.00234206 0.0018446 0.00143895 0.0011017 0.000809412 0.000562091 0.000359738 0.000202353 8.99346e-05 2.24837e-05 0 0 0.000228824 0.000915295 0.00205941 0.00366118 0.0057206 0.00823766 0.0112124 0.0146447 0.0185347 0.0228822 0.0276872 0.0329499 0.03867 0.0448477 0.051483 0.0585758 0.0659484 0.0734229 0.0809995 0.088678 0.0964585 0.104341 0.112325 0.120412 0.128443 0.13626 0.143865 0.151256 0.158434 0.165399 0.17215 0.178689 0.184927 0.190777 0.19624 0.201315 0.206003 0.210304 0.214216 0.217742 0.220863 0.223562 0.22584 0.227697 0.229132 0.230146 0.230738 0.230909 0.230695 0.230133 0.229221 0.227961 0.226352 0.224395 0.222089 0.219434 0.216495 0.213337 0.20996 0.206364 0.202548 0.198513 0.194259 0.189786 0.185162 0.180456 0.175669 0.1708 0.165849 0.160817 0.155703 0.150507 0.145284 0.140091 0.134927 0.129792 0.124686 0.119609 0.114561 0.109542 0.104587 0.0997291 0.0949695 0.0903078 0.0857441 0.0812782 0.0769103 0.0726403 0.0684829 0.0644527 0.0605497 0.0567741 0.0531256 0.0496044 0.0462105 0.0429438 0.0398057 0.0367976 0.0339195 0.0311713 0.0285532 0.026065 0.0237068 0.0214786 0.0193755 0.0173926 0.01553 0.0137876 0.0121654 0.0106634 0.00928174 0.00802027 0.00686889 0.00581744 0.00486593 0.00401435 0.00326272 0.00261102 0.00205925 0.00160743 0.00123069 0.000904178 0.000627901 0.000401857 0.000226044 0.000100464 2.51161e-05 0 0 0.000248781 0.000995123 0.00223903 0.00398049 0.00621952 0.00895611 0.0121903 0.015922 0.0201484 0.0248666 0.0300766 0.0357785 0.0419722 0.0486576 0.055835 0.0635041 0.071473 0.0795497 0.0877342 0.0960264 0.104426 0.112934 0.12155 0.130273 0.138935 0.147367 0.155569 0.163541 0.171283 