<?xml version="1.0"?> 
<VTKFile type="StructuredGrid" version="0.1"> 
<StructuredGrid WholeExtent="0 128 0 128 0 0"> 
<Piece Extent="0 128 0 128 0 0"> 
<PointData>
<DataArray type="Float32" Name="u" format="ascii" NumberOfComponents="1"> 
0 0 0 0 0 0 0 0 0 0 0 0 0 0 0 0 0 0 0 0 0 0 0 0 0 0 0 0 0 0 0 0 0 0 0 0 0 0 0 0 0 0 0 0 0 0 0 0 0 0 0 0 0 0 0 0 0 0 0 0 0 0 0 0 0 0 0 0 0 0 0 0 0 0 0 0 0 0 0 0 0 0 0 0 0 0 0 0 0 0 0 0 0 0 0 0 0 0 0 0 0 0 0 0 0 0 0 0 0 0 0 0 0 0 0 0 0 0 0 0 0 0 0 0 0 0 0 0 0 0 1.71635e-07 6.8654e-07 1.54471e-06 2.74616e-06 4.29087e-06 6.17886e-06 8.41011e-06 1.09846e-05 1.37982e-05 1.67465e-05 1.98295e-05 2.30473e-05 2.63999e-05 2.98872e-05 3.35092e-05 3.7266e-05 4.11761e-05 4.5258e-05 4.95118e-05 5.39373e-05 5.85346e-05 6.33038e-05 6.82448e-05 7.33576e-05 7.86254e-05 8.40315e-05 8.95759e-05 9.52585e-05 0.000101079 0.000107038 0.000113136 0.000119372 0.000125709 0.000132114 0.000138585 0.000145122 0.000151725 0.000158395 0.000165132 0.000171934 0.000178752 0.000185532 0.000192276 0.000198983 0.000205653 0.000212286 0.000218883 0.000225442 0.000231905 0.000238212 0.000244362 0.000250355 0.000256192 0.000261873 0.000267397 0.000272765 0.00027792 0.000282805 0.00028742 0.000291765 0.000295841 0.000299647 0.000303183 0.00030645 0.000309406 0.000312009 0.000314261 0.000316161 0.00031771 0.000318906 0.00031975 0.000320243 0.000320368 0.000320111 0.000319471 0.000318449 0.000317044 0.000315256 0.000313086 0.000310534 0.000307614 0.000304342 0.000300719 0.000296745 0.000292418 0.00028774 0.000282711 0.00027733 0.000271643 0.000265695 0.000259487 0.000253018 0.00024629 0.0002393 0.00023205 0.00022454 0.00021684 0.000209019 0.000201078 0.000193016 0.000184835 0.000176533 0.000168111 0.000159569 0.000150991 0.000142462 0.000133983 0.000125552 0.000117171 0.000108839 0.000100556 9.23225e-05 8.41618e-05 7.60977e-05 6.81303e-05 6.02596e-05 5.24855e-05 4.48081e-05 3.72273e-05 2.97432e-05 2.27721e-05 1.67305e-05 1.16184e-05 7.43579e-06 4.18263e-06 1.85895e-06 4.64737e-07 0 0 6.8654e-07 2.74616e-06 6.17886e-06 1.09846e-05 1.71635e-05 2.47154e-05 3.36405e-05 4.39386e-05 5.51927e-05 6.69859e-05 7.9318e-05 9.21892e-05 0.000105599 0.000119549 0.000134037 0.000149064 0.000164704 0.000181032 0.000198047 0.000215749 0.000234139 0.000253215 0.000272979 0.00029343 0.000314502 0.000336126 0.000358304 0.000381034 0.000404317 0.000428154 0.000452544 0.000477486 0.000502838 0.000528455 0.000554338 0.000580487 0.000606901 0.000633581 0.000660526 0.000687737 0.000715007 0.000742129 0.000769104 0.000795932 0.000822613 0.000849145 0.000875531 0.000901769 0.000927621 0.000952846 0.000977446 0.00100142 0.00102477 0.00104749 0.00106959 0.00109106 0.00111168 0.00113122 0.00114968 0.00116706 0.00118336 0.00119859 0.00121273 0.0012258 0.00123762 0.00124804 0.00125705 0.00126465 0.00127084 0.00127562 0.001279 0.00128097 0.00128147 0.00128044 0.00127789 0.0012738 0.00126818 0.00126103 0.00125235 0.00124213 0.00123046 0.00121737 0.00120288 0.00118698 0.00116967 0.00115096 0.00113084 0.00110932 0.00108657 0.00106278 0.00103795 0.00101207 0.000985158 0.000957201 0.000928202 0.000898161 0.000867359 0.000836075 0.000804311 0.000772066 0.000739339 0.000706132 0.000672444 0.000638274 0.000603963 0.000569848 0.00053593 0.000502209 0.000468684 0.000435356 0.000402225 0.00036929 0.000336647 0.000304391 0.000272521 0.000241038 0.000209942 0.000179232 0.000148909 0.000118973 9.10884e-05 6.69221e-05 4.64737e-05 2.97432e-05 1.67305e-05 7.43579e-06 1.85895e-06 0 0 1.54471e-06 6.17886e-06 1.39024e-05 2.47154e-05 3.86179e-05 5.56097e-05 7.5691e-05 9.88617e-05 0.000124184 0.000150718 0.000178466 0.000207426 0.000237599 0.000268984 0.000301583 0.000335394 0.000370585 0.000407322 0.000445606 0.000485436 0.000526812 0.000569734 0.000614203 0.000660218 0.000707629 0.000756284 0.000806183 0.000857326 0.000909714 0.000963346 0.00101822 0.00107434 0.00113139 0.00118902 0.00124726 0.0013061 0.00136553 0.00142556 0.00148618 0.00154741 0.00160877 0.00166979 0.00173049 0.00179085 0.00185088 0.00191058 0.00196994 0.00202898 0.00208715 0.0021439 0.00219925 0.0022532 0.00230573 0.00235686 0.00240657 0.00245488 0.00250128 0.00254524 0.00258678 0.00262589 0.00266257 0.00269682 0.00272865 0.00275805 0.00278465 0.00280808 0.00282835 0.00284545 0.00285939 0.00287015 0.00287775 0.00288219 0.00288332 0.002881 0.00287524 0.00286604 0.0028534 0.00283731 0.00281778 0.0027948 0.00276852 0.00273908 0.00270647 0.0026707 0.00263176 0.00258966 0.0025444 0.00249597 0.00244478 0.00239125 0.00233538 0.00227717 0.00221661 0.0021537 0.00208845 0.00202086 0.00195156 0.00188117 0.0018097 0.00173715 0.00166351 0.0015888 0.001513 0.00143612 0.00135892 0.00128216 0.00120584 0.00112997 0.00105454 0.000979551 0.000905006 0.000830903 0.000757456 0.00068488 0.000613173 0.000542336 0.000472369 0.000403273 0.000335046 0.000267688 0.000204949 0.000150575 0.000104566 6.69221e-05 3.76437e-05 1.67305e-05 4.18263e-06 0 0 2.74616e-06 1.09846e-05 2.47154e-05 4.39386e-05 6.8654e-05 9.88617e-05 0.000134562 0.000175754 0.000220771 0.000267943 0.000317272 0.000368757 0.000422398 0.000478194 0.000536147 0.000596256 0.000658818 0.000724128 0.000792188 0.000862997 0.000936554 0.00101286 0.00109192 0.00117372 0.00125801 0.0013445 0.00143321 0.00152414 0.00161727 0.00171262 0.00181017 0.00190994 0.00201135 0.00211382 0.00221735 0.00232195 0.0024276 0.00253432 0.0026421 0.00275095 0.00286003 0.00296852 0.00307642 0.00318373 0.00329045 0.00339658 0.00350212 0.00360708 0.00371048 0.00381139 0.00390979 0.00400568 0.00409908 0.00418997 0.00427835 0.00436424 0.00444672 0.00452487 0.00459872 0.00466825 0.00473346 0.00479435 0.00485093 0.0049032 0.00495049 0.00499215 0.00502818 0.00505858 0.00508335 0.0051025 0.00511601 0.00512389 0.00512589 0.00512178 0.00511154 0.00509518 0.0050727 0.0050441 0.00500938 0.00496854 0.00492182 0.00486948 0.00481151 0.00474791 0.00467869 0.00460385 0.00452337 0.00443728 0.00434628 0.00425112 0.00415179 0.0040483 0.00394063 0.0038288 0.00371281 0.00359264 0.00346943 0.0033443 0.00321724 0.00308826 0.00295736 0.00282453 0.00268978 0.0025531 0.00241585 0.00227939 0.00214372 0.00200883 0.00187474 0.00174142 0.0016089 0.00147716 0.00134659 0.00121756 0.00109009 0.000964153 0.000839768 0.000716929 0.000595636 0.000475891 0.000364354 0.000267688 0.000185895 0.000118973 6.69221e-05 2.97432e-05 7.43579e-06 0 0 4.29087e-06 1.71635e-05 3.86179e-05 6.8654e-05 0.000107272 0.000154471 0.000210253 0.000274616 0.000344954 0.000418662 0.000495738 0.000576183 0.000659996 0.000747179 0.00083773 0.000931651 0.0010294 0.00113145 0.00123779 0.00134843 0.00146337 0.0015826 0.00170612 0.00183394 0.00196564 0.00210079 0.0022394 0.00238146 0.00252698 0.00267596 0.0028284 0.00298429 0.00314274 0.00330285 0.00346461 0.00362804 0.00379313 0.00395988 0.00412829 0.00429836 0.00446879 0.00463831 0.0048069 0.00497458 0.00514133 0.00530716 0.00547207 0.00563606 0.00579763 0.00595529 0.00610904 0.00625888 0.00640481 0.00654682 0.00668493 0.00681912 0.00694799 0.00707012 0.0071855 0.00729413 0.00739603 0.00749118 0.00757958 0.00766125 0.00773514 0.00780023 0.00785653 0.00790404 0.00794274 0.00797265 0.00799376 0.00800608 0.00800921 0.00800278 0.00798678 0.00796122 0.0079261 0.00788141 0.00782716 0.00776334 0.00769034 0.00760856 0.00751798 0.00741861 0.00731046 0.00719351 0.00706777 0.00693324 0.00679106 0.00664237 0.00648717 0.00632546 0.00615724 0.00598251 0.00580126 0.00561351 0.00542099 0.00522547 0.00502694 0.00482541 0.00462087 0.00441333 0.00420277 0.00398922 0.00377477 0.00356155 0.00334956 0.0031388 0.00292927 0.00272098 0.0025139 0.00230806 0.00210405 0.00190244 0.00170326 0.00150649 0.00131214 0.0011202 0.000930682 0.000743579 0.000569303 0.000418263 0.000290461 0.000185895 0.000104566 4.64737e-05 1.16184e-05 0 0 6.17886e-06 2.47154e-05 5.56097e-05 9.88617e-05 0.000154471 0.000222439 0.000302764 0.000395447 0.000496734 0.000602873 0.000713862 0.000829703 0.000950395 0.00107594 0.00120633 0.00134158 0.00148234 0.00162929 0.00178242 0.00194174 0.00210725 0.00227894 0.00245681 0.00264087 0.00283052 0.00302514 0.00322473 0.00342931 0.00363886 0.00385339 0.00407289 0.00429737 0.00452554 0.0047561 0.00498905 0.00522438 0.00546211 0.00570223 0.00594473 0.00618963 0.00643506 0.00667916 0.00692194 0.00716339 0.00740351 0.00764231 0.00787978 0.00811592 0.00834859 0.00857562 0.00879702 0.00901279 0.00922292 0.00942743 0.0096263 0.00981954 0.0100051 0.010181 0.0103471 0.0105036 0.0106503 0.0107873 0.0109146 0.0110322 0.0111386 0.0112323 0.0113134 0.0113818 0.0114375 0.0114806 0.011511 0.0115287 0.0115333 0.011524 0.011501 0.0114642 0.0114136 0.0113492 0.0112711 0.0111792 0.0110741 0.0109563 0.0108259 0.0106828 0.0105271 0.0103587 0.0101776 0.00998387 0.00977913 0.00956502 0.00934153 0.00910866 0.00886642 0.00861481 0.00835382 0.00808345 0.00780623 0.00752468 0.0072388 0.00694859 0.00665405 0.00635519 0.00605199 0.00574447 0.00543567 0.00512863 0.00482337 0.00451988 0.00421816 0.0039182 0.00362002 0.00332361 0.00302983 0.00273952 0.00245269 0.00216935 0.00188948 0.00161309 0.00134018 0.00107075 0.000819796 0.000602299 0.000418263 0.000267688 0.000150575 6.69221e-05 1.67305e-05 0 0 8.41011e-06 3.36405e-05 7.5691e-05 0.000134562 0.000210253 0.000302764 0.000412096 0.000538247 0.000676111 0.000820577 0.000971646 0.00112932 0.00129359 0.00146447 0.00164195 0.00182604 0.00201763 0.00221764 0.00242608 0.00264293 0.0028682 0.00310189 0.003344 0.00359452 0.00385265 0.00411755 0.00438922 0.00466767 0.00495289 0.00524489 0.00554366 0.0058492 0.00615976 0.00647358 0.00679065 0.00711097 0.00743454 0.00776136 0.00809144 0.00842478 0.00875883 0.00909108 0.00942153 0.00975017 0.010077 0.010402 0.0107253 0.0110467 0.0113634 0.0116724 0.0119737 0.0122674 0.0125534 0.0128318 0.0131025 0.0133655 0.0136181 0.0138574 0.0140836 0.0142965 0.0144962 0.0146827 0.014856 0.015016 0.0151609 0.0152885 0.0153988 0.0154919 0.0155678 0.0156264 0.0156678 0.0156919 0.015698 0.0156854 0.0156541 0.015604 0.0155352 0.0154476 0.0153412 0.0152161 0.0150731 0.0149128 0.0147352 0.0145405 0.0143285 0.0140993 0.0138528 0.0135892 0.0133105 0.0130191 0.0127149 0.0123979 0.0120682 0.0117257 0.0113705 0.0110025 0.0106251 0.0102419 0.00985281 0.0094578 0.00905691 0.00865012 0.00823744 0.00781886 0.00739855 0.00698064 0.00656514 0.00615206 0.00574138 0.00533311 0.00492725 0.0045238 0.00412393 0.00372879 0.00333839 0.00295272 0.00257179 0.00219559 0.00182414 0.00145741 0.00111583 0.000819796 0.000569303 0.000364354 0.000204949 9.10884e-05 2.27721e-05 0 0 1.09846e-05 4.39386e-05 9.88617e-05 0.000175754 0.000274616 0.000395447 0.000538247 0.000703017 0.000883083 0.00107177 0.00126909 0.00147503 0.00168959 0.00191278 0.00214459 0.00238503 0.00263527 0.00289651 0.00316875 0.00345199 0.00374622 0.00405144 0.00436767 0.00469489 0.00503203 0.00537802 0.00573286 0.00609654 0.00646908 0.00685046 0.0072407 0.00763978 0.00804541 0.00845529 0.00886941 0.00928779 0.00971042 0.0101373 0.0105684 0.0110038 0.0114401 0.0118741 0.0123057 0.0127349 0.0131618 0.0135863 0.0140085 0.0144283 0.0148419 0.0152455 0.0156391 0.0160227 0.0163963 0.0167599 0.0171134 0.017457 0.0177869 0.0180995 0.0183949 0.018673 0.0189338 0.0191774 0.0194037 0.0196128 0.019802 0.0199686 0.0201127 0.0202343 0.0203334 0.02041 0.020464 0.0204956 0.0205036 0.0204871 0.0204462 0.0203807 0.0202908 0.0201764 0.0200375 0.0198741 0.0196873 0.0194779 0.019246 0.0189917 0.0187148 0.0184154 0.0180935 0.0177491 0.0173851 0.0170045 0.0166072 0.0161932 0.0157625 0.0153152 0.0148512 0.0143706 0.0138777 0.0133772 0.012869 0.0123531 0.0118294 0.0112981 0.0107591 0.0102124 0.00966341 0.00911757 0.00857488 0.00803534 0.00749894 0.0069657 0.0064356 0.00590864 0.00538636 0.00487026 0.00436034 0.00385661 0.00335907 0.00286772 0.00238255 0.00190356 0.00145741 0.00107075 0.000743579 0.000475891 0.000267688 0.000118973 2.97432e-05 0 0 1.37887e-05 5.51546e-05 0.000124098 0.000220618 0.000344716 0.000496391 0.000675644 0.000882474 0.00110848 0.00134526 0.00159282 0.00185115 0.00212025 0.00240014 0.00269079 0.00299222 0.00330592 0.00363337 0.00397456 0.00432952 0.00469822 0.00508067 0.00547688 0.00588684 0.00630921 0.00674263 0.00718712 0.00764266 0.00810927 0.00858694 0.00907566 0.00957545 0.0100834 0.0105967 0.0111153 0.0116391 0.0121683 0.0127028 0.0132426 0.0137877 0.014334 0.0148773 0.0154176 0.0159549 0.0164894 0.0170208 0.0175493 0.0180748 0.0185925 0.0190977 0.0195904 0.0200705 0.0205381 0.0209931 0.0214356 0.0218656 0.0222784 0.0226697 0.0230393 0.0233874 0.0237138 0.0240186 0.0243017 0.0245633 0.0247999 0.0250084 0.0251887 0.0253408 0.0254646 0.0255603 0.0256279 0.0256672 0.0256771 0.0256563 0.0256049 0.0255228 0.0254101 0.0252668 0.0250928 0.0248881 0.0246541 0.0243918 0.0241014 0.0237829 0.0234361 0.0230612 0.0226582 0.0222269 0.0217712 0.0212946 0.0207971 0.0202788 0.0197396 0.0191795 0.0185986 0.0179968 0.0173797 0.016753 0.0161167 0.0154707 0.0148151 0.0141499 0.013475 0.0127905 0.0121031 0.0114197 0.0107402 0.0100646 0.00939293 0.0087252 0.0080614 0.00740152 0.00674747 0.00610112 0.00546249 0.00483156 0.00420834 0.00359283 0.00298503 0.00238494 0.00182597 0.00134153 0.000931619 0.000596236 0.000335383 0.000149059 3.72647e-05 0 0 1.67084e-05 6.68335e-05 0.000150375 0.000267334 0.000417709 0.000601501 0.00081871 0.00106934 0.00134313 0.00162984 0.00192946 0.002242 0.00256745 0.00290582 0.00325711 0.00362131 0.00400022 0.00439567 0.00480763 0.00523611 0.00568112 0.00614264 0.00662069 0.00711526 0.00762472 0.00814746 0.00868347 0.00923275 0.0097953 0.0103711 0.0109602 0.0115626 0.0121747 0.0127933 0.0134181 0.0140493 0.0146868 0.0153307 0.0159809 0.0166375 0.0172954 0.0179498 0.0186005 0.0192476 0.0198911 0.020531 0.0211673 0.0218 0.0224233 0.0230315 0.0236245 0.0242025 0.0247653 0.0253129 0.0258455 0.0263629 0.0268597 0.0273305 0.0277753 0.028194 0.0285866 0.0289533 0.0292938 0.0296084 0.0298929 0.0301435 0.0303602 0.0305429 0.0306916 0.0308065 0.0308873 0.0309342 0.0309457 0.0309203 0.030858 0.0307588 0.0306227 0.0304497 0.0302398 0.029993 0.0297108 0.0293946 0.0290446 0.0286607 0.0282429 0.0277911 0.0273055 0.0267859 0.0262368 0.0256626 0.0250633 0.0244389 0.0237894 0.0231147 0.0224149 0.02169 0.0209468 0.0201919 0.0194254 0.0186473 0.0178576 0.0170562 0.0162432 0.0154187 0.0145906 0.0137673 0.0129486 0.0121347 0.0113254 0.0105209 0.009721 0.00892585 0.00813763 0.0073586 0.00658875 0.00582809 0.00507662 0.00433433 0.00360122 0.00287731 0.00220294 0.00161848 0.00112395 0.000719326 0.000404621 0.000179832 4.49579e-05 0 0 1.97438e-05 7.89752e-05 0.000177694 0.000315901 0.000493595 0.000710777 0.000967447 0.0012636 0.00158703 0.0019255 0.00227901 0.00264757 0.00303118 0.00342983 0.00384353 0.00427227 0.00471819 0.00518341 0.00566794 0.00617177 0.00669491 0.00723735 0.00779909 0.00838014 0.00897858 0.00959251 0.0102219 0.0108668 0.0115272 0.012203 0.0128943 0.0136012 0.0143194 0.015045 0.015778 0.0165183 0.017266 0.018021 0.0187835 0.0195532 0.0203246 0.0210916 0.0218544 0.0226129 0.023367 0.024117 0.0248626 0.0256039 0.0263342 0.0270468 0.0277416 0.0284186 0.0290778 0.0297193 0.030343 0.0309489 0.0315307 0.032082 0.0326027 0.0330928 0.0335525 0.0339815 0.0343801 0.0347481 0.0350809 0.035374 0.0356272 0.0358407 0.0360144 0.0361483 0.0362424 0.0362967 0.0363095 0.0362791 0.0362055 0.0360886 0.0359284 0.0357251 0.0354785 0.0351887 0.0348574 0.0344863 0.0340756 0.0336251 0.0331349 0.032605 0.0320354 0.031426 0.030782 0.0301087 0.0294059 0.0286736 0.027912 0.0271209 0.0263004 0.0254504 0.0245789 0.0236938 0.0227951 0.0218827 0.0209567 0.020017 0.0190637 0.0180968 0.0171258 0.0161603 0.0152002 0.0142456 0.0132964 0.0123527 0.0114144 0.0104816 0.00955684 0.00864268 0.00773914 0.00684621 0.0059639 0.0050922 0.00423112 0.00338065 0.00258831 0.00190162 0.00132057 0.000845162 0.000475404 0.000211291 5.28226e-05 0 0 2.28949e-05 9.15798e-05 0.000206055 0.000366319 0.000572374 0.000824218 0.00112185 0.00146528 0.00184018 0.00223225 0.00264148 0.00306788 0.00351144 0.00397217 0.00445006 0.00494512 0.00545981 0.00599661 0.0065555 0.0071365 0.00773959 0.00836479 0.00901209 0.00968149 0.0103708 0.0110778 0.0118024 0.0125448 0.0133049 0.0140826 0.0148781 0.0156912 0.0165174 0.0173519 0.0181948 0.0190461 0.0199057 0.0207737 0.0216501 0.0225349 0.0234213 0.0243028 0.0251793 0.0260507 0.0269172 0.0277787 0.0286352 0.0294866 0.0303254 0.0311437 0.0319415 0.0327189 0.0334758 0.0342122 0.0349282 0.0356237 0.0362914 0.0369241 0.0375216 0.0380839 0.0386112 0.0391034 0.0395604 0.0399824 0.0403639 0.0406997 0.0409898 0.0412342 0.0414329 0.0415859 0.0416931 0.0417547 0.0417685 0.0417327 0.0416473 0.0415122 0.0413274 0.041093 0.040809 0.0404752 0.0400939 0.0396669 0.0391943 0.0386761 0.0381123 0.0375029 0.0368479 0.0361472 0.0354068 0.0346327 0.0338247 0.0329829 0.0321074 0.031198 0.0302548 0.0292779 0.0282762 0.0272588 0.0262257 0.0251769 0.0241125 0.0230324 0.0219365 0.020825 0.0197088 0.0185988 0.0174949 0.0163973 0.0153059 0.0142207 0.0131416 0.0120688 0.0110051 0.00995337 0.00891365 0.00788592 0.00687019 0.00586645 0.00487472 0.00389497 0.00298209 0.00219092 0.00152147 0.000973744 0.000547731 0.000243436 6.0859e-05 0 0 2.61618e-05 0.000104647 0.000235456 0.000418589 0.000654045 0.000941825 0.00128193 0.00167436 0.00210258 0.00255008 0.00301686 0.00350291 0.00400823 0.00453283 0.00507671 0.00563985 0.0062251 0.00683525 0.00747031 0.00813029 0.00881517 0.00952497 0.0102597 0.0110193 0.0118013 0.0126032 0.0134251 0.0142668 0.0151284 0.0160099 0.0169114 0.0178327 0.0187686 0.0197139 0.0206686 0.0216327 0.0226061 0.0235888 0.024581 0.0255824 0.0265857 0.0275833 0.0285751 0.0295612 0.0305415 0.0315161 0.032485 0.0334481 0.0343968 0.0353222 0.0362244 0.0371034 0.0379592 0.0387917 0.0396011 0.0403872 0.0411419 0.0418568 0.0425319 0.0431673 0.0437629 0.0443188 0.0448349 0.0453113 0.0457419 0.0461208 0.046448 0.0467234 0.0469472 0.0471192 0.0472395 0.0473081 0.0473227 0.0472812 0.0471835 0.0470297 0.0468197 0.0465535 0.0462312 0.0458527 0.0454203 0.0449364 0.0444009 0.0438138 0.0431751 0.0424848 0.041743 0.0409495 0.0401112 0.0392346 0.0383198 0.0373668 0.0363756 0.0353461 0.0342784 0.0331724 0.0320385 0.0308868 0.0297173 0.02853 0.027325 0.0261022 0.0248616 0.0236033 0.0223395 0.0210827 0.0198328 0.0185899 0.0173539 0.0161248 0.0149027 0.0136875 0.0124824 0.0112907 0.0101123 0.00894722 0.00779548 0.00665708 0.00553202 0.00442028 0.00338428 0.00248641 0.00172667 0.00110507 0.000621602 0.000276267 6.90669e-05 0 0 2.95444e-05 0.000118177 0.000265899 0.00047271 0.000738609 0.0010636 0.00144767 0.00189084 0.00237424 0.00287901 0.00340515 0.00395267 0.00452156 0.00511182 0.00572346 0.00635647 0.00701404 0.00769934 0.00841237 0.00915315 0.00992165 0.0107179 0.0115419 0.0123936 0.0132702 0.0141689 0.0150898 0.0160327 0.0169978 0.017985 0.0189942 0.0200256 0.0210732 0.0221312 0.0231995 0.0242781 0.025367 0.0264663 0.0275759 0.0286959 0.0298178 0.0309331 0.032042 0.0331443 0.0342401 0.0353294 0.0364121 0.0374884 0.0385483 0.0395823 0.0405902 0.0415721 0.042528 0.0434578 0.0443616 0.0452395 0.046082 0.0468801 0.0476337 0.0483429 0.0490076 0.0496278 0.0502035 0.0507348 0.0512149 0.0516372 0.0520017 0.0523084 0.0525572 0.0527483 0.0528815 0.0529569 0.0529721 0.0529244 0.0528141 0.052641 0.0524051 0.0521065 0.0517451 0.051321 0.0508367 0.0502947 0.0496952 0.049038 0.0483232 0.0475507 0.0467207 0.045833 0.0448951 0.0439145 0.0428913 0.0418252 0.0407165 0.0395651 0.0383709 0.0371341 0.0358659 0.0345778 0.0332699 0.031942 0.0305942 0.0292266 0.027839 0.0264316 0.025018 0.0236121 0.0222138 0.0208233 0.0194403 0.0180651 0.0166975 0.0153375 0.0139888 0.0126546 0.011335 0.0100301 0.00873978 0.00746409 0.00620302 0.00495657 0.00379487 0.00278807 0.00193616 0.00123914 0.000697017 0.000309785 7.74464e-05 0 0 3.30426e-05 0.00013217 0.000297384 0.000528682 0.000826066 0.00118953 0.00161909 0.00211473 0.00265514 0.00321902 0.00380635 0.00441715 0.00505141 0.00570914 0.00639033 0.00709497 0.00782664 0.00858888 0.00938169 0.0102051 0.011059 0.0119435 0.0128586 0.0138043 0.0147774 0.0157749 0.0167966 0.0178427 0.018913 0.0200077 0.0211267 0.02227 0.0234311 0.0246036 0.0257873 0.0269823 0.0281886 0.0294062 0.0306351 0.0318753 0.0331175 0.0343523 0.0355798 0.0368 0.0380128 0.0392183 0.0404165 0.0416073 0.0427801 0.0439239 0.0450389 0.0461249 0.0471821 0.0482104 0.0492099 0.0501804 0.0511119 0.0519941 0.0528271 0.0536107 0.0543452 0.0550303 0.0556662 0.0562529 0.0567829 0.0572489 0.0576509 0.057989 0.058263 0.0584731 0.0586191 0.0587012 0.0587166 0.0586625 0.058539 0.0583461 0.0580838 0.057752 0.0573508 0.0568802 0.056343 0.055742 0.0550773 0.0543488 0.0535566 0.0527007 0.051781 0.0507976 0.0497586 0.0486724 0.047539 0.0463583 0.0451303 0.043855 0.0425326 0.0411628 0.0397584 0.0383319 0.0368834 0.0354128 0.0339202 0.0324055 0.0308687 0.0293099 0.0277442 0.0261869 0.024638 0.0230975 0.0215653 0.0200415 0.0185261 0.0170191 0.0155242 0.0140451 0.0125819 0.0111346 0.00970309 0.00828748 0.00688772 0.00550384 0.00421387 0.00309591 0.00214994 0.00137596 0.000773977 0.00034399 8.59974e-05 0 0 3.66566e-05 0.000146626 0.000329909 0.000586506 0.000916415 0.00131964 0.00179617 0.00234602 0.0029453 0.00357011 0.00422047 0.00489637 0.0055978 0.00632478 0.0070773 0.00785536 0.0086629 0.00950386 0.0103782 0.0112861 0.0122273 0.0132019 0.01421 0.0152515 0.016323 0.017421 0.0185455 0.0196965 0.0208741 0.0220782 0.0233088 0.0245659 0.0258424 0.0271311 0.0284321 0.0297453 0.0310708 0.0324085 0.0337584 0.0351206 0.0364848 0.0378408 0.0391887 0.0405283 0.0418598 0.0431831 0.0444982 0.0458051 0.047092 0.0483471 0.0495704 0.050762 0.0519217 0.0530496 0.0541458 0.0552101 0.0562315 0.0571987 0.0581118 0.0589708 0.0597757 0.0605264 0.0612231 0.0618656 0.0624459 0.0629559 0.0633957 0.0637653 0.0640646 0.0642936 0.0644524 0.0645409 0.0645563 0.0644954 0.0643583 0.0641451 0.0638557 0.06349 0.0630482 0.0625302 0.0619391 0.0612781 0.0605472 0.0597463 0.0588754 0.0579347 0.0569239 0.0558433 0.0547017 0.0535083 0.052263 0.0509658 0.0496168 0.048216 0.0467632 0.0452586 0.043716 0.0421491 0.0405579 0.0389425 0.0373028 0.0356389 0.0339507 0.0322382 0.0305182 0.0288072 0.0271053 0.0254125 0.0237288 0.0220541 0.0203886 0.018732 0.0170886 0.0154622 0.0138529 0.0122606 0.0106854 0.00912724 0.00758613 0.00606208 0.00464128 0.00340992 0.002368 0.00151552 0.000852481 0.00037888 9.47201e-05 0 0 4.03951e-05 0.00016158 0.000363556 0.000646321 0.00100988 0.00145422 0.00197936 0.00258529 0.00324542 0.00393317 0.00464854 0.00539152 0.00616213 0.00696036 0.0077862 0.00863967 0.00952509 0.0104468 0.0114048 0.0123991 0.0134297 0.0144966 0.0155998 0.0167393 0.0179113 0.019112 0.0203414 0.0215996 0.0228865 0.0242022 0.0255465 0.0269196 0.0283137 0.0297209 0.0311413 0.0325748 0.0340215 0.0354814 0.0369544 0.0384406 0.0399289 0.0414081 0.0428782 0.0443392 0.0457912 0.0472341 0.0486679 0.0500926 0.0514954 0.0528635 0.0541967 0.0554952 0.0567589 0.0579879 0.059182 0.0603414 0.0614538 0.0625072 0.0635015 0.0644367 0.0653129 0.0661299 0.0668879 0.0675868 0.0682179 0.0687724 0.0692503 0.0696515 0.0699761 0.0702242 0.0703956 0.0704904 0.0705053 0.0704372 0.0702861 0.0700519 0.0697346 0.0693343 0.068851 0.0682846 0.0676385 0.0669163 0.0661178 0.065243 0.0642921 0.0632649 0.0621614 0.0609818 0.0597358 0.0584332 0.0570741 0.0556585 0.0541863 0.0526576 0.0510724 0.0494307 0.0477474 0.0460376 0.0443014 0.0425386 0.0407494 0.0389336 0.0370914 0.0352226 0.0333455 0.0314782 0.0296206 0.0277728 0.0259348 0.0241066 0.0222881 0.0204794 0.0186847 0.0169082 0.01515 0.01341 0.0116882 0.00998457 0.00829921 0.00663208 0.00507769 0.00373055 0.00259066 0.00165802 0.000932636 0.000414505 0.000103626 0 0 4.42669e-05 0.000177068 0.000398402 0.00070827 0.00110667 0.00159361 0.00216908 0.00283308 0.0035562 0.00430904 0.00509158 0.00590384 0.0067458 0.00761747 0.00851886 0.00944995 0.0104155 0.0114202 0.0124642 0.0135473 0.0146696 0.0158311 0.0170318 0.0182717 0.0195467 0.0208526 0.0221894 0.0235572 0.0249559 0.0263856 0.0278462 0.0293377 0.0308518 0.0323799 0.0339221 0.0354784 0.0370488 0.0386332 0.0402317 0.0418443 0.0434589 0.0450635 0.0466581 0.0482427 0.0498173 0.0513819 0.0529365 0.0544811 0.0560017 0.0574846 0.0589296 0.0603367 0.0617061 0.0630376 0.0643313 0.0655871 0.066792 0.0679327 0.0690094 0.0700219 0.0709703 0.0718545 0.0726747 0.0734307 0.0741131 0.0747125 0.0752287 0.0756619 0.076012 0.076279 0.0764628 0.0765637 0.0765779 0.0765021 0.0763363 0.0760805 0.0757346 0.0752987 0.0747727 0.0741567 0.0734544 0.0726695 0.0718019 0.0708518 0.069819 0.0687036 0.0675055 0.0662249 0.0648723 0.0634584 0.0619832 0.0604467 0.058849 0.0571899 0.0554696 0.053688 0.0518614 0.050006 0.0481218 0.0462088 0.044267 0.0422965 0.0402972 0.0382691 0.0362318 0.034205 0.0321887 0.0301828 0.0281875 0.0262025 0.0242281 0.0222641 0.0203151 0.0183854 0.0164752 0.0145843 0.0127128 0.0108607 0.00902793 0.00721459 0.00552367 0.00405821 0.0028182 0.00180365 0.00101455 0.000450912 0.000112728 0 0 4.8272e-05 0.000193088 0.000434448 0.000772352 0.0012068 0.00173779 0.00236533 0.00308941 0.00387766 0.00469773 0.00554962 0.00643331 0.00734881 0.00829613 0.00927526 0.0102862 0.0113341 0.0124241 0.0135563 0.0147305 0.0159469 0.0172054 0.018506 0.0198488 0.0212291 0.0226427 0.0240893 0.0255692 0.0270822 0.0286283 0.0302077 0.0318201 0.0334567 0.0351082 0.0367747 0.0384561 0.0401525 0.0418639 0.0435902 0.0453315 0.0470748 0.0488071 0.0505285 0.0522388 0.0539382 0.0556266 0.057304 0.0589704 0.0606109 0.0622104 0.0637689 0.0652865 0.0667632 0.0681988 0.0695936 0.0709473 0.072246 0.0734754 0.0746355 0.0757264 0.076748 0.0777003 0.0785834 0.0793972 0.0801315 0.0807762 0.0813311 0.0817964 0.0821721 0.082458 0.0826543 0.0827609 0.0827741 0.0826901 0.082509 0.0822308 0.0818555 0.081383 0.0808134 0.0801467 0.0793868 0.0785378 0.0775997 0.0765725 0.0754562 0.0742507 0.0729561 0.0715724 0.0701111 0.0685837 0.0669902 0.0653305 0.0636047 0.0618128 0.0599548 0.0580307 0.056058 0.0540541 0.0520191 0.049953 0.0478558 0.0457275 0.0435681 0.0413776 0.0391771 0.0369877 0.0348095 0.0326425 0.0304867 0.028342 0.0262085 0.0240862 0.0219797 0.0198938 0.0178284 0.0157836 0.0137593 0.0117555 0.00977229 0.00780961 0.00597923 0.00439291 0.00305063 0.0019524 0.00109823 0.000488101 0.000122025 0 0 5.24104e-05 0.000209642 0.000471693 0.000838566 0.00131026 0.00188677 0.00256811 0.00335426 0.00420979 0.00509925 0.00602263 0.00697994 0.00797117 0.00899633 0.0100554 0.0111484 0.0122809 0.0134585 0.0146812 0.0159489 0.0172617 0.0186195 0.0200225 0.0214705 0.0229587 0.0244823 0.0260413 0.0276357 0.0292654 0.0309305 0.032631 0.0343669 0.0361284 0.0379057 0.0396989 0.0415079 0.0433327 0.0451734 0.04703 0.0489024 0.0507766 0.0526389 0.0544892 0.0563275 0.0581538 0.0599681 0.0617704 0.0635607 0.0653229 0.0670409 0.0687148 0.0703445 0.0719301 0.0734716 0.0749689 0.076422 0.0778158 0.0791351 0.0803799 0.0815502 0.082646 0.0836672 0.084614 0.0854862 0.086273 0.0869634 0.0875575 0.0880551 0.0884564 0.0887613 0.0889698 0.089082 0.0890937 0.0890012 0.0888042 0.0885029 0.0880973 0.0875874 0.086973 0.0862544 0.0854357 0.0845212 0.0835111 0.0824052 0.0812036 0.0799063 0.0785133 0.0770246 0.0754524 0.0738093 0.0720951 0.0703099 0.0684536 0.0665264 0.064528 0.0624587 0.0603371 0.058182 0.0559934 0.0537713 0.0515158 0.0492267 0.0469042 0.0445481 0.0421813 0.0398263 0.0374832 0.0351519 0.0328325 0.030525 0.0282294 0.0259456 0.0236786 0.0214333 0.0192097 0.0170078 0.0148276 0.0126691 0.0105323 0.00841715 0.00644438 0.00473465 0.00328795 0.00210429 0.00118366 0.000526072 0.000131518 0 0 5.66821e-05 0.000226728 0.000510139 0.000906914 0.00141705 0.00204056 0.00277742 0.00362765 0.00455259 0.00551358 0.00651063 0.00754372 0.00861287 0.00971806 0.0108593 0.0120366 0.013256 0.0145234 0.0158388 0.0172023 0.0186139 0.0200735 0.0215811 0.0231368 0.0247354 0.0263715 0.0280452 0.0297566 0.0315055 0.0332921 0.0351162 0.036978 0.0388669 0.0407725 0.0426948 0.0446338 0.0465895 0.0485619 0.050551 0.0525568 0.0545644 0.0565589 0.0585404 0.0605088 0.0624641 0.0644064 0.0663356 0.0682518 0.0701377 0.0719761 0.0737672 0.0755108 0.077207 0.0788558 0.0804572 0.0820112 0.0835015 0.0849119 0.0862425 0.0874933 0.0886642 0.0897553 0.0907665 0.0916979 0.0925377 0.0932743 0.0939078 0.094438 0.094865 0.0951889 0.0954095 0.095527 0.095537 0.0954353 0.0952219 0.0948969 0.0944601 0.0939117 0.0932516 0.0924798 0.091601 0.0906198 0.0895361 0.08835 0.0870614 0.0856704 0.084177 0.0825812 0.0808961 0.0791351 0.0772979 0.0753848 0.0733957 0.0713305 0.0691893 0.066972 0.0646988 0.0623897 0.0600447 0.0576637 0.0552468 0.0527941 0.0503054 0.0477807 0.0452444 0.0427207 0.0402096 0.037711 0.035225 0.0327515 0.0302907 0.0278424 0.0254118 0.0230041 0.0206192 0.0182571 0.0159179 0.0136015 0.0113079 0.0090372 0.0069191 0.00508342 0.00353015 0.0022593 0.00127086 0.000564825 0.000141206 0 0 6.10871e-05 0.000244348 0.000549784 0.000977394 0.00152718 0.00219914 0.00299327 0.00390958 0.00490606 0.00594074 0.00701361 0.00812466 0.00927391 0.0104613 0.011687 0.0129508 0.0142592 0.0156187 0.0170292 0.0184908 0.0200035 0.0215672 0.023182 0.0248478 0.0265591 0.0283102 0.0301012 0.031932 0.0338026 0.035713 0.0376633 0.0396534 0.0416722 0.0437085 0.0457624 0.0478338 0.0499227 0.0520292 0.0541532 0.0562948 0.058438 0.0605671 0.062682 0.0647827 0.0668692 0.0689416 0.0709998 0.0730438 0.0750553 0.0770161 0.0789261 0.0807854 0.0825939 0.0843516 0.0860586 0.0877148 0.0893029 0.0908058 0.0922234 0.0935557 0.0948027 0.0959645 0.0970409 0.0980321 0.0989255 0.0997088 0.100382 0.100945 0.101398 0.101741 0.101973 0.102096 0.102104 0.101992 0.101762 0.101413 0.100944 0.100356 0.0996492 0.0988231 0.0978829 0.0968334 0.0956746 0.0944067 0.0930295 0.091543 0.0899473 0.0882424 0.0864422 0.084561 0.0825987 0.0805553 0.0784308 0.0762252 0.0739385 0.0715707 0.0691431 0.0666772 0.0641729 0.0616302 0.059049 0.0564296 0.0537717 0.0510754 0.0483666 0.045671 0.0429887 0.0403198 0.037664 0.0350216 0.0323924 0.0297765 0.0271793 0.024606 0.0220567 0.0195313 0.01703 0.0145526 0.0120992 0.00966976 0.00740341 0.00543924 0.00377725 0.00241744 0.00135981 0.0006043