<?xml version="1.0"?> 
<VTKFile type="StructuredGrid" version="0.1"> 
<StructuredGrid WholeExtent="0 128 0 128 0 0"> 
<Piece Extent="0 128 0 128 0 0"> 
<PointData>
<DataArray type="Float32" Name="u" format="ascii" NumberOfComponents="1"> 
0 0 0 0 0 0 0 0 0 0 0 0 0 0 0 0 0 0 0 0 0 0 0 0 0 0 0 0 0 0 0 0 0 0 0 0 0 0 0 0 0 0 0 0 0 0 0 0 0 0 0 0 0 0 0 0 0 0 0 0 0 0 0 0 0 0 0 0 0 0 0 0 0 0 0 0 0 0 0 0 0 0 0 0 0 0 0 0 0 0 0 0 0 0 0 0 0 0 0 0 0 0 0 0 0 0 0 0 0 0 0 0 0 0 0 0 0 0 0 0 0 0 0 0 0 0 0 0 0 0 1.00763e-05 4.03053e-05 9.06869e-05 0.000161221 0.000251908 0.000362747 0.00049374 0.000644884 0.000805854 0.000966322 0.00112629 0.00128575 0.00144471 0.00160317 0.00176112 0.00191858 0.00207489 0.00222943 0.0023822 0.00253319 0.00268241 0.00282985 0.00297552 0.00311942 0.00326028 0.00339683 0.00352908 0.00365703 0.00378067 0.00390001 0.00401505 0.00412578 0.00423199 0.00433346 0.0044302 0.0045222 0.00460947 0.004692 0.00476979 0.00484285 0.00491162 0.00497655 0.00503764 0.00509489 0.0051483 0.00519787 0.0052436 0.0052855 0.00532416 0.00536019 0.0053936 0.00542438 0.00545253 0.00547806 0.00550096 0.00552123 0.00553927 0.00555546 0.0055698 0.00558229 0.00559293 0.00560172 0.00560867 0.00561376 0.005617 0.00561836 0.00561785 0.00561547 0.00561121 0.00560508 0.00559707 0.00558719 0.00557501 0.00556009 0.00554243 0.00552204 0.00549891 0.00547304 0.00544443 0.00541308 0.00537831 0.00533941 0.00529639 0.00524924 0.00519798 0.00514258 0.00508307 0.00501943 0.00495111 0.00487753 0.0047987 0.00471462 0.00462528 0.0045307 0.00443086 0.00432577 0.00421556 0.00410038 0.00398023 0.0038551 0.003725 0.00358993 0.00344988 0.00330485 0.00315618 0.00300517 0.00285183 0.00269616 0.00253817 0.00237784 0.00221518 0.00205019 0.0018836 0.00171612 0.00154777 0.00137853 0.00120841 0.00103742 0.000865543 0.000692786 0.000530414 0.000389692 0.00027062 0.000173197 9.74231e-05 4.32991e-05 1.08248e-05 0 0 4.03053e-05 0.000161221 0.000362747 0.000644884 0.00100763 0.00145099 0.00197496 0.00257954 0.00322342 0.00386529 0.00450515 0.005143 0.00577884 0.00641267 0.00704449 0.0076743 0.00829956 0.00891772 0.00952879 0.0101328 0.0107296 0.0113194 0.0119021 0.0124777 0.0130411 0.0135873 0.0141163 0.0146281 0.0151227 0.0156 0.0160602 0.0165031 0.016928 0.0173339 0.0177208 0.0180888 0.0184379 0.018768 0.0190792 0.0193714 0.0196465 0.0199062 0.0201505 0.0203795 0.0205932 0.0207915 0.0209744 0.021142 0.0212966 0.0214408 0.0215744 0.0216975 0.0218101 0.0219122 0.0220038 0.0220849 0.0221571 0.0222218 0.0222792 0.0223292 0.0223717 0.0224069 0.0224347 0.0224551 0.022468 0.0224734 0.0224714 0.0224619 0.0224448 0.0224203 0.0223883 0.0223488 0.0223 0.0222404 0.0221697 0.0220882 0.0219956 0.0218921 0.0217777 0.0216523 0.0215132 0.0213576 0.0211856 0.020997 0.0207919 0.0205703 0.0203323 0.0200777 0.0198044 0.0195101 0.0191948 0.0188585 0.0185011 0.0181228 0.0177234 0.0173031 0.0168622 0.0164015 0.0159209 0.0154204 0.0149 0.0143597 0.0137995 0.0132194 0.0126247 0.0120207 0.0114073 0.0107847 0.0101527 0.00951135 0.00886072 0.00820076 0.00753438 0.00686448 0.00619106 0.00551412 0.00483366 0.00414968 0.00346217 0.00277115 0.00212166 0.00155877 0.00108248 0.000692786 0.000389692 0.000173197 4.32991e-05 0 0 9.06869e-05 0.000362747 0.000816182 0.00145099 0.00226717 0.00326473 0.00444366 0.00580396 0.00725269 0.0086969 0.0101366 0.0115717 0.0130024 0.0144285 0.0158501 0.0172672 0.018674 0.0200649 0.0214398 0.0227987 0.0241417 0.0254687 0.0267797 0.0280748 0.0293425 0.0305715 0.0317617 0.0329133 0.034026 0.0351001 0.0361354 0.037132 0.0380879 0.0390012 0.0398718 0.0406998 0.0414852 0.042228 0.0429281 0.0435856 0.0442046 0.0447889 0.0453387 0.045854 0.0463347 0.0467808 0.0471924 0.0475695 0.0479174 0.0482417 0.0485424 0.0488194 0.0490728 0.0493025 0.0495086 0.0496911 0.0498534 0.0499991 0.0501282 0.0502406 0.0503364 0.0504155 0.050478 0.0505239 0.050553 0.0505653 0.0505607 0.0505392 0.0505009 0.0504457 0.0503737 0.0502848 0.0501751 0.0500408 0.0498819 0.0496983 0.0494901 0.0492573 0.0489998 0.0487177 0.0484048 0.0480547 0.0476675 0.0472432 0.0467818 0.0462833 0.0457476 0.0451749 0.04456 0.0438978 0.0431883 0.0424316 0.0416276 0.0407763 0.0398777 0.0389319 0.0379401 0.0369035 0.0358221 0.0346959 0.033525 0.0323093 0.0310489 0.0297437 0.0284056 0.0270465 0.0256665 0.0242655 0.0228435 0.0214005 0.0199366 0.0184517 0.0169524 0.0154451 0.0139299 0.0124068 0.0108757 0.00933677 0.00778988 0.00623508 0.00477373 0.00350723 0.00243558 0.00155877 0.000876808 0.000389692 9.74231e-05 0 0 0.000161221 0.000644884 0.00145099 0.00257954 0.00403053 0.00580396 0.00789983 0.0103182 0.0128937 0.0154611 0.0180206 0.020572 0.0231154 0.0256507 0.028178 0.0306972 0.0331982 0.0356709 0.0381152 0.040531 0.0429185 0.0452776 0.0476084 0.0499107 0.0521644 0.0543493 0.0564653 0.0585125 0.0604907 0.0624002 0.0642407 0.0660124 0.0677118 0.0693354 0.0708832 0.0723553 0.0737515 0.075072 0.0763167 0.0774856 0.0785859 0.0796248 0.0806022 0.0815182 0.0823728 0.0831659 0.0838976 0.0845679 0.0851865 0.085763 0.0862975 0.08679 0.0872405 0.0876489 0.0880153 0.0883397 0.0886283 0.0888873 0.0891168 0.0893166 0.0894869 0.0896276 0.0897387 0.0898202 0.089872 0.0898938 0.0898856 0.0898475 0.0897793 0.0896812 0.0895532 0.0893951 0.0892002 0.0889615 0.0886789 0.0883526 0.0879825 0.0875686 0.0871108 0.0866093 0.0860529 0.0854305 0.0847422 0.0839879 0.0831676 0.0822813 0.0813291 0.0803109 0.0792177 0.0780405 0.0767792 0.0754339 0.0740046 0.0724912 0.0708937 0.0692123 0.067449 0.0656061 0.0636837 0.0616816 0.0596 0.0574388 0.055198 0.0528776 0.0504988 0.0480827 0.0456293 0.0431386 0.0406107 0.0380454 0.0354429 0.032803 0.0301375 0.0274579 0.0247643 0.0220565 0.0193346 0.0165987 0.0138487 0.0110846 0.00848663 0.00623508 0.00432991 0.00277115 0.00155877 0.000692786 0.000173197 0 0 0.000251908 0.00100763 0.00226717 0.00403053 0.0062977 0.00906869 0.0123435 0.0161221 0.0201464 0.024158 0.0281572 0.0321437 0.0361177 0.0400792 0.0440281 0.0479644 0.0518722 0.0557358 0.0595549 0.0633297 0.0670602 0.0707463 0.0743881 0.0779855 0.0815069 0.0849208 0.088227 0.0914257 0.0945168 0.0975003 0.100376 0.103144 0.1058 0.108337 0.110755 0.113055 0.115237 0.1173 0.119245 0.121071 0.12279 0.124414 0.125941 0.127372 0.128707 0.129947 0.13109 0.132137 0.133104 0.134005 0.13484 0.135609 0.136313 0.136951 0.137524 0.138031 0.138482 0.138886 0.139245 0.139557 0.139823 0.140043 0.140217 0.140344 0.140425 0.140459 0.140446 0.140387 0.14028 0.140127 0.139927 0.13968 0.139375 0.139002 0.138561 0.138051 0.137473 0.136826 0.136111 0.135327 0.134458 0.133485 0.13241 0.131231 0.129949 0.128565 0.127077 0.125486 0.123778 0.121938 0.119968 0.117865 0.115632 0.113267 0.110771 0.108144 0.105389 0.10251 0.0995058 0.0963776 0.093125 0.0897482 0.0862469 0.0826213 0.0789044 0.0751292 0.0712958 0.0674041 0.0634542 0.059446 0.0553795 0.0512548 0.0470899 0.042903 0.0386941 0.0344633 0.0302104 0.0259355 0.0216386 0.0173197 0.0132604 0.00974231 0.00676549 0.00432991 0.00243558 0.00108248 0.00027062 0 0 0.000362747 0.00145099 0.00326473 0.00580396 0.00906869 0.0130589 0.0177746 0.0232158 0.0290108 0.0347876 0.0405463 0.046287 0.0520095 0.057714 0.0634004 0.0690687 0.074696 0.0802595 0.0857591 0.0911948 0.0965667 0.101875 0.107119 0.112299 0.11737 0.122286 0.127047 0.131653 0.136104 0.1404 0.144542 0.148528 0.152352 0.156005 0.159487 0.162799 0.165941 0.168912 0.171713 0.174343 0.176818 0.179156 0.181355 0.183416 0.185339 0.187123 0.18877 0.190278 0.19167 0.192967 0.194169 0.195278 0.196291 0.19721 0.198035 0.198764 0.199414 0.199996 0.200513 0.200962 0.201345 0.201662 0.201912 0.202096 0.202212 0.202261 0.202243 0.202157 0.202003 0.201783 0.201495 0.201139 0.2007 0.200163 0.199528 0.198793 0.197961 0.197029 0.195999 0.194871 0.193619 0.192219 0.19067 0.188973 0.187127 0.185133 0.182991 0.1807 0.17824 0.175591 0.172753 0.169726 0.16651 0.163105 0.159511 0.155728 0.15176 0.147614 0.143288 0.138784 0.1341 0.129237 0.124196 0.118975 0.113622 0.108186 0.102666 0.0970619 0.091374 0.0856022 0.0797465 0.0738069 0.0678094 0.0617804 0.0557196 0.0496271 0.0435029 0.0373471 0.0311595 0.0249403 0.0190949 0.0140289 0.00974231 0.00623508 0.00350723 0.00155877 0.000389692 0 0 0.00049374 0.00197496 0.00444366 0.00789983 0.0123435 0.0177746 0.0241932 0.0315993 0.0394869 0.0473498 0.0551881 0.0630017 0.0707908 0.0785552 0.086295 0.0940102 0.10167 0.109242 0.116728 0.124126 0.131438 0.138663 0.145801 0.152852 0.159754 0.166445 0.172925 0.179194 0.185253 0.1911 0.196737 0.202163 0.207367 0.21234 0.21708 0.221588 0.225864 0.229908 0.23372 0.2373 0.240669 0.243851 0.246844 0.249649 0.252267 0.254696 0.256937 0.258989 0.260884 0.262649 0.264286 0.265794 0.267174 0.268425 0.269547 0.27054 0.271424 0.272217 0.27292 0.273532 0.274054 0.274484 0.274825 0.275074 0.275233 0.2753 0.275275 0.275158 0.274949 0.274649 0.274257 0.273773 0.273176 0.272444 0.271579 0.27058 0.269446 0.268179 0.266777 0.265241 0.263537 0.261631 0.259523 0.257213 0.254701 0.251987 0.24907 0.245952 0.242604 0.238999 0.235136 0.231016 0.226639 0.222004 0.217112 0.211963 0.206563 0.200919 0.195031 0.1889 0.182525 0.175906 0.169044 0.161938 0.154653 0.147253 0.13974 0.132112 0.12437 0.116514 0.108544 0.100459 0.0922962 0.0840899 0.0758405 0.067548 0.0592123 0.0508335 0.0424116 0.0339465 0.0259903 0.0190949 0.0132604 0.00848663 0.00477373 0.00212166 0.000530414 0 0 0.000644884 0.00257954 0.00580396 0.0103182 0.0161221 0.0232158 0.0315993 0.0412726 0.0515747 0.0618446 0.0720824 0.082288 0.0924614 0.102603 0.112712 0.122789 0.132793 0.142684 0.152461 0.162124 0.171674 0.181111 0.190433 0.199643 0.208658 0.217397 0.225861 0.23405 0.241963 0.249601 0.256963 0.26405 0.270847 0.277342 0.283533 0.289421 0.295006 0.300288 0.305267 0.309942 0.314344 0.318499 0.322409 0.326073 0.329491 0.332664 0.335591 0.338272 0.340746 0.343052 0.34519 0.34716 0.348962 0.350596 0.352061 0.353359 0.354513 0.355549 0.356467 0.357266 0.357948 0.35851 0.358955 0.359281 0.359488 0.359575 0.359542 0.35939 0.359117 0.358725 0.358213 0.35758 0.356801 0.355846 0.354716 0.35341 0.35193 0.350274 0.348443 0.346437 0.344212 0.341722 0.338969 0.335952 0.33267 0.329125 0.325316 0.321244 0.316871 0.312162 0.307117 0.301736 0.296018 0.289965 0.283575 0.276849 0.269796 0.262425 0.254735 0.246727 0.2384 0.229755 0.220792 0.211511 0.201995 0.192331 0.182517 0.172555 0.162443 0.152182 0.141771 0.131212 0.12055 0.109832 0.099057 0.0882259 0.0773385 0.0663948 0.0553947 0.0443383 0.0339465 0.0249403 0.0173197 0.0110846 0.00623508 0.00277115 0.000692786 0 0 0.000805841 0.00322336 0.00725257 0.0128935 0.020146 0.0290103 0.0394862 0.0515738 0.0644468 0.0772786 0.0900694 0.102819 0.115528 0.128195 0.140822 0.153407 0.165901 0.178252 0.19046 0.202526 0.214449 0.22623 0.237867 0.249363 0.260614 0.271521 0.282084 0.292301 0.302175 0.311703 0.320887 0.329727 0.338205 0.346304 0.354024 0.361366 0.368329 0.374913 0.381119 0.386946 0.39243 0.397608 0.402479 0.407044 0.411302 0.415254 0.418899 0.422237 0.425317 0.428188 0.43085 0.433302 0.435545 0.437578 0.439402 0.441016 0.442453 0.443742 0.444883 0.445878 0.446725 0.447425 0.447978 0.448384 0.448642 0.44875 0.44871 0.44852 0.448181 0.447693 0.447056 0.44627 0.4453 0.444112 0.442706 0.441081 0.439238 0.437177 0.434898 0.432401 0.42963 0.42653 0.423101 0.419342 0.415255 0.410838 0.406093 0.401018 0.395569 0.3897 0.383411 0.376702 0.369574 0.362026 0.354058 0.345671 0.336874 0.32768 0.318087 0.308096 0.297707 0.28692 0.275735 0.264152 0.252277 0.240214 0.227964 0.215527 0.202903 0.190092 0.177094 0.163908 0.150594 0.137208 0.123751 0.110223 0.0966232 0.0829523 0.0692101 0.0553966 0.042413 0.0311606 0.0216393 0.0138491 0.00779014 0.00346229 0.000865571 0 0 0.000966269 0.00386508 0.00869642 0.0154603 0.0241567 0.0347857 0.0473472 0.0618412 0.0772757 0.0926584 0.107989 0.123269 0.138496 0.153672 0.168796 0.183869 0.198829 0.213616 0.228229 0.24267 0.256937 0.271032 0.284953 0.298701 0.312155 0.325195 0.33782 0.350032 0.361828 0.373211 0.384179 0.394733 0.404853 0.414519 0.423731 0.432489 0.440794 0.448645 0.456042 0.462985 0.469519 0.475686 0.481486 0.486921 0.491989 0.496691 0.501027 0.504997 0.508659 0.512071 0.515234 0.518148 0.520812 0.523227 0.525393 0.52731 0.529014 0.530544 0.531899 0.533079 0.534085 0.534916 0.535572 0.536054 0.53636 0.536489 0.536441 0.536216 0.535814 0.535236 0.53448 0.533548 0.532397 0.530987 0.529317 0.527387 0.525198 0.522749 0.520041 0.517073 0.513779 0.510091 0.506011 0.501539 0.496673 0.491414 0.485763 0.479718 0.473226 0.466232 0.458735 0.450735 0.442233 0.433228 0.423721 0.413711 0.40321 0.392232 0.380776 0.368841 0.356429 0.343538 0.330169 0.316322 0.302123 0.287697 0.273045 0.258167 0.243063 0.227732 0.212175 0.196391 0.18045 0.164422 0.148305 0.1321 0.115808 0.0994272 0.0829587 0.0664021 0.0508391 0.0373512 0.0259383 0.0166005 0.0093378 0.00415013 0.00103753 0 0 0.00112617 0.00450467 0.0101355 0.0180187 0.0281542 0.040542 0.0551822 0.0720748 0.0900614 0.107984 0.125842 0.143637 0.161367 0.179033 0.196635 0.214173 0.231576 0.248774 0.265768 0.282556 0.299139 0.315516 0.331689 0.347657 0.36328 0.378418 0.393071 0.40724 0.420924 0.434124 0.446838 0.459068 0.470792 0.481987 0.492653 0.502792 0.512402 0.521483 0.530036 0.538061 0.545609 0.552732 0.55943 0.565704 0.571553 0.576977 0.581977 0.586551 0.59077 0.5947 0.598343 0.601698 0.604765 0.607544 0.610035 0.612238 0.614197 0.615955 0.617513 0.61887 0.620026 0.620981 0.621736 0.622289 0.622641 0.62279 0.622735 0.622478 0.622017 0.621353 0.620485 0.619414 0.618092 0.616471 0.61455 0.61233 0.60981 0.606991 0.603872 0.600453 0.596658 0.592407 0.587701 0.58254 0.576924 0.570853 0.564327 0.557345 0.549844 0.541758 0.533088 0.523833 0.513994 0.50357 0.492562 0.480969 0.468805 0.456082 0.442801 0.428962 0.414564 0.399608 0.384093 0.36802 0.351534 0.334781 0.317762 0.300475 0.282922 0.265101 0.247014 0.22866 0.210119 0.191472 0.172719 0.153859 0.134892 0.11582 0.0966406 0.077355 0.0592249 0.0435122 0.0302168 0.0193388 0.010878 0.00483469 0.00120867 0 0 0.00128554 0.00514215 0.0115698 0.0205686 0.0321385 0.0462794 0.0629914 0.0822744 0.102804 0.123255 0.143628 0.163923 0.18414 0.204278 0.224338 0.24432 0.264143 0.283728 0.303075 0.322183 0.341053 0.359684 0.378077 0.396232 0.413989 0.431191 0.447837 0.463927 0.479462 0.494441 0.508865 0.522733 0.536022 0.548708 0.560792 0.572273 0.583151 0.593427 0.603101 0.612172 0.6207 0.628746 0.636311 0.643393 0.649993 0.656111 0.661747 0.666901 0.671651 0.676076 0.680176 0.683952 0.687402 0.690527 0.693327 0.695802 0.698002 0.699977 0.701726 0.70325 0.704548 0.705621 0.706469 0.707091 0.707487 0.707654 0.707594 0.707305 0.706788 0.706044 0.705071 0.70387 0.702386 0.700564 0.698405 0.695908 0.693073 0.689901 0.68639 0.682542 0.678268 0.673477 0.66817 0.662348 0.656009 0.649155 0.641785 0.633899 0.625422 0.616279 0.606471 0.595997 0.584858 0.573053 0.560583 0.547446 0.533658 0.51923 0.504164 0.488458 0.472114 0.45513 0.437507 0.419246 0.40051 0.381466 0.362112 0.342451 0.32248 0.302201 0.281612 0.260716 0.239601 0.21836 0.196992 0.175498 0.153877 0.13213 0.110256 0.0882552 0.0675704 0.0496436 0.0344747 0.0220638 0.0124109 0.00551595 0.00137899 0 0 0.00144438 0.00577752 0.0129994 0.0231101 0.0361095 0.0519977 0.0707746 0.0924403 0.115503 0.138472 0.161347 0.184128 0.206814 0.229407 0.251905 0.274309 0.29653 0.318477 0.340152 0.361553 0.38268 0.403535 0.424116 0.444424 0.464282 0.483513 0.502116 0.520093 0.537442 0.554164 0.570259 0.585727 0.600543 0.614682 0.628146 0.640933 0.653044 0.664478 0.675237 0.685319 0.694793 0.70373 0.712128 0.719988 0.727309 0.734093 0.740338 0.746044 0.751302 0.756198 0.760734 0.764909 0.768723 0.772177 0.77527 0.778002 0.780429 0.782608 0.784538 0.78622 0.787653 0.788837 0.789772 0.790459 0.790896 0.791082 0.791016 0.790698 0.790129 0.789309 0.788237 0.786913 0.785277 0.783267 0.780881 0.778122 0.774988 0.77148 0.767597 0.76334 0.758608 0.753301 0.747418 0.740961 0.733928 0.72632 0.718137 0.709378 0.699959 0.689795 0.678884 0.667227 0.654825 0.641676 0.627782 0.613142 0.597769 0.581676 0.564863 0.54733 0.529078 0.510105 0.490412 0.47 0.449051 0.427751 0.406098 0.384094 0.361738 0.339029 0.315969 0.292557 0.268895 0.245085 0.221125 0.197018 0.172762 0.148357 0.123804 0.0991028 0.0758756 0.0557453 0.038712 0.0247757 0.0139363 0.00619392 0.00154848 0 0 0.00160269 0.00641077 0.0144242 0.0256431 0.0400673 0.0576969 0.0785319 0.102572 0.12816 0.153635 0.178999 0.204251 0.229391 0.25442 0.279337 0.304142 0.328736 0.353022 0.376997 0.400664 0.424021 0.447068 0.469806 0.492235 0.51416 0.535385 0.55591 0.575737 0.594864 0.613292 0.63102 0.64805 0.664355 0.67991 0.694716 0.708772 0.722079 0.734636 0.746443 0.757501 0.767888 0.777681 0.786882 0.795488 0.803502 0.810922 0.817749 0.823983 0.829723 0.835067 0.840016 0.844571 0.84873 0.852494 0.855863 0.858837 0.861478 0.863849 0.865949 0.867779 0.869339 0.870627 0.871646 0.872393 0.872869 0.873072 0.873001 0.872657 0.872039 0.871148 0.869984 0.868546 0.866767 0.864578 0.86198 0.858972 0.855555 0.851728 0.847492 0.842846 0.837679 0.831879 0.825446 0.81838 0.81068 0.802348 0.793383 0.783785 0.773457 0.762304 0.750326 0.737523 0.723894 0.70944 0.694161 0.678056 0.661138 0.643419 0.624899 0.605578 0.585456 0.564532 0.542807 0.520282 0.497157 0.473636 0.449719 0.425405 0.400695 0.375588 0.350085 0.324186 0.298002 0.271646 0.245118 0.218418 0.191546 0.164502 0.137286 0.109898 0.0841404 0.0618174 0.0429288 0.0274744 0.0154544 0.0068686 0.00171715 0 0 0.00176048 0.0070419 0.0158443 0.0281676 0.0440119 0.0633771 0.0862633 0.11267 0.140773 0.168744 0.196583 0.224292 0.25187 0.279317 0.306633 0.333817 0.360763 0.387361 0.413613 0.439517 0.465074 0.490285 0.515148 0.539664 0.563621 0.586806 0.609219 0.630859 0.651728 0.671825 0.691149 0.709702 0.727457 0.74439 0.760501 0.77579 0.790256 0.803899 0.816721 0.82872 0.839985 0.850602 0.860572 0.869895 0.878571 0.8866 0.893982 0.900716 0.906913 0.912682 0.918023 0.922936 0.927421 0.931478 0.935107 0.938308 0.941149 0.9437 0.94596 0.947928 0.949606 0.950993 0.952089 0.952894 0.953406 0.953625 0.95355 0.953181 0.952518 0.951562 0.950311 0.948767 0.946854 0.944498 0.9417 0.938458 0.934773 0.930645 0.926074 0.92106 0.91548 0.909211 0.902252 0.894604 0.886266 0.877239 0.867523 0.857117 0.845915 0.833808 0.820798 0.806884 0.792066 0.776344 0.759718 0.742189 0.723766 0.70446 0.684272 0.663201 0.641248 0.618412 0.594693 0.570092 0.544828 0.519122 0.492974 0.466383 0.439351 0.411876 0.383959 0.3556 0.326921 0.298045 0.268971 0.2397 0.210231 0.180565 0.150701 0.12064 0.0923648 0.0678599 0.0471249 0.0301599 0.016965 0.00753999 0.001885 0 0 0.00191773 0.00767092 0.0172596 0.0306837 0.0479433 0.0690383 0.0939688 0.122735 0.153342 0.183798 0.214101 0.244252 0.274251 0.304098 0.333793 0.363335 0.392608 0.421496 0.449997 0.478112 0.505841 0.533184 0.560141 0.586712 0.612667 0.637777 0.662041 0.68546 0.708034 0.729762 0.750645 0.770683 0.789851 0.808124 0.825502 0.841986 0.857575 0.87227 0.886069 0.898975 0.911083 0.922491 0.933199 0.943208 0.952516 0.961125 0.969035 0.976244 0.982874 0.989044 0.994754 1.00001 1.0048 1.00913 1.013 1.01641 1.01944 1.02216 1.02457 1.02667 1.02846 1.02993 1.0311 1.03196 1.03251 1.03274 1.03266 1.03227 1.03157 1.03055 1.02922 1.02758 1.02554 1.02303 1.02004 1.01658 1.01264 1.00823 1.00334 0.997983 0.992012 0.985297 0.977837 0.969634 0.960686 0.950993 0.940557 0.929376 0.917332 0.904307 0.8903 0.875311 0.859341 0.842389 0.824455 0.80554 0.785652 0.764799 0.742982 0.7202 0.696454 0.671744 0.646069 0.61943 0.592064 0.564208 0.535864 0.50703 0.477707 0.447894 0.417592 0.386801 0.355653 0.324281 0.292684 0.260862 0.228816 0.196545 0.164049 0.131329 0.100549 0.0738727 0.0513005 0.0328323 0.0184682 0.00820808 0.00205202 0 0 0.00207381 0.00829526 0.0186643 0.033181 0.0518454 0.0746573 0.101617 0.132724 0.165818 0.198737 0.231481 0.26405 0.296444 0.328663 0.360708 0.392578 0.424147 0.455289 0.486005 0.516294 0.546156 0.575592 0.604601 0.633184 0.661093 0.688084 0.714155 0.739307 0.76354 0.786853 0.809247 0.830722 0.851255 0.870821 0.88942 0.907054 0.923721 0.939422 0.954157 0.967925 0.980835 0.992994 1.0044 1.01506 1.02496 1.03412 1.04252 1.05018 1.05721 1.06375 1.06981 1.07537 1.08045 1.08503 1.08913 1.09274 1.09593 1.09881 1.10135 1.10357 1.10546 1.10702 1.10825 1.10916 1.10974 1.10999 1.10991 1.1095 1.10875 1.10768 1.10628 1.10455 1.1024 1.09975 1.09659 1.09292 1.08875 1.08408 1.0789 1.07321 1.06688 1.05975 1.05182 1.04309 1.03356 1.02324 1.01212 1.00021 0.987363 0.97346 0.9585 0.942481 0.925403 0.907268 0.888074 0.867822 0.846517 0.824166 0.800769 0.776325 0.750835 0.724299 0.696716 0.668087 0.638665 0.608706 0.57821 0.547175 0.515603 0.483493 0.450845 0.417659 0.384078 0.350244 0.316157 0.281816 0.247222 0.212375 0.177274 0.141921 0.108658 0.0798305 0.0554378 0.0354802 0.0199576 0.00887005 0.00221751 0 0 0.00222809 0.00891234 0.0200528 0.0356494 0.0557021 0.0802111 0.109176 0.142597 0.178147 0.213498 0.24865 0.283604 0.318358 0.352913 0.38727 0.421427 0.455251 0.488605 0.521491 0.553908 0.585856 0.617335 0.648346 0.678887 0.708698 0.737514 0.765337 0.792167 0.818002 0.842845 0.866693 0.889548 0.911388 0.932191 0.951957 0.970686 0.988378 1.00503 1.02065 1.03523 1.04889 1.06176 1.07382 1.08508 1.09554 1.1052 1.11406 1.12212 1.12952 1.13641 1.14278 1.14863 1.15396 1.15877 1.16307 1.16685 1.1702 1.17321 1.17588 1.1782 1.18018 1.18182 1.18311 1.18407 1.18467 1.18494 1.18485 1.18443 1.18365 1.18253 1.18107 1.17926 1.17701 1.17423 1.17092 1.16707 1.16269 1.15778 1.15233 1.14635 1.13968 1.13217 1.1238 1.11459 1.10453 1.09362 1.08186 1.06925 1.05566 1.04093 1.02507 1.00807 0.989938 0.970674 0.950277 0.928746 0.906084 0.882293 0.857375 0.831327 0.804152 0.775847 0.746415 0.715854 0.684434 0.652427 0.619833 0.586651 0.552881 0.518523 0.483578 0.448045 0.412077 0.375825 0.339291 0.302473 0.265372 0.227987 0.19032 0.152369 0.116658 0.0857076 0.0595192 0.0380923 0.0214269 0.00952307 0.00238077 0 0 0.00238054 0.00952217 0.0214249 0.0380887 0.0595136 0.0856995 0.116647 0.152355 0.190331 0.228083 0.265611 0.302914 0.339993 0.376847 0.413477 0.449883 0.48592 0.521444 0.556456 0.590954 0.62494 0.658414 0.691374 0.723822 0.755479 0.786068 0.815588 0.844039 0.871423 0.897737 0.922983 0.947161 0.970251 0.992235 1.01311 1.03288 1.05154 1.0691 1.08555 1.10089 1.11526 1.12878 1.14145 1.15327 1.16425 1.17437 1.18365 1.19208 1.19982 1.20701 1.21366 1.21977 1.22533 1.23035 1.23483 1.23877 1.24225 1.24538 1.24815 1.25057 1.25263 1.25433 1.25568 1.25667 1.25731 1.25758 1.2575 1.25706 1.25626 1.2551 1.25358 1.25171 1.24937 1.24648 1.24303 1.23902 1.23445 1.22932 1.22364 1.2174 1.21043 1.20256 1.19379 1.18413 1.17357 1.16212 1.14977 1.13652 1.12222 1.10671 1.09 1.07207 1.05294 1.03261 1.01106 0.988312 0.964352 0.93918 0.912799 0.885206 0.856403 0.826389 0.795165 0.76273 0.72937 0.695371 0.660733 0.625457 0.589541 0.552986 0.515792 0.477958 0.439649 0.401024 0.362086 0.322832 0.283264 0.243382 0.203185 0.162674 0.124547 0.0915042 0.0635446 0.0406685 0.022876 0.0101671 0.00254178 0 0 0.00253119 0.0101247 0.0227807 0.040499 0.0632796 0.0911227 0.124028 0.161996 0.202369 0.242491 0.282362 0.321981 0.361349 0.400466 0.439331 0.477945 0.516155 0.553806 0.590898 0.627433 0.663409 0.698827 0.733687 0.767988 0.801438 0.833744 0.864907 0.894925 0.9238 0.951531 0.978118 1.00356 1.02784 1.05095 1.07288 1.09364 1.11322 1.13163 1.14886 1.16491 1.17993 1.19406 1.20729 1.21963 1.23108 1.24163 1.25129 1.26006 1.26809 1.27556 1.28246 1.2888 1.29457 1.29977 1.30441 1.30847 1.31207 1.31531 1.31817 1.32067 1.3228 1.32456 1.32596 1.32698 1.32764 1.32793 1.32785 1.3274 1.32658 1.32539 1.32382 1.32189 1.31949 1.3165 1.31293 1.30878 1.30404 1.29873 1.29283 1.28635 1.27911 1.27092 1.26179 1.25172 1.24071 1.22875 1.21585 1.202 1.18705 1.17081 1.15329 1.1345 1.11442 1.09307 1.07043 1.04652 1.02132 0.994827 0.967041 0.937962 0.90759 0.875925 0.842967 0.808716 0.773473 0.737538 0.700911 0.663593 0.625582 0.58688 0.547486 0.5074 0.466794 0.425841 0.384542 0.342895 0.300901 0.258559 0.215871 0.172836 0.132327 0.0972201 0.067514 0.0432089 0.024305 0.0108022 0.00270056 0 0 0.00268002 0.0107201 0.0241201 0.0428802 0.0670004 0.0964806 0.131321 0.171521 0.214261 0.256722 0.298903 0.340805 0.382427 0.423769 0.464832 0.505615 0.545955 0.58569 0.624819 0.663343 0.701262 0.738575 0.775283 0.811385 0.846575 0.880544 0.913294 0.944824 0.975135 1.00423 1.0321 1.05875 1.08417 1.10834 1.13127 1.15296 1.17341 1.19261 1.21057 1.22729 1.24291 1.2576 1.27135 1.28417 1.29604 1.30698 1.31698 1.32605 1.33435 1.34206 1.34919 1.35572 1.36167 1.36703 1.3718 1.37598 1.37967 1.383 1.38594 1.38851 1.39069 1.39251 1.39394 1.395 1.39568 1.39598 1.3959 1.39544 1.3946 1.39339 1.39179 1.38982 1.38735 1.38428 1.38061 1.37634 1.37146 1.36598 1.35989 1.35321 1.34573 1.33726 1.3278 1.31736 1.30592 1.2935 1.2801 1.2657 1.25014 1.23322 1.21496 1.19534 1.17438 1.15206 1.12839 1.10337 1.07699 1.04923 1.0201 0.989594 0.957712 0.924454 0.889821 0.853812 0.816743 0.778928 0.740367 0.701059 0.661006 0.620206 0.57866 0.536368 0.493513 0.450276 0.406659 0.36266 0.31828 0.273519 0.228377 0.182854 0.139998 0.102856 0.0714274 0.0457136 0.0257139 0.0114284 0.0028571 0 0 0.00282703 0.0113081 0.0254433 0.0452325 0.0706758 0.101773 0.138525 0.18093 0.226008 0.270776 0.315235 0.359385 0.403225 0.446756 0.489978 0.53289 0.575321 0.617097 0.658219 0.698686 0.738499 0.777658 0.816163 0.854014 0.890889 0.926468 0.96075 0.993737 1.02543 1.05582 1.08492 1.11272 1.13922 1.16441 1.18828 1.21085 1.23211 1.25206 1.27069 1.28802 1.3042 1.3194 1.33363 1.34687 1.35914 1.37042 1.38073 1.39005 1.39858 1.40651 1.41382 1.42053 1.42663 1.43212 1.437 1.44127 1.44505 1.44844 1.45145 1.45407 1.45631 1.45816 1.45963 1.46072 1.46141 1.46172 1.46165 1.46119 1.46034 1.4591 1.45748 1.45548 1.45297 1.44983 1.44608 1.4417 1.4367 1.43108 1.42484 1.41797 1.41028 1.40156 1.39181 1.38103 1.36922 1.35639 1.34252 1.32762 1.31149 1.29395 1.27499 1.2546 1.2328 1.20957 1.18493 1.15887 1.13136 1.1024 1.07198 1.0401 1.00677 0.971976 0.935726 0.898018 0.85918 0.819541 0.779099 0.737856 0.695811 0.652964 0.609315 0.564865 0.519805 0.474329 0.428437 0.382128 0.335403 0.288261 0.240704 0.192729 0.147558 0.10841 0.0752849 0.0481824 0.0271026 0.0120456 0.0030114 0 0 0.00297224 0.0118889 0.0267501 0.0475558 0.0743059 0.107 0.14564 0.190223 0.237609 0.284654 0.331358 0.377722 0.423745 0.469428 0.514771 0.559773 0.604252 0.648026 0.691096 0.733461 0.775121 0.816077 0.856327 0.895873 0.93438 0.971514 1.00727 1.04166 1.07468 1.10632 1.13658 1.16548 1.193 1.21914 1.24391 1.2673 1.28932 1.30996 1.32922 1.34711 1.3638 1.37947 1.39412 1.40775 1.42036 1.43195 1.44252 1.45207 1.4608 1.4689 1.47638 1.48323 1.48945 1.49505 1.50002 1.50437 1.50821 1.51165 1.51471 1.51738 1.51965 1.52154 1.52303 1.52414 1.52485 1.52517 1.5251 1.52464 1.52378 1.52254 1.5209 1.51888 1.51633 1.51315 1.50933 1.50487 1.49977 1.49404 1.48766 1.48065 1.47278 1.46384 1.45383 1.44276 1.43061 1.41739 1.40311 1.38775 1.37112 1.35299 1.33338 1.31228 1.2897 1.26562 1.24005 1.213 1.18443 1.15433 1.12268 1.08949 1.05476 1.01849 0.980683 0.941333 0.900784 0.859376 0.817109 0.773983 0.729998 0.685154 0.639451 0.592889 0.545671 0.498 0.449876 0.401299 0.352269 0.302786 0.25285 0.202461 0.155009 0.113884 0.0790865 0.0506153 0.0284711 0.0126538 0.00316346 0 0 0.00311562 0.0124625 0.0280406 0.04985 0.0778906 0.112162 0.152666 0.1994 0.249063 0.298354 0.347271 0.395815 0.443987 0.491785 0.53921 0.586262 0.632749 0.678479 0.723452 0.767668 0.811127 0.85383 0.895776 0.936964 0.977049 1.01568 1.05287 1.0886 1.12288 1.15571 1.1871 1.21703 1.24551 1.27255 1.29816 1.32232 1.34504 1.36632 1.38615 1.40455 1.4217 1.43779 1.45282 1.46679 1.47971 1.49156 1.50236 1.5121 1.52099 1.52924 1.53685 1.54381 1.55014 1.55582 1.56086 1.56526 1.56914 1.57262 1.57572 1.57841 1.58072 1.58262 1.58414 1.58526 1.58599 1.58632 1.58625 1.58579 1.58494 1.58369 1.58205 1.58001 1.57745 1.57424 1.57037 1.56585 1.56067 1.55484 1.54836 1.54123 1.53321 1.52409 1.51386 1.50252 1.49008 1.47653 1.46187 1.4461 1.42901 1.41035 1.39015 1.36838 1.34506 1.32019 1.29376 1.26578 1.23621 1.20501 1.17219 1.13775 1.10169 1.064 1.02469 0.983759 0.941555 0.898435 0.854396 0.809441 0.763567 0.716776 0.669067 0.620441 0.57111 0.521288 0.470976 0.420173 0.368878 0.317093 0.264817 0.21205 0.162351 0.119278 0.082832 0.0530125 0.0298195 0.0132531 0.00331328 0 0 0.00325594 0.0130237 0.0293034 0.052095 0.0813984 0.117214 0.159541 0.20838 0.260271 0.311757 0.362835 0.413507 0.463772 0.51363 0.563082 0.612128 0.660564 0.708191 0.755008 0.801015 0.846211 0.890598 0.934174 0.97694 1.01854 1.05861 1.09715 1.13416 1.16965 1.20361 1.23604 1.26694 1.29633 1.32421 1.35059 1.37546 1.39883 1.42069 1.44105 1.45991 1.47746 1.49392 1.50929 1.52356 1.53674 1.54882 1.55981 1.56971 1.57873 1.58709 1.5948 1.60185 1.60825 1.61399 1.61908 1.62351 1.62742 1.63093 1.63404 1.63676 1.63908 1.641 1.64253 1.64366 1.6444 1.64474 1.64468 1.64423 1.64338 1.64214 1.6405 1.63846 1.63589 1.63266 1.62876 1.6242 1.61897 1.61307 1.60651 1.59928 1.59115 1.58187 1.57146 1.5599 1.5472 1.53335 1.51836 1.50223 1.48472 1.46559 1.44484 1.42246 1.39847 1.37286 1.34563 1.31678 1.28627 1.25405 1.22013 1.1845 1.14717 1.10813 1.06739 1.02494 0.981153 0.936389 0.890647 0.843928 0.796232 0.74756 0.69791 0.647283 0.595903 0.543993 0.491554 0.438585 0.385086 0.331057 0.276499 0.221411 0.169518 0.124544 0.0864887 0.0553528 0.0311359 0.0138382 0.00345955 0 0 0.0033919 0.0135676 0.0305271 0.0542704 0.0847975 0.122108 0.166203 0.217082 0.271132 0.324741 0.37791 0.430637 0.482924 0.534771 0.586176 0.637141 0.687453 0.736902 0.785487 0.833208 0.880065 0.926058 0.971188 1.01545 1.05849 1.09991 1.13974 1.17796 1.21458 1.24959 1.283 1.3148 1.34503 1.37368 1.40077 1.42629 1.45025 1.47264 1.49347 1.51273 1.53064 1.54743 1.56309 1.57761 1.59101 1.60329 1.61443 1.62445 1.63356 1.64201 1.6498 1.65691 1.66336 1.66914 1.67426 1.67871 1.68262 1.68614 1.68926 1.69199 1.69432 1.69625 1.69779 1.69893 1.69967 1.70002 1.69997 1.69953 1.69869 1.69746 1.69582 1.6938 1.69124 1.688 1.6840