<?xml version="1.0"?> 
<VTKFile type="StructuredGrid" version="0.1"> 
<StructuredGrid WholeExtent="0 128 0 128 0 0"> 
<Piece Extent="0 128 0 128 0 0"> 
<PointData>
<DataArray type="Float32" Name="u" format="ascii" NumberOfComponents="1"> 
0 0 0 0 0 0 0 0 0 0 0 0 0 0 0 0 0 0 0 0 0 0 0 0 0 0 0 0 0 0 0 0 0 0 0 0 0 0 0 0 0 0 0 0 0 0 0 0 0 0 0 0 0 0 0 0 0 0 0 0 0 0 0 0 0 0 0 0 0 0 0 0 0 0 0 0 0 0 0 0 0 0 0 0 0 0 0 0 0 0 0 0 0 0 0 0 0 0 0 0 0 0 0 0 0 0 0 0 0 0 0 0 0 0 0 0 0 0 0 0 0 0 0 0 0 0 0 0 0 0 2.75248e-06 1.10099e-05 2.47724e-05 4.40398e-05 6.88121e-05 9.90894e-05 0.000134872 0.000176159 0.000220759 0.000266479 0.000313319 0.00036128 0.000410361 0.000460562 0.000511884 0.000564325 0.000617908 0.000672652 0.000728558 0.000785626 0.000843856 0.000903248 0.000963801 0.00102552 0.00108796 0.00115072 0.00121378 0.00127715 0.00134082 0.0014048 0.00146909 0.00153368 0.00159812 0.00166195 0.00172518 0.00178779 0.0018498 0.0019112 0.00197199 0.00203217 0.00209133 0.00214908 0.0022054 0.00226031 0.00231379 0.00236586 0.0024165 0.00246572 0.00251321 0.00255866 0.00260208 0.00264345 0.00268278 0.00272008 0.00275533 0.00278855 0.00281952 0.00284802 0.00287407 0.00289766 0.00291879 0.00293746 0.00295367 0.00296742 0.00297859 0.00298705 0.00299279 0.00299583 0.00299615 0.00299377 0.00298867 0.00298086 0.0029703 0.00295696 0.00294082 0.0029219 0.0029002 0.0028757 0.00284842 0.00281835 0.00278559 0.00275022 0.00271226 0.0026717 0.00262853 0.00258276 0.0025344 0.00248343 0.00243015 0.00237485 0.00231753 0.00225818 0.00219681 0.00213343 0.00206801 0.00200058 0.00193164 0.00186173 0.00179082 0.00171894 0.00164607 0.00157222 0.00149738 0.00142156 0.00134546 0.00126979 0.00119453 0.0011197 0.00104529 0.000971308 0.000897746 0.000824606 0.000752073 0.000680329 0.000609374 0.000539209 0.000469834 0.000401249 0.000333453 0.000266446 0.000203998 0.000149876 0.000104081 6.66116e-05 3.7469e-05 1.66529e-05 4.16322e-06 0 0 1.10099e-05 4.40398e-05 9.90894e-05 0.000176159 0.000275248 0.000396358 0.000539487 0.000704636 0.000883036 0.00106592 0.00125328 0.00144512 0.00164144 0.00184225 0.00204753 0.0022573 0.00247163 0.00269061 0.00291423 0.00314251 0.00337542 0.00361299 0.0038552 0.00410206 0.00435186 0.00460288 0.00485512 0.00510859 0.00536329 0.00561921 0.00587635 0.00613472 0.00639249 0.00664782 0.00690071 0.00715117 0.0073992 0.00764479 0.00788795 0.00812867 0.00836534 0.00859632 0.00882162 0.00904124 0.00925517 0.00946342 0.00966599 0.00986288 0.0100528 0.0102347 0.0104083 0.0105738 0.0107311 0.0108803 0.0110213 0.0111542 0.0112781 0.0113921 0.0114963 0.0115906 0.0116752 0.0117498 0.0118147 0.0118697 0.0119144 0.0119482 0.0119712 0.0119833 0.0119846 0.0119751 0.0119547 0.0119234 0.0118812 0.0118278 0.0117633 0.0116876 0.0116008 0.0115028 0.0113937 0.0112734 0.0111424 0.0110009 0.010849 0.0106868 0.0105141 0.0103311 0.0101376 0.00993372 0.0097206 0.0094994 0.00927011 0.00903273 0.00878726 0.0085337 0.00827206 0.00800232 0.00772658 0.0074469 0.00716329 0.00687575 0.00658427 0.00628886 0.00598952 0.00568625 0.00538185 0.00507914 0.00477813 0.00447881 0.00418118 0.00388523 0.00359098 0.00329842 0.00300829 0.00272131 0.0024375 0.00215684 0.00187934 0.00160499 0.00133381 0.00106579 0.000815992 0.000599504 0.000416322 0.000266446 0.000149876 6.66116e-05 1.66529e-05 0 0 2.47724e-05 9.90894e-05 0.000222951 0.000396358 0.000619309 0.000891805 0.00121385 0.00158543 0.00198683 0.00239831 0.00281987 0.00325152 0.00369325 0.00414506 0.00460695 0.00507893 0.00556117 0.00605387 0.00655703 0.00707064 0.00759471 0.00812923 0.00867421 0.00922964 0.00979168 0.0103565 0.010924 0.0114943 0.0120674 0.0126432 0.0132218 0.0138031 0.0143831 0.0149576 0.0155266 0.0160901 0.0166482 0.0172008 0.0177479 0.0182895 0.018822 0.0193417 0.0198486 0.0203428 0.0208241 0.0212927 0.0217485 0.0221915 0.0226189 0.023028 0.0234187 0.0237911 0.0241451 0.0244807 0.024798 0.0250969 0.0253756 0.0256322 0.0258666 0.0260789 0.0262691 0.0264371 0.026583 0.0267068 0.0268073 0.0268834 0.0269351 0.0269625 0.0269654 0.0269439 0.026898 0.0268277 0.0267327 0.0266126 0.0264674 0.0262971 0.0261018 0.0258813 0.0256358 0.0253652 0.0250703 0.024752 0.0244103 0.0240453 0.0236568 0.0232449 0.0228096 0.0223509 0.0218714 0.0213736 0.0208577 0.0203236 0.0197713 0.0192008 0.0186121 0.0180052 0.0173848 0.0167555 0.0161174 0.0154704 0.0148146 0.0141499 0.0134764 0.0127941 0.0121092 0.0114281 0.0107508 0.0100773 0.00940764 0.00874178 0.00807971 0.00742146 0.00676865 0.00612296 0.00548437 0.00485289 0.00422851 0.00361124 0.00300107 0.00239802 0.00183598 0.00134888 0.000936725 0.000599504 0.000337221 0.000149876 3.7469e-05 0 0 4.40398e-05 0.000176159 0.000396358 0.000704636 0.00110099 0.00158543 0.00215795 0.00281854 0.00353214 0.00426366 0.00501311 0.00578048 0.00656578 0.00736899 0.00819014 0.0090292 0.00988653 0.0107624 0.0116569 0.01257 0.0135017 0.014452 0.0154208 0.0164083 0.0174074 0.0184115 0.0194205 0.0204344 0.0214532 0.0224768 0.0235054 0.0245389 0.0255699 0.0265913 0.0276028 0.0286047 0.0295968 0.0305792 0.0315518 0.0325147 0.0334613 0.0343853 0.0352865 0.0361649 0.0370207 0.0378537 0.038664 0.0394515 0.0402114 0.0409386 0.0416332 0.0422952 0.0429246 0.0435213 0.0440853 0.0446168 0.0451122 0.0455684 0.0459851 0.0463625 0.0467006 0.0469994 0.0472587 0.0474788 0.0476575 0.0477928 0.0478847 0.0479333 0.0479384 0.0479003 0.0478187 0.0476937 0.0475248 0.0473113 0.0470532 0.0467505 0.0464032 0.0460112 0.0455747 0.0450936 0.0445694 0.0440036 0.0433962 0.0427471 0.0420565 0.0413242 0.0405503 0.0397349 0.0388824 0.0379976 0.0370804 0.0361309 0.035149 0.0341348 0.0330882 0.0320093 0.0309063 0.0297876 0.0286532 0.027503 0.0263371 0.0251555 0.0239581 0.022745 0.0215274 0.0203166 0.0191125 0.0179152 0.0167247 0.0155409 0.0143639 0.0131937 0.0120332 0.0108853 0.00974999 0.00862735 0.00751735 0.00641998 0.00533524 0.00426314 0.00326397 0.00239802 0.00166529 0.00106579 0.000599504 0.000266446 6.66116e-05 0 0 6.88121e-05 0.000275248 0.000619309 0.00110099 0.0017203 0.00247724 0.00337179 0.00440398 0.00551897 0.00666198 0.00783299 0.009032 0.010259 0.0115141 0.0127971 0.0141081 0.0154477 0.0168163 0.018214 0.0196407 0.0210964 0.0225812 0.024095 0.0256379 0.0271991 0.028768 0.0303445 0.0319287 0.0335206 0.0351201 0.0367272 0.038342 0.039953 0.0415488 0.0431294 0.0446948 0.046245 0.0477799 0.0492997 0.0508042 0.0522834 0.053727 0.0551351 0.0565077 0.0578448 0.0591464 0.0604125 0.061643 0.0628303 0.0639666 0.0650519 0.0660863 0.0670696 0.068002 0.0688833 0.0697137 0.0704879 0.0712006 0.0718518 0.0724415 0.0729697 0.0734365 0.0738418 0.0741856 0.0744648 0.0746762 0.0748198 0.0748957 0.0749038 0.0748441 0.0747167 0.0745215 0.0742575 0.0739239 0.0735206 0.0730476 0.0725049 0.0718926 0.0712105 0.0704588 0.0696397 0.0687556 0.0678065 0.0667924 0.0657132 0.0645691 0.0633599 0.0620857 0.0607538 0.0593712 0.0579382 0.0564545 0.0549204 0.0533356 0.0517003 0.0500145 0.0482911 0.0465431 0.0447706 0.0429734 0.0411517 0.0393054 0.0374345 0.035539 0.0336366 0.0317447 0.0298633 0.0279925 0.0261323 0.0242827 0.0224436 0.0206152 0.0188018 0.0170082 0.0152344 0.0134802 0.0117459 0.0100312 0.00833632 0.00666116 0.00509995 0.0037469 0.00260201 0.00166529 0.000936725 0.000416322 0.000104081 0 0 9.90894e-05 0.000396358 0.000891805 0.00158543 0.00247724 0.00356722 0.00485538 0.00634172 0.00794732 0.00959324 0.0112795 0.0130061 0.014773 0.0165802 0.0184278 0.0203157 0.0222447 0.0242155 0.0262281 0.0282826 0.0303788 0.0325169 0.0346968 0.0369186 0.0391667 0.0414259 0.0436961 0.0459774 0.0482696 0.0505729 0.0528872 0.0552125 0.0575324 0.0598303 0.0621064 0.0643606 0.0665928 0.0688031 0.0709915 0.073158 0.075288 0.0773669 0.0793946 0.0813711 0.0832965 0.0851708 0.086994 0.0887659 0.0904756 0.0921119 0.0936748 0.0951642 0.0965803 0.0979228 0.099192 0.100388 0.101503 0.102529 0.103467 0.104316 0.105076 0.105749 0.106332 0.106827 0.107229 0.107534 0.107741 0.10785 0.107861 0.107776 0.107592 0.107311 0.106931 0.10645 0.10587 0.105189 0.104407 0.103525 0.102543 0.101461 0.100281 0.0990081 0.0976414 0.096181 0.0946271 0.0929795 0.0912383 0.0894034 0.0874854 0.0854946 0.0834309 0.0812945 0.0790853 0.0768033 0.0744485 0.0720209 0.0695392 0.0670221 0.0644696 0.0618818 0.0592585 0.0565998 0.0539057 0.0511762 0.0484367 0.0457123 0.0430032 0.0403093 0.0376306 0.0349671 0.0323189 0.0296858 0.0270746 0.0244918 0.0219375 0.0194115 0.016914 0.014445 0.0120043 0.00959207 0.00734393 0.00539554 0.0037469 0.00239802 0.00134888 0.000599504 0.000149876 0 0 0.000134872 0.000539487 0.00121385 0.00215795 0.00337179 0.00485538 0.00660872 0.00863179 0.0108172 0.0130575 0.0153527 0.0177027 0.0201077 0.0225675 0.0250823 0.0276519 0.0302775 0.03296 0.0356994 0.0384957 0.0413489 0.0442591 0.0472262 0.0502503 0.0533103 0.0563853 0.0594753 0.0625803 0.0657003 0.0688353 0.0719853 0.0751503 0.078308 0.0814357 0.0845337 0.0876019 0.0906402 0.0936487 0.0966274 0.0995762 0.102475 0.105305 0.108065 0.110755 0.113376 0.115927 0.118408 0.12082 0.123147 0.125375 0.127502 0.129529 0.131456 0.133284 0.135011 0.136639 0.138156 0.139553 0.140829 0.141985 0.143021 0.143936 0.14473 0.145404 0.145951 0.146365 0.146647 0.146796 0.146811 0.146695 0.146445 0.146062 0.145545 0.144891 0.1441 0.143173 0.14211 0.140909 0.139573 0.138099 0.136494 0.134761 0.132901 0.130913 0.128798 0.126555 0.124185 0.121688 0.119077 0.116368 0.113559 0.110651 0.107644 0.104538 0.101333 0.0980285 0.0946506 0.0912246 0.0877503 0.0842279 0.0806574 0.0770386 0.0733716 0.0696565 0.0659277 0.0622195 0.0585321 0.0548654 0.0512194 0.0475941 0.0439896 0.0404057 0.0368516 0.0333361 0.0298593 0.0264213 0.0230219 0.0196612 0.0163392 0.0130559 0.0099959 0.00734393 0.00509995 0.00326397 0.00183598 0.000815992 0.000203998 0 0 0.000176159 0.000704636 0.00158543 0.00281854 0.00440398 0.00634172 0.00863179 0.0112742 0.0141286 0.0170547 0.0200524 0.0231219 0.0262631 0.029476 0.0327605 0.0361168 0.0395461 0.0430497 0.0466277 0.0502801 0.0540068 0.0578078 0.0616833 0.065633 0.0696297 0.0736461 0.077682 0.0817375 0.0858126 0.0899073 0.0940217 0.0981556 0.10228 0.106365 0.110411 0.114419 0.118387 0.122317 0.126207 0.130059 0.133845 0.137541 0.141146 0.14466 0.148083 0.151415 0.154656 0.157806 0.160846 0.163755 0.166533 0.169181 0.171698 0.174085 0.176341 0.178467 0.180449 0.182273 0.18394 0.18545 0.186802 0.187997 0.189035 0.189915 0.19063 0.191171 0.191539 0.191733 0.191754 0.191601 0.191275 0.190775 0.190099 0.189245 0.188213 0.187002 0.185613 0.184045 0.182299 0.180374 0.178278 0.176014 0.173585 0.170988 0.168226 0.165297 0.162201 0.158939 0.15553 0.15199 0.148322 0.144524 0.140596 0.136539 0.132353 0.128037 0.123625 0.11915 0.114613 0.110012 0.105348 0.100622 0.0958324 0.09098 0.0861096 0.0812663 0.0764501 0.0716609 0.0668988 0.0621637 0.0574557 0.0527748 0.0481326 0.043541 0.039 0.0345094 0.0300694 0.0256799 0.021341 0.0170526 0.0130559 0.00959207 0.00666116 0.00426314 0.00239802 0.00106579 0.000266446 0 0 0.000220713 0.000882851 0.00198641 0.0035314 0.00551782 0.00794566 0.0108149 0.0141256 0.0177017 0.0213672 0.025122 0.0289662 0.0328998 0.0369227 0.041035 0.0452367 0.0495295 0.0539149 0.0583931 0.062964 0.0676276 0.072384 0.077233 0.0821748 0.0871751 0.0921995 0.097248 0.102321 0.107418 0.112539 0.117684 0.122853 0.12801 0.133118 0.138177 0.143187 0.148148 0.153059 0.157922 0.162736 0.167468 0.172087 0.176591 0.180982 0.185259 0.189422 0.193471 0.197407 0.201203 0.204837 0.208307 0.211615 0.214759 0.21774 0.220557 0.223212 0.225686 0.227965 0.230046 0.231931 0.233619 0.235111 0.236406 0.237505 0.238397 0.239073 0.239532 0.239774 0.239799 0.239608 0.2392 0.238576 0.237732 0.236665 0.235375 0.233863 0.232128 0.230169 0.227988 0.225585 0.222965 0.220138 0.217103 0.213859 0.210408 0.206748 0.20288 0.198805 0.194544 0.190121 0.185536 0.18079 0.175881 0.17081 0.165577 0.160183 0.154668 0.149073 0.1434 0.137648 0.131817 0.125906 0.119917 0.113849 0.107758 0.1017 0.0956759 0.0896854 0.0837283 0.0778048 0.0719148 0.0660583 0.0602499 0.0545044 0.0488216 0.0432016 0.0376444 0.03215 0.0267184 0.0213496 0.0163458 0.0120092 0.0083397 0.00533741 0.00300229 0.00133435 0.000333588 0 0 0.000266294 0.00106518 0.00239665 0.00426071 0.00665736 0.0095866 0.0130484 0.0170428 0.0213568 0.0257774 0.0303044 0.0349381 0.0396782 0.044525 0.0494782 0.054538 0.0597065 0.0649855 0.0703753 0.0758757 0.0814867 0.0872084 0.0930408 0.0989838 0.104996 0.111037 0.117105 0.123202 0.129326 0.135479 0.14166 0.147868 0.154061 0.160194 0.166268 0.172282 0.178235 0.18413 0.189964 0.195738 0.201415 0.206953 0.212355 0.21762 0.222747 0.227737 0.232589 0.237305 0.241854 0.246207 0.250364 0.254325 0.258091 0.26166 0.265034 0.268212 0.271174 0.273901 0.276392 0.278648 0.280669 0.282454 0.284004 0.285318 0.286385 0.287192 0.28774 0.288029 0.288059 0.287829 0.28734 0.286592 0.285581 0.284302 0.282757 0.280945 0.278866 0.27652 0.273907 0.271027 0.267889 0.264502 0.260864 0.256977 0.25284 0.248453 0.243817 0.23893 0.233822 0.228518 0.22302 0.217326 0.211437 0.205353 0.199075 0.192601 0.185982 0.179267 0.172456 0.165549 0.158547 0.151448 0.144254 0.136965 0.129646 0.122368 0.115128 0.107928 0.100768 0.0936462 0.0865641 0.0795214 0.0725355 0.0656239 0.0587866 0.0520236 0.0453349 0.0387205 0.0321804 0.0257146 0.0196877 0.0144645 0.0100448 0.00642865 0.00361611 0.00160716 0.00040179 0 0 0.000312904 0.00125162 0.00281613 0.00500646 0.0078226 0.0112645 0.0153323 0.0200258 0.0250939 0.0302852 0.0355997 0.0410375 0.0465985 0.0522827 0.0580901 0.0640208 0.0700771 0.0762616 0.0825743 0.0890151 0.095584 0.102281 0.109106 0.11606 0.123093 0.130157 0.137253 0.14438 0.151538 0.158728 0.165949 0.173201 0.180433 0.187594 0.194684 0.201703 0.20865 0.215527 0.222332 0.229066 0.235684 0.242141 0.248437 0.254572 0.260546 0.266358 0.27201 0.277501 0.282797 0.287864 0.292703 0.297313 0.301695 0.305848 0.309772 0.313468 0.316912 0.320083 0.32298 0.325602 0.327951 0.330025 0.331826 0.333353 0.334592 0.335529 0.336165 0.3365 0.336533 0.336264 0.335694 0.334823 0.333645 0.332157 0.330358 0.328248 0.325828 0.323097 0.320056 0.316703 0.31305 0.309105 0.304869 0.300341 0.295522 0.290412 0.28501 0.279317 0.273363 0.267182 0.260771 0.254132 0.247265 0.240169 0.232844 0.225291 0.217568 0.20973 0.20178 0.193716 0.185539 0.177249 0.168845 0.160328 0.151776 0.14327 0.134807 0.12639 0.118016 0.109688 0.101404 0.0931641 0.0849893 0.0768996 0.0688949 0.0609753 0.0531407 0.0453912 0.0377268 0.0301474 0.0230816 0.0169579 0.0117763 0.00753685 0.00423948 0.00188421 0.000471053 0 0 0.000360541 0.00144217 0.00324487 0.00576866 0.00901353 0.0129795 0.0176665 0.0230746 0.028913 0.0348908 0.041008 0.0472645 0.0536605 0.0601959 0.0668707 0.0736849 0.0806414 0.0877432 0.0949901 0.102382 0.10992 0.117602 0.12543 0.133403 0.141466 0.149562 0.157692 0.165856 0.174054 0.182286 0.190552 0.198851 0.207126 0.215318 0.223426 0.231451 0.239393 0.247251 0.255027 0.262719 0.270277 0.277649 0.284837 0.291839 0.298656 0.305287 0.311734 0.317995 0.324033 0.329809 0.335324 0.340578 0.34557 0.350301 0.354771 0.35898 0.362901 0.36651 0.369808 0.372793 0.375465 0.377826 0.379874 0.38161 0.383019 0.384084 0.384806 0.385185 0.385221 0.384913 0.384262 0.383268 0.381925 0.380229 0.378178 0.375773 0.373014 0.369901 0.366433 0.362612 0.358447 0.353949 0.349118 0.343953 0.338456 0.332625 0.326461 0.319964 0.313169 0.306111 0.298791 0.291209 0.283364 0.275257 0.266887 0.258255 0.249425 0.240464 0.231372 0.222148 0.212793 0.203306 0.193688 0.183938 0.174148 0.164406 0.154713 0.14507 0.135475 0.12593 0.116434 0.106986 0.0976114 0.0883314 0.0791465 0.0700567 0.061062 0.0521623 0.0433577 0.0346481 0.0265274 0.0194896 0.0135344 0.00866202 0.00487239 0.00216551 0.000541377 0 0 0.000409207 0.00163683 0.00368286 0.00654731 0.0102302 0.0147314 0.0200511 0.0261892 0.0328141 0.039594 0.046529 0.0536192 0.0608644 0.0682646 0.07582 0.0835305 0.0913994 0.0994302 0.107623 0.115977 0.124493 0.133172 0.142012 0.151013 0.160114 0.16925 0.178422 0.18763 0.196874 0.206153 0.215468 0.224819 0.23414 0.243364 0.252493 0.261526 0.270463 0.279303 0.288048 0.296697 0.305193 0.313479 0.321555 0.329421 0.337077 0.344524 0.35176 0.358787 0.365561 0.372042 0.378228 0.38412 0.389718 0.395022 0.400031 0.404747 0.40914 0.413183 0.416876 0.42022 0.423212 0.425855 0.428148 0.430091 0.431666 0.432857 0.433663 0.434085 0.434123 0.433776 0.433044 0.431928 0.430422 0.428518 0.426217 0.423518 0.420423 0.41693 0.41304 0.408754 0.404081 0.399033 0.39361 0.387812 0.381639 0.375091 0.368169 0.360871 0.353238 0.345307 0.33708 0.328556 0.319735 0.310617 0.301202 0.29149 0.281555 0.271469 0.261233 0.250846 0.240309 0.229622 0.218784 0.207796 0.19676 0.185776 0.174845 0.163968 0.153143 0.142372 0.131654 0.120988 0.110402 0.0999194 0.0895415 0.0792679 0.0690986 0.0590336 0.049073 0.0392167 0.0300253 0.0220594 0.015319 0.00980416 0.00551484 0.00245104 0.00061276 0 0 0.0004589 0.0018356 0.0041301 0.0073424 0.0114725 0.0165204 0.0224861 0.0293696 0.0367971 0.0443949 0.052163 0.0601014 0.06821 0.0764889 0.084938 0.0935574 0.102351 0.111323 0.120472 0.1298 0.139306 0.148989 0.158851 0.168891 0.179038 0.189222 0.199443 0.209702 0.219997 0.230329 0.240698 0.251104 0.261474 0.271735 0.281886 0.291927 0.30186 0.311683 0.321396 0.331 0.340432 0.349629 0.358591 0.367318 0.37581 0.384067 0.392089 0.399876 0.407382 0.414561 0.421414 0.427939 0.434137 0.440008 0.445552 0.45077 0.455629 0.460102 0.464186 0.467883 0.471192 0.474114 0.476647 0.478793 0.480533 0.481847 0.482736 0.4832 0.483239 0.482852 0.48204 0.480803 0.479134 0.477024 0.474474 0.471485 0.468056 0.464186 0.459877 0.455128 0.449951 0.444356 0.438345 0.431918 0.425073 0.417812 0.410134 0.402039 0.39357 0.38477 0.375637 0.366173 0.356377 0.346249 0.33579 0.324999 0.313956 0.302744 0.291362 0.27981 0.268088 0.256196 0.244134 0.231902 0.219613 0.20738 0.195204 0.183085 0.171021 0.159014 0.147064 0.13517 0.12336 0.111664 0.10008 0.0886088 0.0772506 0.0660053 0.0548728 0.0438531 0.033575 0.0246674 0.0171301 0.0109633 0.00616684 0.00274082 0.000685204 0 0 0.000509621 0.00203848 0.00458659 0.00815394 0.0127405 0.0183464 0.0249714 0.0326157 0.0408622 0.0492935 0.0579099 0.0667111 0.0756974 0.0848686 0.0942247 0.103766 0.113496 0.123421 0.133539 0.14385 0.154356 0.165055 0.175948 0.187035 0.198238 0.209478 0.220756 0.232071 0.243424 0.254814 0.266242 0.277707 0.289129 0.300428 0.311604 0.322656 0.333584 0.344389 0.35507 0.365629 0.375995 0.3861 0.395945 0.40553 0.414854 0.423918 0.432721 0.441264 0.449496 0.457369 0.464882 0.472035 0.478828 0.485261 0.491335 0.497048 0.502369 0.507265 0.511737 0.515783 0.519404 0.522601 0.525372 0.527719 0.52962 0.531056 0.532026 0.53253 0.532569 0.532143 0.531251 0.529893 0.528061 0.525748 0.522951 0.519673 0.515912 0.511669 0.506943 0.501735 0.496057 0.48992 0.483325 0.47627 0.468758 0.460786 0.452357 0.443468 0.434167 0.424499 0.414463 0.40406 0.393291 0.382154 0.37065 0.358779 0.34663 0.33429 0.32176 0.309039 0.296128 0.283027 0.269736 0.256254 0.242707 0.229219 0.21579 0.20242 0.189109 0.175857 0.162664 0.149531 0.136487 0.123564 0.110761 0.0980795 0.0855181 0.0730773 0.060757 0.0485574 0.0371768 0.0273135 0.0189677 0.0121393 0.00682838 0.00303484 0.000758709 0 0 0.00056137 0.00224548 0.00505233 0.00898192 0.0140343 0.0202093 0.0275071 0.0359277 0.0450092 0.0542898 0.0637696 0.0734485 0.0833266 0.0934038 0.10368 0.114156 0.124835 0.135724 0.146822 0.158129 0.169645 0.18137 0.193304 0.205447 0.217714 0.230018 0.242359 0.254738 0.267154 0.279608 0.292099 0.304627 0.317105 0.329445 0.341647 0.35371 0.365636 0.377423 0.389072 0.400582 0.41188 0.422892 0.433618 0.444057 0.454209 0.464076 0.473655 0.482949 0.491903 0.500464 0.508632 0.516408 0.52379 0.53078 0.537378 0.543582 0.549359 0.554675 0.559528 0.56392 0.567849 0.571317 0.574323 0.576866 0.578927 0.580481 0.581531 0.582075 0.582114 0.581647 0.580675 0.579198 0.577205 0.574688 0.571647 0.568082 0.563992 0.559377 0.554239 0.548575 0.5424 0.535724 0.528547 0.52087 0.512693 0.504015 0.494836 0.485158 0.475027 0.464494 0.453557 0.442218 0.430476 0.418331 0.405783 0.392833 0.379575 0.366106 0.352425 0.338534 0.324431 0.310116 0.295591 0.280854 0.266042 0.251291 0.236602 0.221973 0.207406 0.1929 0.178455 0.164072 0.149782 0.135621 0.121586 0.10768 0.0939009 0.0802495 0.0667257 0.0533296 0.0408304 0.0299979 0.0208319 0.0133324 0.00749947 0.0033331 0.000833274 0 0 0.00061413 0.00245652 0.00552717 0.00982607 0.0153532 0.0221087 0.0300924 0.0393043 0.0492368 0.0593822 0.0697404 0.0803115 0.0910955 0.102092 0.113302 0.124725 0.136366 0.14823 0.160319 0.172631 0.185168 0.197928 0.210912 0.22412 0.237458 0.250832 0.264243 0.277691 0.291175 0.304695 0.318252 0.331845 0.34538 0.358761 0.371988 0.385061 0.39798 0.410746 0.423358 0.435816 0.448041 0.459953 0.471552 0.482838 0.493812 0.504473 0.514821 0.524856 0.534522 0.543763 0.552577 0.560967 0.56893 0.576469 0.583581 0.590268 0.596493 0.60222 0.607448 0.612178 0.61641 0.620144 0.623379 0.626116 0.628331 0.630003 0.631129 0.631711 0.631749 0.631242 0.630191 0.628596 0.626445 0.623728 0.620445 0.616597 0.612182 0.607202 0.601656 0.595544 0.588877 0.581669 0.573918 0.565625 0.55679 0.547412 0.537492 0.52703 0.516078 0.504686 0.492854 0.480584 0.467875 0.454726 0.441138 0.427111 0.412748 0.398151 0.383322 0.368259 0.352963 0.337434 0.321672 0.305676 0.289595 0.273577 0.257621 0.241728 0.225897 0.210128 0.194422 0.178779 0.163233 0.147822 0.132544 0.117401 0.102391 0.0875149 0.0727728 0.0581647 0.0445324 0.0327177 0.0227206 0.0145412 0.00817941 0.0036353 0.000908824 0 0 0.000667882 0.00267153 0.00601094 0.0106861 0.0166971 0.0240438 0.0327262 0.0427445 0.0535437 0.064569 0.0758205 0.0872982 0.0990021 0.110932 0.123088 0.135471 0.148085 0.160937 0.174028 0.187356 0.200922 0.214726 0.228768 0.243048 0.257464 0.271914 0.286399 0.300919 0.315473 0.330061 0.344684 0.359341 0.37393 0.388349 0.402597 0.416675 0.430583 0.444321 0.457888 0.471285 0.484427 0.497229 0.509691 0.521814 0.533598 0.545041 0.556145 0.566909 0.577274 0.587181 0.59663 0.605621 0.614153 0.622228 0.629844 0.637001 0.643663 0.649791 0.655385 0.660445 0.664971 0.668963 0.672422 0.675346 0.677712 0.679496 0.680698 0.681316 0.681353 0.680806 0.679677 0.677966 0.67566 0.672748 0.669229 0.665103 0.660371 0.655032 0.649087 0.642535 0.635388 0.627657 0.619342 0.610443 0.600961 0.590894 0.580244 0.56901 0.557245 0.545005 0.532289 0.519097 0.505428 0.491284 0.476663 0.461567 0.446104 0.430386 0.414411 0.39818 0.381693 0.36495 0.34795 0.330695 0.313343 0.296054 0.278828 0.261664 0.244563 0.227526 0.210551 0.193639 0.176828 0.160156 0.143624 0.127232 0.110979 0.094866 0.0788922 0.063058 0.0482788 0.0354701 0.024632 0.0157645 0.00886753 0.00394112 0.000985281 0 0 0.000722628 0.00289051 0.00650365 0.011562 0.0180657 0.0260146 0.0354088 0.0462482 0.0579297 0.0698503 0.08201 0.0944086 0.107046 0.119923 0.133039 0.146394 0.159994 0.173845 0.187948 0.202302 0.216907 0.231764 0.246872 0.262231 0.277731 0.293263 0.308827 0.324422 0.340048 0.355705 0.371394 0.387114 0.402756 0.41821 0.433476 0.448554 0.463445 0.478148 0.492662 0.506989 0.521039 0.534721 0.548036 0.560985 0.573566 0.585781 0.597628 0.609108 0.62016 0.63072 0.640791 0.65037 0.659459 0.668057 0.676165 0.683782 0.690869 0.697388 0.703338 0.708719 0.713532 0.717776 0.721451 0.724557 0.72707 0.728962 0.730236 0.730889 0.730924 0.730338 0.729134 0.727309 0.724852 0.721748 0.717998 0.713601 0.708558 0.702868 0.696532 0.68955 0.681932 0.673688 0.664819 0.655325 0.645205 0.634461 0.623091 0.611095 0.59853 0.585452 0.571861 0.557756 0.543137 0.528005 0.512359 0.4962 0.479645 0.462809 0.445693 0.428297 0.41062 0.392664 0.374428 0.355911 0.337286 0.318722 0.300222 0.281783 0.263407 0.245093 0.226841 0.208652 0.190566 0.172624 0.154827 0.137175 0.119667 0.102303 0.085084 0.0680094 0.0520697 0.0382553 0.0265662 0.0170023 0.00956382 0.00425059 0.00106265 0 0 0.000778366 0.00311347 0.0070053 0.0124539 0.0194592 0.0280212 0.03814 0.0498155 0.0623951 0.0752261 0.0883087 0.101643 0.115228 0.129065 0.143154 0.157494 0.172091 0.186953 0.202079 0.217469 0.233123 0.249041 0.265223 0.281669 0.298261 0.31488 0.331526 0.348199 0.3649 0.381628 0.398383 0.415165 0.431858 0.448344 0.464624 0.480698 0.496565 0.512226 0.52768 0.542929 0.557876 0.572429 0.586587 0.60035 0.613718 0.626691 0.63927 0.651453 0.663178 0.67438 0.685059 0.695215 0.704848 0.713958 0.722546 0.73061 0.738112 0.745012 0.751308 0.757002 0.762093 0.766581 0.770466 0.773749 0.776403 0.778401 0.779744 0.780431 0.780463 0.779839 0.77856 0.776625 0.774019 0.770728 0.766752 0.76209 0.756743 0.75071 0.743992 0.736588 0.728508 0.719762 0.710349 0.70027 0.689524 0.678111 0.666032 0.653287 0.639933 0.626027 0.61157 0.596561 0.581001 0.564889 0.548226 0.531012 0.513369 0.495421 0.477167 0.458609 0.439746 0.420577 0.401103 0.381324 0.361423 0.341583 0.321803 0.302084 0.282427 0.262829 0.243293 0.223818 0.204447 0.185225 0.166152 0.147228 0.128453 0.109826 0.091348 0.0730189 0.0559051 0.0410731 0.028523 0.0182547 0.0102683 0.00456368 0.00114092 0 0 0.000835098 0.00334039 0.00751588 0.0133616 0.0208775 0.0300635 0.0409198 0.0534463 0.0669396 0.0806964 0.0947167 0.109001 0.123548 0.138359 0.153433 0.168771 0.184378 0.200262 0.216422 0.232858 0.24957 0.266558 0.283822 0.301362 0.319052 0.336763 0.354496 0.372252 0.390029 0.407829 0.42565 0.443494 0.461235 0.478751 0.496041 0.513105 0.529944 0.546556 0.562943 0.579103 0.59494 0.610353 0.625343 0.639909 0.654053 0.667773 0.68107 0.693944 0.706329 0.718159 0.729434 0.740154 0.750319 0.75993 0.768986 0.777486 0.785392 0.792661 0.799294 0.805292 0.810653 0.815379 0.819468 0.822922 0.825712 0.827812 0.829222 0.829941 0.82997 0.829308 0.827955 0.825913 0.823163 0.819689 0.815492 0.810571 0.804926 0.798557 0.791465 0.783649 0.775118 0.765878 0.755932 0.745278 0.733916 0.721847 0.70907 0.695585 0.681452 0.666729 0.651416 0.635513 0.61902 0.601937 0.584263 0.566 0.547276 0.528221 0.508835 0.489117 0.469068 0.448688 0.427977 0.406934 0.385755 0.364634 0.343572 0.322568 0.301623 0.280736 0.259907 0.239137 0.218472 0.19796 0.1776 0.157392 0.137337 0.117435 0.0976843 0.0780864 0.0597849 0.0439236 0.0305025 0.0195216 0.0109809 0.0048804 0.0012201 0 0 0.000892823 0.00357129 0.00803541 0.0142852 0.0223206 0.0321416 0.0437483 0.0571407 0.0715634 0.0862612 0.101234 0.116482 0.132005 0.147803 0.163877 0.180225 0.196855 0.213772 0.230976 0.248468 0.266248 0.284314 0.302669 0.321311 0.340104 0.358913 0.377738 0.396579 0.415436 0.434308 0.453196 0.4721 0.490889 0.509431 0.527727 0.545777 0.563581 0.581138 0.598449 0.615513 0.632229 0.648492 0.664304 0.679663 0.694571 0.709026 0.723029 0.736581 0.749613 0.762058 0.773917 0.785189 0.795874 0.805973 0.815485 0.82441 0.832707 0.840337 0.847297 0.85359 0.859214 0.86417 0.868457 0.872076 0.874998 0.877196 0.87867 0.879419 0.879444 0.878745 0.877321 0.875173 0.872282 0.86863 0.864217 0.859042 0.853107 0.84641 0.838953 0.830734 0.82176 0.812038 0.801567 0.790349 0.778382 0.765666 0.752202 0.73799 0.723089 0.707559 0.6914 0.674612 0.657194 0.639147 0.620472 0.601166 0.581368 0.561211 0.540695 0.519821 0.498589 0.476998 0.455049 0.432741 0.410282 0.387878 0.365528 0.343234 0.320995 0.298812 0.276683 0.254609 0.232641 0.210827 0.18917 0.167667 0.146321 0.125129 0.104093 0.0832122 0.0637093 0.0468068 0.0325047 0.020803 0.0117017 0.00520076 0.00130019 0 0 0.000951541 0.00380616 0.00856387 0.0152246 0.0237885 0.0342555 0.0466255 0.0608986 0.0762664 0.0919204 0.107861 0.124087 0.1406 0.157399 0.174484 0.191856 0.20952 0.227482 0.245742 0.2643 0.283156 0.302311 0.321763 0.341514 0.361418 0.381331 0.401252 0.421181 0.441119 0.461066 0.481021 0.500984 0.520818 0.540384 0.559683 0.578713 0.597476 0.615971 0.634199 0.652159 0.669744 0.686848 0.70347 0.719612 0.735272 0.75045 0.765148 0.779364 0.79303 0.806078 0.818507 0.830319 0.841512 0.852086 0.862043 0.871381 0.88006 0.888038 0.895317 0.901896 0.907775 0.912953 0.917432 0.92121 0.92426 0.926553 0.928088 0.928866 0.928887 0.92815 0.926657 0.924406 0.921377 0.917551 0.912927 0.907506 0.901286 0.894269 0.886454 0.877841 0.868435 0.85824 0.847256 0.835483 0.822921 0.80957 0.79543 0.780501 0.764843 0.748517 0.731521 0.713857 0.695523 0.676521 0.65685 0.63651 0.615643 0.594389 0.572748 0.550721 0.528307 0.505506 0.482319 0.458745 0.435003 0.411312 0.387672 0.364083 0.340545 0.317057 0.29362 0.270234 0.246953 0.223828 0.200862 0.178054 0.155403 0.132909 0.110574 0.088396 0.0676782 0.0497227 0.0345297 0.022099 0.0124307 0.00552475 0.00138119 0 0 0.00101125 0.00404501 0.00910126 0.01618 0.0252813 0.036405 0.0495513 0.0647201 0.0810486 0.0976741 0.114597 0.131816 0.149333 0.167146 0.185257 0.203664 0.222374 0.241392 0.260719 0.280353 0.300296 0.320547 0.341106 0.361973 0.382994 0.404015 0.425037 0.446058 0.46708 0.488102 0.509124 0.530146 0.551023 0.57161 0.591907 0.611914 0.63163 0.651057 0.670193 0.689039 0.707485 0.725419 0.742842 0.759755 0.776156 0.792046 0.807425 0.822292 0.83658 0.850217 0.863205 0.875543 0.887232 0.898271 0.90866 0.918399 0.927448 0.935766 0.943353 0.95021 0.956335 0.961729 0.966393 0.970325 0.973498 0.975881 0.977476 0.978281 0.978297 0.977524 0.975962 0.973611 0.970449 0.966453 0.961623 0.95596 0.949463 0.942133 0.93397 0.924972 0.915144 0.904486 0.892998 0.880681 0.867535 0.853559 0.838753 0.823119 0.806715 0.789602 0.771779 0.753248 0.734008 0.714058 0.6934 0.672032 0.650102 0.627756 0.604994 0.581816 0.558222 0.534213 0.509787 0.484946 0.45992 0.434939 0.410004 0.385114 0.36027 0.335472 0.310719 0.286012 0.261408 0.236963 0.212677 0.18855 0.164583 0.140775 0.117127 0.0936379 0.0716915 0.0526713 0.0365773 0.0234095 0.0131678 0.00585237 0.00146309 0 0 0.00107151 0.00428603 0.00964357 0.0171441 0.0267877 0.0385743 0.0525039 0.0685765 0.0858742 0.103479 0.121391 0.13961 0.158137 0.176971 0.196112 0.21556 0.23532 0.255398 0.275792 0.296505 0.317534 0.338881 0.360545 0.382526 0.404662 0.426787 0.448904 0.471011 0.493109 0.515198 0.537277 0.559347 0.581256 0.602851 0.624133 0.645101 0.665756 0.686097 0.706125 0.72584 0.745127 0.763873 0.782079 0.799743 0.816865 0.833447 0.849488 0.864987 0.8