<?xml version="1.0"?> 
<VTKFile type="StructuredGrid" version="0.1"> 
<StructuredGrid WholeExtent="0 128 0 128 0 0"> 
<Piece Extent="0 128 0 128 0 0"> 
<PointData>
<DataArray type="Float32" Name="u" format="ascii" NumberOfComponents="1"> 
0 0 0 0 0 0 0 0 0 0 0 0 0 0 0 0 0 0 0 0 0 0 0 0 0 0 0 0 0 0 0 0 0 0 0 0 0 0 0 0 0 0 0 0 0 0 0 0 0 0 0 0 0 0 0 0 0 0 0 0 0 0 0 0 0 0 0 0 0 0 0 0 0 0 0 0 0 0 0 0 0 0 0 0 0 0 0 0 0 0 0 0 0 0 0 0 0 0 0 0 0 0 0 0 0 0 0 0 0 0 0 0 0 0 0 0 0 0 0 0 0 0 0 0 0 0 0 0 0 0 1.24614e-05 4.98454e-05 0.000112152 0.000199382 0.000311534 0.000448609 0.000610606 0.000797527 0.000996099 0.00119305 0.00138839 0.00158211 0.00177421 0.0019647 0.00215356 0.00234081 0.00252557 0.00270698 0.00288502 0.00305971 0.00323104 0.00339901 0.00356363 0.00372488 0.00388139 0.00403176 0.004176 0.00431409 0.00444605 0.00457188 0.00469156 0.00480511 0.0049126 0.00501412 0.00510968 0.00519926 0.00528287 0.00536051 0.00543218 0.00549787 0.00555847 0.00561484 0.00566698 0.0057149 0.00575858 0.00579804 0.00583327 0.00586427 0.00589198 0.00591734 0.00594034 0.00596098 0.00597926 0.00599519 0.00600876 0.00601998 0.0060294 0.00603756 0.00604449 0.00605016 0.00605459 0.00605778 0.00605971 0.0060604 0.00605985 0.00605805 0.006055 0.0060507 0.00604516 0.00603837 0.00603034 0.00602105 0.00600997 0.00599653 0.00598073 0.00596257 0.00594206 0.00591919 0.00589396 0.00586637 0.00583549 0.00580037 0.00576103 0.00571745 0.00566964 0.00561759 0.00556132 0.00550081 0.0054352 0.00536361 0.00528604 0.00520249 0.00511296 0.00501746 0.00491597 0.0048085 0.00469497 0.0045753 0.00444947 0.0043175 0.00417937 0.0040351 0.00388468 0.00372811 0.00356678 0.00340209 0.00323402 0.00306259 0.00288779 0.00270963 0.00252809 0.00234319 0.00215579 0.00196676 0.0017761 0.00158382 0.00138991 0.00119437 0.000997209 0.000798418 0.000611289 0.00044911 0.000311882 0.000199605 0.000112278 4.99012e-05 1.24753e-05 0 0 4.98454e-05 0.000199382 0.000448609 0.000797527 0.00124614 0.00179443 0.00244243 0.00319011 0.0039844 0.00477222 0.00555357 0.00632845 0.00709685 0.00785879 0.00861426 0.00936325 0.0101023 0.0108279 0.0115401 0.0122388 0.0129242 0.013596 0.0142545 0.0148995 0.0155256 0.016127 0.016704 0.0172564 0.0177842 0.0182875 0.0187662 0.0192204 0.0196504 0.0200565 0.0204387 0.020797 0.0211315 0.021442 0.0217287 0.0219915 0.0222339 0.0224594 0.0226679 0.0228596 0.0230343 0.0231922 0.0233331 0.0234571 0.0235679 0.0236694 0.0237613 0.0238439 0.0239171 0.0239808 0.0240351 0.0240799 0.0241176 0.0241503 0.0241779 0.0242007 0.0242184 0.0242311 0.0242389 0.0242416 0.0242394 0.0242322 0.02422 0.0242028 0.0241806 0.0241535 0.0241213 0.0240842 0.0240399 0.0239861 0.0239229 0.0238503 0.0237682 0.0236767 0.0235758 0.0234655 0.0233419 0.0232015 0.0230441 0.0228698 0.0226785 0.0224704 0.0222453 0.0220033 0.0217408 0.0214544 0.0211442 0.02081 0.0204518 0.0200698 0.0196639 0.019234 0.0187799 0.0183012 0.0177979 0.01727 0.0167175 0.0161404 0.0155387 0.0149124 0.0142671 0.0136084 0.0129361 0.0122504 0.0115512 0.0108385 0.0101124 0.00937275 0.00862314 0.00786703 0.00710441 0.00633528 0.00555964 0.00477749 0.00398884 0.00319367 0.00244516 0.00179644 0.00124753 0.000798418 0.00044911 0.000199605 4.99012e-05 0 0 0.000112152 0.000448609 0.00100937 0.00179443 0.0028038 0.00403748 0.00549546 0.00717774 0.00896489 0.0107375 0.0124955 0.014239 0.0159679 0.0176823 0.0193821 0.0210673 0.0227302 0.0243628 0.0259652 0.0275374 0.0290794 0.0305911 0.0320726 0.0335239 0.0349325 0.0362859 0.037584 0.0388268 0.0400145 0.0411469 0.042224 0.043246 0.0442134 0.0451271 0.0459871 0.0467933 0.0475458 0.0482446 0.0488896 0.0494809 0.0500262 0.0505336 0.0510028 0.0514341 0.0518273 0.0521824 0.0524994 0.0527785 0.0530279 0.053256 0.053463 0.0536488 0.0538134 0.0539567 0.0540789 0.0541798 0.0542646 0.0543381 0.0544004 0.0544515 0.0544913 0.05452 0.0545374 0.0545436 0.0545386 0.0545224 0.054495 0.0544563 0.0544064 0.0543453 0.054273 0.0541895 0.0540897 0.0539688 0.0538266 0.0536631 0.0534785 0.0532727 0.0530456 0.0527973 0.0525194 0.0522033 0.0518492 0.051457 0.0510267 0.0505583 0.0500519 0.0495073 0.0489168 0.0482725 0.0475744 0.0468224 0.0460167 0.0451571 0.0442437 0.0432765 0.0422548 0.0411777 0.0400452 0.0388575 0.0376144 0.0363159 0.0349621 0.033553 0.032101 0.0306188 0.0291062 0.0275633 0.0259901 0.0243866 0.0227528 0.0210887 0.0194021 0.0177008 0.0159849 0.0142544 0.0125092 0.0107494 0.00897488 0.00718577 0.0055016 0.00404199 0.00280694 0.00179644 0.0010105 0.00044911 0.000112278 0 0 0.000199382 0.000797527 0.00179443 0.00319011 0.00498454 0.00717774 0.0097697 0.0127604 0.0159376 0.0190889 0.0222143 0.0253138 0.0283874 0.0314352 0.034457 0.037453 0.0404092 0.0433116 0.0461604 0.0489554 0.0516966 0.0543842 0.057018 0.0595981 0.0621023 0.0645082 0.0668159 0.0690255 0.0711368 0.07315 0.075065 0.0768817 0.0786016 0.080226 0.0817548 0.0831881 0.0845259 0.0857681 0.0869148 0.087966 0.0889355 0.0898375 0.0906717 0.0914384 0.0921373 0.0927687 0.0933324 0.0938284 0.0942718 0.0946774 0.0950454 0.0953756 0.0956682 0.0959231 0.0961402 0.0963197 0.0964703 0.096601 0.0967118 0.0968026 0.0968735 0.0969244 0.0969554 0.0969665 0.0969576 0.0969287 0.0968799 0.0968112 0.0967225 0.0966139 0.0964854 0.0963369 0.0961595 0.0959444 0.0956917 0.0954012 0.0950729 0.094707 0.0943033 0.0938619 0.0933678 0.092806 0.0921764 0.0914792 0.0907142 0.0898815 0.0889811 0.088013 0.0869632 0.0858178 0.0845766 0.0832398 0.0818074 0.0802793 0.0786555 0.0769361 0.0751196 0.0732048 0.0711915 0.0690799 0.06687 0.0645616 0.0621549 0.0596498 0.0570685 0.0544334 0.0517444 0.0490015 0.0462047 0.043354 0.0404494 0.037491 0.0344926 0.0314681 0.0284176 0.0253411 0.0222386 0.01911 0.0159554 0.0127747 0.00978063 0.00718577 0.00499012 0.00319367 0.00179644 0.000798418 0.000199605 0 0 0.000311534 0.00124614 0.0028038 0.00498454 0.00778835 0.0112152 0.0152652 0.0199382 0.0249025 0.0298264 0.0347098 0.0395528 0.0443553 0.0491174 0.0538391 0.0585203 0.0631394 0.0676744 0.0721256 0.0764928 0.080776 0.0849753 0.0890907 0.0931221 0.0970348 0.100794 0.1044 0.107852 0.111151 0.114297 0.117289 0.120128 0.122815 0.125353 0.127742 0.129981 0.132072 0.134013 0.135804 0.137447 0.138962 0.140371 0.141675 0.142872 0.143965 0.144951 0.145832 0.146607 0.1473 0.147933 0.148508 0.149024 0.149482 0.14988 0.150219 0.1505 0.150735 0.150939 0.151112 0.151254 0.151365 0.151444 0.151493 0.15151 0.151496 0.151451 0.151375 0.151268 0.151129 0.150959 0.150758 0.150526 0.150249 0.149913 0.149518 0.149064 0.148551 0.14798 0.147349 0.146659 0.145887 0.145009 0.144026 0.142936 0.141741 0.14044 0.139033 0.13752 0.13588 0.13409 0.132151 0.130062 0.127824 0.125436 0.122899 0.120213 0.117374 0.114382 0.111237 0.107937 0.104484 0.100878 0.097117 0.0932028 0.0891696 0.0850522 0.0808506 0.0765648 0.0721948 0.0677406 0.0632023 0.0585797 0.0538946 0.0491689 0.0444026 0.0395955 0.0347478 0.0298593 0.0249302 0.0199605 0.0152822 0.0112278 0.00779705 0.00499012 0.00280694 0.00124753 0.000311882 0 0 0.000448609 0.00179443 0.00403748 0.00717774 0.0112152 0.0161499 0.0219818 0.028711 0.0358596 0.04295 0.0499821 0.056956 0.0638717 0.0707291 0.0775283 0.0842693 0.0909207 0.0974512 0.103861 0.11015 0.116317 0.122364 0.128291 0.134096 0.13973 0.145143 0.150336 0.155307 0.160058 0.164588 0.168896 0.172984 0.176854 0.180508 0.183948 0.187173 0.190183 0.192978 0.195558 0.197923 0.200105 0.202134 0.204011 0.205736 0.207309 0.20873 0.209998 0.211114 0.212111 0.213024 0.213852 0.214595 0.215253 0.215827 0.216316 0.216719 0.217058 0.217352 0.217602 0.217806 0.217965 0.21808 0.21815 0.218175 0.218155 0.21809 0.21798 0.217825 0.217626 0.217381 0.217092 0.216758 0.216359 0.215875 0.215306 0.214653 0.213914 0.213091 0.212182 0.211189 0.210078 0.208813 0.207397 0.205828 0.204107 0.202233 0.200208 0.198029 0.195667 0.19309 0.190297 0.18729 0.184067 0.180628 0.176975 0.173106 0.169019 0.164711 0.160181 0.15543 0.150457 0.145264 0.139848 0.134212 0.128404 0.122475 0.116425 0.110253 0.103961 0.0975465 0.0910112 0.0843547 0.0776083 0.0708033 0.0639397 0.0570175 0.0500368 0.0429974 0.0358995 0.0287431 0.0220064 0.016168 0.0112278 0.00718577 0.00404199 0.00179644 0.00044911 0 0 0.000610606 0.00244243 0.00549546 0.0097697 0.0152652 0.0219818 0.0299197 0.0390788 0.0488089 0.0584597 0.0680312 0.0775235 0.0869365 0.0962702 0.105525 0.1147 0.123753 0.132642 0.141366 0.149926 0.158321 0.166552 0.174618 0.182519 0.190188 0.197556 0.204624 0.211391 0.217857 0.224022 0.229886 0.23545 0.240717 0.245692 0.250374 0.254764 0.258861 0.262665 0.266177 0.269396 0.272365 0.275127 0.277682 0.28003 0.282171 0.284104 0.28583 0.287349 0.288707 0.28995 0.291076 0.292088 0.292984 0.293764 0.294429 0.294979 0.29544 0.295841 0.29618 0.296458 0.296675 0.296831 0.296926 0.29696 0.296933 0.296844 0.296695 0.296484 0.296213 0.29588 0.295486 0.295032 0.294489 0.29383 0.293056 0.292166 0.291161 0.29004 0.288804 0.287452 0.285939 0.284218 0.28229 0.280155 0.277812 0.275262 0.272505 0.26954 0.266325 0.262817 0.259016 0.254922 0.250535 0.245855 0.240882 0.235617 0.230054 0.22419 0.218024 0.211557 0.204789 0.19772 0.190349 0.182677 0.174772 0.166702 0.158467 0.150067 0.141502 0.132772 0.123876 0.114816 0.105633 0.0963711 0.087029 0.0776072 0.0681056 0.0585243 0.0488633 0.0391225 0.0299532 0.0220064 0.0152822 0.00978063 0.0055016 0.00244516 0.000611289 0 0 0.000797527 0.00319011 0.00717774 0.0127604 0.0199382 0.028711 0.0390788 0.0510417 0.0637504 0.0763555 0.0888571 0.101255 0.11355 0.125741 0.137828 0.149812 0.161637 0.173247 0.184641 0.195821 0.206787 0.217537 0.228072 0.238392 0.248409 0.258033 0.267264 0.276102 0.284547 0.2926 0.30026 0.307527 0.314406 0.320904 0.327019 0.332752 0.338104 0.343072 0.347659 0.351864 0.355742 0.35935 0.362687 0.365753 0.368549 0.371075 0.373329 0.375314 0.377087 0.37871 0.380182 0.381503 0.382673 0.383692 0.384561 0.385279 0.385881 0.386404 0.386847 0.38721 0.387494 0.387698 0.387822 0.387866 0.38783 0.387715 0.38752 0.387245 0.38689 0.386456 0.385941 0.385347 0.384638 0.383778 0.382767 0.381605 0.380292 0.378828 0.377213 0.375448 0.373471 0.371224 0.368706 0.365917 0.362857 0.359526 0.355924 0.352052 0.347853 0.343271 0.338307 0.332959 0.32723 0.321117 0.314622 0.307744 0.300478 0.292819 0.284766 0.27632 0.26748 0.258246 0.24862 0.238599 0.228274 0.217734 0.206978 0.196006 0.184819 0.173416 0.161798 0.149964 0.13797 0.125872 0.113671 0.101364 0.0889542 0.0764399 0.0638214 0.0510988 0.0391225 0.0287431 0.0199605 0.0127747 0.00718577 0.00319367 0.000798418 0 0 0.000996098 0.00398439 0.00896488 0.0159376 0.0249025 0.0358595 0.0488088 0.0637503 0.0796227 0.0953649 0.110977 0.126458 0.14181 0.157031 0.172121 0.187082 0.201842 0.216334 0.230556 0.244509 0.258193 0.271608 0.284754 0.29763 0.310126 0.322132 0.333646 0.34467 0.355203 0.365245 0.374796 0.383856 0.392433 0.400532 0.408154 0.4153 0.421968 0.428159 0.433874 0.439111 0.443942 0.448435 0.45259 0.456408 0.459889 0.463033 0.465839 0.468308 0.470514 0.472532 0.474363 0.476006 0.477461 0.478729 0.479809 0.480701 0.481449 0.482099 0.482649 0.483101 0.483453 0.483706 0.48386 0.483915 0.483871 0.483728 0.483485 0.483144 0.482703 0.482163 0.481524 0.480786 0.479905 0.478835 0.477578 0.476133 0.4745 0.472679 0.470671 0.468474 0.466015 0.463218 0.460084 0.456611 0.452801 0.448654 0.444169 0.439346 0.434115 0.428407 0.422221 0.415557 0.408416 0.400797 0.392701 0.384127 0.375068 0.365518 0.355475 0.344941 0.333916 0.322398 0.310389 0.297887 0.285005 0.271853 0.258431 0.244739 0.230777 0.216545 0.202043 0.187271 0.172298 0.157195 0.14196 0.126595 0.111098 0.09547 0.0797112 0.0638214 0.0488633 0.0358995 0.0249302 0.0159554 0.00897489 0.00398884 0.00099721 0 0 0.00119305 0.0047722 0.0107374 0.0190888 0.0298262 0.0429498 0.0584594 0.0763552 0.0953646 0.114215 0.132907 0.15144 0.169815 0.18803 0.206087 0.223985 0.241641 0.258973 0.27598 0.292662 0.30902 0.325054 0.340762 0.356146 0.371074 0.385413 0.399162 0.412324 0.424896 0.43688 0.448275 0.459081 0.469308 0.478964 0.48805 0.496565 0.50451 0.511884 0.518688 0.524922 0.530669 0.536014 0.540956 0.545496 0.549634 0.553369 0.556702 0.559633 0.562251 0.564645 0.566817 0.568765 0.570491 0.571993 0.573272 0.574327 0.575213 0.575981 0.576632 0.577166 0.577583 0.577882 0.578065 0.57813 0.578077 0.577908 0.577621 0.577217 0.576696 0.576057 0.575302 0.574429 0.573385 0.572119 0.570629 0.568916 0.56698 0.56482 0.562437 0.559831 0.556911 0.55359 0.549865 0.545737 0.541207 0.536274 0.530938 0.5252 0.518975 0.512178 0.50481 0.496871 0.488361 0.479279 0.469627 0.459403 0.448598 0.437204 0.42522 0.412646 0.399483 0.385729 0.371386 0.356453 0.341062 0.325345 0.309304 0.292936 0.276243 0.259224 0.24188 0.22421 0.206298 0.188226 0.169994 0.151602 0.133051 0.114341 0.0954701 0.0764399 0.0585243 0.0429975 0.0298593 0.01911 0.0107494 0.0047775 0.00119437 0 0 0.00138838 0.00555353 0.0124954 0.0222141 0.0347095 0.0499817 0.0680307 0.0888564 0.110976 0.132907 0.154648 0.176201 0.197564 0.218739 0.239725 0.260521 0.281033 0.301163 0.320913 0.340281 0.359268 0.377873 0.396098 0.413942 0.431251 0.447875 0.463812 0.479062 0.493627 0.507505 0.520696 0.533201 0.545032 0.5562 0.566705 0.576548 0.585729 0.594247 0.602103 0.609295 0.615924 0.622088 0.627785 0.633017 0.637784 0.642085 0.64592 0.649289 0.652298 0.655049 0.657543 0.65978 0.66176 0.663484 0.66495 0.666159 0.667172 0.668051 0.668796 0.669407 0.669884 0.670227 0.670435 0.67051 0.67045 0.670256 0.669928 0.669466 0.668869 0.668139 0.667274 0.666275 0.66508 0.663628 0.661919 0.659953 0.65773 0.655249 0.652512 0.649517 0.64616 0.642338 0.638049 0.633295 0.628074 0.622387 0.616234 0.609615 0.602432 0.594585 0.586075 0.576901 0.567064 0.556563 0.545399 0.533572 0.521069 0.507878 0.494 0.479434 0.464181 0.44824 0.431611 0.414295 0.396444 0.37821 0.359594 0.340596 0.321216 0.301454 0.281309 0.260782 0.239968 0.218965 0.197772 0.176388 0.154815 0.133051 0.111098 0.0889543 0.0681057 0.0500368 0.0347478 0.0222386 0.0125092 0.00555964 0.00138991 0 0 0.00158209 0.00632837 0.0142388 0.0253135 0.0395523 0.0569554 0.0775226 0.101254 0.126457 0.151439 0.1762 0.20074 0.225059 0.249158 0.273035 0.296691 0.320018 0.342905 0.365354 0.387364 0.408935 0.430067 0.450761 0.471016 0.490659 0.509519 0.527595 0.544887 0.561395 0.577119 0.59206 0.606217 0.619605 0.63224 0.644122 0.65525 0.665625 0.675248 0.684116 0.692232 0.699708 0.706656 0.713077 0.718971 0.724339 0.729179 0.733491 0.737277 0.740655 0.743743 0.746542 0.749051 0.751271 0.753202 0.754843 0.756194 0.757326 0.758309 0.759141 0.759824 0.760356 0.760739 0.760972 0.761055 0.760989 0.760772 0.760405 0.759889 0.759223 0.758407 0.757441 0.756325 0.754989 0.753364 0.751449 0.749245 0.746751 0.743968 0.740895 0.737533 0.733762 0.729463 0.724637 0.719283 0.713401 0.706993 0.700056 0.692592 0.684487 0.675628 0.666014 0.655647 0.644525 0.632649 0.620018 0.606634 0.59248 0.57754 0.561816 0.545306 0.528011 0.50993 0.491065 0.471414 0.451151 0.430447 0.409304 0.38772 0.365697 0.343233 0.320329 0.296985 0.27331 0.249413 0.225294 0.200952 0.176388 0.151603 0.126595 0.101365 0.0776073 0.0570176 0.0395955 0.0253411 0.0142544 0.00633529 0.00158382 0 0 0.00177418 0.00709674 0.0159677 0.028387 0.0443546 0.0638706 0.0869351 0.113548 0.141807 0.169812 0.197563 0.225058 0.252299 0.279286 0.306017 0.332494 0.358595 0.384199 0.409304 0.433912 0.458023 0.481636 0.504751 0.527369 0.549297 0.570345 0.590511 0.609796 0.628201 0.645724 0.662366 0.678127 0.693027 0.707084 0.720298 0.73267 0.744199 0.754886 0.76473 0.773732 0.782019 0.789719 0.796832 0.803359 0.809298 0.814651 0.819417 0.823596 0.827322 0.830727 0.833813 0.836578 0.839022 0.841147 0.842951 0.844435 0.845676 0.846754 0.847667 0.848415 0.849 0.849419 0.849675 0.849766 0.849693 0.849456 0.849054 0.848487 0.847757 0.846862 0.845802 0.844579 0.843113 0.841326 0.839219 0.836792 0.834044 0.830976 0.827587 0.823878 0.819715 0.814965 0.809627 0.803702 0.79719 0.790091 0.782404 0.774129 0.76514 0.755306 0.744629 0.733108 0.720744 0.707536 0.693485 0.678589 0.662831 0.64619 0.628667 0.610261 0.590972 0.570801 0.549747 0.527811 0.505183 0.482057 0.458432 0.434308 0.409685 0.384562 0.358941 0.332821 0.306323 0.279569 0.252559 0.225294 0.197772 0.169994 0.14196 0.113671 0.0870292 0.0639398 0.0444026 0.0284177 0.0159849 0.00710442 0.00177611 0 0 0.00196466 0.00785863 0.0176819 0.0314345 0.0491164 0.0707276 0.0962682 0.125738 0.157027 0.188027 0.218736 0.249155 0.279284 0.309123 0.338672 0.367931 0.396766 0.425044 0.452764 0.479926 0.506531 0.532578 0.558068 0.583001 0.607165 0.630352 0.65256 0.673791 0.694044 0.713318 0.731615 0.748933 0.765298 0.780732 0.795235 0.808808 0.82145 0.833162 0.843944 0.853794 0.862858 0.871276 0.87905 0.886179 0.892663 0.898502 0.903697 0.908247 0.912299 0.916002 0.919356 0.92236 0.925014 0.927319 0.929274 0.93088 0.932222 0.933386 0.934373 0.935182 0.935814 0.936268 0.936544 0.936643 0.936564 0.936307 0.935873 0.935261 0.934471 0.933504 0.932359 0.931036 0.92945 0.927514 0.925228 0.922593 0.919607 0.916272 0.912588 0.908553 0.904021 0.898844 0.893021 0.886553 0.87944 0.871681 0.863277 0.854228 0.84439 0.83362 0.821919 0.809286 0.795722 0.781225 0.765797 0.749438 0.732123 0.713828 0.694553 0.674299 0.653064 0.630851 0.607657 0.583484 0.558541 0.53304 0.506979 0.480359 0.45318 0.425442 0.397145 0.368289 0.339007 0.309434 0.279569 0.249413 0.218965 0.188226 0.157195 0.125873 0.0963713 0.0708034 0.0491691 0.0314682 0.0177009 0.00786705 0.00196676 0 0 0.00215351 0.00861403 0.0193816 0.0344561 0.0538377 0.0775263 0.105522 0.137825 0.172117 0.206082 0.23972 0.273031 0.306014 0.338671 0.370999 0.403001 0.43453 0.46544 0.495732 0.525405 0.554459 0.582895 0.610712 0.637911 0.664263 0.689541 0.713743 0.736871 0.758924 0.779903 0.799806 0.818635 0.836418 0.853184 0.868932 0.883664 0.897379 0.910076 0.921757 0.93242 0.942225 0.951328 0.959731 0.967432 0.974433 0.980732 0.986331 0.991228 0.995587 0.999568 1.00317 1.0064 1.00925 1.01172 1.01381 1.01553 1.01696 1.01821 1.01926 1.02012 1.0208 1.02128 1.02158 1.02168 1.0216 1.02133 1.02086 1.02021 1.01937 1.01833 1.01711 1.0157 1.014 1.01193 1.00948 1.00665 1.00344 0.999858 0.995897 0.991558 0.98668 0.9811 0.974818 0.967835 0.960151 0.951764 0.942677 0.932887 0.922238 0.91057 0.897884 0.88418 0.869457 0.853716 0.836957 0.81918 0.800355 0.780453 0.759475 0.73742 0.714288 0.69008 0.664796 0.638434 0.611224 0.583394 0.554944 0.525874 0.496183 0.465872 0.43494 0.403389 0.371362 0.339007 0.306323 0.27331 0.239969 0.206298 0.172299 0.137971 0.105634 0.0776085 0.0538948 0.0344927 0.0194021 0.00862317 0.00215579 0 0 0.00234074 0.00936296 0.0210667 0.0374518 0.0585185 0.0842666 0.114696 0.149807 0.187076 0.223979 0.260515 0.296685 0.332489 0.367927 0.402999 0.437704 0.471887 0.505388 0.538209 0.570348 0.601808 0.632586 0.662684 0.692101 0.720592 0.747911 0.77406 0.799037 0.822843 0.845477 0.86694 0.887232 0.906387 0.924439 0.94139 0.957238 0.971984 0.985628 0.99817 1.00961 1.02012 1.02987 1.03887 1.04712 1.05461 1.06134 1.06732 1.07254 1.07718 1.08142 1.08526 1.08869 1.09172 1.09434 1.09657 1.09838 1.0999 1.10121 1.10233 1.10324 1.10396 1.10447 1.10478 1.10489 1.1048 1.10451 1.10402 1.10333 1.10244 1.10135 1.10006 1.09856 1.09677 1.09457 1.09196 1.08896 1.08555 1.08173 1.07751 1.07289 1.06769 1.06173 1.05502 1.04755 1.03932 1.03034 1.0206 1.01011 0.998683 0.986156 0.972524 0.95779 0.941951 0.925009 0.906964 0.887814 0.867527 0.846066 0.823432 0.799624 0.774644 0.74849 0.721162 0.692662 0.663233 0.633122 0.602328 0.570852 0.538693 0.505851 0.472327 0.438121 0.403389 0.368289 0.332821 0.296986 0.260782 0.224211 0.187272 0.149964 0.114817 0.084355 0.0585799 0.0374911 0.0210888 0.00937278 0.00234319 0 0 0.00252548 0.0101019 0.0227293 0.0404077 0.063137 0.0909174 0.123749 0.161631 0.201835 0.241633 0.281025 0.32001 0.358588 0.39676 0.434525 0.471884 0.508668 0.544707 0.580003 0.614555 0.648362 0.681426 0.713746 0.745321 0.775891 0.805194 0.833229 0.859997 0.885497 0.90973 0.932695 0.954393 0.974865 0.99415 1.01225 1.02916 1.04489 1.05944 1.07279 1.08497 1.09614 1.10651 1.11607 1.12482 1.13276 1.1399 1.14623 1.15175 1.15665 1.16112 1.16517 1.16879 1.17198 1.17474 1.17708 1.17898 1.18057 1.18195 1.18311 1.18407 1.18482 1.18535 1.18568 1.1858 1.1857 1.1854 1.18489 1.18416 1.18323 1.18209 1.18073 1.17917 1.17729 1.17498 1.17224 1.16907 1.16547 1.16145 1.157 1.15212 1.14662 1.14031 1.1332 1.12527 1.11654 1.107 1.09665 1.08549 1.07334 1.06 1.04547 1.02975 1.01285 0.994755 0.975477 0.955012 0.933318 0.910356 0.886123 0.860621 0.83385 0.805809 0.776498 0.745918 0.71433 0.681996 0.648916 0.615091 0.580519 0.545201 0.509137 0.472328 0.434941 0.397146 0.358942 0.32033 0.28131 0.241881 0.202044 0.161798 0.123877 0.0910116 0.0632025 0.0404496 0.0227529 0.0101124 0.0025281 0 0 0.00270687 0.0108275 0.0243618 0.0433099 0.0676716 0.0974472 0.132636 0.173239 0.216325 0.258963 0.301153 0.342895 0.384189 0.425035 0.465433 0.505383 0.544705 0.583218 0.620924 0.657821 0.693909 0.72919 0.763662 0.797325 0.829904 0.861119 0.890971 0.91946 0.946587 0.972351 0.996751 1.01979 1.04151 1.06197 1.08116 1.09908 1.11573 1.13112 1.14524 1.15809 1.16988 1.18082 1.19089 1.20011 1.20847 1.21598 1.22262 1.22841 1.23354 1.23822 1.24246 1.24624 1.24957 1.25245 1.25488 1.25686 1.25851 1.25994 1.26115 1.26214 1.26291 1.26347 1.26381 1.26393 1.26383 1.26352 1.26299 1.26224 1.26127 1.26008 1.25868 1.25706 1.2551 1.2527 1.24984 1.24653 1.24278 1.23857 1.23391 1.2288 1.22303 1.21641 1.20893 1.20059 1.19139 1.18134 1.17042 1.15865 1.14581 1.13171 1.11633 1.09969 1.08178 1.0626 1.04216 1.02044 0.997408 0.97301 0.947247 0.920119 0.891626 0.861767 0.830544 0.797955 0.764279 0.729792 0.694495 0.658387 0.621469 0.58374 0.545201 0.505852 0.465872 0.425443 0.384563 0.343234 0.301455 0.259225 0.216546 0.173417 0.132772 0.097547 0.067741 0.0433542 0.0243867 0.0108386 0.00270964 0 0 0.00288489 0.0115396 0.025964 0.0461583 0.0721223 0.103856 0.14136 0.184633 0.230546 0.275968 0.3209 0.365341 0.409292 0.452752 0.495722 0.538201 0.579998 0.620921 0.66097 0.700146 0.738448 0.775877 0.812431 0.848113 0.882628 0.915686 0.947286 0.977428 1.00611 1.03334 1.05911 1.08342 1.10633 1.12789 1.14811 1.16698 1.1845 1.20068 1.21551 1.22899 1.24135 1.25281 1.26336 1.273 1.28174 1.28957 1.2965 1.30252 1.30786 1.31272 1.31712 1.32104 1.32449 1.32747 1.32999 1.33203 1.33372 1.33519 1.33643 1.33745 1.33825 1.33882 1.33917 1.3393 1.3392 1.33887 1.33833 1.33755 1.33656 1.33534 1.3339 1.33223 1.33022 1.32773 1.32477 1.32135 1.31745 1.31308 1.30824 1.30293 1.29693 1.29002 1.28221 1.2735 1.26387 1.25335 1.24191 1.22957 1.21611 1.20129 1.18513 1.16762 1.14876 1.12856 1.107 1.0841 1.05979 1.03403 1.0068 0.978118 0.947972 0.916366 0.8833 0.848773 0.813079 0.776509 0.739063 0.700741 0.661543 0.621469 0.58052 0.538694 0.496184 0.453181 0.409686 0.365698 0.321217 0.276244 0.230778 0.18482 0.141503 0.103961 0.0721952 0.0462049 0.0259903 0.0115512 0.00288781 0 0 0.00305956 0.0122382 0.027536 0.0489529 0.0764889 0.110144 0.149918 0.195812 0.244497 0.292649 0.340266 0.387349 0.433898 0.479912 0.525392 0.570338 0.614546 0.657815 0.700143 0.741531 0.781979 0.821487 0.860055 0.897683 0.934065 0.968895 1.00217 1.0339 1.06407 1.09269 1.11976 1.14528 1.16931 1.19192 1.2131 1.23286 1.2512 1.26811 1.2836 1.29767 1.31054 1.32247 1.33345 1.34348 1.35256 1.36069 1.36787 1.37409 1.3796 1.38462 1.38915 1.39319 1.39675 1.39981 1.40239 1.40447 1.4062 1.4077 1.40897 1.41001 1.41082 1.4114 1.41176 1.41189 1.41179 1.41146 1.4109 1.41011 1.4091 1.40786 1.40638 1.40468 1.40262 1.40008 1.39704 1.39351 1.3895 1.38499 1.38 1.37451 1.36831 1.36116 1.35305 1.344 1.33399 1.32303 1.31112 1.29827 1.28422 1.26875 1.25185 1.23353 1.21378 1.19261 1.17001 1.14599 1.12048 1.09341 1.06479 1.03462 1.00289 0.969604 0.934765 0.898372 0.860731 0.822147 0.782621 0.742153 0.700741 0.658388 0.615092 0.570853 0.525875 0.480361 0.43431 0.387722 0.340598 0.292938 0.244741 0.196007 0.150068 0.110254 0.0765652 0.0490018 0.0275635 0.0122504 0.00306261 0 0 0.00323087 0.0129235 0.0290778 0.0516939 0.0807716 0.116311 0.158312 0.206775 0.25818 0.309005 0.359251 0.408918 0.458005 0.506514 0.554444 0.601794 0.648351 0.6939 0.738442 0.781976 0.824503 0.866022 0.906533 0.946037 0.984214 1.02075 1.05563 1.08887 1.12047 1.15042 1.17872 1.20538 1.23047 1.25406 1.27615 1.29674 1.31583 1.33342 1.34952 1.36411 1.37746 1.38982 1.40118 1.41156 1.42094 1.42932 1.43672 1.44312 1.44877 1.45392 1.45856 1.4627 1.46633 1.46946 1.47208 1.4742 1.47595 1.47747 1.47875 1.47981 1.48063 1.48122 1.48158 1.48171 1.48161 1.48128 1.48071 1.47992 1.47889 1.47763 1.47614 1.47442 1.47233 1.46973 1.46663 1.46303 1.45892 1.4543 1.44918 1.44355 1.43717 1.42981 1.42144 1.41209 1.40174 1.39039 1.37806 1.36473 1.35015 1.33408 1.3165 1.29743 1.27685 1.25477 1.23119 1.20612 1.17946 1.15116 1.12121 1.08962 1.05637 1.02148 0.984941 0.946752 0.907235 0.866707 0.82517 0.782622 0.739064 0.694496 0.648918 0.60233 0.554946 0.506981 0.458434 0.409306 0.359596 0.309305 0.258433 0.206979 0.158468 0.116426 0.0808511 0.0517447 0.0291064 0.0129362 0.00323404 0 0 0.00339882 0.0135953 0.0305893 0.054381 0.0849704 0.122357 0.166542 0.217524 0.271593 0.325036 0.377854 0.430048 0.481616 0.532559 0.582876 0.632569 0.681411 0.729177 0.775867 0.821481 0.866018 0.90948 0.951865 0.993174 1.03308 1.07124 1.10766 1.14235 1.1753 1.20651 1.23598 1.26371 1.28979 1.3143 1.33723 1.35859 1.37839 1.3966 1.41325 1.42833 1.4421 1.45484 1.46655 1.47722 1.48687 1.49548 1.50305 1.5096 1.51537 1.52062 1.52535 1.52956 1.53325 1.53642 1.53908 1.54121 1.54297 1.54449 1.54579 1.54685 1.54768 1.54827 1.54863 1.54876 1.54866 1.54833 1.54776 1.54696 1.54593 1.54466 1.54316 1.54143 1.53933 1.5367 1.53356 1.52989 1.52571 1.52101 1.51578 1.51004 1.50352 1.49597 1.48739 1.47777 1.46712 1.45543 1.44271 1.42896 1.41391 1.39728 1.37908 1.3593 1.33796 1.31503 1.29054 1.26447 1.23674 1.20728 1.17607 1.14312 1.10843 1.072 1.03383 0.993913 0.95259 0.910189 0.866708 0.822149 0.776511 0.729794 0.681999 0.633124 0.583397 0.533042 0.48206 0.43045 0.378212 0.325347 0.271855 0.217735 0.166703 0.122476 0.0850527 0.0544337 0.030619 0.0136084 0.00340211 0 0 0.00356341 0.0142536 0.0320707 0.0570145 0.0890852 0.128283 0.174607 0.228058 0.284736 0.340743 0.396077 0.450738 0.504728 0.558045 0.610691 0.662663 0.713727 0.763646 0.812418 0.860045 0.906526 0.951861 0.996051 1.03909 1.08065 1.12038 1.15827 1.19433 1.22857 1.26097 1.29154 1.32028 1.34728 1.37265 1.39636 1.41844 1.43887 1.45766 1.47481 1.49032 1.50446 1.51754 1.52955 1.54049 1.55035 1.55915 1.56688 1.57353 1.57939 1.58472 1.58951 1.59377 1.5975 1.6007 1.60337 1.60551 1.60726 1.60878 1.61007 1.61113 1.61196 1.61255 1.61292 1.61305 1.61294 1.61261 1.61204 1.61125 1.61022 1.60895 1.60746 1.60573 1.60362 1.60098 1.59781 1.59411 1.58988 1.58511 1.57981 1.57399 1.56736 1.55966 1.55088 1.54104 1.53013 1.51815 1.50509 1.49097 1.47548 1.45836 1.43958 1.41917 1.39711 1.3734 1.34805 1.32106 1.29232 1.26176 1.22936 1.19512 1.15906 1.12116 1.08142 1.03986 0.996797 0.952591 0.907236 0.860733 0.813082 0.764282 0.714333 0.663236 0.611228 0.558544 0.505186 0.451154 0.396446 0.341064 0.285007 0.228276 0.174774 0.128405 0.0891702 0.0570689 0.0321013 0.0142672 0.00356681 0 0 0.00372464 0.0148986 0.0335217 0.0595942 0.093116 0.134087 0.182507 0.238377 0.297611 0.356124 0.413918 0.47099 0.527343 0.582974 0.637886 0.692077 0.7453 0.797306 0.848095 0.897669 0.946026 0.993166 1.03909 1.0838 1.12694 1.16815 1.20745 1.24482 1.28027 1.31379 1.3454 1.37508 1.40295 1.4291 1.45354 1.47627 1.49729 1.5166 1.53419 1.55008 1.56455 1.57792 1.59018 1.60134 1.6114 1.62034 1.62819 1.63492 1.64084 1.64621 1.65104 1.65533 1.65908 1.66229 1.66496 1.66708 1.66882 1.67033 1.67161 1.67266 1.67348 1.67407 1.67443 1.67456 1.67446 1.67413 1.67356 1.67277 1.67175 1.6705 1.66902 1.66731 1.66522 1.66258 1.6594 1.65568 1.65142 1.64661 1.64127 1.63538 1.62867 1.62086 1.61193 1.60191 1.59077 1.57853 1.56519 1.55074 1.53488 1.5173 1.49801 1.47701 1.4543 1.42987 1.40373 1.37587 1.3462 1.3146 1.28108 1.24563 1.20825 1.16895 1.12773 1.08458 1.03986 0.993915 0.946755 0.898375 0.848777 0.797959 0.745922 0.692665 0.638438 0.583487 0.527814 0.471417 0.414298 0.356455 0.297889 0.238601 0.182679 0.134213 0.0932034 0.0596502 0.0335532 0.0149125 0.00372814 0 0 0.00388112 0.0155245 0.0349301 0.062098 0.0970281 0.13972 0.190175 0.248392 0.310105 0.37105 0.431225 0.490631 0.549268 0.607136 0.664235 0.720564 0.775866 0.82988 0.882607 0.934047 0.984199 1.03306 1.08064 1.12693 1.17157 1.2142 1.25482 1.29342 1.33001 1.36459 1.39716 1.42771 1.45637 1.48325 1.50836 1.53168 1.55323 1.573 1.59099 1.6072 1.62196 1.63557 1.64805 1.6594 1.6696 1.67866 1.68659 1.69338 1.69933 1.70473 1.70957 1.71387 1.71762 1.72082 1.72347 1.72557 1.72728 1.72877 1.73003 1.73107 1.73187 1.73245 1.73281 1.73294 1.73284 1.73251 1.73196 1.73118 1.73018 1.72895 1.72749 1.7258 1.72373 1.72111 1.71794 1.71422 1.70995 1.70513 1.69976 1.69384 1.68708 1.67918 1.67014 1.65997 1.64865 1.6362 1.62261 1.60787 1.59168 1.57371 1.55396 1.53243 1.50913 1.48404 1.45717 1.42852 1.39797 1.36541 1.33084 1.29425 1.25564 1.21502 1.17238 1.12773 1.08142 1.03383 0.984944 0.934769 0.883304 0.830548 0.776503 0.721167 0.6648 0.607661 0.549751 0.491068 0.431614 0.371388 0.310391 0.248621 0.190351 0.13985 0.0971177 0.0621553 0.0349624 0.0155388 0.00388471 0 0 0.00403147 0.0161259 0.0362832 0.0645035 0.100787 0.145133 0.197542 0.258014 0.322109 0.385386 0.447846 0.509488 0.570312 0.630319 0.689508 0.74788 0.805165 0.861091 0.915661 0.968872 1.02073 1.07122 1.12036 1.16814 1.2142 1.25815 1.3 1.33976 1.37741 1.41297 1.44642 1.47777 1.50716 1.5347 1.5604 1.58426 1.60628 1.62646 1.6448 1.66129 1.67628 1.69011 1.70276 1.71425 1.72457 1.73372 1.7417 1.74852 1.75448 1.75988 1.76472 1.76901 1.77274 1.77592 1.77854 1.78061 1.78228 1.78374 1.78497 1.78599 1.78678 1.78735 1.78769 1.78782 1.78772 1.7874 1.78686 1.7861 1.78512 1.78391 1.78249 1.78084 1.7788 1.77621 1.77306 1.76936 1.7651 1.76028 1.75491 1.74899 1.7422 1.73424 1.72512 1.71483 1.70336 1.69073 1.67694 1.66197 1.6455 1.62718 1.60703 1.58502 1.56118 1.53549 1.50796 1.478