<?xml version="1.0"?> 
<VTKFile type="StructuredGrid" version="0.1"> 
<StructuredGrid WholeExtent="0 128 0 128 0 0"> 
<Piece Extent="0 128 0 128 0 0"> 
<PointData>
<DataArray type="Float32" Name="u" format="ascii" NumberOfComponents="1"> 
0 0 0 0 0 0 0 0 0 0 0 0 0 0 0 0 0 0 0 0 0 0 0 0 0 0 0 0 0 0 0 0 0 0 0 0 0 0 0 0 0 0 0 0 0 0 0 0 0 0 0 0 0 0 0 0 0 0 0 0 0 0 0 0 0 0 0 0 0 0 0 0 0 0 0 0 0 0 0 0 0 0 0 0 0 0 0 0 0 0 0 0 0 0 0 0 0 0 0 0 0 0 0 0 0 0 0 0 0 0 0 0 0 0 0 0 0 0 0 0 0 0 0 0 0 0 0 0 0 0 1.05483e-05 4.21932e-05 9.49347e-05 0.000168773 0.000263708 0.000379739 0.000516867 0.000675092 0.00084351 0.00101122 0.00117822 0.00134452 0.0015101 0.00167498 0.00183915 0.00200262 0.00216469 0.00232468 0.00248261 0.00263846 0.00279224 0.00294394 0.00309357 0.00324113 0.00338532 0.00352485 0.00365971 0.00378991 0.00391545 0.00403633 0.00415255 0.0042641 0.00437083 0.00447257 0.00456932 0.00466109 0.00474787 0.00482966 0.00490646 0.00497828 0.00504564 0.00510907 0.00516858 0.00522416 0.00527581 0.00532354 0.00536734 0.00540721 0.00544383 0.00547786 0.00550932 0.00553819 0.00556448 0.00558819 0.00560932 0.00562787 0.00564425 0.00565891 0.00567183 0.00568301 0.00569246 0.00570017 0.00570615 0.00571039 0.00571289 0.00571364 0.00571264 0.00570988 0.00570536 0.0056991 0.00569108 0.0056813 0.00566932 0.00565467 0.00563735 0.00561737 0.00559471 0.00556939 0.0055414 0.00551075 0.00547668 0.00543846 0.00539609 0.00534957 0.00529889 0.00524407 0.00518509 0.00512195 0.00505404 0.00498073 0.00490201 0.00481788 0.00472835 0.00463341 0.00453307 0.00442733 0.00431628 0.00420001 0.00407854 0.00395185 0.00381994 0.00368283 0.00354051 0.00339297 0.00324156 0.00308761 0.00293113 0.00277211 0.00261056 0.00244648 0.00227985 0.0021107 0.00193976 0.0017678 0.00159481 0.0014208 0.00124576 0.0010697 0.000892614 0.000714501 0.00054704 0.000401907 0.000279102 0.000178625 0.000100477 4.46563e-05 1.11641e-05 0 0 4.21932e-05 0.000168773 0.000379739 0.000675092 0.00105483 0.00151896 0.00206747 0.00270037 0.00337404 0.00404488 0.00471289 0.00537807 0.00604042 0.00669993 0.00735661 0.00801046 0.00865875 0.00929874 0.00993044 0.0105538 0.011169 0.0117758 0.0123743 0.0129645 0.0135413 0.0140994 0.0146388 0.0151597 0.0156618 0.0161453 0.0166102 0.0170564 0.0174833 0.0178903 0.0182773 0.0186444 0.0189915 0.0193186 0.0196259 0.0199131 0.0201826 0.0204363 0.0206743 0.0208966 0.0211032 0.0212941 0.0214693 0.0216288 0.0217753 0.0219115 0.0220373 0.0221528 0.0222579 0.0223528 0.0224373 0.0225115 0.022577 0.0226356 0.0226873 0.022732 0.0227698 0.0228007 0.0228246 0.0228416 0.0228516 0.0228546 0.0228505 0.0228395 0.0228215 0.0227964 0.0227643 0.0227252 0.0226773 0.0226187 0.0225494 0.0224695 0.0223789 0.0222776 0.0221656 0.022043 0.0219067 0.0217539 0.0215844 0.0213983 0.0211956 0.0209763 0.0207403 0.0204878 0.0202162 0.0199229 0.019608 0.0192715 0.0189134 0.0185337 0.0181323 0.0177093 0.0172651 0.0168 0.0163141 0.0158074 0.0152798 0.0147313 0.014162 0.0135719 0.0129662 0.0123504 0.0117245 0.0110885 0.0104422 0.0097859 0.00911942 0.00844279 0.00775905 0.0070712 0.00637925 0.0056832 0.00498305 0.0042788 0.00357045 0.002858 0.00218816 0.00160763 0.00111641 0.000714501 0.000401907 0.000178625 4.46563e-05 0 0 9.49347e-05 0.000379739 0.000854413 0.00151896 0.00237337 0.00341765 0.0046518 0.00607582 0.00759159 0.00910099 0.010604 0.0121007 0.0135909 0.0150748 0.0165524 0.0180235 0.0194822 0.0209222 0.0223435 0.0237461 0.0251301 0.0264955 0.0278422 0.0291702 0.0304679 0.0317236 0.0329374 0.0341092 0.0352391 0.036327 0.0373729 0.0383769 0.0393375 0.0402531 0.0411239 0.0419498 0.0427308 0.0434669 0.0441582 0.0448045 0.0454108 0.0459817 0.0465172 0.0470174 0.0474823 0.0479118 0.048306 0.0486649 0.0489944 0.0493008 0.0495839 0.0498437 0.0500803 0.0502937 0.0504839 0.0506508 0.0507983 0.0509302 0.0510464 0.0511471 0.0512321 0.0513015 0.0513554 0.0513936 0.0514161 0.0514228 0.0514137 0.0513889 0.0513483 0.0512919 0.0512197 0.0511317 0.0510239 0.050892 0.0507362 0.0505563 0.0503524 0.0501245 0.0498726 0.0495967 0.0492901 0.0489462 0.0485648 0.0481461 0.0476901 0.0471966 0.0466658 0.0460976 0.0454864 0.0448265 0.044118 0.0433609 0.0425551 0.0417007 0.0407977 0.039846 0.0388465 0.0378001 0.0367068 0.0355666 0.0343795 0.0331455 0.0318646 0.0305367 0.029174 0.0277885 0.0263802 0.024949 0.0234951 0.0220183 0.0205187 0.0189963 0.0174579 0.0159102 0.0143533 0.0127872 0.0112119 0.00962731 0.00803352 0.00643051 0.00492336 0.00361716 0.00251192 0.00160763 0.00090429 0.000401907 0.000100477 0 0 0.000168773 0.000675092 0.00151896 0.00270037 0.00421932 0.00607582 0.00826987 0.0108015 0.0134962 0.0161795 0.0188516 0.0215123 0.0241617 0.0267997 0.0294265 0.0320418 0.034635 0.037195 0.0397217 0.0422154 0.0446758 0.0471031 0.0494972 0.0518581 0.0541651 0.0563976 0.0585554 0.0606386 0.0626473 0.0645813 0.0664408 0.0682256 0.0699333 0.0715611 0.0731092 0.0745774 0.0759659 0.0772745 0.0785034 0.0796525 0.0807302 0.0817452 0.0826973 0.0835865 0.084413 0.0851766 0.0858774 0.0865153 0.0871012 0.0876458 0.0881491 0.088611 0.0890317 0.0894111 0.0897491 0.0900458 0.0903081 0.0905425 0.0907492 0.0909281 0.0910793 0.0912027 0.0912984 0.0913663 0.0914063 0.0914183 0.0914022 0.091358 0.0912858 0.0911855 0.0910572 0.0909009 0.0907091 0.0904747 0.0901976 0.0898779 0.0895154 0.0891103 0.0886625 0.088172 0.0876269 0.0870154 0.0863375 0.0855931 0.0847823 0.0839051 0.0829614 0.0819513 0.0808647 0.0796916 0.0784321 0.0770861 0.0756536 0.0741346 0.0725292 0.0708373 0.0690604 0.0672002 0.0652566 0.0632295 0.0611191 0.0589253 0.0566481 0.0542875 0.0518649 0.0494018 0.0468981 0.0443538 0.041769 0.0391436 0.0364777 0.0337712 0.0310362 0.0282848 0.025517 0.0227328 0.0199322 0.0171152 0.0142818 0.011432 0.00875264 0.00643051 0.00446563 0.002858 0.00160763 0.000714501 0.000178625 0 0 0.000263708 0.00105483 0.00237337 0.00421932 0.00659269 0.00949347 0.0129217 0.0168773 0.0210878 0.0252805 0.0294556 0.033613 0.0377526 0.0418746 0.0459788 0.0500654 0.0541172 0.0581171 0.0620652 0.0659615 0.0698059 0.0735986 0.0773393 0.0810283 0.084633 0.0881212 0.0914928 0.0947479 0.0978864 0.100908 0.103814 0.106603 0.109271 0.111814 0.114233 0.116527 0.118697 0.120741 0.122662 0.124457 0.126141 0.127727 0.129214 0.130604 0.131895 0.133088 0.134183 0.13518 0.136096 0.136947 0.137733 0.138455 0.139112 0.139705 0.140233 0.140697 0.141106 0.141473 0.141796 0.142075 0.142311 0.142504 0.142654 0.14276 0.142822 0.142841 0.142816 0.142747 0.142634 0.142477 0.142277 0.142033 0.141733 0.141367 0.140934 0.140434 0.139868 0.139235 0.138535 0.137769 0.136917 0.135962 0.134902 0.133739 0.132472 0.131102 0.129627 0.128049 0.126351 0.124518 0.12255 0.120447 0.118209 0.115835 0.113327 0.110683 0.107907 0.105 0.101963 0.0987961 0.0954986 0.0920708 0.0885126 0.0848242 0.0810389 0.0771903 0.0732782 0.0693028 0.0652641 0.0611619 0.0569964 0.0527675 0.048494 0.044195 0.0398703 0.03552 0.0311441 0.0267425 0.0223153 0.0178625 0.013676 0.0100477 0.00697755 0.00446563 0.00251192 0.00111641 0.000279102 0 0 0.000379739 0.00151896 0.00341765 0.00607582 0.00949347 0.0136706 0.0186072 0.0243033 0.0303664 0.036404 0.0424161 0.0484027 0.0543638 0.0602994 0.0662095 0.0720941 0.0779287 0.0836886 0.0893739 0.0949846 0.100521 0.105982 0.111369 0.116681 0.121872 0.126895 0.13175 0.136437 0.140956 0.145308 0.149492 0.153508 0.15735 0.161012 0.164496 0.167799 0.170923 0.173868 0.176633 0.179218 0.181643 0.183927 0.186069 0.18807 0.189929 0.191647 0.193224 0.19466 0.195978 0.197203 0.198335 0.199375 0.200321 0.201175 0.201935 0.202603 0.203193 0.203721 0.204186 0.204588 0.204928 0.205206 0.205421 0.205574 0.205664 0.205691 0.205655 0.205556 0.205393 0.205167 0.204879 0.204527 0.204096 0.203568 0.202945 0.202225 0.20141 0.200498 0.199491 0.198387 0.197161 0.195785 0.194259 0.192585 0.19076 0.188786 0.186663 0.18439 0.181946 0.179306 0.176472 0.173444 0.170221 0.166803 0.163191 0.159384 0.155386 0.1512 0.146827 0.142266 0.137518 0.132582 0.127458 0.122147 0.116696 0.111154 0.105521 0.0997961 0.0939802 0.0880731 0.0820748 0.0759851 0.0698314 0.0636408 0.0574133 0.0511488 0.0448475 0.0385092 0.0321341 0.025722 0.0196934 0.0144686 0.0100477 0.00643051 0.00361716 0.00160763 0.000401907 0 0 0.000516867 0.00206747 0.0046518 0.00826987 0.0129217 0.0186072 0.0253265 0.0330795 0.041332 0.0495498 0.057733 0.0658814 0.0739951 0.0820742 0.0901185 0.0981281 0.10607 0.11391 0.121648 0.129285 0.13682 0.144253 0.151585 0.158815 0.165881 0.172718 0.179326 0.185706 0.191857 0.19778 0.203475 0.208941 0.214171 0.219156 0.223897 0.228393 0.232646 0.236653 0.240417 0.243936 0.247236 0.250345 0.25326 0.255984 0.258515 0.260853 0.262999 0.264953 0.266748 0.268415 0.269957 0.271371 0.27266 0.273821 0.274857 0.275765 0.276568 0.277286 0.277919 0.278467 0.27893 0.279308 0.279601 0.279809 0.279932 0.279968 0.279919 0.279784 0.279563 0.279256 0.278863 0.278384 0.277797 0.277079 0.27623 0.275251 0.274141 0.2729 0.271529 0.270027 0.268357 0.266485 0.264409 0.262129 0.259646 0.256959 0.254069 0.250976 0.247648 0.244056 0.240198 0.236076 0.231689 0.227037 0.222121 0.216939 0.211498 0.205801 0.199848 0.19364 0.187177 0.180459 0.173485 0.166255 0.158836 0.151293 0.143625 0.135834 0.127918 0.119877 0.111713 0.103424 0.0950483 0.0866222 0.0781458 0.0696192 0.0610424 0.0524154 0.0437381 0.0350105 0.026805 0.0196934 0.013676 0.00875264 0.00492336 0.00218816 0.00054704 0 0 0.000675092 0.00270037 0.00607582 0.0108015 0.0168773 0.0243033 0.0330795 0.0432059 0.0539847 0.0647181 0.0754063 0.0860492 0.0966467 0.107199 0.117706 0.128167 0.13854 0.14878 0.158887 0.168861 0.178703 0.188412 0.197989 0.207432 0.216661 0.22559 0.234222 0.242555 0.250589 0.258325 0.265763 0.272902 0.279733 0.286244 0.292437 0.29831 0.303864 0.309098 0.314014 0.31861 0.322921 0.326981 0.330789 0.334346 0.337652 0.340706 0.34351 0.346061 0.348405 0.350583 0.352596 0.354444 0.356127 0.357644 0.358996 0.360183 0.361232 0.36217 0.362997 0.363713 0.364317 0.364811 0.365194 0.365465 0.365625 0.365673 0.365609 0.365432 0.365143 0.364742 0.364229 0.363603 0.362837 0.361899 0.360791 0.359511 0.358062 0.356441 0.35465 0.352688 0.350508 0.348062 0.34535 0.342372 0.339129 0.33562 0.331846 0.327805 0.323459 0.318766 0.313728 0.308344 0.302614 0.296539 0.290117 0.283349 0.276242 0.268801 0.261026 0.252918 0.244476 0.235701 0.226592 0.21715 0.20746 0.197607 0.187592 0.177415 0.167076 0.156574 0.145911 0.135085 0.124145 0.113139 0.102068 0.0909312 0.0797289 0.0684609 0.0571273 0.0457281 0.0350105 0.025722 0.0178625 0.011432 0.00643051 0.002858 0.000714501 0 0 0.0008435 0.003374 0.0075915 0.013496 0.0210875 0.030366 0.0413315 0.053984 0.0674512 0.0808609 0.0942131 0.107508 0.120745 0.133925 0.147047 0.160111 0.173064 0.18585 0.198469 0.210922 0.223208 0.235328 0.247281 0.259068 0.270584 0.281728 0.292498 0.302895 0.312919 0.322569 0.331847 0.340751 0.349269 0.357389 0.365109 0.372432 0.379355 0.38588 0.392006 0.397734 0.403105 0.408163 0.412907 0.417338 0.421456 0.42526 0.42875 0.431927 0.434844 0.437556 0.440062 0.442361 0.444455 0.446344 0.448026 0.449503 0.450807 0.451974 0.453002 0.453892 0.454645 0.455259 0.455735 0.456073 0.456272 0.456331 0.456251 0.456032 0.455673 0.455174 0.454536 0.453758 0.452804 0.451638 0.450259 0.448667 0.446863 0.444846 0.442617 0.440174 0.43746 0.434415 0.431038 0.42733 0.42329 0.418918 0.414216 0.409182 0.403766 0.397918 0.391639 0.384927 0.377784 0.370209 0.362202 0.353763 0.344899 0.335618 0.325921 0.315806 0.305274 0.294325 0.282959 0.271176 0.259083 0.246786 0.234286 0.221583 0.208676 0.195565 0.182251 0.168734 0.155073 0.14133 0.127504 0.113594 0.0996022 0.0855273 0.0713694 0.0571287 0.0437392 0.0321349 0.0223159 0.0142822 0.00803372 0.00357054 0.000892636 0 0 0.00101118 0.00404472 0.00910062 0.0161789 0.0252795 0.0364025 0.0495478 0.0647155 0.0808586 0.0969303 0.11293 0.128859 0.144716 0.160502 0.176216 0.191859 0.207365 0.222669 0.237772 0.252672 0.267371 0.281868 0.296163 0.310257 0.324025 0.337345 0.350216 0.362639 0.374613 0.386139 0.397216 0.407845 0.41801 0.427699 0.436909 0.445642 0.453898 0.461676 0.468977 0.4758 0.482197 0.48822 0.493868 0.499142 0.504042 0.508567 0.512718 0.516494 0.519961 0.523182 0.526159 0.528891 0.531378 0.533619 0.535616 0.537368 0.538916 0.540299 0.541519 0.542576 0.543468 0.544196 0.544761 0.545162 0.545399 0.54547 0.545375 0.545115 0.54469 0.544099 0.543342 0.54242 0.541289 0.539905 0.538269 0.536379 0.534236 0.53184 0.529192 0.52629 0.523065 0.519443 0.515427 0.511014 0.506206 0.501003 0.495404 0.48941 0.482959 0.475991 0.468506 0.460505 0.451986 0.44295 0.433398 0.423328 0.41275 0.401671 0.390091 0.378011 0.365429 0.352347 0.338764 0.32468 0.310224 0.295521 0.280572 0.265377 0.249936 0.23425 0.218317 0.202139 0.185786 0.169332 0.152776 0.136118 0.119358 0.102496 0.0855322 0.0684665 0.0524197 0.0385124 0.0267447 0.0171166 0.00962811 0.00427916 0.00106979 0 0 0.00117813 0.00471252 0.0106032 0.0188501 0.0294533 0.0424127 0.0577284 0.0754003 0.0942068 0.112926 0.131558 0.150103 0.168561 0.186931 0.205215 0.223411 0.241444 0.259239 0.276795 0.294113 0.311192 0.328033 0.344636 0.361 0.376983 0.392442 0.407376 0.421786 0.435672 0.449033 0.461871 0.474184 0.485957 0.497175 0.507836 0.517942 0.527492 0.536487 0.544926 0.552809 0.560197 0.567151 0.573671 0.579757 0.585409 0.590627 0.595412 0.599762 0.603753 0.607463 0.610889 0.614033 0.616894 0.619472 0.621767 0.62378 0.625558 0.627147 0.628549 0.629762 0.630787 0.631624 0.632273 0.632734 0.633006 0.633088 0.63298 0.632682 0.632194 0.631516 0.630648 0.62959 0.628292 0.626702 0.62482 0.622646 0.620181 0.617424 0.614376 0.611036 0.607321 0.603147 0.598516 0.593427 0.587879 0.581874 0.57541 0.568488 0.561037 0.552984 0.544331 0.535076 0.52522 0.514764 0.503706 0.492047 0.479795 0.466958 0.453537 0.439532 0.424941 0.409766 0.394007 0.377662 0.360881 0.34381 0.326449 0.308799 0.290858 0.272628 0.254109 0.2353 0.216284 0.197146 0.177885 0.158502 0.138996 0.119367 0.0996157 0.0797416 0.0610522 0.0448547 0.0311491 0.0199354 0.0112137 0.00498385 0.00124596 0 0 0.00134435 0.00537741 0.0120992 0.0215096 0.0336088 0.0483967 0.0658733 0.0860385 0.107496 0.128848 0.150096 0.17124 0.192278 0.213212 0.234042 0.254766 0.2753 0.295558 0.315539 0.335244 0.354672 0.373824 0.392699 0.411298 0.429458 0.447018 0.463978 0.480337 0.496095 0.511254 0.525811 0.539769 0.553109 0.565817 0.57789 0.589331 0.600138 0.610312 0.619853 0.62876 0.637104 0.644957 0.652316 0.659184 0.665559 0.671442 0.676832 0.68173 0.686223 0.690396 0.694251 0.697787 0.701003 0.703901 0.70648 0.708739 0.710734 0.712518 0.71409 0.715452 0.716602 0.717542 0.718271 0.718788 0.719094 0.719186 0.719066 0.718732 0.718186 0.717426 0.716454 0.715268 0.713811 0.712026 0.709912 0.707469 0.704698 0.701597 0.698168 0.69441 0.690228 0.685527 0.680307 0.674567 0.668309 0.661531 0.654234 0.646418 0.638 0.628898 0.619112 0.608641 0.597487 0.585648 0.573125 0.559917 0.546033 0.531481 0.51626 0.500369 0.483811 0.466583 0.448687 0.430122 0.411055 0.391654 0.371918 0.351847 0.331441 0.310701 0.289626 0.268216 0.246567 0.224772 0.202832 0.180747 0.158516 0.136141 0.11362 0.0909539 0.0696366 0.0511616 0.0355289 0.0227385 0.0127904 0.00568462 0.00142116 0 0 0.00150985 0.00603938 0.0135886 0.0241575 0.0377461 0.0543544 0.0739824 0.0966301 0.120726 0.144697 0.168545 0.192269 0.215869 0.239345 0.262697 0.285926 0.308934 0.331627 0.354003 0.376064 0.397809 0.419239 0.440352 0.461149 0.48145 0.501074 0.520021 0.538291 0.555884 0.572799 0.589038 0.604599 0.619467 0.633624 0.647072 0.659809 0.671835 0.683152 0.693758 0.703654 0.71292 0.721636 0.729804 0.737422 0.74449 0.75101 0.75698 0.7624 0.767369 0.771984 0.776245 0.780153 0.783707 0.786906 0.789752 0.792245 0.794444 0.79641 0.798144 0.799645 0.800914 0.80195 0.802753 0.803324 0.803662 0.803764 0.803633 0.803266 0.802665 0.801829 0.800758 0.799453 0.797848 0.795879 0.793546 0.790848 0.787786 0.78436 0.780569 0.776414 0.771787 0.766582 0.760798 0.754435 0.747494 0.739974 0.731876 0.723199 0.713849 0.703733 0.69285 0.681201 0.668786 0.655604 0.641655 0.62694 0.611466 0.595238 0.578258 0.560524 0.542037 0.522798 0.502805 0.482059 0.460747 0.439053 0.416978 0.394523 0.371686 0.348468 0.324869 0.300889 0.276634 0.252209 0.227615 0.202852 0.177919 0.152816 0.127545 0.102103 0.078173 0.0574332 0.0398842 0.0255259 0.0143583 0.00638147 0.00159537 0 0 0.00167461 0.00669844 0.0150715 0.0267938 0.0418652 0.0602859 0.0820559 0.107175 0.133896 0.160473 0.186904 0.213191 0.239333 0.26533 0.291182 0.316889 0.342346 0.367445 0.392189 0.416575 0.440605 0.464278 0.487595 0.510555 0.53296 0.55461 0.575507 0.595649 0.615036 0.63367 0.65155 0.668675 0.68503 0.700598 0.71538 0.729375 0.742584 0.755006 0.766641 0.77749 0.787643 0.797191 0.806134 0.814471 0.822204 0.829331 0.835853 0.841771 0.847192 0.852226 0.856872 0.861132 0.865004 0.868488 0.871586 0.874296 0.876687 0.878824 0.880709 0.882342 0.883721 0.884848 0.885722 0.886343 0.88671 0.886823 0.88668 0.886283 0.885631 0.884724 0.883563 0.882146 0.880403 0.878261 0.875721 0.872783 0.869446 0.865711 0.861578 0.857047 0.851998 0.846312 0.83999 0.833031 0.825436 0.817204 0.808335 0.79883 0.788583 0.777488 0.765545 0.752755 0.739117 0.724631 0.709297 0.693116 0.676092 0.65823 0.639531 0.619995 0.599621 0.57841 0.556361 0.533475 0.509955 0.486007 0.461631 0.436825 0.411591 0.385929 0.359837 0.333317 0.306485 0.279458 0.252235 0.224817 0.197204 0.169394 0.14139 0.11319 0.0866613 0.0636695 0.0442149 0.0282976 0.0159174 0.00707439 0.0017686 0 0 0.00183864 0.00735458 0.0165478 0.0294183 0.0459661 0.0661912 0.0900936 0.117673 0.147008 0.176175 0.205174 0.234006 0.26267 0.291166 0.319495 0.347657 0.375535 0.403014 0.430094 0.456776 0.483059 0.508943 0.534429 0.559515 0.583986 0.607626 0.630434 0.65241 0.673554 0.693867 0.713347 0.731996 0.749798 0.766738 0.782816 0.798031 0.812384 0.825874 0.838503 0.850269 0.861274 0.87162 0.881306 0.890332 0.898699 0.906406 0.913454 0.919842 0.925691 0.931121 0.936131 0.940722 0.944894 0.948647 0.951981 0.954895 0.957464 0.959761 0.961787 0.963541 0.965024 0.966235 0.967175 0.967843 0.968239 0.968361 0.968209 0.967784 0.967085 0.966113 0.964866 0.963346 0.961474 0.959171 0.956438 0.953273 0.949678 0.945653 0.941196 0.936309 0.93086 0.924718 0.917883 0.910355 0.902134 0.89322 0.883613 0.873313 0.862202 0.850164 0.837197 0.823303 0.80848 0.792729 0.77605 0.758443 0.739912 0.720457 0.700081 0.678783 0.656562 0.63342 0.609355 0.584368 0.558681 0.532516 0.505874 0.478755 0.451158 0.423083 0.394531 0.365502 0.336122 0.306519 0.276693 0.246643 0.216371 0.185875 0.155156 0.124214 0.0951015 0.0698705 0.0485212 0.0310535 0.0174676 0.00776339 0.00194085 0 0 0.00200195 0.0080078 0.0180176 0.0320312 0.0500488 0.0720702 0.0980956 0.128125 0.16006 0.191803 0.223354 0.254713 0.28588 0.316855 0.347637 0.378228 0.408501 0.438332 0.467721 0.496667 0.525171 0.553233 0.580852 0.608029 0.63453 0.660121 0.684803 0.708574 0.731436 0.753388 0.774431 0.794563 0.813772 0.832044 0.849378 0.865775 0.881235 0.895757 0.909342 0.92199 0.933813 0.944923 0.95532 0.965004 0.973976 0.982235 0.989781 0.996615 1.00287 1.00867 1.01402 1.01893 1.02338 1.02738 1.03094 1.03404 1.03677 1.03922 1.04138 1.04324 1.04482 1.04611 1.04711 1.04783 1.04825 1.04838 1.04822 1.04777 1.04703 1.04599 1.04467 1.04305 1.04106 1.03861 1.0357 1.03232 1.02848 1.02418 1.01942 1.0142 1.00837 1.0018 0.994477 0.986406 0.977588 0.968022 0.957708 0.946646 0.934707 0.92176 0.907806 0.892844 0.876875 0.859899 0.841915 0.822924 0.802925 0.781919 0.759907 0.736887 0.712861 0.687827 0.661786 0.634738 0.606923 0.57858 0.54971 0.520312 0.490386 0.459932 0.428951 0.397442 0.365543 0.333391 0.300987 0.26833 0.23542 0.202258 0.168843 0.135175 0.103494 0.0760362 0.0528029 0.0337938 0.019009 0.00844846 0.00211212 0 0 0.00216384 0.00865537 0.0194746 0.0346215 0.054096 0.0778983 0.106028 0.138486 0.172998 0.207292 0.241369 0.275227 0.308866 0.342288 0.375492 0.408477 0.44111 0.473255 0.504913 0.536084 0.566767 0.596963 0.626671 0.655893 0.684376 0.711871 0.738378 0.763897 0.788428 0.811971 0.834525 0.856092 0.876658 0.896213 0.914757 0.932289 0.948809 0.964318 0.978816 0.992302 1.0049 1.01673 1.0278 1.03811 1.04765 1.05643 1.06444 1.07169 1.07831 1.08446 1.09013 1.09532 1.10004 1.10427 1.10803 1.1113 1.11419 1.11677 1.11904 1.12101 1.12268 1.12404 1.1251 1.12585 1.1263 1.12644 1.12627 1.1258 1.12502 1.12393 1.12254 1.12084 1.11874 1.11615 1.11307 1.1095 1.10544 1.10089 1.09584 1.09031 1.08413 1.07716 1.06938 1.0608 1.05142 1.04123 1.03025 1.01847 1.00574 0.991928 0.977031 0.961047 0.943979 0.925824 0.906584 0.886259 0.864844 0.842338 0.81874 0.79405 0.768268 0.741394 0.713427 0.684369 0.654476 0.624003 0.592951 0.56132 0.529109 0.49632 0.462951 0.429003 0.394624 0.359961 0.325014 0.289784 0.25427 0.218472 0.182391 0.146026 0.111801 0.0821398 0.0570415 0.0365066 0.020535 0.00912665 0.00228166 0 0 0.00232363 0.00929451 0.0209126 0.037178 0.0580907 0.0836506 0.113858 0.148712 0.185767 0.222577 0.259141 0.29546 0.331533 0.36736 0.402942 0.438278 0.473225 0.507638 0.541516 0.574861 0.607672 0.639949 0.671692 0.702901 0.733309 0.762651 0.790926 0.818134 0.844275 0.86935 0.893357 0.916298 0.938163 0.958943 0.978639 0.997251 1.01478 1.03122 1.04658 1.06085 1.07418 1.08669 1.09838 1.10927 1.11934 1.12859 1.13703 1.14466 1.15163 1.15809 1.16405 1.1695 1.17444 1.17889 1.18282 1.18625 1.18927 1.19197 1.19435 1.19641 1.19816 1.19958 1.20069 1.20148 1.20195 1.2021 1.20192 1.20143 1.20062 1.19949 1.19803 1.19626 1.19407 1.19136 1.18813 1.18438 1.18012 1.17534 1.17005 1.16423 1.15774 1.15039 1.14219 1.13313 1.12323 1.11248 1.10087 1.08841 1.07495 1.06032 1.04453 1.02758 1.00946 0.990189 0.969751 0.948151 0.925382 0.901436 0.876312 0.850012 0.822535 0.793882 0.764051 0.733043 0.701131 0.668587 0.635411 0.601603 0.567162 0.53209 0.496386 0.460049 0.423239 0.386112 0.34867 0.310912 0.272838 0.234448 0.195742 0.15672 0.119988 0.0881548 0.0612186 0.0391799 0.0220387 0.00979498 0.00244874 0 0 0.00248131 0.00992524 0.0223318 0.039701 0.0620328 0.0893272 0.121584 0.158804 0.198368 0.237657 0.276672 0.315413 0.353879 0.392071 0.429989 0.467632 0.504847 0.54148 0.577531 0.612999 0.647886 0.682191 0.715913 0.749054 0.78133 0.812461 0.842446 0.871285 0.898978 0.925525 0.950926 0.975182 0.998286 1.02023 1.04103 1.06066 1.07914 1.09646 1.11263 1.12764 1.14164 1.15478 1.16706 1.17848 1.18903 1.19873 1.20756 1.21553 1.2228 1.22955 1.23576 1.24145 1.2466 1.25123 1.25532 1.25889 1.26202 1.26483 1.2673 1.26944 1.27126 1.27274 1.27389 1.27471 1.2752 1.27536 1.27518 1.27467 1.27383 1.27266 1.27116 1.26932 1.26705 1.26423 1.26088 1.25698 1.25254 1.24756 1.24203 1.23597 1.22918 1.2215 1.21291 1.20342 1.19304 1.18175 1.16956 1.15648 1.14232 1.12693 1.1103 1.09244 1.07333 1.05299 1.03142 1.0086 0.984537 0.959212 0.932624 0.904775 0.875664 0.845291 0.813656 0.78076 0.74689 0.712333 0.67709 0.641161 0.604545 0.567244 0.529255 0.490581 0.451389 0.411847 0.371955 0.331714 0.291124 0.250184 0.208894 0.167255 0.128055 0.0940811 0.0653341 0.0418138 0.0235203 0.0104535 0.00261336 0 0 0.00263689 0.0105476 0.023732 0.0421902 0.0659222 0.094928 0.129208 0.168761 0.210799 0.252532 0.293961 0.335085 0.375905 0.41642 0.456631 0.496537 0.535975 0.574781 0.612956 0.650498 0.687409 0.723688 0.759336 0.794351 0.828439 0.861301 0.892937 0.923349 0.952535 0.980497 1.00723 1.03274 1.05703 1.08009 1.10192 1.12252 1.1419 1.16005 1.17697 1.19267 1.2073 1.22102 1.23383 1.24574 1.25674 1.26683 1.27602 1.2843 1.29185 1.29884 1.30529 1.31118 1.31652 1.3213 1.32553 1.32921 1.33245 1.33534 1.33789 1.3401 1.34197 1.3435 1.34469 1.34554 1.34605 1.34621 1.34604 1.34552 1.34466 1.34346 1.34191 1.34002 1.33768 1.33478 1.33131 1.32728 1.32268 1.31752 1.3118 1.30551 1.29847 1.29048 1.28154 1.27166 1.26083 1.24906 1.23634 1.22267 1.20787 1.19177 1.17435 1.15562 1.13559 1.11424 1.09158 1.06761 1.04231 1.01567 0.987675 0.958337 0.927652 0.895621 0.862244 0.82752 0.791751 0.755241 0.717989 0.679994 0.641258 0.60178 0.56156 0.520598 0.479073 0.437163 0.394869 0.352191 0.309128 0.265681 0.221849 0.177633 0.136 0.0999186 0.0693879 0.0444083 0.0249797 0.0111021 0.00277552 0 0 0.00279036 0.0111615 0.0251133 0.0446458 0.0697591 0.100453 0.136728 0.178583 0.223061 0.267203 0.311008 0.354478 0.397611 0.440408 0.482869 0.524995 0.56661 0.607542 0.647792 0.687358 0.726242 0.764442 0.801959 0.838794 0.874634 0.90917 0.942401 0.974327 1.00495 1.03426 1.06228 1.08898 1.11439 1.1385 1.16131 1.18283 1.20305 1.22197 1.2396 1.25593 1.27114 1.2854 1.2987 1.31106 1.32246 1.33291 1.34242 1.35097 1.35876 1.36597 1.37262 1.37868 1.38418 1.3891 1.39345 1.39723 1.40054 1.40351 1.40612 1.40839 1.41031 1.41188 1.4131 1.41398 1.4145 1.41467 1.4145 1.41397 1.4131 1.41187 1.41029 1.40837 1.40597 1.403 1.39944 1.39529 1.39056 1.38525 1.37935 1.37287 1.3656 1.35734 1.34809 1.33785 1.32662 1.3144 1.30118 1.28698 1.2716 1.25483 1.23667 1.21714 1.19622 1.17392 1.15024 1.12517 1.0987 1.0708 1.04146 1.0107 0.978501 0.944873 0.909813 0.873322 0.835716 0.79731 0.758106 0.718103 0.677301 0.6357 0.5933 0.550101 0.506292 0.462062 0.417412 0.372342 0.326851 0.280939 0.234606 0.187853 0.143825 0.105667 0.0733802 0.0469633 0.0264169 0.0117408 0.00293521 0 0 0.00294173 0.0117669 0.0264756 0.0470678 0.0735434 0.105902 0.144145 0.188271 0.235154 0.281668 0.327814 0.37359 0.418997 0.464035 0.508704 0.553004 0.596751 0.639763 0.682039 0.723579 0.764383 0.804452 0.843784 0.882381 0.919917 0.956069 0.990836 1.02422 1.05622 1.08683 1.11606 1.1439 1.17037 1.19547 1.21921 1.24159 1.2626 1.28224 1.30052 1.31744 1.33317 1.34792 1.36167 1.37443 1.38619 1.39697 1.40675 1.41553 1.42353 1.43093 1.43775 1.44397 1.44959 1.45463 1.45907 1.46293 1.46631 1.46933 1.472 1.47431 1.47627 1.47787 1.47912 1.48001 1.48055 1.48073 1.48056 1.48003 1.47914 1.4779 1.4763 1.47435 1.47192 1.46888 1.46525 1.46101 1.45617 1.45072 1.44468 1.43803 1.43057 1.42207 1.41254 1.40198 1.39039 1.37776 1.36411 1.34942 1.33349 1.31611 1.29727 1.27698 1.25524 1.23205 1.2074 1.1813 1.15371 1.12461 1.09399 1.06186 1.02821 0.993046 0.956364 0.918167 0.878783 0.838542 0.797443 0.755487 0.712673 0.669003 0.624474 0.579089 0.533045 0.486544 0.439585 0.392167 0.344291 0.295958 0.247166 0.197916 0.151529 0.111328 0.0773109 0.049479 0.0278319 0.0123697 0.00309243 0 0 0.003091 0.012364 0.027819 0.049456 0.077275 0.111276 0.151459 0.197824 0.247078 0.295929 0.344377 0.392421 0.440062 0.4873 0.534134 0.580565 0.6264 0.671444 0.715697 0.759161 0.801834 0.843717 0.88481 0.925113 0.964288 1.002 1.03824 1.07302 1.10634 1.13819 1.16857 1.1975 1.22497 1.25101 1.27562 1.29879 1.32054 1.34085 1.35973 1.37718 1.39339 1.40858 1.42273 1.43585 1.44793 1.45899 1.46901 1.478 1.48617 1.49373 1.50068 1.50703 1.51276 1.51789 1.52241 1.52631 1.52974 1.53281 1.53551 1.53786 1.53985 1.54148 1.54274 1.54365 1.5442 1.54439 1.54422 1.54369 1.5428 1.54155 1.53994 1.53797 1.53552 1.53244 1.52875 1.52443 1.5195 1.51396 1.50779 1.50101 1.49338 1.48468 1.47491 1.46407 1.45215 1.43917 1.42511 1.40998 1.39356 1.37561 1.35614 1.33515 1.31264 1.28861 1.26305 1.23598 1.20734 1.1771 1.14526 1.11182 1.07678 1.04014 1.0019 0.962055 0.920954 0.878935 0.835999 0.792146 0.747376 0.701688 0.655084 0.607562 0.559334 0.510608 0.461386 0.411666 0.36145 0.310737 0.259527 0.207821 0.159113 0.116899 0.0811799 0.0519552 0.0292248 0.0129888 0.0032472 0 0 0.00323817 0.0129527 0.0291435 0.0518106 0.0809541 0.116574 0.15867 0.207243 0.258834 0.309986 0.360699 0.410973 0.460808 0.510204 0.559161 0.607679 0.655554 0.702583 0.748766 0.794103 0.838594 0.882239 0.925037 0.966989 1.00775 1.04696 1.08462 1.12074 1.15532 1.18835 1.21983 1.24977 1.27818 1.3051 1.33052 1.35445 1.37687 1.3978 1.41723 1.43516 1.4518 1.46738 1.48189 1.49532 1.50769 1.51898 1.52921 1.53837 1.54667 1.55436 1.56142 1.56786 1.57368 1.57887 1.58344 1.58739 1.59084 1.59394 1.59667 1.59904 1.60104 1.60269 1.60397 1.6049 1.60545 1.60565 1.60549 1.60496 1.60407 1.60282 1.60121 1.59924 1.59677 1.59367 1.58993 1.58557 1.58057 1.57494 1.56868 1.56179 1.55403 1.54516 1.53518 1.5241 1.5119 1.4986 1.48419 1.46867 1.4518 1.43334 1.41329 1.39165 1.36843 1.34361 1.31721 1.28922 1.25959 1.22827 1.19527 1.16058 1.12421 1.08616 1.04641 1.00499 0.962227 0.91849 0.873774 0.82808 0.781408 0.733757 0.685128 0.635521 0.585156 0.534254 0.482816 0.43084 0.378327 0.325278 0.271691 0.217568 0.166575 0.122382 0.0849874 0.0543919 0.0305955 0.013598 0.0033995 0 0 0.00338193 0.0135277 0.0304374 0.0541109 0.0845482 0.121749 0.165715 0.216443 0.270317 0.323714 0.376636 0.429082 0.481053 0.532548 0.583567 0.634111 0.683965 0.732916 0.780965 0.82811 0.874352 0.919692 0.964128 1.00766 1.04993 1.09057 1.12959 1.16698 1.20275 1.23689 1.26941 1.3003 1.3296 1.35733 1.38351 1.40812 1.43117 1.45265 1.47258 1.49094 1.50797 1.52389 1.5387 1.55241 1.56502 1.57652 1.58691 1.5962 1.60462 1.6124 1.61954 1.62605 1.63193 1.63717 1.64177 1.64574 1.6492 1.65231 1.65505 1.65743 1.65945 1.66111 1.6624 1.66333 1.6639 1.6641 1.66395 1.66343 1.66255 1.6613 1.6597 1.65773 1.65526 1.65215 1.64839 1.64399 1.63895 1.63326 1.62694 1.61997 1.6121 1.60309 1.59294 1.58165 1.56921 1.55563 1.54091 1.52504 1.50777 1.48885 1.46828 1.44605 1.42217 1.39663 1.36944 1.34059 1.31004 1.27771 1.24362 1.20775 1.17012 1.13072 1.08955 1.04661 1.00226 0.956877 0.910453 0.862988 0.814483 0.764937 0.714352 0.662726 0.610292 0.557279 0.503689 0.449521 0.394776 0.339452 0.283551 0.227072 0.173852 0.127728 0.0886999 0.056768 0.031932 0.014192 0.003548 0 0 0.003521 0.014084 0.031689 0.056336 0.088025 0.126756 0.172529 0.225344 0.281424 0.336991 0.392045 0.446587 0.500616 0.554132 0.607136 0.659627 0.711382 0.762176 0.81201 0.860884 0.908798 0.955752 1.00175 1.04678 1.09048 1.13248 1.17277 1.21136 1.24825 1.28343 1.3169 1.34868 1.37879 1.40727 1.43413 1.45937 1.48298 1.50497 1.52534 1.54408 1.56144 1.57766 1.59274 1.60669 1.61949 1.63116 1.64168 1.65107 1.65956 1.66741 1.67462 1.68117 1.68708 1.69234 1.69696 1.70093 1.7044 1.70751 1.71025 1.71263 1.71465 1.71631 1.71761 1.71854 1.71912 1.71933 1.71918 1.71868 1.71781 1.71658 1.71498 1.71303 1.71057 1.70746 1.