<?xml version="1.0"?> 
<VTKFile type="StructuredGrid" version="0.1"> 
<StructuredGrid WholeExtent="0 128 0 128 0 0"> 
<Piece Extent="0 128 0 128 0 0"> 
<PointData>
<DataArray type="Float32" Name="u" format="ascii" NumberOfComponents="1"> 
0 0 0 0 0 0 0 0 0 0 0 0 0 0 0 0 0 0 0 0 0 0 0 0 0 0 0 0 0 0 0 0 0 0 0 0 0 0 0 0 0 0 0 0 0 0 0 0 0 0 0 0 0 0 0 0 0 0 0 0 0 0 0 0 0 0 0 0 0 0 0 0 0 0 0 0 0 0 0 0 0 0 0 0 0 0 0 0 0 0 0 0 0 0 0 0 0 0 0 0 0 0 0 0 0 0 0 0 0 0 0 0 0 0 0 0 0 0 0 0 0 0 0 0 0 0 0 0 0 0 1.06422e-05 4.25687e-05 9.57795e-05 0.000170275 0.000266054 0.000383118 0.000521466 0.000681099 0.000850998 0.00102015 0.00118855 0.0013562 0.0015231 0.00168925 0.00185465 0.0020193 0.00218251 0.00234358 0.00250252 0.00265933 0.002814 0.00296654 0.00311694 0.00326522 0.00341005 0.00355016 0.00368553 0.00381616 0.00394206 0.00406323 0.00417966 0.00429136 0.00439818 0.00449995 0.00459669 0.0046884 0.00477506 0.00485669 0.00493329 0.00500484 0.00507191 0.00513503 0.00519421 0.00524945 0.00530074 0.00534809 0.00539149 0.00543095 0.00546716 0.00550079 0.00553185 0.00556033 0.00558625 0.00560959 0.00563036 0.00564856 0.00566462 0.00567896 0.00569159 0.00570251 0.00571172 0.00571922 0.005725 0.00572908 0.00573143 0.00573205 0.00573095 0.00572811 0.00572355 0.00571726 0.00570924 0.00569949 0.00568754 0.00567295 0.0056557 0.0056358 0.00561324 0.00558803 0.00556017 0.00552965 0.00549573 0.00545766 0.00541542 0.00536903 0.00531847 0.00526376 0.0052049 0.00514187 0.00507405 0.00500079 0.0049221 0.00483798 0.00474842 0.00465343 0.004553 0.00444714 0.00433593 0.00421946 0.00409773 0.00397075 0.0038385 0.003701 0.00355823 0.00341021 0.00325827 0.00310375 0.00294666 0.00278699 0.00262475 0.00245993 0.00229254 0.00212257 0.00195078 0.00177794 0.00160405 0.0014291 0.0012531 0.00107604 0.000897931 0.000718767 0.000550306 0.000404306 0.000280768 0.000179692 0.000101077 4.49229e-05 1.12307e-05 0 0 4.25687e-05 0.000170275 0.000383118 0.000681099 0.00106422 0.00153247 0.00208586 0.00272439 0.00340399 0.00408059 0.00475419 0.00542479 0.00609239 0.00675699 0.00741859 0.00807719 0.00873002 0.00937432 0.0100101 0.0106373 0.011256 0.0118662 0.0124678 0.0130609 0.0136402 0.0142006 0.0147421 0.0152646 0.0157683 0.0162529 0.0167187 0.0171655 0.0175927 0.0179998 0.0183868 0.0187536 0.0191003 0.0194268 0.0197331 0.0200194 0.0202876 0.0205401 0.0207768 0.0209978 0.021203 0.0213923 0.021566 0.0217238 0.0218686 0.0220032 0.0221274 0.0222413 0.022345 0.0224384 0.0225214 0.0225942 0.0226585 0.0227158 0.0227664 0.0228101 0.0228469 0.0228769 0.0229 0.0229163 0.0229257 0.0229282 0.0229238 0.0229125 0.0228942 0.022869 0.0228369 0.0227979 0.0227502 0.0226918 0.0226228 0.0225432 0.022453 0.0223521 0.0222407 0.0221186 0.0219829 0.0218306 0.0216617 0.0214761 0.0212739 0.0210551 0.0208196 0.0205675 0.0202962 0.0200032 0.0196884 0.0193519 0.0189937 0.0186137 0.018212 0.0177885 0.0173437 0.0168778 0.0163909 0.015883 0.015354 0.014804 0.0142329 0.0136408 0.0130331 0.012415 0.0117866 0.011148 0.010499 0.00983973 0.00917015 0.00849027 0.00780313 0.00711177 0.00641619 0.0057164 0.00501239 0.00430417 0.00359172 0.00287507 0.00220122 0.00161722 0.00112307 0.000718767 0.000404306 0.000179692 4.49229e-05 0 0 9.57795e-05 0.000383118 0.000862015 0.00153247 0.00239449 0.00344806 0.00469319 0.00612989 0.00765898 0.00918133 0.0106969 0.0122058 0.0137079 0.0152032 0.0166918 0.0181737 0.0196426 0.0210922 0.0225227 0.0239339 0.025326 0.0266989 0.0280525 0.0293869 0.0306905 0.0319514 0.0331697 0.0343455 0.0354786 0.0365691 0.037617 0.0386223 0.0395836 0.0404996 0.0413702 0.0421956 0.0429756 0.0437102 0.0443996 0.0450436 0.0456472 0.0462153 0.0467479 0.047245 0.0477066 0.0481328 0.0485234 0.0488786 0.0492044 0.0495071 0.0497866 0.050043 0.0502762 0.0504863 0.0506733 0.050837 0.0509815 0.0511106 0.0512243 0.0513226 0.0514055 0.051473 0.051525 0.0515617 0.0515829 0.0515885 0.0515785 0.051553 0.051512 0.0514553 0.0513831 0.0512954 0.0511879 0.0510565 0.0509013 0.0507222 0.0505192 0.0502923 0.0500415 0.0497669 0.0494616 0.0491189 0.0487388 0.0483212 0.0478663 0.0473739 0.0468441 0.0462768 0.0456665 0.0450072 0.0442989 0.0435418 0.0427358 0.0418808 0.040977 0.0400242 0.0390233 0.0379751 0.0368796 0.0357367 0.0345465 0.033309 0.0320241 0.0306919 0.0293244 0.0279338 0.02652 0.0250829 0.0236228 0.0221394 0.0206328 0.0191031 0.017557 0.0160015 0.0144364 0.0128619 0.0112779 0.00968437 0.00808138 0.0064689 0.00495275 0.00363876 0.00252691 0.00161722 0.000909689 0.000404306 0.000101077 0 0 0.000170275 0.000681099 0.00153247 0.00272439 0.00425687 0.00612989 0.00834346 0.0108976 0.013616 0.0163224 0.0190168 0.0216992 0.0243696 0.027028 0.0296744 0.0323088 0.0349201 0.0374973 0.0400403 0.0425492 0.045024 0.0474646 0.0498711 0.0522435 0.0545609 0.0568025 0.0589684 0.0610586 0.063073 0.0650117 0.0668746 0.0686618 0.0703708 0.0719993 0.0735471 0.0750144 0.076401 0.0777071 0.0789326 0.0800775 0.0811506 0.0821605 0.0831074 0.0839911 0.0848118 0.0855694 0.0862639 0.0868953 0.0874745 0.0880126 0.0885096 0.0889653 0.08938 0.0897535 0.0900858 0.090377 0.0906339 0.0908634 0.0910655 0.0912402 0.0913876 0.0915075 0.0916001 0.0916652 0.0917029 0.0917129 0.0916952 0.0916498 0.0915768 0.0914761 0.0913478 0.0911918 0.0910007 0.0907672 0.0904912 0.0901727 0.0898119 0.0894085 0.0889627 0.0884745 0.0879317 0.0873225 0.0866467 0.0859044 0.0850956 0.0842202 0.0832783 0.0822699 0.0811848 0.0800127 0.0787537 0.0774077 0.0759747 0.0744548 0.072848 0.0711542 0.0693748 0.0675113 0.0655637 0.0635319 0.061416 0.0592159 0.0569317 0.0545633 0.0521323 0.0496601 0.0471466 0.0445919 0.041996 0.0393589 0.0366806 0.0339611 0.0312125 0.0284471 0.0256648 0.0228656 0.0200496 0.0172167 0.0143669 0.0115003 0.00880489 0.0064689 0.00449229 0.00287507 0.00161722 0.000718767 0.000179692 0 0 0.000266054 0.00106422 0.00239449 0.00425687 0.00665135 0.00957795 0.0130367 0.0170275 0.021275 0.0255037 0.0297137 0.0339049 0.0380774 0.0422312 0.0463662 0.0504824 0.0545626 0.0585895 0.062563 0.0664832 0.07035 0.0741635 0.0779236 0.0816304 0.0852513 0.0887539 0.0921382 0.095404 0.0985516 0.101581 0.104492 0.107284 0.109954 0.112499 0.114917 0.11721 0.119377 0.121417 0.123332 0.125121 0.126798 0.128376 0.129855 0.131236 0.132518 0.133702 0.134787 0.135774 0.136679 0.13752 0.138296 0.139008 0.139656 0.14024 0.140759 0.141214 0.141615 0.141974 0.14229 0.142563 0.142793 0.14298 0.143125 0.143227 0.143286 0.143301 0.143274 0.143203 0.143089 0.142931 0.142731 0.142487 0.142189 0.141824 0.141392 0.140895 0.140331 0.139701 0.139004 0.138241 0.137393 0.136441 0.135385 0.134226 0.132962 0.131594 0.130122 0.128547 0.126851 0.12502 0.123053 0.12095 0.118711 0.116336 0.113825 0.111178 0.108398 0.105486 0.102443 0.0992686 0.0959625 0.0925249 0.0889558 0.0852552 0.0814567 0.0775938 0.0736665 0.0696749 0.0656188 0.0614983 0.0573134 0.0530642 0.0487695 0.0444485 0.0401012 0.0357275 0.0313274 0.026901 0.0224483 0.0179692 0.0137576 0.0101077 0.0070192 0.00449229 0.00252691 0.00112307 0.000280768 0 0 0.000383118 0.00153247 0.00344806 0.00612989 0.00957795 0.0137922 0.0187728 0.0245195 0.0306359 0.0367253 0.0427877 0.0488231 0.0548315 0.0608129 0.0667673 0.0726947 0.0785702 0.0843689 0.0900907 0.0957358 0.101304 0.106795 0.11221 0.117548 0.122762 0.127806 0.132679 0.137382 0.141914 0.146276 0.150468 0.154489 0.158334 0.161998 0.165481 0.168782 0.171902 0.174841 0.177598 0.180174 0.182589 0.184861 0.186992 0.18898 0.190827 0.192531 0.194094 0.195514 0.196818 0.198028 0.199146 0.200172 0.201105 0.201945 0.202693 0.203348 0.203926 0.204443 0.204897 0.20529 0.205622 0.205892 0.2061 0.206247 0.206332 0.206354 0.206314 0.206212 0.206048 0.205821 0.205533 0.205181 0.204752 0.204226 0.203605 0.202889 0.202077 0.201169 0.200166 0.199068 0.197846 0.196476 0.194955 0.193285 0.191465 0.189495 0.187376 0.185107 0.182666 0.180029 0.177196 0.174167 0.170943 0.167523 0.163908 0.160097 0.156093 0.151901 0.147518 0.142947 0.138186 0.133236 0.128096 0.122768 0.117298 0.111735 0.10608 0.100332 0.094491 0.0885576 0.0825313 0.0764124 0.0702281 0.0640059 0.0577457 0.0514476 0.0451115 0.0387375 0.0323255 0.0258756 0.019811 0.014555 0.0101077 0.0064689 0.00363876 0.00161722 0.000404306 0 0 0.000521466 0.00208586 0.00469319 0.00834346 0.0130367 0.0187728 0.0255518 0.0333738 0.0416989 0.0499873 0.0582388 0.0664537 0.0746318 0.0827731 0.0908777 0.0989456 0.106943 0.114835 0.122624 0.130307 0.137886 0.14536 0.15273 0.159996 0.167093 0.173958 0.180591 0.186992 0.193161 0.199098 0.204804 0.210277 0.215511 0.220498 0.225238 0.229731 0.233978 0.237978 0.241731 0.245237 0.248524 0.251617 0.254516 0.257223 0.259736 0.262056 0.264183 0.266117 0.267891 0.269539 0.271061 0.272456 0.273726 0.27487 0.275888 0.276779 0.277566 0.278269 0.278888 0.279423 0.279874 0.280242 0.280525 0.280725 0.28084 0.280871 0.280817 0.280678 0.280454 0.280146 0.279753 0.279275 0.27869 0.277974 0.277129 0.276154 0.275049 0.273814 0.272448 0.270953 0.269291 0.267425 0.265356 0.263082 0.260605 0.257924 0.25504 0.251952 0.248628 0.245039 0.241183 0.237061 0.232673 0.228018 0.223097 0.21791 0.21246 0.206753 0.200789 0.194567 0.188086 0.181349 0.174353 0.1671 0.159655 0.152084 0.144386 0.136563 0.128613 0.120537 0.112334 0.104006 0.0955883 0.0871191 0.0785983 0.0700259 0.0614018 0.052726 0.0439986 0.0352196 0.026965 0.019811 0.0137576 0.00880489 0.00495275 0.00220122 0.000550306 0 0 0.000681099 0.00272439 0.00612989 0.0108976 0.0170275 0.0245195 0.0333738 0.0435903 0.0544639 0.0652895 0.0760671 0.0867967 0.0974782 0.108112 0.118697 0.129235 0.13968 0.149989 0.160161 0.170197 0.180096 0.189859 0.199484 0.208974 0.218243 0.22721 0.235874 0.244234 0.252292 0.260047 0.267498 0.274647 0.281483 0.287997 0.294188 0.300057 0.305604 0.310828 0.31573 0.32031 0.324602 0.328642 0.33243 0.335965 0.339247 0.342278 0.345055 0.347581 0.349898 0.35205 0.354038 0.355861 0.35752 0.359014 0.360343 0.361508 0.362535 0.363453 0.364262 0.364961 0.36555 0.36603 0.3664 0.366661 0.366812 0.366851 0.366781 0.366599 0.366307 0.365905 0.365391 0.364767 0.364003 0.363069 0.361965 0.360691 0.359247 0.357634 0.355851 0.353898 0.351727 0.34929 0.346587 0.343618 0.340382 0.336881 0.333113 0.32908 0.324739 0.320051 0.315015 0.309631 0.303899 0.297819 0.291392 0.284617 0.277499 0.270045 0.262255 0.254128 0.245664 0.236864 0.227727 0.218253 0.208529 0.19864 0.188586 0.178368 0.167984 0.157436 0.146722 0.135844 0.12485 0.113788 0.102659 0.0914624 0.0801983 0.0688667 0.0574676 0.0460011 0.0352196 0.0258756 0.0179692 0.0115003 0.0064689 0.00287507 0.000718767 0 0 0.000850988 0.00340395 0.0076589 0.0136158 0.0212747 0.0306356 0.0416984 0.0544633 0.0680486 0.0815731 0.0950368 0.10844 0.121781 0.135062 0.148283 0.161442 0.174485 0.187357 0.200057 0.212586 0.224944 0.23713 0.249144 0.260988 0.272556 0.283745 0.294556 0.304987 0.31504 0.324713 0.334008 0.342923 0.351448 0.359571 0.36729 0.374607 0.381522 0.388034 0.394143 0.399849 0.405197 0.41023 0.414949 0.419352 0.423441 0.427214 0.430673 0.433817 0.436702 0.439381 0.441855 0.444124 0.446188 0.448047 0.449701 0.451149 0.452427 0.453569 0.454575 0.455444 0.456177 0.456774 0.457235 0.457559 0.457747 0.457796 0.457708 0.457483 0.45712 0.456619 0.455981 0.455205 0.454254 0.453092 0.451719 0.450134 0.448337 0.446329 0.44411 0.441679 0.438977 0.435942 0.432576 0.428878 0.424848 0.420487 0.415793 0.410768 0.405359 0.399517 0.39324 0.386528 0.379383 0.371803 0.363789 0.355341 0.346465 0.337168 0.32745 0.317312 0.306753 0.295773 0.284372 0.272551 0.260415 0.248073 0.235524 0.222769 0.209807 0.196638 0.183262 0.16968 0.155952 0.142139 0.12824 0.114256 0.100187 0.086033 0.0717936 0.0574689 0.0439996 0.0323263 0.0224488 0.0143672 0.00808157 0.00359181 0.000897952 0 0 0.00102011 0.00408043 0.00918098 0.0163217 0.0255027 0.0367239 0.0499853 0.065287 0.0815709 0.0977794 0.113912 0.12997 0.145952 0.161858 0.177689 0.193445 0.209059 0.224465 0.239664 0.254655 0.269438 0.284014 0.298382 0.312543 0.326372 0.339746 0.352665 0.365128 0.377136 0.388689 0.399786 0.410428 0.420602 0.430293 0.439501 0.448228 0.456473 0.464235 0.471515 0.478313 0.484682 0.490674 0.496291 0.501532 0.506397 0.510886 0.514999 0.518736 0.522164 0.525347 0.528286 0.530981 0.533431 0.535638 0.537601 0.53932 0.540836 0.54219 0.543383 0.544414 0.545284 0.545992 0.546538 0.546923 0.547146 0.547205 0.547101 0.546834 0.546404 0.54581 0.545054 0.544134 0.543007 0.541629 0.539998 0.538117 0.535983 0.533599 0.530962 0.528074 0.524863 0.521255 0.517251 0.512851 0.508056 0.502864 0.497276 0.491292 0.48485 0.477889 0.470407 0.462406 0.453885 0.444844 0.435284 0.425204 0.414611 0.403513 0.39191 0.379802 0.367188 0.354069 0.340445 0.326316 0.311809 0.297052 0.282046 0.266789 0.251283 0.235527 0.219522 0.203266 0.186833 0.170296 0.153653 0.136907 0.120055 0.103099 0.0860377 0.068872 0.0527301 0.0387405 0.0269031 0.017218 0.00968513 0.0043045 0.00107613 0 0 0.00118846 0.00475384 0.0106961 0.0190153 0.0297115 0.0427845 0.0582345 0.0760614 0.0950308 0.113908 0.132694 0.151388 0.169989 0.188499 0.206917 0.225244 0.243401 0.261314 0.278981 0.296403 0.31358 0.330512 0.347198 0.36364 0.379692 0.395213 0.410201 0.424658 0.438582 0.451974 0.464834 0.477162 0.488943 0.500163 0.510822 0.52092 0.530457 0.539432 0.547847 0.5557 0.563055 0.569974 0.576458 0.582505 0.588117 0.593293 0.598033 0.602338 0.606284 0.609948 0.61333 0.616431 0.619251 0.621789 0.624045 0.62602 0.627761 0.629316 0.630686 0.631871 0.632869 0.633683 0.634311 0.634753 0.635009 0.635077 0.634959 0.634652 0.634159 0.633479 0.632611 0.631556 0.630262 0.628678 0.626804 0.62464 0.622186 0.619442 0.616408 0.613083 0.609385 0.605228 0.600612 0.595537 0.590004 0.584012 0.577562 0.570652 0.563212 0.555167 0.546517 0.537264 0.527406 0.516944 0.505877 0.494206 0.481938 0.469081 0.455633 0.441596 0.426969 0.411752 0.395945 0.379548 0.36271 0.345577 0.32815 0.310429 0.292413 0.274104 0.2555 0.236602 0.217493 0.198259 0.178899 0.159413 0.139801 0.120064 0.1002 0.0802103 0.061411 0.0451183 0.0313321 0.0200526 0.0112796 0.00501314 0.00125329 0 0 0.00135604 0.00542416 0.0122044 0.0216966 0.033901 0.0488175 0.066446 0.0867866 0.108428 0.12996 0.151381 0.172693 0.193894 0.214986 0.235967 0.256838 0.277513 0.297903 0.318009 0.337831 0.357369 0.376622 0.395592 0.414277 0.432516 0.450145 0.467165 0.483576 0.499377 0.514569 0.529151 0.543124 0.556473 0.569182 0.581252 0.592683 0.603474 0.613626 0.623138 0.632011 0.640318 0.64813 0.655447 0.662271 0.6686 0.674435 0.679775 0.684622 0.689062 0.693185 0.696989 0.700477 0.703646 0.706498 0.709032 0.711248 0.713202 0.714947 0.716484 0.717813 0.718934 0.719847 0.720552 0.721048 0.721336 0.721413 0.721281 0.720938 0.720386 0.719624 0.718651 0.717469 0.716018 0.71424 0.712135 0.709703 0.706944 0.703859 0.700446 0.696706 0.692543 0.68786 0.682658 0.676935 0.670693 0.663932 0.65665 0.648849 0.640444 0.631351 0.62157 0.611101 0.599945 0.588101 0.575568 0.562348 0.548447 0.533871 0.51862 0.502695 0.486096 0.468821 0.450873 0.432249 0.413118 0.393648 0.373838 0.353687 0.333197 0.312367 0.291197 0.269687 0.247933 0.22603 0.203977 0.181777 0.159427 0.136928 0.11428 0.0914838 0.0700423 0.0514596 0.0357359 0.022871 0.0128649 0.00571774 0.00142943 0 0 0.00152285 0.00609141 0.0137057 0.0243656 0.0380713 0.0548227 0.0746197 0.0974625 0.121763 0.145934 0.169975 0.193885 0.217666 0.241317 0.264838 0.288229 0.311393 0.334233 0.356748 0.378938 0.400804 0.422346 0.443563 0.464456 0.484843 0.504543 0.523556 0.541882 0.559521 0.576473 0.592737 0.608315 0.623191 0.63735 0.650792 0.663517 0.675525 0.686816 0.69739 0.707247 0.716469 0.725141 0.733261 0.740829 0.747846 0.754311 0.760225 0.765588 0.770499 0.775057 0.779263 0.783116 0.786617 0.789766 0.792562 0.795006 0.797159 0.799083 0.800777 0.802243 0.803478 0.804485 0.805262 0.80581 0.806127 0.806213 0.806068 0.805692 0.805084 0.804245 0.803175 0.801874 0.800275 0.798315 0.795992 0.793307 0.790259 0.786849 0.783077 0.778943 0.774337 0.769153 0.763389 0.757046 0.750124 0.742622 0.734542 0.725882 0.716547 0.706441 0.695566 0.683919 0.671502 0.658315 0.644358 0.629629 0.614136 0.597884 0.580871 0.5631 0.544568 0.525278 0.505227 0.484418 0.463035 0.441265 0.419108 0.396565 0.373634 0.350317 0.326613 0.302522 0.278151 0.253606 0.228888 0.203996 0.178931 0.153692 0.128279 0.102693 0.078624 0.0577645 0.0401143 0.0256731 0.0144411 0.00641828 0.00160457 0 0 0.00168889 0.00675557 0.0152 0.0270223 0.0422223 0.0608002 0.0827558 0.108089 0.135036 0.161831 0.188474 0.214966 0.241306 0.267494 0.293531 0.319416 0.345043 0.370303 0.395197 0.419725 0.443887 0.467683 0.491113 0.514176 0.536674 0.558406 0.579374 0.599576 0.619014 0.637686 0.655593 0.672735 0.689097 0.704666 0.719441 0.733421 0.746608 0.759001 0.7706 0.781406 0.79151 0.801007 0.809897 0.81818 0.825855 0.832923 0.839384 0.845237 0.850593 0.855564 0.86015 0.86435 0.868164 0.871593 0.874636 0.877293 0.879633 0.881724 0.883566 0.885158 0.886502 0.887596 0.888441 0.889037 0.889383 0.889477 0.889321 0.888913 0.888254 0.887344 0.886183 0.88477 0.883034 0.880902 0.878374 0.87545 0.87213 0.868414 0.864301 0.859793 0.854768 0.849106 0.842806 0.835869 0.828296 0.820084 0.811236 0.80175 0.79152 0.780438 0.768503 0.755717 0.742078 0.727588 0.712245 0.69605 0.679007 0.661119 0.642386 0.622809 0.602387 0.581121 0.55901 0.536054 0.512458 0.488427 0.463962 0.439061 0.413725 0.387954 0.361748 0.335107 0.308149 0.28099 0.253631 0.226072 0.198313 0.170355 0.142196 0.113836 0.087156 0.064033 0.0444674 0.0284591 0.0160083 0.00711478 0.00177869 0 0 0.00185417 0.00741666 0.0166875 0.0296667 0.0463541 0.06675 0.0908541 0.118667 0.148246 0.17765 0.206879 0.235933 0.264812 0.293516 0.322045 0.350399 0.378461 0.406114 0.433358 0.460192 0.486617 0.512633 0.53824 0.563437 0.588008 0.611736 0.634619 0.656659 0.677856 0.698209 0.717718 0.736383 0.754192 0.771131 0.787199 0.802397 0.816725 0.830183 0.842771 0.854489 0.86544 0.87573 0.885358 0.894324 0.902628 0.91027 0.91725 0.923568 0.929346 0.934708 0.939651 0.944178 0.948287 0.951978 0.955252 0.958109 0.960623 0.96287 0.964849 0.96656 0.968004 0.96918 0.970089 0.97073 0.971102 0.971205 0.971038 0.970601 0.969895 0.968919 0.967674 0.966159 0.964295 0.962003 0.959283 0.956134 0.952557 0.948552 0.944119 0.939257 0.933835 0.927718 0.920909 0.913405 0.905208 0.896318 0.886733 0.876456 0.865364 0.853341 0.840384 0.826495 0.811673 0.795918 0.77923 0.76161 0.743058 0.723576 0.703165 0.681823 0.659552 0.63635 0.612219 0.587158 0.561389 0.535136 0.508398 0.481176 0.45347 0.425278 0.396602 0.367442 0.337925 0.30818 0.278207 0.248005 0.217575 0.186917 0.15603 0.124916 0.0956385 0.070265 0.0487951 0.0312289 0.0175663 0.00780722 0.00195181 0 0 0.00201867 0.00807467 0.018168 0.0322987 0.0504667 0.0726721 0.0989147 0.129195 0.161393 0.193392 0.22519 0.256788 0.288186 0.319384 0.350381 0.381179 0.411649 0.441666 0.471229 0.500338 0.528994 0.557196 0.584945 0.61224 0.638846 0.66453 0.689292 0.713131 0.736047 0.758041 0.779112 0.799261 0.818475 0.836744 0.854067 0.870444 0.885876 0.900361 0.913901 0.926496 0.938259 0.949308 0.959642 0.96926 0.978163 0.986351 0.993824 1.00058 1.00676 1.01249 1.01777 1.0226 1.02698 1.03092 1.03441 1.03745 1.04013 1.04252 1.04463 1.04645 1.04799 1.04924 1.05021 1.05089 1.05129 1.0514 1.05122 1.05076 1.05001 1.04897 1.04765 1.04604 1.04406 1.04162 1.03872 1.03536 1.03154 1.02726 1.02253 1.01733 1.01154 1.00499 0.997697 0.989654 0.980862 0.971322 0.961034 0.949997 0.938079 0.925149 0.911207 0.896252 0.880285 0.863306 0.845313 0.826309 0.806291 0.785257 0.763207 0.740143 0.716063 0.690967 0.664856 0.63773 0.609828 0.581391 0.552418 0.522911 0.492868 0.462289 0.431176 0.399527 0.367481 0.335177 0.302615 0.269794 0.236715 0.203378 0.169783 0.13593 0.104071 0.0764606 0.0530976 0.0339825 0.0191151 0.00849562 0.00212391 0 0 0.0021817 0.00872682 0.0196353 0.0349073 0.0545426 0.0785414 0.106904 0.139629 0.174423 0.20899 0.24333 0.277443 0.311329 0.344988 0.378421 0.411626 0.444468 0.476811 0.508654 0.539998 0.570842 0.601186 0.631031 0.660376 0.688971 0.716563 0.743154 0.768743 0.79333 0.816915 0.839499 0.86108 0.881651 0.9012 0.91973 0.937239 0.953728 0.969196 0.983644 0.997072 1.00961 1.02137 1.03237 1.04261 1.05207 1.06077 1.06871 1.07587 1.08242 1.08849 1.09408 1.0992 1.10384 1.108 1.11169 1.1149 1.11772 1.12024 1.12246 1.12439 1.12601 1.12733 1.12835 1.12907 1.12949 1.12961 1.12943 1.12894 1.12815 1.12706 1.12567 1.12398 1.12189 1.11931 1.11625 1.1127 1.10866 1.10413 1.09912 1.09362 1.08747 1.08052 1.07277 1.06422 1.05487 1.04472 1.03376 1.02201 1.00931 0.995514 0.98063 0.964655 0.94759 0.929434 0.910186 0.889848 0.868414 0.845879 0.822244 0.797507 0.771669 0.74473 0.716691 0.68755 0.657565 0.626993 0.595834 0.564087 0.531752 0.49883 0.465321 0.431225 0.396689 0.361864 0.32675 0.291346 0.255652 0.219668 0.183395 0.146832 0.112418 0.0825928 0.0573561 0.0367079 0.0206482 0.00917698 0.00229424 0 0 0.00234258 0.00937032 0.0210832 0.0374813 0.0585645 0.0843328 0.114786 0.149925 0.187279 0.224378 0.261221 0.29781 0.334144 0.370222 0.406046 0.441615 0.476783 0.511403 0.545477 0.579004 0.611983 0.644416 0.676302 0.70764 0.738165 0.767608 0.795969 0.823249 0.849448 0.874565 0.898601 0.921556 0.943423 0.964196 0.983875 1.00246 1.01995 1.03635 1.05165 1.06586 1.07912 1.09156 1.10318 1.11398 1.12397 1.13315 1.1415 1.14904 1.15592 1.1623 1.16818 1.17355 1.17842 1.18278 1.18665 1.19001 1.19296 1.1956 1.19792 1.19993 1.20163 1.20301 1.20408 1.20484 1.20528 1.2054 1.20521 1.20471 1.20389 1.20275 1.2013 1.19953 1.19735 1.19466 1.19145 1.18772 1.18349 1.17873 1.17347 1.16769 1.16123 1.15391 1.14574 1.13672 1.12685 1.11613 1.10455 1.09213 1.07869 1.06408 1.04831 1.03137 1.01326 0.993984 0.97354 0.951928 0.92914 0.905165 0.880003 0.853656 0.826121 0.797401 0.767494 0.7364 0.704393 0.671745 0.638457 0.604527 0.569956 0.534745 0.498893 0.4624 0.425425 0.388128 0.350508 0.312566 0.274301 0.235714 0.196805 0.157573 0.120642 0.0886347 0.0615518 0.0393932 0.0221587 0.0098483 0.00246207 0 0 0.00250129 0.0100052 0.0225116 0.0400206 0.0625323 0.0900464 0.122563 0.160083 0.199961 0.239555 0.278864 0.317889 0.35663 0.395086 0.433257 0.471145 0.508591 0.545442 0.581697 0.617356 0.652419 0.686886 0.720757 0.754032 0.786428 0.817663 0.847737 0.876649 0.904401 0.930991 0.95642 0.980688 1.00379 1.02573 1.0465 1.06611 1.08455 1.10182 1.11793 1.13287 1.1468 1.15986 1.17206 1.18339 1.19386 1.20347 1.21221 1.22009 1.22727 1.23393 1.24006 1.24566 1.25073 1.25527 1.25929 1.26278 1.26585 1.26859 1.271 1.27309 1.27485 1.27629 1.2774 1.27819 1.27865 1.27878 1.27859 1.27807 1.27722 1.27604 1.27454 1.27271 1.27045 1.26765 1.26432 1.26044 1.25603 1.25107 1.24558 1.23955 1.2328 1.22515 1.2166 1.20715 1.1968 1.18555 1.1734 1.16035 1.14622 1.13086 1.11425 1.09639 1.0773 1.05696 1.03537 1.01255 0.988467 0.963113 0.936487 0.908589 0.87942 0.848978 0.817265 0.78428 0.750312 0.715647 0.680287 0.644232 0.60748 0.570033 0.53189 0.493052 0.453687 0.413966 0.373889 0.333455 0.292664 0.251517 0.210013 0.168153 0.128742 0.0945862 0.0656849 0.0420383 0.0236466 0.0105096 0.0026274 0 0 0.00265784 0.0106314 0.0239206 0.0425254 0.066446 0.0956822 0.130234 0.170102 0.212469 0.254522 0.296259 0.337681 0.378788 0.419579 0.460055 0.500215 0.539895 0.578928 0.617315 0.655055 0.692149 0.728596 0.764396 0.799551 0.833761 0.86673 0.898457 0.928943 0.958188 0.986192 1.01295 1.03848 1.06276 1.0858 1.10761 1.12818 1.14751 1.16561 1.18247 1.19809 1.21264 1.22628 1.23901 1.25083 1.26174 1.27174 1.28083 1.28901 1.29646 1.30336 1.30972 1.31552 1.32077 1.32547 1.32962 1.33323 1.33639 1.33921 1.3417 1.34385 1.34567 1.34716 1.3483 1.34912 1.3496 1.34974 1.34954 1.34901 1.34814 1.34694 1.34539 1.34352 1.34119 1.3383 1.33485 1.33085 1.32628 1.32115 1.31546 1.30921 1.30221 1.29426 1.28536 1.27552 1.26473 1.25299 1.2403 1.22667 1.21191 1.19583 1.17844 1.15973 1.1397 1.11835 1.09569 1.07171 1.0464 1.01972 0.991694 0.962307 0.931563 0.899463 0.866005 0.83119 0.79532 0.758699 0.721326 0.6832 0.644323 0.604694 0.564314 0.523181 0.481477 0.43938 0.396892 0.354012 0.31074 0.267076 0.223021 0.178573 0.13672 0.100447 0.0697552 0.0446433 0.0251119 0.0111608 0.00279021 0 0 0.00281223 0.0112489 0.02531 0.0449956 0.0703056 0.10124 0.137799 0.179982 0.224804 0.269279 0.313405 0.357185 0.400617 0.443701 0.486438 0.528827 0.570693 0.611861 0.65233 0.692101 0.731172 0.769546 0.807221 0.844197 0.880163 0.914807 0.94813 0.980131 1.01081 1.04017 1.0682 1.09492 1.12032 1.14441 1.1672 1.18868 1.20885 1.22772 1.24528 1.26153 1.27665 1.29082 1.30403 1.3163 1.3276 1.33796 1.34736 1.35581 1.3635 1.37061 1.37716 1.38313 1.38854 1.39338 1.39764 1.40133 1.40457 1.40747 1.41002 1.41223 1.41409 1.41562 1.4168 1.41763 1.41812 1.41827 1.41808 1.41754 1.41665 1.41543 1.41385 1.41194 1.40956 1.4066 1.40306 1.39894 1.39424 1.38896 1.3831 1.37666 1.36943 1.36121 1.35201 1.34181 1.33062 1.31844 1.30527 1.29111 1.27576 1.25902 1.24089 1.22137 1.20046 1.17817 1.15449 1.12941 1.10293 1.075 1.04562 1.01481 0.982553 0.948854 0.913713 0.877129 0.839419 0.8009 0.761572 0.721434 0.680486 0.638729 0.596163 0.552787 0.508793 0.464369 0.419518 0.374238 0.328529 0.282392 0.235827 0.188833 0.144575 0.106218 0.0737628 0.0472082 0.0265546 0.011802 0.00295051 0 0 0.00296445 0.0118578 0.02668 0.0474312 0.0741112 0.10672 0.145258 0.189725 0.236965 0.283825 0.330303 0.376401 0.422117 0.467453 0.512407 0.55698 0.600986 0.644241 0.686743 0.728493 0.76949 0.809736 0.849229 0.88797 0.925634 0.961896 0.996755 1.03021 1.06227 1.09292 1.12217 1.15002 1.17648 1.20156 1.22527 1.2476 1.26856 1.28814 1.30635 1.32318 1.33883 1.35348 1.36713 1.37979 1.39146 1.40213 1.4118 1.42048 1.42837 1.43567 1.44238 1.44851 1.45404 1.45899 1.46334 1.46711 1.47041 1.47336 1.47596 1.47821 1.48012 1.48167 1.48287 1.48373 1.48424 1.48439 1.4842 1.48365 1.48276 1.48152 1.47993 1.47798 1.47557 1.47255 1.46894 1.46473 1.45992 1.45451 1.4485 1.4419 1.43448 1.42603 1.41654 1.40603 1.39448 1.3819 1.36829 1.35364 1.33775 1.3204 1.30159 1.28132 1.2596 1.23641 1.21176 1.18566 1.15806 1.12893 1.09828 1.0661 1.03239 0.997152 0.960389 0.922098 0.882609 0.842251 0.801025 0.758931 0.715969 0.672138 0.627438 0.581871 0.535636 0.488934 0.441766 0.394132 0.346032 0.297465 0.248431 0.198932 0.152307 0.111899 0.0777077 0.0497329 0.0279748 0.0124332 0.00310831 0 0 0.00311451 0.012458 0.0280306 0.0498322 0.0778628 0.112122 0.152611 0.199329 0.248953 0.298161 0.346953 0.395329 0.443289 0.490833 0.537962 0.584674 0.630774 0.676067 0.720553 0.764231 0.807102 0.849166 0.890422 0.930871 0.970175 1.008 1.04433 1.07919 1.11256 1.14445 1.17485 1.20377 1.23123 1.25725 1.28182 1.30495 1.32664 1.34689 1.36569 1.38305 1.39917 1.41425 1.4283 1.44132 1.4533 1.46425 1.47416 1.48304 1.49109 1.49855 1.50539 1.51163 1.51727 1.5223 1.52673 1.53055 1.5339 1.53689 1.53952 1.54181 1.54374 1.54531 1.54654 1.54741 1.54793 1.54809 1.5479 1.54736 1.54646 1.54521 1.54361 1.54165 1.53921 1.53615 1.53248 1.5282 1.5233 1.51779 1.51167 1.50493 1.49735 1.4887 1.47898 1.46818 1.45631 1.44338 1.42937 1.41428 1.3979 1.37999 1.36056 1.33959 1.3171 1.29307 1.26752 1.24044 1.21179 1.18153 1.14966 1.11617 1.08107 1.04436 1.00603 0.966096 0.924888 0.882752 0.839687 0.795693 0.75077 0.704919 0.65814 0.610431 0.562006 0.513074 0.463638 0.413695 0.363247 0.312294 0.260835 0.20887 0.159916 0.117489 0.0815899 0.0522175 0.0293723 0.0130544 0.00326359 0 0 0.00326241 0.0130496 0.0293617 0.0521986 0.0815602 0.117447 0.159858 0.208794 0.260767 0.312287 0.363354 0.41397 0.464133 0.513844 0.563102 0.611908 0.660056 0.70734 0.75376 0.799316 0.844008 0.887836 0.9308 0.9729 1.01379 1.05311 1.09086 1.12706 1.16169 1.19475 1.22625 1.25619 1.28459 1.31148 1.33686 1.36073 1.38309 1.40395 1.42329 1.44113 1.45767 1.47315 1.48755 1.50087 1.51313 1.52431 1.53442 1.54346 1.55166 1.55923 1.56618 1.57252 1.57823 1.58333 1.58781 1.59166 1.59503 1.59805 1.60071 1.60301 1.60496 1.60655 1.60779 1.60867 1.6092 1.60937 1.60919 1.60865 1.60775 1.6065 1.6049 1.60293 1.60048 1.5974 1.5937 1.58936 1.5844 1.57881 1.5726 1.56576 1.55805 1.54923 1.5393 1.52826 1.51612 1.50287 1.4885 1.47303 1.45621 1.43779 1.41778 1.39617 1.37296 1.34816 1.32176 1.29377 1.26413 1.23279 1.19976 1.16503 1.1286 1.09047 1.05065 1.00912 0.966258 0.922402 0.877556 0.831719 0.784892 0.737074 0.688267 0.638469 0.587902 0.53679 0.485131 0.432927 0.380176 0.32688 0.273037 0.218648 0.167402 0.122989 0.0854093 0.054662 0.0307474 0.0136655 0.00341637 0 0 0.00340685 0.0136274 0.0306616 0.0545095 0.0851711 0.122646 0.166935 0.218038 0.272303 0.326078 0.379364 0.43216 0.484467 0.536284 0.587612 0.63845 0.688582 0.737793 0.786083 0.83345 0.879897 0.925421 0.970024 1.01371 1.0561 1.09686 1.13597 1.17343 1.20925 1.24342 1.27595 1.30684 1.33611 1.36382 1.38994 1.4145 1.43748 1.45889 1.47873 1.49699 1.51391 1.52972 1.54443 1.55803 1.57052 1.5819 1.59217 1.60134 1.60963 1.6173 1.62433 1.63073 1.6365 1.64164 1.64615 1.65002 1.6534 1.65643 1.6591 1.66141 1.66337 1.66497 1.66622 1.66711 1.66764 1.66782 1.66765 1.66711 1.66623 1.66498 1.66338 1.66143 1.65898 1.65589 1.65216 1.6478 1.64279 1.63715 1.63087 1.62395 1.61614 1.60719 1.59709 1.58585 1.57346 1.55994 1.54527 1.52945 1.51224 1.49336 1.47282 1.45062 1.42676 1.40124 1.37406 1.34522 1.31465 1.28231 1.24818 1.21228 1.17459 1.13512 1.09386 1.05083 1.00638 0.960873 0.914316 0.866707 0.818045 0.768331 0.717563 0.665744 0.613104 0.559877 0.506062 0.45166 0.396671 0.341095 0.284931 0.22818 0.1747 0.128351 0.0891326 0.0570449 0.0320877 0.0142612 0.0035653 0 0 0.00354652 0.0141861 0.0319187 0.0567443 0.0886629 0.127675 0.173779 0.226977 0.283458 0.339411 0.394838 0.449737 0.504109 0.557954 0.611272 0.664063 0.716101 0.767159 0.817237 0.866337 0.914456 0.961597 1.00776 1.05294 1.09677 1.13888 1.17926 1.21792 1.25485 1.29006 1.32355 1.35531 1.38539 1.41384 1.44066 1.46583 1.48938 1.51128 1.53155 1.55019 1.56744 1.58355 1.59851 1.61234 1.62502 1.63657 1.64697 1.65623 1.6646 1.67233 1.67942 1.68586 1.69166 1.69682 1.70134 1.70522 1.7086 1.71162 1.71429 1.71661 1.71856 1.72017 1.72142 1.72231 1.72285 1.72304 1.72287 1.72235 1.72148 1.72025 1.71866 1.71673 1.71429 1.7112 1.70747 1.70309 1.698