<?xml version="1.0"?> 
<VTKFile type="StructuredGrid" version="0.1"> 
<StructuredGrid WholeExtent="0 128 0 128 0 0"> 
<Piece Extent="0 128 0 128 0 0"> 
<PointData>
<DataArray type="Float32" Name="u" format="ascii" NumberOfComponents="1"> 
0 0 0 0 0 0 0 0 0 0 0 0 0 0 0 0 0 0 0 0 0 0 0 0 0 0 0 0 0 0 0 0 0 0 0 0 0 0 0 0 0 0 0 0 0 0 0 0 0 0 0 0 0 0 0 0 0 0 0 0 0 0 0 0 0 0 0 0 0 0 0 0 0 0 0 0 0 0 0 0 0 0 0 0 0 0 0 0 0 0 0 0 0 0 0 0 0 0 0 0 0 0 0 0 0 0 0 0 0 0 0 0 0 0 0 0 0 0 0 0 0 0 0 0 0 0 0 0 0 0 1.15495e-05 4.6198e-05 0.000103946 0.000184792 0.000288738 0.000415782 0.000565926 0.000739169 0.000923376 0.00110641 0.00128828 0.00146898 0.00164851 0.00182687 0.00200406 0.00218008 0.00235415 0.00252548 0.00269409 0.00285996 0.0030231 0.00318351 0.00334118 0.00349612 0.00364698 0.00379241 0.00393241 0.00406698 0.00419612 0.00431983 0.0044381 0.00455095 0.00465832 0.00476019 0.00485655 0.0049474 0.00503274 0.00511257 0.0051869 0.00525571 0.00531972 0.00537964 0.00543547 0.0054872 0.00553483 0.00557837 0.00561782 0.00565317 0.00568524 0.00571484 0.00574196 0.00576661 0.0057888 0.00580851 0.00582574 0.00584051 0.0058533 0.0058646 0.00587442 0.00588276 0.00588961 0.00589498 0.00589887 0.00590127 0.00590218 0.0059016 0.00589953 0.00589596 0.00589091 0.00588436 0.00587633 0.0058668 0.00585526 0.00584122 0.00582467 0.00580561 0.00578404 0.00575996 0.00573336 0.00570426 0.0056718 0.00563514 0.00559428 0.00554922 0.00549995 0.00544649 0.00538882 0.00532696 0.00526013 0.00518759 0.00510934 0.00502538 0.0049357 0.00484031 0.00473921 0.00463239 0.00451986 0.00440163 0.00427769 0.00414804 0.00401268 0.00387162 0.00372485 0.00357237 0.00341555 0.00325577 0.00309301 0.00292729 0.00275859 0.00258692 0.00241229 0.00223468 0.00205492 0.00187382 0.00169139 0.00150762 0.00132251 0.00113606 0.000948278 0.000759158 0.00058123 0.000427026 0.000296546 0.000189789 0.000106757 4.74473e-05 1.18618e-05 0 0 4.6198e-05 0.000184792 0.000415782 0.000739169 0.00115495 0.00166313 0.0022637 0.00295668 0.0036935 0.00442566 0.00515313 0.00587592 0.00659404 0.00730747 0.00801623 0.00872031 0.00941659 0.0101019 0.0107763 0.0114398 0.0120924 0.012734 0.0133647 0.0139845 0.0145879 0.0151697 0.0157297 0.0162679 0.0167845 0.0172793 0.0177524 0.0182038 0.0186333 0.0190408 0.0194262 0.0197896 0.020131 0.0204503 0.0207476 0.0210228 0.0212789 0.0215186 0.0217419 0.0219488 0.0221393 0.0223135 0.0224713 0.0226127 0.022741 0.0228593 0.0229678 0.0230665 0.0231552 0.023234 0.023303 0.023362 0.0234132 0.0234584 0.0234977 0.023531 0.0235585 0.0235799 0.0235955 0.0236051 0.0236087 0.0236064 0.0235981 0.0235839 0.0235636 0.0235375 0.0235053 0.0234672 0.0234211 0.0233649 0.0232987 0.0232224 0.0231362 0.0230398 0.0229335 0.022817 0.0226872 0.0225406 0.0223771 0.0221969 0.0219998 0.021786 0.0215553 0.0213078 0.0210405 0.0207504 0.0204374 0.0201015 0.0197428 0.0193612 0.0189568 0.0185296 0.0180794 0.0176065 0.0171107 0.0165921 0.0160507 0.0154865 0.0148994 0.0142895 0.0136622 0.0130231 0.012372 0.0117091 0.0110344 0.0103477 0.00964915 0.00893872 0.00821968 0.00749529 0.00676556 0.00603047 0.00529003 0.00454425 0.00379311 0.00303663 0.00232492 0.0017081 0.00118618 0.000759158 0.000427026 0.000189789 4.74473e-05 0 0 0.000103946 0.000415782 0.00093551 0.00166313 0.00259864 0.00374204 0.00509333 0.00665252 0.00831039 0.00995772 0.0115945 0.0132208 0.0148366 0.0164418 0.0180365 0.0196207 0.0211873 0.0227293 0.0242468 0.0257396 0.0272079 0.0286515 0.0300706 0.0314651 0.0328228 0.0341317 0.0353917 0.0366028 0.0377651 0.0388784 0.0399429 0.0409585 0.0419249 0.0428417 0.0437089 0.0445266 0.0452947 0.0460131 0.0466821 0.0473014 0.0478775 0.0484168 0.0489192 0.0493848 0.0498135 0.0502054 0.0505604 0.0508785 0.0511671 0.0514335 0.0516776 0.0518995 0.0520992 0.0522765 0.0524317 0.0525646 0.0526797 0.0527814 0.0528698 0.0529448 0.0530065 0.0530548 0.0530898 0.0531114 0.0531196 0.0531144 0.0530958 0.0530637 0.0530182 0.0529593 0.0528869 0.0528012 0.0526974 0.052571 0.052422 0.0522505 0.0520563 0.0518396 0.0516003 0.0513383 0.0510462 0.0507163 0.0503485 0.049943 0.0494996 0.0490184 0.0484994 0.0479426 0.0473412 0.0466883 0.0459841 0.0452284 0.0444213 0.0435628 0.0426529 0.0416915 0.0406788 0.0396146 0.0384992 0.0373323 0.0361141 0.0348446 0.0335236 0.0321513 0.03074 0.0293019 0.0278371 0.0263456 0.0248273 0.0232823 0.0217106 0.0201121 0.0184943 0.0168644 0.0152225 0.0135686 0.0119026 0.0102246 0.00853451 0.00683242 0.00523107 0.00384324 0.00266891 0.0017081 0.000960809 0.000427026 0.000106757 0 0 0.000184792 0.000739169 0.00166313 0.00295668 0.0046198 0.00665252 0.00905482 0.0118267 0.014774 0.0177026 0.0206125 0.0235037 0.0263761 0.0292299 0.0320649 0.0348812 0.0376663 0.0404077 0.0431054 0.0457593 0.0483696 0.0509361 0.0534589 0.055938 0.0583517 0.0606786 0.0629186 0.0650717 0.0671379 0.0691172 0.0710096 0.0728152 0.0745332 0.076163 0.0777048 0.0791584 0.0805238 0.0818012 0.0829903 0.0840914 0.0851156 0.0860743 0.0869675 0.0877951 0.0885573 0.089254 0.0898851 0.0904507 0.0909638 0.0914374 0.0918714 0.0922658 0.0926207 0.0929361 0.0932119 0.0934482 0.0936528 0.0938337 0.0939908 0.0941242 0.0942338 0.0943197 0.0943819 0.0944203 0.0944349 0.0944256 0.0943924 0.0943354 0.0942546 0.0941498 0.0940212 0.0938687 0.0936842 0.0934596 0.0931947 0.0928898 0.0925446 0.0921593 0.0917338 0.0912682 0.0907488 0.0901623 0.0895085 0.0887875 0.0879993 0.0871438 0.0862212 0.0852313 0.0841621 0.0830015 0.0817495 0.080406 0.0789712 0.077445 0.0758273 0.0741182 0.0723178 0.070426 0.068443 0.0663686 0.0642029 0.0619459 0.0595976 0.0571579 0.0546489 0.0520923 0.0494882 0.0468366 0.0441374 0.0413908 0.0385966 0.0357549 0.0328787 0.0299812 0.0270622 0.0241219 0.0211601 0.018177 0.0151725 0.0121465 0.00929968 0.00683242 0.00474473 0.00303663 0.0017081 0.000759158 0.000189789 0 0 0.000288738 0.00115495 0.00259864 0.0046198 0.00721845 0.0103946 0.0141482 0.0184792 0.0230844 0.0276603 0.032207 0.0367245 0.0412127 0.0456717 0.0501014 0.0545019 0.0588537 0.0631371 0.0673522 0.071499 0.0755775 0.0795876 0.0835295 0.0874031 0.0911746 0.0948103 0.0983103 0.101675 0.104903 0.107996 0.110953 0.113774 0.116458 0.119005 0.121414 0.123685 0.125818 0.127814 0.129672 0.131393 0.132993 0.134491 0.135887 0.13718 0.138371 0.139459 0.140445 0.141329 0.142131 0.142871 0.143549 0.144165 0.14472 0.145213 0.145644 0.146013 0.146332 0.146615 0.146861 0.147069 0.14724 0.147375 0.147472 0.147532 0.147554 0.14754 0.147488 0.147399 0.147273 0.147109 0.146908 0.14667 0.146382 0.146031 0.145617 0.14514 0.144601 0.143999 0.143334 0.142606 0.141795 0.140879 0.139857 0.13873 0.137499 0.136162 0.134721 0.133174 0.131503 0.12969 0.127734 0.125634 0.123393 0.121008 0.11848 0.11581 0.112997 0.110041 0.106942 0.103701 0.100317 0.0967904 0.0931212 0.0893092 0.0853888 0.0813942 0.0773253 0.0731821 0.0689647 0.0646731 0.0603072 0.055867 0.051373 0.0468456 0.0422847 0.0376904 0.0330627 0.0284015 0.023707 0.0189789 0.0145308 0.0106757 0.00741365 0.00474473 0.00266891 0.00118618 0.000296546 0 0 0.000415782 0.00166313 0.00374204 0.00665252 0.0103946 0.0149682 0.0203733 0.0266101 0.0332415 0.0398309 0.0463782 0.0528833 0.0593463 0.0657673 0.0721461 0.0784828 0.0847493 0.0909174 0.0969871 0.102959 0.108832 0.114606 0.120282 0.12586 0.131291 0.136527 0.141567 0.146411 0.15106 0.155514 0.159772 0.163834 0.1677 0.171367 0.174836 0.178106 0.181179 0.184053 0.186728 0.189206 0.19151 0.193667 0.195677 0.197539 0.199254 0.200821 0.202241 0.203514 0.204669 0.205734 0.206711 0.207598 0.208397 0.209106 0.209727 0.210258 0.210719 0.211126 0.211479 0.211779 0.212026 0.212219 0.212359 0.212446 0.212478 0.212458 0.212383 0.212255 0.212073 0.211837 0.211548 0.211205 0.21079 0.210284 0.209688 0.209002 0.208225 0.207358 0.206401 0.205353 0.204185 0.202865 0.201394 0.199772 0.197998 0.196074 0.193998 0.19177 0.189365 0.186753 0.183936 0.180914 0.177685 0.174251 0.170611 0.166766 0.162715 0.158459 0.153997 0.149329 0.144456 0.139378 0.134095 0.128605 0.12296 0.117208 0.111348 0.105382 0.0993092 0.0931292 0.0868423 0.0804485 0.0739771 0.0674576 0.06089 0.0542742 0.0476103 0.0408982 0.034138 0.0273297 0.0209243 0.0153729 0.0106757 0.00683242 0.00384324 0.0017081 0.000427026 0 0 0.000565926 0.0022637 0.00509333 0.00905482 0.0141482 0.0203733 0.0277304 0.0362193 0.0452454 0.0542143 0.0631258 0.07198 0.0807769 0.0895165 0.0981988 0.106824 0.115353 0.123749 0.13201 0.140138 0.148132 0.155992 0.163718 0.17131 0.178702 0.185828 0.192688 0.199282 0.20561 0.211671 0.217467 0.222996 0.228258 0.233249 0.237971 0.242423 0.246604 0.250516 0.254158 0.25753 0.260666 0.263602 0.266338 0.268873 0.271207 0.27334 0.275273 0.277005 0.278577 0.280027 0.281356 0.282564 0.283651 0.284617 0.285461 0.286185 0.286812 0.287366 0.287847 0.288255 0.288591 0.288854 0.289044 0.289162 0.289207 0.289178 0.289077 0.288902 0.288655 0.288334 0.28794 0.287473 0.286908 0.28622 0.285409 0.284475 0.283418 0.282238 0.280935 0.279509 0.277918 0.276122 0.27412 0.271912 0.269498 0.266878 0.264052 0.261021 0.257746 0.254192 0.250358 0.246244 0.241849 0.237175 0.232221 0.226987 0.221473 0.21568 0.209607 0.203254 0.196621 0.189709 0.182518 0.175046 0.167362 0.159533 0.151558 0.143437 0.135171 0.126759 0.118202 0.109499 0.100691 0.0918173 0.0828781 0.0738732 0.0648029 0.055667 0.0464656 0.0371987 0.0284803 0.0209243 0.0145308 0.00929968 0.00523107 0.00232492 0.00058123 0 0 0.000739169 0.00295668 0.00665252 0.0118267 0.0184792 0.0266101 0.0362193 0.0473068 0.0590961 0.0708105 0.08245 0.0940147 0.105505 0.11692 0.12826 0.139525 0.150665 0.161631 0.172422 0.183037 0.193478 0.203744 0.213836 0.223752 0.233407 0.242714 0.251674 0.260287 0.268552 0.276469 0.284039 0.291261 0.298133 0.304652 0.310819 0.316634 0.322095 0.327205 0.331961 0.336365 0.340462 0.344297 0.34787 0.351181 0.354229 0.357016 0.35954 0.361803 0.363855 0.365749 0.367485 0.369063 0.370483 0.371744 0.372848 0.373793 0.374611 0.375335 0.375963 0.376497 0.376935 0.377279 0.377527 0.377681 0.377739 0.377702 0.37757 0.377342 0.377018 0.376599 0.376085 0.375475 0.374737 0.373838 0.372779 0.371559 0.370178 0.368637 0.366935 0.365073 0.362995 0.360649 0.358034 0.35515 0.351997 0.348575 0.344885 0.340925 0.336648 0.332006 0.326998 0.321624 0.315885 0.30978 0.303309 0.296473 0.289271 0.281704 0.273772 0.265474 0.256812 0.247784 0.23839 0.228632 0.218595 0.208369 0.197953 0.187346 0.17655 0.165563 0.154386 0.14302 0.131515 0.119925 0.108249 0.0964875 0.0846405 0.072708 0.0606898 0.0485861 0.0371987 0.0273297 0.0189789 0.0121465 0.00683242 0.00303663 0.000759158 0 0 0.000923371 0.00369348 0.00831034 0.0147739 0.0230843 0.0332414 0.0452452 0.0590958 0.0738225 0.0884547 0.102993 0.117436 0.131785 0.146039 0.160199 0.174265 0.188174 0.201863 0.215333 0.228584 0.241616 0.254429 0.267022 0.279396 0.291444 0.303056 0.314235 0.324978 0.335288 0.345162 0.354602 0.363608 0.372176 0.380304 0.387992 0.39524 0.402047 0.408415 0.414342 0.419829 0.424932 0.429709 0.434159 0.438282 0.442078 0.445548 0.44869 0.451506 0.45406 0.456417 0.458577 0.460541 0.462307 0.463876 0.465248 0.466423 0.46744 0.46834 0.469121 0.469785 0.47033 0.470757 0.471066 0.471257 0.47133 0.471284 0.471119 0.470836 0.470434 0.469913 0.469274 0.468516 0.467598 0.466481 0.465163 0.463646 0.461928 0.46001 0.457893 0.455575 0.45299 0.450069 0.446813 0.443222 0.439296 0.435034 0.430437 0.425505 0.420176 0.414392 0.408151 0.401453 0.394299 0.386689 0.378622 0.370099 0.361119 0.351682 0.341789 0.33144 0.320633 0.309371 0.297651 0.285476 0.272952 0.260191 0.247191 0.233953 0.220477 0.206763 0.192811 0.17862 0.164256 0.149785 0.135205 0.120518 0.105723 0.09082 0.0758091 0.0606904 0.0464661 0.0341384 0.0237072 0.0151726 0.00853459 0.00379315 0.000948288 0 0 0.00110639 0.00442558 0.00995755 0.0177023 0.0276598 0.0398302 0.0542133 0.0708092 0.0884536 0.105982 0.123395 0.140692 0.157873 0.174939 0.191888 0.208722 0.225365 0.241744 0.257858 0.273707 0.289291 0.30461 0.319664 0.334454 0.34885 0.362725 0.376078 0.38891 0.401219 0.413008 0.424274 0.43502 0.445241 0.454935 0.464102 0.472742 0.480856 0.488443 0.495503 0.502036 0.508111 0.513796 0.519091 0.523996 0.528511 0.532636 0.53637 0.539715 0.542748 0.545547 0.548111 0.550441 0.552536 0.554397 0.556024 0.557417 0.558623 0.559688 0.560614 0.5614 0.562046 0.562553 0.562919 0.563145 0.563232 0.563178 0.562983 0.562647 0.562171 0.561555 0.560798 0.5599 0.558813 0.557489 0.555926 0.554126 0.552088 0.549812 0.547298 0.544546 0.541475 0.538004 0.534134 0.529863 0.525192 0.520122 0.514651 0.50878 0.502436 0.495547 0.488111 0.480129 0.471601 0.462526 0.452906 0.442739 0.432026 0.420765 0.408955 0.396598 0.383693 0.370241 0.35624 0.341692 0.326726 0.311472 0.295931 0.280102 0.263986 0.247582 0.23089 0.213912 0.196723 0.179403 0.16195 0.144366 0.12665 0.108802 0.0908221 0.0727105 0.0556689 0.0408996 0.0284025 0.0181776 0.0102249 0.0045444 0.0011361 0 0 0.00128824 0.00515295 0.0115941 0.0206118 0.0322059 0.0463765 0.0631236 0.0824472 0.10299 0.123393 0.143657 0.163783 0.18377 0.203617 0.223326 0.242896 0.262241 0.281274 0.299995 0.318404 0.336502 0.354288 0.371762 0.388924 0.405627 0.42172 0.437205 0.45208 0.466347 0.480006 0.493055 0.505496 0.517326 0.528543 0.539148 0.549141 0.558521 0.567289 0.575445 0.582988 0.589999 0.596558 0.602666 0.608322 0.613527 0.618279 0.62258 0.62643 0.629918 0.633137 0.636085 0.638763 0.641172 0.64331 0.645177 0.646775 0.648158 0.64938 0.650442 0.651343 0.652084 0.652665 0.653085 0.653346 0.653445 0.653383 0.65316 0.652776 0.652231 0.651525 0.650657 0.649629 0.648383 0.646863 0.645068 0.643 0.640657 0.638041 0.63515 0.631985 0.628451 0.624455 0.619995 0.615073 0.609687 0.603839 0.597527 0.590752 0.583428 0.57547 0.566878 0.55765 0.547788 0.537292 0.526161 0.514395 0.501993 0.488951 0.47527 0.46095 0.445991 0.430393 0.414156 0.39728 0.379915 0.362212 0.344171 0.325792 0.307074 0.288019 0.268626 0.248894 0.228915 0.208778 0.188483 0.168031 0.147421 0.126654 0.105729 0.0846461 0.0648072 0.0476134 0.0330649 0.0211615 0.0119034 0.00529038 0.0013226 0 0 0.0014689 0.0058756 0.0132201 0.0235024 0.0367225 0.0528804 0.0719761 0.0940096 0.11743 0.140687 0.16378 0.186709 0.209474 0.232076 0.254514 0.276788 0.2988 0.320452 0.341744 0.362677 0.38325 0.403462 0.423315 0.442808 0.461773 0.480042 0.497614 0.514491 0.530671 0.546156 0.560944 0.575036 0.588431 0.60113 0.613131 0.624436 0.635043 0.644954 0.654167 0.662684 0.670596 0.677996 0.684884 0.691261 0.697126 0.702479 0.70732 0.71165 0.715571 0.719188 0.722501 0.725509 0.728213 0.730612 0.732707 0.734497 0.736046 0.737415 0.738604 0.739614 0.740444 0.741095 0.741566 0.741858 0.741969 0.741901 0.741652 0.741222 0.740613 0.739823 0.738852 0.737702 0.736306 0.734602 0.732589 0.730268 0.727637 0.724698 0.72145 0.717893 0.713919 0.709421 0.704399 0.698852 0.69278 0.686185 0.679065 0.67142 0.663152 0.654163 0.644451 0.634018 0.622863 0.610986 0.598387 0.585066 0.571019 0.556242 0.540734 0.524496 0.507528 0.489829 0.4714 0.45224 0.43252 0.412411 0.391912 0.371023 0.349744 0.328075 0.306016 0.283568 0.260832 0.237911 0.214805 0.191514 0.168037 0.144376 0.120529 0.0964975 0.0738809 0.0542798 0.0376943 0.0241244 0.01357 0.00603109 0.00150777 0 0 0.00164838 0.00659354 0.0148355 0.0263742 0.0412096 0.0593418 0.0807708 0.105497 0.131776 0.157864 0.183762 0.20947 0.234987 0.260314 0.28545 0.310396 0.335042 0.359279 0.383107 0.406525 0.429534 0.452133 0.474324 0.496105 0.517289 0.53769 0.557307 0.576141 0.594191 0.611458 0.627941 0.64364 0.658558 0.672695 0.686051 0.698627 0.710422 0.721436 0.73167 0.741123 0.749901 0.758109 0.765746 0.772812 0.779309 0.785235 0.79059 0.795376 0.799707 0.803701 0.807358 0.810678 0.81366 0.816305 0.818613 0.820583 0.822287 0.823793 0.825101 0.826212 0.827125 0.827842 0.82836 0.828682 0.828805 0.82873 0.828457 0.827986 0.827316 0.826449 0.825383 0.824118 0.822584 0.820707 0.818489 0.815929 0.813027 0.809783 0.806197 0.802269 0.797878 0.792902 0.787343 0.7812 0.774472 0.76716 0.759264 0.750784 0.741608 0.731624 0.720832 0.709232 0.696824 0.683608 0.669584 0.654752 0.639105 0.622637 0.605347 0.587235 0.568302 0.548547 0.52797 0.506572 0.484542 0.462069 0.439153 0.415795 0.391994 0.367749 0.343063 0.317933 0.292475 0.266802 0.240915 0.214814 0.188498 0.161968 0.135223 0.108264 0.08289 0.0608988 0.0422908 0.0270661 0.0152247 0.00676653 0.00169163 0 0 0.00182669 0.00730676 0.0164402 0.029227 0.0456672 0.0657608 0.0895078 0.116908 0.146026 0.174925 0.203604 0.232066 0.260308 0.288332 0.316136 0.343722 0.370969 0.397755 0.424082 0.449948 0.475355 0.500301 0.524788 0.548814 0.572175 0.594665 0.616283 0.637031 0.656907 0.675912 0.694046 0.711309 0.727705 0.743238 0.757907 0.771713 0.784657 0.796737 0.807953 0.818307 0.827916 0.836897 0.84525 0.852976 0.860075 0.866546 0.87239 0.877607 0.882325 0.886675 0.890656 0.894269 0.897513 0.900389 0.902895 0.905034 0.906881 0.908514 0.909933 0.911138 0.912129 0.912906 0.913469 0.913818 0.913952 0.913872 0.913577 0.913067 0.912342 0.911403 0.910248 0.908879 0.907215 0.905178 0.902768 0.899984 0.896826 0.893295 0.889391 0.885113 0.880327 0.874899 0.868829 0.862116 0.854762 0.846765 0.838126 0.828845 0.818796 0.807854 0.79602 0.783292 0.769672 0.755158 0.739752 0.723453 0.706251 0.688136 0.669108 0.649167 0.628314 0.606548 0.583869 0.560277 0.53598 0.511186 0.485896 0.460108 0.433824 0.407043 0.379764 0.351989 0.323843 0.295451 0.266814 0.237931 0.208803 0.17943 0.149811 0.119947 0.0918345 0.0674703 0.0468543 0.0299868 0.0168676 0.0074967 0.00187417 0 0 0.00200381 0.00801525 0.0180343 0.032061 0.0500953 0.0721373 0.0981869 0.128244 0.160181 0.191868 0.223307 0.254496 0.285437 0.316129 0.346572 0.376765 0.406579 0.43588 0.46467 0.492947 0.520712 0.547966 0.574707 0.600937 0.626431 0.650966 0.674543 0.69716 0.718819 0.739519 0.75926 0.778043 0.795873 0.812759 0.8287 0.843696 0.857748 0.870855 0.883017 0.894235 0.904639 0.91436 0.923398 0.931753 0.939425 0.946414 0.95272 0.958343 0.963426 0.96811 0.972396 0.976283 0.979772 0.982862 0.985554 0.987848 0.989827 0.991578 0.993099 0.994391 0.995453 0.996287 0.996891 0.997266 0.997411 0.997326 0.997011 0.996465 0.99569 0.994685 0.993449 0.991983 0.990201 0.988015 0.985426 0.982433 0.979036 0.975236 0.971033 0.966426 0.961268 0.955411 0.948856 0.941602 0.93365 0.924999 0.91565 0.905601 0.894716 0.882853 0.870014 0.856198 0.841406 0.825637 0.808891 0.791169 0.772456 0.752739 0.732018 0.710293 0.687564 0.663831 0.639094 0.613353 0.586834 0.559763 0.532139 0.503963 0.475235 0.445954 0.416121 0.385736 0.354936 0.323857 0.292501 0.260866 0.228953 0.196762 0.164293 0.131545 0.100714 0.0739943 0.0513849 0.0328864 0.0184986 0.00822159 0.0020554 0 0 0.00217976 0.00871903 0.0196178 0.0348761 0.054494 0.0784713 0.106808 0.139505 0.17424 0.208695 0.242869 0.276762 0.310374 0.343706 0.376756 0.409526 0.441872 0.473654 0.50487 0.535521 0.565607 0.595127 0.624083 0.652473 0.680057 0.706594 0.732085 0.75653 0.779927 0.802278 0.823582 0.84384 0.863062 0.881258 0.898429 0.914575 0.929696 0.943792 0.956862 0.968907 0.980071 0.990498 1.00019 1.00914 1.01736 1.02484 1.03158 1.03759 1.04301 1.04801 1.05258 1.05672 1.06044 1.06373 1.06659 1.06903 1.07113 1.07299 1.0746 1.07597 1.0771 1.07798 1.07863 1.07903 1.07918 1.07909 1.07876 1.07818 1.07736 1.07629 1.07499 1.07343 1.07154 1.06922 1.06646 1.06327 1.05966 1.0556 1.05112 1.04621 1.0407 1.03444 1.02742 1.01966 1.01114 1.00186 0.991835 0.981054 0.969367 0.956621 0.942816 0.927951 0.912027 0.895044 0.877001 0.857899 0.83772 0.816446 0.794077 0.770612 0.746053 0.720398 0.693647 0.665802 0.637105 0.607798 0.577883 0.547359 0.516226 0.484484 0.452134 0.419174 0.385754 0.352021 0.317976 0.283618 0.248947 0.213964 0.178668 0.143059 0.10953 0.0804709 0.0558826 0.0357649 0.0201177 0.00894122 0.0022353 0 0 0.00235374 0.00941496 0.0211837 0.0376599 0.0588435 0.0847347 0.115333 0.150639 0.188142 0.225331 0.262205 0.298765 0.33501 0.370941 0.406558 0.441861 0.476697 0.510912 0.544509 0.577485 0.609842 0.641579 0.672696 0.703194 0.732814 0.7613 0.788652 0.814869 0.839951 0.8639 0.886713 0.908393 0.928953 0.948408 0.966759 0.984005 1.00015 1.01519 1.02912 1.04195 1.05383 1.06492 1.07523 1.08474 1.09347 1.1014 1.10855 1.11491 1.12065 1.12593 1.13077 1.13514 1.13907 1.14254 1.14556 1.14812 1.15033 1.15229 1.15398 1.15543 1.15661 1.15755 1.15822 1.15864 1.15881 1.15871 1.15836 1.15776 1.1569 1.15578 1.15441 1.15278 1.15079 1.14834 1.14544 1.14207 1.13825 1.13397 1.12923 1.12403 1.1182 1.11156 1.10412 1.09587 1.08682 1.07696 1.06629 1.05482 1.04238 1.02879 1.01406 0.998198 0.981192 0.963045 0.943757 0.92333 0.901739 0.878962 0.854998 0.829849 0.803513 0.775991 0.747283 0.717389 0.686568 0.65508 0.622926 0.590106 0.556618 0.522465 0.487644 0.452157 0.416162 0.379818 0.343126 0.306086 0.268696 0.230959 0.192872 0.154437 0.118241 0.0868709 0.060327 0.0386093 0.0217177 0.00965233 0.00241308 0 0 0.00252498 0.0100999 0.0227248 0.0403996 0.0631244 0.0908992 0.123724 0.161599 0.201824 0.2417 0.281227 0.320405 0.359235 0.397715 0.435846 0.473628 0.510898 0.547493 0.583412 0.618655 0.653223 0.687115 0.720331 0.752872 0.784464 0.814835 0.843983 0.871908 0.898612 0.924094 0.948354 0.971391 0.993227 1.01388 1.03335 1.05164 1.06875 1.08467 1.09942 1.11298 1.12553 1.13724 1.14812 1.15815 1.16735 1.1757 1.18322 1.1899 1.19592 1.20146 1.20653 1.21112 1.21523 1.21886 1.22201 1.22469 1.22699 1.22903 1.2308 1.2323 1.23354 1.23451 1.23522 1.23566 1.23583 1.23574 1.23538 1.23475 1.23385 1.23269 1.23126 1.22956 1.22749 1.22494 1.2219 1.21838 1.21438 1.20989 1.20492 1.19947 1.19335 1.18637 1.17854 1.16985 1.1603 1.1499 1.13864 1.12652 1.11337 1.099 1.0834 1.06659 1.04856 1.02931 1.00883 0.987143 0.964204 0.939988 0.914496 0.887726 0.85968 0.830356 0.799756 0.767879 0.735001 0.701397 0.667068 0.632013 0.596232 0.559726 0.522494 0.484536 0.446022 0.407123 0.367838 0.328168 0.288111 0.247669 0.206841 0.165627 0.126808 0.0931651 0.064698 0.0414067 0.0232913 0.0103517 0.00258792 0 0 0.00269347 0.0107739 0.0242412 0.0430955 0.0673367 0.0969649 0.13198 0.172382 0.215285 0.257803 0.299936 0.341685 0.383048 0.424026 0.46462 0.504828 0.544478 0.583395 0.621579 0.65903 0.695749 0.731735 0.766988 0.801509 0.835008 0.867198 0.898078 0.927648 0.95591 0.982861 1.0085 1.03284 1.05588 1.07768 1.09821 1.11748 1.1355 1.15226 1.16776 1.182 1.19517 1.20746 1.21886 1.22937 1.23899 1.24773 1.25558 1.26255 1.26882 1.27459 1.27987 1.28464 1.28891 1.29268 1.29595 1.29872 1.3011 1.30321 1.30504 1.3066 1.30788 1.30889 1.30962 1.31008 1.31026 1.31016 1.30979 1.30914 1.30822 1.30702 1.30555 1.3038 1.30166 1.29901 1.29586 1.29221 1.28805 1.28338 1.27821 1.27253 1.26615 1.25886 1.25067 1.24158 1.23158 1.22068 1.20887 1.19616 1.18234 1.16723 1.15083 1.13312 1.11412 1.09383 1.07223 1.04934 1.02512 0.999527 0.972569 0.944244 0.914552 0.883493 0.851067 0.817274 0.782404 0.746749 0.710307 0.67308 0.635067 0.596268 0.556683 0.516312 0.475336 0.433936 0.392112 0.349864 0.307191 0.264094 0.220574 0.176629 0.135231 0.0993535 0.0689955 0.0441571 0.0248384 0.0110393 0.00275982 0 0 0.00285922 0.0114369 0.0257329 0.0457474 0.0714804 0.102932 0.140102 0.18299 0.228526 0.27364 0.318332 0.362602 0.40645 0.449876 0.492879 0.53546 0.577435 0.618618 0.65901 0.698611 0.737421 0.775439 0.812666 0.849102 0.884444 0.918389 0.950937 0.982089 1.01184 1.0402 1.06716 1.09273 1.11693 1.13979 1.16133 1.18153 1.2004 1.21794 1.23415 1.24902 1.26276 1.27557 1.28745 1.2984 1.30841 1.31749 1.32564 1.33286 1.33935 1.34533 1.35078 1.35571 1.36012 1.36401 1.36738 1.37022 1.37267 1.37484 1.37672 1.37832 1.37963 1.38067 1.38142 1.38189 1.38208 1.38199 1.38161 1.38095 1.38001 1.37878 1.37727 1.37548 1.37329 1.37057 1.36732 1.36355 1.35925 1.35443 1.34908 1.34321 1.3366 1.32904 1.32053 1.31106 1.30065 1.28929 1.27698 1.26372 1.2493 1.23351 1.21634 1.1978 1.17789 1.15661 1.13395 1.10992 1.08448 1.05758 1.02922 0.999403 0.968131 0.935402 0.901216 0.865573 0.828777 0.791135 0.752645 0.713307 0.673123 0.632091 0.590212 0.547485 0.504103 0.460257 0.415947 0.371174 0.325937 0.280235 0.234071 0.187442 0.14351 0.105436 0.0732195 0.0468605 0.026359 0.0117151 0.00292878 0 0 0.00302222 0.0120889 0.0271999 0.0483554 0.0755554 0.1088 0.148089 0.193422 0.241547 0.289211 0.336415 0.383158 0.429441 0.475263 0.520624 0.565525 0.60977 0.653164 0.695706 0.737398 0.778238 0.818228 0.857366 0.895654 0.932773 0.968409 1.00256 1.03523 1.06641 1.09611 1.12433 1.15106 1.17635 1.20023 1.22271 1.24378 1.26345 1.28172 1.29857 1.31403 1.32829 1.34158 1.35389 1.36523 1.3756 1.38498 1.3934 1.40084 1.40752 1.41366 1.41926 1.42433 1.42886 1.43284 1.43629 1.4392 1.44169 1.4439 1.44582 1.44746 1.4488 1.44986 1.45063 1.45111 1.45131 1.45121 1.45083 1.45016 1.44921 1.44796 1.44643 1.44461 1.44237 1.43959 1.43627 1.4324 1.42799 1.42304 1.41754 1.4115 1.40469 1.39689 1.3881 1.37831 1.36753 1.35575 1.34298 1.32922 1.31424 1.29782 1.27994 1.26063 1.23986 1.21765 1.19399 1.16889 1.14229 1.11414 1.08444 1.0532 1.02042 0.986083 0.950202 0.912776 0.87412 0.834555 0.79408 0.752695 0.7104 0.667195 0.62308 0.578055 0.532323 0.486086 0.439344 0.392098 0.344347 0.296092 0.247332 0.198067 0.151645 0.111413 0.0773701 0.0495169 0.0278532 0.0123792 0.0030948 0 0 0.00318247 0.0127299 0.0286422 0.0509195 0.0795618 0.114569 0.155941 0.203678 0.254347 0.304516 0.354185 0.403353 0.452021 0.500188 0.547855 0.595022 0.641482 0.68703 0.731666 0.77539 0.818201 0.860101 0.901088 0.941163 0.979996 1.01726 1.05295 1.08707 1.11962 1.1506 1.18001 1.20784 1.23416 1.259 1.28236 1.30424 1.32465 1.34359 1.36105 1.37703 1.39177 1.40549 1.41819 1.42988 1.44055 1.45021 1.45885 1.46647 1.47331 1.4796 1.48533 1.4905 1.49512 1.49918 1.50269 1.50564 1.50817 1.51041 1.51236 1.51402 1.51538 1.51646 1.51724 1.51773 1.51793 1.51784 1.51746 1.51679 1.51582 1.51457 1.51302 1.51118 1.50892 1.5061 1.50271 1.49877 1.49427 1.48921 1.48359 1.47741 1.47044 1.46243 1.45338 1.44331 1.4322 1.42005 1.40687 1.39266 1.37717 1.36016 1.34164 1.32159 1.30003 1.27695 1.25235 1.22623 1.19854 1.16921 1.13825 1.10564 1.07141 1.03554 0.998027 0.958882 0.918433 0.87701 0.834613 0.791243 0.746898 0.70158 0.655288 0.608022 0.559995 0.511422 0.462303 0.412636 0.362423 0.311664 0.260358 0.208505 0.159636 0.117284 0.0814472 0.0521262 0.029321 0.0130316 0.00325789 0 0 0.00333998 0.0133599 0.0300598 0.0534397 0.0834995 0.120239 0.163659 0.213759 0.266928 0.319555 0.371641 0.423186 0.474189 0.524651 0.574572 0.623951 0.672572 0.720219 0.76689 0.812587 0.85731 0.901058 0.943831 0.985629 1.02611 1.06494 1.1021 1.13761 1.17146 1.20366 1.23419 1.26307 1.29035 1.31608 1.34027 1.36291 1.38401 1.40356 1.42156 1.43802 1.45318 1.46729 1.48034 1.49233 1.50328 1.51316 1.52199 1.52977 1.53674 1.54313 1.54896 1.55422 1.55891 1.56303 1.56658 1.56956 1.57211 1.57436 1.57633 1.578 1.57937 1.58046 1.58125 1.58175 1.58196 1.58187 1.58149 1.58082 1.57985 1.5786 1.57704 1.5752 1.57292 1.57007 1.56665 1.56265 1.55809 1.55294 1.54723 1.54094 1.53383 1.52565 1.51639 1.50606 1.49466 1.48219 1.46864 1.45402 1.43808 1.42054 1.40141 1.3807 1.3584 1.33451 1.30903 1.28197 1.25324 1.2228 1.19062 1.15673 1.12111 1.08376 1.04469 1.00389 0.961716 0.9185 0.874245 0.828951 0.782618 0.735246 0.686835 0.637385 0.587121 0.536267 0.484823 0.432789 0.380165 0.326951 0.273148 0.218754 0.167484 0.123049 0.0854508 0.0546885 0.0307623 0.0136721 0.00341803 0 0 0.00349474 0.013979 0.0314527 0.0559159 0.0873686 0.125811 0.171242 0.223664 0.279288 0.334328 0.388785 0.442658 0.495947 0.548653 0.600774 0.652313 0.70304 0.752729 0.801379 0.848991 0.895564 0.941099 0.985595 1.02905 1.07112 1.11144 1.15002 1.18685 1.22194 1.25529 1.28689 1.31675 1.34492 1.37149 1.39644 1.41978 1.44151 1.46162 1.48012 1.49701 1.51254 1.52698 1.54034 1.5526 1.56377 1.57385 1.58284 1.59073 1.59779 1.60427 1.61017 1.61549 1.62022 1.62438 1.62795 1.63094 1.63349 1.63576 1.63772 1.6394 1.64078 1.64187 1.64267 1.64317 1.64338 1.6433 1.64293 1.64226 1.6413 1.64005 1.6385 1.63667 1.63439 1.63153 1.62808 1.62405 1.61944 1.61424 1.60845 1.60209 1.59487 1.58655 1.57711 1.56657 1.55492 1.54217 1.5283 1.51332 1.49697 1.47895 1.45928 1.43795 1.41497 1.39033 1.36403 1.33608 1.30639 1.27489 1.24158 1.20645 1.16951 1.13075 1.09019 1.04781 1.00397 0.959024 0.912974 0.865819 0.817559 0.768193 0.717722 0.666146 0.6137 0.560619 0.506905 0.452556 0.397572 0.341954 0.285702 0.228815 0.175187 0.128709 0.089381 0.0572038 0.0321771 0.014301 0.00357524 0 0 0.00364541 0.0145816 0.0328087 0.0583266 0.0911353 0.131235 0.178625 0.233306 0.29132 0.348706 0.405466 0.461599 0.517106 0.571986 0.626239 0.679866 0.732628 0.784287 0.834843 0.884297 0.932647 0.979895 1.02604 1.07108 1.11466 1.1564 1.19632 1.23441 1.27066 1.30509 1.33769 1.36845 1.39747 1.4248 1.45046 1.47444 1.49673 1.51736 1.5363 1.55356 1.56942 1.58416 1.59777 1.61026 1.62162 1.63185 1.64096 1.64895 1.65607 1.66261 1.66855 1.67391 1.67867 1.68284 1.68641 1.6894 1.69195 1.6942 1.69616 1.69783 1.69921 1.7003 1.7011 1.70161 1.70182 1.70175 1.70138 1.70072 1.69977 1.69854 1.69701 1.69519 1.69292 1.69007 1.68661 1.68257 1.67793 1.67269 1.66687 1.66044 1.65315 1.64472 1.63515 1.62443 1.61257 1.59957 1.58542 1.57014 1.55342 1.53498 1.51482 1.49293 1.46933 1.444 1.41694 1.38817 1.35758 1.3251 1.29071 1.25442 1.21624 1.17615 1.13416 1.09027 1.04485 0.998252 0.950484 0.901543 0.851431 0.800146 0.747689 0.694061 0.639506 0.584272 0.528359 0.471766 0.414494 0.356542 0.297911 0.238601 0.182679 0.134213 0.0932035 0.0596502 0.0335533 0.0149126 0.00372814 0 0 0.00379064 0.0151625 0.0341157 0.0606502 0.0947659 0.136463 0.185741 0.242601 0.302916 0.362562 0.421537 0.479843 0.53748 0.594446 0.650743 0.70637 0.761079 0.81462 0.866995 0.918203 0.968243 1.01712 1.06482 1.11136 1.15636 1.19945 1.24062 1.27988 1.31723 1.35266 1.38618 1.41779 1.44756 1.4756 1.5019 1.52645 1.54927 1.57034 1.58967 1.60726 1.6234 1.63839 1.65222 1.66489 1.6764 1.68676 1.69596 1.70401 1.71117 1.71774 1.72371 1.72907 1.73384 1.73801 1.74158 1.74455 1.74707 1.74931 1.75125 1.75291 1.75429 1.75537 1.75616 1.75667 1.75689 1.75682 1.75647 1.75582 1.75489 1.75367 1.75216 1.75037 1.74813 1.74529 1.74185 1.7378 1.73316 1.72791 1.72206 1.71