<?xml version="1.0"?> 
<VTKFile type="StructuredGrid" version="0.1"> 
<StructuredGrid WholeExtent="0 128 0 128 0 0"> 
<Piece Extent="0 128 0 128 0 0"> 
<PointData>
<DataArray type="Float32" Name="u" format="ascii" NumberOfComponents="1"> 
0 0 0 0 0 0 0 0 0 0 0 0 0 0 0 0 0 0 0 0 0 0 0 0 0 0 0 0 0 0 0 0 0 0 0 0 0 0 0 0 0 0 0 0 0 0 0 0 0 0 0 0 0 0 0 0 0 0 0 0 0 0 0 0 0 0 0 0 0 0 0 0 0 0 0 0 0 0 0 0 0 0 0 0 0 0 0 0 0 0 0 0 0 0 0 0 0 0 0 0 0 0 0 0 0 0 0 0 0 0 0 0 0 0 0 0 0 0 0 0 0 0 0 0 0 0 0 0 0 0 7.17537e-06 2.87015e-05 6.45783e-05 0.000114806 0.000179384 0.000258313 0.000351593 0.000459224 0.000574312 0.000689966 0.000806185 0.000922969 0.00104032 0.00115823 0.00127671 0.00139576 0.00151502 0.00163415 0.00175314 0.00187201 0.00199075 0.00210935 0.00222782 0.00234616 0.00246334 0.00257835 0.00269117 0.00280181 0.00291028 0.00301656 0.00312066 0.00322258 0.00332185 0.00341799 0.003511 0.00360088 0.00368763 0.00377126 0.00385176 0.00392913 0.00400335 0.00407441 0.00414232 0.00420705 0.00426863 0.00432705 0.0043823 0.00443439 0.00448352 0.00452988 0.00457346 0.00461428 0.00465233 0.00468761 0.00472012 0.00474986 0.00477698 0.00480166 0.00482388 0.00484366 0.00486098 0.00487584 0.00488826 0.00489822 0.00490569 0.00491062 0.00491302 0.00491288 0.00491021 0.004905 0.00489726 0.00488698 0.0048739 0.00485773 0.00483849 0.00481616 0.00479076 0.00476227 0.00473071 0.00469607 0.00465797 0.00461604 0.00457028 0.00452069 0.00446727 0.00441003 0.00434895 0.00428404 0.00421512 0.004142 0.00406467 0.00398315 0.00389743 0.00380751 0.0037134 0.00361508 0.00351294 0.00340735 0.00329832 0.00318585 0.00306993 0.00295057 0.00282776 0.0027015 0.00257298 0.00244337 0.00231266 0.00218087 0.00204798 0.001914 0.00177893 0.00164276 0.00150603 0.00136927 0.00123247 0.00109564 0.000958771 0.000821869 0.000684931 0.000547959 0.000419531 0.000308227 0.000214047 0.00013699 7.70567e-05 3.42474e-05 8.56186e-06 0 0 2.87015e-05 0.000114806 0.000258313 0.000459224 0.000717537 0.00103325 0.00140637 0.00183689 0.00229725 0.00275986 0.00322474 0.00369187 0.00416127 0.00463293 0.00510684 0.00558302 0.00606007 0.00653658 0.00701258 0.00748804 0.00796298 0.00843739 0.00891128 0.00938464 0.00985337 0.0103134 0.0107647 0.0112072 0.0116411 0.0120662 0.0124826 0.0128903 0.0132874 0.0136719 0.014044 0.0144035 0.0147505 0.015085 0.015407 0.0157165 0.0160134 0.0162977 0.0165693 0.0168282 0.0170745 0.0173082 0.0175292 0.0177376 0.0179341 0.0181195 0.0182939 0.0184571 0.0186093 0.0187504 0.0188805 0.0189994 0.0191079 0.0192066 0.0192955 0.0193746 0.0194439 0.0195034 0.019553 0.0195929 0.0196227 0.0196425 0.0196521 0.0196515 0.0196408 0.01962 0.019589 0.0195479 0.0194956 0.0194309 0.019354 0.0192647 0.019163 0.0190491 0.0189228 0.0187843 0.0186319 0.0184642 0.0182811 0.0180828 0.0178691 0.0176401 0.0173958 0.0171362 0.0168605 0.016568 0.0162587 0.0159326 0.0155897 0.0152301 0.0148536 0.0144603 0.0140517 0.0136294 0.0131933 0.0127434 0.0122797 0.0118023 0.011311 0.010806 0.0102919 0.00977348 0.00925066 0.00872347 0.00819191 0.00765599 0.0071157 0.00657104 0.00602413 0.00547708 0.00492989 0.00438256 0.00383509 0.00328748 0.00273973 0.00219184 0.00167812 0.00123291 0.000856186 0.000547959 0.000308227 0.00013699 3.42474e-05 0 0 6.45783e-05 0.000258313 0.000581205 0.00103325 0.00161446 0.00232482 0.00316434 0.00413301 0.00516881 0.00620969 0.00725566 0.00830672 0.00936286 0.0104241 0.0114904 0.0125618 0.0136351 0.0147073 0.0157783 0.0168481 0.0179167 0.0189841 0.0200504 0.0211154 0.0221701 0.0232051 0.0242205 0.0252163 0.0261925 0.027149 0.0280859 0.0290032 0.0298966 0.0307619 0.031599 0.0324079 0.0331887 0.0339413 0.0346658 0.0353621 0.0360302 0.0366697 0.0372808 0.0378635 0.0384177 0.0389434 0.0394407 0.0399095 0.0403517 0.0407689 0.0411612 0.0415285 0.041871 0.0421885 0.042481 0.0427487 0.0429929 0.0432149 0.043415 0.0435929 0.0437488 0.0438826 0.0439943 0.044084 0.0441512 0.0441956 0.0442172 0.0442159 0.0441919 0.044145 0.0440753 0.0439828 0.0438651 0.0437196 0.0435464 0.0433455 0.0431168 0.0428605 0.0425764 0.0422646 0.0419217 0.0415444 0.0411325 0.0406862 0.0402055 0.0396902 0.0391405 0.0385564 0.0379361 0.037278 0.0365821 0.0358484 0.0350769 0.0342676 0.0334206 0.0325357 0.0316164 0.0306662 0.0296849 0.0286726 0.0276294 0.0265551 0.0254498 0.0243135 0.0231568 0.0219903 0.020814 0.0196278 0.0184318 0.017226 0.0160103 0.0147848 0.0135543 0.0123234 0.0110922 0.00986075 0.00862894 0.00739682 0.00616438 0.00493163 0.00377578 0.00277404 0.00192642 0.00123291 0.000693511 0.000308227 7.70567e-05 0 0 0.000114806 0.000459224 0.00103325 0.00183689 0.00287015 0.00413301 0.00562549 0.00734758 0.009189 0.0110395 0.012899 0.0147675 0.0166451 0.0185317 0.0204274 0.0223321 0.0242403 0.0261463 0.0280503 0.0299522 0.0318519 0.0337496 0.0356451 0.0375385 0.0394135 0.0412535 0.0430587 0.044829 0.0465644 0.0482649 0.0499305 0.0515613 0.0531496 0.0546878 0.056176 0.0576141 0.0590022 0.0603402 0.0616281 0.062866 0.0640536 0.0651906 0.066277 0.0673129 0.0682981 0.0692327 0.0701168 0.0709503 0.0717363 0.072478 0.0731754 0.0738285 0.0744373 0.0750017 0.0755219 0.0759977 0.0764318 0.0768266 0.0771822 0.0774985 0.0777756 0.0780135 0.0782121 0.0783715 0.078491 0.0785699 0.0786083 0.0786061 0.0785633 0.07848 0.0783561 0.0781917 0.0779824 0.0777237 0.0774158 0.0770586 0.0766521 0.0761964 0.0756914 0.0751371 0.0745275 0.0738566 0.0731245 0.0723311 0.0714764 0.0705604 0.0695832 0.0685447 0.0674419 0.0662719 0.0650348 0.0637305 0.0623589 0.0609202 0.0594143 0.0578412 0.056207 0.0545176 0.0527732 0.0509736 0.0491189 0.047209 0.0452441 0.0432241 0.0411677 0.0390939 0.0370026 0.0348939 0.0327677 0.030624 0.0284628 0.0262842 0.0240965 0.0219083 0.0197195 0.0175302 0.0153403 0.0131499 0.0109589 0.00876735 0.0067125 0.00493163 0.00342474 0.00219184 0.00123291 0.000547959 0.00013699 0 0 0.000179384 0.000717537 0.00161446 0.00287015 0.00448461 0.00645783 0.00878983 0.0114806 0.0143578 0.0172491 0.0201546 0.0230742 0.0260079 0.0289558 0.0319178 0.0348939 0.0378754 0.0408537 0.0438286 0.0468003 0.0497686 0.0527337 0.0556955 0.058654 0.0615836 0.0644587 0.0672792 0.0700453 0.0727569 0.0754139 0.0780165 0.0805645 0.0830462 0.0854497 0.087775 0.090022 0.0921909 0.0942815 0.096294 0.0982282 0.100084 0.10186 0.103558 0.105176 0.106716 0.108176 0.109558 0.11086 0.112088 0.113247 0.114337 0.115357 0.116308 0.11719 0.118003 0.118746 0.119425 0.120042 0.120597 0.121091 0.121524 0.121896 0.122206 0.122455 0.122642 0.122765 0.122825 0.122822 0.122755 0.122625 0.122431 0.122175 0.121847 0.121443 0.120962 0.120404 0.119769 0.119057 0.118268 0.117402 0.116449 0.115401 0.114257 0.113017 0.111682 0.110251 0.108724 0.107101 0.105378 0.10355 0.101617 0.0995789 0.0974359 0.0951879 0.0928349 0.0903769 0.0878234 0.0851838 0.0824581 0.0796462 0.0767482 0.0737641 0.0706939 0.0675376 0.0643246 0.0610842 0.0578166 0.0545217 0.0511995 0.0478499 0.0444731 0.041069 0.0376508 0.0342317 0.0308118 0.027391 0.0239693 0.0205467 0.0171233 0.013699 0.0104883 0.00770567 0.00535116 0.00342474 0.00192642 0.000856186 0.000214047 0 0 0.000258313 0.00103325 0.00232482 0.00413301 0.00645783 0.00929928 0.0126574 0.0165321 0.0206752 0.0248388 0.0290226 0.0332269 0.0374514 0.0416963 0.0459616 0.0502472 0.0545406 0.0588293 0.0631132 0.0673924 0.0716668 0.0759365 0.0802015 0.0844617 0.0886803 0.0928205 0.0968821 0.100865 0.10477 0.108596 0.112344 0.116013 0.119587 0.123048 0.126396 0.129632 0.132755 0.135765 0.138663 0.141449 0.144121 0.146679 0.149123 0.151454 0.153671 0.155774 0.157763 0.159638 0.161407 0.163076 0.164645 0.166114 0.167484 0.168754 0.169924 0.170995 0.171971 0.17286 0.17366 0.174372 0.174995 0.17553 0.175977 0.176336 0.176605 0.176782 0.176869 0.176864 0.176768 0.17658 0.176301 0.175931 0.17546 0.174878 0.174186 0.173382 0.172467 0.171442 0.170306 0.169058 0.167687 0.166177 0.16453 0.162745 0.160822 0.158761 0.156562 0.154225 0.151744 0.149112 0.146328 0.143394 0.140308 0.137071 0.133682 0.130143 0.126466 0.122665 0.11874 0.114691 0.110517 0.10622 0.101799 0.0972541 0.0926274 0.0879613 0.0832559 0.0785112 0.0737272 0.0689039 0.0640413 0.0591394 0.0542172 0.0492937 0.044369 0.039443 0.0345158 0.0295873 0.0246575 0.0197265 0.0151031 0.0110962 0.00770567 0.00493163 0.00277404 0.00123291 0.000308227 0 0 0.000351593 0.00140637 0.00316434 0.00562549 0.00878983 0.0126574 0.0172281 0.022502 0.0281413 0.0338083 0.039503 0.0452255 0.0509756 0.0567534 0.0625588 0.068392 0.0742358 0.0800732 0.0859041 0.0917285 0.0975465 0.103358 0.109163 0.114962 0.120704 0.126339 0.131867 0.137289 0.142603 0.147811 0.152912 0.157906 0.162771 0.167481 0.172039 0.176443 0.180694 0.184792 0.188736 0.192527 0.196164 0.199646 0.202973 0.206146 0.209163 0.212025 0.214733 0.217285 0.219692 0.221964 0.2241 0.2261 0.227964 0.229693 0.231286 0.232743 0.234072 0.235281 0.23637 0.237339 0.238188 0.238916 0.239525 0.240013 0.240379 0.24062 0.240738 0.240731 0.2406 0.240345 0.239966 0.239462 0.238821 0.238029 0.237086 0.235992 0.234747 0.233351 0.231805 0.230107 0.22824 0.226186 0.223944 0.221514 0.218896 0.216091 0.213098 0.209918 0.206541 0.202958 0.199169 0.195175 0.190974 0.186568 0.181956 0.177139 0.172134 0.16696 0.161618 0.156107 0.150427 0.144578 0.13856 0.132374 0.126076 0.119725 0.113321 0.106863 0.100351 0.0937859 0.0871673 0.0804953 0.0737956 0.0670942 0.0603911 0.0536863 0.0469798 0.0402716 0.0335616 0.02685 0.020557 0.0151031 0.0104883 0.0067125 0.00377578 0.00167812 0.000419531 0 0 0.000459224 0.00183689 0.00413301 0.00734758 0.0114806 0.0165321 0.022502 0.0293903 0.036756 0.0441578 0.0515958 0.05907 0.0665803 0.0741268 0.0817095 0.0893284 0.0969611 0.104585 0.112201 0.119809 0.127408 0.134998 0.14258 0.150154 0.157654 0.165014 0.172235 0.179316 0.186258 0.19306 0.199722 0.206245 0.212598 0.218751 0.224704 0.230456 0.236009 0.241361 0.246513 0.251464 0.256215 0.260763 0.265108 0.269251 0.273192 0.276931 0.280467 0.283801 0.286945 0.289912 0.292702 0.295314 0.297749 0.300007 0.302087 0.303991 0.305727 0.307306 0.308729 0.309994 0.311102 0.312054 0.312848 0.313486 0.313964 0.31428 0.314433 0.314424 0.314253 0.31392 0.313425 0.312767 0.311929 0.310895 0.309663 0.308234 0.306609 0.304786 0.302765 0.300548 0.29811 0.295427 0.292498 0.289324 0.285906 0.282242 0.278333 0.274179 0.269768 0.265088 0.260139 0.254922 0.249436 0.243681 0.237657 0.231365 0.224828 0.218071 0.211093 0.203894 0.196475 0.188836 0.180976 0.172896 0.164671 0.156376 0.148011 0.139576 0.131071 0.122496 0.113851 0.105137 0.0963861 0.0876333 0.0788782 0.0701209 0.0613614 0.0525996 0.0438356 0.0350694 0.02685 0.0197265 0.013699 0.00876735 0.00493163 0.00219184 0.000547959 0 0 0.00057428 0.00229712 0.00516852 0.00918849 0.014357 0.0206741 0.0281397 0.0367539 0.0459647 0.0552198 0.0645195 0.0738636 0.0832522 0.0926853 0.102163 0.111685 0.121223 0.130751 0.140267 0.149772 0.159265 0.168748 0.178219 0.187679 0.197046 0.206238 0.215255 0.224096 0.232763 0.241255 0.249572 0.257714 0.265643 0.273321 0.280749 0.287927 0.294854 0.301531 0.307957 0.314133 0.320057 0.325728 0.331147 0.336313 0.341226 0.345886 0.350294 0.354449 0.358367 0.362064 0.36554 0.368795 0.371829 0.374641 0.377233 0.379604 0.381766 0.383733 0.385505 0.387081 0.388461 0.389646 0.390636 0.391429 0.392025 0.392418 0.392609 0.392598 0.392385 0.39197 0.391353 0.390534 0.38949 0.388202 0.386667 0.384887 0.382862 0.38059 0.378073 0.375311 0.372272 0.368928 0.365277 0.361321 0.357059 0.352491 0.347617 0.342438 0.336937 0.331101 0.324928 0.31842 0.311576 0.304396 0.29688 0.289029 0.280871 0.272438 0.263728 0.254743 0.245481 0.235944 0.226131 0.216042 0.20577 0.195411 0.184964 0.174428 0.163805 0.153094 0.142294 0.131407 0.120473 0.109537 0.0985962 0.0876522 0.0767046 0.0657535 0.0547988 0.0438404 0.0335653 0.0246602 0.0171252 0.0109601 0.00616506 0.00274003 0.000685007 0 0 0.000689838 0.00275935 0.00620854 0.0110374 0.017246 0.0248342 0.0338021 0.0441496 0.0552127 0.066327 0.0774926 0.0887095 0.0999777 0.111297 0.122668 0.13409 0.14553 0.156954 0.168363 0.179757 0.191135 0.202498 0.213845 0.225177 0.236395 0.247402 0.258196 0.26878 0.279151 0.289311 0.29926 0.308997 0.318477 0.327656 0.336534 0.345111 0.353386 0.361361 0.369034 0.376406 0.383477 0.390244 0.396709 0.402871 0.40873 0.414287 0.41954 0.424492 0.429159 0.433564 0.437704 0.44158 0.445193 0.448542 0.451627 0.454448 0.457021 0.459361 0.461469 0.463344 0.464986 0.466396 0.467573 0.468517 0.469225 0.469692 0.469919 0.469906 0.469653 0.469159 0.468425 0.46745 0.466209 0.464675 0.462848 0.460729 0.458317 0.455612 0.452614 0.449323 0.445703 0.441718 0.437367 0.43265 0.427567 0.422119 0.416305 0.410126 0.403562 0.396595 0.389226 0.381454 0.373279 0.364702 0.355721 0.346338 0.336587 0.326504 0.316089 0.305341 0.294262 0.28285 0.271106 0.259029 0.246733 0.234329 0.221818 0.209199 0.196472 0.183639 0.170697 0.157648 0.144542 0.13143 0.118311 0.105186 0.0920538 0.0789153 0.0657704 0.0526189 0.0402864 0.0295981 0.0205543 0.0131547 0.00739953 0.00328868 0.000822171 0 0 0.000805897 0.00322359 0.00725308 0.0128944 0.0201474 0.0290123 0.039489 0.0515774 0.0645001 0.0774794 0.0905152 0.103608 0.116757 0.129963 0.143225 0.156544 0.169881 0.183196 0.196491 0.209764 0.223017 0.236248 0.249458 0.262647 0.275701 0.288505 0.30106 0.313366 0.325422 0.337229 0.348786 0.360094 0.371101 0.381755 0.392058 0.402008 0.411606 0.420851 0.429744 0.438285 0.446474 0.45431 0.461794 0.468925 0.475705 0.482132 0.488207 0.493929 0.499323 0.504411 0.509193 0.51367 0.517842 0.521708 0.525268 0.528523 0.531491 0.53419 0.536621 0.538783 0.540677 0.542303 0.54366 0.544748 0.545564 0.546103 0.546365 0.546349 0.546057 0.545487 0.54464 0.543517 0.542085 0.540315 0.538206 0.535759 0.532974 0.52985 0.526387 0.522586 0.518404 0.513797 0.508766 0.50331 0.49743 0.491125 0.484396 0.477243 0.469642 0.461572 0.453033 0.444024 0.434545 0.424597 0.414179 0.403292 0.391976 0.38027 0.368175 0.35569 0.342816 0.329553 0.315901 0.301859 0.287559 0.27313 0.258573 0.243887 0.229073 0.214131 0.199061 0.183862 0.168593 0.153314 0.138023 0.122721 0.107409 0.0920852 0.0767505 0.0614048 0.0470131 0.0345402 0.0239863 0.0153512 0.00863505 0.0038378 0.00095945 0 0 0.000922458 0.00368983 0.00830212 0.0147593 0.0230614 0.0332085 0.0452004 0.0590373 0.0738268 0.0886768 0.103587 0.118558 0.13359 0.148681 0.163834 0.179046 0.194275 0.209476 0.224649 0.239793 0.25491 0.269998 0.285058 0.30009 0.314964 0.32955 0.343847 0.357855 0.371575 0.385007 0.398151 0.411006 0.423514 0.435619 0.447321 0.458618 0.469511 0.480001 0.490087 0.499769 0.509048 0.517926 0.526402 0.534477 0.54215 0.549422 0.556293 0.562762 0.568857 0.574606 0.580009 0.585065 0.589775 0.594139 0.598157 0.601829 0.605176 0.60822 0.610961 0.613399 0.615535 0.617367 0.618897 0.620124 0.621043 0.62165 0.621945 0.621927 0.621597 0.620955 0.62 0.618733 0.617118 0.615121 0.612741 0.609978 0.606833 0.603304 0.599393 0.5951 0.590373 0.585165 0.579474 0.573302 0.566647 0.559509 0.55189 0.543789 0.535178 0.526031 0.516348 0.506129 0.495374 0.484083 0.472255 0.459892 0.447037 0.433735 0.419985 0.405789 0.391145 0.376054 0.360517 0.344532 0.328248 0.311813 0.295229 0.278493 0.261607 0.244571 0.227384 0.210047 0.192626 0.175187 0.157732 0.140259 0.12277 0.105263 0.0877391 0.0701981 0.0537454 0.0394864 0.0274211 0.0175495 0.00987161 0.00438738 0.00109685 0 0 0.00103952 0.00415808 0.00935567 0.0166323 0.025988 0.0374227 0.0509364 0.0665292 0.0831929 0.0999195 0.116709 0.133561 0.150476 0.167454 0.184494 0.201598 0.218714 0.235794 0.252838 0.269844 0.286815 0.303748 0.320646 0.337506 0.354184 0.370534 0.386555 0.402247 0.417611 0.432647 0.447353 0.461732 0.475718 0.489248 0.502323 0.514941 0.527104 0.538811 0.550062 0.560857 0.5712 0.581092 0.590534 0.599525 0.608067 0.616158 0.623799 0.63099 0.637762 0.644149 0.65015 0.655765 0.660994 0.665837 0.670294 0.674365 0.678076 0.68145 0.684489 0.687191 0.689558 0.691589 0.693284 0.694643 0.695662 0.696334 0.69666 0.69664 0.696274 0.695562 0.694504 0.693099 0.691309 0.689094 0.686453 0.683386 0.679894 0.675976 0.671632 0.666863 0.661612 0.655822 0.649493 0.642625 0.635218 0.627272 0.618787 0.609763 0.600169 0.589972 0.579172 0.56777 0.555765 0.543158 0.529949 0.516137 0.50177 0.486899 0.471521 0.455637 0.439248 0.422353 0.404953 0.387046 0.3688 0.35038 0.331785 0.313017 0.294075 0.274958 0.255668 0.236204 0.21664 0.197051 0.177438 0.157799 0.138136 0.118449 0.0987362 0.0789989 0.0604835 0.0444369 0.0308589 0.0197497 0.0111092 0.00493743 0.00123436 0 0 0.00115708 0.00462833 0.0104137 0.0185133 0.0289271 0.041655 0.056697 0.0740533 0.0925984 0.111207 0.12988 0.148616 0.167416 0.186279 0.205207 0.224198 0.243197 0.26215 0.281057 0.299918 0.318731 0.337499 0.35622 0.374895 0.393361 0.411458 0.429185 0.446542 0.463529 0.480147 0.496394 0.512272 0.527711 0.542641 0.557064 0.570978 0.584383 0.597281 0.60967 0.621551 0.632929 0.643808 0.654188 0.66407 0.673454 0.682338 0.690725 0.698612 0.706038 0.71304 0.719617 0.725769 0.731497 0.7368 0.741679 0.746133 0.750191 0.753882 0.757205 0.76016 0.762748 0.764969 0.766822 0.768307 0.769419 0.770154 0.77051 0.770487 0.770087 0.769308 0.768151 0.766616 0.764658 0.762233 0.759341 0.755982 0.752156 0.747864 0.743104 0.737878 0.73212 0.725768 0.718822 0.71128 0.703144 0.694413 0.685087 0.675167 0.664615 0.653394 0.641505 0.628946 0.61572 0.601824 0.58726 0.572027 0.556177 0.539762 0.522781 0.505236 0.487126 0.46845 0.449209 0.429404 0.409216 0.388829 0.368243 0.347459 0.326475 0.305293 0.283912 0.262332 0.240635 0.218905 0.19714 0.175342 0.153509 0.131642 0.109742 0.087807 0.0672273 0.0493915 0.0342996 0.0219518 0.0123479 0.00548794 0.00137198 0 0 0.00127515 0.00510058 0.0114763 0.0204023 0.0318787 0.0459053 0.0624822 0.0816094 0.102043 0.12254 0.1431 0.163723 0.184409 0.205159 0.225971 0.246846 0.267724 0.288545 0.309308 0.330013 0.35066 0.37125 0.391782 0.412256 0.432496 0.452323 0.471737 0.49074 0.50933 0.527508 0.545274 0.562627 0.579494 0.595799 0.611544 0.626727 0.64135 0.655411 0.668911 0.68185 0.694235 0.706074 0.717366 0.728112 0.738311 0.747964 0.75707 0.76563 0.773685 0.781278 0.788409 0.795078 0.801285 0.807029 0.812311 0.817131 0.821522 0.825514 0.829108 0.832305 0.835104 0.837505 0.839509 0.841114 0.842317 0.84311 0.843494 0.84347 0.843036 0.842194 0.840942 0.839282 0.837163 0.834538 0.831406 0.827767 0.823621 0.818968 0.813809 0.808142 0.801898 0.795003 0.78746 0.779267 0.770424 0.760932 0.750791 0.74 0.728516 0.716299 0.703346 0.689659 0.675237 0.66008 0.644188 0.627562 0.610256 0.592324 0.573767 0.554585 0.534777 0.514345 0.493287 0.471603 0.449495 0.427161 0.404602 0.381818 0.358809 0.335575 0.312116 0.288432 0.264613 0.240749 0.21684 0.192886 0.168888 0.144844 0.120756 0.0966226 0.0739767 0.0543502 0.0377432 0.0241557 0.0135876 0.00603891 0.00150973 0 0 0.00139371 0.00557485 0.0125434 0.0222994 0.0348428 0.0501736 0.0682919 0.0891975 0.111527 0.133918 0.15637 0.178883 0.201457 0.224091 0.246787 0.269544 0.292296 0.314977 0.337589 0.36013 0.3826 0.405001 0.427331 0.44959 0.471587 0.493127 0.514212 0.534841 0.555014 0.57473 0.593991 0.612796 0.631066 0.648722 0.665763 0.68219 0.698002 0.713201 0.727784 0.741754 0.755119 0.76789 0.780068 0.791651 0.80264 0.813035 0.822835 0.832042 0.840703 0.848864 0.856527 0.863691 0.870357 0.876524 0.882192 0.887361 0.892067 0.896347 0.9002 0.903627 0.906627 0.9092 0.911346 0.913066 0.914353 0.915203 0.915614 0.915587 0.915122 0.914219 0.912877 0.911098 0.908827 0.90601 0.902648 0.898741 0.894288 0.88929 0.883746 0.877657 0.870944 0.863528 0.855408 0.846585 0.837059 0.826829 0.815897 0.804261 0.791873 0.778685 0.764696 0.749906 0.734316 0.717926 0.700734 0.682742 0.664007 0.644586 0.624478 0.603684 0.582203 0.560037 0.537184 0.513645 0.489637 0.465375 0.440862 0.416095 0.391076 0.365805 0.340281 0.314504 0.288572 0.262583 0.236537 0.210433 0.184272 0.158054 0.131778 0.105446 0.0807318 0.0593132 0.0411897 0.0263614 0.0148283 0.00659035 0.00164759 0 0 0.00151241 0.00604964 0.0136117 0.0241986 0.0378103 0.0544468 0.0741081 0.0967943 0.121022 0.145306 0.169648 0.194048 0.218505 0.24302 0.267591 0.292221 0.316837 0.341368 0.365814 0.390176 0.414453 0.438646 0.462753 0.486777 0.510507 0.533737 0.556465 0.578693 0.60042 0.621646 0.642372 0.662596 0.682236 0.701208 0.719512 0.737148 0.754116 0.770416 0.786048 0.801012 0.815322 0.828991 0.842018 0.854405 0.866151 0.877256 0.88772 0.897543 0.906778 0.91548 0.923647 0.931281 0.938381 0.944946 0.950978 0.956476 0.961479 0.966029 0.970126 0.973768 0.976956 0.979691 0.981972 0.983799 0.985166 0.986068 0.986504 0.986475 0.985981 0.985021 0.983596 0.981705 0.979291 0.976294 0.972715 0.968555 0.963812 0.958487 0.95258 0.94609 0.938932 0.931019 0.922349 0.912924 0.902744 0.891807 0.880115 0.867668 0.854409 0.840285 0.825294 0.809437 0.792714 0.775125 0.75667 0.737349 0.717221 0.696344 0.67472 0.652348 0.629228 0.605359 0.580743 0.555379 0.529499 0.503339 0.476896 0.450172 0.423166 0.395878 0.368309 0.340458 0.31243 0.284332 0.256162 0.227921 0.199609 0.171225 0.142771 0.114245 0.087469 0.0642629 0.044627 0.0285613 0.0160657 0.00714033 0.00178508 0 0 0.00163088 0.0065235 0.0146779 0.026094 0.0407719 0.0587115 0.0799129 0.104376 0.130496 0.156669 0.182894 0.209172 0.235502 0.261885 0.288321 0.314808 0.341272 0.367635 0.393897 0.420058 0.446119 0.472078 0.497937 0.523695 0.549129 0.574015 0.598354 0.622146 0.645391 0.668089 0.690239 0.711842 0.73281 0.753056 0.772581 0.791383 0.809464 0.826823 0.84346 0.859375 0.874585 0.889109 0.902945 0.916095 0.928558 0.940334 0.951422 0.961824 0.971599 0.980806 0.989446 0.997518 1.00502 1.01196 1.01833 1.02413 1.02941 1.03421 1.03853 1.04237 1.04573 1.04862 1.05102 1.05295 1.05439 1.05534 1.0558 1.05577 1.05525 1.05424 1.05274 1.05074 1.0482 1.04504 1.04126 1.03686 1.03185 1.02622 1.01997 1.01311 1.00554 0.997155 0.987968 0.977974 0.967174 0.955568 0.943155 0.929936 0.915848 0.900829 0.884879 0.867997 0.850185 0.831442 0.811767 0.791162 0.769686 0.747399 0.724301 0.700393 0.675674 0.650144 0.623804 0.596653 0.568941 0.540916 0.512579 0.483929 0.454966 0.425692 0.396104 0.366205 0.336106 0.30592 0.275648 0.245289 0.214844 0.184313 0.153695 0.122991 0.0941647 0.0691822 0.0480432 0.0307476 0.0172956 0.00768691 0.00192173 0 0 0.00174911 0.00699642 0.015742 0.0279857 0.0437276 0.0629678 0.0857062 0.111943 0.139952 0.168007 0.196108 0.224255 0.252449 0.280688 0.308974 0.337306 0.365602 0.393779 0.421837 0.449776 0.477597 0.505298 0.532881 0.560344 0.587451 0.613963 0.639879 0.6652 0.689926 0.714057 0.737593 0.760534 0.782788 0.804267 0.82497 0.844896 0.864047 0.882421 0.900019 0.916841 0.932909 0.948245 0.962849 0.97672 0.98986 1.00227 1.01394 1.02489 1.03516 1.04484 1.05392 1.0624 1.07028 1.07756 1.08424 1.09033 1.09586 1.10089 1.10541 1.10944 1.11296 1.11598 1.1185 1.12052 1.12203 1.12302 1.12351 1.12347 1.12293 1.12187 1.1203 1.11822 1.11555 1.11224 1.10827 1.10366 1.0984 1.09249 1.08592 1.07872 1.07075 1.06194 1.05226 1.04173 1.03035 1.01811 1.00502 0.991065 0.976189 0.960317 0.94345 0.925588 0.906729 0.886876 0.866027 0.844182 0.821402 0.797749 0.773221 0.747819 0.721543 0.694392 0.666368 0.637469 0.607961 0.578107 0.547909 0.517366 0.486478 0.455245 0.423667 0.391744 0.359598 0.327348 0.294995 0.262538 0.229979 0.197316 0.164551 0.131682 0.100819 0.074071 0.0514382 0.0329204 0.0185177 0.00823011 0.00205753 0 0 0.0018671 0.00746841 0.0168039 0.0298736 0.0466776 0.0672157 0.091488 0.119495 0.149387 0.179319 0.209289 0.239297 0.269344 0.299429 0.329553 0.359715 0.389827 0.4198 0.449635 0.479331 0.508888 0.538306 0.567585 0.596726 0.625475 0.653579 0.681039 0.707855 0.734026 0.759552 0.784434 0.808671 0.832171 0.85484 0.876679 0.897687 0.917864 0.93721 0.955726 0.973412 0.990293 1.0064 1.02173 1.03628 1.05006 1.06306 1.07528 1.08673 1.09748 1.10759 1.11708 1.12593 1.13416 1.14176 1.14872 1.15506 1.16082 1.16606 1.17078 1.17497 1.17864 1.18178 1.18441 1.18651 1.18808 1.18911 1.18962 1.18959 1.18902 1.18792 1.18629 1.18412 1.18135 1.17789 1.17376 1.16895 1.16346 1.15729 1.15044 1.14291 1.13459 1.12536 1.11524 1.10421 1.09227 1.07944 1.0657 1.05106 1.03543 1.01875 1.00101 0.982207 0.962347 0.941427 0.919447 0.896409 0.872371 0.847394 0.821479 0.794626 0.766834 0.738103 0.708434 0.677826 0.646559 0.614913 0.582888 0.550484 0.517701 0.484539 0.450997 0.417077 0.382907 0.348615 0.314202 0.279668 0.245012 0.210236 0.175338 0.140319 0.107432 0.0789293 0.054812 0.0350797 0.0197323 0.00876992 0.00219248 0 0 0.00198486 0.00793946 0.0178638 0.0317578 0.0496216 0.0714551 0.0972584 0.127031 0.158804 0.190606 0.222437 0.254298 0.286188 0.318107 0.350056 0.382034 0.413947 0.445699 0.47729 0.508721 0.539991 0.571101 0.602051 0.632839 0.6632 0.692865 0.721835 0.75011 0.777689 0.804574 0.830762 0.856256 0.880959 0.904776 0.927708 0.949755 0.970916 0.991191 1.01058 1.02909 1.04674 1.06357 1.07958 1.09478 1.10915 1.12271 1.13544 1.14735 1.15853 1.16905 1.17891 1.18811 1.19665 1.20454 1.21177 1.21834 1.2243 1.22973 1.23462 1.23896 1.24276 1.24602 1.24874 1.25091 1.25254 1.25361 1.25414 1.2541 1.25352 1.25239 1.2507 1.24846 1.24559 1.24201 1.23772 1.23273 1.22703 1.22062 1.21351 1.20568 1.19703 1.18743 1.17688 1.16539 1.15294 1.13955 1.1252 1.10991 1.09358 1.07613 1.05755 1.03786 1.01704 0.995095 0.97203 0.947842 0.92259 0.896335 0.869076 0.840813 0.811547 0.781276 0.750002 0.717723 0.684735 0.651333 0.617515 0.583282 0.548635 0.513572 0.478095 0.442203 0.406032 0.369721 0.33327 0.296677 0.259945 0.223071 0.186057 0.148901 0.114003 0.0837571 0.0581646 0.0372254 0.0209393 0.00930634 0.00232659 0 0 0.00210239 0.00840957 0.0189215 0.0336383 0.0525598 0.0756861 0.103017 0.134553 0.168201 0.201867 0.235553 0.269257 0.302981 0.336723 0.370484 0.404264 0.437961 0.471474 0.504803 0.537948 0.570908 0.603684 0.636276 0.668684 0.700626 0.73182 0.762267 0.791966 0.820917 0.849121 0.876577 0.903286 0.92915 0.954074 0.978057 1.0011 1.0232 1.04436 1.06458 1.08386 1.10224 1.11976 1.13642 1.15221 1.16714 1.18121 1.19442 1.20676 1.21833 1.22922 1.23942 1.24894 1.25777 1.26591 1.27337 1.28015 1.28631 1.2919 1.29694 1.30141 1.30533 1.30869 1.31149 1.31373 1.31541 1.31652 1.31706 1.31703 1.31643 1.31527 1.31353 1.31123 1.30827 1.30458 1.30016 1.29501 1.28912 1.28249 1.27514 1.26705 1.2581 1.24815 1.23721 1.22528 1.21235 1.19844 1.18353 1.16762 1.15063 1.13245 1.11309 1.09254 1.0708 1.04788 1.02377 0.998482 0.972062 0.944572 0.916012 0.886382 0.855682 0.823912 0.791072 0.757162 0.722491 0.687367 0.65179 0.615761 0.57928 0.542346 0.50496 0.467121 0.428975 0.390667 0.352198 0.313568 0.274776 0.235822 0.196707 0.15743 0.120532 0.0885544 0.0614961 0.0393575 0.0221386 0.00983938 0.00245984 0 0 0.00221969 0.00887875 0.0199772 0.035515 0.0554922 0.0799087 0.108765 0.14206 0.177578 0.213104 0.248636 0.284176 0.319722 0.355276 0.390836 0.426404 0.46187 0.497126 0.532173 0.56701 0.601637 0.636055 0.670263 0.704261 0.737753 0.770444 0.802334 0.833423 0.86371 0.893195 0.921879 0.949762 0.976746 1.00273 1.02773 1.05172 1.07472 1.09673 1.11773 1.13775 1.15681 1.17497 1.19222 1.20858 1.22402 1.23857 1.25221 1.26495 1.27688 1.2881 1.29861 1.30841 1.3175 1.32588 1.33355 1.34051 1.34682 1.35257 1.35774 1.36233 1.36635 1.3698 1.37267 1.37498 1.3767 1.37784 1.37839 1.37837 1.37776 1.37656 1.37479 1.37243 1.3694 1.36562 1.36107 1.35577 1.34971 1.3429 1.33533 1.327 1.31777 1.30751 1.29621 1.28388 1.27051 1.25611 1.24067 1.2242 1.20658 1.18772 1.16761 1.14625 1.12364 1.09978 1.07468 1.04833 1.02078 0.992104 0.962286 0.931331 0.89924 0.866011 0.831645 0.796142 0.759824 0.723015 0.685714 0.647921 0.609636 0.57086 0.531592 0.491832 0.451734 0.411453 0.370987 0.330338 0.289506 0.248489 0.207289 0.165904 0.127021 0.0933212 0.0648064 0.0414761 0.0233303 0.010369 0.00259226 0 0 0.00233675 0.00934698 0.0210307 0.0373879 0.0584187 0.0841229 0.114501 0.149552 0.186937 0.224315 0.261687 0.299053 0.336413 0.373766 0.411114 0.448455 0.485674 0.522656 0.559401 0.595909 0.632179 0.668213 0.70401 0.739569 0.774582 0.808738 0.842037 0.87448 0.906066 0.936796 0.966668 0.995685 1.02375 1.05076 1.07672 1.10162 1.12548 1.14828 1.17003 1.19073 1.21044 1.22919 1.24701 1.26388 1.2798 1.29478 1.30882 1.32191 1.33417 1.34569 1.35648 1.36653 1.37585 1.38443 1.39228 1.3994 1.40586 1.41173 1.41701 1.42171 1.42582 1.42935 1.43228 1.43463 1.4364 1.43756 1.43813 1.43811 1.43749 1.43627 1.43447 1.43206 1.42897 1.4251 1.42046 1.41503 1.40882 1.40184 1.39408 1.38553 1.37606 1.36552 1.35389 1.3412 1.32742 1.31257 1.29664 1.27963 1.26144 1.24193 1.22111 1.19898 1.17555 1.1508 1.12475 1.09738 1.06876 1.03893 1.0079 0.975662 0.942219 0.907572 0.87172 0.834662 0.796736 0.758277 0.719285 0.679761 0.639704 0.599114 0.557991 0.516336 0.47431 0.432078 0.389637 0.34699 0.304134 0.261072 0.217802 0.174324 0.133467 0.0980575 0.0680955 0.0435811 0.0245144 0.0108953 0.00272382 0 0 0.00245254 0.00981018 0.0220729 0.0392407 0.0613136 0.0882916 0.120175 0.156963 0.196193 0.235403 0.274591 0.313759 0.352906 0.392032 0.431138 0.470222 0.509164 0.547839 0.586247 0.62439 0.662267 0.699877 0.737221 0.7743 0.810788 0.846364 0.881027 0.914778 0.947615 0.97954 1.01055 1.04065 1.06974 1.09772 1.1246 1.15037 1.17503 1.19858 1.22103 1.24237 1.26266 1.28197 1.3003 1.31764 1.334 1.34938 1.36377 1.37718 1.38972 1.40151 1.41253 1.42281 1.43233 1.44109 1.4491 1.45635 1.46292 1.4689 1.47428 1.47907 1.48325 1.48684 1.48983 1.49222 1.49402 1.49521 1.49579 1.49577 1.49514 1.49391 1.49208 1.48964 1.4865 1.48257 1.47783 1.47229 1.46596 1.45883 1.4509 1.44217 1.43249 1.42169 1.40977 1.39674 1.38259 1.36733 1.35096 1.33346 1.31473 1.29462 1.27315 1.2503 1.22609 1.2005 1.17355 1.14522 1.11557 1.08465 1.05246 1.01899 0.984248 0.948234 0.910948 0.872388 0.832904 0.792846 0.752212 0.711003 0.669219 0.62686 0.583927 0.540418 0.496505 0.45236 0.407983 0.363374 0.318533 0.273459 0.228154 0.182616 0.139815 0.102721 0.0713343 0.045654 0.0256804 0.0114135 0.00285337 0 0 0.00256605 0.0102642 0.0230945 0.0410568 0.0641513 0.0923779 0.125737 0.164227 0.205266 0.246268 0.287234 0.328163 0.369056 0.409912 0.450731 0.491515 0.532131 0.572451 0.612475 0.652202 0.691632 0.730765 0.769602 0.808142 0