<?xml version="1.0"?> 
<VTKFile type="StructuredGrid" version="0.1"> 
<StructuredGrid WholeExtent="0 128 0 128 0 0"> 
<Piece Extent="0 128 0 128 0 0"> 
<PointData>
<DataArray type="Float32" Name="u" format="ascii" NumberOfComponents="1"> 
0 0 0 0 0 0 0 0 0 0 0 0 0 0 0 0 0 0 0 0 0 0 0 0 0 0 0 0 0 0 0 0 0 0 0 0 0 0 0 0 0 0 0 0 0 0 0 0 0 0 0 0 0 0 0 0 0 0 0 0 0 0 0 0 0 0 0 0 0 0 0 0 0 0 0 0 0 0 0 0 0 0 0 0 0 0 0 0 0 0 0 0 0 0 0 0 0 0 0 0 0 0 0 0 0 0 0 0 0 0 0 0 0 0 0 0 0 0 0 0 0 0 0 0 0 0 0 0 0 0 1.2103e-05 4.8412e-05 0.000108927 0.000193648 0.000302575 0.000435708 0.000593047 0.000774592 0.000967521 0.00115901 0.00134906 0.00153767 0.00172485 0.00191058 0.00209488 0.00227774 0.00245832 0.0026358 0.00281017 0.00298142 0.00314957 0.00331461 0.00347653 0.00363535 0.00378969 0.00393816 0.00408078 0.00421754 0.00434844 0.00447348 0.00459266 0.00470598 0.00481348 0.00491518 0.0050111 0.00510122 0.00518556 0.0052641 0.00533685 0.00540382 0.00546579 0.0055236 0.00557722 0.00562666 0.00567193 0.00571302 0.00574993 0.00578267 0.00581211 0.00583915 0.00586379 0.00588603 0.00590586 0.00592328 0.00593831 0.00595093 0.00596168 0.00597109 0.00597916 0.00598588 0.00599127 0.00599532 0.00599802 0.00599938 0.00599941 0.00599808 0.00599542 0.00599141 0.00598605 0.00597936 0.00597132 0.00596193 0.00595067 0.00593698 0.00592088 0.00590236 0.00588142 0.00585806 0.00583228 0.00580408 0.00577257 0.00573683 0.00569687 0.00565269 0.00560429 0.00555167 0.00549482 0.00543376 0.00536764 0.00529565 0.00521779 0.00513404 0.00504442 0.00494893 0.00484756 0.00474031 0.00462714 0.004508 0.00438287 0.00425177 0.0041147 0.00397165 0.00382262 0.00366762 0.00350802 0.00334522 0.0031792 0.00300997 0.00283753 0.00266188 0.00248301 0.00230094 0.00211651 0.00193056 0.0017431 0.00155413 0.00136364 0.00117164 0.000978134 0.000783112 0.00059957 0.000440501 0.000305903 0.000195778 0.000110125 4.89445e-05 1.22361e-05 0 0 4.8412e-05 0.000193648 0.000435708 0.000774592 0.0012103 0.00174283 0.00237219 0.00309837 0.00387008 0.00463604 0.00539625 0.0061507 0.0068994 0.00764234 0.00837953 0.00911096 0.0098333 0.0105432 0.0112407 0.0119257 0.0125983 0.0132584 0.0139061 0.0145414 0.0151588 0.0157527 0.0163231 0.0168702 0.0173937 0.0178939 0.0183706 0.0188239 0.0192539 0.0196607 0.0200444 0.0204049 0.0207422 0.0210564 0.0213474 0.0216153 0.0218632 0.0220944 0.0223089 0.0225067 0.0226877 0.0228521 0.0229997 0.0231307 0.0232484 0.0233566 0.0234552 0.0235441 0.0236234 0.0236931 0.0237532 0.0238037 0.0238467 0.0238844 0.0239166 0.0239435 0.0239651 0.0239813 0.0239921 0.0239975 0.0239976 0.0239923 0.0239817 0.0239656 0.0239442 0.0239174 0.0238853 0.0238477 0.0238027 0.0237479 0.0236835 0.0236094 0.0235257 0.0234322 0.0233291 0.0232163 0.0230903 0.0229473 0.0227875 0.0226108 0.0224172 0.0222067 0.0219793 0.021735 0.0214706 0.0211826 0.0208711 0.0205362 0.0201777 0.0197957 0.0193902 0.0189613 0.0185086 0.018032 0.0175315 0.0170071 0.0164588 0.0158866 0.0152905 0.0146705 0.0140321 0.0133809 0.0127168 0.0120399 0.0113501 0.0106475 0.00993206 0.00920376 0.00846602 0.00772223 0.00697239 0.0062165 0.00545456 0.00468658 0.00391254 0.00313245 0.00239828 0.001762 0.00122361 0.000783112 0.000440501 0.000195778 4.89445e-05 0 0 0.000108927 0.000435708 0.000980343 0.00174283 0.00272317 0.00392137 0.00533742 0.00697133 0.00870769 0.0104311 0.0121416 0.0138391 0.0155236 0.0171953 0.0188539 0.0204997 0.0221249 0.0237222 0.0252915 0.0268328 0.0283461 0.0298315 0.0312888 0.0327182 0.0341072 0.0354435 0.036727 0.0379578 0.0391359 0.0402613 0.0413339 0.0423538 0.0433213 0.0442366 0.0450999 0.045911 0.04667 0.0473769 0.0480317 0.0486343 0.0491922 0.0497124 0.050195 0.05064 0.0510474 0.0514172 0.0517494 0.052044 0.052309 0.0525524 0.0527741 0.0529742 0.0531527 0.0533096 0.0534448 0.0535584 0.0536551 0.0537398 0.0538124 0.053873 0.0539214 0.0539578 0.0539822 0.0539945 0.0539947 0.0539828 0.0539588 0.0539227 0.0538745 0.0538142 0.0537419 0.0536574 0.053556 0.0534328 0.0532879 0.0531212 0.0529328 0.0527225 0.0524905 0.0522368 0.0519531 0.0516315 0.0512718 0.0508742 0.0504386 0.049965 0.0494534 0.0489038 0.0483088 0.0476609 0.0469601 0.0462064 0.0453998 0.0445404 0.043628 0.0426628 0.0416443 0.040572 0.0394458 0.038266 0.0370323 0.0357448 0.0344036 0.0330086 0.0315722 0.0301069 0.0286128 0.0270897 0.0255378 0.0239569 0.0223471 0.0207085 0.0190486 0.017375 0.0156879 0.0139871 0.0122728 0.0105448 0.00880321 0.00704801 0.00539613 0.00396451 0.00275313 0.001762 0.000991127 0.000440501 0.000110125 0 0 0.000193648 0.000774592 0.00174283 0.00309837 0.0048412 0.00697133 0.00948875 0.0123935 0.0154803 0.0185442 0.021585 0.0246028 0.0275976 0.0305694 0.0335181 0.0364438 0.0393332 0.0421728 0.0449626 0.0477027 0.0503931 0.0530337 0.0556246 0.0581657 0.060635 0.0630106 0.0652925 0.0674806 0.069575 0.0715756 0.0734825 0.0752957 0.0770156 0.0786429 0.0801776 0.0816196 0.0829689 0.0842256 0.0853897 0.0864611 0.0874527 0.0883775 0.0892355 0.0900266 0.0907509 0.0914083 0.0919989 0.0925227 0.0929938 0.0934264 0.0938207 0.0941764 0.0944937 0.0947726 0.0950129 0.0952149 0.0953869 0.0955374 0.0956665 0.0957741 0.0958603 0.095925 0.0959683 0.0959901 0.0959905 0.0959693 0.0959267 0.0958625 0.0957769 0.0956697 0.0955411 0.0953909 0.0952107 0.0949917 0.0947341 0.0944377 0.0941027 0.0937289 0.0933165 0.0928653 0.0923611 0.0917893 0.0911499 0.0904431 0.0896686 0.0888267 0.0879171 0.0869401 0.0858823 0.0847304 0.0834846 0.0821447 0.0807108 0.0791829 0.077561 0.075845 0.0740343 0.0721279 0.0701259 0.0680284 0.0658352 0.0635463 0.0611619 0.0586819 0.0561284 0.0535234 0.0508672 0.0481595 0.0454004 0.04259 0.0397282 0.0368151 0.0338641 0.0308889 0.0278896 0.024866 0.0218183 0.0187463 0.0156501 0.0125298 0.00959313 0.00704801 0.00489445 0.00313245 0.001762 0.000783112 0.000195778 0 0 0.000302575 0.0012103 0.00272317 0.0048412 0.00756437 0.0108927 0.0148262 0.0193648 0.024188 0.0289753 0.0337266 0.0384419 0.0431212 0.0477646 0.052372 0.0569435 0.0614581 0.065895 0.0702541 0.0745355 0.0787392 0.0828652 0.0869134 0.0908838 0.0947422 0.0984541 0.10202 0.105438 0.108711 0.111837 0.114816 0.117649 0.120337 0.12288 0.125277 0.127531 0.129639 0.131603 0.133421 0.135095 0.136645 0.13809 0.13943 0.140667 0.141798 0.142826 0.143748 0.144567 0.145303 0.145979 0.146595 0.147151 0.147646 0.148082 0.148458 0.148773 0.149042 0.149277 0.149479 0.149647 0.149782 0.149883 0.149951 0.149985 0.149985 0.149952 0.149885 0.149785 0.149651 0.149484 0.149283 0.149048 0.148767 0.148425 0.148022 0.147559 0.147035 0.146451 0.145807 0.145102 0.144314 0.143421 0.142422 0.141317 0.140107 0.138792 0.137371 0.135844 0.134191 0.132391 0.130445 0.128351 0.126111 0.123723 0.121189 0.118508 0.115679 0.1127 0.109572 0.106294 0.102867 0.0992912 0.0955655 0.0916904 0.0877006 0.0836304 0.0794799 0.0752492 0.0709382 0.0665469 0.0620754 0.0575235 0.0529126 0.048264 0.0435775 0.0388531 0.034091 0.0292911 0.0244534 0.0195778 0.0149893 0.0110125 0.00764758 0.00489445 0.00275313 0.00122361 0.000305903 0 0 0.000435708 0.00174283 0.00392137 0.00697133 0.0108927 0.0156855 0.0213497 0.0278853 0.0348307 0.0417244 0.0485662 0.0553563 0.0620946 0.0687811 0.0754157 0.0819986 0.0884997 0.0948888 0.101166 0.107331 0.113384 0.119326 0.125155 0.130873 0.136429 0.141774 0.146908 0.151831 0.156544 0.161045 0.165336 0.169415 0.173285 0.176947 0.1804 0.183644 0.18668 0.189508 0.192127 0.194537 0.196769 0.198849 0.20078 0.20256 0.20419 0.205669 0.206998 0.208176 0.209236 0.21021 0.211096 0.211897 0.212611 0.213238 0.213779 0.214234 0.21462 0.214959 0.21525 0.215492 0.215686 0.215831 0.215929 0.215978 0.215979 0.215931 0.215835 0.215691 0.215498 0.215257 0.214967 0.21463 0.214224 0.213731 0.213152 0.212485 0.211731 0.21089 0.209962 0.208947 0.207812 0.206526 0.205087 0.203497 0.201754 0.19986 0.197814 0.195615 0.193235 0.190643 0.18784 0.184826 0.181599 0.178162 0.174512 0.170651 0.166577 0.162288 0.157783 0.153064 0.148129 0.142979 0.137614 0.132034 0.126289 0.120428 0.114451 0.108359 0.102151 0.0958276 0.0893885 0.0828339 0.0761942 0.0695001 0.0627515 0.0559485 0.0490911 0.0421792 0.0352128 0.028192 0.0215845 0.015858 0.0110125 0.00704801 0.00396451 0.001762 0.000440501 0 0 0.000593047 0.00237219 0.00533742 0.00948875 0.0148262 0.0213497 0.0290593 0.037955 0.0474085 0.0567915 0.066104 0.0753461 0.0845176 0.0936187 0.102649 0.111609 0.120458 0.129154 0.137698 0.14609 0.154329 0.162416 0.17035 0.178132 0.185695 0.19297 0.199958 0.206659 0.213073 0.2192 0.22504 0.230593 0.23586 0.240844 0.245544 0.24996 0.254092 0.257941 0.261506 0.264787 0.267824 0.270656 0.273284 0.275706 0.277925 0.279938 0.281747 0.283351 0.284793 0.286118 0.287326 0.288415 0.289387 0.290241 0.290977 0.291596 0.292122 0.292583 0.292979 0.293308 0.293572 0.29377 0.293903 0.29397 0.293971 0.293906 0.293775 0.293579 0.293317 0.292989 0.292595 0.292135 0.291583 0.290912 0.290123 0.289216 0.288189 0.287045 0.285782 0.2844 0.282856 0.281105 0.279147 0.276982 0.27461 0.272032 0.269246 0.266254 0.263014 0.259487 0.255671 0.251568 0.247177 0.242498 0.23753 0.232275 0.22673 0.220892 0.214761 0.208337 0.20162 0.194611 0.187308 0.179713 0.171893 0.163916 0.155781 0.147488 0.139039 0.130432 0.121668 0.112746 0.103709 0.0945973 0.0854118 0.0761522 0.0668184 0.0574105 0.0479286 0.0383725 0.029379 0.0215845 0.0149893 0.00959313 0.00539613 0.00239828 0.00059957 0 0 0.000774592 0.00309837 0.00697133 0.0123935 0.0193648 0.0278853 0.037955 0.0495739 0.0619213 0.0741767 0.08634 0.0984112 0.11039 0.122277 0.134072 0.145775 0.157333 0.168691 0.179851 0.190811 0.201572 0.212135 0.222498 0.232663 0.24254 0.252042 0.26117 0.269922 0.2783 0.286303 0.29393 0.301183 0.308063 0.314572 0.32071 0.326478 0.331876 0.336902 0.341559 0.345844 0.349811 0.35351 0.356942 0.360106 0.363004 0.365633 0.367996 0.370091 0.371975 0.373706 0.375283 0.376706 0.377975 0.37909 0.380052 0.38086 0.381548 0.38215 0.382666 0.383097 0.383441 0.3837 0.383873 0.383961 0.383962 0.383877 0.383707 0.38345 0.383108 0.382679 0.382164 0.381564 0.380843 0.379967 0.378936 0.377751 0.376411 0.374916 0.373266 0.371461 0.369444 0.367157 0.3646 0.361772 0.358675 0.355307 0.351669 0.34776 0.343529 0.338922 0.333938 0.328579 0.322843 0.316732 0.310244 0.30338 0.296137 0.288512 0.280504 0.272113 0.263341 0.254185 0.244648 0.234728 0.224513 0.214094 0.203469 0.192638 0.181602 0.17036 0.158913 0.14726 0.135456 0.123556 0.111558 0.099464 0.087273 0.0749852 0.0626006 0.0501192 0.0383725 0.028192 0.0195778 0.0125298 0.00704801 0.00313245 0.000783112 0 0 0.000967518 0.00387007 0.00870766 0.0154803 0.024188 0.0348307 0.0474084 0.0619212 0.0773435 0.0926498 0.10784 0.122915 0.137873 0.152716 0.167442 0.182053 0.196481 0.210659 0.224588 0.238268 0.251699 0.26488 0.277812 0.290494 0.302818 0.314673 0.326059 0.336976 0.347425 0.357405 0.366917 0.375959 0.384537 0.392651 0.400303 0.407492 0.414219 0.420483 0.426284 0.431622 0.436563 0.44117 0.445444 0.449385 0.452992 0.456266 0.459206 0.461813 0.464158 0.466311 0.468272 0.470042 0.471621 0.473008 0.474204 0.475208 0.476063 0.476811 0.477453 0.477988 0.478416 0.478738 0.478953 0.479062 0.479064 0.478958 0.478746 0.478428 0.478002 0.477469 0.47683 0.476084 0.475187 0.474099 0.472817 0.471343 0.469676 0.467816 0.465764 0.463518 0.461008 0.458162 0.454978 0.451458 0.4476 0.443406 0.438875 0.434007 0.428736 0.422996 0.416786 0.410107 0.402958 0.39534 0.387252 0.378696 0.369665 0.360156 0.35017 0.339705 0.328762 0.317342 0.305443 0.293067 0.280322 0.26732 0.254061 0.240544 0.22677 0.212739 0.19845 0.183903 0.169167 0.154309 0.139329 0.124227 0.109003 0.0936575 0.0781901 0.0626008 0.0479288 0.035213 0.0244534 0.0156502 0.00880324 0.00391255 0.000978138 0 0 0.001159 0.004636 0.010431 0.018544 0.028975 0.041724 0.056791 0.0741761 0.0926493 0.110981 0.129171 0.147219 0.165126 0.182891 0.200515 0.217997 0.235258 0.252217 0.268876 0.285235 0.301292 0.317048 0.332504 0.347658 0.362381 0.376542 0.390141 0.403177 0.415651 0.427562 0.438911 0.449698 0.459928 0.469603 0.478725 0.487294 0.495309 0.502771 0.50968 0.516035 0.521914 0.527396 0.53248 0.537166 0.541455 0.545346 0.548839 0.551935 0.554718 0.557273 0.5596 0.5617 0.563572 0.565217 0.566633 0.567822 0.568834 0.56972 0.57048 0.571113 0.571621 0.572002 0.572257 0.572385 0.572387 0.572263 0.572012 0.571635 0.571131 0.570501 0.569745 0.568861 0.5678 0.56651 0.564991 0.563243 0.561266 0.559059 0.556624 0.553959 0.550979 0.547597 0.543813 0.539628 0.53504 0.530051 0.52466 0.518868 0.512593 0.505758 0.49836 0.490402 0.481881 0.4728 0.463156 0.452952 0.44218 0.430834 0.418915 0.406423 0.393357 0.379718 0.365506 0.35072 0.335492 0.319954 0.304105 0.287945 0.271475 0.254694 0.237603 0.220201 0.20257 0.184789 0.16686 0.148783 0.130557 0.112182 0.0936584 0.0749861 0.0574113 0.0421797 0.0292915 0.0187465 0.0105449 0.00468663 0.00117166 0 0 0.00134904 0.00539616 0.0121414 0.0215846 0.033726 0.0485654 0.066103 0.0863385 0.107839 0.12917 0.150332 0.171325 0.192149 0.212804 0.233291 0.253608 0.273664 0.293366 0.312715 0.33171 0.350351 0.368639 0.386574 0.404155 0.421231 0.437651 0.453415 0.468524 0.482977 0.496773 0.509914 0.5224 0.534235 0.545428 0.555978 0.565885 0.575148 0.583769 0.591747 0.599082 0.605865 0.612187 0.61805 0.623452 0.628393 0.632874 0.636895 0.640456 0.643655 0.646592 0.649266 0.651679 0.653828 0.655716 0.657341 0.658704 0.659863 0.660878 0.661748 0.662473 0.663055 0.663491 0.663783 0.663931 0.663933 0.663791 0.663504 0.663073 0.662496 0.661775 0.660908 0.659897 0.658682 0.657202 0.655459 0.653452 0.65118 0.648645 0.645846 0.642783 0.639355 0.635463 0.631105 0.626282 0.620995 0.615242 0.609024 0.602342 0.5951 0.587207 0.578661 0.569463 0.559613 0.54911 0.537956 0.526149 0.513681 0.500545 0.486741 0.472267 0.457125 0.441315 0.424835 0.407688 0.390023 0.371993 0.353599 0.33484 0.315716 0.296227 0.276373 0.256154 0.235665 0.214998 0.194154 0.173133 0.151934 0.130558 0.109005 0.0872751 0.06682 0.0490923 0.0340919 0.0218188 0.0122731 0.0054547 0.00136367 0 0 0.00153764 0.00615054 0.0138387 0.0246022 0.0384409 0.0553549 0.0753441 0.0984087 0.122912 0.147217 0.171324 0.195232 0.218943 0.242455 0.26577 0.288886 0.311699 0.334105 0.356103 0.377694 0.398878 0.419654 0.440022 0.459983 0.479366 0.497999 0.515883 0.533017 0.549403 0.565039 0.579926 0.594063 0.60746 0.620126 0.63206 0.643263 0.653735 0.663476 0.672485 0.680762 0.688414 0.695544 0.702153 0.70824 0.713806 0.718851 0.723374 0.727376 0.73097 0.734268 0.737271 0.739978 0.742389 0.744506 0.746326 0.747851 0.749148 0.750283 0.751256 0.752068 0.752718 0.753206 0.753533 0.753698 0.753702 0.753543 0.753223 0.75274 0.752096 0.751289 0.750321 0.749191 0.747831 0.746174 0.74422 0.741968 0.73942 0.736574 0.73343 0.72999 0.726138 0.721759 0.716854 0.711422 0.705463 0.698979 0.691967 0.684429 0.676257 0.667344 0.657688 0.647291 0.636153 0.624272 0.61165 0.598286 0.58417 0.56929 0.553646 0.537238 0.520066 0.502131 0.483432 0.463969 0.443915 0.42344 0.402544 0.381229 0.359493 0.337336 0.31476 0.291763 0.268453 0.244934 0.221209 0.197276 0.173135 0.148787 0.124231 0.0994678 0.076155 0.0559506 0.0388546 0.024867 0.0139877 0.00621674 0.00155418 0 0 0.00172479 0.00689915 0.0155231 0.0275966 0.0431197 0.0620923 0.0845146 0.110386 0.137868 0.165122 0.192146 0.218941 0.245507 0.271844 0.297952 0.32383 0.349364 0.374434 0.399042 0.423188 0.446871 0.470091 0.492849 0.515144 0.536786 0.557586 0.577543 0.596658 0.614929 0.632358 0.648945 0.664688 0.679602 0.693696 0.706973 0.71943 0.73107 0.741891 0.751893 0.761078 0.769562 0.777466 0.784789 0.791532 0.797694 0.803275 0.808276 0.812696 0.816662 0.820301 0.823613 0.826598 0.829256 0.831586 0.833589 0.835266 0.836689 0.837936 0.839005 0.839896 0.84061 0.841147 0.841506 0.841688 0.841692 0.841518 0.841167 0.840638 0.83993 0.839046 0.837983 0.836743 0.835249 0.833426 0.831274 0.828794 0.825984 0.822845 0.819377 0.815581 0.811326 0.806486 0.801059 0.795046 0.788446 0.781261 0.773489 0.76513 0.756064 0.746168 0.735442 0.723886 0.711501 0.698285 0.68424 0.669365 0.653646 0.637067 0.619631 0.601335 0.582181 0.562168 0.541296 0.519566 0.497167 0.474292 0.45094 0.427111 0.402806 0.378023 0.352764 0.327027 0.300933 0.274599 0.248025 0.221212 0.194159 0.166867 0.139335 0.111564 0.0854163 0.0627548 0.0435798 0.027891 0.0156887 0.00697276 0.00174319 0 0 0.0019105 0.00764198 0.0171945 0.0305679 0.0477624 0.0687778 0.0936143 0.122272 0.152709 0.182884 0.212798 0.24245 0.271841 0.300969 0.329837 0.358442 0.386657 0.414354 0.441531 0.46819 0.49433 0.519951 0.545053 0.569637 0.593492 0.616412 0.638396 0.659444 0.679556 0.698732 0.716972 0.734276 0.75066 0.76614 0.780715 0.794386 0.807153 0.819015 0.829973 0.840027 0.849309 0.857954 0.86596 0.873327 0.880057 0.886148 0.891601 0.896415 0.900732 0.904692 0.908294 0.911539 0.914427 0.916957 0.91913 0.920946 0.922488 0.923837 0.924994 0.925959 0.926733 0.927314 0.927703 0.9279 0.927905 0.927717 0.927337 0.926765 0.926 0.925043 0.923894 0.922552 0.920935 0.918958 0.916622 0.913927 0.910873 0.907459 0.903687 0.899555 0.894921 0.889643 0.883721 0.877154 0.869944 0.862088 0.853589 0.844445 0.834521 0.82368 0.811922 0.799248 0.785657 0.771149 0.755725 0.739384 0.722108 0.703878 0.684695 0.664559 0.643468 0.621424 0.598427 0.574476 0.549781 0.524552 0.498787 0.472488 0.445655 0.418287 0.390384 0.361947 0.333106 0.303991 0.274603 0.244942 0.215007 0.1848 0.154319 0.123564 0.0946038 0.0695049 0.0482673 0.0308911 0.0173762 0.00772276 0.00193069 0 0 0.00209476 0.00837904 0.0188528 0.0335162 0.052369 0.0754114 0.102643 0.134065 0.167433 0.200505 0.233281 0.265761 0.297945 0.329833 0.361425 0.392721 0.42358 0.453864 0.483571 0.512702 0.541256 0.569234 0.596636 0.623462 0.649484 0.674478 0.698442 0.721378 0.743284 0.76416 0.784008 0.802826 0.820635 0.837456 0.853287 0.86813 0.881983 0.894848 0.906724 0.91761 0.927656 0.937007 0.945663 0.953626 0.960894 0.967468 0.973348 0.978534 0.983179 0.987439 0.991313 0.994801 0.997903 1.00062 1.00295 1.00489 1.00654 1.00799 1.00922 1.01026 1.01108 1.01171 1.01212 1.01233 1.01234 1.01214 1.01173 1.01112 1.01031 1.00928 1.00805 1.00662 1.00489 1.00277 1.00026 0.997369 0.994087 0.990416 0.986358 0.981912 0.976922 0.971231 0.96484 0.957748 0.949955 0.941462 0.932268 0.922373 0.911627 0.899879 0.887129 0.873376 0.858622 0.842865 0.826105 0.808344 0.789558 0.769723 0.74884 0.726908 0.703929 0.679901 0.654825 0.628701 0.601756 0.574217 0.546085 0.517359 0.48804 0.458128 0.427621 0.396522 0.364971 0.333111 0.300943 0.268465 0.235679 0.202584 0.16918 0.135468 0.103718 0.0762007 0.0529172 0.033867 0.0190502 0.00846674 0.00211669 0 0 0.00227758 0.00911033 0.0204982 0.0364413 0.0569395 0.0819929 0.111601 0.145765 0.18204 0.217983 0.253594 0.288873 0.32382 0.358434 0.392716 0.426666 0.460132 0.492964 0.525161 0.556722 0.587649 0.61794 0.647597 0.676619 0.704762 0.731783 0.757681 0.782457 0.806111 0.828643 0.850052 0.870338 0.889528 0.907645 0.924689 0.940662 0.955562 0.96939 0.982145 0.993828 1.0046 1.01463 1.0239 1.03243 1.04021 1.04724 1.05352 1.05905 1.064 1.06854 1.07267 1.07638 1.07968 1.08257 1.08505 1.08711 1.08885 1.09038 1.09169 1.09279 1.09366 1.09432 1.09477 1.09499 1.095 1.09479 1.09436 1.09371 1.09285 1.09176 1.09046 1.08895 1.08711 1.08486 1.0822 1.07912 1.07563 1.07172 1.06739 1.06265 1.05733 1.05125 1.04442 1.03683 1.02848 1.01938 1.00953 0.998915 0.987384 0.974766 0.961062 0.946271 0.930394 0.913431 0.895381 0.876245 0.855994 0.8346 0.812064 0.788385 0.763563 0.737598 0.71049 0.68224 0.653092 0.623289 0.592834 0.561725 0.529962 0.497545 0.464475 0.430752 0.396529 0.361959 0.327044 0.291782 0.256174 0.220221 0.183921 0.147275 0.112758 0.0828424 0.0575294 0.0368188 0.0207106 0.00920471 0.00230118 0 0 0.00245812 0.00983249 0.0221231 0.03933 0.0614531 0.0884924 0.120448 0.15732 0.196465 0.23524 0.273646 0.311682 0.349348 0.386644 0.42357 0.460127 0.496151 0.531481 0.566116 0.600056 0.633301 0.665852 0.697707 0.728868 0.759074 0.788065 0.815841 0.842401 0.867746 0.891876 0.914791 0.93649 0.957005 0.976366 0.994572 1.01162 1.02752 1.04227 1.05586 1.06829 1.07975 1.09041 1.10026 1.10932 1.11758 1.12503 1.13168 1.13754 1.14277 1.14757 1.15192 1.15584 1.15932 1.16236 1.16497 1.16713 1.16896 1.17057 1.17194 1.17309 1.17401 1.1747 1.17517 1.1754 1.17541 1.17519 1.17474 1.17407 1.17316 1.17203 1.17066 1.16907 1.16715 1.16478 1.16198 1.15873 1.15504 1.15092 1.14635 1.14134 1.13571 1.12927 1.12203 1.11397 1.10511 1.09544 1.08497 1.07368 1.06141 1.04796 1.03335 1.01757 1.00062 0.982505 0.963218 0.942761 0.921102 0.898206 0.874072 0.848702 0.822095 0.79425 0.765169 0.734851 0.703557 0.671548 0.638824 0.605386 0.571232 0.536364 0.500782 0.464484 0.427637 0.390405 0.352788 0.314786 0.2764 0.237629 0.198473 0.158932 0.121682 0.0893993 0.0620829 0.039733 0.0223498 0.00993326 0.00248331 0 0 0.00263555 0.0105422 0.02372 0.0421688 0.0658888 0.0948798 0.129142 0.168675 0.21064 0.252196 0.293343 0.334082 0.374412 0.414334 0.453847 0.492952 0.531474 0.569241 0.606252 0.642507 0.678007 0.71275 0.746738 0.77997 0.812171 0.843063 0.872649 0.900926 0.927896 0.953558 0.977913 1.00096 1.02274 1.04328 1.06259 1.08066 1.0975 1.1131 1.12748 1.14061 1.15271 1.16395 1.17435 1.18389 1.19258 1.20043 1.20742 1.21356 1.21904 1.22407 1.22863 1.23273 1.23637 1.23954 1.24226 1.24451 1.24642 1.24808 1.24952 1.25071 1.25167 1.25239 1.25287 1.25312 1.25312 1.2529 1.25243 1.25173 1.25079 1.24961 1.2482 1.24654 1.24454 1.24208 1.23915 1.23576 1.2319 1.22758 1.2228 1.21755 1.21164 1.20488 1.19726 1.18878 1.17944 1.16924 1.15819 1.14628 1.13331 1.1191 1.10363 1.08692 1.06896 1.04974 1.02928 1.00757 0.984566 0.960233 0.934569 0.907575 0.87925 0.849594 0.818608 0.786291 0.75292 0.718772 0.683847 0.648144 0.611665 0.574409 0.536375 0.497565 0.458153 0.418317 0.378057 0.337371 0.296262 0.254727 0.212768 0.170384 0.13045 0.0958411 0.0665563 0.0425961 0.0239603 0.010649 0.00266225 0 0 0.00280986 0.0112395 0.0252888 0.0449578 0.0702466 0.101155 0.137683 0.179831 0.224565 0.26885 0.312686 0.356074 0.399014 0.441505 0.483547 0.525141 0.566102 0.606244 0.645569 0.684076 0.721765 0.758636 0.794689 0.829924 0.864051 0.896777 0.928105 0.958032 0.98656 1.01369 1.03942 1.06375 1.08672 1.10838 1.12873 1.14777 1.16549 1.1819 1.19701 1.21079 1.22348 1.23526 1.24615 1.25614 1.26523 1.27342 1.28072 1.28711 1.29282 1.29804 1.30278 1.30704 1.31082 1.31411 1.31692 1.31925 1.32121 1.32293 1.32441 1.32564 1.32662 1.32737 1.32787 1.32812 1.32813 1.3279 1.32742 1.3267 1.32573 1.32452 1.32306 1.32136 1.3193 1.31675 1.31371 1.31019 1.30619 1.3017 1.29673 1.29127 1.28512 1.27807 1.2701 1.26124 1.25146 1.24078 1.2292 1.21671 1.2031 1.18817 1.1719 1.15431 1.13539 1.11515 1.09357 1.07067 1.04639 1.02068 0.993555 0.965003 0.935028 0.903629 0.870806 0.836559 0.801181 0.764961 0.727901 0.690001 0.65126 0.611679 0.571257 0.529994 0.488079 0.445697 0.40285 0.359538 0.31576 0.271516 0.226807 0.181632 0.139062 0.102168 0.0709498 0.0454079 0.0255419 0.011352 0.00283799 0 0 0.00298106 0.0119243 0.0268296 0.047697 0.0745266 0.107318 0.146072 0.190788 0.23824 0.285203 0.331675 0.377659 0.423152 0.468156 0.51267 0.556694 0.600033 0.642491 0.684067 0.724762 0.764576 0.803509 0.84156 0.87873 0.914714 0.949207 0.982209 1.01372 1.04374 1.07227 1.0993 1.12485 1.14896 1.17168 1.19301 1.21295 1.2315 1.24867 1.26444 1.27883 1.29206 1.30434 1.31567 1.32607 1.33552 1.34402 1.35159 1.35821 1.3641 1.3695 1.37439 1.37878 1.38267 1.38606 1.38895 1.39134 1.39335 1.39511 1.39662 1.39788 1.39889 1.39965 1.40016 1.40042 1.40043 1.4002 1.39971 1.39897 1.39798 1.39675 1.39526 1.39352 1.39141 1.38879 1.38567 1.38205 1.37792 1.37329 1.36815 1.36251 1.35615 1.34883 1.34057 1.33135 1.32118 1.31006 1.29799 1.28497 1.27077 1.25517 1.23816 1.21975 1.19994 1.17871 1.15609 1.13205 1.10656 1.07955 1.05103 1.02099 0.989429 0.956355 0.921764 0.885657 0.848339 0.810116 0.770988 0.730955 0.690017 0.648174 0.605426 0.561772 0.517412 0.472545 0.427169 0.381286 0.334894 0.287996 0.240589 0.192674 0.147516 0.108379 0.0752633 0.0481685 0.0270948 0.0120421 0.00301053 0 0 0.00314915 0.0125966 0.0283423 0.0503864 0.0787287 0.113369 0.154308 0.201545 0.251666 0.301254 0.35031 0.398835 0.446827 0.494287 0.541215 0.587611 0.633269 0.67798 0.721746 0.764566 0.80644 0.847369 0.887352 0.926389 0.964162 1.00035 1.03496 1.06799 1.09943 1.12929 1.15757 1.18427 1.20945 1.23316 1.25541 1.2762 1.29553 1.31339 1.32979 1.34473 1.35844 1.37117 1.38291 1.39367 1.40344 1.41222 1.42002 1.42683 1.43289 1.43843 1.44345 1.44796 1.45194 1.45541 1.45835 1.46078 1.46282 1.46461 1.46615 1.46743 1.46846 1.46923 1.46975 1.47002 1.47003 1.46979 1.4693 1.46855 1.46755 1.4663 1.46479 1.46303 1.46088 1.45821 1.45502 1.45131 1.44708 1.44233 1.43706 1.43127 1.42472 1.41718 1.40865 1.39912 1.3886 1.37708 1.36457 1.35107 1.33633 1.32011 1.30241 1.28324 1.26258 1.24044 1.21683 1.19173 1.16509 1.13685 1.10699 1.07553 1.04245 1.00777 0.971482 0.933584 0.894396 0.854237 0.813108 0.771007 0.727936 0.683895 0.638882 0.592899 0.546154 0.498859 0.451012 0.402615 0.353666 0.304166 0.254114 0.203512 0.155814 0.114475 0.0794968 0.050878 0.0286189 0.0127195 0.00317987 0 0 0.00331412 0.0132565 0.0298271 0.0530259 0.0828529 0.119308 0.162392 0.212104 0.264842 0.317004 0.368591 0.419603 0.470038 0.519899 0.569183 0.617893 0.665808 0.712713 0.758606 0.803487 0.847357 0.890216 0.932063 0.972899 1.01239 1.05021 1.08636 1.12084 1.15364 1.18477 1.21423 1.24201 1.26819 1.29284 1.31595 1.33752 1.35757 1.37607 1.39305 1.40848 1.42264 1.43577 1.44787 1.45895 1.469 1.47803 1.48602 1.49299 1.49919 1.50484 1.50997 1.51456 1.51861 1.52214 1.52512 1.52758 1.52964 1.53145 1.533 1.53429 1.53533 1.53611 1.53664 1.53691 1.53693 1.53669 1.53619 1.53544 1.53443 1.53317 1.53165 1.52988 1.52771 1.52501 1.52177 1.51799 1.51368 1.50884 1.50346 1.49754 1.49084 1.48311 1.47434 1.46454 1.45371 1.44184 1.42893 1.415 1.39977 1.38299 1.36465 1.34477 1.32333 1.30034 1.2758 1.2497 1.22198 1.19256 1.16144 1.12862 1.0941 1.05788 1.01996 0.98034 0.93935 0.897324 0.854259 0.810157 0.765018 0.718841 0.671626 0.623374 0.574305 0.52464 0.47438 0.423525 0.372073 0.320026 0.267383 0.214145 0.163955 0.120457 0.0836504 0.0535362 0.0301141 0.0133841 0.00334601 0 0 0.00347597 0.0139039 0.0312838 0.0556156 0.0868993 0.125135 0.170323 0.222462 0.277768 0.332453 0.386518 0.439962 0.492787 0.544991 0.596575 0.647538 0.697652 0.746688 0.794646 0.841526 0.887327 0.932051 0.975696 1.01826 1.05941 1.09879 1.13641 1.17227 1.20636 1.23869 1.26926 1.29807 1.32519 1.35071 1.37462 1.39692 1.41762 1.43672 1.45421 1.4701 1.48465 1.49813 1.51055 1.52191 1.5322 1.54143 1.54959 1.55669 1.56299 1.56873 1.57393 1.57859 1.58269 1.58625 1.58927 1.59174 1.5938 1.59561 1.59717 1.59846 1.59951 1.60029 1.60082 1.6011 1.60112 1.60088 1.60039 1.59964 1.59863 1.59737 1.59585 1.59408 1.5919 1.58918 1.58591 1.58209 1.57772 1.57281 1.56734 1.56133 1.55451 1.54662 1.53766 1.52762 1.51651 1.50433 1.49108 1.47676 1.46109 1.4438 1.42488 1.40434 1.38218 1.3584 1.33299 1.30596 1.27723 1.2467 1.21438 1.18027 1.14437 1.10668 1.0672 1.02592 0.983203 0.939376 0.894443 0.848405 0.801261 0.753012 0.703658 0.653198 0.601864 0.549889 0.497273 0.444016 0.390117 0.335577 0.280396 0.224573 0.171939 0.126322 0.0877239 0.0561433 0.0315806 0.0140358 0.00350896 0 0 0.00363471 0.0145389 0.0327124 0.0581554 0.0908678 0.13085 0.178101 0.232622 0.290444 0.3476 0.40409 0.459914 0.515072 0.569563 0.623388 0.676548 0.728801 0.779907 0.829868 0.878682 0.92635 0.972872 1.01825 1.06248 1.10521 1.14608 1.18511 1.22228 1.2576 1.29107 1.32268 1.35244 1.38044 1.40676 1.43142 1.45439 1.4757 1.49533 1.51328 1.52957 1.54446 1.55826 1.57095 1.58255 1.59304 1.60244 1.61073 1.61793 1.62429 1.6301 1.63535 1.64004 1.64418 1.64776 1.65078 1.65325 1.6553 1.65711 1.65866 1.65995 1.66099 1.66178 1.66231 1.66258 1.6626 1.66237 1.66188 1.66114 1.66014 1.65889 1.65738 1.65562 1.65345 1.65072 1.64744 1.6436 1.63919 1.63423 1.62872 1.62264 1.61573 1.60771 1.59859 1.58836 1.57702 1.56457 1.55102 1.53636 1.5203 1.50254 1.4831 1.46197 1.43914 1.41462 1.38841 1.36051 1.33083 1.29926 1.26581 1.23048 1.19327 1.15417 1.1132 1.07034 1.02595 0.980393 0.933659 0.88575 0.836667 0.786409 0.734977 0.68237 0.628832 0.574605 0.519691 0.464088 0.407798 0.350819 0.293152 0.234797 0.179766 0.132073 0.0917174 0.0586992 0.0330183 0.0146748 0.0036687 0 0 0.00378897 0.0151559 0.0341007 0.0606234 0.0947241 0.136403 0.185659 0.242494 0.302761 0.362315 0.421157 0.479287 0.536703 0.593407 0.649399 0.704677 0.758993 0.812093 0.863979 0.914651 0.964108 1.01235 1.05938 1.10519 1.14943 1.19172 1.23207 1.27049 1.30696 1.34149 1.37408 1.40473 1.43354 1.4606 1.48593 1.50952 1.53137 1.55148 1.56985 1.58648 1.60168 1.61574 1.62866 1.64046 1.65112 1.66064 1.66904 1.6763 1.68271 1.68855 1.69383 1.69854 1.70269 1.70627 1.70928 1.71173 1.71377 1.71556 1.71709 1.71838 1.71941 1.72019 1.72071 1.72099 1.72101 1.72078 1.7203 1.71957 1.71859 1.71735 1.71587 1.71413 1.71198 1.70926 1.70598 1.70213 1.69772 1.69273 1.68718 1.68107 1.6741 1.66598 1.65673 1.64634 1.63481 1.62214 1.60833 1.59337 1.57697 1.55881 1.5389 1.51722 1.49379 1.4686 1.44165 1.41295 1.38238 1.34984 1.31533 1.27885 1.2404 1.19998 1.15759 1.11323 1.06726 1.02005 0.971589 0.921888 0.870943 0.818755 0.765323 0.710646 0.654981 0.598579 0.541443 0.48357 0.424963 0.36562 0.305541 0.244727 0.187369 0.137659 0.0955965 0.0611817 0.0344147 0.0152954 0.00382386 0 0 0.00393735 0.0157494 0.0354362 0.0629977 0.0984338 0.141745 0.19293 0.251991 0.314609 0.376468 0.437568 0.497909 0.557492 0.616315 0.674379 0.731684 0.787969 0.842971 0.89669 0.949128 1.00028 1.05015 1.09874 1.14605 1.1917 1.23533 1.27693 1.3165 1.35404 1.38956 1.42305 1.45452 1.48407 1.51181 1.53775 1.5619 1.58423 1.60477 1.6235 1.64043 1.65588 1.67016 1.68328 1.69524 1.70603 1.71565 1.72412 1.73142 1.73785 1.7437 1.74899 1.7537 1.75784 1.7614 1.7644 1.76682 1.76882 1.77059 1.7721 1.77336 1.77438 1.77515 1.77567 1.77595 1.77597 1.77575 1.77528 1.77457 1.7736 1.77239 1.77093 1.76923 1.76711 1.76442 1.76115 1.75731 1.7529 1.74792 1.74236 1.73622 1.72922 1.72104 1.71169 1.70118 1.68949 1.67663 1.6626 1.6474 1.63071 1.61219 1.5918