<?xml version="1.0"?> 
<VTKFile type="StructuredGrid" version="0.1"> 
<StructuredGrid WholeExtent="0 128 0 128 0 0"> 
<Piece Extent="0 128 0 128 0 0"> 
<PointData>
<DataArray type="Float32" Name="u" format="ascii" NumberOfComponents="1"> 
0 0 0 0 0 0 0 0 0 0 0 0 0 0 0 0 0 0 0 0 0 0 0 0 0 0 0 0 0 0 0 0 0 0 0 0 0 0 0 0 0 0 0 0 0 0 0 0 0 0 0 0 0 0 0 0 0 0 0 0 0 0 0 0 0 0 0 0 0 0 0 0 0 0 0 0 0 0 0 0 0 0 0 0 0 0 0 0 0 0 0 0 0 0 0 0 0 0 0 0 0 0 0 0 0 0 0 0 0 0 0 0 0 0 0 0 0 0 0 0 0 0 0 0 0 0 0 0 0 0 1.24971e-05 4.99883e-05 0.000112474 0.000199953 0.000312427 0.000449895 0.000612357 0.000799813 0.000998949 0.00119645 0.00139231 0.00158654 0.00177913 0.00197009 0.00215941 0.0023471 0.00253227 0.00271406 0.00289247 0.0030675 0.00323915 0.00340741 0.00357229 0.00373378 0.00389051 0.00404106 0.00418546 0.00432368 0.00445575 0.00458164 0.00470137 0.00481494 0.00492243 0.00502393 0.00511945 0.00520897 0.0052925 0.00537005 0.00544161 0.00550718 0.00556764 0.00562386 0.00567585 0.00572361 0.00576714 0.00580644 0.0058415 0.00587232 0.00589986 0.00592505 0.00594788 0.00596836 0.00598649 0.00600227 0.0060157 0.00602678 0.00603606 0.0060441 0.00605091 0.00605648 0.00606082 0.00606392 0.00606578 0.0060664 0.00606579 0.00606394 0.00606085 0.00605653 0.00605097 0.00604418 0.00603614 0.00602687 0.00601581 0.00600239 0.00598663 0.00596851 0.00594804 0.00592522 0.00590004 0.00587252 0.0058417 0.00580665 0.00576737 0.00572386 0.00567611 0.00562413 0.00556791 0.00550746 0.0054419 0.00537035 0.00529282 0.00520929 0.00511977 0.00502427 0.00492277 0.00481529 0.00470173 0.004582 0.0044561 0.00432404 0.00418582 0.00404143 0.00389087 0.00373415 0.00357265 0.00340776 0.0032395 0.00306785 0.00289281 0.0027144 0.00253259 0.00234741 0.00215971 0.00197038 0.0017794 0.00158679 0.00139254 0.00119665 0.000999118 0.00079995 0.000612461 0.000449972 0.00031248 0.000199987 0.000112493 4.99968e-05 1.24992e-05 0 0 4.99883e-05 0.000199953 0.000449895 0.000799813 0.00124971 0.00179958 0.00244943 0.00319925 0.00399579 0.00478579 0.00556925 0.00634616 0.00711653 0.00788036 0.00863764 0.00938838 0.0101291 0.0108563 0.0115699 0.01227 0.0129566 0.0136296 0.0142892 0.0149351 0.015562 0.0161643 0.0167418 0.0172947 0.017823 0.0183266 0.0188055 0.0192598 0.0196897 0.0200957 0.0204778 0.0208359 0.02117 0.0214802 0.0217664 0.0220287 0.0222705 0.0224954 0.0227034 0.0228945 0.0230686 0.0232257 0.023366 0.0234893 0.0235994 0.0237002 0.0237915 0.0238734 0.023946 0.0240091 0.0240628 0.0241071 0.0241442 0.0241764 0.0242036 0.0242259 0.0242433 0.0242557 0.0242631 0.0242656 0.0242632 0.0242558 0.0242434 0.0242261 0.0242039 0.0241767 0.0241446 0.0241075 0.0240632 0.0240096 0.0239465 0.023874 0.0237922 0.0237009 0.0236002 0.0234901 0.0233668 0.0232266 0.0230695 0.0228954 0.0227044 0.0224965 0.0222716 0.0220298 0.0217676 0.0214814 0.0211713 0.0208372 0.0204791 0.0200971 0.0196911 0.0192612 0.0188069 0.018328 0.0178244 0.0172962 0.0167433 0.0161657 0.0155635 0.0149366 0.0142906 0.0136311 0.012958 0.0122714 0.0115713 0.0108576 0.0101304 0.00938963 0.00863885 0.00788151 0.00711761 0.00634716 0.00557015 0.00478659 0.00399647 0.0031998 0.00244985 0.00179989 0.00124992 0.00079995 0.000449972 0.000199987 4.99968e-05 0 0 0.000112474 0.000449895 0.00101226 0.00179958 0.00281184 0.00404905 0.00551121 0.00719832 0.00899054 0.010768 0.0125308 0.0142789 0.0160122 0.0177308 0.0194347 0.0211239 0.0227904 0.0244266 0.0260323 0.0276075 0.0291523 0.0306667 0.0321506 0.0336041 0.0350146 0.0363696 0.0376691 0.0389131 0.0401017 0.0412348 0.0423124 0.0433345 0.0443019 0.0452154 0.046075 0.0468807 0.0476325 0.0483305 0.0489745 0.0495646 0.0501087 0.0506148 0.0510827 0.0515125 0.0519043 0.0522579 0.0525735 0.0528509 0.0530988 0.0533254 0.0535309 0.0537153 0.0538784 0.0540204 0.0541413 0.054241 0.0543245 0.0543969 0.0544582 0.0545083 0.0545474 0.0545752 0.054592 0.0545976 0.0545921 0.0545755 0.0545477 0.0545088 0.0544588 0.0543976 0.0543253 0.0542419 0.0541423 0.0540215 0.0538796 0.0537166 0.0535324 0.053327 0.0531004 0.0528527 0.0525753 0.0522599 0.0519063 0.0515147 0.051085 0.0506171 0.0501112 0.0495672 0.0489771 0.0483332 0.0476353 0.0468836 0.046078 0.0452184 0.044305 0.0433376 0.0423155 0.041238 0.0401049 0.0389164 0.0376724 0.0363728 0.0350178 0.0336073 0.0321538 0.0306699 0.0291555 0.0276106 0.0260353 0.0244296 0.0227933 0.0211267 0.0194374 0.0177334 0.0160146 0.0142811 0.0125328 0.0107698 0.00899206 0.00719955 0.00551215 0.00404974 0.00281232 0.00179989 0.00101244 0.000449972 0.000112493 0 0 0.000199953 0.000799813 0.00179958 0.00319925 0.00499883 0.00719832 0.00979771 0.012797 0.0159832 0.0191432 0.022277 0.0253846 0.0284661 0.0315214 0.0345506 0.0375535 0.0405163 0.043425 0.0462796 0.04908 0.0518263 0.0545185 0.0571566 0.0597405 0.0622481 0.064657 0.0669673 0.0691789 0.0712919 0.0733063 0.075222 0.0770391 0.0787589 0.0803829 0.0819111 0.0833435 0.0846801 0.0859208 0.0870657 0.0881148 0.0890822 0.0899818 0.0908137 0.0915778 0.0922743 0.092903 0.0934639 0.0939572 0.0943978 0.0948007 0.0951661 0.0954938 0.0957839 0.0960363 0.0962512 0.0964284 0.0965769 0.0967056 0.0968146 0.0969037 0.0969731 0.0970227 0.0970524 0.0970624 0.0970526 0.0970231 0.0969737 0.0969045 0.0968156 0.0967068 0.0965783 0.09643 0.096253 0.0960383 0.095786 0.0954961 0.0951686 0.0948035 0.0944007 0.0939603 0.0934673 0.0929065 0.0922779 0.0915817 0.0908177 0.089986 0.0890866 0.0881194 0.0870704 0.0859257 0.0846851 0.0833486 0.0819164 0.0803883 0.0787644 0.0770446 0.0752276 0.073312 0.0712977 0.0691847 0.0669731 0.0646628 0.0622539 0.0597463 0.0571623 0.0545242 0.051832 0.0490856 0.046285 0.0434303 0.0405215 0.0375585 0.0345554 0.031526 0.0284704 0.0253886 0.0222806 0.0191463 0.0159859 0.0127992 0.00979938 0.00719955 0.00499968 0.0031998 0.00179989 0.00079995 0.000199987 0 0 0.000312427 0.00124971 0.00281184 0.00499883 0.00781068 0.0112474 0.0153089 0.0199953 0.0249737 0.0299112 0.0348078 0.0396635 0.0444783 0.0492522 0.0539853 0.0586774 0.0633068 0.0678516 0.0723119 0.0766875 0.0809787 0.0851852 0.0893072 0.0933446 0.0972627 0.101027 0.104636 0.108092 0.111394 0.114541 0.117534 0.120374 0.123061 0.125598 0.127986 0.130224 0.132313 0.134251 0.13604 0.137679 0.139191 0.140597 0.141896 0.14309 0.144179 0.145161 0.146037 0.146808 0.147497 0.148126 0.148697 0.149209 0.149662 0.150057 0.150392 0.150669 0.150901 0.151103 0.151273 0.151412 0.15152 0.151598 0.151644 0.15166 0.151645 0.151599 0.151521 0.151413 0.151274 0.151104 0.150904 0.150672 0.150395 0.15006 0.149666 0.149213 0.148701 0.14813 0.147501 0.146813 0.146043 0.145166 0.144184 0.143096 0.141903 0.140603 0.139198 0.137687 0.136048 0.134259 0.13232 0.130232 0.127994 0.125607 0.123069 0.120382 0.117543 0.11455 0.111403 0.108101 0.104645 0.101036 0.0972717 0.0933536 0.0893162 0.0851941 0.0809874 0.0766962 0.0723203 0.0678599 0.0633148 0.0586852 0.0539928 0.0492594 0.0444851 0.0396697 0.0348134 0.0299162 0.0249779 0.0199987 0.0153115 0.0112493 0.00781201 0.00499968 0.00281232 0.00124992 0.00031248 0 0 0.000449895 0.00179958 0.00404905 0.00719832 0.0112474 0.0161962 0.0220449 0.0287933 0.0359622 0.0430721 0.0501232 0.0571155 0.0640488 0.0709232 0.0777388 0.0844954 0.0911618 0.0977063 0.104129 0.11043 0.116609 0.122667 0.128602 0.134416 0.140058 0.145478 0.150676 0.155653 0.160407 0.164939 0.169249 0.173338 0.177208 0.180862 0.1843 0.187523 0.19053 0.193322 0.195898 0.198258 0.200435 0.202459 0.204331 0.20605 0.207617 0.209032 0.210294 0.211404 0.212395 0.213302 0.214124 0.214861 0.215514 0.216082 0.216565 0.216964 0.217298 0.217588 0.217833 0.218033 0.218189 0.218301 0.218368 0.21839 0.218368 0.218302 0.218191 0.218035 0.217835 0.21759 0.217301 0.216967 0.216569 0.216086 0.215519 0.214866 0.214129 0.213308 0.212402 0.211411 0.210301 0.20904 0.207625 0.206059 0.20434 0.202469 0.200445 0.198269 0.195909 0.193333 0.190541 0.187534 0.184312 0.180874 0.17722 0.17335 0.169262 0.164952 0.16042 0.155666 0.150689 0.145491 0.140071 0.134429 0.128615 0.122679 0.116622 0.110443 0.104141 0.0977182 0.0911734 0.0845067 0.0777496 0.0709335 0.0640585 0.0571244 0.0501313 0.0430793 0.0359682 0.0287982 0.0220486 0.016199 0.0112493 0.00719955 0.00404974 0.00179989 0.000449972 0 0 0.000612357 0.00244943 0.00551121 0.00979771 0.0153089 0.0220449 0.0300055 0.0391908 0.0489485 0.058626 0.0682233 0.0777405 0.0871775 0.0965344 0.105811 0.115008 0.124081 0.132989 0.141731 0.150308 0.158718 0.166963 0.175042 0.182955 0.190635 0.198012 0.205087 0.21186 0.218332 0.2245 0.230367 0.235932 0.241199 0.246173 0.250853 0.255239 0.259333 0.263132 0.266639 0.269852 0.272814 0.275569 0.278117 0.280457 0.28259 0.284515 0.286233 0.287744 0.289093 0.290327 0.291446 0.29245 0.293338 0.294111 0.294769 0.295312 0.295767 0.296161 0.296495 0.296768 0.29698 0.297132 0.297223 0.297254 0.297224 0.297133 0.296982 0.29677 0.296498 0.296165 0.295771 0.295317 0.294775 0.294117 0.293345 0.292457 0.291454 0.290336 0.289102 0.287754 0.286243 0.284526 0.282601 0.280469 0.278129 0.275582 0.272828 0.269866 0.266653 0.263147 0.259348 0.255255 0.250869 0.246189 0.241216 0.235949 0.230385 0.224518 0.218349 0.211878 0.205105 0.19803 0.190653 0.182973 0.17506 0.16698 0.158735 0.150325 0.141748 0.133005 0.124097 0.115023 0.105826 0.0965484 0.0871907 0.0777527 0.0682343 0.0586357 0.0489568 0.0391975 0.0300106 0.0220486 0.0153115 0.00979938 0.00551215 0.00244985 0.000612461 0 0 0.000799813 0.00319925 0.00719832 0.012797 0.0199953 0.0287933 0.0391908 0.051188 0.0639327 0.0765727 0.089108 0.101539 0.113864 0.126086 0.138202 0.150214 0.162065 0.1737 0.185118 0.19632 0.207305 0.218074 0.228626 0.238962 0.248992 0.258628 0.267869 0.276716 0.285168 0.293225 0.300888 0.308156 0.315036 0.321532 0.327644 0.333374 0.33872 0.343683 0.348263 0.352459 0.356329 0.359927 0.363255 0.366311 0.369097 0.371612 0.373856 0.375829 0.377591 0.379203 0.380664 0.381975 0.383135 0.384145 0.385005 0.385714 0.386308 0.386823 0.387258 0.387615 0.387892 0.388091 0.38821 0.38825 0.388211 0.388092 0.387895 0.387618 0.387262 0.386827 0.386313 0.38572 0.385012 0.384153 0.383144 0.381985 0.380674 0.379214 0.377603 0.375841 0.373869 0.371626 0.369112 0.366327 0.363271 0.359944 0.356346 0.352478 0.348282 0.343703 0.33874 0.333395 0.327665 0.321553 0.315057 0.308178 0.30091 0.293248 0.285191 0.276739 0.267892 0.258651 0.249016 0.238985 0.228649 0.218097 0.207328 0.196342 0.18514 0.173721 0.162086 0.150234 0.138222 0.126104 0.113882 0.101555 0.0891224 0.0765854 0.0639435 0.0511968 0.0391975 0.0287982 0.0199987 0.0127992 0.00719955 0.0031998 0.00079995 0 0 0.000998948 0.00399579 0.00899053 0.0159832 0.0249737 0.0359621 0.0489484 0.0639326 0.0798499 0.0956355 0.111289 0.126811 0.142202 0.157461 0.172587 0.187583 0.202376 0.216899 0.23115 0.245131 0.25884 0.272277 0.285444 0.298339 0.310853 0.322873 0.3344 0.345434 0.355975 0.366023 0.375578 0.38464 0.393216 0.401313 0.408932 0.416073 0.422735 0.428919 0.434625 0.439852 0.444671 0.449153 0.453296 0.457102 0.46057 0.463701 0.466493 0.468948 0.471141 0.473146 0.474963 0.476594 0.478037 0.479292 0.48036 0.481241 0.481979 0.482619 0.48316 0.483603 0.483948 0.484194 0.484342 0.484392 0.484343 0.484196 0.483951 0.483607 0.483165 0.482625 0.481986 0.481249 0.480369 0.479302 0.478047 0.476605 0.474976 0.473159 0.471155 0.468964 0.46651 0.463718 0.460589 0.457121 0.453316 0.449174 0.444693 0.439875 0.434648 0.428944 0.42276 0.416099 0.408958 0.40134 0.393243 0.384667 0.375606 0.366051 0.356004 0.345463 0.334429 0.322902 0.310882 0.298368 0.285473 0.272306 0.258867 0.245158 0.231177 0.216925 0.202402 0.187608 0.172611 0.157483 0.142223 0.126831 0.111307 0.0956513 0.0798634 0.0639435 0.0489568 0.0359682 0.0249779 0.0159859 0.00899206 0.00399647 0.000999117 0 0 0.00119644 0.00478578 0.010768 0.0191431 0.0299111 0.043072 0.0586258 0.0765724 0.0956353 0.114538 0.133279 0.151861 0.170282 0.188542 0.206642 0.224581 0.242277 0.259645 0.276687 0.293402 0.309789 0.32585 0.341584 0.35699 0.371938 0.386294 0.400059 0.413232 0.425814 0.437805 0.449204 0.460012 0.470238 0.479892 0.488974 0.497483 0.505421 0.512786 0.51958 0.525801 0.531535 0.536866 0.541794 0.546319 0.550442 0.554161 0.557478 0.560392 0.562993 0.565372 0.567528 0.569461 0.571172 0.57266 0.573925 0.574967 0.57584 0.576597 0.577237 0.577761 0.578169 0.57846 0.578636 0.578694 0.578637 0.578463 0.578173 0.577766 0.577243 0.576604 0.575848 0.574977 0.573935 0.572671 0.571185 0.569475 0.567543 0.565388 0.563011 0.560411 0.557498 0.554182 0.550463 0.546342 0.541818 0.536891 0.531561 0.525828 0.519608 0.512815 0.50545 0.497514 0.489005 0.479923 0.47027 0.460044 0.449237 0.437838 0.425848 0.413266 0.400093 0.386328 0.371972 0.357024 0.341618 0.325884 0.309822 0.293434 0.276719 0.259677 0.242307 0.224611 0.20667 0.188569 0.170307 0.151884 0.133301 0.114556 0.0956513 0.0765853 0.0586357 0.0430793 0.0299162 0.0191463 0.0107698 0.00478658 0.00119665 0 0 0.0013923 0.00556921 0.0125307 0.0222768 0.0348076 0.0501229 0.0682228 0.0891074 0.111289 0.133279 0.155078 0.176687 0.198104 0.21933 0.240365 0.26121 0.281766 0.301939 0.321728 0.341133 0.360155 0.378792 0.397045 0.414914 0.432247 0.448891 0.464844 0.480109 0.494684 0.508569 0.521766 0.534272 0.546102 0.557267 0.567768 0.577605 0.586777 0.595284 0.603127 0.610306 0.616919 0.623066 0.628747 0.633962 0.638711 0.642994 0.64681 0.650161 0.65315 0.655882 0.658359 0.660578 0.662541 0.664248 0.665698 0.666892 0.667891 0.668757 0.669489 0.670089 0.670555 0.670889 0.671089 0.671156 0.67109 0.670891 0.670559 0.670094 0.669496 0.668765 0.6679 0.666903 0.66571 0.664261 0.662556 0.660594 0.658376 0.655901 0.65317 0.650182 0.646833 0.643017 0.638736 0.633988 0.628775 0.623095 0.616949 0.610337 0.603159 0.595317 0.586811 0.57764 0.567804 0.557304 0.546139 0.53431 0.521804 0.508608 0.494723 0.480148 0.464884 0.44893 0.432287 0.414954 0.397084 0.378831 0.360193 0.341171 0.321765 0.301976 0.281802 0.261244 0.240398 0.219362 0.198133 0.176714 0.155103 0.133301 0.111307 0.0891223 0.0682342 0.0501313 0.0348134 0.0222806 0.0125328 0.00557014 0.00139254 0 0 0.00158652 0.00634609 0.0142787 0.0253844 0.0396631 0.0571149 0.0777397 0.101538 0.12681 0.15186 0.176686 0.201289 0.225669 0.249825 0.273758 0.297468 0.320846 0.343781 0.366274 0.388326 0.409935 0.431103 0.451829 0.472112 0.491781 0.510663 0.528758 0.546065 0.562585 0.578318 0.593263 0.607422 0.620809 0.63344 0.645316 0.656437 0.666803 0.676412 0.685267 0.693366 0.700824 0.707754 0.714156 0.720031 0.725378 0.730198 0.734489 0.738254 0.741609 0.744677 0.747455 0.749945 0.752145 0.754057 0.755681 0.757015 0.758131 0.759098 0.759916 0.760586 0.761107 0.761479 0.761703 0.761778 0.761705 0.761482 0.761111 0.760592 0.759924 0.759107 0.758141 0.757027 0.755694 0.754072 0.752162 0.749962 0.747474 0.744697 0.741632 0.738277 0.734515 0.730224 0.725406 0.720061 0.714187 0.707786 0.700857 0.693401 0.685303 0.67645 0.666841 0.656476 0.645357 0.633481 0.62085 0.607464 0.593307 0.578362 0.562629 0.546109 0.528802 0.510708 0.491826 0.472157 0.451873 0.431147 0.409979 0.388368 0.366316 0.343822 0.320885 0.297507 0.273795 0.24986 0.225702 0.20132 0.176714 0.151884 0.126831 0.101554 0.0777525 0.0571243 0.0396696 0.0253886 0.0142811 0.00634714 0.00158679 0 0 0.00177911 0.00711643 0.016012 0.0284657 0.0444777 0.0640478 0.0871762 0.113863 0.1422 0.17028 0.198102 0.225668 0.252976 0.280027 0.30682 0.333357 0.359514 0.38517 0.410325 0.434979 0.459132 0.482783 0.505934 0.528583 0.55054 0.571612 0.591798 0.6111 0.629517 0.64705 0.663697 0.67946 0.694357 0.70841 0.721618 0.733981 0.745499 0.756172 0.766 0.774983 0.78325 0.790929 0.798022 0.804526 0.810444 0.815773 0.820516 0.824671 0.828373 0.831755 0.834817 0.83756 0.839983 0.842087 0.843872 0.845337 0.84656 0.847621 0.848518 0.849252 0.849824 0.850232 0.850478 0.85056 0.850479 0.850236 0.849829 0.849259 0.848526 0.84763 0.846572 0.84535 0.843887 0.842104 0.840002 0.83758 0.834838 0.831778 0.828397 0.824697 0.820544 0.815803 0.810475 0.804559 0.798056 0.790965 0.783287 0.775021 0.76604 0.756213 0.745541 0.734024 0.721662 0.708455 0.694404 0.679507 0.663745 0.647098 0.629566 0.611149 0.591848 0.571661 0.550589 0.528633 0.505983 0.482832 0.45918 0.435026 0.410371 0.385215 0.359558 0.3334 0.306862 0.280066 0.253013 0.225702 0.198133 0.170307 0.142223 0.113881 0.0871905 0.0640583 0.0444849 0.0284704 0.0160146 0.00711759 0.0017794 0 0 0.00197005 0.00788021 0.0177305 0.0315208 0.0492513 0.0709219 0.0965325 0.126083 0.157458 0.188539 0.219328 0.249823 0.280026 0.309935 0.339552 0.368875 0.397772 0.426107 0.453881 0.481093 0.507744 0.533833 0.559361 0.584328 0.608523 0.631736 0.653966 0.675215 0.695481 0.714765 0.733067 0.750386 0.766748 0.782177 0.796673 0.810235 0.822865 0.834562 0.845325 0.855155 0.864197 0.872592 0.880343 0.887447 0.893907 0.899721 0.90489 0.909413 0.913439 0.917116 0.920445 0.923425 0.926056 0.928338 0.930272 0.931857 0.933179 0.934325 0.935295 0.936089 0.936706 0.937147 0.937413 0.937502 0.937414 0.937151 0.936711 0.936096 0.935304 0.934336 0.933191 0.931871 0.930288 0.928356 0.926076 0.923446 0.920468 0.917141 0.913466 0.909441 0.90492 0.899753 0.893941 0.887483 0.88038 0.872631 0.864237 0.855197 0.845368 0.834606 0.822911 0.810283 0.796721 0.782227 0.766799 0.750438 0.733119 0.714818 0.695534 0.675268 0.65402 0.63179 0.608577 0.584382 0.559415 0.533886 0.507796 0.481144 0.453931 0.426156 0.39782 0.368922 0.339597 0.309978 0.280066 0.24986 0.219361 0.188569 0.157483 0.126104 0.0965481 0.0709333 0.0492592 0.0315259 0.0177333 0.00788148 0.00197037 0 0 0.00215936 0.00863744 0.0194342 0.0345497 0.053984 0.0777369 0.105809 0.138199 0.172584 0.206638 0.240361 0.273755 0.306818 0.33955 0.371952 0.404024 0.435619 0.466591 0.496941 0.526668 0.555771 0.584253 0.612111 0.639346 0.665731 0.691036 0.715262 0.738408 0.760476 0.781464 0.801372 0.820201 0.837981 0.854741 0.870481 0.885201 0.898902 0.911582 0.923243 0.933884 0.943664 0.952743 0.961119 0.968795 0.975768 0.98204 0.987611 0.992479 0.996809 1.00076 1.00434 1.00754 1.01036 1.01281 1.01488 1.01657 1.01799 1.01921 1.02025 1.02109 1.02175 1.02222 1.02251 1.0226 1.02251 1.02223 1.02176 1.0211 1.02026 1.01922 1.018 1.01659 1.0149 1.01283 1.01038 1.00756 1.00436 1.00079 0.996838 0.99251 0.987643 0.982075 0.975805 0.968833 0.961159 0.952784 0.943707 0.933929 0.92329 0.91163 0.898951 0.885252 0.870533 0.854794 0.838036 0.820257 0.801429 0.781521 0.760533 0.738466 0.71532 0.691094 0.665789 0.639405 0.612169 0.58431 0.555828 0.526723 0.496995 0.466645 0.435671 0.404074 0.372001 0.339596 0.306861 0.273795 0.240398 0.20667 0.172611 0.138221 0.105825 0.0777493 0.0539925 0.0345552 0.0194373 0.00863881 0.0021597 0 0 0.00234703 0.00938812 0.0211233 0.0375525 0.0586757 0.084493 0.115004 0.15021 0.187578 0.224576 0.261204 0.297463 0.333352 0.368872 0.404022 0.438803 0.473056 0.506623 0.539506 0.571703 0.603215 0.634041 0.664182 0.693638 0.722163 0.749512 0.775685 0.800681 0.824502 0.847146 0.868614 0.888905 0.908056 0.926102 0.943043 0.958878 0.973609 0.987234 0.999754 1.01117 1.02165 1.03138 1.04035 1.04857 1.05603 1.06273 1.06868 1.07387 1.07848 1.08269 1.0865 1.0899 1.0929 1.0955 1.0977 1.09949 1.10098 1.10228 1.10337 1.10427 1.10497 1.10546 1.10576 1.10586 1.10577 1.10547 1.10497 1.10428 1.10338 1.10229 1.101 1.09951 1.09772 1.09552 1.09293 1.08993 1.08652 1.08272 1.07851 1.0739 1.06871 1.06277 1.05607 1.04861 1.04039 1.03142 1.0217 1.01122 0.999803 0.987285 0.973662 0.958933 0.943099 0.926159 0.908115 0.888965 0.868674 0.847207 0.824563 0.800743 0.775747 0.749575 0.722226 0.6937 0.664244 0.634102 0.603275 0.571762 0.539564 0.506681 0.473111 0.438857 0.404074 0.368921 0.333399 0.297506 0.261243 0.22461 0.187607 0.150233 0.115022 0.0845062 0.0586849 0.0375583 0.0211266 0.00938958 0.0023474 0 0 0.00253219 0.0101288 0.0227897 0.040515 0.0633047 0.0911588 0.124077 0.16206 0.20237 0.24227 0.281759 0.320838 0.359507 0.397766 0.435615 0.473053 0.509912 0.546022 0.581383 0.615995 0.649859 0.682973 0.715338 0.746955 0.77756 0.806893 0.834954 0.861742 0.887257 0.911499 0.934469 0.956166 0.976633 0.995911 1.014 1.0309 1.04661 1.06113 1.07447 1.08661 1.09776 1.1081 1.11763 1.12635 1.13426 1.14136 1.14766 1.15315 1.15802 1.16246 1.16647 1.17006 1.17322 1.17596 1.17827 1.18015 1.18171 1.18306 1.18421 1.18515 1.18588 1.1864 1.18671 1.18682 1.18671 1.1864 1.18588 1.18516 1.18422 1.18308 1.18172 1.18016 1.17829 1.17598 1.17325 1.17009 1.1665 1.16249 1.15805 1.15318 1.1477 1.1414 1.1343 1.12639 1.11767 1.10814 1.09781 1.08666 1.07452 1.06119 1.04667 1.03096 1.01406 0.995971 0.976695 0.956229 0.934533 0.911564 0.887322 0.861808 0.83502 0.80696 0.777627 0.747021 0.715404 0.683038 0.649923 0.616059 0.581445 0.546083 0.509971 0.473111 0.43567 0.397819 0.359557 0.320884 0.2818 0.242306 0.202401 0.162085 0.124096 0.0911728 0.0633144 0.0405212 0.0227932 0.0101303 0.00253258 0 0 0.00271396 0.0108559 0.0244257 0.0434234 0.0678491 0.0977027 0.132984 0.173694 0.216891 0.259637 0.30193 0.343772 0.385161 0.426099 0.466585 0.506619 0.54602 0.584607 0.622381 0.659342 0.695489 0.730822 0.765342 0.799048 0.831663 0.86291 0.892788 0.921298 0.948439 0.974212 0.998617 1.02165 1.04337 1.06382 1.08299 1.1009 1.11753 1.1329 1.147 1.15982 1.17158 1.18248 1.19253 1.20171 1.21004 1.21751 1.22412 1.22987 1.23497 1.23962 1.24382 1.24757 1.25087 1.25372 1.25612 1.25808 1.2597 1.2611 1.26229 1.26326 1.26402 1.26456 1.26488 1.26499 1.26489 1.26456 1.26402 1.26327 1.2623 1.26111 1.25971 1.25809 1.25614 1.25374 1.25089 1.24759 1.24385 1.23965 1.235 1.22991 1.22416 1.21755 1.21008 1.20176 1.19257 1.18253 1.17163 1.15987 1.14705 1.13296 1.11759 1.10096 1.08306 1.06388 1.04344 1.02172 0.998685 0.974281 0.948508 0.921367 0.892858 0.86298 0.831733 0.799118 0.765411 0.730891 0.695557 0.659409 0.622447 0.584672 0.546082 0.506679 0.466643 0.426155 0.385213 0.34382 0.301974 0.259675 0.216924 0.17372 0.133004 0.0977175 0.0678593 0.04343 0.0244294 0.0108575 0.00271437 0 0 0.00289236 0.0115694 0.0260312 0.0462777 0.0723089 0.104125 0.141725 0.185111 0.231141 0.276677 0.321717 0.366263 0.410314 0.453871 0.496932 0.539499 0.581379 0.622379 0.6625 0.701742 0.740105 0.777588 0.814192 0.849917 0.884471 0.917561 0.949187 0.97935 1.00805 1.03529 1.06106 1.08537 1.10827 1.12982 1.15002 1.16888 1.18638 1.20253 1.21734 1.23079 1.24312 1.25454 1.26505 1.27466 1.28336 1.29116 1.29805 1.30404 1.30934 1.31417 1.31853 1.32242 1.32584 1.32879 1.33127 1.33328 1.33495 1.33639 1.33761 1.33861 1.33939 1.33995 1.34028 1.34039 1.34028 1.33995 1.3394 1.33862 1.33762 1.3364 1.33496 1.3333 1.33129 1.32881 1.32586 1.32245 1.31856 1.3142 1.30937 1.30408 1.29809 1.2912 1.28341 1.27471 1.2651 1.25459 1.24317 1.23085 1.21739 1.20259 1.18644 1.16894 1.15009 1.12989 1.10834 1.08544 1.06113 1.03536 1.00812 0.979423 0.94926 0.917634 0.884544 0.84999 0.814265 0.77766 0.740176 0.701812 0.662569 0.622446 0.581444 0.539562 0.496993 0.453929 0.410369 0.366313 0.321763 0.276717 0.231175 0.185138 0.141747 0.10414 0.0723196 0.0462846 0.0260351 0.0115711 0.00289279 0 0 0.00306737 0.0122695 0.0276063 0.0490779 0.0766842 0.110425 0.150301 0.196311 0.24512 0.29339 0.341121 0.388313 0.434966 0.481081 0.526657 0.571694 0.615988 0.659337 0.70174 0.743196 0.783707 0.823272 0.86189 0.899563 0.935984 0.970846 1.00415 1.0359 1.06609 1.09472 1.12179 1.14731 1.17133 1.19392 1.21509 1.23483 1.25315 1.27003 1.28549 1.29953 1.31237 1.32426 1.3352 1.3452 1.35424 1.36233 1.36947 1.37566 1.38113 1.38611 1.3906 1.39461 1.39813 1.40116 1.40371 1.40576 1.40746 1.40893 1.41018 1.4112 1.41199 1.41256 1.4129 1.41301 1.4129 1.41256 1.412 1.41121 1.41019 1.40895 1.40748 1.40578 1.40373 1.40119 1.39816 1.39464 1.39064 1.38614 1.38116 1.3757 1.36951 1.36237 1.35428 1.34525 1.33526 1.32432 1.31242 1.29958 1.28555 1.27009 1.25321 1.2349 1.21516 1.19399 1.1714 1.14738 1.12186 1.09479 1.06616 1.03597 1.00423 0.970923 0.93606 0.899639 0.861966 0.823347 0.783781 0.743269 0.701811 0.659407 0.616056 0.57176 0.52672 0.481141 0.435023 0.388365 0.341168 0.293431 0.245155 0.19634 0.150323 0.110441 0.0766953 0.049085 0.0276103 0.0122713 0.00306781 0 0 0.00323899 0.012956 0.0291509 0.0518239 0.0809748 0.116604 0.158711 0.207296 0.258827 0.309776 0.36014 0.40992 0.459117 0.507729 0.555758 0.603203 0.649849 0.695481 0.7401 0.783704 0.826295 0.867872 0.908436 0.947985 0.986202 1.02277 1.05768 1.09094 1.12255 1.15251 1.18082 1.20747 1.23255 1.25612 1.27819 1.29876 1.31783 1.3354 1.35146 1.36602 1.37934 1.39166 1.40298 1.41332 1.42266 1.43101 1.43836 1.44472 1.45033 1.45544 1.46005 1.46415 1.46775 1.47084 1.47343 1.47552 1.47724 1.47873 1.47999 1.48102 1.48182 1.4824 1.48274 1.48286 1.48274 1.4824 1.48183 1.48103 1.48 1.47874 1.47725 1.47554 1.47345 1.47087 1.46778 1.46418 1.46008 1.45548 1.45037 1.44476 1.4384 1.43105 1.42271 1.41337 1.40304 1.39171 1.37939 1.36608 1.35152 1.33546 1.3179 1.29883 1.27826 1.25619 1.23262 1.20754 1.18089 1.15259 1.12263 1.09102 1.05776 1.02285 0.986281 0.948064 0.908514 0.86795 0.826372 0.78378 0.740174 0.695554 0.649919 0.603271 0.555824 0.507792 0.459175 0.409974 0.360189 0.309819 0.258864 0.207325 0.158733 0.11662 0.0809864 0.0518313 0.0291551 0.0129578 0.00323945 0 0 0.00340724 0.0136289 0.0306651 0.0545158 0.0851809 0.12266 0.166955 0.218063 0.272264 0.325834 0.378775 0.431086 0.482766 0.533816 0.584237 0.634027 0.68296 0.730812 0.77758 0.823266 0.86787 0.91139 0.953828 0.995184 1.03513 1.07332 1.10977 1.14448 1.17744 1.20866 1.23813 1.26586 1.29193 1.31642 1.33934 1.36068 1.38044 1.39863 1.41525 1.43028 1.44402 1.45672 1.46839 1.47902 1.48863 1.49719 1.50473 1.51123 1.51696 1.52217 1.52686 1.53103 1.53469 1.53783 1.54045 1.54255 1.54428 1.54577 1.54704 1.54808 1.54889 1.54946 1.54981 1.54993 1.54981 1.54947 1.54889 1.54809 1.54705 1.54579 1.54429 1.54257 1.54047 1.53785 1.53472 1.53106 1.52689 1.5222 1.517 1.51127 1.50477 1.49724 1.48867 1.47907 1.46844 1.45678 1.44408 1.43035 1.41531 1.3987 1.38051 1.36075 1.33941 1.31649 1.292 1.26594 1.23821 1.20874 1.17752 1.14456 1.10986 1.0734 1.03521 0.995265 0.953909 0.911471 0.867949 0.823344 0.777657 0.730887 0.683033 0.634097 0.584304 0.533881 0.482826 0.431141 0.378825 0.325879 0.272302 0.218094 0.166978 0.122678 0.0851928 0.0545234 0.0306694 0.0136308 0.00340771 0 0 0.0035721 0.0142884 0.0321489 0.0571535 0.0893024 0.128595 0.175033 0.228614 0.285429 0.341566 0.397026 0.451809 0.505914 0.559342 0.612092 0.664165 0.715323 0.765329 0.814182 0.861882 0.90843 0.953825 0.998068 1.04116 1.08275 1.12251 1.16043 1.19652 1.23076 1.26317 1.29374 1.32248 1.34947 1.37481 1.39851 1.42056 1.44097 1.45973 1.47684 1.49231 1.50642 1.51945 1.53142 1.54232 1.55214 1.56089 1.56858 1.57519 1.581 1.58629 1.59104 1.59526 1.59895 1.60212 1.60475 1.60686 1.60858 1.61007 1.61134 1.61237 1.61318 1.61375 1.6141 1.61422 1.6141 1.61376 1.61319 1.61238 1.61135 1.61009 1.6086 1.60688 1.60478 1.60214 1.59898 1.59529 1.59107 1.58632 1.58104 1.57523 1.56862 1.56094 1.55219 1.54237 1.53147 1.51951 1.50648 1.49237 1.47691 1.4598 1.44104 1.42064 1.39859 1.37489 1.34955 1.32255 1.29382 1.26325 1.23084 1.1966 1.16052 1.1226 1.08284 1.04124 0.998152 0.953908 0.908511 0.861962 0.81426 0.765405 0.715398 0.664238 0.612162 0.559408 0.505976 0.451866 0.397078 0.341612 0.285468 0.228645 0.175057 0.128613 0.0893146 0.0571614 0.0321533 0.0142903 0.00357258 0 0 0.00373357 0.0149343 0.0336022 0.0597372 0.0933393 0.134409 0.182945 0.238949 0.298323 0.356971 0.414894 0.47209 0.528561 0.584306 0.639325 0.693618 0.746937 0.799032 0.849903 0.899552 0.947976 0.995178 1.04116 1.08591 1.12909 1.17034 1.20966 1.24705 1.28251 1.31604 1.34764 1.37732 1.40517 1.43131 1.45573 1.47843 1.49942 1.5187 1.53625 1.5521 1.56653 1.57986 1.59208 1.60319 1.6132 1.6221 1.6299 1.63659 1.64246 1.64779 1.65258 1.65683 1.66054 1.66372 1.66635 1.66844 1.67015 1.67163 1.67288 1.6739 1.6747 1.67527 1.67561 1.67573 1.67562 1.67528 1.67471 1.67391 1.67289 1.67164 1.67016 1.66846 1.66637 1.66374 1.66057 1.65687 1.65262 1.64783 1.6425 1.63664 1.62995 1.62215 1.61325 1.60325 1.59213 1.57991 1.56659 1.55216 1.53632 1.51876 1.49949 1.4785 1.4558 1.43138 1.40525 1.3774 1.34773 1.31612 1.28259 1.24713 1.20974 1.17042 1.12917 1.086 1.04124 0.995262 0.94806 0.899634 0.849984 0.79911 0.747013 0.693692 0.639396 0.584374 0.528624 0.472149 0.414947 0.357018 0.298362 0.238981 0.18297 0.134427 0.0933518 0.0597451 0.0336066 0.0149363 0.00373407 0 0 0.00389028 0.0155611 0.0350125 0.0622444 0.0972569 0.14005 0.190624 0.248978 0.310835 0.371917 0.432224 0.491757 0.550515 0.608498 0.665707 0.72214 0.777539 0.831644 0.884454 0.935969 0.98619 1.03512 1.08275 1.12909 1.17377 1.21643 1.25707 1.29569 1.33229 1.36688 1.39944 1.42998 1.45863 1.48549 1.51057 1.53387 1.55539 1.57512 1.59307 1.60924 1.62395 1.63753 1.64996 1.66126 1.67142 1.68044 1.68832 1.69506 1.70096 1.70631 1.71112 1.71538 1.71908 1.72225 1.72486 1.72693 1.72861 1.73007 1.7313 1.73231 1.73309 1.73365 1.73399 1.7341 1.73399 1.73366 1.7331 1.73232 1.73131 1.73008 1.72863 1.72695 1.72489 1.72227 1.71911 1.71541 1.71115 1.70635 1.701 1.6951 1.68836 1.68048 1.67147 1.66131 1.65002 1.63759 1.62402 1.60931 1.59314 1.57519 1.55546 1.53394 1.51065 1.48557 1.45871 1.43007 1.39952 1.36696 1.33238 1.29578 1.25715 1.21651 1.17385 1.12917 1.08283 1.0352 0.986275 0.936053 0.884536 0.831724 0.777617 0.722216 0.665779 0.608567 0.55058 0.491817 0.432278 0.371964 0.310875 0.24901 0.190648 0.140068 0.0972696 0.0622525 0.0350171 0.0155631 0.00389078 0 0 0.00404081 0.0161633 0.0363673 0.064653 0.10102 0.145469 0.198 0.258612 0.322853 0.386271 0.448866 0.510637 0.571584 0.631709 0.691009 0.749487 0.80687 0.862888 0.917541 0.970829 1.02275 1.07331 1.1225 1.17033 1.21642 1.26041 1.30229 1.34206 1.37972 1.41528 1.44873 1.48007 1.50944 1.53696 1.56264 1.58647 1.60846 1.6286 1.64689 1.66335 1.67829 1.69207 1.70468 1.71612 1.72639 1.7355 1.74343 1.7502 1.75611 1.76146 1.76626 1.77051 1.7742 1.77734 1.77993 1.78196 1.7836 1.78503 1.78623 1.78722 1.78799 1.78854 1.78887 1.78898 1.78887 1.78854 1.788 1.78723 1.78625 1.78504 1.78362 1.78198 1.77995 1.77737 1.77423 1.77054 1.7663 1.7615 1.75615 1.75024 1.74348 1.73554 1.72644 1.71617 1.70473 1.69213 1.67835 1.66341 1.64696 1.62867 1.60853 1.58654 1.56271 