<?xml version="1.0"?> 
<VTKFile type="StructuredGrid" version="0.1"> 
<StructuredGrid WholeExtent="0 128 0 128 0 0"> 
<Piece Extent="0 128 0 128 0 0"> 
<PointData>
<DataArray type="Float32" Name="u" format="ascii" NumberOfComponents="1"> 
0 0 0 0 0 0 0 0 0 0 0 0 0 0 0 0 0 0 0 0 0 0 0 0 0 0 0 0 0 0 0 0 0 0 0 0 0 0 0 0 0 0 0 0 0 0 0 0 0 0 0 0 0 0 0 0 0 0 0 0 0 0 0 0 0 0 0 0 0 0 0 0 0 0 0 0 0 0 0 0 0 0 0 0 0 0 0 0 0 0 0 0 0 0 0 0 0 0 0 0 0 0 0 0 0 0 0 0 0 0 0 0 0 0 0 0 0 0 0 0 0 0 0 0 0 0 0 0 0 0 1.22974e-05 4.91896e-05 0.000110677 0.000196758 0.000307435 0.000442706 0.000602572 0.000787033 0.000983024 0.00117748 0.0013704 0.00156178 0.00175163 0.00193995 0.00212673 0.00231197 0.00249482 0.00267443 0.0028508 0.00302392 0.0031938 0.00336044 0.00352383 0.00368398 0.0038395 0.00398901 0.00413251 0.00427 0.00440148 0.00452696 0.00464642 0.00475987 0.00486737 0.00496899 0.00506471 0.00515455 0.0052385 0.00531656 0.00538873 0.00545501 0.00551625 0.00557328 0.0056261 0.00567472 0.00571913 0.00575934 0.00579535 0.00582714 0.00585565 0.00588178 0.00590553 0.0059269 0.0059459 0.00596251 0.00597675 0.00598861 0.00599864 0.00600737 0.00601482 0.00602098 0.00602585 0.00602942 0.00603171 0.00603271 0.00603242 0.00603084 0.00602796 0.00602379 0.00601834 0.00601159 0.00600355 0.00599422 0.00598305 0.0059695 0.00595356 0.00593523 0.00591452 0.00589142 0.00586594 0.00583807 0.00580689 0.00577149 0.00573186 0.005688 0.00563992 0.0055876 0.00553106 0.0054703 0.00540445 0.00533267 0.00525496 0.00517132 0.00508174 0.00498624 0.0048848 0.00477743 0.00466406 0.00454462 0.00441911 0.00428753 0.00414988 0.00400616 0.00385637 0.00370051 0.00353997 0.00337613 0.003209 0.00303857 0.00286485 0.00268782 0.00250751 0.00232389 0.00213785 0.00195022 0.00176103 0.00157026 0.00137791 0.00118399 0.000988495 0.000791426 0.000605935 0.000445177 0.000309151 0.000197856 0.000111294 4.94641e-05 1.2366e-05 0 0 4.91896e-05 0.000196758 0.000442706 0.000787033 0.00122974 0.00177082 0.00241029 0.00314813 0.0039321 0.00470992 0.0054816 0.00624714 0.00700653 0.00775979 0.00850691 0.00924788 0.0099793 0.0106977 0.0114032 0.0120957 0.0127752 0.0134418 0.0140953 0.0147359 0.015358 0.015956 0.01653 0.01708 0.0176059 0.0181078 0.0185857 0.0190395 0.0194695 0.0198759 0.0202589 0.0206182 0.020954 0.0212662 0.0215549 0.02182 0.022065 0.0222931 0.0225044 0.0226989 0.0228765 0.0230374 0.0231814 0.0233086 0.0234226 0.0235271 0.0236221 0.0237076 0.0237836 0.0238501 0.023907 0.0239544 0.0239946 0.0240295 0.0240593 0.0240839 0.0241034 0.0241177 0.0241268 0.0241308 0.0241297 0.0241233 0.0241118 0.0240952 0.0240734 0.0240464 0.0240142 0.0239769 0.0239322 0.023878 0.0238142 0.0237409 0.0236581 0.0235657 0.0234637 0.0233523 0.0232276 0.023086 0.0229274 0.022752 0.0225597 0.0223504 0.0221243 0.0218812 0.0216178 0.0213307 0.0210198 0.0206853 0.020327 0.0199449 0.0195392 0.0191097 0.0186562 0.0181785 0.0176764 0.0171501 0.0165995 0.0160246 0.0154255 0.014802 0.0141599 0.0135045 0.012836 0.0121543 0.0114594 0.0107513 0.01003 0.00929558 0.00855139 0.0078009 0.00704411 0.00628102 0.00551164 0.00473596 0.00395398 0.0031657 0.00242374 0.00178071 0.0012366 0.000791426 0.000445177 0.000197856 4.94641e-05 0 0 0.000110677 0.000442706 0.000996089 0.00177082 0.00276691 0.00398436 0.00542315 0.0070833 0.00884721 0.0105973 0.0123336 0.0140561 0.0157647 0.0174595 0.0191405 0.0208077 0.0224534 0.0240699 0.0256572 0.0272153 0.0287442 0.0302439 0.0317145 0.0331558 0.0345555 0.0359011 0.0371926 0.03843 0.0396134 0.0407426 0.0418178 0.0428388 0.0438064 0.0447209 0.0455824 0.0463909 0.0471465 0.047849 0.0484986 0.0490951 0.0496462 0.0501595 0.0506349 0.0510725 0.0514722 0.0518341 0.0521581 0.0524443 0.0527009 0.052936 0.0531498 0.0533421 0.0535131 0.0536626 0.0537908 0.0538975 0.0539877 0.0540664 0.0541334 0.0541888 0.0542326 0.0542648 0.0542854 0.0542944 0.0542918 0.0542775 0.0542516 0.0542142 0.054165 0.0541043 0.054032 0.053948 0.0538475 0.0537255 0.053582 0.0534171 0.0532307 0.0530228 0.0527934 0.0525426 0.052262 0.0519434 0.0515867 0.051192 0.0507592 0.0502884 0.0497796 0.0492327 0.0486401 0.047994 0.0472947 0.0465419 0.0457357 0.0448761 0.0439632 0.0429969 0.0419765 0.0409015 0.0397719 0.0385877 0.0373489 0.0360554 0.0347073 0.0333046 0.0318597 0.0303852 0.028881 0.0273471 0.0257836 0.0241904 0.0225676 0.0209151 0.0192406 0.017552 0.0158492 0.0141323 0.0124012 0.0106559 0.00889645 0.00712283 0.00545342 0.00400659 0.00278236 0.00178071 0.00100165 0.000445177 0.000111294 0 0 0.000196758 0.000787033 0.00177082 0.00314813 0.00491896 0.0070833 0.00964116 0.0125925 0.0157284 0.0188397 0.0219264 0.0249885 0.0280261 0.0310392 0.0340276 0.0369915 0.0399172 0.0427909 0.0456128 0.0483828 0.0511008 0.053767 0.0563813 0.0589436 0.061432 0.0638242 0.0661202 0.06832 0.0704238 0.0724313 0.0743427 0.0761579 0.077878 0.0795038 0.0810354 0.0824728 0.083816 0.0850649 0.0862196 0.0872802 0.0882599 0.0891724 0.0900176 0.0907955 0.0915061 0.0921495 0.0927255 0.0932343 0.0936904 0.0941085 0.0944885 0.0948304 0.0951343 0.0954002 0.095628 0.0958178 0.0959782 0.096118 0.0962371 0.0963357 0.0964135 0.0964708 0.0965074 0.0965234 0.0965187 0.0964934 0.0964474 0.0963807 0.0962934 0.0961854 0.0960568 0.0959075 0.0957288 0.0955119 0.0952569 0.0949637 0.0946323 0.0942627 0.093855 0.0934091 0.0929103 0.0923438 0.0917097 0.091008 0.0902387 0.0894017 0.088497 0.0875248 0.0864712 0.0853228 0.0840794 0.0827411 0.0813079 0.0797798 0.0781568 0.0764388 0.0746249 0.0727139 0.0707057 0.0686004 0.066398 0.0640985 0.0617019 0.0592082 0.0566395 0.0540181 0.051344 0.0486171 0.0458375 0.0430052 0.0401201 0.0371823 0.0342055 0.0312036 0.0281764 0.0251241 0.0220466 0.0189438 0.0158159 0.0126628 0.00969496 0.00712283 0.00494641 0.0031657 0.00178071 0.000791426 0.000197856 0 0 0.000307435 0.00122974 0.00276691 0.00491896 0.00768587 0.0110677 0.0150643 0.0196758 0.0245756 0.029437 0.03426 0.0390446 0.0437908 0.0484987 0.0531682 0.0577992 0.0623706 0.0668609 0.07127 0.0755981 0.0798451 0.084011 0.0880957 0.0920994 0.0959875 0.0997253 0.103313 0.10675 0.110037 0.113174 0.11616 0.118997 0.121684 0.124225 0.126618 0.128864 0.130962 0.132914 0.134718 0.136375 0.137906 0.139332 0.140652 0.141868 0.142978 0.143984 0.144884 0.145679 0.146391 0.147044 0.147638 0.148173 0.148647 0.149063 0.149419 0.149715 0.149966 0.150184 0.150371 0.150524 0.150646 0.150736 0.150793 0.150818 0.15081 0.150771 0.150699 0.150595 0.150458 0.15029 0.150089 0.149856 0.149576 0.149237 0.148839 0.148381 0.147863 0.147286 0.146648 0.145952 0.145172 0.144287 0.143296 0.1422 0.140998 0.13969 0.138277 0.136757 0.135111 0.133317 0.131374 0.129283 0.127044 0.124656 0.12212 0.119436 0.116601 0.113615 0.110478 0.107188 0.103747 0.100154 0.0964092 0.0925128 0.0884992 0.0844033 0.080225 0.0759643 0.0716211 0.0671956 0.0626877 0.0580974 0.0534462 0.0487556 0.0440257 0.0392564 0.0344477 0.0295997 0.0247124 0.0197856 0.0151484 0.0111294 0.00772876 0.00494641 0.00278236 0.0012366 0.000309151 0 0 0.000442706 0.00177082 0.00398436 0.0070833 0.0110677 0.0159374 0.0216926 0.0283332 0.0353889 0.0423892 0.0493344 0.0562242 0.0630588 0.0698381 0.0765622 0.0832309 0.0898137 0.0962796 0.102629 0.108861 0.114977 0.120976 0.126858 0.132623 0.138222 0.143604 0.14877 0.15372 0.158453 0.16297 0.167271 0.171355 0.175225 0.178884 0.18233 0.185564 0.188586 0.191396 0.193994 0.19638 0.198585 0.200638 0.20254 0.20429 0.205889 0.207336 0.208632 0.209777 0.210803 0.211744 0.212599 0.213368 0.214052 0.21465 0.215163 0.21559 0.215951 0.216265 0.216534 0.216755 0.21693 0.217059 0.217142 0.217178 0.217167 0.21711 0.217007 0.216857 0.21666 0.216417 0.216128 0.215792 0.21539 0.214902 0.214328 0.213668 0.212923 0.212091 0.211174 0.21017 0.209048 0.207774 0.206347 0.204768 0.203037 0.201154 0.199118 0.196931 0.19456 0.191976 0.189179 0.186167 0.182943 0.179505 0.175853 0.171987 0.167906 0.163606 0.159088 0.154351 0.149396 0.144222 0.138829 0.133218 0.127439 0.121541 0.115524 0.109389 0.103134 0.0967617 0.0902703 0.0836602 0.0769625 0.0702081 0.063397 0.0565292 0.0496048 0.0426236 0.0355858 0.0284913 0.0218137 0.0160264 0.0111294 0.00712283 0.00400659 0.00178071 0.000445177 0 0 0.000602572 0.00241029 0.00542315 0.00964116 0.0150643 0.0216926 0.029526 0.0385646 0.0481682 0.0576965 0.0671496 0.0765274 0.08583 0.0950574 0.10421 0.113287 0.122246 0.131047 0.139689 0.148172 0.156496 0.164661 0.172668 0.180515 0.188135 0.195461 0.202493 0.20923 0.215673 0.221821 0.227674 0.233234 0.238501 0.24348 0.248171 0.252573 0.256686 0.260511 0.264048 0.267295 0.270296 0.27309 0.275679 0.278061 0.280238 0.282208 0.283972 0.28553 0.286927 0.288207 0.289371 0.290418 0.291349 0.292163 0.292861 0.293442 0.293933 0.294361 0.294726 0.295028 0.295266 0.295442 0.295554 0.295603 0.295589 0.295511 0.29537 0.295166 0.294899 0.294568 0.294174 0.293717 0.29317 0.292505 0.291724 0.290826 0.289811 0.28868 0.287431 0.286065 0.284538 0.282803 0.280861 0.278712 0.276356 0.273793 0.271022 0.268045 0.264818 0.261301 0.257493 0.253395 0.249005 0.244326 0.239355 0.234094 0.228539 0.222686 0.216536 0.210089 0.203344 0.196302 0.188962 0.181325 0.173458 0.16543 0.157241 0.14889 0.140377 0.131703 0.122868 0.113871 0.104754 0.095561 0.0862903 0.0769425 0.0675176 0.0580155 0.0484362 0.0387799 0.0296908 0.0218137 0.0151484 0.00969496 0.00545342 0.00242374 0.000605935 0 0 0.000787033 0.00314813 0.0070833 0.0125925 0.0196758 0.0283332 0.0385646 0.0503701 0.0629135 0.0753587 0.0877055 0.0999542 0.112105 0.124157 0.13611 0.147966 0.159669 0.171164 0.182451 0.193531 0.204403 0.215068 0.225525 0.235775 0.245728 0.255297 0.264481 0.27328 0.281695 0.289725 0.297371 0.304632 0.311512 0.318015 0.324142 0.329891 0.335264 0.34026 0.344879 0.349121 0.35304 0.35669 0.36007 0.363182 0.366025 0.368598 0.370902 0.372937 0.374762 0.376434 0.377954 0.379322 0.380537 0.381601 0.382512 0.383271 0.383913 0.384472 0.384949 0.385343 0.385654 0.385883 0.38603 0.386093 0.386075 0.385973 0.385789 0.385523 0.385174 0.384742 0.384227 0.38363 0.382915 0.382048 0.381028 0.379855 0.378529 0.377051 0.37542 0.373636 0.371641 0.369375 0.366839 0.364032 0.360955 0.357607 0.353988 0.350099 0.345885 0.341291 0.336318 0.330964 0.325232 0.319119 0.312627 0.305755 0.2985 0.290855 0.282823 0.274402 0.265592 0.256394 0.246808 0.236833 0.226558 0.216072 0.205376 0.194469 0.18335 0.172021 0.160481 0.148729 0.136822 0.124814 0.112706 0.100496 0.0881862 0.0757753 0.0632637 0.0506512 0.0387799 0.0284913 0.0197856 0.0126628 0.00712283 0.0031657 0.000791426 0 0 0.000983022 0.00393209 0.0088472 0.0157284 0.0245756 0.0353888 0.0481681 0.0629134 0.0785799 0.0941227 0.109542 0.124837 0.140009 0.155057 0.169981 0.184782 0.199391 0.213739 0.227828 0.241657 0.255225 0.268533 0.281582 0.29437 0.306788 0.318725 0.330181 0.341157 0.351652 0.361666 0.3712 0.380253 0.38883 0.396937 0.404573 0.411739 0.418435 0.42466 0.430414 0.435699 0.44058 0.445126 0.449336 0.45321 0.456749 0.459953 0.46282 0.465353 0.467622 0.469703 0.471594 0.473295 0.474807 0.476129 0.477262 0.478205 0.479003 0.479698 0.48029 0.480779 0.481167 0.481451 0.481633 0.481712 0.481689 0.481563 0.481335 0.481004 0.48057 0.480033 0.479394 0.478652 0.477763 0.476685 0.475417 0.473958 0.472309 0.47047 0.468441 0.466223 0.46374 0.46092 0.457763 0.454268 0.450436 0.446267 0.44176 0.436916 0.431667 0.425943 0.419746 0.413075 0.40593 0.398311 0.390218 0.381652 0.372605 0.363074 0.353056 0.342554 0.331565 0.320092 0.308132 0.295688 0.282868 0.269785 0.256437 0.242824 0.228948 0.214807 0.200402 0.185733 0.170868 0.155877 0.140758 0.125513 0.110141 0.094642 0.0790163 0.0632638 0.0484363 0.0355859 0.0247124 0.0158159 0.00889647 0.00395399 0.000988496 0 0 0.00117747 0.00470989 0.0105973 0.0188396 0.0294368 0.042389 0.0576961 0.0753582 0.0941223 0.112736 0.131198 0.149509 0.16767 0.18568 0.203539 0.221247 0.238722 0.255884 0.272733 0.289267 0.305488 0.321395 0.336989 0.352269 0.367103 0.381361 0.395042 0.408147 0.420675 0.432627 0.444001 0.4548 0.465028 0.474694 0.483797 0.492337 0.500315 0.50773 0.514583 0.520872 0.52668 0.532088 0.537096 0.541704 0.545911 0.549718 0.553124 0.556131 0.558824 0.561293 0.563536 0.565553 0.567346 0.568913 0.570256 0.571372 0.572316 0.573138 0.573839 0.574418 0.574877 0.575213 0.575429 0.575523 0.575495 0.575346 0.575076 0.574684 0.574171 0.573536 0.57278 0.571902 0.57085 0.569573 0.568069 0.56634 0.564385 0.562203 0.559796 0.557163 0.554215 0.550866 0.547114 0.542959 0.538403 0.533444 0.528082 0.522319 0.51607 0.509255 0.501873 0.493925 0.48541 0.476327 0.466679 0.456463 0.445673 0.4343 0.422346 0.409808 0.396689 0.382987 0.368703 0.353837 0.33852 0.322885 0.306931 0.290658 0.274066 0.257156 0.239927 0.222379 0.204595 0.186656 0.168563 0.150315 0.131912 0.113354 0.0946424 0.0757758 0.0580158 0.0426239 0.0295999 0.0189439 0.010656 0.00473599 0.001184 0 0 0.00137038 0.00548153 0.0123335 0.0219261 0.0342596 0.0493338 0.0671488 0.0877046 0.109541 0.131197 0.152674 0.173971 0.195088 0.216025 0.236783 0.25736 0.277664 0.297599 0.317165 0.336363 0.355193 0.373654 0.391747 0.409471 0.426674 0.443206 0.459064 0.474251 0.488765 0.502606 0.515776 0.528273 0.540106 0.551286 0.561813 0.571686 0.580905 0.589471 0.597383 0.604641 0.611341 0.617578 0.623352 0.628662 0.633509 0.637893 0.641813 0.645271 0.648367 0.651203 0.65378 0.656097 0.658155 0.659954 0.661493 0.662772 0.663852 0.664794 0.665596 0.66626 0.666784 0.66717 0.667416 0.667524 0.667493 0.667323 0.667013 0.666565 0.665977 0.665251 0.664385 0.663381 0.662176 0.660712 0.658987 0.657001 0.654756 0.65225 0.649484 0.646457 0.643068 0.639213 0.634892 0.630106 0.624855 0.619137 0.612954 0.606306 0.599095 0.591226 0.582699 0.573514 0.56367 0.553168 0.542008 0.530189 0.517702 0.504536 0.49069 0.476166 0.460963 0.445081 0.42852 0.41128 0.393514 0.375373 0.356858 0.337969 0.318705 0.299067 0.279055 0.258669 0.238003 0.217153 0.196119 0.174901 0.153499 0.131913 0.110142 0.0881872 0.0675183 0.0496053 0.0344481 0.0220468 0.0124013 0.0055117 0.00137793 0 0 0.00156176 0.00624703 0.0140558 0.0249881 0.0390439 0.0562232 0.0765261 0.0999524 0.124835 0.149508 0.17397 0.198221 0.222262 0.246093 0.269713 0.293123 0.316215 0.338883 0.361126 0.382945 0.404339 0.425309 0.445855 0.465976 0.485501 0.504258 0.522247 0.539468 0.555921 0.571606 0.586523 0.600671 0.614065 0.626715 0.638621 0.649785 0.660205 0.669882 0.678816 0.687006 0.694563 0.701595 0.708103 0.714086 0.719545 0.724479 0.728888 0.732773 0.73625 0.739435 0.742327 0.744927 0.747235 0.74925 0.750974 0.752405 0.753612 0.754665 0.755561 0.756303 0.756889 0.757321 0.757596 0.757717 0.757682 0.757492 0.757147 0.756646 0.755989 0.755177 0.75421 0.753088 0.751741 0.750101 0.748168 0.745942 0.743422 0.74061 0.737504 0.734106 0.730297 0.725962 0.721099 0.715709 0.709792 0.703348 0.696376 0.688878 0.680742 0.671857 0.662224 0.651842 0.640712 0.628833 0.616206 0.60283 0.588693 0.57378 0.558091 0.541627 0.524388 0.506373 0.487583 0.468018 0.447849 0.42725 0.406219 0.384757 0.362865 0.340541 0.317786 0.294601 0.271092 0.247368 0.223428 0.199273 0.174902 0.150316 0.125515 0.100498 0.0769439 0.0565302 0.0392571 0.0251245 0.0141325 0.00628113 0.00157028 0 0 0.00175159 0.00700636 0.0157643 0.0280254 0.0437898 0.0630573 0.0858279 0.112102 0.140006 0.167667 0.195085 0.222261 0.249193 0.275883 0.30233 0.328534 0.354375 0.379736 0.404614 0.429012 0.452927 0.476361 0.499314 0.521785 0.543584 0.564519 0.58459 0.603799 0.622143 0.639624 0.656242 0.671996 0.686903 0.700978 0.714222 0.726634 0.738215 0.748964 0.758881 0.767967 0.776345 0.784139 0.791349 0.797975 0.804017 0.809475 0.814349 0.818638 0.822474 0.825987 0.829176 0.832042 0.834584 0.836803 0.838698 0.84027 0.841596 0.84275 0.843735 0.844549 0.845192 0.845666 0.845968 0.846101 0.846063 0.845855 0.845476 0.844926 0.844206 0.843316 0.842255 0.841023 0.839544 0.837741 0.835613 0.833161 0.830384 0.827283 0.823858 0.820109 0.815904 0.811112 0.805733 0.799767 0.793214 0.786075 0.778348 0.770035 0.76101 0.751147 0.740447 0.728909 0.716535 0.703322 0.689273 0.674386 0.658645 0.642032 0.624547 0.606191 0.586963 0.566864 0.545892 0.524049 0.501526 0.478514 0.455013 0.431023 0.406545 0.381577 0.356121 0.330176 0.303862 0.277299 0.250489 0.22343 0.196122 0.168566 0.140761 0.112708 0.0862924 0.0633985 0.0440267 0.0281771 0.0158496 0.00704428 0.00176107 0 0 0.00193989 0.00775954 0.017459 0.0310382 0.0484971 0.0698359 0.0950544 0.124153 0.155052 0.185675 0.216021 0.246089 0.275881 0.305395 0.334633 0.363594 0.392146 0.420158 0.447631 0.474564 0.500957 0.52681 0.552123 0.576897 0.600922 0.623987 0.646094 0.667243 0.687432 0.706663 0.724934 0.742247 0.758622 0.774078 0.788615 0.802234 0.814934 0.826715 0.837578 0.847523 0.856687 0.86521 0.87309 0.880329 0.886926 0.892881 0.898194 0.902866 0.907039 0.91086 0.914328 0.917442 0.920204 0.922612 0.924667 0.926369 0.927802 0.929051 0.930116 0.930997 0.931693 0.932205 0.932533 0.932676 0.932636 0.93241 0.932001 0.931407 0.930628 0.929666 0.928518 0.927187 0.925586 0.923631 0.921322 0.918659 0.915642 0.912271 0.908545 0.904466 0.899887 0.894663 0.888794 0.882281 0.875122 0.867319 0.85887 0.849777 0.839899 0.829096 0.817368 0.804716 0.791138 0.776636 0.761209 0.744857 0.727559 0.709293 0.690059 0.669858 0.648689 0.626552 0.603447 0.579375 0.554545 0.529167 0.503241 0.476767 0.449745 0.422176 0.394058 0.365393 0.336313 0.306949 0.277301 0.247371 0.217158 0.186661 0.155881 0.124818 0.095564 0.0702103 0.0487571 0.0312046 0.0175526 0.00780114 0.00195029 0 0 0.00212664 0.00850657 0.0191398 0.0340263 0.0531661 0.0765591 0.104205 0.136105 0.169975 0.203532 0.236776 0.269707 0.302325 0.33463 0.366623 0.398302 0.429526 0.46015 0.490175 0.519601 0.548428 0.576655 0.604284 0.631313 0.657516 0.682664 0.706759 0.7298 0.751787 0.77272 0.792599 0.811424 0.82922 0.846012 0.8618 0.876583 0.890363 0.903138 0.914908 0.925675 0.93559 0.944808 0.953327 0.961149 0.968272 0.974698 0.980426 0.985455 0.989945 0.994054 0.997782 1.00113 1.00409 1.00668 1.00888 1.0107 1.01223 1.01357 1.01471 1.01565 1.01639 1.01694 1.01729 1.01744 1.0174 1.01716 1.01672 1.01609 1.01526 1.01423 1.013 1.01158 1.00987 1.00777 1.0053 1.00244 0.999195 0.995571 0.991565 0.987177 0.982247 0.976616 0.970283 0.96325 0.955515 0.947079 0.937942 0.928104 0.91741 0.905705 0.892989 0.879261 0.864523 0.848774 0.832014 0.814243 0.795435 0.775563 0.754627 0.732628 0.709565 0.685439 0.660248 0.633995 0.606905 0.579207 0.550902 0.521988 0.492467 0.462337 0.431599 0.400254 0.368444 0.336315 0.303866 0.271098 0.23801 0.204602 0.170875 0.136828 0.104759 0.0769655 0.0534483 0.0342069 0.0192414 0.00855172 0.00213793 0 0 0.00231186 0.00924744 0.0208067 0.0369898 0.0577965 0.083227 0.113281 0.147959 0.184774 0.221237 0.257351 0.293114 0.328526 0.363588 0.398299 0.43266 0.466515 0.499711 0.532247 0.564124 0.59534 0.625897 0.655794 0.685032 0.713365 0.740549 0.766585 0.791471 0.815208 0.837797 0.859237 0.879527 0.898699 0.916783 0.933777 0.949683 0.964501 0.97823 0.99087 1.00242 1.01305 1.02293 1.03206 1.04043 1.04806 1.05492 1.06104 1.06641 1.07119 1.07557 1.07954 1.0831 1.08625 1.089 1.09133 1.09326 1.09489 1.0963 1.0975 1.0985 1.09929 1.09987 1.10024 1.1004 1.10036 1.1001 1.09964 1.09897 1.09809 1.097 1.0957 1.0942 1.09239 1.09016 1.08753 1.08449 1.08104 1.07719 1.07292 1.06824 1.06298 1.05697 1.0502 1.04267 1.03439 1.02536 1.01556 1.00502 0.993542 0.980973 0.967307 0.952546 0.936689 0.919737 0.901688 0.882544 0.862272 0.840841 0.818251 0.794501 0.769592 0.743523 0.716295 0.687908 0.658607 0.628636 0.597996 0.566687 0.534708 0.50206 0.468743 0.434757 0.400257 0.365399 0.330183 0.29461 0.258678 0.222389 0.185741 0.148736 0.113876 0.0836642 0.0581001 0.0371841 0.020916 0.00929602 0.002324 0 0 0.00249469 0.00997874 0.0224522 0.039915 0.0623671 0.0898087 0.12224 0.15966 0.19938 0.238711 0.277651 0.316203 0.354364 0.392136 0.429519 0.466511 0.502949 0.538665 0.573659 0.607932 0.641484 0.674314 0.706423 0.73781 0.768215 0.797376 0.825294 0.851968 0.877399 0.901586 0.924529 0.946229 0.966722 0.986043 1.00419 1.02117 1.03698 1.05161 1.06508 1.07737 1.08868 1.09918 1.10888 1.11777 1.12585 1.13314 1.13961 1.14529 1.15034 1.15496 1.15915 1.16291 1.16623 1.16912 1.17158 1.1736 1.1753 1.17678 1.17805 1.17909 1.17992 1.18052 1.18091 1.18108 1.18104 1.18077 1.18029 1.17958 1.17866 1.17752 1.17617 1.17459 1.17269 1.17035 1.16758 1.16438 1.16074 1.15667 1.15216 1.14723 1.14167 1.1353 1.12812 1.12014 1.11135 1.10175 1.09134 1.08012 1.06791 1.05452 1.03995 1.02421 1.00728 0.989177 0.969893 0.949431 0.927753 0.904819 0.880631 0.855188 0.828491 0.800539 0.771332 0.740871 0.709416 0.67723 0.644312 0.610662 0.576281 0.541168 0.505324 0.468747 0.431606 0.394068 0.356132 0.317799 0.279068 0.239939 0.200413 0.160489 0.122875 0.0902753 0.0626912 0.0401224 0.0225688 0.0100306 0.00250765 0 0 0.00267426 0.0106971 0.0240684 0.0427882 0.0668566 0.0962735 0.131039 0.171153 0.213726 0.25587 0.297583 0.338867 0.379721 0.420145 0.460139 0.499703 0.53866 0.576833 0.614222 0.650827 0.686647 0.721683 0.755935 0.789403 0.82181 0.852879 0.882611 0.911004 0.938061 0.963779 0.98816 1.0112 1.03295 1.05345 1.07269 1.09069 1.10743 1.12291 1.13715 1.15014 1.16207 1.17314 1.18336 1.19273 1.20125 1.2089 1.21571 1.22166 1.22695 1.23179 1.23617 1.2401 1.24357 1.24659 1.24915 1.25126 1.25302 1.25456 1.25587 1.25695 1.25781 1.25844 1.25885 1.25903 1.25898 1.2587 1.2582 1.25747 1.25652 1.25533 1.25393 1.25229 1.25031 1.24788 1.24499 1.24164 1.23784 1.23358 1.22886 1.22369 1.21786 1.21117 1.20363 1.19522 1.18596 1.17584 1.16486 1.15302 1.14013 1.12597 1.11055 1.09388 1.07594 1.05675 1.03629 1.01458 0.991557 0.967188 0.94147 0.914402 0.885984 0.856217 0.825101 0.792636 0.759098 0.724765 0.689637 0.653714 0.616995 0.579482 0.541173 0.502069 0.462349 0.42219 0.381593 0.340557 0.299084 0.257171 0.214821 0.172032 0.131712 0.096768 0.0672 0.043008 0.024192 0.010752 0.002688 0 0 0.0028506 0.0114024 0.0256554 0.0456095 0.0712649 0.102621 0.139679 0.182438 0.227812 0.272715 0.317146 0.361106 0.404595 0.447613 0.490159 0.532234 0.57365 0.614217 0.653936 0.692807 0.73083 0.768005 0.804332 0.839811 0.87415 0.907058 0.938534 0.96858 0.997194 1.02438 1.05013 1.07445 1.09739 1.119 1.13928 1.15823 1.17584 1.19213 1.20708 1.22071 1.23322 1.24482 1.25553 1.26533 1.27423 1.28223 1.28932 1.29552 1.30102 1.30605 1.31061 1.31468 1.31828 1.32141 1.32405 1.32623 1.32804 1.32963 1.33098 1.33209 1.33298 1.33363 1.33404 1.33423 1.33418 1.3339 1.33338 1.33263 1.33165 1.33043 1.32898 1.3273 1.32526 1.32275 1.31976 1.31629 1.31234 1.30792 1.30302 1.29764 1.29157 1.28459 1.27671 1.26792 1.25823 1.24763 1.23613 1.22372 1.21019 1.19532 1.17911 1.16156 1.14268 1.12245 1.10089 1.07798 1.05369 1.02795 1.00077 0.972141 0.942072 0.910559 0.877603 0.843204 0.807653 0.771242 0.733971 0.695841 0.656851 0.617002 0.576292 0.534723 0.492484 0.449765 0.406566 0.362886 0.318726 0.274085 0.228965 0.183364 0.140388 0.103142 0.0716265 0.045841 0.0257856 0.0114602 0.00286506 0 0 0.00302368 0.0120947 0.0272131 0.0483789 0.0755921 0.108853 0.14816 0.193516 0.241638 0.289246 0.33634 0.382921 0.428988 0.474541 0.51958 0.564105 0.607917 0.650816 0.692802 0.733875 0.774034 0.81328 0.851614 0.889034 0.925235 0.959913 0.993066 1.02469 1.0548 1.08338 1.11044 1.13597 1.16004 1.1827 1.20395 1.22379 1.24223 1.25926 1.27488 1.28909 1.30213 1.31422 1.32536 1.33556 1.34481 1.35311 1.36046 1.36687 1.37256 1.37775 1.38245 1.38665 1.39036 1.39357 1.39629 1.39851 1.40037 1.40198 1.40336 1.40451 1.40541 1.40607 1.4065 1.40669 1.40664 1.40635 1.40583 1.40506 1.40406 1.40282 1.40134 1.39962 1.39754 1.39496 1.39188 1.38831 1.38424 1.37968 1.37462 1.36907 1.36279 1.35556 1.34738 1.33825 1.32817 1.31714 1.30515 1.29222 1.2781 1.26257 1.24562 1.22726 1.20748 1.18628 1.16367 1.13964 1.11414 1.0871 1.05852 1.02841 0.996754 0.963564 0.928838 0.892575 0.85508 0.81666 0.777315 0.737045 0.695849 0.653727 0.610681 0.566709 0.522013 0.476793 0.43105 0.384784 0.337994 0.290681 0.242845 0.194485 0.148903 0.109398 0.0759708 0.0486213 0.0273495 0.0121553 0.00303883 0 0 0.00319352 0.0127741 0.0287417 0.0510964 0.0798381 0.114967 0.156483 0.204385 0.255203 0.305463 0.355166 0.404311 0.452898 0.500929 0.548401 0.595316 0.641463 0.686631 0.730819 0.774028 0.816258 0.857508 0.897779 0.937071 0.975066 1.01144 1.0462 1.07935 1.11088 1.14079 1.16908 1.19576 1.22089 1.24454 1.2667 1.28738 1.30658 1.3243 1.34054 1.35529 1.36881 1.38133 1.39287 1.40342 1.41298 1.42155 1.42913 1.43572 1.44156 1.44688 1.4517 1.45601 1.4598 1.46308 1.46585 1.46811 1.46999 1.47164 1.47303 1.47419 1.47511 1.47579 1.47622 1.47641 1.47636 1.47607 1.47554 1.47477 1.47375 1.47249 1.47099 1.46925 1.46714 1.46451 1.46137 1.45771 1.45355 1.44887 1.44368 1.43798 1.43152 1.42407 1.41563 1.40619 1.39577 1.38434 1.37193 1.35852 1.34387 1.32773 1.31009 1.29097 1.27035 1.24825 1.22465 1.19957 1.17292 1.14464 1.11473 1.0832 1.05003 1.01523 0.978806 0.940748 0.90138 0.86102 0.819668 0.777324 0.733988 0.689659 0.644339 0.598026 0.550934 0.503274 0.455046 0.406251 0.356889 0.306959 0.256461 0.205396 0.157256 0.115535 0.0802328 0.051349 0.0288838 0.0128372 0.00320931 0 0 0.00336012 0.0134405 0.030241 0.0537619 0.0840029 0.120964 0.164646 0.215047 0.268508 0.321366 0.373622 0.425276 0.476327 0.526776 0.576623 0.625867 0.674287 0.72166 0.767987 0.813267 0.857501 0.900689 0.94283 0.983924 1.02364 1.06165 1.09795 1.13254 1.16542 1.1966 1.22607 1.25382 1.27995 1.30452 1.32754 1.349 1.36891 1.38726 1.40405 1.4193 1.43325 1.44617 1.45806 1.46891 1.47874 1.48754 1.49531 1.50205 1.50802 1.51345 1.51836 1.52275 1.52661 1.52994 1.53275 1.53503 1.53692 1.53858 1.53999 1.54115 1.54208 1.54276 1.5432 1.54339 1.54334 1.54305 1.54252 1.54174 1.54072 1.53945 1.53795 1.5362 1.53406 1.5314 1.52821 1.5245 1.52025 1.51549 1.51019 1.50437 1.49777 1.49013 1.48146 1.47176 1.46102 1.44925 1.43645 1.42261 1.40748 1.39078 1.37252 1.35269 1.3313 1.30835 1.28383 1.25775 1.23002 1.20057 1.16941 1.13651 1.1019 1.06556 1.02751 0.987725 0.946554 0.904322 0.861031 0.816679 0.771268 0.724797 0.677266 0.628675 0.579248 0.529208 0.478555 0.427289 0.37541 0.322918 0.269814 0.216096 0.165449 0.121554 0.0844125 0.054024 0.0303885 0.013506 0.0033765 0 0 0.00352346 0.0140939 0.0317112 0.0563754 0.0880866 0.126845 0.17265 0.225502 0.281553 0.336956 0.39171 0.445816 0.499274 0.552084 0.604245 0.655757 0.706388 0.755905 0.804306 0.851593 0.897765 0.942822 0.986764 1.02959 1.07096 1.11053 1.1483 1.18427 1.21845 1.25082 1.28139 1.31016 1.33722 1.36265 1.38646 1.40864 1.4292 1.44813 1.46544 1.48112 1.49545 1.50871 1.52091 1.53204 1.5421 1.5511 1.55902 1.56588 1.57194 1.57746 1.58244 1.58688 1.59078 1.59415 1.59697 1.59926 1.60116 1.60281 1.60422 1.60539 1.60632 1.607 1.60744 1.60763 1.60758 1.60729 1.60676 1.60598 1.60497 1.6037 1.6022 1.60045 1.59831 1.59563 1.59241 1.58866 1.58436 1.57953 1.57416 1.56824 1.56153 1.55374 1.54488 1.53495 1.52394 1.51187 1.49872 1.48451 1.46894 1.45173 1.4329 1.41242 1.39032 1.36657 1.3412 1.31418 1.28545 1.2549 1.22253 1.18836 1.15236 1.11456 1.07494 1.0335 0.990599 0.946565 0.901402 0.855111 0.80769 0.759141 0.709463 0.658656 0.606955 0.554595 0.501575 0.447896 0.393557 0.33856 0.282902 0.226586 0.17348 0.127454 0.08851 0.0566464 0.0318636 0.0141616 0.0035404 0 0 0.00368356 0.0147343 0.0331521 0.058937 0.0920891 0.132608 0.180495 0.235748 0.294337 0.352231 0.409429 0.465932 0.521739 0.576851 0.631267 0.684988 0.737768 0.789365 0.839777 0.889005 0.937049 0.983908 1.02958 1.07407 1.11703 1.15809 1.19726 1.23455 1.26994 1.30344 1.33505 1.36477 1.3927 1.41893 1.44347 1.46631 1.48746 1.50692 1.52468 1.54075 1.55541 1.56898 1.58144 1.5928 1.60305 1.61221 1.62026 1.6272 1.63332 1.6389 1.64392 1.64839 1.65232 1.6557 1.65853 1.66081 1.66269 1.66434 1.66574 1.6669 1.66782 1.6685 1.66894 1.66913 1.66909 1.6688 1.66827 1.6675 1.66649 1.66524 1.66375 1.66201 1.65988 1.6572 1.65398 1.6502 1.64587 1.641 1.63557 1.6296 1.6228 1.61489 1.60587 1.59575 1.58452 1.57219 1.55875 1.5442 1.52825 1.51059 1.49123 1.47017 1.4474 1.42293 1.39676 1.36888 1.3392 1.30761 1.27412 1.23873 1.20142 1.16222 1.1211 1.07809 1.03352 0.98775 0.940783 0.892618 0.843254 0.792691 0.740929 0.687968 0.634055 0.579435 0.524107 0.468073 0.411331 0.353883 0.295727 0.236864 0.181349 0.133236 0.0925252 0.0592161 0.0333091 0.014804 0.00370101 0 0 0.00383904 0.0153561 0.0345513 0.0614246 0.0959759 0.138205 0.188113 0.245698 0.306751 0.367061 0.426628 0.485451 0.543531 0.600868 0.657462 0.713313 0.768165 0.821763 0.874107 0.925197 0.975034 1.02362 1.07094 1.11702 1.16148 1.20395 1.24445 1.28297 1.31951 1.35407 1.38665 1.41724 1.44597 1.47294 1.49815 1.5216 1.54328 1.56321 1.58137 1.59778 1.61273 1.62656 1.63924 1.65079 1.6612 1.67048 1.67862 1.68562 1.69178 1.69738 1.70243 1.70692 1.71085 1.71422 1.71704 1.7193 1.72116 1.72278 1.72417 1.72532 1.72622 1.7269 1.72733 1.72752 1.72748 1.7272 1.72668 1.72592 1.72493 1.72369 1.72222 1.72051 1.71841 1.71574 1.71252 1.70874 1.7044 1.69951 1.69406 1.68805 1.68119 1.67319 1.66406 1.65378 1.64236 1.62981 1.61612 1.60128 1.585 1.56694 1.54711 1.52552 1.50215 1.47701 1.45011 1.42143 1.39088 1.35832 1.32378 1.28723 1.2487 1.20817 1.16564 1.12112 1.07497 1.02755 0.978855 0.928896 0.877667 0.82517 0.771403 0.716368 0.66032 0.603518 0.54596 0.487647 0.428579 0.368756 0.308177 0.246844 0.18899 0.13885 0.0964234 0.061711 0.0347124 0.0154277 0.00385694 0 0 0.0039885 0.015954 0.0358965 0.0638159 0.0997124 0.143586 0.195436 0.255264 0.318684 0.381314 0.443153 0.504202 0.56446 0.623927 0.682603 0.740489 0.797318 0.852823 0.907006 0.959865 1.0114 1.06161 1.1105 1.15807 1.20394 1.24775 1.28949 1.32916 1.36677 1.4023 1.43578 1.46718 1.49664 1.52428 1.55009 1.57408 1.59625 1.61659 1.63511 1.65181 1.66701 1.68104 1.69391 1.70561 1.71614 1.72551 1.73372 1.74076 1.74693 1.75254 1.75758 1.76206 1.76598 1.76934 1.77213 1.77435 1.77618 1.77778 1.77914 1.78027 1.78116 1.78182 1.78225 1.78244 1.7824 1.78213 1.78162 1.78088 1.7799 1.7787 1.77725 1.77558 1.7735 1.77087 1.76766 1.7639 1.75957 1.75468 1.74922 1.7432 1.73631 1.72825 1.71902 1.70863 1.69706 1.68433 1.67042 1.65535 1.63878 1.62037 1.60013 1.57805 1.55415 1.52841