<?xml version="1.0"?> 
<VTKFile type="StructuredGrid" version="0.1"> 
<StructuredGrid WholeExtent="0 128 0 128 0 0"> 
<Piece Extent="0 128 0 128 0 0"> 
<PointData>
<DataArray type="Float32" Name="u" format="ascii" NumberOfComponents="1"> 
0 0 0 0 0 0 0 0 0 0 0 0 0 0 0 0 0 0 0 0 0 0 0 0 0 0 0 0 0 0 0 0 0 0 0 0 0 0 0 0 0 0 0 0 0 0 0 0 0 0 0 0 0 0 0 0 0 0 0 0 0 0 0 0 0 0 0 0 0 0 0 0 0 0 0 0 0 0 0 0 0 0 0 0 0 0 0 0 0 0 0 0 0 0 0 0 0 0 0 0 0 0 0 0 0 0 0 0 0 0 0 0 0 0 0 0 0 0 0 0 0 0 0 0 0 0 0 0 0 0 1.24997e-05 4.99987e-05 0.000112497 0.000199995 0.000312492 0.000449988 0.000612484 0.000799979 0.000999155 0.00119669 0.0013926 0.00158686 0.00177949 0.00197048 0.00215983 0.00234755 0.00253276 0.00271458 0.00289301 0.00306807 0.00323973 0.00340802 0.00357291 0.00373443 0.00389116 0.00404174 0.00418614 0.00432438 0.00445645 0.00458235 0.00470208 0.00481565 0.00492314 0.00502464 0.00512015 0.00520967 0.0052932 0.00537074 0.00544229 0.00550785 0.0055683 0.00562451 0.0056765 0.00572424 0.00576776 0.00580704 0.00584209 0.00587291 0.00590043 0.0059256 0.00594842 0.0059689 0.00598701 0.00600278 0.0060162 0.00602727 0.00603654 0.00604458 0.00605138 0.00605694 0.00606127 0.00606436 0.00606622 0.00606684 0.00606622 0.00606437 0.00606128 0.00605696 0.00605139 0.0060446 0.00603657 0.0060273 0.00601623 0.00600282 0.00598706 0.00596894 0.00594847 0.00592566 0.00590049 0.00587297 0.00584216 0.00580711 0.00576783 0.00572432 0.00567658 0.0056246 0.00556839 0.00550795 0.00544239 0.00537085 0.00529331 0.00520979 0.00512027 0.00502476 0.00492327 0.00481578 0.00470222 0.00458249 0.00445659 0.00432452 0.00418629 0.00404189 0.00389132 0.00373459 0.00357307 0.00340818 0.0032399 0.00306823 0.00289318 0.00271474 0.00253292 0.00234772 0.00216 0.00197064 0.00177964 0.00158701 0.00139273 0.00119681 0.000999257 0.000800061 0.000612547 0.000450035 0.000312524 0.000200015 0.000112509 5.00038e-05 1.2501e-05 0 0 4.99987e-05 0.000199995 0.000449988 0.000799979 0.00124997 0.00179995 0.00244993 0.00319991 0.00399662 0.00478677 0.00557038 0.00634744 0.00711795 0.00788192 0.00863933 0.0093902 0.010131 0.0108583 0.0115721 0.0122723 0.0129589 0.0136321 0.0142917 0.0149377 0.0155647 0.0161669 0.0167446 0.0172975 0.0178258 0.0183294 0.0188083 0.0192626 0.0196926 0.0200986 0.0204806 0.0208387 0.0211728 0.021483 0.0217692 0.0220314 0.0222732 0.0224981 0.022706 0.022897 0.023071 0.0232282 0.0233684 0.0234916 0.0236017 0.0237024 0.0237937 0.0238756 0.0239481 0.0240111 0.0240648 0.0241091 0.0241462 0.0241783 0.0242055 0.0242278 0.0242451 0.0242574 0.0242649 0.0242673 0.0242649 0.0242575 0.0242451 0.0242278 0.0242056 0.0241784 0.0241463 0.0241092 0.0240649 0.0240113 0.0239482 0.0238758 0.0237939 0.0237026 0.023602 0.0234919 0.0233686 0.0232284 0.0230713 0.0228973 0.0227063 0.0224984 0.0222736 0.0220318 0.0217696 0.0214834 0.0211732 0.0208391 0.0204811 0.0200991 0.0196931 0.0192631 0.0188089 0.0183299 0.0178264 0.0172981 0.0167452 0.0161676 0.0155653 0.0149383 0.0142923 0.0136327 0.0129596 0.0122729 0.0115727 0.010859 0.0101317 0.00939087 0.00863999 0.00788256 0.00711857 0.00634802 0.00557092 0.00478725 0.00399703 0.00320025 0.00245019 0.00180014 0.0012501 0.000800061 0.000450035 0.000200015 5.00038e-05 0 0 0.000112497 0.000449988 0.00101247 0.00179995 0.00281242 0.00404989 0.00551235 0.00719981 0.00899239 0.0107702 0.0125334 0.0142817 0.0160154 0.0177343 0.0194385 0.0211279 0.0227948 0.0244312 0.0260371 0.0276126 0.0291576 0.0306721 0.0321562 0.0336098 0.0350205 0.0363756 0.0376753 0.0389194 0.040108 0.0412411 0.0423188 0.0433409 0.0443083 0.0452218 0.0460814 0.046887 0.0476388 0.0483367 0.0489806 0.0495707 0.0501147 0.0506206 0.0510885 0.0515182 0.0519098 0.0522634 0.0525788 0.0528562 0.0531039 0.0533304 0.0535358 0.0537201 0.0538831 0.054025 0.0541458 0.0542454 0.0543289 0.0544012 0.0544624 0.0545125 0.0545514 0.0545792 0.054596 0.0546015 0.054596 0.0545793 0.0545515 0.0545126 0.0544626 0.0544014 0.0543291 0.0542457 0.0541461 0.0540254 0.0538835 0.0537205 0.0535363 0.0533309 0.0531044 0.0528567 0.0525794 0.052264 0.0519105 0.0515189 0.0510892 0.0506214 0.0501155 0.0495715 0.0489815 0.0483376 0.0476398 0.0468881 0.0460824 0.0452229 0.0443094 0.043342 0.04232 0.0412424 0.0401093 0.0389207 0.0376766 0.036377 0.0350219 0.0336113 0.0321577 0.0306736 0.0291591 0.0276141 0.0260386 0.0244327 0.0227963 0.0211295 0.01944 0.0177358 0.0160168 0.0142831 0.0125346 0.0107713 0.00899331 0.00720055 0.00551292 0.00405031 0.00281272 0.00180014 0.00101258 0.000450035 0.000112509 0 0 0.000199995 0.000799979 0.00179995 0.00319991 0.00499987 0.00719981 0.00979974 0.0127997 0.0159865 0.0191471 0.0222815 0.0253898 0.0284718 0.0315277 0.0345573 0.0375608 0.0405241 0.0434332 0.0462882 0.049089 0.0518357 0.0545282 0.0571666 0.0597508 0.0622586 0.0646678 0.0669782 0.06919 0.0713031 0.0733176 0.0752333 0.0770504 0.0787703 0.0803943 0.0819224 0.0833547 0.0846912 0.0859319 0.0870766 0.0881256 0.0890928 0.0899922 0.0908239 0.0915879 0.0922842 0.0929127 0.0934735 0.0939665 0.0944069 0.0948097 0.0951748 0.0955023 0.0957922 0.0960445 0.0962592 0.0964363 0.0965846 0.0967132 0.096822 0.0969111 0.0969803 0.0970298 0.0970595 0.0970694 0.0970595 0.0970299 0.0969805 0.0969113 0.0968223 0.0967136 0.096585 0.0964367 0.0962597 0.0960451 0.0957929 0.095503 0.0951756 0.0948105 0.0944078 0.0939675 0.0934745 0.0929138 0.0922853 0.0915892 0.0908253 0.0899936 0.0890942 0.0881271 0.0870783 0.0859335 0.084693 0.0833566 0.0819243 0.0803962 0.0787723 0.0770525 0.0752355 0.0733198 0.0713054 0.0691924 0.0669806 0.0646702 0.0622611 0.0597534 0.0571692 0.0545308 0.0518384 0.0490917 0.0462909 0.0434359 0.0405268 0.0375635 0.03456 0.0315302 0.0284743 0.0253921 0.0222837 0.019149 0.0159881 0.012801 0.00980075 0.00720055 0.00500038 0.00320025 0.00180014 0.000800061 0.000200015 0 0 0.000312492 0.00124997 0.00281242 0.00499987 0.00781229 0.0112497 0.0153121 0.0199995 0.0249789 0.0299173 0.0348149 0.0396715 0.0444872 0.049262 0.0539958 0.0586887 0.0633189 0.0678644 0.0723253 0.0767016 0.0809933 0.0852004 0.0893228 0.0933607 0.0972791 0.101043 0.104653 0.108109 0.111411 0.114559 0.117552 0.120391 0.123079 0.125616 0.128004 0.130242 0.13233 0.134269 0.136057 0.137696 0.139207 0.140613 0.141912 0.143106 0.144194 0.145176 0.146052 0.146823 0.147511 0.14814 0.148711 0.149222 0.149675 0.15007 0.150405 0.150682 0.150913 0.151114 0.151284 0.151424 0.151532 0.151609 0.151655 0.151671 0.151656 0.151609 0.151532 0.151424 0.151285 0.151115 0.150914 0.150682 0.150406 0.150071 0.149676 0.149224 0.148712 0.148141 0.147512 0.146824 0.146054 0.145178 0.144196 0.143108 0.141914 0.140615 0.13921 0.137699 0.13606 0.134271 0.132333 0.130245 0.128007 0.125619 0.123082 0.120395 0.117555 0.114562 0.111415 0.108113 0.104657 0.101047 0.097283 0.0933646 0.0893269 0.0852045 0.0809974 0.0767058 0.0723295 0.0678686 0.0633231 0.0586929 0.054 0.049266 0.0444911 0.0396751 0.0348182 0.0299203 0.0249814 0.0200015 0.0153137 0.0112509 0.0078131 0.00500038 0.00281272 0.0012501 0.000312524 0 0 0.000449988 0.00179995 0.00404989 0.00719981 0.0112497 0.0161996 0.0220494 0.0287992 0.0359696 0.043081 0.0501334 0.057127 0.0640616 0.0709372 0.077754 0.0845118 0.0911792 0.0977248 0.104148 0.11045 0.11663 0.122689 0.128625 0.134439 0.140082 0.145502 0.150701 0.155678 0.160432 0.164965 0.169275 0.173363 0.177233 0.180887 0.184325 0.187548 0.190555 0.193347 0.195922 0.198283 0.200459 0.202482 0.204354 0.206073 0.207639 0.209054 0.210315 0.211425 0.212416 0.213322 0.214143 0.21488 0.215533 0.2161 0.216583 0.216982 0.217315 0.217605 0.21785 0.21805 0.218206 0.218317 0.218384 0.218406 0.218384 0.218317 0.218206 0.21805 0.21785 0.217606 0.217316 0.216983 0.216584 0.216102 0.215534 0.214882 0.214145 0.213324 0.212418 0.211427 0.210318 0.209056 0.207642 0.206076 0.204357 0.202486 0.200462 0.198286 0.195926 0.19335 0.190559 0.187552 0.18433 0.180892 0.177238 0.173368 0.16928 0.16497 0.160437 0.155683 0.150706 0.145508 0.140088 0.134445 0.128631 0.122694 0.116636 0.110456 0.104154 0.0977308 0.0911852 0.0845178 0.0777599 0.0709431 0.0640671 0.0571322 0.0501382 0.0430853 0.0359732 0.0288022 0.0220517 0.0162012 0.0112509 0.00720055 0.00405031 0.00180014 0.000450035 0 0 0.000612484 0.00244993 0.00551235 0.00979974 0.0153121 0.0220494 0.0300117 0.0391989 0.0489586 0.058638 0.0682372 0.0777562 0.0871949 0.0965535 0.105832 0.11503 0.124105 0.133014 0.141758 0.150335 0.158747 0.166993 0.175073 0.182987 0.190667 0.198045 0.205121 0.211894 0.218366 0.224535 0.230402 0.235967 0.241234 0.246207 0.250887 0.255274 0.259367 0.263166 0.266672 0.269885 0.272847 0.275601 0.278148 0.280488 0.28262 0.284545 0.286262 0.287772 0.289121 0.290355 0.291473 0.292476 0.293364 0.294136 0.294794 0.295336 0.29579 0.296184 0.296517 0.29679 0.297002 0.297154 0.297245 0.297275 0.297245 0.297154 0.297003 0.296791 0.296518 0.296185 0.295792 0.295338 0.294795 0.294138 0.293366 0.292478 0.291475 0.290357 0.289124 0.287775 0.286266 0.284548 0.282624 0.280492 0.278152 0.275605 0.272851 0.269889 0.266677 0.263171 0.259372 0.255279 0.250893 0.246213 0.24124 0.235973 0.230409 0.224542 0.218373 0.211902 0.205128 0.198053 0.190675 0.182995 0.175081 0.167001 0.158755 0.150343 0.141766 0.133022 0.124113 0.115038 0.10584 0.0965614 0.0872025 0.0777633 0.0682437 0.0586438 0.0489636 0.039203 0.0300148 0.0220517 0.0153137 0.00980075 0.00551292 0.00245019 0.000612547 0 0 0.000799979 0.00319991 0.00719981 0.0127997 0.0199995 0.0287992 0.0391989 0.0511986 0.0639459 0.0765884 0.0891261 0.101559 0.113887 0.126111 0.138229 0.150243 0.162096 0.173733 0.185153 0.196356 0.207343 0.218113 0.228666 0.239003 0.249035 0.258671 0.267913 0.27676 0.285213 0.29327 0.300933 0.308202 0.315081 0.321577 0.32769 0.333419 0.338765 0.343727 0.348307 0.352502 0.356371 0.359969 0.363296 0.366352 0.369137 0.371651 0.373894 0.375866 0.377628 0.379239 0.380699 0.382009 0.383169 0.384178 0.385037 0.385745 0.386339 0.386853 0.387288 0.387644 0.387921 0.388119 0.388238 0.388278 0.388238 0.38812 0.387922 0.387645 0.387289 0.386854 0.38634 0.385747 0.385039 0.38418 0.383172 0.382012 0.380702 0.379242 0.377631 0.37587 0.373898 0.371655 0.369141 0.366357 0.363301 0.359974 0.356377 0.352509 0.348313 0.343734 0.338772 0.333426 0.327697 0.321585 0.315089 0.30821 0.300942 0.293279 0.285222 0.276769 0.267922 0.258681 0.249045 0.239013 0.228677 0.218123 0.207353 0.196367 0.185164 0.173744 0.162107 0.150254 0.13824 0.126121 0.113897 0.101568 0.0891347 0.076596 0.0639524 0.0512039 0.039203 0.0288022 0.0200015 0.012801 0.00720055 0.00320025 0.000800061 0 0 0.000999154 0.00399661 0.00899238 0.0159865 0.0249788 0.0359695 0.0489585 0.0639458 0.0798664 0.0956551 0.111312 0.126837 0.14223 0.157492 0.172621 0.187619 0.202415 0.21694 0.231193 0.245175 0.258886 0.272326 0.285494 0.298391 0.310905 0.322927 0.334455 0.345489 0.356031 0.366079 0.375634 0.384696 0.393272 0.40137 0.408989 0.416129 0.422791 0.428974 0.434679 0.439906 0.444724 0.449205 0.453347 0.457152 0.46062 0.463749 0.466541 0.468995 0.471186 0.47319 0.475007 0.476636 0.478078 0.479333 0.4804 0.48128 0.482018 0.482657 0.483197 0.48364 0.483984 0.48423 0.484377 0.484427 0.484378 0.48423 0.483985 0.483641 0.483199 0.482658 0.48202 0.481283 0.480403 0.479336 0.478081 0.47664 0.475011 0.473194 0.47119 0.468999 0.466546 0.463755 0.460625 0.457159 0.453354 0.449212 0.444731 0.439913 0.434687 0.428983 0.4228 0.416138 0.408998 0.401379 0.393282 0.384707 0.375645 0.36609 0.356042 0.345501 0.334467 0.322939 0.310918 0.298403 0.285507 0.272339 0.258899 0.245189 0.231207 0.216953 0.202428 0.187632 0.172634 0.157504 0.142243 0.126849 0.111323 0.0956646 0.0798745 0.0639524 0.0489636 0.0359732 0.0249814 0.0159881 0.00899331 0.00399703 0.000999257 0 0 0.00119669 0.00478676 0.0107702 0.019147 0.0299172 0.0430808 0.0586378 0.0765881 0.0956548 0.114561 0.133306 0.151891 0.170315 0.188579 0.206682 0.224624 0.242323 0.259694 0.276738 0.293455 0.309845 0.325907 0.341643 0.357051 0.372 0.386358 0.400123 0.413298 0.42588 0.437871 0.449271 0.460079 0.470305 0.479959 0.48904 0.49755 0.505487 0.512852 0.519644 0.525864 0.531597 0.536927 0.541854 0.546379 0.5505 0.554218 0.557534 0.560447 0.563047 0.565425 0.567579 0.569512 0.571221 0.572708 0.573972 0.575014 0.575886 0.576642 0.577281 0.577804 0.578212 0.578502 0.578677 0.578735 0.578677 0.578503 0.578213 0.577806 0.577283 0.576644 0.575888 0.575016 0.573975 0.572711 0.571225 0.569516 0.567584 0.56543 0.563053 0.560453 0.55754 0.554225 0.550507 0.546386 0.541862 0.536935 0.531606 0.525874 0.519654 0.512862 0.505497 0.49756 0.489052 0.47997 0.470317 0.460091 0.449284 0.437885 0.425894 0.413311 0.400137 0.386372 0.372015 0.357066 0.341658 0.325923 0.30986 0.293471 0.276754 0.25971 0.242339 0.22464 0.206698 0.188594 0.17033 0.151905 0.133319 0.114572 0.0956645 0.076596 0.0586438 0.0430852 0.0299203 0.019149 0.0107713 0.00478725 0.00119681 0 0 0.00139259 0.00557035 0.0125333 0.0222814 0.0348147 0.0501331 0.0682367 0.0891255 0.111311 0.133306 0.155109 0.176722 0.198143 0.219373 0.240412 0.261259 0.28182 0.301995 0.321787 0.341195 0.360219 0.378858 0.397114 0.414985 0.432319 0.448964 0.464919 0.480184 0.49476 0.508646 0.521843 0.53435 0.546179 0.557345 0.567845 0.577681 0.586852 0.595359 0.603201 0.610379 0.616991 0.623137 0.628817 0.63403 0.638778 0.643059 0.646874 0.650224 0.653211 0.655943 0.658418 0.660636 0.662598 0.664303 0.665752 0.666945 0.667943 0.668808 0.669539 0.670138 0.670604 0.670937 0.671136 0.671203 0.671137 0.670938 0.670605 0.67014 0.669541 0.66881 0.667946 0.666948 0.665756 0.664307 0.662602 0.660641 0.658423 0.655948 0.653218 0.65023 0.646882 0.643067 0.638786 0.634039 0.628826 0.623146 0.617001 0.610389 0.603212 0.59537 0.586864 0.577693 0.567858 0.557358 0.546193 0.534364 0.521858 0.508662 0.494776 0.4802 0.464935 0.448981 0.432336 0.415002 0.397131 0.378876 0.360237 0.341213 0.321805 0.302014 0.281838 0.261278 0.24043 0.219391 0.19816 0.176738 0.155124 0.133319 0.111322 0.0891345 0.0682436 0.0501382 0.0348182 0.0222836 0.0125345 0.00557091 0.00139273 0 0 0.00158684 0.00634738 0.0142816 0.0253895 0.0396711 0.0571264 0.0777554 0.101558 0.126836 0.15189 0.176721 0.201329 0.225713 0.249873 0.273811 0.297524 0.320905 0.343844 0.366341 0.388395 0.410008 0.431178 0.451906 0.472191 0.491862 0.510746 0.528842 0.54615 0.562671 0.578404 0.59335 0.607509 0.620896 0.633527 0.645403 0.656523 0.666888 0.676497 0.68535 0.693448 0.700905 0.707833 0.714234 0.720108 0.725453 0.730271 0.734562 0.738324 0.741678 0.744744 0.747521 0.750009 0.752209 0.754119 0.755741 0.757074 0.758189 0.759155 0.759972 0.760641 0.761161 0.761533 0.761756 0.761831 0.761757 0.761534 0.761163 0.760643 0.759974 0.759158 0.758192 0.757078 0.755745 0.754124 0.752213 0.750015 0.747527 0.744751 0.741685 0.738332 0.73457 0.73028 0.725462 0.720117 0.714244 0.707844 0.700916 0.69346 0.685363 0.67651 0.666901 0.656537 0.645417 0.633542 0.620911 0.607525 0.593367 0.578421 0.562688 0.546168 0.52886 0.510765 0.491881 0.472211 0.451925 0.431198 0.410028 0.388416 0.366361 0.343865 0.320926 0.297545 0.273831 0.249893 0.225732 0.201346 0.176737 0.151905 0.126848 0.101568 0.0777631 0.0571321 0.0396751 0.025392 0.014283 0.00634801 0.001587 0 0 0.00177946 0.00711785 0.0160152 0.0284714 0.0444866 0.0640607 0.0871937 0.113886 0.142228 0.170314 0.198141 0.225712 0.253025 0.28008 0.306878 0.333419 0.35958 0.38524 0.410399 0.435056 0.459212 0.482866 0.50602 0.528671 0.55063 0.571703 0.591891 0.611194 0.629612 0.647145 0.663793 0.679556 0.694453 0.708506 0.721713 0.734075 0.745593 0.756265 0.766091 0.775073 0.783339 0.791017 0.798107 0.804611 0.810526 0.815855 0.820595 0.824749 0.828448 0.831829 0.83489 0.837631 0.840053 0.842155 0.843938 0.845402 0.846624 0.847683 0.84858 0.849313 0.849884 0.850291 0.850536 0.850617 0.850536 0.850292 0.849885 0.849315 0.848582 0.847686 0.846627 0.845406 0.843943 0.84216 0.840058 0.837637 0.834896 0.831836 0.828456 0.824757 0.820604 0.815864 0.810536 0.804621 0.798119 0.791029 0.783351 0.775086 0.766105 0.756279 0.745607 0.734091 0.721729 0.708522 0.694471 0.679574 0.663811 0.647164 0.629632 0.611214 0.591912 0.571724 0.550651 0.528693 0.506041 0.482889 0.459234 0.435079 0.410422 0.385263 0.359603 0.333442 0.306901 0.280102 0.253046 0.225731 0.198159 0.17033 0.142242 0.113897 0.0872022 0.0640669 0.0444909 0.0284742 0.0160167 0.00711855 0.00177964 0 0 0.00197044 0.00788177 0.017734 0.0315271 0.049261 0.0709359 0.0965517 0.126108 0.157489 0.188576 0.21937 0.249871 0.280079 0.309994 0.339615 0.368944 0.397845 0.426184 0.453961 0.481177 0.507831 0.533924 0.559455 0.584424 0.608621 0.631836 0.654068 0.675318 0.695585 0.714869 0.733172 0.750491 0.766853 0.782281 0.796777 0.810339 0.822967 0.834663 0.845425 0.855254 0.864293 0.872687 0.880436 0.887539 0.893997 0.899809 0.904976 0.909497 0.913521 0.917197 0.920524 0.923502 0.926131 0.928412 0.930344 0.931927 0.933248 0.934393 0.935361 0.936154 0.936771 0.937211 0.937475 0.937564 0.937476 0.937212 0.936772 0.936156 0.935364 0.934396 0.933252 0.931931 0.930349 0.928417 0.926137 0.923508 0.920531 0.917205 0.91353 0.909506 0.904985 0.899819 0.894008 0.887551 0.880448 0.8727 0.864307 0.855268 0.84544 0.834678 0.822983 0.810355 0.796794 0.7823 0.766872 0.750511 0.733191 0.71489 0.695606 0.675339 0.65409 0.631858 0.608644 0.584448 0.559479 0.533948 0.507856 0.481202 0.453986 0.426209 0.397869 0.368968 0.33964 0.310018 0.280102 0.249893 0.21939 0.188594 0.157504 0.12612 0.096561 0.0709428 0.0492658 0.0315301 0.0177357 0.00788253 0.00197063 0 0 0.00215978 0.00863913 0.019438 0.0345565 0.0539946 0.0777522 0.105829 0.138226 0.172617 0.206678 0.240408 0.273807 0.306876 0.339614 0.372021 0.404098 0.435698 0.466675 0.497028 0.526759 0.555866 0.584351 0.612212 0.63945 0.665837 0.691144 0.715372 0.738519 0.760588 0.781576 0.801485 0.820315 0.838094 0.854854 0.870593 0.885312 0.899012 0.911691 0.92335 0.93399 0.943768 0.952845 0.96122 0.968893 0.975865 0.982135 0.987703 0.99257 0.996897 1.00085 1.00442 1.00762 1.01044 1.01289 1.01496 1.01665 1.01806 1.01928 1.02032 1.02116 1.02182 1.02229 1.02258 1.02267 1.02258 1.02229 1.02182 1.02117 1.02032 1.01929 1.01807 1.01666 1.01496 1.01289 1.01045 1.00763 1.00443 1.00086 0.996906 0.992579 0.987713 0.982146 0.975876 0.968905 0.961233 0.952859 0.943783 0.934005 0.923366 0.911708 0.899029 0.88533 0.870612 0.854873 0.838114 0.820336 0.801507 0.781599 0.76061 0.738543 0.715395 0.691168 0.665862 0.639475 0.612238 0.584377 0.555893 0.526785 0.497055 0.466701 0.435724 0.404124 0.372047 0.339639 0.3069 0.27383 0.240429 0.206697 0.172633 0.138239 0.105839 0.0777595 0.0539997 0.0345598 0.0194399 0.00863995 0.00215999 0 0 0.00234748 0.00938993 0.0211274 0.0375597 0.0586871 0.0845094 0.115027 0.150239 0.187614 0.224619 0.261254 0.297519 0.333415 0.36894 0.404096 0.438882 0.47314 0.506713 0.539599 0.571801 0.603316 0.634146 0.664291 0.693749 0.722277 0.749628 0.775802 0.8008 0.824621 0.847266 0.868735 0.889026 0.908177 0.926222 0.943162 0.958997 0.973726 0.98735 0.999868 1.01128 1.02176 1.03149 1.04046 1.04867 1.05613 1.06283 1.06878 1.07397 1.07858 1.08278 1.08659 1.08999 1.09299 1.09559 1.09778 1.09957 1.10106 1.10236 1.10345 1.10434 1.10504 1.10554 1.10584 1.10593 1.10584 1.10554 1.10504 1.10435 1.10345 1.10236 1.10107 1.09958 1.09779 1.09559 1.093 1.09 1.0866 1.08279 1.07859 1.07398 1.06879 1.06284 1.05614 1.04869 1.04047 1.0315 1.02178 1.0113 0.999885 0.987367 0.973745 0.959016 0.943182 0.926243 0.908199 0.889049 0.868758 0.84729 0.824646 0.800825 0.775828 0.749654 0.722303 0.693776 0.664318 0.634174 0.603344 0.571829 0.539628 0.506741 0.473169 0.43891 0.404124 0.368968 0.333441 0.297544 0.261276 0.224639 0.187631 0.150253 0.115037 0.0845173 0.0586926 0.0375632 0.0211293 0.00939081 0.0023477 0 0 0.00253267 0.0101307 0.0227941 0.0405228 0.0633168 0.0911762 0.124101 0.162091 0.202409 0.242316 0.281812 0.320898 0.359574 0.397839 0.435694 0.473138 0.510002 0.546117 0.581483 0.616099 0.649967 0.683085 0.715453 0.747073 0.777681 0.807016 0.835078 0.861868 0.887384 0.911627 0.934597 0.956295 0.976761 0.996038 1.01413 1.03103 1.04674 1.06126 1.07459 1.08673 1.09788 1.10821 1.11774 1.12646 1.13437 1.14147 1.14776 1.15325 1.15812 1.16256 1.16657 1.17015 1.17331 1.17605 1.17835 1.18023 1.18179 1.18314 1.18429 1.18523 1.18595 1.18647 1.18679 1.18689 1.18679 1.18648 1.18596 1.18523 1.18429 1.18315 1.1818 1.18024 1.17836 1.17605 1.17332 1.17016 1.16658 1.16256 1.15813 1.15326 1.14777 1.14148 1.13438 1.12647 1.11775 1.10823 1.09789 1.08675 1.07461 1.06128 1.04675 1.03105 1.01415 0.99606 0.976784 0.956318 0.934622 0.911652 0.88741 0.861894 0.835106 0.807044 0.777709 0.747101 0.715482 0.683114 0.649996 0.616129 0.581513 0.546147 0.510032 0.473168 0.435723 0.397868 0.359602 0.320924 0.281836 0.242337 0.202427 0.162106 0.124112 0.0911845 0.0633226 0.0405265 0.0227961 0.0101316 0.0025329 0 0 0.00271448 0.0108579 0.0244303 0.0434316 0.0678619 0.0977212 0.133009 0.173727 0.216932 0.259685 0.301986 0.343835 0.385232 0.426176 0.466668 0.506708 0.546115 0.584708 0.622487 0.659452 0.695603 0.73094 0.765463 0.799172 0.83179 0.863039 0.892919 0.921431 0.948573 0.974347 0.998752 1.02179 1.0435 1.06395 1.08313 1.10103 1.11767 1.13303 1.14712 1.15994 1.1717 1.1826 1.19264 1.20183 1.21015 1.21762 1.22423 1.22998 1.23507 1.23972 1.24392 1.24766 1.25096 1.25381 1.25621 1.25816 1.25978 1.26118 1.26237 1.26334 1.2641 1.26464 1.26496 1.26507 1.26496 1.26464 1.2641 1.26334 1.26237 1.26119 1.25979 1.25817 1.25622 1.25382 1.25097 1.24767 1.24392 1.23973 1.23508 1.22999 1.22424 1.21763 1.21017 1.20184 1.19266 1.18262 1.17172 1.15996 1.14714 1.13305 1.11769 1.10105 1.08315 1.06397 1.04353 1.02181 0.998778 0.974373 0.9486 0.921458 0.892948 0.863068 0.83182 0.799202 0.765494 0.730971 0.695634 0.659483 0.622518 0.58474 0.546147 0.50674 0.4667 0.426207 0.385261 0.343863 0.302011 0.259708 0.216951 0.173742 0.133021 0.0977299 0.067868 0.0434355 0.0244325 0.0108589 0.00271472 0 0 0.0028929 0.0115716 0.0260361 0.0462863 0.0723224 0.104144 0.141752 0.185145 0.231184 0.276728 0.321776 0.36633 0.410388 0.453951 0.49702 0.539593 0.581478 0.622484 0.662611 0.701857 0.740224 0.777712 0.81432 0.850048 0.884604 0.917696 0.949324 0.979489 1.00819 1.03543 1.0612 1.08551 1.10841 1.12996 1.15016 1.16901 1.18652 1.20267 1.21747 1.23092 1.24324 1.25466 1.26517 1.27478 1.28348 1.29128 1.29817 1.30415 1.30945 1.31427 1.31863 1.32252 1.32593 1.32888 1.33136 1.33337 1.33503 1.33648 1.3377 1.3387 1.33947 1.34003 1.34036 1.34047 1.34036 1.34003 1.33947 1.3387 1.3377 1.33648 1.33504 1.33338 1.33137 1.32889 1.32594 1.32253 1.31864 1.31428 1.30946 1.30416 1.29818 1.29129 1.2835 1.2748 1.26519 1.25468 1.24326 1.23094 1.21749 1.20269 1.18654 1.16904 1.15019 1.12998 1.10843 1.08553 1.06123 1.03545 1.00822 0.979518 0.949354 0.917727 0.884635 0.850079 0.814352 0.777744 0.740257 0.70189 0.662644 0.622518 0.581512 0.539626 0.497052 0.453983 0.410419 0.366358 0.321803 0.276751 0.231204 0.185162 0.141764 0.104153 0.0723287 0.0462904 0.0260383 0.0115726 0.00289315 0 0 0.00306793 0.0122717 0.0276114 0.0490869 0.0766983 0.110445 0.150329 0.196348 0.245165 0.293443 0.341182 0.388382 0.435043 0.481165 0.526748 0.571792 0.616092 0.659447 0.701855 0.743317 0.783832 0.823401 0.862023 0.899699 0.936122 0.970987 1.00429 1.03604 1.06623 1.09486 1.12194 1.14745 1.17147 1.19407 1.21523 1.23497 1.25329 1.27017 1.28563 1.29966 1.3125 1.32439 1.33533 1.34532 1.35436 1.36245 1.36958 1.37577 1.38124 1.38622 1.39071 1.39471 1.39823 1.40126 1.4038 1.40585 1.40755 1.40902 1.41027 1.41128 1.41208 1.41264 1.41298 1.41309 1.41298 1.41264 1.41208 1.41129 1.41027 1.40903 1.40756 1.40586 1.40381 1.40127 1.39824 1.39472 1.39072 1.38623 1.38125 1.37578 1.3696 1.36246 1.35437 1.34534 1.33535 1.32441 1.31252 1.29968 1.28565 1.27019 1.25331 1.235 1.21526 1.19409 1.1715 1.14748 1.12196 1.09489 1.06626 1.03607 1.00433 0.971019 0.936155 0.899732 0.862056 0.823434 0.783866 0.743351 0.701889 0.659481 0.616127 0.571826 0.526782 0.481198 0.435075 0.388412 0.341209 0.293467 0.245186 0.196364 0.150341 0.110455 0.0767048 0.0490911 0.0276137 0.0122728 0.00306819 0 0 0.00323958 0.0129583 0.0291562 0.0518333 0.0809895 0.116625 0.158739 0.207333 0.258874 0.309831 0.360204 0.409993 0.459197 0.507817 0.555853 0.603305 0.649957 0.695595 0.740219 0.783829 0.826425 0.868006 0.908573 0.948126 0.986346 1.02291 1.05783 1.09109 1.1227 1.15266 1.18097 1.20762 1.2327 1.25627 1.27834 1.29891 1.31798 1.33554 1.3516 1.36616 1.37947 1.39179 1.40311 1.41344 1.42278 1.43113 1.43848 1.44484 1.45045 1.45555 1.46016 1.46425 1.46785 1.47094 1.47353 1.47561 1.47733 1.47882 1.48008 1.48111 1.48191 1.48248 1.48283 1.48294 1.48283 1.48248 1.48191 1.48111 1.48008 1.47882 1.47733 1.47562 1.47354 1.47095 1.46786 1.46426 1.46017 1.45556 1.45046 1.44485 1.43849 1.43114 1.4228 1.41346 1.40313 1.39181 1.37949 1.36618 1.35162 1.33556 1.318 1.29894 1.27837 1.2563 1.23272 1.20765 1.181 1.15269 1.12273 1.09112 1.05786 1.02295 0.986379 0.94816 0.908608 0.868041 0.82646 0.783865 0.740255 0.695631 0.649993 0.60334 0.555888 0.507851 0.459229 0.410023 0.360232 0.309856 0.258896 0.20735 0.158753 0.116635 0.0809962 0.0518376 0.0291586 0.0129594 0.00323985 0 0 0.00340784 0.0136314 0.0306706 0.0545255 0.0851961 0.122682 0.166984 0.218102 0.272312 0.325892 0.378842 0.431161 0.482849 0.533907 0.584335 0.634132 0.683072 0.73093 0.777704 0.823395 0.868003 0.911528 0.95397 0.995329 1.03527 1.07347 1.10993 1.14464 1.1776 1.20882 1.23829 1.26602 1.29208 1.31657 1.33949 1.36083 1.38059 1.39878 1.41539 1.43043 1.44416 1.45686 1.46852 1.47915 1.48875 1.49732 1.50485 1.51135 1.51707 1.52228 1.52697 1.53114 1.53479 1.53793 1.54055 1.54265 1.54437 1.54587 1.54713 1.54817 1.54897 1.54955 1.54989 1.55001 1.5499 1.54955 1.54898 1.54817 1.54714 1.54587 1.54438 1.54265 1.54055 1.53794 1.5348 1.53115 1.52698 1.52229 1.51709 1.51136 1.50486 1.49733 1.48877 1.47917 1.46854 1.45687 1.44418 1.43045 1.41541 1.3988 1.38061 1.36085 1.33951 1.3166 1.29211 1.26604 1.23832 1.20885 1.17763 1.14467 1.10996 1.07351 1.03531 0.995364 0.954006 0.911564 0.868039 0.823432 0.77774 0.730966 0.683109 0.634168 0.584371 0.533942 0.482882 0.431192 0.37887 0.325918 0.272334 0.21812 0.166998 0.122692 0.085203 0.0545299 0.0306731 0.0136325 0.00340812 0 0 0.00357272 0.0142909 0.0321545 0.0571636 0.0893181 0.128618 0.175063 0.228654 0.285479 0.341626 0.397095 0.451886 0.506 0.559436 0.612193 0.664274 0.715438 0.76545 0.814309 0.862015 0.908568 0.953967 0.998214 1.04131 1.08291 1.12267 1.16059 1.19667 1.23092 1.26333 1.2939 1.32264 1.34963 1.37497 1.39867 1.42072 1.44112 1.45988 1.47699 1.49245 1.50656 1.51959 1.53155 1.54245 1.55227 1.56102 1.5687 1.57531 1.58112 1.5864 1.59115 1.59537 1.59906 1.60222 1.60485 1.60695 1.60868 1.61017 1.61143 1.61246 1.61327 1.61384 1.61419 1.6143 1.61419 1.61384 1.61327 1.61247 1.61143 1.61017 1.60868 1.60696 1.60486 1.60223 1.59907 1.59538 1.59116 1.58641 1.58113 1.57532 1.56871 1.56103 1.55228 1.54246 1.53157 1.51961 1.50658 1.49247 1.47701 1.4599 1.44115 1.42074 1.39869 1.375 1.34965 1.32266 1.29393 1.26336 1.23095 1.19671 1.16062 1.1227 1.08294 1.04134 0.99825 0.954004 0.908604 0.862052 0.814346 0.765487 0.715476 0.664311 0.61223 0.559471 0.506034 0.451918 0.397124 0.341652 0.285501 0.228672 0.175077 0.128628 0.0893252 0.0571681 0.0321571 0.014292 0.00357301 0 0 0.00373422 0.0149369 0.033608 0.0597475 0.0933555 0.134432 0.182977 0.23899 0.298374 0.357032 0.414964 0.47217 0.528649 0.584402 0.639429 0.69373 0.747055 0.799156 0.850034 0.899688 0.948117 0.995323 1.04131 1.08606 1.12924 1.1705 1.20982 1.24721 1.28267 1.3162 1.34781 1.37748 1.40533 1.43147 1.45588 1.47859 1.49957 1.51885 1.5364 1.55224 1.56667 1.58 1.59221 1.60333 1.61333 1.62223 1.63003 1.63672 1.64258 1.64791 1.6527 1.65694 1.66065 1.66382 1.66645 1.66854 1.67024 1.67172 1.67297 1.67399 1.67479 1.67536 1.6757 1.67581 1.6757 1.67536 1.67479 1.674 1.67297 1.67172 1.67025 1.66854 1.66645 1.66383 1.66066 1.65695 1.65271 1.64792 1.64259 1.63673 1.63004 1.62225 1.61335 1.60334 1.59223 1.58001 1.56669 1.55226 1.53642 1.51887 1.4996 1.47861 1.45591 1.43149 1.40536 1.37751 1.34784 1.31624 1.2827 1.24724 1.20985 1.17053 1.12928 1.0861 1.04134 0.99536 0.948155 0.899725 0.850072 0.799194 0.747093 0.693767 0.639466 0.584438 0.528684 0.472202 0.414994 0.357059 0.298397 0.239008 0.182991 0.134442 0.0933626 0.0597521 0.0336105 0.014938 0.00373451 0 0 0.00389094 0.0155638 0.0350184 0.062255 0.0972734 0.140074 0.190656 0.24902 0.310887 0.37198 0.432297 0.491839 0.550605 0.608597 0.665813 0.722254 0.77766 0.831771 0.884587 0.936108 0.986334 1.03526 1.0829 1.12924 1.17392 1.21659 1.25723 1.29585 1.33246 1.36704 1.3996 1.43015 1.45879 1.48565 1.51073 1.53403 1.55554 1.57527 1.59322 1.60939 1.6241 1.63767 1.6501 1.66139 1.67155 1.68056 1.68844 1.69518 1.70108 1.70643 1.71123 1.71548 1.71919 1.72235 1.72496 1.72703 1.7287 1.73016 1.73139 1.7324 1.73318 1.73374 1.73408 1.73419 1.73408 1.73374 1.73318 1.7324 1.73139 1.73016 1.72871 1.72703 1.72497 1.72236 1.7192 1.71549 1.71124 1.70644 1.70109 1.6952 1.68846 1.68058 1.67156 1.66141 1.65012 1.63769 1.62412 1.60941 1.59325 1.5753 1.55557 1.53405 1.51076 1.48568 1.45882 1.43018 1.39964 1.36707 1.33249 1.29589 1.25727 1.21662 1.17396 1.12928 1.08294 1.0353 0.986372 0.936147 0.884626 0.83181 0.777699 0.722292 0.665851 0.608633 0.55064 0.491871 0.432327 0.372006 0.31091 0.249039 0.19067 0.140084 0.0972807 0.0622596 0.035021 0.0155649 0.00389123 0 0 0.00404149 0.016166 0.0363734 0.0646638 0.101037 0.145494 0.198033 0.258655 0.322907 0.386335 0.448939 0.51072 0.571676 0.631809 0.691118 0.749603 0.806993 0.863017 0.917677 0.97097 1.0229 1.07346 1.12266 1.17049 1.21658 1.26057 1.30245 1.34222 1.37989 1.41545 1.44889 1.48024 1.5096 1.53712 1.5628 1.58663 1.60861 1.62875 1.64705 1.66349 1.67844 1.69221 1.70482 1.71625 1.72652 1.73562 1.74356 1.75032 1.75623 1.76158 1.76637 1.77062 1.77431 1.77744 1.78003 1.78205 1.7837 1.78512 1.78632 1.78731 1.78808 1.78862 1.78895 1.78906 1.78895 1.78863 1.78808 1.78731 1.78633 1.78512 1.7837 1.78206 1.78003 1.77745 1.77432 1.77063 1.76638 1.76159 1.75624 1.75034 1.74357 1.73564 1.72654 1.71627 1.70483 1.69223 1.67846 1.66352 1.6470