<?xml version="1.0"?> 
<VTKFile type="StructuredGrid" version="0.1"> 
<StructuredGrid WholeExtent="0 128 0 128 0 0"> 
<Piece Extent="0 128 0 128 0 0"> 
<PointData>
<DataArray type="Float32" Name="u" format="ascii" NumberOfComponents="1"> 
0 0 0 0 0 0 0 0 0 0 0 0 0 0 0 0 0 0 0 0 0 0 0 0 0 0 0 0 0 0 0 0 0 0 0 0 0 0 0 0 0 0 0 0 0 0 0 0 0 0 0 0 0 0 0 0 0 0 0 0 0 0 0 0 0 0 0 0 0 0 0 0 0 0 0 0 0 0 0 0 0 0 0 0 0 0 0 0 0 0 0 0 0 0 0 0 0 0 0 0 0 0 0 0 0 0 0 0 0 0 0 0 0 0 0 0 0 0 0 0 0 0 0 0 0 0 0 0 0 0 1.24824e-05 4.99296e-05 0.000112342 0.000199718 0.00031206 0.000449366 0.000611638 0.000798874 0.000997778 0.00119505 0.0013907 0.00158472 0.00177711 0.00196787 0.00215701 0.00234451 0.00252952 0.00271115 0.00288941 0.0030643 0.00323582 0.00340396 0.00356873 0.00373013 0.00388676 0.00403724 0.00418157 0.00431974 0.00445176 0.00457763 0.00469734 0.0048109 0.00491839 0.0050199 0.00511543 0.00520498 0.00528855 0.00536613 0.00543773 0.00550336 0.00556387 0.00562016 0.00567221 0.00572003 0.00576363 0.00580299 0.00583812 0.00586902 0.00589663 0.00592188 0.00594478 0.00596533 0.00598352 0.00599936 0.00601285 0.00602398 0.00603332 0.00604142 0.00604827 0.00605389 0.00605826 0.00606139 0.00606329 0.00606394 0.00606335 0.00606152 0.00605845 0.00605414 0.00604858 0.00604179 0.00603376 0.00602448 0.00601341 0.00599998 0.0059842 0.00596607 0.00594558 0.00592274 0.00589754 0.00586999 0.00583915 0.00580407 0.00576476 0.00572122 0.00567344 0.00562144 0.0055652 0.00550472 0.00543914 0.00536758 0.00529003 0.00520649 0.00511697 0.00502146 0.00491997 0.00481249 0.00469895 0.00457924 0.00445337 0.00432135 0.00418316 0.00403882 0.00388832 0.00373166 0.00357023 0.00340543 0.00323724 0.00306568 0.00289075 0.00271243 0.00253074 0.00234567 0.00215809 0.00196889 0.00177804 0.00158557 0.00139145 0.00119571 0.000998331 0.000799319 0.000611978 0.000449617 0.000312234 0.00019983 0.000112404 4.99574e-05 1.24894e-05 0 0 4.99296e-05 0.000199718 0.000449366 0.000798874 0.00124824 0.00179747 0.00244655 0.00319549 0.00399111 0.00478022 0.00556281 0.00633888 0.00710845 0.0078715 0.00862803 0.00937806 0.0101181 0.0108446 0.0115577 0.0122572 0.0129433 0.0136158 0.0142749 0.0149205 0.015547 0.016149 0.0167263 0.017279 0.0178071 0.0183105 0.0187894 0.0192436 0.0196736 0.0200796 0.0204617 0.0208199 0.0211542 0.0214645 0.0217509 0.0220134 0.0222555 0.0224806 0.0226888 0.0228801 0.0230545 0.0232119 0.0233525 0.0234761 0.0235865 0.0236875 0.0237791 0.0238613 0.0239341 0.0239975 0.0240514 0.0240959 0.0241333 0.0241657 0.0241931 0.0242155 0.024233 0.0242456 0.0242531 0.0242557 0.0242534 0.0242461 0.0242338 0.0242165 0.0241943 0.0241672 0.024135 0.0240979 0.0240536 0.0239999 0.0239368 0.0238643 0.0237823 0.0236909 0.0235902 0.02348 0.0233566 0.0232163 0.023059 0.0228849 0.0226938 0.0224857 0.0222608 0.0220189 0.0217566 0.0214703 0.0211601 0.020826 0.0204679 0.0200858 0.0196799 0.01925 0.0187958 0.018317 0.0178135 0.0172854 0.0167327 0.0161553 0.0155533 0.0149266 0.0142809 0.0136217 0.012949 0.0122627 0.011563 0.0108497 0.010123 0.00938268 0.00863238 0.00787554 0.00711217 0.00634226 0.00556582 0.00478284 0.00399333 0.00319728 0.00244791 0.00179847 0.00124894 0.000799319 0.000449617 0.00019983 4.99574e-05 0 0 0.000112342 0.000449366 0.00101107 0.00179747 0.00280854 0.0040443 0.00550474 0.00718986 0.00898 0.0107555 0.0125163 0.0142625 0.015994 0.0177109 0.0194131 0.0211006 0.0227657 0.0244004 0.0260047 0.0275787 0.0291223 0.0306356 0.0321186 0.0335711 0.0349809 0.0363352 0.0376341 0.0388777 0.0400659 0.0411987 0.0422761 0.0432981 0.0442655 0.0451791 0.0460389 0.0468448 0.0475969 0.0482952 0.0489396 0.0495302 0.0500748 0.0505814 0.0510499 0.0514803 0.0518726 0.0522269 0.0525431 0.0528212 0.0530696 0.0532969 0.053503 0.053688 0.0538517 0.0539943 0.0541157 0.0542159 0.0542999 0.0543727 0.0544344 0.054485 0.0545243 0.0545525 0.0545696 0.0545754 0.0545701 0.0545537 0.054526 0.0544872 0.0544372 0.0543761 0.0543038 0.0542203 0.0541207 0.0539998 0.0538578 0.0536946 0.0535102 0.0533046 0.0530779 0.0528299 0.0525523 0.0522366 0.0518828 0.051491 0.051061 0.0505929 0.0500868 0.0495425 0.0489523 0.0483082 0.0476102 0.0468584 0.0460527 0.0451932 0.0442797 0.0433124 0.0422905 0.0412131 0.0400804 0.0388921 0.0376485 0.0363494 0.0349949 0.0335849 0.0321321 0.0306488 0.0291352 0.0275911 0.0260167 0.0244119 0.0227766 0.021111 0.0194228 0.01772 0.0160024 0.0142701 0.0125231 0.0107614 0.00898498 0.00719387 0.00550781 0.00404655 0.00281011 0.00179847 0.00101164 0.000449617 0.000112404 0 0 0.000199718 0.000798874 0.00179747 0.00319549 0.00499296 0.00718986 0.0097862 0.012782 0.0159644 0.0191209 0.0222512 0.0253555 0.0284338 0.031486 0.0345121 0.0375122 0.0404723 0.0433784 0.0462306 0.0490288 0.0517731 0.0544633 0.0570997 0.059682 0.0621882 0.0645959 0.0669051 0.0691159 0.0712282 0.0732421 0.0751575 0.0769744 0.0786943 0.0803185 0.0818469 0.0832797 0.0846167 0.0858581 0.0870037 0.0880537 0.0890219 0.0899225 0.0907554 0.0915205 0.092218 0.0928478 0.0934099 0.0939043 0.094346 0.0947501 0.0951165 0.0954453 0.0957364 0.0959898 0.0962056 0.0963837 0.0965331 0.0966627 0.0967723 0.0968622 0.0969322 0.0969823 0.0970126 0.097023 0.0970136 0.0969843 0.0969351 0.0968662 0.0967773 0.0966686 0.0965401 0.0963917 0.0962145 0.0959997 0.0957472 0.0954571 0.0951293 0.0947638 0.0943606 0.0939198 0.0934263 0.0928651 0.0922362 0.0915395 0.0907751 0.089943 0.0890432 0.0880756 0.0870263 0.0858812 0.0846404 0.0833038 0.0818715 0.0803434 0.0787195 0.0769999 0.0751831 0.0732678 0.071254 0.0691416 0.0669306 0.0646211 0.0622131 0.0597066 0.0571237 0.0544868 0.0517959 0.0490509 0.0462519 0.0433989 0.0404918 0.0375307 0.0345295 0.0315022 0.0284487 0.0253691 0.0222633 0.0191314 0.0159733 0.0127891 0.00979165 0.00719387 0.00499574 0.00319728 0.00179847 0.000799319 0.00019983 0 0 0.00031206 0.00124824 0.00280854 0.00499296 0.0078015 0.0112342 0.0152909 0.0199718 0.0249444 0.0298763 0.0347675 0.039618 0.0444278 0.0491969 0.0539252 0.0586129 0.063238 0.0677788 0.0722353 0.0766075 0.0808954 0.085099 0.0892182 0.0932532 0.097169 0.100931 0.104539 0.107994 0.111294 0.114441 0.117434 0.120273 0.12296 0.125498 0.127886 0.130124 0.132214 0.134153 0.135943 0.137584 0.139097 0.140504 0.141805 0.143001 0.144091 0.145075 0.145953 0.146725 0.147416 0.148047 0.14862 0.149133 0.149588 0.149984 0.150321 0.1506 0.150833 0.151035 0.151207 0.151347 0.151456 0.151535 0.151582 0.151598 0.151584 0.151538 0.151461 0.151353 0.151215 0.151045 0.150844 0.150612 0.150335 0.15 0.149605 0.149152 0.148639 0.148068 0.147438 0.14675 0.145979 0.145102 0.144119 0.14303 0.141836 0.140536 0.13913 0.137618 0.135979 0.134189 0.132251 0.130162 0.127924 0.125537 0.122999 0.120312 0.117474 0.114481 0.111334 0.108034 0.104579 0.100971 0.097208 0.0932915 0.0892558 0.0851356 0.0809311 0.0766421 0.0722686 0.0678108 0.0632685 0.0586417 0.0539524 0.0492221 0.0444511 0.0396391 0.0347864 0.0298928 0.0249583 0.019983 0.0152995 0.0112404 0.00780585 0.00499574 0.00281011 0.00124894 0.000312234 0 0 0.000449366 0.00179747 0.0040443 0.00718986 0.0112342 0.0161772 0.022019 0.0287595 0.03592 0.0430219 0.0500652 0.0570499 0.063976 0.0708435 0.0776523 0.0844025 0.0910627 0.0976015 0.104019 0.110315 0.116489 0.122543 0.128474 0.134285 0.139923 0.145341 0.150537 0.155511 0.160263 0.164795 0.169104 0.173192 0.177062 0.180717 0.184156 0.187379 0.190388 0.193181 0.195758 0.198121 0.200299 0.202326 0.2042 0.205921 0.207491 0.208908 0.210172 0.211285 0.212279 0.213188 0.214012 0.214752 0.215407 0.215977 0.216463 0.216863 0.2172 0.217491 0.217738 0.21794 0.218097 0.21821 0.218278 0.218302 0.218281 0.218215 0.218104 0.217949 0.217749 0.217504 0.217215 0.216881 0.216483 0.215999 0.215431 0.214778 0.214041 0.213218 0.212311 0.21132 0.210209 0.208946 0.207531 0.205964 0.204244 0.202372 0.200347 0.19817 0.195809 0.193233 0.190441 0.187434 0.184211 0.180773 0.177119 0.17325 0.169162 0.164853 0.160321 0.155569 0.150594 0.145398 0.13998 0.13434 0.128528 0.122595 0.116541 0.110365 0.104067 0.0976475 0.0911066 0.0844441 0.0776914 0.0708799 0.0640095 0.0570804 0.0500924 0.0430456 0.0359399 0.0287755 0.0220312 0.0161862 0.0112404 0.00719387 0.00404655 0.00179847 0.000449617 0 0 0.000611638 0.00244655 0.00550474 0.0097862 0.0152909 0.022019 0.0299702 0.0391448 0.0488911 0.0585576 0.0681444 0.0776513 0.0870785 0.0964258 0.105693 0.114881 0.123946 0.132846 0.141581 0.150151 0.158555 0.166794 0.174868 0.182776 0.190451 0.197825 0.204897 0.211667 0.218136 0.224304 0.23017 0.235734 0.241001 0.245975 0.250656 0.255044 0.259139 0.26294 0.266449 0.269664 0.27263 0.275388 0.277938 0.280282 0.282418 0.284346 0.286068 0.287582 0.288935 0.290172 0.291294 0.292301 0.293193 0.293969 0.29463 0.295175 0.295633 0.296029 0.296365 0.29664 0.296855 0.297008 0.297101 0.297133 0.297104 0.297014 0.296864 0.296653 0.296381 0.296048 0.295654 0.2952 0.294657 0.293999 0.293226 0.292337 0.291333 0.290214 0.288979 0.287629 0.286118 0.284399 0.282473 0.28034 0.277999 0.27545 0.272695 0.269732 0.266518 0.263011 0.259211 0.255118 0.250731 0.246052 0.241079 0.235812 0.230248 0.224383 0.218215 0.211746 0.204975 0.197902 0.190528 0.182851 0.174941 0.166866 0.158625 0.150218 0.141647 0.132909 0.124006 0.114938 0.105747 0.0964754 0.0871241 0.0776927 0.0681813 0.0585898 0.0489182 0.0391666 0.0299869 0.0220312 0.0152995 0.00979165 0.00550781 0.00244791 0.000611978 0 0 0.000798874 0.00319549 0.00718986 0.012782 0.0199718 0.0287595 0.0391448 0.0511279 0.0638578 0.0764834 0.0890049 0.101422 0.113735 0.125944 0.138049 0.150049 0.161889 0.173514 0.184922 0.196115 0.207092 0.217853 0.228399 0.238728 0.248753 0.258383 0.26762 0.276464 0.284913 0.292968 0.30063 0.307898 0.314777 0.321274 0.327388 0.333119 0.338467 0.343432 0.348015 0.352215 0.356088 0.35969 0.363021 0.366082 0.368872 0.371391 0.37364 0.375617 0.377384 0.379 0.380466 0.381781 0.382945 0.383959 0.384822 0.385535 0.386133 0.386651 0.387089 0.387449 0.387729 0.387929 0.38805 0.388092 0.388054 0.387937 0.387741 0.387465 0.387109 0.386675 0.38616 0.385567 0.384858 0.383999 0.382989 0.381828 0.380517 0.379055 0.377443 0.375679 0.373705 0.37146 0.368945 0.366158 0.3631 0.359772 0.356173 0.352302 0.348105 0.343525 0.338562 0.333215 0.327486 0.321374 0.314878 0.308 0.300733 0.293071 0.285016 0.276566 0.267722 0.258485 0.248852 0.238826 0.228495 0.217947 0.207184 0.196204 0.185008 0.173596 0.161967 0.150123 0.138118 0.126009 0.113795 0.101476 0.0890531 0.0765255 0.0638932 0.0511564 0.0391666 0.0287755 0.019983 0.0127891 0.00719387 0.00319728 0.000799319 0 0 0.000997777 0.00399111 0.00897999 0.0159644 0.0249444 0.03592 0.0488911 0.0638577 0.0797566 0.0955243 0.111161 0.126666 0.142041 0.157284 0.172396 0.187377 0.202157 0.216667 0.230906 0.244875 0.258574 0.272002 0.28516 0.298048 0.310554 0.322568 0.33409 0.34512 0.355658 0.365703 0.375257 0.384318 0.392894 0.400992 0.408613 0.415755 0.42242 0.428607 0.434316 0.439548 0.444372 0.448858 0.453006 0.456817 0.460291 0.463426 0.466224 0.468685 0.470883 0.472894 0.474717 0.476352 0.4778 0.479061 0.480134 0.481019 0.481762 0.482405 0.48295 0.483397 0.483745 0.483994 0.484144 0.484196 0.484149 0.484004 0.483759 0.483417 0.482975 0.482435 0.481796 0.481059 0.480178 0.47911 0.477854 0.476411 0.47478 0.472962 0.470956 0.468762 0.466306 0.463512 0.460381 0.456911 0.453104 0.44896 0.444477 0.439657 0.434429 0.428723 0.422538 0.415876 0.408735 0.401116 0.39302 0.384445 0.375384 0.365832 0.355786 0.345248 0.334218 0.322694 0.310679 0.29817 0.28528 0.272119 0.258688 0.244986 0.231012 0.216769 0.202254 0.187469 0.172483 0.157365 0.142115 0.126734 0.111221 0.0955766 0.0798007 0.0638932 0.0489182 0.0359399 0.0249583 0.0159733 0.00898498 0.00399333 0.000998331 0 0 0.00119505 0.0047802 0.0107554 0.0191208 0.0298762 0.0430218 0.0585574 0.0764832 0.0955241 0.114405 0.133126 0.151688 0.17009 0.188332 0.206414 0.224336 0.242016 0.259369 0.276396 0.293098 0.309473 0.325523 0.341246 0.356644 0.371583 0.385932 0.39969 0.412859 0.425437 0.437425 0.448822 0.459629 0.469856 0.479511 0.488594 0.497106 0.505047 0.512416 0.519214 0.52544 0.531179 0.536516 0.54145 0.545981 0.55011 0.553836 0.557159 0.56008 0.562688 0.565074 0.567236 0.569175 0.570892 0.572386 0.573656 0.574704 0.575583 0.576344 0.576989 0.577517 0.577928 0.578223 0.578401 0.578462 0.578407 0.578235 0.577946 0.57754 0.577018 0.576379 0.575624 0.574751 0.573709 0.572444 0.570956 0.569245 0.567311 0.565154 0.562775 0.560172 0.557257 0.553938 0.550217 0.546093 0.541566 0.536637 0.531305 0.525569 0.519347 0.512553 0.505187 0.497249 0.48874 0.479658 0.470005 0.45978 0.448974 0.437577 0.425589 0.413011 0.399842 0.386081 0.371731 0.356789 0.341389 0.325662 0.309609 0.293229 0.276523 0.25949 0.242131 0.224446 0.206517 0.188428 0.170178 0.151768 0.133198 0.114467 0.0955766 0.0765254 0.0585898 0.0430456 0.0298927 0.0191314 0.0107614 0.00478284 0.00119571 0 0 0.00139069 0.00556277 0.0125162 0.0222511 0.0347673 0.0500649 0.0681439 0.0890043 0.11116 0.133126 0.154902 0.176487 0.197882 0.219087 0.240102 0.260927 0.281465 0.30162 0.321393 0.340783 0.35979 0.378414 0.396656 0.414515 0.431838 0.448473 0.46442 0.479679 0.49425 0.508132 0.521326 0.533832 0.545662 0.556829 0.567332 0.577171 0.586346 0.594858 0.602706 0.609891 0.61651 0.622664 0.628352 0.633574 0.63833 0.64262 0.646444 0.649803 0.6528 0.65554 0.658024 0.66025 0.662221 0.663934 0.665391 0.666591 0.667595 0.668467 0.669205 0.669809 0.67028 0.670617 0.67082 0.670891 0.670827 0.67063 0.6703 0.669836 0.669238 0.668507 0.667643 0.666644 0.665451 0.664001 0.662294 0.660331 0.65811 0.655633 0.652899 0.649908 0.646556 0.642738 0.638453 0.633703 0.628486 0.622803 0.616655 0.61004 0.60286 0.595016 0.586508 0.577335 0.567499 0.556999 0.545834 0.534006 0.521501 0.508308 0.494425 0.479854 0.464594 0.448646 0.432009 0.414683 0.39682 0.378575 0.359946 0.340934 0.321539 0.301761 0.281599 0.261053 0.240221 0.219198 0.197984 0.17658 0.154984 0.133198 0.111221 0.0890531 0.0681813 0.0500924 0.0347864 0.0222633 0.0125231 0.00556582 0.00139145 0 0 0.0015847 0.00633881 0.0142623 0.0253553 0.0396176 0.0570493 0.0776505 0.101421 0.126665 0.151687 0.176486 0.201064 0.225418 0.249551 0.273461 0.297149 0.320505 0.343421 0.365896 0.387931 0.409524 0.430678 0.45139 0.471662 0.49132 0.510193 0.52828 0.545581 0.562096 0.577825 0.592769 0.606927 0.620314 0.632947 0.644826 0.65595 0.666319 0.675934 0.684794 0.6929 0.700365 0.707303 0.713713 0.719596 0.724951 0.729779 0.734079 0.737853 0.741217 0.744293 0.74708 0.749577 0.751786 0.753706 0.755336 0.756678 0.7578 0.758774 0.759598 0.760273 0.760799 0.761175 0.761403 0.761481 0.76141 0.76119 0.760821 0.760303 0.759636 0.758819 0.757853 0.756738 0.755404 0.753781 0.751869 0.749667 0.747177 0.744397 0.741329 0.737971 0.734205 0.729911 0.72509 0.719741 0.713864 0.70746 0.700528 0.693068 0.684967 0.676111 0.6665 0.656135 0.645014 0.633138 0.620508 0.607122 0.592966 0.578023 0.562294 0.545778 0.528476 0.510388 0.491513 0.471851 0.451575 0.430859 0.409701 0.388101 0.366061 0.343579 0.320656 0.297292 0.273595 0.249676 0.225534 0.201168 0.17658 0.151768 0.126734 0.101476 0.0776927 0.0570803 0.0396391 0.025369 0.0142701 0.00634226 0.00158556 0 0 0.00177708 0.00710834 0.0159938 0.0284333 0.0444271 0.063975 0.0870771 0.113733 0.142039 0.170088 0.197881 0.225417 0.252698 0.279722 0.30649 0.333002 0.359137 0.384771 0.409906 0.434541 0.458676 0.482312 0.505448 0.528084 0.550029 0.571091 0.591269 0.610565 0.628976 0.646505 0.66315 0.678912 0.693811 0.707865 0.721076 0.733442 0.744965 0.755644 0.765478 0.774469 0.782744 0.790432 0.797533 0.804047 0.809973 0.815312 0.820065 0.82423 0.827941 0.831333 0.834404 0.837156 0.839589 0.841701 0.843493 0.844966 0.846197 0.847264 0.848168 0.848909 0.849485 0.849898 0.850148 0.850234 0.850156 0.849915 0.84951 0.848942 0.84821 0.847314 0.846255 0.845033 0.843568 0.841784 0.83968 0.837256 0.834512 0.831448 0.828064 0.82436 0.820203 0.815458 0.810126 0.804206 0.797699 0.790605 0.782923 0.774654 0.765669 0.755839 0.745165 0.733647 0.721284 0.708077 0.694025 0.679129 0.663369 0.646724 0.629196 0.610783 0.591487 0.571307 0.550242 0.528294 0.505654 0.482513 0.458872 0.43473 0.410089 0.384946 0.359304 0.333161 0.30664 0.279861 0.252826 0.225534 0.197984 0.170178 0.142115 0.113795 0.087124 0.0640095 0.044451 0.0284487 0.0160024 0.00711216 0.00177804 0 0 0.00196783 0.00787134 0.0177105 0.0314854 0.0491959 0.0708421 0.0964239 0.125941 0.157281 0.188329 0.219085 0.249549 0.279721 0.309602 0.33919 0.368487 0.397359 0.42567 0.453422 0.480613 0.507246 0.533318 0.55883 0.583783 0.607965 0.631167 0.653389 0.67463 0.69489 0.714171 0.73247 0.749789 0.766152 0.781583 0.796082 0.809649 0.822284 0.833987 0.844758 0.854596 0.863647 0.872052 0.879812 0.886926 0.893396 0.89922 0.9044 0.908934 0.912971 0.916659 0.919998 0.922987 0.925628 0.927919 0.929862 0.931455 0.932786 0.933939 0.934916 0.935716 0.936339 0.936786 0.937056 0.937149 0.937065 0.936804 0.936367 0.935752 0.934961 0.933994 0.932849 0.931528 0.929943 0.92801 0.925727 0.923095 0.920114 0.916784 0.913105 0.909076 0.90455 0.899379 0.893562 0.8871 0.879993 0.87224 0.863842 0.854798 0.844966 0.8342 0.822503 0.809872 0.79631 0.781814 0.766386 0.750026 0.732709 0.71441 0.69513 0.674869 0.653627 0.631403 0.608198 0.584012 0.559055 0.533538 0.507459 0.480821 0.453622 0.425862 0.397542 0.368661 0.339354 0.309754 0.279861 0.249676 0.219198 0.188427 0.157364 0.126009 0.0964753 0.0708798 0.0492221 0.0315021 0.0177199 0.00787553 0.00196888 0 0 0.00215696 0.00862782 0.0194126 0.0345113 0.0539239 0.0776504 0.105691 0.138045 0.172392 0.206409 0.240098 0.273457 0.306488 0.339189 0.371561 0.403604 0.435172 0.466118 0.496444 0.526149 0.555232 0.583695 0.611536 0.638757 0.665128 0.690422 0.714638 0.737777 0.759838 0.780822 0.800729 0.819558 0.837339 0.854101 0.869845 0.88457 0.898276 0.910964 0.922633 0.933283 0.943073 0.952162 0.960549 0.968235 0.97522 0.981503 0.987085 0.991965 0.996307 1.00027 1.00386 1.00707 1.0099 1.01236 1.01444 1.01615 1.01757 1.0188 1.01984 1.0207 1.02136 1.02184 1.02213 1.02223 1.02214 1.02186 1.02139 1.02073 1.01989 1.01886 1.01763 1.01622 1.01453 1.01246 1.01001 1.00719 1.00398 1.00041 0.996451 0.992118 0.987247 0.981674 0.975399 0.968422 0.960744 0.952364 0.943283 0.9335 0.922857 0.911194 0.898512 0.884811 0.87009 0.854351 0.837592 0.819813 0.800986 0.781081 0.760097 0.738035 0.714895 0.690677 0.66538 0.639005 0.61178 0.583933 0.555464 0.526373 0.496661 0.466326 0.43537 0.403792 0.371738 0.339354 0.306639 0.273595 0.240221 0.206517 0.172482 0.138118 0.105746 0.0776913 0.0539523 0.0345295 0.0194228 0.00863236 0.00215809 0 0 0.00234444 0.00937778 0.0211 0.0375111 0.0586111 0.0844 0.114878 0.150044 0.187371 0.22433 0.260921 0.297143 0.332998 0.368484 0.403602 0.438351 0.472575 0.506116 0.538973 0.571146 0.602637 0.633443 0.663567 0.693007 0.721518 0.748855 0.775017 0.800006 0.82382 0.84646 0.867926 0.888218 0.907371 0.925419 0.942364 0.958205 0.972941 0.986574 0.999103 1.01053 1.02102 1.03076 1.03975 1.04797 1.05544 1.06216 1.06812 1.07332 1.07795 1.08217 1.08599 1.0894 1.09242 1.09503 1.09723 1.09904 1.10054 1.10184 1.10294 1.10385 1.10455 1.10506 1.10536 1.10546 1.10537 1.10508 1.10458 1.10389 1.103 1.1019 1.10061 1.09912 1.09733 1.09513 1.09253 1.08953 1.08612 1.08231 1.0781 1.07349 1.06829 1.06234 1.05564 1.04817 1.03995 1.03098 1.02125 1.01076 0.999342 0.98682 0.973193 0.958462 0.942626 0.925686 0.907641 0.888491 0.868202 0.846737 0.824097 0.800283 0.775293 0.749128 0.721788 0.693273 0.663828 0.633699 0.602885 0.571387 0.539205 0.506339 0.472788 0.438553 0.403792 0.368661 0.333161 0.297292 0.261053 0.224445 0.187469 0.150123 0.114938 0.0844439 0.0586416 0.0375306 0.021111 0.00938266 0.00234567 0 0 0.00252943 0.0101177 0.0227649 0.0404709 0.0632358 0.0910596 0.123942 0.161884 0.20215 0.242008 0.281457 0.320498 0.35913 0.397353 0.435167 0.472573 0.509401 0.545482 0.580816 0.615403 0.649244 0.682337 0.714684 0.746284 0.776875 0.806195 0.834245 0.861025 0.886534 0.910772 0.933741 0.955438 0.975907 0.995188 1.01328 1.03019 1.04591 1.06044 1.07378 1.08594 1.09709 1.10744 1.11699 1.12572 1.13364 1.14076 1.14707 1.15257 1.15745 1.16191 1.16594 1.16954 1.17271 1.17546 1.17778 1.17967 1.18124 1.1826 1.18376 1.1847 1.18544 1.18597 1.18629 1.1864 1.1863 1.18599 1.18547 1.18475 1.18381 1.18267 1.18132 1.17975 1.17787 1.17557 1.17283 1.16967 1.16608 1.16206 1.15762 1.15274 1.14725 1.14095 1.13385 1.12593 1.11721 1.10767 1.09733 1.08618 1.07403 1.0607 1.04617 1.03046 1.01356 0.99547 0.976193 0.955728 0.934033 0.911066 0.886828 0.861319 0.834538 0.806486 0.777162 0.746567 0.714962 0.682609 0.649508 0.61566 0.581064 0.54572 0.509628 0.472788 0.43537 0.397541 0.359303 0.320656 0.281598 0.242131 0.202254 0.161967 0.124006 0.0911064 0.0632683 0.0404917 0.0227766 0.0101229 0.00253073 0 0 0.00271105 0.0108442 0.0243994 0.0433768 0.0677762 0.0975977 0.132841 0.173507 0.216659 0.25936 0.301611 0.343412 0.384762 0.425662 0.466112 0.506111 0.54548 0.584037 0.621782 0.658717 0.69484 0.730151 0.764651 0.79834 0.83094 0.862174 0.892042 0.920543 0.947678 0.973448 0.997851 1.02089 1.04261 1.06306 1.08224 1.10015 1.11679 1.13217 1.14627 1.15911 1.17088 1.1818 1.19186 1.20105 1.2094 1.21688 1.2235 1.22927 1.23438 1.23905 1.24326 1.24702 1.25034 1.2532 1.25561 1.25758 1.25921 1.26062 1.26182 1.2628 1.26356 1.26411 1.26444 1.26456 1.26445 1.26413 1.2636 1.26285 1.26188 1.26069 1.25929 1.25767 1.25572 1.25331 1.25046 1.24716 1.24341 1.2392 1.23455 1.22945 1.22369 1.21708 1.20961 1.20128 1.19209 1.18204 1.17113 1.15937 1.14654 1.13244 1.11708 1.10044 1.08253 1.06335 1.04291 1.02119 0.998159 0.973757 0.947989 0.920853 0.89235 0.86248 0.831243 0.798639 0.764945 0.730438 0.695119 0.658988 0.622044 0.584288 0.545719 0.506339 0.466326 0.425861 0.384946 0.343578 0.30176 0.25949 0.216768 0.173595 0.132909 0.0976472 0.0678106 0.0433988 0.0244118 0.0108497 0.00271242 0 0 0.00288929 0.0115572 0.0260036 0.0462286 0.0722322 0.104014 0.141575 0.184915 0.230897 0.276386 0.321382 0.365885 0.409894 0.453411 0.496435 0.538966 0.580811 0.62178 0.661872 0.701086 0.739424 0.776885 0.813469 0.849176 0.883714 0.91679 0.948406 0.97856 1.00725 1.03449 1.06026 1.08457 1.10747 1.12903 1.14924 1.1681 1.18561 1.20177 1.21659 1.23005 1.24239 1.25383 1.26436 1.27398 1.2827 1.29051 1.29742 1.30342 1.30873 1.31357 1.31795 1.32185 1.32529 1.32825 1.33074 1.33276 1.33444 1.3359 1.33713 1.33813 1.33892 1.33948 1.33982 1.33994 1.33984 1.33951 1.33896 1.33818 1.33719 1.33597 1.33452 1.33286 1.33085 1.32837 1.32542 1.32199 1.3181 1.31374 1.30891 1.30361 1.29762 1.29072 1.28292 1.27421 1.2646 1.25408 1.24265 1.23032 1.21686 1.20206 1.1859 1.1684 1.14954 1.12934 1.10779 1.08489 1.06058 1.03481 1.00758 0.978885 0.94873 0.917112 0.884031 0.849489 0.813777 0.777186 0.739718 0.701371 0.662146 0.622044 0.581063 0.539205 0.49666 0.453621 0.410088 0.36606 0.321538 0.276522 0.231012 0.185007 0.141646 0.104066 0.0722684 0.0462518 0.0260166 0.0115629 0.00289074 0 0 0.00306416 0.0122566 0.0275774 0.0490265 0.0766039 0.11031 0.150144 0.196106 0.244864 0.293085 0.34077 0.387917 0.434527 0.480601 0.526137 0.571137 0.615396 0.658712 0.701084 0.742512 0.782997 0.822539 0.861137 0.898791 0.935195 0.970045 1.00334 1.03508 1.06526 1.09389 1.12096 1.14647 1.1705 1.1931 1.21427 1.23402 1.25235 1.26924 1.28472 1.29876 1.31162 1.32353 1.33448 1.34449 1.35355 1.36165 1.36881 1.37502 1.3805 1.3855 1.39001 1.39403 1.39756 1.40061 1.40316 1.40523 1.40694 1.40842 1.40968 1.41071 1.41151 1.41208 1.41243 1.41255 1.41244 1.41211 1.41155 1.41076 1.40974 1.4085 1.40703 1.40533 1.40327 1.40073 1.3977 1.39418 1.39017 1.38567 1.38068 1.37521 1.36902 1.36187 1.35378 1.34473 1.33473 1.32379 1.31189 1.29904 1.285 1.26954 1.25265 1.23433 1.21459 1.19342 1.17083 1.14681 1.12129 1.09422 1.0656 1.03542 1.00368 0.97038 0.935527 0.899117 0.861457 0.822853 0.783303 0.742809 0.701371 0.658987 0.615659 0.571386 0.526372 0.48082 0.434729 0.3881 0.340933 0.293228 0.244984 0.196203 0.150218 0.110364 0.0766417 0.0490507 0.027591 0.0122627 0.00306567 0 0 0.00323565 0.0129426 0.0291209 0.0517705 0.0808913 0.116484 0.158547 0.207082 0.258561 0.309459 0.359775 0.409508 0.45866 0.50723 0.555218 0.602624 0.649233 0.694832 0.739419 0.782994 0.825559 0.867112 0.907654 0.947185 0.985385 1.02194 1.05684 1.09009 1.1217 1.15165 1.17996 1.20661 1.23169 1.25527 1.27735 1.29793 1.31701 1.33459 1.35066 1.36524 1.37857 1.3909 1.40224 1.41259 1.42195 1.43031 1.43769 1.44406 1.44969 1.45482 1.45944 1.46356 1.46717 1.47027 1.47288 1.47498 1.47671 1.47821 1.47948 1.48052 1.48133 1.48191 1.48227 1.48239 1.48228 1.48194 1.48137 1.48057 1.47954 1.47828 1.4768 1.47508 1.47299 1.4704 1.46731 1.46371 1.4596 1.45499 1.44988 1.44426 1.4379 1.43054 1.42219 1.41284 1.4025 1.39117 1.37884 1.36553 1.35096 1.33489 1.31732 1.29825 1.27768 1.25561 1.23203 1.20696 1.1803 1.152 1.12205 1.09044 1.05719 1.02228 0.985729 0.947524 0.907987 0.867438 0.825877 0.783303 0.739717 0.695118 0.649507 0.602884 0.555462 0.507458 0.45887 0.409699 0.359945 0.309607 0.258686 0.207182 0.158624 0.11654 0.0809306 0.0517956 0.029135 0.0129489 0.00323723 0 0 0.00340378 0.0136151 0.030634 0.0544604 0.0850944 0.122536 0.166785 0.217842 0.271988 0.325506 0.378397 0.430659 0.482293 0.5333 0.583678 0.633428 0.682324 0.73014 0.776876 0.822533 0.867109 0.910605 0.953022 0.994358 1.03428 1.07247 1.10891 1.14361 1.17656 1.20778 1.23725 1.26498 1.29105 1.31555 1.33847 1.35982 1.3796 1.3978 1.41443 1.42948 1.44323 1.45595 1.46763 1.47828 1.4879 1.49649 1.50404 1.51056 1.51631 1.52153 1.52624 1.53043 1.5341 1.53725 1.53988 1.542 1.54374 1.54525 1.54653 1.54757 1.54839 1.54897 1.54933 1.54945 1.54934 1.549 1.54843 1.54762 1.54659 1.54533 1.54383 1.5421 1.54 1.53738 1.53424 1.53058 1.52641 1.52171 1.5165 1.51077 1.50426 1.49672 1.48814 1.47854 1.4679 1.45622 1.44352 1.42978 1.41473 1.39811 1.37992 1.36015 1.33881 1.31589 1.2914 1.26533 1.23761 1.20814 1.17692 1.14397 1.10927 1.07283 1.03464 0.994708 0.953366 0.910943 0.867438 0.822852 0.777185 0.730437 0.682607 0.633696 0.583931 0.533535 0.482511 0.430856 0.378573 0.32566 0.272118 0.217946 0.166865 0.122595 0.0851351 0.0544865 0.0306486 0.0136216 0.0034054 0 0 0.00356853 0.0142741 0.0321167 0.0570964 0.0892132 0.128467 0.174858 0.228386 0.285144 0.341228 0.396636 0.451369 0.505427 0.558809 0.611516 0.663548 0.714668 0.764637 0.813457 0.861127 0.907648 0.953019 0.99724 1.04031 1.08189 1.12163 1.15954 1.19562 1.22986 1.26227 1.29284 1.32157 1.34857 1.37392 1.39763 1.41969 1.44011 1.45888 1.47601 1.49149 1.50561 1.51867 1.53065 1.54156 1.55141 1.56018 1.56788 1.57451 1.58034 1.58564 1.59041 1.59465 1.59836 1.60154 1.60418 1.6063 1.60804 1.60954 1.61082 1.61186 1.61268 1.61326 1.61361 1.61374 1.61363 1.61329 1.61272 1.61192 1.61088 1.60962 1.60813 1.60641 1.6043 1.60167 1.5985 1.59481 1.59058 1.58582 1.58054 1.57472 1.5681 1.56041 1.55165 1.54182 1.53092 1.51895 1.50591 1.49179 1.47632 1.4592 1.44044 1.42003 1.39798 1.37428 1.34893 1.32194 1.29321 1.26264 1.23023 1.19599 1.15992 1.122 1.08226 1.04067 0.997594 0.953366 0.907986 0.861456 0.813775 0.764942 0.714959 0.663825 0.611777 0.559052 0.505651 0.451573 0.396818 0.341386 0.285278 0.228493 0.17494 0.128527 0.0892551 0.0571233 0.0321318 0.0142808 0.0035702 0 0 0.0037299 0.0149196 0.0335691 0.0596784 0.0932476 0.134276 0.182765 0.238714 0.29803 0.356623 0.414493 0.471638 0.528061 0.583759 0.638734 0.692985 0.746264 0.798323 0.849161 0.898778 0.947175 0.994352 1.04031 1.08504 1.1282 1.16944 1.20875 1.24613 1.28159 1.31512 1.34672 1.3764 1.40426 1.4304 1.45483 1.47754 1.49855 1.51783 1.53541 1.55127 1.56572 1.57906 1.5913 1.60243 1.61246 1.62138 1.6292 1.63591 1.6418 1.64714 1.65195 1.65622 1.65994 1.66313 1.66578 1.66788 1.6696 1.67109 1.67236 1.67339 1.6742 1.67478 1.67513 1.67525 1.67514 1.6748 1.67424 1.67345 1.67242 1.67117 1.66969 1.66799 1.6659 1.66326 1.66009 1.65638 1.65212 1.64733 1.642 1.63612 1.62942 1.62162 1.61271 1.60269 1.59157 1.57935 1.56601 1.55157 1.53573 1.51816 1.49888 1.47789 1.45518 1.43076 1.40462 1.37677 1.3471 1.3155 1.28197 1.24651 1.20913 1.16982 1.12858 1.08541 1.04067 0.994707 0.947522 0.899115 0.849487 0.798636 0.746564 0.693269 0.639001 0.584009 0.528291 0.471847 0.414679 0.356786 0.298168 0.238824 0.18285 0.134339 0.0932907 0.059706 0.0335846 0.0149265 0.00373163 0 0 0.00388652 0.0155461 0.0349786 0.0621843 0.0971629 0.139915 0.190439 0.248737 0.310535 0.371561 0.431814 0.491295 0.550003 0.607939 0.665102 0.721493 0.776852 0.830919 0.883695 0.935179 0.985372 1.03427 1.08188 1.1282 1.17287 1.21551 1.25614 1.29476 1.33136 1.36594 1.3985 1.42905 1.4577 1.48457 1.50966 1.53297 1.5545 1.57425 1.59222 1.60841 1.62313 1.63673 1.64918 1.66049 1.67067 1.67971 1.68761 1.69437 1.70029 1.70566 1.71048 1.71476 1.71848 1.72166 1.72429 1.72637 1.72807 1.72953 1.73078 1.7318 1.73259 1.73316 1.73351 1.73362 1.73352 1.73319 1.73263 1.73185 1.73085 1.72961 1.72816 1.72648 1.72441 1.7218 1.71863 1.71492 1.71066 1.70585 1.70049 1.69459 1.68784 1.67995 1.67092 1.66076 1.64946 1.63702 1.62344 1.60872 1.59254 1.57458 1.55484 1.53332 1.51002 1.48494 1.45807 1.42943 1.39889 1.36632 1.33174 1.29515 1.25653 1.2159 1.17325 1.12858 1.08225 1.03464 0.985727 0.935524 0.884028 0.83124 0.777158 0.721784 0.665376 0.608194 0.550238 0.491508 0.432005 0.371727 0.310676 0.24885 0.190526 0.139978 0.097207 0.0622125 0.0349945 0.0155531 0.00388828 0 0 0.00403698 0.0161479 0.0363328 0.0645916 0.100924 0.145331 0.197812 0.258366 0.322548 0.385908 0.448447 0.510165 0.571062 0.631138 0.690393 0.748827 0.806169 0.86215 0.916768 0.970025 1.02192 1.07245 1.12162 1.16943 1.21551 1.25948 1.30135 1.34111 1.37877 1.41433 1.44778 1.47913 1.5085 1.53603 1.56172 1.58556 1.60756 1.62772 1.64603 1.6625 1.67747 1.69126 1.70389 1.71535 1.72564 1.73477 1.74272 1.74951 1.75544 1.76081 1.76563 1.76989 1.7736 1.77676 1.77936 1.7814 1.78306 1.7845 1.78572 1.78671 1.78749 1.78805 1.78839 1.7885 1.7884 1.78807 1.78753 1.78677 1.78578 1.78458 1.78315 1.78151 1.77948 1.77689 1.77375 1.77005 1.7658 1.761 1.75564 1.74973 1.74295 1.73501 1.7259 1.71562 1.70417 1.69155 1.67777 1.66282 1.64636 1.62806 1.60791 1.58592 1.56208 1.5364 1.50