<?xml version="1.0"?> 
<VTKFile type="StructuredGrid" version="0.1"> 
<StructuredGrid WholeExtent="0 128 0 128 0 0"> 
<Piece Extent="0 128 0 128 0 0"> 
<PointData>
<DataArray type="Float32" Name="u" format="ascii" NumberOfComponents="1"> 
0 0 0 0 0 0 0 0 0 0 0 0 0 0 0 0 0 0 0 0 0 0 0 0 0 0 0 0 0 0 0 0 0 0 0 0 0 0 0 0 0 0 0 0 0 0 0 0 0 0 0 0 0 0 0 0 0 0 0 0 0 0 0 0 0 0 0 0 0 0 0 0 0 0 0 0 0 0 0 0 0 0 0 0 0 0 0 0 0 0 0 0 0 0 0 0 0 0 0 0 0 0 0 0 0 0 0 0 0 0 0 0 0 0 0 0 0 0 0 0 0 0 0 0 0 0 0 0 0 0 1.23139e-05 4.92554e-05 0.000110825 0.000197022 0.000307846 0.000443299 0.000603379 0.000788087 0.000984337 0.00117904 0.00137221 0.00156383 0.0017539 0.00194243 0.00212942 0.00231487 0.00249791 0.0026777 0.00285424 0.00302752 0.00319754 0.00336431 0.00352783 0.00368809 0.00384371 0.00399331 0.00413688 0.00427444 0.00440597 0.00453147 0.00465096 0.00476442 0.00487192 0.00497353 0.00506924 0.00515905 0.00524296 0.00532098 0.0053931 0.00545933 0.0055205 0.00557746 0.00563022 0.00567877 0.00572311 0.00576324 0.00579917 0.00583089 0.00585931 0.00588537 0.00590904 0.00593034 0.00594926 0.00596581 0.00597998 0.00599178 0.00600174 0.00601042 0.00601782 0.00602393 0.00602875 0.00603229 0.00603454 0.00603551 0.00603519 0.00603358 0.00603069 0.00602651 0.00602105 0.00601429 0.00600626 0.00599693 0.00598577 0.00597223 0.0059563 0.00593799 0.0059173 0.00589422 0.00586876 0.00584092 0.00580978 0.0057744 0.0057348 0.00569097 0.00564291 0.00559063 0.00553411 0.00547337 0.00540755 0.00533579 0.00525809 0.00517446 0.00508489 0.00498938 0.00488794 0.00478056 0.00466717 0.0045477 0.00442216 0.00429054 0.00415284 0.00400907 0.00385922 0.00370329 0.00354266 0.00337874 0.00321151 0.00304099 0.00286715 0.00269002 0.00250958 0.00232583 0.00213965 0.00195189 0.00176254 0.00157162 0.00137912 0.00118503 0.00098937 0.000792128 0.000606473 0.000445572 0.000309425 0.000198032 0.000111393 4.9508e-05 1.2377e-05 0 0 4.92554e-05 0.000197022 0.000443299 0.000788087 0.00123139 0.0017732 0.00241352 0.00315235 0.00393735 0.00471617 0.00548882 0.0062553 0.0070156 0.00776973 0.00851769 0.00925947 0.00999165 0.0107108 0.011417 0.0121101 0.0127902 0.0134573 0.0141113 0.0147524 0.0153748 0.0159732 0.0165475 0.0170977 0.0176239 0.0181259 0.0186038 0.0190577 0.0194877 0.0198941 0.020277 0.0206362 0.0209719 0.0212839 0.0215724 0.0218373 0.022082 0.0223099 0.0225209 0.0227151 0.0228924 0.023053 0.0231967 0.0233236 0.0234373 0.0235415 0.0236362 0.0237214 0.0237971 0.0238632 0.0239199 0.0239671 0.024007 0.0240417 0.0240713 0.0240957 0.024115 0.0241292 0.0241382 0.024142 0.0241408 0.0241343 0.0241228 0.0241061 0.0240842 0.0240572 0.024025 0.0239877 0.0239431 0.0238889 0.0238252 0.023752 0.0236692 0.0235769 0.0234751 0.0233637 0.0232391 0.0230976 0.0229392 0.0227639 0.0225716 0.0223625 0.0221365 0.0218935 0.0216302 0.0213432 0.0210324 0.0206978 0.0203395 0.0199575 0.0195517 0.0191222 0.0186687 0.0181908 0.0176886 0.0171622 0.0166114 0.0160363 0.0154369 0.0148131 0.0141707 0.013515 0.0128461 0.0121639 0.0114686 0.0107601 0.0100383 0.00930333 0.0085586 0.00780754 0.00705017 0.00628647 0.00551646 0.00474013 0.00395748 0.00316851 0.00242589 0.00178229 0.0012377 0.000792128 0.000445572 0.000198032 4.9508e-05 0 0 0.000110825 0.000443299 0.000997422 0.0017732 0.00277062 0.00398969 0.00543041 0.00709278 0.00885903 0.0106114 0.0123499 0.0140744 0.0157851 0.0174819 0.0191648 0.0208338 0.0224812 0.0240993 0.0256882 0.0272477 0.0287779 0.0302788 0.0317505 0.0331928 0.0345934 0.0359398 0.037232 0.0384699 0.0396537 0.0407833 0.0418586 0.0428798 0.0438473 0.0447618 0.0456231 0.0464314 0.0471867 0.0478888 0.0485379 0.0491339 0.0496845 0.0501972 0.050672 0.0511089 0.051508 0.0518692 0.0521925 0.052478 0.0527338 0.0529683 0.0531814 0.0533731 0.0535434 0.0536923 0.0538198 0.053926 0.0540157 0.0540938 0.0541604 0.0542153 0.0542587 0.0542906 0.0543109 0.0543196 0.0543167 0.0543023 0.0542762 0.0542386 0.0541894 0.0541287 0.0540563 0.0539724 0.0538719 0.05375 0.0536067 0.0534419 0.0532557 0.053048 0.0528189 0.0525683 0.052288 0.0519696 0.0516132 0.0512187 0.0507862 0.0503156 0.049807 0.0492603 0.0486679 0.0480221 0.0473228 0.0465701 0.045764 0.0449044 0.0439914 0.043025 0.0420045 0.0409293 0.0397994 0.0386149 0.0373756 0.0360816 0.0347329 0.0333296 0.031884 0.0304087 0.0289036 0.0273689 0.0258044 0.0242101 0.0225862 0.0209325 0.0192568 0.017567 0.0158629 0.0141446 0.012412 0.0106653 0.00890433 0.00712915 0.00545826 0.00401015 0.00278482 0.00178229 0.00100254 0.000445572 0.000111393 0 0 0.000197022 0.000788087 0.0017732 0.00315235 0.00492554 0.00709278 0.00965406 0.0126094 0.0157494 0.0188647 0.0219553 0.0250212 0.0280624 0.0310789 0.0340708 0.0370379 0.0399666 0.0428433 0.0456678 0.0484403 0.0511607 0.053829 0.0564453 0.0590094 0.0614994 0.0638929 0.0661901 0.068391 0.0704955 0.0725036 0.0744153 0.0762307 0.0779508 0.0795765 0.0811078 0.0825448 0.0838874 0.0851357 0.0862896 0.0873492 0.088328 0.0892394 0.0900835 0.0908603 0.0915697 0.0922119 0.0927867 0.0932942 0.093749 0.0941658 0.0945446 0.0948854 0.0951882 0.095453 0.0956797 0.0958684 0.0960279 0.0961668 0.0962851 0.0963828 0.09646 0.0965166 0.0965526 0.0965681 0.096563 0.0965373 0.0964911 0.0964242 0.0963368 0.0962287 0.0961001 0.0959509 0.0957723 0.0955556 0.0953008 0.0950078 0.0946768 0.0943076 0.0939002 0.0934548 0.0929564 0.0923904 0.0917568 0.0910555 0.0902866 0.08945 0.0885458 0.087574 0.0865208 0.0853726 0.0841295 0.0827913 0.0813582 0.0798301 0.078207 0.0764889 0.0746747 0.0727632 0.0707546 0.0686486 0.0664455 0.0641451 0.0617474 0.0592526 0.0566826 0.0540599 0.0513842 0.0486558 0.0458744 0.0430402 0.0401532 0.0372133 0.0342344 0.0312302 0.0282007 0.0251459 0.0220658 0.0189605 0.0158299 0.012674 0.00970357 0.00712915 0.0049508 0.00316851 0.00178229 0.000792128 0.000198032 0 0 0.000307846 0.00123139 0.00277062 0.00492554 0.00769616 0.0110825 0.0150845 0.0197022 0.0246084 0.0294761 0.0343051 0.0390956 0.0438475 0.0485608 0.0532356 0.0578717 0.0624478 0.0669426 0.071356 0.075688 0.0799386 0.0841079 0.0881957 0.0922022 0.0960928 0.0998327 0.103422 0.106861 0.110149 0.113287 0.116274 0.119111 0.121798 0.124338 0.126731 0.128976 0.131074 0.133025 0.134828 0.136483 0.138012 0.139437 0.140755 0.141969 0.143078 0.144081 0.144979 0.145772 0.146483 0.147134 0.147726 0.148258 0.148732 0.149145 0.1495 0.149794 0.150044 0.150261 0.150445 0.150598 0.150719 0.150807 0.150864 0.150888 0.15088 0.15084 0.150767 0.150663 0.150526 0.150357 0.150156 0.149923 0.149644 0.149306 0.148907 0.14845 0.147932 0.147356 0.146719 0.146023 0.145244 0.14436 0.14337 0.142274 0.141073 0.139766 0.138353 0.136834 0.135189 0.133395 0.131452 0.129361 0.127122 0.124734 0.122198 0.119514 0.116679 0.113693 0.110554 0.107263 0.103821 0.100227 0.0964804 0.0925821 0.0885666 0.0844685 0.0802879 0.0760246 0.0716788 0.0672504 0.0627394 0.0581458 0.0534912 0.0487971 0.0440635 0.0392905 0.0344779 0.0296258 0.0247343 0.0198032 0.0151618 0.0111393 0.00773562 0.0049508 0.00278482 0.0012377 0.000309425 0 0 0.000443299 0.0017732 0.00398969 0.00709278 0.0110825 0.0159588 0.0217216 0.0283711 0.0354361 0.0424456 0.0493994 0.0562977 0.0631404 0.0699276 0.0766592 0.0833352 0.0899249 0.0963973 0.102753 0.108991 0.115112 0.121115 0.127002 0.132771 0.138374 0.143759 0.148928 0.15388 0.158615 0.163133 0.167435 0.171519 0.175389 0.179047 0.182493 0.185726 0.188747 0.191555 0.194152 0.196536 0.198738 0.200789 0.202688 0.204436 0.206032 0.207477 0.20877 0.209912 0.210935 0.211873 0.212725 0.213492 0.214173 0.214769 0.215279 0.215704 0.216063 0.216375 0.216641 0.216861 0.217035 0.217162 0.217243 0.217278 0.217267 0.217209 0.217105 0.216954 0.216758 0.216515 0.216225 0.215889 0.215488 0.215 0.214427 0.213768 0.213023 0.212192 0.211276 0.210273 0.209152 0.207878 0.206453 0.204875 0.203145 0.201263 0.199228 0.197041 0.194672 0.192088 0.189291 0.18628 0.183056 0.179618 0.175966 0.1721 0.168018 0.163717 0.159198 0.154459 0.149502 0.144326 0.138932 0.133318 0.127536 0.121635 0.115615 0.109475 0.103217 0.0968406 0.0903447 0.08373 0.0770274 0.0702679 0.0634515 0.0565783 0.0496481 0.0426612 0.0356173 0.0285166 0.021833 0.0160406 0.0111393 0.00712915 0.00401015 0.00178229 0.000445572 0 0 0.000603379 0.00241352 0.00543041 0.00965406 0.0150845 0.0217216 0.0295656 0.0386163 0.0482325 0.0577731 0.0672381 0.0766274 0.0859412 0.0951792 0.104342 0.113428 0.122398 0.131207 0.139858 0.148348 0.15668 0.164851 0.172864 0.180716 0.188342 0.195672 0.202707 0.209447 0.215892 0.222042 0.227897 0.233457 0.238724 0.243703 0.248393 0.252793 0.256905 0.260728 0.264262 0.267507 0.270504 0.273296 0.275881 0.27826 0.280432 0.282399 0.284159 0.285713 0.287106 0.288383 0.289543 0.290587 0.291514 0.292325 0.293019 0.293597 0.294085 0.294511 0.294873 0.295172 0.295409 0.295582 0.295692 0.29574 0.295724 0.295646 0.295504 0.295299 0.295031 0.2947 0.294307 0.29385 0.293303 0.292639 0.291859 0.290961 0.289948 0.288817 0.287569 0.286205 0.284679 0.282946 0.281005 0.278858 0.276503 0.273941 0.271172 0.268195 0.26497 0.261454 0.257646 0.253548 0.249159 0.24448 0.239509 0.234247 0.228691 0.222837 0.216686 0.210236 0.203489 0.196444 0.189102 0.181461 0.173591 0.165558 0.157364 0.149008 0.14049 0.131811 0.122969 0.113966 0.104843 0.0956424 0.0863645 0.0770093 0.0675766 0.0580666 0.0484791 0.0388143 0.0297172 0.021833 0.0151618 0.00970357 0.00545826 0.00242589 0.000606473 0 0 0.000788087 0.00315235 0.00709278 0.0126094 0.0197022 0.0283711 0.0386163 0.0504376 0.0629975 0.0754588 0.0878212 0.100085 0.11225 0.124316 0.136283 0.148152 0.159866 0.171373 0.182671 0.193761 0.204643 0.215316 0.225781 0.236038 0.245997 0.255572 0.264761 0.273564 0.281982 0.290014 0.297661 0.304923 0.311803 0.318306 0.324431 0.330179 0.33555 0.340543 0.345159 0.349397 0.353312 0.356958 0.360334 0.363441 0.366279 0.368848 0.371147 0.373177 0.374996 0.376663 0.378179 0.379542 0.380753 0.381812 0.382719 0.383474 0.384112 0.384667 0.38514 0.385531 0.38584 0.386066 0.386211 0.386272 0.386252 0.386149 0.385964 0.385697 0.385347 0.384915 0.3844 0.383803 0.383089 0.382222 0.381203 0.380031 0.378707 0.37723 0.375601 0.373819 0.371826 0.369562 0.367027 0.364222 0.361146 0.3578 0.354183 0.350296 0.346083 0.34149 0.336518 0.331165 0.325433 0.31932 0.312828 0.305956 0.298699 0.291053 0.283018 0.274595 0.265782 0.25658 0.24699 0.23701 0.226731 0.216239 0.205537 0.194623 0.183498 0.172161 0.160613 0.148853 0.136938 0.124921 0.112803 0.100584 0.0882634 0.0758421 0.0633197 0.0506962 0.0388143 0.0285166 0.0198032 0.012674 0.00712915 0.00316851 0.000792128 0 0 0.000984335 0.00393734 0.00885902 0.0157494 0.0246084 0.0354361 0.0482324 0.0629974 0.0786846 0.0942475 0.109686 0.125 0.14019 0.155255 0.170196 0.185013 0.199637 0.214 0.228102 0.241943 0.255523 0.268842 0.281901 0.294698 0.307123 0.319067 0.33053 0.34151 0.352009 0.362026 0.371562 0.380615 0.389192 0.397299 0.404934 0.412098 0.41879 0.425012 0.430763 0.436042 0.440918 0.445459 0.449664 0.453532 0.457066 0.460263 0.463125 0.465651 0.467914 0.469988 0.471873 0.473568 0.475075 0.476391 0.477519 0.478457 0.47925 0.47994 0.480528 0.481014 0.481397 0.481679 0.481858 0.481935 0.48191 0.481782 0.481552 0.48122 0.480785 0.480248 0.479609 0.478867 0.47798 0.476902 0.475635 0.474177 0.47253 0.470693 0.468666 0.46645 0.463969 0.461152 0.457997 0.454504 0.450674 0.446507 0.442003 0.437161 0.431913 0.426192 0.419995 0.413325 0.40618 0.398561 0.390468 0.381901 0.372853 0.363319 0.3533 0.342794 0.331802 0.320324 0.308359 0.295909 0.283083 0.269993 0.256637 0.243017 0.229132 0.214982 0.200567 0.185888 0.171012 0.156009 0.140879 0.125622 0.110237 0.0947252 0.0790861 0.0633198 0.0484792 0.0356174 0.0247343 0.0158299 0.00890434 0.00395749 0.000989372 0 0 0.00117904 0.00471615 0.0106113 0.0188646 0.0294759 0.0424453 0.0577728 0.0754583 0.0942471 0.112884 0.13137 0.149703 0.167885 0.185916 0.203795 0.221522 0.239016 0.256195 0.273059 0.289608 0.305843 0.321763 0.337368 0.352658 0.367502 0.381769 0.395457 0.408567 0.4211 0.433054 0.444431 0.45523 0.465459 0.475124 0.484225 0.492763 0.500737 0.508148 0.514996 0.52128 0.527082 0.532484 0.537485 0.542086 0.546286 0.550086 0.553485 0.556484 0.55917 0.561631 0.563867 0.565878 0.567663 0.569224 0.57056 0.571671 0.572608 0.573425 0.574121 0.574696 0.57515 0.575483 0.575695 0.575786 0.575756 0.575605 0.575333 0.57494 0.574426 0.573791 0.573034 0.572157 0.571106 0.56983 0.568328 0.5666 0.564647 0.562467 0.560063 0.557432 0.554487 0.55114 0.547391 0.543239 0.538685 0.533729 0.52837 0.522609 0.516363 0.50955 0.502169 0.494222 0.485707 0.476625 0.466975 0.456759 0.445967 0.434592 0.422635 0.410094 0.39697 0.383263 0.368973 0.3541 0.338776 0.323132 0.307169 0.290887 0.274285 0.257364 0.240123 0.222563 0.204766 0.186814 0.168707 0.150444 0.132026 0.113453 0.0947255 0.0758425 0.0580669 0.0426614 0.029626 0.0189606 0.0106653 0.00474015 0.00118504 0 0 0.00137219 0.00548876 0.0123497 0.0219551 0.0343048 0.0493989 0.0672374 0.0878202 0.109685 0.131369 0.152872 0.174195 0.195337 0.216298 0.237078 0.257678 0.278002 0.297957 0.317542 0.336757 0.355602 0.374078 0.392184 0.40992 0.427135 0.443675 0.459542 0.474735 0.489254 0.503099 0.516271 0.528768 0.540602 0.551781 0.562305 0.572175 0.581391 0.589952 0.597858 0.60511 0.611803 0.618033 0.623799 0.629101 0.63394 0.638315 0.642227 0.645676 0.648763 0.651591 0.65416 0.656469 0.658519 0.66031 0.661842 0.663114 0.664188 0.665123 0.665919 0.666578 0.667097 0.667479 0.667721 0.667826 0.667792 0.667619 0.667308 0.666858 0.66627 0.665543 0.664677 0.663673 0.662469 0.661006 0.659283 0.657299 0.655056 0.652553 0.649789 0.646766 0.64338 0.639528 0.635211 0.630428 0.625179 0.619465 0.613285 0.606639 0.599431 0.591565 0.583039 0.573855 0.564012 0.55351 0.542349 0.53053 0.518041 0.504872 0.491023 0.476495 0.461287 0.445399 0.428831 0.411584 0.393809 0.375658 0.357133 0.338233 0.318958 0.299307 0.279282 0.258881 0.238201 0.217335 0.196285 0.175051 0.153631 0.132027 0.110238 0.0882643 0.0675773 0.0496486 0.0344782 0.0220661 0.0124122 0.00551652 0.00137913 0 0 0.0015638 0.00625519 0.0140742 0.0250208 0.039095 0.0562968 0.0766261 0.100083 0.124998 0.149702 0.174194 0.198474 0.222543 0.246401 0.270047 0.293481 0.316597 0.339287 0.361551 0.383389 0.404801 0.425788 0.446348 0.466483 0.48602 0.504787 0.522785 0.540013 0.556471 0.57216 0.58708 0.601229 0.614622 0.627271 0.639175 0.650335 0.660751 0.670422 0.67935 0.687533 0.695081 0.702105 0.708604 0.714578 0.720028 0.724952 0.729352 0.733228 0.736694 0.739869 0.742752 0.745343 0.747642 0.749649 0.751364 0.752787 0.753987 0.755032 0.755923 0.756659 0.75724 0.757666 0.757937 0.758054 0.758016 0.757823 0.757476 0.756973 0.756316 0.755504 0.754536 0.753415 0.752069 0.75043 0.748499 0.746275 0.743758 0.740949 0.737847 0.734452 0.730647 0.726315 0.721456 0.716069 0.710156 0.703715 0.696747 0.689252 0.681119 0.672237 0.662606 0.652225 0.641096 0.629217 0.61659 0.603213 0.589074 0.574158 0.558466 0.541997 0.524752 0.506731 0.487933 0.468359 0.448181 0.427571 0.406529 0.385055 0.363149 0.340812 0.318042 0.29484 0.271315 0.247573 0.223615 0.199442 0.175052 0.150446 0.125623 0.100585 0.0770105 0.0565791 0.0392911 0.0251463 0.0141448 0.00628657 0.00157164 0 0 0.00175386 0.00701544 0.0157847 0.0280618 0.0438465 0.0631389 0.0859391 0.112247 0.140187 0.167882 0.195334 0.222542 0.249505 0.276225 0.3027 0.328932 0.354799 0.380184 0.405086 0.429504 0.453439 0.476892 0.499861 0.522346 0.544158 0.565105 0.585186 0.604402 0.622753 0.640238 0.656858 0.672613 0.687519 0.701593 0.714834 0.727242 0.738817 0.74956 0.75947 0.768548 0.776917 0.784701 0.791902 0.798518 0.804549 0.809997 0.81486 0.819138 0.822963 0.826465 0.829644 0.8325 0.835032 0.837241 0.839128 0.840691 0.842008 0.843155 0.844132 0.844939 0.845577 0.846045 0.846343 0.846471 0.84643 0.846218 0.845837 0.845286 0.844565 0.843674 0.842613 0.841382 0.839904 0.838103 0.835977 0.833527 0.830754 0.827656 0.824235 0.820489 0.816288 0.8115 0.806125 0.800164 0.793615 0.78648 0.778757 0.770448 0.761426 0.751566 0.740868 0.729332 0.716958 0.703747 0.689697 0.674809 0.659066 0.64245 0.624962 0.606601 0.587366 0.56726 0.54628 0.524428 0.501894 0.47887 0.455357 0.431354 0.40686 0.381877 0.356404 0.330441 0.304109 0.277527 0.250697 0.223617 0.196288 0.168709 0.140882 0.112805 0.0863664 0.0634529 0.0440645 0.0282013 0.0158632 0.00705032 0.00176258 0 0 0.00194237 0.00776949 0.0174814 0.031078 0.0485593 0.0699254 0.0951763 0.124312 0.155251 0.185911 0.216293 0.246397 0.276223 0.30577 0.335039 0.364029 0.39261 0.420649 0.448147 0.475103 0.501517 0.52739 0.552721 0.577511 0.60155 0.624628 0.646745 0.667901 0.688097 0.707332 0.725607 0.74292 0.759294 0.774747 0.789281 0.802895 0.81559 0.827365 0.83822 0.848155 0.857309 0.865821 0.873691 0.880919 0.887504 0.893448 0.898749 0.903408 0.90757 0.911379 0.914835 0.917938 0.920689 0.923087 0.925132 0.926824 0.928248 0.929489 0.930546 0.931419 0.932109 0.932615 0.932938 0.933077 0.933032 0.932804 0.932392 0.931796 0.931017 0.930053 0.928906 0.927576 0.925976 0.924023 0.921716 0.919056 0.916042 0.912674 0.908953 0.904878 0.900304 0.895085 0.889221 0.882711 0.875557 0.867758 0.859314 0.850226 0.840351 0.829552 0.817827 0.805176 0.7916 0.777098 0.761671 0.745318 0.728018 0.709749 0.690512 0.670305 0.649129 0.626984 0.603871 0.579788 0.554947 0.529556 0.503617 0.477128 0.450091 0.422504 0.394369 0.365684 0.336583 0.307198 0.277529 0.247576 0.217339 0.186818 0.156013 0.124924 0.0956451 0.0702699 0.0487985 0.0312311 0.0175675 0.00780776 0.00195194 0 0 0.00212934 0.00851736 0.0191641 0.0340695 0.0532335 0.0766563 0.104338 0.136278 0.17019 0.203788 0.237072 0.270041 0.302696 0.335036 0.367063 0.398774 0.430029 0.460682 0.490733 0.520184 0.549034 0.577283 0.60493 0.631976 0.658194 0.683356 0.707462 0.730511 0.752505 0.773443 0.793324 0.81215 0.829945 0.846734 0.862518 0.877296 0.891069 0.903836 0.915598 0.926354 0.936259 0.945465 0.953973 0.961782 0.968893 0.975306 0.981021 0.986038 0.990514 0.99461 0.998326 1.00166 1.00461 1.00719 1.00938 1.01119 1.01271 1.01404 1.01517 1.0161 1.01684 1.01738 1.01772 1.01787 1.01782 1.01758 1.01714 1.0165 1.01567 1.01464 1.01342 1.012 1.01028 1.00819 1.00572 1.00286 0.999624 0.996004 0.992002 0.987619 0.982694 0.977068 0.970741 0.963712 0.955983 0.947552 0.93842 0.928586 0.917896 0.906195 0.893482 0.879757 0.86502 0.849272 0.832512 0.81474 0.79593 0.776055 0.755115 0.73311 0.71004 0.685905 0.660706 0.634441 0.607339 0.579628 0.551308 0.522379 0.49284 0.462692 0.431935 0.400569 0.368737 0.336586 0.304113 0.27132 0.238207 0.204772 0.171018 0.136942 0.104847 0.0770301 0.0534931 0.0342356 0.0192575 0.0085589 0.00213973 0 0 0.00231476 0.00925904 0.0208328 0.0370362 0.057869 0.0833314 0.113423 0.148145 0.185005 0.221513 0.257669 0.293473 0.328924 0.364024 0.398771 0.433167 0.467055 0.500282 0.532846 0.564749 0.59599 0.62657 0.656487 0.685743 0.714092 0.74129 0.767336 0.792232 0.815977 0.83857 0.860012 0.880303 0.899473 0.917553 0.934544 0.950444 0.965255 0.978975 0.991606 1.00315 1.01377 1.02363 1.03275 1.04111 1.04872 1.05557 1.06168 1.06703 1.0718 1.07616 1.08012 1.08366 1.0868 1.08954 1.09186 1.09378 1.09539 1.09679 1.09799 1.09898 1.09976 1.10033 1.1007 1.10085 1.1008 1.10055 1.10008 1.09941 1.09853 1.09744 1.09614 1.09464 1.09283 1.09061 1.08798 1.08494 1.0815 1.07764 1.07338 1.06871 1.06346 1.05745 1.05069 1.04317 1.03489 1.02586 1.01607 1.00553 0.99406 0.981495 0.967833 0.953074 0.937219 0.920267 0.902219 0.883074 0.862801 0.841367 0.818772 0.795016 0.7701 0.744023 0.716785 0.688386 0.659072 0.629087 0.598432 0.567106 0.535109 0.502441 0.469103 0.435095 0.400572 0.365689 0.330448 0.294848 0.258889 0.222572 0.185895 0.14886 0.113971 0.0837336 0.0581483 0.0372149 0.0209334 0.00930373 0.00232593 0 0 0.00249778 0.00999112 0.02248 0.0399645 0.0624445 0.08992 0.122391 0.159858 0.199627 0.239004 0.27799 0.316585 0.354789 0.392601 0.430022 0.467051 0.503524 0.539272 0.574297 0.608598 0.642175 0.675029 0.707159 0.738565 0.768987 0.798163 0.826092 0.852776 0.878214 0.902405 0.925351 0.947051 0.967542 0.986859 1.005 1.02198 1.03778 1.0524 1.06586 1.07814 1.08943 1.09992 1.1096 1.11848 1.12655 1.13382 1.14028 1.14594 1.15098 1.15558 1.15976 1.1635 1.16681 1.16969 1.17213 1.17415 1.17583 1.1773 1.17856 1.17959 1.18041 1.18101 1.18139 1.18156 1.18151 1.18124 1.18075 1.18005 1.17912 1.17799 1.17663 1.17505 1.17315 1.17082 1.16805 1.16485 1.16122 1.15715 1.15265 1.14772 1.14217 1.1358 1.12863 1.12066 1.11187 1.10227 1.09187 1.08066 1.06846 1.05507 1.04051 1.02476 1.00784 0.989738 0.970456 0.949993 0.928313 0.905376 0.881184 0.855735 0.82903 0.801069 0.771852 0.741378 0.70991 0.677709 0.644775 0.611107 0.576707 0.541574 0.505707 0.469107 0.431942 0.394377 0.356414 0.318053 0.279293 0.240134 0.200577 0.160621 0.122975 0.0903493 0.0627426 0.0401552 0.0225873 0.0100388 0.0025097 0 0 0.00267754 0.0107102 0.0240979 0.0428406 0.0669385 0.0963914 0.131199 0.171363 0.213987 0.25618 0.297942 0.339272 0.38017 0.420636 0.460671 0.500274 0.539268 0.577475 0.614896 0.65153 0.687377 0.722438 0.756712 0.7902 0.822624 0.853708 0.883452 0.911855 0.938919 0.964642 0.989025 1.01207 1.03381 1.05431 1.07355 1.09153 1.10826 1.12374 1.13797 1.15094 1.16285 1.17392 1.18412 1.19348 1.20197 1.20962 1.2164 1.22234 1.22762 1.23244 1.23681 1.24072 1.24418 1.24718 1.24973 1.25182 1.25357 1.2551 1.2564 1.25748 1.25833 1.25895 1.25935 1.25952 1.25947 1.25919 1.25868 1.25795 1.257 1.25581 1.25441 1.25277 1.2508 1.24837 1.24548 1.24214 1.23834 1.23408 1.22937 1.22421 1.21838 1.2117 1.20416 1.19576 1.18651 1.17639 1.16542 1.15359 1.1407 1.12655 1.11114 1.09446 1.07653 1.05734 1.03688 1.01517 0.992146 0.967774 0.942051 0.914977 0.886552 0.856776 0.825649 0.793171 0.759619 0.72527 0.690125 0.654184 0.617445 0.57991 0.541578 0.50245 0.462703 0.422517 0.381891 0.340826 0.299322 0.257378 0.214994 0.172171 0.131819 0.0968463 0.0672544 0.0430428 0.0242116 0.0107607 0.00269017 0 0 0.00285404 0.0114162 0.0256864 0.0456647 0.0713511 0.102746 0.139848 0.182659 0.228087 0.273042 0.317523 0.361532 0.405067 0.448129 0.490718 0.532834 0.574288 0.614891 0.654644 0.693545 0.731597 0.768797 0.805147 0.840646 0.875003 0.907926 0.939415 0.96947 0.998092 1.02528 1.05103 1.07535 1.09829 1.11989 1.14017 1.15911 1.17671 1.19299 1.20793 1.22154 1.23404 1.24563 1.25632 1.2661 1.27499 1.28297 1.29005 1.29623 1.30171 1.30673 1.31126 1.31532 1.31891 1.32202 1.32465 1.32681 1.32862 1.33019 1.33153 1.33263 1.33351 1.33415 1.33456 1.33474 1.33469 1.3344 1.33388 1.33313 1.33215 1.33093 1.32948 1.3278 1.32576 1.32325 1.32026 1.3168 1.31286 1.30844 1.30354 1.29817 1.29211 1.28514 1.27727 1.26849 1.2588 1.24821 1.23671 1.22431 1.21079 1.19592 1.17972 1.16217 1.14329 1.12307 1.1015 1.0786 1.0543 1.02856 1.00137 0.972742 0.942665 0.911143 0.878176 0.843764 0.808198 0.771772 0.734483 0.696334 0.657323 0.617451 0.576717 0.535122 0.492856 0.450108 0.406879 0.363168 0.318976 0.274302 0.229147 0.18351 0.1405 0.103224 0.0716837 0.0458776 0.0258061 0.0114694 0.00286735 0 0 0.00302729 0.0121092 0.0272456 0.0484366 0.0756822 0.108982 0.148337 0.193746 0.241925 0.289588 0.336735 0.383366 0.429481 0.475081 0.520164 0.564732 0.608584 0.65152 0.69354 0.734645 0.774833 0.814106 0.852463 0.889904 0.926124 0.960816 0.993982 1.02562 1.05573 1.08432 1.11138 1.13691 1.16097 1.18362 1.20487 1.22471 1.24313 1.26015 1.27576 1.28996 1.30298 1.31505 1.32618 1.33636 1.34559 1.35387 1.36121 1.3676 1.37327 1.37845 1.38313 1.38731 1.391 1.3942 1.3969 1.39911 1.40096 1.40256 1.40393 1.40506 1.40596 1.40661 1.40703 1.40722 1.40716 1.40687 1.40634 1.40557 1.40457 1.40333 1.40185 1.40013 1.39805 1.39548 1.3924 1.38884 1.38477 1.38022 1.37516 1.36962 1.36335 1.35612 1.34795 1.33883 1.32876 1.31773 1.30576 1.29283 1.27872 1.2632 1.24625 1.22789 1.20812 1.18692 1.16431 1.14028 1.11478 1.08773 1.05915 1.02903 0.997371 0.964172 0.929434 0.893158 0.855649 0.817212 0.777849 0.737558 0.696341 0.654196 0.611124 0.567125 0.522401 0.477152 0.431378 0.385079 0.338256 0.290908 0.243035 0.194638 0.14902 0.109484 0.0760305 0.0486595 0.027371 0.0121649 0.00304122 0 0 0.00319728 0.0127891 0.0287755 0.0511564 0.0799319 0.115102 0.156667 0.204626 0.255502 0.305819 0.355576 0.404774 0.453412 0.50149 0.549009 0.595968 0.642156 0.687362 0.731585 0.774827 0.817087 0.858365 0.89866 0.937974 0.975986 1.01238 1.04715 1.08031 1.11184 1.14176 1.17005 1.19673 1.22185 1.2455 1.26765 1.28833 1.30751 1.32522 1.34144 1.35618 1.36968 1.38219 1.39371 1.40424 1.41378 1.42233 1.42989 1.43647 1.44229 1.4476 1.45239 1.45668 1.46046 1.46373 1.46648 1.46873 1.4706 1.47222 1.47361 1.47476 1.47567 1.47633 1.47676 1.47695 1.47689 1.4766 1.47606 1.47529 1.47427 1.47301 1.47151 1.46978 1.46766 1.46504 1.4619 1.45825 1.45409 1.44942 1.44423 1.43854 1.43209 1.42465 1.41622 1.40679 1.39637 1.38495 1.37255 1.35914 1.3445 1.32837 1.31074 1.29162 1.27101 1.24891 1.22531 1.20023 1.17358 1.1453 1.11539 1.08384 1.05067 1.01586 0.979423 0.941352 0.901969 0.861592 0.820221 0.777857 0.734498 0.690145 0.644799 0.598459 0.551337 0.503647 0.455387 0.406558 0.357161 0.307195 0.256659 0.205555 0.157378 0.115625 0.0802949 0.0513888 0.0289062 0.0128472 0.0032118 0 0 0.00336401 0.013456 0.0302761 0.0538241 0.0841001 0.121104 0.164836 0.215296 0.268818 0.321735 0.374048 0.425756 0.476859 0.527358 0.577252 0.626541 0.675003 0.722416 0.768779 0.814093 0.858358 0.901573 0.943739 0.984855 1.02459 1.06261 1.09893 1.13353 1.16642 1.1976 1.22706 1.25482 1.28094 1.30551 1.32852 1.34997 1.36986 1.3882 1.40498 1.42021 1.43414 1.44704 1.45891 1.46975 1.47956 1.48835 1.4961 1.50282 1.50876 1.51418 1.51907 1.52344 1.52728 1.53059 1.53339 1.53565 1.53753 1.53918 1.54057 1.54173 1.54264 1.54332 1.54375 1.54393 1.54388 1.54359 1.54305 1.54227 1.54124 1.53998 1.53847 1.53673 1.53459 1.53194 1.52875 1.52504 1.52081 1.51604 1.51076 1.50494 1.49835 1.49072 1.48206 1.47237 1.46164 1.44988 1.43708 1.42325 1.40813 1.39143 1.37318 1.35336 1.33197 1.30902 1.2845 1.25842 1.2307 1.20125 1.17008 1.13718 1.10256 1.06621 1.02814 0.988348 0.947161 0.904912 0.861602 0.817229 0.771795 0.725299 0.677742 0.629122 0.579665 0.529593 0.478907 0.427607 0.375692 0.323162 0.270019 0.216261 0.165575 0.121647 0.0844769 0.0540652 0.0304117 0.0135163 0.00337907 0 0 0.00352748 0.0141099 0.0317473 0.0564397 0.088187 0.126989 0.172846 0.225759 0.281873 0.337336 0.392149 0.446311 0.499823 0.552683 0.604893 0.656452 0.707127 0.756683 0.805122 0.852443 0.898646 0.943731 0.987699 1.03055 1.07194 1.11152 1.14931 1.18529 1.21946 1.25184 1.28241 1.31118 1.33823 1.36366 1.38746 1.40963 1.43017 1.44909 1.46638 1.48204 1.49636 1.5096 1.52178 1.53289 1.54294 1.55191 1.55982 1.56666 1.57269 1.57819 1.58315 1.58757 1.59146 1.59481 1.59762 1.59989 1.60177 1.60341 1.60481 1.60597 1.60689 1.60756 1.60799 1.60818 1.60813 1.60783 1.6073 1.60652 1.6055 1.60423 1.60273 1.60098 1.59885 1.59617 1.59296 1.58921 1.58492 1.58009 1.57473 1.56882 1.56211 1.55433 1.54548 1.53556 1.52457 1.5125 1.49937 1.48516 1.4696 1.4524 1.43357 1.4131 1.391 1.36726 1.34189 1.31488 1.28614 1.25559 1.22322 1.18904 1.15304 1.11522 1.07559 1.03414 0.991223 0.947171 0.901989 0.855676 0.808232 0.759658 0.709952 0.659116 0.607385 0.554992 0.501938 0.448223 0.393848 0.338811 0.283114 0.226755 0.17361 0.12755 0.0885763 0.0566888 0.0318875 0.0141722 0.00354305 0 0 0.00368769 0.0147508 0.0331892 0.0590031 0.0921923 0.132757 0.180697 0.236012 0.294666 0.352623 0.409881 0.466441 0.522303 0.577467 0.631933 0.685701 0.738526 0.790164 0.840614 0.889877 0.937952 0.98484 1.03054 1.07505 1.11803 1.1591 1.19829 1.23558 1.27098 1.30448 1.33609 1.36581 1.39373 1.41995 1.44448 1.46732 1.48845 1.50789 1.52564 1.54169 1.55633 1.56988 1.58232 1.59366 1.6039 1.61303 1.62106 1.62798 1.63408 1.63963 1.64464 1.6491 1.653 1.65636 1.65918 1.66144 1.66331 1.66494 1.66633 1.66748 1.66839 1.66906 1.66949 1.66968 1.66963 1.66934 1.66881 1.66804 1.66702 1.66577 1.66428 1.66255 1.66042 1.65775 1.65452 1.65075 1.64643 1.64157 1.63615 1.63018 1.62339 1.61549 1.60649 1.59637 1.58515 1.57283 1.5594 1.54486 1.52892 1.51127 1.49192 1.47086 1.4481 1.42363 1.39746 1.36959 1.33991 1.30832 1.27482 1.23942 1.20211 1.16289 1.12177 1.07874 1.03416 0.98837 0.941384 0.893197 0.843809 0.79322 0.741431 0.688441 0.634496 0.579842 0.52448 0.468409 0.411629 0.354141 0.295944 0.237039 0.181483 0.133334 0.0925933 0.0592597 0.0333336 0.0148149 0.00370373 0 0 0.00384327 0.0153731 0.0345894 0.0614923 0.0960817 0.138358 0.18832 0.245969 0.307089 0.367462 0.42709 0.485972 0.544108 0.601499 0.658143 0.714042 0.76894 0.82258 0.874962 0.926088 0.975956 1.02457 1.07192 1.11802 1.16249 1.20499 1.2455 1.28402 1.32057 1.35513 1.3877 1.4183 1.44702 1.47398 1.49918 1.52261 1.54429 1.5642 1.58234 1.59873 1.61367 1.62747 1.64013 1.65166 1.66205 1.6713 1.67942 1.68641 1.69254 1.69813 1.70315 1.70762 1.71153 1.71489 1.71769 1.71993 1.72178 1.72339 1.72476 1.7259 1.7268 1.72746 1.72788 1.72807 1.72802 1.72774 1.72721 1.72645 1.72546 1.72423 1.72276 1.72105 1.71894 1.71628 1.71307 1.70929 1.70496 1.70008 1.69463 1.68863 1.68178 1.6738 1.66467 1.6544 1.643 1.63045 1.61677 1.60195 1.58567 1.56762 1.5478 1.52621 1.50285 1.47772 1.45082 1.42215 1.39159 1.35904 1.32449 1.28794 1.2494 1.20886 1.16632 1.12178 1.07562 1.02818 0.979468 0.929486 0.878234 0.82571 0.771916 0.71685 0.660771 0.603934 0.546341 0.487991 0.428884 0.36902 0.3084 0.247023 0.189127 0.13895 0.0964932 0.0617557 0.0347376 0.0154389 0.00385973 0 0 0.00399282 0.0159713 0.0359354 0.0638851 0.0998204 0.143741 0.195648 0.25554 0.319029 0.381724 0.443625 0.504734 0.565048 0.62457 0.683298 0.741233 0.798107 0.853655 0.907877 0.960772 1.01234 1.06258 1.1115 1.15909 1.20498 1.2488 1.29055 1.33023 1.36784 1.40338 1.43685 1.46825 1.4977 1.52533 1.55113 1.57511 1.59726 1.61759 1.63609 1.65276 1.66794 1.68195 1.6948 1.70648 1.717 1.72634 1.73452 1.74154 1.74769 1.75328 1.7583 1.76277 1.76666 1.77 1.77278 1.77499 1.7768 1.77838 1.77973 1.78085 1.78173 1.78238 1.7828 1.78299 1.78294 1.78266 1.78215 1.78141 1.78043 1.77922 1.77778 1.77611 1.77404 1.77141 1.76821 1.76445 1.76013 1.75524 1.74979 1.74378 1.7369 1.72886 1.71964 1.70925 1.6977 1.68497 1.67108 1.65602 1.63945 1.62106 