<?xml version="1.0"?> 
<VTKFile type="StructuredGrid" version="0.1"> 
<StructuredGrid WholeExtent="0 128 0 128 0 0"> 
<Piece Extent="0 128 0 128 0 0"> 
<PointData>
<DataArray type="Float32" Name="u" format="ascii" NumberOfComponents="1"> 
0 0 0 0 0 0 0 0 0 0 0 0 0 0 0 0 0 0 0 0 0 0 0 0 0 0 0 0 0 0 0 0 0 0 0 0 0 0 0 0 0 0 0 0 0 0 0 0 0 0 0 0 0 0 0 0 0 0 0 0 0 0 0 0 0 0 0 0 0 0 0 0 0 0 0 0 0 0 0 0 0 0 0 0 0 0 0 0 0 0 0 0 0 0 0 0 0 0 0 0 0 0 0 0 0 0 0 0 0 0 0 0 0 0 0 0 0 0 0 0 0 0 0 0 0 0 0 0 0 0 5.04826e-08 2.0193e-07 4.54343e-07 8.07721e-07 1.26206e-06 1.81737e-06 2.47365e-06 3.23088e-06 4.04514e-06 4.87245e-06 5.71282e-06 6.56625e-06 7.43275e-06 8.3123e-06 9.20492e-06 1.01106e-05 1.10286e-05 1.19582e-05 1.28993e-05 1.38521e-05 1.48164e-05 1.57923e-05 1.67798e-05 1.77789e-05 1.87823e-05 1.97826e-05 2.07799e-05 2.17742e-05 2.27655e-05 2.37538e-05 2.4739e-05 2.57213e-05 2.66941e-05 2.7651e-05 2.85921e-05 2.95173e-05 3.04266e-05 3.13201e-05 3.21977e-05 3.30594e-05 3.39e-05 3.47142e-05 3.5502e-05 3.62634e-05 3.69983e-05 3.77069e-05 3.8389e-05 3.90447e-05 3.96701e-05 4.02611e-05 4.08178e-05 4.13402e-05 4.18282e-05 4.22819e-05 4.27013e-05 4.30864e-05 4.34347e-05 4.37439e-05 4.40138e-05 4.42446e-05 4.44362e-05 4.45887e-05 4.47019e-05 4.4776e-05 4.48102e-05 4.48039e-05 4.4757e-05 4.46696e-05 4.45416e-05 4.43731e-05 4.4164e-05 4.39144e-05 4.36254e-05 4.32983e-05 4.29331e-05 4.25297e-05 4.20882e-05 4.16085e-05 4.10907e-05 4.05347e-05 3.99438e-05 3.93211e-05 3.86665e-05 3.79802e-05 3.7262e-05 3.6512e-05 3.57302e-05 3.49166e-05 3.40763e-05 3.32144e-05 3.23308e-05 3.14257e-05 3.04989e-05 2.95505e-05 2.85806e-05 2.7589e-05 2.65827e-05 2.55687e-05 2.45471e-05 2.35176e-05 2.24805e-05 2.14357e-05 2.03831e-05 1.93228e-05 1.82633e-05 1.7213e-05 1.61718e-05 1.51399e-05 1.41173e-05 1.31038e-05 1.20995e-05 1.11045e-05 1.01201e-05 9.14797e-06 8.18803e-06 7.24029e-06 6.30475e-06 5.38141e-06 4.47028e-06 3.57134e-06 2.73431e-06 2.00888e-06 1.39505e-06 8.92835e-07 5.0222e-07 2.23209e-07 5.58022e-08 0 0 2.0193e-07 8.07721e-07 1.81737e-06 3.23088e-06 5.04826e-06 7.26949e-06 9.89458e-06 1.29235e-05 1.61805e-05 1.94898e-05 2.28513e-05 2.6265e-05 2.9731e-05 3.32492e-05 3.68197e-05 4.04424e-05 4.41144e-05 4.78327e-05 5.15974e-05 5.54083e-05 5.92656e-05 6.31693e-05 6.71193e-05 7.11156e-05 7.5129e-05 7.91304e-05 8.31197e-05 8.70969e-05 9.1062e-05 9.50151e-05 9.89561e-05 0.000102885 0.000106776 0.000110604 0.000114368 0.000118069 0.000121706 0.00012528 0.000128791 0.000132238 0.0001356 0.000138857 0.000142008 0.000145054 0.000147993 0.000150828 0.000153556 0.000156179 0.00015868 0.000161044 0.000163271 0.000165361 0.000167313 0.000169128 0.000170805 0.000172346 0.000173739 0.000174975 0.000176055 0.000176978 0.000177745 0.000178355 0.000178808 0.000179104 0.000179241 0.000179216 0.000179028 0.000178678 0.000178167 0.000177492 0.000176656 0.000175658 0.000174502 0.000173193 0.000171732 0.000170119 0.000168353 0.000166434 0.000164363 0.000162139 0.000159775 0.000157284 0.000154666 0.000151921 0.000149048 0.000146048 0.000142921 0.000139666 0.000136305 0.000132857 0.000129323 0.000125703 0.000121996 0.000118202 0.000114322 0.000110356 0.000106331 0.000102275 9.81882e-05 9.40706e-05 8.99221e-05 8.57427e-05 8.15324e-05 7.72913e-05 7.30531e-05 6.88518e-05 6.46874e-05 6.05598e-05 5.6469e-05 5.24151e-05 4.8398e-05 4.44178e-05 4.04805e-05 3.65919e-05 3.27521e-05 2.89612e-05 2.5219e-05 2.15257e-05 1.78811e-05 1.42854e-05 1.09372e-05 8.03552e-06 5.58022e-06 3.57134e-06 2.00888e-06 8.92835e-07 2.23209e-07 0 0 4.54343e-07 1.81737e-06 4.08909e-06 7.26949e-06 1.13586e-05 1.63563e-05 2.22628e-05 2.9078e-05 3.64062e-05 4.3852e-05 5.14154e-05 5.90963e-05 6.68947e-05 7.48107e-05 8.28443e-05 9.09954e-05 9.92573e-05 0.000107624 0.000116094 0.000124669 0.000133348 0.000142131 0.000151018 0.00016001 0.00016904 0.000178043 0.000187019 0.000195968 0.00020489 0.000213784 0.000222651 0.000231491 0.000240247 0.000248859 0.000257329 0.000265655 0.000273839 0.000281881 0.000289779 0.000297535 0.0003051 0.000312428 0.000319518 0.000326371 0.000332985 0.000339362 0.000345501 0.000351403 0.000357031 0.00036235 0.00036736 0.000372061 0.000376454 0.000380537 0.000384312 0.000387778 0.000390912 0.000393695 0.000396124 0.000398202 0.000399926 0.000401298 0.000402317 0.000402984 0.000403292 0.000403235 0.000402813 0.000402026 0.000400875 0.000399358 0.000397476 0.00039523 0.000392629 0.000389685 0.000386398 0.000382767 0.000378793 0.000374476 0.000369816 0.000364813 0.000359494 0.00035389 0.000347999 0.000341822 0.000335358 0.000328608 0.000321572 0.00031425 0.000306687 0.000298929 0.000290977 0.000282831 0.00027449 0.000265955 0.000257225 0.000248301 0.000239244 0.000230119 0.000220923 0.000211659 0.000202325 0.000192921 0.000183448 0.000173905 0.00016437 0.000154917 0.000145547 0.000136259 0.000127055 0.000117934 0.000108896 9.99401e-05 9.1081e-05 8.23318e-05 7.36923e-05 6.51626e-05 5.67428e-05 4.84327e-05 4.02325e-05 3.21421e-05 2.46088e-05 1.80799e-05 1.25555e-05 8.03552e-06 4.51998e-06 2.00888e-06 5.0222e-07 0 0 8.07721e-07 3.23088e-06 7.26949e-06 1.29235e-05 2.0193e-05 2.9078e-05 3.95783e-05 5.16941e-05 6.47222e-05 7.79592e-05 9.14051e-05 0.00010506 0.000118924 0.000132997 0.000147279 0.00016177 0.000176458 0.000191331 0.000206389 0.000221633 0.000237063 0.000252677 0.000268477 0.000284462 0.000300516 0.000316521 0.000332479 0.000348388 0.000364248 0.00038006 0.000395825 0.00041154 0.000427105 0.000442416 0.000457473 0.000472276 0.000486826 0.000501121 0.000515163 0.000528951 0.000542401 0.000555428 0.000568032 0.000580214 0.000591974 0.00060331 0.000614224 0.000624716 0.000634721 0.000644178 0.000653085 0.000661443 0.000669251 0.000676511 0.000683221 0.000689382 0.000694955 0.000699902 0.000704221 0.000707914 0.00071098 0.000713419 0.000715231 0.000716416 0.000716964 0.000716863 0.000716113 0.000714714 0.000712666 0.00070997 0.000706624 0.00070263 0.000698007 0.000692773 0.000686929 0.000680475 0.000673411 0.000665736 0.000657451 0.000648556 0.000639101 0.000629137 0.000618665 0.000607683 0.000596192 0.000584192 0.000571684 0.000558666 0.000545221 0.00053143 0.000517293 0.000502811 0.000487983 0.000472809 0.000457289 0.000441424 0.000425323 0.0004091 0.000392753 0.000376282 0.000359688 0.000342971 0.00032613 0.000309165 0.000292212 0.000275407 0.000258749 0.000242239 0.000225876 0.00020966 0.000193592 0.000177671 0.000161922 0.000146368 0.000131009 0.000115845 0.000100876 8.61026e-05 7.15244e-05 5.71415e-05 4.37489e-05 3.21421e-05 2.23209e-05 1.42854e-05 8.03552e-06 3.57134e-06 8.92835e-07 0 0 1.26206e-06 5.04826e-06 1.13586e-05 2.0193e-05 3.15516e-05 4.54343e-05 6.18411e-05 8.07721e-05 0.000101128 0.000121811 0.00014282 0.000164156 0.000185819 0.000207808 0.000230123 0.000252765 0.000275715 0.000298954 0.000322483 0.000346302 0.00037041 0.000394808 0.000419495 0.000444472 0.000469556 0.000494565 0.000519498 0.000544356 0.000569138 0.000593844 0.000618476 0.000643032 0.000667352 0.000691275 0.000714801 0.000737932 0.000760665 0.000783002 0.000804942 0.000826486 0.000847501 0.000867856 0.000887551 0.000906585 0.000924959 0.000942672 0.000959725 0.000976118 0.000991752 0.00100653 0.00102044 0.0010335 0.00104571 0.00105705 0.00106753 0.00107716 0.00108587 0.0010936 0.00110035 0.00110612 0.00111091 0.00111472 0.00111755 0.0011194 0.00112026 0.0011201 0.00111893 0.00111674 0.00111354 0.00110933 0.0011041 0.00109786 0.00109064 0.00108246 0.00107333 0.00106324 0.0010522 0.00104021 0.00102727 0.00101337 0.000998595 0.000983027 0.000966663 0.000949504 0.00093155 0.0009128 0.000893256 0.000872915 0.000851907 0.000830359 0.000808271 0.000785642 0.000762473 0.000738764 0.000714514 0.000689724 0.000664568 0.000639219 0.000613676 0.000587941 0.000562013 0.000535892 0.000509578 0.00048307 0.000456582 0.000430324 0.000404296 0.000378498 0.000352931 0.000327594 0.000302488 0.000277612 0.000253003 0.000228699 0.000204701 0.000181007 0.000157619 0.000134535 0.000111757 8.92835e-05 6.83577e-05 5.0222e-05 3.48764e-05 2.23209e-05 1.25555e-05 5.58022e-06 1.39505e-06 0 0 1.81737e-06 7.26949e-06 1.63563e-05 2.9078e-05 4.54343e-05 6.54254e-05 8.90512e-05 0.000116312 0.000145625 0.000175408 0.000205662 0.000236385 0.000267579 0.000299243 0.000331377 0.000363981 0.000397029 0.000430494 0.000464376 0.000498675 0.000533391 0.000568524 0.000604073 0.00064004 0.000676161 0.000712173 0.000748077 0.000783872 0.000819558 0.000855136 0.000890605 0.000925966 0.000960986 0.000995436 0.00102931 0.00106262 0.00109536 0.00112752 0.00115912 0.00119014 0.0012204 0.00124971 0.00127807 0.00130548 0.00133194 0.00135745 0.001382 0.00140561 0.00142812 0.0014494 0.00146944 0.00148825 0.00150582 0.00152215 0.00153725 0.00155111 0.00156365 0.00157478 0.0015845 0.00159281 0.0015997 0.00160519 0.00160927 0.00161194 0.00161317 0.00161294 0.00161125 0.00160811 0.0016035 0.00159743 0.00158991 0.00158092 0.00157052 0.00155874 0.00154559 0.00153107 0.00151517 0.00149791 0.00147926 0.00145925 0.00143798 0.00141556 0.001392 0.00136729 0.00134143 0.00131443 0.00128629 0.001257 0.00122675 0.00119572 0.00116391 0.00113132 0.00109796 0.00106382 0.0010289 0.000993203 0.000956978 0.000920475 0.000883694 0.000846635 0.000809299 0.000771684 0.000733792 0.000695621 0.000657478 0.000619666 0.000582186 0.000545038 0.000508221 0.000471736 0.000435582 0.000399761 0.000364324 0.000329327 0.000294769 0.00026065 0.000226971 0.000193731 0.00016093 0.000128568 9.84351e-05 7.23197e-05 5.0222e-05 3.21421e-05 1.80799e-05 8.03552e-06 2.00888e-06 0 0 2.47365e-06 9.89458e-06 2.22628e-05 3.95783e-05 6.18411e-05 8.90512e-05 0.000121209 0.000158313 0.000198212 0.00023875 0.000279928 0.000321746 0.000364205 0.000407303 0.000451041 0.000495419 0.000540401 0.000585951 0.000632068 0.000678752 0.000726004 0.000773824 0.000822211 0.000871166 0.00092033 0.000969347 0.00101822 0.00106694 0.00111551 0.00116394 0.00121221 0.00126034 0.00130801 0.0013549 0.00140101 0.00144635 0.0014909 0.00153468 0.00157769 0.00161991 0.0016611 0.001701 0.0017396 0.00177691 0.00181292 0.00184764 0.00188106 0.00191319 0.00194383 0.00197279 0.00200007 0.00202567 0.00204958 0.00207181 0.00209237 0.00211123 0.0021283 0.00214345 0.00215668 0.00216799 0.00217738 0.00218484 0.00219039 0.00219402 0.0021957 0.00219539 0.00219309 0.00218881 0.00218254 0.00217428 0.00216404 0.00215181 0.00213765 0.00212162 0.00210372 0.00208395 0.00206232 0.00203882 0.00201344 0.0019862 0.00195725 0.00192673 0.00189466 0.00186103 0.00182584 0.00178909 0.00175078 0.00171091 0.00166974 0.0016275 0.00158421 0.00153986 0.00149445 0.00144798 0.00140045 0.00135186 0.00130255 0.00125287 0.00120281 0.00115236 0.00110155 0.00105035 0.000998772 0.000946818 0.000894901 0.000843435 0.00079242 0.000741857 0.000691745 0.000642085 0.000592876 0.000544119 0.000495886 0.000448251 0.000401214 0.000354774 0.000308933 0.000263689 0.000219044 0.000174996 0.000133981 9.84351e-05 6.83577e-05 4.37489e-05 2.46088e-05 1.09372e-05 2.73431e-06 0 0 3.23088e-06 1.29235e-05 2.9078e-05 5.16941e-05 8.07721e-05 0.000116312 0.000158313 0.000206777 0.000258889 0.000311837 0.00036562 0.00042024 0.000475696 0.000531987 0.000589115 0.000647078 0.00070583 0.000765323 0.000825558 0.000886533 0.00094825 0.00101071 0.00107391 0.00113785 0.00120206 0.00126609 0.00132991 0.00139355 0.00145699 0.00152024 0.0015833 0.00164616 0.00170842 0.00176966 0.00182989 0.0018891 0.0019473 0.00200448 0.00206065 0.0021158 0.0021696 0.00222171 0.00227213 0.00232086 0.00236789 0.00241324 0.0024569 0.00249886 0.00253889 0.00257671 0.00261234 0.00264577 0.00267701 0.00270604 0.00273288 0.00275753 0.00277982 0.00279961 0.00281688 0.00283166 0.00284392 0.00285367 0.00286092 0.00286567 0.00286786 0.00286745 0.00286445 0.00285885 0.00285066 0.00283988 0.0028265 0.00281052 0.00279203 0.00277109 0.00274772 0.0027219 0.00269364 0.00266294 0.0026298 0.00259422 0.0025564 0.00251655 0.00247466 0.00243073 0.00238477 0.00233677 0.00228673 0.00223466 0.00218088 0.00212572 0.00206917 0.00201124 0.00195193 0.00189123 0.00182916 0.00176569 0.00170129 0.0016364 0.00157101 0.00150513 0.00143875 0.00137188 0.00130452 0.00123666 0.00116885 0.00110163 0.001035 0.000968956 0.000903504 0.000838642 0.000774369 0.000710685 0.000647687 0.00058547 0.000524034 0.000463379 0.000403504 0.00034441 0.000286098 0.000228566 0.000174996 0.000128568 8.92835e-05 5.71415e-05 3.21421e-05 1.42854e-05 3.57134e-06 0 0 4.04496e-06 1.61798e-05 3.64046e-05 6.47193e-05 0.000101124 0.000145618 0.000198203 0.000258877 0.000324118 0.000390401 0.000457726 0.000526093 0.000595503 0.000665955 0.00073745 0.000809986 0.000883507 0.000957954 0.00103333 0.00110963 0.00118685 0.001265 0.00134408 0.00142408 0.00150443 0.00158453 0.00166439 0.00174401 0.00182339 0.00190252 0.00198141 0.00206006 0.00213795 0.00221457 0.00228993 0.00236401 0.00243682 0.00250836 0.00257863 0.00264762 0.00271493 0.00278012 0.0028432 0.00290416 0.002963 0.00301973 0.00307435 0.00312685 0.00317692 0.00322424 0.00326881 0.00331064 0.00334971 0.00338604 0.00341962 0.00345045 0.00347833 0.00350308 0.0035247 0.00354318 0.00355852 0.00357072 0.00357979 0.00358572 0.00358845 0.00358795 0.00358419 0.00357719 0.00356694 0.00355344 0.0035367 0.00351671 0.00349357 0.00346738 0.00343813 0.00340583 0.00337048 0.00333207 0.00329061 0.0032461 0.00319878 0.00314892 0.00309651 0.00304156 0.00298405 0.002924 0.0028614 0.00279626 0.00272898 0.00265996 0.00258922 0.00251674 0.00244254 0.0023666 0.00228894 0.00220954 0.00212897 0.00204778 0.00196598 0.00188355 0.00180051 0.00171684 0.00163256 0.00154766 0.00146282 0.00137871 0.00129534 0.00121271 0.00113081 0.00104965 0.000969231 0.000889543 0.000810711 0.000732851 0.000655965 0.000580052 0.000505112 0.000431146 0.000358153 0.000286133 0.000219071 0.00016095 0.000111771 7.15332e-05 4.02374e-05 1.78833e-05 4.47083e-06 0 0 4.87174e-06 1.9487e-05 4.38457e-05 7.79478e-05 0.000121794 0.000175383 0.000238715 0.000311791 0.000390361 0.000470174 0.000551231 0.000633532 0.000717077 0.000801865 0.000887896 0.000975172 0.00106362 0.00115319 0.00124386 0.00133564 0.00142853 0.00152253 0.00161764 0.00171386 0.00181049 0.00190683 0.00200287 0.00209862 0.00219407 0.00228923 0.0023841 0.00247868 0.00257234 0.00266447 0.00275508 0.00284416 0.00293171 0.00301773 0.00310222 0.00318518 0.00326611 0.00334449 0.00342033 0.00349363 0.00356438 0.00363259 0.00369826 0.00376138 0.00382158 0.00387847 0.00393206 0.00398235 0.00402933 0.004073 0.00411337 0.00415043 0.00418396 0.00421371 0.0042397 0.00426191 0.00428035 0.00429502 0.00430591 0.00431304 0.00431632 0.00431571 0.00431118 0.00430276 0.00429043 0.0042742 0.00425407 0.00423003 0.0042022 0.0041707 0.00413553 0.00409669 0.00405418 0.00400799 0.00395814 0.00390461 0.00384772 0.00378776 0.00372474 0.00365866 0.00358952 0.00351732 0.00344205 0.00336372 0.00328282 0.00319983 0.00311477 0.00302763 0.0029384 0.0028471 0.00275371 0.00265824 0.00256136 0.00246374 0.00236537 0.00226625 0.00216639 0.00206578 0.00196443 0.00186233 0.0017603 0.00165915 0.00155888 0.0014595 0.00136099 0.00126337 0.00116663 0.00107077 0.000975936 0.000882258 0.00078974 0.000698383 0.000608185 0.000519147 0.000431269 0.000344551 0.000263797 0.00019381 0.00013459 8.61378e-05 4.84525e-05 2.15345e-05 5.38362e-06 0 0 5.71123e-06 2.28449e-05 5.14011e-05 9.13797e-05 0.000142781 0.000205604 0.00027985 0.000365519 0.000457618 0.000551158 0.000646138 0.000742557 0.000840417 0.000939716 0.00104046 0.00114263 0.00124618 0.00135102 0.00145715 0.00156457 0.00167329 0.0017833 0.0018946 0.00200719 0.00212025 0.00223297 0.00234535 0.00245737 0.00256905 0.00268038 0.00279137 0.00290201 0.00301158 0.00311936 0.00322536 0.00332956 0.00343197 0.0035326 0.00363143 0.00372848 0.00382314 0.00391483 0.00400354 0.00408927 0.00417203 0.00425182 0.00432862 0.00440246 0.00447287 0.00453941 0.00460209 0.0046609 0.00471585 0.00476693 0.00481414 0.00485749 0.0048967 0.0049315 0.00496188 0.00498785 0.00500941 0.00502656 0.0050393 0.00504763 0.00505146 0.00505073 0.00504543 0.00503557 0.00502114 0.00500215 0.00497859 0.00495046 0.0049179 0.00488105 0.00483991 0.00479447 0.00474473 0.0046907 0.00463238 0.00456976 0.00450321 0.00443307 0.00435935 0.00428205 0.00420117 0.00411671 0.00402866 0.00393704 0.0038424 0.00374533 0.00364583 0.00354389 0.00343952 0.00333271 0.00322347 0.00311179 0.00299846 0.00288426 0.00276918 0.00265323 0.0025364 0.0024187 0.00230012 0.00218067 0.00206129 0.00194294 0.00182562 0.00170932 0.00159404 0.0014798 0.00136657 0.00125438 0.00114336 0.00103369 0.000925361 0.000818371 0.000712722 0.000608414 0.000505447 0.000403821 0.000309176 0.000227149 0.000157743 0.000100955 5.67874e-05 2.52388e-05 6.30971e-06 0 0 6.56343e-06 2.62537e-05 5.90708e-05 0.000105015 0.000164086 0.000236283 0.000321608 0.000420059 0.00052589 0.000633351 0.000742444 0.000853168 0.000965523 0.00107951 0.00119513 0.00131238 0.00143118 0.00155145 0.0016732 0.00179642 0.00192112 0.00204729 0.00217494 0.00230406 0.00243371 0.00256297 0.00269182 0.00282027 0.00294832 0.00307597 0.00320322 0.00333006 0.00345568 0.00357924 0.00370075 0.00382021 0.00393761 0.00405297 0.00416626 0.00427751 0.00438602 0.00449112 0.00459281 0.00469109 0.00478595 0.00487741 0.00496545 0.00505007 0.00513078 0.00520705 0.00527889 0.0053463 0.00540928 0.00546782 0.00552194 0.00557162 0.00561655 0.00565643 0.00569125 0.00572101 0.00574572 0.00576536 0.00577995 0.00578948 0.00579387 0.00579302 0.00578694 0.00577562 0.00575907 0.00573729 0.00571027 0.00567802 0.00564069 0.00559843 0.00555126 0.00549916 0.00544214 0.0053802 0.00531334 0.00524156 0.00516526 0.00508485 0.00500034 0.00491173 0.00481901 0.00472218 0.00462125 0.00451622 0.00440773 0.00429646 0.00418239 0.00406553 0.00394588 0.00382345 0.00369821 0.00357019 0.00344027 0.00330935 0.00317742 0.00304448 0.00291054 0.00277559 0.00263963 0.00250267 0.0023658 0.00223008 0.00209554 0.00196217 0.00182996 0.00169892 0.00156905 0.00144035 0.00131299 0.00118715 0.00106283 0.000940016 0.000818723 0.000698946 0.000580686 0.000463942 0.000355206 0.000260968 0.000181227 0.000115986 6.52419e-05 2.89964e-05 7.2491e-06 0 0 7.42833e-06 2.97133e-05 6.6855e-05 0.000118853 0.000185708 0.00026742 0.000363988 0.000475413 0.000595175 0.000716754 0.000840151 0.000965365 0.0010924 0.00122124 0.00135191 0.00148439 0.00161861 0.00175449 0.00189201 0.0020312 0.00217203 0.00231453 0.00245867 0.00260447 0.00275087 0.00289681 0.0030423 0.00318732 0.00333188 0.00347599 0.00361964 0.00376283 0.00390463 0.00404411 0.00418127 0.00431611 0.00444863 0.00457884 0.00470672 0.00483228 0.00495476 0.00507338 0.00518816 0.00529908 0.00540614 0.00550936 0.00560872 0.00570424 0.00579532 0.0058814 0.00596248 0.00603855 0.00610962 0.00617569 0.00623675 0.00629281 0.00634352 0.00638852 0.0064278 0.00646138 0.00648925 0.00651141 0.00652787 0.00653861 0.00654355 0.00654258 0.0065357 0.00652291 0.00650422 0.00647962 0.00644911 0.00641269 0.00637055 0.00632285 0.00626959 0.00621078 0.00614641 0.00607649 0.00600102 0.00591998 0.00583386 0.0057431 0.00564771 0.00554769 0.00544303 0.00533374 0.00521981 0.00510126 0.00497881 0.00485321 0.00472446 0.00459256 0.00445751 0.0043193 0.00417795 0.00403345 0.0038868 0.00373901 0.00359008 0.00344001 0.00328881 0.00313646 0.00298298 0.00282835 0.00267381 0.00252058 0.00236866 0.00221805 0.00206875 0.00192076 0.00177408 0.0016287 0.00148483 0.00134264 0.00120214 0.00106332 0.000926189 0.000790744 0.000656987 0.000524915 0.000401888 0.000295265 0.000205045 0.000131229 7.38161e-05 3.28072e-05 8.20179e-06 0 0 8.30594e-06 3.32238e-05 7.47535e-05 0.000132895 0.000207649 0.000299014 0.000406991 0.00053158 0.000665474 0.000801367 0.000939258 0.00107915 0.00122103 0.00136492 0.00151081 0.00165869 0.00180849 0.00196012 0.00211359 0.00226889 0.00242602 0.00258499 0.0027458 0.00290843 0.00307173 0.00323451 0.00339677 0.00355851 0.00371974 0.00388045 0.00404064 0.00420031 0.00435843 0.00451397 0.00466691 0.00481726 0.00496503 0.0051102 0.00525279 0.00539279 0.00552935 0.00566161 0.00578957 0.00591324 0.00603261 0.00614768 0.00625846 0.00636494 0.00646648 0.00656245 0.00665283 0.00673764 0.00681687 0.00689052 0.00695859 0.00702108 0.0070776 0.00712775 0.00717154 0.00720897 0.00724002 0.00726472 0.00728304 0.00729501 0.0073005 0.0072994 0.00729171 0.00727744 0.00725658 0.00722914 0.00719511 0.00715449 0.00710749 0.00705429 0.0069949 0.00692931 0.00685754 0.00677957 0.00669541 0.00660505 0.00650902 0.00640782 0.00630146 0.00618993 0.00607323 0.00595137 0.00582435 0.00569216 0.00555563 0.00541559 0.00527203 0.00512496 0.00497438 0.00482028 0.00466267 0.00450155 0.00433803 0.00417323 0.00400717 0.00383982 0.0036712 0.00350131 0.00333014 0.0031577 0.00298534 0.00281443 0.00264497 0.00247697 0.00231041 0.0021453 0.00198164 0.00181942 0.00165886 0.00150015 0.00134329 0.00118828 0.00103512 0.000883808 0.000734348 0.000586739 0.000449222 0.00033004 0.000229195 0.000146685 8.25101e-05 3.66712e-05 9.16779e-06 0 0 9.19626e-06 3.6785e-05 8.27663e-05 0.00014714 0.000229906 0.000331065 0.000450617 0.000588561 0.000736788 0.000887189 0.00103977 0.00119452 0.00135144 0.00151054 0.00167181 0.00183526 0.0020008 0.00216835 0.00233792 0.0025095 0.00268309 0.00285869 0.00303631 0.00321594 0.00339628 0.00357605 0.00375524 0.00393385 0.00411188 0.00428934 0.00446622 0.00464251 0.00481709 0.00498881 0.00515767 0.00532366 0.0054868 0.00564707 0.00580449 0.00595904 0.00610979 0.00625579 0.00639705 0.00653357 0.00666534 0.00679237 0.00691465 0.00703219 0.00714428 0.0072502 0.00734997 0.00744358 0.00753103 0.00761232 0.00768745 0.00775642 0.00781879 0.00787414 0.00792246 0.00796376 0.00799803 0.00802527 0.00804549 0.00805867 0.00806471 0.00806348 0.00805498 0.00803921 0.00801616 0.00798585 0.00794827 0.00790341 0.00785151 0.00779276 0.00772719 0.00765477 0.00757552 0.00748944 0.00739652 0.00729676 0.00719073 0.00707901 0.00696158 0.00683845 0.00670962 0.00657509 0.00643486 0.00628892 0.0061382 0.0059836 0.00582511 0.00566275 0.00549651 0.00532638 0.00515238 0.0049745 0.00479397 0.00461203 0.00442868 0.00424391 0.00405773 0.00387014 0.00368113 0.00349071 0.00330038 0.00311164 0.00292448 0.00273891 0.00255493 0.00237254 0.00219173 0.00201252 0.0018351 0.00165969 0.00148629 0.0013149 0.00114551 0.000978138 0.000812771 0.000649414 0.000497207 0.000365295 0.000253677 0.000162353 9.13238e-05 4.05884e-05 1.01471e-05 0 0 1.00993e-05 4.03971e-05 9.08936e-05 0.000161589 0.000252482 0.000363574 0.000494865 0.000646354 0.000809115 0.000974222 0.00114167 0.00131147 0.00148361 0.0016581 0.00183493 0.00201411 0.00219556 0.00237919 0.00256502 0.00275303 0.00294324 0.00313563 0.00333021 0.00352699 0.00372454 0.00392144 0.00411771 0.00431334 0.00450832 0.00470267 0.00489637 0.00508943 0.00528061 0.00546865 0.00565355 0.00583532 0.00601395 0.00618944 0.0063618 0.00653102 0.00669608 0.00685594 0.0070106 0.00716007 0.00730434 0.00744342 0.0075773 0.00770598 0.00782869 0.00794466 0.00805388 0.00815636 0.00825209 0.00834108 0.00842332 0.00849882 0.0085671 0.00862768 0.00868057 0.00872577 0.00876327 0.00879308 0.00881519 0.00882961 0.0088362 0.00883483 0.0088255 0.00880821 0.00878296 0.00874976 0.00870859 0.00865946 0.0086026 0.00853827 0.00846645 0.00838715 0.00830036 0.00820609 0.00810434 0.00799511 0.00787901 0.00775667 0.00762808 0.00749326 0.00735219 0.00720489 0.00705134 0.00689155 0.00672651 0.00655723 0.0063837 0.00620592 0.00602389 0.00583761 0.00564708 0.0054523 0.00525463 0.0050554 0.00485461 0.00465228 0.00444839 0.00424294 0.00403595 0.0038274 0.00361893 0.00341219 0.00320718 0.00300389 0.00280233 0.00260249 0.00240437 0.00220799 0.00201354 0.00182126 0.00163113 0.00144317 0.00125737 0.00107373 0.000892256 0.00071294 0.000545845 0.000401029 0.000278492 0.000178235 0.000100257 4.45588e-05 1.11397e-05 0 0 1.10141e-05 4.40564e-05 9.9127e-05 0.000176226 0.000275353 0.000396508 0.000539691 0.000704903 0.000882385 0.00106238 0.00124489 0.00142991 0.00161744 0.00180749 0.00200005 0.00219513 0.00239264 0.00259252 0.00279477 0.00299938 0.00320636 0.00341571 0.00362742 0.0038415 0.00405641 0.00427061 0.00448411 0.00469691 0.004909 0.00512038 0.00533105 0.00554103 0.00574894 0.00595344 0.00615452 0.00635219 0.00654645 0.00673729 0.00692472 0.00710873 0.00728821 0.00746204 0.00763022 0.00779274 0.00794962 0.00810084 0.0082464 0.00838632 0.00851974 0.00864583 0.00876458 0.008876 0.00898008 0.00907683 0.00916624 0.00924831 0.00932254 0.00938839 0.00944588 0.00949501 0.00953576 0.00956815 0.00959218 0.00960783 0.00961498 0.00961347 0.0096033 0.00958448 0.009557 0.00952087 0.00947608 0.00942264 0.0093608 0.00929082 0.00921271 0.00912646 0.00903208 0.00892955 0.00881889 0.0087001 0.00857384 0.0084408 0.00830097 0.00815435 0.00800095 0.00784076 0.00767379 0.00750003 0.00732056 0.00713648 0.00694777 0.00675444 0.00655649 0.00635392 0.00614673 0.00593492 0.00571995 0.00550328 0.00528492 0.00506486 0.0048431 0.00461965 0.00439451 0.00416766 0.00394091 0.00371601 0.00349297 0.0032718 0.00305248 0.00283503 0.00261944 0.00240571 0.00219406 0.00198473 0.00177771 0.001573 0.0013706 0.00117051 0.000972725 0.000777256 0.000595086 0.000437206 0.000303616 0.000194314 0.000109302 4.85785e-05 1.21446e-05 0 0 1.19398e-05 4.77593e-05 0.000107458 0.000191037 0.000298496 0.000429834 0.000585052 0.000764149 0.000956526 0.00115158 0.00134932 0.00154974 0.00175283 0.00195861 0.00216706 0.0023782 0.00259195 0.00280824 0.00302707 0.00324845 0.00347237 0.00369883 0.00392784 0.00415939 0.00439183 0.00462349 0.00485438 0.0050845 0.00531384 0.00554242 0.00577022 0.00599725 0.00622204 0.00644314 0.00666055 0.00687426 0.00708427 0.00729059 0.00749322 0.00769215 0.00788617 0.00807409 0.00825589 0.00843158 0.00860116 0.00876462 0.00892197 0.00907321 0.00921743 0.00935372 0.00948208 0.0096025 0.009715 0.00981957 0.0099162 0.0100049 0.0100851 0.0101563 0.0102184 0.0102715 0.0103155 0.0103505 0.0103765 0.0103934 0.0104011 0.0103994 0.0103884 0.010368 0.0103383 0.0102992 0.0102508 0.010193 0.0101261 0.0100504 0.00996598 0.00987273 0.00977067 0.00965983 0.00954019 0.00941175 0.00927525 0.00913141 0.00898024 0.00882173 0.00865589 0.00848271 0.0083022 0.00811435 0.00792033 0.00772132 0.00751731 0.0073083 0.0070943 0.0068753 0.0066513 0.0064223 0.00618988 0.00595563 0.00571953 0.00548159 0.00524181 0.00500019 0.00475673 0.00451143 0.00426621 0.00402298 0.00378175 0.00354252 0.00330529 0.00307005 0.00283681 0.00260557 0.00237656 0.00215 0.0019259 0.00170427 0.00148509 0.00126836 0.0010541 0.000842298 0.000644885 0.000473793 0.000329023 0.000210575 0.000118448 5.26437e-05 1.31609e-05 0 0 1.28764e-05 5.15058e-05 0.000115888 0.000206023 0.000321911 0.000463552 0.000630945 0.000824092 0.00103154 0.00124183 0.00145497 0.00167095 0.00188978 0.00211145 0.00233597 0.00256333 0.00279348 0.00302634 0.00326193 0.00350024 0.00374126 0.00398501 0.00423147 0.00448066 0.00473078 0.00498007 0.00522851 0.00547611 0.00572287 0.00596879 0.00621386 0.0064581 0.00669992 0.00693777 0.00717164 0.00740152 0.00762743 0.00784936 0.00806731 0.00828128 0.00848997 0.00869208 0.00888762 0.00907658 0.00925896 0.00943477 0.009604 0.00976666 0.00992176 0.0100683 0.0102064 0.0103359 0.0104569 0.0105693 0.0106732 0.0107686 0.0108548 0.0109314 0.0109982 0.0110552 0.0111026 0.0111402 0.0111681 0.0111862 0.0111945 0.0111927 0.0111808 0.0111588 0.0111268 0.0110848 0.0110327 0.0109705 0.0108985 0.0108171 0.0107263 0.0106259 0.0105162 0.0103969 0.0102682 0.0101301 0.00998323 0.00982851 0.0096659 0.0094954 0.00931702 0.00913074 0.00893657 0.00873452 0.00852583 0.00831176 0.00809232 0.0078675 0.0076373 0.00740173 0.00716078 0.00691445 0.00666444 0.00641244 0.00615846 0.00590248 0.00564452 0.00538457 0.00512263 0.0048587 0.00459484 0.00433312 0.00407353 0.00381607 0.00356075 0.00330756 0.0030565 0.00280757 0.00256102 0.00231707 0.00207572 0.00183698 0.00160084 0.00136731 0.00113639 0.000908068 0.00069524 0.000510788 0.000354714 0.000227017 0.000127697 5.67543e-05 1.41886e-05 0 0 1.38239e-05 5.52958e-05 0.000124415 0.000221183 0.000345599 0.000497662 0.000677373 0.000884732 0.00110742 0.00133312 0.00156183 0.00179354 0.00202827 0.00226601 0.00250676 0.00275052 0.00299723 0.00324684 0.00349934 0.00375474 0.00401304 0.00427423 0.00453832 0.00480531 0.00507328 0.00534035 0.0056065 0.00587174 0.00613607 0.00639949 0.00666199 0.00692358 0.00718258 0.00743732 0.00768778 0.00793398 0.00817592 0.00841358 0.00864698 0.00887611 0.00909959 0.00931602 0.00952541 0.00972775 0.00992304 0.0101113 0.0102925 0.0104667 0.0106327 0.0107897 0.0109375 0.0110761 0.0112056 0.011326 0.0114373 0.0115394 0.0116317 0.0117136 0.0117851 0.0118462 0.0118969 0.0119371 0.0119669 0.0119864 0.0119952 0.0119932 0.0119805 0.0119569 0.0119227 0.0118776 0.0118217 0.0117551 0.0116781 0.0115909 0.0114936 0.0113861 0.0112685 0.0111408 0.011003 0.010855 0.0106978 0.0105321 0.0103579 0.0101754 0.00998432 0.00978484 0.00957691 0.00936053 0.00913704 0.0089078 0.0086728 0.00843203 0.00818551 0.00793322 0.00767518 0.00741137 0.00714362 0.00687372 0.00660169 0.00632752 0.00605122 0.00577277 0.00549219 0.00520947 0.00492681 0.00464642 0.0043683 0.00409244 0.00381886 0.00354754 0.00327849 0.00301171 0.00274744 0.00248592 0.00222715 0.00197113 0.00171787 0.00146735 0.00121958 0.000974565 0.000746151 0.000548193 0.000380689 0.000243641 0.000137048 6.09103e-05 1.52276e-05 0 0 1.47823e-05 5.91294e-05 0.000133041 0.000236517 0.000369558 0.000532164 0.000724335 0.00094607 0.00118417 0.00142545 0.0016699 0.00191753 0.00216833 0.0024223 0.00267944 0.00293976 0.0032032 0.00346972 0.00373931 0.00401197 0.0042877 0.0045665 0.00484838 0.00513333 0.00541933 0.00570433 0.00598836 0.0062714 0.00655345 0.00683451 0.00711459 0.00739369 0.00767001 0.00794178 0.00820899 0.00847164 0.00872973 0.00898326 0.00923224 0.00947666 0.00971504 0.0099459 0.0101692 0.0103851 0.0105934 0.0107942 0.0109875 0.0111732 0.0113503 0.0115177 0.0116753 0.0118232 0.0119614 0.0120897 0.0122084 0.0123173 0.0124157 0.0125031 0.0125793 0.0126444 0.0126985 0.0127414 0.0127731 0.0127938 0.0128032 0.0128011 0.0127874 0.0127623 0.0127257 0.0126776 0.012618 0.0125469 0.0124647 0.0123717 0.0122679 0.0121532 0.0120278 0.0