<?xml version="1.0"?> 
<VTKFile type="StructuredGrid" version="0.1"> 
<StructuredGrid WholeExtent="0 128 0 128 0 0"> 
<Piece Extent="0 128 0 128 0 0"> 
<PointData>
<DataArray type="Float32" Name="u" format="ascii" NumberOfComponents="1"> 
0 0 0 0 0 0 0 0 0 0 0 0 0 0 0 0 0 0 0 0 0 0 0 0 0 0 0 0 0 0 0 0 0 0 0 0 0 0 0 0 0 0 0 0 0 0 0 0 0 0 0 0 0 0 0 0 0 0 0 0 0 0 0 0 0 0 0 0 0 0 0 0 0 0 0 0 0 0 0 0 0 0 0 0 0 0 0 0 0 0 0 0 0 0 0 0 0 0 0 0 0 0 0 0 0 0 0 0 0 0 0 0 0 0 0 0 0 0 0 0 0 0 0 0 0 0 0 0 0 0 -2.1688e-09 -8.67518e-09 -1.95192e-08 -3.47007e-08 -5.42199e-08 -7.80766e-08 -1.06271e-07 -1.38803e-07 -1.68088e-07 -1.86543e-07 -1.94167e-07 -1.9096e-07 -1.76922e-07 -1.52054e-07 -1.16355e-07 -6.98249e-08 -1.04194e-08 6.39066e-08 1.53153e-07 2.5732e-07 3.76408e-07 5.10416e-07 6.59344e-07 8.23193e-07 1.00056e-06 1.19004e-06 1.39163e-06 1.60533e-06 1.83114e-06 2.06907e-06 2.31911e-06 2.58126e-06 2.84932e-06 3.11709e-06 3.38456e-06 3.65173e-06 3.91861e-06 4.18519e-06 4.45148e-06 4.71747e-06 4.97651e-06 5.22195e-06 5.45378e-06 5.67201e-06 5.87663e-06 6.06764e-06 6.24505e-06 6.40886e-06 6.55762e-06 6.68991e-06 6.80573e-06 6.90507e-06 6.98794e-06 7.05433e-06 7.10424e-06 7.13768e-06 7.15937e-06 7.17402e-06 7.18163e-06 7.18221e-06 7.17576e-06 7.16227e-06 7.14174e-06 7.11418e-06 7.08501e-06 7.05964e-06 7.03807e-06 7.02031e-06 7.00635e-06 6.9962e-06 6.98985e-06 6.9873e-06 6.98857e-06 6.99367e-06 7.00259e-06 7.01534e-06 7.03192e-06 7.05232e-06 7.07655e-06 7.1046e-06 7.13118e-06 7.15096e-06 7.16396e-06 7.17017e-06 7.16959e-06 7.16223e-06 7.14807e-06 7.12713e-06 7.09492e-06 7.04695e-06 6.98324e-06 6.90376e-06 6.80854e-06 6.69756e-06 6.57083e-06 6.42834e-06 6.27162e-06 6.10219e-06 5.92005e-06 5.72519e-06 5.51761e-06 5.29733e-06 5.06433e-06 4.81861e-06 4.56635e-06 4.31369e-06 4.06065e-06 3.80723e-06 3.55341e-06 3.29921e-06 3.04462e-06 2.78964e-06 2.5366e-06 2.28781e-06 2.04328e-06 1.80301e-06 1.56699e-06 1.33523e-06 1.10773e-06 8.84478e-07 6.77178e-07 4.97519e-07 3.45499e-07 2.21119e-07 1.2438e-07 5.52799e-08 1.382e-08 0 0 -8.67518e-09 -3.47007e-08 -7.80766e-08 -1.38803e-07 -2.1688e-07 -3.12307e-07 -4.25084e-07 -5.55212e-07 -6.72353e-07 -7.46171e-07 -7.76667e-07 -7.63839e-07 -7.07689e-07 -6.08215e-07 -4.65419e-07 -2.793e-07 -4.16777e-08 2.55626e-07 6.12612e-07 1.02928e-06 1.50563e-06 2.04166e-06 2.63738e-06 3.29277e-06 4.00224e-06 4.76015e-06 5.56651e-06 6.42132e-06 7.32458e-06 8.27629e-06 9.27645e-06 1.03251e-05 1.13973e-05 1.24684e-05 1.35382e-05 1.46069e-05 1.56744e-05 1.67408e-05 1.78059e-05 1.88699e-05 1.99061e-05 2.08878e-05 2.18151e-05 2.2688e-05 2.35065e-05 2.42706e-05 2.49802e-05 2.56354e-05 2.62305e-05 2.67597e-05 2.72229e-05 2.76203e-05 2.79517e-05 2.82173e-05 2.8417e-05 2.85507e-05 2.86375e-05 2.86961e-05 2.87265e-05 2.87289e-05 2.8703e-05 2.86491e-05 2.8567e-05 2.84567e-05 2.834e-05 2.82385e-05 2.81523e-05 2.80812e-05 2.80254e-05 2.79848e-05 2.79594e-05 2.79492e-05 2.79543e-05 2.79747e-05 2.80104e-05 2.80614e-05 2.81277e-05 2.82093e-05 2.83062e-05 2.84184e-05 2.85247e-05 2.86038e-05 2.86558e-05 2.86807e-05 2.86784e-05 2.86489e-05 2.85923e-05 2.85085e-05 2.83797e-05 2.81878e-05 2.79329e-05 2.76151e-05 2.72342e-05 2.67902e-05 2.62833e-05 2.57134e-05 2.50865e-05 2.44088e-05 2.36802e-05 2.29007e-05 2.20705e-05 2.11893e-05 2.02573e-05 1.92744e-05 1.82654e-05 1.72548e-05 1.62426e-05 1.52289e-05 1.42136e-05 1.31968e-05 1.21785e-05 1.11586e-05 1.01464e-05 9.15125e-06 8.17313e-06 7.21203e-06 6.26796e-06 5.34092e-06 4.4309e-06 3.53791e-06 2.70871e-06 1.99008e-06 1.382e-06 8.84478e-07 4.97519e-07 2.21119e-07 5.52799e-08 0 0 -1.95192e-08 -7.80766e-08 -1.75672e-07 -3.12307e-07 -4.87979e-07 -7.0269e-07 -9.56439e-07 -1.24923e-06 -1.51279e-06 -1.67889e-06 -1.7475e-06 -1.71864e-06 -1.5923e-06 -1.36848e-06 -1.04719e-06 -6.28424e-07 -9.37748e-08 5.75159e-07 1.37838e-06 2.31588e-06 3.38767e-06 4.59374e-06 5.9341e-06 7.40874e-06 9.00503e-06 1.07103e-05 1.25246e-05 1.4448e-05 1.64803e-05 1.86216e-05 2.0872e-05 2.32314e-05 2.56439e-05 2.80538e-05 3.0461e-05 3.28656e-05 3.52675e-05 3.76667e-05 4.00633e-05 4.24573e-05 4.47886e-05 4.69976e-05 4.9084e-05 5.10481e-05 5.28897e-05 5.46088e-05 5.62055e-05 5.76797e-05 5.90186e-05 6.02092e-05 6.12516e-05 6.21456e-05 6.28914e-05 6.34889e-05 6.39382e-05 6.42391e-05 6.44343e-05 6.45662e-05 6.46347e-05 6.46399e-05 6.45818e-05 6.44604e-05 6.42757e-05 6.40277e-05 6.37651e-05 6.35367e-05 6.33426e-05 6.31828e-05 6.30572e-05 6.29658e-05 6.29086e-05 6.28857e-05 6.28972e-05 6.2943e-05 6.30233e-05 6.31381e-05 6.32873e-05 6.34709e-05 6.36889e-05 6.39414e-05 6.41806e-05 6.43586e-05 6.44756e-05 6.45315e-05 6.45263e-05 6.446e-05 6.43326e-05 6.41442e-05 6.38543e-05 6.34226e-05 6.28491e-05 6.21339e-05 6.12768e-05 6.0278e-05 5.91375e-05 5.78551e-05 5.64446e-05 5.49197e-05 5.32804e-05 5.15267e-05 4.96585e-05 4.76759e-05 4.55789e-05 4.33675e-05 4.10971e-05 3.88232e-05 3.65459e-05 3.4265e-05 3.19807e-05 2.96929e-05 2.74016e-05 2.51068e-05 2.28294e-05 2.05903e-05 1.83895e-05 1.62271e-05 1.41029e-05 1.20171e-05 9.96953e-06 7.9603e-06 6.0946e-06 4.47767e-06 3.10949e-06 1.99008e-06 1.11942e-06 4.97519e-07 1.2438e-07 0 0 -3.47007e-08 -1.38803e-07 -3.12307e-07 -5.55212e-07 -8.67518e-07 -1.24923e-06 -1.70034e-06 -2.22085e-06 -2.68941e-06 -2.98469e-06 -3.10667e-06 -3.05536e-06 -2.83076e-06 -2.43286e-06 -1.86168e-06 -1.1172e-06 -1.66711e-07 1.02251e-06 2.45045e-06 4.11712e-06 6.02252e-06 8.16665e-06 1.05495e-05 1.31711e-05 1.60089e-05 1.90406e-05 2.2266e-05 2.56853e-05 2.92983e-05 3.31051e-05 3.71058e-05 4.13002e-05 4.55892e-05 4.98734e-05 5.41529e-05 5.84277e-05 6.26978e-05 6.69631e-05 7.12237e-05 7.54796e-05 7.96242e-05 8.35512e-05 8.72605e-05 9.07521e-05 9.40261e-05 9.70823e-05 9.99209e-05 0.000102542 0.000104922 0.000107039 0.000108892 0.000110481 0.000111807 0.000112869 0.000113668 0.000114203 0.00011455 0.000114784 0.000114906 0.000114915 0.000114812 0.000114596 0.000114268 0.000113827 0.00011336 0.000112954 0.000112609 0.000112325 0.000112102 0.000111939 0.000111838 0.000111797 0.000111817 0.000111899 0.000112041 0.000112245 0.000112511 0.000112837 0.000113225 0.000113674 0.000114099 0.000114415 0.000114623 0.000114723 0.000114713 0.000114596 0.000114369 0.000114034 0.000113519 0.000112751 0.000111732 0.00011046 0.000108937 0.000107161 0.000105133 0.000102853 0.000100346 9.76351e-05 9.47207e-05 9.1603e-05 8.82818e-05 8.47572e-05 8.10292e-05 7.70978e-05 7.30615e-05 6.90191e-05 6.49705e-05 6.09156e-05 5.68546e-05 5.27874e-05 4.87139e-05 4.46343e-05 4.05856e-05 3.6605e-05 3.26925e-05 2.88481e-05 2.50718e-05 2.13637e-05 1.77236e-05 1.41516e-05 1.08349e-05 7.9603e-06 5.52799e-06 3.53791e-06 1.99008e-06 8.84478e-07 2.21119e-07 0 0 -5.42199e-08 -2.1688e-07 -4.87979e-07 -8.67518e-07 -1.3555e-06 -1.95192e-06 -2.65677e-06 -3.47007e-06 -4.20221e-06 -4.66357e-06 -4.85417e-06 -4.774e-06 -4.42306e-06 -3.80135e-06 -2.90887e-06 -1.74562e-06 -2.60486e-07 1.59766e-06 3.82883e-06 6.433e-06 9.41019e-06 1.27604e-05 1.64836e-05 2.05798e-05 2.5014e-05 2.97509e-05 3.47907e-05 4.01332e-05 4.57786e-05 5.17268e-05 5.79778e-05 6.45316e-05 7.12331e-05 7.79272e-05 8.4614e-05 9.12933e-05 9.79653e-05 0.00010463 0.000111287 0.000117937 0.000124413 0.000130549 0.000136345 0.0001418 0.000146916 0.000151691 0.000156126 0.000160221 0.000163941 0.000167248 0.000170143 0.000172627 0.000174698 0.000176358 0.000177606 0.000178442 0.000178984 0.00017935 0.000179541 0.000179555 0.000179394 0.000179057 0.000178544 0.000177855 0.000177125 0.000176491 0.000175952 0.000175508 0.000175159 0.000174905 0.000174746 0.000174683 0.000174714 0.000174842 0.000175065 0.000175384 0.000175798 0.000176308 0.000176914 0.000177615 0.000178279 0.000178774 0.000179099 0.000179254 0.00017924 0.000179056 0.000178702 0.000178178 0.000177373 0.000176174 0.000174581 0.000172594 0.000170213 0.000167439 0.000164271 0.000160709 0.000156791 0.000152555 0.000148001 0.00014313 0.00013794 0.000132433 0.000126608 0.000120465 0.000114159 0.000107842 0.000101516 9.51807e-05 8.88353e-05 8.24802e-05 7.61155e-05 6.9741e-05 6.3415e-05 5.71953e-05 5.1082e-05 4.50752e-05 3.91748e-05 3.33807e-05 2.76931e-05 2.21119e-05 1.69295e-05 1.2438e-05 8.63748e-06 5.52799e-06 3.10949e-06 1.382e-06 3.45499e-07 0 0 -7.80766e-08 -3.12307e-07 -7.0269e-07 -1.24923e-06 -1.95192e-06 -2.81076e-06 -3.82575e-06 -4.9969e-06 -6.05118e-06 -6.71554e-06 -6.99e-06 -6.87455e-06 -6.3692e-06 -5.47394e-06 -4.18877e-06 -2.5137e-06 -3.75099e-07 2.30064e-06 5.51351e-06 9.26352e-06 1.35507e-05 1.8375e-05 2.37364e-05 2.9635e-05 3.60201e-05 4.28413e-05 5.00986e-05 5.77919e-05 6.59212e-05 7.44866e-05 8.3488e-05 9.29255e-05 0.000102576 0.000112215 0.000121844 0.000131462 0.00014107 0.000150667 0.000160253 0.000169829 0.000179155 0.00018799 0.000196336 0.000204192 0.000211559 0.000218435 0.000224822 0.000230719 0.000236074 0.000240837 0.000245006 0.000248583 0.000251566 0.000253956 0.000255753 0.000256957 0.000257737 0.000258265 0.000258539 0.00025856 0.000258327 0.000257842 0.000257103 0.000256111 0.00025506 0.000254147 0.000253371 0.000252731 0.000252229 0.000251863 0.000251635 0.000251543 0.000251589 0.000251772 0.000252093 0.000252552 0.000253149 0.000253884 0.000254756 0.000255766 0.000256722 0.000257435 0.000257903 0.000258126 0.000258105 0.00025784 0.000257331 0.000256577 0.000255417 0.00025369 0.000251396 0.000248536 0.000245107 0.000241112 0.00023655 0.00023142 0.000225778 0.000219679 0.000213122 0.000206107 0.000198634 0.000190704 0.000182316 0.00017347 0.000164388 0.000155293 0.000146184 0.00013706 0.000127923 0.000118772 0.000109606 0.000100427 9.13175e-05 8.23612e-05 7.35581e-05 6.49083e-05 5.64117e-05 4.80683e-05 3.98781e-05 3.18412e-05 2.43784e-05 1.79107e-05 1.2438e-05 7.9603e-06 4.47767e-06 1.99008e-06 4.97519e-07 0 0 -1.06271e-07 -4.25084e-07 -9.56439e-07 -1.70034e-06 -2.65677e-06 -3.82575e-06 -5.20728e-06 -6.80134e-06 -8.23632e-06 -9.1406e-06 -9.51417e-06 -9.35703e-06 -8.66919e-06 -7.45064e-06 -5.70138e-06 -3.42142e-06 -5.10552e-07 3.13142e-06 7.5045e-06 1.26087e-05 1.8444e-05 2.50104e-05 3.23079e-05 4.03365e-05 4.90274e-05 5.83118e-05 6.81897e-05 7.86611e-05 8.97261e-05 0.000101385 0.000113636 0.000126482 0.000139617 0.000152737 0.000165843 0.000178935 0.000192012 0.000205074 0.000218123 0.000231156 0.000243849 0.000255876 0.000267235 0.000277928 0.000287955 0.000297315 0.000306008 0.000314034 0.000321324 0.000327806 0.000333481 0.000338348 0.000342409 0.000345662 0.000348108 0.000349746 0.000350809 0.000351527 0.0003519 0.000351929 0.000351612 0.000350951 0.000349945 0.000348595 0.000347165 0.000345922 0.000344865 0.000343995 0.000343311 0.000342814 0.000342503 0.000342378 0.00034244 0.00034269 0.000343127 0.000343752 0.000344564 0.000345564 0.000346751 0.000348125 0.000349428 0.000350397 0.000351034 0.000351338 0.00035131 0.000350949 0.000350256 0.000349229 0.000347651 0.000345301 0.000342179 0.000338284 0.000333618 0.00032818 0.000321971 0.000314989 0.00030731 0.000299007 0.000290082 0.000280534 0.000270363 0.000259569 0.000248152 0.000236112 0.000223751 0.000211371 0.000198972 0.000186554 0.000174117 0.000161661 0.000149186 0.000136692 0.000124293 0.000112103 0.000100121 8.83474e-05 7.67825e-05 6.54263e-05 5.42786e-05 4.33394e-05 3.31817e-05 2.43784e-05 1.69295e-05 1.08349e-05 6.0946e-06 2.70871e-06 6.77178e-07 0 0 -1.38803e-07 -5.55212e-07 -1.24923e-06 -2.22085e-06 -3.47007e-06 -4.9969e-06 -6.80134e-06 -8.88339e-06 -1.07576e-05 -1.19387e-05 -1.24267e-05 -1.22214e-05 -1.1323e-05 -9.73145e-06 -7.4467e-06 -4.46879e-06 -6.66843e-07 4.09002e-06 9.8018e-06 1.64685e-05 2.40901e-05 3.26666e-05 4.2198e-05 5.26844e-05 6.40358e-05 7.61624e-05 8.90641e-05 0.000102741 0.000117193 0.000132421 0.000148423 0.000165201 0.000182357 0.000199494 0.000216612 0.000233711 0.000250791 0.000267852 0.000284895 0.000301918 0.000318497 0.000334205 0.000349042 0.000363009 0.000376104 0.000388329 0.000399683 0.000410167 0.000419688 0.000428155 0.000435567 0.000441924 0.000447228 0.000451477 0.000454671 0.000456812 0.0004582 0.000459137 0.000459625 0.000459662 0.000459249 0.000458385 0.000457072 0.000455308 0.000453441 0.000451817 0.000450437 0.0004493 0.000448406 0.000447757 0.00044735 0.000447187 0.000447269 0.000447595 0.000448166 0.000448982 0.000450043 0.000451348 0.000452899 0.000454695 0.000456395 0.000457661 0.000458493 0.000458891 0.000458854 0.000458382 0.000457477 0.000456136 0.000454075 0.000451005 0.000446927 0.000441841 0.000435746 0.000428644 0.000420533 0.000411414 0.000401384 0.00039054 0.000378883 0.000366412 0.000353127 0.000339029 0.000324117 0.000308391 0.000292246 0.000276076 0.000259882 0.000243663 0.000227418 0.000211149 0.000194856 0.000178537 0.000162342 0.00014642 0.00013077 0.000115392 0.000100287 8.54547e-05 7.08944e-05 5.66066e-05 4.33394e-05 3.18412e-05 2.21119e-05 1.41516e-05 7.9603e-06 3.53791e-06 8.84478e-07 0 0 -1.68489e-07 -6.73956e-07 -1.5164e-06 -2.69582e-06 -4.21222e-06 -6.0656e-06 -8.25596e-06 -1.07833e-05 -1.30469e-05 -1.44462e-05 -1.49811e-05 -1.46516e-05 -1.34577e-05 -1.13994e-05 -8.47681e-06 -4.68981e-06 1.19053e-07 6.10726e-06 1.32748e-05 2.16217e-05 3.11479e-05 4.18535e-05 5.37384e-05 6.68026e-05 8.09231e-05 9.59768e-05 0.000111964 0.000128884 0.000146737 0.000165524 0.000185243 0.000205896 0.00022698 0.000247992 0.000268933 0.000289802 0.000310599 0.000331325 0.000351979 0.000372562 0.000392547 0.00041141 0.000429149 0.000445766 0.000461259 0.00047563 0.000488878 0.000501002 0.000511908 0.0005215 0.000529777 0.000536739 0.000542387 0.00054672 0.000549739 0.000551443 0.000552232 0.000552505 0.000552262 0.000551504 0.000550229 0.000548438 0.000546132 0.000543309 0.000540418 0.000537905 0.000535771 0.000534016 0.000532639 0.000531641 0.000531022 0.000530782 0.00053092 0.00053144 0.00053234 0.00053362 0.000535281 0.000537323 0.000539745 0.000542547 0.000545292 0.000547541 0.000549293 0.00055055 0.000551311 0.000551576 0.000551345 0.000550618 0.000549014 0.000546154 0.000542036 0.00053666 0.000530028 0.000522138 0.000512991 0.000502587 0.000491028 0.000478415 0.000464748 0.000450027 0.000434252 0.000417424 0.000399542 0.000380606 0.000361103 0.000341517 0.000321848 0.000302098 0.000282265 0.000262349 0.000242352 0.000222272 0.000202301 0.00018263 0.000163258 0.000144186 0.000125414 0.000106941 8.87678e-05 7.08943e-05 5.42785e-05 3.98781e-05 2.76931e-05 1.77236e-05 9.96952e-06 4.4309e-06 1.10772e-06 0 0 -1.88145e-07 -7.52582e-07 -1.69331e-06 -3.01033e-06 -4.70364e-06 -6.77324e-06 -9.21913e-06 -1.20413e-05 -1.45359e-05 -1.59991e-05 -1.64309e-05 -1.58313e-05 -1.42002e-05 -1.15377e-05 -7.84379e-06 -3.11846e-06 2.81016e-06 1.0114e-05 1.87929e-05 2.8847e-05 4.02763e-05 5.30807e-05 6.72603e-05 8.28151e-05 9.95673e-05 0.000117339 0.000136131 0.000155942 0.000176772 0.000198623 0.000221493 0.000245383 0.000269672 0.000293742 0.000317591 0.00034122 0.000364628 0.000387817 0.000410786 0.000433534 0.00045545 0.000475922 0.00049495 0.000512533 0.000528673 0.000543368 0.000556618 0.000568425 0.000578726 0.000587458 0.000594624 0.000600221 0.00060425 0.000606712 0.000607606 0.000606932 0.000605231 0.000603041 0.000600364 0.000597198 0.000593545 0.000589404 0.000584775 0.000579659 0.000574629 0.000570262 0.000566557 0.000563515 0.000561135 0.000559418 0.000558363 0.00055797 0.000558241 0.000559177 0.000560778 0.000563044 0.000565975 0.000569571 0.000573832 0.000578758 0.000583784 0.000588347 0.000592447 0.000596083 0.000599256 0.000601966 0.000604212 0.000605994 0.000606795 0.000606096 0.000603897 0.000600198 0.000594999 0.0005883 0.0005801 0.000570401 0.000559268 0.000546768 0.0005329 0.000517666 0.000501064 0.000483095 0.00046376 0.000443056 0.000421549 0.000399799 0.000377806 0.000355571 0.000333094 0.000310375 0.000287413 0.000264209 0.000241007 0.000218049 0.000195337 0.00017287 0.000150648 0.000128672 0.000106941 8.54543e-05 6.5426e-05 4.80681e-05 3.33806e-05 2.13636e-05 1.2017e-05 5.3409e-06 1.33522e-06 0 0 -1.97773e-07 -7.9109e-07 -1.77995e-06 -3.16436e-06 -4.94432e-06 -7.11981e-06 -9.69086e-06 -1.26574e-05 -1.52247e-05 -1.65976e-05 -1.67762e-05 -1.57605e-05 -1.35505e-05 -1.01462e-05 -5.54763e-06 2.45259e-07 7.40649e-06 1.61101e-05 2.63561e-05 3.81445e-05 5.14752e-05 6.63484e-05 8.27639e-05 0.000100722 0.000119968 0.000140249 0.000161565 0.000183915 0.000207299 0.000231718 0.000257172 0.00028366 0.000310433 0.000336741 0.000362585 0.000387964 0.000412879 0.000437329 0.000461314 0.000484834 0.000507205 0.000527742 0.000546444 0.000563311 0.000578344 0.000591542 0.000602906 0.000612435 0.00062014 0.00062603 0.000630107 0.00063237 0.000632818 0.000631452 0.000628272 0.000623279 0.000617195 0.000610745 0.000603928 0.000596746 0.000589198 0.000581284 0.000573003 0.000564357 0.000556075 0.000548888 0.000542795 0.000537797 0.000533894 0.000531086 0.000529372 0.000528754 0.000529232 0.000530808 0.000533482 0.000537254 0.000542125 0.000548094 0.000555161 0.000563326 0.000571872 0.000580081 0.000587954 0.000595489 0.000602689 0.000609551 0.000616077 0.000622266 0.000627418 0.000630834 0.000632513 0.000632454 0.00063066 0.000627128 0.000621859 0.000614854 0.000606104 0.000595599 0.000583341 0.000569329 0.000553563 0.000536043 0.000516769 0.000495741 0.000473585 0.000450923 0.000427756 0.000404084 0.000379908 0.000355226 0.00033004 0.000304348 0.000278459 0.000252679 0.000227008 0.000201445 0.000175992 0.000150648 0.000125413 0.000100287 7.67819e-05 5.64112e-05 3.91744e-05 2.50716e-05 1.41028e-05 6.26791e-06 1.56698e-06 0 0 -1.9737e-07 -7.89481e-07 -1.77633e-06 -3.15793e-06 -4.93426e-06 -7.10533e-06 -9.67115e-06 -1.26317e-05 -1.51131e-05 -1.62415e-05 -1.60169e-05 -1.44393e-05 -1.15087e-05 -7.225e-06 -1.58834e-06 5.40134e-06 1.3908e-05 2.40957e-05 3.59644e-05 4.95141e-05 6.47448e-05 8.16565e-05 0.000100249 0.000120523 0.000142126 0.000164707 0.000188266 0.000212802 0.000238317 0.000264809 0.000292279 0.000320727 0.000349262 0.000376991 0.000403916 0.000430035 0.00045535 0.000479859 0.000503564 0.000526463 0.000547813 0.000566869 0.000583631 0.000598099 0.000610273 0.000620154 0.00062774 0.000633032 0.000636151 0.000637216 0.000636227 0.000633185 0.00062809 0.000620941 0.000611738 0.000600482 0.000588124 0.000575616 0.000562957 0.000550147 0.000537187 0.000524076 0.000510815 0.000497404 0.000484755 0.000473781 0.000464484 0.000456862 0.000450916 0.000446646 0.000444051 0.000443132 0.000443891 0.00044633 0.00045045 0.00045625 0.00046373 0.00047289 0.000483731 0.000496252 0.000509555 0.000522742 0.000535814 0.000548769 0.000561609 0.000574333 0.00058694 0.000599432 0.000610883 0.000620366 0.000627881 0.000633429 0.00063701 0.000638623 0.000638269 0.000635948 0.000631535 0.000624909 0.000616069 0.000605016 0.000591748 0.000576266 0.000558571 0.000538661 0.00051721 0.000494889 0.000471697 0.000447636 0.000422704 0.000396902 0.000370231 0.000342689 0.000314658 0.000286518 0.000258269 0.000229911 0.000201444 0.000172869 0.000144184 0.000115391 8.83463e-05 6.49075e-05 4.50746e-05 2.88478e-05 1.62269e-05 7.21194e-06 1.80299e-06 0 0 -1.86939e-07 -7.47754e-07 -1.68245e-06 -2.99102e-06 -4.67346e-06 -6.72979e-06 -9.15999e-06 -1.19641e-05 -1.42013e-05 -1.4931e-05 -1.41531e-05 -1.18676e-05 -8.07463e-06 -2.77405e-06 4.03409e-06 1.23498e-05 2.23148e-05 3.40708e-05 4.76178e-05 6.29558e-05 8.00849e-05 9.9005e-05 0.000119716 0.000142218 0.000166041 0.000190713 0.000216234 0.000242605 0.000269826 0.000297896 0.000326816 0.000356586 0.00038616 0.000414492 0.000441583 0.000467433 0.000492042 0.000515409 0.000537535 0.00055842 0.000577273 0.000593304 0.000606512 0.000616898 0.000624461 0.000629202 0.000631121 0.000630217 0.000626759 0.000621014 0.000612984 0.000602668 0.000590066 0.000575178 0.000558004 0.000538543 0.000518019 0.000497654 0.000477448 0.000457401 0.000437512 0.000417782 0.000398211 0.000378799 0.000360669 0.000344944 0.000331624 0.00032071 0.0003122 0.000306097 0.000302398 0.000301105 0.000302219 0.000305745 0.000311683 0.000320031 0.00033079 0.000343961 0.000359543 0.000377536 0.000396834 0.000416331 0.000436027 0.000455923 0.000476017 0.00049631 0.000516802 0.000537494 0.000557189 0.000574692 0.000590003 0.000603122 0.00061405 0.000622785 0.000629329 0.000633681 0.000635563 0.000634698 0.000631086 0.000624726 0.00061562 0.000603766 0.000589165 0.000571816 0.000552425 0.000531697 0.00050963 0.000486226 0.000461484 0.000435404 0.000407987 0.000379232 0.000349603 0.000319567 0.000289121 0.000258268 0.000227005 0.000195335 0.000163255 0.000130768 0.000100119 7.35569e-05 5.10812e-05 3.26919e-05 1.83892e-05 8.17298e-06 2.04325e-06 0 0 -1.66477e-07 -6.6591e-07 -1.4983e-06 -2.66364e-06 -4.16194e-06 -5.99319e-06 -8.15739e-06 -1.06546e-05 -1.24892e-05 -1.26659e-05 -1.11847e-05 -8.04554e-06 -3.24842e-06 3.20664e-06 1.13197e-05 2.10906e-05 3.26268e-05 4.60353e-05 6.13163e-05 7.84697e-05 9.74956e-05 0.000118394 0.000141165 0.000165808 0.000191712 0.000218266 0.00024547 0.000273323 0.000301826 0.00033098 0.000360782 0.000391235 0.000421126 0.000449243 0.000475587 0.000500158 0.000522955 0.000543978 0.000563228 0.000580705 0.000595585 0.000607046 0.000615086 0.000619706 0.000620907 0.000618687 0.000613048 0.000603988 0.000591963 0.000577426 0.000560378 0.000540818 0.000518746 0.000494163 0.000467068 0.000437462 0.00040688 0.000376861 0.000347403 0.000318507 0.000290173 0.000262401 0.000235191 0.000208543 0.000183817 0.000162375 0.000144216 0.00012934 0.000117748 0.000109439 0.000104414 0.000102672 0.000104217 0.000109053 0.00011718 0.000128598 0.000143306 0.000161306 0.000182597 0.000207178 0.000233709 0.000260848 0.000288594 0.000316949 0.000345913 0.000375484 0.000405663 0.00043645 0.000466336 0.000493812 0.000518878 0.000541534 0.000561779 0.000579614 0.000595039 0.000608054 0.000618187 0.000624966 0.00062839 0.000628461 0.000625178 0.000618541 0.000608551 0.000595206 0.00057923 0.000561347 0.000541555 0.000519855 0.000496247 0.000470732 0.000443308 0.000413976 0.000383296 0.000351825 0.000319565 0.000286515 0.000252675 0.000218045 0.000182626 0.000146417 0.0001121 8.23594e-05 5.7194e-05 3.66042e-05 2.05898e-05 9.15104e-06 2.28776e-06 0 0 -1.35987e-07 -5.43947e-07 -1.22388e-06 -2.17579e-06 -3.39967e-06 -4.89553e-06 -6.66336e-06 -8.70316e-06 -9.97686e-06 -9.44641e-06 -7.11179e-06 -2.973e-06 2.96995e-06 1.07171e-05 2.02683e-05 3.16238e-05 4.48439e-05 5.99893e-05 7.70599e-05 9.60558e-05 0.000116977 0.000139823 0.000164595 0.000191291 0.00021914 0.000247367 0.000275972 0.000304956 0.000334318 0.000364059 0.000394178 0.000424675 0.00045416 0.000481245 0.000505927 0.000528209 0.000548088 0.000565567 0.000580644 0.000593319 0.00060275 0.000608095 0.000609353 0.000606525 0.000599611 0.000588609 0.000573522 0.000554347 0.000531765 0.000506452 0.000478409 0.000447635 0.000414131 0.000377897 0.000338932 0.000297237 0.000254707 0.000213235 0.000172821 0.000133467 9.51707e-05 5.79334e-05 2.17548e-05 -1.33651e-05 -4.58007e-05 -7.39261e-05 -9.77414e-05 -0.000117247 -0.000132442 -0.000143327 -0.000149901 -0.000152166 -0.000150116 -0.000143747 -0.000133058 -0.00011805 -9.87219e-05 -7.50748e-05 -4.71083e-05 -1.48224e-05 2.01788e-05 5.62912e-05 9.35149e-05 0.00013185 0.000171296 0.000211853 0.000253522 0.000296301 0.000338326 0.000377727 0.000414507 0.000448664 0.000480198 0.00050911 0.0005354 0.000559067 0.000579406 0.000595712 0.000607983 0.00061622 0.000620424 0.000620593 0.000616729 0.000608831 0.000597625 0.000583839 0.000567471 0.000548523 0.000526994 0.000502885 0.000476194 0.000446923 0.000415735 0.000383294 0.0003496 0.000314653 0.000278453 0.000241001 0.000202296 0.000162338 0.00012429 9.1315e-05 6.34132e-05 4.05845e-05 2.28288e-05 1.01461e-05 2.53653e-06 0 0 -9.54668e-08 -3.81867e-07 -8.59201e-07 -1.52747e-06 -2.38667e-06 -3.43681e-06 -4.67787e-06 -6.10988e-06 -6.66424e-06 -5.27238e-06 -1.9343e-06 3.34999e-06 1.05805e-05 1.97572e-05 3.08802e-05 4.39493e-05 5.89663e-05 7.59328e-05 9.48486e-05 0.000115714 0.000138529 0.000163293 0.000190006 0.00021867 0.000248325 0.000278016 0.000307742 0.000337504 0.000367301 0.000397134 0.000427002 0.000456905 0.000485264 0.000510497 0.000532604 0.000551587 0.000567443 0.000580175 0.00058978 0.000596261 0.000598767 0.000596452 0.000589314 0.000577354 0.000560572 0.000538968 0.000512542 0.000481294 0.000446163 0.00040809 0.000367076 0.000323119 0.00027622 0.000226379 0.000173596 0.00011787 6.14988e-05 6.77633e-06 -4.62969e-05 -9.77209e-05 -0.000147496 -0.000195621 -0.000242097 -0.000286924 -0.000328184 -0.000363958 -0.000394247 -0.00041905 -0.000438368 -0.000452201 -0.000460548 -0.00046341 -0.00046078 -0.000452654 -0.000439031 -0.000419911 -0.000395295 -0.000365181 -0.000329572 -0.000288465 -0.000243755 -0.000197338 -0.000149211 -9.93765e-05 -4.78331e-05 5.41868e-06 6.0379e-05 0.000117048 0.000173157 0.000226437 0.000276889 0.000324512 0.000369307 0.000411273 0.000450411 0.00048672 0.000519222 0.000546936 0.000569863 0.000588003 0.000601356 0.000609921 0.000613699 0.00061269 0.000607609 0.000599172 0.000587379 0.00057223 0.000553725 0.000531863 0.000506645 0.000478071 0.00044692 0.000413972 0.000379226 0.000342682 0.000304341 0.000264202 0.000222265 0.000178531 0.000136688 0.000100424 6.97388e-05 4.46328e-05 2.5106e-05 1.11582e-05 2.78955e-06 0 0 -4.3527e-08 -1.74108e-07 -3.91743e-07 -6.96432e-07 -1.08818e-06 -1.56697e-06 -2.13282e-06 -2.78573e-06 -2.44532e-06 -3.1214e-08 4.45658e-06 1.10181e-05 1.96532e-05 3.03621e-05 4.31446e-05 5.80009e-05 7.48564e-05 9.36368e-05 0.000114342 0.000136972 0.000161527 0.000188007 0.000216412 0.000246742 0.000277835 0.00030853 0.000338828 0.000368727 0.000398229 0.000427333 0.000456039 0.000484347 0.000510488 0.000532692 0.00055096 0.000565291 0.000575685 0.000582143 0.000584664 0.000583248 0.000577074 0.00056532 0.000547985 0.000525069 0.000496573 0.000462496 0.000422839 0.000377602 0.000328026 0.000275353 0.000219582 0.000160715 9.87513e-05 3.36902e-05 -3.44677e-05 -0.000105723 -0.000177359 -0.000246663 -0.000313633 -0.00037827 -0.000440574 -0.000500544 -0.000558181 -0.000613485 -0.000664247 -0.000708257 -0.000745517 -0.000776025 -0.000799782 -0.000816788 -0.000827042 -0.000830546 -0.000827291 -0.000817272 -0.000800488 -0.00077694 -0.000746626 -0.000709548 -0.000665705 -0.000615098 -0.000559908 -0.000502318 -0.000442329 -0.000379941 -0.000315153 -0.000247965 -0.000178377 -0.00010639 -3.46926e-05 3.40262e-05 9.97662e-05 0.000162527 0.00022231 0.000279114 0.000332939 0.000383785 0.000430358 0.000471362 0.000506799 0.000536667 0.000560966 0.000579698 0.000592861 0.000600457 0.000603155 0.000601627 0.000595873 0.000585894 0.000571689 0.000553258 0.000530601 0.000503718 0.000473506 0.000440859 0.000405779 0.000368265 0.000328316 0.000285934 0.000241118 0.000193868 0.00014843 0.000109051 7.57297e-05 4.8467e-05 2.72627e-05 1.21167e-05 3.02919e-06 0 0 2.12229e-08 8.48917e-08 1.91006e-07 3.39567e-07 5.30573e-07 7.64025e-07 1.03992e-06 1.35827e-06 2.78591e-06 6.38972e-06 1.21697e-05 2.01258e-05 3.02581e-05 4.25666e-05 5.70512e-05 7.3712e-05 9.23766e-05 0.000112873 0.0001352 0.000159359 0.000185349 0.000213171 0.000242824 0.000274308 0.000306238 0.000337228 0.000367277 0.000396387 0.000424556 0.000451784 0.000478073 0.000503421 0.000525886 0.000543524 0.000556336 0.000564322 0.000567481 0.000565813 0.000559319 0.000547999 0.000531108 0.000507902 0.000478381 0.000442544 0.000400392 0.000351926 0.000297144 0.000236047 0.00017022 0.000101248 2.91312e-05 -4.61304e-05 -0.000124537 -0.000206088 -0.000290785 -0.000378626 -0.000466484 -0.000551232 -0.000632869 -0.000711396 -0.000786812 -0.000859118 -0.000928313 -0.000994398 -0.0010549 -0.00110736 -0.00115176 -0.00118812 -0.00121643 -0.00123669 -0.0012489 -0.00125306 -0.00124917 -0.00123721 -0.00121718 -0.00118909 -0.00115293 -0.00110871 -0.00105642 -0.000996069 -0.000930092 -0.000860931 -0.000788585 -0.000713055 -0.00063434 -0.000552442 -0.000467359 -0.000379091 -0.000290744 -0.000205419 -0.000123119 -4.38414e-05 3.24124e-05 0.000105643 0.000175849 0.000243033 0.000305539 0.000361713 0.000411556 0.000455068 0.000492248 0.000523098 0.000547615 0.000565802 0.000578232 0.00058548 0.000587548 0.000584433 0.000576137 0.00056266 0.000544002 0.000520161 0.000492145 0.000460956 0.000426596 0.000389064 0.00034836 0.000304485 0.000257438 0.000207219 0.000158652 0.000116561 8.09449e-05 5.18047e-05 2.91402e-05 1.29512e-05 3.2378e-06 0 0 9.8783e-08 3.95132e-07 8.89047e-07 1.58053e-06 2.46957e-06 3.55619e-06 4.84036e-06 6.32211e-06 9.02945e-06 1.39904e-05 2.12051e-05 3.06733e-05 4.23952e-05 5.63707e-05 7.25999e-05 9.10827e-05 0.000111527 0.00013364 0.000157422 0.000182873 0.000209994 0.000238783 0.000269241 0.000301368 0.000333534 0.000364108 0.000393091 0.000420481 0.00044628 0.000470487 0.000493103 0.000514127 0.000531457 0.000542992 0.000548733 0.000548679 0.00054283 0.000531186 0.000513747 0.000490513 0.000460869 0.000424199 0.000380502 0.00032978 0.000272031 0.000207256 0.000135455 5.66285e-05 -2.72544e-05 -0.000114223 -0.000204278 -0.000297418 -0.000393645 -0.000492957 -0.000595355 -0.000700839 -0.000805875 -0.00090693 -0.001004 -0.0010971 -0.00118621 -0.00127134 -0.00135249 -0.00142966 -0.00150015 -0.00156126 -0.00161299 -0.00165534 -0.00168832 -0.00171191 -0.00172612 -0.00173096 -0.00172641 -0.00171245 -0.0016891 -0.00165635 -0.00161421 -0.00156266 -0.00150172 -0.00143138 -0.00135431 -0.00127317 -0.00118798 -0.00109872 -0.0010054 -0.000908012 -0.000806566 -0.000701056 -0.000594997 -0.0004919 -0.000391766 -0.000294594 -0.000200386 -0.00010914 -2.0857e-05 6.44634e-05 0.000144764 0.000217988 0.000284136 0.000343207 0.000395202 0.00044012 0.000477961 0.000508726 0.000532841 0.000550733 0.000562402 0.000567848 0.000567071 0.00056007 0.000546847 0.000527401 0.000502837 0.000474263 0.000441677 0.00040508 0.000364473 0.000319854 0.000271225 0.000218584 0.000167354 0.000122954 8.53845e-05 5.46461e-05 3.07384e-05 1.36615e-05 3.41538e-06 0 0 1.89153e-07 7.56612e-07 1.70238e-06 3.02645e-06 4.72883e-06 6.80951e-06 9.2685e-06 1.21058e-05 1.62853e-05 2.27709e-05 3.15627e-05 4.26605e-05 5.60644e-05 7.17745e-05 8.97907e-05 0.000110113 0.000132307 0.000155939 0.000181009 0.000207516 0.000235461 0.000264844 0.000295664 0.000327923 0.000359724 0.000389172 0.000416268 0.000441012 0.000463404 0.00