<?xml version="1.0"?> 
<VTKFile type="StructuredGrid" version="0.1"> 
<StructuredGrid WholeExtent="0 128 0 128 0 0"> 
<Piece Extent="0 128 0 128 0 0"> 
<PointData>
<DataArray type="Float32" Name="u" format="ascii" NumberOfComponents="1"> 
0 0 0 0 0 0 0 0 0 0 0 0 0 0 0 0 0 0 0 0 0 0 0 0 0 0 0 0 0 0 0 0 0 0 0 0 0 0 0 0 0 0 0 0 0 0 0 0 0 0 0 0 0 0 0 0 0 0 0 0 0 0 0 0 0 0 0 0 0 0 0 0 0 0 0 0 0 0 0 0 0 0 0 0 0 0 0 0 0 0 0 0 0 0 0 0 0 0 0 0 0 0 0 0 0 0 0 0 0 0 0 0 0 0 0 0 0 0 0 0 0 0 0 0 0 0 0 0 0 0 5.05553e-08 2.02221e-07 4.54998e-07 8.08885e-07 1.26388e-06 1.81999e-06 2.47721e-06 3.23554e-06 4.05054e-06 4.87778e-06 5.71724e-06 6.56895e-06 7.43288e-06 8.30905e-06 9.19745e-06 1.00981e-05 1.101e-05 1.19322e-05 1.28648e-05 1.38077e-05 1.47609e-05 1.57245e-05 1.66984e-05 1.76826e-05 1.86697e-05 1.96523e-05 2.06304e-05 2.1604e-05 2.25731e-05 2.35377e-05 2.44977e-05 2.54533e-05 2.6398e-05 2.73255e-05 2.82359e-05 2.9129e-05 3.00049e-05 3.08636e-05 3.17051e-05 3.25295e-05 3.33316e-05 3.41065e-05 3.48541e-05 3.55746e-05 3.62678e-05 3.69338e-05 3.75726e-05 3.81842e-05 3.8765e-05 3.93114e-05 3.98236e-05 4.03015e-05 4.07451e-05 4.11543e-05 4.15293e-05 4.18699e-05 4.21743e-05 4.24405e-05 4.26685e-05 4.28583e-05 4.301e-05 4.31234e-05 4.31987e-05 4.32357e-05 4.32344e-05 4.31944e-05 4.31158e-05 4.29985e-05 4.28426e-05 4.2648e-05 4.24148e-05 4.21429e-05 4.1834e-05 4.14895e-05 4.11094e-05 4.06937e-05 4.02425e-05 3.97557e-05 3.92334e-05 3.86755e-05 3.80853e-05 3.74661e-05 3.68179e-05 3.61407e-05 3.54345e-05 3.46993e-05 3.39351e-05 3.31419e-05 3.23247e-05 3.14883e-05 3.06329e-05 2.97584e-05 2.88647e-05 2.7952e-05 2.70202e-05 2.60693e-05 2.51058e-05 2.41363e-05 2.31607e-05 2.2179e-05 2.11913e-05 2.01975e-05 1.91977e-05 1.81918e-05 1.71877e-05 1.61931e-05 1.5208e-05 1.42325e-05 1.32666e-05 1.23101e-05 1.13633e-05 1.04259e-05 9.49936e-06 8.58473e-06 7.68204e-06 6.79131e-06 5.91253e-06 5.04569e-06 4.1908e-06 3.34786e-06 2.56321e-06 1.88317e-06 1.30776e-06 8.36965e-07 4.70793e-07 2.09241e-07 5.23103e-08 0 0 2.02221e-07 8.08885e-07 1.81999e-06 3.23554e-06 5.05553e-06 7.27997e-06 9.90884e-06 1.29422e-05 1.62022e-05 1.95111e-05 2.2869e-05 2.62758e-05 2.97315e-05 3.32362e-05 3.67898e-05 4.03923e-05 4.404e-05 4.77289e-05 5.14592e-05 5.52308e-05 5.90437e-05 6.28979e-05 6.67934e-05 7.07303e-05 7.46787e-05 7.86092e-05 8.25216e-05 8.6416e-05 9.02924e-05 9.41507e-05 9.7991e-05 0.000101813 0.000105592 0.000109302 0.000112943 0.000116516 0.00012002 0.000123454 0.000126821 0.000130118 0.000133326 0.000136426 0.000139416 0.000142298 0.000145071 0.000147735 0.00015029 0.000152737 0.00015506 0.000157246 0.000159295 0.000161206 0.00016298 0.000164617 0.000166117 0.00016748 0.000168697 0.000169762 0.000170674 0.000171433 0.00017204 0.000172494 0.000172795 0.000172943 0.000172938 0.000172778 0.000172463 0.000171994 0.00017137 0.000170592 0.000169659 0.000168572 0.000167336 0.000165958 0.000164438 0.000162775 0.00016097 0.000159023 0.000156934 0.000154702 0.000152341 0.000149864 0.000147272 0.000144563 0.000141738 0.000138797 0.00013574 0.000132568 0.000129299 0.000125953 0.000122532 0.000119033 0.000115459 0.000111808 0.000108081 0.000104277 0.000100423 9.65451e-05 9.26427e-05 8.87161e-05 8.47652e-05 8.07902e-05 7.67908e-05 7.27673e-05 6.87507e-05 6.47723e-05 6.08321e-05 5.69301e-05 5.30662e-05 4.92405e-05 4.54531e-05 4.17038e-05 3.79974e-05 3.43389e-05 3.07282e-05 2.71652e-05 2.36501e-05 2.01828e-05 1.67632e-05 1.33914e-05 1.02528e-05 7.53269e-06 5.23103e-06 3.34786e-06 1.88317e-06 8.36965e-07 2.09241e-07 0 0 4.54998e-07 1.81999e-06 4.09498e-06 7.27997e-06 1.13749e-05 1.63799e-05 2.22949e-05 2.91199e-05 3.64549e-05 4.39e-05 5.14552e-05 5.91205e-05 6.68959e-05 7.47814e-05 8.2777e-05 9.08827e-05 9.90899e-05 0.00010739 0.000115783 0.000124269 0.000132848 0.00014152 0.000150285 0.000159143 0.000168027 0.000176871 0.000185674 0.000194436 0.000203158 0.000211839 0.00022048 0.00022908 0.000237582 0.00024593 0.000254123 0.000262161 0.000270044 0.000277773 0.000285346 0.000292765 0.000299984 0.000306958 0.000313687 0.000320171 0.00032641 0.000332404 0.000338153 0.000343657 0.000348885 0.000353803 0.000358413 0.000362714 0.000366706 0.000370389 0.000373763 0.000376829 0.000379569 0.000381965 0.000384017 0.000385725 0.00038709 0.000388111 0.000388788 0.000389122 0.00038911 0.00038875 0.000388042 0.000386986 0.000385583 0.000383832 0.000381733 0.000379286 0.000376506 0.000373405 0.000369984 0.000366244 0.000362183 0.000357802 0.000353101 0.000348079 0.000342768 0.000337195 0.000331361 0.000325266 0.00031891 0.000312294 0.000305416 0.000298277 0.000290922 0.000283395 0.000275696 0.000267825 0.000259783 0.000251568 0.000243182 0.000234624 0.000225952 0.000217226 0.000208446 0.000199611 0.000190722 0.000181778 0.000172779 0.000163726 0.000154689 0.000145738 0.000136872 0.000128093 0.000119399 0.000110791 0.000102269 9.38334e-05 8.54942e-05 7.72625e-05 6.91384e-05 6.11218e-05 5.32127e-05 4.54112e-05 3.77172e-05 3.01307e-05 2.30689e-05 1.69485e-05 1.17698e-05 7.53269e-06 4.23714e-06 1.88317e-06 4.70793e-07 0 0 8.08885e-07 3.23554e-06 7.27997e-06 1.29422e-05 2.02221e-05 2.91199e-05 3.96354e-05 5.17686e-05 6.48087e-05 7.80444e-05 9.14759e-05 0.000105103 0.000118926 0.000132945 0.000147159 0.000161569 0.00017616 0.000190916 0.000205837 0.000220923 0.000236175 0.000251592 0.000267174 0.000282921 0.000298715 0.000314437 0.000330086 0.000345664 0.000361169 0.000376603 0.000391964 0.000407253 0.000422369 0.000437209 0.000451774 0.000466064 0.000480078 0.000493818 0.000507282 0.000520471 0.000533305 0.000545703 0.000557666 0.000569193 0.000580285 0.000590941 0.000601161 0.000610946 0.000620239 0.000628983 0.000637178 0.000644824 0.000651921 0.000658469 0.000664468 0.000669919 0.000674789 0.000679048 0.000682696 0.000685734 0.00068816 0.000689975 0.000691179 0.000691772 0.00069175 0.00069111 0.000689852 0.000687976 0.000685481 0.000682368 0.000678637 0.000674287 0.000669344 0.000663832 0.00065775 0.0006511 0.00064388 0.000636092 0.000627734 0.000618808 0.000609365 0.000599457 0.000589086 0.000578251 0.000566952 0.000555189 0.000542962 0.00053027 0.000517195 0.000503813 0.000490126 0.000476134 0.000461836 0.000447232 0.000432323 0.000417109 0.000401693 0.00038618 0.000370571 0.000354864 0.000339061 0.000323161 0.000307163 0.000291069 0.000275003 0.000259089 0.000243328 0.00022772 0.000212265 0.000196962 0.000181812 0.000166815 0.00015199 0.000137356 0.000122913 0.000108661 9.46004e-05 8.0731e-05 6.70528e-05 5.35658e-05 4.10113e-05 3.01307e-05 2.09241e-05 1.33914e-05 7.53269e-06 3.34786e-06 8.36965e-07 0 0 1.26388e-06 5.05553e-06 1.13749e-05 2.02221e-05 3.15971e-05 4.54998e-05 6.19303e-05 8.08885e-05 0.000101264 0.000121944 0.000142931 0.000164224 0.000185822 0.000207726 0.000229936 0.000252452 0.00027525 0.000298306 0.00032162 0.000345193 0.000369023 0.000393112 0.000417459 0.000442064 0.000466742 0.000491307 0.00051576 0.0005401 0.000564327 0.000588442 0.000612444 0.000636333 0.000659951 0.000683139 0.000705897 0.000728225 0.000750122 0.00077159 0.000792628 0.000813236 0.000833289 0.000852661 0.000871353 0.000889364 0.000906695 0.000923345 0.000939315 0.000954604 0.000969124 0.000982786 0.000995591 0.00100754 0.00101863 0.00102886 0.00103823 0.00104675 0.00105436 0.00106101 0.00106671 0.00107146 0.00107525 0.00107809 0.00107997 0.00108089 0.00108086 0.00107986 0.00107789 0.00107496 0.00107106 0.0010662 0.00106037 0.00105357 0.00104585 0.00103724 0.00102773 0.00101734 0.00100606 0.000993894 0.000980835 0.000966887 0.000952132 0.000936652 0.000920447 0.000903517 0.000885862 0.000867483 0.000848378 0.000828548 0.000808116 0.000787208 0.000765822 0.000743959 0.000721618 0.0006988 0.000675505 0.000651732 0.000627645 0.000603407 0.000579017 0.000554476 0.000529783 0.000504938 0.000479943 0.000454796 0.000429692 0.000404827 0.000380201 0.000355813 0.000331664 0.000307753 0.000284082 0.000260648 0.000237484 0.000214618 0.000192051 0.000169783 0.000147813 0.000126142 0.00010477 8.36965e-05 6.40801e-05 4.70793e-05 3.2694e-05 2.09241e-05 1.17698e-05 5.23103e-06 1.30776e-06 0 0 1.81999e-06 7.27997e-06 1.63799e-05 2.91199e-05 4.54998e-05 6.55197e-05 8.91796e-05 0.000116479 0.00014582 0.0001756 0.000205821 0.000236482 0.000267584 0.000299126 0.000331108 0.000363531 0.00039636 0.00042956 0.000463133 0.000497077 0.000531393 0.000566081 0.000601141 0.000636572 0.000672109 0.000707483 0.000742694 0.000777744 0.000812631 0.000847356 0.000881919 0.000916319 0.000950329 0.00098372 0.00101649 0.00104864 0.00108018 0.00111109 0.00114138 0.00117106 0.00119994 0.00122783 0.00125475 0.00128068 0.00130564 0.00132962 0.00135261 0.00137463 0.00139554 0.00141521 0.00143365 0.00145085 0.00146682 0.00148156 0.00149505 0.00150732 0.00151828 0.00152786 0.00153607 0.0015429 0.00154836 0.00155244 0.00155515 0.00155649 0.00155644 0.001555 0.00155217 0.00154795 0.00154233 0.00153533 0.00152693 0.00151715 0.00150602 0.00149362 0.00147994 0.00146497 0.00144873 0.00143121 0.0014124 0.00139232 0.00137107 0.00134878 0.00132544 0.00130107 0.00127564 0.00124917 0.00122166 0.00119311 0.00116369 0.00113358 0.00110278 0.0010713 0.00103913 0.00100627 0.000972727 0.000938495 0.000903809 0.000868906 0.000833784 0.000798445 0.000762887 0.000727111 0.000691118 0.000654906 0.000618756 0.000582951 0.000547489 0.000512371 0.000477596 0.000443165 0.000409078 0.000375334 0.000341977 0.00030905 0.000276554 0.000244487 0.000212851 0.000181645 0.000150869 0.000120523 9.22754e-05 6.77942e-05 4.70793e-05 3.01307e-05 1.69485e-05 7.53269e-06 1.88317e-06 0 0 2.47721e-06 9.90884e-06 2.22949e-05 3.96354e-05 6.19303e-05 8.91796e-05 0.000121383 0.000158541 0.000198477 0.000239011 0.000280145 0.000321878 0.000364211 0.000407143 0.000450675 0.000494806 0.00053949 0.00058468 0.000630375 0.000676577 0.000723285 0.0007705 0.00081822 0.000866446 0.000914815 0.000962963 0.00101089 0.0010586 0.00110608 0.00115335 0.00120039 0.00124721 0.0012935 0.00133895 0.00138356 0.00142732 0.00147024 0.00151232 0.00155355 0.00159394 0.00163325 0.00167122 0.00170785 0.00174315 0.00177712 0.00180976 0.00184106 0.00187102 0.00189948 0.00192626 0.00195136 0.00197477 0.00199651 0.00201656 0.00203493 0.00205163 0.00206654 0.00207959 0.00209076 0.00210006 0.00210749 0.00211305 0.00211674 0.00211855 0.00211849 0.00211653 0.00211267 0.00210693 0.00209929 0.00208975 0.00207832 0.002065 0.00204987 0.00203298 0.00201436 0.00199399 0.00197188 0.00194803 0.00192244 0.0018951 0.00186618 0.00183584 0.00180408 0.00177089 0.00173629 0.00170027 0.00166282 0.00162395 0.00158391 0.00154293 0.00150101 0.00145816 0.00141437 0.00136965 0.00132399 0.0012774 0.00123019 0.00118268 0.00113487 0.00108677 0.00103837 0.000989679 0.000940688 0.000891399 0.000842196 0.000793461 0.000745193 0.000697393 0.000650061 0.000603197 0.0005568 0.000510871 0.000465469 0.000420652 0.00037642 0.000332774 0.000289714 0.000247239 0.000205349 0.000164045 0.000125597 9.22754e-05 6.40801e-05 4.10113e-05 2.30689e-05 1.02528e-05 2.56321e-06 0 0 3.23554e-06 1.29422e-05 2.91199e-05 5.17686e-05 8.08885e-05 0.000116479 0.000158541 0.000207075 0.000259235 0.000312178 0.000365904 0.000420413 0.000475704 0.000531779 0.000588637 0.000646277 0.00070464 0.000763663 0.000823348 0.000883693 0.000944699 0.00100637 0.0010687 0.00113168 0.00119486 0.00125775 0.00132035 0.00138266 0.00144468 0.00150641 0.00156786 0.00162901 0.00168947 0.00174884 0.0018071 0.00186425 0.00192031 0.00197527 0.00202913 0.00208189 0.00213322 0.00218281 0.00223066 0.00227677 0.00232114 0.00236376 0.00240465 0.00244379 0.00248096 0.00251593 0.00254871 0.0025793 0.00260768 0.00263388 0.00265787 0.00267967 0.00269916 0.00271619 0.00273079 0.00274293 0.00275264 0.0027599 0.00276472 0.00276709 0.002767 0.00276444 0.00275941 0.0027519 0.00274192 0.00272947 0.00271455 0.00269715 0.00267738 0.00265533 0.002631 0.0026044 0.00257552 0.00254437 0.00251094 0.00247523 0.00243746 0.00239783 0.00235635 0.002313 0.00226781 0.00222076 0.00217185 0.00212108 0.00206878 0.00201525 0.0019605 0.00190453 0.00184734 0.00178893 0.00172929 0.00166844 0.00160677 0.00154472 0.00148228 0.00141946 0.00135624 0.00129264 0.00122865 0.00116428 0.00110001 0.00103636 0.000973314 0.000910881 0.000849059 0.000787849 0.000727249 0.00066726 0.000607959 0.000549423 0.000491651 0.000434644 0.000378402 0.000322924 0.000268211 0.000214263 0.000164045 0.000120523 8.36965e-05 5.35658e-05 3.01307e-05 1.33914e-05 3.34786e-06 0 0 4.05048e-06 1.62019e-05 3.64544e-05 6.48077e-05 0.000101262 0.000145817 0.000198474 0.000259231 0.000324527 0.000390799 0.000458047 0.000526271 0.000595471 0.000665647 0.000736799 0.000808928 0.000881957 0.000955812 0.00103049 0.001106 0.00118233 0.00125949 0.00133747 0.00141628 0.00149532 0.001574 0.00165232 0.00173027 0.00180787 0.0018851 0.00196197 0.00203849 0.00211413 0.00218839 0.00226128 0.00233278 0.00240292 0.00247167 0.00253905 0.00260505 0.00266927 0.00273131 0.00279117 0.00284886 0.00290436 0.00295768 0.00300883 0.00305779 0.00310429 0.00314805 0.00318906 0.00322732 0.00326283 0.0032956 0.00332562 0.00335289 0.00337726 0.00339857 0.00341683 0.00343203 0.00344417 0.00345325 0.00345927 0.00346224 0.00346213 0.00345893 0.00345263 0.00344324 0.00343076 0.00341518 0.00339651 0.00337474 0.00335 0.00332242 0.00329199 0.00325871 0.00322258 0.00318361 0.00314178 0.00309711 0.00304986 0.00300028 0.00294838 0.00289416 0.00283762 0.00277876 0.00271757 0.00265406 0.00258863 0.00252167 0.00245318 0.00238316 0.00231161 0.00223853 0.00216392 0.00208779 0.00201064 0.00193301 0.0018549 0.0017763 0.00169721 0.00161764 0.00153758 0.00145704 0.00137664 0.001297 0.00121812 0.00114 0.00106265 0.000986061 0.000910235 0.000835172 0.000760967 0.000687715 0.000615417 0.000544071 0.000473679 0.000404241 0.000335755 0.000268223 0.000205358 0.000150875 0.000104775 6.70557e-05 3.77188e-05 1.67639e-05 4.19098e-06 0 0 4.87754e-06 1.95102e-05 4.38979e-05 7.80407e-05 0.000121939 0.000175592 0.000239 0.000312163 0.000390786 0.000470573 0.000551524 0.000633639 0.000716918 0.000801362 0.00088697 0.000973741 0.00106159 0.00115043 0.00124025 0.00133107 0.00142288 0.00151567 0.00160945 0.00170423 0.00179928 0.00189389 0.00198806 0.0020818 0.00217511 0.00226797 0.0023604 0.0024524 0.00254334 0.00263264 0.00272027 0.00280625 0.00289057 0.00297323 0.00305424 0.00313359 0.0032108 0.0032854 0.00335737 0.00342672 0.00349345 0.00355756 0.00361905 0.00367792 0.00373383 0.00378643 0.00383573 0.00388173 0.00392443 0.00396382 0.00399991 0.0040327 0.004062 0.00408762 0.00410957 0.00412784 0.00414243 0.00415335 0.00416059 0.00416416 0.00416403 0.00416017 0.0041526 0.00414131 0.0041263 0.00410757 0.00408511 0.00405894 0.0040292 0.00399604 0.00395945 0.00391943 0.003876 0.00382914 0.00377885 0.00372515 0.00366833 0.00360873 0.00354633 0.00348114 0.00341316 0.00334239 0.00326882 0.00319247 0.0031138 0.00303329 0.00295094 0.00286675 0.00278073 0.00269286 0.00260316 0.00251162 0.00241886 0.00232553 0.0022316 0.00213709 0.002042 0.00194631 0.00185005 0.00175319 0.00165651 0.00156073 0.00146587 0.00137193 0.00127889 0.00118677 0.00109557 0.00100528 0.000916012 0.000827882 0.000740889 0.000655032 0.000570312 0.000486728 0.000404281 0.00032297 0.000247274 0.000181671 0.00012616 8.07426e-05 4.54177e-05 2.01856e-05 5.04641e-06 0 0 5.71672e-06 2.28669e-05 5.14505e-05 9.14675e-05 0.000142918 0.000205802 0.000280119 0.00036587 0.000458011 0.000551499 0.000646335 0.000742517 0.000840047 0.000938923 0.00103915 0.00114072 0.00124354 0.00134751 0.00145263 0.00155891 0.00166633 0.00177491 0.00188464 0.00199552 0.00210672 0.00221741 0.00232758 0.00243724 0.00254639 0.00265502 0.00276314 0.00287075 0.00297713 0.00308157 0.00318408 0.00328464 0.00338327 0.00347996 0.00357471 0.00366752 0.00375783 0.00384507 0.00392925 0.00401036 0.00408841 0.00416339 0.00423531 0.00430416 0.00436955 0.00443108 0.00448874 0.00454254 0.00459247 0.00463855 0.00468076 0.0047191 0.00475337 0.00478334 0.004809 0.00483037 0.00484744 0.0048602 0.00486867 0.00487284 0.00487268 0.00486817 0.00485931 0.0048461 0.00482854 0.00480663 0.00478037 0.00474976 0.00471497 0.00467618 0.00463338 0.00458658 0.00453577 0.00448096 0.00442215 0.00435933 0.00429288 0.00422316 0.00415018 0.00407393 0.00399442 0.00391164 0.0038256 0.00373629 0.00364427 0.00355011 0.00345379 0.00335532 0.0032547 0.00315193 0.00304701 0.00293993 0.00283144 0.00272226 0.00261239 0.00250184 0.00239059 0.00227866 0.00216604 0.00205274 0.00193962 0.00182757 0.00171658 0.00160665 0.00149779 0.00138999 0.00128325 0.00117758 0.00107309 0.000969923 0.000868068 0.000767526 0.0006683 0.000570387 0.000473789 0.000378506 0.000289793 0.000212909 0.000147854 9.46264e-05 5.32274e-05 2.36566e-05 5.91415e-06 0 0 6.56802e-06 2.62721e-05 5.91121e-05 0.000105088 0.0001642 0.000236449 0.000321833 0.000420353 0.000526204 0.000633579 0.00074248 0.000852905 0.000964856 0.00107833 0.00119333 0.00130986 0.0014278 0.00154706 0.00166763 0.00178951 0.00191271 0.00203721 0.00216303 0.00229017 0.00241766 0.00254456 0.00267087 0.00279659 0.00292172 0.00304625 0.00317019 0.00329354 0.00341548 0.0035352 0.00365269 0.00376797 0.00388102 0.00399184 0.00410044 0.00420682 0.00431034 0.00441033 0.00450682 0.00459979 0.00468924 0.00477519 0.00485761 0.00493653 0.00501147 0.00508199 0.00514808 0.00520974 0.00526697 0.00531978 0.00536815 0.0054121 0.00545137 0.00548572 0.00551513 0.00553962 0.00555918 0.00557381 0.00558351 0.00558828 0.0055881 0.00558293 0.00557277 0.00555762 0.00553749 0.00551238 0.00548227 0.00544718 0.00540731 0.00536284 0.00531378 0.00526014 0.0052019 0.00513908 0.00507167 0.00499966 0.0049235 0.00484359 0.00475993 0.00467254 0.0045814 0.00448652 0.0043879 0.00428554 0.00418007 0.00407213 0.00396173 0.00384886 0.00373353 0.00361573 0.00349546 0.00337273 0.00324837 0.00312321 0.00299727 0.00287053 0.002743 0.00261469 0.00248558 0.00235567 0.00222598 0.0020975 0.00197023 0.00184418 0.00171933 0.0015957 0.00147328 0.00135207 0.00123221 0.00111384 0.000996953 0.000881554 0.000767642 0.000655217 0.00054428 0.000434829 0.000332916 0.000244591 0.000169855 0.000108707 6.11478e-05 2.71768e-05 6.7942e-06 0 0 7.43143e-06 2.97257e-05 6.68828e-05 0.000118903 0.000185786 0.000267531 0.00036414 0.000475611 0.000595363 0.000716812 0.000839959 0.000964804 0.00109135 0.00121959 0.00134952 0.00148116 0.00161438 0.00174907 0.00188524 0.00202288 0.00216199 0.00230257 0.00244463 0.00258816 0.00273209 0.00287535 0.00301794 0.00315985 0.00330109 0.00344165 0.00358155 0.00372077 0.0038584 0.00399352 0.00412613 0.00425623 0.00438381 0.00450889 0.00463146 0.00475151 0.00486833 0.00498118 0.00509007 0.00519499 0.00529595 0.00539293 0.00548596 0.00557501 0.00565959 0.00573917 0.00581375 0.00588333 0.00594792 0.00600751 0.0060621 0.0061117 0.00615601 0.00619477 0.00622796 0.00625559 0.00627766 0.00629416 0.00630511 0.00631049 0.00631028 0.00630444 0.00629297 0.00627587 0.00625315 0.0062248 0.00619082 0.00615122 0.00610621 0.00605602 0.00600066 0.00594011 0.00587439 0.00580349 0.00572741 0.00564615 0.00556019 0.00547 0.00537559 0.00527696 0.00517411 0.00506703 0.00495573 0.0048402 0.00472118 0.00459936 0.00447476 0.00434738 0.00421722 0.00408427 0.00394853 0.00381001 0.00366965 0.00352839 0.00338623 0.00324318 0.00309923 0.00295438 0.00280864 0.002662 0.00251559 0.00237053 0.00222684 0.00208451 0.00194353 0.00180391 0.00166566 0.00152876 0.00139337 0.00125963 0.00112754 0.000997114 0.000868339 0.000741219 0.000615752 0.00049194 0.000376642 0.000276716 0.000192164 0.000122985 6.91791e-05 3.07463e-05 7.68656e-06 0 0 8.30695e-06 3.32278e-05 7.47626e-05 0.000132911 0.000207674 0.00029905 0.000407041 0.000531645 0.000665489 0.000801198 0.000938772 0.00107821 0.00121952 0.00136269 0.00150772 0.00165462 0.00180327 0.00195355 0.00210547 0.00225901 0.00241419 0.002571 0.00272944 0.00288951 0.00305002 0.00320977 0.00336877 0.00352702 0.0036845 0.00384124 0.00399722 0.00415244 0.00430588 0.00445653 0.00460437 0.00474942 0.00489166 0.0050311 0.00516774 0.00530159 0.00543182 0.00555762 0.00567901 0.00579598 0.00590852 0.00601664 0.00612034 0.00621962 0.0063139 0.00640261 0.00648575 0.00656332 0.00663532 0.00670174 0.0067626 0.00681788 0.00686728 0.00691048 0.00694748 0.00697827 0.00700287 0.00702127 0.00703346 0.00703946 0.00703922 0.0070327 0.00701991 0.00700085 0.00697551 0.0069439 0.00690602 0.00686187 0.00681169 0.00675573 0.00669401 0.00662651 0.00655324 0.00647419 0.00638937 0.00629878 0.00620295 0.00610241 0.00599716 0.0058872 0.00577254 0.00565316 0.00552908 0.00540029 0.0052676 0.0051318 0.00499289 0.00485088 0.00470576 0.00455753 0.00440621 0.00425177 0.00409528 0.00393779 0.00377929 0.00361978 0.00345927 0.00329776 0.00313524 0.00297171 0.00280844 0.00264666 0.0024864 0.00232764 0.00217038 0.00201463 0.00186038 0.00170764 0.00155656 0.00140729 0.00125984 0.00111421 0.000970392 0.000828391 0.000688207 0.000549839 0.000420971 0.000309284 0.000214781 0.00013746 7.73211e-05 3.43649e-05 8.59123e-06 0 0 9.1946e-06 3.67784e-05 8.27514e-05 0.000147114 0.000229865 0.000331005 0.000450535 0.000588454 0.000736582 0.000886737 0.00103892 0.00119313 0.00134937 0.00150764 0.00166793 0.00183025 0.00199448 0.0021605 0.00232831 0.00249791 0.0026693 0.00284248 0.00301745 0.0031942 0.00337144 0.00354783 0.00372338 0.00389809 0.00407197 0.004245 0.00441719 0.00458855 0.00475794 0.00492423 0.00508743 0.00524754 0.00540455 0.00555848 0.0057093 0.00585704 0.00600079 0.00613965 0.00627364 0.00640274 0.00652696 0.0066463 0.00676076 0.00687034 0.00697441 0.00707232 0.00716408 0.0072497 0.00732916 0.00740248 0.00746965 0.00753066 0.00758518 0.00763286 0.00767369 0.00770768 0.00773482 0.00775512 0.00776858 0.00777519 0.00777492 0.00776772 0.0077536 0.00773255 0.00770458 0.00766969 0.00762787 0.00757912 0.00752373 0.00746197 0.00739383 0.00731932 0.00723844 0.00715119 0.00705756 0.00695757 0.00685178 0.00674081 0.00662463 0.00650326 0.00637669 0.00624492 0.00610796 0.0059658 0.00581933 0.00566943 0.0055161 0.00535934 0.00519915 0.00503554 0.00486849 0.00469802 0.00452527 0.00435141 0.00417643 0.00400034 0.00382313 0.00364481 0.00346537 0.00328482 0.00310453 0.00292589 0.00274891 0.00257357 0.00239988 0.00222784 0.00205745 0.00188871 0.00172178 0.00155683 0.00139385 0.00123284 0.0010738 0.000916735 0.000761644 0.000608526 0.000465903 0.000342296 0.000237705 0.000152131 8.55739e-05 3.80329e-05 9.50822e-06 0 0 1.00944e-05 4.03774e-05 9.08492e-05 0.00016151 0.000252359 0.000363397 0.000494623 0.000646039 0.000808641 0.000973429 0.0011404 0.00130956 0.0014809 0.00165443 0.00183014 0.00200804 0.00218801 0.00236992 0.00255377 0.00273958 0.00292732 0.00311702 0.00330866 0.00350225 0.00369635 0.00388952 0.00408176 0.00427308 0.00446347 0.00465294 0.00484148 0.0050291 0.00521455 0.00539662 0.0055753 0.00575059 0.0059225 0.00609101 0.00625614 0.00641787 0.00657524 0.00672727 0.00687395 0.00701529 0.00715128 0.00728193 0.00740723 0.00752719 0.00764111 0.00774829 0.00784875 0.00794247 0.00802946 0.00810972 0.00818325 0.00825004 0.00830972 0.00836191 0.0084066 0.00844381 0.00847352 0.00849573 0.00851046 0.00851769 0.00851738 0.0085095 0.00849403 0.00847098 0.00844036 0.00840215 0.00835636 0.00830299 0.00824235 0.00817472 0.00810013 0.00801855 0.00793 0.00783448 0.00773198 0.0076225 0.00750669 0.00738519 0.00725801 0.00712513 0.00698657 0.00684231 0.00669237 0.00653674 0.00637638 0.00621227 0.00604441 0.00587278 0.00569741 0.00551827 0.00533539 0.00514874 0.00495961 0.00476925 0.00457766 0.00438484 0.0041908 0.00399553 0.00379903 0.00360131 0.00340387 0.00320822 0.00301437 0.0028223 0.00263203 0.00244356 0.00225687 0.00207198 0.00188905 0.00170824 0.00152956 0.001353 0.00117856 0.00100625 0.000836063 0.000668 0.000511438 0.00037575 0.000260938 0.000167 9.39376e-05 4.175e-05 1.04375e-05 0 0 1.10052e-05 4.40209e-05 9.9047e-05 0.000176084 0.000275131 0.000396188 0.000539256 0.000704334 0.000881588 0.00106118 0.00124311 0.00142738 0.001614 0.00180295 0.00199424 0.00218787 0.00238372 0.00258167 0.00278172 0.00298388 0.00318814 0.0033945 0.00360296 0.00381353 0.00402463 0.00423473 0.00444381 0.00465187 0.00485892 0.00506496 0.00526998 0.00547399 0.00567565 0.00587362 0.0060679 0.0062585 0.00644541 0.00662863 0.00680816 0.00698401 0.00715511 0.0073204 0.00747988 0.00763354 0.00778139 0.00792343 0.00805966 0.00819008 0.00831393 0.00843046 0.00853968 0.00864157 0.00873614 0.0088234 0.00890333 0.00897594 0.00904082 0.00909756 0.00914614 0.00918658 0.00921888 0.00924303 0.00925903 0.00926688 0.00926654 0.00925796 0.00924114 0.00921608 0.00918277 0.00914122 0.00909144 0.00903341 0.00896746 0.00889394 0.00881283 0.00872413 0.00862786 0.00852399 0.00841255 0.00829352 0.0081676 0.0080355 0.00789722 0.00775275 0.00760209 0.00744525 0.00728223 0.00711301 0.00693867 0.00676024 0.00657772 0.00639112 0.00620043 0.00600566 0.0058068 0.00560386 0.00539821 0.00519121 0.00498287 0.0047732 0.00456218 0.00434982 0.00413612 0.00392108 0.00370633 0.00349352 0.00328265 0.00307371 0.00286671 0.00266164 0.00245851 0.00225731 0.00205822 0.0018614 0.00166685 0.00147457 0.00128457 0.00109684 0.000911383 0.000728197 0.000557526 0.000409611 0.000284452 0.000182049 0.000102403 4.55123e-05 1.13781e-05 0 0 1.19262e-05 4.77048e-05 0.000107336 0.000190819 0.000298155 0.000429343 0.000584384 0.000763277 0.000955342 0.0011499 0.00134695 0.00154649 0.00174853 0.00195306 0.00216008 0.00236959 0.00258148 0.00279563 0.00301203 0.00323069 0.00345161 0.00367479 0.00390022 0.00412792 0.00435619 0.00458335 0.00480941 0.00503437 0.00525822 0.00548096 0.0057026 0.00592314 0.00614113 0.00635513 0.00656514 0.00677117 0.0069732 0.00717125 0.00736531 0.00755538 0.00774032 0.00791897 0.00809134 0.00825743 0.00841723 0.00857076 0.008718 0.00885896 0.00899282 0.00911877 0.0092368 0.00934693 0.00944914 0.00954344 0.00962983 0.00970831 0.00977843 0.00983974 0.00989225 0.00993595 0.00997085 0.00999694 0.0100142 0.0100227 0.0100223 0.0100131 0.00999486 0.00996777 0.00993176 0.00988685 0.00983303 0.0097703 0.00969902 0.00961954 0.00953187 0.009436 0.00933193 0.00921967 0.00909921 0.00897055 0.00883445 0.00869167 0.0085422 0.00838604 0.0082232 0.00805368 0.00787746 0.00769457 0.00750612 0.00731325 0.00711596 0.00691426 0.00670814 0.0064976 0.00628265 0.00606328 0.00584097 0.0056172 0.00539197 0.00516529 0.00493715 0.00470756 0.0044765 0.00424399 0.0040118 0.00378167 0.00355363 0.00332766 0.00310377 0.00288196 0.00266223 0.00244457 0.00222916 0.00201617 0.0018056 0.00159745 0.00139172 0.00118841 0.000987522 0.00078905 0.000604116 0.00044384 0.000308223 0.000197262 0.00011096 4.93156e-05 1.23289e-05 0 0 1.28573e-05 5.14291e-05 0.000115715 0.000205716 0.000321432 0.000462862 0.000630006 0.000822865 0.0010299 0.00123959 0.00145191 0.00166689 0.0018845 0.00210476 0.00232767 0.00255322 0.0027813 0.00301179 0.0032447 0.00348001 0.00371775 0.00395789 0.00420045 0.00444542 0.004691 0.00493539 0.00517857 0.00542056 0.00566135 0.00590094 0.00613934 0.00637654 0.00661099 0.00684116 0.00706702 0.0072886 0.00750588 0.00771887 0.00792757 0.00813198 0.00833086 0.00852298 0.00870835 0.00888695 0.00905881 0.0092239 0.00938223 0.00953381 0.00967776 0.0098132 0.00994012 0.0100585 0.0101685 0.0102699 0.0103627 0.0104471 0.0105225 0.0105885 0.0106449 0.0106919 0.0107294 0.0107575 0.0107761 0.0107852 0.0107848 0.0107748 0.0107552 0.0107261 0.0106873 0.010639 0.0105811 0.0105137 0.010437 0.0103515 0.0102573 0.0101542 0.0100422 0.0099215 0.00979196 0.0096536 0.00950724 0.00935369 0.00919294 0.00902501 0.00884989 0.00866758 0.00847808 0.00828139 0.00807872 0.00787131 0.00765914 0.00744221 0.00722054 0.00699411 0.00676292 0.00652699 0.00628789 0.00604721 0.00580496 0.00556113 0.00531573 0.00506875 0.0048202 0.00457007 0.00432026 0.00407267 0.0038273 0.00358415 0.00334323 0.00310452 0.00286803 0.00263376 0.00240188 0.00217257 0.00194582 0.00172164 0.00150002 0.00128097 0.00106448 0.000850558 0.000651209 0.000478439 0.000332249 0.00021264 0.00011961 5.31599e-05 1.329e-05 0 0 1.37984e-05 5.51938e-05 0.000124186 0.000220775 0.000344961 0.000496744 0.000676124 0.0008831 0.00110527 0.00133024 0.001558 0.00178856 0.00202192 0.00225807 0.00249701 0.00273875 0.00298317 0.00323016 0.00347972 0.00373185 0.00398654 0.00424381 0.00450364 0.00476604 0.00502908 0.00529083 0.00555129 0.00581045 0.00606833 0.00632491 0.0065802 0.00683419 0.00708525 0.0073317 0.00757355 0.0078108 0.00804345 0.0082715 0.00849495 0.0087138 0.00892674 0.00913243 0.00933089 0.00952212 0.0097061 0.00988286 0.0100524 0.0102147 0.0103688 0.0105138 0.0106496 0.0107764 0.0108941 0.0110026 0.0111021 0.0111924 0.0112731 0.0113437 0.0114041 0.0114544 0.0114946 0.0115246 0.0115445 0.0115543 0.0115538 0.0115431 0.0115222 0.0114909 0.0114495 0.0113977 0.0113358 0.0112635 0.0111815 0.0110899 0.010989 0.0108786 0.0107588 0.0106295 0.0104908 0.0103427 0.010186 0.0100216 0.00984945 0.00966966 0.00948216 0.00928696 0.00908407 0.00887348 0.00865649 0.00843441 0.00820724 0.00797498 0.00773762 0.00749517 0.00724763 0.006995 0.00673897 0.00648125 0.00622183 0.00596071 0.0056979 0.00543339 0.00516719 0.00489929 0.00463172 0.00436652 0.00410367 0.00384319 0.00358507 0.00332931 0.00307591 0.00282487 0.00257637 0.00233058 0.0020875 0.00184712 0.00160946 0.0013745 0.00114226 0.000912723 0.000698804 0.000513407 0.000356532 0.000228181 0.000128352 5.70452e-05 1.42613e-05 0 0 1.47497e-05 5.89989e-05 0.000132747 0.000235995 0.000368743 0.00053099 0.000722736 0.000943982 0.00118145 0.00142186 0.00166522 0.00191152 0.00216077 0.00241296 0.0026681 0.00292618 0.0031871 0.00345074 0.0037171 0.00398619 0.004258 0.00453254 0.00480979 0.00508978 0.00537043 0.00564969 0.00592756 0.00620405 0.00647914 0.00675285 0.00702517 0.0072961 0.00756388 0.00782675 0.00808471 0.00833776 0.0085859 0.00882913 0.00906745 0.00930086 0.00952795 0.00974732 0.00995898 0.0101629 0.0103591 0.0105476 0.0107284 0.0109015 0.0110658 0.0112204 0.0113654 0.0115006 0.011626 0.0117418 0.0118478 0.0119442 0.0120302 0.0121055 0.0121699 0.0122236 0.0122664 0.0122984 0.0123196 0.01233 0.0123295 0.0123181 0.0122957 0.0122624 0.0122182 0.012163 0.0120969 0.0120199 0.0119323 0.0118347 0.011727 0.0116093 0.0114815 