<?xml version="1.0"?> 
<VTKFile type="StructuredGrid" version="0.1"> 
<StructuredGrid WholeExtent="0 128 0 128 0 0"> 
<Piece Extent="0 128 0 128 0 0"> 
<PointData>
<DataArray type="Float32" Name="u" format="ascii" NumberOfComponents="1"> 
0 0 0 0 0 0 0 0 0 0 0 0 0 0 0 0 0 0 0 0 0 0 0 0 0 0 0 0 0 0 0 0 0 0 0 0 0 0 0 0 0 0 0 0 0 0 0 0 0 0 0 0 0 0 0 0 0 0 0 0 0 0 0 0 0 0 0 0 0 0 0 0 0 0 0 0 0 0 0 0 0 0 0 0 0 0 0 0 0 0 0 0 0 0 0 0 0 0 0 0 0 0 0 0 0 0 0 0 0 0 0 0 0 0 0 0 0 0 0 0 0 0 0 0 0 0 0 0 0 0 3.95479e-08 1.58192e-07 3.55931e-07 6.32766e-07 9.88697e-07 1.42372e-06 1.93785e-06 2.53106e-06 3.17131e-06 3.82653e-06 4.49671e-06 5.18185e-06 5.88196e-06 6.59703e-06 7.32707e-06 8.07208e-06 8.83264e-06 9.60936e-06 1.04022e-05 1.12113e-05 1.20365e-05 1.28778e-05 1.37353e-05 1.4609e-05 1.54937e-05 1.63842e-05 1.72806e-05 1.81829e-05 1.9091e-05 2.0005e-05 2.09249e-05 2.18506e-05 2.27766e-05 2.36974e-05 2.4613e-05 2.55233e-05 2.64285e-05 2.73283e-05 2.8223e-05 2.91124e-05 2.99909e-05 3.08528e-05 3.16981e-05 3.25268e-05 3.33389e-05 3.41344e-05 3.49134e-05 3.56757e-05 3.6416e-05 3.71288e-05 3.78142e-05 3.84721e-05 3.91026e-05 3.97056e-05 4.02811e-05 4.08291e-05 4.13451e-05 4.18244e-05 4.22671e-05 4.26731e-05 4.30425e-05 4.33752e-05 4.36712e-05 4.39306e-05 4.41503e-05 4.43272e-05 4.44614e-05 4.45528e-05 4.46015e-05 4.46075e-05 4.45707e-05 4.44912e-05 4.43681e-05 4.42007e-05 4.39889e-05 4.37327e-05 4.34322e-05 4.30873e-05 4.26981e-05 4.22645e-05 4.17885e-05 4.1272e-05 4.0715e-05 4.01175e-05 3.94795e-05 3.8801e-05 3.8082e-05 3.73225e-05 3.65275e-05 3.57018e-05 3.48455e-05 3.39585e-05 3.30409e-05 3.20926e-05 3.11137e-05 3.01041e-05 2.90718e-05 2.80246e-05 2.69625e-05 2.58854e-05 2.47935e-05 2.36867e-05 2.2565e-05 2.14284e-05 2.02872e-05 1.91518e-05 1.80221e-05 1.68981e-05 1.57798e-05 1.46673e-05 1.35605e-05 1.24594e-05 1.13668e-05 1.02855e-05 9.21533e-06 8.15645e-06 7.1088e-06 6.07239e-06 5.04722e-06 4.03328e-06 3.08798e-06 2.26872e-06 1.5755e-06 1.00832e-06 5.6718e-07 2.5208e-07 6.302e-08 0 0 1.58192e-07 6.32766e-07 1.42372e-06 2.53106e-06 3.95479e-06 5.6949e-06 7.75139e-06 1.01243e-05 1.26853e-05 1.53061e-05 1.79868e-05 2.07274e-05 2.35278e-05 2.63881e-05 2.93083e-05 3.22883e-05 3.53306e-05 3.84375e-05 4.1609e-05 4.48451e-05 4.81459e-05 5.15113e-05 5.49414e-05 5.8436e-05 6.19748e-05 6.55369e-05 6.91226e-05 7.27316e-05 7.63641e-05 8.00201e-05 8.36995e-05 8.74024e-05 9.11066e-05 9.47898e-05 9.8452e-05 0.000102093 0.000105714 0.000109313 0.000112892 0.000116449 0.000119963 0.000123411 0.000126792 0.000130107 0.000133356 0.000136538 0.000139653 0.000142703 0.000145664 0.000148515 0.000151257 0.000153889 0.00015641 0.000158822 0.000161124 0.000163317 0.00016538 0.000167298 0.000169068 0.000170693 0.00017217 0.000173501 0.000174685 0.000175722 0.000176601 0.000177309 0.000177846 0.000178211 0.000178406 0.00017843 0.000178283 0.000177965 0.000177472 0.000176803 0.000175956 0.000174931 0.000173729 0.000172349 0.000170792 0.000169058 0.000167154 0.000165088 0.00016286 0.00016047 0.000157918 0.000155204 0.000152328 0.00014929 0.00014611 0.000142807 0.000139382 0.000135834 0.000132163 0.00012837 0.000124455 0.000120417 0.000116287 0.000112098 0.00010785 0.000103542 9.91741e-05 9.47469e-05 9.026e-05 8.57137e-05 8.11489e-05 7.66071e-05 7.20882e-05 6.75923e-05 6.31192e-05 5.86691e-05 5.42419e-05 4.98376e-05 4.54672e-05 4.11418e-05 3.68613e-05 3.26258e-05 2.84352e-05 2.42896e-05 2.01889e-05 1.61331e-05 1.23519e-05 9.07488e-06 6.302e-06 4.03328e-06 2.26872e-06 1.00832e-06 2.5208e-07 0 0 3.55931e-07 1.42372e-06 3.20338e-06 5.6949e-06 8.89827e-06 1.28135e-05 1.74406e-05 2.27796e-05 2.85418e-05 3.44387e-05 4.04704e-05 4.66366e-05 5.29376e-05 5.93733e-05 6.59436e-05 7.26487e-05 7.94938e-05 8.64843e-05 9.36202e-05 0.000100902 0.000108328 0.0001159 0.000123618 0.000131481 0.000139443 0.000147458 0.000155526 0.000163646 0.000171819 0.000180045 0.000188324 0.000196655 0.00020499 0.000213277 0.000221517 0.00022971 0.000237856 0.000245955 0.000254007 0.000262011 0.000269918 0.000277675 0.000285283 0.000292741 0.00030005 0.00030721 0.00031422 0.000321081 0.000327744 0.00033416 0.000340328 0.000346249 0.000351923 0.00035735 0.00036253 0.000367462 0.000372106 0.00037642 0.000380404 0.000384058 0.000387382 0.000390377 0.000393041 0.000395375 0.000397352 0.000398945 0.000400152 0.000400976 0.000401414 0.000401468 0.000401136 0.000400421 0.000399313 0.000397806 0.0003959 0.000393595 0.00039089 0.000387786 0.000384283 0.000380381 0.000376097 0.000371448 0.000366435 0.000361057 0.000355315 0.000349209 0.000342738 0.000335903 0.000328748 0.000321316 0.000313609 0.000305626 0.000297368 0.000288833 0.000280023 0.000270937 0.000261646 0.000252221 0.000242662 0.000232969 0.000223142 0.00021318 0.000203085 0.000192856 0.000182585 0.000172366 0.000162199 0.000152083 0.000142018 0.000132005 0.000122044 0.000112135 0.000102301 9.25691e-05 8.2938e-05 7.34081e-05 6.39792e-05 5.46515e-05 4.5425e-05 3.62995e-05 2.77918e-05 2.04185e-05 1.41795e-05 9.07488e-06 5.10462e-06 2.26872e-06 5.6718e-07 0 0 6.32766e-07 2.53106e-06 5.6949e-06 1.01243e-05 1.58192e-05 2.27796e-05 3.10055e-05 4.0497e-05 5.0741e-05 6.12244e-05 7.19473e-05 8.29096e-05 9.41113e-05 0.000105553 0.000117233 0.000129153 0.000141322 0.00015375 0.000166436 0.000179381 0.000192584 0.000206045 0.000219765 0.000233744 0.000247899 0.000262148 0.00027649 0.000290926 0.000305457 0.00032008 0.000334798 0.00034961 0.000364426 0.000379159 0.000393808 0.000408374 0.000422855 0.000437253 0.000451567 0.000465798 0.000479854 0.000493644 0.000507169 0.000520428 0.000533422 0.000546151 0.000558614 0.000570811 0.000582656 0.000594062 0.000605028 0.000615554 0.000625641 0.000635289 0.000644497 0.000653266 0.000661522 0.000669191 0.000676274 0.00068277 0.00068868 0.000694003 0.000698739 0.000702889 0.000706404 0.000709235 0.000711382 0.000712845 0.000713625 0.00071372 0.000713132 0.000711859 0.00070989 0.000707211 0.000703822 0.000699724 0.000694916 0.000689398 0.00068317 0.000676232 0.000668616 0.000660352 0.00065144 0.00064188 0.000631672 0.000620816 0.000609312 0.000597161 0.00058444 0.000571229 0.000557528 0.000543336 0.000528654 0.000513482 0.000497819 0.000481666 0.000465149 0.000448393 0.000431399 0.000414167 0.000396696 0.000378987 0.00036104 0.000342855 0.000324596 0.000306428 0.000288353 0.000270369 0.000252477 0.000234676 0.000216968 0.00019935 0.000181869 0.000164567 0.000147445 0.000130503 0.000113741 9.71583e-05 8.07555e-05 6.45325e-05 4.94077e-05 3.62995e-05 2.5208e-05 1.61331e-05 9.07488e-06 4.03328e-06 1.00832e-06 0 0 9.88697e-07 3.95479e-06 8.89827e-06 1.58192e-05 2.47174e-05 3.55931e-05 4.84462e-05 6.32766e-05 7.92828e-05 9.56632e-05 0.000112418 0.000129546 0.000147049 0.000164926 0.000183177 0.000201802 0.000220816 0.000240234 0.000260056 0.000280282 0.000300912 0.000321946 0.000343384 0.000365225 0.000387342 0.000409606 0.000432016 0.000454573 0.000477276 0.000500126 0.000523122 0.000546265 0.000569416 0.000592436 0.000615325 0.000638084 0.000660711 0.000683208 0.000705574 0.000727809 0.000749771 0.000771319 0.000792452 0.000813169 0.000833472 0.00085336 0.000872834 0.000891892 0.0009104 0.000928221 0.000945356 0.000961803 0.000977565 0.000992639 0.00100703 0.00102073 0.00103363 0.00104561 0.00105668 0.00106683 0.00107606 0.00108438 0.00109178 0.00109826 0.00110376 0.00110818 0.00111153 0.00111382 0.00111504 0.00111519 0.00111427 0.00111228 0.0011092 0.00110502 0.00109972 0.00109332 0.00108581 0.00107718 0.00106745 0.00105661 0.00104471 0.0010318 0.00101787 0.00100294 0.000986987 0.000970025 0.000952051 0.000933064 0.000913188 0.000892545 0.000871137 0.000848962 0.000826022 0.000802315 0.000777842 0.000752603 0.000726795 0.000700614 0.000674061 0.000647136 0.000619838 0.000592168 0.000564125 0.00053571 0.000507181 0.000478795 0.000450551 0.000422452 0.000394495 0.000366682 0.000339012 0.000311485 0.00028417 0.000257136 0.000230383 0.000203911 0.00017772 0.00015181 0.00012618 0.000100832 7.71995e-05 5.6718e-05 3.93875e-05 2.5208e-05 1.41795e-05 6.302e-06 1.5755e-06 0 0 1.42372e-06 5.6949e-06 1.28135e-05 2.27796e-05 3.55931e-05 5.12541e-05 6.97625e-05 9.11183e-05 0.000114167 0.000137755 0.000161881 0.000186547 0.000211751 0.000237493 0.000263775 0.000290595 0.000317975 0.000345937 0.000374481 0.000403606 0.000433313 0.000463602 0.000494472 0.000525924 0.000557773 0.000589832 0.000622103 0.000654585 0.000687277 0.000720181 0.000753296 0.000786622 0.000819959 0.000853108 0.000886068 0.000918841 0.000951424 0.00098382 0.00101603 0.00104805 0.00107967 0.0011107 0.00114113 0.00117096 0.0012002 0.00122884 0.00125688 0.00128432 0.00131098 0.00133664 0.00136131 0.001385 0.00140769 0.0014294 0.00145012 0.00146985 0.00148842 0.00150568 0.00152162 0.00153623 0.00154953 0.00156151 0.00157216 0.0015815 0.00158941 0.00159578 0.00160061 0.0016039 0.00160566 0.00160587 0.00160455 0.00160168 0.00159725 0.00159122 0.0015836 0.00157438 0.00156356 0.00155114 0.00153713 0.00152152 0.00150439 0.00148579 0.00146574 0.00144423 0.00142126 0.00139684 0.00137095 0.00134361 0.00131499 0.00128527 0.00125444 0.00122251 0.00118947 0.00115533 0.00112009 0.00108375 0.00104658 0.00100888 0.000970648 0.000931876 0.000892567 0.000852722 0.00081234 0.000771423 0.00073034 0.000689464 0.000648794 0.00060833 0.000568073 0.000528022 0.000488177 0.000448538 0.000409205 0.000370276 0.000331752 0.000293632 0.000255917 0.000218606 0.0001817 0.000145198 0.000111167 8.16739e-05 5.6718e-05 3.62995e-05 2.04185e-05 9.07488e-06 2.26872e-06 0 0 1.93785e-06 7.75139e-06 1.74406e-05 3.10055e-05 4.84462e-05 6.97625e-05 9.49545e-05 0.000124022 0.000155394 0.0001875 0.000220339 0.000253911 0.000288216 0.000323255 0.000359026 0.000395532 0.000432799 0.000470859 0.00050971 0.000549353 0.000589787 0.000631014 0.000673032 0.000715842 0.000759191 0.000802827 0.000846751 0.000890962 0.000935461 0.000980246 0.00102532 0.00107068 0.00111606 0.00116117 0.00120604 0.00125064 0.00129499 0.00133909 0.00138292 0.00142651 0.00146955 0.00151178 0.0015532 0.00159381 0.00163361 0.00167259 0.00171075 0.00174811 0.00178438 0.00181931 0.0018529 0.00188513 0.00191603 0.00194557 0.00197377 0.00200063 0.00202591 0.0020494 0.00207109 0.00209098 0.00210908 0.00212538 0.00213989 0.0021526 0.00216336 0.00217203 0.00217861 0.00218309 0.00218548 0.00218577 0.00218397 0.00218007 0.00217404 0.00216583 0.00215546 0.0021429 0.00212818 0.00211128 0.00209221 0.00207096 0.00204764 0.00202233 0.00199503 0.00196576 0.0019345 0.00190125 0.00186602 0.0018288 0.00178985 0.00174939 0.00170743 0.00166397 0.001619 0.00157254 0.00152457 0.0014751 0.00142452 0.0013732 0.00132116 0.00126839 0.00121488 0.00116065 0.00110569 0.00104999 0.000994074 0.000938437 0.000883081 0.000828005 0.00077321 0.000718696 0.000664463 0.00061051 0.000556974 0.000503987 0.000451551 0.000399666 0.000348331 0.000297547 0.000247314 0.000197631 0.000151311 0.000111167 7.71995e-05 4.94077e-05 2.77918e-05 1.23519e-05 3.08798e-06 0 0 2.53106e-06 1.01243e-05 2.27796e-05 4.0497e-05 6.32766e-05 9.11183e-05 0.000124022 0.000161988 0.000202964 0.000244898 0.000287789 0.000331638 0.000376445 0.00042221 0.000468933 0.000516613 0.000565289 0.000614999 0.000665744 0.000717522 0.000770335 0.000824181 0.000879062 0.000934977 0.000991596 0.00104859 0.00110596 0.00116371 0.00122183 0.00128032 0.00133919 0.00139844 0.00145771 0.00151664 0.00157523 0.00163349 0.00169142 0.00174901 0.00180627 0.00186319 0.00191941 0.00197458 0.00202868 0.00208171 0.00213369 0.0021846 0.00223445 0.00228324 0.00233062 0.00237625 0.00242011 0.00246222 0.00250257 0.00254116 0.00257799 0.00261306 0.00264609 0.00267676 0.0027051 0.00273108 0.00275472 0.00277601 0.00279496 0.00281156 0.00282562 0.00283694 0.00284553 0.00285138 0.0028545 0.00285488 0.00285253 0.00284744 0.00283956 0.00282884 0.00281529 0.0027989 0.00277966 0.00275759 0.00273268 0.00270493 0.00267446 0.00264141 0.00260576 0.00256752 0.00252669 0.00248326 0.00243725 0.00238864 0.00233776 0.00228492 0.00223011 0.00217334 0.00211462 0.00205393 0.00199128 0.00192666 0.0018606 0.00179357 0.0017256 0.00165667 0.00158679 0.00151595 0.00144416 0.00137142 0.00129838 0.00122571 0.00115341 0.00108148 0.00100991 0.000938705 0.00086787 0.000797401 0.000727476 0.000658269 0.000589781 0.000522013 0.000454963 0.000388633 0.000323022 0.00025813 0.000197631 0.000145198 0.000100832 6.45325e-05 3.62995e-05 1.61331e-05 4.03328e-06 0 0 3.17053e-06 1.26821e-05 2.85348e-05 5.07285e-05 7.92632e-05 0.000114139 0.000155356 0.000202914 0.00025424 0.000306761 0.000360478 0.00041539 0.000471497 0.0005288 0.000587298 0.000646991 0.000707928 0.000770157 0.000833679 0.000898494 0.0009646 0.001032 0.00110069 0.00117068 0.00124154 0.00131287 0.00138467 0.00145694 0.00152968 0.00160289 0.00167656 0.0017507 0.00182487 0.00189861 0.00197194 0.00204485 0.00211733 0.0021894 0.00226104 0.00233227 0.00240262 0.00247164 0.00253933 0.0026057 0.00267073 0.00273443 0.00279681 0.00285785 0.00291713 0.00297421 0.00302909 0.00308177 0.00313225 0.00318053 0.00322661 0.00327049 0.0033118 0.00335017 0.00338561 0.00341812 0.00344769 0.00347432 0.00349801 0.00351878 0.00353636 0.00355052 0.00356125 0.00356856 0.00357245 0.00357292 0.00356997 0.00356359 0.00355372 0.0035403 0.00352333 0.00350281 0.00347874 0.00345111 0.00341994 0.00338521 0.00334708 0.00330571 0.0032611 0.00321324 0.00316215 0.00310781 0.00305023 0.00298941 0.00292573 0.00285961 0.00279103 0.00272 0.00264651 0.00257057 0.00249218 0.00241133 0.00232866 0.00224479 0.00215973 0.00207348 0.00198604 0.0018974 0.00180757 0.00171654 0.00162515 0.00153422 0.00144374 0.00135372 0.00126416 0.00117505 0.00108641 0.000998215 0.000910702 0.000824084 0.000738362 0.000653535 0.000569604 0.000486569 0.000404429 0.000323185 0.000247438 0.000181792 0.000126244 8.07962e-05 4.54479e-05 2.01991e-05 5.04976e-06 0 0 3.82339e-06 1.52935e-05 3.44105e-05 6.11742e-05 9.55847e-05 0.000137642 0.000187346 0.000244697 0.000306585 0.000369903 0.00043465 0.000500826 0.00056843 0.000637464 0.000707927 0.000779819 0.0008532 0.000928132 0.00100461 0.00108265 0.00116223 0.00124336 0.00132605 0.00141028 0.00149557 0.00158142 0.00166783 0.0017548 0.00184233 0.00193042 0.00201906 0.00210827 0.0021975 0.00228623 0.00237444 0.00246215 0.00254935 0.00263605 0.00272223 0.00280791 0.00289253 0.00297555 0.00305697 0.00313679 0.003215 0.00329162 0.00336663 0.00344005 0.00351133 0.00357997 0.00364597 0.00370931 0.00377001 0.00382806 0.00388346 0.00393622 0.00398589 0.00403202 0.00407462 0.00411369 0.00414923 0.00418123 0.00420971 0.00423465 0.00425577 0.00427277 0.00428565 0.00429442 0.00429907 0.00429961 0.00429602 0.00428832 0.00427643 0.00426026 0.00423983 0.00421512 0.00418614 0.00415289 0.00411537 0.00407357 0.00402769 0.00397791 0.00392424 0.00386666 0.00380519 0.00373981 0.00367054 0.00359737 0.00352078 0.00344123 0.00335873 0.00327329 0.00318489 0.00309354 0.00299924 0.00290199 0.00280254 0.00270166 0.00259934 0.00249559 0.0023904 0.00228377 0.00217571 0.00206621 0.00195627 0.00184687 0.00173802 0.00162971 0.00152195 0.00141474 0.00130808 0.00120196 0.00109664 0.000992394 0.000889212 0.000787095 0.000686044 0.000586059 0.000487139 0.000389285 0.000298046 0.000218973 0.000152064 9.73212e-05 5.47432e-05 2.43303e-05 6.08257e-06 0 0 4.48964e-06 1.79586e-05 4.04068e-05 7.18343e-05 0.000112241 0.000161627 0.000219992 0.000287337 0.000360001 0.000434323 0.000510305 0.000587945 0.000667245 0.000748203 0.00083082 0.000915096 0.00100111 0.00108892 0.00117855 0.00126998 0.00136323 0.00145828 0.00155513 0.0016538 0.0017537 0.00185424 0.00195543 0.00205728 0.00215977 0.00226291 0.0023667 0.00247114 0.00257561 0.00267948 0.00278274 0.00288541 0.00298748 0.00308896 0.00318983 0.0032901 0.00338914 0.0034863 0.00358158 0.00367499 0.00376651 0.00385616 0.00394394 0.00402983 0.00411324 0.00419354 0.00427075 0.00434485 0.00441586 0.00448376 0.00454856 0.00461026 0.00466835 0.0047223 0.00477212 0.0048178 0.00485934 0.00489676 0.00493004 0.00495918 0.00498385 0.0050037 0.00501873 0.00502895 0.00503435 0.00503493 0.0050307 0.00502164 0.00500768 0.00498872 0.00496477 0.00493581 0.00490186 0.00486291 0.00481897 0.00477002 0.0047163 0.00465802 0.00459517 0.00452777 0.0044558 0.00437928 0.00429819 0.00421254 0.00412289 0.00402978 0.00393322 0.00383321 0.00372975 0.00362283 0.00351246 0.00339864 0.00328225 0.00316418 0.00304443 0.00292299 0.00279988 0.00267507 0.00254859 0.00242042 0.00229173 0.00216367 0.00203625 0.00190945 0.0017833 0.00165777 0.00153288 0.00140862 0.0012853 0.0011632 0.00104233 0.000922693 0.000804283 0.000687103 0.000571151 0.000456429 0.000349454 0.000256742 0.000178293 0.000114107 6.41854e-05 2.85268e-05 7.13171e-06 0 0 5.16929e-06 2.06772e-05 4.65236e-05 8.27086e-05 0.000129232 0.000186094 0.000253295 0.000330835 0.000414486 0.000500022 0.000587443 0.000676749 0.00076794 0.000861016 0.000955977 0.00105282 0.00115164 0.00125253 0.00135548 0.0014605 0.00156758 0.00167673 0.00178795 0.00190123 0.00201591 0.00213133 0.00224748 0.00236437 0.00248201 0.00260037 0.00271948 0.00283932 0.00295919 0.00307836 0.00319684 0.00331463 0.00343173 0.00354813 0.00366384 0.00377886 0.00389246 0.00400389 0.00411317 0.00422029 0.00432526 0.00442806 0.00452871 0.00462721 0.00472284 0.00481491 0.00490343 0.00498839 0.00506978 0.00514762 0.0052219 0.00529262 0.00535919 0.00542102 0.0054781 0.00553044 0.00557804 0.00562089 0.005659 0.00569237 0.0057206 0.00574331 0.0057605 0.00577216 0.00577829 0.0057789 0.00577399 0.00576354 0.00574748 0.00572568 0.00569815 0.0056649 0.00562591 0.00558119 0.00553074 0.00547457 0.00541291 0.00534603 0.00527391 0.00519657 0.005114 0.0050262 0.00493317 0.00483492 0.00473207 0.00462526 0.00451449 0.00439977 0.00428109 0.00415845 0.00403185 0.00390129 0.00376779 0.00363236 0.00349499 0.00335569 0.00321446 0.0030713 0.0029262 0.00277917 0.00263154 0.00248462 0.00233842 0.00219295 0.00204819 0.00190414 0.00176082 0.00161822 0.00147667 0.0013365 0.00119772 0.00106033 0.000924321 0.000789701 0.000656467 0.000524619 0.000401661 0.000295098 0.000204929 0.000131155 7.37746e-05 3.27887e-05 8.19717e-06 0 0 5.86233e-06 2.34493e-05 5.2761e-05 9.37974e-05 0.000146558 0.000211044 0.000287254 0.000375189 0.00047004 0.000566999 0.000666064 0.000767237 0.000870517 0.000975904 0.0010834 0.001193 0.00130482 0.00141896 0.00153542 0.0016542 0.00177531 0.00189874 0.00202449 0.00215256 0.00228221 0.00241268 0.00254397 0.00267609 0.00280903 0.0029428 0.00307739 0.00321281 0.00334824 0.00348288 0.00361674 0.0037498 0.00388208 0.00401357 0.00414427 0.00427418 0.00440247 0.00452833 0.00465174 0.00477271 0.00489124 0.00500732 0.00512097 0.00523217 0.00534014 0.00544409 0.00554401 0.00563991 0.00573179 0.00581965 0.00590348 0.00598329 0.00605841 0.00612817 0.00619257 0.00625162 0.0063053 0.00635363 0.0063966 0.00643421 0.00646603 0.0064916 0.00651094 0.00652404 0.00653089 0.00653151 0.00652589 0.00651403 0.00649582 0.00647114 0.00643999 0.00640237 0.00635828 0.00630772 0.00625069 0.0061872 0.00611752 0.00604193 0.00596045 0.00587306 0.00577977 0.00568058 0.00557549 0.00546449 0.00534831 0.00522767 0.00510255 0.00497296 0.00483891 0.00470039 0.0045574 0.00440994 0.00425915 0.00410618 0.00395103 0.00379368 0.00363416 0.00347245 0.00330855 0.00314247 0.00297569 0.00280972 0.00264455 0.00248019 0.00231662 0.00215386 0.0019919 0.00183074 0.00167075 0.0015123 0.00135538 0.0012 0.00104616 0.000893854 0.000743085 0.000593854 0.000454669 0.000334043 0.000231974 0.000148463 8.35107e-05 3.71158e-05 9.27896e-06 0 0 6.56877e-06 2.62751e-05 5.9119e-05 0.0001051 0.000164219 0.000236476 0.00032187 0.000420402 0.000526665 0.000635254 0.000746168 0.000859409 0.000974975 0.00109287 0.00121308 0.00133563 0.00146062 0.0015882 0.00171835 0.00185108 0.0019864 0.00212429 0.00226476 0.0024078 0.0025526 0.0026983 0.00284491 0.00299243 0.00314086 0.0032902 0.00344044 0.0035916 0.00374276 0.00389304 0.00404243 0.00419093 0.00433854 0.00448527 0.00463111 0.00477605 0.00491919 0.0050596 0.00519728 0.00533223 0.00546445 0.00559394 0.0057207 0.00584472 0.00596514 0.00608107 0.0061925 0.00629944 0.00640188 0.00649984 0.0065933 0.00668227 0.006766 0.00684376 0.00691553 0.00698133 0.00704115 0.00709498 0.00714284 0.00718472 0.00722012 0.00724857 0.00727006 0.00728459 0.00729216 0.00729277 0.00728641 0.0072731 0.00725271 0.00722509 0.00719027 0.00714822 0.00709897 0.0070425 0.00697881 0.00690792 0.00683012 0.00674574 0.00665478 0.00655724 0.00645312 0.00634242 0.00622514 0.00610128 0.00597163 0.005837 0.00569739 0.00555279 0.00540322 0.00524865 0.00508911 0.00492458 0.00475634 0.00458566 0.00441254 0.00423697 0.00405897 0.00387852 0.00369563 0.0035103 0.0033242 0.00313897 0.00295463 0.00277117 0.0025886 0.00240691 0.00222611 0.00204619 0.00186755 0.00169059 0.00151531 0.00134171 0.0011698 0.000999561 0.000831007 0.000664133 0.000508477 0.000373575 0.000259427 0.000166033 9.33937e-05 4.15083e-05 1.03771e-05 0 0 7.28861e-06 2.91544e-05 6.55975e-05 0.000116618 0.000182215 0.00026239 0.000357142 0.000466471 0.000584359 0.000704787 0.000827756 0.000953264 0.00108131 0.0012119 0.00134503 0.0014807 0.00161906 0.00176025 0.00190428 0.00205115 0.00220085 0.00235338 0.00250875 0.00266696 0.00282708 0.00298819 0.00315029 0.00331339 0.00347748 0.00364256 0.00380863 0.00397569 0.00414276 0.00430883 0.00447392 0.00463801 0.00480112 0.00496323 0.00512436 0.00528449 0.00544262 0.00559772 0.0057498 0.00589886 0.0060449 0.00618791 0.0063279 0.00646487 0.00659784 0.00672585 0.00684888 0.00696695 0.00708006 0.00718819 0.00729136 0.00738956 0.00748198 0.00756778 0.00764698 0.00771958 0.00778556 0.00784494 0.00789771 0.00794387 0.00798289 0.00801422 0.00803786 0.00805382 0.00806208 0.00806266 0.00805555 0.00804076 0.00801814 0.00798755 0.00794899 0.00790247 0.00784798 0.00778553 0.00771511 0.00763672 0.00755072 0.00745745 0.00735692 0.00724912 0.00713405 0.00701172 0.00688212 0.00674526 0.00660201 0.00645326 0.00629901 0.00613926 0.005974 0.00580324 0.00562698 0.00544522 0.00525935 0.00507079 0.00487952 0.00468555 0.00448889 0.00428952 0.00408745 0.00388268 0.00367704 0.00347237 0.00326866 0.00306591 0.00286413 0.00266331 0.00246345 0.00226456 0.00206706 0.00187137 0.00167751 0.00148546 0.00129523 0.00110682 0.000920231 0.000735457 0.000563084 0.000413695 0.000287288 0.000183864 0.000103424 4.59661e-05 1.14915e-05 0 0 8.02184e-06 3.20874e-05 7.21965e-05 0.000128349 0.000200546 0.000288786 0.00039307 0.000513398 0.000643123 0.000775599 0.000910826 0.0010488 0.00118953 0.00133301 0.00147925 0.00162823 0.00178013 0.00193513 0.00209322 0.00225439 0.00241866 0.00258602 0.00275648 0.00293002 0.00310565 0.00328235 0.00346012 0.00363897 0.00381889 0.00399988 0.00418195 0.00436509 0.00454823 0.00473026 0.00491121 0.00509105 0.0052698 0.00544746 0.00562402 0.00579949 0.00597275 0.00614269 0.0063093 0.0064726 0.00663258 0.00678924 0.00694258 0.0070926 0.00723824 0.00737843 0.00751317 0.00764246 0.00776631 0.00788471 0.00799766 0.00810517 0.00820633 0.00830024 0.00838692 0.00846636 0.00853855 0.00860351 0.00866122 0.00871169 0.00875433 0.00878855 0.00881434 0.00883172 0.00884067 0.0088412 0.00883331 0.008817 0.00879211 0.0087585 0.00871617 0.00866511 0.00860532 0.00853681 0.00845958 0.00837362 0.00827932 0.00817706 0.00806685 0.00794868 0.00782256 0.00768848 0.00754644 0.00739645 0.00723947 0.00707646 0.00690742 0.00673236 0.00655127 0.00636416 0.00617102 0.00597185 0.00576819 0.00556157 0.00535198 0.00513943 0.00492392 0.00470544 0.004484 0.0042596 0.00403424 0.00380992 0.00358664 0.0033644 0.0031432 0.00292305 0.00270393 0.00248586 0.00226928 0.00205466 0.00184198 0.00163125 0.00142247 0.00121564 0.00101076 0.000807826 0.000618492 0.000454402 0.000315557 0.000201957 0.000113601 5.04891e-05 1.26223e-05 0 0 8.76831e-06 3.50732e-05 7.89147e-05 0.000140293 0.000219208 0.000315659 0.000429647 0.000561172 0.000702944 0.000847677 0.000995369 0.00114602 0.00129963 0.00145621 0.00161574 0.00177823 0.00194387 0.00211287 0.00228521 0.00246089 0.00263993 0.00282231 0.00300804 0.00319712 0.00338845 0.00358093 0.00377456 0.00396935 0.00416529 0.00436239 0.00456064 0.00476004 0.00495942 0.0051576 0.00535457 0.00555034 0.00574491 0.00593827 0.00613043 0.00632139 0.00650993 0.00669486 0.00687616 0.00705384 0.0072279 0.00739834 0.00756516 0.00772835 0.00788677 0.00803926 0.00818581 0.00832643 0.00846111 0.00858986 0.00871268 0.00882957 0.00893954 0.00904164 0.00913585 0.00922218 0.00930063 0.00937119 0.00943388 0.00948868 0.00953496 0.00957207 0.00960002 0.00961881 0.00962844 0.0096289 0.0096202 0.00960234 0.00957514 0.00953846 0.00949229 0.00943663 0.00937148 0.00929684 0.0092127 0.00911908 0.00901639 0.00890504 0.00878504 0.00865639 0.00851908 0.00837312 0.00821851 0.00805525 0.00788438 0.00770696 0.00752298 0.00733245 0.00713536 0.00693172 0.00672152 0.00650477 0.00628313 0.00605825 0.00583015 0.00559882 0.00536426 0.00512648 0.00488546 0.00464121 0.00439591 0.00415173 0.00390866 0.00366671 0.00342588 0.00318617 0.00294758 0.0027101 0.00247422 0.00224042 0.0020087 0.00177905 0.00155148 0.00132598 0.00110256 0.000881219 0.000674683 0.000495685 0.000344226 0.000220305 0.000123921 5.50762e-05 1.3769e-05 0 0 9.52785e-06 3.81114e-05 8.57507e-05 0.000152446 0.000238196 0.000343003 0.000466865 0.000609783 0.000763812 0.00092101 0.00108138 0.00124491 0.00141161 0.00158148 0.00175452 0.00193073 0.00211032 0.00229351 0.00248031 0.00267072 0.00286473 0.00306234 0.00326356 0.00346838 0.00367562 0.00388409 0.00409379 0.00430473 0.0045169 0.00473029 0.00494492 0.00516079 0.00537661 0.00559111 0.0058043 0.00601618 0.00622674 0.00643599 0.00664392 0.00685054 0.00705454 0.00725461 0.00745075 0.00764297 0.00783125 0.00801561 0.00819604 0.00837255 0.00854388 0.00870878 0.00886726 0.00901931 0.00916493 0.00930413 0.0094369 0.00956325 0.00968212 0.00979246 0.00989427 0.00998755 0.0100723 0.0101485 0.0102162 0.0102754 0.0103253 0.0103653 0.0103954 0.0104156 0.0104259 0.0104263 0.0104167 0.0103973 0.0103677 0.0103279 0.0102779 0.0102175 0.010147 0.0100661 0.00997497 0.00987359 0.00976239 0.00964184 0.00951194 0.00937267 0.00922405 0.00906608 0.00889874 0.00872205 0.00853714 0.00834514 0.00814605 0.00793987 0.0077266 0.00750625 0.0072788 0.00704427 0.00680444 0.00656111 0.00631428 0.00606395 0.00581013 0.0055528 0.00529198 0.00502766 0.00476219 0.00449791 0.00423482 0.00397293 0.00371223 0.00345272 0.00319441 0.0029373 0.00268188 0.00242867 0.00217765 0.00192884 0.00168223 0.00143782 0.00119562 0.000955612 0.00073164 0.000537532 0.000373286 0.000238903 0.000134383 5.97257e-05 1.49314e-05 0 0 1.03005e-05 4.12019e-05 9.27043e-05 0.000164808 0.000257512 0.000370817 0.000504724 0.000659231 0.000825726 0.000995598 0.00116885 0.00134547 0.00152547 0.00170884 0.00189559 0.00208572 0.00227947 0.00247707 0.00267854 0.00288387 0.00309306 0.00330612 0.00352303 0.00374381 0.00396717 0.00419184 0.00441781 0.0046451 0.00487369 0.00510359 0.0053348 0.00556732 0.00579977 0.0060308 0.0062604 0.00648857 0.0067153 0.00694061 0.00716449 0.00738694 0.00760656 0.00782194 0.00803308 0.00823998 0.00844264 0.00864106 0.00883524 0.00902519 0.00920955 0.00938699 0.00955751 0.0097211 0.00987776 0.0100275 0.0101703 0.0103062 0.0104341 0.0105527 0.0106622 0.0107625 0.0108536 0.0109355 0.0110082 0.0110717 0.0111253 0.0111683 0.0112005 0.0112221 0.0112331 0.0112333 0.0112229 0.0112019 0.0111699 0.0111269 0.0110729 0.0110078 0.0109317 0.0108446 0.0107464 0.0106371 0.0105173 0.0103875 0.0102475 0.0100975 0.00993748 0.00976734 0.00958714 0.00939687 0.00919776 0.00899101 0.00877664 0.00855464 0.00832501 0.00808775 0.00784286 0.00759034 0.00733212 0.00707013 0.00680436 0.00653482 0.00626151 0.00598443 0.00570357 0.00541895 0.00513307 0.00484846 0.00456511 0.00428304 0.00400224 0.00372271 0.00344444 0.00316745 0.00289225 0.00261938 0.00234884 0.00208062 0.00181473 0.00155116 0.00128992 0.00103101 0.000789364 0.000579941 0.000402737 0.000257752 0.000144985 6.44379e-05 1.61095e-05 0 0 1.10862e-05 4.43448e-05 9.97757e-05 0.000177379 0.000277155 0.000399103 0.000543223 0.000709516 0.000888687 0.00107144 0.00125778 0.0014477 0.0016412 0.00183829 0.00203896 0.00224321 0.00245132 0.00266354 0.00287988 0.00310035 0.00332493 0.00355363 0.00378645 0.0040234 0.00426309 0.00450416 0.00474662 0.00499046 0.00523568 0.00548228 0.00573027 0.00597964 0.00622893 0.00647667 0.00672286 0.0069675 0.0072106 0.00745214 0.00769214 0.0079306 0.008166 0.00839685 0.00862314 0.00884487 0.00906206 0.00927468 0.00948276 0.00968627 0.0098838 0.0100739 0.0102566 0.0104318 0.0105996 0.01076 0.0109129 0.0110585 0.0111953 0.0113224 0.0114396 0.0115469 0.0116444 0.011732 0.0118098 0.0118778 0.0119351 0.0119809 0.0120154 0.0120384 0.0120499 0.0120501 0.0120388 0.012016 0.0119817 0.0119355 0.0118774 0.0118075 0.0117258 0.0116323 0.0115269 0.0114097 0.0112812 0.0111419 0.0109919 0.010831 0.0106593 0.0104769 0.0102837 0.0100797 0.00986623 0.00964457 0.00941474 0.00917674 0.00893057 0.00867621 0.00841369 0.00814299 0.00786617 0.00758531 0.0073004 0.00701143 0.00671842 0.00642135 0.00612024 0.00581507 0.00550855 0.00520338 0.00489955 0.00459706 0.00429592 0.00399612 0.00369766 0.00340055 0.00310534 0.00281258 0.00252226 0.00223439 0.00194897 0.001666 0.00138548 0.0011074 0.000847855 0.000622914 0.000432579 0.000276851 0.000155728 6.92127e-05 1.73032e-05 0 0 1.1885e-05 4.75399e-05 0.000106965 0.00019016 0.000297124 0.000427859 0.000582364 0.000760638 0.000952693 0.00114854 0.00134817 0.0015516 0.00175881 0.00196982 0.00218461 0.0024032 0.00262587 0.00285292 0.00308434 0.00332015 0.00356033 0.00380489 0.00405383 0.00430715 0.00456338 0.00482107 0.00508021 0.00534081 0.00560286 0.00586637 0.00613134 0.00639775 0.00666407 0.00692871 0.00719168 0.00745298 0.00771262 0.00797058 0.00822688 0.0084815 0.00873285 0.00897933 0.00922093 0.00945766 0.00968951 0.00991648 0.0101386 0.0103558 0.0105666 0.0107695 0.0109644 0.0111514 0.0113305 0.0115016 0.0116648 0.01182 0.011966 0.0121015 0.0122265 0.0123409 0.0124448 0.0125382 0.0126211 0.0126935 0.0127545 0.0128033 0.0128399 0.0128643 0.0128765 0.0128765 0.0128643 0.0128398 0.012803 0.0127535 0.0126914 0.0126166 0.0125293 0.