<?xml version="1.0"?> 
<VTKFile type="StructuredGrid" version="0.1"> 
<StructuredGrid WholeExtent="0 128 0 128 0 0"> 
<Piece Extent="0 128 0 128 0 0"> 
<PointData>
<DataArray type="Float32" Name="u" format="ascii" NumberOfComponents="1"> 
0 0 0 0 0 0 0 0 0 0 0 0 0 0 0 0 0 0 0 0 0 0 0 0 0 0 0 0 0 0 0 0 0 0 0 0 0 0 0 0 0 0 0 0 0 0 0 0 0 0 0 0 0 0 0 0 0 0 0 0 0 0 0 0 0 0 0 0 0 0 0 0 0 0 0 0 0 0 0 0 0 0 0 0 0 0 0 0 0 0 0 0 0 0 0 0 0 0 0 0 0 0 0 0 0 0 0 0 0 0 0 0 0 0 0 0 0 0 0 0 0 0 0 0 0 0 0 0 0 0 -2.52322e-08 -1.00929e-07 -2.2709e-07 -4.03716e-07 -6.30806e-07 -9.08361e-07 -1.23638e-06 -1.61486e-06 -2.0059e-06 -2.37157e-06 -2.71188e-06 -3.02683e-06 -3.31641e-06 -3.58063e-06 -3.8195e-06 -4.03299e-06 -4.21463e-06 -4.3579e-06 -4.46281e-06 -4.52936e-06 -4.55754e-06 -4.54736e-06 -4.49882e-06 -4.41192e-06 -4.28248e-06 -4.10632e-06 -3.88346e-06 -3.61388e-06 -3.29758e-06 -2.93458e-06 -2.52486e-06 -2.06843e-06 -1.5698e-06 -1.03349e-06 -4.59499e-07 1.52176e-07 8.01534e-07 1.48857e-06 2.21329e-06 2.9757e-06 3.76459e-06 4.56877e-06 5.38825e-06 6.22301e-06 7.07307e-06 7.93842e-06 8.81906e-06 9.71499e-06 1.06121e-05 1.14964e-05 1.23677e-05 1.32261e-05 1.40717e-05 1.49044e-05 1.57241e-05 1.6531e-05 1.73126e-05 1.80564e-05 1.87625e-05 1.94309e-05 2.00615e-05 2.06545e-05 2.12097e-05 2.17272e-05 2.22001e-05 2.26215e-05 2.29916e-05 2.33102e-05 2.35774e-05 2.37932e-05 2.39576e-05 2.40705e-05 2.41326e-05 2.41444e-05 2.41059e-05 2.40172e-05 2.38781e-05 2.36888e-05 2.34492e-05 2.31593e-05 2.28263e-05 2.24575e-05 2.20529e-05 2.16124e-05 2.11361e-05 2.06239e-05 2.00759e-05 1.94921e-05 1.88833e-05 1.82607e-05 1.76241e-05 1.69736e-05 1.63092e-05 1.56308e-05 1.49385e-05 1.42323e-05 1.3523e-05 1.28215e-05 1.21277e-05 1.14416e-05 1.07632e-05 1.00926e-05 9.42972e-06 8.77458e-06 8.13421e-06 7.51567e-06 6.91894e-06 6.34403e-06 5.79094e-06 5.25967e-06 4.75021e-06 4.26258e-06 3.79724e-06 3.35469e-06 2.93492e-06 2.53794e-06 2.16374e-06 1.81232e-06 1.48369e-06 1.17783e-06 9.0178e-07 6.62532e-07 4.60092e-07 2.94459e-07 1.65633e-07 7.36147e-08 1.84037e-08 0 0 -1.00929e-07 -4.03716e-07 -9.08361e-07 -1.61486e-06 -2.52322e-06 -3.63344e-06 -4.94552e-06 -6.45945e-06 -8.02359e-06 -9.48628e-06 -1.08475e-05 -1.21073e-05 -1.32656e-05 -1.43225e-05 -1.5278e-05 -1.6132e-05 -1.68585e-05 -1.74316e-05 -1.78512e-05 -1.81174e-05 -1.82302e-05 -1.81895e-05 -1.79953e-05 -1.76477e-05 -1.71299e-05 -1.64253e-05 -1.55338e-05 -1.44555e-05 -1.31903e-05 -1.17383e-05 -1.00994e-05 -8.27372e-06 -6.27921e-06 -4.13396e-06 -1.83799e-06 6.08705e-07 3.20613e-06 5.95429e-06 8.85318e-06 1.19028e-05 1.50584e-05 1.82751e-05 2.1553e-05 2.48921e-05 2.82923e-05 3.17537e-05 3.52762e-05 3.886e-05 4.24485e-05 4.59854e-05 4.94708e-05 5.29046e-05 5.62868e-05 5.96175e-05 6.28965e-05 6.6124e-05 6.92502e-05 7.22256e-05 7.505e-05 7.77236e-05 8.02462e-05 8.26179e-05 8.48387e-05 8.69086e-05 8.88002e-05 9.04861e-05 9.19664e-05 9.32409e-05 9.43097e-05 9.51729e-05 9.58303e-05 9.62821e-05 9.65304e-05 9.65776e-05 9.64237e-05 9.60687e-05 9.55125e-05 9.47552e-05 9.37967e-05 9.26371e-05 9.13053e-05 8.98301e-05 8.82115e-05 8.64496e-05 8.45443e-05 8.24956e-05 8.03036e-05 7.79683e-05 7.55334e-05 7.30428e-05 7.04964e-05 6.78944e-05 6.52367e-05 6.25233e-05 5.97542e-05 5.69294e-05 5.40922e-05 5.12859e-05 4.85106e-05 4.57663e-05 4.30528e-05 4.03704e-05 3.77189e-05 3.50983e-05 3.25369e-05 3.00627e-05 2.76758e-05 2.53761e-05 2.31638e-05 2.10387e-05 1.90009e-05 1.70503e-05 1.5189e-05 1.34188e-05 1.17397e-05 1.01518e-05 8.65495e-06 7.24928e-06 5.93474e-06 4.71134e-06 3.60712e-06 2.65013e-06 1.84037e-06 1.17783e-06 6.62532e-07 2.94459e-07 7.36147e-08 0 0 -2.2709e-07 -9.08361e-07 -2.04381e-06 -3.63344e-06 -5.67725e-06 -8.17524e-06 -1.11274e-05 -1.45338e-05 -1.80531e-05 -2.13441e-05 -2.44069e-05 -2.72414e-05 -2.98477e-05 -3.22257e-05 -3.43755e-05 -3.62969e-05 -3.79317e-05 -3.92211e-05 -4.01653e-05 -4.07642e-05 -4.10179e-05 -4.09263e-05 -4.04894e-05 -3.97073e-05 -3.85423e-05 -3.69569e-05 -3.49511e-05 -3.25249e-05 -2.96782e-05 -2.64112e-05 -2.27237e-05 -1.86159e-05 -1.41282e-05 -9.30142e-06 -4.13549e-06 1.36959e-06 7.2138e-06 1.33972e-05 1.99197e-05 2.67813e-05 3.38813e-05 4.1119e-05 4.84942e-05 5.60071e-05 6.36576e-05 7.14458e-05 7.93715e-05 8.74349e-05 9.55091e-05 0.000103467 0.000111309 0.000119035 0.000126645 0.000134139 0.000141517 0.000148779 0.000155813 0.000162508 0.000168863 0.000174878 0.000180554 0.00018589 0.000190887 0.000195544 0.000199801 0.000203594 0.000206924 0.000209792 0.000212197 0.000214139 0.000215618 0.000216635 0.000217193 0.0002173 0.000216953 0.000216154 0.000214903 0.000213199 0.000211043 0.000208433 0.000205437 0.000202118 0.000198476 0.000194512 0.000190225 0.000185615 0.000180683 0.000175429 0.00016995 0.000164346 0.000158617 0.000152762 0.000146783 0.000140677 0.000134447 0.000128091 0.000121707 0.000115393 0.000109149 0.000102974 9.68689e-05 9.08334e-05 8.48675e-05 7.89712e-05 7.32079e-05 6.7641e-05 6.22705e-05 5.70963e-05 5.21185e-05 4.7337e-05 4.27519e-05 3.83632e-05 3.41752e-05 3.01922e-05 2.64143e-05 2.28414e-05 1.94736e-05 1.63109e-05 1.33532e-05 1.06005e-05 8.11602e-06 5.96279e-06 4.14083e-06 2.65013e-06 1.4907e-06 6.62532e-07 1.65633e-07 0 0 -4.03716e-07 -1.61486e-06 -3.63344e-06 -6.45945e-06 -1.00929e-05 -1.45338e-05 -1.97821e-05 -2.58378e-05 -3.20944e-05 -3.79451e-05 -4.33901e-05 -4.84292e-05 -5.30626e-05 -5.72902e-05 -6.11119e-05 -6.45279e-05 -6.74341e-05 -6.97264e-05 -7.1405e-05 -7.24697e-05 -7.29207e-05 -7.27578e-05 -7.19812e-05 -7.05907e-05 -6.85196e-05 -6.57012e-05 -6.21353e-05 -5.7822e-05 -5.27613e-05 -4.69532e-05 -4.03978e-05 -3.30949e-05 -2.51168e-05 -1.65359e-05 -7.35198e-06 2.43482e-06 1.28245e-05 2.38172e-05 3.54127e-05 4.76112e-05 6.02334e-05 7.31004e-05 8.62119e-05 9.95682e-05 0.000113169 0.000127015 0.000141105 0.00015544 0.000169794 0.000183942 0.000197883 0.000211618 0.000225147 0.00023847 0.000251586 0.000264496 0.000277001 0.000288902 0.0003002 0.000310894 0.000320985 0.000330472 0.000339355 0.000347634 0.000355201 0.000361945 0.000367865 0.000372964 0.000377239 0.000380692 0.000383321 0.000385128 0.000386122 0.000386311 0.000385695 0.000384275 0.00038205 0.000379021 0.000375187 0.000370548 0.000365221 0.00035932 0.000352846 0.000345798 0.000338177 0.000329983 0.000321215 0.000311873 0.000302133 0.000292171 0.000281986 0.000271578 0.000260947 0.000250093 0.000239017 0.000227717 0.000216369 0.000205144 0.000194042 0.000183065 0.000172211 0.000161482 0.000150875 0.000140393 0.000130147 0.000120251 0.000110703 0.000101504 9.2655e-05 8.41547e-05 7.60034e-05 6.82012e-05 6.07559e-05 5.36751e-05 4.69588e-05 4.0607e-05 3.46198e-05 2.89971e-05 2.3739e-05 1.88454e-05 1.44285e-05 1.06005e-05 7.36147e-06 4.71134e-06 2.65013e-06 1.17783e-06 2.94459e-07 0 0 -6.30806e-07 -2.52322e-06 -5.67725e-06 -1.00929e-05 -1.57701e-05 -2.2709e-05 -3.09095e-05 -4.03716e-05 -5.01474e-05 -5.92892e-05 -6.7797e-05 -7.56707e-05 -8.29103e-05 -8.95159e-05 -9.54874e-05 -0.000100825 -0.000105366 -0.000108948 -0.00011157 -0.000113234 -0.000113939 -0.000113684 -0.000112471 -0.000110298 -0.000107062 -0.000102658 -9.70864e-05 -9.03469e-05 -8.24396e-05 -7.33645e-05 -6.31215e-05 -5.17107e-05 -3.9245e-05 -2.58373e-05 -1.14875e-05 3.80441e-06 2.00383e-05 3.72143e-05 5.53324e-05 7.43925e-05 9.41148e-05 0.000114219 0.000134706 0.000155575 0.000176827 0.00019846 0.000220476 0.000242875 0.000265303 0.000287409 0.000309193 0.000330654 0.000351793 0.000372609 0.000393103 0.000413275 0.000432814 0.00045141 0.000469063 0.000485772 0.000501539 0.000516362 0.000530242 0.000543179 0.000555001 0.000565538 0.00057479 0.000582756 0.000589436 0.00059483 0.00059894 0.000601763 0.000603315 0.00060361 0.000602648 0.000600429 0.000596953 0.00059222 0.000586229 0.000578982 0.000570658 0.000561438 0.000551322 0.00054031 0.000528402 0.000515598 0.000501898 0.000487302 0.000472083 0.000456517 0.000440603 0.00042434 0.000407729 0.000390771 0.000373464 0.000355809 0.000338076 0.000320537 0.000303191 0.000286039 0.00026908 0.000252315 0.000235743 0.000219364 0.000203355 0.000187892 0.000172974 0.000158601 0.000144774 0.000131492 0.000118755 0.000106564 9.49311e-05 8.38673e-05 7.33731e-05 6.34484e-05 5.40934e-05 4.5308e-05 3.70921e-05 2.94459e-05 2.25445e-05 1.65633e-05 1.15023e-05 7.36147e-06 4.14083e-06 1.84037e-06 4.60092e-07 0 0 -9.08361e-07 -3.63344e-06 -8.17524e-06 -1.45338e-05 -2.2709e-05 -3.2701e-05 -4.45097e-05 -5.81351e-05 -7.22123e-05 -8.53765e-05 -9.76277e-05 -0.000108966 -0.000119391 -0.000128903 -0.000137502 -0.000145188 -0.000151727 -0.000156884 -0.000160661 -0.000163057 -0.000164072 -0.000163705 -0.000161958 -0.000158829 -0.000154169 -0.000147828 -0.000139804 -0.0001301 -0.000118713 -0.000105645 -9.0895e-05 -7.44635e-05 -5.65129e-05 -3.72057e-05 -1.65419e-05 5.47835e-06 2.88552e-05 5.35886e-05 7.96786e-05 0.000107125 0.000135525 0.000164476 0.000193977 0.000224028 0.000254631 0.000285783 0.000317486 0.00034974 0.000382036 0.000413869 0.000445237 0.000476141 0.000506581 0.000536557 0.000566069 0.000595116 0.000623252 0.00065003 0.00067545 0.000699512 0.000722216 0.000743561 0.000763548 0.000782178 0.000799202 0.000814375 0.000827697 0.000839168 0.000848788 0.000856556 0.000862473 0.000866539 0.000868774 0.000869199 0.000867814 0.000864618 0.000859612 0.000852796 0.00084417 0.000833734 0.000821747 0.000808471 0.000793903 0.000778046 0.000760899 0.000742461 0.000722733 0.000701714 0.0006798 0.000657385 0.000634468 0.00061105 0.00058713 0.00056271 0.000537788 0.000512364 0.000486829 0.000461573 0.000436596 0.000411896 0.000387476 0.000363333 0.00033947 0.000315885 0.000292832 0.000270564 0.000249082 0.000228385 0.000208474 0.000189348 0.000171008 0.000153453 0.000136701 0.000120769 0.000105657 9.13658e-05 7.78945e-05 6.52435e-05 5.34127e-05 4.24021e-05 3.24641e-05 2.38512e-05 1.65633e-05 1.06005e-05 5.96279e-06 2.65013e-06 6.62532e-07 0 0 -1.23638e-06 -4.94552e-06 -1.11274e-05 -1.97821e-05 -3.09095e-05 -4.45097e-05 -6.05826e-05 -7.91283e-05 -9.8289e-05 -0.000116207 -0.000132882 -0.000148315 -0.000162504 -0.000175451 -0.000187155 -0.000197617 -0.000206517 -0.000213537 -0.000218678 -0.000221939 -0.00022332 -0.000222821 -0.000220442 -0.000216184 -0.000209841 -0.00020121 -0.000190289 -0.00017708 -0.000161582 -0.000143794 -0.000123718 -0.000101353 -7.69203e-05 -5.06411e-05 -2.25154e-05 7.45664e-06 3.92751e-05 7.29401e-05 0.000108451 0.000145809 0.000184465 0.00022387 0.000264024 0.000304928 0.00034658 0.000388983 0.000432134 0.000476035 0.000519994 0.000563322 0.000606017 0.000648081 0.000689513 0.000730314 0.000770482 0.000810019 0.000848316 0.000884763 0.000919363 0.000952114 0.000983016 0.00101207 0.00103927 0.00106463 0.0010878 0.00110846 0.00112659 0.0011422 0.00115529 0.00116587 0.00117392 0.00117946 0.0011825 0.00118308 0.00118119 0.00117684 0.00117003 0.00116075 0.00114901 0.0011348 0.00111849 0.00110042 0.00108059 0.00105901 0.00103567 0.00101057 0.000983719 0.000955111 0.000925284 0.000894774 0.000863581 0.000831707 0.00079915 0.00076591 0.000731989 0.000697385 0.000662629 0.000628252 0.000594255 0.000560637 0.000527397 0.000494537 0.000462056 0.000429954 0.000398576 0.000368268 0.000339028 0.000310858 0.000283756 0.000257724 0.00023276 0.000208866 0.000186065 0.00016438 0.000143811 0.000124359 0.000106023 8.88037e-05 7.27006e-05 5.77139e-05 4.41872e-05 3.24641e-05 2.25445e-05 1.44285e-05 8.11602e-06 3.60712e-06 9.0178e-07 0 0 -1.61486e-06 -6.45945e-06 -1.45338e-05 -2.58378e-05 -4.03716e-05 -5.81351e-05 -7.91283e-05 -0.000103351 -0.000128377 -0.00015178 -0.00017356 -0.000193717 -0.00021225 -0.000229161 -0.000244448 -0.000258112 -0.000269736 -0.000278906 -0.00028562 -0.000289879 -0.000291683 -0.000291031 -0.000287925 -0.000282363 -0.000274079 -0.000262805 -0.000248541 -0.000231288 -0.000211045 -0.000187813 -0.000161591 -0.000132379 -0.000100467 -6.61434e-05 -2.94079e-05 9.73929e-06 5.12981e-05 9.52687e-05 0.000141651 0.000190445 0.000240934 0.000292401 0.000344848 0.000398273 0.000452676 0.000508059 0.00056442 0.000621759 0.000679176 0.000735767 0.000791533 0.000846474 0.000900589 0.000953879 0.00100634 0.00105798 0.001108 0.00115561 0.0012008 0.00124358 0.00128394 0.00132189 0.00135742 0.00139054 0.0014208 0.00144778 0.00147146 0.00149185 0.00150896 0.00152277 0.00153329 0.00154051 0.00154449 0.00154524 0.00154278 0.0015371 0.0015282 0.00151608 0.00150075 0.00148219 0.00146088 0.00143728 0.00141138 0.00138319 0.00135271 0.00131993 0.00128486 0.00124749 0.00120853 0.00116868 0.00112794 0.00108631 0.00104379 0.00100037 0.000956067 0.00091087 0.000865475 0.000820575 0.00077617 0.00073226 0.000688846 0.000645926 0.000603502 0.000561573 0.00052059 0.000481003 0.000442812 0.000406018 0.00037062 0.000336619 0.000304014 0.000272805 0.000243024 0.0002147 0.000187835 0.000162428 0.000138479 0.000115988 9.49559e-05 7.53814e-05 5.77139e-05 4.24021e-05 2.94459e-05 1.88454e-05 1.06005e-05 4.71134e-06 1.17783e-06 0 0 -2.00714e-06 -8.02855e-06 -1.80642e-05 -3.21142e-05 -5.01784e-05 -7.22569e-05 -9.83497e-05 -0.000128457 -0.000159555 -0.000188622 -0.000215658 -0.000240662 -0.000263635 -0.000284576 -0.000303485 -0.000320364 -0.00033469 -0.000345944 -0.000354125 -0.000359235 -0.000361271 -0.000360236 -0.000356128 -0.000348947 -0.000338361 -0.000324037 -0.000305975 -0.000284174 -0.000258635 -0.000229358 -0.000196343 -0.000159589 -0.000119459 -7.63158e-05 -3.01586e-05 1.90122e-05 7.11967e-05 0.000126395 0.000184607 0.000245833 0.000309175 0.000373738 0.00043952 0.000506522 0.000574745 0.000644187 0.000714849 0.000786731 0.000858705 0.00092964 0.000999538 0.0010684 0.00113622 0.00120301 0.00126875 0.00133346 0.00139614 0.00145579 0.00151241 0.00156601 0.00161658 0.00166412 0.00170864 0.00175012 0.00178804 0.00182183 0.00185149 0.00187703 0.00189844 0.00191573 0.0019289 0.00193794 0.0019429 0.00194382 0.00194072 0.00193357 0.0019224 0.00190719 0.00188794 0.00186466 0.00183793 0.00180831 0.00177582 0.00174045 0.0017022 0.00166107 0.00161706 0.00157017 0.00152129 0.00147128 0.00142014 0.00136788 0.0013145 0.00126 0.00120437 0.00114762 0.00109061 0.00103421 0.000978426 0.000923254 0.000868694 0.000814747 0.000761411 0.000708688 0.000657143 0.000607341 0.000559283 0.000512968 0.000468397 0.000425569 0.000384485 0.000345144 0.000307585 0.000271847 0.000237928 0.000205829 0.00017555 0.000147092 0.000120453 9.56343e-05 7.322e-05 5.37943e-05 3.73572e-05 2.39086e-05 1.34486e-05 5.97714e-06 1.49429e-06 0 0 -2.37653e-06 -9.50611e-06 -2.13887e-05 -3.80244e-05 -5.94132e-05 -8.5555e-05 -0.00011645 -0.000152098 -0.0001889 -0.000223257 -0.00025517 -0.000284638 -0.000311662 -0.000336241 -0.000358375 -0.000378064 -0.000394683 -0.000407606 -0.000416832 -0.000422362 -0.000424196 -0.000422333 -0.000416774 -0.000407518 -0.00039417 -0.000376332 -0.000354005 -0.000327188 -0.000295882 -0.000260086 -0.000219802 -0.000175027 -0.000126201 -7.3761e-05 -1.77069e-05 4.19613e-05 0.000105243 0.00017214 0.00024265 0.000316774 0.000393432 0.000471545 0.000551113 0.000632135 0.000714611 0.000798542 0.000883928 0.000970768 0.0010577 0.00114338 0.00122779 0.00131094 0.00139282 0.00147345 0.00155281 0.0016309 0.00170654 0.00177852 0.00184685 0.00191152 0.00197253 0.00202988 0.00208358 0.00213362 0.00217934 0.00222008 0.00225584 0.00228662 0.00231242 0.00233325 0.00234909 0.00235995 0.00236589 0.00236695 0.00236314 0.00235445 0.00234089 0.00232246 0.00229915 0.00227097 0.00223861 0.00220276 0.00216343 0.00212061 0.00207431 0.00202452 0.00197124 0.00191448 0.00185528 0.00179472 0.00173277 0.00166945 0.00160476 0.00153869 0.00147124 0.00140242 0.00133327 0.00126483 0.00119711 0.00113011 0.00106382 0.000998245 0.000933388 0.000869247 0.000806507 0.000745854 0.000687288 0.000630809 0.000576416 0.000524111 0.000473892 0.00042576 0.000379759 0.000335935 0.000294288 0.000254818 0.000217524 0.000182407 0.000149466 0.000118702 9.08814e-05 6.677e-05 4.63681e-05 2.96756e-05 1.66925e-05 7.41889e-06 1.85472e-06 0 0 -2.72303e-06 -1.08921e-05 -2.45073e-05 -4.35685e-05 -6.80758e-05 -9.80291e-05 -0.000133429 -0.000174274 -0.000216411 -0.000255686 -0.000292097 -0.000325646 -0.000356332 -0.000384155 -0.000409116 -0.000431214 -0.000449716 -0.000463892 -0.000473741 -0.000479262 -0.000480456 -0.000477324 -0.000469864 -0.000458077 -0.000441505 -0.00041969 -0.000392631 -0.00036033 -0.000322786 -0.000279998 -0.000231968 -0.000178694 -0.000120693 -5.84791e-05 7.94739e-06 7.85865e-05 0.000153438 0.000232502 0.000315779 0.000403269 0.000493706 0.000585825 0.000679626 0.00077511 0.000872276 0.000971124 0.00107165 0.00117387 0.00127617 0.00137698 0.00147628 0.00157409 0.00167039 0.0017652 0.0018585 0.00195031 0.00203921 0.00212381 0.00220411 0.0022801 0.00235178 0.00241916 0.00248224 0.00254101 0.0025947 0.00264254 0.00268451 0.00272064 0.0027509 0.00277531 0.00279386 0.00280656 0.00281346 0.00281462 0.00281004 0.00279973 0.00278369 0.0027619 0.00273438 0.00270112 0.00266294 0.00262063 0.00257422 0.00252369 0.00246904 0.00241027 0.00234739 0.0022804 0.00221052 0.002139 0.00206583 0.00199101 0.00191455 0.00183644 0.00175668 0.00167528 0.00159345 0.00151243 0.00143222 0.00135282 0.00127421 0.00119642 0.00111943 0.00104325 0.000968683 0.000896543 0.000826829 0.000759541 0.000694679 0.000632244 0.000572234 0.000514651 0.000459545 0.000406967 0.000356916 0.000309394 0.0002644 0.000221934 0.000181996 0.000144585 0.000110698 8.13292e-05 5.64786e-05 3.61463e-05 2.03323e-05 9.03658e-06 2.25914e-06 0 0 -3.04665e-06 -1.21866e-05 -2.74199e-05 -4.87464e-05 -7.61663e-05 -0.00010968 -0.000149286 -0.000194986 -0.000242089 -0.000285907 -0.000326439 -0.000363685 -0.000397645 -0.00042832 -0.000455708 -0.000479811 -0.000499789 -0.000514802 -0.00052485 -0.000529934 -0.000530053 -0.000525207 -0.000515397 -0.000500622 -0.000480366 -0.00045411 -0.000421855 -0.0003836 -0.000339347 -0.000289094 -0.000232842 -0.000170591 -0.000102935 -3.04702e-05 4.68041e-05 0.000128888 0.000215781 0.000307484 0.000403995 0.000505317 0.000609995 0.000716576 0.00082506 0.000935448 0.00104774 0.00116193 0.00127803 0.00139603 0.00151411 0.00163044 0.00174502 0.00185785 0.00196893 0.00207826 0.00218585 0.00229168 0.00239415 0.00249166 0.00258419 0.00267176 0.00275435 0.00283197 0.00290463 0.00297231 0.00303413 0.0030892 0.00313751 0.00317907 0.00321387 0.00324192 0.00326321 0.00327775 0.0032856 0.00328683 0.00328144 0.00326942 0.00325077 0.00322551 0.00319362 0.00315511 0.0031109 0.00306193 0.00300818 0.00294967 0.00288639 0.00281834 0.00274552 0.00266794 0.002587 0.00250413 0.00241931 0.00233256 0.00224388 0.00215325 0.00206069 0.00196619 0.00187116 0.00177702 0.00168376 0.00159138 0.00149989 0.00140927 0.00131954 0.0012307 0.00114367 0.00105941 0.000977904 0.000899164 0.000823185 0.000749968 0.000679512 0.000611818 0.000546942 0.00048494 0.000425813 0.000369559 0.000316179 0.000265673 0.000218041 0.000173283 0.00013267 9.74718e-05 6.76888e-05 4.33208e-05 2.4368e-05 1.08302e-05 2.70755e-06 0 0 -3.34739e-06 -1.33896e-05 -3.01265e-05 -5.35582e-05 -8.36848e-05 -0.000120506 -0.000164022 -0.000214233 -0.000265934 -0.000313922 -0.000358196 -0.000398756 -0.000435602 -0.000468734 -0.000498153 -0.000523857 -0.000544901 -0.000560335 -0.000570161 -0.000574378 -0.000572985 -0.000565984 -0.000553374 -0.000535155 -0.000510753 -0.000479592 -0.000441674 -0.000396998 -0.000345564 -0.000287373 -0.000222423 -0.000150716 -7.29272e-05 1.02659e-05 9.88634e-05 0.000192865 0.000292272 0.000397083 0.000507298 0.000622918 0.000742299 0.000863798 0.000987414 0.00111315 0.001241 0.00137097 0.00150306 0.00163726 0.00177152 0.00190377 0.002034 0.00216223 0.00228844 0.00241264 0.00253483 0.00265501 0.00277136 0.00288206 0.0029871 0.00308649 0.00318022 0.00326831 0.00335074 0.00342752 0.00349763 0.00356007 0.00361483 0.00366192 0.00370134 0.00373308 0.00375715 0.00377354 0.00378233 0.00378359 0.00377731 0.0037635 0.00374216 0.00371329 0.00367688 0.00363294 0.00358251 0.00352664 0.00346533 0.00339857 0.00332637 0.00324872 0.00316563 0.0030771 0.00298472 0.0028901 0.00279323 0.00269411 0.00259274 0.00248913 0.00238327 0.00227516 0.0021664 0.00205859 0.00195173 0.00184581 0.00174083 0.00163681 0.00153372 0.00143159 0.00133147 0.00123445 0.00114051 0.00104968 0.000961934 0.000877283 0.000795726 0.000717262 0.000641952 0.000569857 0.000500976 0.000435311 0.00037286 0.000313624 0.000257603 0.000204796 0.000156797 0.000115198 7.99986e-05 5.11991e-05 2.87995e-05 1.27998e-05 3.19994e-06 0 0 -3.62524e-06 -1.4501e-05 -3.26272e-05 -5.80039e-05 -9.06311e-05 -0.000130509 -0.000177637 -0.000232016 -0.000287946 -0.00033973 -0.000387367 -0.000430858 -0.000470201 -0.000505398 -0.000536449 -0.000563352 -0.000585053 -0.000600493 -0.000609673 -0.000612593 -0.000609254 -0.000599654 -0.000583794 -0.000561675 -0.000532666 -0.000496138 -0.00045209 -0.000400524 -0.000341439 -0.000274835 -0.000200712 -0.00011907 -3.06694e-05 6.3729e-05 0.000164125 0.000270519 0.000382911 0.000501301 0.000625688 0.000756073 0.00089062 0.00102749 0.00116669 0.00130821 0.00145206 0.00159823 0.00174673 0.00189755 0.0020484 0.00219696 0.00234323 0.00248722 0.00262892 0.00276833 0.00290547 0.00304031 0.00317084 0.00329501 0.00341283 0.0035243 0.00362941 0.00372817 0.00382057 0.00390662 0.00398519 0.00405514 0.00411648 0.0041692 0.0042133 0.00424879 0.00427566 0.00429392 0.00430363 0.00430489 0.00429767 0.00428199 0.00425784 0.00422523 0.00418415 0.00413461 0.00407776 0.00401477 0.00394565 0.00387037 0.00378896 0.00370141 0.00360772 0.00350788 0.00340368 0.00329691 0.00318757 0.00307564 0.00296114 0.00284407 0.00272442 0.00260219 0.00247917 0.00235715 0.00223612 0.00211609 0.00199705 0.00187901 0.00176197 0.00164592 0.00153208 0.00142166 0.00131466 0.00121108 0.00111093 0.00101419 0.000920875 0.000830981 0.000744573 0.000661716 0.000582408 0.000506651 0.000434444 0.000365787 0.000300681 0.000239124 0.00018308 0.000134508 9.3408e-05 5.97811e-05 3.36269e-05 1.49453e-05 3.73632e-06 0 0 -3.88021e-06 -1.55208e-05 -3.49219e-05 -6.20834e-05 -9.70053e-05 -0.000139688 -0.00019013 -0.000248334 -0.000308125 -0.000363331 -0.000413953 -0.000459991 -0.000501444 -0.000538312 -0.000570596 -0.000598296 -0.000620244 -0.000635274 -0.000643387 -0.000644581 -0.000638858 -0.000626217 -0.000606658 -0.000580182 -0.000546105 -0.000503745 -0.000453103 -0.000394178 -0.000326971 -0.000251481 -0.000167708 -7.56529e-05 2.38384e-05 0.000129919 0.000242589 0.000361849 0.000487698 0.000620137 0.000759164 0.000904782 0.00105496 0.00120766 0.00136288 0.00152064 0.00168092 0.00184372 0.00200905 0.00217691 0.00234475 0.00251001 0.0026727 0.00283282 0.00299036 0.00314534 0.00329774 0.00344757 0.00359258 0.00373052 0.00386139 0.00398518 0.0041019 0.00421155 0.00431413 0.00440964 0.00449682 0.00457442 0.00464245 0.00470089 0.00474976 0.00478905 0.00481876 0.00483889 0.00484952 0.00485073 0.00484251 0.00482488 0.00479782 0.00476134 0.00471544 0.00466012 0.00459666 0.00452633 0.00444914 0.00436509 0.00427418 0.00417641 0.00407177 0.00396028 0.00384389 0.00372458 0.00360234 0.00347717 0.00334909 0.00321807 0.00308414 0.00294727 0.00280947 0.00267269 0.00253694 0.00240223 0.00226855 0.0021359 0.00200428 0.0018737 0.0017455 0.00162105 0.00150034 0.00138338 0.00127016 0.00116069 0.00105496 0.000952977 0.000854807 0.000760517 0.000670108 0.000583579 0.00050093 0.000422162 0.000347275 0.000276268 0.000211517 0.000155401 0.000107917 6.90669e-05 3.88501e-05 1.72667e-05 4.31668e-06 0 0 -4.1123e-06 -1.64492e-05 -3.70107e-05 -6.57967e-05 -0.000102807 -0.000148043 -0.000201503 -0.000263187 -0.00032647 -0.000384726 -0.000437954 -0.000486156 -0.000529329 -0.000567476 -0.000600595 -0.000628687 -0.000650474 -0.000664679 -0.000671301 -0.000670341 -0.000661798 -0.000645673 -0.000621966 -0.000590676 -0.00055107 -0.000502416 -0.000444712 -0.00037796 -0.00030216 -0.00021731 -0.000123412 -2.04649e-05 9.05961e-05 0.000208836 0.000334256 0.000466855 0.000606633 0.000753591 0.000907727 0.00106904 0.00123531 0.0014043 0.001576 0.00175043 0.00192757 0.00210744 0.00229003 0.00247533 0.00266056 0.00284292 0.00302241 0.00319903 0.00337278 0.00354366 0.00371166 0.0038768 0.00403659 0.00418858 0.00433276 0.00446914 0.0045977 0.00471846 0.00483141 0.00493656 0.00503251 0.00511791 0.00519274 0.00525701 0.00531071 0.00535385 0.00538643 0.00540845 0.00541998 0.00542111 0.00541184 0.00539217 0.0053621 0.00532162 0.00527075 0.00520947 0.00513919 0.0050613 0.00497581 0.00488272 0.00478202 0.00467372 0.00455781 0.0044343 0.00430534 0.00417308 0.00403753 0.0038987 0.00375656 0.00361114 0.00346242 0.00331041 0.00315729 0.00300521 0.00285419 0.00270423 0.00255532 0.00240746 0.00226066 0.00211492 0.00197173 0.00183261 0.00169756 0.00156656 0.00143964 0.00131678 0.00119798 0.00108325 0.000972652 0.000866261 0.000764075 0.000666095 0.000572319 0.00048275 0.000397385 0.000316226 0.00024211 0.000177877 0.000123526 7.90565e-05 4.44693e-05 1.97641e-05 4.94103e-06 0 0 -4.31647e-06 -1.72659e-05 -3.88483e-05 -6.90636e-05 -0.000107912 -0.000155393 -0.000211507 -0.000276254 -0.00034258 -0.00040343 -0.000458804 -0.000508703 -0.000553126 -0.000592074 -0.000625545 -0.000653542 -0.000674672 -0.000687547 -0.000692165 -0.000688528 -0.000676636 -0.000656487 -0.000628083 -0.000591422 -0.000545725 -0.000490209 -0.000424874 -0.00034972 -0.000264747 -0.000169955 -6.53447e-05 4.90846e-05 0.000172307 0.000303297 0.000442055 0.000588581 0.000742875 0.000904936 0.00107476 0.00125236 0.00143529 0.00162113 0.00180988 0.00200153 0.00219609 0.00239355 0.00259393 0.0027972 0.00300034 0.00320029 0.00339706 0.00359064 0.00378103 0.00396825 0.00415227 0.00433311 0.00450808 0.00467448 0.00483231 0.00498158 0.00512228 0.00525441 0.00537798 0.00549299 0.00559792 0.00569128 0.00577306 0.00584327 0.00590191 0.00594897 0.00598445 0.00600836 0.00602077 0.00602178 0.00601137 0.00598956 0.00595633 0.00591169 0.00585565 0.00578819 0.00571084 0.00562511 0.00553101 0.00542853 0.00531767 0.00519844 0.00507084 0.00493486 0.00479284 0.00464715 0.00449777 0.00434471 0.00418796 0.00402753 0.00386341 0.00369562 0.00352651 0.00335846 0.00319147 0.00302555 0.00286068 0.00269688 0.00253414 0.00237246 0.00221351 0.00205893 0.00190874 0.00176293 0.00162149 0.00148444 0.00135177 0.00122349 0.00109965 0.000980346 0.000865565 0.00075531 0.000649581 0.000548378 0.000451701 0.00035955 0.000275281 0.000202247 0.000140449 8.98876e-05 5.05618e-05 2.24719e-05 5.61797e-06 0 0 -4.48772e-06 -1.79509e-05 -4.03894e-05 -7.18034e-05 -0.000112193 -0.000161558 -0.000219898 -0.000287214 -0.000356052 -0.00041896 -0.000475938 -0.000526985 -0.000572102 -0.000611289 -0.000644546 -0.000671872 -0.000691764 -0.000702715 -0.000704727 -0.000697799 -0.000681931 -0.000657123 -0.000623375 -0.000580688 -0.000528233 -0.000465185 -0.000391542 -0.000307305 -0.000212473 -0.000107048 8.97197e-06 0.000135586 0.000271675 0.000416118 0.000568917 0.000730071 0.00089958 0.00107744 0.00126366 0.00145824 0.00165853 0.00186191 0.00206837 0.00227791 0.00249053 0.00270624 0.00292503 0.0031469 0.00336856 0.00358669 0.00380131 0.00401241 0.00422 0.00442406 0.00462461 0.00482163 0.00501223 0.00519347 0.00536536 0.0055279 0.00568109 0.00582492 0.00595941 0.00608455 0.0061987 0.00630022 0.00638913 0.00646542 0.00652909 0.00658014 0.00661857 0.00664438 0.00665765 0.00665846 0.00664682 0.00662273 0.00658618 0.00653717 0.00647571 0.0064018 0.00631706 0.00622315 0.00612005 0.00600778 0.00588632 0.00575569 0.00561587 0.00546688 0.00531124 0.0051515 0.00498765 0.00481971 0.00464765 0.0044715 0.00429124 0.00410688 0.003921 0.00373616 0.00355238 0.00336964 0.00318796 0.00300733 0.00282774 0.00264921 0.00247355 0.00230259 0.00213632 0.00197474 0.00181786 0.00166567 0.00151818 0.00137538 0.00123736 0.00110417 0.000975832 0.000852336 0.000733684 0.000619876 0.000510912 0.000406792 0.00031145 0.00022882 0.000158903 0.000101698 5.72051e-05 2.54245e-05 6.35612e-06 0 0 -4.62602e-06 -1.85041e-05 -4.16342e-05 -7.40164e-05 -0.000115651 -0.000166537 -0.000226675 -0.000296066 -0.000366886 -0.000431316 -0.000489355 -0.000541002 -0.000586258 -0.000625123 -0.000657597 -0.000683679 -0.000701749 -0.000710184 -0.000708985 -0.000698152 -0.000677683 -0.000647581 -0.000607843 -0.000558472 -0.000498595 -0.000427344 -0.000344717 -0.000250716 -0.00014534 -2.85882e-05 9.95381e-05 0.000239039 0.000388699 0.0005473 0.000714842 0.000891325 0.00107675 0.00127112 0.00147442 0.00168667 0.00190502 0.00212661 0.00235146 0.00257955 0.0028109 0.00304549 0.00328334 0.00352443 0.00376522 0.00400214 0.00423518 0.00446436 0.00468967 0.0049111 0.00512867 0.00534237 0.00554905 0.00574556 0.00593192 0.00610811 0.00627413 0.00643 0.00657569 0.00671123 0.00683483 0.00694474 0.00704095 0.00712345 0.00719226 0.00724738 0.00728879 0.0073165 0.0073306 0.00733116 0.00731819 0.00729168 0.00725164 0.00719806 0.00713095 0.0070503 0.00695787 0.00685543 0.00674296 0.00662048 0.00648798 0.00634546 0.00619292 0.00603036 0.00586052 0.00568612 0.00550718 0.00532369 0.00513565 0.00494305 0.00474591 0.00454422 0.00434076 0.00413833 0.00393691 0.00373652 0.00353715 0.0033388 0.00314147 0.00294516 0.00275187 0.00256358 0.0023803 0.00220202 0.00202874 0.00186047 0.0016972 0.00153894 0.00138576 0.00123774 0.00109488 0.000957174 0.000824629 0.000697244 0.000575018 0.000457951 0.000350619 0.000257597 0.000178887 0.000114488 6.43993e-05 2.86219e-05 7.15548e-06 0 0 -4.7314e-06 -1.89256e-05 -4.25826e-05 -7.57024e-05 -0.000118285 -0.00017033 -0.000231839 -0.00030281 -0.000375083 -0.000440498 -0.000499055 -0.000550753 -0.000595593 -0.000633575 -0.000664698 -0.000688963 -0.000704629 -0.000709955 -0.000704941 -0.000689587 -0.000663894 -0.000627861 -0.000581487 -0.000524774 -0.00045681 -0.000376686 -0.0002844 -0.000179953 -6.33453e-05 6.54236e-05 0.000206354 0.000359445 0.00052338 0.000696841 0.000879829 0.00107234 0.00127438 0.00148595 0.00170705 0.00193767 0.00217476 0.00241525 0.00265916 0.00290647 0.00315719 0.00341132 0.00366885 0.0039298 0.00419033 0.00444662 0.00469867 0.00494647 0.00519004 0.00542937 0.00566446 0.00589531 0.00611854 0.00633076 0.00653198 0.0067222 0.00690142 0.00706963 0.00722683 0.00737304 0.00750634 0.00762482 0.0077285 0.00781737 0.00789143 0.00795068 0.00799511 0.00802474 0.00803964 0.0080398