<?xml version="1.0"?> 
<VTKFile type="StructuredGrid" version="0.1"> 
<StructuredGrid WholeExtent="0 128 0 128 0 0"> 
<Piece Extent="0 128 0 128 0 0"> 
<PointData>
<DataArray type="Float32" Name="u" format="ascii" NumberOfComponents="1"> 
0 0 0 0 0 0 0 0 0 0 0 0 0 0 0 0 0 0 0 0 0 0 0 0 0 0 0 0 0 0 0 0 0 0 0 0 0 0 0 0 0 0 0 0 0 0 0 0 0 0 0 0 0 0 0 0 0 0 0 0 0 0 0 0 0 0 0 0 0 0 0 0 0 0 0 0 0 0 0 0 0 0 0 0 0 0 0 0 0 0 0 0 0 0 0 0 0 0 0 0 0 0 0 0 0 0 0 0 0 0 0 0 0 0 0 0 0 0 0 0 0 0 0 0 0 0 0 0 0 0 4.272e-08 1.7088e-07 3.8448e-07 6.83519e-07 1.068e-06 1.53792e-06 2.09328e-06 2.73408e-06 3.42488e-06 4.13023e-06 4.85014e-06 5.58461e-06 6.33363e-06 7.09721e-06 7.87534e-06 8.66803e-06 9.47553e-06 1.02981e-05 1.11357e-05 1.19884e-05 1.28562e-05 1.3739e-05 1.46368e-05 1.55498e-05 1.6472e-05 1.73979e-05 1.83273e-05 1.92603e-05 2.01969e-05 2.11371e-05 2.20809e-05 2.30282e-05 2.39734e-05 2.49105e-05 2.58396e-05 2.67607e-05 2.76738e-05 2.85789e-05 2.9476e-05 3.03651e-05 3.12406e-05 3.20968e-05 3.29339e-05 3.37518e-05 3.45504e-05 3.53299e-05 3.60902e-05 3.68312e-05 3.7548e-05 3.82354e-05 3.88935e-05 3.95222e-05 4.01216e-05 4.06916e-05 4.12322e-05 4.17435e-05 4.22214e-05 4.26617e-05 4.30646e-05 4.343e-05 4.37578e-05 4.40482e-05 4.4301e-05 4.45164e-05 4.46918e-05 4.48247e-05 4.49151e-05 4.49631e-05 4.49687e-05 4.49317e-05 4.48524e-05 4.47305e-05 4.45659e-05 4.43581e-05 4.41072e-05 4.38131e-05 4.3476e-05 4.30957e-05 4.26722e-05 4.22057e-05 4.16982e-05 4.11521e-05 4.05672e-05 3.99437e-05 3.92814e-05 3.85805e-05 3.78409e-05 3.70626e-05 3.62506e-05 3.54099e-05 3.45404e-05 3.36422e-05 3.27152e-05 3.17595e-05 3.07751e-05 2.97619e-05 2.87277e-05 2.76801e-05 2.66191e-05 2.55449e-05 2.44572e-05 2.33562e-05 2.22419e-05 2.11142e-05 1.99831e-05 1.88585e-05 1.77405e-05 1.6629e-05 1.55241e-05 1.44257e-05 1.33339e-05 1.22486e-05 1.11723e-05 1.01075e-05 9.0542e-06 8.01241e-06 6.98212e-06 5.96332e-06 4.95602e-06 3.96022e-06 3.03204e-06 2.22762e-06 1.54696e-06 9.90055e-07 5.56906e-07 2.47514e-07 6.18784e-08 0 0 1.7088e-07 6.83519e-07 1.53792e-06 2.73408e-06 4.272e-06 6.15168e-06 8.37311e-06 1.09363e-05 1.36995e-05 1.65209e-05 1.94006e-05 2.23384e-05 2.53345e-05 2.83888e-05 3.15014e-05 3.46721e-05 3.79021e-05 4.11924e-05 4.45429e-05 4.79536e-05 5.14246e-05 5.49559e-05 5.85474e-05 6.21991e-05 6.58882e-05 6.95915e-05 7.33092e-05 7.70413e-05 8.07877e-05 8.45484e-05 8.83235e-05 9.21129e-05 9.58935e-05 9.9642e-05 0.000103359 0.000107043 0.000110695 0.000114316 0.000117904 0.00012146 0.000124962 0.000128387 0.000131736 0.000135007 0.000138202 0.00014132 0.000144361 0.000147325 0.000150192 0.000152942 0.000155574 0.000158089 0.000160486 0.000162766 0.000164929 0.000166974 0.000168886 0.000170647 0.000172258 0.00017372 0.000175031 0.000176193 0.000177204 0.000178066 0.000178767 0.000179299 0.000179661 0.000179853 0.000179875 0.000179727 0.000179409 0.000178922 0.000178263 0.000177432 0.000176429 0.000175253 0.000173904 0.000172383 0.000170689 0.000168823 0.000166793 0.000164608 0.000162269 0.000159775 0.000157126 0.000154322 0.000151364 0.00014825 0.000145002 0.000141639 0.000138162 0.000134569 0.000130861 0.000127038 0.0001231 0.000119048 0.000114911 0.00011072 0.000106477 0.000102179 9.78289e-05 9.34249e-05 8.89675e-05 8.44567e-05 7.99323e-05 7.54341e-05 7.0962e-05 6.65161e-05 6.20963e-05 5.77028e-05 5.33354e-05 4.89942e-05 4.46891e-05 4.043e-05 3.62168e-05 3.20496e-05 2.79285e-05 2.38533e-05 1.98241e-05 1.58409e-05 1.21282e-05 8.91049e-06 6.18784e-06 3.96022e-06 2.22762e-06 9.90055e-07 2.47514e-07 0 0 3.8448e-07 1.53792e-06 3.46032e-06 6.15168e-06 9.61199e-06 1.38413e-05 1.88395e-05 2.46067e-05 3.08239e-05 3.71721e-05 4.36513e-05 5.02614e-05 5.70027e-05 6.38749e-05 7.08781e-05 7.80123e-05 8.52798e-05 9.26829e-05 0.000100221 0.000107896 0.000115705 0.000123651 0.000131732 0.000139948 0.000148248 0.000156581 0.000164946 0.000173343 0.000181772 0.000190234 0.000198728 0.000207254 0.00021576 0.000224195 0.000232557 0.000240847 0.000249065 0.00025721 0.000265284 0.000273286 0.000281165 0.000288871 0.000296405 0.000303766 0.000310954 0.000317969 0.000324811 0.000331481 0.000337932 0.000344119 0.000350042 0.0003557 0.000361094 0.000366224 0.00037109 0.000375692 0.000379992 0.000383956 0.000387581 0.00039087 0.00039382 0.000396434 0.000398709 0.000400648 0.000402226 0.000403422 0.000404236 0.000404668 0.000404718 0.000404386 0.000403671 0.000402575 0.000401093 0.000399223 0.000396965 0.000394318 0.000391284 0.000387861 0.00038405 0.000379851 0.000375284 0.000370369 0.000365105 0.000359493 0.000353533 0.000347225 0.000340568 0.000333564 0.000326255 0.000318689 0.000310863 0.000302779 0.000294437 0.000285835 0.000276975 0.000267857 0.000258549 0.000249121 0.000239572 0.000229904 0.000220115 0.000210206 0.000200177 0.000190028 0.000179848 0.000169727 0.000159664 0.000149661 0.000139717 0.000129831 0.000120005 0.000110237 0.00010055 9.09674e-05 8.14878e-05 7.21117e-05 6.28391e-05 5.36699e-05 4.46042e-05 3.5642e-05 2.72884e-05 2.00486e-05 1.39226e-05 8.91049e-06 5.01215e-06 2.22762e-06 5.56906e-07 0 0 6.83519e-07 2.73408e-06 6.15168e-06 1.09363e-05 1.7088e-05 2.46067e-05 3.34925e-05 4.37452e-05 5.4798e-05 6.60837e-05 7.76022e-05 8.93537e-05 0.000101338 0.000113555 0.000126005 0.000138689 0.000151609 0.00016477 0.000178172 0.000191815 0.000205699 0.000219823 0.000234189 0.000248796 0.000263553 0.000278366 0.000293237 0.000308165 0.000323151 0.000338194 0.000353294 0.000368452 0.000383574 0.000398568 0.000413434 0.000428172 0.000442782 0.000457263 0.000471616 0.000485841 0.000499849 0.000513549 0.000526942 0.000540028 0.000552807 0.000565278 0.000577442 0.000589299 0.000600768 0.000611767 0.000622296 0.000632356 0.000641945 0.000651065 0.000659716 0.000667896 0.000675542 0.000682588 0.000689034 0.000694879 0.000700125 0.000704771 0.000708817 0.000712262 0.000715068 0.000717195 0.000718642 0.00071941 0.000719499 0.000718908 0.000717638 0.000715688 0.000713054 0.000709729 0.000705715 0.00070101 0.000695616 0.000689531 0.000682756 0.000675291 0.000667171 0.000658433 0.000649075 0.000639099 0.000628503 0.000617288 0.000605455 0.000593002 0.00058001 0.000566558 0.000552646 0.000538274 0.000523443 0.000508152 0.000492401 0.00047619 0.000459642 0.000442881 0.000425906 0.000408718 0.000391316 0.0003737 0.00035587 0.000337827 0.000319729 0.000301736 0.000283848 0.000266064 0.000248385 0.000230811 0.000213342 0.000195977 0.000178756 0.00016172 0.000144867 0.000128199 0.000111714 9.54131e-05 7.92963e-05 6.33635e-05 4.85127e-05 3.5642e-05 2.47514e-05 1.58409e-05 8.91049e-06 3.96022e-06 9.90055e-07 0 0 1.068e-06 4.272e-06 9.61199e-06 1.7088e-05 2.67e-05 3.8448e-05 5.2332e-05 6.83519e-05 8.56219e-05 0.000103256 0.000121253 0.000139615 0.000158341 0.00017743 0.000196884 0.000216701 0.000236888 0.000257452 0.000278393 0.00029971 0.000321404 0.000343474 0.000365921 0.000388744 0.000411801 0.000434947 0.000458183 0.000481508 0.000504923 0.000528428 0.000552022 0.000575706 0.000599334 0.000622763 0.000645991 0.000669019 0.000691846 0.000714473 0.0007369 0.000759127 0.000781014 0.000802421 0.000823347 0.000843794 0.00086376 0.000883247 0.000902254 0.00092078 0.0009387 0.000955886 0.000972338 0.000988056 0.00100304 0.00101729 0.00103081 0.00104359 0.00105553 0.00106654 0.00107662 0.00108575 0.00109395 0.0011012 0.00110753 0.00111291 0.00111729 0.00112062 0.00112288 0.00112408 0.00112422 0.00112329 0.00112131 0.00111826 0.00111415 0.00110895 0.00110268 0.00109533 0.0010869 0.00107739 0.00106681 0.00105514 0.00104246 0.0010288 0.00101418 0.000998592 0.000982036 0.000964513 0.000946023 0.000926565 0.000906265 0.000885247 0.000863509 0.000841054 0.00081788 0.000793987 0.000769376 0.000744047 0.000718191 0.000692002 0.000665479 0.000638622 0.000611431 0.000583906 0.000556047 0.000527855 0.000499577 0.000471463 0.000443512 0.000415725 0.000388102 0.000360642 0.000333346 0.000306214 0.000279307 0.000252687 0.000226355 0.00020031 0.000174553 0.000149083 0.000123901 9.90055e-05 7.58011e-05 5.56906e-05 3.8674e-05 2.47514e-05 1.39226e-05 6.18784e-06 1.54696e-06 0 0 1.53792e-06 6.15168e-06 1.38413e-05 2.46067e-05 3.8448e-05 5.53651e-05 7.5358e-05 9.84268e-05 0.000123296 0.000148688 0.000174605 0.000201046 0.000228011 0.000255499 0.000283512 0.000312049 0.000341119 0.000370731 0.000400886 0.000431583 0.000462822 0.000494603 0.000526926 0.000559792 0.000592993 0.000626324 0.000659783 0.000693372 0.000727089 0.000760936 0.000794912 0.000829017 0.000863042 0.000896778 0.000930227 0.000963387 0.000996258 0.00102884 0.00106114 0.00109314 0.00112466 0.00115549 0.00118562 0.00121506 0.00124382 0.00127188 0.00129925 0.00132592 0.00135173 0.00137648 0.00140017 0.0014228 0.00144438 0.0014649 0.00148436 0.00150277 0.00151997 0.00153582 0.00155033 0.00156348 0.00157528 0.00158573 0.00159484 0.00160259 0.0016089 0.00161369 0.00161695 0.00161867 0.00161887 0.00161754 0.00161468 0.0016103 0.00160437 0.00159689 0.00158786 0.00157727 0.00156514 0.00155144 0.0015362 0.0015194 0.00150114 0.00148147 0.00146042 0.00143797 0.00141413 0.0013889 0.00136227 0.00133425 0.00130502 0.00127476 0.00124345 0.00121112 0.00117775 0.00114334 0.0011079 0.00107143 0.0010342 0.000996483 0.000958289 0.000919615 0.00088046 0.000840824 0.000800708 0.000760111 0.000719391 0.000678907 0.000638658 0.000598645 0.000558867 0.000519325 0.000480019 0.000440948 0.000402202 0.00036387 0.000325951 0.000288447 0.000251356 0.00021468 0.000178417 0.000142568 0.000109154 8.01944e-05 5.56906e-05 3.5642e-05 2.00486e-05 8.91049e-06 2.22762e-06 0 0 2.09328e-06 8.37311e-06 1.88395e-05 3.34925e-05 5.2332e-05 7.5358e-05 0.000102571 0.00013397 0.000167819 0.000202381 0.000237657 0.000273646 0.000310348 0.000347763 0.000385892 0.000424734 0.000464301 0.000504607 0.00054565 0.000587432 0.000629952 0.000673209 0.000717205 0.000761939 0.00080713 0.000852496 0.000898038 0.000943756 0.000989649 0.00103572 0.00108196 0.00112838 0.0011747 0.00122062 0.00126614 0.00131128 0.00135602 0.00140037 0.00144432 0.00148789 0.00153079 0.00157274 0.00161376 0.00165384 0.00169297 0.00173116 0.00176842 0.00180473 0.00183985 0.00187354 0.00190578 0.00193659 0.00196596 0.00199389 0.00202038 0.00204543 0.00206885 0.00209043 0.00211017 0.00212807 0.00214413 0.00215836 0.00217075 0.0021813 0.0021899 0.00219641 0.00220084 0.00220319 0.00220346 0.00220166 0.00219777 0.00219179 0.00218373 0.00217355 0.00216125 0.00214684 0.00213032 0.00211169 0.00209094 0.00206808 0.00204321 0.00201645 0.00198779 0.00195724 0.00192479 0.00189045 0.0018542 0.00181607 0.00177628 0.00173508 0.00169248 0.00164847 0.00160304 0.00155622 0.00150798 0.00145833 0.00140766 0.00135632 0.00130434 0.0012517 0.0011984 0.00114446 0.00108985 0.0010346 0.000979171 0.000924067 0.000869284 0.000814822 0.00076068 0.000706859 0.000653359 0.000600179 0.000547441 0.000495267 0.000443656 0.000392608 0.000342124 0.000292203 0.000242845 0.000194051 0.00014857 0.000109154 7.58011e-05 4.85127e-05 2.72884e-05 1.21282e-05 3.03204e-06 0 0 2.73408e-06 1.09363e-05 2.46067e-05 4.37452e-05 6.83519e-05 9.84268e-05 0.00013397 0.000174981 0.000219192 0.000264335 0.000310409 0.000357415 0.000405352 0.000454221 0.000504022 0.000554754 0.000606434 0.000659078 0.000712686 0.000767258 0.000822794 0.000879294 0.000936758 0.000995186 0.00105421 0.00111346 0.00117295 0.00123266 0.0012926 0.00135278 0.00141318 0.00147381 0.0015343 0.00159427 0.00165374 0.00171269 0.00177113 0.00182905 0.00188647 0.00194337 0.0019994 0.0020542 0.00210777 0.00216011 0.00221123 0.00226111 0.00230977 0.0023572 0.00240307 0.00244707 0.00248918 0.00252942 0.00256778 0.00260426 0.00263886 0.00267159 0.00270217 0.00273035 0.00275613 0.00277952 0.0028005 0.00281908 0.00283527 0.00284905 0.00286027 0.00286878 0.00287457 0.00287764 0.002878 0.00287563 0.00287055 0.00286275 0.00285222 0.00283892 0.00282286 0.00280404 0.00278246 0.00275812 0.00273102 0.00270116 0.00266869 0.00263373 0.0025963 0.00255639 0.00251401 0.00246915 0.00242182 0.00237201 0.00232004 0.00226623 0.00221058 0.0021531 0.00209377 0.00203261 0.0019696 0.00190476 0.00183857 0.00177153 0.00170363 0.00163487 0.00156526 0.0014948 0.00142348 0.00135131 0.00127892 0.00120694 0.00113539 0.00106426 0.000993542 0.000923245 0.000853367 0.000783907 0.000715025 0.000646879 0.000579469 0.000512794 0.000446856 0.000381653 0.000317185 0.000253454 0.000194051 0.000142568 9.90055e-05 6.33635e-05 3.5642e-05 1.58409e-05 3.96022e-06 0 0 3.42423e-06 1.36969e-05 3.08181e-05 5.47877e-05 8.56058e-05 0.000123272 0.000167787 0.000219151 0.00027452 0.000331051 0.000388745 0.000447601 0.00050762 0.000568801 0.000631144 0.00069465 0.000759339 0.000825233 0.000892332 0.000960636 0.00103014 0.00110086 0.00117277 0.0012459 0.00131976 0.00139392 0.00146836 0.00154308 0.00161809 0.00169339 0.00176898 0.00184484 0.00192054 0.00199558 0.00206999 0.00214376 0.00221688 0.00228936 0.0023612 0.00243239 0.0025025 0.00257106 0.00263809 0.00270358 0.00276754 0.00282995 0.00289083 0.00295017 0.00300756 0.00306261 0.0031153 0.00316564 0.00321363 0.00325927 0.00330255 0.00334349 0.00338175 0.003417 0.00344926 0.00347851 0.00350475 0.00352799 0.00354823 0.00356547 0.00357951 0.00359014 0.00359738 0.00360121 0.00360165 0.00359868 0.00359232 0.00358255 0.00356936 0.00355272 0.00353262 0.00350906 0.00348206 0.0034516 0.00341769 0.00338032 0.00333968 0.00329594 0.0032491 0.00319916 0.00314613 0.00309 0.00303077 0.00296844 0.00290342 0.00283609 0.00276646 0.00269453 0.0026203 0.00254377 0.00246494 0.0023838 0.00230099 0.0022171 0.00213214 0.00204611 0.00195901 0.00187084 0.0017816 0.0016913 0.00160072 0.00151066 0.00142112 0.00133211 0.00124362 0.00115565 0.0010682 0.000981279 0.000895076 0.000809789 0.000725419 0.000641965 0.000559428 0.000477808 0.000397104 0.000317316 0.000242945 0.00017849 0.000123952 7.93291e-05 4.46226e-05 1.98323e-05 4.95807e-06 0 0 4.12766e-06 1.65107e-05 3.7149e-05 6.60426e-05 0.000103192 0.000148596 0.000202255 0.00026417 0.000330908 0.000399034 0.000468549 0.000539453 0.000611746 0.000685429 0.0007605 0.000836961 0.000914838 0.00099416 0.00107493 0.00115714 0.0012408 0.0013259 0.00141245 0.00150044 0.00158932 0.00167855 0.00176811 0.00185802 0.00194827 0.00203886 0.00212978 0.00222105 0.00231211 0.00240239 0.00249189 0.00258062 0.00266857 0.00275575 0.00284216 0.00292779 0.0030121 0.00309457 0.00317518 0.00325395 0.00333086 0.00340592 0.00347912 0.00355048 0.0036195 0.00368569 0.00374905 0.00380958 0.00386728 0.00392215 0.00397419 0.00402341 0.0040694 0.00411178 0.00415055 0.00418571 0.00421725 0.00424519 0.00426951 0.00429021 0.00430707 0.00431984 0.00432852 0.00433311 0.00433361 0.00433002 0.00432235 0.00431058 0.00429469 0.00427465 0.00425046 0.00422211 0.00418962 0.00415296 0.00411216 0.0040672 0.00401831 0.00396569 0.00390934 0.00384927 0.00378548 0.00371796 0.00364672 0.00357175 0.00349353 0.00341255 0.00332881 0.00324229 0.00315301 0.00306096 0.00296614 0.00286856 0.00276895 0.00266805 0.00256586 0.00246239 0.00235762 0.00225157 0.00214424 0.00203561 0.00192665 0.00181832 0.00171061 0.00160353 0.00149707 0.00139123 0.00128603 0.00118144 0.00107771 0.000975078 0.000873534 0.00077308 0.000673718 0.000575446 0.000478266 0.000382176 0.000292604 0.000214974 0.000149288 9.5544e-05 5.37435e-05 2.3886e-05 5.9715e-06 0 0 4.84436e-06 1.93775e-05 4.35993e-05 7.75098e-05 0.000121109 0.000174397 0.000237374 0.000310039 0.000388355 0.000468282 0.000549821 0.000632971 0.000717732 0.000804105 0.00089209 0.000981686 0.00107293 0.00116586 0.00126047 0.00135677 0.00145475 0.00155442 0.00165577 0.00175881 0.00186288 0.00196735 0.00207221 0.00217747 0.00228312 0.00238917 0.0024956 0.00260244 0.00270901 0.00281467 0.00291943 0.00302327 0.00312621 0.00322823 0.00332935 0.00342955 0.00352821 0.00362471 0.00371904 0.0038112 0.00390118 0.003989 0.00407466 0.00415814 0.00423888 0.00431631 0.00439043 0.00446123 0.00452873 0.00459291 0.00465378 0.00471134 0.00476513 0.00481469 0.00486002 0.00490113 0.00493801 0.00497066 0.00499908 0.00502328 0.00504297 0.00505787 0.00506799 0.00507333 0.00507388 0.00506965 0.00506063 0.00504683 0.00502821 0.00500473 0.00497639 0.00494319 0.00490513 0.00486222 0.00481445 0.00476182 0.00470458 0.00464299 0.00457704 0.00450673 0.00443206 0.00435304 0.00426966 0.00418192 0.00409039 0.00399562 0.00389761 0.00379637 0.00369189 0.00358417 0.00347321 0.00335902 0.00324246 0.00312438 0.0030048 0.00288371 0.0027611 0.00263699 0.00251138 0.00238425 0.00225673 0.00212993 0.00200386 0.00187852 0.0017539 0.00163 0.00150684 0.00138439 0.00126294 0.00114275 0.00102381 0.00090614 0.000789724 0.000674568 0.000560671 0.000448033 0.000343026 0.000252019 0.000175013 0.000112008 6.30047e-05 2.80021e-05 7.00052e-06 0 0 5.57434e-06 2.22974e-05 5.0169e-05 8.91894e-05 0.000139358 0.000200676 0.000273143 0.000356758 0.000446862 0.000538796 0.00063256 0.000728154 0.000825577 0.000924831 0.00102591 0.00112883 0.00123362 0.00134033 0.00144897 0.00155953 0.00167201 0.00178642 0.00190275 0.00202101 0.00214045 0.00226033 0.00238066 0.00250144 0.00262266 0.00274432 0.00286643 0.00298899 0.00311124 0.00323245 0.00335261 0.00347172 0.00358978 0.0037068 0.00382276 0.00393768 0.00405083 0.00416149 0.00426966 0.00437533 0.00447852 0.00457922 0.00467742 0.00477314 0.0048657 0.00495447 0.00503944 0.00512061 0.00519798 0.00527155 0.00534132 0.00540728 0.00546893 0.00552572 0.00557767 0.00562476 0.00566701 0.00570441 0.00573696 0.00576466 0.00578719 0.00580424 0.0058158 0.00582187 0.00582246 0.00581756 0.00580718 0.00579131 0.00576991 0.00574294 0.0057104 0.00567229 0.00562861 0.00557937 0.00552455 0.00546416 0.00539849 0.00532783 0.00525217 0.00517152 0.00508587 0.00499523 0.0048996 0.00479897 0.00469398 0.00458529 0.00447288 0.00435677 0.00423694 0.0041134 0.00398615 0.00385519 0.00372151 0.00358609 0.00344895 0.00331006 0.00316945 0.0030271 0.00288302 0.00273721 0.00259094 0.0024455 0.00230088 0.00215708 0.00201411 0.00187196 0.00173063 0.00159013 0.00145075 0.0013128 0.00117626 0.00104114 0.000907448 0.000775174 0.000644321 0.000514888 0.000394211 0.000289625 0.000201128 0.000128722 7.24061e-05 3.21805e-05 8.04513e-06 0 0 6.31759e-06 2.52703e-05 5.68583e-05 0.000101081 0.00015794 0.000227433 0.000309562 0.000404326 0.000506429 0.000610576 0.000716767 0.000825002 0.000935281 0.0010476 0.00116197 0.00127838 0.0013969 0.00151757 0.00164041 0.00176541 0.00189257 0.0020219 0.00215339 0.00228703 0.00242201 0.00255749 0.00269345 0.00282992 0.00296687 0.00310433 0.00324227 0.00338071 0.00351881 0.00365572 0.00379143 0.00392596 0.0040593 0.00419145 0.00432241 0.00445218 0.00457995 0.00470491 0.00482704 0.00494636 0.00506286 0.00517655 0.00528742 0.00539548 0.00549997 0.00560018 0.00569609 0.00578771 0.00587503 0.00595806 0.0060368 0.00611124 0.0061808 0.00624488 0.00630349 0.00635661 0.00640427 0.00644644 0.00648314 0.00651436 0.00653975 0.00655894 0.00657194 0.00657874 0.00657935 0.00657376 0.00656198 0.00654401 0.00651979 0.00648929 0.0064525 0.00640942 0.00636005 0.0063044 0.00624246 0.00617423 0.00610005 0.00602022 0.00593476 0.00584365 0.00574692 0.00564454 0.00553653 0.00542288 0.00530432 0.00518156 0.00505462 0.00492349 0.00478817 0.00464866 0.00450496 0.00435707 0.00420611 0.00405319 0.00389831 0.00374146 0.00358266 0.0034219 0.00325918 0.00309449 0.00292929 0.00276501 0.00260165 0.00243921 0.00227769 0.0021171 0.00195742 0.00179866 0.00164116 0.00148522 0.00133087 0.00117809 0.00102689 0.000877263 0.000729214 0.00058274 0.000446161 0.000327792 0.000227633 0.000145685 8.19479e-05 3.64213e-05 9.10532e-06 0 0 7.07411e-06 2.82964e-05 6.3667e-05 0.000113186 0.000176853 0.000254668 0.000346631 0.000452743 0.000567055 0.000683622 0.000802442 0.000923516 0.00104684 0.00117243 0.00130026 0.00143035 0.00156277 0.00169758 0.0018348 0.00197442 0.00211644 0.00226086 0.00240767 0.00255689 0.00270758 0.00285882 0.00301059 0.00316291 0.00331577 0.00346918 0.00362312 0.00377761 0.00393171 0.00408447 0.0042359 0.00438599 0.00453476 0.00468219 0.00482829 0.00497305 0.00511558 0.00525496 0.00539119 0.00552428 0.00565422 0.00578101 0.00590466 0.00602516 0.00614169 0.00625343 0.00636038 0.00646253 0.00655989 0.00665246 0.00674023 0.00682322 0.00690075 0.00697217 0.00703748 0.00709668 0.00714977 0.00719675 0.00723762 0.00727238 0.00730063 0.00732198 0.00733641 0.00734393 0.00734455 0.00733825 0.00732505 0.00730493 0.00727786 0.00724377 0.00720268 0.00715457 0.00709946 0.00703733 0.00696819 0.00689204 0.00680924 0.00672015 0.00662478 0.00652313 0.00641519 0.00630097 0.00618045 0.00605366 0.00592139 0.00578444 0.00564282 0.00549653 0.00534557 0.00518994 0.00502964 0.00486466 0.00469626 0.00452566 0.00435288 0.0041779 0.00400074 0.00382138 0.00363984 0.0034561 0.00327178 0.00308848 0.00290619 0.00272491 0.00254466 0.00236542 0.00218719 0.00200998 0.00183415 0.00166003 0.00148765 0.00131698 0.00114805 0.000980836 0.000815351 0.00065159 0.000498874 0.00036652 0.000254527 0.000162898 9.16299e-05 4.07244e-05 1.01811e-05 0 0 7.8439e-06 3.13756e-05 7.05951e-05 0.000125502 0.000196097 0.00028238 0.000384351 0.00050201 0.000628742 0.000757934 0.000889585 0.0010237 0.00116027 0.0012993 0.00144079 0.00158474 0.00173123 0.00188037 0.00203214 0.00218656 0.0023436 0.00250329 0.00266562 0.00283058 0.00299716 0.00316432 0.00333207 0.00350042 0.00366935 0.00383887 0.00400898 0.00417968 0.00434994 0.00451871 0.00468601 0.00485182 0.00501616 0.00517901 0.00534039 0.00550029 0.00565771 0.00581165 0.00596211 0.00610908 0.00625258 0.00639259 0.00652913 0.00666218 0.00679085 0.00691422 0.00703229 0.00714507 0.00725255 0.00735473 0.00745162 0.0075432 0.00762877 0.00770758 0.00777965 0.00784496 0.00790353 0.00795534 0.00800041 0.00803873 0.00806985 0.00809335 0.00810921 0.00811745 0.00811805 0.00811103 0.00809637 0.00807408 0.00804411 0.0080064 0.00796095 0.00790775 0.00784682 0.00777814 0.00770173 0.00761757 0.00752607 0.00742763 0.00732226 0.00720995 0.0070907 0.00696451 0.00683138 0.00669131 0.00654519 0.00639392 0.00623749 0.0060759 0.00590915 0.00573725 0.00556018 0.00537796 0.00519195 0.00500352 0.00481266 0.00461938 0.00442368 0.00422555 0.00402501 0.00382204 0.00361841 0.00341589 0.00321449 0.00301419 0.002815 0.00261692 0.00241995 0.00222409 0.00202972 0.00183722 0.00164659 0.00145782 0.00127092 0.00108589 0.000902731 0.000721438 0.000552351 0.000405809 0.000281812 0.000180359 0.000101452 4.50899e-05 1.12725e-05 0 0 8.62697e-06 3.45079e-05 7.76427e-05 0.000138031 0.000215674 0.000310571 0.000422721 0.000552126 0.000691488 0.000833511 0.000978196 0.00112554 0.00127555 0.00142822 0.00158355 0.00174154 0.00190229 0.00206593 0.00223243 0.00240182 0.00257408 0.00274921 0.00292721 0.0031081 0.00329073 0.003474 0.0036579 0.00384244 0.00402761 0.00421341 0.00439985 0.00458692 0.00477349 0.00495844 0.00514175 0.00532344 0.0055035 0.00568193 0.00585873 0.0060339 0.00620635 0.00637497 0.00653978 0.00670078 0.00685795 0.0070113 0.00716084 0.00730655 0.00744746 0.00758255 0.00771184 0.00783533 0.00795301 0.00806488 0.00817095 0.0082712 0.00836486 0.00845113 0.00852999 0.00860146 0.00866554 0.00872222 0.0087715 0.00881339 0.0088474 0.00887305 0.00889035 0.00889929 0.00889987 0.00889209 0.00887595 0.00885146 0.00881855 0.00877716 0.0087273 0.00866896 0.00860214 0.00852685 0.00844308 0.00835083 0.00825054 0.00814266 0.00802718 0.00790411 0.00777343 0.00763516 0.00748929 0.00733583 0.00717574 0.00701 0.00683862 0.00666159 0.0064789 0.00629057 0.0060966 0.00589697 0.00569319 0.00548675 0.00527765 0.0050659 0.00485149 0.00463441 0.00441468 0.00419229 0.00396918 0.00374726 0.00352655 0.00330703 0.00308872 0.00287161 0.0026557 0.00244099 0.00222789 0.00201679 0.00180769 0.0016006 0.00139552 0.00119243 0.000991356 0.000792283 0.000606591 0.000445659 0.000309485 0.000198071 0.000111415 4.95177e-05 1.23794e-05 0 0 9.42294e-06 3.76918e-05 8.48065e-05 0.000150767 0.000235574 0.000339226 0.000461724 0.000603068 0.000755266 0.000910323 0.00106824 0.00122902 0.00139266 0.00155916 0.00172852 0.00190074 0.00207594 0.00225426 0.00243569 0.00262023 0.00280788 0.00299865 0.00319252 0.00338951 0.00358839 0.00378795 0.00398819 0.0041891 0.00439068 0.00459295 0.00479589 0.0049995 0.00520256 0.00540384 0.00560334 0.00580106 0.005997 0.00619116 0.00638353 0.00657412 0.00676174 0.00694521 0.0071245 0.00729964 0.00747062 0.00763743 0.00780008 0.00795858 0.00811183 0.00825876 0.00839936 0.00853365 0.00866161 0.00878326 0.00889858 0.00900758 0.00910939 0.00920316 0.00928888 0.00936655 0.00943617 0.00949775 0.00955127 0.00959675 0.00963366 0.00966147 0.0096802 0.00968983 0.00969037 0.00968182 0.00966417 0.00963744 0.00960155 0.00955644 0.00950211 0.00943856 0.00936579 0.0092838 0.00919259 0.00909217 0.008983 0.00886557 0.00873988 0.00860593 0.00846371 0.00831324 0.0081545 0.0079875 0.0078133 0.00763296 0.00744647 0.00725384 0.00705507 0.00685015 0.00663909 0.00642188 0.00620016 0.00597554 0.00574802 0.0055176 0.00528429 0.00504807 0.00480896 0.00456696 0.00432415 0.00408263 0.0038424 0.00360347 0.00336583 0.00312948 0.00289442 0.00266066 0.00242861 0.00219869 0.00197092 0.00174528 0.00152178 0.00130041 0.00108118 0.000864091 0.000661569 0.000486051 0.000337535 0.000216023 0.000121513 5.40057e-05 1.35014e-05 0 0 1.02315e-05 4.09259e-05 9.20833e-05 0.000163704 0.000255787 0.000368333 0.000501342 0.000654814 0.000820047 0.000988339 0.00115969 0.0013341 0.00151157 0.0016921 0.00187568 0.00206233 0.00225218 0.00244538 0.00264193 0.00284182 0.00304507 0.00325166 0.00346161 0.0036749 0.00389023 0.00410627 0.00432303 0.00454051 0.0047587 0.00497761 0.00519724 0.00541758 0.00563732 0.00585512 0.00607098 0.0062849 0.00649688 0.00670693 0.00691504 0.00712121 0.00732416 0.00752261 0.00771654 0.00790596 0.00809088 0.00827128 0.00844718 0.00861857 0.00878428 0.00894315 0.00909518 0.00924036 0.00937871 0.00951021 0.00963486 0.00975268 0.00986272 0.00996405 0.0100567 0.0101406 0.0102158 0.0102823 0.0103401 0.0103892 0.010429 0.010459 0.0104791 0.0104895 0.0104899 0.0104806 0.0104614 0.0104324 0.0103935 0.0103446 0.0102857 0.0102169 0.0101381 0.0100494 0.00995063 0.00984193 0.00972378 0.00959669 0.00946068 0.00931573 0.00916185 0.00899904 0.0088273 0.00864662 0.00845816 0.00826305 0.0080613 0.00785291 0.00763787 0.00741619 0.00718787 0.0069529 0.00671304 0.00647004 0.0062239 0.00597462 0.0057222 0.00546664 0.00520794 0.0049461 0.00468339 0.00442205 0.0041621 0.00390352 0.00364634 0.00339053 0.0031361 0.00288306 0.00263184 0.00238289 0.00213621 0.0018918 0.00164965 0.00140978 0.00117217 0.000936828 0.000717259 0.000526966 0.000365948 0.000234207 0.000131741 5.85517e-05 1.46379e-05 0 0 1.10526e-05 4.42102e-05 9.9473e-05 0.000176841 0.000276314 0.000397892 0.000541575 0.000707364 0.000885833 0.00106756 0.00125254 0.00144078 0.00163228 0.00182703 0.00202504 0.00222631 0.002431 0.00263928 0.00285114 0.00306659 0.00328563 0.00350825 0.00373446 0.00396426 0.00419623 0.00442895 0.00466243 0.00489667 0.00513166 0.00536741 0.00560391 0.00584117 0.00607776 0.00631225 0.00654465 0.00677494 0.00700315 0.00722925 0.00745326 0.00767517 0.0078936 0.00810718 0.00831589 0.00851974 0.00871873 0.00891285 0.00910212 0.00928653 0.00946482 0.00963574 0.00979929 0.00995547 0.0101043 0.0102457 0.0103798 0.0105065 0.0106248 0.0107338 0.0108334 0.0109236 0.0110044 0.0110759 0.011138 0.0111907 0.0112334 0.0112656 0.0112872 0.0112982 0.0112986 0.0112884 0.0112677 0.0112363 0.0111943 0.0111416 0.0110782 0.011004 0.0109191 0.0108235 0.0107172 0.0106001 0.0104729 0.010336 0.0101896 0.0100335 0.00986785 0.00969257 0.00950768 0.00931319 0.00911031 0.00890029 0.00868311 0.00845879 0.00822732 0.0079887 0.00774293 0.00749001 0.00723183 0.00697026 0.00670531 0.00643696 0.00616524 0.00589012 0.00561162 0.00532974 0.00504689 0.00476552 0.00448562 0.0042072 0.00393024 0.00365476 0.00338074 0.0031082 0.0028376 0.00256939 0.00230358 0.00204017 0.00177915 0.00152054 0.00126432 0.00101049 0.000773659 0.000568403 0.000394724 0.000252623 0.000142101 6.31559e-05 1.5789e-05 0 0 1.18862e-05 4.75448e-05 0.000106976 0.000190179 0.000297155 0.000427903 0.000582423 0.000760716 0.000952622 0.00114798 0.0013468 0.00154907 0.00175479 0.00196397 0.0021766 0.00239268 0.00261241 0.00283596 0.00306334 0.00329454 0.00352956 0.00376841 0.00401109 0.00425759 0.0045064 0.004756 0.00500639 0.00525758 0.00550956 0.00576233 0.0060159 0.00627026 0.00652388 0.00677525 0.00702436 0.0072712 0.00751579 0.00775812 0.00799819 0.00823599 0.00847006 0.00869892 0.00892255 0.00914097 0.00935417 0.00956215 0.00976491 0.00996245 0.0101534 0.0103365 0.0105117 0.010679 0.0108384 0.0109898 0.0111334 0.0112691 0.0113958 0.0115124 0.011619 0.0117156 0.0118021 0.0118785 0.0119449 0.0120013 0.012047 0.0120813 0.0121043 0.012116 0.0121163 0.0121053 0.0120829 0.0120492 0.0120041 0.0119476 0.0118795 0.0117999 0.0117088 0.0116063 0.0114922 0.0113667 0.0112303 0.0110836 0.0109266 0.0107593 0.0105817 0.0103938 0.0101957 0.00998719 0.00976976 0.00954466 0.0093119 0.00907148 0.00882341 0.00856768 0.00830428 0.00803323 0.00775654 0.0074762 0.00719223 0.00690463 0.00661339 0.00631851 0.00602 0.00571785 0.00541467 0.00511305 0.00481299 0.00451448 0.00421754 0.00392216 0.00362835 0.00333609 0.00304587 0.00275818 0.00247302 0.00219038 0.00191027 0.00163268 0.00135762 0.00108509 0.000830771 0.000610362 0.000423863 0.000271272 0.000152591 6.7818e-05 1.69545e-05 0 0 1.27324e-05 5.09295e-05 0.000114591 0.000203718 0.000318309 0.000458365 0.000623886 0.000814872 0.00102042 0.00122961 0.00144246 0.00165895 0.0018791 0.0021029 0.00233035 0.00256145 0.00279641 0.00303543 0.00327851 0.00352566 0.00377687 0.00403215 0.00429149 0.00455489 0.00482074 0.00508741 0.00535492 0.00562325 0.00589241 0.0061624 0.00643321 0.00670485 0.0069757 0.00724411 0.00751011 0.00777367 0.00803481 0.00829353 0.00854982 0.00880368 0.00905354 0.00929783 0.00953653 0.00976965 0.0099972 0.0102192 0.0104355 0.0106464 0.0108501 0.0110455 0.0112324 0.0114109 0.0115809 0.0117425 0.0118956 0.0120403 0.0121755 0.0122999 0.0124135 0.0125165 0.0126087 0.0126902 0.0127609 0.012821 0.0128696 0.0129061 0.0129306 0.0129429 0.0129431 0.0129312 0.0129072 0.0128711 0.0128229 0.0127624 0.0126896 0.0126045 0.0125072 0.0