<?xml version="1.0"?> 
<VTKFile type="StructuredGrid" version="0.1"> 
<StructuredGrid WholeExtent="0 128 0 128 0 0"> 
<Piece Extent="0 128 0 128 0 0"> 
<PointData>
<DataArray type="Float32" Name="u" format="ascii" NumberOfComponents="1"> 
0 0 0 0 0 0 0 0 0 0 0 0 0 0 0 0 0 0 0 0 0 0 0 0 0 0 0 0 0 0 0 0 0 0 0 0 0 0 0 0 0 0 0 0 0 0 0 0 0 0 0 0 0 0 0 0 0 0 0 0 0 0 0 0 0 0 0 0 0 0 0 0 0 0 0 0 0 0 0 0 0 0 0 0 0 0 0 0 0 0 0 0 0 0 0 0 0 0 0 0 0 0 0 0 0 0 0 0 0 0 0 0 0 0 0 0 0 0 0 0 0 0 0 0 0 0 0 0 0 0 5.0777e-08 2.03108e-07 4.56993e-07 8.12432e-07 1.26943e-06 1.82797e-06 2.48807e-06 3.24973e-06 4.06859e-06 4.90032e-06 5.7449e-06 6.60235e-06 7.47266e-06 8.35583e-06 9.25186e-06 1.01607e-05 1.10817e-05 1.20139e-05 1.29573e-05 1.39119e-05 1.48778e-05 1.58549e-05 1.68433e-05 1.78429e-05 1.88463e-05 1.98462e-05 2.08427e-05 2.18355e-05 2.28249e-05 2.38108e-05 2.47931e-05 2.57719e-05 2.67407e-05 2.76932e-05 2.86293e-05 2.9549e-05 3.04523e-05 3.13392e-05 3.22097e-05 3.30639e-05 3.38964e-05 3.47021e-05 3.5481e-05 3.62331e-05 3.69584e-05 3.76568e-05 3.83284e-05 3.89732e-05 3.95873e-05 4.01669e-05 4.0712e-05 4.12226e-05 4.16987e-05 4.21403e-05 4.25474e-05 4.292e-05 4.32558e-05 4.35525e-05 4.38101e-05 4.40287e-05 4.42083e-05 4.43487e-05 4.44501e-05 4.45124e-05 4.45351e-05 4.45177e-05 4.44601e-05 4.43624e-05 4.42245e-05 4.40465e-05 4.38283e-05 4.357e-05 4.32729e-05 4.29383e-05 4.25661e-05 4.21565e-05 4.17094e-05 4.12247e-05 4.07026e-05 4.01429e-05 3.9549e-05 3.8924e-05 3.8268e-05 3.75809e-05 3.68627e-05 3.61135e-05 3.53332e-05 3.45219e-05 3.36846e-05 3.28264e-05 3.19473e-05 3.10472e-05 3.01263e-05 2.91845e-05 2.82218e-05 2.72382e-05 2.62406e-05 2.52357e-05 2.42236e-05 2.32043e-05 2.21778e-05 2.11441e-05 2.01032e-05 1.9055e-05 1.8008e-05 1.69703e-05 1.5942e-05 1.49231e-05 1.39135e-05 1.29133e-05 1.19225e-05 1.09411e-05 9.97043e-06 9.01196e-06 8.06567e-06 7.13158e-06 6.20966e-06 5.29994e-06 4.4024e-06 3.51704e-06 2.69274e-06 1.97834e-06 1.37385e-06 8.79261e-07 4.94584e-07 2.19815e-07 5.49538e-08 0 0 2.03108e-07 8.12432e-07 1.82797e-06 3.24973e-06 5.0777e-06 7.31189e-06 9.95229e-06 1.29989e-05 1.62744e-05 1.96013e-05 2.29796e-05 2.64094e-05 2.98906e-05 3.34233e-05 3.70074e-05 4.0643e-05 4.43268e-05 4.80555e-05 5.18291e-05 5.56477e-05 5.95112e-05 6.34197e-05 6.73731e-05 7.13715e-05 7.53853e-05 7.9385e-05 8.33706e-05 8.73422e-05 9.12996e-05 9.5243e-05 9.91723e-05 0.000103088 0.000106963 0.000110773 0.000114517 0.000118196 0.000121809 0.000125357 0.000128839 0.000132255 0.000135586 0.000138809 0.000141924 0.000144932 0.000147833 0.000150627 0.000153314 0.000155893 0.000158349 0.000160668 0.000162848 0.000164891 0.000166795 0.000168561 0.00017019 0.00017168 0.000173023 0.00017421 0.000175241 0.000176115 0.000176833 0.000177395 0.0001778 0.00017805 0.00017814 0.000178071 0.00017784 0.000177449 0.000176898 0.000176186 0.000175313 0.00017428 0.000173092 0.000171753 0.000170265 0.000168626 0.000166837 0.000164899 0.00016281 0.000160572 0.000158196 0.000155696 0.000153072 0.000150324 0.000147451 0.000144454 0.000141333 0.000138088 0.000134738 0.000131305 0.000127789 0.000124189 0.000120505 0.000116738 0.000112887 0.000108953 0.000104962 0.000100943 9.68945e-05 9.28173e-05 8.87113e-05 8.45764e-05 8.04127e-05 7.62202e-05 7.2032e-05 6.78812e-05 6.3768e-05 5.96923e-05 5.5654e-05 5.16533e-05 4.76901e-05 4.37643e-05 3.98817e-05 3.60478e-05 3.22627e-05 2.85263e-05 2.48387e-05 2.11998e-05 1.76096e-05 1.40682e-05 1.07709e-05 7.91335e-06 5.49538e-06 3.51704e-06 1.97834e-06 8.79261e-07 2.19815e-07 0 0 4.56993e-07 1.82797e-06 4.11294e-06 7.31189e-06 1.14248e-05 1.64518e-05 2.23927e-05 2.92476e-05 3.66173e-05 4.41028e-05 5.17041e-05 5.94211e-05 6.72539e-05 7.52024e-05 8.32667e-05 9.14467e-05 9.97352e-05 0.000108125 0.000116616 0.000125207 0.0001339 0.000142694 0.00015159 0.000160586 0.000169617 0.000178616 0.000187584 0.00019652 0.000205424 0.000214297 0.000223138 0.000231947 0.000240667 0.000249239 0.000257663 0.000265941 0.00027407 0.000282053 0.000289888 0.000297575 0.000305068 0.000312319 0.000319329 0.000326098 0.000332625 0.000338911 0.000344956 0.000350759 0.000356286 0.000361502 0.000366408 0.000371004 0.000375289 0.000379263 0.000382927 0.00038628 0.000389302 0.000391972 0.000394291 0.000396259 0.000397874 0.000399138 0.000400051 0.000400612 0.000400816 0.000400659 0.000400141 0.000399261 0.000398021 0.000396418 0.000394455 0.00039213 0.000389456 0.000386444 0.000383095 0.000379408 0.000375384 0.000371023 0.000366323 0.000361287 0.000355941 0.000350316 0.000344412 0.000338228 0.000331765 0.000325022 0.000317999 0.000310697 0.000303161 0.000295437 0.000287525 0.000279425 0.000271137 0.000262661 0.000253996 0.000245144 0.000236165 0.000227121 0.000218013 0.000208839 0.0001996 0.000190297 0.000180929 0.000171495 0.000162072 0.000152733 0.000143478 0.000134308 0.000125222 0.00011622 0.000107303 9.84697e-05 8.97338e-05 8.11076e-05 7.25911e-05 6.41842e-05 5.5887e-05 4.76994e-05 3.96216e-05 3.16534e-05 2.42346e-05 1.7805e-05 1.23646e-05 7.91335e-06 4.45126e-06 1.97834e-06 4.94584e-07 0 0 8.12432e-07 3.24973e-06 7.31189e-06 1.29989e-05 2.03108e-05 2.92476e-05 3.98092e-05 5.19957e-05 6.50975e-05 7.84051e-05 9.19184e-05 0.000105638 0.000119563 0.000133693 0.00014803 0.000162572 0.000177307 0.000192222 0.000207316 0.000222591 0.000238045 0.000253679 0.000269493 0.000285486 0.000301541 0.00031754 0.000333482 0.000349369 0.000365198 0.000380972 0.000396689 0.00041235 0.000427852 0.000443091 0.000458068 0.000472783 0.000487236 0.000501427 0.000515356 0.000529022 0.000542343 0.000555234 0.000567696 0.00057973 0.000591334 0.000602509 0.000613254 0.000623571 0.000633397 0.000642671 0.000651393 0.000659562 0.00066718 0.000674245 0.000680759 0.00068672 0.000692092 0.00069684 0.000700962 0.00070446 0.000707332 0.000709579 0.000711201 0.000712198 0.000712562 0.000712283 0.000711362 0.000709798 0.000707592 0.000704744 0.000701253 0.00069712 0.000692366 0.000687012 0.000681058 0.000674504 0.00066735 0.000659596 0.000651241 0.000642287 0.000632784 0.000622785 0.000612288 0.000601294 0.000589804 0.000577816 0.000565332 0.00055235 0.000538953 0.000525222 0.000511156 0.000496756 0.000482021 0.000466952 0.000451549 0.000435812 0.000419849 0.000403771 0.000387578 0.000371269 0.000354845 0.000338306 0.000321651 0.000304881 0.000288128 0.000271525 0.000255072 0.000238769 0.000222616 0.000206613 0.00019076 0.000175057 0.000159527 0.000144191 0.000129051 0.000114105 9.93546e-05 8.4799e-05 7.04384e-05 5.62727e-05 4.30838e-05 3.16534e-05 2.19815e-05 1.40682e-05 7.91335e-06 3.51704e-06 8.79261e-07 0 0 1.26943e-06 5.0777e-06 1.14248e-05 2.03108e-05 3.17356e-05 4.56993e-05 6.22018e-05 8.12432e-05 0.000101715 0.000122508 0.000143623 0.000165059 0.000186816 0.000208896 0.000231296 0.000254019 0.000277042 0.000300347 0.000323932 0.000347798 0.000371945 0.000396373 0.000421082 0.000446072 0.000471158 0.000496156 0.000521066 0.000545888 0.000570623 0.000595269 0.000619827 0.000644297 0.000668518 0.00069233 0.000715732 0.000738724 0.000761307 0.00078348 0.000805243 0.000826597 0.00084741 0.000867553 0.000887026 0.000905828 0.000923959 0.00094142 0.00095821 0.00097433 0.000989683 0.00100417 0.0010178 0.00103057 0.00104247 0.00105351 0.00106369 0.001073 0.00108139 0.00108881 0.00109525 0.00110072 0.00110521 0.00110872 0.00111125 0.00111281 0.00111338 0.00111294 0.0011115 0.00110906 0.00110561 0.00110116 0.00109571 0.00108925 0.00108182 0.00107346 0.00106415 0.00105391 0.00104273 0.00103062 0.00101756 0.00100357 0.000988726 0.000973101 0.0009567 0.000939523 0.000921569 0.000902838 0.000883331 0.000863048 0.000842115 0.000820659 0.000798681 0.000776181 0.000753158 0.000729613 0.000705546 0.000680955 0.000656014 0.000630892 0.00060559 0.000580108 0.000554446 0.000528603 0.00050258 0.000476376 0.0004502 0.000424258 0.00039855 0.000373077 0.000347838 0.000322833 0.000298063 0.000273527 0.000249261 0.000225299 0.000201642 0.000178289 0.000155242 0.000132498 0.00011006 8.79261e-05 6.73184e-05 4.94584e-05 3.43461e-05 2.19815e-05 1.23646e-05 5.49538e-06 1.37385e-06 0 0 1.82797e-06 7.31189e-06 1.64518e-05 2.92476e-05 4.56993e-05 6.5807e-05 8.95706e-05 0.00011699 0.000146469 0.000176411 0.000206816 0.000237685 0.000269016 0.00030081 0.000333067 0.000365787 0.000398941 0.000432499 0.000466462 0.000500829 0.000535601 0.000570777 0.000606358 0.000642343 0.000678468 0.000714465 0.000750336 0.000786079 0.000821697 0.000857187 0.000892551 0.000927788 0.000962666 0.000996955 0.00103065 0.00106376 0.00109628 0.00112821 0.00115955 0.0011903 0.00122027 0.00124928 0.00127732 0.00130439 0.0013305 0.00135564 0.00137982 0.00140303 0.00142514 0.00144601 0.00146563 0.00148402 0.00150115 0.00151705 0.00153171 0.00154512 0.00155721 0.00156789 0.00157717 0.00158503 0.0015915 0.00159655 0.0016002 0.00160245 0.00160326 0.00160264 0.00160056 0.00159705 0.00159208 0.00158567 0.00157782 0.00156852 0.00155782 0.00154578 0.00153238 0.00151763 0.00150154 0.00148409 0.00146529 0.00144515 0.00142376 0.00140127 0.00137765 0.00135291 0.00132706 0.00130009 0.001272 0.00124279 0.00121265 0.00118175 0.0011501 0.0011177 0.00108455 0.00105064 0.00101599 0.000980576 0.00094466 0.000908485 0.00087205 0.000835356 0.000798402 0.000761188 0.000723715 0.000685982 0.000648288 0.000610931 0.000573912 0.00053723 0.000500886 0.00046488 0.000429211 0.000393879 0.000358935 0.00032443 0.000290364 0.000256737 0.000223548 0.000190798 0.000158486 0.000126614 9.69385e-05 7.12201e-05 4.94584e-05 3.16534e-05 1.7805e-05 7.91335e-06 1.97834e-06 0 0 2.48807e-06 9.95229e-06 2.23927e-05 3.98092e-05 6.22018e-05 8.95706e-05 0.000121916 0.000159237 0.000199361 0.000240115 0.0002815 0.000323515 0.00036616 0.000409435 0.000453341 0.000497877 0.000543003 0.000588679 0.000634907 0.000681684 0.000729013 0.000776891 0.000825321 0.000874301 0.00092347 0.000972466 0.00102129 0.00106994 0.00111842 0.00116673 0.00121486 0.00126282 0.0013103 0.00135697 0.00140283 0.0014479 0.00149216 0.00153562 0.00157828 0.00162013 0.00166092 0.0017004 0.00173857 0.00177542 0.00181096 0.00184518 0.00187809 0.00190969 0.00193978 0.00196818 0.00199489 0.00201991 0.00204324 0.00206488 0.00208482 0.00210308 0.00211953 0.00213407 0.0021467 0.00215741 0.0021662 0.00217309 0.00217805 0.00218111 0.00218222 0.00218137 0.00217854 0.00217376 0.002167 0.00215828 0.00214759 0.00213493 0.00212037 0.00210397 0.00208574 0.00206567 0.00204376 0.00202001 0.00199443 0.001967 0.0019379 0.00190728 0.00187513 0.00184146 0.00180627 0.00176956 0.00173133 0.00169157 0.00165054 0.00160849 0.00156542 0.00152131 0.00147619 0.00143004 0.00138287 0.00133467 0.00128579 0.00123655 0.00118696 0.00113701 0.00108671 0.00103606 0.000985056 0.000933697 0.000882391 0.000831545 0.000781158 0.00073123 0.000681762 0.000632753 0.000584203 0.000536113 0.000488551 0.000441586 0.000395218 0.000349447 0.000304274 0.000259697 0.000215718 0.000172335 0.000131944 9.69385e-05 6.73184e-05 4.30838e-05 2.42346e-05 1.07709e-05 2.69274e-06 0 0 3.24973e-06 1.29989e-05 2.92476e-05 5.19957e-05 8.12432e-05 0.00011699 0.000159237 0.000207983 0.00026039 0.00031362 0.000367674 0.00042255 0.00047825 0.000534773 0.000592119 0.000650288 0.000709228 0.000768887 0.000829266 0.000890363 0.00095218 0.00101472 0.00107797 0.00114194 0.00120616 0.00127016 0.00133393 0.00139747 0.00146079 0.00152389 0.00158676 0.0016494 0.00171141 0.00177236 0.00183227 0.00189113 0.00194895 0.00200571 0.00206142 0.00211609 0.00216937 0.00222094 0.00227079 0.00231892 0.00236533 0.00241003 0.00245302 0.00249428 0.00253359 0.00257068 0.00260557 0.00263825 0.00266872 0.00269698 0.00272303 0.00274688 0.00276837 0.00278736 0.00280385 0.00281784 0.00282933 0.00283832 0.00284481 0.00284879 0.00285025 0.00284913 0.00284545 0.00283919 0.00283037 0.00281898 0.00280501 0.00278848 0.00276947 0.00274805 0.00272423 0.00269802 0.0026694 0.00263838 0.00260497 0.00256915 0.00253114 0.00249114 0.00244915 0.00240518 0.00235922 0.00231127 0.00226133 0.0022094 0.00215581 0.00210089 0.00204462 0.00198702 0.00192809 0.00186781 0.0018062 0.00174325 0.0016794 0.00161508 0.00155031 0.00148508 0.00141938 0.00135322 0.0012866 0.00121952 0.00115251 0.0010861 0.00102029 0.000955076 0.000890465 0.000826453 0.000763041 0.000700229 0.000638107 0.000576765 0.000516203 0.000456421 0.000397418 0.000339196 0.000281753 0.000225091 0.000172335 0.000126614 8.79261e-05 5.62727e-05 3.16534e-05 1.40682e-05 3.51704e-06 0 0 4.06845e-06 1.62738e-05 3.66161e-05 6.50952e-05 0.000101711 0.000146464 0.000199354 0.000260381 0.000325989 0.000392624 0.000460285 0.000528973 0.000598687 0.000669427 0.000741193 0.000813986 0.000887741 0.000962395 0.00103795 0.0011144 0.00119175 0.00126999 0.00134914 0.00142918 0.00150953 0.0015896 0.00166939 0.00174889 0.00182811 0.00190705 0.0019857 0.00206408 0.00214165 0.00221792 0.00229287 0.00236651 0.00243883 0.00250985 0.00257955 0.00264794 0.0027146 0.00277911 0.00284147 0.00290169 0.00295976 0.00301568 0.00306945 0.00312108 0.00317025 0.00321665 0.0032603 0.00330118 0.0033393 0.00337465 0.00340725 0.00343708 0.00346396 0.00348772 0.00350834 0.00352584 0.00354022 0.00355146 0.00355958 0.00356456 0.00356638 0.00356498 0.00356037 0.00355255 0.00354151 0.00352725 0.00350978 0.0034891 0.00346531 0.00343851 0.00340872 0.00337592 0.00334011 0.00330131 0.0032595 0.00321469 0.00316714 0.0031171 0.00306457 0.00300955 0.00295205 0.00289206 0.00282959 0.00276463 0.00269758 0.00262887 0.00255848 0.00248642 0.00241268 0.00233727 0.00226019 0.00218144 0.00210155 0.0020211 0.00194006 0.00185844 0.00177625 0.00169348 0.00161013 0.0015262 0.00144236 0.00135927 0.00127693 0.00119533 0.00111449 0.00103439 0.000955047 0.00087645 0.000798714 0.00072195 0.000646159 0.000571339 0.000497491 0.000424616 0.000352712 0.000281781 0.000215739 0.000158502 0.000110071 7.04453e-05 3.96255e-05 1.76113e-05 4.40283e-06 0 0 4.89976e-06 1.9599e-05 4.40979e-05 7.83962e-05 0.000122494 0.000176391 0.000240088 0.000313585 0.000392593 0.000472826 0.000554283 0.000636965 0.000720871 0.000806002 0.000892357 0.000979937 0.00106867 0.00115847 0.00124936 0.00134132 0.00143435 0.00152846 0.00162365 0.00171992 0.00181655 0.00191284 0.00200879 0.0021044 0.00219966 0.00229458 0.00238917 0.00248341 0.00257669 0.00266839 0.00275851 0.00284705 0.00293402 0.0030194 0.00310321 0.00318544 0.00326559 0.00334315 0.00341813 0.00349053 0.00356035 0.00362759 0.00369224 0.00375431 0.00381343 0.00386922 0.00392169 0.00397085 0.00401667 0.00405918 0.00409836 0.00413423 0.00416655 0.00419511 0.0042199 0.00424094 0.00425822 0.00427173 0.00428149 0.00428748 0.00428966 0.00428797 0.00428242 0.00427301 0.00425973 0.00424259 0.00422158 0.00419671 0.0041681 0.00413588 0.00410005 0.00406061 0.00401756 0.0039709 0.00392063 0.00386675 0.00380957 0.0037494 0.00368625 0.0036201 0.00355096 0.00347883 0.00340371 0.0033256 0.00324499 0.00316237 0.00307774 0.00299109 0.00290243 0.00281176 0.00271908 0.00262438 0.00252833 0.00243159 0.00233414 0.002236 0.00213717 0.00203763 0.00193741 0.00183648 0.00173565 0.00163573 0.00153669 0.00143856 0.00134132 0.00124498 0.00114954 0.001055 0.000961481 0.000869123 0.000777923 0.000687883 0.000599001 0.000511277 0.000424712 0.000339307 0.000259782 0.00019086 0.000132542 8.48266e-05 4.7715e-05 2.12067e-05 5.30166e-06 0 0 5.74365e-06 2.29746e-05 5.16929e-05 9.18985e-05 0.000143591 0.000206772 0.000281439 0.000367594 0.000460201 0.000554226 0.000649668 0.000746527 0.000844804 0.000944499 0.00104561 0.00114814 0.001252 0.00135712 0.00146349 0.00157112 0.00168 0.00179013 0.00190152 0.00201416 0.00212722 0.00223988 0.00235214 0.00246399 0.00257545 0.0026865 0.00279714 0.00290739 0.00301651 0.00312378 0.0032292 0.00333277 0.0034345 0.00353438 0.00363241 0.00372859 0.00382234 0.00391307 0.00400077 0.00408546 0.00416712 0.00424576 0.00432138 0.00439398 0.00446313 0.00452839 0.00458976 0.00464725 0.00470085 0.00475056 0.00479639 0.00483833 0.00487613 0.00490953 0.00493853 0.00496313 0.00498333 0.00499913 0.00501053 0.00501754 0.00502008 0.0050181 0.00501161 0.00500059 0.00498505 0.00496499 0.00494041 0.00491131 0.00487784 0.00484015 0.00479824 0.0047521 0.00470174 0.00464716 0.00458835 0.00452533 0.00445844 0.00438806 0.00431418 0.0042368 0.00415593 0.00407156 0.00398369 0.00389233 0.00379804 0.00370139 0.00360239 0.00350104 0.00339733 0.00329127 0.00318285 0.00307208 0.00295973 0.00284656 0.00273257 0.00261776 0.00250213 0.00238569 0.00226843 0.00215035 0.00203239 0.00191547 0.00179959 0.00168476 0.00157097 0.00145823 0.00134653 0.00123587 0.00112641 0.00101828 0.000911497 0.000806052 0.000701946 0.00059918 0.000497754 0.000397667 0.000304464 0.000223688 0.000155339 9.94168e-05 5.59219e-05 2.48542e-05 6.21355e-06 0 0 6.60013e-06 2.64005e-05 5.94012e-05 0.000105602 0.000165003 0.000237605 0.000323406 0.000422408 0.000528813 0.000636823 0.000746439 0.000857659 0.000970485 0.00108492 0.00120095 0.0013186 0.00143776 0.00155834 0.00168036 0.00180381 0.00192869 0.00205499 0.00218273 0.00231189 0.00244154 0.00257072 0.00269944 0.00282769 0.00295547 0.00308278 0.00320964 0.00333602 0.00346111 0.00358408 0.00370494 0.00382367 0.00394028 0.00405477 0.00416715 0.0042774 0.00438486 0.00448886 0.00458939 0.00468646 0.00478007 0.00487021 0.00495688 0.0050401 0.00511935 0.00519415 0.00526449 0.00533038 0.00539182 0.00544879 0.00550132 0.00554939 0.00559271 0.00563098 0.00566422 0.00569241 0.00571555 0.00573366 0.00574672 0.00575474 0.00575765 0.00575537 0.00574791 0.00573528 0.00571746 0.00569446 0.00566628 0.00563291 0.00559454 0.00555133 0.00550327 0.00545038 0.00539265 0.00533008 0.00526267 0.00519042 0.00511375 0.00503306 0.00494837 0.00485967 0.00476697 0.00467025 0.00456953 0.0044648 0.00435671 0.00424593 0.00413245 0.00401626 0.00389738 0.0037758 0.00365152 0.00352454 0.00339575 0.00326601 0.00313533 0.00300371 0.00287115 0.00273765 0.00260321 0.00246783 0.00233257 0.0021985 0.00206563 0.00193394 0.00180344 0.00167413 0.00154601 0.00141907 0.00129349 0.00116943 0.00104688 0.000925847 0.000806328 0.000688324 0.000571836 0.000456863 0.000349786 0.000256985 0.000178462 0.000114216 6.42463e-05 2.85539e-05 7.13848e-06 0 0 7.46919e-06 2.98768e-05 6.72227e-05 0.000119507 0.00018673 0.000268891 0.00036599 0.000478028 0.000598429 0.000720618 0.000844596 0.000970361 0.00109791 0.00122726 0.00135839 0.0014913 0.00162592 0.00176214 0.00189996 0.00203938 0.00218042 0.00232305 0.00246729 0.00261313 0.00275951 0.00290536 0.00305068 0.00319547 0.00333972 0.00348345 0.00362664 0.00376931 0.00391051 0.00404931 0.00418572 0.00431974 0.00445136 0.00458059 0.00470742 0.00483186 0.00495315 0.00507052 0.00518399 0.00529354 0.00539919 0.00550092 0.00559874 0.00569265 0.0057821 0.00586651 0.0059459 0.00602025 0.00608958 0.00615388 0.00621315 0.0062674 0.00631628 0.00635947 0.00639697 0.00642878 0.00645489 0.00647531 0.00649005 0.00649908 0.00650235 0.00649978 0.00649135 0.00647708 0.00645696 0.00643099 0.00639917 0.00636151 0.00631819 0.0062694 0.00621516 0.00615546 0.00609029 0.00601966 0.00594358 0.00586203 0.00577548 0.00568442 0.00558883 0.00548871 0.00538407 0.00527491 0.00516123 0.00504302 0.00492103 0.00479599 0.0046679 0.00453677 0.00440259 0.00426536 0.00412508 0.00398176 0.00383638 0.00368994 0.00354243 0.00339385 0.00324421 0.00309351 0.00294173 0.0027889 0.00263619 0.00248482 0.00233479 0.00218608 0.00203871 0.00189268 0.00174797 0.0016046 0.00146274 0.00132257 0.00118407 0.00104727 0.000912146 0.00077871 0.000646959 0.000516894 0.000395747 0.000290753 0.000201912 0.000129223 7.26882e-05 3.23058e-05 8.07646e-06 0 0 8.35083e-06 3.34033e-05 7.51575e-05 0.000133613 0.000208771 0.00030063 0.000409191 0.000534453 0.00066905 0.000805612 0.000944139 0.00108463 0.00122709 0.00137152 0.00151791 0.00166626 0.00181649 0.0019685 0.00212228 0.00227785 0.00243519 0.0025943 0.0027552 0.00291787 0.00308114 0.0032438 0.00340587 0.00356734 0.00372822 0.00388849 0.00404817 0.00420725 0.00436469 0.00451946 0.00467156 0.00482099 0.00496774 0.00511183 0.00525324 0.00539198 0.0055272 0.00565806 0.00578456 0.0059067 0.00602448 0.0061379 0.00624696 0.00635165 0.00645136 0.00654547 0.00663397 0.00671686 0.00679415 0.00686582 0.0069319 0.00699236 0.00704685 0.00709499 0.00713679 0.00717224 0.00720134 0.0072241 0.00724051 0.00725057 0.00725421 0.00725132 0.00724191 0.00722599 0.00720354 0.00717458 0.00713909 0.00709709 0.00704878 0.00699439 0.0069339 0.00686733 0.00679467 0.00671591 0.00663107 0.00654015 0.00644365 0.00634212 0.00623554 0.00612391 0.00600725 0.00588554 0.00575879 0.00562699 0.00549098 0.00535157 0.00520876 0.00506255 0.00491294 0.00475994 0.00460353 0.00444373 0.00428164 0.00411835 0.00395387 0.00378819 0.00362132 0.00345326 0.00328401 0.00311357 0.00294326 0.00277443 0.00260708 0.00244121 0.0022768 0.00211388 0.00195243 0.00179246 0.00163415 0.00147769 0.00132308 0.00117031 0.0010194 0.000870338 0.000723124 0.000577759 0.000442347 0.00032499 0.000225687 0.00014444 8.12474e-05 3.611e-05 9.02749e-06 0 0 9.24506e-06 3.69803e-05 8.32056e-05 0.000147921 0.000231127 0.000332822 0.000453008 0.000591684 0.000740674 0.000891803 0.00104507 0.00120047 0.00135802 0.0015177 0.00167952 0.00184348 0.00200948 0.00217743 0.00234734 0.00251919 0.002693 0.00286875 0.00304646 0.00322611 0.00340641 0.00358605 0.00376501 0.00394331 0.00412094 0.00429791 0.0044742 0.00464984 0.00482366 0.00499453 0.00516245 0.00532741 0.00548942 0.00564848 0.00580459 0.00595774 0.00610702 0.00625147 0.00639111 0.00652594 0.00665595 0.00678114 0.00690153 0.00701709 0.00712715 0.00723103 0.00732871 0.0074202 0.00750551 0.00758462 0.00765754 0.00772428 0.00778441 0.00783754 0.00788367 0.00792279 0.0079549 0.00798001 0.00799811 0.00800921 0.0080132 0.00801 0.00799961 0.00798201 0.00795722 0.00792524 0.00788605 0.00783967 0.00778633 0.00772627 0.00765949 0.00758599 0.00750577 0.00741883 0.00732517 0.00722478 0.00711826 0.00700616 0.0068885 0.00676528 0.00663649 0.00650213 0.00636221 0.00621672 0.00606657 0.00591266 0.00575501 0.00559361 0.00542845 0.00525954 0.00508688 0.00491046 0.00473151 0.00455124 0.00436964 0.00418672 0.00400248 0.00381692 0.00363004 0.00344183 0.00325377 0.00306733 0.00288251 0.0026993 0.00251771 0.00233774 0.00215938 0.00198264 0.00180772 0.0016348 0.00146389 0.00129499 0.00112809 0.000963207 0.00080033 0.00063946 0.000489587 0.000359697 0.000249789 0.000159865 8.99241e-05 3.99663e-05 9.99157e-06 0 0 1.01519e-05 4.06075e-05 9.13669e-05 0.00016243 0.000253797 0.000365467 0.000497442 0.00064972 0.000813303 0.000979191 0.00114739 0.00131789 0.00149069 0.0016658 0.00184322 0.00202294 0.00220488 0.00238894 0.00257512 0.00276342 0.00295385 0.0031464 0.00334107 0.00353786 0.00373534 0.00393209 0.0041281 0.00432337 0.0045179 0.0047117 0.00490476 0.00509708 0.00528742 0.00547452 0.00565838 0.00583901 0.0060164 0.00619056 0.00636148 0.00652917 0.0066926 0.00685076 0.00700364 0.00715125 0.00729359 0.00743066 0.00756245 0.00768897 0.00780946 0.00792318 0.00803012 0.00813028 0.00822366 0.00831027 0.0083901 0.00846315 0.00852897 0.00858713 0.00863761 0.00868043 0.00871557 0.00874305 0.00876285 0.00877499 0.00877934 0.00877582 0.00876443 0.00874515 0.00871799 0.00868295 0.00864004 0.00858924 0.00853083 0.00846506 0.00839193 0.00831145 0.00822361 0.00812841 0.00802585 0.00791593 0.00779929 0.00767656 0.00754773 0.00741281 0.00727179 0.00712469 0.00697148 0.00681219 0.00664779 0.00647928 0.00630667 0.00612994 0.00594911 0.00576416 0.00557511 0.00538195 0.005186 0.00498861 0.00478976 0.00458945 0.00438769 0.00418448 0.00397981 0.00377369 0.00356773 0.00336352 0.00316106 0.00296037 0.00276143 0.00256424 0.00236882 0.00217515 0.00198344 0.00179389 0.00160651 0.00142128 0.00123822 0.00105732 0.000878576 0.000701997 0.000537466 0.000394873 0.000274217 0.000175499 9.87183e-05 4.38748e-05 1.09687e-05 0 0 1.10703e-05 4.42813e-05 9.96329e-05 0.000177125 0.000276758 0.000398532 0.000542446 0.000708501 0.000886861 0.00106769 0.00125099 0.00143676 0.001625 0.00181571 0.00200889 0.00220454 0.00240258 0.0026029 0.00280552 0.00301043 0.00321763 0.00342713 0.00363892 0.003853 0.00406783 0.00428184 0.00449505 0.00470744 0.00491903 0.0051298 0.00533976 0.00554892 0.0057559 0.00595937 0.00615931 0.00635573 0.00654863 0.00673801 0.00692387 0.00710621 0.00728391 0.00745588 0.00762212 0.00778262 0.00793739 0.00808642 0.00822971 0.00836727 0.00849828 0.00862192 0.00873818 0.00884708 0.00894861 0.00904276 0.00912955 0.00920896 0.00928052 0.00934374 0.00939862 0.00944515 0.00948335 0.00951321 0.00953472 0.0095479 0.00955262 0.00954878 0.00953637 0.00951539 0.00948584 0.00944773 0.00940105 0.0093458 0.00928227 0.00921075 0.00913122 0.00904369 0.00894816 0.00884464 0.00873311 0.00861359 0.00848675 0.00835329 0.0082132 0.00806648 0.00791315 0.00775318 0.00758659 0.00741338 0.00723461 0.00705138 0.00686368 0.00667151 0.00647487 0.00627376 0.00606818 0.00585813 0.00564505 0.00543039 0.00521414 0.0049963 0.00477687 0.00455585 0.00433325 0.00410906 0.00388502 0.00366288 0.00344264 0.00322429 0.00300784 0.00279329 0.00258063 0.00236987 0.00216121 0.00195486 0.00175082 0.0015491 0.00134968 0.00115258 0.000957786 0.000765304 0.000585936 0.000430484 0.000298947 0.000191326 0.000107621 4.78315e-05 1.19579e-05 0 0 1.19995e-05 4.79979e-05 0.000107995 0.000191992 0.000299987 0.000431981 0.000587974 0.000767966 0.000961274 0.00115722 0.00135579 0.001557 0.00176084 0.00196731 0.00217642 0.00238816 0.00260245 0.0028192 0.00303842 0.0032601 0.00348425 0.00371085 0.00393993 0.00417146 0.00440379 0.00463523 0.00486578 0.00509546 0.00532424 0.00555214 0.00577915 0.00600528 0.00622907 0.00644904 0.0066652 0.00687755 0.00708608 0.00729081 0.00749172 0.00768883 0.00788093 0.00806682 0.00824652 0.00842001 0.00858731 0.0087484 0.00890329 0.00905198 0.00919358 0.00932722 0.00945288 0.00957058 0.00968032 0.00978208 0.00987588 0.0099617 0.010039 0.0101074 0.0101667 0.010217 0.0102582 0.0102905 0.0103137 0.0103279 0.010333 0.0103289 0.0103154 0.0102927 0.0102608 0.0102196 0.0101691 0.0101093 0.0100406 0.00996331 0.00987733 0.0097827 0.00967943 0.0095675 0.00944694 0.00931772 0.0091806 0.00903632 0.00888488 0.00872628 0.00856052 0.00838759 0.0082075 0.00802026 0.00782701 0.00762893 0.00742602 0.00721827 0.00700569 0.00678828 0.00656603 0.00633896 0.0061086 0.00587652 0.00564271 0.00540718 0.00516993 0.00493095 0.00469025 0.00444783 0.00420556 0.00396533 0.00372713 0.00349096 0.00325684 0.00302474 0.00279468 0.00256666 0.00234089 0.00211757 0.00189671 0.00167831 0.00146238 0.0012489 0.00103788 0.00082932 0.000634948 0.000466492 0.000323953 0.00020733 0.000116623 5.18325e-05 1.29581e-05 0 0 1.29393e-05 5.17573e-05 0.000116454 0.000207029 0.000323483 0.000465815 0.000634026 0.000828116 0.00103654 0.00124776 0.00146178 0.00167859 0.0018982 0.00212061 0.0023458 0.0025738 0.00280451 0.00303785 0.00327383 0.00351244 0.00375369 0.00399757 0.00424408 0.00449323 0.00474322 0.00499224 0.00524031 0.00548741 0.00573354 0.00597872 0.00622293 0.00646619 0.0067069 0.00694352 0.00717603 0.00740444 0.00762874 0.00784895 0.00806504 0.00827704 0.00848364 0.00868358 0.00887684 0.00906343 0.00924335 0.0094166 0.00958318 0.00974308 0.00989537 0.0100391 0.0101742 0.0103008 0.0104188 0.0105282 0.0106291 0.0107214 0.0108045 0.010878 0.0109418 0.0109958 0.0110402 0.0110749 0.0110998 0.0111151 0.0111206 0.0111161 0.0111016 0.0110772 0.0110428 0.0109984 0.0109441 0.0108798 0.010806 0.0107228 0.0106303 0.0105285 0.0104174 0.010297 0.0101673 0.0100283 0.00988086 0.00972568 0.00956279 0.0093922 0.00921391 0.00902792 0.00883422 0.00863282 0.00842497 0.00821193 0.00799368 0.00777023 0.00754158 0.00730773 0.00706867 0.00682442 0.00657664 0.00632699 0.00607548 0.00582211 0.00556688 0.00530978 0.00505082 0.00479 0.00452934 0.00427085 0.00401453 0.00376038 0.00350841 0.00325861 0.00301099 0.00276554 0.00252248 0.00228203 0.00204418 0.00180894 0.0015763 0.00134628 0.00111886 0.000894043 0.000684501 0.000502899 0.000349235 0.000223511 0.000125725 5.58777e-05 1.39694e-05 0 0 1.38898e-05 5.55594e-05 0.000125009 0.000222238 0.000347246 0.000500035 0.000680603 0.00088895 0.00111267 0.00133934 0.00156897 0.00180155 0.00203709 0.00227559 0.00251704 0.00276145 0.00300874 0.00325884 0.00351174 0.00376744 0.00402595 0.00428727 0.00455139 0.00481831 0.00508612 0.00535289 0.00561861 0.0058833 0.00614694 0.00640954 0.0066711 0.00693162 0.00718942 0.00744282 0.00769182 0.00793642 0.00817662 0.00841242 0.00864383 0.00887083 0.00909206 0.00930615 0.00951309 0.00971288 0.00990553 0.010091 0.0102694 0.0104406 0.0106036 0.0107575 0.0109022 0.0110377 0.011164 0.0112812 0.0113892 0.011488 0.011577 0.0116556 0.0117239 0.0117818 0.0118293 0.0118664 0.0118931 0.0119094 0.0119152 0.0119104 0.0118949 0.0118687 0.0118318 0.0117843 0.0117262 0.0116573 0.0115782 0.0114891 0.01139 0.011281 0.0111621 0.0110332 0.0108943 0.0107455 0.0105875 0.0104213 0.0102469 0.0100642 0.00987332 0.00967415 0.00946674 0.00925108 0.00902851 0.00880037 0.00856666 0.00832737 0.00808252 0.00783209 0.0075761 0.00731453 0.00704917 0.00678181 0.00651245 0.00624108 0.00596771 0.00569234 0.00541496 0.00513558 0.00485636 0.00457944 0.00430484 0.00403255 0.00376257 0.0034949 0.00322954 0.0029665 0.00270599 0.00244823 0.00219322 0.00194097 0.00169146 0.00144471 0.00120072 0.000959473 0.000734597 0.000539704 0.000374794 0.000239868 0.000134926 5.99671e-05 1.49918e-05 0 0 1.48511e-05 5.94043e-05 0.00013366 0.000237617 0.000371277 0.000534639 0.000727703 0.000950469 0.00118964 0.00143194 0.00167734 0.00192587 0.00217751 0.00243226 0.00269013 0.00295112 0.00321516 0.00348217 0.00375215 0.00402511 0.00430105 0.00457996 0.00486184 0.00514671 0.00543249 0.00571716 0.0060007 0.00628312 0.00656442 0.0068446 0.00712365 0.00740158 0.0076766 0.00794693 0.00821255 0.00847348 0.00872971 0.00898124 0.00922807 0.00947021 0.00970618 0.00993453 0.0101553 0.0103684 0.0105738 0.0107717 0.0109619 0.0111445 0.0113184 0.0114825 0.0116368 0.0117813 0.0119161 0.012041 0.0121562 0.0122615 0.0123564 0.0124403 0.0125131 0.0125748 0.0126254 0.012665 0.0126934 0.0127108 0.012717 0.0127118 0.0126952 0.0126673 0.012628 0.0125773 0.0125152 0.0124418 0.0123574 0.0122623 0.0121567 0.0120404 0.0119135 0.0117