<?xml version="1.0"?> 
<VTKFile type="StructuredGrid" version="0.1"> 
<StructuredGrid WholeExtent="0 128 0 128 0 0"> 
<Piece Extent="0 128 0 128 0 0"> 
<PointData>
<DataArray type="Float32" Name="u" format="ascii" NumberOfComponents="1"> 
0 0 0 0 0 0 0 0 0 0 0 0 0 0 0 0 0 0 0 0 0 0 0 0 0 0 0 0 0 0 0 0 0 0 0 0 0 0 0 0 0 0 0 0 0 0 0 0 0 0 0 0 0 0 0 0 0 0 0 0 0 0 0 0 0 0 0 0 0 0 0 0 0 0 0 0 0 0 0 0 0 0 0 0 0 0 0 0 0 0 0 0 0 0 0 0 0 0 0 0 0 0 0 0 0 0 0 0 0 0 0 0 0 0 0 0 0 0 0 0 0 0 0 0 0 0 0 0 0 0 -4.45583e-08 -1.78233e-07 -4.01025e-07 -7.12933e-07 -1.11396e-06 -1.6041e-06 -2.18336e-06 -2.85173e-06 -3.563e-06 -4.27093e-06 -4.97553e-06 -5.67679e-06 -6.37471e-06 -7.0693e-06 -7.76056e-06 -8.44848e-06 -9.12811e-06 -9.79451e-06 -1.04477e-05 -1.10876e-05 -1.17143e-05 -1.23277e-05 -1.29279e-05 -1.35149e-05 -1.40788e-05 -1.46099e-05 -1.51081e-05 -1.55734e-05 -1.60059e-05 -1.64055e-05 -1.67723e-05 -1.71061e-05 -1.74031e-05 -1.76591e-05 -1.78742e-05 -1.80483e-05 -1.81815e-05 -1.82737e-05 -1.83249e-05 -1.83352e-05 -1.83087e-05 -1.82494e-05 -1.81573e-05 -1.80325e-05 -1.7875e-05 -1.76847e-05 -1.74616e-05 -1.72058e-05 -1.69287e-05 -1.66416e-05 -1.63445e-05 -1.60376e-05 -1.57206e-05 -1.53938e-05 -1.5057e-05 -1.47102e-05 -1.43672e-05 -1.40415e-05 -1.37331e-05 -1.34421e-05 -1.31684e-05 -1.29121e-05 -1.26731e-05 -1.24514e-05 -1.22556e-05 -1.20941e-05 -1.1967e-05 -1.18743e-05 -1.18159e-05 -1.17918e-05 -1.18021e-05 -1.18468e-05 -1.19235e-05 -1.20303e-05 -1.21669e-05 -1.23335e-05 -1.25301e-05 -1.27565e-05 -1.30129e-05 -1.32993e-05 -1.36026e-05 -1.39098e-05 -1.42209e-05 -1.45361e-05 -1.48551e-05 -1.51781e-05 -1.5505e-05 -1.58359e-05 -1.61532e-05 -1.64392e-05 -1.6694e-05 -1.69176e-05 -1.711e-05 -1.72712e-05 -1.74011e-05 -1.74998e-05 -1.75551e-05 -1.75545e-05 -1.74982e-05 -1.73861e-05 -1.72183e-05 -1.69946e-05 -1.67152e-05 -1.638e-05 -1.59913e-05 -1.55513e-05 -1.50599e-05 -1.45171e-05 -1.39231e-05 -1.32777e-05 -1.2581e-05 -1.1833e-05 -1.10394e-05 -1.0206e-05 -9.33274e-06 -8.41967e-06 -7.46677e-06 -6.47405e-06 -5.4415e-06 -4.36913e-06 -3.34512e-06 -2.45764e-06 -1.70669e-06 -1.09228e-06 -6.14409e-07 -2.73071e-07 -6.82677e-08 0 0 -1.78233e-07 -7.12933e-07 -1.6041e-06 -2.85173e-06 -4.45583e-06 -6.4164e-06 -8.73343e-06 -1.14069e-05 -1.4252e-05 -1.70837e-05 -1.99021e-05 -2.27071e-05 -2.54988e-05 -2.82772e-05 -3.10422e-05 -3.37939e-05 -3.65125e-05 -3.9178e-05 -4.17907e-05 -4.43504e-05 -4.68571e-05 -4.93109e-05 -5.17118e-05 -5.40597e-05 -5.63154e-05 -5.84396e-05 -6.04324e-05 -6.22937e-05 -6.40236e-05 -6.5622e-05 -6.7089e-05 -6.84245e-05 -6.96124e-05 -7.06365e-05 -7.14968e-05 -7.21932e-05 -7.27259e-05 -7.30947e-05 -7.32997e-05 -7.3341e-05 -7.32348e-05 -7.29976e-05 -7.26294e-05 -7.21302e-05 -7.15e-05 -7.07387e-05 -6.98465e-05 -6.88233e-05 -6.77147e-05 -6.65663e-05 -6.53782e-05 -6.41503e-05 -6.28826e-05 -6.15751e-05 -6.02279e-05 -5.88409e-05 -5.74687e-05 -5.61659e-05 -5.49325e-05 -5.37684e-05 -5.26736e-05 -5.16483e-05 -5.06923e-05 -4.98057e-05 -4.90224e-05 -4.83766e-05 -4.78682e-05 -4.74971e-05 -4.72635e-05 -4.71673e-05 -4.72084e-05 -4.7387e-05 -4.76942e-05 -4.81211e-05 -4.86677e-05 -4.93341e-05 -5.01202e-05 -5.10261e-05 -5.20517e-05 -5.31971e-05 -5.44102e-05 -5.56391e-05 -5.68838e-05 -5.81442e-05 -5.94204e-05 -6.07124e-05 -6.20202e-05 -6.33437e-05 -6.46127e-05 -6.57568e-05 -6.67761e-05 -6.76704e-05 -6.844e-05 -6.90846e-05 -6.96044e-05 -6.99993e-05 -7.02203e-05 -7.02181e-05 -6.99929e-05 -6.95445e-05 -6.88731e-05 -6.79785e-05 -6.68609e-05 -6.55202e-05 -6.39652e-05 -6.2205e-05 -6.02394e-05 -5.80686e-05 -5.56924e-05 -5.31109e-05 -5.03241e-05 -4.73321e-05 -4.41576e-05 -4.0824e-05 -3.7331e-05 -3.36787e-05 -2.98671e-05 -2.58962e-05 -2.1766e-05 -1.74765e-05 -1.33805e-05 -9.83054e-06 -6.82677e-06 -4.36913e-06 -2.45764e-06 -1.09228e-06 -2.73071e-07 0 0 -4.01025e-07 -1.6041e-06 -3.60923e-06 -6.4164e-06 -1.00256e-05 -1.44369e-05 -1.96502e-05 -2.56656e-05 -3.2067e-05 -3.84384e-05 -4.47797e-05 -5.10911e-05 -5.73724e-05 -6.36237e-05 -6.9845e-05 -7.60363e-05 -8.2153e-05 -8.81506e-05 -9.4029e-05 -9.97884e-05 -0.000105429 -0.00011095 -0.000116351 -0.000121634 -0.00012671 -0.000131489 -0.000135973 -0.000140161 -0.000144053 -0.00014765 -0.00015095 -0.000153955 -0.000156628 -0.000158932 -0.000160868 -0.000162435 -0.000163633 -0.000164463 -0.000164924 -0.000165017 -0.000164778 -0.000164245 -0.000163416 -0.000162293 -0.000160875 -0.000159162 -0.000157155 -0.000154852 -0.000152358 -0.000149774 -0.000147101 -0.000144338 -0.000141486 -0.000138544 -0.000135513 -0.000132392 -0.000129305 -0.000126373 -0.000123598 -0.000120979 -0.000118516 -0.000116209 -0.000114058 -0.000112063 -0.0001103 -0.000108847 -0.000107703 -0.000106869 -0.000106343 -0.000106126 -0.000106219 -0.000106621 -0.000107312 -0.000108272 -0.000109502 -0.000111002 -0.000112771 -0.000114809 -0.000117116 -0.000119693 -0.000122423 -0.000125188 -0.000127989 -0.000130825 -0.000133696 -0.000136603 -0.000139545 -0.000142523 -0.000145379 -0.000147953 -0.000150246 -0.000152258 -0.00015399 -0.00015544 -0.00015661 -0.000157498 -0.000157996 -0.000157991 -0.000157484 -0.000156475 -0.000154964 -0.000152952 -0.000150437 -0.00014742 -0.000143922 -0.000139961 -0.000135539 -0.000130654 -0.000125308 -0.0001195 -0.000113229 -0.000106497 -9.93547e-05 -9.18539e-05 -8.39947e-05 -7.5777e-05 -6.72009e-05 -5.82664e-05 -4.89735e-05 -3.93222e-05 -3.0106e-05 -2.21187e-05 -1.53602e-05 -9.83054e-06 -5.52968e-06 -2.45764e-06 -6.14409e-07 0 0 -7.12933e-07 -2.85173e-06 -6.4164e-06 -1.14069e-05 -1.78233e-05 -2.56656e-05 -3.49337e-05 -4.56277e-05 -5.7008e-05 -6.83349e-05 -7.96084e-05 -9.08286e-05 -0.000101995 -0.000113109 -0.000124169 -0.000135176 -0.00014605 -0.000156712 -0.000167163 -0.000177402 -0.000187428 -0.000197244 -0.000206847 -0.000216239 -0.000225261 -0.000233758 -0.00024173 -0.000249175 -0.000256094 -0.000262488 -0.000268356 -0.000273698 -0.00027845 -0.000282546 -0.000285987 -0.000288773 -0.000290903 -0.000292379 -0.000293199 -0.000293364 -0.000292939 -0.00029199 -0.000290517 -0.000288521 -0.000286 -0.000282955 -0.000279386 -0.000275293 -0.000270859 -0.000266265 -0.000261513 -0.000256601 -0.00025153 -0.000246301 -0.000240912 -0.000235364 -0.000229875 -0.000224664 -0.00021973 -0.000215073 -0.000210695 -0.000206593 -0.000202769 -0.000199223 -0.00019609 -0.000193506 -0.000191473 -0.000189989 -0.000189054 -0.000188669 -0.000188834 -0.000189548 -0.000190777 -0.000192484 -0.000194671 -0.000197336 -0.000200481 -0.000204104 -0.000208207 -0.000212788 -0.000217641 -0.000222556 -0.000227535 -0.000232577 -0.000237682 -0.00024285 -0.000248081 -0.000253375 -0.000258451 -0.000263027 -0.000267104 -0.000270682 -0.00027376 -0.000276338 -0.000278418 -0.000279997 -0.000280881 -0.000280872 -0.000279972 -0.000278178 -0.000275492 -0.000271914 -0.000267444 -0.000262081 -0.000255861 -0.00024882 -0.000240958 -0.000232274 -0.00022277 -0.000212444 -0.000201297 -0.000189328 -0.000176631 -0.000163296 -0.000149324 -0.000134715 -0.000119468 -0.000103585 -8.7064e-05 -6.99061e-05 -5.35218e-05 -3.93222e-05 -2.73071e-05 -1.74765e-05 -9.83054e-06 -4.36913e-06 -1.09228e-06 0 0 -1.11396e-06 -4.45583e-06 -1.00256e-05 -1.78233e-05 -2.7849e-05 -4.01025e-05 -5.4584e-05 -7.12933e-05 -8.9075e-05 -0.000106773 -0.000124388 -0.00014192 -0.000159368 -0.000176733 -0.000194014 -0.000211212 -0.000228203 -0.000244863 -0.000261192 -0.00027719 -0.000292857 -0.000308193 -0.000323199 -0.000337873 -0.000351971 -0.000365247 -0.000377702 -0.000389336 -0.000400147 -0.000410138 -0.000419306 -0.000427653 -0.000435078 -0.000441478 -0.000446855 -0.000451208 -0.000454537 -0.000456842 -0.000458123 -0.000458381 -0.000457717 -0.000456235 -0.000453934 -0.000450814 -0.000446875 -0.000442117 -0.000436541 -0.000430146 -0.000423217 -0.00041604 -0.000408614 -0.000400939 -0.000393016 -0.000384845 -0.000376424 -0.000367756 -0.00035918 -0.000351037 -0.000343328 -0.000336052 -0.00032921 -0.000322802 -0.000316827 -0.000311285 -0.00030639 -0.000302354 -0.000299176 -0.000296857 -0.000295397 -0.000294795 -0.000295053 -0.000296169 -0.000298089 -0.000300757 -0.000304173 -0.000308338 -0.000313251 -0.000318913 -0.000325323 -0.000332482 -0.000340064 -0.000347744 -0.000355524 -0.000363401 -0.000371378 -0.000379453 -0.000387626 -0.000395898 -0.000403829 -0.00041098 -0.00041735 -0.00042294 -0.00042775 -0.000431779 -0.000435028 -0.000437496 -0.000438877 -0.000438863 -0.000437455 -0.000434653 -0.000430457 -0.000424866 -0.000417881 -0.000409501 -0.000399783 -0.000388781 -0.000376497 -0.000362929 -0.000348078 -0.000331943 -0.000314526 -0.000295825 -0.000275985 -0.00025515 -0.000233318 -0.000210492 -0.000186669 -0.000161851 -0.000136038 -0.000109228 -8.36279e-05 -6.14409e-05 -4.26673e-05 -2.73071e-05 -1.53602e-05 -6.82677e-06 -1.70669e-06 0 0 -1.6041e-06 -6.4164e-06 -1.44369e-05 -2.56656e-05 -4.01025e-05 -5.77476e-05 -7.86009e-05 -0.000102662 -0.000128268 -0.000153753 -0.000179119 -0.000204364 -0.00022949 -0.000254495 -0.00027938 -0.000304145 -0.000328612 -0.000352602 -0.000376116 -0.000399153 -0.000421714 -0.000443798 -0.000465406 -0.000486537 -0.000506838 -0.000525956 -0.000543891 -0.000560643 -0.000576212 -0.000590598 -0.000603801 -0.000615821 -0.000626512 -0.000635728 -0.000643471 -0.000649739 -0.000654533 -0.000657852 -0.000659698 -0.000660069 -0.000659113 -0.000656978 -0.000653664 -0.000649171 -0.0006435 -0.000636649 -0.000628619 -0.00061941 -0.000609432 -0.000599097 -0.000588404 -0.000577352 -0.000565943 -0.000554176 -0.000542051 -0.000529568 -0.000517219 -0.000505493 -0.000494392 -0.000483915 -0.000474063 -0.000464835 -0.000456231 -0.000448251 -0.000441202 -0.000435389 -0.000430813 -0.000427474 -0.000425371 -0.000424505 -0.000424876 -0.000426483 -0.000429248 -0.00043309 -0.000438009 -0.000444007 -0.000451082 -0.000459235 -0.000468466 -0.000478774 -0.000489692 -0.000500752 -0.000511954 -0.000523298 -0.000534784 -0.000546412 -0.000558182 -0.000570093 -0.000581514 -0.000591811 -0.000600984 -0.000609034 -0.00061596 -0.000621762 -0.00062644 -0.000629994 -0.000631982 -0.000631963 -0.000629936 -0.000625901 -0.000619858 -0.000611807 -0.000601748 -0.000589682 -0.000575687 -0.000559845 -0.000542155 -0.000522617 -0.000501232 -0.000477998 -0.000452917 -0.000425988 -0.000397419 -0.000367416 -0.000335979 -0.000303108 -0.000268804 -0.000233066 -0.000195894 -0.000157289 -0.000120424 -8.84749e-05 -6.14409e-05 -3.93222e-05 -2.21187e-05 -9.83054e-06 -2.45764e-06 0 0 -2.18336e-06 -8.73343e-06 -1.96502e-05 -3.49337e-05 -5.4584e-05 -7.86009e-05 -0.000106985 -0.000139735 -0.000174587 -0.000209276 -0.000243801 -0.000278163 -0.000312361 -0.000346396 -0.000380267 -0.000413976 -0.000447278 -0.000479931 -0.000511936 -0.000543292 -0.000574 -0.000604059 -0.000633469 -0.000662231 -0.000689863 -0.000715885 -0.000740297 -0.000763098 -0.000784289 -0.00080387 -0.00082184 -0.0008382 -0.000852752 -0.000865297 -0.000875835 -0.000884367 -0.000890892 -0.00089541 -0.000897922 -0.000898427 -0.000897126 -0.00089422 -0.00088971 -0.000883594 -0.000875874 -0.00086655 -0.00085562 -0.000843085 -0.000829505 -0.000815437 -0.000800883 -0.000785841 -0.000770312 -0.000754295 -0.000737792 -0.000720801 -0.000703992 -0.000688032 -0.000672923 -0.000658663 -0.000645252 -0.000632692 -0.000620981 -0.00061012 -0.000600525 -0.000592613 -0.000586385 -0.00058184 -0.000578978 -0.000577799 -0.000578303 -0.000580491 -0.000584254 -0.000589483 -0.000596179 -0.000604343 -0.000613973 -0.00062507 -0.000637634 -0.000651664 -0.000666525 -0.000681579 -0.000696826 -0.000712267 -0.0007279 -0.000743727 -0.000759747 -0.00077596 -0.000791505 -0.000805521 -0.000818007 -0.000828963 -0.00083839 -0.000846287 -0.000852654 -0.000857492 -0.000860198 -0.000860172 -0.000857413 -0.00085192 -0.000843695 -0.000832737 -0.000819046 -0.000802622 -0.000783574 -0.000762011 -0.000737933 -0.00071134 -0.000682232 -0.000650609 -0.000616471 -0.000579818 -0.000540931 -0.000500093 -0.000457304 -0.000412564 -0.000365872 -0.000317228 -0.000266634 -0.000214087 -0.000163911 -0.000120424 -8.36279e-05 -5.35218e-05 -3.0106e-05 -1.33805e-05 -3.34512e-06 0 0 -2.85173e-06 -1.14069e-05 -2.56656e-05 -4.56277e-05 -7.12933e-05 -0.000102662 -0.000139735 -0.000182511 -0.000228032 -0.00027334 -0.000318434 -0.000363314 -0.000407982 -0.000452435 -0.000496676 -0.000540703 -0.000584199 -0.000626849 -0.000668651 -0.000709606 -0.000749714 -0.000788975 -0.000827388 -0.000864955 -0.000901046 -0.000935033 -0.000966918 -0.000996699 -0.00102438 -0.00104995 -0.00107342 -0.00109479 -0.0011138 -0.00113018 -0.00114395 -0.00115509 -0.00116361 -0.00116952 -0.0011728 -0.00117346 -0.00117176 -0.00116796 -0.00116207 -0.00115408 -0.001144 -0.00113182 -0.00111754 -0.00110117 -0.00108344 -0.00106506 -0.00104605 -0.0010264 -0.00100612 -0.000985202 -0.000963647 -0.000941455 -0.0009195 -0.000898655 -0.000878919 -0.000860294 -0.000842778 -0.000826373 -0.000811077 -0.000796891 -0.000784359 -0.000774026 -0.000765891 -0.000759954 -0.000756216 -0.000754676 -0.000755335 -0.000758192 -0.000763107 -0.000769937 -0.000778683 -0.000789345 -0.000801924 -0.000816418 -0.000832828 -0.000851153 -0.000870564 -0.000890226 -0.000910141 -0.000930308 -0.000950727 -0.000971399 -0.000992323 -0.0010135 -0.0010338 -0.00105211 -0.00106842 -0.00108273 -0.00109504 -0.00110535 -0.00111367 -0.00111999 -0.00112352 -0.00112349 -0.00111989 -0.00111271 -0.00110197 -0.00108766 -0.00106977 -0.00104832 -0.00102344 -0.00099528 -0.000963831 -0.000929097 -0.000891079 -0.000849775 -0.000805186 -0.000757313 -0.000706522 -0.000653183 -0.000597295 -0.000538859 -0.000477873 -0.000414339 -0.000348256 -0.000279624 -0.000214087 -0.000157289 -0.000109228 -6.99061e-05 -3.93222e-05 -1.74765e-05 -4.36913e-06 0 0 -3.56225e-06 -1.4249e-05 -3.20602e-05 -5.6996e-05 -8.90562e-05 -0.000128241 -0.00017455 -0.000227984 -0.000284839 -0.000341413 -0.000397704 -0.000453714 -0.000509442 -0.000564889 -0.000620053 -0.000674936 -0.000729139 -0.000782261 -0.000834304 -0.000885266 -0.000935149 -0.000983953 -0.00103168 -0.00107832 -0.0011231 -0.00116523 -0.0012047 -0.00124153 -0.00127571 -0.00130723 -0.0013361 -0.00136233 -0.00138558 -0.00140554 -0.00142221 -0.00143559 -0.00144568 -0.00145248 -0.00145598 -0.00145619 -0.00145345 -0.00144809 -0.0014401 -0.00142949 -0.00141626 -0.0014004 -0.00138193 -0.00136083 -0.00133803 -0.00131444 -0.00129008 -0.00126493 -0.00123901 -0.0012123 -0.00118481 -0.00115653 -0.00112858 -0.00110204 -0.00107691 -0.0010532 -0.00103091 -0.00101003 -0.000990564 -0.000972515 -0.000956566 -0.0009434 -0.000933019 -0.000925422 -0.000920608 -0.000918579 -0.000919334 -0.000922873 -0.000929019 -0.000937595 -0.000948603 -0.000962041 -0.00097791 -0.000996209 -0.00101694 -0.0010401 -0.00106465 -0.00108954 -0.00111477 -0.00114035 -0.00116627 -0.00119253 -0.00121914 -0.00124609 -0.00127197 -0.00129537 -0.00131629 -0.00133473 -0.00135068 -0.00136416 -0.00137515 -0.00138366 -0.0013887 -0.00138928 -0.0013854 -0.00137706 -0.00136426 -0.00134701 -0.00132529 -0.00129912 -0.00126866 -0.00123409 -0.0011954 -0.00115259 -0.00110567 -0.00105464 -0.000999496 -0.000940234 -0.000877319 -0.00081121 -0.000741907 -0.000669409 -0.000593718 -0.000514833 -0.000432754 -0.000347481 -0.00026604 -0.000195458 -0.000135735 -8.68701e-05 -4.88644e-05 -2.17175e-05 -5.42938e-06 0 0 -4.26793e-06 -1.70717e-05 -3.84114e-05 -6.82869e-05 -0.000106698 -0.000153646 -0.000209129 -0.000273148 -0.000341245 -0.000408962 -0.000476299 -0.000543256 -0.000609833 -0.000676031 -0.000741848 -0.000807286 -0.000871857 -0.000935073 -0.000996936 -0.00105744 -0.0011166 -0.0011744 -0.00123085 -0.00128594 -0.00133873 -0.00138829 -0.0014346 -0.00147767 -0.0015175 -0.00155409 -0.00158743 -0.00161754 -0.00164403 -0.00166653 -0.00168503 -0.00169955 -0.00171007 -0.0017166 -0.00171914 -0.00171769 -0.00171266 -0.00170448 -0.00169315 -0.00167867 -0.00166103 -0.00164024 -0.0016163 -0.00158921 -0.00156008 -0.00153006 -0.00149914 -0.00146732 -0.0014346 -0.00140098 -0.00136647 -0.00133105 -0.00129607 -0.00126286 -0.00123144 -0.00120178 -0.00117391 -0.00114781 -0.00112349 -0.00110094 -0.00108101 -0.00106451 -0.00105146 -0.00104185 -0.00103568 -0.00103295 -0.00103366 -0.00103782 -0.0010452 -0.0010556 -0.00106902 -0.00108545 -0.00110491 -0.00112737 -0.00115286 -0.00118136 -0.00121162 -0.00124236 -0.0012736 -0.00130532 -0.00133754 -0.00137024 -0.00140344 -0.00143712 -0.00146958 -0.00149911 -0.0015257 -0.00154936 -0.00157009 -0.00158788 -0.00160274 -0.00161466 -0.00162245 -0.00162489 -0.00162199 -0.00161375 -0.00160016 -0.00158123 -0.00155696 -0.00152735 -0.00149259 -0.00145286 -0.00140818 -0.00135853 -0.00130392 -0.00124436 -0.00117983 -0.00111034 -0.00103645 -0.000958698 -0.000877093 -0.000791632 -0.000702316 -0.000609145 -0.000512119 -0.000411237 -0.000314853 -0.000231321 -0.000160639 -0.000102809 -5.78302e-05 -2.57023e-05 -6.42558e-06 0 0 -4.96878e-06 -1.98751e-05 -4.4719e-05 -7.95005e-05 -0.00012422 -0.000178876 -0.00024347 -0.000318002 -0.000397249 -0.000475987 -0.000554218 -0.00063194 -0.000709155 -0.000785862 -0.000862061 -0.000937751 -0.00101235 -0.00108529 -0.00115655 -0.00122614 -0.00129406 -0.00136031 -0.0014249 -0.00148781 -0.00154795 -0.00160421 -0.0016566 -0.00170512 -0.00174976 -0.00179052 -0.00182741 -0.00186043 -0.00188914 -0.00191313 -0.00193241 -0.00194695 -0.00195678 -0.00196189 -0.00196227 -0.00195793 -0.00194938 -0.00193715 -0.00192123 -0.00190162 -0.00187832 -0.00185134 -0.00182067 -0.00178631 -0.00174961 -0.00171192 -0.00167324 -0.00163357 -0.00159291 -0.00155126 -0.00150862 -0.00146499 -0.00142196 -0.00138113 -0.00134249 -0.00130604 -0.00127178 -0.00123972 -0.00120985 -0.00118218 -0.00115768 -0.00113736 -0.00112121 -0.00110923 -0.00110142 -0.00109779 -0.00109832 -0.00110303 -0.00111165 -0.00112396 -0.00113993 -0.00115959 -0.00118291 -0.00120991 -0.00124059 -0.00127494 -0.00131147 -0.0013487 -0.00138661 -0.00142522 -0.00146452 -0.00150452 -0.00154521 -0.00158658 -0.00162663 -0.00166332 -0.00169666 -0.00172664 -0.00175327 -0.00177654 -0.00179645 -0.00181301 -0.00182478 -0.00183033 -0.00182966 -0.00182278 -0.00180967 -0.00179034 -0.00176479 -0.00173301 -0.00169522 -0.00165161 -0.00160217 -0.00154691 -0.00148582 -0.00141892 -0.00134619 -0.00126764 -0.00118391 -0.00109565 -0.00100285 -0.000905527 -0.000803667 -0.000697275 -0.000586351 -0.000470894 -0.000360528 -0.000264878 -0.000183943 -0.000117723 -6.62194e-05 -2.94308e-05 -7.35771e-06 0 0 -5.6648e-06 -2.26592e-05 -5.09832e-05 -9.06368e-05 -0.00014162 -0.000203933 -0.000277575 -0.000362547 -0.000452851 -0.000542489 -0.000631461 -0.000719767 -0.000807407 -0.000894382 -0.00098069 -0.00106633 -0.00115063 -0.0012329 -0.00131314 -0.00139135 -0.00146754 -0.0015417 -0.00161383 -0.00168393 -0.00175075 -0.00181301 -0.00187072 -0.00192388 -0.00197248 -0.00201654 -0.00205604 -0.00209099 -0.00212092 -0.00214537 -0.00216433 -0.00217782 -0.00218582 -0.00218833 -0.00218537 -0.00217692 -0.00216362 -0.00214609 -0.00212433 -0.00209834 -0.00206813 -0.00203369 -0.00199503 -0.00195213 -0.0019066 -0.00186001 -0.00181237 -0.00176368 -0.00171393 -0.00166313 -0.00161128 -0.00155837 -0.00150627 -0.00145683 -0.00141006 -0.00136596 -0.00132453 -0.00128575 -0.00124965 -0.00121621 -0.00118659 -0.00116195 -0.00114227 -0.00112757 -0.00111784 -0.00111309 -0.00111331 -0.0011185 -0.00112838 -0.00114266 -0.00116135 -0.00118444 -0.00121193 -0.00124383 -0.00128013 -0.00132083 -0.00136421 -0.00140854 -0.00145382 -0.00150005 -0.00154724 -0.00159537 -0.00164445 -0.00169448 -0.00174312 -0.00178801 -0.00182915 -0.00186655 -0.00190021 -0.00193011 -0.00195628 -0.0019787 -0.0019957 -0.0020056 -0.00200842 -0.00200414 -0.00199277 -0.00197431 -0.00194876 -0.00191611 -0.00187657 -0.00183032 -0.00177738 -0.00171773 -0.00165138 -0.00157833 -0.00149857 -0.00141212 -0.0013197 -0.00122206 -0.00111919 -0.00101109 -0.000897771 -0.000779224 -0.00065545 -0.00052645 -0.000403064 -0.000296128 -0.000205645 -0.000131613 -7.40321e-05 -3.29031e-05 -8.22579e-06 0 0 -6.35598e-06 -2.54239e-05 -5.72038e-05 -0.000101696 -0.000158899 -0.000228815 -0.000311443 -0.000406783 -0.000508051 -0.000608467 -0.000708028 -0.000806736 -0.00090459 -0.00100159 -0.00109774 -0.00119303 -0.00128668 -0.00137791 -0.00146671 -0.00155308 -0.00163703 -0.00171855 -0.00179765 -0.00187431 -0.00194713 -0.00201468 -0.00207695 -0.00213395 -0.00218568 -0.00223213 -0.00227332 -0.00230923 -0.00233936 -0.00236323 -0.00238082 -0.00239213 -0.00239718 -0.00239595 -0.00238844 -0.00237466 -0.00235537 -0.00233129 -0.00230245 -0.00226884 -0.00223046 -0.0021873 -0.00213938 -0.00208668 -0.00203106 -0.00197434 -0.00191654 -0.00185764 -0.00179766 -0.00173659 -0.00167443 -0.00161118 -0.00154898 -0.00148998 -0.00143417 -0.00138156 -0.00133214 -0.00128592 -0.00124289 -0.00120305 -0.00116774 -0.00113827 -0.00111465 -0.00109687 -0.00108494 -0.00107886 -0.00107863 -0.00108424 -0.00109537 -0.00111171 -0.00113326 -0.00116 -0.00119196 -0.00122911 -0.00127147 -0.00131904 -0.00136984 -0.0014219 -0.00147523 -0.00152982 -0.00158567 -0.00164279 -0.00170117 -0.00176082 -0.00181904 -0.00187317 -0.00192319 -0.0019691 -0.00201091 -0.00204862 -0.00208222 -0.00211172 -0.00213519 -0.0021507 -0.00215826 -0.00215785 -0.00214949 -0.00213316 -0.00210888 -0.00207664 -0.00203662 -0.00198901 -0.0019338 -0.00187099 -0.00180059 -0.00172258 -0.00163699 -0.00154379 -0.00144383 -0.00133793 -0.0012261 -0.00110833 -0.000984629 -0.00085499 -0.000719417 -0.000577907 -0.00044246 -0.000325073 -0.000225745 -0.000144477 -8.12682e-05 -3.61192e-05 -9.0298e-06 0 0 -7.04233e-06 -2.81693e-05 -6.33809e-05 -0.000112677 -0.000176058 -0.000253524 -0.000345074 -0.000450709 -0.000562851 -0.000673921 -0.00078392 -0.000892847 -0.0010007 -0.00110749 -0.0012132 -0.00131784 -0.00142052 -0.00152032 -0.00161726 -0.00171133 -0.00180254 -0.00189087 -0.00197634 -0.00205894 -0.00213709 -0.00220921 -0.00227529 -0.00233533 -0.00238934 -0.00243731 -0.00247924 -0.00251514 -0.00254447 -0.00256671 -0.00258185 -0.0025899 -0.00259086 -0.00258472 -0.00257149 -0.00255116 -0.00252463 -0.00249277 -0.0024556 -0.00241311 -0.0023653 -0.00231217 -0.00225372 -0.00218995 -0.00212298 -0.0020549 -0.00198573 -0.00191547 -0.0018441 -0.00177164 -0.00169808 -0.00162342 -0.0015501 -0.00148057 -0.00141481 -0.00135283 -0.00129462 -0.0012402 -0.00118956 -0.00114269 -0.00110112 -0.00106633 -0.00103833 -0.00101713 -0.00100272 -0.000995099 -0.000994272 -0.00100024 -0.00101264 -0.00103111 -0.00105566 -0.00108629 -0.00112299 -0.00116577 -0.00121463 -0.00126956 -0.00132835 -0.00138877 -0.00145082 -0.00151451 -0.00157983 -0.00164678 -0.00171537 -0.00178559 -0.00185441 -0.0019188 -0.00197876 -0.00203429 -0.00208538 -0.00213205 -0.00217429 -0.00221209 -0.00224327 -0.00226563 -0.00227917 -0.0022839 -0.0022798 -0.00226689 -0.00224516 -0.0022146 -0.00217539 -0.00212767 -0.00207143 -0.00200669 -0.00193344 -0.00185169 -0.00176142 -0.00166265 -0.00155629 -0.00144327 -0.00132358 -0.00119724 -0.00106424 -0.000924575 -0.00077825 -0.000625265 -0.000478718 -0.000351711 -0.000244244 -0.000156316 -8.79278e-05 -3.9079e-05 -9.76976e-06 0 0 -7.72384e-06 -3.08954e-05 -6.95146e-05 -0.000123581 -0.000193096 -0.000278058 -0.000378468 -0.000494326 -0.000617248 -0.000738851 -0.000859135 -0.000978101 -0.00109575 -0.00121207 -0.00132708 -0.00144077 -0.00155213 -0.00166013 -0.00176479 -0.0018661 -0.00196405 -0.00205866 -0.00214992 -0.00223783 -0.00232064 -0.00239661 -0.00246574 -0.00252802 -0.00258346 -0.00263206 -0.00267381 -0.00270873 -0.00273625 -0.00275582 -0.00276745 -0.00277113 -0.00276687 -0.00275466 -0.00273451 -0.00270641 -0.0026714 -0.00263052 -0.00258377 -0.00253115 -0.00247266 -0.00240829 -0.00233806 -0.00226195 -0.00218237 -0.0021017 -0.00201997 -0.00193715 -0.00185325 -0.00176828 -0.00168223 -0.00159509 -0.00150963 -0.00142859 -0.00135197 -0.00127977 -0.00121198 -0.00114862 -0.00108967 -0.00103514 -0.000986728 -0.000946124 -0.00091333 -0.000888345 -0.00087117 -0.000861805 -0.000860249 -0.000866503 -0.000880171 -0.000900859 -0.000928566 -0.000963294 -0.00100504 -0.00105381 -0.00110959 -0.0011724 -0.00123974 -0.00130915 -0.00138061 -0.00145413 -0.00152971 -0.00160734 -0.00168704 -0.00176879 -0.00184921 -0.00192491 -0.00199587 -0.00206211 -0.00212362 -0.00218041 -0.00223247 -0.0022798 -0.00231993 -0.00235039 -0.00237117 -0.00238228 -0.00238372 -0.00237549 -0.00235758 -0.00233 -0.00229287 -0.00224629 -0.00219028 -0.00212484 -0.00204996 -0.00196564 -0.00187188 -0.00176869 -0.00165708 -0.00153806 -0.00141164 -0.00127782 -0.0011366 -0.000987978 -0.000831951 -0.000668522 -0.000511837 -0.000376044 -0.000261141 -0.000167131 -9.40109e-05 -4.17826e-05 -1.04457e-05 0 0 -8.40052e-06 -3.36021e-05 -7.56047e-05 -0.000134408 -0.000210013 -0.000302419 -0.000411626 -0.000537633 -0.000671244 -0.000803258 -0.000933675 -0.0010625 -0.00118972 -0.00131535 -0.00143938 -0.00156182 -0.00168152 -0.00179735 -0.0019093 -0.00201738 -0.00212159 -0.00222192 -0.00231838 -0.00241097 -0.00249777 -0.00257688 -0.0026483 -0.00271202 -0.00276805 -0.00281639 -0.00285704 -0.00288999 -0.00291469 -0.00293055 -0.00293759 -0.00293581 -0.0029252 -0.00290576 -0.0028775 -0.00284041 -0.00279569 -0.00274454 -0.00268697 -0.00262296 -0.00255253 -0.00247567 -0.00239238 -0.00230267 -0.00220922 -0.00211474 -0.00201923 -0.00192269 -0.00182511 -0.00172651 -0.00162687 -0.0015262 -0.00142757 -0.00133406 -0.00124566 -0.00116238 -0.00108421 -0.00101116 -0.000943216 -0.000880392 -0.000824575 -0.000777657 -0.000739639 -0.000710519 -0.000690299 -0.000678977 -0.000676555 -0.000683032 -0.000697976 -0.000720955 -0.000751968 -0.000791016 -0.000838098 -0.000893215 -0.000956366 -0.00102755 -0.00110403 -0.00118304 -0.00126459 -0.00134868 -0.00143531 -0.00152448 -0.00161619 -0.00171043 -0.00180346 -0.00189149 -0.00197452 -0.00205257 -0.00212563 -0.00219369 -0.00225676 -0.00231484 -0.00236517 -0.00240497 -0.00243425 -0.00245301 -0.00246125 -0.00245896 -0.00244616 -0.00242283 -0.00238905 -0.00234489 -0.00229035 -0.00222543 -0.00215012 -0.00206444 -0.00196837 -0.00186192 -0.0017462 -0.00162232 -0.00149028 -0.00135008 -0.00120172 -0.0010452 -0.00088052 -0.00070768 -0.000541817 -0.00039807 -0.000276437 -0.00017692 -9.95175e-05 -4.423e-05 -1.10575e-05 0 0 -9.06805e-06 -3.62722e-05 -8.16124e-05 -0.000145089 -0.000226701 -0.00032645 -0.000444334 -0.000580355 -0.000724489 -0.000866715 -0.00100703 -0.00114544 -0.00128194 -0.00141653 -0.00154922 -0.00167999 -0.00180759 -0.00193073 -0.00204943 -0.00216368 -0.00227347 -0.00237882 -0.00247972 -0.00257617 -0.00266609 -0.00274742 -0.00282015 -0.00288428 -0.00293982 -0.00298675 -0.00302509 -0.00305484 -0.00307541 -0.00308623 -0.00308731 -0.00307864 -0.00306023 -0.00303206 -0.00299416 -0.0029465 -0.00289048 -0.00282747 -0.00275746 -0.00268047 -0.00259648 -0.0025055 -0.00240753 -0.00230257 -0.00219363 -0.00208375 -0.00197291 -0.00186113 -0.0017484 -0.00163471 -0.00152008 -0.00140449 -0.00129137 -0.00118413 -0.00108278 -0.00098731 -0.000897722 -0.000814018 -0.000736196 -0.000664257 -0.000600301 -0.000546428 -0.000502637 -0.000468929 -0.000445303 -0.00043176 -0.000428299 -0.00043492 -0.000451155 -0.000476532 -0.000511052 -0.000554715 -0.00060752 -0.000669469 -0.00074056 -0.000820794 -0.000907146 -0.00099659 -0.00108913 -0.00118475 -0.00128348 -0.00138529 -0.00149019 -0.00159819 -0.00170513 -0.00180685 -0.00190335 -0.00199463 -0.0020807 -0.00216156 -0.00223719 -0.00230761 -0.00236974 -0.00242051 -0.00245991 -0.00248795 -0.00250462 -0.00250993 -0.00250388 -0.00248646 -0.00245769 -0.00241756 -0.00236609 -0.00230328 -0.00222911 -0.0021436 -0.00204673 -0.00193852 -0.00182017 -0.00169288 -0.00155666 -0.0014115 -0.0012574 -0.00109437 -0.000922399 -0.000741494 -0.000567706 -0.00041709 -0.000289646 -0.000185373 -0.000104273 -4.63434e-05 -1.15858e-05 0 0 -9.72209e-06 -3.88884e-05 -8.74988e-05 -0.000155553 -0.000243052 -0.000349995 -0.000476382 -0.000622214 -0.000776637 -0.000928799 -0.0010787 -0.00122634 -0.00137172 -0.00151484 -0.0016557 -0.0017943 -0.00192923 -0.00205906 -0.00218381 -0.00230347 -0.00241805 -0.00252753 -0.00263193 -0.00273124 -0.00282322 -0.00290564 -0.00297848 -0.00304176 -0.00309546 -0.0031396 -0.00317417 -0.00319917 -0.00321403 -0.00321817 -0.0032116 -0.00319432 -0.00316632 -0.00312761 -0.00307819 -0.00301805 -0.00294878 -0.00287194 -0.00278754 -0.00269557 -0.00259605 -0.00248896 -0.00237431 -0.0022521 -0.00212569 -0.00199846 -0.0018704 -0.00174152 -0.0016118 -0.00148127 -0.0013499 -0.00121771 -0.00108848 -0.000965982 -0.000850227 -0.000741211 -0.000638936 -0.0005434 -0.000454604 -0.000372547 -0.000299551 -0.000237937 -0.000187704 -0.000148852 -0.000121382 -0.000105293 -0.000100586 -0.000107261 -0.000124809 -0.000152723 -0.000191003 -0.00023965 -0.000298662 -0.000368041 -0.000447785 -0.000537896 -0.000635057 -0.000735952 -0.000840581 -0.000948945 -0.00106104 -0.00117687 -0.00129644 -0.00141974 -0.00154221 -0.00165929 -0.00177097 -0.00187727 -0.00197816 -0.00207367 -0.00216378 -0.00224849 -0.00232441 -0.00238813 -0.00243965 -0.00247897 -0.0025061 -0.00252102 -0.00252374 -0.00251426 -0.00249251 -0.00245842 -0.00241198 -0.00235321 -0.00228209 -0.00219863 -0.00210283 -0.00199469 -0.00187551 -0.0017466 -0.00160795 -0.00145957 -0.00130146 -0.00113361 -0.000956034 -0.00076872 -0.000588551 -0.000432405 -0.000300281 -0.00019218 -0.000108101 -4.8045e-05 -1.20113e-05 0 0 -1.03627e-05 -4.14506e-05 -9.32639e-05 -0.000165802 -0.000259066 -0.000373056 -0.00050777 -0.00066321 -0.000827686 -0.00098951 -0.00114868 -0.0013052 -0.00145907 -0.00161028 -0.00175884 -0.00190475 -0.00204644 -0.00218234 -0.00231245 -0.00243678 -0.00255531 -0.00266806 -0.00277502 -0.00287619 -0.00296916 -0.00305153 -0.00312329 -0.00318444 -0.00323499 -0.00327493 -0.00330426 -0.00332299 -0.00333054 -0.00332637 -0.00331048 -0.00328285 -0.00324349 -0.00319241 -0.00312959 -0.00305505 -0.00297057 -0.00287795 -0.00277719 -0.00266829 -0.00255125 -0.00242606 -0.00229274 -0.00215127 -0.00200541 -0.00185888 -0.00171169 -0.00156385 -0.00141534 -0.00126618 -0.00111635 -0.000965864 -0.000818891 -0.000679603 -0.000548 -0.000424082 -0.00030785 -0.000199302 -9.84392e-05 -5.26158e-06 7.76755e-05 0.000147817 0.000205162 0.000249711 0.000281464 0.000300421 0.000306582 0.000299947 0.000281061 0.000250472 0.000208178 0.000154179 8.84767e-05 1.106