<?xml version="1.0"?> 
<VTKFile type="StructuredGrid" version="0.1"> 
<StructuredGrid WholeExtent="0 128 0 128 0 0"> 
<Piece Extent="0 128 0 128 0 0"> 
<PointData>
<DataArray type="Float32" Name="u" format="ascii" NumberOfComponents="1"> 
0 0 0 0 0 0 0 0 0 0 0 0 0 0 0 0 0 0 0 0 0 0 0 0 0 0 0 0 0 0 0 0 0 0 0 0 0 0 0 0 0 0 0 0 0 0 0 0 0 0 0 0 0 0 0 0 0 0 0 0 0 0 0 0 0 0 0 0 0 0 0 0 0 0 0 0 0 0 0 0 0 0 0 0 0 0 0 0 0 0 0 0 0 0 0 0 0 0 0 0 0 0 0 0 0 0 0 0 0 0 0 0 0 0 0 0 0 0 0 0 0 0 0 0 0 0 0 0 0 0 5.06323e-08 2.02529e-07 4.5569e-07 8.10116e-07 1.26581e-06 1.82276e-06 2.48098e-06 3.24046e-06 4.05672e-06 4.88527e-06 5.7261e-06 6.57921e-06 7.44461e-06 8.3223e-06 9.21227e-06 1.01145e-05 1.10281e-05 1.19521e-05 1.28865e-05 1.38313e-05 1.47864e-05 1.5752e-05 1.6728e-05 1.77143e-05 1.87036e-05 1.96885e-05 2.06689e-05 2.16449e-05 2.26164e-05 2.35834e-05 2.4546e-05 2.55041e-05 2.64515e-05 2.73816e-05 2.82946e-05 2.91904e-05 3.0069e-05 3.09304e-05 3.17747e-05 3.26018e-05 3.34067e-05 3.41844e-05 3.49348e-05 3.5658e-05 3.6354e-05 3.70227e-05 3.76642e-05 3.82785e-05 3.88619e-05 3.9411e-05 3.99258e-05 4.04062e-05 4.08522e-05 4.12638e-05 4.16411e-05 4.1984e-05 4.22906e-05 4.25589e-05 4.27889e-05 4.29807e-05 4.31341e-05 4.32492e-05 4.33261e-05 4.33646e-05 4.33647e-05 4.33259e-05 4.32484e-05 4.31321e-05 4.2977e-05 4.27831e-05 4.25505e-05 4.22791e-05 4.19704e-05 4.1626e-05 4.12459e-05 4.083e-05 4.03785e-05 3.98912e-05 3.93682e-05 3.88094e-05 3.82182e-05 3.75979e-05 3.69484e-05 3.62698e-05 3.5562e-05 3.4825e-05 3.40589e-05 3.32636e-05 3.24442e-05 3.16055e-05 3.07476e-05 2.98705e-05 2.89741e-05 2.80586e-05 2.71238e-05 2.61698e-05 2.52031e-05 2.42303e-05 2.32513e-05 2.22663e-05 2.1275e-05 2.02777e-05 1.92742e-05 1.82646e-05 1.72567e-05 1.62584e-05 1.52696e-05 1.42903e-05 1.33206e-05 1.23605e-05 1.14099e-05 1.04688e-05 9.53851e-06 8.6202e-06 7.71386e-06 6.8195e-06 5.93712e-06 5.06671e-06 4.20829e-06 3.36184e-06 2.57391e-06 1.89103e-06 1.31322e-06 8.40459e-07 4.72758e-07 2.10115e-07 5.25287e-08 0 0 2.02529e-07 8.10116e-07 1.82276e-06 3.24046e-06 5.06323e-06 7.29104e-06 9.92392e-06 1.29619e-05 1.62269e-05 1.95411e-05 2.29044e-05 2.63168e-05 2.97784e-05 3.32892e-05 3.68491e-05 4.04581e-05 4.41125e-05 4.78084e-05 5.1546e-05 5.53251e-05 5.91458e-05 6.3008e-05 6.69119e-05 7.08573e-05 7.48146e-05 7.8754e-05 8.26757e-05 8.65795e-05 9.04655e-05 9.43337e-05 9.8184e-05 0.000102017 0.000105806 0.000109526 0.000113178 0.000116761 0.000120276 0.000123722 0.000127099 0.000130407 0.000133627 0.000136737 0.000139739 0.000142632 0.000145416 0.000148091 0.000150657 0.000153114 0.000155448 0.000157644 0.000159703 0.000161625 0.000163409 0.000165055 0.000166564 0.000167936 0.000169162 0.000170236 0.000171156 0.000171923 0.000172536 0.000172997 0.000173304 0.000173459 0.000173459 0.000173304 0.000172994 0.000172528 0.000171908 0.000171133 0.000170202 0.000169116 0.000167882 0.000166504 0.000164983 0.00016332 0.000161514 0.000159565 0.000157473 0.000155238 0.000152873 0.000150392 0.000147794 0.000145079 0.000142248 0.0001393 0.000136236 0.000133055 0.000129777 0.000126422 0.00012299 0.000119482 0.000115897 0.000112234 0.000108495 0.000104679 0.000100812 9.69211e-05 9.30053e-05 8.9065e-05 8.51002e-05 8.11108e-05 7.70969e-05 7.30585e-05 6.90269e-05 6.50335e-05 6.10783e-05 5.71613e-05 5.32825e-05 4.94419e-05 4.56395e-05 4.18752e-05 3.81541e-05 3.44808e-05 3.08554e-05 2.7278e-05 2.37485e-05 2.02669e-05 1.68331e-05 1.34474e-05 1.02956e-05 7.56413e-06 5.25287e-06 3.36184e-06 1.89103e-06 8.40459e-07 2.10115e-07 0 0 4.5569e-07 1.82276e-06 4.10121e-06 7.29104e-06 1.13923e-05 1.64048e-05 2.23288e-05 2.91642e-05 3.65105e-05 4.39674e-05 5.15349e-05 5.92129e-05 6.70015e-05 7.49007e-05 8.29104e-05 9.10307e-05 9.92531e-05 0.000107569 0.000115978 0.000124481 0.000133078 0.000141768 0.000150552 0.000159429 0.000168333 0.000177197 0.00018602 0.000194804 0.000203547 0.000212251 0.000220914 0.000229537 0.000238063 0.000246434 0.000254651 0.000262713 0.000270621 0.000278374 0.000285972 0.000293416 0.00030066 0.000307659 0.000314413 0.000320922 0.000327186 0.000333204 0.000338978 0.000344506 0.000349757 0.000354699 0.000359332 0.000363655 0.00036767 0.000371374 0.00037477 0.000377856 0.000380616 0.00038303 0.0003851 0.000386826 0.000388207 0.000389243 0.000389935 0.000390282 0.000390282 0.000389933 0.000389236 0.000388189 0.000386793 0.000385048 0.000382954 0.000380512 0.000377733 0.000374634 0.000371213 0.00036747 0.000363406 0.00035902 0.000354313 0.000349285 0.000343964 0.000338381 0.000332536 0.000326428 0.000320058 0.000313425 0.00030653 0.000299373 0.000291998 0.00028445 0.000276729 0.000268834 0.000260767 0.000252527 0.000244114 0.000235528 0.000226828 0.000218073 0.000209262 0.000200396 0.000191475 0.000182499 0.000173468 0.000164382 0.000155311 0.000146325 0.000137426 0.000128613 0.000119886 0.000111244 0.000102689 9.42193e-05 8.58466e-05 7.75818e-05 6.94247e-05 6.13755e-05 5.34341e-05 4.56004e-05 3.78746e-05 3.02565e-05 2.31652e-05 1.70193e-05 1.1819e-05 7.56413e-06 4.25483e-06 1.89103e-06 4.72758e-07 0 0 8.10116e-07 3.24046e-06 7.29104e-06 1.29619e-05 2.02529e-05 2.91642e-05 3.96957e-05 5.18474e-05 6.49076e-05 7.81643e-05 9.16175e-05 0.000105267 0.000119114 0.000133157 0.000147396 0.000161832 0.00017645 0.000191234 0.000206184 0.0002213 0.000236583 0.000252032 0.000267647 0.000283429 0.000299258 0.000315016 0.000330703 0.000346318 0.000361862 0.000377335 0.000392736 0.000408066 0.000423223 0.000438106 0.000452713 0.000467046 0.000481104 0.000494887 0.000508395 0.000521629 0.000534507 0.00054695 0.000558957 0.000570528 0.000581663 0.000592363 0.000602627 0.000612456 0.000621791 0.000630577 0.000638813 0.000646499 0.000653635 0.000660221 0.000666258 0.000671744 0.00067665 0.000680943 0.000684623 0.00068769 0.000690145 0.000691988 0.000693217 0.000693834 0.000693835 0.000693215 0.000691974 0.000690113 0.000687632 0.00068453 0.000680808 0.000676465 0.000671526 0.000666016 0.000659934 0.00065328 0.000646055 0.000638259 0.00062989 0.000620951 0.000611492 0.000601567 0.000591175 0.000580316 0.000568992 0.0005572 0.000544943 0.000532218 0.000519107 0.000505688 0.000491962 0.000477928 0.000463586 0.000448937 0.000433981 0.000418717 0.00040325 0.000387685 0.000372021 0.00035626 0.000340401 0.000324443 0.000308388 0.000292234 0.000276108 0.000260134 0.000244313 0.000228645 0.00021313 0.000197768 0.000182558 0.000167501 0.000152616 0.000137923 0.000123422 0.000109112 9.49939e-05 8.10674e-05 6.73326e-05 5.37894e-05 4.11825e-05 3.02565e-05 2.10115e-05 1.34474e-05 7.56413e-06 3.36184e-06 8.40459e-07 0 0 1.26581e-06 5.06323e-06 1.13923e-05 2.02529e-05 3.16452e-05 4.5569e-05 6.20245e-05 8.10116e-05 0.000101418 0.000122132 0.000143152 0.00016448 0.000186115 0.000208057 0.000230307 0.000252863 0.000275703 0.000298803 0.000322162 0.000345782 0.000369661 0.0003938 0.000418199 0.000442858 0.000467591 0.000492213 0.000516723 0.000541122 0.000565409 0.000589585 0.00061365 0.000637604 0.000661287 0.00068454 0.000707364 0.000729759 0.000751725 0.000773261 0.000794368 0.000815045 0.000835168 0.000854609 0.00087337 0.00089145 0.000908849 0.000925568 0.000941605 0.000956962 0.000971548 0.000985276 0.000998145 0.00101015 0.0010213 0.0010316 0.00104103 0.0010496 0.00105727 0.00106397 0.00106972 0.00107452 0.00107835 0.00108123 0.00108315 0.00108412 0.00108412 0.00108315 0.00108121 0.0010783 0.00107442 0.00106958 0.00106376 0.00105698 0.00104926 0.00104065 0.00103115 0.00102075 0.00100946 0.000997279 0.000984204 0.000970235 0.000955456 0.000939948 0.000923711 0.000906744 0.000889049 0.000870626 0.000851473 0.000831591 0.000811105 0.000790138 0.00076869 0.000746762 0.000724354 0.000701465 0.000678095 0.000654245 0.000630078 0.000605757 0.000581283 0.000556656 0.000531876 0.000506943 0.000481856 0.000456616 0.000431418 0.00040646 0.00038174 0.000357258 0.000333016 0.000309012 0.000285247 0.00026172 0.000238463 0.000215505 0.000192846 0.000170487 0.000148428 0.000126668 0.000105207 8.40459e-05 6.43477e-05 4.72758e-05 3.28304e-05 2.10115e-05 1.1819e-05 5.25287e-06 1.31322e-06 0 0 1.82276e-06 7.29104e-06 1.64048e-05 2.91642e-05 4.5569e-05 6.56194e-05 8.93153e-05 0.000116657 0.000146042 0.00017587 0.000206139 0.000236852 0.000268006 0.000299603 0.000331642 0.000364123 0.000397012 0.000430276 0.000463914 0.000497926 0.000532312 0.000567072 0.000602207 0.000637715 0.000673331 0.000708786 0.000744081 0.000779215 0.000814189 0.000849003 0.000883656 0.000918149 0.000952253 0.000985738 0.0010186 0.00105085 0.00108248 0.0011135 0.00114389 0.00117367 0.00120264 0.00123064 0.00125765 0.00128369 0.00130874 0.00133282 0.00135591 0.00137802 0.00139903 0.0014188 0.00143733 0.00145462 0.00147068 0.0014855 0.00149908 0.00151142 0.00152246 0.00153212 0.0015404 0.0015473 0.00155283 0.00155697 0.00155974 0.00156113 0.00156113 0.00155973 0.00155694 0.00155276 0.00154717 0.00154019 0.00153182 0.00152205 0.00151093 0.00149854 0.00148485 0.00146988 0.00145362 0.00143608 0.00141725 0.00139714 0.00137586 0.00135352 0.00133014 0.00130571 0.00128023 0.0012537 0.00122612 0.00119749 0.00116799 0.0011378 0.00110691 0.00107534 0.00104307 0.00101011 0.000976457 0.000942112 0.000907312 0.00087229 0.000837048 0.000801585 0.000765902 0.000729997 0.000693872 0.000657526 0.000621242 0.000585302 0.000549705 0.000514452 0.000479543 0.000444977 0.000410755 0.000376877 0.000343387 0.000310327 0.000277699 0.000245502 0.000213736 0.000182402 0.000151498 0.000121026 9.26607e-05 6.80772e-05 4.72758e-05 3.02565e-05 1.70193e-05 7.56413e-06 1.89103e-06 0 0 2.48098e-06 9.92392e-06 2.23288e-05 3.96957e-05 6.20245e-05 8.93153e-05 0.000121568 0.000158783 0.000198779 0.000239378 0.000280579 0.000322381 0.000364786 0.000407793 0.000451401 0.000495612 0.000540378 0.000585653 0.000631438 0.000677732 0.000724536 0.000771848 0.00081967 0.000868002 0.000916478 0.000964737 0.00101278 0.0010606 0.0011082 0.00115559 0.00120275 0.0012497 0.00129612 0.0013417 0.00138643 0.00143033 0.00147338 0.00151559 0.00155696 0.00159749 0.00163693 0.00167503 0.00171181 0.00174724 0.00178134 0.00181411 0.00184555 0.00187565 0.00190424 0.00193114 0.00195636 0.0019799 0.00200176 0.00202193 0.00204041 0.00205722 0.00207224 0.00208539 0.00209666 0.00210605 0.00211357 0.00211921 0.00212298 0.00212487 0.00212487 0.00212297 0.00211917 0.00211347 0.00210587 0.00209637 0.00208497 0.00207167 0.00205655 0.00203967 0.00202105 0.00200067 0.00197854 0.00195467 0.00192904 0.00190166 0.00187269 0.0018423 0.00181047 0.00177722 0.00174254 0.00170643 0.00166889 0.00162992 0.00158977 0.00154867 0.00150663 0.00146365 0.00141973 0.00137487 0.00132907 0.00128232 0.00123495 0.00118728 0.00113932 0.00109105 0.00104248 0.000993607 0.000944437 0.000894967 0.00084558 0.000796661 0.000748209 0.000700226 0.000652711 0.000605663 0.000559083 0.000512972 0.000467387 0.00042239 0.000377979 0.000334155 0.000290919 0.000248269 0.000206206 0.00016473 0.000126121 9.26607e-05 6.43477e-05 4.11825e-05 2.31652e-05 1.02956e-05 2.57391e-06 0 0 3.24046e-06 1.29619e-05 2.91642e-05 5.18474e-05 8.10116e-05 0.000116657 0.000158783 0.00020739 0.00025963 0.000312657 0.00036647 0.00042107 0.000476455 0.000532627 0.000589585 0.000647329 0.0007058 0.000764935 0.000824736 0.000885201 0.000946332 0.00100813 0.00107059 0.00113372 0.00119703 0.00126006 0.00132281 0.00138527 0.00144745 0.00150934 0.00157094 0.00163227 0.00169289 0.00175242 0.00181085 0.00186818 0.00192442 0.00197955 0.00203358 0.00208652 0.00213803 0.0021878 0.00223583 0.00228211 0.00232665 0.00236945 0.00241051 0.00244982 0.00248716 0.00252231 0.00255525 0.00258599 0.00261454 0.00264088 0.00266503 0.00268698 0.0027066 0.00272377 0.00273849 0.00275076 0.00276058 0.00276795 0.00277287 0.00277534 0.00277534 0.00277286 0.0027679 0.00276045 0.00275053 0.00273812 0.00272323 0.00270586 0.0026861 0.00266406 0.00263974 0.00261312 0.00258422 0.00255303 0.00251956 0.0024838 0.00244597 0.00240627 0.0023647 0.00232127 0.00227597 0.0022288 0.00217977 0.00212887 0.00207643 0.00202275 0.00196785 0.00191171 0.00185435 0.00179575 0.00173592 0.00167487 0.001613 0.00155074 0.00148809 0.00142504 0.0013616 0.00129777 0.00123355 0.00116894 0.00110443 0.00104054 0.000977253 0.000914581 0.00085252 0.00079107 0.000730231 0.000670004 0.000610465 0.000551693 0.000493687 0.000436448 0.000379975 0.00032427 0.00026933 0.000215158 0.00016473 0.000121026 8.40459e-05 5.37894e-05 3.02565e-05 1.34474e-05 3.36184e-06 0 0 4.05666e-06 1.62266e-05 3.65099e-05 6.49066e-05 0.000101416 0.00014604 0.000198776 0.000259626 0.000325023 0.0003914 0.000458757 0.000527095 0.000596412 0.00066671 0.000737989 0.000810247 0.000883411 0.000957407 0.00103223 0.00110789 0.00118438 0.0012617 0.00133985 0.00141883 0.00149804 0.0015769 0.00165541 0.00173355 0.00181134 0.00188877 0.00196584 0.00204256 0.00211841 0.00219288 0.00226598 0.00233771 0.00240805 0.00247703 0.00254463 0.00261085 0.00267529 0.00273756 0.00279764 0.00285554 0.00291127 0.00296481 0.00301617 0.00306535 0.00311207 0.00315603 0.00319724 0.0032357 0.00327141 0.00330437 0.00333458 0.00336203 0.00338658 0.00340806 0.00342648 0.00344183 0.00345411 0.00346333 0.00346948 0.00347257 0.00347257 0.00346947 0.00346326 0.00345395 0.00344153 0.00342601 0.00340738 0.00338565 0.00336093 0.00333336 0.00330292 0.00326963 0.00323347 0.00319445 0.00315258 0.00310784 0.00306051 0.00301084 0.00295884 0.0029045 0.00284783 0.00278883 0.00272749 0.00266382 0.00259821 0.00253106 0.00246237 0.00239214 0.00232037 0.00224707 0.00217222 0.00209583 0.00201844 0.00194054 0.00186216 0.00178329 0.00170392 0.00162406 0.00154371 0.00146287 0.00138217 0.00130223 0.00122305 0.00114463 0.00106698 0.000990094 0.000913969 0.000838607 0.000764104 0.000690557 0.000617966 0.00054633 0.00047565 0.000405925 0.000337156 0.000269343 0.000206216 0.000151505 0.000105212 6.73357e-05 3.78763e-05 1.68339e-05 4.20848e-06 0 0 4.88502e-06 1.95401e-05 4.39651e-05 7.81602e-05 0.000122125 0.000175861 0.000239366 0.000312641 0.000391386 0.0004713 0.000552383 0.000634635 0.000718057 0.000802647 0.000888407 0.000975336 0.00106335 0.00115235 0.00124236 0.00133335 0.00142535 0.00151834 0.00161232 0.0017073 0.00180256 0.00189739 0.00199179 0.00208576 0.00217929 0.0022724 0.00236507 0.00245731 0.00254851 0.00263806 0.00272595 0.00281218 0.00289676 0.00297969 0.00306096 0.00314058 0.00321806 0.00329292 0.00336516 0.00343478 0.00350177 0.00356615 0.0036279 0.00368703 0.00374319 0.00379605 0.00384559 0.00389183 0.00393477 0.00397439 0.00401071 0.00404371 0.00407322 0.00409905 0.00412119 0.00413964 0.00415441 0.00416549 0.00417289 0.00417659 0.00417659 0.00417286 0.0041654 0.0041542 0.00413927 0.0041206 0.0040982 0.00407207 0.00404236 0.0040092 0.00397261 0.00393258 0.00388911 0.0038422 0.00379185 0.00373806 0.00368115 0.00362144 0.00355892 0.00349359 0.00342545 0.00335451 0.00328076 0.00320421 0.00312532 0.00304459 0.002962 0.00287756 0.00279128 0.00270314 0.00261315 0.00252131 0.00242825 0.00233459 0.00224034 0.0021455 0.00205007 0.00195405 0.00185743 0.00176022 0.00166317 0.00156703 0.00147181 0.0013775 0.00128411 0.00119163 0.00110007 0.00100941 0.00091979 0.000831305 0.00074396 0.000657753 0.000572686 0.000488758 0.000405969 0.00032432 0.000248307 0.00018243 0.000126687 8.10799e-05 4.56074e-05 2.027e-05 5.06749e-06 0 0 5.72553e-06 2.29021e-05 5.15298e-05 9.16085e-05 0.000143138 0.000206119 0.000280551 0.000366434 0.000458719 0.000552357 0.000647348 0.000743691 0.000841388 0.000940438 0.00104084 0.0011426 0.00124561 0.00134978 0.00145511 0.00156159 0.00166924 0.00177805 0.00188801 0.00199914 0.00211059 0.00222153 0.00233196 0.00244189 0.00255131 0.00266022 0.00276863 0.00287652 0.0029832 0.00308794 0.00319074 0.00329161 0.00339054 0.00348754 0.0035826 0.00367572 0.00376635 0.00385391 0.0039384 0.00401982 0.00409818 0.00417347 0.00424569 0.00431485 0.00438054 0.00444236 0.00450031 0.00455439 0.0046046 0.00465094 0.00469341 0.00473202 0.00476653 0.00479673 0.00482262 0.0048442 0.00486147 0.00487443 0.00488308 0.00488741 0.00488741 0.00488304 0.00487431 0.00486121 0.00484374 0.00482191 0.00479571 0.00476514 0.00473038 0.0046916 0.0046488 0.00460198 0.00455113 0.00449626 0.00443737 0.00437446 0.0043079 0.00423805 0.00416492 0.00408851 0.00400882 0.00392584 0.00383958 0.00375004 0.00365778 0.00356335 0.00346675 0.00336799 0.00326706 0.00316397 0.00305871 0.00295128 0.00284243 0.00273288 0.00262263 0.00251169 0.00240005 0.00228772 0.00217469 0.00206097 0.00194743 0.00183495 0.00172354 0.00161319 0.0015039 0.00139568 0.00128852 0.00118243 0.00107752 0.000973936 0.000871668 0.000770717 0.000671083 0.000572767 0.000475769 0.000380088 0.000291005 0.0002138 0.000148472 9.5022e-05 5.34499e-05 2.37555e-05 5.93888e-06 0 0 6.57821e-06 2.63128e-05 5.92038e-05 0.000105251 0.000164455 0.000236815 0.000322332 0.000421005 0.000527022 0.000634571 0.000743651 0.000854263 0.000966406 0.00108008 0.00119529 0.00131203 0.00143019 0.00154968 0.00167048 0.00179261 0.00191606 0.00204083 0.00216692 0.00229434 0.00242212 0.00254931 0.00267592 0.00280195 0.00292739 0.00305224 0.00317651 0.00330019 0.00342247 0.00354253 0.00366037 0.00377599 0.00388939 0.00400057 0.00410953 0.00421627 0.00432014 0.0044205 0.00451734 0.00461067 0.00470048 0.00478677 0.00486955 0.00494882 0.0050241 0.00509496 0.00516138 0.00522336 0.00528091 0.00533402 0.0053827 0.00542695 0.0054665 0.00550111 0.00553079 0.00555552 0.00557531 0.00559016 0.00560006 0.00560503 0.00560502 0.00560001 0.00558999 0.00557497 0.00555495 0.00552992 0.00549989 0.00546485 0.00542501 0.00538056 0.0053315 0.00527782 0.00521954 0.00515665 0.00508915 0.00501704 0.00494075 0.00486069 0.00477687 0.00468928 0.00459794 0.00450283 0.00440396 0.00430133 0.00419557 0.00408733 0.00397661 0.00386341 0.00374772 0.00362955 0.0035089 0.00338577 0.00326099 0.00313541 0.00300903 0.00288185 0.00275387 0.00262509 0.00249551 0.00236512 0.00223495 0.00210598 0.00197823 0.00185169 0.00172636 0.00160224 0.00147933 0.00135764 0.0012373 0.00111845 0.00100109 0.000885221 0.000770842 0.000657953 0.000546555 0.000436648 0.000334309 0.000245615 0.000170566 0.000109162 6.14036e-05 2.72905e-05 6.82263e-06 0 0 7.44304e-06 2.97722e-05 6.69874e-05 0.000119089 0.000186076 0.000267949 0.000364709 0.000476355 0.000596296 0.000717942 0.000841293 0.00096635 0.00109311 0.00122158 0.00135175 0.00148363 0.0016171 0.00175205 0.00188849 0.0020264 0.0021658 0.00230669 0.00244905 0.0025929 0.00273715 0.00288075 0.00302367 0.00316593 0.00330752 0.00344845 0.00358872 0.00372832 0.00386633 0.00400183 0.00413483 0.00426532 0.00439331 0.00451879 0.00464176 0.00476222 0.00487945 0.0049927 0.00510199 0.00520732 0.00530867 0.00540606 0.00549948 0.00558893 0.00567389 0.00575385 0.00582881 0.00589876 0.0059637 0.00602364 0.00607857 0.0061285 0.00617313 0.00621219 0.00624567 0.00627358 0.00629591 0.00631266 0.00632384 0.00632944 0.00632942 0.00632376 0.00631246 0.0062955 0.0062729 0.00624465 0.00621075 0.00617121 0.00612624 0.00607607 0.00602069 0.00596012 0.00589434 0.00582336 0.00574718 0.0056658 0.00557969 0.00548934 0.00539474 0.0052959 0.00519281 0.00508547 0.00497389 0.00485806 0.00473871 0.00461655 0.00449159 0.00436383 0.00423327 0.0040999 0.00396373 0.00382475 0.00368392 0.00354218 0.00339954 0.00325598 0.00311152 0.00296615 0.00281987 0.00267269 0.00252573 0.00238012 0.00223588 0.002093 0.00195148 0.00181131 0.00167251 0.00153506 0.00139913 0.00126485 0.00113223 0.00100127 0.000871961 0.000744316 0.000618329 0.000494 0.000378218 0.000277875 0.000192969 0.0001235 6.94687e-05 3.0875e-05 7.71874e-06 0 0 8.32003e-06 3.32801e-05 7.48803e-05 0.000133121 0.000208001 0.000299521 0.000407682 0.000532482 0.000666539 0.00080247 0.000940275 0.00107995 0.0012215 0.00136493 0.00151023 0.0016574 0.00180633 0.0019569 0.00210912 0.00226297 0.00241847 0.00257561 0.0027344 0.00289482 0.0030557 0.00321583 0.00337521 0.00353384 0.00369172 0.00384886 0.00400525 0.0041609 0.00431477 0.00446585 0.00461413 0.00475961 0.0049023 0.00504218 0.00517928 0.00531357 0.00544426 0.00557052 0.00569236 0.00580977 0.00592276 0.00603133 0.00613547 0.00623519 0.00632991 0.00641904 0.0065026 0.00658057 0.00665297 0.00671978 0.00678102 0.00683667 0.00688643 0.00692997 0.00696729 0.00699839 0.00702328 0.00704195 0.0070544 0.00706064 0.00706062 0.0070543 0.00704169 0.00702279 0.00699758 0.00696609 0.00692829 0.0068842 0.00683406 0.00677813 0.00671639 0.00664886 0.00657553 0.0064964 0.00641147 0.00632074 0.00622474 0.00612401 0.00601855 0.00590836 0.00579343 0.00567377 0.00554937 0.00542024 0.00528718 0.005151 0.00501169 0.00486925 0.00472369 0.004575 0.00442318 0.00426824 0.00411123 0.0039532 0.00379415 0.00363409 0.003473 0.0033109 0.00314779 0.00298366 0.00281977 0.00265738 0.0024965 0.00233713 0.00217926 0.0020229 0.00186804 0.00171469 0.001563 0.00141313 0.00126508 0.00111885 0.000974443 0.000831855 0.000691089 0.000552143 0.000422734 0.00031058 0.000215681 0.000138036 7.76451e-05 3.45089e-05 8.62723e-06 0 0 9.20919e-06 3.68367e-05 8.28827e-05 0.000147347 0.00023023 0.000331531 0.00045125 0.000589388 0.000737753 0.000888156 0.00104059 0.00119507 0.00135158 0.00151013 0.00167072 0.00183334 0.00199788 0.00216423 0.00233237 0.00250232 0.00267406 0.00284761 0.00302296 0.00320011 0.00337775 0.00355455 0.00373053 0.00390567 0.00407998 0.00425347 0.00442612 0.00459794 0.0047678 0.00493457 0.00509825 0.00525885 0.00541635 0.00557077 0.0057221 0.00587033 0.00601458 0.00615395 0.00628844 0.00641804 0.00654275 0.00666258 0.00677753 0.0068876 0.00699214 0.00709052 0.00718275 0.00726881 0.00734872 0.00742246 0.00749004 0.00755147 0.00760638 0.00765444 0.00769563 0.00772995 0.00775742 0.00777802 0.00779176 0.00779864 0.00779861 0.00779163 0.00777771 0.00775683 0.00772901 0.00769423 0.00765251 0.00760384 0.00754849 0.00748674 0.0074186 0.00734405 0.0072631 0.00717575 0.007082 0.00698185 0.00687589 0.00676471 0.00664829 0.00652666 0.0063998 0.00626771 0.0061304 0.00598787 0.005841 0.00569067 0.0055369 0.00537967 0.00521899 0.00505485 0.00488727 0.00471623 0.00454291 0.00436845 0.00419287 0.00401616 0.00383832 0.00365935 0.00347926 0.00329803 0.00311707 0.00293775 0.00276009 0.00258408 0.00240971 0.002237 0.00206593 0.00189652 0.00172892 0.00156329 0.00139964 0.00123798 0.00107829 0.000920572 0.000764836 0.000611078 0.000467856 0.000343731 0.000238702 0.000152769 8.59328e-05 3.81924e-05 9.54809e-06 0 0 1.01105e-05 4.0442e-05 9.09945e-05 0.000161768 0.000252762 0.000363978 0.000495414 0.000647072 0.000809937 0.000974998 0.00114225 0.0013117 0.00148335 0.00165719 0.00183323 0.00201146 0.00219176 0.00237403 0.00255825 0.00274444 0.00293258 0.00312268 0.00331474 0.00350876 0.00370331 0.00389693 0.00408964 0.00428143 0.00447231 0.00466227 0.00485131 0.00503944 0.00522541 0.00540801 0.00558722 0.00576304 0.00593548 0.00610454 0.00627021 0.0064325 0.00659042 0.00674299 0.00689022 0.0070321 0.00716863 0.00729982 0.00742566 0.00754615 0.0076606 0.0077683 0.00786926 0.00796347 0.00805094 0.00813167 0.00820565 0.00827289 0.008333 0.0083856 0.00843069 0.00846826 0.00849832 0.00852087 0.00853591 0.00854343 0.00854339 0.00853575 0.00852049 0.00849763 0.00846716 0.00842909 0.00838341 0.00833012 0.00826952 0.00820192 0.0081273 0.00804569 0.00795706 0.00786143 0.0077588 0.00764915 0.00753314 0.00741142 0.00728397 0.00715081 0.00701192 0.00686731 0.00671699 0.00656095 0.00640015 0.00623558 0.00606722 0.00589508 0.00571917 0.00553947 0.00535599 0.00516873 0.00497896 0.00478795 0.0045957 0.0044022 0.00420747 0.00401149 0.00381427 0.00361581 0.00341763 0.00322124 0.00302664 0.00283384 0.00264283 0.00245361 0.00226618 0.00208055 0.00189688 0.00171534 0.00153593 0.00135864 0.00118349 0.00101046 0.00083957 0.000670804 0.000513584 0.000377327 0.000262033 0.000167701 9.43318e-05 4.19253e-05 1.04813e-05 0 0 1.1023e-05 4.40919e-05 9.92067e-05 0.000176367 0.000275574 0.000396827 0.000540125 0.00070547 0.000883012 0.0010629 0.00124515 0.00142974 0.00161668 0.00180598 0.00199762 0.00219161 0.00238784 0.00258618 0.00278664 0.00298921 0.0031939 0.0034007 0.00360963 0.00382066 0.00403226 0.00424284 0.00445243 0.00466101 0.00486859 0.00507516 0.00528073 0.0054853 0.00568752 0.00588607 0.00608093 0.0062721 0.0064596 0.00664341 0.00682354 0.00699999 0.00717169 0.00733758 0.00749765 0.0076519 0.00780035 0.00794297 0.00807979 0.00821078 0.00833521 0.0084523 0.00856206 0.00866449 0.00875958 0.00884735 0.00892778 0.00900088 0.00906622 0.0091234 0.00917242 0.00921326 0.00924594 0.00927044 0.00928678 0.00929495 0.0092949 0.00928658 0.00926999 0.00924513 0.009212 0.00917059 0.00912092 0.00906297 0.00899708 0.00892358 0.00884245 0.00875371 0.00865735 0.00855337 0.00844178 0.00832256 0.00819643 0.00806408 0.00792551 0.00778073 0.00762972 0.0074725 0.00730906 0.0071394 0.00696457 0.00678563 0.00660258 0.00641542 0.00622414 0.00602875 0.00582925 0.00562564 0.0054193 0.00521159 0.00500253 0.00479212 0.00458034 0.00436721 0.00415273 0.00393689 0.00372133 0.00350771 0.00329603 0.00308628 0.00287847 0.0026726 0.00246866 0.00226666 0.00206676 0.00186914 0.0016738 0.00148073 0.00128995 0.00110144 0.000915209 0.000731256 0.000559868 0.000411332 0.000285647 0.000182814 0.000102833 4.57035e-05 1.14259e-05 0 0 1.19456e-05 4.77823e-05 0.00010751 0.000191129 0.00029864 0.000430041 0.000585334 0.000764517 0.000956899 0.00115178 0.00134917 0.00154907 0.00175146 0.00195636 0.00216377 0.00237368 0.00258597 0.00280054 0.00301739 0.0032365 0.00345789 0.00368155 0.00390748 0.00413569 0.00436449 0.00459219 0.0048188 0.00504431 0.00526873 0.00549206 0.0057143 0.00593544 0.00615404 0.00636866 0.0065793 0.00678596 0.00698863 0.00718731 0.00738202 0.00757274 0.00775833 0.00793763 0.00811064 0.00827737 0.00843782 0.00859197 0.00873985 0.00888143 0.00901591 0.00914246 0.00926109 0.0093718 0.00947457 0.00956943 0.00965635 0.00973536 0.00980598 0.00986778 0.00992074 0.00996488 0.0100002 0.0100267 0.0100443 0.0100531 0.0100531 0.0100441 0.0100261 0.00999926 0.00996345 0.00991869 0.00986499 0.00980235 0.00973113 0.00965167 0.00956398 0.00946805 0.0093639 0.00925151 0.00913088 0.00900203 0.00886569 0.00872264 0.00857286 0.00841636 0.00825314 0.0080832 0.00790653 0.00772315 0.00753418 0.00734076 0.0071429 0.00694059 0.00673383 0.00652263 0.00630698 0.00608688 0.00586382 0.00563929 0.00541328 0.0051858 0.00495684 0.00472641 0.00449451 0.00426113 0.00402805 0.00379705 0.00356813 0.00334129 0.00311653 0.00289384 0.00267323 0.0024547 0.00223842 0.00202457 0.00181314 0.00160414 0.00139756 0.0011934 0.000991673 0.000792368 0.000606657 0.000445707 0.000309519 0.000198092 0.000111427 4.9523e-05 1.23808e-05 0 0 1.28783e-05 5.15134e-05 0.000115905 0.000206054 0.000321959 0.00046362 0.000631039 0.000824214 0.0010316 0.00124163 0.00145433 0.00166968 0.00188769 0.00210836 0.00233168 0.00255766 0.00278618 0.00301713 0.00325051 0.00348632 0.00372456 0.00396522 0.00420832 0.00445385 0.0047 0.00494496 0.00518874 0.00543133 0.00567274 0.00591296 0.006152 0.00638985 0.00662497 0.0068558 0.00708234 0.0073046 0.00752257 0.00773625 0.00794564 0.00815075 0.00835033 0.00854315 0.00872921 0.00890851 0.00908105 0.00924682 0.00940584 0.00955809 0.0097027 0.00983879 0.00996636 0.0100854 0.0101959 0.0102979 0.0103914 0.0104763 0.0105523 0.0106187 0.0106757 0.0107231 0.0107611 0.0107896 0.0108085 0.010818 0.0108179 0.0108082 0.0107889 0.01076 0.0107215 0.0106734 0.0106156 0.0105482 0.0104716 0.0103862 0.0102919 0.0101887 0.0100767 0.00995584 0.00982611 0.00968754 0.00954092 0.00938708 0.009226 0.0090577 0.00888217 0.00869941 0.00850942 0.0083122 0.00810898 0.00790097 0.00768818 0.0074706 0.00724824 0.00702109 0.00678915 0.00655244 0.00631253 0.00607103 0.00582793 0.00558324 0.00533696 0.00508908 0.00483961 0.00458854 0.00433779 0.00408926 0.00384295 0.00359886 0.00335698 0.00311733 0.0028799 0.00264469 0.00241187 0.00218163 0.00195395 0.00172885 0.00150631 0.00128635 0.00106896 0.00085414 0.000653951 0.000480454 0.000333648 0.000213535 0.000120113 5.33838e-05 1.33459e-05 0 0 1.38213e-05 5.5285e-05 0.000124391 0.00022114 0.000345531 0.000497565 0.000677242 0.000884561 0.0011071 0.00133246 0.00156062 0.00179159 0.00202536 0.00226195 0.00250134 0.00274355 0.00298844 0.00323593 0.003486 0.00373866 0.0039939 0.00425172 0.00451214 0.00477514 0.00503879 0.00530116 0.00556226 0.00582207 0.00608061 0.00633787 0.00659384 0.00684854 0.00710031 0.00734748 0.00759005 0.00782803 0.00806142 0.00829021 0.00851441 0.00873401 0.00894769 0.00915414 0.00935335 0.00954531 0.00973003 0.00990752 0.0100778 0.0102408 0.0103956 0.0105413 0.0106779 0.0108053 0.0109236 0.0110328 0.0111329 0.0112238 0.0113051 0.0113762 0.0114372 0.011488 0.0115286 0.0115591 0.0115794 0.0115895 0.0115895 0.0115791 0.0115584 0.0115274 0.0114862 0.0114346 0.0113728 0.0113007 0.0112186 0.0111271 0.0110262 0.0109157 0.0107958 0.0106664 0.0105275 0.0103791 0.0102221 0.0100574 0.00988495 0.00970475 0.00951681 0.00932114 0.00911772 0.00890656 0.00868897 0.00846626 0.00823842 0.00800545 0.00776736 0.00752414 0.00727579 0.00702232 0.00676542 0.00650681 0.00624649 0.00598445 0.00572069 0.00545522 0.00518803 0.00491913 0.00465055 0.00438433 0.00412047 0.00385898 0.00359984 0.00334307 0.00308866 0.00283661 0.0025871 0.00234031 0.00209623 0.00185487 0.00161622 0.00138029 0.00114707 0.000916572 0.00070175 0.000515572 0.000358036 0.000229143 0.000128893 5.72857e-05 1.43214e-05 0 0 1.47743e-05 5.90973e-05 0.000132969 0.000236389 0.000369358 0.000531876 0.000723942 0.000945557 0.00118343 0.00142425 0.00166804 0.00191478 0.00216449 0.00241715 0.00267277 0.00293135 0.00319278 0.00345695 0.00372386 0.00399352 0.00426591 0.00454105 0.00481893 0.00509955 0.00538086 0.00566079 0.00593935 0.00621653 0.00649234 0.00676677 0.00703983 0.00731151 0.00758005 0.00784369 0.00810242 0.00835625 0.00860518 0.0088492 0.00908832 0.00932253 0.00955042 0.0097706 0.00998305 0.0101878 0.0103848 0.0105741 0.0107556 0.0109295 0.0110946 0.0112499 0.0113956 0.0115315 0.0116577 0.0117741 0.0118808 0.0119778 0.0120645 0.0121403 0.0122053 0.0122595 0.0123028 0.0123353 0.0123569 0.0123678 0.0123676 0.0123566 0.0123345 0.0123015 0.0122575 0.0122025 0.0121365 0.0120596 0.0119721 0.0118745 0.0117668 0.011649 0.01152