<?xml version="1.0"?> 
<VTKFile type="StructuredGrid" version="0.1"> 
<StructuredGrid WholeExtent="0 128 0 128 0 0"> 
<Piece Extent="0 128 0 128 0 0"> 
<PointData>
<DataArray type="Float32" Name="u" format="ascii" NumberOfComponents="1"> 
0 0 0 0 0 0 0 0 0 0 0 0 0 0 0 0 0 0 0 0 0 0 0 0 0 0 0 0 0 0 0 0 0 0 0 0 0 0 0 0 0 0 0 0 0 0 0 0 0 0 0 0 0 0 0 0 0 0 0 0 0 0 0 0 0 0 0 0 0 0 0 0 0 0 0 0 0 0 0 0 0 0 0 0 0 0 0 0 0 0 0 0 0 0 0 0 0 0 0 0 0 0 0 0 0 0 0 0 0 0 0 0 0 0 0 0 0 0 0 0 0 0 0 0 0 0 0 0 0 0 4.42092e-08 1.76837e-07 3.97883e-07 7.07348e-07 1.10523e-06 1.59153e-06 2.16625e-06 2.82939e-06 3.54392e-06 4.2728e-06 5.01603e-06 5.77362e-06 6.54557e-06 7.33187e-06 8.13252e-06 8.94753e-06 9.77698e-06 1.0621e-05 1.14795e-05 1.23525e-05 1.32401e-05 1.41421e-05 1.50588e-05 1.59899e-05 1.69296e-05 1.78717e-05 1.88163e-05 1.97634e-05 2.0713e-05 2.1665e-05 2.26196e-05 2.35766e-05 2.45302e-05 2.54744e-05 2.64093e-05 2.73348e-05 2.82509e-05 2.91577e-05 3.00551e-05 3.09432e-05 3.18163e-05 3.2669e-05 3.35012e-05 3.43129e-05 3.51042e-05 3.5875e-05 3.66253e-05 3.73551e-05 3.80596e-05 3.87337e-05 3.93776e-05 3.99912e-05 4.05746e-05 4.11276e-05 4.16504e-05 4.21428e-05 4.26012e-05 4.30217e-05 4.34042e-05 4.37489e-05 4.40556e-05 4.43244e-05 4.45554e-05 4.47484e-05 4.49013e-05 4.50119e-05 4.50802e-05 4.51063e-05 4.509e-05 4.50314e-05 4.49305e-05 4.47874e-05 4.46018e-05 4.43738e-05 4.41032e-05 4.37902e-05 4.34348e-05 4.30368e-05 4.25964e-05 4.21135e-05 4.15905e-05 4.10298e-05 4.04313e-05 3.97952e-05 3.91213e-05 3.84096e-05 3.76603e-05 3.68732e-05 3.60534e-05 3.52059e-05 3.43306e-05 3.34277e-05 3.24971e-05 3.15387e-05 3.05526e-05 2.95389e-05 2.8505e-05 2.74586e-05 2.63996e-05 2.53282e-05 2.42442e-05 2.31477e-05 2.20387e-05 2.09172e-05 1.97929e-05 1.86756e-05 1.75653e-05 1.64619e-05 1.53655e-05 1.42762e-05 1.31938e-05 1.21183e-05 1.10522e-05 9.99773e-06 8.95489e-06 7.92369e-06 6.90413e-06 5.89621e-06 4.89993e-06 3.91529e-06 2.99764e-06 2.20235e-06 1.52941e-06 9.78823e-07 5.50588e-07 2.44706e-07 6.11764e-08 0 0 1.76837e-07 7.07348e-07 1.59153e-06 2.82939e-06 4.42092e-06 6.36613e-06 8.66501e-06 1.13176e-05 1.41757e-05 1.70912e-05 2.00641e-05 2.30945e-05 2.61823e-05 2.93275e-05 3.25301e-05 3.57901e-05 3.91079e-05 4.24838e-05 4.59178e-05 4.941e-05 5.29602e-05 5.65686e-05 6.0235e-05 6.39596e-05 6.77182e-05 7.14867e-05 7.52652e-05 7.90536e-05 8.28519e-05 8.66601e-05 9.04783e-05 9.43064e-05 9.81207e-05 0.000101898 0.000105637 0.000109339 0.000113004 0.000116631 0.00012022 0.000123773 0.000127265 0.000130676 0.000134005 0.000137252 0.000140417 0.0001435 0.000146501 0.00014942 0.000152238 0.000154935 0.000157511 0.000159965 0.000162298 0.00016451 0.000166601 0.000168571 0.000170405 0.000172087 0.000173617 0.000174995 0.000176222 0.000177298 0.000178221 0.000178994 0.000179605 0.000180048 0.000180321 0.000180425 0.00018036 0.000180126 0.000179722 0.000179149 0.000178407 0.000177495 0.000176413 0.000175161 0.000173739 0.000172147 0.000170386 0.000168454 0.000166362 0.000164119 0.000161725 0.000159181 0.000156485 0.000153638 0.000150641 0.000147493 0.000144214 0.000140823 0.000137323 0.000133711 0.000129988 0.000126155 0.000122211 0.000118155 0.00011402 0.000109834 0.000105598 0.000101313 9.69768e-05 9.25909e-05 8.81549e-05 8.36688e-05 7.91716e-05 7.47024e-05 7.02611e-05 6.58477e-05 6.14622e-05 5.71046e-05 5.2775e-05 4.84733e-05 4.42088e-05 3.99909e-05 3.58196e-05 3.16948e-05 2.76165e-05 2.35849e-05 1.95997e-05 1.56612e-05 1.19906e-05 8.8094e-06 6.11764e-06 3.91529e-06 2.20235e-06 9.78823e-07 2.44706e-07 0 0 3.97883e-07 1.59153e-06 3.58095e-06 6.36613e-06 9.94708e-06 1.43238e-05 1.94963e-05 2.54645e-05 3.18953e-05 3.84552e-05 4.51443e-05 5.19626e-05 5.89101e-05 6.59868e-05 7.31927e-05 8.05278e-05 8.79928e-05 9.55886e-05 0.000103315 0.000111172 0.000119161 0.000127279 0.000135529 0.000143909 0.000152366 0.000160845 0.000169347 0.000177871 0.000186417 0.000194985 0.000203576 0.000212189 0.000220772 0.00022927 0.000237683 0.000246013 0.000254258 0.000262419 0.000270496 0.000278489 0.000286347 0.000294021 0.000301511 0.000308816 0.000315938 0.000322875 0.000329628 0.000336196 0.000342536 0.000348604 0.000354399 0.000359921 0.000365171 0.000370148 0.000374853 0.000379285 0.000383411 0.000387195 0.000390638 0.00039374 0.0003965 0.00039892 0.000400998 0.000402735 0.000404112 0.000405107 0.000405722 0.000405956 0.00040581 0.000405283 0.000404375 0.000403086 0.000401416 0.000399364 0.000396929 0.000394112 0.000390913 0.000387331 0.000383368 0.000379022 0.000374315 0.000369268 0.000363882 0.000358156 0.000352091 0.000345687 0.000338942 0.000331859 0.00032448 0.000316853 0.000308976 0.000300849 0.000292474 0.000283848 0.000274974 0.00026585 0.000256545 0.000247127 0.000237597 0.000227954 0.000218198 0.000208329 0.000198348 0.000188255 0.000178136 0.00016808 0.000158087 0.000148157 0.00013829 0.000128485 0.000118744 0.000109065 9.94699e-05 8.99796e-05 8.0594e-05 7.13132e-05 6.21372e-05 5.30659e-05 4.40994e-05 3.52376e-05 2.69788e-05 1.98212e-05 1.37647e-05 8.8094e-06 4.95529e-06 2.20235e-06 5.50588e-07 0 0 7.07348e-07 2.82939e-06 6.36613e-06 1.13176e-05 1.76837e-05 2.54645e-05 3.46601e-05 4.52703e-05 5.67027e-05 6.83648e-05 8.02565e-05 9.2378e-05 0.000104729 0.00011731 0.00013012 0.00014316 0.000156432 0.000169935 0.000183671 0.00019764 0.000211841 0.000226274 0.00024094 0.000255838 0.000270873 0.000285947 0.000301061 0.000316214 0.000331407 0.00034664 0.000361913 0.000377225 0.000392483 0.00040759 0.000422548 0.000437356 0.000452014 0.000466523 0.000480882 0.000495091 0.000509061 0.000522704 0.000536019 0.000549007 0.000561667 0.000574 0.000586005 0.000597682 0.000608953 0.00061974 0.000630042 0.00063986 0.000649193 0.000658042 0.000666406 0.000674285 0.000681619 0.000688347 0.000694467 0.000699982 0.00070489 0.000709191 0.000712886 0.000715974 0.000718421 0.000720191 0.000721284 0.0007217 0.00072144 0.000720502 0.000718888 0.000716598 0.000713629 0.00070998 0.000705652 0.000700644 0.000694956 0.000688589 0.000681543 0.000673816 0.000665448 0.000656477 0.000646901 0.000636723 0.00062594 0.000614554 0.000602564 0.000589971 0.000576854 0.000563294 0.00054929 0.000534843 0.000519953 0.000504619 0.000488842 0.000472622 0.000456079 0.000439337 0.000422394 0.000405251 0.000387907 0.000370364 0.000352619 0.000334675 0.000316686 0.000298809 0.000281044 0.000263391 0.000245849 0.000228419 0.0002111 0.000193893 0.000176835 0.000159964 0.000143278 0.000126779 0.000110466 9.43394e-05 7.83989e-05 6.26446e-05 4.79623e-05 3.52376e-05 2.44706e-05 1.56612e-05 8.8094e-06 3.91529e-06 9.78823e-07 0 0 1.10523e-06 4.42092e-06 9.94708e-06 1.76837e-05 2.76308e-05 3.97883e-05 5.41563e-05 7.07348e-05 8.85979e-05 0.00010682 0.000125401 0.000144341 0.000163639 0.000183297 0.000203313 0.000223688 0.000244424 0.000265524 0.000286987 0.000308812 0.000331001 0.000353554 0.000376469 0.000399748 0.000423239 0.000446792 0.000470407 0.000494085 0.000517824 0.000541626 0.000565489 0.000589415 0.000613254 0.00063686 0.000660231 0.000683369 0.000706273 0.000728942 0.000751378 0.00077358 0.000795408 0.000816725 0.00083753 0.000857823 0.000877605 0.000896874 0.000915632 0.000933878 0.000951489 0.000968344 0.000984441 0.000999781 0.00101436 0.00102819 0.00104126 0.00105357 0.00106503 0.00107554 0.00108511 0.00109372 0.00110139 0.00110811 0.00111388 0.00111871 0.00112253 0.0011253 0.00112701 0.00112766 0.00112725 0.00112578 0.00112326 0.00111968 0.00111504 0.00110934 0.00110258 0.00109476 0.00108587 0.00107592 0.00106491 0.00105284 0.00103976 0.00102574 0.00101078 0.000994879 0.000978031 0.000960241 0.000941507 0.00092183 0.000901334 0.000880147 0.000858266 0.000835693 0.000812427 0.000788468 0.000763816 0.000738471 0.000712624 0.000686464 0.000659991 0.000633204 0.000606105 0.000578693 0.000550968 0.00052293 0.000494823 0.00046689 0.000439132 0.000411548 0.000384139 0.000356904 0.000329844 0.000302958 0.000276305 0.000249943 0.000223872 0.000198092 0.000172603 0.000147405 0.000122498 9.78823e-05 7.49411e-05 5.50588e-05 3.82353e-05 2.44706e-05 1.37647e-05 6.11764e-06 1.52941e-06 0 0 1.59153e-06 6.36613e-06 1.43238e-05 2.54645e-05 3.97883e-05 5.72952e-05 7.79851e-05 0.000101858 0.000127581 0.000153821 0.000180577 0.00020785 0.00023564 0.000263947 0.000292771 0.000322111 0.000351971 0.000382354 0.000413261 0.00044469 0.000476642 0.000509117 0.000542115 0.000575637 0.000609464 0.000643381 0.000677387 0.000711482 0.000745667 0.000779941 0.000814304 0.000848757 0.000883086 0.000917078 0.000950733 0.000984051 0.00101703 0.00104968 0.00108198 0.00111395 0.00114539 0.00117608 0.00120604 0.00123527 0.00126375 0.0012915 0.00131851 0.00134478 0.00137014 0.00139441 0.00141759 0.00143968 0.00146068 0.00148059 0.00149941 0.00151714 0.00153364 0.00154878 0.00156255 0.00157496 0.001586 0.00159568 0.00160399 0.00161094 0.00161645 0.00162043 0.00162289 0.00162383 0.00162324 0.00162113 0.0016175 0.00161234 0.00160566 0.00159746 0.00158772 0.00157645 0.00156365 0.00154933 0.00153347 0.00151609 0.00149726 0.00147707 0.00145553 0.00143263 0.00140837 0.00138275 0.00135577 0.00132743 0.00129792 0.00126741 0.0012359 0.0012034 0.00116989 0.00113539 0.00109989 0.0010634 0.00102618 0.000988508 0.000950386 0.000911814 0.000872791 0.000833318 0.000793394 0.000753019 0.000712545 0.000672321 0.000632349 0.000592629 0.00055316 0.000513942 0.000474975 0.00043626 0.000397879 0.000359918 0.000322376 0.000285253 0.000248549 0.000212264 0.000176398 0.00014095 0.000107915 7.92846e-05 5.50588e-05 3.52376e-05 1.98212e-05 8.8094e-06 2.20235e-06 0 0 2.16625e-06 8.66501e-06 1.94963e-05 3.46601e-05 5.41563e-05 7.79851e-05 0.000106146 0.00013864 0.000173652 0.000209367 0.000245786 0.000282907 0.000320733 0.000359261 0.000398493 0.000438429 0.000479072 0.000520427 0.000562494 0.000605272 0.000648763 0.000692965 0.000737879 0.000783505 0.000829548 0.000875713 0.000921999 0.000968406 0.00101494 0.00106159 0.00110836 0.00115525 0.00120198 0.00124825 0.00129405 0.0013394 0.00138429 0.00142873 0.0014727 0.00151622 0.001559 0.00160078 0.00164156 0.00168133 0.00172011 0.00175787 0.00179464 0.0018304 0.00186492 0.00189795 0.0019295 0.00195957 0.00198815 0.00201525 0.00204087 0.002065 0.00208746 0.00210806 0.00212681 0.00214369 0.00215872 0.0021719 0.00218321 0.00219267 0.00220016 0.00220558 0.00220893 0.00221021 0.00220941 0.00220654 0.0022016 0.00219458 0.00218549 0.00217431 0.00216106 0.00214572 0.0021283 0.0021088 0.00208722 0.00206356 0.00203794 0.00201046 0.00198114 0.00194996 0.00191694 0.00188207 0.00184535 0.00180679 0.00176662 0.00172509 0.0016822 0.00163796 0.00159236 0.0015454 0.00149708 0.0014474 0.00139674 0.00134547 0.00129358 0.00124108 0.00118797 0.00113424 0.0010799 0.00102494 0.000969852 0.000915104 0.000860698 0.000806634 0.000752912 0.000699532 0.000646494 0.000593798 0.000541558 0.000489889 0.00043879 0.000388261 0.000338303 0.000288914 0.000240097 0.000191849 0.000146885 0.000107915 7.49411e-05 4.79623e-05 2.69788e-05 1.19906e-05 2.99764e-06 0 0 2.82939e-06 1.13176e-05 2.54645e-05 4.52703e-05 7.07348e-05 0.000101858 0.00013864 0.000181081 0.000226811 0.000273459 0.000321026 0.000369512 0.000418916 0.000469239 0.000520481 0.000572642 0.000625727 0.000679741 0.000734686 0.00079056 0.000847364 0.000905097 0.000963761 0.00102335 0.00108349 0.00114379 0.00120424 0.00126486 0.00132563 0.00138656 0.00144765 0.0015089 0.00156993 0.00163036 0.00169019 0.00174942 0.00180806 0.00186609 0.00192353 0.00198036 0.00203625 0.00209082 0.00214408 0.00219603 0.00224667 0.002296 0.00234402 0.00239073 0.00243581 0.00247896 0.00252017 0.00255944 0.00259677 0.00263217 0.00266562 0.00269714 0.00272648 0.00275339 0.00277787 0.00279993 0.00281956 0.00283676 0.00285154 0.0028639 0.00287368 0.00288076 0.00288514 0.0028868 0.00288576 0.00288201 0.00287555 0.00286639 0.00285451 0.00283992 0.00282261 0.00280258 0.00277983 0.00275436 0.00272617 0.00269526 0.00266179 0.00262591 0.00258761 0.00254689 0.00250376 0.00245822 0.00241026 0.00235988 0.00230742 0.00225318 0.00219716 0.00213937 0.00207981 0.00201848 0.00195537 0.00189049 0.00182432 0.00175735 0.00168958 0.001621 0.00155163 0.00148145 0.00141048 0.0013387 0.00126675 0.00119524 0.00112418 0.00105356 0.000983395 0.000913674 0.0008444 0.000775573 0.000707341 0.000639855 0.000573113 0.000507116 0.000441865 0.000377358 0.000313596 0.000250579 0.000191849 0.00014095 9.78823e-05 6.26446e-05 3.52376e-05 1.56612e-05 3.91529e-06 0 0 3.54335e-06 1.41734e-05 3.18901e-05 5.66936e-05 8.85837e-05 0.000127561 0.000173624 0.000226774 0.000284041 0.000342454 0.000402013 0.000462718 0.00052457 0.000587568 0.000651712 0.000717002 0.000783446 0.000851052 0.00091982 0.00098975 0.00106084 0.0011331 0.00120651 0.00128109 0.00135635 0.0014318 0.00150745 0.0015833 0.00165935 0.0017356 0.00181204 0.00188868 0.00196505 0.00204066 0.00211553 0.00218964 0.002263 0.00233562 0.00240748 0.00247859 0.00254851 0.00261679 0.00268343 0.00274843 0.00281179 0.00287351 0.00293358 0.00299202 0.00304843 0.00310241 0.00315397 0.0032031 0.0032498 0.00329408 0.00333593 0.00337536 0.00341206 0.00344572 0.00347635 0.00350394 0.0035285 0.00355002 0.0035685 0.00358395 0.00359619 0.00360504 0.0036105 0.00361258 0.00361127 0.00360657 0.00359849 0.00358702 0.00357215 0.00355388 0.00353222 0.00350715 0.00347868 0.00344681 0.00341154 0.00337286 0.00333098 0.00328607 0.00323815 0.0031872 0.00313324 0.00307625 0.00301624 0.00295321 0.00288756 0.0028197 0.00274961 0.0026773 0.00260278 0.00252604 0.00244708 0.0023659 0.00228311 0.00219931 0.00211451 0.00202871 0.00194191 0.00185411 0.0017653 0.00167549 0.00158545 0.00149598 0.00140706 0.0013187 0.00123089 0.00114365 0.00105696 0.000970829 0.000885441 0.000800981 0.000717449 0.000634846 0.00055317 0.000472422 0.000392603 0.000313711 0.000240185 0.000176462 0.000122543 7.84277e-05 4.41156e-05 1.96069e-05 4.90173e-06 0 0 4.27053e-06 1.70821e-05 3.84347e-05 6.83284e-05 0.000106763 0.000153739 0.000209256 0.000273314 0.000342327 0.000412709 0.000484461 0.000557582 0.000632073 0.000707933 0.000785162 0.000863761 0.000943741 0.00102511 0.00110788 0.00119204 0.00127759 0.00136454 0.00145288 0.00154262 0.00163316 0.00172395 0.00181496 0.00190622 0.0019977 0.00208943 0.00218138 0.00227357 0.00236543 0.00245638 0.00254643 0.00263557 0.00272381 0.00281115 0.00289758 0.00298311 0.00306719 0.00314931 0.00322945 0.00330762 0.00338381 0.00345803 0.00353027 0.00360055 0.00366837 0.00373328 0.00379527 0.00385435 0.0039105 0.00396374 0.00401406 0.00406146 0.00410558 0.00414605 0.00418286 0.00421603 0.00424554 0.0042714 0.00429361 0.00431217 0.00432687 0.00433749 0.00434404 0.00434652 0.00434493 0.00433926 0.00432952 0.0043157 0.00429781 0.00427582 0.00424974 0.00421958 0.00418532 0.00414698 0.00410455 0.00405802 0.00400764 0.00395362 0.00389597 0.00383469 0.00376978 0.00370124 0.00362906 0.00355325 0.00347429 0.00339267 0.00330837 0.00322141 0.00313178 0.00303948 0.00294452 0.00284688 0.00274731 0.00264653 0.00254454 0.00244135 0.00233695 0.00223134 0.00212452 0.0020165 0.0019082 0.00180057 0.00169361 0.00158732 0.00148169 0.00137673 0.00127244 0.00116881 0.00106607 0.000964433 0.000863902 0.000764475 0.000666154 0.000568937 0.000472825 0.000377818 0.000289267 0.000212523 0.000147585 9.44545e-05 5.31307e-05 2.36136e-05 5.90341e-06 0 0 5.01092e-06 2.00437e-05 4.50983e-05 8.01747e-05 0.000125273 0.000180393 0.000245535 0.000320699 0.000401668 0.000484225 0.00056837 0.000654103 0.000741425 0.000830334 0.000920832 0.00101292 0.00110661 0.00120193 0.00129887 0.00139743 0.00149762 0.00159944 0.00170287 0.00180794 0.00191395 0.00202023 0.00212677 0.00223359 0.00234068 0.00244804 0.00255567 0.00266357 0.00277108 0.00287752 0.0029829 0.00308722 0.00319048 0.00329268 0.00339382 0.0034939 0.00359229 0.00368837 0.00378213 0.00387359 0.00396273 0.00404957 0.00413409 0.0042163 0.00429564 0.00437157 0.00444409 0.00451319 0.00457887 0.00464114 0.0047 0.00475544 0.00480703 0.00485435 0.0048974 0.00493618 0.00497068 0.00500091 0.00502687 0.00504855 0.00506572 0.00507812 0.00508575 0.00508862 0.00508673 0.00508007 0.00506864 0.00505244 0.00503148 0.00500572 0.00497519 0.00493987 0.00489976 0.00485487 0.0048052 0.00475074 0.00469177 0.00462855 0.00456108 0.00448936 0.00441339 0.00433318 0.00424872 0.00416001 0.00406761 0.00397209 0.00387345 0.00377169 0.00366681 0.00355881 0.00344769 0.00333344 0.00321693 0.003099 0.00297966 0.0028589 0.00273673 0.00261314 0.00248814 0.00236173 0.00223499 0.00210903 0.00198384 0.00185943 0.00173579 0.00161292 0.00149083 0.00136952 0.00124923 0.00113021 0.00101247 0.000896005 0.000780816 0.000666902 0.000554264 0.000442901 0.000339096 0.000249132 0.000173008 0.000110725 6.22829e-05 2.76813e-05 6.92032e-06 0 0 5.76453e-06 2.30581e-05 5.18808e-05 9.22325e-05 0.000144113 0.000207523 0.000282462 0.00036893 0.000462064 0.000557 0.00065374 0.000752281 0.000852626 0.000954773 0.00105872 0.00116448 0.00127206 0.00138149 0.00149278 0.00160593 0.00172093 0.00183778 0.00195649 0.00207705 0.00219869 0.00232064 0.00244289 0.00256544 0.00268829 0.00281145 0.00293492 0.00305868 0.00318199 0.00330408 0.00342495 0.00354459 0.00366302 0.00378022 0.00389621 0.00401097 0.00412379 0.00423397 0.00434148 0.00444635 0.00454856 0.00464812 0.00474502 0.00483928 0.00493024 0.00501729 0.00510042 0.00517963 0.00525492 0.00532629 0.00539375 0.00545728 0.00551641 0.00557064 0.00561997 0.00566439 0.00570392 0.00573855 0.00576827 0.0057931 0.00581274 0.00582692 0.00583564 0.00583889 0.00583667 0.00582899 0.00581585 0.00579724 0.00577316 0.0057436 0.00570855 0.00566801 0.00562199 0.00557049 0.0055135 0.00545103 0.00538338 0.00531086 0.00523347 0.00515121 0.00506408 0.00497208 0.00487521 0.00477347 0.00466751 0.00455797 0.00444485 0.00432815 0.00420788 0.00408402 0.00395659 0.00382558 0.00369197 0.00355673 0.00341987 0.00328138 0.00314127 0.00299953 0.00285617 0.00271118 0.00256582 0.00242134 0.00227774 0.00213502 0.00199318 0.00185223 0.00171215 0.00157295 0.00143491 0.00129831 0.00116315 0.00102944 0.000897156 0.000766317 0.000636918 0.000508958 0.000389671 0.000286289 0.000198812 0.00012724 7.15723e-05 3.18099e-05 7.95248e-06 0 0 6.53136e-06 2.61255e-05 5.87823e-05 0.000104502 0.000163284 0.000235129 0.000320037 0.000418007 0.000523516 0.000631037 0.00074057 0.000852117 0.000965676 0.00108125 0.00119883 0.00131843 0.00144008 0.00156381 0.00168962 0.00181752 0.0019475 0.00207957 0.00221372 0.00234995 0.0024874 0.00262518 0.0027633 0.00290175 0.00304053 0.00317965 0.00331911 0.0034589 0.00359817 0.00373606 0.00387256 0.00400768 0.00414141 0.00427377 0.00440473 0.00453432 0.00466171 0.00478611 0.0049075 0.0050259 0.00514129 0.00525369 0.00536308 0.00546948 0.00557216 0.00567042 0.00576425 0.00585366 0.00593863 0.00601919 0.00609531 0.00616701 0.00623373 0.00629491 0.00635056 0.00640068 0.00644526 0.00648431 0.00651783 0.00654581 0.00656794 0.0065839 0.00659369 0.00659731 0.00659476 0.00658605 0.00657116 0.0065501 0.00652287 0.00648944 0.00644982 0.00640402 0.00635202 0.00629383 0.00622945 0.00615887 0.00608246 0.00600055 0.00591314 0.00582023 0.00572183 0.00561794 0.00550854 0.00539365 0.005274 0.0051503 0.00502256 0.00489079 0.00475497 0.00461512 0.00447123 0.00432329 0.00417242 0.00401971 0.00386516 0.00370878 0.00355055 0.00339049 0.00322859 0.00306486 0.00290069 0.00273751 0.00257532 0.00241411 0.00225388 0.00209464 0.00193638 0.00177911 0.00162312 0.00146874 0.00131595 0.00116477 0.00101518 0.000867183 0.000720788 0.000575991 0.000440993 0.000323995 0.000224997 0.000143998 8.09988e-05 3.59995e-05 8.99986e-06 0 0 7.31141e-06 2.92457e-05 6.58027e-05 0.000116983 0.000182785 0.000263211 0.000358259 0.000467931 0.000586022 0.000706333 0.000828862 0.00095361 0.00108058 0.00120976 0.00134116 0.00147479 0.00161067 0.00174887 0.00188939 0.00203221 0.00217735 0.00232481 0.00247457 0.00262665 0.00278007 0.00293386 0.00308801 0.00324252 0.0033974 0.00355265 0.00370826 0.00386424 0.00401962 0.00417346 0.00432575 0.00447648 0.00462567 0.00477332 0.00491941 0.00506395 0.00520605 0.00534479 0.00548019 0.00561223 0.00574093 0.00586627 0.00598827 0.00610691 0.00622142 0.00633098 0.0064356 0.00653528 0.00663002 0.00671982 0.00680469 0.00688461 0.00695897 0.00702717 0.00708919 0.00714503 0.0071947 0.0072382 0.00727553 0.00730668 0.0073313 0.00734905 0.00735991 0.00736389 0.007361 0.00735122 0.00733456 0.00731102 0.00728059 0.00724326 0.00719902 0.00714788 0.00708983 0.00702489 0.00695304 0.00687428 0.00678901 0.00669761 0.00660009 0.00649644 0.00638666 0.00627075 0.00614871 0.00602055 0.00588707 0.00574908 0.00560659 0.0054596 0.0053081 0.0051521 0.00499159 0.00482658 0.00465829 0.00448795 0.00431555 0.0041411 0.00396459 0.00378603 0.00360542 0.00342275 0.0032396 0.00305754 0.00287656 0.00269668 0.00251787 0.00234016 0.00216353 0.00198799 0.00181387 0.00164149 0.00147087 0.001302 0.00113487 0.000969498 0.000805874 0.000643999 0.000493062 0.00036225 0.000251562 0.000161 9.05624e-05 4.025e-05 1.00625e-05 0 0 8.10468e-06 3.24187e-05 7.29422e-05 0.000129675 0.000202617 0.000291769 0.00039713 0.0005187 0.000649585 0.00078289 0.000918615 0.00105676 0.00119732 0.00134031 0.00148571 0.00163354 0.00178384 0.00193669 0.00209208 0.00225001 0.00241048 0.00257349 0.00273905 0.00290714 0.00307671 0.00324666 0.00341702 0.00358776 0.0037589 0.00393043 0.00410236 0.00427468 0.00444633 0.00461628 0.0047845 0.00495101 0.0051158 0.00527887 0.00544023 0.00559986 0.00575679 0.00591002 0.00605954 0.00620535 0.00634746 0.00648587 0.00662057 0.00675157 0.00687799 0.00699895 0.00711445 0.0072245 0.00732908 0.00742821 0.00752188 0.00761008 0.00769215 0.00776741 0.00783584 0.00789745 0.00795225 0.00800022 0.00804138 0.00807571 0.00810284 0.00812237 0.0081343 0.00813864 0.00813537 0.00812451 0.00810605 0.00808 0.00804633 0.00800504 0.00795613 0.0078996 0.00783544 0.00776367 0.00768427 0.00759725 0.00750304 0.00740206 0.00729432 0.00717982 0.00705855 0.00693052 0.00679572 0.00665415 0.00650672 0.00635431 0.00619694 0.00603458 0.00586726 0.00569496 0.00551769 0.00533544 0.00514958 0.00496144 0.00477102 0.00457834 0.00438338 0.00418615 0.00398665 0.00378487 0.00358256 0.00338143 0.00318149 0.00298273 0.00278517 0.00258879 0.0023936 0.0021996 0.00200714 0.00181657 0.0016279 0.00144113 0.00125625 0.00107326 0.000892176 0.000712982 0.000545877 0.000401053 0.000278509 0.000178246 0.000100263 4.45614e-05 1.11404e-05 0 0 8.91117e-06 3.56447e-05 8.02005e-05 0.000142579 0.000222779 0.000320802 0.000436647 0.000570315 0.000714202 0.000860707 0.00100983 0.00116157 0.00131592 0.0014729 0.00163248 0.00179469 0.00195959 0.00212726 0.0022977 0.00247091 0.00264688 0.00282563 0.00300714 0.00319143 0.00337731 0.00356361 0.00375033 0.00393746 0.00412502 0.00431301 0.00450141 0.00469023 0.00487831 0.00506451 0.00524882 0.00543125 0.00561178 0.00579043 0.00596719 0.00614206 0.00631395 0.00648178 0.00664555 0.00680526 0.0069609 0.00711249 0.00726001 0.00740346 0.0075419 0.00767435 0.00780082 0.00792131 0.00803581 0.00814434 0.00824688 0.00834344 0.00843327 0.00851563 0.00859052 0.00865794 0.00871789 0.00877037 0.00881537 0.00885291 0.00888255 0.00890387 0.00891687 0.00892154 0.0089179 0.00890593 0.00888564 0.00885703 0.00882008 0.00877479 0.00872115 0.00865917 0.00858884 0.00851017 0.00842315 0.00832778 0.00822454 0.0081139 0.00799584 0.00787038 0.00773751 0.00759724 0.00744956 0.00729447 0.00713296 0.006966 0.0067936 0.00661575 0.00643245 0.00624371 0.00604952 0.00584988 0.00564628 0.00544018 0.00523159 0.0050205 0.00480692 0.00459085 0.00437228 0.00415122 0.00392955 0.00370917 0.00349008 0.00327228 0.00305576 0.00284053 0.00262659 0.00241393 0.00220294 0.00199398 0.00178705 0.00158216 0.0013793 0.00117848 0.000979693 0.000782941 0.000599439 0.000440404 0.000305836 0.000195735 0.000110101 4.89338e-05 1.22334e-05 0 0 9.73042e-06 3.89217e-05 8.75738e-05 0.000155687 0.000243261 0.000350295 0.000476791 0.000622747 0.00077984 0.000939744 0.00110246 0.00126799 0.00143633 0.00160748 0.00178144 0.00195821 0.00213789 0.00232057 0.00250624 0.00269491 0.00288657 0.00308123 0.00327889 0.00347955 0.00368192 0.00388475 0.00408801 0.00429172 0.00449588 0.00470048 0.00490553 0.00511102 0.0053157 0.00551832 0.00571888 0.00591737 0.00611381 0.00630818 0.00650049 0.00669073 0.00687773 0.00706031 0.00723846 0.00741219 0.00758149 0.00774636 0.00790681 0.00806284 0.00821339 0.00835744 0.00849497 0.00862599 0.0087505 0.0088685 0.00897999 0.00908496 0.00918261 0.00927214 0.00935353 0.0094268 0.00949194 0.00954895 0.00959784 0.00963859 0.00967075 0.00969386 0.00970792 0.00971293 0.00970888 0.00969578 0.00967363 0.00964243 0.00960217 0.00955282 0.0094944 0.00942691 0.00935034 0.00926469 0.00916997 0.00906617 0.0089538 0.00883338 0.00870491 0.00856838 0.0084238 0.00827117 0.00811048 0.00794174 0.00776601 0.00758436 0.00739678 0.00720328 0.00700386 0.00679851 0.00658724 0.00637005 0.00614854 0.00592431 0.00569736 0.00546769 0.0052353 0.0050002 0.00476238 0.00452183 0.00428062 0.0040408 0.00380236 0.00356531 0.00332964 0.00309536 0.00286246 0.00263095 0.00240121 0.00217365 0.00194825 0.00172503 0.00150398 0.00128509 0.00106838 0.000853834 0.000653717 0.000480282 0.000333529 0.000213459 0.00012007 5.33647e-05 1.33412e-05 0 0 1.0562e-05 4.22479e-05 9.50578e-05 0.000168992 0.000264049 0.000380231 0.000517537 0.000675967 0.000846461 0.00101996 0.00119647 0.00137598 0.00155849 0.00174402 0.00193254 0.00212408 0.00231872 0.0025166 0.0027177 0.00292202 0.00312956 0.00334033 0.00355433 0.00377155 0.00399062 0.00421015 0.00443015 0.00465062 0.00487156 0.00509297 0.00531484 0.00553718 0.00575863 0.00597785 0.00619482 0.00640956 0.00662205 0.00683231 0.00704032 0.00724609 0.00744835 0.00764582 0.00783849 0.00802637 0.00820946 0.00838775 0.00856125 0.00872996 0.00889275 0.00904849 0.00919719 0.00933883 0.00947343 0.00960099 0.00972149 0.00983495 0.00994049 0.0100372 0.0101252 0.0102044 0.0102747 0.0103363 0.0103891 0.0104331 0.0104678 0.0104927 0.0105078 0.0105131 0.0105086 0.0104944 0.0104704 0.0104365 0.0103929 0.0103394 0.0102762 0.0102031 0.0101202 0.0100275 0.00992501 0.00981269 0.0096911 0.00956081 0.0094218 0.0092741 0.00911768 0.00895256 0.00877873 0.00859619 0.0084061 0.0082096 0.0080067 0.00779739 0.00758167 0.00735956 0.00713103 0.0068961 0.0066565 0.00641395 0.00616845 0.00592001 0.00566862 0.00541428 0.005157 0.00489677 0.00463581 0.00437633 0.00411834 0.00386183 0.0036068 0.00335325 0.00310119 0.0028506 0.00260192 0.00235553 0.00211146 0.00186968 0.00163021 0.00139304 0.00115818 0.000925624 0.000708681 0.000520663 0.000361572 0.000231406 0.000130166 5.78515e-05 1.44629e-05 0 0 1.14058e-05 4.56234e-05 0.000102653 0.000182493 0.000285146 0.00041061 0.000558886 0.000729974 0.000914067 0.00110136 0.00129185 0.00148554 0.00168242 0.00188251 0.0020858 0.00229228 0.00250209 0.00271535 0.00293207 0.00315223 0.00337586 0.00360293 0.00383346 0.00406744 0.00430339 0.00453982 0.00477675 0.00501417 0.00525207 0.00549046 0.00572934 0.00596871 0.00620711 0.0064431 0.00667666 0.0069078 0.00713651 0.00736281 0.00758669 0.00780814 0.00802581 0.00823831 0.00844564 0.00864781 0.00884481 0.00903665 0.00922332 0.00940483 0.00957996 0.00974751 0.00990746 0.0100598 0.0102046 0.0103418 0.0104714 0.0105934 0.0107069 0.0108109 0.0109055 0.0109906 0.0110662 0.0111324 0.0111891 0.0112363 0.0112736 0.0113003 0.0113164 0.0113221 0.0113172 0.0113018 0.0112758 0.0112393 0.0111923 0.0111347 0.0110665 0.0109878 0.0108985 0.0107987 0.0106883 0.0105673 0.0104364 0.0102962 0.0101465 0.00998752 0.00981914 0.0096414 0.0094543 0.00925782 0.00905322 0.00884173 0.00862334 0.00839807 0.0081659 0.00792684 0.00768088 0.00742804 0.00717016 0.0069091 0.00664487 0.00637746 0.00610687 0.0058331 0.00555616 0.00527603 0.00499511 0.00471577 0.00443801 0.00416183 0.00388723 0.0036142 0.00334276 0.0030729 0.00280505 0.00253963 0.00227665 0.00201611 0.00175801 0.00150234 0.0012491 0.000998309 0.00076433 0.000561549 0.000389964 0.000249577 0.000140387 6.23943e-05 1.55986e-05 0 0 1.2262e-05 4.9048e-05 0.000110358 0.000196192 0.00030655 0.000441432 0.000600839 0.000784769 0.000982657 0.00118394 0.00138861 0.00159667 0.00180812 0.00202296 0.0022412 0.00246282 0.00268799 0.00291683 0.00314935 0.00338556 0.00362545 0.00386902 0.00411627 0.0043672 0.00462023 0.00487376 0.0051278 0.00538235 0.0056374 0.00589297 0.00614904 0.00640561 0.00666114 0.00691406 0.00716438 0.00741209 0.0076572 0.0078997 0.00813959 0.00837688 0.0086101 0.00883777 0.00905991 0.0092765 0.00948755 0.00969305 0.00989302 0.0100874 0.010275 0.0104545 0.0106258 0.010789 0.010944 0.0110909 0.0112297 0.0113604 0.0114819 0.0115932 0.0116944 0.0117855 0.0118664 0.0119372 0.0119979 0.0120484 0.0120882 0.0121167 0.0121339 0.0121399 0.0121345 0.0121179 0.01209 0.0120508 0.0120003 0.0119385 0.0118653 0.0117809 0.0116852 0.0115781 0.0114598 0.0113301 0.0111898 0.0110395 0.0108791 0.0107086 0.0105282 0.0103377 0.0101372 0.00992664 0.00970738 0.00948075 0.00924672 0.00900532 0.00875653 0.00850035 0.0082368 0.00796586 0.00768952 0.00740977 0.00712661 0.00684003 0.00655005 0.00625665 0.00595984 0.00565962 0.00535853 0.00505911 0.00476138 0.00446532 0.00417093 0.00387822 0.00358719 0.00329784 0.00301061 0.00272595 0.00244385 0.00216432 0.00188736 0.00161297 0.00134115 0.00107189 0.000820665 0.000602938 0.000418707 0.000267972 0.000150734 6.69931e-05 1.67483e-05 0 0 1.31305e-05 5.2522e-05 0.000118174 0.000210088 0.000328262 0.000472698 0.000643394 0.000840351 0.00105223 0.00126769 0.00148674 0.00170937 0.00193558 0.00216537 0.00239875 0.00263571 0.00287641 0.00312103 0.00336956 0.003622 0.00387834 0.0041386 0.00440277 0.00467085 0.00494114 0.00521196 0.00548331 0.00575517 0.00602757 0.00630048 0.00657392 0.00684788 0.00712071 0.00739075 0.00765799 0.00792244 0.0081841 0.00844296 0.00869903 0.00895231 0.00920123 0.00944422 0.00968129 0.00991244 0.0101377 0.010357 0.0105704 0.0107778 0.010978 0.0111694 0.0113522 0.0115263 0.0116917 0.0118484 0.0119964 0.0121358 0.0122653 0.0123841 0.012492 0.0125891 0.0126754 0.0127508 0.0128155 0.0128693 0.0129116 0.0129419 0.0129602 0.0129664 0.0129606 0.0129428 0.0129129 0.0128709 0.0128169 0.0127508 0.0126727 0.0125825 0.0124803 0