<?xml version="1.0"?> 
<VTKFile type="StructuredGrid" version="0.1"> 
<StructuredGrid WholeExtent="0 128 0 128 0 0"> 
<Piece Extent="0 128 0 128 0 0"> 
<PointData>
<DataArray type="Float32" Name="u" format="ascii" NumberOfComponents="1"> 
0 0 0 0 0 0 0 0 0 0 0 0 0 0 0 0 0 0 0 0 0 0 0 0 0 0 0 0 0 0 0 0 0 0 0 0 0 0 0 0 0 0 0 0 0 0 0 0 0 0 0 0 0 0 0 0 0 0 0 0 0 0 0 0 0 0 0 0 0 0 0 0 0 0 0 0 0 0 0 0 0 0 0 0 0 0 0 0 0 0 0 0 0 0 0 0 0 0 0 0 0 0 0 0 0 0 0 0 0 0 0 0 0 0 0 0 0 0 0 0 0 0 0 0 0 0 0 0 0 0 5.03779e-08 2.01512e-07 4.53401e-07 8.06046e-07 1.25945e-06 1.8136e-06 2.46852e-06 3.22418e-06 4.0363e-06 4.86054e-06 5.69691e-06 6.54541e-06 7.40604e-06 8.2788e-06 9.1637e-06 1.00607e-05 1.09689e-05 1.18873e-05 1.28159e-05 1.37547e-05 1.47037e-05 1.56629e-05 1.66323e-05 1.76119e-05 1.85943e-05 1.95721e-05 2.05453e-05 2.15139e-05 2.24779e-05 2.34374e-05 2.43922e-05 2.53424e-05 2.62817e-05 2.72038e-05 2.81087e-05 2.89963e-05 2.98667e-05 3.07199e-05 3.15558e-05 3.23746e-05 3.31711e-05 3.39404e-05 3.46825e-05 3.53975e-05 3.60853e-05 3.67459e-05 3.73794e-05 3.79856e-05 3.85612e-05 3.91026e-05 3.96099e-05 4.00829e-05 4.05218e-05 4.09265e-05 4.1297e-05 4.16333e-05 4.19335e-05 4.21958e-05 4.242e-05 4.26063e-05 4.27547e-05 4.2865e-05 4.29374e-05 4.29717e-05 4.29679e-05 4.29258e-05 4.28452e-05 4.27263e-05 4.25691e-05 4.23734e-05 4.21394e-05 4.1867e-05 4.15579e-05 4.12134e-05 4.08337e-05 4.04188e-05 3.99685e-05 3.94831e-05 3.89623e-05 3.84063e-05 3.78184e-05 3.72017e-05 3.65563e-05 3.58823e-05 3.51795e-05 3.4448e-05 3.36878e-05 3.2899e-05 3.20863e-05 3.12548e-05 3.04045e-05 2.95352e-05 2.86472e-05 2.77403e-05 2.68145e-05 2.58699e-05 2.49129e-05 2.39499e-05 2.29811e-05 2.20063e-05 2.10256e-05 2.0039e-05 1.90464e-05 1.80479e-05 1.70513e-05 1.60641e-05 1.50865e-05 1.41184e-05 1.31599e-05 1.22109e-05 1.12714e-05 1.03415e-05 9.42222e-06 8.51487e-06 7.6194e-06 6.73582e-06 5.86413e-06 5.00432e-06 4.1564e-06 3.32036e-06 2.54215e-06 1.8677e-06 1.29702e-06 8.30091e-07 4.66926e-07 2.07523e-07 5.18807e-08 0 0 2.01512e-07 8.06046e-07 1.8136e-06 3.22418e-06 5.03779e-06 7.25442e-06 9.87407e-06 1.28967e-05 1.61452e-05 1.94422e-05 2.27876e-05 2.61816e-05 2.96242e-05 3.31152e-05 3.66548e-05 4.02429e-05 4.38756e-05 4.75492e-05 5.12636e-05 5.50187e-05 5.88147e-05 6.26515e-05 6.65291e-05 7.04475e-05 7.43771e-05 7.82883e-05 8.21812e-05 8.60557e-05 8.99117e-05 9.37494e-05 9.75688e-05 0.00010137 0.000105127 0.000108815 0.000112435 0.000115985 0.000119467 0.00012288 0.000126223 0.000129498 0.000132684 0.000135762 0.00013873 0.00014159 0.000144341 0.000146984 0.000149518 0.000151943 0.000154245 0.000156411 0.000158439 0.000160332 0.000162087 0.000163706 0.000165188 0.000166533 0.000167734 0.000168783 0.00016968 0.000170425 0.000171019 0.00017146 0.000171749 0.000171887 0.000171872 0.000171703 0.000171381 0.000170905 0.000170276 0.000169494 0.000168558 0.000167468 0.000166231 0.000164854 0.000163335 0.000161675 0.000159874 0.000157932 0.000155849 0.000153625 0.000151274 0.000148807 0.000146225 0.000143529 0.000140718 0.000137792 0.000134751 0.000131596 0.000128345 0.000125019 0.000121618 0.000118141 0.000114589 0.000110961 0.000107258 0.000103479 9.96515e-05 9.57997e-05 9.19243e-05 8.80252e-05 8.41024e-05 8.01558e-05 7.61856e-05 7.21917e-05 6.82051e-05 6.42565e-05 6.03461e-05 5.64738e-05 5.26396e-05 4.88436e-05 4.50856e-05 4.13658e-05 3.76889e-05 3.40595e-05 3.04776e-05 2.69433e-05 2.34565e-05 2.00173e-05 1.66256e-05 1.32815e-05 1.01686e-05 7.47082e-06 5.18807e-06 3.32036e-06 1.8677e-06 8.30091e-07 2.07523e-07 0 0 4.53401e-07 1.8136e-06 4.08061e-06 7.25442e-06 1.1335e-05 1.63224e-05 2.22166e-05 2.90177e-05 3.63267e-05 4.37448e-05 5.12722e-05 5.89087e-05 6.66544e-05 7.45092e-05 8.24733e-05 9.05465e-05 9.87202e-05 0.000106986 0.000115343 0.000123792 0.000132333 0.000140966 0.00014969 0.000158507 0.000167348 0.000176149 0.000184908 0.000193625 0.000202301 0.000210936 0.00021953 0.000228082 0.000236536 0.000244835 0.000252978 0.000260967 0.000268801 0.000276479 0.000284003 0.000291371 0.00029854 0.000305463 0.000312143 0.000318578 0.000324768 0.000330713 0.000336414 0.000341871 0.000347051 0.000351924 0.000356489 0.000360746 0.000364696 0.000368338 0.000371673 0.000374699 0.000377402 0.000379762 0.00038178 0.000383457 0.000384792 0.000385785 0.000386436 0.000386746 0.000386711 0.000386332 0.000385607 0.000384537 0.000383122 0.000381361 0.000379255 0.000376803 0.000374021 0.000370921 0.000367503 0.000363769 0.000359717 0.000355348 0.000350661 0.000345657 0.000340365 0.000334815 0.000329007 0.00032294 0.000316615 0.000310032 0.000303191 0.000296091 0.000288777 0.000281293 0.00027364 0.000265817 0.000257825 0.000249662 0.00024133 0.000232829 0.000224216 0.000215549 0.00020683 0.000198057 0.00018923 0.000180351 0.000171418 0.000162431 0.000153461 0.000144577 0.000135779 0.000127066 0.000118439 0.000109898 0.000101443 9.30731e-05 8.48e-05 7.66338e-05 6.85746e-05 6.06224e-05 5.27771e-05 4.50389e-05 3.74076e-05 2.98833e-05 2.28794e-05 1.68093e-05 1.16732e-05 7.47082e-06 4.20234e-06 1.8677e-06 4.66926e-07 0 0 8.06046e-07 3.22418e-06 7.25442e-06 1.28967e-05 2.01512e-05 2.90177e-05 3.94963e-05 5.1587e-05 6.45807e-05 7.77686e-05 9.11505e-05 0.000104727 0.000118497 0.000132461 0.000146619 0.000160972 0.000175503 0.000190197 0.000205054 0.000220075 0.000235259 0.000250606 0.000266116 0.00028179 0.000297508 0.000313153 0.000328725 0.000344223 0.000359647 0.000374998 0.000390275 0.000405479 0.000420508 0.000435261 0.000449739 0.000463941 0.000477868 0.000491518 0.000504894 0.000517993 0.000530737 0.000543046 0.000554921 0.00056636 0.000577365 0.000587935 0.00059807 0.00060777 0.00061698 0.000625642 0.000633758 0.000641327 0.000648348 0.000654823 0.000660751 0.000666132 0.000670936 0.000675132 0.000678721 0.000681702 0.000684075 0.00068584 0.000686998 0.000687548 0.000687487 0.000686812 0.000685524 0.000683621 0.000681105 0.000677975 0.000674231 0.000669873 0.000664926 0.000659415 0.000653339 0.0006467 0.000639497 0.000631729 0.000623397 0.000614502 0.000605094 0.000595227 0.000584901 0.000574116 0.000562872 0.000551168 0.000539006 0.000526384 0.000513381 0.000500077 0.000486471 0.000472564 0.000458355 0.000443844 0.000429032 0.000413918 0.000398606 0.000383199 0.000367697 0.000352101 0.000336409 0.000320623 0.000304743 0.000288767 0.00027282 0.000257026 0.000241384 0.000225895 0.000210558 0.000195374 0.000180343 0.000165463 0.000150756 0.000136238 0.00012191 0.000107773 9.3826e-05 8.00691e-05 6.65024e-05 5.31258e-05 4.06745e-05 2.98833e-05 2.07523e-05 1.32815e-05 7.47082e-06 3.32036e-06 8.30091e-07 0 0 1.25945e-06 5.03779e-06 1.1335e-05 2.01512e-05 3.14862e-05 4.53401e-05 6.17129e-05 8.06046e-05 0.000100907 0.000121513 0.000142423 0.000163635 0.000185151 0.00020697 0.000229092 0.000251518 0.000274223 0.000297182 0.000320397 0.000343867 0.000367592 0.000391572 0.000415807 0.000440297 0.000464857 0.000489302 0.000513632 0.000537848 0.000561948 0.000585934 0.000609805 0.000633561 0.000657044 0.000680096 0.000702718 0.000724908 0.000746668 0.000767998 0.000788896 0.000809364 0.000829276 0.00084851 0.000867064 0.000884938 0.000902133 0.000918648 0.000934484 0.000949641 0.000964031 0.000977566 0.000990247 0.00100207 0.00101304 0.00102316 0.00103242 0.00104083 0.00104834 0.00105489 0.0010605 0.00106516 0.00106887 0.00107163 0.00107343 0.00107429 0.0010742 0.00107314 0.00107113 0.00106816 0.00106423 0.00105934 0.00105349 0.00104668 0.00103895 0.00103034 0.00102084 0.00101047 0.000999213 0.000987077 0.000974058 0.000960159 0.000945459 0.000930043 0.000913908 0.000897057 0.000879487 0.0008612 0.000842196 0.000822474 0.000802158 0.00078137 0.000760111 0.000738381 0.000716179 0.000693507 0.000670362 0.000646747 0.000622822 0.000598748 0.000574527 0.000550157 0.00052564 0.000500974 0.00047616 0.000451198 0.000426282 0.000401603 0.000377163 0.000352961 0.000328998 0.000305272 0.000281785 0.000258537 0.000235556 0.000212872 0.000190485 0.000168396 0.000146603 0.000125108 0.00010391 8.30091e-05 6.35539e-05 4.66926e-05 3.24254e-05 2.07523e-05 1.16732e-05 5.18807e-06 1.29702e-06 0 0 1.8136e-06 7.25442e-06 1.63224e-05 2.90177e-05 4.53401e-05 6.52897e-05 8.88666e-05 0.000116071 0.000145307 0.000174979 0.000205089 0.000235635 0.000266618 0.000298037 0.000329893 0.000362186 0.000394881 0.000427943 0.000461372 0.000495169 0.000529332 0.000563863 0.000598762 0.000634027 0.000669394 0.000704595 0.000739631 0.000774501 0.000809206 0.000843745 0.000878119 0.000912327 0.000946143 0.000979338 0.00101191 0.00104387 0.0010752 0.00110592 0.00113601 0.00116548 0.00119416 0.00122185 0.00124857 0.00127431 0.00129907 0.00132285 0.00134566 0.00136748 0.0013882 0.00140769 0.00142596 0.00144298 0.00145878 0.00147335 0.00148669 0.0014988 0.00150961 0.00151905 0.00152712 0.00153383 0.00153917 0.00154314 0.00154574 0.00154698 0.00154685 0.00154533 0.00154243 0.00153815 0.00153249 0.00152544 0.00151702 0.00150721 0.00149608 0.00148368 0.00147001 0.00145508 0.00143887 0.00142139 0.00140264 0.00138263 0.00136146 0.00133926 0.00131603 0.00129176 0.00126646 0.00124013 0.00121276 0.00118436 0.00115511 0.00112517 0.00109456 0.00106327 0.0010313 0.000998649 0.000965322 0.000931315 0.000896863 0.000862197 0.000827319 0.000792227 0.000756921 0.000721403 0.000685671 0.000649726 0.000613846 0.000578309 0.000543115 0.000508264 0.000473756 0.000439592 0.000405771 0.000372293 0.0003392 0.000306535 0.000274298 0.00024249 0.000211109 0.000180156 0.00014963 0.000119533 9.15175e-05 6.72374e-05 4.66926e-05 2.98833e-05 1.68093e-05 7.47082e-06 1.8677e-06 0 0 2.46852e-06 9.87407e-06 2.22166e-05 3.94963e-05 6.17129e-05 8.88666e-05 0.000120957 0.000157985 0.000197779 0.000238166 0.000279149 0.000320725 0.000362896 0.000405661 0.000449021 0.000492975 0.000537476 0.000582478 0.000627979 0.000673979 0.00072048 0.000767481 0.000814981 0.000862982 0.00091112 0.000959032 0.00100672 0.00105418 0.00110142 0.00114843 0.00119522 0.00124178 0.00128781 0.00133299 0.00137733 0.00142082 0.00146347 0.00150528 0.00154624 0.00158635 0.00162538 0.00166308 0.00169944 0.00173448 0.00176818 0.00180055 0.00183159 0.0018613 0.0018895 0.00191603 0.00194088 0.00196406 0.00198557 0.0020054 0.00202355 0.00204003 0.00205474 0.00206759 0.00207858 0.00208771 0.00209498 0.00210039 0.00210393 0.00210561 0.00210543 0.00210336 0.00209942 0.00209359 0.00208588 0.0020763 0.00206483 0.00205149 0.00203634 0.00201946 0.00200085 0.00198052 0.00195846 0.00193467 0.00190915 0.00188191 0.0018531 0.00182288 0.00179126 0.00175823 0.0017238 0.00168795 0.0016507 0.00161205 0.00157223 0.00153149 0.00148982 0.00144723 0.00140371 0.00135927 0.00131391 0.00126762 0.00122073 0.00117355 0.00112607 0.00107831 0.00103025 0.000981909 0.000933274 0.000884349 0.000835512 0.000787142 0.000739239 0.000691804 0.000644835 0.000598334 0.000552299 0.000506732 0.000461689 0.000417229 0.000373351 0.000330055 0.000287342 0.000245212 0.000203664 0.000162698 0.000124566 9.15175e-05 6.35539e-05 4.06745e-05 2.28794e-05 1.01686e-05 2.54215e-06 0 0 3.22418e-06 1.28967e-05 2.90177e-05 5.1587e-05 8.06046e-05 0.000116071 0.000157985 0.000206348 0.000258323 0.000311074 0.000364602 0.000418906 0.000473987 0.000529844 0.000586477 0.000643886 0.00070201 0.000760787 0.000820217 0.0008803 0.000941035 0.00100242 0.00106447 0.00112716 0.00119003 0.00125261 0.0013149 0.00137689 0.00143859 0.00149999 0.0015611 0.00162192 0.00168203 0.00174105 0.00179896 0.00185577 0.00191147 0.00196607 0.00201957 0.00207197 0.00212295 0.00217218 0.00221968 0.00226544 0.00230946 0.00235174 0.00239228 0.00243108 0.00246792 0.00250257 0.00253503 0.00256531 0.00259339 0.00261929 0.002643 0.00266453 0.00268374 0.00270053 0.00271488 0.00272681 0.0027363 0.00274336 0.00274799 0.00275019 0.00274995 0.00274725 0.0027421 0.00273449 0.00272442 0.0027119 0.00269692 0.00267949 0.0026597 0.00263766 0.00261336 0.0025868 0.00255799 0.00252692 0.00249359 0.00245801 0.00242038 0.00238091 0.00233961 0.00229646 0.00225149 0.00220467 0.00215602 0.00210553 0.00205352 0.00200031 0.00194589 0.00189026 0.00183342 0.00177538 0.00171613 0.00165567 0.00159442 0.0015328 0.00147079 0.0014084 0.00134564 0.00128249 0.00121897 0.00115507 0.00109128 0.0010281 0.000965537 0.00090358 0.000842234 0.000781497 0.00072137 0.000661853 0.000603022 0.000544952 0.000487642 0.000431093 0.000375304 0.000320276 0.00026601 0.000212503 0.000162698 0.000119533 8.30091e-05 5.31258e-05 2.98833e-05 1.32815e-05 3.32036e-06 0 0 4.03625e-06 1.6145e-05 3.63262e-05 6.45799e-05 0.000100906 0.000145305 0.000197776 0.00025832 0.000323384 0.000389415 0.000456415 0.000524382 0.000593318 0.000663221 0.000734092 0.000805931 0.000878662 0.000952208 0.00102657 0.00110175 0.00117774 0.00125455 0.00133217 0.00141061 0.00148927 0.00156757 0.0016455 0.00172305 0.00180024 0.00187706 0.00195351 0.0020296 0.0021048 0.00217863 0.00225108 0.00232215 0.00239184 0.00246015 0.00252708 0.00259263 0.00265641 0.002718 0.00277742 0.00283467 0.00288974 0.00294263 0.00299334 0.00304189 0.00308797 0.00313132 0.00317193 0.0032098 0.00324494 0.00327734 0.003307 0.00333393 0.00335797 0.00337897 0.00339692 0.00341184 0.00342371 0.00343255 0.00343834 0.00344109 0.00344079 0.00343741 0.00343096 0.00342144 0.00340885 0.00339318 0.00337445 0.00335264 0.00332788 0.0033003 0.0032699 0.00323668 0.00320063 0.00316176 0.00312007 0.00307555 0.00302848 0.0029791 0.00292743 0.00287346 0.00281719 0.00275863 0.00269776 0.0026346 0.00256954 0.00250296 0.00243488 0.00236528 0.00229418 0.00222157 0.00214744 0.00207181 0.00199518 0.00191809 0.00184051 0.00176246 0.00168394 0.00160494 0.00152546 0.00144551 0.00136571 0.00128666 0.00120838 0.00113086 0.00105411 0.00097811 0.000902876 0.000828403 0.000754786 0.000682118 0.000610397 0.000539625 0.000469801 0.000400926 0.000332998 0.000266019 0.000203671 0.000149636 0.000103914 6.65049e-05 3.7409e-05 1.66262e-05 4.15655e-06 0 0 4.86034e-06 1.94414e-05 4.3743e-05 7.77654e-05 0.000121508 0.000174972 0.000238157 0.000311062 0.000389404 0.000468901 0.000549552 0.000631358 0.000714317 0.000798432 0.0008837 0.000970123 0.00105761 0.00114608 0.00123552 0.00132594 0.00141734 0.00150971 0.00160306 0.00169739 0.00179198 0.00188613 0.00197983 0.00207309 0.00216591 0.00225828 0.0023502 0.00244168 0.00253211 0.00262087 0.00270798 0.00279343 0.00287722 0.00295935 0.00303982 0.00311863 0.0031953 0.00326936 0.0033408 0.00340962 0.00347583 0.00353942 0.0036004 0.00365876 0.00371416 0.00376628 0.0038151 0.00386063 0.00390288 0.00394183 0.00397749 0.00400987 0.00403877 0.00406401 0.0040856 0.00410353 0.0041178 0.00412842 0.00413538 0.00413869 0.00413832 0.00413426 0.00412651 0.00411506 0.00409992 0.00408109 0.00405856 0.00403234 0.00400257 0.00396941 0.00393286 0.00389292 0.00384958 0.00380284 0.00375272 0.0036992 0.0036426 0.00358323 0.00352111 0.00345622 0.00338857 0.00331816 0.00324498 0.00316904 0.00309081 0.00301077 0.00292891 0.00284524 0.00275975 0.00267244 0.00258332 0.00249239 0.00240026 0.00230756 0.00221428 0.00212043 0.00202601 0.00193102 0.00183546 0.00173932 0.00164335 0.00154829 0.00145415 0.00136092 0.0012686 0.0011772 0.00108671 0.000997127 0.000908568 0.000821141 0.000734843 0.000649677 0.000565641 0.000482735 0.00040096 0.000320316 0.000245242 0.000180178 0.000125123 8.0079e-05 4.50444e-05 2.00198e-05 5.00494e-06 0 0 5.69646e-06 2.27858e-05 5.12681e-05 9.11434e-05 0.000142412 0.000205073 0.000279127 0.000364573 0.000456385 0.000549532 0.000644014 0.000739832 0.000836986 0.000935475 0.0010353 0.00113646 0.00123886 0.00134239 0.00144706 0.00155287 0.00165982 0.00176791 0.00187713 0.00198749 0.00209815 0.0022083 0.00231792 0.00242701 0.00253559 0.00264364 0.00275116 0.00285817 0.00296394 0.00306777 0.00316966 0.0032696 0.0033676 0.00346367 0.00355779 0.00364997 0.00373964 0.00382626 0.00390982 0.00399031 0.00406775 0.00414212 0.00421344 0.00428169 0.00434649 0.00440745 0.00446455 0.0045178 0.00456721 0.00461277 0.00465448 0.00469234 0.00472614 0.00475566 0.00478091 0.00480188 0.00481857 0.00483099 0.00483913 0.004843 0.00484256 0.00483781 0.00482874 0.00481535 0.00479764 0.00477561 0.00474926 0.00471859 0.00468377 0.00464499 0.00460223 0.00455551 0.00450482 0.00445016 0.00439153 0.00432893 0.00426273 0.0041933 0.00412064 0.00404474 0.00396562 0.00388326 0.00379767 0.00370885 0.00361736 0.00352373 0.00342799 0.00333012 0.00323013 0.00312801 0.00302377 0.00291741 0.00280964 0.00270121 0.0025921 0.00248232 0.00237187 0.00226075 0.00214895 0.00203648 0.00192421 0.00181299 0.00170284 0.00159376 0.00148573 0.00137877 0.00127286 0.00116802 0.00106437 0.00096202 0.00086098 0.000761247 0.000662822 0.000565705 0.000469895 0.000375393 0.00028741 0.000211159 0.000146638 9.38483e-05 5.27897e-05 2.34621e-05 5.86552e-06 0 0 6.54461e-06 2.61785e-05 5.89015e-05 0.000104714 0.000163615 0.000235606 0.000320686 0.000418855 0.000524325 0.000631307 0.0007398 0.000849806 0.000961323 0.00107435 0.00118889 0.00130495 0.0014224 0.00154116 0.00166121 0.00178255 0.0019052 0.00202914 0.00215438 0.00228091 0.00240779 0.00253407 0.00265974 0.00278481 0.00290928 0.00303314 0.0031564 0.00327906 0.0034003 0.00351931 0.0036361 0.00375066 0.003863 0.0039731 0.00408098 0.00418664 0.00428942 0.0043887 0.00448447 0.00457673 0.00466549 0.00475073 0.00483247 0.0049107 0.00498497 0.00505483 0.00512028 0.00518131 0.00523794 0.00529015 0.00533796 0.00538135 0.00542008 0.00545392 0.00548285 0.00550689 0.00552602 0.00554025 0.00554957 0.005554 0.0055535 0.00554805 0.00553765 0.0055223 0.005502 0.00547675 0.00544654 0.00541139 0.00537148 0.00532702 0.00527802 0.00522447 0.00516636 0.00510371 0.00503651 0.00496476 0.00488888 0.0048093 0.00472601 0.00463902 0.00454833 0.00445394 0.00435584 0.00425403 0.00414916 0.00404185 0.00393211 0.00381993 0.00370532 0.00358827 0.00346878 0.00334686 0.00322334 0.00309904 0.00297397 0.00284812 0.0027215 0.00259411 0.00246594 0.002337 0.00220828 0.00208076 0.00195446 0.00182937 0.00170548 0.00158281 0.00146135 0.00134109 0.00122218 0.00110476 0.000988807 0.000874337 0.000761346 0.000649835 0.000539803 0.000431251 0.000330177 0.000242579 0.000168457 0.000107813 6.06447e-05 2.69532e-05 6.7383e-06 0 0 7.4048e-06 2.96192e-05 6.66432e-05 0.000118477 0.00018512 0.000266573 0.000362835 0.000473907 0.000593225 0.000714227 0.000836911 0.000961278 0.00108733 0.00121506 0.00134448 0.00147558 0.00160825 0.00174237 0.00187795 0.00201498 0.00215347 0.00229341 0.0024348 0.00257766 0.00272089 0.00286344 0.00300531 0.00314649 0.00328698 0.00342679 0.00356591 0.00370435 0.00384119 0.00397551 0.00410732 0.00423662 0.00436339 0.00448766 0.00460941 0.00472864 0.00484464 0.00495668 0.00506476 0.00516888 0.00526904 0.00536525 0.00545749 0.00554577 0.00562958 0.00570842 0.00578228 0.00585116 0.00591506 0.00597398 0.00602793 0.00607689 0.00612061 0.00615879 0.00619143 0.00621855 0.00624014 0.00625619 0.00626672 0.00627171 0.00627115 0.00626499 0.00625325 0.00623592 0.00621301 0.0061845 0.00615041 0.00611073 0.0060657 0.00601552 0.00596022 0.00589978 0.0058342 0.0057635 0.00568765 0.00560668 0.00552105 0.00543123 0.00533724 0.00523907 0.00513672 0.00503019 0.00491948 0.00480459 0.00468623 0.00456513 0.00444127 0.00431467 0.00418532 0.00405321 0.00391836 0.00378076 0.00364135 0.00350106 0.00335989 0.00321784 0.00307492 0.00293112 0.00278644 0.00264088 0.00249556 0.0023516 0.002209 0.00206775 0.00192786 0.00178933 0.00165215 0.00151634 0.00138202 0.00124935 0.00111832 0.000988946 0.000861213 0.000735126 0.000610685 0.000487889 0.00037354 0.000274438 0.000190582 0.000121972 6.86094e-05 3.04931e-05 7.62327e-06 0 0 8.27701e-06 3.3108e-05 7.44931e-05 0.000132432 0.000206925 0.000297972 0.000405574 0.000529729 0.000663085 0.000798291 0.000935346 0.00107425 0.001215 0.00135761 0.00150206 0.00164836 0.00179639 0.00194603 0.00209728 0.00225015 0.00240463 0.00256071 0.00271841 0.00287773 0.00303746 0.00319642 0.00335462 0.00351204 0.0036687 0.00382458 0.0039797 0.00413405 0.00428661 0.00443636 0.00458331 0.00472746 0.0048688 0.00500733 0.00514306 0.00527599 0.0054053 0.00553021 0.00565069 0.00576676 0.00587842 0.00598567 0.00608849 0.00618691 0.00628034 0.00636823 0.00645056 0.00652734 0.00659857 0.00666426 0.00672439 0.00677897 0.0068277 0.00687026 0.00690665 0.00693688 0.00696094 0.00697883 0.00699056 0.00699612 0.00699549 0.00698862 0.00697553 0.00695621 0.00693066 0.00689888 0.00686087 0.00681664 0.00676642 0.00671049 0.00664883 0.00658145 0.00650834 0.00642952 0.00634497 0.00625469 0.00615923 0.0060591 0.00595432 0.00584488 0.00573077 0.00561201 0.00548859 0.00536051 0.00522856 0.00509355 0.00495548 0.00481433 0.00467013 0.00452285 0.00437251 0.0042191 0.00406367 0.00390725 0.00374986 0.00359147 0.00343211 0.00327176 0.00311043 0.00294811 0.00278606 0.00262551 0.00246646 0.00230891 0.00215287 0.00199833 0.00184529 0.00169375 0.00154387 0.0013958 0.00124953 0.00110507 0.000962421 0.000821576 0.000682539 0.000545308 0.000417501 0.000306736 0.000213011 0.000136327 7.66839e-05 3.40818e-05 8.52044e-06 0 0 9.16126e-06 3.6645e-05 8.24513e-05 0.00014658 0.000229031 0.000329805 0.000448902 0.00058632 0.000733906 0.000883501 0.00103511 0.00118872 0.00134435 0.00150198 0.00166163 0.00182328 0.00198683 0.00215214 0.00231922 0.00248806 0.00265868 0.00283106 0.00300521 0.00318112 0.00335749 0.00353301 0.00370767 0.00388148 0.00405443 0.00422652 0.00439776 0.00456815 0.00473656 0.00490187 0.00506408 0.0052232 0.00537921 0.00553213 0.00568195 0.00582867 0.00597141 0.00610927 0.00624226 0.00637038 0.00649362 0.00661199 0.00672549 0.00683412 0.00693724 0.00703424 0.00712511 0.00720986 0.00728848 0.00736098 0.00742735 0.00748759 0.00754137 0.00758834 0.00762851 0.00766187 0.00768842 0.00770816 0.0077211 0.00772724 0.00772653 0.00771895 0.00770449 0.00768316 0.00765495 0.00761987 0.00757792 0.00752909 0.00747366 0.00741191 0.00734385 0.00726948 0.00718878 0.00710177 0.00700844 0.0069088 0.00680343 0.00669291 0.00657725 0.00645644 0.0063305 0.00619941 0.00606318 0.0059218 0.00577616 0.00562714 0.00547472 0.00531893 0.00515974 0.00499718 0.00483122 0.00466188 0.0044903 0.00431763 0.00414387 0.00396902 0.00379308 0.00361605 0.00343792 0.00325871 0.00307977 0.00290248 0.00272684 0.00255285 0.0023805 0.0022098 0.00204075 0.00187334 0.00170774 0.0015441 0.00138243 0.00122272 0.00106497 0.000909187 0.000755366 0.000603507 0.00046206 0.000339473 0.000235745 0.000150877 8.48682e-05 3.77192e-05 9.4298e-06 0 0 1.00575e-05 4.02301e-05 9.05178e-05 0.00016092 0.000251438 0.000362071 0.000492819 0.000643682 0.000805685 0.000969855 0.00113619 0.00130469 0.00147536 0.00164819 0.00182319 0.00200036 0.00217956 0.00236069 0.00254375 0.00272872 0.00291562 0.00310444 0.00329518 0.00348784 0.00368099 0.0038732 0.00406446 0.00425479 0.00444417 0.00463261 0.0048201 0.00500665 0.00519104 0.00537203 0.00554962 0.00572382 0.00589463 0.00606204 0.00622606 0.00638669 0.00654295 0.00669388 0.00683947 0.00697972 0.00711464 0.00724423 0.00736847 0.00748739 0.00760028 0.00770647 0.00780595 0.00789872 0.00798479 0.00806415 0.0081368 0.00820275 0.00826161 0.00831303 0.008357 0.00839351 0.00842257 0.00844418 0.00845835 0.00846505 0.00846428 0.00845597 0.00844014 0.00841678 0.0083859 0.00834749 0.00830155 0.00824809 0.0081874 0.0081198 0.00804529 0.00796386 0.00787552 0.00778026 0.00767809 0.007569 0.00745364 0.00733265 0.00720603 0.00707378 0.00693589 0.00679238 0.00664324 0.00648846 0.00632902 0.00616587 0.00599901 0.00582845 0.00565417 0.00547619 0.0052945 0.0051091 0.00492125 0.00473219 0.00454194 0.00435048 0.00415783 0.00396397 0.00376892 0.00357266 0.0033767 0.00318253 0.00299015 0.00279956 0.00261076 0.00242375 0.00223853 0.0020551 0.00187363 0.00169427 0.00151702 0.00134189 0.00116887 0.000997959 0.000829166 0.000662487 0.000507217 0.000372649 0.000258784 0.000165622 9.31623e-05 4.14055e-05 1.03514e-05 0 0 1.09648e-05 4.38593e-05 9.86834e-05 0.000175437 0.000274121 0.000394734 0.000537276 0.000701749 0.000878345 0.00105726 0.00123849 0.00142205 0.00160792 0.00179611 0.00198662 0.00217944 0.00237447 0.00257157 0.00277074 0.002972 0.00317532 0.00338073 0.0035882 0.00379776 0.00400784 0.00421688 0.00442489 0.00463187 0.00483782 0.00504273 0.00524661 0.00544946 0.00564995 0.00584674 0.00603985 0.00622925 0.00641497 0.00659699 0.00677533 0.00694996 0.00711985 0.00728394 0.00744223 0.00759472 0.00774141 0.00788229 0.00801737 0.00814665 0.00826939 0.00838483 0.00849298 0.00859384 0.00868741 0.00877369 0.00885267 0.00892436 0.00898836 0.00904426 0.00909205 0.00913174 0.00916333 0.00918682 0.00920221 0.0092095 0.00920865 0.00919961 0.0091824 0.00915699 0.00912341 0.00908165 0.0090317 0.00897357 0.00890759 0.00883409 0.00875307 0.00866454 0.00856848 0.00846491 0.00835383 0.00823522 0.0081098 0.00797825 0.00784058 0.00769679 0.00754688 0.00739085 0.00722869 0.00706042 0.00688707 0.00670968 0.00652826 0.00634281 0.00615332 0.0059598 0.00576225 0.00556066 0.0053564 0.00515083 0.00494395 0.00473575 0.00452625 0.00431543 0.00410329 0.00388985 0.00367672 0.00346552 0.00325625 0.00304892 0.00284351 0.00264005 0.00243851 0.00223891 0.0020414 0.00184616 0.00165318 0.00146245 0.00127399 0.0010878 0.000903858 0.000722182 0.00055292 0.000406227 0.000282102 0.000180545 0.000101557 4.51364e-05 1.12841e-05 0 0 1.18821e-05 4.75285e-05 0.000106939 0.000190114 0.000297053 0.000427757 0.000582224 0.000760456 0.000951805 0.00114562 0.00134191 0.00154067 0.0017419 0.0019456 0.00215177 0.00236042 0.00257141 0.00278463 0.00300008 0.00321775 0.00343766 0.0036598 0.00388417 0.00411077 0.00433791 0.00456394 0.00478884 0.00501262 0.00523527 0.0054568 0.0056772 0.00589648 0.00611321 0.00632593 0.00653466 0.0067394 0.00694015 0.0071369 0.00732965 0.00751841 0.00770204 0.0078794 0.00805048 0.0082153 0.00837384 0.00852611 0.00867211 0.00881184 0.00894449 0.00906926 0.00918615 0.00929516 0.00939629 0.00948953 0.00957489 0.00965238 0.00972154 0.00978195 0.0098336 0.00987649 0.00991063 0.00993601 0.00995264 0.00996051 0.00995958 0.00994981 0.00993119 0.00990373 0.00986743 0.00982228 0.00976829 0.00970546 0.00963414 0.00955469 0.00946712 0.00937142 0.0092676 0.00915566 0.00903559 0.00890739 0.00877182 0.00862964 0.00848084 0.00832542 0.00816339 0.00799474 0.00781947 0.00763759 0.00745021 0.00725848 0.00706238 0.00686193 0.00665711 0.00644792 0.00623438 0.00601648 0.00579568 0.00557345 0.0053498 0.00512472 0.00489822 0.00467029 0.00444094 0.00421016 0.0039797 0.00375132 0.00352502 0.00330079 0.00307863 0.00285855 0.00264055 0.00242462 0.00221093 0.00199965 0.00179078 0.00158431 0.00138025 0.0011786 0.00097936 0.000782525 0.000599121 0.00044017 0.000305674 0.000195631 0.000110043 4.89078e-05 1.2227e-05 0 0 1.28094e-05 5.12377e-05 0.000115285 0.000204951 0.000320236 0.00046114 0.000627662 0.000819804 0.00102607 0.00123495 0.00144645 0.00166057 0.00187732 0.00209668 0.00231867 0.00254327 0.00277038 0.00299987 0.00323174 0.003466 0.00370264 0.00394166 0.00418307 0.00442686 0.00467123 0.00491438 0.00515631 0.00539703 0.00563653 0.00587481 0.00611187 0.00634772 0.0065808 0.00680959 0.00703408 0.00725427 0.00747016 0.00768175 0.00788904 0.00809204 0.00828951 0.00848023 0.00866421 0.00884145 0.00901194 0.00917569 0.00933269 0.00948294 0.00962559 0.00975976 0.00988545 0.0100027 0.0101114 0.0102117 0.0103035 0.0103868 0.0104611 0.0105261 0.0105816 0.0106278 0.0106645 0.0106918 0.0107096 0.0107181 0.0107171 0.0107066 0.0106865 0.010657 0.010618 0.0105694 0.0105113 0.0104438 0.0103671 0.0102816 0.0101874 0.0100845 0.00997288 0.00985249 0.00972337 0.00958551 0.00943972 0.00928681 0.00912679 0.00895966 0.00878541 0.00860404 0.00841556 0.00821996 0.00801846 0.00781227 0.00760138 0.0073858 0.00716552 0.00694055 0.00671089 0.00647654 0.00623906 0.00600005 0.00575949 0.00551739 0.00527375 0.00502857 0.00478185 0.00453358 0.00428565 0.00403994 0.00379645 0.00355517 0.00331611 0.00307927 0.00284464 0.00261223 0.00238221 0.00215474 0.00192982 0.00170745 0.00148764 0.00127038 0.00105567 0.000843517 0.000645818 0.000474478 0.000329499 0.000210879 0.00011862 5.27198e-05 1.31799e-05 0 0 1.37468e-05 5.4987e-05 0.000123721 0.000219948 0.000343669 0.000494883 0.000673591 0.000879792 0.00110113 0.00132523 0.0015521 0.00178174 0.00201416 0.00224934 0.00248729 0.00272801 0.00297139 0.0032173 0.00346575 0.00371673 0.00397025 0.00422631 0.0044849 0.00474603 0.00500777 0.00526819 0.00552731 0.00578511 0.00604159 0.00629676 0.00655062 0.00680316 0.00705274 0.00729772 0.00753809 0.00777385 0.00800501 0.00823156 0.0084535 0.00867083 0.00888226 0.00908645 0.00928343 0.00947318 0.00965571 0.00983102 0.0099991 0.01016 0.0103127 0.0104563 0.0105909 0.0107164 0.0108328 0.0109401 0.0110384 0.0111276 0.0112072 0.0112767 0.0113362 0.0113855 0.0114248 0.011454 0.0114732 0.0114822 0.0114811 0.0114699 0.0114484 0.0114168 0.011375 0.011323 0.0112608 0.0111885 0.0111063 0.0110149 0.010914 0.0108038 0.0106843 0.0105554 0.0104172 0.0102696 0.0101135 0.00994978 0.00977845 0.00959951 0.00941295 0.00921877 0.00901697 0.00880755 0.00859181 0.00837105 0.00814525 0.00791442 0.00767857 0.00743769 0.00719178 0.00694085 0.00668657 0.00643063 0.00617303 0.00591376 0.00565284 0.00539026 0.00512602 0.00486012 0.00459457 0.00433138 0.00407055 0.00381207 0.00355596 0.0033022 0.0030508 0.00280176 0.00255525 0.00231143 0.00207031 0.00183189 0.00159616 0.00136313 0.00113279 0.000905157 0.000693011 0.000509151 0.000353577 0.000226289 0.000127288 5.65723e-05 1.41431e-05 0 0 1.46941e-05 5.87763e-05 0.000132247 0.000235105 0.000367352 0.000528987 0.00072001 0.000940421 0.00117699 0.00141647 0.00165887 0.00190419 0.00215242 0.00240358 0.00265765 0.00291464 0.00317443 0.00343692 0.00370209 0.00396995 0.0042405 0.00451374 0.00478967 0.00506829 0.00534754 0.00562539 0.00590182 0.00617684 0.00645045 0.00672265 0.00699344 0.00726281 0.00752902 0.00779032 0.00804669 0.00829815 0.00854469 0.00878631 0.00902302 0.00925481 0.00948029 0.00969806 0.00990813 0.0101105 0.0103052 0.0104921 0.0106714 0.0108429 0.0110058 0.0111589 0.0113024 0.0114363 0.0115604 0.0116749 0.0117797 0.0118748 0.0119597 0.0120338 0.0120972 0.0121498 0.0121917 0.0122229 0.0122433 0.0122529 0.0122517 0.0122397 0.0122168 0.0121831 0.0121385 0.0120831 0.0120167 0