<?xml version="1.0"?> 
<VTKFile type="StructuredGrid" version="0.1"> 
<StructuredGrid WholeExtent="0 128 0 128 0 0"> 
<Piece Extent="0 128 0 128 0 0"> 
<PointData>
<DataArray type="Float32" Name="u" format="ascii" NumberOfComponents="1"> 
0 0 0 0 0 0 0 0 0 0 0 0 0 0 0 0 0 0 0 0 0 0 0 0 0 0 0 0 0 0 0 0 0 0 0 0 0 0 0 0 0 0 0 0 0 0 0 0 0 0 0 0 0 0 0 0 0 0 0 0 0 0 0 0 0 0 0 0 0 0 0 0 0 0 0 0 0 0 0 0 0 0 0 0 0 0 0 0 0 0 0 0 0 0 0 0 0 0 0 0 0 0 0 0 0 0 0 0 0 0 0 0 0 0 0 0 0 0 0 0 0 0 0 0 0 0 0 0 0 0 5.71885e-09 2.28754e-08 5.14696e-08 9.15016e-08 1.42971e-07 2.05879e-07 2.80224e-07 3.66006e-07 4.67736e-07 5.89921e-07 7.32563e-07 8.9566e-07 1.07921e-06 1.28322e-06 1.50769e-06 1.75261e-06 2.02187e-06 2.31937e-06 2.64509e-06 2.99904e-06 3.38123e-06 3.79164e-06 4.23028e-06 4.69715e-06 5.19235e-06 5.71595e-06 6.26796e-06 6.84839e-06 7.45722e-06 8.09447e-06 8.76012e-06 9.45419e-06 1.01722e-05 1.09096e-05 1.16664e-05 1.24426e-05 1.32383e-05 1.40533e-05 1.48878e-05 1.57417e-05 1.66069e-05 1.74755e-05 1.83473e-05 1.92223e-05 2.01007e-05 2.09824e-05 2.18673e-05 2.27555e-05 2.36372e-05 2.45027e-05 2.5352e-05 2.6185e-05 2.70018e-05 2.78023e-05 2.85866e-05 2.93547e-05 3.00975e-05 3.08059e-05 3.14799e-05 3.21194e-05 3.27246e-05 3.32955e-05 3.38319e-05 3.43339e-05 3.47953e-05 3.521e-05 3.55779e-05 3.5899e-05 3.61734e-05 3.64009e-05 3.65817e-05 3.67157e-05 3.6801e-05 3.68358e-05 3.68201e-05 3.67537e-05 3.66369e-05 3.64694e-05 3.62515e-05 3.59829e-05 3.56666e-05 3.53052e-05 3.48987e-05 3.44472e-05 3.39506e-05 3.3409e-05 3.28222e-05 3.21905e-05 3.15204e-05 3.08186e-05 3.00853e-05 2.93203e-05 2.85237e-05 2.76955e-05 2.68356e-05 2.59441e-05 2.50304e-05 2.41039e-05 2.31646e-05 2.22125e-05 2.12476e-05 2.02698e-05 1.92793e-05 1.8276e-05 1.72702e-05 1.62725e-05 1.52828e-05 1.43012e-05 1.33276e-05 1.2362e-05 1.14044e-05 1.04549e-05 9.51638e-06 8.59177e-06 7.68107e-06 6.7843e-06 5.90146e-06 5.03253e-06 4.17754e-06 3.33646e-06 2.55448e-06 1.87676e-06 1.3033e-06 8.34115e-07 4.6919e-07 2.08529e-07 5.21322e-08 0 0 2.28754e-08 9.15016e-08 2.05879e-07 3.66006e-07 5.71885e-07 8.23514e-07 1.12089e-06 1.46403e-06 1.87094e-06 2.35969e-06 2.93025e-06 3.58264e-06 4.31685e-06 5.13289e-06 6.03075e-06 7.01044e-06 8.08749e-06 9.27747e-06 1.05804e-05 1.19962e-05 1.35249e-05 1.51666e-05 1.69211e-05 1.87886e-05 2.07694e-05 2.28638e-05 2.50718e-05 2.73935e-05 2.98289e-05 3.23779e-05 3.50405e-05 3.78167e-05 4.06887e-05 4.36383e-05 4.66655e-05 4.97704e-05 5.2953e-05 5.62133e-05 5.95512e-05 6.29667e-05 6.64277e-05 6.99018e-05 7.3389e-05 7.68894e-05 8.04028e-05 8.39294e-05 8.74691e-05 9.1022e-05 9.45489e-05 9.80108e-05 0.000101408 0.00010474 0.000108007 0.000111209 0.000114347 0.000117419 0.00012039 0.000123223 0.000125919 0.000128478 0.000130899 0.000133182 0.000135328 0.000137336 0.000139181 0.00014084 0.000142312 0.000143596 0.000144693 0.000145604 0.000146327 0.000146863 0.000147204 0.000147343 0.00014728 0.000147015 0.000146547 0.000145878 0.000145006 0.000143932 0.000142666 0.000141221 0.000139595 0.000137789 0.000135802 0.000133636 0.000131289 0.000128762 0.000126081 0.000123275 0.000120341 0.000117281 0.000114095 0.000110782 0.000107342 0.000103777 0.000100122 9.64157e-05 9.26585e-05 8.885e-05 8.49903e-05 8.10794e-05 7.71172e-05 7.31038e-05 6.90809e-05 6.509e-05 6.11313e-05 5.72047e-05 5.33103e-05 4.9448e-05 4.56178e-05 4.18197e-05 3.80655e-05 3.43671e-05 3.07243e-05 2.71372e-05 2.36058e-05 2.01301e-05 1.67101e-05 1.33458e-05 1.02179e-05 7.50703e-06 5.21322e-06 3.33646e-06 1.87676e-06 8.34115e-07 2.08529e-07 0 0 5.14696e-08 2.05879e-07 4.63227e-07 8.23514e-07 1.28674e-06 1.85291e-06 2.52201e-06 3.29406e-06 4.20962e-06 5.30929e-06 6.59307e-06 8.06094e-06 9.71292e-06 1.1549e-05 1.35692e-05 1.57735e-05 1.81969e-05 2.08743e-05 2.38058e-05 2.69914e-05 3.0431e-05 3.41248e-05 3.80725e-05 4.22744e-05 4.67311e-05 5.14435e-05 5.64117e-05 6.16355e-05 6.7115e-05 7.28502e-05 7.88411e-05 8.50877e-05 9.15495e-05 9.81861e-05 0.000104997 0.000111983 0.000119144 0.00012648 0.00013399 0.000141675 0.000149462 0.000157279 0.000165125 0.000173001 0.000180906 0.000188841 0.000196806 0.000204799 0.000212735 0.000220524 0.000228168 0.000235665 0.000243016 0.000250221 0.00025728 0.000264193 0.000270877 0.000277253 0.000283319 0.000289075 0.000294522 0.000299659 0.000304487 0.000309005 0.000313158 0.00031689 0.000320201 0.000323091 0.00032556 0.000327608 0.000329235 0.000330441 0.000331209 0.000331522 0.000331381 0.000330784 0.000329732 0.000328225 0.000326263 0.000323846 0.000320999 0.000317747 0.000314088 0.000310025 0.000305555 0.000300681 0.0002954 0.000289714 0.000283683 0.000277368 0.000270767 0.000263883 0.000256713 0.000249259 0.00024152 0.000233497 0.000225274 0.000216935 0.000208482 0.000199913 0.000191228 0.000182429 0.000173514 0.000164484 0.000155432 0.000146453 0.000137545 0.000128711 0.000119948 0.000111258 0.00010264 9.40943e-05 8.56475e-05 7.73259e-05 6.91297e-05 6.10587e-05 5.31131e-05 4.52928e-05 3.75978e-05 3.00281e-05 2.29903e-05 1.68908e-05 1.17297e-05 7.50703e-06 4.22271e-06 1.87676e-06 4.6919e-07 0 0 9.15016e-08 3.66006e-07 8.23514e-07 1.46403e-06 2.28754e-06 3.29406e-06 4.48358e-06 5.8561e-06 7.48377e-06 9.43874e-06 1.1721e-05 1.43306e-05 1.72674e-05 2.05316e-05 2.4123e-05 2.80418e-05 3.235e-05 3.71099e-05 4.23215e-05 4.79847e-05 5.40996e-05 6.06662e-05 6.76845e-05 7.51545e-05 8.30775e-05 9.14552e-05 0.000100287 0.000109574 0.000119316 0.000129511 0.000140162 0.000151267 0.000162755 0.000174553 0.000186662 0.000199082 0.000211812 0.000224853 0.000238205 0.000251867 0.000265711 0.000279607 0.000293556 0.000307557 0.000321611 0.000335718 0.000349876 0.000364088 0.000378195 0.000392043 0.000405632 0.00041896 0.000432028 0.000444837 0.000457386 0.000469676 0.00048156 0.000492894 0.000503678 0.000513911 0.000523594 0.000532727 0.00054131 0.000549342 0.000556726 0.00056336 0.000569247 0.000574384 0.000578774 0.000582415 0.000585307 0.000587451 0.000588817 0.000589373 0.000589121 0.00058806 0.00058619 0.000583511 0.000580023 0.000575727 0.000570665 0.000564883 0.000558379 0.000551155 0.00054321 0.000534543 0.000525156 0.000515048 0.000504326 0.000493098 0.000481364 0.000469125 0.000456379 0.000443127 0.00042937 0.000415106 0.000400487 0.000385663 0.000370634 0.0003554 0.000339961 0.000324318 0.000308469 0.000292415 0.000276323 0.00026036 0.000244525 0.000228819 0.000213241 0.000197792 0.000182471 0.000167279 0.000152262 0.000137468 0.000122897 0.000108549 9.44233e-05 8.05206e-05 6.68406e-05 5.33833e-05 4.08716e-05 3.00281e-05 2.08529e-05 1.33458e-05 7.50703e-06 3.33646e-06 8.34115e-07 0 0 1.42971e-07 5.71885e-07 1.28674e-06 2.28754e-06 3.57428e-06 5.14696e-06 7.00559e-06 9.15016e-06 1.16934e-05 1.4748e-05 1.83141e-05 2.23915e-05 2.69803e-05 3.20806e-05 3.76922e-05 4.38152e-05 5.05468e-05 5.79842e-05 6.61273e-05 7.49761e-05 8.45307e-05 9.4791e-05 0.000105757 0.000117429 0.000129809 0.000142899 0.000156699 0.00017121 0.00018643 0.000202362 0.000219003 0.000236355 0.000254304 0.000272739 0.000291659 0.000311065 0.000330956 0.000351333 0.000372195 0.000393542 0.000415173 0.000436886 0.000458681 0.000480559 0.000502518 0.000524559 0.000546682 0.000568887 0.00059093 0.000612568 0.000633799 0.000654625 0.000675044 0.000695058 0.000714666 0.000733868 0.000752437 0.000770147 0.000786996 0.000802986 0.000818116 0.000832386 0.000845797 0.000858348 0.000869884 0.00088025 0.000889448 0.000897476 0.000904334 0.000910023 0.000914542 0.000917893 0.000920026 0.000920896 0.000920502 0.000918844 0.000915922 0.000911736 0.000906286 0.000899573 0.000891665 0.000882629 0.000872468 0.00086118 0.000848765 0.000835224 0.000820556 0.000804762 0.000788009 0.000770466 0.000752132 0.000733007 0.000713092 0.000692386 0.00067089 0.000648603 0.000625761 0.000602598 0.000579116 0.000555313 0.00053119 0.000506746 0.000481983 0.000456899 0.000431755 0.000406813 0.000382071 0.00035753 0.000333189 0.00030905 0.000285111 0.000261373 0.00023791 0.000214794 0.000192027 0.000169608 0.000147536 0.000125813 0.000104438 8.34115e-05 6.38619e-05 4.6919e-05 3.25826e-05 2.08529e-05 1.17297e-05 5.21322e-06 1.3033e-06 0 0 2.05879e-07 8.23514e-07 1.85291e-06 3.29406e-06 5.14696e-06 7.41163e-06 1.0088e-05 1.31762e-05 1.68385e-05 2.12372e-05 2.63723e-05 3.22438e-05 3.88517e-05 4.6196e-05 5.42768e-05 6.30939e-05 7.27875e-05 8.34972e-05 9.52233e-05 0.000107966 0.000121724 0.000136499 0.00015229 0.000169098 0.000186924 0.000205774 0.000225647 0.000246542 0.00026846 0.000291401 0.000315364 0.000340351 0.000366198 0.000392744 0.00041999 0.000447934 0.000476577 0.000505919 0.00053596 0.000566701 0.000597849 0.000629116 0.000660501 0.000692004 0.000723625 0.000755365 0.000787222 0.000819198 0.00085094 0.000882098 0.000912671 0.00094266 0.000972064 0.00100088 0.00102912 0.00105677 0.00108351 0.00110901 0.00113327 0.0011563 0.00117809 0.00119864 0.00121795 0.00123602 0.00125263 0.00126756 0.0012808 0.00129236 0.00130224 0.00131043 0.00131694 0.00132177 0.00132484 0.00132609 0.00132552 0.00132313 0.00131893 0.0013129 0.00130505 0.00129539 0.001284 0.00127099 0.00125635 0.0012401 0.00122222 0.00120272 0.0011816 0.00115886 0.00113473 0.00110947 0.00108307 0.00105553 0.00102685 0.000997037 0.000966082 0.000933989 0.000901096 0.000867742 0.000833927 0.00079965 0.000764913 0.000729715 0.000694055 0.000657934 0.000621728 0.00058581 0.000550182 0.000514843 0.000479793 0.000445032 0.00041056 0.000376377 0.00034259 0.000309304 0.000276519 0.000244235 0.000212452 0.000181171 0.000150391 0.000120113 9.19611e-05 6.75633e-05 4.6919e-05 3.00281e-05 1.68908e-05 7.50703e-06 1.87676e-06 0 0 2.80224e-07 1.12089e-06 2.52201e-06 4.48358e-06 7.00559e-06 1.0088e-05 1.3731e-05 1.79343e-05 2.29191e-05 2.89061e-05 3.58956e-05 4.38874e-05 5.28815e-05 6.28779e-05 7.38767e-05 8.58779e-05 9.90718e-05 0.000113649 0.000129609 0.000146953 0.00016568 0.00018579 0.000207284 0.000230161 0.000254425 0.000280081 0.00030713 0.000335571 0.000365404 0.000396629 0.000429246 0.000463255 0.000498436 0.000534569 0.000571652 0.000609688 0.000648674 0.000688612 0.000729502 0.000771343 0.00081374 0.000856297 0.000899016 0.000941895 0.000984935 0.00102814 0.0010715 0.00111502 0.00115822 0.00120063 0.00124225 0.00128306 0.00132309 0.00136231 0.00140075 0.00143838 0.00147478 0.00150949 0.00154251 0.00157385 0.00160351 0.00163148 0.00165776 0.00168236 0.00170497 0.00172529 0.00174332 0.00175905 0.00177249 0.00178364 0.0017925 0.00179907 0.00180325 0.00180496 0.00180418 0.00180093 0.00179521 0.001787 0.00177632 0.00176316 0.00174766 0.00172995 0.00171004 0.00168791 0.00166358 0.00163704 0.00160829 0.00157733 0.0015445 0.00151011 0.00147418 0.00143669 0.00139766 0.00135708 0.00131494 0.00127126 0.00122649 0.00118109 0.00113507 0.00108841 0.00104113 0.000993223 0.000944686 0.000895522 0.000846241 0.000797353 0.000748859 0.000700758 0.000653051 0.000605738 0.000558818 0.000512291 0.000466303 0.000420997 0.000376373 0.000332431 0.000289171 0.000246594 0.000204699 0.000163486 0.000125169 9.19611e-05 6.38619e-05 4.08716e-05 2.29903e-05 1.02179e-05 2.55448e-06 0 0 3.66006e-07 1.46403e-06 3.29406e-06 5.8561e-06 9.15016e-06 1.31762e-05 1.79343e-05 2.34244e-05 2.99351e-05 3.7755e-05 4.6884e-05 5.73223e-05 6.90697e-05 8.21263e-05 9.64921e-05 0.000112167 0.0001294 0.00014844 0.000169286 0.000191939 0.000216399 0.000242665 0.000270738 0.000300618 0.00033231 0.000365821 0.00040115 0.000438297 0.000477262 0.000518046 0.000560648 0.000605068 0.000651019 0.000698212 0.000746648 0.000796327 0.000847248 0.000899412 0.000952819 0.00100747 0.00106284 0.00111843 0.00117422 0.00123023 0.00128645 0.00134287 0.00139951 0.00145635 0.00151278 0.00156817 0.00162253 0.00167584 0.00172811 0.00177935 0.00182955 0.0018787 0.00192624 0.00197158 0.00201471 0.00205564 0.00209438 0.00213091 0.00216524 0.00219737 0.0022269 0.00225344 0.00227699 0.00229754 0.00231509 0.00232966 0.00234123 0.00234981 0.00235527 0.00235749 0.00235648 0.00235224 0.00234476 0.00233404 0.00232009 0.00230291 0.00228266 0.00225953 0.00223352 0.00220462 0.00217284 0.00213817 0.00210062 0.00206019 0.0020173 0.00197239 0.00192546 0.0018765 0.00182552 0.00177251 0.00171748 0.00166042 0.00160195 0.00154265 0.00148254 0.0014216 0.00135985 0.00129727 0.00123388 0.00116966 0.00110529 0.00104144 0.000978101 0.000915276 0.000852965 0.000791167 0.000729884 0.000669115 0.000609049 0.000549873 0.000491589 0.000434195 0.000377693 0.000322082 0.000267362 0.000213533 0.000163486 0.000120113 8.34115e-05 5.33833e-05 3.00281e-05 1.33458e-05 3.33646e-06 0 0 4.66359e-07 1.86544e-06 4.19723e-06 7.46174e-06 1.1659e-05 1.67889e-05 2.28516e-05 2.9847e-05 3.81269e-05 4.80433e-05 5.95961e-05 7.27853e-05 8.76109e-05 0.000104073 0.000122171 0.000141906 0.000163589 0.000187531 0.000213732 0.000242193 0.000272913 0.000305893 0.000341131 0.000378629 0.000418393 0.00046043 0.000504738 0.000551319 0.000600173 0.000651299 0.000704697 0.000760368 0.00081795 0.000877085 0.000937771 0.00100001 0.0010638 0.00112914 0.00119603 0.00126448 0.00133383 0.00140344 0.0014733 0.00154343 0.00161382 0.00168447 0.00175538 0.00182655 0.00189719 0.00196654 0.00203458 0.00210131 0.00216675 0.00223088 0.00229371 0.00235523 0.00241473 0.00247147 0.00252545 0.00257668 0.00262515 0.00267086 0.00271382 0.00275402 0.00279097 0.00282417 0.00285362 0.00287932 0.00290128 0.00291949 0.00293395 0.00294466 0.00295147 0.00295423 0.00295295 0.00294761 0.00293822 0.00292478 0.00290728 0.00288574 0.00286037 0.00283139 0.00279879 0.00276259 0.00272277 0.00267934 0.00263231 0.00258166 0.00252793 0.00247168 0.00241289 0.00235156 0.0022877 0.0022213 0.00215237 0.0020809 0.00200765 0.00193338 0.00185807 0.00178174 0.00170437 0.00162598 0.00154656 0.00146611 0.00138547 0.00130547 0.00122611 0.0011474 0.00106932 0.000991882 0.000915086 0.000838932 0.000763653 0.000689485 0.000616428 0.000544481 0.000473645 0.000403919 0.000335303 0.000267798 0.000205033 0.000150637 0.000104609 6.69496e-05 3.76592e-05 1.67374e-05 4.18435e-06 0 0 5.84414e-07 2.33765e-06 5.25972e-06 9.35062e-06 1.46103e-05 2.10389e-05 2.86363e-05 3.74025e-05 4.77349e-05 6.00308e-05 7.42902e-05 9.05131e-05 0.0001087 0.00012885 0.000150963 0.00017504 0.000201456 0.000230585 0.000262429 0.000296986 0.000334258 0.000374243 0.000416942 0.000462355 0.000510488 0.000561346 0.00061493 0.00067124 0.000730274 0.000792035 0.000856521 0.000923732 0.000993235 0.0010646 0.00113781 0.00121289 0.00128982 0.00136861 0.00144926 0.00153177 0.00161535 0.00169924 0.00178343 0.00186793 0.00195273 0.00203784 0.00212324 0.00220896 0.00229403 0.00237753 0.00245946 0.00253981 0.00261859 0.00269579 0.00277142 0.00284547 0.00291707 0.00298536 0.00305032 0.00311195 0.00317027 0.00322526 0.00327693 0.00332528 0.00336971 0.00340963 0.00344503 0.00347592 0.00350229 0.00352415 0.00354149 0.00355432 0.00356246 0.00356571 0.00356409 0.00355759 0.00354621 0.00352995 0.00350881 0.00348279 0.00345216 0.00341719 0.00337786 0.00333418 0.00328615 0.00323377 0.00317704 0.00311596 0.00305118 0.00298334 0.00291244 0.00283849 0.00276148 0.00268142 0.0025983 0.00251212 0.00242379 0.00233422 0.0022434 0.00215134 0.00205803 0.00196348 0.00186769 0.00177065 0.00167337 0.00157685 0.0014811 0.00138612 0.0012919 0.00119844 0.00110575 0.00101382 0.000922944 0.000833386 0.000745151 0.00065824 0.000572652 0.000488387 0.000405446 0.000323827 0.00024793 0.000182153 0.000126495 8.09568e-05 4.55382e-05 2.02392e-05 5.0598e-06 0 0 7.20171e-07 2.88068e-06 6.48154e-06 1.15227e-05 1.80043e-05 2.59261e-05 3.52884e-05 4.60909e-05 5.87589e-05 7.37174e-05 9.09663e-05 0.000110506 0.000132336 0.000156456 0.000182867 0.000211569 0.000243001 0.000277603 0.000315376 0.000356319 0.000400432 0.000447716 0.000498171 0.000551795 0.000608594 0.000668571 0.000731725 0.000798057 0.000867567 0.000940254 0.00101612 0.00109516 0.00117687 0.00126075 0.00134678 0.00143497 0.00152532 0.00161783 0.00171251 0.00180934 0.00190742 0.00200585 0.00210461 0.00220372 0.00230317 0.00240297 0.0025031 0.00260358 0.0027033 0.00280117 0.00289718 0.00299134 0.00308364 0.00317409 0.00326268 0.00334942 0.00343328 0.00351324 0.00358931 0.00366148 0.00372974 0.00379411 0.00385459 0.00391116 0.00396314 0.00400983 0.00405122 0.00408732 0.00411813 0.00414364 0.00416387 0.00417879 0.00418822 0.00419192 0.00418991 0.00418218 0.00416873 0.00414956 0.00412467 0.00409406 0.00405805 0.00401693 0.00397071 0.00391939 0.00386297 0.00380145 0.00373482 0.0036631 0.00358703 0.00350737 0.00342413 0.0033373 0.00324687 0.00315286 0.00305527 0.00295408 0.00285037 0.00274518 0.00263853 0.00253041 0.00242082 0.00230977 0.00219725 0.00208325 0.00196897 0.00185557 0.00174306 0.00163144 0.0015207 0.00141084 0.00130188 0.00119379 0.00108692 0.000981575 0.000877759 0.000775473 0.000674715 0.000575487 0.000477789 0.000381619 0.000292177 0.000214661 0.00014907 9.54048e-05 5.36652e-05 2.38512e-05 5.9628e-06 0 0 8.7363e-07 3.49452e-06 7.86267e-06 1.39781e-05 2.18407e-05 3.14507e-05 4.28079e-05 5.59123e-05 7.1199e-05 8.91031e-05 0.000109625 0.000132763 0.00015852 0.000186893 0.000217884 0.000251492 0.000288223 0.000328584 0.000372572 0.00042019 0.000471437 0.000526312 0.000584816 0.00064695 0.000712712 0.000782103 0.000855123 0.000931772 0.00101205 0.00109596 0.00118349 0.00127466 0.00136887 0.00146554 0.00156466 0.00166625 0.0017703 0.0018768 0.00198577 0.00209719 0.00221003 0.00232325 0.00243684 0.00255081 0.00266515 0.00277986 0.00289495 0.00301042 0.003125 0.00323744 0.00334773 0.00345589 0.0035619 0.00366577 0.00376749 0.00386707 0.00396334 0.00405513 0.00414242 0.00422524 0.00430357 0.00437742 0.00444678 0.00451165 0.00457125 0.00462476 0.00467218 0.00471353 0.00474879 0.00477797 0.00480106 0.00481807 0.00482876 0.00483287 0.00483041 0.00482138 0.00480578 0.00478361 0.00475486 0.00471955 0.00467801 0.00463062 0.00457735 0.00451823 0.00445324 0.00438238 0.00430566 0.00422308 0.0041355 0.00404378 0.00394794 0.00384797 0.00374387 0.00363564 0.00352327 0.00340678 0.00328737 0.00316627 0.00304346 0.00291895 0.00279275 0.00266484 0.00253524 0.00240394 0.00227229 0.00214164 0.002012 0.00188336 0.00175572 0.00162909 0.00150346 0.00137884 0.00125558 0.00113405 0.00101425 0.000896178 0.000779835 0.00066522 0.000552333 0.000441175 0.000337775 0.000248161 0.000172334 0.000110294 6.20402e-05 2.75734e-05 6.89336e-06 0 0 1.04479e-06 4.17916e-06 9.40312e-06 1.67167e-05 2.61198e-05 3.76125e-05 5.11947e-05 6.68666e-05 8.50553e-05 0.000106188 0.000130265 0.000157286 0.000187251 0.00022016 0.000256013 0.00029481 0.000337124 0.000383527 0.000434019 0.000488601 0.000547271 0.000610031 0.00067688 0.000747818 0.00082284 0.000901942 0.000985123 0.00107238 0.00116372 0.00125914 0.00135864 0.00146222 0.00156921 0.00167896 0.00179147 0.00190673 0.00202475 0.00214552 0.00226904 0.00239533 0.00252319 0.00265145 0.00278011 0.00290918 0.00303865 0.00316852 0.0032988 0.00342947 0.00355913 0.00368635 0.00381113 0.00393347 0.00405337 0.00417083 0.00428585 0.00439844 0.00450726 0.00461101 0.00470967 0.00480325 0.00489175 0.00497517 0.0050535 0.00512676 0.00519403 0.00525442 0.00530792 0.00535454 0.00539427 0.00542712 0.00545308 0.00547216 0.00548408 0.00548856 0.0054856 0.0054752 0.00545737 0.0054321 0.00539939 0.00535925 0.00531207 0.00525825 0.00519779 0.00513069 0.00505695 0.00497657 0.00488955 0.00479589 0.00469657 0.00459257 0.00448388 0.00437052 0.00425247 0.00412974 0.00400232 0.00387022 0.00373482 0.00359747 0.00345819 0.00331697 0.00317381 0.00302871 0.00288167 0.0027327 0.00258332 0.00243505 0.00228791 0.00214188 0.00199697 0.00185318 0.00171051 0.00156896 0.00142893 0.00129082 0.00115463 0.00102036 0.00088801 0.000757584 0.000629079 0.000502494 0.000384722 0.000282653 0.000196287 0.000125624 7.06633e-05 3.14059e-05 7.85147e-06 0 0 1.23365e-06 4.93462e-06 1.11029e-05 1.97385e-05 3.08414e-05 4.44115e-05 6.04491e-05 7.89539e-05 0.000100328 0.000124972 0.000152887 0.000184073 0.00021853 0.000256257 0.000297255 0.000341523 0.000389703 0.000442434 0.000499716 0.00056155 0.000627936 0.000698873 0.000774361 0.000854401 0.000938981 0.00102809 0.00112173 0.00121989 0.00132259 0.00142981 0.00154156 0.00165784 0.00177791 0.00190103 0.0020272 0.00215641 0.00228867 0.00242398 0.00256234 0.00270374 0.00284689 0.00299045 0.00313444 0.00327885 0.00342369 0.00356895 0.00371463 0.00386074 0.00400569 0.00414789 0.00428735 0.00442407 0.00455804 0.00468928 0.00481776 0.00494351 0.00506504 0.00518088 0.00529104 0.0053955 0.00549428 0.00558737 0.00567477 0.00575648 0.0058315 0.00589882 0.00595844 0.00601036 0.00605458 0.00609111 0.00611993 0.00614106 0.00615417 0.00615898 0.00615546 0.00614364 0.00612349 0.00609503 0.00605826 0.00601317 0.00596021 0.00589982 0.00583201 0.00575677 0.0056741 0.00558401 0.00548649 0.00538154 0.00527026 0.00515373 0.00503196 0.00490494 0.00477267 0.00463516 0.00449241 0.00434441 0.00419269 0.0040388 0.00388271 0.00372445 0.00356399 0.00340136 0.00323654 0.00306954 0.00290206 0.00273581 0.00257079 0.002407 0.00224445 0.00208312 0.00192302 0.00176416 0.00160696 0.00145187 0.00129889 0.00114801 0.000999242 0.00085258 0.000708025 0.000565577 0.00043302 0.000318137 0.000220929 0.000141394 7.95343e-05 3.53486e-05 8.83714e-06 0 0 1.44022e-06 5.76088e-06 1.2962e-05 2.30435e-05 3.60055e-05 5.18479e-05 7.05708e-05 9.2174e-05 0.000117016 0.000145455 0.000177492 0.000213125 0.000252356 0.000295184 0.000341609 0.000391631 0.000445959 0.000505304 0.000569663 0.000639039 0.00071343 0.000792837 0.00087726 0.000966698 0.00106113 0.00116054 0.00126493 0.0013743 0.00148864 0.00160796 0.00173226 0.00186154 0.00199497 0.00213174 0.00227184 0.00241529 0.00256207 0.00271219 0.00286565 0.00302244 0.00318113 0.00334025 0.00349981 0.00365981 0.00382026 0.00398114 0.00414246 0.00430422 0.00446467 0.00462207 0.00477641 0.0049277 0.00507593 0.00522111 0.00536323 0.00550229 0.00563668 0.00576475 0.00588653 0.006002 0.00611116 0.00621402 0.00631057 0.00640082 0.00648365 0.00655795 0.00662373 0.00668099 0.00672972 0.00676992 0.0068016 0.00682476 0.00683905 0.00684413 0.00684001 0.00682668 0.00680415 0.0067724 0.00673146 0.00668131 0.00662244 0.00655534 0.00648002 0.00639648 0.0063047 0.0062047 0.00609648 0.00598003 0.00585656 0.00572726 0.00559215 0.00545123 0.00530448 0.00515192 0.00499353 0.00482933 0.00466101 0.00449024 0.00431704 0.0041414 0.00396332 0.0037828 0.00359985 0.00341445 0.00322851 0.00304391 0.00286065 0.00267873 0.00249814 0.0023189 0.00214099 0.00196443 0.00178968 0.00161721 0.00144703 0.00127914 0.00111353 0.000950208 0.000789173 0.000630424 0.000482668 0.000354613 0.000246259 0.000157606 8.86533e-05 3.94015e-05 9.85037e-06 0 0 1.66449e-06 6.65795e-06 1.49804e-05 2.66318e-05 4.16122e-05 5.99215e-05 8.15599e-05 0.000106527 0.000135121 0.000167638 0.000204078 0.000244442 0.00028873 0.000336941 0.000389075 0.000445133 0.000505894 0.000572136 0.000643861 0.000721067 0.000803755 0.000891924 0.000985576 0.00108471 0.0011893 0.00129931 0.00141474 0.0015356 0.00166189 0.0017936 0.00193073 0.00207329 0.00222037 0.00237108 0.00252541 0.00268337 0.00284495 0.00301015 0.00317897 0.00335142 0.00352591 0.00370085 0.00387623 0.00405207 0.00422836 0.00440509 0.00458228 0.00475992 0.00493609 0.00510889 0.00527831 0.00544435 0.00560702 0.00576632 0.00592224 0.00607478 0.00622217 0.00636262 0.00649615 0.00662274 0.00674239 0.00685512 0.00696091 0.00705976 0.00715047 0.00723182 0.0073038 0.00736642 0.00741968 0.00746357 0.0074981 0.00752327 0.0075387 0.00754402 0.00753924 0.00752434 0.00749933 0.00746422 0.00741899 0.00736366 0.00729875 0.00722481 0.00714182 0.0070498 0.00694875 0.00683865 0.00671952 0.00659135 0.00645546 0.00631317 0.00616448 0.00600939 0.00584789 0.00568 0.0055057 0.005325 0.00513975 0.00495181 0.00476116 0.00456781 0.00437177 0.00417303 0.00397159 0.00376745 0.00356268 0.00335936 0.00315748 0.00295705 0.00275806 0.00256052 0.00236443 0.00216978 0.00197708 0.00178684 0.00159906 0.00141374 0.00123087 0.00105047 0.000872521 0.000697034 0.000533666 0.000392081 0.000272279 0.000174258 9.80203e-05 4.35646e-05 1.08911e-05 0 0 1.9089e-06 7.6356e-06 1.71801e-05 3.05424e-05 4.77225e-05 6.87204e-05 9.35361e-05 0.00012217 0.000154837 0.000191756 0.000232924 0.000278344 0.000328014 0.000381935 0.000440106 0.000502528 0.00057005 0.000643524 0.000722948 0.000808322 0.000899647 0.000996923 0.00110015 0.00120933 0.00132442 0.00144537 0.00157221 0.00170491 0.00184348 0.00198793 0.00213824 0.00229443 0.00245551 0.00262049 0.00278938 0.00296218 0.00313888 0.00331949 0.00350401 0.00369243 0.00388303 0.00407409 0.0042656 0.00445756 0.00464998 0.00484285 0.00503617 0.00522995 0.0054221 0.00561055 0.00579529 0.00597632 0.00615365 0.00632727 0.00649719 0.0066634 0.00682398 0.00697697 0.0071224 0.00726025 0.00739053 0.00751324 0.00762838 0.00773594 0.0078346 0.00792306 0.00800129 0.00806931 0.00812712 0.0081747 0.00821208 0.00823924 0.00825577 0.00826128 0.00825576 0.00823921 0.00821164 0.00817304 0.00812341 0.00806275 0.00799164 0.00791068 0.00781985 0.00771915 0.00760859 0.00748817 0.00735789 0.00721774 0.00706917 0.00691359 0.00675102 0.00658145 0.00640488 0.00622132 0.00603076 0.0058332 0.00563066 0.00542515 0.00521668 0.00500523 0.00479082 0.00457343 0.00435308 0.00412976 0.00390574 0.00368325 0.00346232 0.00324294 0.0030251 0.00280882 0.00259408 0.00238089 0.00216978 0.00196131 0.00175546 0.00155224 0.00135164 0.00115367 0.000958328 0.000765612 0.000586172 0.000430657 0.000299067 0.000191403 0.000107664 4.78508e-05 1.19627e-05 0 0 2.1759e-06 8.70361e-06 1.95831e-05 3.48144e-05 5.43975e-05 7.83325e-05 0.000106619 0.000139258 0.000176362 0.000218045 0.000264308 0.00031515 0.000370572 0.000430573 0.000495153 0.000564312 0.000638973 0.000720057 0.000807564 0.000901493 0.00100185 0.00110862 0.00122182 0.00134144 0.00146744 0.00159975 0.00173837 0.00188332 0.00203458 0.00219216 0.00235606 0.00252628 0.00270174 0.00288139 0.00306523 0.00325325 0.00344546 0.00364185 0.00384243 0.0040472 0.00425428 0.00446181 0.00466979 0.00487822 0.0050871 0.00529643 0.00550621 0.00571644 0.00592487 0.00612926 0.0063296 0.00652589 0.00671813 0.00690633 0.00709048 0.00727058 0.00744455 0.00761029 0.0077678 0.00791708 0.00805814 0.00819097 0.00831557 0.00843194 0.00853866 0.00863429 0.00871884 0.0087923 0.00885468 0.00890597 0.00894618 0.0089753 0.0089929 0.00899854 0.00899221 0.00897391 0.00894365 0.00890143 0.00884725 0.00878109 0.00870361 0.00861542 0.00851652 0.00840691 0.0082866 0.00815558 0.00801386 0.00786143 0.00769984 0.00753065 0.00735384 0.00716944 0.00697742 0.0067778 0.00657057 0.00635573 0.00613546 0.00591195 0.00568519 0.00545518 0.00522192 0.00498541 0.00474566 0.00450266 0.00425886 0.00401671 0.0037762 0.00353735 0.00330015 0.0030646 0.00283069 0.00259844 0.00236841 0.00214117 0.00191672 0.00169507 0.0014762 0.00126013 0.00104685 0.000836364 0.000640341 0.000470455 0.000326705 0.000209091 0.000117614 5.22728e-05 1.30682e-05 0 0 2.46549e-06 9.86197e-06 2.21894e-05 3.94479e-05 6.16373e-05 8.87577e-05 0.000120809 0.000157791 0.000199694 0.000246507 0.000298229 0.000354861 0.000416403 0.000482854 0.000554215 0.000630486 0.000712661 0.000801736 0.000897709 0.00100058 0.00111035 0.00122702 0.00135059 0.00148106 0.00161836 0.00176242 0.00191325 0.00207083 0.00223519 0.0024063 0.00258418 0.00276882 0.00295907 0.00315379 0.00335296 0.00355659 0.00376469 0.00397724 0.00419425 0.00441573 0.00463965 0.00486401 0.00508881 0.00531405 0.00553973 0.00576584 0.0059924 0.00621939 0.00644441 0.00666502 0.00688123 0.00709305 0.00730047 0.00750348 0.0077021 0.00789632 0.00808389 0.00826256 0.00843234 0.00859322 0.00874521 0.00888829 0.00902249 0.00914778 0.00926264 0.00936553 0.00945645 0.00953539 0.00960237 0.00965738 0.00970041 0.00973147 0.00975009 0.00975579 0.00974857 0.00972843 0.00969538 0.0096494 0.00959051 0.0095187 0.00943464 0.00933902 0.00923184 0.00911308 0.00898276 0.00884088 0.00868743 0.00852241 0.00834749 0.00816434 0.00797296 0.00777335 0.0075655 0.00734942 0.00712512 0.00689258 0.00665415 0.00641219 0.00616669 0.00591765 0.00566508 0.00540897 0.00514932 0.00488613 0.00462205 0.00435971 0.00409913 0.00384029 0.00358321 0.00332787 0.00307428 0.00282244 0.00257295 0.00232642 0.00208284 0.00184222 0.00160456 0.00136985 0.00113809 0.00090929 0.000696175 0.000511475 0.000355191 0.000227322 0.000127869 5.68306e-05 1.42077e-05 0 0 2.77767e-06 1.11107e-05 2.4999e-05 4.44427e-05 6.94418e-05 9.99961e-05 0.000136106 0.000177771 0.000224835 0.00027714 0.000334687 0.000397476 0.000465507 0.000538779 0.000617294 0.00070105 0.000791116 0.00088856 0.000993383 0.00110558 0.00122516 0.00135212 0.00148646 0.00162817 0.00177718 0.0019334 0.00209682 0.00226745 0.0024453 0.00263035 0.0028226 0.00302207 0.00322751 0.00343767 0.00365257 0.0038722 0.00409656 0.00432565 0.00455947 0.00479802 0.00503915 0.0052807 0.00552267 0.00576505 0.00600786 0.00625109 0.00649474 0.0067388 0.0069807 0.00721783 0.0074502 0.00767781 0.00790065 0.00811874 0.00833206 0.00854061 0.008742 0.0089338 0.00911603 0.00928867 0.00945174 0.00960522 0.00974913 0.00988345 0.0100065 0.0101168 0.0102141 0.0102986 0.0103702 0.0104289 0.0104748 0.0105077 0.0105273 0.010533 0.0105249 0.0105028 0.0104668 0.0104169 0.0103532 0.0102756 0.0101848 0.0100815 0.00996581 0.00983767 0.00969709 0.00954406 0.00937859 0.00920068 0.00901211 0.00881467 0.00860836 0.00839318 0.00816913 0.00793621 0.00769441 0.00744375 0.00718673 0.00692588 0.00666119 0.00639266 0.00612029 0.00584409 0.00556405 0.00528017 0.0049953 0.00471228 0.0044311 0.00415176 0.00387427 0.00359863 0.00332484 0.00305289 0.00278342 0.00251706 0.00225383 0.00199371 0.0017367 0.00148282 0.00123204 0.000984389 0.000753673 0.000553719 0.000384527 0.000246097 0.00013843 6.15243e-05 1.53811e-05 0 0 3.11244e-06 1.24498e-05 2.80119e-05 4.9799e-05 7.7811e-05 0.000112048 0.000152509 0.000199196 0.000251783 0.000309945 0.000373683 0.000442996 0.000517884 0.000598348 0.000684388 0.000776003 0.000874336 0.000980531 0.00109459 0.0012165 0.00134628 0.00148392 0.00162942 0.00178279 0.00194391 0.00211268 0.0022891 0.00247318 0.00266491 0.0028643 0.00307133 0.00328602 0.00350704 0.00373305 0.00396406 0.00420007 0.00444108 0.00468708 0.00493808 0.00519408 0.00545278 0.005