<?xml version="1.0"?> 
<VTKFile type="StructuredGrid" version="0.1"> 
<StructuredGrid WholeExtent="0 128 0 128 0 0"> 
<Piece Extent="0 128 0 128 0 0"> 
<PointData>
<DataArray type="Float32" Name="u" format="ascii" NumberOfComponents="1"> 
0 0 0 0 0 0 0 0 0 0 0 0 0 0 0 0 0 0 0 0 0 0 0 0 0 0 0 0 0 0 0 0 0 0 0 0 0 0 0 0 0 0 0 0 0 0 0 0 0 0 0 0 0 0 0 0 0 0 0 0 0 0 0 0 0 0 0 0 0 0 0 0 0 0 0 0 0 0 0 0 0 0 0 0 0 0 0 0 0 0 0 0 0 0 0 0 0 0 0 0 0 0 0 0 0 0 0 0 0 0 0 0 0 0 0 0 0 0 0 0 0 0 0 0 0 0 0 0 0 0 4.22157e-08 1.68863e-07 3.79941e-07 6.75451e-07 1.05539e-06 1.51976e-06 2.06857e-06 2.7018e-06 3.38456e-06 4.08195e-06 4.79395e-06 5.52058e-06 6.26184e-06 7.01771e-06 7.78821e-06 8.57332e-06 9.37337e-06 1.01887e-05 1.10192e-05 1.1865e-05 1.2726e-05 1.36022e-05 1.44937e-05 1.54004e-05 1.63168e-05 1.7237e-05 1.81613e-05 1.90894e-05 2.00216e-05 2.09577e-05 2.18977e-05 2.28417e-05 2.37839e-05 2.47185e-05 2.56456e-05 2.65651e-05 2.7477e-05 2.83814e-05 2.92782e-05 3.01675e-05 3.10436e-05 3.19009e-05 3.27395e-05 3.35592e-05 3.43602e-05 3.51425e-05 3.59059e-05 3.66506e-05 3.73713e-05 3.8063e-05 3.87257e-05 3.93593e-05 3.99639e-05 4.05394e-05 4.10858e-05 4.16033e-05 4.20875e-05 4.25343e-05 4.29438e-05 4.33159e-05 4.36507e-05 4.39481e-05 4.42081e-05 4.44308e-05 4.46135e-05 4.47537e-05 4.48514e-05 4.49067e-05 4.49193e-05 4.48895e-05 4.48172e-05 4.47024e-05 4.45446e-05 4.43435e-05 4.4099e-05 4.38113e-05 4.34801e-05 4.31057e-05 4.26879e-05 4.22267e-05 4.17244e-05 4.11831e-05 4.06028e-05 3.99835e-05 3.93252e-05 3.86279e-05 3.78916e-05 3.71163e-05 3.6307e-05 3.54686e-05 3.46011e-05 3.37046e-05 3.2779e-05 3.18243e-05 3.08406e-05 2.98278e-05 2.87937e-05 2.77459e-05 2.66846e-05 2.56096e-05 2.45209e-05 2.34187e-05 2.23028e-05 2.11734e-05 2.00403e-05 1.89136e-05 1.77933e-05 1.66794e-05 1.55719e-05 1.44709e-05 1.33762e-05 1.22879e-05 1.12086e-05 1.01407e-05 9.08426e-06 8.03927e-06 7.00574e-06 5.98365e-06 4.97302e-06 3.97383e-06 3.04247e-06 2.23528e-06 1.55228e-06 9.93458e-07 5.5882e-07 2.48365e-07 6.20911e-08 0 0 1.68863e-07 6.75451e-07 1.51976e-06 2.7018e-06 4.22157e-06 6.07905e-06 8.27427e-06 1.08072e-05 1.35383e-05 1.63278e-05 1.91758e-05 2.20823e-05 2.50473e-05 2.80708e-05 3.11528e-05 3.42933e-05 3.74935e-05 4.07547e-05 4.40768e-05 4.74598e-05 5.09039e-05 5.44089e-05 5.79748e-05 6.16017e-05 6.5267e-05 6.89481e-05 7.2645e-05 7.63577e-05 8.00863e-05 8.38306e-05 8.75908e-05 9.13668e-05 9.51355e-05 9.8874e-05 0.000102582 0.00010626 0.000109908 0.000113526 0.000117113 0.00012067 0.000124174 0.000127604 0.000130958 0.000134237 0.000137441 0.00014057 0.000143624 0.000146602 0.000149485 0.000152252 0.000154903 0.000157437 0.000159855 0.000162157 0.000164343 0.000166413 0.00016835 0.000170137 0.000171775 0.000173264 0.000174603 0.000175792 0.000176832 0.000177723 0.000178454 0.000179015 0.000179406 0.000179627 0.000179677 0.000179558 0.000179269 0.000178809 0.000178178 0.000177374 0.000176396 0.000175245 0.000173921 0.000172423 0.000170752 0.000168907 0.000166898 0.000164732 0.000162411 0.000159934 0.000157301 0.000154512 0.000151566 0.000148465 0.000145228 0.000141874 0.000138404 0.000134818 0.000131116 0.000127297 0.000123362 0.000119311 0.000115175 0.000110984 0.000106738 0.000102438 9.80838e-05 9.36748e-05 8.92114e-05 8.46935e-05 8.01611e-05 7.56543e-05 7.11732e-05 6.67177e-05 6.22878e-05 5.78835e-05 5.35048e-05 4.91517e-05 4.48344e-05 4.05628e-05 3.6337e-05 3.21571e-05 2.80229e-05 2.39346e-05 1.98921e-05 1.58953e-05 1.21699e-05 8.94112e-06 6.20911e-06 3.97383e-06 2.23528e-06 9.93458e-07 2.48365e-07 0 0 3.79941e-07 1.51976e-06 3.41947e-06 6.07905e-06 9.49852e-06 1.36779e-05 1.86171e-05 2.43162e-05 3.04611e-05 3.67375e-05 4.31456e-05 4.96853e-05 5.63565e-05 6.31594e-05 7.00939e-05 7.71599e-05 8.43604e-05 9.1698e-05 9.91727e-05 0.000106785 0.000114534 0.00012242 0.000130443 0.000138604 0.000146851 0.000155133 0.000163451 0.000171805 0.000180194 0.000188619 0.000197079 0.000205575 0.000214055 0.000222467 0.00023081 0.000239086 0.000247293 0.000255433 0.000263504 0.000271508 0.000279392 0.000287108 0.000294655 0.000302033 0.000309242 0.000316282 0.000323153 0.000329855 0.000336342 0.000342567 0.000348531 0.000354234 0.000359675 0.000364854 0.000369773 0.000374429 0.000378787 0.000382809 0.000386494 0.000389843 0.000392856 0.000395533 0.000397873 0.000399877 0.000401522 0.000402784 0.000403663 0.00040416 0.000404274 0.000404006 0.000403355 0.000402321 0.000400901 0.000399091 0.000396891 0.000394301 0.000391321 0.000387951 0.000384191 0.000380041 0.00037552 0.000370648 0.000365425 0.000359852 0.000353927 0.000347651 0.000341024 0.000334047 0.000326763 0.000319217 0.00031141 0.000303341 0.000295011 0.000286419 0.000277566 0.00026845 0.000259143 0.000249713 0.000240161 0.000230486 0.000220689 0.000210768 0.000200726 0.00019056 0.000180362 0.000170222 0.00016014 0.000150115 0.000140147 0.000130238 0.000120386 0.000110591 0.000100877 9.12663e-05 8.17584e-05 7.23535e-05 6.30516e-05 5.38529e-05 4.47571e-05 3.57645e-05 2.73822e-05 2.01175e-05 1.39705e-05 8.94112e-06 5.02938e-06 2.23528e-06 5.5882e-07 0 0 6.75451e-07 2.7018e-06 6.07905e-06 1.08072e-05 1.68863e-05 2.43162e-05 3.30971e-05 4.32288e-05 5.4153e-05 6.53112e-05 7.67033e-05 8.83293e-05 0.000100189 0.000112283 0.000124611 0.000137173 0.000149974 0.000163019 0.000176307 0.000189839 0.000203615 0.000217635 0.000231899 0.000246407 0.000261068 0.000275792 0.00029058 0.000305431 0.000320345 0.000335322 0.000350363 0.000365467 0.000380542 0.000395496 0.000410329 0.000425041 0.000439632 0.000454103 0.000468452 0.00048268 0.000496698 0.000510415 0.000523832 0.000536948 0.000549764 0.000562279 0.000574494 0.000586409 0.000597941 0.000609008 0.000619611 0.000629749 0.000639422 0.00064863 0.000657373 0.000665652 0.000673399 0.000680549 0.000687101 0.000693055 0.000698411 0.000703169 0.00070733 0.000710892 0.000713816 0.00071606 0.000717623 0.000718506 0.00071871 0.000718232 0.000717075 0.000715238 0.000712714 0.000709496 0.000705585 0.00070098 0.000695682 0.000689691 0.000683006 0.000675628 0.000667591 0.00065893 0.000649645 0.000639736 0.000629203 0.000618046 0.000606266 0.000593861 0.000580912 0.000567497 0.000553618 0.000539274 0.000524464 0.00050919 0.00049345 0.000477245 0.000460699 0.000443935 0.000426953 0.000409753 0.000392335 0.000374699 0.000356846 0.000338774 0.000320644 0.000302617 0.000284693 0.000266871 0.000249151 0.000231534 0.000214019 0.000196607 0.000179337 0.000162251 0.000145348 0.000128628 0.000112092 9.57384e-05 7.95683e-05 6.35813e-05 4.86795e-05 3.57645e-05 2.48365e-05 1.58953e-05 8.94112e-06 3.97383e-06 9.93458e-07 0 0 1.05539e-06 4.22157e-06 9.49852e-06 1.68863e-05 2.63848e-05 3.79941e-05 5.17142e-05 6.75451e-05 8.46141e-05 0.000102049 0.000119849 0.000138015 0.000156546 0.000175443 0.000194705 0.000214333 0.000234334 0.000254717 0.00027548 0.000296624 0.000318149 0.000340055 0.000362343 0.000385011 0.000407919 0.000430926 0.000454031 0.000477236 0.000500539 0.000523941 0.000547442 0.000571042 0.000594597 0.000617963 0.000641139 0.000664127 0.000686926 0.000709535 0.000731956 0.000754188 0.00077609 0.000797523 0.000818487 0.000838981 0.000859006 0.000878561 0.000897647 0.000916264 0.000934283 0.000951576 0.000968142 0.000983982 0.000999096 0.00101348 0.00102715 0.00104008 0.00105219 0.00106336 0.0010736 0.0010829 0.00109127 0.0010987 0.0011052 0.00111077 0.00111534 0.00111884 0.00112129 0.00112267 0.00112298 0.00112224 0.00112043 0.00111756 0.00111361 0.00110859 0.00110248 0.00109528 0.001087 0.00107764 0.0010672 0.00105567 0.00104311 0.00102958 0.00101507 0.000999588 0.00098313 0.000965697 0.00094729 0.000927908 0.000907674 0.000886715 0.000865028 0.000842615 0.000819475 0.000795609 0.000771016 0.000745696 0.000719842 0.000693648 0.000667114 0.000640239 0.000613024 0.000585468 0.000557571 0.000529334 0.000501007 0.00047284 0.000444833 0.000416986 0.000389299 0.000361772 0.000334405 0.000307198 0.000280215 0.000253518 0.000227107 0.000200982 0.000175143 0.000149591 0.000124325 9.93458e-05 7.60616e-05 5.5882e-05 3.8807e-05 2.48365e-05 1.39705e-05 6.20911e-06 1.55228e-06 0 0 1.51976e-06 6.07905e-06 1.36779e-05 2.43162e-05 3.79941e-05 5.47115e-05 7.44684e-05 9.72649e-05 0.000121844 0.00014695 0.000172582 0.000198741 0.000225426 0.000252638 0.000280375 0.00030864 0.000337441 0.000366792 0.000396691 0.000427139 0.000458135 0.00048968 0.000521773 0.000554415 0.000587403 0.000620533 0.000653805 0.00068722 0.000720776 0.000754476 0.000788317 0.000822301 0.00085622 0.000889866 0.000923241 0.000956343 0.000989173 0.00102173 0.00105402 0.00108603 0.00111757 0.00114843 0.00117862 0.00120813 0.00123697 0.00126513 0.00129261 0.00131942 0.00134537 0.00137027 0.00139412 0.00141693 0.0014387 0.00145942 0.00147909 0.00149772 0.00151515 0.00153124 0.00154598 0.00155937 0.00157142 0.00158213 0.00159149 0.00159951 0.00160609 0.00161113 0.00161465 0.00161664 0.0016171 0.00161602 0.00161342 0.00160928 0.00160361 0.00159637 0.00158757 0.00157721 0.00156529 0.0015518 0.00153676 0.00152016 0.00150208 0.00148259 0.0014617 0.00143941 0.00141571 0.0013906 0.0013641 0.00133619 0.00130705 0.00127687 0.00124564 0.00121337 0.00118004 0.00114568 0.00111026 0.0010738 0.00103657 0.000998854 0.000960644 0.000921944 0.000882754 0.000843073 0.000802902 0.000762241 0.00072145 0.000680889 0.000640559 0.000600459 0.00056059 0.000520951 0.000481543 0.000442366 0.000403509 0.000365065 0.000327033 0.000289414 0.000252207 0.000215411 0.000179029 0.000143058 0.000109529 8.04701e-05 5.5882e-05 3.57645e-05 2.01175e-05 8.94112e-06 2.23528e-06 0 0 2.06857e-06 8.27427e-06 1.86171e-05 3.30971e-05 5.17142e-05 7.44684e-05 0.00010136 0.000132388 0.000165844 0.000200015 0.000234904 0.000270509 0.00030683 0.000343868 0.000381622 0.000420093 0.000459295 0.000499245 0.00053994 0.000581383 0.000623572 0.000666509 0.000710191 0.000754621 0.000799521 0.000844614 0.000889901 0.000935382 0.000981057 0.00102693 0.00107299 0.00111924 0.00116541 0.00121121 0.00125663 0.00130169 0.00134637 0.00139069 0.00143463 0.00147821 0.00152114 0.00156315 0.00160423 0.0016444 0.00168365 0.00172198 0.00175939 0.00179588 0.00183119 0.00186509 0.00189756 0.00192861 0.00195823 0.00198643 0.00201321 0.00203856 0.00206229 0.00208418 0.00210425 0.00212248 0.00213888 0.00215346 0.0021662 0.00217711 0.00218606 0.00219293 0.00219772 0.00220043 0.00220105 0.00219959 0.00219604 0.00219042 0.00218269 0.00217283 0.00216085 0.00214675 0.00213053 0.00211218 0.00209171 0.00206911 0.0020445 0.00201797 0.00198954 0.00195919 0.00192693 0.00189277 0.00185669 0.0018187 0.00177904 0.00173796 0.00169546 0.00165153 0.00160617 0.00155939 0.00151119 0.00146156 0.00141089 0.00135955 0.00130754 0.00125487 0.00120153 0.00114752 0.00109284 0.00103749 0.000981973 0.000926766 0.000871872 0.000817292 0.000763025 0.000709073 0.000655434 0.000602109 0.000549221 0.000496894 0.000445129 0.000393924 0.000343281 0.000293199 0.000243678 0.000194718 0.000149081 0.000109529 7.60616e-05 4.86795e-05 2.73822e-05 1.21699e-05 3.04247e-06 0 0 2.7018e-06 1.08072e-05 2.43162e-05 4.32288e-05 6.75451e-05 9.72649e-05 0.000132388 0.000172915 0.000216612 0.000261245 0.000306813 0.000353317 0.000400757 0.000449133 0.000498445 0.000548693 0.000599896 0.000652074 0.000705228 0.000759357 0.000814462 0.000870542 0.000927597 0.000985627 0.00104427 0.00110317 0.00116232 0.00122172 0.00128138 0.00134129 0.00140145 0.00146187 0.00152217 0.00158198 0.00164132 0.00170017 0.00175853 0.00181641 0.00187381 0.00193072 0.00198679 0.00204166 0.00209533 0.00214779 0.00219906 0.00224912 0.00229798 0.00234564 0.00239176 0.00243603 0.00247844 0.00251899 0.00255769 0.00259452 0.00262949 0.00266261 0.0026936 0.0027222 0.0027484 0.00277222 0.00279364 0.00281268 0.00282932 0.00284357 0.00285526 0.00286424 0.00287049 0.00287403 0.00287484 0.00287293 0.0028683 0.00286095 0.00285085 0.00283798 0.00282234 0.00280392 0.00278273 0.00275876 0.00273202 0.00270251 0.00267036 0.00263572 0.00259858 0.00255894 0.00251681 0.00247219 0.00242506 0.00237544 0.00232365 0.00226999 0.00221447 0.00215709 0.00209786 0.00203676 0.0019738 0.00190898 0.0018428 0.00177574 0.00170781 0.00163901 0.00156934 0.0014988 0.00142738 0.0013551 0.00128258 0.00121047 0.00113877 0.00106748 0.000996604 0.000926136 0.000856077 0.000786428 0.00071735 0.000649005 0.000581393 0.000514514 0.000448367 0.000382954 0.000318273 0.000254325 0.000194718 0.000143058 9.93458e-05 6.35813e-05 3.57645e-05 1.58953e-05 3.97383e-06 0 0 3.3839e-06 1.35356e-05 3.04551e-05 5.41424e-05 8.45975e-05 0.00012182 0.000165811 0.000216569 0.000271296 0.00032719 0.000384251 0.000442481 0.000501878 0.000562443 0.000624176 0.000687076 0.00075117 0.000816482 0.000883014 0.000950764 0.00101973 0.00108992 0.00116133 0.00123396 0.00130735 0.00138106 0.00145508 0.00152942 0.00160407 0.00167905 0.00175433 0.00182993 0.00190539 0.00198024 0.00205448 0.00212812 0.00220115 0.00227357 0.00234539 0.0024166 0.00248676 0.00255541 0.00262256 0.0026882 0.00275234 0.00281498 0.00287611 0.00293574 0.00299345 0.00304883 0.00310189 0.00315263 0.00320103 0.00324711 0.00329086 0.00333229 0.00337106 0.00340683 0.00343962 0.00346941 0.00349621 0.00352001 0.00354083 0.00355865 0.00357327 0.00358449 0.00359231 0.00359672 0.00359773 0.00359533 0.00358953 0.00358033 0.00356769 0.00355158 0.00353199 0.00350894 0.00348242 0.00345243 0.00341896 0.00338203 0.0033418 0.00329845 0.00325198 0.00320238 0.00314966 0.00309382 0.00303485 0.00297277 0.00290795 0.00284081 0.00277135 0.00269955 0.00262543 0.00254898 0.00247021 0.0023891 0.00230629 0.00222239 0.00213739 0.00205131 0.00196413 0.00187586 0.0017865 0.00169605 0.00160531 0.00151508 0.00142536 0.00133615 0.00124746 0.00115927 0.0010716 0.00098444 0.000897991 0.000812455 0.000727832 0.000644121 0.000561324 0.000479439 0.000398468 0.000318409 0.000243782 0.000179105 0.000124379 7.96023e-05 4.47763e-05 1.99006e-05 4.97514e-06 0 0 4.07929e-06 1.63171e-05 3.67136e-05 6.52686e-05 0.000101982 0.000146854 0.000199885 0.000261074 0.000327041 0.000394402 0.00046316 0.000533313 0.000604861 0.000677805 0.000752144 0.000827879 0.000905043 0.000983669 0.00106376 0.00114531 0.00122832 0.00131279 0.00139873 0.00148612 0.00157444 0.00166313 0.0017522 0.00184165 0.00193147 0.00202167 0.00211224 0.00220319 0.00229396 0.002384 0.00247331 0.00256188 0.00264973 0.00273684 0.00282323 0.00290888 0.00299326 0.00307583 0.00315659 0.00323553 0.00331267 0.003388 0.00346151 0.00353322 0.00360262 0.00366922 0.00373302 0.00379402 0.00385222 0.00390763 0.00396023 0.00401003 0.00405664 0.00409965 0.00413905 0.00417486 0.00420707 0.00423568 0.00426069 0.0042821 0.00429967 0.00431314 0.00432251 0.0043278 0.00432899 0.00432608 0.00431908 0.00430799 0.00429276 0.00427336 0.00424979 0.00422205 0.00419013 0.00415404 0.00411377 0.00406934 0.00402094 0.00396878 0.00391287 0.00385321 0.00378979 0.00372262 0.00365169 0.00357701 0.00349905 0.00341829 0.00333474 0.00324838 0.00315923 0.00306728 0.00297253 0.00287498 0.00277537 0.00267446 0.00257222 0.00246868 0.00236382 0.00225765 0.00215016 0.00204136 0.00193221 0.00182367 0.00171574 0.00160842 0.00150172 0.00139562 0.00129014 0.00118526 0.00108124 0.000978303 0.000876453 0.000775689 0.000676011 0.00057742 0.000479916 0.000383498 0.000293616 0.000215718 0.000149804 9.58745e-05 5.39294e-05 2.39686e-05 5.99216e-06 0 0 4.78796e-06 1.91519e-05 4.30917e-05 7.66074e-05 0.000119699 0.000172367 0.00023461 0.00030643 0.000383847 0.000462883 0.000543538 0.000625813 0.000709707 0.00079522 0.000882352 0.000971103 0.00106152 0.00115363 0.00124746 0.00134298 0.00144021 0.00153915 0.00163979 0.00174214 0.00184555 0.0019494 0.00205369 0.00215841 0.00226356 0.00236915 0.00247518 0.00258164 0.00268788 0.00279327 0.0028978 0.00300147 0.00310428 0.00320623 0.00330732 0.00340755 0.0035063 0.00360292 0.00369741 0.00378979 0.00388004 0.00396818 0.00405419 0.00413808 0.00421927 0.00429718 0.00437182 0.00444318 0.00451126 0.00457606 0.00463759 0.00469584 0.00475034 0.00480063 0.00484671 0.00488858 0.00492624 0.00495968 0.00498891 0.00501393 0.00503444 0.00505017 0.0050611 0.00506725 0.00506861 0.00506517 0.00505695 0.00504393 0.00502608 0.00500335 0.00497573 0.00494324 0.00490586 0.0048636 0.00481645 0.00476443 0.00470777 0.00464672 0.00458127 0.00451144 0.00443721 0.00435859 0.00427558 0.00418817 0.00409694 0.00400243 0.00390464 0.00380358 0.00369925 0.00359165 0.00348076 0.00336661 0.00325005 0.00313195 0.00301231 0.00289113 0.00276842 0.00264416 0.00251836 0.00239103 0.00226328 0.00213624 0.00200991 0.00188429 0.00175938 0.00163518 0.00151168 0.0013889 0.0012671 0.00114655 0.00102726 0.000909215 0.000792428 0.000676896 0.000562617 0.000449592 0.000344219 0.000252895 0.000175622 0.000112398 6.32239e-05 2.80995e-05 7.02487e-06 0 0 5.50993e-06 2.20397e-05 4.95894e-05 8.81589e-05 0.000137748 0.000198358 0.000269987 0.000352636 0.000441714 0.000532631 0.000625387 0.000719981 0.000816415 0.000914686 0.0010148 0.00111675 0.00122059 0.00132638 0.00143411 0.00154379 0.00165542 0.001769 0.00188452 0.00200199 0.00212068 0.00223986 0.00235953 0.00247969 0.00260035 0.0027215 0.00284314 0.00296528 0.00308716 0.00320806 0.00332796 0.00344688 0.0035648 0.00368173 0.00379768 0.00391263 0.00402587 0.00413667 0.00424504 0.00435097 0.00445446 0.00455552 0.00465414 0.00475032 0.00484341 0.00493273 0.0050183 0.0051001 0.00517814 0.00525242 0.00532294 0.0053897 0.00545217 0.0055098 0.0055626 0.00561057 0.0056537 0.00569201 0.00572548 0.00575412 0.0057776 0.00579559 0.00580808 0.00581508 0.00581659 0.0058126 0.00580313 0.00578815 0.00576764 0.00574152 0.00570981 0.00567251 0.0056296 0.0055811 0.005527 0.00546731 0.0054023 0.00533225 0.00525717 0.00517706 0.00509191 0.00500173 0.00490651 0.00480626 0.00470161 0.00459321 0.00448106 0.00436516 0.0042455 0.00412208 0.00399492 0.00386399 0.00373031 0.00359487 0.00345765 0.00331867 0.00317792 0.0030354 0.00289111 0.00274506 0.00259852 0.0024528 0.00230787 0.00216376 0.00202045 0.00187794 0.00173624 0.00159535 0.00145556 0.00131719 0.00118024 0.0010447 0.000910576 0.000777866 0.000646571 0.000516691 0.000395591 0.000290639 0.000201832 0.000129173 7.26596e-05 3.22932e-05 8.07329e-06 0 0 6.24519e-06 2.49808e-05 5.62067e-05 9.99231e-05 0.00015613 0.000224827 0.000306015 0.000399692 0.000500643 0.000603647 0.000708705 0.000815818 0.000924985 0.00103621 0.00114948 0.00126481 0.00138226 0.0015019 0.00162373 0.00174774 0.00187394 0.00200234 0.00213291 0.00226568 0.00239982 0.0025345 0.00266973 0.00280551 0.00294184 0.00307872 0.00321614 0.00335411 0.0034918 0.00362835 0.00376379 0.0038981 0.00403129 0.00416335 0.00429429 0.0044241 0.00455198 0.0046771 0.00479946 0.00491907 0.00503592 0.00515002 0.00526136 0.00536995 0.00547503 0.00557586 0.00567245 0.00576478 0.00585287 0.0059367 0.00601629 0.00609163 0.00616211 0.00622714 0.00628671 0.00634082 0.00638947 0.00643267 0.00647041 0.00650269 0.00652915 0.0065494 0.00656345 0.00657129 0.00657294 0.00656838 0.00655762 0.00654066 0.00651744 0.00648789 0.00645204 0.00640986 0.00636136 0.00630655 0.00624542 0.00617797 0.00610452 0.00602539 0.00594057 0.00585008 0.0057539 0.00565204 0.00554449 0.00543127 0.00531308 0.00519066 0.005064 0.0049331 0.00479796 0.00465859 0.00451498 0.00436713 0.00421617 0.0040632 0.00390824 0.00375128 0.00359232 0.00343136 0.0032684 0.00310344 0.00293794 0.00277333 0.00260963 0.00244682 0.00228492 0.00212391 0.00196381 0.0018046 0.00164664 0.00149024 0.00133541 0.00118214 0.00103045 0.000880331 0.000731778 0.000584795 0.000447733 0.000328947 0.000228435 0.000146199 8.22368e-05 3.65497e-05 9.13742e-06 0 0 6.99375e-06 2.7975e-05 6.29437e-05 0.0001119 0.000174844 0.000251775 0.000342694 0.0004476 0.000560632 0.000675931 0.000793494 0.000913323 0.00103542 0.00115978 0.0012864 0.00141529 0.00154653 0.0016802 0.0018163 0.00195482 0.00209578 0.00223916 0.00238498 0.00253322 0.00268298 0.00283334 0.0029843 0.00313586 0.00328803 0.0034408 0.00359417 0.00374814 0.00390178 0.00405416 0.00420528 0.00435514 0.00450374 0.00465108 0.00479716 0.00494198 0.00508462 0.00522419 0.00536068 0.00549409 0.00562443 0.00575168 0.00587586 0.00599695 0.00611414 0.00622658 0.00633428 0.00643723 0.00653544 0.00662891 0.00671763 0.00680161 0.00688018 0.00695265 0.00701904 0.00707934 0.00713354 0.00718166 0.00722369 0.00725964 0.00728908 0.0073116 0.0073272 0.00733588 0.00733765 0.0073325 0.00732043 0.00730144 0.00727547 0.00724246 0.0072024 0.0071553 0.00710114 0.00703995 0.00697171 0.00689642 0.00681444 0.00672613 0.00663148 0.00653049 0.00642317 0.00630952 0.00618952 0.0060632 0.00593134 0.00579475 0.00565345 0.00550741 0.00535665 0.00520117 0.00504096 0.00487603 0.00470761 0.00453697 0.00436409 0.00418897 0.00401163 0.00383205 0.00365024 0.00346619 0.00328152 0.00309785 0.00291517 0.00273349 0.00255279 0.00237309 0.00219439 0.00201667 0.00184032 0.00166568 0.00149275 0.00132155 0.00115206 0.000984291 0.000818238 0.000653904 0.000500645 0.000367821 0.000255431 0.000163476 9.19552e-05 4.0869e-05 1.02172e-05 0 0 7.75559e-06 3.10224e-05 6.98003e-05 0.000124089 0.00019389 0.000279201 0.000380024 0.000496358 0.000621683 0.000749482 0.000879753 0.0010125 0.00114771 0.0012854 0.00142556 0.0015682 0.0017134 0.00186128 0.00201182 0.00216504 0.00232092 0.00247948 0.0026407 0.0028046 0.00297015 0.00313636 0.00330323 0.00347074 0.00363892 0.00380774 0.00397722 0.00414736 0.00431712 0.00448548 0.00465244 0.004818 0.00498217 0.00514493 0.00530629 0.00546625 0.00562381 0.00577796 0.0059287 0.00607604 0.00621998 0.0063605 0.00649762 0.00663134 0.00676073 0.00688488 0.00700378 0.00711744 0.00722586 0.00732904 0.00742697 0.00751966 0.00760636 0.00768634 0.00775959 0.00782612 0.00788592 0.00793899 0.00798533 0.00802495 0.00805739 0.00808218 0.00809934 0.00810885 0.00811073 0.00810496 0.00809156 0.00807051 0.00804176 0.00800522 0.00796091 0.00790882 0.00784894 0.00778129 0.00770586 0.00762265 0.00753206 0.00743447 0.00732988 0.00721831 0.00709973 0.00697416 0.0068416 0.00670205 0.00655638 0.00640551 0.00624941 0.0060881 0.00592157 0.00574982 0.00557285 0.00539067 0.00520465 0.00501615 0.00482519 0.00463175 0.00443584 0.00423746 0.00403661 0.00383329 0.00362928 0.00342635 0.00322451 0.00302375 0.00282407 0.00262548 0.00242798 0.00223155 0.0020366 0.00184351 0.00165228 0.00146291 0.0012754 0.00108975 0.000905952 0.000724018 0.000554326 0.00040726 0.000282819 0.000181004 0.000101815 4.52511e-05 1.13128e-05 0 0 8.53072e-06 3.41229e-05 7.67765e-05 0.000136492 0.000213268 0.000307106 0.000418005 0.000545966 0.000683796 0.000824301 0.000967482 0.00111334 0.00126187 0.00141308 0.00156696 0.00172352 0.00188287 0.00204514 0.00221031 0.00237839 0.00254938 0.00272328 0.00290009 0.00307982 0.00326134 0.00344358 0.00362651 0.00381016 0.0039945 0.00417955 0.00436531 0.00455177 0.00473781 0.00492231 0.00510527 0.00528668 0.00546656 0.00564489 0.00582167 0.00599692 0.00616952 0.00633839 0.00650352 0.00666491 0.00682257 0.00697648 0.00712666 0.00727311 0.00741481 0.00755076 0.00768096 0.00780542 0.00792413 0.00803709 0.0081443 0.00824577 0.00834067 0.00842821 0.00850837 0.00858117 0.00864659 0.00870465 0.00875533 0.00879864 0.00883408 0.00886116 0.00887986 0.0088902 0.00889217 0.00888577 0.008871 0.00884786 0.00881628 0.00877618 0.00872756 0.00867042 0.00860476 0.00853058 0.00844789 0.00835667 0.00825737 0.00815041 0.00803579 0.00791351 0.00778358 0.00764598 0.00750073 0.00734782 0.00718822 0.00702291 0.00685189 0.00667515 0.0064927 0.00630454 0.00611066 0.00591107 0.00570727 0.00550076 0.00529154 0.0050796 0.00486496 0.0046476 0.00442753 0.00420476 0.00398121 0.00375884 0.00353764 0.00331761 0.00309876 0.00288108 0.00266458 0.00244925 0.0022355 0.00202375 0.00181399 0.00160623 0.00140047 0.00119669 0.000994918 0.000795137 0.000608777 0.000447264 0.0003106 0.000198784 0.000111816 4.9696e-05 1.2424e-05 0 0 9.31882e-06 3.72753e-05 8.38694e-05 0.000149101 0.00023297 0.000335477 0.000456622 0.000596404 0.000746944 0.00090036 0.00105665 0.00121582 0.00137787 0.00154279 0.00171059 0.00188126 0.00205495 0.00223179 0.00241177 0.00259491 0.0027812 0.00297063 0.00316322 0.00335896 0.00355664 0.00375509 0.00395428 0.00415423 0.00435493 0.00455638 0.00475859 0.00496155 0.00516405 0.00536485 0.00556397 0.0057614 0.00595715 0.0061512 0.00634357 0.00653425 0.00672205 0.00690578 0.00708543 0.00726101 0.00743251 0.00759994 0.0077633 0.00792259 0.00807671 0.00822457 0.00836617 0.00850151 0.0086306 0.00875343 0.00887 0.00898031 0.00908348 0.00917864 0.00926577 0.00934488 0.00941597 0.00947903 0.00953408 0.0095811 0.00961957 0.00964892 0.00966918 0.00968033 0.00968237 0.00967532 0.00965915 0.00963389 0.00959944 0.00955572 0.00950274 0.00944049 0.00936898 0.0092882 0.00919816 0.00909885 0.00899074 0.00887431 0.00874955 0.00861646 0.00847504 0.00832529 0.00816722 0.00800082 0.00782714 0.00764726 0.00746116 0.00726884 0.00707031 0.00686557 0.00665461 0.00643744 0.00621568 0.00599097 0.00576331 0.00553269 0.00529912 0.00506259 0.0048231 0.00458067 0.00433738 0.00409536 0.0038546 0.0036151 0.00337687 0.00313989 0.00290418 0.00266973 0.00243698 0.00220635 0.00197784 0.00175147 0.00152722 0.0013051 0.0010851 0.000867228 0.000663972 0.000487816 0.000338761 0.000216807 0.000121954 5.42018e-05 1.35504e-05 0 0 1.01195e-05 4.04782e-05 9.10759e-05 0.000161913 0.000252989 0.000364304 0.000495858 0.000647651 0.000811102 0.00097763 0.00114723 0.00131992 0.00149567 0.00167451 0.00185642 0.0020414 0.00222963 0.00242124 0.00261624 0.00281463 0.00301641 0.00322158 0.00343015 0.0036421 0.00385615 0.00407099 0.00428664 0.00450309 0.00472034 0.00493839 0.00515724 0.00537689 0.00559602 0.00581331 0.00602877 0.00624239 0.00645417 0.00666412 0.00687223 0.00707851 0.00728166 0.00748039 0.00767472 0.00786462 0.00805012 0.00823119 0.00840786 0.00858011 0.00874677 0.00890665 0.00905975 0.00920609 0.00934564 0.00947843 0.00960444 0.00972367 0.00983518 0.00993801 0.0100322 0.0101176 0.0101944 0.0102625 0.010322 0.0103727 0.0104142 0.0104459 0.0104677 0.0104796 0.0104818 0.010474 0.0104564 0.010429 0.0103916 0.0103442 0.0102868 0.0102194 0.010142 0.0100545 0.00995704 0.00984954 0.00973253 0.00960652 0.0094715 0.00932748 0.00917446 0.00901242 0.00884139 0.00866135 0.00847345 0.00827883 0.00807749 0.00786942 0.00765464 0.00743314 0.00720492 0.00696998 0.00673008 0.00648698 0.00624067 0.00599116 0.00573846 0.00548255 0.00522343 0.00496112 0.00469788 0.00443599 0.00417545 0.00391625 0.00365841 0.00340192 0.00314678 0.00289299 0.002641 0.00239127 0.00214379 0.00189857 0.00165561 0.0014149 0.00117645 0.00094026 0.000719887 0.000528896 0.000367289 0.000235065 0.000132224 5.87663e-05 1.46916e-05 0 0 1.09329e-05 4.37317e-05 9.83962e-05 0.000174927 0.000273323 0.000393585 0.000535713 0.000699707 0.000876271 0.00105611 0.00123923 0.00142562 0.00161529 0.00180824 0.00200446 0.00220396 0.00240691 0.00261349 0.0028237 0.00303755 0.00325503 0.00347613 0.00370087 0.00392924 0.00415985 0.0043913 0.0046236 0.00485674 0.00509073 0.00532556 0.00556124 0.00579777 0.00603372 0.00626768 0.00649965 0.00672964 0.00695764 0.00718364 0.00740766 0.00762969 0.00784835 0.00806225 0.00827138 0.00847576 0.00867538 0.00887024 0.00906034 0.00924568 0.00942499 0.009597 0.00976172 0.00991914 0.0100693 0.0102121 0.0103476 0.0104758 0.0105958 0.0107063 0.0108076 0.0108994 0.010982 0.0110552 0.011119 0.0111736 0.0112181 0.011252 0.0112754 0.0112881 0.0112903 0.0112819 0.0112628 0.0112332 0.0111929 0.0111418 0.0110799 0.0110072 0.0109238 0.0108295 0.0107245 0.0106088 0.0104827 0.010347 0.0102017 0.0100466 0.00988182 0.00970737 0.00952324 0.00932942 0.00912713 0.00891762 0.00870088 0.00847691 0.0082457 0.00800726 0.0077616 0.0075087 0.00725046 0.00698877 0.00672362 0.00645503 0.00618298 0.00590747 0.00562852 0.00534611 0.00506269 0.00478072 0.00450017 0.00422107 0.0039434 0.00366717 0.00339238 0.00311902 0.00284757 0.00257851 0.00231184 0.00204755 0.00178564 0.00152612 0.00126898 0.00101423 0.000776522 0.000570506 0.000396185 0.000253558 0.000142626 6.33895e-05 1.58474e-05 0 0 1.17589e-05 4.70357e-05 0.00010583 0.000188143 0.000293973 0.000423321 0.000576187 0.00075257 0.000942451 0.00113581 0.00133264 0.00153294 0.00173672 0.00194398 0.00215471 0.00236891 0.00258679 0.00280855 0.00303417 0.00326367 0.00349704 0.00373428 0.0039754 0.00422039 0.00446775 0.00471601 0.00496515 0.00521519 0.00546611 0.00571791 0.00597061 0.0062242 0.00647715 0.00672796 0.00697663 0.00722315 0.00746753 0.00770977 0.00794986 0.00818781 0.00842213 0.00865133 0.00887543 0.00909442 0.0093083 0.00951707 0.00972073 0.00991928 0.0101114 0.0102956 0.0104721 0.0106407 0.0108014 0.0109544 0.0110995 0.0112368 0.0113652 0.0114836 0.011592 0.0116903 0.0117786 0.0118569 0.0119252 0.0119835 0.0120311 0.0120674 0.0120923 0.0121058 0.012108 0.0120988 0.0120783 0.0120464 0.0120031 0.0119482 0.0118818 0.0118038 0.0117143 0.0116133 0.0115007 0.0113765 0.0112414 0.0110959 0.01094 0.0107738 0.0105971 0.0104101 0.0102128 0.010005 0.0097882 0.00956364 0.00933134 0.00909128 0.00884348 0.00858793 0.00832464 0.00805359 0.00777682 0.00749635 0.00721216 0.00692427 0.00663268 0.00633737 0.00603836 0.00573564 0.00543183 0.00512955 0.00482878 0.00452954 0.00423183 0.00393564 0.00364097 0.00334782 0.0030567 0.00276808 0.00248198 0.00219839 0.00191731 0.00163874 0.00136269 0.00108914 0.000833877 0.000612644 0.000425447 0.000272286 0.000153161 6.80716e-05 1.70179e-05 0 0 1.25975e-05 5.03902e-05 0.000113378 0.000201561 0.000314939 0.000453512 0.00061728 0.000806243 0.00100964 0.00121671 0.00142746 0.00164187 0.00185997 0.00208173 0.00230717 0.00253628 0.00276929 0.00300641 0.00324764 0.00349299 0.00374245 0.00399603 0.00425372 0.00451553 0.00477986 0.00504512 0.0053113 0.00557842 0.00584646 0.00611544 0.00638534 0.00665617 0.00692632 0.00719416 0.0074597 0.00772293 0.00798387 0.00824249 0.00849882 0.00875284 0.00900298 0.00924766 0.00948686 0.00972061 0.00994889 0.0101717 0.0103891 0.0106009 0.0108059 0.0110025 0.0111908 0.0113707 0.0115422 0.0117054 0.0118602 0.0120066 0.0121436 0.0122698 0.0123854 0.0124902 0.0125844 0.0126678 0.0127406 0.0128027 0.0128534 0.0128919 0.0129184 0.0129327 0.0129349 0.012925 0.0129029 0.0128688 0.0128224 0.012763