<?xml version="1.0"?> 
<VTKFile type="StructuredGrid" version="0.1"> 
<StructuredGrid WholeExtent="0 128 0 128 0 0"> 
<Piece Extent="0 128 0 128 0 0"> 
<PointData>
<DataArray type="Float32" Name="u" format="ascii" NumberOfComponents="1"> 
0 0 0 0 0 0 0 0 0 0 0 0 0 0 0 0 0 0 0 0 0 0 0 0 0 0 0 0 0 0 0 0 0 0 0 0 0 0 0 0 0 0 0 0 0 0 0 0 0 0 0 0 0 0 0 0 0 0 0 0 0 0 0 0 0 0 0 0 0 0 0 0 0 0 0 0 0 0 0 0 0 0 0 0 0 0 0 0 0 0 0 0 0 0 0 0 0 0 0 0 0 0 0 0 0 0 0 0 0 0 0 0 0 0 0 0 0 0 0 0 0 0 0 0 0 0 0 0 0 0 -1.87092e-09 -7.48367e-09 -1.68383e-08 -2.99347e-08 -4.67729e-08 -6.7353e-08 -9.16749e-08 -1.19739e-07 -1.67534e-07 -2.51051e-07 -3.70289e-07 -5.25249e-07 -7.1593e-07 -9.42332e-07 -1.20446e-06 -1.5023e-06 -1.83925e-06 -2.21869e-06 -2.64061e-06 -3.10502e-06 -3.61192e-06 -4.16131e-06 -4.75318e-06 -5.38754e-06 -6.05766e-06 -6.75681e-06 -7.485e-06 -8.24221e-06 -9.02846e-06 -9.84373e-06 -1.0688e-05 -1.15614e-05 -1.24495e-05 -1.33382e-05 -1.42275e-05 -1.51173e-05 -1.60077e-05 -1.68986e-05 -1.77901e-05 -1.86822e-05 -1.95619e-05 -2.04163e-05 -2.12455e-05 -2.20494e-05 -2.28279e-05 -2.35812e-05 -2.43092e-05 -2.5012e-05 -2.56843e-05 -2.63211e-05 -2.69224e-05 -2.74881e-05 -2.80184e-05 -2.85131e-05 -2.89723e-05 -2.93959e-05 -2.97867e-05 -3.01474e-05 -3.0478e-05 -3.07784e-05 -3.10486e-05 -3.12887e-05 -3.14987e-05 -3.16785e-05 -3.18331e-05 -3.19675e-05 -3.20817e-05 -3.21756e-05 -3.22493e-05 -3.23027e-05 -3.2336e-05 -3.23489e-05 -3.2343e-05 -3.23194e-05 -3.22783e-05 -3.22196e-05 -3.21433e-05 -3.20494e-05 -3.19379e-05 -3.18088e-05 -3.16585e-05 -3.14835e-05 -3.12836e-05 -3.1059e-05 -3.08096e-05 -3.05354e-05 -3.02364e-05 -2.99127e-05 -2.95595e-05 -2.91724e-05 -2.87514e-05 -2.82964e-05 -2.78075e-05 -2.72846e-05 -2.67277e-05 -2.61369e-05 -2.55123e-05 -2.48541e-05 -2.41622e-05 -2.34367e-05 -2.26776e-05 -2.18848e-05 -2.10584e-05 -2.01984e-05 -1.93131e-05 -1.84111e-05 -1.74924e-05 -1.65568e-05 -1.56045e-05 -1.46355e-05 -1.36497e-05 -1.26471e-05 -1.16321e-05 -1.06091e-05 -9.57797e-06 -8.53882e-06 -7.49161e-06 -6.43634e-06 -5.37301e-06 -4.30163e-06 -3.29344e-06 -2.41967e-06 -1.68033e-06 -1.07541e-06 -6.04917e-07 -2.68852e-07 -6.7213e-08 0 0 -7.48367e-09 -2.99347e-08 -6.7353e-08 -1.19739e-07 -1.87092e-07 -2.69412e-07 -3.667e-07 -4.78955e-07 -6.70136e-07 -1.0042e-06 -1.48116e-06 -2.10099e-06 -2.86372e-06 -3.76933e-06 -4.81782e-06 -6.00921e-06 -7.357e-06 -8.87475e-06 -1.05624e-05 -1.24201e-05 -1.44477e-05 -1.66452e-05 -1.90127e-05 -2.15502e-05 -2.42306e-05 -2.70272e-05 -2.994e-05 -3.29688e-05 -3.61138e-05 -3.93749e-05 -4.27522e-05 -4.62455e-05 -4.97981e-05 -5.33529e-05 -5.69099e-05 -6.04692e-05 -6.40308e-05 -6.75945e-05 -7.11606e-05 -7.47288e-05 -7.82477e-05 -8.16654e-05 -8.4982e-05 -8.81974e-05 -9.13117e-05 -9.43249e-05 -9.7237e-05 -0.000100048 -0.000102737 -0.000105284 -0.00010769 -0.000109953 -0.000112074 -0.000114052 -0.000115889 -0.000117584 -0.000119147 -0.00012059 -0.000121912 -0.000123113 -0.000124194 -0.000125155 -0.000125995 -0.000126714 -0.000127333 -0.00012787 -0.000128327 -0.000128702 -0.000128997 -0.000129211 -0.000129344 -0.000129396 -0.000129372 -0.000129278 -0.000129113 -0.000128878 -0.000128573 -0.000128198 -0.000127752 -0.000127235 -0.000126634 -0.000125934 -0.000125135 -0.000124236 -0.000123238 -0.000122142 -0.000120946 -0.000119651 -0.000118238 -0.00011669 -0.000115006 -0.000113186 -0.00011123 -0.000109138 -0.000106911 -0.000104548 -0.000102049 -9.94164e-05 -9.66489e-05 -9.37469e-05 -9.07103e-05 -8.75393e-05 -8.42336e-05 -8.07935e-05 -7.72525e-05 -7.36445e-05 -6.99695e-05 -6.62274e-05 -6.24182e-05 -5.8542e-05 -5.45987e-05 -5.05884e-05 -4.65285e-05 -4.24363e-05 -3.83119e-05 -3.41553e-05 -2.99664e-05 -2.57454e-05 -2.14921e-05 -1.72065e-05 -1.31738e-05 -9.67868e-06 -6.7213e-06 -4.30163e-06 -2.41967e-06 -1.07541e-06 -2.68852e-07 0 0 -1.68383e-08 -6.7353e-08 -1.51544e-07 -2.69412e-07 -4.20956e-07 -6.06177e-07 -8.25075e-07 -1.07765e-06 -1.50781e-06 -2.25946e-06 -3.3326e-06 -4.72724e-06 -6.44337e-06 -8.48099e-06 -1.08401e-05 -1.35207e-05 -1.65533e-05 -1.99682e-05 -2.37655e-05 -2.79452e-05 -3.25073e-05 -3.74518e-05 -4.27786e-05 -4.84879e-05 -5.45189e-05 -6.08113e-05 -6.7365e-05 -7.41799e-05 -8.12561e-05 -8.85936e-05 -9.61924e-05 -0.000104052 -0.000112046 -0.000120044 -0.000128047 -0.000136056 -0.000144069 -0.000152088 -0.000160111 -0.00016814 -0.000176057 -0.000183747 -0.000191209 -0.000198444 -0.000205451 -0.000212231 -0.000218783 -0.000225108 -0.000231159 -0.00023689 -0.000242301 -0.000247393 -0.000252165 -0.000256618 -0.00026075 -0.000264563 -0.000268081 -0.000271327 -0.000274302 -0.000277005 -0.000279438 -0.000281599 -0.000283488 -0.000285107 -0.000286498 -0.000287708 -0.000288735 -0.000289581 -0.000290244 -0.000290725 -0.000291024 -0.00029114 -0.000291087 -0.000290875 -0.000290505 -0.000289976 -0.00028929 -0.000288444 -0.000287441 -0.000286279 -0.000284927 -0.000283351 -0.000281553 -0.000279531 -0.000277286 -0.000274819 -0.000272128 -0.000269214 -0.000266036 -0.000262552 -0.000258763 -0.000254668 -0.000250267 -0.000245561 -0.00024055 -0.000235232 -0.000229611 -0.000223687 -0.00021746 -0.000210931 -0.000204098 -0.000196963 -0.000189526 -0.000181785 -0.000173818 -0.0001657 -0.000157431 -0.000149012 -0.000140441 -0.000131719 -0.000122847 -0.000113824 -0.000104689 -9.54817e-05 -8.62018e-05 -7.68494e-05 -6.74245e-05 -5.79271e-05 -4.83571e-05 -3.87147e-05 -2.9641e-05 -2.1777e-05 -1.51229e-05 -9.67868e-06 -5.44426e-06 -2.41967e-06 -6.04917e-07 0 0 -2.99347e-08 -1.19739e-07 -2.69412e-07 -4.78955e-07 -7.48367e-07 -1.07765e-06 -1.4668e-06 -1.91582e-06 -2.68055e-06 -4.01681e-06 -5.92463e-06 -8.40398e-06 -1.14549e-05 -1.50773e-05 -1.92713e-05 -2.40368e-05 -2.9428e-05 -3.5499e-05 -4.22498e-05 -4.96804e-05 -5.77907e-05 -6.65809e-05 -7.60509e-05 -8.62007e-05 -9.69226e-05 -0.000108109 -0.00011976 -0.000131875 -0.000144455 -0.0001575 -0.000171009 -0.000184982 -0.000199192 -0.000213412 -0.00022764 -0.000241877 -0.000256123 -0.000270378 -0.000284642 -0.000298915 -0.000312991 -0.000326662 -0.000339928 -0.00035279 -0.000365247 -0.0003773 -0.000388948 -0.000400192 -0.000410949 -0.000421138 -0.000430758 -0.00043981 -0.000448294 -0.000456209 -0.000463556 -0.000470335 -0.000476588 -0.000482359 -0.000487648 -0.000492454 -0.000496778 -0.00050062 -0.000503979 -0.000506856 -0.00050933 -0.000511481 -0.000513307 -0.00051481 -0.000515989 -0.000516844 -0.000517375 -0.000517583 -0.000517488 -0.000517111 -0.000516453 -0.000515513 -0.000514292 -0.00051279 -0.000511006 -0.000508941 -0.000506537 -0.000503736 -0.000500538 -0.000496944 -0.000492954 -0.000488567 -0.000483783 -0.000478603 -0.000472953 -0.000466759 -0.000460023 -0.000452743 -0.00044492 -0.000436553 -0.000427644 -0.000418191 -0.000408197 -0.000397665 -0.000386596 -0.000374988 -0.000362841 -0.000350157 -0.000336935 -0.000323174 -0.00030901 -0.000294578 -0.000279878 -0.000264909 -0.000249673 -0.000234168 -0.000218395 -0.000202354 -0.000186114 -0.000169745 -0.000153248 -0.000136621 -0.000119866 -0.000102981 -8.59682e-05 -6.88262e-05 -5.2695e-05 -3.87147e-05 -2.68852e-05 -1.72065e-05 -9.67868e-06 -4.30163e-06 -1.07541e-06 0 0 -4.67729e-08 -1.87092e-07 -4.20956e-07 -7.48367e-07 -1.16932e-06 -1.68383e-06 -2.29187e-06 -2.99347e-06 -4.18835e-06 -6.27627e-06 -9.25723e-06 -1.31312e-05 -1.78982e-05 -2.35583e-05 -3.01114e-05 -3.75575e-05 -4.59813e-05 -5.54672e-05 -6.60153e-05 -7.76256e-05 -9.0298e-05 -0.000104033 -0.00011883 -0.000134689 -0.000151442 -0.00016892 -0.000187125 -0.000206055 -0.000225711 -0.000246093 -0.000267201 -0.000289035 -0.000311238 -0.000333456 -0.000355687 -0.000377933 -0.000400192 -0.000422466 -0.000444754 -0.000467055 -0.000489048 -0.000510409 -0.000531137 -0.000551234 -0.000570698 -0.000589531 -0.000607731 -0.000625299 -0.000642108 -0.000658028 -0.00067306 -0.000687204 -0.000700459 -0.000712827 -0.000724307 -0.000734898 -0.000744669 -0.000753686 -0.000761949 -0.000769459 -0.000776215 -0.000782218 -0.000787467 -0.000791963 -0.000795829 -0.000799189 -0.000802043 -0.000804391 -0.000806233 -0.000807569 -0.000808399 -0.000808723 -0.000808574 -0.000807986 -0.000806958 -0.00080549 -0.000803582 -0.000801234 -0.000798447 -0.00079522 -0.000791463 -0.000787087 -0.000782091 -0.000776475 -0.00077024 -0.000763385 -0.000755911 -0.000747817 -0.000738988 -0.000729311 -0.000718785 -0.00070741 -0.000695187 -0.000682114 -0.000668193 -0.000653423 -0.000637808 -0.000621352 -0.000604056 -0.000585918 -0.00056694 -0.00054712 -0.00052646 -0.000504959 -0.000482828 -0.000460278 -0.000437309 -0.000413921 -0.000390114 -0.000365887 -0.000341242 -0.000316178 -0.000290803 -0.000265227 -0.000239449 -0.00021347 -0.00018729 -0.000160908 -0.000134325 -0.000107541 -8.2336e-05 -6.04917e-05 -4.20081e-05 -2.68852e-05 -1.51229e-05 -6.7213e-06 -1.68033e-06 0 0 -6.7353e-08 -2.69412e-07 -6.06177e-07 -1.07765e-06 -1.68383e-06 -2.42471e-06 -3.3003e-06 -4.31059e-06 -6.03123e-06 -9.03783e-06 -1.33304e-05 -1.8909e-05 -2.57735e-05 -3.3924e-05 -4.33604e-05 -5.40828e-05 -6.6213e-05 -7.98728e-05 -9.5062e-05 -0.000111781 -0.000130029 -0.000149807 -0.000171115 -0.000193951 -0.000218076 -0.000243245 -0.00026946 -0.00029672 -0.000325024 -0.000354374 -0.00038477 -0.00041621 -0.000448183 -0.000480176 -0.000512189 -0.000544223 -0.000576277 -0.000608351 -0.000640445 -0.00067256 -0.000704229 -0.000734988 -0.000764838 -0.000793777 -0.000821806 -0.000848924 -0.000875133 -0.000900431 -0.000924635 -0.00094756 -0.000969206 -0.000989573 -0.00100866 -0.00102647 -0.001043 -0.00105825 -0.00107232 -0.00108531 -0.00109721 -0.00110802 -0.00111775 -0.00112639 -0.00113395 -0.00114043 -0.00114599 -0.00115083 -0.00115494 -0.00115832 -0.00116097 -0.0011629 -0.00116409 -0.00116456 -0.00116435 -0.0011635 -0.00116202 -0.00115991 -0.00115716 -0.00115378 -0.00114976 -0.00114512 -0.00113971 -0.00113341 -0.00112621 -0.00111812 -0.00110915 -0.00109927 -0.00108851 -0.00107686 -0.00106414 -0.00105021 -0.00103505 -0.00101867 -0.00100107 -0.000982245 -0.000962198 -0.000940929 -0.000918444 -0.000894747 -0.00086984 -0.000843722 -0.000816393 -0.000787853 -0.000758103 -0.000727141 -0.000695273 -0.000662801 -0.000629725 -0.000596046 -0.000561764 -0.000526878 -0.000491389 -0.000455296 -0.000418756 -0.000381927 -0.000344807 -0.000307397 -0.000269698 -0.000231708 -0.000193429 -0.000154859 -0.000118564 -8.71081e-05 -6.04917e-05 -3.87147e-05 -2.1777e-05 -9.67868e-06 -2.41967e-06 0 0 -9.16749e-08 -3.667e-07 -8.25075e-07 -1.4668e-06 -2.29187e-06 -3.3003e-06 -4.49207e-06 -5.8672e-06 -8.20917e-06 -1.23015e-05 -1.81442e-05 -2.57372e-05 -3.50806e-05 -4.61743e-05 -5.90183e-05 -7.36128e-05 -9.01233e-05 -0.000108716 -0.00012939 -0.000152146 -0.000176984 -0.000203904 -0.000232906 -0.00026399 -0.000296825 -0.000331084 -0.000366765 -0.000403868 -0.000442394 -0.000482343 -0.000523714 -0.000566508 -0.000610027 -0.000653573 -0.000697147 -0.000740748 -0.000784377 -0.000828033 -0.000871717 -0.000915428 -0.000958534 -0.0010004 -0.00104103 -0.00108042 -0.00111857 -0.00115548 -0.00119115 -0.00122559 -0.00125853 -0.00128973 -0.0013192 -0.00134692 -0.0013729 -0.00139714 -0.00141964 -0.0014404 -0.00145955 -0.00147722 -0.00149342 -0.00150814 -0.00152138 -0.00153315 -0.00154344 -0.00155225 -0.00155982 -0.00156641 -0.001572 -0.00157661 -0.00158022 -0.00158283 -0.00158446 -0.0015851 -0.00158481 -0.00158365 -0.00158164 -0.00157876 -0.00157502 -0.00157042 -0.00156496 -0.00155863 -0.00155127 -0.00154269 -0.0015329 -0.00152189 -0.00150967 -0.00149623 -0.00148159 -0.00146572 -0.00144842 -0.00142945 -0.00140882 -0.00138652 -0.00136257 -0.00133694 -0.00130966 -0.00128071 -0.0012501 -0.00121785 -0.00118395 -0.0011484 -0.0011112 -0.00107236 -0.00103186 -0.00098972 -0.000946343 -0.000902145 -0.000857126 -0.000811285 -0.000764623 -0.000717139 -0.000668834 -0.000619708 -0.000569974 -0.000519845 -0.000469321 -0.000418402 -0.000367089 -0.000315381 -0.000263278 -0.00021078 -0.000161379 -0.000118564 -8.2336e-05 -5.2695e-05 -2.9641e-05 -1.31738e-05 -3.29344e-06 0 0 -1.19739e-07 -4.78955e-07 -1.07765e-06 -1.91582e-06 -2.99347e-06 -4.31059e-06 -5.8672e-06 -7.66328e-06 -1.07222e-05 -1.60673e-05 -2.36985e-05 -3.36159e-05 -4.58195e-05 -6.03093e-05 -7.70852e-05 -9.61473e-05 -0.000117712 -0.000141996 -0.000168999 -0.000198721 -0.000231163 -0.000266324 -0.000304204 -0.000344803 -0.00038769 -0.000432436 -0.00047904 -0.000527501 -0.000577821 -0.000629999 -0.000684035 -0.000739929 -0.000796769 -0.000853646 -0.000910559 -0.000967507 -0.00102449 -0.00108151 -0.00113857 -0.00119566 -0.00125196 -0.00130665 -0.00135971 -0.00141116 -0.00146099 -0.0015092 -0.00155579 -0.00160077 -0.0016438 -0.00168455 -0.00172303 -0.00175924 -0.00179318 -0.00182484 -0.00185423 -0.00188134 -0.00190635 -0.00192944 -0.00195059 -0.00196982 -0.00198711 -0.00200248 -0.00201592 -0.00202743 -0.00203732 -0.00204592 -0.00205323 -0.00205924 -0.00206396 -0.00206738 -0.0020695 -0.00207033 -0.00206995 -0.00206844 -0.00206581 -0.00206205 -0.00205717 -0.00205116 -0.00204402 -0.00203576 -0.00202615 -0.00201494 -0.00200215 -0.00198778 -0.00197181 -0.00195427 -0.00193513 -0.00191441 -0.00189181 -0.00186704 -0.00184009 -0.00181097 -0.00177968 -0.00174621 -0.00171057 -0.00167276 -0.00163279 -0.00159066 -0.00154638 -0.00149995 -0.00145137 -0.00140063 -0.00134774 -0.0012927 -0.00123604 -0.00117831 -0.00111951 -0.00105964 -0.000998691 -0.000936672 -0.00087358 -0.000809415 -0.000744455 -0.000678981 -0.00061299 -0.000546484 -0.000479463 -0.000411926 -0.000343873 -0.000275305 -0.00021078 -0.000154859 -0.000107541 -6.88262e-05 -3.87147e-05 -1.72065e-05 -4.30163e-06 0 0 -1.65413e-07 -6.61654e-07 -1.48872e-06 -2.64662e-06 -4.13534e-06 -5.95489e-06 -8.10526e-06 -1.05865e-05 -1.46535e-05 -2.15615e-05 -3.13104e-05 -4.39002e-05 -5.9331e-05 -7.76026e-05 -9.87152e-05 -0.000122669 -0.000149728 -0.000180158 -0.000213959 -0.000251131 -0.000291673 -0.000335587 -0.000382871 -0.000433526 -0.000487008 -0.000542772 -0.000600818 -0.000661147 -0.000723757 -0.000788651 -0.000855826 -0.000925284 -0.000995886 -0.00106649 -0.00113711 -0.00120772 -0.00127835 -0.00134898 -0.00141961 -0.00149025 -0.00155987 -0.00162745 -0.00169298 -0.00175646 -0.0018179 -0.0018773 -0.00193465 -0.00198996 -0.00204282 -0.00209286 -0.00214006 -0.00218443 -0.00222597 -0.00226467 -0.00230054 -0.00233357 -0.00236401 -0.00239208 -0.00241778 -0.00244111 -0.00246207 -0.00248066 -0.00249688 -0.00251074 -0.00252263 -0.00253297 -0.00254176 -0.00254899 -0.00255467 -0.00255879 -0.00256136 -0.00256237 -0.00256193 -0.00256015 -0.00255703 -0.00255256 -0.00254675 -0.0025396 -0.0025311 -0.00252126 -0.00250977 -0.00249634 -0.00248097 -0.00246365 -0.00244439 -0.00242318 -0.00240004 -0.00237494 -0.00234752 -0.00231739 -0.00228454 -0.00224899 -0.00221071 -0.00216973 -0.00212603 -0.00207962 -0.0020305 -0.00197865 -0.00192409 -0.00186681 -0.00180681 -0.00174409 -0.00167865 -0.0016105 -0.00154029 -0.0014687 -0.00139574 -0.00132139 -0.00124566 -0.00116855 -0.00109006 -0.00101018 -0.000929281 -0.0008477 -0.00076544 -0.000682502 -0.000598886 -0.000514591 -0.000429617 -0.000343965 -0.000263348 -0.00019348 -0.000134361 -8.59912e-05 -4.83701e-05 -2.14978e-05 -5.37445e-06 0 0 -2.42568e-07 -9.70274e-07 -2.18312e-06 -3.8811e-06 -6.06421e-06 -8.73247e-06 -1.18859e-05 -1.55244e-05 -2.10865e-05 -3.00107e-05 -4.22969e-05 -5.79452e-05 -7.69556e-05 -9.9328e-05 -0.000125062 -0.000154159 -0.00018692 -0.000223646 -0.000264339 -0.000308998 -0.000357623 -0.000410215 -0.000466772 -0.000527296 -0.000591115 -0.000657561 -0.000726633 -0.000798331 -0.000872656 -0.000949606 -0.00102918 -0.00111139 -0.00119485 -0.00127821 -0.00136147 -0.00144462 -0.00152767 -0.00161061 -0.00169345 -0.00177618 -0.00185761 -0.00193652 -0.00201291 -0.00208679 -0.00215815 -0.002227 -0.00229333 -0.00235714 -0.00241801 -0.00247551 -0.00252963 -0.00258037 -0.00262774 -0.00267174 -0.00271236 -0.00274961 -0.00278381 -0.00281528 -0.00284404 -0.00287007 -0.00289338 -0.00291396 -0.00293183 -0.00294697 -0.00295991 -0.00297116 -0.00298073 -0.00298862 -0.00299482 -0.00299934 -0.00300217 -0.00300332 -0.00300291 -0.00300106 -0.00299778 -0.00299307 -0.00298692 -0.00297933 -0.00297031 -0.00295985 -0.00294757 -0.00293306 -0.00291633 -0.00289738 -0.0028762 -0.0028528 -0.00282718 -0.00279934 -0.00276876 -0.00273494 -0.00269786 -0.00265755 -0.00261398 -0.00256718 -0.00251712 -0.00246382 -0.00240722 -0.00234729 -0.00228401 -0.0022174 -0.00214745 -0.00207415 -0.00199752 -0.00191755 -0.00183502 -0.00175073 -0.00166466 -0.00157682 -0.00148722 -0.00139584 -0.0013027 -0.00120778 -0.00111153 -0.00101437 -0.000916295 -0.000817313 -0.000717422 -0.000616622 -0.000514912 -0.000412294 -0.000315662 -0.000231915 -0.000161052 -0.000103073 -5.79788e-05 -2.57684e-05 -6.44209e-06 0 0 -3.51204e-07 -1.40481e-06 -3.16083e-06 -5.61926e-06 -8.78009e-06 -1.26433e-05 -1.7209e-05 -2.2477e-05 -3.00211e-05 -4.14148e-05 -5.6658e-05 -7.57509e-05 -9.86934e-05 -0.000125485 -0.000156127 -0.000190618 -0.000229287 -0.000272461 -0.00032014 -0.000372324 -0.000429013 -0.000490207 -0.000555906 -0.000626111 -0.000700013 -0.000776804 -0.000856485 -0.000939056 -0.00102452 -0.00111287 -0.00120411 -0.00129823 -0.00139366 -0.0014888 -0.00158364 -0.00167819 -0.00177245 -0.00186641 -0.00196008 -0.00205346 -0.00214518 -0.00223387 -0.00231952 -0.00240215 -0.00248174 -0.0025583 -0.00263183 -0.00270233 -0.00276936 -0.0028325 -0.00289174 -0.00294707 -0.00299851 -0.00304606 -0.0030897 -0.00312944 -0.00316574 -0.00319905 -0.00322937 -0.0032567 -0.00328104 -0.00330239 -0.00332075 -0.00333612 -0.00334915 -0.00336049 -0.00337015 -0.00337813 -0.00338442 -0.00338903 -0.00339195 -0.00339318 -0.00339288 -0.00339117 -0.00338807 -0.00338356 -0.00337766 -0.00337035 -0.00336165 -0.00335155 -0.00333954 -0.0033251 -0.00330824 -0.00328896 -0.00326725 -0.00324312 -0.00321657 -0.00318759 -0.00315552 -0.00311967 -0.00308005 -0.00303666 -0.00298949 -0.00293855 -0.00288384 -0.00282535 -0.00276297 -0.00269657 -0.00262616 -0.00255173 -0.00247329 -0.00239083 -0.00230435 -0.00221386 -0.00212024 -0.00202438 -0.00192628 -0.00182594 -0.00172337 -0.00161856 -0.00151151 -0.00140222 -0.0012912 -0.00117898 -0.00106555 -0.000950918 -0.000835073 -0.00071802 -0.00059976 -0.000480291 -0.000367723 -0.000270164 -0.000187614 -0.000120073 -6.75409e-05 -3.00182e-05 -7.50454e-06 0 0 -4.91319e-07 -1.96528e-06 -4.42187e-06 -7.86111e-06 -1.2283e-05 -1.76875e-05 -2.40746e-05 -3.14444e-05 -4.14573e-05 -5.57737e-05 -7.43937e-05 -9.73172e-05 -0.000124544 -0.000156075 -0.000191909 -0.000232047 -0.00027683 -0.000326601 -0.00038136 -0.000441107 -0.000505842 -0.000575564 -0.000650274 -0.000729972 -0.0008137 -0.0009005 -0.000990374 -0.00108332 -0.00117934 -0.00127843 -0.00138059 -0.00148583 -0.00159232 -0.00169825 -0.00180363 -0.00190844 -0.00201269 -0.00211638 -0.00221952 -0.00232209 -0.00242259 -0.00251949 -0.00261281 -0.00270253 -0.00278866 -0.0028712 -0.00295015 -0.00302551 -0.00309687 -0.00316383 -0.00322638 -0.00328453 -0.00333827 -0.00338761 -0.00343255 -0.00347308 -0.00350982 -0.00354339 -0.00357379 -0.00360101 -0.00362506 -0.00364594 -0.00366365 -0.00367818 -0.00369035 -0.00370096 -0.00371002 -0.00371752 -0.00372346 -0.00372785 -0.00373068 -0.00373196 -0.00373184 -0.00373048 -0.00372788 -0.00372405 -0.00371898 -0.00371267 -0.00370513 -0.00369635 -0.00368568 -0.00367246 -0.0036567 -0.00363839 -0.00361754 -0.00359414 -0.0035682 -0.00353971 -0.0035078 -0.00347159 -0.0034311 -0.00338631 -0.00333723 -0.00328385 -0.00322618 -0.00316422 -0.00309774 -0.00302651 -0.00295053 -0.0028698 -0.00278433 -0.0026941 -0.00259913 -0.00249942 -0.00239593 -0.00228966 -0.0021806 -0.00206875 -0.00195411 -0.00183669 -0.00171648 -0.00159348 -0.0014683 -0.00134155 -0.00121322 -0.00108332 -0.000951838 -0.000818785 -0.000684158 -0.000547956 -0.000419529 -0.000308225 -0.000214045 -0.000136989 -7.70564e-05 -3.42473e-05 -8.56182e-06 0 0 -6.62915e-07 -2.65166e-06 -5.96623e-06 -1.06066e-05 -1.65729e-05 -2.38649e-05 -3.24828e-05 -4.24265e-05 -5.53951e-05 -7.30876e-05 -9.5504e-05 -0.000122644 -0.000154508 -0.000191096 -0.000232408 -0.000278444 -0.000329549 -0.000386068 -0.000448001 -0.000515348 -0.00058811 -0.000666285 -0.000749875 -0.000838878 -0.000932177 -0.00102865 -0.0011283 -0.00123112 -0.00133712 -0.0014463 -0.00155865 -0.00167417 -0.00179083 -0.00190658 -0.00202143 -0.00213537 -0.0022484 -0.00236053 -0.00247175 -0.00258206 -0.00268983 -0.00279339 -0.00289276 -0.00298794 -0.00307892 -0.00316571 -0.0032483 -0.00332669 -0.00340054 -0.0034695 -0.00353357 -0.00359274 -0.00364702 -0.00369641 -0.00374091 -0.00378051 -0.00381604 -0.00384829 -0.00387727 -0.00390299 -0.00392544 -0.00394461 -0.00396052 -0.00397316 -0.00398352 -0.00399257 -0.00400033 -0.00400679 -0.00401195 -0.00401581 -0.00401838 -0.00401964 -0.00401979 -0.00401898 -0.00401723 -0.00401453 -0.00401088 -0.00400629 -0.00400075 -0.00399426 -0.003986 -0.00397515 -0.00396171 -0.00394568 -0.00392707 -0.00390586 -0.00388207 -0.00385568 -0.0038256 -0.00379071 -0.00375101 -0.00370651 -0.0036572 -0.00360308 -0.00354416 -0.00348042 -0.00341152 -0.00333709 -0.00325711 -0.00317161 -0.00308056 -0.00298399 -0.00288188 -0.00277423 -0.00266211 -0.00254657 -0.00242761 -0.00230524 -0.00217945 -0.00205024 -0.00191762 -0.00178158 -0.00164282 -0.00150206 -0.00135929 -0.00121451 -0.00106772 -0.000918917 -0.000768108 -0.00061529 -0.000471082 -0.000346101 -0.000240348 -0.000153823 -8.65252e-05 -3.84556e-05 -9.61391e-06 0 0 -8.65991e-07 -3.46396e-06 -7.79392e-06 -1.38559e-05 -2.16498e-05 -3.11757e-05 -4.24335e-05 -5.54234e-05 -7.18346e-05 -9.33564e-05 -0.000119989 -0.000151732 -0.000188586 -0.00023055 -0.000277625 -0.000329811 -0.000387444 -0.000450861 -0.000520062 -0.000595048 -0.000675817 -0.000762371 -0.000854709 -0.000952831 -0.00105544 -0.00116125 -0.00127026 -0.00138247 -0.00149787 -0.00161647 -0.00173826 -0.00186326 -0.00198919 -0.00211378 -0.00223704 -0.00235897 -0.00247957 -0.00259884 -0.00271678 -0.00283338 -0.0029469 -0.00305557 -0.00315939 -0.00325838 -0.00335252 -0.00344181 -0.00352626 -0.00360587 -0.00368037 -0.00374952 -0.00381329 -0.00387171 -0.00392476 -0.00397245 -0.00401478 -0.00405175 -0.00408439 -0.00411376 -0.00413984 -0.00416264 -0.00418217 -0.00419841 -0.00421137 -0.00422106 -0.00422864 -0.00423532 -0.00424109 -0.00424594 -0.00424988 -0.00425291 -0.00425503 -0.00425624 -0.00425673 -0.00425669 -0.00425611 -0.004255 -0.00425337 -0.0042512 -0.0042485 -0.00424526 -0.00424049 -0.00423316 -0.00422327 -0.00421083 -0.00419584 -0.00417829 -0.00415818 -0.00413552 -0.00410892 -0.00407701 -0.00403979 -0.00399725 -0.0039494 -0.00389624 -0.00383776 -0.00377397 -0.00370433 -0.00362831 -0.00354592 -0.00345715 -0.003362 -0.00326048 -0.00315257 -0.00303829 -0.00291876 -0.0027951 -0.00266732 -0.00253541 -0.00239937 -0.00225921 -0.00211492 -0.0019665 -0.00181477 -0.00166052 -0.00150376 -0.00134449 -0.00118271 -0.00101842 -0.00085161 -0.000682292 -0.00052238 -0.00038379 -0.000266521 -0.000170573 -9.59474e-05 -4.26433e-05 -1.06608e-05 0 0 -1.10055e-06 -4.40219e-06 -9.90492e-06 -1.76087e-05 -2.75137e-05 -3.96197e-05 -5.39268e-05 -7.0435e-05 -9.07756e-05 -0.00011658 -0.000147848 -0.00018458 -0.000226776 -0.000274436 -0.000327559 -0.000386146 -0.000450514 -0.00052098 -0.000597544 -0.000680205 -0.000768965 -0.000863822 -0.000964777 -0.00107183 -0.0011835 -0.00129831 -0.00141626 -0.00153735 -0.00166158 -0.00178894 -0.00191945 -0.00205309 -0.00218739 -0.00231985 -0.00245047 -0.00257926 -0.00270621 -0.00283132 -0.0029546 -0.00307604 -0.0031938 -0.00330602 -0.0034127 -0.00351384 -0.00360945 -0.00369952 -0.00378405 -0.00386305 -0.00393637 -0.00400387 -0.00406556 -0.00412143 -0.00417149 -0.00421574 -0.00425417 -0.00428678 -0.00431489 -0.00433979 -0.00436148 -0.00437997 -0.00439525 -0.00440733 -0.0044162 -0.00442187 -0.00442574 -0.00442921 -0.00443229 -0.00443497 -0.00443726 -0.00443915 -0.00444065 -0.00444175 -0.00444267 -0.00444359 -0.00444452 -0.00444547 -0.00444643 -0.0044474 -0.00444838 -0.00444937 -0.00444915 -0.00444649 -0.00444138 -0.00443383 -0.00442384 -0.00441141 -0.00439653 -0.00437922 -0.00435777 -0.00433051 -0.00429744 -0.00425855 -0.00421384 -0.00416333 -0.00410699 -0.00404485 -0.00397615 -0.00390019 -0.00381695 -0.00372643 -0.00362864 -0.00352357 -0.00341123 -0.00329161 -0.0031659 -0.00303527 -0.00289973 -0.00275927 -0.00261389 -0.0024636 -0.00230839 -0.00214826 -0.00198414 -0.00181693 -0.00164664 -0.00147327 -0.00129682 -0.00111728 -0.000934663 -0.000748963 -0.000573425 -0.000421292 -0.000292564 -0.000187241 -0.000105323 -4.68102e-05 -1.17025e-05 0 0 -1.36658e-06 -5.46633e-06 -1.22992e-05 -2.18653e-05 -3.41646e-05 -4.9197e-05 -6.69626e-05 -8.74613e-05 -0.000112218 -0.000142759 -0.000179082 -0.000221189 -0.00026908 -0.000322753 -0.00038221 -0.000447451 -0.000518761 -0.000596425 -0.000680445 -0.000770821 -0.000867551 -0.000970637 -0.00108008 -0.00119587 -0.00131635 -0.00143982 -0.0015663 -0.00169577 -0.00182825 -0.00196372 -0.0021022 -0.00224367 -0.00238544 -0.00252479 -0.00266171 -0.00279622 -0.00292831 -0.00305798 -0.00318523 -0.00331005 -0.00343053 -0.00354474 -0.00365267 -0.00375433 -0.00384971 -0.00393882 -0.00402166 -0.00409822 -0.00416852 -0.00423257 -0.00429036 -0.00434191 -0.00438721 -0.00442626 -0.00445906 -0.00448562 -0.00450752 -0.00452638 -0.00454219 -0.00455496 -0.00456469 -0.00457137 -0.00457501 -0.0045756 -0.00457479 -0.00457424 -0.00457393 -0.00457388 -0.00457408 -0.00457453 -0.00457523 -0.00457618 -0.00457759 -0.00457969 -0.00458247 -0.00458593 -0.00459007 -0.0045949 -0.0046004 -0.00460659 -0.00461199 -0.00461514 -0.00461604 -0.00461469 -0.00461109 -0.00460523 -0.00459713 -0.00458677 -0.00457214 -0.0045512 -0.00452394 -0.00449038 -0.00445052 -0.00440434 -0.00435186 -0.00429306 -0.004227 -0.00415271 -0.00407019 -0.00397945 -0.00388047 -0.00377327 -0.00365784 -0.00353418 -0.00340352 -0.00326707 -0.00312483 -0.00297681 -0.002823 -0.0026634 -0.00249802 -0.00232685 -0.00215093 -0.00197129 -0.00178792 -0.00160084 -0.00141004 -0.00121551 -0.00101727 -0.000815302 -0.000624216 -0.000458607 -0.000318477 -0.000203826 -0.000114652 -5.09564e-05 -1.27391e-05 0 0 -1.6664e-06 -6.6656e-06 -1.49976e-05 -2.66624e-05 -4.166e-05 -5.99904e-05 -8.16535e-05 -0.00010665 -0.000136342 -0.000172094 -0.000213906 -0.000261778 -0.000315709 -0.000375701 -0.000441752 -0.000513864 -0.000592274 -0.000677222 -0.000768708 -0.000866732 -0.000971293 -0.00108239 -0.00120003 -0.00132421 -0.00145303 -0.00158461 -0.00171894 -0.00185603 -0.00199588 -0.00213848 -0.00228384 -0.00243195 -0.00257989 -0.00272472 -0.00286644 -0.00300506 -0.00314057 -0.00327297 -0.00340227 -0.00352846 -0.00364956 -0.00376359 -0.00387055 -0.00397044 -0.00406327 -0.00414902 -0.00422771 -0.00429932 -0.00436407 -0.00442216 -0.0044736 -0.00451838 -0.0045565 -0.00458796 -0.00461276 -0.0046309 -0.00464433 -0.004655 -0.0046629 -0.00466803 -0.00467039 -0.00466999 -0.00466682 -0.00466088 -0.0046541 -0.00464839 -0.00464375 -0.00464019 -0.00463769 -0.00463627 -0.00463593 -0.00463665 -0.00463868 -0.00464223 -0.0046473 -0.0046539 -0.00466203 -0.00467168 -0.00468285 -0.00469555 -0.00470804 -0.00471857 -0.00472716 -0.00473379 -0.00473847 -0.00474121 -0.00474199 -0.00474082 -0.00473528 -0.00472295 -0.00470383 -0.00467792 -0.00464523 -0.00460574 -0.00455947 -0.00450641 -0.00444533 -0.00437499 -0.00429541 -0.00420658 -0.00410849 -0.00400116 -0.00388457 -0.00375873 -0.00362489 -0.00348429 -0.00333693 -0.00318281 -0.00302193 -0.00285429 -0.00267989 -0.00249873 -0.00231197 -0.00212077 -0.00192513 -0.00172505 -0.00152052 -0.00131155 -0.00109814 -0.000880291 -0.000673973 -0.000495164 -0.000343864 -0.000220073 -0.000123791 -5.50182e-05 -1.37545e-05 0 0 -2.00229e-06 -8.00918e-06 -1.80206e-05 -3.20367e-05 -5.00573e-05 -7.20826e-05 -9.81124e-05 -0.000128147 -0.000163325 -0.000204788 -0.000252534 -0.000306564 -0.000366878 -0.000433476 -0.000506358 -0.000585523 -0.000671145 -0.000763394 -0.000862271 -0.000967775 -0.00107991 -0.00119867 -0.00132406 -0.00145607 -0.00159259 -0.00173149 -0.00187277 -0.00201643 -0.00216247 -0.00231089 -0.00246169 -0.00261487 -0.00276728 -0.00291576 -0.00306033 -0.00320097 -0.00333769 -0.00347048 -0.00359935 -0.0037243 -0.00384332 -0.00395441 -0.00405756 -0.00415278 -0.00424006 -0.0043194 -0.00439081 -0.00445428 -0.00451028 -0.00455923 -0.00460116 -0.00463605 -0.00466391 -0.00468474 -0.00469853 -0.00470529 -0.00470736 -0.0047071 -0.00470449 -0.00469955 -0.00469226 -0.00468263 -0.00467067 -0.00465636 -0.00464194 -0.00462964 -0.00461946 -0.0046114 -0.00460545 -0.00460163 -0.00459992 -0.00460033 -0.00460309 -0.00460844 -0.00461638 -0.00462691 -0.00464002 -0.00465573 -0.00467402 -0.00469491 -0.00471633 -0.00473624 -0.00475464 -0.00477152 -0.0047869 -0.00480077 -0.00481312 -0.00482397 -0.00483043 -0.00482964 -0.00482161 -0.00480632 -0.00478379 -0.004754 -0.00471696 -0.00467268 -0.00461959 -0.00455614 -0.00448234 -0.00439818 -0.00430367 -0.00419879 -0.00408356 -0.00395798 -0.00382329 -0.00368073 -0.00353032 -0.00337205 -0.00320592 -0.00303193 -0.00285008 -0.00266037 -0.0024641 -0.00226257 -0.00205578 -0.00184373 -0.00162642 -0.00140384 -0.00117601 -0.000942911 -0.000721916 -0.000530387 -0.000368324 -0.000235728 -0.000132597 -5.89319e-05 -1.4733e-05 0 0 -2.37427e-06 -9.49707e-06 -2.13684e-05 -3.79883e-05 -5.93567e-05 -8.54736e-05 -0.000116339 -0.000151953 -0.000193169 -0.00024084 -0.000294967 -0.000355549 -0.000422586 -0.000496079 -0.000576027 -0.00066243 -0.000755374 -0.000854942 -0.000961134 -0.00107395 -0.00119339 -0.00131946 -0.00145215 -0.00159147 -0.00173503 -0.00188047 -0.00202778 -0.00217696 -0.00232802 -0.00248095 -0.00263575 -0.00279243 -0.00294761 -0.00309792 -0.00324337 -0.00338395 -0.00351966 -0.0036505 -0.00377648 -0.00389759 -0.00401183 -0.0041172 -0.0042137 -0.00430132 -0.00438008 -0.00444996 -0.00451097 -0.00456311 -0.00460713 -0.00464377 -0.00467304 -0.00469493 -0.00470946 -0.00471661 -0.00471638 -0.00470878 -0.00469661 -0.00468268 -0.00466699 -0.00464952 -0.0046303 -0.00460931 -0.00458655 -0.00456204 -0.00453833 -0.00451801 -0.00450107 -0.00448752 -0.00447736 -0.00447059 -0.0044672 -0.0044672 -0.00447083 -0.00447833 -0.0044897 -0.00450495 -0.00452407 -0.00454706 -0.00457392 -0.00460466 -0.00463686 -0.00466814 -0.00469848 -0.00472789 -0.00475637 -0.00478392 -0.0048105