<?xml version="1.0"?> 
<VTKFile type="StructuredGrid" version="0.1"> 
<StructuredGrid WholeExtent="0 128 0 128 0 0"> 
<Piece Extent="0 128 0 128 0 0"> 
<PointData>
<DataArray type="Float32" Name="u" format="ascii" NumberOfComponents="1"> 
0 0 0 0 0 0 0 0 0 0 0 0 0 0 0 0 0 0 0 0 0 0 0 0 0 0 0 0 0 0 0 0 0 0 0 0 0 0 0 0 0 0 0 0 0 0 0 0 0 0 0 0 0 0 0 0 0 0 0 0 0 0 0 0 0 0 0 0 0 0 0 0 0 0 0 0 0 0 0 0 0 0 0 0 0 0 0 0 0 0 0 0 0 0 0 0 0 0 0 0 0 0 0 0 0 0 0 0 0 0 0 0 0 0 0 0 0 0 0 0 0 0 0 0 0 0 0 0 0 0 4.11264e-08 1.64506e-07 3.70137e-07 6.58022e-07 1.02816e-06 1.48055e-06 2.01519e-06 2.63209e-06 3.29749e-06 3.97766e-06 4.67259e-06 5.38228e-06 6.10674e-06 6.84596e-06 7.59995e-06 8.36869e-06 9.15263e-06 9.95219e-06 1.07674e-05 1.15982e-05 1.24446e-05 1.33066e-05 1.41842e-05 1.50775e-05 1.59809e-05 1.68891e-05 1.7802e-05 1.87197e-05 1.96421e-05 2.05692e-05 2.15011e-05 2.24377e-05 2.33734e-05 2.43025e-05 2.5225e-05 2.61409e-05 2.70501e-05 2.79528e-05 2.88489e-05 2.97384e-05 3.06156e-05 3.1475e-05 3.23165e-05 3.31402e-05 3.39459e-05 3.47338e-05 3.55038e-05 3.6256e-05 3.6985e-05 3.76856e-05 3.83578e-05 3.90017e-05 3.96171e-05 4.02042e-05 4.07628e-05 4.12931e-05 4.17907e-05 4.22511e-05 4.26745e-05 4.30609e-05 4.34101e-05 4.37223e-05 4.39974e-05 4.42355e-05 4.44337e-05 4.45893e-05 4.47023e-05 4.47727e-05 4.48005e-05 4.47856e-05 4.47282e-05 4.46281e-05 4.44849e-05 4.42978e-05 4.4067e-05 4.37925e-05 4.34741e-05 4.3112e-05 4.27061e-05 4.22565e-05 4.17651e-05 4.12341e-05 4.06635e-05 4.00532e-05 3.94033e-05 3.87138e-05 3.79846e-05 3.72158e-05 3.64123e-05 3.5579e-05 3.47161e-05 3.38233e-05 3.29009e-05 3.19487e-05 3.09667e-05 2.9955e-05 2.89213e-05 2.78735e-05 2.68115e-05 2.57354e-05 2.4645e-05 2.35405e-05 2.24219e-05 2.1289e-05 2.01522e-05 1.90214e-05 1.78968e-05 1.67783e-05 1.56658e-05 1.45595e-05 1.34594e-05 1.23653e-05 1.128e-05 1.0206e-05 9.14336e-06 8.0921e-06 7.05219e-06 6.02364e-06 5.00645e-06 4.00062e-06 3.06297e-06 2.25035e-06 1.56274e-06 1.00015e-06 5.62587e-07 2.50039e-07 6.25097e-08 0 0 1.64506e-07 6.58022e-07 1.48055e-06 2.63209e-06 4.11264e-06 5.9222e-06 8.06077e-06 1.05284e-05 1.319e-05 1.59106e-05 1.86904e-05 2.15291e-05 2.4427e-05 2.73839e-05 3.03998e-05 3.34748e-05 3.66105e-05 3.98088e-05 4.30694e-05 4.63926e-05 4.97782e-05 5.32263e-05 5.67369e-05 6.031e-05 6.39237e-05 6.75564e-05 7.12081e-05 7.48788e-05 7.85683e-05 8.22769e-05 8.60044e-05 8.97509e-05 9.34936e-05 9.72099e-05 0.0001009 0.000104563 0.000108201 0.000111811 0.000115396 0.000118954 0.000122463 0.0001259 0.000129266 0.000132561 0.000135784 0.000138935 0.000142015 0.000145024 0.00014794 0.000150742 0.000153431 0.000156007 0.000158468 0.000160817 0.000163051 0.000165172 0.000167163 0.000169005 0.000170698 0.000172243 0.000173641 0.000174889 0.00017599 0.000176942 0.000177735 0.000178357 0.000178809 0.000179091 0.000179202 0.000179142 0.000178913 0.000178512 0.000177939 0.000177191 0.000176268 0.00017517 0.000173897 0.000172448 0.000170825 0.000169026 0.00016706 0.000164936 0.000162654 0.000160213 0.000157613 0.000154855 0.000151938 0.000148863 0.000145649 0.000142316 0.000138864 0.000135293 0.000131603 0.000127795 0.000123867 0.00011982 0.000115685 0.000111494 0.000107246 0.000102941 9.85802e-05 9.41622e-05 8.96875e-05 8.51561e-05 8.06087e-05 7.60857e-05 7.15871e-05 6.7113e-05 6.26634e-05 5.82382e-05 5.38375e-05 4.94612e-05 4.51198e-05 4.08239e-05 3.65734e-05 3.23684e-05 2.82088e-05 2.40946e-05 2.00258e-05 1.60025e-05 1.22519e-05 9.00139e-06 6.25097e-06 4.00062e-06 2.25035e-06 1.00015e-06 2.50039e-07 0 0 3.70137e-07 1.48055e-06 3.33124e-06 5.9222e-06 9.25344e-06 1.33249e-05 1.81367e-05 2.36888e-05 2.96774e-05 3.57989e-05 4.20533e-05 4.84406e-05 5.49607e-05 6.16137e-05 6.83995e-05 7.53182e-05 8.23737e-05 8.95697e-05 9.69063e-05 0.000104383 0.000112001 0.000119759 0.000127658 0.000135697 0.000143828 0.000152002 0.000160218 0.000168477 0.000176779 0.000185123 0.00019351 0.000201939 0.000210361 0.000218722 0.000227025 0.000235268 0.000243451 0.000251575 0.00025964 0.000267646 0.000275541 0.000283275 0.000290849 0.000298261 0.000305513 0.000312604 0.000319534 0.000326304 0.000332865 0.00033917 0.00034522 0.000351015 0.000356554 0.000361838 0.000366866 0.000371638 0.000376116 0.00038026 0.000384071 0.000387548 0.000390691 0.000393501 0.000395977 0.000398119 0.000399903 0.000401304 0.000402321 0.000402954 0.000403204 0.000403071 0.000402554 0.000401653 0.000400364 0.000398681 0.000396603 0.000394132 0.000391267 0.000388008 0.000384355 0.000380308 0.000375886 0.000371107 0.000365971 0.000360479 0.00035463 0.000348424 0.000341861 0.000334942 0.000327711 0.000320211 0.000312445 0.00030441 0.000296108 0.000287538 0.0002787 0.000269595 0.000260292 0.000250862 0.000241304 0.000231618 0.000221805 0.000211865 0.000201797 0.000191601 0.00018137 0.000171193 0.000161071 0.000151004 0.000140993 0.000131036 0.000121134 0.000111288 0.00010152 9.18538e-05 8.22902e-05 7.28289e-05 6.34697e-05 5.42128e-05 4.50581e-05 3.60056e-05 2.75668e-05 2.02531e-05 1.40647e-05 9.00139e-06 5.06328e-06 2.25035e-06 5.62587e-07 0 0 6.58022e-07 2.63209e-06 5.9222e-06 1.05284e-05 1.64506e-05 2.36888e-05 3.22431e-05 4.21134e-05 5.27599e-05 6.36426e-05 7.47614e-05 8.61165e-05 9.77079e-05 0.000109535 0.000121599 0.000133899 0.000146442 0.000159235 0.000172278 0.00018557 0.000199113 0.000212905 0.000226948 0.00024124 0.000255695 0.000270226 0.000284832 0.000299515 0.000314273 0.000329108 0.000344018 0.000359003 0.000373974 0.00038884 0.0004036 0.000418254 0.000432802 0.000447245 0.000461583 0.000475814 0.00048985 0.0005036 0.000517065 0.000530243 0.000543135 0.000555741 0.000568061 0.000580096 0.00059176 0.00060297 0.000613725 0.000624027 0.000633874 0.000643267 0.000652205 0.00066069 0.000668651 0.000676018 0.000682793 0.000688974 0.000694562 0.000699557 0.000703959 0.000707768 0.000710939 0.000713429 0.000715237 0.000716363 0.000716807 0.00071657 0.000715651 0.00071405 0.000711758 0.000708765 0.000705073 0.00070068 0.000695586 0.000689792 0.000683298 0.000676104 0.000668242 0.000659746 0.000650616 0.000640851 0.000630453 0.00061942 0.000607754 0.000595453 0.000582597 0.000569265 0.000555457 0.000541173 0.000526414 0.000511178 0.000495467 0.00047928 0.000462742 0.000445976 0.000428985 0.000411766 0.000394321 0.000376649 0.00035875 0.000340625 0.000322435 0.000304343 0.000286348 0.000268452 0.000250654 0.000232953 0.00021535 0.000197845 0.000180479 0.000163296 0.000146294 0.000129474 0.000112835 9.63783e-05 8.01033e-05 6.40099e-05 4.90076e-05 3.60056e-05 2.50039e-05 1.60025e-05 9.00139e-06 4.00062e-06 1.00015e-06 0 0 1.02816e-06 4.11264e-06 9.25344e-06 1.64506e-05 2.5704e-05 3.70137e-05 5.03798e-05 6.58022e-05 8.24373e-05 9.94415e-05 0.000116815 0.000134557 0.000152669 0.000171149 0.000189999 0.000209217 0.000228816 0.000248805 0.000269184 0.000289954 0.000311114 0.000332665 0.000354606 0.000376937 0.000399523 0.000422228 0.000445051 0.000467992 0.000491052 0.000514231 0.000537527 0.000560943 0.000584335 0.000607562 0.000630624 0.000653521 0.000676254 0.000698821 0.000721223 0.00074346 0.000765391 0.000786876 0.000807913 0.000828504 0.000848648 0.000868345 0.000887596 0.000906399 0.000924625 0.00094214 0.000958946 0.000975042 0.000990428 0.0010051 0.00101907 0.00103233 0.00104477 0.00105628 0.00106686 0.00107652 0.00108525 0.00109306 0.00109994 0.00110589 0.00111084 0.00111473 0.00111756 0.00111932 0.00112001 0.00111964 0.0011182 0.0011157 0.00111212 0.00110745 0.00110168 0.00109481 0.00108685 0.0010778 0.00106765 0.00105641 0.00104413 0.00103085 0.00101659 0.00100133 0.000985083 0.000967844 0.000949615 0.000930395 0.000910307 0.000889476 0.000867902 0.000845583 0.000822522 0.000798716 0.000774167 0.000748875 0.000723034 0.000696838 0.000670288 0.000643384 0.000616126 0.000588514 0.000560547 0.000532226 0.000503804 0.000475535 0.00044742 0.000419456 0.000391646 0.000363989 0.000336484 0.000309132 0.000281999 0.00025515 0.000228584 0.000202302 0.000176305 0.000150591 0.000125161 0.000100015 7.65744e-05 5.62587e-05 3.90686e-05 2.50039e-05 1.40647e-05 6.25097e-06 1.56274e-06 0 0 1.48055e-06 5.9222e-06 1.33249e-05 2.36888e-05 3.70137e-05 5.32998e-05 7.25469e-05 9.47552e-05 0.00011871 0.000143196 0.000168213 0.000193762 0.000219843 0.000246455 0.000273598 0.000301273 0.000329495 0.000358279 0.000387625 0.000417533 0.000448004 0.000479037 0.000510632 0.00054279 0.000575314 0.000608008 0.000640873 0.000673909 0.000707115 0.000740492 0.00077404 0.000807758 0.000841442 0.000874889 0.000908099 0.000941071 0.000973805 0.0010063 0.00103856 0.00107058 0.00110216 0.0011331 0.0011634 0.00119305 0.00122205 0.00125042 0.00127814 0.00130521 0.00133146 0.00135668 0.00138088 0.00140406 0.00142622 0.00144735 0.00146746 0.00148655 0.00150446 0.00152104 0.00153628 0.00155019 0.00156276 0.001574 0.00158391 0.00159248 0.00159961 0.00160522 0.00160928 0.00161182 0.00161282 0.00161228 0.00161021 0.00160661 0.00160145 0.00159472 0.00158641 0.00157653 0.00156507 0.00155203 0.00153742 0.00152123 0.00150354 0.00148443 0.00146389 0.00144192 0.00141852 0.0013937 0.00136745 0.00133977 0.00131084 0.00128085 0.00124978 0.00121764 0.00118443 0.00115015 0.0011148 0.00107838 0.00104117 0.00100345 0.000965215 0.000926473 0.000887222 0.00084746 0.000807188 0.000766405 0.000725478 0.000684771 0.000644284 0.000604017 0.00056397 0.000524144 0.000484537 0.000445151 0.000406079 0.000367415 0.000329161 0.000291316 0.000253879 0.000216851 0.000180232 0.000144022 0.000110267 8.10126e-05 5.62587e-05 3.60056e-05 2.02531e-05 9.00139e-06 2.25035e-06 0 0 2.01519e-06 8.06077e-06 1.81367e-05 3.22431e-05 5.03798e-05 7.25469e-05 9.87445e-05 0.000128972 0.000161577 0.000194905 0.000228957 0.000263732 0.00029923 0.000335452 0.000372397 0.000410066 0.000448479 0.000487657 0.000527601 0.000568309 0.000609783 0.000652023 0.000695027 0.000738797 0.000783066 0.000827566 0.000872299 0.000917265 0.000962462 0.00100789 0.00105355 0.00109945 0.0011453 0.00119082 0.00123602 0.0012809 0.00132546 0.00136969 0.0014136 0.00145718 0.00150017 0.00154228 0.00158351 0.00162387 0.00166335 0.00170196 0.00173969 0.00177654 0.00181226 0.00184659 0.00187953 0.00191108 0.00194124 0.00197 0.00199738 0.00202336 0.00204774 0.00207031 0.00209105 0.00210998 0.0021271 0.00214239 0.00215587 0.00216754 0.00217725 0.00218488 0.00219041 0.00219386 0.00219522 0.0021945 0.00219168 0.00218678 0.00217976 0.00217059 0.00215929 0.00214583 0.00213023 0.00211249 0.0020926 0.00207057 0.00204649 0.00202047 0.00199251 0.00196261 0.00193076 0.00189697 0.00186125 0.00182357 0.0017842 0.00174337 0.00170109 0.00165734 0.00161214 0.00156548 0.00151737 0.0014678 0.00141715 0.0013658 0.00131377 0.00126103 0.00120761 0.00115349 0.00109867 0.00104316 0.000987456 0.00093205 0.000876942 0.000822135 0.000767626 0.000713418 0.000659509 0.000605899 0.000552718 0.000500093 0.000448025 0.000396513 0.000345557 0.000295159 0.000245316 0.00019603 0.000150086 0.000110267 7.65744e-05 4.90076e-05 2.75668e-05 1.22519e-05 3.06297e-06 0 0 2.63209e-06 1.05284e-05 2.36888e-05 4.21134e-05 6.58022e-05 9.47552e-05 0.000128972 0.000168454 0.00021104 0.00025457 0.000299046 0.000344466 0.000390831 0.000438142 0.000486397 0.000535596 0.000585768 0.00063694 0.000689111 0.000742282 0.000796452 0.000851622 0.000907791 0.000964959 0.00102278 0.0010809 0.00113933 0.00119806 0.00125709 0.00131643 0.00137607 0.00143601 0.0014959 0.00155536 0.0016144 0.00167301 0.00173121 0.00178898 0.00184633 0.00190326 0.0019594 0.0020144 0.00206826 0.00212097 0.00217254 0.00222296 0.00227224 0.00232038 0.00236704 0.00241188 0.0024549 0.00249611 0.0025355 0.00257307 0.00260882 0.00264276 0.0026746 0.00270407 0.00273117 0.0027559 0.00277825 0.00279823 0.00281584 0.00283107 0.00284376 0.00285372 0.00286095 0.00286545 0.00286723 0.00286628 0.0028626 0.0028562 0.00284703 0.00283506 0.00282029 0.00280272 0.00278234 0.00275917 0.00273319 0.00270441 0.00267297 0.00263898 0.00260246 0.00256341 0.00252181 0.00247768 0.00243101 0.00238181 0.00233039 0.00227706 0.00222183 0.00216469 0.00210566 0.00204471 0.00198187 0.00191712 0.00185097 0.00178391 0.00171594 0.00164706 0.00157728 0.00150659 0.001435 0.0013625 0.00128974 0.00121737 0.00114539 0.00107381 0.00100261 0.000931811 0.000861399 0.000791379 0.000721917 0.000653183 0.000585175 0.000517894 0.00045134 0.000385513 0.000320413 0.00025604 0.00019603 0.000144022 0.000100015 6.40099e-05 3.60056e-05 1.60025e-05 4.00062e-06 0 0 3.29678e-06 1.31871e-05 2.9671e-05 5.27484e-05 8.24194e-05 0.000118684 0.000161542 0.000210994 0.000264332 0.000318849 0.000374545 0.00043142 0.000489474 0.000548708 0.00060912 0.000670711 0.000733517 0.000797572 0.000862876 0.000929429 0.000997231 0.00106628 0.00113658 0.00120813 0.0012805 0.00135324 0.00142636 0.00149986 0.00157374 0.00164799 0.00172262 0.00179764 0.00187257 0.00194698 0.00202086 0.00209421 0.00216702 0.00223931 0.00231107 0.0023823 0.00245255 0.00252137 0.00258876 0.00265471 0.00271923 0.00278232 0.00284398 0.00290421 0.00296258 0.00301868 0.00307251 0.00312406 0.00317334 0.00322034 0.00326507 0.00330753 0.00334736 0.00338423 0.00341813 0.00344906 0.00347702 0.00350201 0.00352403 0.00354308 0.00355895 0.0035714 0.00358044 0.00358606 0.00358828 0.00358708 0.00358247 0.00357445 0.00356297 0.00354799 0.0035295 0.0035075 0.003482 0.003453 0.00342049 0.00338447 0.00334512 0.00330259 0.00325689 0.00320802 0.00315597 0.00310075 0.00304235 0.00298078 0.00291643 0.00284971 0.0027806 0.00270911 0.00263523 0.00255898 0.00248034 0.00239933 0.00231655 0.00223264 0.00214759 0.00206141 0.0019741 0.00188565 0.00179606 0.00170534 0.00161429 0.00152374 0.00143367 0.00134409 0.001255 0.0011664 0.00107828 0.000990653 0.000903722 0.000817697 0.000732578 0.000648363 0.000565055 0.000482651 0.000401153 0.00032056 0.000245429 0.000180315 0.000125219 8.01401e-05 4.50788e-05 2.0035e-05 5.00875e-06 0 0 3.9748e-06 1.58992e-05 3.57732e-05 6.35967e-05 9.93699e-05 0.000143093 0.000194765 0.000254387 0.000318688 0.000384399 0.000451519 0.000520048 0.000589987 0.000661335 0.000734092 0.000808258 0.000883879 0.000960997 0.00103961 0.00111973 0.00120134 0.00128446 0.00136907 0.00145518 0.00154226 0.0016298 0.00171778 0.00180622 0.00189511 0.00198446 0.00207425 0.0021645 0.00225465 0.00234416 0.00243303 0.00252127 0.00260886 0.00269582 0.00278214 0.00286781 0.00295231 0.00303508 0.00311613 0.00319545 0.00327305 0.00334893 0.00342308 0.0034955 0.0035657 0.00363316 0.00369789 0.00375987 0.00381913 0.00387564 0.00392942 0.00398046 0.00402835 0.00407267 0.00411342 0.00415059 0.0041842 0.00421423 0.00424069 0.00426358 0.00428264 0.00429759 0.00430843 0.00431517 0.00431781 0.00431635 0.00431078 0.00430111 0.00428727 0.00426923 0.00424697 0.00422049 0.0041898 0.00415489 0.00411577 0.00407244 0.00402509 0.00397392 0.00391894 0.00386014 0.00379753 0.0037311 0.00366085 0.00358679 0.00350938 0.00342912 0.00334599 0.00326 0.00317114 0.00307942 0.00298483 0.00288738 0.00278782 0.00268689 0.00258459 0.00248093 0.0023759 0.0022695 0.00216174 0.00205261 0.00194309 0.00183416 0.0017258 0.00161803 0.00151085 0.00140424 0.00129822 0.00119278 0.00108818 0.000984649 0.000882198 0.000780824 0.000680527 0.000581308 0.000483166 0.000386102 0.000295609 0.000217182 0.000150821 9.65255e-05 5.42956e-05 2.41314e-05 6.03284e-06 0 0 4.66615e-06 1.86646e-05 4.19953e-05 7.46584e-05 0.000116654 0.000167981 0.000228641 0.000298633 0.00037411 0.000451221 0.000529968 0.000610351 0.000692369 0.000776023 0.000861312 0.000948237 0.00103685 0.00112722 0.00121933 0.00131318 0.00140879 0.00150614 0.00160524 0.00170609 0.00180807 0.00191057 0.0020136 0.00211715 0.00222123 0.00232583 0.00243095 0.00253659 0.00264213 0.0027469 0.00285093 0.00295421 0.00305673 0.0031585 0.00325952 0.00335979 0.00345867 0.00355553 0.00365037 0.00374319 0.00383399 0.00392277 0.00400952 0.00409426 0.00417639 0.00425531 0.00433103 0.00440354 0.00447285 0.00453896 0.00460186 0.00466156 0.00471756 0.00476939 0.00481704 0.0048605 0.00489979 0.0049349 0.00496582 0.00499257 0.00501483 0.00503228 0.00504493 0.00505278 0.00505583 0.00505408 0.00504752 0.00503616 0.00501994 0.00499879 0.0049727 0.00494169 0.00490574 0.00486486 0.00481905 0.00476831 0.00471287 0.00465297 0.00458861 0.00451978 0.00444649 0.00436873 0.00428651 0.00419983 0.00410924 0.0040153 0.00391801 0.00381736 0.00371337 0.00360603 0.00349534 0.00338129 0.00326477 0.00314665 0.00302693 0.00290561 0.00278269 0.00265817 0.00253204 0.00240432 0.00227613 0.00214862 0.00202179 0.00189563 0.00177015 0.00164535 0.00152122 0.00139777 0.00127529 0.00115404 0.00103404 0.000915275 0.000797758 0.000681484 0.000566453 0.000452665 0.000346572 0.000254624 0.000176822 0.000113166 6.3656e-05 2.82916e-05 7.07289e-06 0 0 5.37083e-06 2.14833e-05 4.83375e-05 8.59333e-05 0.000134271 0.00019335 0.000263171 0.000343733 0.000430595 0.000519315 0.000609893 0.000702328 0.000796621 0.000892772 0.000990781 0.00109065 0.00119244 0.00129623 0.00140201 0.00150979 0.00161957 0.00173134 0.00184511 0.00196087 0.00207792 0.00219557 0.00231382 0.00243265 0.00255208 0.00267211 0.00279272 0.00291393 0.003035 0.00315521 0.00327455 0.00339302 0.00351062 0.00362735 0.00374322 0.00385822 0.00397163 0.00408271 0.00419148 0.00429792 0.00440204 0.00450385 0.00460333 0.00470049 0.00479465 0.00488513 0.00497194 0.00505507 0.00513452 0.00521029 0.00528239 0.00535081 0.005415 0.00547439 0.00552899 0.00557879 0.00562379 0.00566401 0.00569942 0.00573004 0.00575551 0.00577548 0.00578994 0.00579889 0.00580233 0.00580027 0.0057927 0.00577963 0.00576097 0.00573666 0.0057067 0.00567109 0.00562982 0.0055829 0.00553032 0.00547209 0.00540848 0.00533975 0.0052659 0.00518694 0.00510285 0.00501366 0.00491934 0.00481991 0.00471599 0.00460824 0.00449665 0.00438121 0.00426193 0.00413881 0.00401185 0.00388105 0.00374741 0.00361194 0.00347462 0.00333546 0.00319447 0.00305164 0.00290697 0.00276046 0.00261342 0.00246714 0.00232163 0.00217689 0.00203292 0.00188972 0.00174729 0.00160562 0.00146504 0.00132587 0.00118809 0.00105172 0.000916747 0.000783179 0.000651013 0.000520249 0.000398316 0.00029264 0.000203222 0.000130062 7.316e-05 3.25156e-05 8.12889e-06 0 0 6.08884e-06 2.43554e-05 5.47996e-05 9.74215e-05 0.000152221 0.000219198 0.000298353 0.000389686 0.000488145 0.000588681 0.000691292 0.00079598 0.000902743 0.00101158 0.0011225 0.00123549 0.00135064 0.00146804 0.00158767 0.00170956 0.00183368 0.00196005 0.00208866 0.00221952 0.00235182 0.00248479 0.00261842 0.00275272 0.00288767 0.00302329 0.00315957 0.00329651 0.00343328 0.00356907 0.00370388 0.0038377 0.00397053 0.00410238 0.00423325 0.00436312 0.00449119 0.00461664 0.00473946 0.00485965 0.00497722 0.00509217 0.00520448 0.00531418 0.00542048 0.00552262 0.00562061 0.00571445 0.00580413 0.00588965 0.00597102 0.00604823 0.00612066 0.00618767 0.00624927 0.00630545 0.00635621 0.00640156 0.00644149 0.00647601 0.0065047 0.00652719 0.00654345 0.00655349 0.00655732 0.00655493 0.00654632 0.00653149 0.00651037 0.00648286 0.00644897 0.0064087 0.00636204 0.006309 0.00624958 0.00618378 0.0061119 0.00603425 0.00595082 0.00586161 0.00576662 0.00566587 0.00555933 0.00544702 0.00532965 0.00520795 0.00508191 0.00495153 0.00481682 0.00467777 0.00453439 0.00438667 0.00423574 0.00408273 0.00392765 0.00377048 0.00361124 0.00344991 0.00328651 0.00312103 0.00295494 0.00278971 0.00262533 0.00246182 0.00229916 0.00213736 0.00197641 0.00181633 0.00165745 0.00150013 0.00134436 0.00119015 0.00103749 0.000886392 0.000736846 0.000588855 0.000450842 0.000331231 0.000230021 0.000147214 8.28077e-05 3.68034e-05 9.20086e-06 0 0 6.82019e-06 2.72808e-05 6.13817e-05 0.000109123 0.000170505 0.000245527 0.000334189 0.000436492 0.00054676 0.000659319 0.000774167 0.000891306 0.00101074 0.00113245 0.00125646 0.00138276 0.00151145 0.00164264 0.00177631 0.00191247 0.00205113 0.00219227 0.00233591 0.00248203 0.00262977 0.00277823 0.00292743 0.00307735 0.003228 0.00337938 0.00353148 0.00368432 0.00383696 0.0039885 0.00413893 0.00428826 0.00443648 0.00458359 0.00472959 0.00487449 0.00501736 0.0051573 0.00529431 0.00542838 0.00555952 0.00568773 0.005813 0.00593533 0.00605388 0.00616779 0.00627706 0.00638169 0.00648168 0.00657703 0.00666774 0.00675381 0.00683455 0.00690923 0.00697788 0.00704048 0.00709704 0.00714755 0.00719203 0.00723046 0.00726239 0.0072874 0.00730546 0.0073166 0.00732079 0.00731805 0.00730838 0.00729176 0.00726813 0.00723737 0.0071995 0.00715451 0.0071024 0.00704318 0.00697684 0.00690338 0.00682315 0.00673647 0.00664335 0.0065438 0.0064378 0.00632536 0.00620648 0.00608117 0.00595021 0.00581442 0.0056738 0.00552833 0.00537804 0.0052229 0.00506294 0.00489813 0.00472975 0.00455904 0.00438602 0.00421067 0.00403299 0.003853 0.00367068 0.00348604 0.00330071 0.00311632 0.00293289 0.0027504 0.00256885 0.00238825 0.0022086 0.00202989 0.00185251 0.00167683 0.00150285 0.00133058 0.00116 0.000991125 0.000823953 0.000658481 0.00050415 0.000370396 0.000257219 0.00016462 9.2599e-05 4.11551e-05 1.02888e-05 0 0 7.56487e-06 3.02595e-05 6.80838e-05 0.000121038 0.000189122 0.000272335 0.000370678 0.000484151 0.00060644 0.000731228 0.000858517 0.000988307 0.0011206 0.00125539 0.00139268 0.00153247 0.00167488 0.00182003 0.00196792 0.00211854 0.0022719 0.002428 0.00258684 0.00274842 0.00291176 0.0030759 0.00324083 0.00340655 0.00357306 0.00374037 0.00390847 0.00407737 0.00424604 0.00441349 0.00457971 0.00474469 0.00490844 0.00507096 0.00523225 0.00539231 0.00555013 0.00570471 0.00585603 0.00600411 0.00614894 0.00629053 0.00642886 0.00656395 0.00669485 0.00682062 0.00694127 0.00705678 0.00716717 0.00727243 0.00737256 0.00746756 0.00755666 0.00763908 0.00771482 0.00778389 0.00784628 0.00790199 0.00795103 0.00799339 0.00802858 0.00805611 0.00807599 0.0080882 0.00809275 0.00808964 0.00807887 0.00806044 0.00803425 0.0080002 0.00795829 0.00790853 0.00785091 0.00778543 0.00771209 0.00763089 0.00754221 0.00744641 0.00734351 0.0072335 0.00711638 0.00699215 0.0068608 0.00672235 0.00657768 0.00642766 0.00627231 0.00611161 0.00594558 0.00577421 0.0055975 0.00541545 0.00522944 0.00504087 0.00484973 0.00465602 0.00445973 0.00426088 0.00405946 0.00385547 0.00365072 0.00344699 0.0032443 0.00304264 0.00284201 0.00264241 0.00244385 0.00224632 0.00205022 0.00185597 0.00166356 0.00147299 0.00128426 0.00109738 0.000912333 0.000729129 0.00055824 0.000410135 0.000284816 0.000182282 0.000102534 4.55706e-05 1.13926e-05 0 0 8.32288e-06 3.32915e-05 7.49059e-05 0.000133166 0.000208072 0.000299624 0.000407821 0.000532664 0.000667183 0.00080441 0.000944342 0.00108698 0.00123233 0.00138038 0.00153114 0.00168461 0.00184092 0.00200022 0.0021625 0.00232776 0.00249601 0.00266725 0.00284147 0.00301867 0.0031978 0.00337778 0.00355862 0.00374031 0.00392286 0.00410627 0.00429054 0.00447566 0.00466053 0.00484404 0.0050262 0.00520699 0.00538643 0.00556451 0.00574124 0.0059166 0.00608951 0.00625885 0.00642463 0.00658684 0.00674548 0.00690056 0.00705208 0.00720003 0.00734339 0.00748113 0.00761324 0.00773973 0.0078606 0.00797584 0.00808546 0.00818946 0.00828699 0.0083772 0.0084601 0.00853567 0.00860393 0.00866488 0.00871851 0.00876482 0.00880327 0.00883334 0.00885501 0.0088683 0.00887319 0.00886969 0.0088578 0.00883752 0.00880874 0.00877135 0.00872536 0.00867076 0.00860755 0.00853574 0.00845532 0.0083663 0.00826908 0.00816408 0.00805129 0.00793072 0.00780236 0.00766621 0.00752229 0.00737057 0.00721204 0.00704766 0.00687744 0.00670137 0.00651945 0.00633169 0.00613808 0.00593862 0.00573483 0.00552821 0.00531878 0.00510653 0.00489147 0.00467358 0.00445287 0.00422934 0.00400497 0.00378171 0.00355956 0.00333854 0.00311863 0.00289983 0.00268216 0.0024656 0.00225059 0.00203755 0.00182649 0.0016174 0.00141029 0.00120515 0.00100199 0.000800799 0.000613111 0.000450449 0.000312812 0.0002002 0.000112612 5.00499e-05 1.25125e-05 0 0 9.09396e-06 3.63758e-05 8.18456e-05 0.000145503 0.000227349 0.000327382 0.000445604 0.000582013 0.000728972 0.000878841 0.00103162 0.00118731 0.00134591 0.00150743 0.00167185 0.00183918 0.00200959 0.00218322 0.00236009 0.00254019 0.00272352 0.00291008 0.00309987 0.00329289 0.00348799 0.00368401 0.00388094 0.0040788 0.00427757 0.00447726 0.00467786 0.00487939 0.00508063 0.00528038 0.00547865 0.00567542 0.00587071 0.00606451 0.00625683 0.00644766 0.00663579 0.00682005 0.00700041 0.0071769 0.00734949 0.0075182 0.00768302 0.00784395 0.00799988 0.00814969 0.00829338 0.00843094 0.00856238 0.00868769 0.00880688 0.00891995 0.00902597 0.00912404 0.00921413 0.00929627 0.00937044 0.00943665 0.00949489 0.00954518 0.00958691 0.00961952 0.009643 0.00965734 0.00966256 0.00965865 0.00964561 0.00962344 0.00959203 0.00955125 0.00950112 0.00944162 0.00937277 0.00929455 0.00920697 0.00911004 0.00900419 0.00888987 0.00876708 0.00863583 0.00849612 0.00834794 0.00819129 0.00802617 0.00785364 0.00767476 0.00748951 0.0072979 0.00709994 0.00689561 0.00668493 0.00646788 0.00624612 0.00602129 0.00579338 0.0055624 0.00532835 0.00509123 0.00485103 0.00460776 0.00436356 0.00412055 0.00387875 0.00363814 0.00339874 0.00316054 0.00292354 0.00268773 0.00245358 0.00222154 0.0019916 0.00176376 0.00153803 0.0013144 0.00109288 0.000873461 0.000668743 0.000491322 0.000341196 0.000218365 0.00012283 5.45913e-05 1.36478e-05 0 0 9.87785e-06 3.95114e-05 8.89007e-05 0.000158046 0.000246946 0.000355603 0.000484015 0.000632183 0.000791785 0.000954502 0.00112033 0.00128928 0.00146134 0.00163651 0.0018148 0.0019962 0.0021809 0.00236908 0.00256073 0.00275587 0.00295448 0.00315657 0.00336214 0.00357118 0.00378246 0.00399471 0.00420794 0.00442215 0.00463734 0.0048535 0.00507064 0.00528876 0.00550656 0.00572274 0.0059373 0.00615023 0.00636155 0.00657124 0.00677931 0.00698576 0.0071893 0.00738862 0.00758373 0.00777462 0.00796131 0.00814378 0.00832203 0.00849608 0.0086647 0.0088267 0.00898206 0.0091308 0.0092729 0.00940838 0.00953722 0.00965944 0.00977403 0.00988001 0.00997737 0.0100661 0.0101462 0.0102177 0.0102806 0.0103349 0.0103799 0.0104151 0.0104404 0.0104558 0.0104613 0.010457 0.0104428 0.0104187 0.0103846 0.0103404 0.010286 0.0102216 0.010147 0.0100623 0.00996745 0.0098625 0.00974792 0.00962418 0.00949128 0.00934923 0.00919803 0.00903767 0.00886816 0.0086895 0.00850282 0.00830926 0.00810882 0.00790151 0.00768732 0.00746625 0.0072383 0.00700348 0.00676355 0.0065203 0.00627371 0.00602379 0.00577055 0.00551398 0.00525407 0.00499084 0.00472658 0.00446361 0.00420192 0.00394151 0.00368239 0.00342455 0.00316799 0.00291271 0.00265919 0.00240791 0.00215886 0.00191204 0.00166745 0.0014251 0.00118498 0.000947088 0.000725114 0.000532737 0.000369956 0.000236772 0.000133184 5.9193e-05 1.47982e-05 0 0 1.06746e-05 4.26982e-05 9.6071e-05 0.000170793 0.000266864 0.000384284 0.000523053 0.000683172 0.000855623 0.00103139 0.00121048 0.00139288 0.0015786 0.00176764 0.00195999 0.00215566 0.00235486 0.00255778 0.00276442 0.00297479 0.00318889 0.00340671 0.00362826 0.00385354 0.0040812 0.00430989 0.00453961 0.00477038 0.00500218 0.00523501 0.00546888 0.00570379 0.00593833 0.00617112 0.00640215 0.00663142 0.00685894 0.00708469 0.00730869 0.00753093 0.00775002 0.00796456 0.00817456 0.00838002 0.00858093 0.0087773 0.00896913 0.00915641 0.00933785 0.00951214 0.0096793 0.00983931 0.00999218 0.0101379 0.0102765 0.0104079 0.0105312 0.0106451 0.0107498 0.0108452 0.0109313 0.0110082 0.0110757 0.011134 0.0111824 0.0112201 0.0112472 0.0112636 0.0112695 0.0112647 0.0112492 0.0112232 0.0111864 0.0111387 0.0110801 0.0110106 0.0109302 0.0108389 0.0107368 0.0106237 0.0105003 0.010367 0.0102239 0.0100709 0.0099081 0.00973543 0.00955292 0.00936055 0.00915956 0.00895117 0.00873538 0.00851219 0.0082816 0.00804361 0.00779821 0.00754542 0.00728713 0.00702525 0.00675978 0.00649072 0.00621807 0.00594183 0.005662 0.00537858 0.00509404 0.00481088 0.00452907 0.00424864 0.00396956 0.00369186 0.00341552 0.00314054 0.00286742 0.00259667 0.00232827 0.00206223 0.00179856 0.00153724 0.00127828 0.00102168 0.000782224 0.000574695 0.000399094 0.00025542 0.000143674 6.3855e-05 1.59637e-05 0 0 1.14841e-05 4.59363e-05 0.000103357 0.000183745 0.000287102 0.000413427 0.00056272 0.000734981 0.000920486 0.00110951 0.00130206 0.00149812 0.0016977 0.00190081 0.00210743 0.00231757 0.00253146 0.00274932 0.00297116 0.00319697 0.00342676 0.00366052 0.00389825 0.00413996 0.0043842 0.00462954 0.00487596 0.00512348 0.00537209 0.00562178 0.00587258 0.00612446 0.00637594 0.00662552 0.0068732 0.00711899 0.00736288 0.00760487 0.00784496 0.00808315 0.00831796 0.00854788 0.00877293 0.00899309 0.00920837 0.00941878 0.0096243 0.00982495 0.0100193 0.010206 0.0103851 0.0105565 0.0107202 0.0108763 0.0110247 0.0111654 0.0112974 0.0114194 0.0115314 0.0116336 0.0117257 0.0118079 0.0118802 0.0119425 0.0119942 0.0120345 0.0120634 0.0120809 0.012087 0.0120817 0.012065 0.012037 0.0119974 0.0119462 0.0118832 0.0118087 0.0117224 0.0116245 0.0115149 0.0113936 0.0112613 0.0111184 0.0109649 0.0108009 0.0106263 0.0104412 0.0102455 0.0100393 0.00982388 0.0096005 0.00936919 0.00912995 0.00888278 0.00862768 0.00836465 0.0080937 0.00781685 0.00753614 0.00725158 0.00696317 0.0066709 0.00637478 0.00607481 0.00577098 0.00546594 0.00516235 0.00486021 0.00455952 0.00426027 0.00396247 0.00366612 0.00337121 0.00307827 0.00278781 0.00249984 0.00221435 0.00193134 0.00165082 0.00137279 0.00109724 0.000840072 0.000617196 0.000428608 0.000274309 0.000154299 6.85773e-05 1.71443e-05 0 0 1.23064e-05 4.92257e-05 0.000110758 0.000196903 0.00030766 0.000443031 0.000603015 0.000787611 0.000986374 0.00118886 0.00139507 0.00160499 0.00181864 0.00203601 0.00225711 0.00248192 0.0027107 0.00294371 0.00318095 0.0034224 0.00366808 0.00391798 0.0041721 0.00443045 0.00469148 0.00495366 0.00521698 0.00548145 0.00574706 0.00601382 0.00628173 0.00655078 0.00681938 0.00708594 0.00735046 0.00761294 0.00787337 0.00813177 0.00838812 0.00864243 0.00889311 0.00913857 0.00937881 0.00961383 0.00984362 0.0100682 0.0102876 0.0105017 0.0107091 0.0109084 0.0110994 0.0112823 0.011457 0.0116235 0.0117818 0.0119319 0.0120727 0.0122028 0.0123223 0.0124311 0.0125294 0.012617 0.012694 0.0127604 0.0128154 0.0128583 0.012889 0.0129075 0.0129139 0.0129081 0.0128902 0.0128601 0.0128177 0.0127629 0.0126956 0.0126158 0.0125236 0.0