<?xml version="1.0"?> 
<VTKFile type="StructuredGrid" version="0.1"> 
<StructuredGrid WholeExtent="0 128 0 128 0 0"> 
<Piece Extent="0 128 0 128 0 0"> 
<PointData>
<DataArray type="Float32" Name="u" format="ascii" NumberOfComponents="1"> 
0 0 0 0 0 0 0 0 0 0 0 0 0 0 0 0 0 0 0 0 0 0 0 0 0 0 0 0 0 0 0 0 0 0 0 0 0 0 0 0 0 0 0 0 0 0 0 0 0 0 0 0 0 0 0 0 0 0 0 0 0 0 0 0 0 0 0 0 0 0 0 0 0 0 0 0 0 0 0 0 0 0 0 0 0 0 0 0 0 0 0 0 0 0 0 0 0 0 0 0 0 0 0 0 0 0 0 0 0 0 0 0 0 0 0 0 0 0 0 0 0 0 0 0 0 0 0 0 0 0 4.54734e-08 1.81894e-07 4.0926e-07 7.27574e-07 1.13683e-06 1.63704e-06 2.2282e-06 2.9103e-06 3.64496e-06 4.39379e-06 5.1568e-06 5.93398e-06 6.72533e-06 7.53086e-06 8.35056e-06 9.18443e-06 1.00324e-05 1.08945e-05 1.17706e-05 1.26607e-05 1.35649e-05 1.44832e-05 1.54155e-05 1.63619e-05 1.7316e-05 1.82717e-05 1.92289e-05 2.01877e-05 2.11479e-05 2.21097e-05 2.3073e-05 2.40378e-05 2.49981e-05 2.59478e-05 2.6887e-05 2.78157e-05 2.87339e-05 2.96415e-05 3.05386e-05 3.14252e-05 3.22957e-05 3.31446e-05 3.3972e-05 3.47777e-05 3.55619e-05 3.63245e-05 3.70655e-05 3.7785e-05 3.84781e-05 3.91401e-05 3.9771e-05 4.03709e-05 4.09397e-05 4.14773e-05 4.19839e-05 4.24595e-05 4.29003e-05 4.33029e-05 4.36672e-05 4.39933e-05 4.42812e-05 4.45307e-05 4.47421e-05 4.49152e-05 4.50481e-05 4.51388e-05 4.51875e-05 4.5194e-05 4.51584e-05 4.50806e-05 4.49607e-05 4.47987e-05 4.45946e-05 4.43487e-05 4.4061e-05 4.37313e-05 4.33598e-05 4.29464e-05 4.24912e-05 4.19941e-05 4.14576e-05 4.08843e-05 4.02741e-05 3.96271e-05 3.89433e-05 3.82227e-05 3.74651e-05 3.66708e-05 3.58446e-05 3.49917e-05 3.4112e-05 3.32056e-05 3.22724e-05 3.13124e-05 3.03256e-05 2.93121e-05 2.82794e-05 2.72348e-05 2.61786e-05 2.51105e-05 2.40307e-05 2.29392e-05 2.18359e-05 2.07209e-05 1.96037e-05 1.84939e-05 1.73914e-05 1.62963e-05 1.52086e-05 1.41283e-05 1.30553e-05 1.19897e-05 1.09337e-05 9.88946e-06 8.85698e-06 7.83626e-06 6.82732e-06 5.83013e-06 4.84472e-06 3.87107e-06 2.96379e-06 2.17748e-06 1.51214e-06 9.67767e-07 5.44369e-07 2.41942e-07 6.04854e-08 0 0 1.81894e-07 7.27574e-07 1.63704e-06 2.9103e-06 4.54734e-06 6.54817e-06 8.91278e-06 1.16412e-05 1.45798e-05 1.75752e-05 2.06272e-05 2.37359e-05 2.69013e-05 3.01234e-05 3.34022e-05 3.67377e-05 4.01297e-05 4.35778e-05 4.70822e-05 5.06428e-05 5.42597e-05 5.79327e-05 6.1662e-05 6.54475e-05 6.92642e-05 7.30869e-05 7.69157e-05 8.07506e-05 8.45916e-05 8.84387e-05 9.22918e-05 9.6151e-05 9.99922e-05 0.000103791 0.000107548 0.000111263 0.000114936 0.000118566 0.000122154 0.000125701 0.000129183 0.000132578 0.000135888 0.000139111 0.000142248 0.000145298 0.000148262 0.00015114 0.000153912 0.00015656 0.000159084 0.000161484 0.000163759 0.000165909 0.000167936 0.000169838 0.000171601 0.000173212 0.000174669 0.000175973 0.000177125 0.000178123 0.000178968 0.000179661 0.000180192 0.000180555 0.00018075 0.000180776 0.000180633 0.000180322 0.000179843 0.000179195 0.000178379 0.000177395 0.000176244 0.000174925 0.000173439 0.000171786 0.000169965 0.000167976 0.00016583 0.000163537 0.000161097 0.000158509 0.000155773 0.000152891 0.000149861 0.000146683 0.000143379 0.000139967 0.000136448 0.000132822 0.00012909 0.00012525 0.000121303 0.000117249 0.000113117 0.000108939 0.000104714 0.000100442 9.6123e-05 9.17569e-05 8.73438e-05 8.28837e-05 7.84148e-05 7.39754e-05 6.95656e-05 6.51852e-05 6.08344e-05 5.6513e-05 5.22212e-05 4.79589e-05 4.37348e-05 3.95578e-05 3.54279e-05 3.13451e-05 2.73093e-05 2.33205e-05 1.93789e-05 1.54843e-05 1.18551e-05 8.7099e-06 6.04854e-06 3.87107e-06 2.17748e-06 9.67767e-07 2.41942e-07 0 0 4.0926e-07 1.63704e-06 3.68334e-06 6.54817e-06 1.02315e-05 1.47334e-05 2.00538e-05 2.61927e-05 3.28046e-05 3.95441e-05 4.64112e-05 5.34058e-05 6.0528e-05 6.77777e-05 7.5155e-05 8.26599e-05 9.02917e-05 9.80501e-05 0.000105935 0.000113946 0.000122084 0.000130349 0.00013874 0.000147257 0.000155844 0.000164446 0.00017306 0.000181689 0.000190331 0.000198987 0.000207657 0.00021634 0.000224982 0.00023353 0.000241983 0.000250342 0.000258605 0.000266774 0.000274848 0.000282827 0.000290661 0.000298302 0.000305748 0.000312999 0.000320057 0.000326921 0.00033359 0.000340065 0.000346303 0.000352261 0.000357939 0.000363338 0.000368457 0.000373296 0.000377855 0.000382135 0.000386103 0.000389726 0.000393005 0.00039594 0.00039853 0.000400777 0.000402679 0.000404237 0.000405433 0.00040625 0.000406687 0.000406746 0.000406425 0.000405725 0.000404646 0.000403188 0.000401352 0.000399139 0.000396549 0.000393582 0.000390238 0.000386518 0.000382421 0.000377947 0.000373118 0.000367959 0.000362467 0.000356644 0.00035049 0.000344004 0.000337186 0.000330037 0.000322602 0.000314926 0.000307008 0.00029885 0.000290451 0.000281812 0.000272931 0.000263809 0.000254514 0.000245113 0.000235607 0.000225995 0.000216277 0.000206453 0.000196523 0.000186488 0.000176433 0.000166445 0.000156523 0.000146667 0.000136877 0.000127154 0.000117498 0.000107907 9.84033e-05 8.90051e-05 7.97128e-05 7.05264e-05 6.14458e-05 5.24712e-05 4.36025e-05 3.48396e-05 2.66741e-05 1.95973e-05 1.36092e-05 8.7099e-06 4.89932e-06 2.17748e-06 5.44369e-07 0 0 7.27574e-07 2.9103e-06 6.54817e-06 1.16412e-05 1.81894e-05 2.61927e-05 3.56511e-05 4.65647e-05 5.83193e-05 7.03006e-05 8.25088e-05 9.49436e-05 0.000107605 0.000120494 0.000133609 0.000146951 0.000160519 0.000174311 0.000188329 0.000202571 0.000217039 0.000231731 0.000246648 0.00026179 0.000277057 0.000292348 0.000307663 0.000323003 0.000338366 0.000353755 0.000369167 0.000384604 0.000399969 0.000415165 0.000430193 0.000445052 0.000459742 0.000474264 0.000488618 0.000502803 0.000516731 0.000530314 0.000543551 0.000556443 0.00056899 0.000581192 0.000593048 0.00060456 0.000615649 0.000626242 0.000636337 0.000645934 0.000655035 0.000663638 0.000671743 0.000679351 0.000686405 0.000692846 0.000698676 0.000703893 0.000708498 0.000712492 0.000715873 0.000718643 0.000720769 0.000722222 0.000723 0.000723104 0.000722534 0.000721289 0.000719371 0.000716779 0.000713514 0.00070958 0.000704975 0.000699701 0.000693757 0.000687143 0.000679859 0.000671905 0.000663322 0.000654149 0.000644386 0.000634034 0.000623093 0.000611562 0.000599442 0.000586733 0.000573514 0.000559868 0.000545793 0.000531289 0.000516358 0.000500998 0.00048521 0.000468994 0.00045247 0.000435757 0.000418857 0.000401768 0.000384492 0.000367028 0.000349375 0.000331535 0.000313659 0.000295902 0.000278262 0.000260741 0.000243337 0.000226052 0.000208885 0.000191835 0.000174939 0.000158231 0.000141712 0.00012538 0.000109237 9.32821e-05 7.75155e-05 6.19371e-05 4.74206e-05 3.48396e-05 2.41942e-05 1.54843e-05 8.7099e-06 3.87107e-06 9.67767e-07 0 0 1.13683e-06 4.54734e-06 1.02315e-05 1.81894e-05 2.84209e-05 4.0926e-05 5.57049e-05 7.27574e-05 9.11239e-05 0.000109845 0.00012892 0.000148349 0.000168133 0.000188271 0.000208764 0.000229611 0.00025081 0.000272361 0.000294264 0.000316518 0.000339123 0.00036208 0.000385388 0.000409047 0.000432901 0.000456793 0.000480723 0.000504691 0.000528698 0.000552742 0.000576824 0.000600944 0.000624951 0.000648695 0.000672176 0.000695394 0.000718348 0.000741038 0.000763466 0.00078563 0.000807392 0.000828615 0.000849299 0.000869443 0.000889048 0.000908113 0.000926638 0.000944624 0.000961952 0.000978503 0.000994276 0.00100927 0.00102349 0.00103693 0.0010496 0.00106149 0.00107251 0.00108257 0.00109168 0.00109983 0.00110703 0.00111327 0.00111855 0.00112288 0.0011262 0.00112847 0.00112969 0.00112985 0.00112896 0.00112701 0.00112402 0.00111997 0.00111487 0.00110872 0.00110152 0.00109328 0.001084 0.00107366 0.00106228 0.00104985 0.00103644 0.00102211 0.00100685 0.000990679 0.000973583 0.000955566 0.000936629 0.00091677 0.000896116 0.000874793 0.000852801 0.00083014 0.000806809 0.00078281 0.000758141 0.000732803 0.000706984 0.000680871 0.000654464 0.000627763 0.000600769 0.000573481 0.000545899 0.000518023 0.000490092 0.000462346 0.000434785 0.000407408 0.000380215 0.000353206 0.000326382 0.000299743 0.000273343 0.000247236 0.000221424 0.000195907 0.000170683 0.000145753 0.000121118 9.67767e-05 7.40947e-05 5.44369e-05 3.78034e-05 2.41942e-05 1.36092e-05 6.04854e-06 1.51214e-06 0 0 1.63704e-06 6.54817e-06 1.47334e-05 2.61927e-05 4.0926e-05 5.89335e-05 8.0215e-05 0.000104771 0.000131218 0.000158176 0.000185645 0.000213623 0.000242112 0.000271111 0.00030062 0.000330639 0.000361167 0.0003922 0.00042374 0.000455786 0.000488337 0.000521395 0.000554958 0.000589028 0.000623378 0.000657782 0.000692242 0.000726756 0.000761324 0.000795948 0.000830626 0.000865359 0.00089993 0.000934121 0.000967934 0.00100137 0.00103442 0.0010671 0.00109939 0.00113131 0.00116264 0.00119321 0.00122299 0.001252 0.00128023 0.00130768 0.00133436 0.00136026 0.00138521 0.00140904 0.00143176 0.00145335 0.00147383 0.00149318 0.00151142 0.00152854 0.00154441 0.0015589 0.00157202 0.00158376 0.00159412 0.00160311 0.00161072 0.00161695 0.00162173 0.001625 0.00162675 0.00162698 0.0016257 0.0016229 0.00161858 0.00161275 0.00160541 0.00159655 0.00158619 0.00157433 0.00156095 0.00154607 0.00152968 0.00151179 0.00149247 0.00147183 0.00144987 0.00142658 0.00140196 0.00137602 0.00134875 0.00132015 0.00129041 0.0012597 0.00122803 0.0011954 0.00116181 0.00112725 0.00109172 0.00105524 0.00101806 0.000980454 0.000942428 0.000903979 0.000865107 0.000825812 0.000786094 0.000745953 0.000705733 0.000665779 0.00062609 0.000586667 0.000547509 0.000508617 0.000469991 0.00043163 0.000393613 0.00035602 0.000318851 0.000282105 0.000245783 0.000209885 0.00017441 0.000139358 0.000106696 7.83891e-05 5.44369e-05 3.48396e-05 1.95973e-05 8.7099e-06 2.17748e-06 0 0 2.2282e-06 8.91278e-06 2.00538e-05 3.56511e-05 5.57049e-05 8.0215e-05 0.000109182 0.000142605 0.000178603 0.000215296 0.000252683 0.000290765 0.000329541 0.000369012 0.000409177 0.000450037 0.000491588 0.000533828 0.000576757 0.000620375 0.000664681 0.000709676 0.00075536 0.000801732 0.000848486 0.000895315 0.000942218 0.000989195 0.00103625 0.00108337 0.00113057 0.00117785 0.0012249 0.00127144 0.00131747 0.00136297 0.00140796 0.00145243 0.00149639 0.00153983 0.00158249 0.00162409 0.00166463 0.00170411 0.00174253 0.0017799 0.00181621 0.00185146 0.00188543 0.00191787 0.00194878 0.00197817 0.00200604 0.00203239 0.00205721 0.00208051 0.00210211 0.00212184 0.00213969 0.00215567 0.00216978 0.00218201 0.00219236 0.00220084 0.00220736 0.0022118 0.00221419 0.00221451 0.00221276 0.00220895 0.00220307 0.00219513 0.00218514 0.00217309 0.00215899 0.00214283 0.00212463 0.00210438 0.00208207 0.00205771 0.00203142 0.00200333 0.00197343 0.00194173 0.00190822 0.00187291 0.00183579 0.00179687 0.00175639 0.00171459 0.00167149 0.00162707 0.00158135 0.00153431 0.00148596 0.00143629 0.00138569 0.00133451 0.00128275 0.00123042 0.00117751 0.00112402 0.00106996 0.00101532 0.000960581 0.000906199 0.000852178 0.000798519 0.000745221 0.000692285 0.00063971 0.000587496 0.000535751 0.000484583 0.000433992 0.000383977 0.000334538 0.000285677 0.000237391 0.000189682 0.000145226 0.000106696 7.40947e-05 4.74206e-05 2.66741e-05 1.18551e-05 2.96379e-06 0 0 2.9103e-06 1.16412e-05 2.61927e-05 4.65647e-05 7.27574e-05 0.000104771 0.000142605 0.000186259 0.000233277 0.000281203 0.000330035 0.000379775 0.000430421 0.000481975 0.000534436 0.000587803 0.000642075 0.000697245 0.000753316 0.000810285 0.000868155 0.000926924 0.000986592 0.00104716 0.00110823 0.00116939 0.00123065 0.00129201 0.00135347 0.00141502 0.00147667 0.00153842 0.00159988 0.00166066 0.00172077 0.00178021 0.00183897 0.00189706 0.00195447 0.00201121 0.00206692 0.00212126 0.00217421 0.00222577 0.00227596 0.00232477 0.00237219 0.00241824 0.0024626 0.00250497 0.00254535 0.00258374 0.00262014 0.00265455 0.00268697 0.0027174 0.00274562 0.00277138 0.0027947 0.00281557 0.00283399 0.00284997 0.00286349 0.00287457 0.00288308 0.00288889 0.002892 0.00289241 0.00289013 0.00288516 0.00287748 0.00286711 0.00285406 0.00283832 0.0028199 0.0027988 0.00277503 0.00274857 0.00271944 0.00268762 0.00265329 0.00261659 0.00257754 0.00253614 0.00249237 0.00244625 0.00239777 0.00234693 0.00229406 0.00223947 0.00218317 0.00212516 0.00206543 0.00200399 0.00194084 0.00187598 0.00180988 0.00174303 0.00167543 0.00160707 0.00153797 0.00146811 0.0013975 0.00132614 0.00125464 0.00118361 0.00111305 0.00104296 0.00097335 0.000904208 0.000835539 0.000767342 0.000699757 0.000632925 0.000566847 0.000501521 0.000436948 0.000373129 0.000310062 0.000247748 0.000189682 0.000139358 9.67767e-05 6.19371e-05 3.48396e-05 1.54843e-05 3.87107e-06 0 0 3.64445e-06 1.45778e-05 3.28001e-05 5.83113e-05 9.11114e-05 0.0001312 0.000178578 0.000233245 0.000292122 0.000352131 0.000413271 0.000475543 0.000538947 0.000603482 0.000669148 0.000735947 0.000803873 0.000872923 0.000943097 0.0010144 0.00108682 0.00116037 0.00123504 0.00131083 0.00138725 0.00146379 0.00154044 0.00161722 0.00169412 0.00177114 0.00184829 0.00192555 0.00200245 0.0020785 0.00215372 0.00222809 0.00230161 0.00237429 0.00244612 0.00251712 0.00258682 0.0026548 0.00272105 0.00278557 0.00284836 0.00290942 0.00296876 0.00302636 0.00308186 0.00313487 0.00318538 0.00323341 0.00327895 0.003322 0.00336256 0.00340063 0.00343593 0.00346816 0.00349733 0.00352343 0.00354648 0.00356646 0.00358337 0.00359723 0.00360786 0.00361513 0.00361901 0.00361953 0.00361667 0.00361044 0.00360083 0.00358785 0.00357151 0.00355181 0.00352876 0.00350236 0.00347261 0.0034395 0.00340304 0.00336323 0.00332027 0.00327436 0.0032255 0.00317369 0.00311893 0.00306122 0.00300056 0.00293695 0.0028708 0.0028025 0.00273206 0.00265947 0.00258474 0.00250787 0.00242886 0.0023477 0.002265 0.00218136 0.00209678 0.00201125 0.00192479 0.00183738 0.00174903 0.00165974 0.00157027 0.0014814 0.00139311 0.00130541 0.0012183 0.00113178 0.00104585 0.000960512 0.000875935 0.000792296 0.000709595 0.000627832 0.000547008 0.000467121 0.000388173 0.000310163 0.000237469 0.000174467 0.000121158 7.75408e-05 4.36167e-05 1.93852e-05 4.8463e-06 0 0 4.39178e-06 1.75671e-05 3.9526e-05 7.02685e-05 0.000109795 0.000158104 0.000215197 0.000281074 0.000352018 0.000424314 0.000497962 0.000572961 0.000649312 0.000727015 0.000806069 0.000886475 0.00096823 0.00105133 0.00113579 0.00122158 0.00130873 0.00139723 0.00148707 0.00157826 0.0016702 0.00176228 0.0018545 0.00194686 0.00203937 0.00213201 0.0022248 0.00231774 0.00241023 0.00250171 0.00259217 0.00268161 0.00277004 0.00285745 0.00294385 0.00302922 0.00311305 0.0031948 0.00327447 0.00335206 0.00342756 0.00350099 0.00357234 0.00364161 0.00370834 0.00377208 0.00383282 0.00389057 0.00394532 0.00399708 0.00404585 0.00409162 0.00413405 0.00417279 0.00420786 0.00423923 0.00426693 0.00429094 0.00431127 0.00432791 0.00434068 0.0043494 0.00435406 0.00435466 0.0043512 0.00434369 0.00433212 0.0043165 0.00429683 0.00427313 0.00424539 0.00421363 0.00417784 0.00413801 0.00409415 0.00404627 0.00399459 0.00393937 0.0038806 0.00381828 0.00375242 0.00368301 0.00361005 0.00353355 0.00345399 0.00337185 0.00328713 0.00319984 0.00310996 0.00301751 0.00292249 0.00282489 0.00272543 0.00262483 0.00252311 0.00242025 0.00231626 0.00221113 0.00210487 0.00199748 0.00188987 0.00178297 0.00167677 0.00157127 0.00146649 0.0013624 0.00125903 0.00115635 0.00105459 0.000953944 0.000854416 0.000756005 0.000658712 0.000562535 0.000467476 0.000373534 0.000285987 0.000210113 0.000145912 9.33835e-05 5.25282e-05 2.33459e-05 5.83647e-06 0 0 5.15228e-06 2.06091e-05 4.63705e-05 8.24364e-05 0.000128807 0.000185482 0.000252462 0.000329746 0.000412966 0.000497753 0.000584107 0.000672029 0.000761518 0.000852574 0.000945197 0.00103939 0.00113515 0.00123248 0.00133138 0.00143185 0.00153389 0.00163751 0.0017427 0.00184945 0.00195708 0.00206486 0.00217281 0.00228092 0.00238919 0.00249762 0.00260622 0.00271498 0.00282322 0.00293027 0.00303613 0.0031408 0.00324427 0.00334655 0.00344764 0.00354753 0.00364561 0.00374126 0.00383447 0.00392524 0.00401358 0.00409949 0.00418295 0.00426399 0.00434205 0.00441661 0.00448766 0.00455521 0.00461925 0.00467979 0.00473683 0.00479035 0.00483997 0.00488528 0.00492628 0.00496297 0.00499535 0.00502342 0.00504717 0.00506662 0.00508154 0.00509171 0.00509713 0.00509781 0.00509374 0.00508493 0.00507137 0.00505306 0.00503002 0.00500226 0.00496979 0.00493261 0.00489071 0.00484409 0.00479276 0.00473671 0.00467624 0.00461161 0.00454283 0.00446991 0.00439284 0.00431162 0.00422625 0.00413673 0.00404363 0.00394752 0.00384839 0.00374625 0.00364109 0.00353292 0.00342173 0.00330753 0.00319116 0.00307345 0.00295442 0.00283406 0.00271238 0.00258936 0.00246502 0.00233935 0.00221342 0.00208831 0.00196402 0.00184055 0.0017179 0.00159607 0.00147506 0.00135486 0.00123572 0.00111787 0.00100131 0.00088604 0.00077206 0.00065937 0.00054797 0.00043786 0.000335237 0.000246296 0.000171039 0.000109465 6.15741e-05 2.73663e-05 6.84156e-06 0 0 5.92594e-06 2.37038e-05 5.33335e-05 9.48151e-05 0.000148149 0.000213334 0.000290371 0.00037926 0.000474964 0.000572447 0.000671708 0.000772746 0.000875564 0.000980159 0.00108653 0.00119468 0.00130462 0.00141635 0.00152988 0.0016452 0.00176231 0.00188121 0.00200191 0.0021244 0.00224788 0.00237154 0.00249538 0.0026194 0.0027436 0.00286798 0.00299254 0.00311728 0.00324142 0.0033642 0.0034856 0.00360563 0.00372429 0.00384158 0.0039575 0.00407204 0.00418451 0.00429417 0.00440105 0.00450513 0.00460641 0.0047049 0.00480059 0.00489349 0.00498298 0.00506845 0.0051499 0.00522733 0.00530074 0.00537013 0.0054355 0.00549685 0.00555371 0.00560563 0.00565261 0.00569465 0.00573174 0.00576389 0.00579109 0.00581336 0.00583043 0.00584205 0.00584824 0.00584898 0.00584428 0.00583414 0.00581856 0.00579753 0.00577108 0.00573923 0.00570197 0.0056593 0.00561123 0.00555775 0.00549887 0.00543458 0.00536521 0.00529109 0.00521221 0.00512857 0.00504019 0.00494704 0.00484914 0.00474649 0.00463973 0.00452951 0.00441584 0.00429871 0.00417813 0.00405409 0.00392659 0.00379564 0.00366219 0.00352722 0.00339072 0.0032527 0.00311315 0.00297208 0.00282948 0.00268535 0.00254093 0.00239744 0.00225488 0.00211325 0.00197255 0.00183278 0.00169394 0.00155604 0.00141933 0.00128408 0.00115028 0.00101794 0.000887054 0.000757626 0.000629656 0.000503142 0.000385218 0.000283017 0.00019654 0.000125786 7.07543e-05 3.14464e-05 7.86159e-06 0 0 6.71277e-06 2.68511e-05 6.0415e-05 0.000107404 0.000167819 0.00024166 0.000328926 0.000429618 0.000538014 0.000648396 0.000760762 0.000875114 0.00099145 0.00110977 0.00123008 0.00135237 0.00147666 0.00160296 0.00173128 0.00186162 0.00199397 0.00212834 0.00226472 0.00240311 0.00254262 0.00268231 0.00282221 0.0029623 0.00310259 0.00324307 0.00338375 0.00352463 0.00366483 0.00380348 0.00394057 0.00407611 0.0042101 0.00434254 0.00447342 0.00460276 0.00472973 0.00485355 0.00497421 0.00509171 0.00520605 0.00531723 0.00542526 0.00553012 0.00563114 0.00572761 0.00581955 0.00590694 0.00598979 0.0060681 0.00614187 0.00621109 0.00627526 0.00633384 0.00638684 0.00643426 0.0064761 0.00651235 0.00654303 0.00656812 0.00658735 0.00660043 0.00660737 0.00660817 0.00660282 0.00659133 0.0065737 0.00654992 0.00652002 0.00648401 0.00644191 0.0063937 0.0063394 0.00627899 0.00621248 0.00613986 0.00606152 0.0059778 0.00588872 0.00579428 0.00569446 0.00558928 0.00547874 0.00536282 0.00524228 0.00511783 0.00498948 0.00485723 0.00472107 0.00458102 0.00443706 0.0042892 0.00413853 0.00398613 0.00383201 0.00367615 0.00351858 0.00335927 0.00319825 0.00303549 0.00287239 0.00271034 0.00254932 0.00238935 0.00223042 0.00207254 0.00191569 0.00175989 0.00160541 0.00145256 0.00130132 0.0011517 0.00100369 0.000857304 0.000712533 0.00056938 0.000435931 0.000320276 0.000222414 0.000142345 8.0069e-05 3.55862e-05 8.89656e-06 0 0 7.51278e-06 3.00511e-05 6.7615e-05 0.000120204 0.000187819 0.00027046 0.000368126 0.000480818 0.000602116 0.0007256 0.000851272 0.000979131 0.00110918 0.00124141 0.00137583 0.00151243 0.00165125 0.0017923 0.00193559 0.00208112 0.00222888 0.00237888 0.00253111 0.00268559 0.00284128 0.00299718 0.0031533 0.00330963 0.00346616 0.00362291 0.00377987 0.00393704 0.00409345 0.00424812 0.00440105 0.00455225 0.00470171 0.00484944 0.00499542 0.00513967 0.00528129 0.00541938 0.00555395 0.00568499 0.0058125 0.00593649 0.00605695 0.00617388 0.00628652 0.00639409 0.00649659 0.00659402 0.00668639 0.00677369 0.00685593 0.00693309 0.00700461 0.00706991 0.00712897 0.00718181 0.00722843 0.00726881 0.00730297 0.00733091 0.0073523 0.00736685 0.00737454 0.00737538 0.00736937 0.0073565 0.00733679 0.00731022 0.00727682 0.00723663 0.00718962 0.00713582 0.00707521 0.0070078 0.00693358 0.00685256 0.00676515 0.00667176 0.00657238 0.00646702 0.00635567 0.00623834 0.00611503 0.00598574 0.00585128 0.00571246 0.0055693 0.00542179 0.00526992 0.00511371 0.00495314 0.00478823 0.00462017 0.00445019 0.00427827 0.00410443 0.00392866 0.00375095 0.00357132 0.00338976 0.00320781 0.00302702 0.00284737 0.00266888 0.00249153 0.00231534 0.0021403 0.00196641 0.00179398 0.00162332 0.00145443 0.00128732 0.00112197 0.000958402 0.000796602 0.000636573 0.000487376 0.000358072 0.000248661 0.000159143 8.95181e-05 3.97858e-05 9.94645e-06 0 0 8.32595e-06 3.33038e-05 7.49335e-05 0.000133215 0.000208149 0.000299734 0.000407971 0.000532861 0.000667268 0.00080406 0.000943236 0.0010848 0.00122874 0.00137507 0.00152379 0.00167489 0.0018284 0.00198438 0.00214281 0.0023037 0.00246704 0.00263285 0.0028011 0.00297182 0.00314387 0.00331615 0.00348865 0.00366137 0.00383432 0.00400749 0.00418089 0.00435451 0.00452728 0.00469812 0.00486704 0.00503404 0.00519911 0.00536226 0.00552349 0.00568279 0.00583918 0.00599167 0.00614027 0.00628496 0.00642576 0.00656266 0.00669566 0.00682477 0.00694912 0.00706788 0.00718103 0.00728859 0.00739055 0.00748692 0.00757768 0.00766285 0.00774178 0.00781383 0.007879 0.0079373 0.00798872 0.00803327 0.00807093 0.00810172 0.00812529 0.0081413 0.00814973 0.0081506 0.00814391 0.00812965 0.00810782 0.00807843 0.0080415 0.00799706 0.00794511 0.00788564 0.00781867 0.00774418 0.00766219 0.00757268 0.00747612 0.00737295 0.00726317 0.00714679 0.00702381 0.00689422 0.00675803 0.00661523 0.00646673 0.00631342 0.00615531 0.0059924 0.00582468 0.00565216 0.00547484 0.00529271 0.00510712 0.00491939 0.00472952 0.00453752 0.00434339 0.00414712 0.00394871 0.00374817 0.00354719 0.00334747 0.00314901 0.00295181 0.00275587 0.00256119 0.00236776 0.00217559 0.00198502 0.00179636 0.00160962 0.0014248 0.0012419 0.00106092 0.000881862 0.000704722 0.000539553 0.000396406 0.000275282 0.00017618 9.91015e-05 4.40451e-05 1.10113e-05 0 0 9.15229e-06 3.66091e-05 8.23706e-05 0.000146437 0.000228807 0.000329482 0.000448462 0.000585746 0.000733472 0.000883775 0.00103666 0.00119211 0.00135015 0.00151076 0.00167395 0.00183972 0.00200812 0.00217919 0.00235293 0.00252936 0.00270846 0.00289023 0.00307468 0.00326181 0.00345039 0.00363921 0.00382826 0.00401754 0.00420706 0.00439682 0.00458681 0.00477703 0.00496631 0.00515348 0.00533854 0.00552148 0.00570231 0.00588102 0.00605762 0.00623211 0.0064034 0.00657042 0.00673317 0.00689164 0.00704583 0.00719576 0.0073414 0.00748278 0.00761895 0.00774898 0.00787288 0.00799064 0.00810228 0.00820777 0.00830713 0.00840036 0.00848675 0.00856561 0.00863694 0.00870073 0.00875699 0.00880572 0.00884691 0.00888057 0.00890632 0.00892378 0.00893296 0.00893385 0.00892645 0.00891077 0.00888681 0.00885456 0.00881405 0.00876532 0.00870836 0.00864318 0.00856978 0.00848815 0.00839829 0.00830022 0.00819441 0.00808138 0.00796111 0.00783361 0.00769888 0.00755692 0.00740772 0.0072513 0.00708863 0.0069207 0.00674751 0.00656906 0.00638535 0.00619638 0.00600215 0.00580266 0.00559937 0.00539373 0.00518575 0.00497543 0.00476277 0.00454776 0.00433041 0.00411071 0.00389053 0.00367171 0.00345425 0.00323816 0.00302344 0.00281008 0.00259808 0.00238745 0.00217853 0.00197167 0.00176688 0.00156415 0.00136347 0.00116486 0.000968314 0.000773826 0.000592461 0.000435277 0.000302276 0.000193457 0.000108819 4.83641e-05 1.2091e-05 0 0 9.99126e-06 3.9965e-05 8.99213e-05 0.00015986 0.000249781 0.000359685 0.000489572 0.00063944 0.000800684 0.000964697 0.00113148 0.00130103 0.00147334 0.00164843 0.00182628 0.0020069 0.00219035 0.0023767 0.00256594 0.00275808 0.00295311 0.00315104 0.00335186 0.00355558 0.00376087 0.0039664 0.00417218 0.0043782 0.00458446 0.00479096 0.00499771 0.00520471 0.00541067 0.00561432 0.00581567 0.00601471 0.00621144 0.00640587 0.00659799 0.0067878 0.00697413 0.00715581 0.00733283 0.0075052 0.00767291 0.00783597 0.00799438 0.00814813 0.00829621 0.00843762 0.00857236 0.00870041 0.00882179 0.00893649 0.00904452 0.00914587 0.00923979 0.0093255 0.00940303 0.00947235 0.00953348 0.00958642 0.00963116 0.0096677 0.00969564 0.00971456 0.00972448 0.00972538 0.00971727 0.00970014 0.009674 0.00963886 0.00959473 0.00954166 0.00947964 0.00940868 0.00932878 0.00923993 0.00914214 0.00903541 0.00892027 0.00879727 0.0086664 0.00852768 0.00838109 0.00822663 0.00806432 0.00789414 0.00771717 0.00753448 0.00734606 0.00715193 0.00695208 0.0067465 0.0065352 0.00631819 0.00609703 0.00587332 0.00564706 0.00541824 0.00518686 0.00495293 0.00471645 0.00447741 0.00423783 0.00399972 0.00376308 0.00352791 0.00329421 0.00306198 0.00283121 0.00260192 0.00237446 0.0021492 0.00192614 0.00170528 0.00148662 0.00127016 0.0010559 0.000843842 0.000646067 0.000474661 0.000329626 0.000210961 0.000118665 5.27401e-05 1.3185e-05 0 0 1.08423e-05 4.33693e-05 9.75809e-05 0.000173477 0.000271058 0.000390323 0.000531274 0.000693908 0.000868864 0.00104678 0.00122765 0.00141148 0.00159827 0.00178801 0.00198071 0.00217637 0.00237507 0.00257688 0.00278181 0.00298985 0.003201 0.00341527 0.00363266 0.00385316 0.00407534 0.00429778 0.00452046 0.00474339 0.00496658 0.00519001 0.0054137 0.00563764 0.00586045 0.00608075 0.00629856 0.00651385 0.00672665 0.00693694 0.00714473 0.00735002 0.00755154 0.00774801 0.00793945 0.00812584 0.0083072 0.00848352 0.0086548 0.00882104 0.00898115 0.00913403 0.00927969 0.00941812 0.00954934 0.00967333 0.00979009 0.00989963 0.0100011 0.0100938 0.0101775 0.0102524 0.0103185 0.0103756 0.0104239 0.0104634 0.0104935 0.0105139 0.0105246 0.0105255 0.0105166 0.010498 0.0104697 0.0104316 0.0103838 0.0103263 0.0102592 0.0101824 0.0100959 0.00999978 0.00989397 0.00977849 0.00965392 0.00952085 0.00937929 0.00922922 0.00907065 0.00890358 0.00872801 0.00854394 0.00835252 0.00815492 0.00795114 0.00774116 0.007525 0.00730266 0.00707412 0.00683941 0.00660021 0.00635824 0.00611351 0.00586601 0.00561573 0.00536269 0.00510688 0.0048483 0.00458912 0.00433152 0.00407549 0.00382103 0.00356815 0.00331684 0.00306711 0.00281895 0.00257274 0.00232887 0.00208734 0.00184814 0.00161128 0.00137676 0.00114458 0.000914726 0.000700337 0.000514533 0.000357315 0.000228681 0.000128633 5.71703e-05 1.42926e-05 0 0 1.17055e-05 4.68219e-05 0.000105349 0.000187288 0.000292637 0.000421397 0.000573568 0.00074915 0.000938011 0.00113002 0.00132517 0.00152347 0.00172492 0.00192952 0.00213726 0.00234814 0.00256227 0.00277974 0.00300053 0.00322467 0.00345213 0.00368293 0.00391707 0.00415454 0.00439381 0.00463333 0.00487311 0.00511314 0.00535343 0.00559397 0.00583477 0.00607582 0.00631565 0.00655278 0.0067872 0.00701892 0.00724794 0.00747425 0.00769787 0.00791877 0.00813562 0.00834703 0.00855301 0.00875357 0.0089487 0.00913839 0.00932266 0.0095015 0.00967374 0.0098382 0.00999488 0.0101438 0.0102849 0.0104183 0.0105438 0.0106616 0.0107708 0.0108704 0.0109604 0.011041 0.0111119 0.0111734 0.0112253 0.0112676 0.0113 0.0113218 0.0113332 0.0113341 0.0113245 0.0113044 0.0112738 0.0112328 0.0111813 0.0111193 0.011047 0.0109643 0.0108712 0.0107677 0.0106538 0.0105295 0.0103954 0.0102521 0.0100998 0.00993823 0.00976756 0.00958775 0.00939879 0.00920069 0.0089947 0.00878204 0.00856273 0.00833676 0.00810413 0.00786485 0.00761892 0.00736632 0.00710891 0.00684851 0.00658512 0.00631874 0.00604938 0.00577703 0.00550169 0.00522337 0.00494439 0.00466709 0.00439147 0.00411752 0.00384526 0.00357467 0.00330576 0.00303853 0.00277337 0.00251068 0.00225047 0.00199273 0.00173746 0.00148466 0.00123433 0.000986476 0.000755271 0.000554893 0.000385342 0.000246619 0.000138723 6.16548e-05 1.54137e-05 0 0 1.25807e-05 5.03229e-05 0.000113227 0.000201292 0.000314518 0.000452906 0.000616455 0.000805166 0.00100813 0.00121442 0.00142405 0.00163701 0.00185331 0.00207294 0.00229591 0.00252221 0.00275196 0.00298526 0.00322212 0.00346253 0.0037065 0.00395402 0.0042051 0.00445973 0.00471626 0.00497306 0.00523011 0.00548743 0.005745 0.00600283 0.00626091 0.00651926 0.00677628 0.0070304 0.00728161 0.00752991 0.00777531 0.0080178 0.00825738 0.00849406 0.00872637 0.00895286 0.00917353 0.00938837 0.0095974 0.00980059 0.00999797 0.0101895 0.010374 0.0105501 0.0107179 0.0108774 0.0110285 0.0111713 0.0113058 0.0114319 0.0115487 0.0116554 0.0117518 0.0118379 0.0119139 0.0119796 0.0120351 0.0120804 0.012115 0.0121383 0.0121504 0.0121512 0.0121409 0.0121193 0.0120864 0.0120424 0.0119871 0.0119207 0.0118432 0.0117545 0.0116546 0.0115437 0.0114216 0.0112883 0.0111446 0.0109911 0.0108278 0.0106547 0.0104718 0.0102791 0.0100767 0.00986441 0.00964368 0.00941583 0.00918084 0.00893872 0.00868947 0.00843309 0.00816958 0.00789893 0.00762312 0.0073441 0.00706188 0.00677644 0.0064878 0.00619595 0.00590089 0.00560262 0.00530364 0.00500644 0.00471103 0.00441739 0.00412554 0.00383547 0.00354717 0.00326066 0.00297635 0.00269464 0.00241553 0.00213903 0.00186514 0.00159385 0.00132517 0.00105909 0.000810869 0.00059574 0.000413708 0.000264773 0.000148935 6.61934e-05 1.65483e-05 0 0 1.34681e-05 5.38723e-05 0.000121213 0.000215489 0.000336702 0.00048485 0.000659935 0.000861956 0.00107921 0.00129998 0.00152427 0.00175209 0.00198343 0.00221829 0.00245667 0.00269858 0.00294413 0.00319346 0.00344657 0.00370345 0.0039641 0.00422853 0.00449674 0.00476872 0.00504271 0.00531697 0.00559149 0.00586626 0.0061413 0.00641659 0.00669214 0.00696795 0.00724234 0.00751361 0.00778177 0.00804682 0.00830875 0.00856757 0.00882328 0.00907588 0.00932381 0.00956551 0.009801 0.0100303 0.0102533 0.0104701 0.0106807 0.0108851 0.0110819 0.0112698 0.0114488 0.011619 0.0117802 0.0119325 0.0120759 0.0122104 0.012335 0.0124487 0.0125515 0.0126434 0.0127243 0.0127944 0.0128535 0.0129018 0.0129385 0.0129633 0.0129761 0.012977 0.0129658 0.0129426 0.0129075 0.0128604 0.0128013 0.0127304 0.0126475 0