<?xml version="1.0"?> 
<VTKFile type="StructuredGrid" version="0.1"> 
<StructuredGrid WholeExtent="0 128 0 128 0 0"> 
<Piece Extent="0 128 0 128 0 0"> 
<PointData>
<DataArray type="Float32" Name="u" format="ascii" NumberOfComponents="1"> 
0 0 0 0 0 0 0 0 0 0 0 0 0 0 0 0 0 0 0 0 0 0 0 0 0 0 0 0 0 0 0 0 0 0 0 0 0 0 0 0 0 0 0 0 0 0 0 0 0 0 0 0 0 0 0 0 0 0 0 0 0 0 0 0 0 0 0 0 0 0 0 0 0 0 0 0 0 0 0 0 0 0 0 0 0 0 0 0 0 0 0 0 0 0 0 0 0 0 0 0 0 0 0 0 0 0 0 0 0 0 0 0 0 0 0 0 0 0 0 0 0 0 0 0 0 0 0 0 0 0 -1.17875e-09 -4.71499e-09 -1.06087e-08 -1.88599e-08 -2.94687e-08 -4.24349e-08 -5.77586e-08 -7.54398e-08 -8.34337e-08 -6.96955e-08 -3.42253e-08 2.29771e-08 1.01911e-07 2.02578e-07 3.24976e-07 4.69107e-07 6.39479e-07 8.40602e-07 1.07247e-06 1.3351e-06 1.62847e-06 1.9526e-06 2.30747e-06 2.6931e-06 3.11049e-06 3.56066e-06 4.0436e-06 4.55932e-06 5.10781e-06 5.68909e-06 6.30313e-06 6.94996e-06 7.62505e-06 8.32389e-06 9.04648e-06 9.79282e-06 1.05629e-05 1.13568e-05 1.21744e-05 1.30157e-05 1.3872e-05 1.47345e-05 1.56032e-05 1.64781e-05 1.73592e-05 1.82465e-05 1.91399e-05 2.00396e-05 2.09347e-05 2.18145e-05 2.2679e-05 2.35282e-05 2.43622e-05 2.51808e-05 2.59842e-05 2.67723e-05 2.75352e-05 2.82632e-05 2.89561e-05 2.9614e-05 3.02369e-05 3.08248e-05 3.13777e-05 3.18956e-05 3.2372e-05 3.28005e-05 3.31812e-05 3.3514e-05 3.37989e-05 3.40359e-05 3.42251e-05 3.43664e-05 3.44583e-05 3.44992e-05 3.44893e-05 3.44285e-05 3.43167e-05 3.41541e-05 3.39406e-05 3.36761e-05 3.33643e-05 3.30087e-05 3.26092e-05 3.21658e-05 3.16786e-05 3.11476e-05 3.05727e-05 2.9954e-05 2.9299e-05 2.8615e-05 2.79023e-05 2.71606e-05 2.63901e-05 2.55908e-05 2.47626e-05 2.39055e-05 2.30293e-05 2.21436e-05 2.12485e-05 2.0344e-05 1.943e-05 1.85065e-05 1.75736e-05 1.66313e-05 1.56894e-05 1.47578e-05 1.38365e-05 1.29256e-05 1.2025e-05 1.11347e-05 1.02547e-05 9.3851e-06 8.52835e-06 7.68704e-06 6.86118e-06 6.05077e-06 5.25581e-06 4.47629e-06 3.71222e-06 2.9636e-06 2.269e-06 1.66702e-06 1.15765e-06 7.40899e-07 4.16756e-07 1.85225e-07 4.63062e-08 0 0 -4.71499e-09 -1.88599e-08 -4.24349e-08 -7.54398e-08 -1.17875e-07 -1.69739e-07 -2.31034e-07 -3.01759e-07 -3.33735e-07 -2.78782e-07 -1.36901e-07 9.19082e-08 4.07646e-07 8.10312e-07 1.29991e-06 1.87643e-06 2.55792e-06 3.36241e-06 4.2899e-06 5.34039e-06 6.51389e-06 7.81039e-06 9.22989e-06 1.07724e-05 1.2442e-05 1.42426e-05 1.61744e-05 1.82373e-05 2.04313e-05 2.27563e-05 2.52125e-05 2.77998e-05 3.05002e-05 3.32956e-05 3.61859e-05 3.91713e-05 4.22517e-05 4.5427e-05 4.86974e-05 5.20628e-05 5.5488e-05 5.89381e-05 6.24129e-05 6.59124e-05 6.94367e-05 7.29858e-05 7.65596e-05 8.01582e-05 8.37387e-05 8.72579e-05 9.0716e-05 9.4113e-05 9.74488e-05 0.000100723 0.000103937 0.000107089 0.000110141 0.000113053 0.000115824 0.000118456 0.000120948 0.000123299 0.000125511 0.000127582 0.000129488 0.000131202 0.000132725 0.000134056 0.000135196 0.000136144 0.0001369 0.000137465 0.000137833 0.000137997 0.000137957 0.000137714 0.000137267 0.000136616 0.000135762 0.000134705 0.000133457 0.000132035 0.000130437 0.000128663 0.000126715 0.00012459 0.000122291 0.000119816 0.000117196 0.00011446 0.000111609 0.000108643 0.000105561 0.000102363 9.90504e-05 9.56221e-05 9.21172e-05 8.85746e-05 8.49942e-05 8.13759e-05 7.77199e-05 7.40261e-05 7.02945e-05 6.65251e-05 6.27575e-05 5.90312e-05 5.53462e-05 5.17024e-05 4.81e-05 4.45388e-05 4.1019e-05 3.75404e-05 3.41134e-05 3.07482e-05 2.74447e-05 2.42031e-05 2.10232e-05 1.79052e-05 1.48489e-05 1.18544e-05 9.07601e-06 6.66809e-06 4.63062e-06 2.9636e-06 1.66702e-06 7.40899e-07 1.85225e-07 0 0 -1.06087e-08 -4.24349e-08 -9.54785e-08 -1.69739e-07 -2.65218e-07 -3.81914e-07 -5.19827e-07 -6.78958e-07 -7.50903e-07 -6.2726e-07 -3.08027e-07 2.06794e-07 9.17203e-07 1.8232e-06 2.92479e-06 4.22196e-06 5.75531e-06 7.56541e-06 9.65227e-06 1.20159e-05 1.46563e-05 1.75734e-05 2.07673e-05 2.42379e-05 2.79944e-05 3.20459e-05 3.63924e-05 4.10339e-05 4.59703e-05 5.12018e-05 5.67282e-05 6.25496e-05 6.86254e-05 7.4915e-05 8.14183e-05 8.81354e-05 9.50662e-05 0.000102211 0.000109569 0.000117141 0.000124848 0.000132611 0.000140429 0.000148303 0.000156233 0.000164218 0.000172259 0.000180356 0.000188412 0.00019633 0.000204111 0.000211754 0.00021926 0.000226628 0.000233858 0.000240951 0.000247817 0.000254369 0.000260605 0.000266526 0.000272132 0.000277423 0.000282399 0.00028706 0.000291348 0.000295205 0.000298631 0.000301626 0.00030419 0.000306324 0.000308026 0.000309297 0.000310124 0.000310493 0.000310404 0.000309856 0.000308851 0.000307387 0.000305465 0.000303085 0.000300279 0.000297078 0.000293482 0.000289492 0.000285108 0.000280328 0.000275155 0.000269586 0.000263691 0.000257535 0.00025112 0.000244446 0.000237511 0.000230317 0.000222863 0.00021515 0.000207264 0.000199293 0.000191237 0.000183096 0.00017487 0.000166559 0.000158163 0.000149682 0.000141204 0.00013282 0.000124529 0.00011633 0.000108225 0.000100212 9.22927e-05 8.44659e-05 7.67551e-05 6.91834e-05 6.17506e-05 5.44569e-05 4.73023e-05 4.02866e-05 3.341e-05 2.66724e-05 2.0421e-05 1.50032e-05 1.04189e-05 6.66809e-06 3.7508e-06 1.66702e-06 4.16756e-07 0 0 -1.88599e-08 -7.54398e-08 -1.69739e-07 -3.01759e-07 -4.71499e-07 -6.78958e-07 -9.24137e-07 -1.20704e-06 -1.33494e-06 -1.11513e-06 -5.47604e-07 3.67633e-07 1.63058e-06 3.24125e-06 5.19962e-06 7.50571e-06 1.02317e-05 1.34496e-05 1.71596e-05 2.13616e-05 2.60556e-05 3.12416e-05 3.69196e-05 4.30896e-05 4.97678e-05 5.69705e-05 6.46976e-05 7.29491e-05 8.1725e-05 9.10254e-05 0.00010085 0.000111199 0.000122001 0.000133182 0.000144744 0.000156685 0.000169007 0.000181708 0.00019479 0.000208251 0.000221952 0.000235752 0.000249651 0.00026365 0.000277747 0.000291943 0.000306239 0.000320633 0.000334955 0.000349032 0.000362864 0.000376452 0.000389795 0.000402894 0.000415748 0.000428357 0.000440564 0.000452211 0.000463297 0.000473824 0.00048379 0.000493197 0.000502043 0.000510329 0.000517952 0.000524809 0.000530899 0.000536224 0.000540783 0.000544575 0.000547602 0.000549862 0.000551332 0.000551988 0.000551829 0.000550856 0.000549068 0.000546466 0.000543049 0.000538818 0.000533829 0.000528138 0.000521746 0.000514653 0.000506858 0.000498362 0.000489164 0.000479264 0.000468783 0.000457841 0.000446436 0.00043457 0.000422242 0.000409453 0.000396201 0.000382488 0.000368469 0.000354298 0.000339977 0.000325504 0.00031088 0.000296104 0.000281178 0.000266101 0.00025103 0.000236125 0.000221385 0.00020681 0.0001924 0.000178155 0.000164076 0.000150162 0.000136454 0.000122993 0.000109779 9.68123e-05 8.40929e-05 7.16206e-05 5.93955e-05 4.74175e-05 3.63041e-05 2.66724e-05 1.85225e-05 1.18544e-05 6.66809e-06 2.9636e-06 7.40899e-07 0 0 -2.94687e-08 -1.17875e-07 -2.65218e-07 -4.71499e-07 -7.36716e-07 -1.06087e-06 -1.44396e-06 -1.88599e-06 -2.08584e-06 -1.74239e-06 -8.55631e-07 5.74426e-07 2.54779e-06 5.06445e-06 8.12441e-06 1.17277e-05 1.5987e-05 2.1015e-05 2.68119e-05 3.33775e-05 4.07118e-05 4.88149e-05 5.76868e-05 6.73275e-05 7.77622e-05 8.90164e-05 0.00010109 0.000113983 0.000127695 0.000142227 0.000157578 0.000173749 0.000190626 0.000208097 0.000226162 0.000244821 0.000264073 0.000283919 0.000304359 0.000325392 0.0003468 0.000368363 0.00039008 0.000411953 0.00043398 0.000456161 0.000478498 0.000500989 0.000523367 0.000545362 0.000566975 0.000588206 0.000609055 0.000629521 0.000649606 0.000669308 0.000688381 0.000706579 0.000723902 0.00074035 0.000755922 0.00077062 0.000784442 0.000797389 0.0008093 0.000820013 0.00082953 0.00083785 0.000844973 0.000850899 0.000855627 0.000859159 0.000861456 0.000862481 0.000862233 0.000860712 0.000857919 0.000853853 0.000848514 0.000841903 0.000834108 0.000825216 0.000815229 0.000804145 0.000791966 0.00077869 0.000764318 0.000748851 0.000732474 0.000715376 0.000697557 0.000679016 0.000659754 0.00063977 0.000619065 0.000597638 0.000575733 0.000553591 0.000531213 0.0005086 0.000485749 0.000462663 0.000439341 0.000415782 0.000392234 0.000368945 0.000345913 0.00032314 0.000300625 0.000278368 0.000256369 0.000234628 0.000213209 0.000192176 0.00017153 0.000151269 0.000131395 0.000111907 9.28055e-05 7.40899e-05 5.67251e-05 4.16756e-05 2.89414e-05 1.85225e-05 1.04189e-05 4.63062e-06 1.15765e-06 0 0 -4.24349e-08 -1.69739e-07 -3.81914e-07 -6.78958e-07 -1.06087e-06 -1.52766e-06 -2.07931e-06 -2.71583e-06 -3.00361e-06 -2.50904e-06 -1.23211e-06 8.27174e-07 3.66881e-06 7.2928e-06 1.16992e-05 1.68879e-05 2.30212e-05 3.02617e-05 3.86091e-05 4.80635e-05 5.8625e-05 7.02935e-05 8.3069e-05 9.69516e-05 0.000111978 0.000128184 0.00014557 0.000164135 0.000183881 0.000204807 0.000226913 0.000250199 0.000274502 0.00029966 0.000325673 0.000352542 0.000380265 0.000408843 0.000438277 0.000468565 0.000499392 0.000530443 0.000561716 0.000593212 0.000624931 0.000656872 0.000689037 0.000721424 0.000753648 0.000785321 0.000816444 0.000847017 0.000877039 0.000906511 0.000935432 0.000963803 0.000991269 0.00101747 0.00104242 0.0010661 0.00108853 0.00110969 0.0011296 0.00114824 0.00116539 0.00118082 0.00119452 0.0012065 0.00121676 0.00122529 0.0012321 0.00123719 0.0012405 0.00124197 0.00124161 0.00123943 0.0012354 0.00122955 0.00122186 0.00121234 0.00120112 0.00118831 0.00117393 0.00115797 0.00114043 0.00112131 0.00110062 0.00107834 0.00105476 0.00103014 0.00100448 0.000977783 0.000950045 0.000921269 0.000891453 0.000860599 0.000829055 0.000797171 0.000764947 0.000732383 0.000699479 0.000666235 0.000632651 0.000598726 0.000564818 0.000531281 0.000498115 0.000465322 0.0004329 0.000400849 0.000369171 0.000337864 0.000307021 0.000276734 0.000247003 0.000217828 0.000189209 0.000161146 0.00013364 0.000106689 8.16841e-05 6.00128e-05 4.16756e-05 2.66724e-05 1.50032e-05 6.66809e-06 1.66702e-06 0 0 -5.77586e-08 -2.31034e-07 -5.19827e-07 -9.24137e-07 -1.44396e-06 -2.07931e-06 -2.83017e-06 -3.69655e-06 -4.08825e-06 -3.41508e-06 -1.67704e-06 1.12588e-06 4.99366e-06 9.92632e-06 1.59238e-05 2.29862e-05 3.13345e-05 4.11895e-05 5.25513e-05 6.54198e-05 7.97952e-05 9.56773e-05 0.000113066 0.000131962 0.000152414 0.000174472 0.000198136 0.000223407 0.000250283 0.000278765 0.000308854 0.000340548 0.000373627 0.000407871 0.000443277 0.000479848 0.000517583 0.000556481 0.000596543 0.000637769 0.000679729 0.000721991 0.000764557 0.000807427 0.0008506 0.000894076 0.000937856 0.000981939 0.0010258 0.00106891 0.00111127 0.00115288 0.00119375 0.00123386 0.00127323 0.00131184 0.00134923 0.0013849 0.00141885 0.00145109 0.00148161 0.00151041 0.00153751 0.00156288 0.00158623 0.00160723 0.00162588 0.00164219 0.00165615 0.00166776 0.00167703 0.00168395 0.00168845 0.00169046 0.00168998 0.001687 0.00168152 0.00167355 0.00166309 0.00165013 0.00163485 0.00161742 0.00159785 0.00157612 0.00155225 0.00152623 0.00149806 0.00146775 0.00143565 0.00140214 0.00136721 0.00133087 0.00129312 0.00125395 0.00121337 0.00117137 0.00112844 0.00108504 0.00104118 0.000996855 0.000952069 0.00090682 0.000861108 0.000814933 0.00076878 0.000723132 0.00067799 0.000633355 0.000589225 0.000545601 0.000502482 0.00045987 0.000417889 0.000376665 0.000336198 0.000296488 0.000257535 0.000219338 0.000181899 0.000145216 0.000111181 8.16841e-05 5.67251e-05 3.63041e-05 2.0421e-05 9.07601e-06 2.269e-06 0 0 -7.54398e-08 -3.01759e-07 -6.78958e-07 -1.20704e-06 -1.88599e-06 -2.71583e-06 -3.69655e-06 -4.82814e-06 -5.33975e-06 -4.46051e-06 -2.19042e-06 1.47053e-06 6.52233e-06 1.2965e-05 2.07985e-05 3.00229e-05 4.09267e-05 5.37985e-05 6.86384e-05 8.54463e-05 0.000104222 0.000124966 0.000147678 0.000172358 0.000199071 0.000227882 0.00025879 0.000291796 0.0003269 0.000364102 0.000403401 0.000444797 0.000488003 0.000532729 0.000578975 0.000626741 0.000676026 0.000726832 0.000779158 0.000833004 0.000887809 0.000943009 0.000998606 0.0010546 0.00111099 0.00116777 0.00122495 0.00128253 0.00133982 0.00139613 0.00145146 0.00150581 0.00155918 0.00161157 0.00166299 0.00171343 0.00176226 0.00180884 0.00185319 0.0018953 0.00193516 0.00197279 0.00200817 0.00204132 0.00207181 0.00209923 0.0021236 0.0021449 0.00216313 0.0021783 0.00219041 0.00219945 0.00220533 0.00220795 0.00220732 0.00220342 0.00219627 0.00218586 0.0021722 0.00215527 0.00213532 0.00211255 0.00208699 0.00205861 0.00202743 0.00199345 0.00195665 0.00191706 0.00187513 0.00183136 0.00178575 0.00173828 0.00168897 0.00163781 0.00158481 0.00152995 0.00147388 0.00141719 0.00135991 0.00130201 0.00124352 0.00118442 0.00112471 0.0010644 0.00100412 0.000944499 0.000885538 0.000827239 0.0007696 0.000712621 0.000656303 0.000600647 0.000545814 0.000491971 0.000439116 0.000387249 0.000336372 0.000286482 0.000237582 0.00018967 0.000145216 0.000106689 7.40899e-05 4.74175e-05 2.66724e-05 1.18544e-05 2.9636e-06 0 0 -8.48124e-08 -3.3925e-07 -7.63312e-07 -1.357e-06 -2.12031e-06 -3.05325e-06 -4.15581e-06 -5.428e-06 -5.91553e-06 -4.66412e-06 -1.67379e-06 3.05549e-06 9.5237e-06 1.77308e-05 2.76769e-05 3.93619e-05 5.31471e-05 6.93936e-05 8.81015e-05 0.000109271 0.000132901 0.000158993 0.000187547 0.000218561 0.000252117 0.000288295 0.000327095 0.000368517 0.00041256 0.000459226 0.000508513 0.000560422 0.000614591 0.000670658 0.000728624 0.000788488 0.000850251 0.000913912 0.000979472 0.00104693 0.00111558 0.00118473 0.00125437 0.0013245 0.00139512 0.00146623 0.00153784 0.00160994 0.00168167 0.00175218 0.00182145 0.0018895 0.00195632 0.00202192 0.00208629 0.00214942 0.00221055 0.00226886 0.00232437 0.00237708 0.00242697 0.00247406 0.00251835 0.00255982 0.00259798 0.0026323 0.00266278 0.00268942 0.00271223 0.0027312 0.00274633 0.00275762 0.00276496 0.00276822 0.0027674 0.00276249 0.00275351 0.00274045 0.00272331 0.00270209 0.00267708 0.00264855 0.0026165 0.00258094 0.00254187 0.00249928 0.00245318 0.00240356 0.00235103 0.00229618 0.00223902 0.00217955 0.00211776 0.00205365 0.00198723 0.0019185 0.00184823 0.0017772 0.0017054 0.00163285 0.00155954 0.00148547 0.00141064 0.00133505 0.00125949 0.00118475 0.00111084 0.00103775 0.000965492 0.000894054 0.00082344 0.00075365 0.000684889 0.00061736 0.000551064 0.000486 0.000422169 0.00035957 0.000298204 0.00023807 0.000182272 0.000133914 9.29961e-05 5.95175e-05 3.34786e-05 1.48794e-05 3.71984e-06 0 0 -7.52106e-08 -3.00842e-07 -6.76895e-07 -1.20337e-06 -1.88026e-06 -2.70758e-06 -3.68532e-06 -4.81348e-06 -4.97297e-06 -3.0447e-06 9.71315e-07 7.07509e-06 1.52666e-05 2.55459e-05 3.79129e-05 5.23677e-05 6.93451e-05 8.92797e-05 0.000112172 0.000138021 0.000166827 0.000198591 0.000233312 0.00027099 0.00031172 0.000355595 0.000402615 0.000452781 0.000506091 0.000562548 0.000622149 0.000684896 0.000750352 0.000818081 0.000888085 0.000960362 0.00103491 0.00111174 0.00119083 0.0012722 0.001355 0.00143839 0.00152235 0.0016069 0.00169202 0.00177773 0.00186403 0.0019509 0.00203733 0.00212227 0.00220572 0.00228769 0.00236817 0.00244717 0.00252468 0.0026007 0.00267429 0.0027445 0.00281133 0.00287477 0.00293482 0.00299149 0.00304478 0.00309469 0.00314059 0.00318186 0.00321852 0.00325055 0.00327795 0.00330073 0.00331889 0.00333243 0.00334119 0.00334504 0.00334398 0.003338 0.0033271 0.00331129 0.00329056 0.00326492 0.0032347 0.00320024 0.00316155 0.00311862 0.00307145 0.00302005 0.00296441 0.00290453 0.00284114 0.00277495 0.00270597 0.0026342 0.00255963 0.00248227 0.00240211 0.00231916 0.00223434 0.00214861 0.00206195 0.00197436 0.00188585 0.00179642 0.00170606 0.00161478 0.00152353 0.00143326 0.00134398 0.00125568 0.00116837 0.00108204 0.000996698 0.000912338 0.000829205 0.000747543 0.00066735 0.000588627 0.000511374 0.000435591 0.000361278 0.000288434 0.000220832 0.000162244 0.00011267 7.21085e-05 4.0561e-05 1.80271e-05 4.50678e-06 0 0 -4.66342e-08 -1.86537e-07 -4.19708e-07 -7.46147e-07 -1.16585e-06 -1.67883e-06 -2.28507e-06 -2.98459e-06 -2.51208e-06 3.97748e-07 5.74489e-06 1.35293e-05 2.37511e-05 3.64102e-05 5.15066e-05 6.90403e-05 8.95206e-05 0.000113457 0.000140849 0.000171696 0.000206 0.000243759 0.000284975 0.000329646 0.000377879 0.00042978 0.00048535 0.000544587 0.000607493 0.000674067 0.000744309 0.000818219 0.000895286 0.000974999 0.00105736 0.00114236 0.00123001 0.0013203 0.00141324 0.00150883 0.00160607 0.00170398 0.00180255 0.00190179 0.0020017 0.00210227 0.00220351 0.00230542 0.00240678 0.00250639 0.00260425 0.00270036 0.00279471 0.00288731 0.00297816 0.00306726 0.0031535 0.00323576 0.00331405 0.00338837 0.00345871 0.00352508 0.00358748 0.0036459 0.00369963 0.00374793 0.00379081 0.00382827 0.0038603 0.00388691 0.0039081 0.00392386 0.00393403 0.00393843 0.00393707 0.00392993 0.00391704 0.00389837 0.00387394 0.00384375 0.00380818 0.00376765 0.00372213 0.00367165 0.00361619 0.00355576 0.00349036 0.00341998 0.00334548 0.00326768 0.00318661 0.00310224 0.00301459 0.00292366 0.00282943 0.00273192 0.00263222 0.00253143 0.00242953 0.00232654 0.00222245 0.00211727 0.00201099 0.00190361 0.00179625 0.00169003 0.00158496 0.00148103 0.00137823 0.00127658 0.00117608 0.00107671 0.000978764 0.000882519 0.000787975 0.000695131 0.000603988 0.000514546 0.000426804 0.000340763 0.000260897 0.000191679 0.00013311 8.51907e-05 4.79198e-05 2.12977e-05 5.32442e-06 0 0 9.1677e-10 3.66708e-09 8.25093e-09 1.46683e-08 2.29192e-08 3.30037e-08 4.49217e-08 5.86733e-08 1.46715e-06 5.66323e-06 1.26469e-05 2.24182e-05 3.49771e-05 5.03237e-05 6.84578e-05 8.93796e-05 0.000113674 0.000141925 0.000174133 0.000210298 0.00025042 0.000294499 0.000342535 0.000394528 0.000450594 0.000510852 0.000575299 0.000643937 0.000716765 0.000793784 0.000874993 0.000960393 0.00104939 0.00114141 0.00123644 0.00133448 0.00143554 0.00153961 0.0016467 0.0017568 0.00186878 0.0019815 0.00209497 0.00220919 0.00232414 0.00243985 0.00255629 0.00267348 0.00279003 0.00290456 0.00301705 0.00312752 0.00323595 0.00334237 0.00344675 0.0035491 0.00364816 0.00374264 0.00383254 0.00391788 0.00399864 0.00407483 0.00414644 0.00421348 0.00427511 0.00433051 0.00437967 0.0044226 0.00445928 0.00448973 0.00451395 0.00453192 0.00454346 0.00454838 0.00454665 0.0045383 0.00452332 0.00450171 0.00447346 0.00443859 0.00439753 0.00435076 0.00429826 0.00424003 0.00417609 0.00410642 0.00403102 0.0039499 0.00386403 0.00377437 0.00368092 0.00358367 0.00348264 0.00337782 0.00326921 0.00315681 0.00304187 0.00292566 0.00280816 0.00268939 0.00256934 0.00244801 0.00232541 0.00220152 0.00207764 0.00195506 0.00183377 0.00171378 0.00159508 0.00147768 0.00136158 0.00124677 0.00113356 0.00102229 0.000912937 0.000805511 0.00070001 0.000596434 0.000494782 0.000395056 0.000302465 0.000222219 0.000154319 9.8764e-05 5.55547e-05 2.4691e-05 6.17275e-06 0 0 6.74422e-08 2.69769e-07 6.0698e-07 1.07908e-06 1.68606e-06 2.42792e-06 3.30467e-06 4.3163e-06 6.9647e-06 1.27517e-05 2.16774e-05 3.37418e-05 4.89448e-05 6.72864e-05 8.87667e-05 0.000113386 0.000141804 0.000174684 0.000212024 0.000253825 0.000300086 0.000350809 0.000405992 0.000465636 0.000529866 0.000598809 0.000672463 0.00075083 0.000833908 0.000921699 0.0010142 0.00111142 0.00121268 0.00131732 0.00142534 0.00153673 0.00165151 0.00176967 0.00189121 0.00201612 0.00214314 0.00227097 0.00239962 0.00252908 0.00265936 0.00279046 0.00292237 0.0030551 0.00318709 0.00331676 0.00344412 0.00356916 0.0036919 0.00381232 0.00393043 0.00404622 0.00415827 0.00426513 0.00436681 0.0044633 0.00455461 0.00464073 0.00472166 0.00479741 0.00486704 0.0049296 0.00498509 0.00503352 0.00507489 0.0051092 0.00513644 0.00515661 0.0051695 0.00517488 0.00517275 0.0051631 0.00514595 0.00512129 0.00508911 0.00504943 0.00500274 0.00494957 0.00488991 0.00482376 0.00475113 0.00467201 0.0045864 0.0044943 0.00439681 0.00429501 0.0041889 0.00407849 0.00396378 0.00384476 0.00372143 0.0035938 0.00346328 0.00333129 0.00319784 0.00306291 0.00292652 0.00278865 0.00264932 0.00250852 0.00236771 0.00222834 0.00209042 0.00195395 0.00181892 0.00168534 0.0015532 0.00142251 0.00129361 0.00116685 0.00104224 0.000919768 0.000799441 0.000681256 0.000565213 0.000451313 0.000345537 0.000253864 0.000176294 0.000112828 6.3466e-05 2.82071e-05 7.05177e-06 0 0 1.52942e-07 6.11769e-07 1.37648e-06 2.44708e-06 3.82356e-06 5.50592e-06 7.49417e-06 9.7883e-06 1.39806e-05 2.16633e-05 3.28364e-05 4.75e-05 6.56539e-05 8.72983e-05 0.000112433 0.000141058 0.000173912 0.000211733 0.000254522 0.000302277 0.000355 0.00041269 0.000475347 0.000542971 0.000615695 0.000693652 0.000776842 0.000865265 0.000958922 0.00105781 0.00116193 0.00127129 0.00138513 0.00150272 0.00162404 0.00174911 0.00187792 0.00201047 0.00214676 0.00228679 0.00242914 0.00257237 0.00271648 0.00286147 0.00300735 0.00315411 0.00330175 0.00345028 0.00359794 0.003743 0.00388545 0.0040253 0.00416254 0.00429717 0.0044292 0.00455863 0.00468384 0.00480325 0.00491685 0.00502464 0.00512662 0.00522279 0.00531315 0.0053977 0.00547539 0.00554518 0.00560707 0.00566105 0.00570713 0.0057453 0.00577557 0.00579793 0.00581214 0.00581794 0.00581534 0.00580434 0.00578493 0.00575711 0.0057209 0.00567627 0.00562381 0.00556409 0.0054971 0.00542285 0.00534133 0.00525254 0.00515649 0.00505317 0.0049438 0.0048296 0.00471057 0.0045867 0.004458 0.00432447 0.00418611 0.00404291 0.00389646 0.00374834 0.00359855 0.0034471 0.00329398 0.00313919 0.00298274 0.00282462 0.00266646 0.00250989 0.00235491 0.00220153 0.00204974 0.00189954 0.00175094 0.00160393 0.00145889 0.00131621 0.00117588 0.0010379 0.000902279 0.000769011 0.000638096 0.000509535 0.000390113 0.000286614 0.000199037 0.000127384 7.16534e-05 3.1846e-05 7.96149e-06 0 0 2.57417e-07 1.02967e-06 2.31675e-06 4.11867e-06 6.43542e-06 9.26701e-06 1.26134e-05 1.64747e-05 2.25148e-05 3.23979e-05 4.61239e-05 6.36928e-05 8.51046e-05 0.000110359 0.000139457 0.000172398 0.000209998 0.000253074 0.000301627 0.000355655 0.00041516 0.000480141 0.000550598 0.000626532 0.00070808 0.000795381 0.000888436 0.000987244 0.00109181 0.00120212 0.00131819 0.00144001 0.00156676 0.00169761 0.00183256 0.00197161 0.00211476 0.00226201 0.00241336 0.00256881 0.00272679 0.0028857 0.00304556 0.00320636 0.00336811 0.0035308 0.00369443 0.003859 0.00402259 0.00418328 0.00434105 0.00449592 0.00464788 0.00479693 0.00494307 0.00508631 0.00522487 0.00535698 0.00548265 0.00560188 0.00571466 0.005821 0.00592089 0.00601434 0.00610019 0.00617728 0.00624561 0.00630518 0.00635599 0.00639805 0.00643134 0.00645588 0.00647138 0.00647757 0.00647444 0.006462 0.00644025 0.00640919 0.00636881 0.00631912 0.00626075 0.00619432 0.00611983 0.00603728 0.00594668 0.00584801 0.00574129 0.00562651 0.00550502 0.00537815 0.00524592 0.0051083 0.00496532 0.00481696 0.00466323 0.00450412 0.0043414 0.00417679 0.00401032 0.00384196 0.00367173 0.00349963 0.00332565 0.0031498 0.00297387 0.00279969 0.00262724 0.00245652 0.00228755 0.00212031 0.0019548 0.00179104 0.00162942 0.00147036 0.00131386 0.00115991 0.00100853 0.0008597 0.000713432 0.000569722 0.000436193 0.000320469 0.000222548 0.00014243 8.01171e-05 3.56076e-05 8.90191e-06 0 0 3.80866e-07 1.52346e-06 3.42779e-06 6.09385e-06 9.52165e-06 1.37112e-05 1.86624e-05 2.43754e-05 3.25674e-05 4.49555e-05 6.15398e-05 8.23203e-05 0.000107297 0.00013647 0.000169839 0.000207404 0.000250061 0.000298706 0.000353339 0.000413959 0.000480568 0.000553164 0.000631747 0.000716319 0.000807021 0.000903996 0.00100724 0.00111677 0.00123256 0.00135463 0.00148297 0.00161758 0.00175756 0.001902 0.00205089 0.00220423 0.00236204 0.0025243 0.00269101 0.00286218 0.00303608 0.00321097 0.00338686 0.00356375 0.00374164 0.00392052 0.0041004 0.00428128 0.00446104 0.00463759 0.00481092 0.00498103 0.00514792 0.00531159 0.00547204 0.00562927 0.00578135 0.00592634 0.00606423 0.00619504 0.00631875 0.00643537 0.0065449 0.00664734 0.00674142 0.00682588 0.00690071 0.00696591 0.00702148 0.00706743 0.00710376 0.00713045 0.00714722 0.00715375 0.00715004 0.0071361 0.00711192 0.00707751 0.00703286 0.00697798 0.00691355 0.00684025 0.00675809 0.00666707 0.00656718 0.00645843 0.00634081 0.00621433 0.00608046 0.00594066 0.00579494 0.00564329 0.00548572 0.00532222 0.0051528 0.00497746 0.0047981 0.00461666 0.00443312 0.00424749 0.00405977 0.00386996 0.00367806 0.00348407 0.00328997 0.00309775 0.0029074 0.00271893 0.00253234 0.00234763 0.00216479 0.00198383 0.00180519 0.0016293 0.00145617 0.0012858 0.00111818 0.000953322 0.000791219 0.000631873 0.000483778 0.000355428 0.000246825 0.000157968 8.88571e-05 3.94921e-05 9.87301e-06 0 0 5.26322e-07 2.10529e-06 4.7369e-06 8.42115e-06 1.3158e-05 1.89476e-05 2.57898e-05 3.36846e-05 4.43812e-05 5.96288e-05 7.94273e-05 0.000103777 0.000132677 0.000166128 0.000204131 0.000246684 0.000294764 0.000349347 0.000410433 0.000478022 0.000552114 0.000632709 0.000719807 0.000813408 0.000913657 0.0010207 0.00113453 0.00125516 0.00138258 0.00151679 0.00165779 0.00180559 0.00195919 0.00211759 0.00228081 0.00244883 0.00262166 0.0027993 0.00298174 0.003169 0.00335918 0.0035504 0.00374267 0.00393598 0.00413034 0.00432574 0.00452219 0.00471967 0.00491592 0.00510862 0.00529778 0.0054834 0.00566547 0.00584401 0.00601901 0.00619046 0.00635627 0.00651433 0.00666463 0.00680718 0.00694198 0.00706903 0.00718833 0.00729988 0.00740229 0.00749419 0.00757559 0.00764647 0.00770684 0.0077567 0.00779605 0.00782489 0.00784288 0.0078497 0.00784534 0.00782981 0.0078031 0.00776522 0.00771616 0.00765592 0.00758526 0.0075049 0.00741486 0.00731513 0.00720572 0.00708662 0.00695783 0.00681936 0.00667279 0.00651974 0.00636019 0.00619416 0.00602163 0.00584261 0.00565711 0.00546511 0.0052687 0.00506998 0.00486894 0.00466559 0.00445991 0.00425192 0.00404161 0.00382899 0.00361621 0.00340544 0.0031967 0.00298996 0.00278525 0.00258254 0.00238185 0.00218318 0.00198699 0.00179375 0.00160346 0.00141612 0.00123173 0.00105029 0.000871798 0.000696258 0.000533073 0.000391645 0.000271976 0.000174065 9.79113e-05 4.35162e-05 1.0879e-05 0 0 6.96817e-07 2.78727e-06 6.27135e-06 1.11491e-05 1.74204e-05 2.50854e-05 3.4144e-05 4.45963e-05 5.81993e-05 7.67104e-05 0.000100129 0.000128456 0.000161692 0.000199835 0.000242886 0.000290845 0.000344769 0.000405716 0.000473686 0.000548678 0.000630693 0.00071973 0.000815791 0.000918873 0.00102912 0.00114669 0.00127156 0.00140375 0.00154325 0.00169006 0.00184418 0.00200562 0.00217329 0.00234611 0.0025241 0.00270723 0.00289553 0.00308898 0.00328759 0.00349135 0.00369824 0.0039062 0.00411525 0.00432539 0.0045366 0.00474891 0.00496229 0.00517676 0.00538983 0.00559902 0.00580434 0.00600579 0.00620336 0.00639705 0.00658687 0.00677281 0.0069526 0.00712397 0.0072869 0.0074414 0.00758747 0.00772512 0.00785433 0.00797512 0.00808598 0.00818543 0.00827346 0.00835008 0.00841529 0.00846908 0.00851145 0.00854241 0.00856159 0.00856864 0.00856355 0.00854632 0.00851696 0.00847545 0.00842181 0.00835604 0.00827893 0.00819129 0.00809312 0.00798442 0.00786519 0.00773543 0.00759514 0.00744432 0.0072847 0.007118 0.00694424 0.00676339 0.00657548 0.00638049 0.00617842 0.00596928 0.00575533 0.00553882 0.00531976 0.00509814 0.00487396 0.00464723 0.00441795 0.00418611 0.00395406 0.00372417 0.00349642 0.00327083 0.00304739 0.0028261 0.00260696 0.00238996 0.00217562 0.00196441 0.00175635 0.00155143 0.00134965 0.00115101 0.000955507 0.000763149 0.000584286 0.000429271 0.000298105 0.000190787 0.000107318 4.76968e-05 1.19242e-05 0 0 8.9235e-07 3.5694e-06 8.03115e-06 1.42776e-05 2.23088e-05 3.21246e-05 4.37252e-05 5.71104e-05 7.40217e-05 9.62003e-05 0.000123646 0.00015636 0.00019434 0.000237588 0.000286103 0.000339886 0.000400076 0.000467812 0.000543096 0.000625926 0.000716303 0.000814227 0.000919698 0.00103272 0.00115342 0.00128196 0.00141833 0.00156253 0.00171457 0.00187444 0.00204213 0.00221766 0.00239986 0.00258756 0.00278075 0.00297945 0.00318365 0.00339335 0.00360855 0.00382925 0.00405326 0.00427838 0.00450462 0.00473197 0.00496044 0.00519002 0.00542071 0.00565252 0.00588278 0.00610881 0.00633062 0.00654821 0.00676157 0.00697071 0.00717563 0.00737633 0.00757036 0.00775526 0.00793104 0.00809769 0.00825522 0.00840363 0.00854291 0.00867307 0.0087925 0.00889959 0.00899434 0.00907675 0.00914683 0.00920457 0.00924996 0.00928302 0.00930335 0.00931056 0.00930466 0.00928563 0.00925348 0.00920821 0.00914983 0.00907832 0.00899456 0.0088994 0.00879286 0.00867491 0.00854558 0.00840485 0.00825273 0.00808922 0.00791618 0.00773546 0.00754706 0.007351 0.00714725 0.00693584 0.00671675 0.00648999 0.00625798 0.00602318 0.00578556 0.00554515 0.00530192 0.0050559 0.00480706 0.00455543 0.00430353 0.00405392 0.00380658 0.00356154 0.00331877 0.00307829 0.00284009 0.00260418 0.00237107 0.00214129 0.00191484 0.00169173 0.00147194 0.00125548 0.00104235 0.000832545 0.000637417 0.000468306 0.000325213 0.000208136 0.000117077 5.2034e-05 1.30085e-05 0 0 1.11292e-06 4.45169e-06 1.00163e-05 1.78068e-05 2.78231e-05 4.00652e-05 5.45332e-05 7.12271e-05 9.18483e-05 0.000118099 0.000149978 0.000187486 0.000230623 0.000279389 0.000333784 0.000393808 0.000460684 0.000535636 0.000618664 0.000709767 0.000808945 0.000916199 0.00103153 0.00115493 0.00128655 0.00142652 0.00157485 0.00173152 0.00189654 0.00206992 0.00225165 0.00244173 0.00263891 0.00284192 0.00305078 0.00326548 0.00348602 0.00371241 0.00394463 0.0041827 0.00442425 0.00466694 0.00491077 0.00515574 0.00540184 0.00564908 0.00589746 0.00614697 0.00639476 0.00663798 0.0068766 0.00711065 0.00734011 0.007565 0.0077853 0.00800102 0.00820953 0.0084082 0.00859705 0.00877605 0.00894522 0.00910456 0.00925407 0.00939373 0.00952184 0.00963667 0.00973822 0.00982648 0.00990147 0.00996317 0.0100116 0.0100467 0.0100682 0.0100755 0.0100687 0.0100477 0.0100127 0.0099635 0.0099002 0.00982277 0.00973215 0.00962925 0.00951408 0.00938663 0.0092469 0.0090949 0.00893062 0.00875406 0.00856723 0.0083721 0.00816868 0.00795697 0.00773697 0.00750867 0.00727209 0.00702722 0.00677666 0.00652304 0.00626636 0.00600661 0.00574379 0.00547791 0.00520897 0.00493695 0.00466461 0.00439469 0.00412718 0.00386208 0.0035994 0.00333913 0.00308127 0.00282583 0.00257335 0.00232439 0.00207894 0.00183701 0.0015986 0.0013637 0.00113231 0.000904445 0.000692466 0.00050875 0.000353299 0.000226111 0.000127188 5.65278e-05 1.4132e-05 0 0 1.35853e-06 5.43414e-06 1.22268e-05 2.17366e-05 3.39634e-05 4.89073e-05 6.65682e-05 8.69462e-05 0.000111679 0.000142405 0.000179124 0.000221835 0.00027054 0.000325237 0.000385928 0.000452611 0.000526595 0.000609188 0.000700389 0.0008002 0.000908619 0.00102565 0.00115128 0.00128553 0.00142852 0.00158037 0.0017411 0.0019107 0.