<?xml version="1.0"?> 
<VTKFile type="StructuredGrid" version="0.1"> 
<StructuredGrid WholeExtent="0 128 0 128 0 0"> 
<Piece Extent="0 128 0 128 0 0"> 
<PointData>
<DataArray type="Float32" Name="u" format="ascii" NumberOfComponents="1"> 
0 0 0 0 0 0 0 0 0 0 0 0 0 0 0 0 0 0 0 0 0 0 0 0 0 0 0 0 0 0 0 0 0 0 0 0 0 0 0 0 0 0 0 0 0 0 0 0 0 0 0 0 0 0 0 0 0 0 0 0 0 0 0 0 0 0 0 0 0 0 0 0 0 0 0 0 0 0 0 0 0 0 0 0 0 0 0 0 0 0 0 0 0 0 0 0 0 0 0 0 0 0 0 0 0 0 0 0 0 0 0 0 0 0 0 0 0 0 0 0 0 0 0 0 0 0 0 0 0 0 4.5057e-08 1.80228e-07 4.05513e-07 7.20911e-07 1.12642e-06 1.62205e-06 2.20779e-06 2.88364e-06 3.61167e-06 4.35394e-06 5.11043e-06 5.88117e-06 6.66613e-06 7.46533e-06 8.27877e-06 9.10644e-06 9.94833e-06 1.08044e-05 1.16748e-05 1.25593e-05 1.3458e-05 1.4371e-05 1.52982e-05 1.62396e-05 1.7189e-05 1.81402e-05 1.90933e-05 2.00483e-05 2.1005e-05 2.19636e-05 2.29241e-05 2.38864e-05 2.48445e-05 2.57925e-05 2.67304e-05 2.76581e-05 2.85757e-05 2.94831e-05 3.03804e-05 3.12675e-05 3.2139e-05 3.29892e-05 3.38182e-05 3.46261e-05 3.54127e-05 3.61781e-05 3.69222e-05 3.76452e-05 3.83422e-05 3.90083e-05 3.96436e-05 4.02481e-05 4.08218e-05 4.13646e-05 4.18766e-05 4.23579e-05 4.28046e-05 4.32132e-05 4.35836e-05 4.39159e-05 4.42101e-05 4.44662e-05 4.46841e-05 4.48638e-05 4.50034e-05 4.51008e-05 4.51561e-05 4.51691e-05 4.51399e-05 4.50686e-05 4.4955e-05 4.47993e-05 4.46014e-05 4.43615e-05 4.40794e-05 4.37553e-05 4.33892e-05 4.29809e-05 4.25306e-05 4.20382e-05 4.15062e-05 4.0937e-05 4.03307e-05 3.96873e-05 3.90067e-05 3.8289e-05 3.75342e-05 3.67422e-05 3.59181e-05 3.50669e-05 3.41887e-05 3.32833e-05 3.23509e-05 3.13914e-05 3.04047e-05 2.9391e-05 2.83578e-05 2.73126e-05 2.62553e-05 2.5186e-05 2.41047e-05 2.30114e-05 2.19061e-05 2.07888e-05 1.96691e-05 1.85567e-05 1.74515e-05 1.63535e-05 1.52628e-05 1.41793e-05 1.31031e-05 1.20341e-05 1.09746e-05 9.9268e-06 8.89075e-06 7.86641e-06 6.8538e-06 5.85291e-06 4.86375e-06 3.88631e-06 2.97546e-06 2.18605e-06 1.51809e-06 9.71578e-07 5.46512e-07 2.42894e-07 6.07236e-08 0 0 1.80228e-07 7.20911e-07 1.62205e-06 2.88364e-06 4.5057e-06 6.4882e-06 8.83116e-06 1.15346e-05 1.44467e-05 1.74157e-05 2.04417e-05 2.35247e-05 2.66645e-05 2.98613e-05 3.31151e-05 3.64257e-05 3.97933e-05 4.32177e-05 4.6699e-05 5.02372e-05 5.38321e-05 5.7484e-05 6.11927e-05 6.49582e-05 6.87559e-05 7.25609e-05 7.63733e-05 8.0193e-05 8.40201e-05 8.78546e-05 9.16964e-05 9.55456e-05 9.93781e-05 0.00010317 0.000106922 0.000110632 0.000114303 0.000117932 0.000121521 0.00012507 0.000128556 0.000131957 0.000135273 0.000138504 0.000141651 0.000144712 0.000147689 0.000150581 0.000153369 0.000156033 0.000158574 0.000160992 0.000163287 0.000165458 0.000167507 0.000169431 0.000171218 0.000172853 0.000174335 0.000175664 0.00017684 0.000177865 0.000178736 0.000179455 0.000180014 0.000180403 0.000180624 0.000180676 0.00018056 0.000180274 0.00017982 0.000179197 0.000178406 0.000177446 0.000176318 0.000175021 0.000173557 0.000171924 0.000170122 0.000168153 0.000166025 0.000163748 0.000161323 0.000158749 0.000156027 0.000153156 0.000150137 0.000146969 0.000143672 0.000140268 0.000136755 0.000133133 0.000129404 0.000125565 0.000121619 0.000117564 0.000113431 0.00010925 0.000105021 0.000100744 9.64189e-05 9.20458e-05 8.76246e-05 8.31553e-05 7.86765e-05 7.42267e-05 6.98059e-05 6.5414e-05 6.10512e-05 5.67173e-05 5.24123e-05 4.81364e-05 4.38983e-05 3.97072e-05 3.5563e-05 3.14656e-05 2.74152e-05 2.34117e-05 1.9455e-05 1.55452e-05 1.19018e-05 8.7442e-06 6.07236e-06 3.88631e-06 2.18605e-06 9.71578e-07 2.42894e-07 0 0 4.05513e-07 1.62205e-06 3.64961e-06 6.4882e-06 1.01378e-05 1.45985e-05 1.98701e-05 2.59528e-05 3.25051e-05 3.91854e-05 4.59939e-05 5.29305e-05 5.99952e-05 6.7188e-05 7.45089e-05 8.19579e-05 8.9535e-05 9.72399e-05 0.000105073 0.000113034 0.000121122 0.000129339 0.000137684 0.000146156 0.000154701 0.000163262 0.00017184 0.000180434 0.000189045 0.000197673 0.000206317 0.000214978 0.000223601 0.000232133 0.000240573 0.000248923 0.000257181 0.000265348 0.000273423 0.000281408 0.000289251 0.000296903 0.000304364 0.000311635 0.000318714 0.000325603 0.0003323 0.000338807 0.000345079 0.000351075 0.000356792 0.000362233 0.000367396 0.000372282 0.00037689 0.000381221 0.000385241 0.000388919 0.000392253 0.000395244 0.000397891 0.000400195 0.000402157 0.000403774 0.000405031 0.000405908 0.000406404 0.000406522 0.000406259 0.000405617 0.000404595 0.000403193 0.000401413 0.000399253 0.000396715 0.000393798 0.000390502 0.000386828 0.000382775 0.000378344 0.000373556 0.000368433 0.000362977 0.000357186 0.000351061 0.000344601 0.000337808 0.00033068 0.000323263 0.000315602 0.000307698 0.00029955 0.000291158 0.000282522 0.000273643 0.000264519 0.00025522 0.000245813 0.000236298 0.000226674 0.000216943 0.000207103 0.000197155 0.000187099 0.000177022 0.00016701 0.000157063 0.000147182 0.000137365 0.000127614 0.000117928 0.000108307 9.87713e-05 8.93412e-05 8.00167e-05 7.07977e-05 6.16842e-05 5.26762e-05 4.37737e-05 3.49768e-05 2.67791e-05 1.96744e-05 1.36628e-05 8.7442e-06 4.91861e-06 2.18605e-06 5.46512e-07 0 0 7.20911e-07 2.88364e-06 6.4882e-06 1.15346e-05 1.80228e-05 2.59528e-05 3.53247e-05 4.61383e-05 5.77868e-05 6.9663e-05 8.17669e-05 9.40986e-05 0.000106658 0.000119445 0.00013246 0.000145703 0.000159173 0.000172871 0.000186796 0.000200949 0.000215329 0.000229936 0.000244771 0.000259833 0.000275024 0.000290244 0.000305493 0.000320772 0.00033608 0.000351418 0.000366786 0.000382182 0.000397513 0.000412681 0.000427686 0.00044253 0.000457211 0.000471729 0.000486086 0.00050028 0.000514223 0.000527827 0.000541092 0.000554017 0.000566603 0.000578849 0.000590756 0.000602323 0.000613475 0.000624133 0.000634298 0.00064397 0.000653148 0.000661834 0.000670026 0.000677726 0.000684873 0.000691411 0.000697338 0.000702655 0.000707362 0.000711459 0.000714945 0.000717821 0.000720055 0.000721613 0.000722497 0.000722705 0.000722239 0.000721097 0.00071928 0.000716788 0.000713622 0.000709783 0.000705271 0.000700085 0.000694227 0.000687695 0.000680489 0.000672611 0.000664099 0.000654992 0.000645292 0.000634997 0.000624108 0.000612625 0.000600547 0.000587875 0.00057469 0.000561071 0.000547019 0.000532533 0.000517614 0.000502262 0.000486476 0.000470257 0.000453725 0.000437001 0.000420085 0.000402976 0.000385676 0.000368183 0.000350498 0.000332621 0.000314706 0.000296907 0.000279224 0.000261656 0.000244205 0.000226869 0.000209649 0.000192545 0.000175593 0.000158829 0.000142252 0.000125863 0.000109661 9.36466e-05 7.782e-05 6.2181e-05 4.76073e-05 3.49768e-05 2.42894e-05 1.55452e-05 8.7442e-06 3.88631e-06 9.71578e-07 0 0 1.12642e-06 4.5057e-06 1.01378e-05 1.80228e-05 2.81606e-05 4.05513e-05 5.51948e-05 7.20911e-05 9.02918e-05 0.000108848 0.000127761 0.000147029 0.000166653 0.000186633 0.000206969 0.000227661 0.000248708 0.000270111 0.000291869 0.000313982 0.000336451 0.000359275 0.000382454 0.000405989 0.000429724 0.000453506 0.000477333 0.000501206 0.000525126 0.000549091 0.000573102 0.00059716 0.000621113 0.000644813 0.00066826 0.000691452 0.000714392 0.000737077 0.000759509 0.000781688 0.000803474 0.00082473 0.000845456 0.000865651 0.000885317 0.000904452 0.000923056 0.00094113 0.000958554 0.000975207 0.00099109 0.0010062 0.00102054 0.00103412 0.00104692 0.00105895 0.00107011 0.00108033 0.00108959 0.0010979 0.00110525 0.00111165 0.0011171 0.0011216 0.00112509 0.00112752 0.0011289 0.00112923 0.0011285 0.00112671 0.00112388 0.00111998 0.00111503 0.00110904 0.00110199 0.00109388 0.00108473 0.00107452 0.00106326 0.00105095 0.00103765 0.00102343 0.00100827 0.000992183 0.000975169 0.000957226 0.000938355 0.000918555 0.000897953 0.000876673 0.000854717 0.000832083 0.000808772 0.000784784 0.000760119 0.000734776 0.000708945 0.000682814 0.000656382 0.00062965 0.000602618 0.000575286 0.000547654 0.000519721 0.000491728 0.000463917 0.000436287 0.000408838 0.00038157 0.000354483 0.000327577 0.000300852 0.000274365 0.00024817 0.000222269 0.00019666 0.000171345 0.000146323 0.000121594 9.71578e-05 7.43864e-05 5.46512e-05 3.79522e-05 2.42894e-05 1.36628e-05 6.07236e-06 1.51809e-06 0 0 1.62205e-06 6.4882e-06 1.45985e-05 2.59528e-05 4.05513e-05 5.83938e-05 7.94805e-05 0.000103811 0.00013002 0.000156742 0.000183976 0.000211722 0.000239981 0.000268752 0.000298036 0.000327832 0.00035814 0.00038896 0.000420291 0.000452134 0.000484489 0.000517356 0.000550734 0.000584624 0.000618803 0.000653048 0.00068736 0.000721737 0.000756181 0.000790691 0.000825268 0.00085991 0.000894403 0.000928531 0.000962294 0.000995692 0.00102872 0.00106139 0.00109369 0.00112563 0.001157 0.00118761 0.00121746 0.00124654 0.00127486 0.00130241 0.0013292 0.00135523 0.00138032 0.0014043 0.00142717 0.00144893 0.00146958 0.00148913 0.00150756 0.00152488 0.00154097 0.00155567 0.00156901 0.00158097 0.00159156 0.00160078 0.00160863 0.0016151 0.00162012 0.00162363 0.00162562 0.00162609 0.00162504 0.00162247 0.00161838 0.00161277 0.00160565 0.00159701 0.00158686 0.00157519 0.00156201 0.00154731 0.0015311 0.00151337 0.00149422 0.00147373 0.00145191 0.00142874 0.00140424 0.00137841 0.00135123 0.00132272 0.00129305 0.00126241 0.00123079 0.0011982 0.00116463 0.00113009 0.00109457 0.00105808 0.00102088 0.000983252 0.00094519 0.000906697 0.00086777 0.000828412 0.000788621 0.000748398 0.000708089 0.000668041 0.000628253 0.000588726 0.000549461 0.000510455 0.000471711 0.000433227 0.000395085 0.000357365 0.000320067 0.000283191 0.000246737 0.000210705 0.000175095 0.000139907 0.000107116 7.86978e-05 5.46512e-05 3.49768e-05 1.96744e-05 8.7442e-06 2.18605e-06 0 0 2.20779e-06 8.83116e-06 1.98701e-05 3.53247e-05 5.51948e-05 7.94805e-05 0.000108182 0.000141299 0.000176972 0.000213343 0.000250411 0.000288177 0.00032664 0.000365801 0.00040566 0.000446215 0.000487468 0.000529417 0.000572063 0.000615405 0.000659444 0.000704179 0.00074961 0.000795738 0.00084226 0.000888871 0.000935573 0.000982365 0.00102925 0.00107622 0.00112328 0.00117043 0.00121738 0.00126383 0.00130979 0.00135525 0.00140021 0.00144467 0.00148864 0.00153211 0.00157481 0.00161647 0.00165709 0.00169668 0.00173522 0.00177273 0.00180919 0.00184462 0.00187877 0.00191141 0.00194254 0.00197216 0.00200027 0.00202687 0.00205196 0.00207554 0.00209742 0.00211745 0.0021356 0.00215188 0.0021663 0.00217884 0.00218952 0.00219833 0.00220517 0.00220994 0.00221265 0.00221328 0.00221186 0.00220836 0.0022028 0.00219516 0.00218547 0.00217371 0.00215989 0.00214401 0.00212607 0.00210606 0.002084 0.00205987 0.0020338 0.00200591 0.00197621 0.00194468 0.00191133 0.00187616 0.00183918 0.00180037 0.00175999 0.00171828 0.00167524 0.00163088 0.00158519 0.00153818 0.00148983 0.00144016 0.00138953 0.00133832 0.00128651 0.00123411 0.00118113 0.00112756 0.0010734 0.00101865 0.000963788 0.000909277 0.000855122 0.000801322 0.000747877 0.000694786 0.000642051 0.000589671 0.000537755 0.000486413 0.000435647 0.000385454 0.000335836 0.000286793 0.000238324 0.000190429 0.000145797 0.000107116 7.43864e-05 4.76073e-05 2.67791e-05 1.19018e-05 2.97546e-06 0 0 2.88364e-06 1.15346e-05 2.59528e-05 4.61383e-05 7.20911e-05 0.000103811 0.000141299 0.000184553 0.000231147 0.000278652 0.000327068 0.000376395 0.000426632 0.000477781 0.000529841 0.000582812 0.000636693 0.000691484 0.000747184 0.000803795 0.000861314 0.000919744 0.000979083 0.00103933 0.00110009 0.00116097 0.00122197 0.00128309 0.00134432 0.00140567 0.00146714 0.00152873 0.00159005 0.00165072 0.00171074 0.00177012 0.00182884 0.00188692 0.00194434 0.00200112 0.00205689 0.00211131 0.00216437 0.00221607 0.00226641 0.0023154 0.00236302 0.00240929 0.0024539 0.00249653 0.00253719 0.00257588 0.00261259 0.00264734 0.00268011 0.0027109 0.00273949 0.00276564 0.00278935 0.00281062 0.00282945 0.00284583 0.00285978 0.00287128 0.00288022 0.00288645 0.00288999 0.00289082 0.00288895 0.00288439 0.00287712 0.00286715 0.00285449 0.00283913 0.00282108 0.00280034 0.00277691 0.00275078 0.00272196 0.00269044 0.0026564 0.00261997 0.00258117 0.00253999 0.00249643 0.0024505 0.00240219 0.0023515 0.00229876 0.00224428 0.00218807 0.00213013 0.00207046 0.00200905 0.0019459 0.00188103 0.0018149 0.001748 0.00168034 0.00161191 0.0015427 0.00147273 0.00140199 0.00133049 0.00125882 0.00118763 0.00111689 0.00104662 0.000976819 0.000907476 0.000838597 0.000770182 0.000702374 0.000635315 0.000569008 0.00050345 0.000438643 0.000374586 0.00031128 0.000248724 0.000190429 0.000139907 9.71578e-05 6.2181e-05 3.49768e-05 1.55452e-05 3.88631e-06 0 0 3.61115e-06 1.44446e-05 3.25003e-05 5.77784e-05 9.02787e-05 0.000130001 0.000176946 0.000231114 0.00028946 0.000348943 0.000409563 0.000471319 0.000534212 0.000598241 0.000663407 0.00072971 0.000797149 0.000865724 0.000935437 0.00100629 0.00107827 0.00115139 0.00122565 0.00130105 0.00137709 0.00145327 0.0015296 0.00160608 0.0016827 0.00175947 0.00183639 0.00191345 0.00199018 0.00206609 0.0021412 0.00221548 0.00228896 0.00236163 0.00243348 0.00250451 0.0025743 0.00264238 0.00270876 0.00277345 0.00283643 0.00289772 0.00295731 0.0030152 0.003071 0.00312434 0.00317521 0.00322361 0.00326954 0.003313 0.003354 0.00339253 0.00342829 0.003461 0.00349066 0.00351727 0.00354082 0.00356131 0.00357875 0.00359314 0.00360431 0.00361211 0.00361652 0.00361756 0.00361522 0.0036095 0.0036004 0.00358792 0.00357207 0.00355285 0.00353026 0.00350431 0.00347498 0.00344228 0.00340622 0.00336679 0.00332418 0.0032786 0.00323005 0.00317853 0.00312403 0.00306656 0.00300611 0.00294269 0.0028767 0.00280854 0.00273821 0.00266571 0.00259104 0.00251421 0.00243521 0.00235403 0.0022713 0.00218759 0.00210293 0.00201731 0.00193072 0.00184317 0.00175466 0.00166519 0.00157552 0.00148644 0.00139793 0.00131 0.00122265 0.00113588 0.00104969 0.000964071 0.000879214 0.000795291 0.000712303 0.00063025 0.000549132 0.000468948 0.0003897 0.000311386 0.000238405 0.000175155 0.000121635 7.78465e-05 4.37886e-05 1.94616e-05 4.8654e-06 0 0 4.35184e-06 1.74074e-05 3.91666e-05 6.96294e-05 0.000108796 0.000156666 0.00021324 0.000278518 0.000348826 0.000420492 0.000493515 0.000567896 0.000643635 0.000720731 0.000799185 0.000878997 0.000960169 0.0010427 0.0011266 0.00121186 0.00129849 0.00138648 0.00147583 0.00156654 0.00165802 0.00174968 0.0018415 0.00193351 0.00202568 0.00211803 0.00221055 0.00230324 0.00239553 0.00248684 0.00257717 0.00266653 0.0027549 0.00284229 0.0029287 0.00301414 0.00309806 0.00317994 0.00325977 0.00333756 0.0034133 0.003487 0.00355865 0.00362826 0.00369536 0.0037595 0.00382066 0.00387886 0.00393408 0.00398634 0.00403563 0.00408194 0.00412494 0.00416426 0.00419992 0.00423189 0.0042602 0.00428483 0.00430579 0.00432307 0.00433649 0.00434584 0.00435113 0.00435236 0.00434953 0.00434263 0.00433167 0.00431665 0.00429757 0.00427444 0.00424726 0.00421603 0.00418075 0.00414142 0.00409803 0.0040506 0.00399935 0.00394452 0.00388613 0.00382415 0.0037586 0.00368948 0.00361678 0.0035405 0.00346113 0.00337916 0.00329457 0.00320738 0.00311758 0.00302518 0.00293016 0.00283254 0.00273303 0.00263237 0.00253055 0.00242756 0.00232342 0.00221813 0.00211167 0.00200405 0.00189621 0.00178905 0.00168259 0.00157681 0.00147174 0.00136735 0.00126365 0.00116065 0.00105855 0.000957561 0.000857686 0.000758925 0.000661277 0.000564741 0.000469319 0.00037501 0.000287117 0.000210943 0.000146488 9.37525e-05 5.27358e-05 2.34381e-05 5.85953e-06 0 0 5.10571e-06 2.04229e-05 4.59514e-05 8.16914e-05 0.000127643 0.000183806 0.00025018 0.000326766 0.000409244 0.000493297 0.000578924 0.000666126 0.000754901 0.000845251 0.000937175 0.00103067 0.00112575 0.00122242 0.00132068 0.00142053 0.00152196 0.00162499 0.0017296 0.0018358 0.0019429 0.00205019 0.00215768 0.00226537 0.00237326 0.00248134 0.00258963 0.00269811 0.00280611 0.00291297 0.00301868 0.00312324 0.00322665 0.00332891 0.00343002 0.00352999 0.00362818 0.00372398 0.00381738 0.00390839 0.00399701 0.00408323 0.00416705 0.00424849 0.00432698 0.00440201 0.00447355 0.00454162 0.00460622 0.00466734 0.00472499 0.00477916 0.00482944 0.00487543 0.00491711 0.0049545 0.00498759 0.00501638 0.00504088 0.00506107 0.00507674 0.00508766 0.00509382 0.00509523 0.00509189 0.0050838 0.00507095 0.00505334 0.005031 0.00500391 0.00497208 0.00493552 0.00489421 0.00484817 0.00479739 0.00474187 0.00468189 0.00461773 0.00454938 0.00447686 0.00440015 0.00431926 0.00423419 0.00414493 0.00405206 0.00395614 0.00385717 0.00375514 0.00365007 0.00354194 0.00343077 0.00331654 0.00320011 0.00308232 0.00296318 0.00284267 0.00272081 0.00259759 0.00247302 0.00234709 0.00222088 0.00209547 0.00197087 0.00184707 0.00172407 0.00160188 0.0014805 0.00135991 0.00124038 0.00112212 0.00100516 0.000889474 0.000775077 0.000661965 0.000550138 0.000439596 0.000336566 0.000247273 0.000171717 0.000109899 6.18183e-05 2.74748e-05 6.8687e-06 0 0 5.87278e-06 2.34911e-05 5.2855e-05 9.39644e-05 0.000146819 0.00021142 0.000287766 0.000375858 0.000470715 0.000567359 0.00066579 0.000766007 0.000868011 0.000971801 0.00107738 0.00118474 0.0012939 0.00140488 0.00151767 0.00163228 0.00174869 0.00186693 0.00198697 0.00210883 0.00223171 0.00235481 0.00247813 0.00260167 0.00272543 0.00284942 0.00297362 0.00309805 0.00322193 0.00334448 0.00346572 0.00358563 0.00370422 0.00382149 0.00393744 0.00405207 0.00416466 0.00427451 0.0043816 0.00448595 0.00458756 0.00468641 0.00478251 0.00487587 0.00496586 0.00505187 0.00513388 0.00521191 0.00528596 0.00535601 0.00542208 0.00548417 0.00554179 0.00559449 0.00564225 0.00568509 0.005723 0.00575598 0.00578403 0.00580715 0.00582508 0.00583756 0.00584459 0.00584617 0.0058423 0.00583298 0.00581822 0.005798 0.00577234 0.00574125 0.00570472 0.00566276 0.00561537 0.00556255 0.0055043 0.00544061 0.00537181 0.00529822 0.00521983 0.00513665 0.00504868 0.00495591 0.00485835 0.00475599 0.00464949 0.00453949 0.00442599 0.004309 0.00418851 0.00406452 0.00393703 0.00380604 0.00367253 0.00353746 0.00340083 0.00326264 0.00312289 0.00298158 0.00283871 0.00269428 0.00254953 0.00240569 0.00226277 0.00212076 0.00197967 0.00183949 0.00170022 0.00156187 0.0014247 0.00128898 0.00115471 0.0010219 0.000890534 0.00076062 0.000632157 0.000505145 0.000386752 0.000284144 0.000197322 0.000126286 7.1036e-05 3.15716e-05 7.89289e-06 0 0 6.65302e-06 2.66121e-05 5.98772e-05 0.000106448 0.000166326 0.000239509 0.000325998 0.000425794 0.000533239 0.000642679 0.000754113 0.000867541 0.000982963 0.00110038 0.00121979 0.0013412 0.00146462 0.00159008 0.00171757 0.00184711 0.00197868 0.0021123 0.00224795 0.00238564 0.00252447 0.00266354 0.00280285 0.00294241 0.00308221 0.00322225 0.00336254 0.00350306 0.00364297 0.00378137 0.00391828 0.00405369 0.00418761 0.00432003 0.00445095 0.00458038 0.0047075 0.00483152 0.00495244 0.00507024 0.00518495 0.00529654 0.00540503 0.00551042 0.005612 0.00570907 0.00580165 0.00588972 0.00597329 0.00605235 0.00612691 0.00619697 0.00626199 0.00632145 0.00637534 0.00642366 0.00646642 0.00650361 0.00653523 0.00656129 0.00658149 0.00659554 0.00660343 0.00660517 0.00660076 0.0065902 0.00657348 0.00655061 0.0065216 0.00648645 0.00644518 0.00639777 0.00634423 0.00628456 0.00621875 0.00614682 0.00606911 0.00598599 0.00589747 0.00580353 0.00570418 0.00559942 0.00548925 0.00537367 0.00525341 0.0051292 0.00500105 0.00486894 0.00473289 0.00459289 0.00444894 0.00430105 0.00415029 0.00399778 0.0038435 0.00368745 0.00352964 0.00337007 0.00320874 0.00304564 0.00288217 0.00271972 0.00255829 0.00239789 0.00223851 0.00208016 0.00192282 0.00176651 0.00161152 0.00145813 0.00130636 0.0011562 0.00100765 0.000860705 0.000715375 0.000571656 0.000437674 0.000321556 0.000223303 0.000142914 8.03891e-05 3.57285e-05 8.93212e-06 0 0 7.44646e-06 2.97858e-05 6.70181e-05 0.000119143 0.000186161 0.000268072 0.000364876 0.000476573 0.000596815 0.000719255 0.000843892 0.000970727 0.00109976 0.00123099 0.00136442 0.00150004 0.0016379 0.00177801 0.00192039 0.00206503 0.00221193 0.0023611 0.00251252 0.00266621 0.00282116 0.00297637 0.00313185 0.00328758 0.00344358 0.00359984 0.00375637 0.00391315 0.00406923 0.00422364 0.00437637 0.00452743 0.00467681 0.00482452 0.00497055 0.00511491 0.0052567 0.00539502 0.00552988 0.00566126 0.00578918 0.00591363 0.00603461 0.00615212 0.00626539 0.00637363 0.00647685 0.00657505 0.00666821 0.00675636 0.00683947 0.00691757 0.00699004 0.00705631 0.00711636 0.00717021 0.00721785 0.00725928 0.0072945 0.00732351 0.00734599 0.0073616 0.00737035 0.00737224 0.00736727 0.00735544 0.00733674 0.00731119 0.00727878 0.00723954 0.00719345 0.00714054 0.00708078 0.00701419 0.00694076 0.00686049 0.00677379 0.00668105 0.00658229 0.00647749 0.00636666 0.00624979 0.0061269 0.00599797 0.00586383 0.00572528 0.00558233 0.00543498 0.00528322 0.00512707 0.00496651 0.00480155 0.0046334 0.00446328 0.00429118 0.00411712 0.00394109 0.00376308 0.00358311 0.00340116 0.00321879 0.00303755 0.00285744 0.00267846 0.00250061 0.00232389 0.0021483 0.00197384 0.00180083 0.00162958 0.00146009 0.00129237 0.00112641 0.000962221 0.000799793 0.000639129 0.000489333 0.00035951 0.00024966 0.000159782 8.98775e-05 3.99455e-05 9.98638e-06 0 0 8.25308e-06 3.30123e-05 7.42777e-05 0.000132049 0.000206327 0.000297111 0.000404401 0.000528197 0.000661444 0.000797088 0.000935128 0.00107557 0.0012184 0.00136363 0.00151125 0.00166128 0.00181374 0.00196869 0.00212612 0.00228604 0.00244844 0.00261333 0.0027807 0.00295056 0.00312179 0.00329331 0.00346511 0.00363719 0.00380955 0.00398219 0.00415511 0.00432832 0.00450073 0.00467129 0.00483999 0.00500684 0.00517183 0.00533497 0.00549625 0.00565568 0.00581226 0.00596501 0.00611392 0.006259 0.00640025 0.00653767 0.00667125 0.00680099 0.00692604 0.00704555 0.00715949 0.00726789 0.00737074 0.00746803 0.00755977 0.00764596 0.00772594 0.00779907 0.00786534 0.00792474 0.0079773 0.00802299 0.00806183 0.0080938 0.00811856 0.00813574 0.00814535 0.00814738 0.00814183 0.00812871 0.008108 0.00807972 0.00804388 0.00800049 0.00794955 0.00789106 0.00782503 0.00775144 0.00767031 0.00758163 0.00748584 0.0073834 0.0072743 0.00715853 0.00703611 0.00690703 0.0067713 0.0066289 0.00648074 0.00632772 0.00616985 0.00600711 0.00583951 0.00566705 0.00548973 0.00530754 0.00512184 0.00493396 0.00474389 0.00455164 0.00435721 0.00416061 0.00396181 0.00376084 0.0035594 0.00335919 0.00316021 0.00296247 0.00276597 0.0025707 0.00237666 0.00218386 0.00199263 0.00180332 0.00161591 0.00143042 0.00124684 0.00106517 0.00088541 0.000707564 0.000541728 0.000398005 0.000276392 0.000176891 9.95011e-05 4.42227e-05 1.10557e-05 0 0 9.07288e-06 3.62915e-05 8.16559e-05 0.000145166 0.000226822 0.000326624 0.000444571 0.000580664 0.000727126 0.000876178 0.00102782 0.00118206 0.00133888 0.0014983 0.0016603 0.0018249 0.00199215 0.0021621 0.00233476 0.00251013 0.0026882 0.00286899 0.00305248 0.00323867 0.00342637 0.00361436 0.00380266 0.00399124 0.00418013 0.0043693 0.00455878 0.00474855 0.00493745 0.00512432 0.00530914 0.00549192 0.00567267 0.00585137 0.00602804 0.00620267 0.00637418 0.00654148 0.00670458 0.00686348 0.00701817 0.00716866 0.00731494 0.00745702 0.00759395 0.00772481 0.00784957 0.00796826 0.00808085 0.00818737 0.0082878 0.00838215 0.00846969 0.00854973 0.00862225 0.00868726 0.00874475 0.00879474 0.00883721 0.00887217 0.00889922 0.00891797 0.00892842 0.00893058 0.00892444 0.00891 0.00888726 0.00885622 0.0088169 0.00876932 0.00871347 0.00864935 0.00857697 0.00849632 0.00840741 0.00831023 0.00820527 0.00809303 0.00797349 0.00784666 0.00771255 0.00757114 0.00742244 0.00726645 0.00710415 0.00693653 0.00676359 0.00658533 0.00640174 0.00621283 0.0060186 0.00581904 0.00561563 0.00540982 0.00520162 0.00499102 0.00477803 0.00456264 0.00434486 0.00412469 0.00390399 0.00368463 0.0034666 0.00324992 0.00303457 0.00282057 0.0026079 0.00239657 0.00218693 0.00197935 0.00177382 0.00157034 0.00136892 0.00116955 0.000972227 0.000776961 0.000594861 0.00043704 0.0003035 0.00019424 0.00010926 4.85601e-05 1.214e-05 0 0 9.90536e-06 3.96214e-05 8.91482e-05 0.000158486 0.000247634 0.000356593 0.000485363 0.000633943 0.00079382 0.00095648 0.00112192 0.00129015 0.00146116 0.00163495 0.00181152 0.00199088 0.00217309 0.00235823 0.0025463 0.0027373 0.00293123 0.00312809 0.00332787 0.00353059 0.00373493 0.00393957 0.00414453 0.0043498 0.00455537 0.00476126 0.00496746 0.00517397 0.00537952 0.00558285 0.00578395 0.00598283 0.00617948 0.0063739 0.0065661 0.00675607 0.00694264 0.00712463 0.00730205 0.00747488 0.00764314 0.00780682 0.00796592 0.00812044 0.00826936 0.00841166 0.00854733 0.00867639 0.00879882 0.00891463 0.00902382 0.00912639 0.00922156 0.00930856 0.00938738 0.00945803 0.0095205 0.0095748 0.00962093 0.00965888 0.00968823 0.00970856 0.00971986 0.00972213 0.00971538 0.0096996 0.00967479 0.00964096 0.00959812 0.00954629 0.00948547 0.00941566 0.00933687 0.00924909 0.00915231 0.00904655 0.00893233 0.00881019 0.00868011 0.00854211 0.00839618 0.00824232 0.00808054 0.00791083 0.00773426 0.0075519 0.00736375 0.00716981 0.00697008 0.00676457 0.00655326 0.00633617 0.00611487 0.00589097 0.00566445 0.00543533 0.0052036 0.00496925 0.0047323 0.00449274 0.00425259 0.00401388 0.00377662 0.00354079 0.00330641 0.00307347 0.00284197 0.00261191 0.00238367 0.00215761 0.00193375 0.00171207 0.00149259 0.0012753 0.00106019 0.000847277 0.000648697 0.000476594 0.000330968 0.000211819 0.000119148 5.29548e-05 1.32387e-05 0 0 1.075e-05 4.3e-05 9.675e-05 0.000172 0.00026875 0.000387 0.00052675 0.000688 0.000861487 0.00103795 0.00121738 0.00139979 0.00158517 0.00177353 0.00196486 0.00215916 0.00235653 0.00255705 0.00276072 0.00296754 0.00317751 0.00339063 0.00360691 0.00382634 0.0040475 0.00426899 0.0044908 0.00471293 0.00493538 0.00515816 0.00538126 0.00560469 0.00582706 0.00604702 0.00626457 0.0064797 0.00669241 0.00690271 0.00711059 0.00731605 0.00751783 0.00771465 0.00790652 0.00809342 0.00827537 0.00845236 0.0086244 0.00879147 0.00895249 0.00910634 0.00925302 0.00939254 0.00952489 0.00965008 0.0097681 0.00987896 0.00998181 0.0100758 0.010161 0.0102373 0.0103048 0.0103635 0.0104133 0.0104542 0.0104859 0.0105078 0.0105199 0.0105223 0.0105149 0.0104978 0.0104709 0.0104342 0.0103878 0.0103317 0.0102658 0.0101903 0.010105 0.01001 0.00990528 0.00979085 0.00966727 0.00953512 0.0093944 0.00924511 0.00908724 0.00892081 0.00874581 0.00856224 0.00837125 0.008174 0.00797049 0.00776073 0.0075447 0.00732241 0.00709386 0.00685905 0.0066197 0.00637751 0.0061325 0.00588466 0.00563399 0.00538049 0.00512417 0.00486501 0.00460521 0.00434696 0.00409024 0.00383508 0.00358145 0.00332937 0.00307883 0.00282984 0.00258277 0.00233804 0.00209563 0.00185555 0.00161779 0.00138236 0.00114925 0.000918471 0.000703204 0.00051664 0.000358778 0.000229618 0.00012916 5.74044e-05 1.43511e-05 0 0 1.16068e-05 4.64273e-05 0.000104461 0.000185709 0.00029017 0.000417845 0.000568734 0.000742836 0.000930127 0.00112058 0.0013142 0.00151099 0.00171093 0.00191405 0.00212032 0.00232976 0.00254247 0.00275855 0.00297801 0.00320084 0.00342705 0.00365663 0.00388958 0.00412591 0.0043641 0.00460261 0.00484146 0.00508064 0.00532015 0.00556 0.00580018 0.00604069 0.00628006 0.00651683 0.00675098 0.00698253 0.00721147 0.00743779 0.00766151 0.00788262 0.00809975 0.00831155 0.008518 0.00871911 0.00891487 0.0091053 0.00929038 0.00947013 0.00964334 0.00980885 0.00996663 0.0101167 0.0102591 0.0103937 0.0105206 0.0106399 0.0107505 0.0108515 0.0109431 0.0110252 0.0110977 0.0111607 0.0112142 0.0112582 0.0112922 0.0113157 0.0113286 0.0113311 0.0113231 0.0113046 0.0112755 0.011236 0.011186 0.0111255 0.0110546 0.0109732 0.0108814 0.0107791 0.0106663 0.0105431 0.0104101 0.0102678 0.0101163 0.00995565 0.00978574 0.0096066 0.00941825 0.00922068 0.00901513 0.00880285 0.00858383 0.00835807 0.00812558 0.00788635 0.00764039 0.00738769 0.0071301 0.00686945 0.00660576 0.00633901 0.00606922 0.00579637 0.00552047 0.00524152 0.00496186 0.00468385 0.00440749 0.00413277 0.0038597 0.00358827 0.00331848 0.00305035 0.00278426 0.00252063 0.00225947 0.00200076 0.00174452 0.00149073 0.00123941 0.00099054 0.000758383 0.000557179 0.00038693 0.000247635 0.000139295 6.19088e-05 1.54772e-05 0 0 1.24758e-05 4.99031e-05 0.000112282 0.000199613 0.000311895 0.000449128 0.000611314 0.00079845 0.00099974 0.00120438 0.00141238 0.00162373 0.00183844 0.00205649 0.00227791 0.00250267 0.00273091 0.00296275 0.00319819 0.00343722 0.00367985 0.00392607 0.0041759 0.00442932 0.00468471 0.00494044 0.00519651 0.00545293 0.00570968 0.00596678 0.00622421 0.00648199 0.00673853 0.00699227 0.0072432 0.00749133 0.00773665 0.00797916 0.00821887 0.00845577 0.00868841 0.00891531 0.00913648 0.00935193 0.00956164 0.00976562 0.00996388 0.0101564 0.0103419 0.0105192 0.0106882 0.0108489 0.0110013 0.0111455 0.0112814 0.0114091 0.0115275 0.0116357 0.0117337 0.0118215 0.0118991 0.0119666 0.0120238 0.0120708 0.0121071 0.0121322 0.012146 0.0121486 0.0121399 0.0121199 0.0120887 0.0120463 0.0119926 0.0119277 0.0118517 0.0117644 0.0116659 0.0115563 0.0114354 0.0113034 0.0111608 0.0110083 0.010846 0.0106737 0.0104917 0.0102997 0.0100979 0.00988616 0.00966591 0.00943844 0.00920375 0.00896185 0.00871274 0.0084564 0.00819286 0.00792209 0.00764608 0.00736679 0.00708423 0.00679838 0.00650927 0.00621687 0.0059212 0.00562225 0.00532254 0.00502457 0.00472835 0.00443388 0.00414115 0.00385017 0.00356093 0.00327344 0.00298812 0.00270539 0.00242526 0.00214772 0.00187277 0.00160042 0.00133066 0.00106349 0.000814232 0.000598211 0.000415425 0.000265872 0.000149553 6.64679e-05 1.6617e-05 0 0 1.33569e-05 5.34277e-05 0.000120212 0.000213711 0.000333923 0.000480849 0.000654489 0.000854843 0.00107033 0.00128935 0.00151192 0.00173803 0.00196768 0.00220087 0.00243761 0.00267789 0.00292185 0.00316964 0.00342124 0.00367666 0.00393591 0.00419897 0.00446585 0.00473656 0.00500934 0.00528248 0.00555596 0.00582979 0.00610397 0.00637849 0.00665336 0.00692858 0.00720247 0.00747335 0.00774123 0.0080061 0.00826796 0.00852682 0.00878266 0.00903551 0.00928379 0.00952594 0.00976197 0.00999188 0.0102157 0.0104333 0.0106449 0.0108503 0.0110482 0.0112374 0.0114176 0.0115891 0.0117517 0.0119055 0.0120505 0.0121866 0.0123129 0.0124283 0.0125328 0.0126264 0.0127092 0.012781 0.012842 0.0128921 0.0129307 0.0129574 0.012972 0.0129746 0.0129653 0.0129439 0.0129105 0.0128651 0.0128077 0.0127384 0.0126571 0.0125639 0.0124587 0.0123416 0.0122126 0.0120716 0.01