<?xml version="1.0"?> 
<VTKFile type="StructuredGrid" version="0.1"> 
<StructuredGrid WholeExtent="0 128 0 128 0 0"> 
<Piece Extent="0 128 0 128 0 0"> 
<PointData>
<DataArray type="Float32" Name="u" format="ascii" NumberOfComponents="1"> 
0 0 0 0 0 0 0 0 0 0 0 0 0 0 0 0 0 0 0 0 0 0 0 0 0 0 0 0 0 0 0 0 0 0 0 0 0 0 0 0 0 0 0 0 0 0 0 0 0 0 0 0 0 0 0 0 0 0 0 0 0 0 0 0 0 0 0 0 0 0 0 0 0 0 0 0 0 0 0 0 0 0 0 0 0 0 0 0 0 0 0 0 0 0 0 0 0 0 0 0 0 0 0 0 0 0 0 0 0 0 0 0 0 0 0 0 0 0 0 0 0 0 0 0 0 0 0 0 0 0 5.02255e-08 2.00902e-07 4.5203e-07 8.03608e-07 1.25564e-06 1.80812e-06 2.46105e-06 3.21443e-06 4.02463e-06 4.848e-06 5.68455e-06 6.53427e-06 7.39717e-06 8.27325e-06 9.1625e-06 1.00649e-05 1.09798e-05 1.19066e-05 1.28451e-05 1.37954e-05 1.47575e-05 1.57314e-05 1.67171e-05 1.77145e-05 1.87166e-05 1.9716e-05 2.07126e-05 2.17066e-05 2.2698e-05 2.36866e-05 2.46725e-05 2.56558e-05 2.663e-05 2.75887e-05 2.85319e-05 2.94595e-05 3.03717e-05 3.12684e-05 3.21496e-05 3.30153e-05 3.38602e-05 3.46789e-05 3.54716e-05 3.62382e-05 3.69786e-05 3.76929e-05 3.83811e-05 3.90433e-05 3.96752e-05 4.0273e-05 4.08367e-05 4.13662e-05 4.18615e-05 4.23227e-05 4.27497e-05 4.31425e-05 4.34987e-05 4.38156e-05 4.40934e-05 4.4332e-05 4.45313e-05 4.46915e-05 4.48125e-05 4.48942e-05 4.4936e-05 4.4937e-05 4.48973e-05 4.48168e-05 4.46955e-05 4.45335e-05 4.43306e-05 4.40871e-05 4.38039e-05 4.34821e-05 4.31219e-05 4.27231e-05 4.22859e-05 4.18101e-05 4.12958e-05 4.0743e-05 4.01548e-05 3.95343e-05 3.88816e-05 3.81966e-05 3.74793e-05 3.67298e-05 3.5948e-05 3.51339e-05 3.42926e-05 3.34293e-05 3.2544e-05 3.16366e-05 3.07071e-05 2.97556e-05 2.8782e-05 2.77864e-05 2.67757e-05 2.5757e-05 2.47302e-05 2.36954e-05 2.26526e-05 2.16017e-05 2.05427e-05 1.94757e-05 1.84093e-05 1.73519e-05 1.63036e-05 1.52644e-05 1.42343e-05 1.32133e-05 1.22014e-05 1.11986e-05 1.02065e-05 9.22649e-06 8.25872e-06 7.30314e-06 6.35976e-06 5.42857e-06 4.50958e-06 3.60279e-06 2.75838e-06 2.02657e-06 1.40734e-06 9.00697e-07 5.06642e-07 2.25174e-07 5.62935e-08 0 0 2.00902e-07 8.03608e-07 1.80812e-06 3.21443e-06 5.02255e-06 7.23248e-06 9.8442e-06 1.28577e-05 1.60985e-05 1.9392e-05 2.27382e-05 2.61371e-05 2.95887e-05 3.3093e-05 3.665e-05 4.02597e-05 4.39194e-05 4.76262e-05 5.13802e-05 5.51814e-05 5.90298e-05 6.29254e-05 6.68682e-05 7.08582e-05 7.48664e-05 7.88638e-05 8.28505e-05 8.68266e-05 9.07918e-05 9.47464e-05 9.86902e-05 0.000102623 0.00010652 0.000110355 0.000114127 0.000117838 0.000121487 0.000125074 0.000128598 0.000132061 0.000135441 0.000138716 0.000141886 0.000144953 0.000147914 0.000150772 0.000153525 0.000156173 0.000158701 0.000161092 0.000163347 0.000165465 0.000167446 0.000169291 0.000170999 0.00017257 0.000173995 0.000175263 0.000176374 0.000177328 0.000178125 0.000178766 0.00017925 0.000179577 0.000179744 0.000179748 0.000179589 0.000179267 0.000178782 0.000178134 0.000177323 0.000176348 0.000175215 0.000173929 0.000172488 0.000170893 0.000169144 0.00016724 0.000165183 0.000162972 0.000160619 0.000158137 0.000155526 0.000152786 0.000149917 0.000146919 0.000143792 0.000140536 0.000137171 0.000133717 0.000130176 0.000126546 0.000122828 0.000119022 0.000115128 0.000111146 0.000107103 0.000103028 9.89209e-05 9.47817e-05 9.06102e-05 8.64066e-05 8.21709e-05 7.79029e-05 7.3637e-05 6.94076e-05 6.52144e-05 6.10577e-05 5.69373e-05 5.28534e-05 4.88057e-05 4.47945e-05 4.08258e-05 3.6906e-05 3.30349e-05 2.92126e-05 2.5439e-05 2.17143e-05 1.80383e-05 1.44111e-05 1.10335e-05 8.10627e-06 5.62935e-06 3.60279e-06 2.02657e-06 9.00697e-07 2.25174e-07 0 0 4.5203e-07 1.80812e-06 4.06827e-06 7.23248e-06 1.13007e-05 1.62731e-05 2.21495e-05 2.89299e-05 3.62217e-05 4.3632e-05 5.1161e-05 5.88085e-05 6.65746e-05 7.44592e-05 8.24625e-05 9.05843e-05 9.88186e-05 0.000107159 0.000115606 0.000124158 0.000132817 0.000141582 0.000150453 0.000159431 0.000168449 0.000177444 0.000186414 0.00019536 0.000204282 0.000213179 0.000222053 0.000230902 0.00023967 0.000248298 0.000256787 0.000265136 0.000273346 0.000281416 0.000289346 0.000297138 0.000304742 0.000312111 0.000319244 0.000326143 0.000332807 0.000339236 0.00034543 0.000351389 0.000357077 0.000362457 0.00036753 0.000372296 0.000376753 0.000380904 0.000384747 0.000388283 0.000391488 0.000394341 0.000396841 0.000398988 0.000400782 0.000402223 0.000403312 0.000404048 0.000404424 0.000404433 0.000404076 0.000403351 0.000402259 0.000400801 0.000398976 0.000396784 0.000394235 0.000391339 0.000388097 0.000384508 0.000380573 0.000376291 0.000371662 0.000366687 0.000361393 0.000355809 0.000349934 0.000343769 0.000337314 0.000330568 0.000323532 0.000316205 0.000308634 0.000300864 0.000292896 0.000284729 0.000276364 0.0002678 0.000259038 0.000250077 0.000240981 0.000231813 0.000222572 0.000213259 0.000203873 0.000194415 0.000184884 0.000175282 0.000165683 0.000156167 0.000146733 0.00013738 0.000128109 0.00011892 0.000109813 0.000100788 9.18581e-05 8.30384e-05 7.43285e-05 6.57283e-05 5.72378e-05 4.88571e-05 4.05862e-05 3.24251e-05 2.48254e-05 1.82391e-05 1.2666e-05 8.10627e-06 4.55978e-06 2.02657e-06 5.06642e-07 0 0 8.03608e-07 3.21443e-06 7.23248e-06 1.28577e-05 2.00902e-05 2.89299e-05 3.93768e-05 5.14309e-05 6.43941e-05 7.7568e-05 9.09528e-05 0.000104548 0.000118355 0.000132372 0.0001466 0.000161039 0.000175677 0.000190505 0.000205521 0.000220726 0.000236119 0.000251702 0.000267473 0.000283433 0.000299465 0.000315455 0.000331402 0.000347306 0.000363167 0.000378985 0.000394761 0.000410493 0.00042608 0.000441419 0.00045651 0.000471353 0.000485948 0.000500295 0.000514394 0.000528245 0.000541763 0.000554863 0.000567546 0.000579811 0.000591658 0.000603087 0.000614098 0.000624692 0.000634804 0.000644369 0.000653387 0.000661859 0.000669784 0.000677163 0.000683995 0.00069028 0.000695979 0.00070105 0.000705494 0.000709311 0.000712501 0.000715064 0.000716999 0.000718308 0.000718976 0.000718992 0.000718357 0.000717068 0.000715128 0.000712535 0.00070929 0.000705393 0.000700862 0.000695714 0.00068995 0.00068357 0.000676574 0.000668962 0.000660733 0.000651888 0.000642477 0.000632549 0.000622106 0.000611146 0.000599669 0.000587676 0.000575167 0.000562142 0.000548682 0.000534869 0.000520704 0.000506185 0.000491314 0.000476089 0.000460512 0.000444582 0.000428411 0.000412112 0.000395684 0.000379127 0.000362441 0.000345627 0.000328683 0.000311612 0.000294548 0.00027763 0.000260858 0.000244231 0.000227749 0.000211413 0.000195223 0.000179178 0.000163303 0.000147624 0.000132139 0.00011685 0.000101756 8.68571e-05 7.21533e-05 5.76446e-05 4.41341e-05 3.24251e-05 2.25174e-05 1.44111e-05 8.10627e-06 3.60279e-06 9.00697e-07 0 0 1.25564e-06 5.02255e-06 1.13007e-05 2.00902e-05 3.1391e-05 4.5203e-05 6.15263e-05 8.03608e-05 0.000100616 0.0001212 0.000142114 0.000163357 0.000184929 0.000206831 0.000229063 0.000251623 0.000274496 0.000297664 0.000321126 0.000344884 0.000368937 0.000393284 0.000417926 0.000442864 0.000467915 0.000492899 0.000517816 0.000542666 0.000567449 0.000592165 0.000616814 0.000641395 0.00066575 0.000689717 0.000713297 0.000736489 0.000759293 0.00078171 0.00080374 0.000825382 0.000846504 0.000866974 0.00088679 0.000905954 0.000924465 0.000942323 0.000959529 0.000976081 0.000991881 0.00100683 0.00102092 0.00103415 0.00104654 0.00105807 0.00106874 0.00107856 0.00108747 0.00109539 0.00110233 0.0011083 0.00111328 0.00111729 0.00112031 0.00112236 0.0011234 0.00112343 0.00112243 0.00112042 0.00111739 0.00111334 0.00110827 0.00110218 0.0010951 0.00108705 0.00107805 0.00106808 0.00105715 0.00104525 0.0010324 0.00101858 0.00100387 0.000988359 0.00097204 0.000954915 0.000936983 0.000918244 0.000898699 0.000878347 0.000857316 0.000835733 0.000813599 0.000790914 0.000767677 0.000743889 0.00071955 0.00069466 0.000669393 0.000643925 0.000618256 0.000592385 0.000566314 0.000540041 0.000513568 0.000486893 0.000460232 0.000433797 0.00040759 0.000381611 0.000355858 0.000330333 0.000305036 0.000279966 0.000255162 0.000230662 0.000206468 0.000182578 0.000158994 0.000135714 0.00011274 9.00697e-05 6.89596e-05 5.06642e-05 3.51835e-05 2.25174e-05 1.2666e-05 5.62935e-06 1.40734e-06 0 0 1.80812e-06 7.23248e-06 1.62731e-05 2.89299e-05 4.5203e-05 6.50923e-05 8.85978e-05 0.00011572 0.000144887 0.000174528 0.000204644 0.000235234 0.000266298 0.000297837 0.00032985 0.000362337 0.000395274 0.000428636 0.000462422 0.000496633 0.000531269 0.000566329 0.000601814 0.000637723 0.000673797 0.000709774 0.000745655 0.000781439 0.000817126 0.000852717 0.000888212 0.000923609 0.00095868 0.000993192 0.00102715 0.00106054 0.00109338 0.00112566 0.00115739 0.00118855 0.00121897 0.00124844 0.00127698 0.00130457 0.00133123 0.00135695 0.00138172 0.00140556 0.00142831 0.00144983 0.00147012 0.00148918 0.00150701 0.00152362 0.00153899 0.00155313 0.00156595 0.00157736 0.00158736 0.00159595 0.00160313 0.00160889 0.00161325 0.00161619 0.0016177 0.00161773 0.0016163 0.0016134 0.00160904 0.0016032 0.0015959 0.00158713 0.00157694 0.00156536 0.00155239 0.00153803 0.00152229 0.00150516 0.00148665 0.00146675 0.00144557 0.00142324 0.00139974 0.00137508 0.00134926 0.00132227 0.00129413 0.00126482 0.00123453 0.00120346 0.00117158 0.00113892 0.00110546 0.0010712 0.00103615 0.00100031 0.000963925 0.000927252 0.000890288 0.000853035 0.000815492 0.00077766 0.000739538 0.000701126 0.000662733 0.000624668 0.00058693 0.000549519 0.000512436 0.00047568 0.000439252 0.000403151 0.000367433 0.000332154 0.000297314 0.000262913 0.000228951 0.000195429 0.000162345 0.0001297 9.93018e-05 7.29564e-05 5.06642e-05 3.24251e-05 1.82391e-05 8.10627e-06 2.02657e-06 0 0 2.46105e-06 9.8442e-06 2.21495e-05 3.93768e-05 6.15263e-05 8.85978e-05 0.000120591 0.000157507 0.000197207 0.000237552 0.000278543 0.000320179 0.000362462 0.000405389 0.000448963 0.000493181 0.000538012 0.000583421 0.000629408 0.000675973 0.000723116 0.000770837 0.000819135 0.000868013 0.000917113 0.000966082 0.00101492 0.00106363 0.0011122 0.00116064 0.00120895 0.00125714 0.00130487 0.00135185 0.00139806 0.00144352 0.00148821 0.00153215 0.00157533 0.00161775 0.00165915 0.00169927 0.00173811 0.00177567 0.00181195 0.00184695 0.00188068 0.00191312 0.00194409 0.00197338 0.002001 0.00202694 0.00205121 0.00207381 0.00209473 0.00211398 0.00213143 0.00214697 0.00216058 0.00217227 0.00218203 0.00218988 0.00219581 0.00219982 0.00220186 0.00220191 0.00219997 0.00219602 0.00219008 0.00218214 0.0021722 0.00216027 0.00214639 0.00213062 0.00211297 0.00209343 0.00207201 0.00204869 0.00202349 0.00199641 0.00196759 0.00193718 0.0019052 0.00187163 0.00183649 0.00179976 0.00176145 0.00172156 0.00168034 0.00163804 0.00159465 0.00155019 0.00150465 0.00145802 0.00141032 0.00136153 0.00131201 0.00126209 0.00121178 0.00116108 0.00110998 0.00105848 0.00100659 0.000954311 0.000902054 0.000850243 0.000798877 0.000747957 0.000697483 0.000647454 0.00059787 0.000548733 0.000500117 0.000452098 0.000404677 0.000357854 0.000311628 0.000266 0.000220969 0.000176537 0.000135161 9.93018e-05 6.89596e-05 4.41341e-05 2.48254e-05 1.10335e-05 2.75838e-06 0 0 3.21443e-06 1.28577e-05 2.89299e-05 5.14309e-05 8.03608e-05 0.00011572 0.000157507 0.000205724 0.000257576 0.000310272 0.000363811 0.000418194 0.000473419 0.000529488 0.0005864 0.000644155 0.00070271 0.000762019 0.000822084 0.000882903 0.000944477 0.00100681 0.00106989 0.00113373 0.00119786 0.00126182 0.00132561 0.00138922 0.00145267 0.00151594 0.00157904 0.00164197 0.00170432 0.00176568 0.00182604 0.00188541 0.00194379 0.00200118 0.00205757 0.00211298 0.00216705 0.00221945 0.00227018 0.00231924 0.00236663 0.00241235 0.00245639 0.00249877 0.00253921 0.00257747 0.00261355 0.00264743 0.00267914 0.00270865 0.00273598 0.00276112 0.00278391 0.0028042 0.00282198 0.00283725 0.00285 0.00286026 0.002868 0.00287323 0.0028759 0.00287597 0.00287343 0.00286827 0.00286051 0.00285014 0.00283716 0.00282157 0.00280345 0.00278286 0.0027598 0.00273428 0.0027063 0.00267585 0.00264293 0.00260755 0.00256991 0.0025302 0.00248842 0.00244458 0.00239868 0.00235071 0.00230067 0.00224857 0.00219473 0.00213948 0.00208281 0.00202474 0.00196525 0.00190436 0.00184205 0.00177833 0.00171365 0.00164845 0.00158273 0.00151651 0.00144976 0.00138251 0.00131473 0.00124645 0.00117819 0.00111052 0.00104343 0.000976923 0.000910998 0.000845654 0.000780892 0.000716712 0.000653213 0.000590495 0.000528558 0.000467401 0.000407024 0.000347429 0.000288613 0.000230578 0.000176537 0.0001297 9.00697e-05 5.76446e-05 3.24251e-05 1.44111e-05 3.60279e-06 0 0 4.02443e-06 1.60977e-05 3.62199e-05 6.43909e-05 0.000100611 0.000144879 0.000197197 0.000257563 0.00032248 0.000388448 0.000455468 0.000523539 0.000592662 0.000662836 0.000734062 0.00080634 0.000879614 0.000953832 0.00102899 0.0011051 0.00118215 0.00126014 0.00133907 0.00141895 0.00149919 0.00157921 0.00165903 0.00173862 0.001818 0.00189716 0.00197611 0.00205484 0.00213285 0.00220961 0.00228513 0.00235941 0.00243245 0.00250425 0.0025748 0.00264412 0.00271176 0.00277732 0.00284079 0.00290217 0.00296145 0.00301865 0.00307375 0.00312676 0.00317736 0.00322523 0.00327035 0.00331275 0.00335241 0.00338933 0.00342352 0.00345497 0.00348348 0.00350886 0.0035311 0.0035502 0.00356616 0.00357898 0.00358866 0.00359521 0.00359855 0.00359863 0.00359545 0.003589 0.00357929 0.00356631 0.00355007 0.00353056 0.00350789 0.00348212 0.00345328 0.00342135 0.00338634 0.00334824 0.00330706 0.0032628 0.0032157 0.00316602 0.00311375 0.0030589 0.00300147 0.00294146 0.00287886 0.00281367 0.00274632 0.00267719 0.0026063 0.00253365 0.00245922 0.00238304 0.00230508 0.00222536 0.00214444 0.00206287 0.00198066 0.0018978 0.00181429 0.00173014 0.00164535 0.00155991 0.00147452 0.00138985 0.0013059 0.00122269 0.0011402 0.00105844 0.000977399 0.00089709 0.000817631 0.000739144 0.00066163 0.000585089 0.000509521 0.000434926 0.000361303 0.000288653 0.000221 0.000162368 0.000112755 7.21633e-05 4.05919e-05 1.80408e-05 4.51021e-06 0 0 4.8472e-06 1.93888e-05 4.36248e-05 7.75551e-05 0.00012118 0.000174499 0.000237513 0.000310221 0.000388403 0.00046784 0.000548532 0.000630479 0.000713681 0.000798137 0.000883849 0.000970815 0.00105897 0.00114826 0.00123868 0.00133023 0.00142291 0.00151672 0.00161166 0.00170774 0.00180424 0.00190049 0.00199647 0.00209219 0.00218765 0.00228285 0.00237779 0.00247247 0.00256627 0.00265857 0.00274938 0.0028387 0.00292653 0.00301286 0.0030977 0.00318104 0.00326238 0.00334121 0.00341752 0.00349131 0.0035626 0.00363137 0.00369762 0.00376136 0.00382219 0.00387974 0.003934 0.00398497 0.00403265 0.00407704 0.00411814 0.00415596 0.00419024 0.00422074 0.00424748 0.00427043 0.00428962 0.00430503 0.00431667 0.00432453 0.00432854 0.00432863 0.0043248 0.00431704 0.00430535 0.00428974 0.00427021 0.00424675 0.00421948 0.0041885 0.00415381 0.00411541 0.00407331 0.0040275 0.00397798 0.00392475 0.00386812 0.00380838 0.00374553 0.00367958 0.00361052 0.00353836 0.00346309 0.00338471 0.00330371 0.0032206 0.00313536 0.003048 0.00295851 0.0028669 0.00277316 0.00267731 0.00258 0.00248191 0.00238305 0.00228341 0.002183 0.00208181 0.00197984 0.00187709 0.00177439 0.00167257 0.00157161 0.00147152 0.0013723 0.00127395 0.00117648 0.00107987 0.000984276 0.000889842 0.000796568 0.000704454 0.000613499 0.000523703 0.000435067 0.000347589 0.000266123 0.000195519 0.000135777 8.68974e-05 4.88798e-05 2.17243e-05 5.43109e-06 0 0 5.68273e-06 2.27309e-05 5.11446e-05 9.09238e-05 0.000142068 0.000204578 0.000278454 0.000363695 0.000455345 0.000548449 0.000643005 0.000739014 0.000836476 0.000935391 0.00103576 0.00113758 0.00124079 0.00134531 0.00145115 0.0015583 0.00166678 0.00177656 0.00188767 0.00200009 0.00211302 0.00222563 0.00233794 0.00244994 0.00256163 0.00267301 0.00278408 0.00289484 0.00300458 0.00311256 0.0032188 0.00332329 0.00342603 0.00352702 0.00362626 0.00372375 0.0038189 0.0039111 0.00400037 0.00408669 0.00417007 0.00425051 0.004328 0.00440256 0.00447371 0.00454102 0.00460449 0.0046641 0.00471987 0.00477179 0.00481986 0.00486408 0.00490417 0.00493985 0.00497111 0.00499796 0.00502039 0.0050384 0.00505201 0.00506119 0.00506588 0.00506597 0.00506148 0.00505239 0.00503871 0.00502045 0.00499759 0.00497014 0.00493823 0.00490198 0.00486139 0.00481647 0.00476721 0.00471362 0.00465569 0.00459342 0.00452717 0.00445728 0.00438376 0.00430661 0.00422583 0.00414141 0.00405335 0.00396167 0.00386692 0.0037697 0.00366998 0.00356779 0.00346311 0.00335594 0.00324629 0.00313416 0.00302032 0.00290558 0.00278993 0.00267336 0.00255588 0.00243749 0.0023182 0.00219798 0.00207782 0.00195868 0.00184054 0.00172342 0.00160731 0.00149221 0.00137812 0.00126505 0.00115315 0.00104259 0.000933372 0.000825495 0.000718957 0.00061376 0.000509903 0.000407387 0.000311905 0.000229155 0.000159135 0.000101847 5.72887e-05 2.54617e-05 6.36541e-06 0 0 6.53105e-06 2.61242e-05 5.87794e-05 0.000104497 0.000163276 0.000235118 0.000320021 0.000417987 0.000523307 0.000630273 0.000738885 0.000849143 0.000961048 0.0010746 0.00118979 0.00130664 0.00142505 0.00154497 0.00166639 0.00178931 0.00191374 0.00203966 0.00216709 0.00229602 0.00242552 0.00255466 0.00268344 0.00281187 0.00293993 0.00306764 0.00319499 0.00332198 0.00344778 0.00357158 0.00369338 0.00381316 0.00393094 0.00404672 0.00416049 0.00427225 0.00438132 0.00448702 0.00458934 0.00468829 0.00478387 0.00487607 0.0049649 0.00505036 0.00513192 0.00520907 0.00528181 0.00535014 0.00541406 0.00547356 0.00552866 0.00557934 0.00562529 0.00566617 0.005702 0.00573276 0.00575846 0.0057791 0.00579468 0.0058052 0.00581056 0.00581065 0.00580549 0.00579506 0.00577937 0.00575841 0.0057322 0.00570072 0.00566413 0.00562256 0.00557603 0.00552452 0.00546805 0.0054066 0.00534018 0.0052688 0.00519284 0.00511273 0.00502844 0.00493999 0.00484738 0.00475061 0.00464966 0.00454456 0.00443595 0.00432449 0.00421018 0.00409302 0.00397302 0.00385016 0.00372446 0.00359591 0.00346541 0.00333387 0.00320127 0.00306763 0.00293294 0.00279721 0.00266042 0.00252259 0.00238481 0.00224818 0.00211271 0.00197838 0.00184521 0.0017132 0.00158234 0.00145263 0.00132425 0.00119739 0.00107204 0.000948212 0.000825897 0.000705098 0.000585813 0.000468045 0.000358347 0.000263275 0.00018283 0.000117011 6.58188e-05 2.92528e-05 7.3132e-06 0 0 7.39213e-06 2.95685e-05 6.65292e-05 0.000118274 0.000184803 0.000266117 0.000362214 0.000473096 0.000592288 0.000713313 0.000836173 0.000960867 0.0010874 0.00121576 0.00134595 0.00147799 0.00161178 0.00174725 0.00188442 0.00202326 0.0021638 0.00230602 0.00244992 0.00259551 0.00274174 0.00288756 0.00303297 0.00317797 0.00332256 0.00346674 0.0036105 0.00375386 0.00389588 0.00403563 0.00417312 0.00430833 0.00444128 0.00457197 0.00470038 0.00482653 0.00494964 0.00506894 0.00518443 0.00529612 0.00540399 0.00550806 0.00560831 0.00570476 0.00579681 0.00588389 0.00596598 0.00604309 0.00611522 0.00618238 0.00624455 0.00630174 0.00635359 0.00639972 0.00644014 0.00647485 0.00650384 0.00652712 0.00654469 0.00655655 0.00656258 0.00656267 0.00655683 0.00654504 0.00652731 0.00650365 0.00647404 0.0064385 0.00639718 0.00635025 0.00629772 0.00623957 0.00617581 0.00610645 0.00603147 0.00595089 0.00586515 0.00577471 0.00567957 0.00557973 0.00547519 0.00536595 0.00525201 0.00513338 0.00501078 0.00488497 0.00475594 0.0046237 0.00448824 0.00434957 0.00420768 0.00406257 0.00391527 0.00376678 0.0036171 0.00346623 0.00331418 0.00316094 0.00300652 0.0028509 0.00269534 0.00254108 0.0023881 0.00223642 0.00208603 0.00193693 0.00178912 0.0016426 0.00149758 0.00135423 0.00121258 0.00107261 0.000934318 0.000797715 0.000662797 0.000529564 0.000405447 0.00029788 0.000206861 0.000132391 7.44699e-05 3.30977e-05 8.27443e-06 0 0 8.26599e-06 3.30639e-05 7.43939e-05 0.000132256 0.00020665 0.000297576 0.000405033 0.000529023 0.000662288 0.000797569 0.000934869 0.00107419 0.00121552 0.00135887 0.00150424 0.00165162 0.00180095 0.00195215 0.00210522 0.00226015 0.00241696 0.00257563 0.00273617 0.00289858 0.00306169 0.00322434 0.00338653 0.00354825 0.00370951 0.0038703 0.00403063 0.0041905 0.00434887 0.00450471 0.00465802 0.0048088 0.00495704 0.00510276 0.00524594 0.0053866 0.00552387 0.00565688 0.00578565 0.00591017 0.00603044 0.00614647 0.00625824 0.00636577 0.00646839 0.00656547 0.00665698 0.00674295 0.00682336 0.00689822 0.00696753 0.00703128 0.00708907 0.00714049 0.00718554 0.00722422 0.00725653 0.00728247 0.00730204 0.00731524 0.00732195 0.00732203 0.00731549 0.00730234 0.00728255 0.00725615 0.00722312 0.00718348 0.00713739 0.00708505 0.00702646 0.00696161 0.00689051 0.00681316 0.00672955 0.00663969 0.00654408 0.00644324 0.00633715 0.00622582 0.00610926 0.00598745 0.0058604 0.00572812 0.00559142 0.00545114 0.00530727 0.00515982 0.00500878 0.00485415 0.00469594 0.00453414 0.00436989 0.00420431 0.0040374 0.00386916 0.0036996 0.0035287 0.00335648 0.00318293 0.00300943 0.00283736 0.00266673 0.00249752 0.00232974 0.00216339 0.00199847 0.00183498 0.00167313 0.00151313 0.00135498 0.00119868 0.00104422 0.000891612 0.000740854 0.000591944 0.000453207 0.000332968 0.000231228 0.000147986 8.32421e-05 3.69965e-05 9.24912e-06 0 0 9.15262e-06 3.66105e-05 8.23735e-05 0.000146442 0.000228815 0.000329494 0.000448478 0.000585767 0.000733307 0.000883042 0.00103497 0.0011891 0.00134542 0.00150394 0.00166465 0.00182755 0.00199258 0.00215966 0.0023288 0.00249998 0.00267321 0.0028485 0.00302583 0.00320522 0.00338537 0.003565 0.00374411 0.00392271 0.00410078 0.00427834 0.00445538 0.00463189 0.00480675 0.00497882 0.00514808 0.00531455 0.00547822 0.0056391 0.00579717 0.00595246 0.00610399 0.00625084 0.00639299 0.00653045 0.00666322 0.0067913 0.00691468 0.00703338 0.00714666 0.00725381 0.00735483 0.00744972 0.00753847 0.0076211 0.00769759 0.00776795 0.00783173 0.00788848 0.00793819 0.00798087 0.00801652 0.00804514 0.00806672 0.00808128 0.00808866 0.00808873 0.00808149 0.00806694 0.00804509 0.00801592 0.00797944 0.00793565 0.00788476 0.00782696 0.00776226 0.00769065 0.00761215 0.00752673 0.00743442 0.00733521 0.00722965 0.0071183 0.00700118 0.00687827 0.00674957 0.0066151 0.00647484 0.00632879 0.00617788 0.006023 0.00586417 0.00570138 0.00553463 0.00536392 0.00518925 0.00501062 0.00482928 0.00464646 0.00446217 0.00427642 0.00408919 0.00390049 0.00371031 0.00351867 0.00332707 0.00313704 0.00294858 0.00276168 0.00257635 0.00239259 0.00221039 0.00202976 0.00185092 0.00167408 0.00149925 0.00132642 0.0011556 0.00098679 0.000819984 0.000655185 0.000501626 0.000368541 0.000255932 0.000163796 9.21353e-05 4.0949e-05 1.02373e-05 0 0 1.0052e-05 4.02081e-05 9.04681e-05 0.000160832 0.0002513 0.000361873 0.000492549 0.000643329 0.000805345 0.00096973 0.00113648 0.0013056 0.00147709 0.00165095 0.00182718 0.00200577 0.00218667 0.0023698 0.00255515 0.00274274 0.00293257 0.00312462 0.0033189 0.00351542 0.00371277 0.00390953 0.00410573 0.00430134 0.00449638 0.00469084 0.00488473 0.00507804 0.00526953 0.00545795 0.00564331 0.0058256 0.00600482 0.00618098 0.00635407 0.0065241 0.00669002 0.0068508 0.00700645 0.00715695 0.00730232 0.00744255 0.00757764 0.00770759 0.00783161 0.00794892 0.00805952 0.00816339 0.00826056 0.00835101 0.00843474 0.00851176 0.00858158 0.00864369 0.0086981 0.00874481 0.00878382 0.00881513 0.00883874 0.00885465 0.00886271 0.00886277 0.00885482 0.00883887 0.00881491 0.00878295 0.00874299 0.00869502 0.00863927 0.00857597 0.00850511 0.00842669 0.00834071 0.00824717 0.00814608 0.00803743 0.00792184 0.00779991 0.00767165 0.00753706 0.00739614 0.00724889 0.00709531 0.00693539 0.00677014 0.00660056 0.00642664 0.00624838 0.00606579 0.00587886 0.0056876 0.005492 0.00529343 0.00509323 0.00489143 0.004688 0.00448295 0.00427629 0.00406802 0.00385812 0.00364827 0.00344012 0.00323367 0.00302892 0.00282587 0.00262453 0.00242488 0.00222694 0.00203093 0.00183707 0.00164538 0.00145584 0.00126847 0.00108325 0.000900188 0.000719287 0.000550704 0.000404599 0.000280971 0.000179822 0.00010115 4.49554e-05 1.12389e-05 0 0 1.09633e-05 4.38532e-05 9.86698e-05 0.000175413 0.000274083 0.000394679 0.000537202 0.000701652 0.000878334 0.00105755 0.00123931 0.00142361 0.00161044 0.00179982 0.00199173 0.00218618 0.00238311 0.00258244 0.00278419 0.00298835 0.00319493 0.00340391 0.00361531 0.00382912 0.00404382 0.00425788 0.00447131 0.0046841 0.00489625 0.00510777 0.00531866 0.00552891 0.00573717 0.00594209 0.00614368 0.00634192 0.00653683 0.0067284 0.00691663 0.00710152 0.00728195 0.00745679 0.00762604 0.0077897 0.00794776 0.00810024 0.00824713 0.00838842 0.00852327 0.00865082 0.00877107 0.00888401 0.00898965 0.00908798 0.00917901 0.00926274 0.00933864 0.00940615 0.0094653 0.00951607 0.00955846 0.00959249 0.00961814 0.00963541 0.00964415 0.00964418 0.00963551 0.00961814 0.00959207 0.00955729 0.00951381 0.00946162 0.00940098 0.00933212 0.00925504 0.00916975 0.00907623 0.00897451 0.00886456 0.0087464 0.00862068 0.00848808 0.0083486 0.00820223 0.00804898 0.00788885 0.00772183 0.00754793 0.00736822 0.00718381 0.00699467 0.00680082 0.00660226 0.00639897 0.00619098 0.00597826 0.00576231 0.00554459 0.00532511 0.00510386 0.00488084 0.00465606 0.00442952 0.00420121 0.00397293 0.00374649 0.00352189 0.00329912 0.00307819 0.00285909 0.00264183 0.00242641 0.00221305 0.00200201 0.00179327 0.00158684 0.00138271 0.0011809 0.00098139 0.000784189 0.000600394 0.000441106 0.000306324 0.000196047 0.000110277 4.90118e-05 1.22529e-05 0 0 1.18856e-05 4.75424e-05 0.00010697 0.00019017 0.00029714 0.000427882 0.000582395 0.000760679 0.000952202 0.00114643 0.00134337 0.00154302 0.00174537 0.00195043 0.00215819 0.00236867 0.00258179 0.0027975 0.00301581 0.00323671 0.00346021 0.00368629 0.00391497 0.00414624 0.00437846 0.00460998 0.0048408 0.00507093 0.00530036 0.00552909 0.00575712 0.00598446 0.00620965 0.00643121 0.00664917 0.00686351 0.00707424 0.00728135 0.00748485 0.00768474 0.00787979 0.0080688 0.00825177 0.00842869 0.00859956 0.00876439 0.00892317 0.0090759 0.00922167 0.00935954 0.00948951 0.00961158 0.00972576 0.00983205 0.00993044 0.0100209 0.0101029 0.0101759 0.0102398 0.0102947 0.0103405 0.0103772 0.0104049 0.0104236 0.010433 0.010433 0.0104236 0.0104048 0.0103766 0.010339 0.0102919 0.0102355 0.0101699 0.0100954 0.0100121 0.00991987 0.00981875 0.00970876 0.00958988 0.00946212 0.0093262 0.00918284 0.00903204 0.00887379 0.00870811 0.00853498 0.00835441 0.0081664 0.00797212 0.00777274 0.00756826 0.00735868 0.007144 0.00692423 0.00669935 0.00646937 0.00623589 0.00600049 0.00576317 0.00552394 0.00528279 0.00503973 0.00479475 0.00454785 0.00430098 0.00405608 0.00381315 0.00357219 0.0033332 0.00309618 0.00286113 0.00262805 0.00239718 0.00216876 0.0019428 0.0017193 0.00149825 0.00127965 0.00106351 0.00084983 0.000650651 0.000478029 0.000331965 0.000212457 0.000119507 5.31144e-05 1.32786e-05 0 0 1.28189e-05 5.12757e-05 0.00011537 0.000205103 0.000320473 0.000461481 0.000628127 0.000820411 0.00102695 0.00123637 0.00144866 0.00166382 0.00188186 0.00210278 0.00232657 0.00255323 0.00278272 0.00301498 0.00325002 0.00348782 0.0037284 0.00397175 0.00421788 0.00446678 0.00471668 0.00496582 0.0052142 0.00546182 0.00570869 0.00595479 0.00620013 0.00644471 0.00668696 0.00692532 0.00715978 0.00739036 0.00761704 0.00783983 0.00805873 0.00827373 0.00848354 0.00868684 0.00888363 0.00907392 0.00925771 0.00943498 0.00960576 0.00977002 0.00992679 0.0100751 0.0102148 0.0103461 0.0104689 0.0105832 0.010689 0.0107863 0.0108745 0.010953 0.0110217 0.0110806 0.0111299 0.0111694 0.0111992 0.0112192 0.0112293 0.0112293 0.0112191 0.0111989 0.0111685 0.011128 0.0110774 0.0110166 0.0109461 0.0108659 0.0107763 0.010677 0.0105683 0.0104499 0.0103221 0.0101846 0.0100384 0.00988419 0.00972197 0.00955174 0.00937351 0.00918728 0.00899305 0.00879081 0.00858183 0.00836736 0.00814741 0.00792197 0.00769104 0.00745462 0.00721272 0.00696533 0.00671416 0.00646092 0.00620562 0.00594824 0.0056888 0.00542728 0.0051637 0.00489805 0.00463242 0.00436888 0.00410746 0.00384813 0.00359091 0.00333579 0.00308277 0.00283186 0.0025833 0.00233734 0.00209398 0.00185323 0.00161507 0.00137952 0.00114656 0.000916209 0.000701473 0.000515368 0.000357894 0.000229052 0.000128842 5.72631e-05 1.43158e-05 0 0 1.37632e-05 5.5053e-05 0.000123869 0.000220212 0.000344081 0.000495477 0.000674399 0.000880847 0.00110258 0.00132735 0.00155517 0.00178603 0.00201993 0.00225687 0.00249685 0.00273988 0.0029859 0.00323487 0.0034868 0.00374168 0.00399951 0.0042603 0.00452404 0.00479073 0.00505849 0.00532541 0.00559152 0.00585679 0.00612124 0.00638487 0.00664766 0.00690963 0.00716911 0.0074244 0.00767552 0.00792247 0.00816524 0.00840384 0.00863827 0.00886852 0.00909319 0.0093109 0.00952164 0.00972541 0.00992221 0.010112 0.0102949 0.0104708 0.0106386 0.0107974 0.0109471 0.0110876 0.0112191 0.0113415 0.0114547 0.0115589 0.0116533 0.0117373 0.0118108 0.011874 0.0119267 0.0119689 0.0120008 0.0120222 0.012033 0.0120329 0.012022 0.0120003 0.0119677 0.0119243 0.0118701 0.0118051 0.0117295 0.0116436 0.0115476 0.0114413 0.0113248 0.011198 0.0110611 0.0109139 0.0107573 0.0105921 0.0104184 0.0102361 0.0100452 0.00984576 0.00963775 0.00942117 0.00919736 0.00896768 0.00873212 0.00849067 0.00824336 0.00799016 0.00773109 0.00746613 0.00719713 0.0069259 0.00665245 0.00637677 0.00609887 0.00581874 0.00553639 0.00525181 0.00496724 0.0046849 0.0044048 0.00412694 0.00385131 0.00357792 0.00330677 0.00303785 0.00277143 0.00250775 0.00224681 0.00198862 0.00173318 0.00148048 0.00123053 0.000983328 0.000752861 0.000553122 0.000384113 0.000245832 0.000138281 6.1458e-05 1.53645e-05 0 0 1.47186e-05 5.88743e-05 0.000132467 0.000235497 0.000367964 0.000529869 0.00072121 0.000941989 0.00117909 0.0014194 0.00166291 0.00190964 0.00215957 0.0024127 0.00266905 0.0029286 0.00319132 0.00345718 0.00372617 0.00399829 0.00427354 0.00455193 0.00483345 0.0051181 0.00540388 0.00568876 0.00597274 0.00625583 0.00653803 0.00681933 0.00709974 0.00737925 0.00765609 0.00792847 0.00819639 0.00845984 0.00871884 0.00897338 0.00922346 0.00946908 0.00970875 0.00994099 0.0101658 0.0103831 0.0105931 0.0107955 0.0109906 0.0111782 0.0113572 0.0115266 0.0116862 0.0118361 0.0119763 0.0121068 0.0122276 0.0123387 0.0124394 0.0125289 0.0126073 0.0126747 0.0127308 0.0127759 0.0128098 0.0128326 0.0128441 0.012844 0.0128323 0.0128091 0.0127744 0.012728 0.0126702 0.0126007 0.0125201 0.0124285 0.012326 0.0122126 0.0120883 0.0119531 0.01