<?xml version="1.0"?> 
<VTKFile type="StructuredGrid" version="0.1"> 
<StructuredGrid WholeExtent="0 128 0 128 0 0"> 
<Piece Extent="0 128 0 128 0 0"> 
<PointData>
<DataArray type="Float32" Name="u" format="ascii" NumberOfComponents="1"> 
0 0 0 0 0 0 0 0 0 0 0 0 0 0 0 0 0 0 0 0 0 0 0 0 0 0 0 0 0 0 0 0 0 0 0 0 0 0 0 0 0 0 0 0 0 0 0 0 0 0 0 0 0 0 0 0 0 0 0 0 0 0 0 0 0 0 0 0 0 0 0 0 0 0 0 0 0 0 0 0 0 0 0 0 0 0 0 0 0 0 0 0 0 0 0 0 0 0 0 0 0 0 0 0 0 0 0 0 0 0 0 0 0 0 0 0 0 0 0 0 0 0 0 0 0 0 0 0 0 0 4.67974e-08 1.8719e-07 4.21176e-07 7.48758e-07 1.16993e-06 1.68471e-06 2.29307e-06 2.99503e-06 3.75077e-06 4.52048e-06 5.30415e-06 6.10179e-06 6.91339e-06 7.73896e-06 8.57849e-06 9.43199e-06 1.02992e-05 1.118e-05 1.20743e-05 1.29822e-05 1.39036e-05 1.48385e-05 1.57869e-05 1.67489e-05 1.77179e-05 1.86873e-05 1.96573e-05 2.06277e-05 2.15986e-05 2.25699e-05 2.35418e-05 2.45141e-05 2.54808e-05 2.64356e-05 2.73787e-05 2.83099e-05 2.92294e-05 3.0137e-05 3.10329e-05 3.1917e-05 3.27837e-05 3.36277e-05 3.4449e-05 3.52474e-05 3.60231e-05 3.67761e-05 3.75062e-05 3.82136e-05 3.88937e-05 3.95418e-05 4.0158e-05 4.07422e-05 4.12945e-05 4.18148e-05 4.23033e-05 4.27597e-05 4.3181e-05 4.35636e-05 4.39076e-05 4.4213e-05 4.44799e-05 4.47081e-05 4.48978e-05 4.50488e-05 4.51596e-05 4.52285e-05 4.52555e-05 4.52406e-05 4.51837e-05 4.50849e-05 4.49442e-05 4.47616e-05 4.45375e-05 4.42722e-05 4.39657e-05 4.3618e-05 4.32292e-05 4.27992e-05 4.23281e-05 4.18158e-05 4.1265e-05 4.06784e-05 4.00559e-05 3.93977e-05 3.87036e-05 3.79737e-05 3.72079e-05 3.64063e-05 3.5574e-05 3.4716e-05 3.38323e-05 3.29228e-05 3.19877e-05 3.1027e-05 3.00405e-05 2.90283e-05 2.79978e-05 2.69565e-05 2.59042e-05 2.48411e-05 2.37671e-05 2.26823e-05 2.15865e-05 2.04799e-05 1.93717e-05 1.82713e-05 1.71788e-05 1.6094e-05 1.50171e-05 1.3948e-05 1.28867e-05 1.18332e-05 1.07896e-05 9.75789e-06 8.73807e-06 7.73015e-06 6.73413e-06 5.75001e-06 4.77779e-06 3.81747e-06 2.92275e-06 2.14733e-06 1.4912e-06 9.54367e-07 5.36832e-07 2.38592e-07 5.9648e-08 0 0 1.8719e-07 7.48758e-07 1.68471e-06 2.99503e-06 4.67974e-06 6.73882e-06 9.17229e-06 1.19801e-05 1.50031e-05 1.80819e-05 2.12166e-05 2.44072e-05 2.76536e-05 3.09558e-05 3.4314e-05 3.7728e-05 4.11969e-05 4.47201e-05 4.82973e-05 5.19287e-05 5.56142e-05 5.93539e-05 6.31477e-05 6.69956e-05 7.08715e-05 7.47494e-05 7.86291e-05 8.25107e-05 8.63943e-05 9.02798e-05 9.41671e-05 9.80564e-05 0.000101923 0.000105742 0.000109515 0.00011324 0.000116918 0.000120548 0.000124132 0.000127668 0.000131135 0.000134511 0.000137796 0.00014099 0.000144093 0.000147104 0.000150025 0.000152855 0.000155575 0.000158167 0.000160632 0.000162969 0.000165178 0.000167259 0.000169213 0.000171039 0.000172724 0.000174254 0.00017563 0.000176852 0.00017792 0.000178833 0.000179591 0.000180195 0.000180639 0.000180914 0.000181022 0.000180962 0.000180735 0.00018034 0.000179777 0.000179046 0.00017815 0.000177089 0.000175863 0.000174472 0.000172917 0.000171197 0.000169312 0.000167263 0.00016506 0.000162714 0.000160224 0.000157591 0.000154814 0.000151895 0.000148832 0.000145625 0.000142296 0.000138864 0.000135329 0.000131691 0.000127951 0.000124108 0.000120162 0.000116113 0.000111991 0.000107826 0.000103617 9.93645e-05 9.50686e-05 9.07291e-05 8.6346e-05 8.19195e-05 7.74867e-05 7.30853e-05 6.87151e-05 6.43762e-05 6.00685e-05 5.5792e-05 5.15469e-05 4.73329e-05 4.31584e-05 3.90316e-05 3.49523e-05 3.09206e-05 2.69365e-05 2.3e-05 1.91111e-05 1.52699e-05 1.1691e-05 8.58931e-06 5.9648e-06 3.81747e-06 2.14733e-06 9.54367e-07 2.38592e-07 0 0 4.21176e-07 1.68471e-06 3.79059e-06 6.73882e-06 1.05294e-05 1.51624e-05 2.06376e-05 2.69553e-05 3.3757e-05 4.06843e-05 4.77374e-05 5.49161e-05 6.22205e-05 6.96506e-05 7.72064e-05 8.48879e-05 9.26931e-05 0.00010062 0.000108669 0.00011684 0.000125132 0.000133546 0.000142082 0.00015074 0.000159461 0.000168186 0.000176915 0.000185649 0.000194387 0.000203129 0.000211876 0.000220627 0.000229327 0.000237921 0.000246408 0.000254789 0.000263065 0.000271233 0.000279296 0.000287253 0.000295054 0.00030265 0.000310041 0.000317227 0.000324208 0.000330985 0.000337556 0.000343923 0.000350043 0.000355876 0.000361422 0.00036668 0.00037165 0.000376334 0.000380729 0.000384838 0.000388629 0.000392072 0.000395168 0.000397917 0.000400319 0.000402373 0.00040408 0.00040544 0.000406437 0.000407057 0.0004073 0.000407165 0.000406653 0.000405764 0.000404498 0.000402855 0.000400837 0.000398449 0.000395691 0.000392562 0.000389063 0.000385193 0.000380953 0.000376342 0.000371385 0.000366106 0.000360503 0.000354579 0.000348332 0.000341763 0.000334871 0.000327657 0.000320166 0.000312444 0.00030449 0.000296306 0.00028789 0.000279243 0.000270364 0.000261255 0.00025198 0.000242608 0.000233138 0.00022357 0.000213904 0.00020414 0.000194279 0.000184319 0.000174345 0.000164442 0.000154609 0.000144846 0.000135154 0.000125532 0.00011598 0.000106499 9.71065e-05 8.7821e-05 7.86426e-05 6.95713e-05 6.06071e-05 5.17501e-05 4.30001e-05 3.43572e-05 2.63047e-05 1.93259e-05 1.34208e-05 8.58931e-06 4.83148e-06 2.14733e-06 5.36832e-07 0 0 7.48758e-07 2.99503e-06 6.73882e-06 1.19801e-05 1.8719e-05 2.69553e-05 3.66892e-05 4.79205e-05 6.00124e-05 7.23277e-05 8.48664e-05 9.76286e-05 0.000110614 0.000123823 0.000137256 0.000150912 0.000164788 0.00017888 0.000193189 0.000207715 0.000222457 0.000237416 0.000252591 0.000267982 0.000283486 0.000298997 0.000314516 0.000330043 0.000345577 0.000361119 0.000376669 0.000392226 0.000407692 0.00042297 0.000438059 0.000452959 0.00046767 0.000482193 0.000496526 0.000510671 0.00052454 0.000538044 0.000551183 0.000563959 0.00057637 0.000588417 0.0006001 0.000611418 0.000622299 0.000632669 0.000642527 0.000651875 0.000660712 0.000669037 0.000676852 0.000684156 0.000690895 0.000697017 0.000702522 0.000707409 0.000711678 0.00071533 0.000718365 0.000720781 0.000722554 0.000723657 0.000724088 0.000723849 0.000722939 0.000721359 0.000719108 0.000716186 0.000712599 0.000708354 0.000703451 0.000697888 0.000691667 0.000684788 0.00067725 0.000669053 0.00066024 0.000650854 0.000640895 0.000630363 0.000619257 0.000607578 0.000595326 0.000582501 0.000569184 0.000555456 0.000541316 0.000526766 0.000511804 0.000496431 0.000480647 0.000464453 0.000447965 0.000431304 0.000414468 0.000397458 0.000380274 0.000362916 0.000345384 0.000327678 0.000309947 0.000292341 0.00027486 0.000257505 0.000240274 0.000223168 0.000206187 0.000189332 0.000172634 0.000156126 0.000139809 0.000123682 0.000107746 9.20001e-05 7.64446e-05 6.10795e-05 4.6764e-05 3.43572e-05 2.38592e-05 1.52699e-05 8.58931e-06 3.81747e-06 9.54367e-07 0 0 1.16993e-06 4.67974e-06 1.05294e-05 1.8719e-05 2.92484e-05 4.21176e-05 5.73268e-05 7.48758e-05 9.37693e-05 0.000113012 0.000132604 0.000152545 0.000172835 0.000193474 0.000214462 0.0002358 0.000257481 0.0002795 0.000301858 0.000324554 0.000347589 0.000370962 0.000394673 0.000418722 0.000442947 0.000467183 0.000491432 0.000515692 0.000539964 0.000564249 0.000588545 0.000612853 0.000637019 0.000660891 0.000684467 0.000707748 0.000730735 0.000753426 0.000775823 0.000797924 0.000819593 0.000840693 0.000861224 0.000881186 0.000900578 0.000919402 0.000937656 0.000955341 0.000972342 0.000988545 0.00100395 0.00101855 0.00103236 0.00104537 0.00105758 0.00106899 0.00107952 0.00108909 0.00109769 0.00110533 0.001112 0.0011177 0.00112244 0.00112622 0.00112899 0.00113071 0.00113139 0.00113101 0.00112959 0.00112712 0.00112361 0.00111904 0.00111344 0.0011068 0.00109914 0.00109045 0.00108073 0.00106998 0.0010582 0.0010454 0.00103163 0.00101696 0.0010014 0.000984942 0.000967589 0.000949341 0.000930198 0.000910158 0.00088935 0.000867899 0.000845806 0.000823071 0.000799694 0.000775674 0.000751012 0.000725707 0.000699946 0.000673912 0.000647606 0.000621028 0.000594179 0.000567057 0.000539663 0.000511997 0.000484292 0.000456783 0.000429469 0.000402351 0.000375428 0.0003487 0.000322168 0.000295831 0.00026974 0.000243947 0.000218452 0.000193254 0.000168353 0.00014375 0.000119445 9.54367e-05 7.30687e-05 5.36832e-05 3.728e-05 2.38592e-05 1.34208e-05 5.9648e-06 1.4912e-06 0 0 1.68471e-06 6.73882e-06 1.51624e-05 2.69553e-05 4.21176e-05 6.06494e-05 8.25506e-05 0.000107821 0.000135028 0.000162737 0.000190949 0.000219664 0.000248882 0.000278602 0.000308826 0.000339552 0.000370773 0.000402481 0.000434676 0.000467358 0.000500528 0.000534185 0.000568329 0.00060296 0.000637844 0.000672744 0.000707662 0.000742597 0.000777549 0.000812518 0.000847504 0.000882508 0.000917307 0.000951682 0.000985632 0.00101916 0.00105226 0.00108493 0.00111718 0.00114901 0.00118021 0.0012106 0.00124016 0.00126891 0.00129683 0.00132394 0.00135022 0.00137569 0.00140017 0.0014235 0.00144569 0.00146672 0.0014866 0.00150533 0.00152292 0.00153935 0.00155451 0.00156829 0.00158067 0.00159167 0.00160128 0.00160949 0.00161632 0.00162176 0.00162575 0.00162823 0.0016292 0.00162866 0.00162661 0.00162306 0.00161799 0.00161142 0.00160335 0.0015938 0.00158276 0.00157025 0.00155625 0.00154077 0.00152381 0.00150537 0.00148554 0.00146442 0.00144201 0.00141832 0.00139333 0.00136705 0.00133948 0.00131063 0.00128066 0.00124977 0.00121796 0.00118522 0.00115156 0.00111697 0.00108146 0.00104502 0.00100792 0.000970433 0.000932553 0.000894281 0.000855617 0.000816562 0.000777114 0.000737275 0.000697381 0.000657768 0.000618436 0.000579385 0.000540616 0.000502128 0.000463922 0.000425996 0.000388426 0.000351284 0.00031457 0.000278285 0.000242429 0.000207 0.000172 0.000137429 0.000105219 7.73038e-05 5.36832e-05 3.43572e-05 1.93259e-05 8.58931e-06 2.14733e-06 0 0 2.29307e-06 9.17229e-06 2.06376e-05 3.66892e-05 5.73268e-05 8.25506e-05 0.000112361 0.000146757 0.000183788 0.000221504 0.000259903 0.000298988 0.000338756 0.000379209 0.000420346 0.000462167 0.000504663 0.000547821 0.000591642 0.000636127 0.000681274 0.000727085 0.000773559 0.000820696 0.000868176 0.00091568 0.000963206 0.00101076 0.00105833 0.00110593 0.00115355 0.00120119 0.00124856 0.00129535 0.00134156 0.00138719 0.00143224 0.00147672 0.00152061 0.00156393 0.0016064 0.00164776 0.001688 0.00172712 0.00176513 0.00180203 0.00183781 0.00187247 0.00190579 0.00193755 0.00196774 0.00199637 0.00202343 0.00204893 0.00207286 0.00209523 0.00211587 0.00213462 0.00215147 0.00216644 0.00217951 0.0021907 0.00219999 0.00220739 0.00221282 0.0022162 0.00221752 0.00221679 0.002214 0.00220916 0.00220227 0.00219332 0.00218234 0.00216934 0.00215432 0.00213728 0.00211823 0.00209716 0.00207408 0.00204897 0.00202199 0.00199324 0.00196274 0.00193049 0.00189648 0.00186071 0.00182319 0.00178391 0.00174313 0.00170108 0.00165778 0.00161322 0.0015674 0.00152032 0.00147198 0.00142239 0.00137189 0.00132087 0.00126931 0.00121722 0.00116459 0.00111143 0.00105774 0.00100351 0.000949213 0.000895295 0.00084176 0.000788608 0.000735839 0.000683453 0.000631449 0.000579829 0.000528691 0.000478137 0.000428165 0.000378777 0.000329972 0.00028175 0.000234112 0.000187056 0.000143215 0.000105219 7.30687e-05 4.6764e-05 2.63047e-05 1.1691e-05 2.92275e-06 0 0 2.99503e-06 1.19801e-05 2.69553e-05 4.79205e-05 7.48758e-05 0.000107821 0.000146757 0.000191682 0.00024005 0.000289311 0.000339466 0.000390514 0.000442457 0.000495293 0.000549023 0.000603647 0.000659151 0.000715521 0.000772757 0.000830859 0.000889828 0.000949662 0.00101036 0.00107193 0.00113394 0.00119599 0.00125807 0.00132017 0.00138231 0.00144448 0.00150667 0.0015689 0.00163077 0.00169188 0.00175224 0.00181184 0.00187068 0.00192877 0.00198611 0.00204269 0.00209816 0.00215217 0.00220473 0.00225584 0.00230548 0.00235367 0.0024004 0.00244567 0.0024892 0.00253067 0.00257011 0.0026075 0.00264285 0.00267615 0.00270741 0.00273662 0.00276358 0.00278807 0.00281009 0.00282963 0.00284671 0.00286132 0.00287346 0.00288313 0.00289022 0.00289463 0.00289635 0.0028954 0.00289176 0.00288543 0.00287643 0.00286474 0.0028504 0.00283342 0.0028138 0.00279155 0.00276667 0.00273915 0.002709 0.00267621 0.00264096 0.00260342 0.00256358 0.00252145 0.00247703 0.00243031 0.00238131 0.00233 0.00227674 0.00222182 0.00216526 0.00210706 0.00204722 0.00198572 0.00192259 0.00185781 0.00179186 0.00172521 0.00165787 0.00158983 0.0015211 0.00145166 0.00138154 0.00131071 0.00123979 0.00116936 0.00109944 0.00103002 0.000961096 0.000892673 0.00082475 0.000757327 0.000690535 0.000624505 0.000559236 0.000494729 0.000430984 0.000368 0.000305778 0.000244318 0.000187056 0.000137429 9.54367e-05 6.10795e-05 3.43572e-05 1.52699e-05 3.81747e-06 0 0 3.75034e-06 1.50014e-05 3.37531e-05 6.00055e-05 9.37586e-05 0.000135012 0.000183767 0.000240022 0.000300585 0.000362263 0.000425056 0.000488963 0.000553986 0.000620123 0.000687376 0.000755743 0.000825209 0.000895757 0.000967387 0.0010401 0.00111389 0.00118877 0.00126473 0.00134177 0.00141937 0.00149701 0.00157469 0.0016524 0.00173015 0.00180794 0.00188576 0.00196363 0.00204103 0.0021175 0.00219301 0.00226758 0.00234121 0.00241389 0.00248562 0.00255641 0.00262582 0.0026934 0.00275916 0.00282309 0.0028852 0.00294549 0.00300396 0.0030606 0.00311505 0.00316694 0.00321628 0.00326305 0.00330727 0.00334894 0.00338804 0.00342459 0.00345831 0.00348895 0.00351649 0.00354094 0.0035623 0.00358057 0.00359575 0.00360785 0.00361671 0.00362222 0.00362438 0.00362318 0.00361862 0.0036107 0.00359943 0.00358481 0.00356685 0.0035456 0.00352106 0.00349322 0.00346208 0.00342765 0.00338992 0.00334889 0.00330479 0.00325781 0.00320797 0.00315526 0.00309967 0.00304123 0.00297991 0.00291572 0.00284907 0.00278037 0.0027096 0.00263678 0.00256191 0.00248497 0.00240598 0.00232493 0.00224242 0.00215903 0.00207477 0.00198964 0.00190364 0.00181677 0.00172902 0.00164041 0.00155167 0.00146355 0.00137606 0.00128919 0.00120295 0.00111733 0.00103233 0.000947963 0.000864379 0.000781744 0.000700058 0.000619322 0.000539534 0.000460695 0.000382805 0.000305865 0.000234178 0.000172049 0.000119478 7.64662e-05 4.30122e-05 1.91165e-05 4.77914e-06 0 0 4.51876e-06 1.8075e-05 4.06689e-05 7.23002e-05 0.000112969 0.000162675 0.000221419 0.000289201 0.000362167 0.000436464 0.000512093 0.000589053 0.000667344 0.000746967 0.000827921 0.000910207 0.000993807 0.0010787 0.0011649 0.00125239 0.00134118 0.00143127 0.00152266 0.00161534 0.00170869 0.00180209 0.00189553 0.001989 0.00208253 0.00217609 0.00226969 0.00236334 0.00245644 0.0025484 0.00263922 0.00272891 0.00281745 0.00290486 0.00299113 0.00307626 0.00315972 0.00324099 0.00332007 0.00339695 0.00347164 0.00354413 0.00361443 0.00368254 0.00374801 0.0038104 0.00386972 0.00392597 0.00397913 0.00402922 0.00407624 0.00412018 0.00416072 0.00419754 0.00423065 0.00426004 0.00428572 0.00430767 0.00432592 0.00434044 0.00435109 0.0043577 0.00436028 0.00435882 0.00435332 0.00434379 0.00433022 0.00431262 0.00429102 0.00426545 0.00423592 0.00420243 0.00416498 0.00412356 0.00407818 0.00402883 0.00397578 0.00391929 0.00385934 0.00379594 0.0037291 0.0036588 0.00358506 0.00350787 0.00342772 0.00334509 0.00325999 0.00317242 0.00308237 0.00298985 0.00289485 0.00279738 0.00269815 0.00259787 0.00249654 0.00239416 0.00229073 0.00218625 0.00208072 0.00197414 0.00186741 0.00176143 0.00165619 0.0015517 0.00144796 0.00134496 0.00124271 0.00114121 0.00104064 0.00094121 0.000842906 0.000745734 0.000649691 0.000554779 0.000460997 0.000368345 0.000282015 0.000207194 0.000143885 9.20864e-05 5.17986e-05 2.30216e-05 5.7554e-06 0 0 5.30029e-06 2.12011e-05 4.77026e-05 8.48046e-05 0.000132507 0.00019081 0.000259714 0.000339218 0.000424795 0.000511914 0.000600577 0.000690783 0.000782532 0.000875824 0.00097066 0.00106704 0.00116494 0.00126436 0.00136529 0.00146774 0.00157169 0.00167716 0.00178414 0.00189263 0.0020019 0.00211121 0.00222057 0.00232998 0.00243943 0.00254893 0.00265847 0.00276805 0.00287699 0.0029846 0.00309087 0.00319581 0.00329941 0.00340168 0.00350262 0.00360222 0.00369987 0.00379495 0.00388746 0.0039774 0.00406478 0.00414958 0.00423182 0.00431149 0.00438808 0.00446107 0.00453045 0.00459624 0.00465842 0.00471701 0.004772 0.00482338 0.00487079 0.00491386 0.00495257 0.00498694 0.00501695 0.00504262 0.00506394 0.00508091 0.00509335 0.00510106 0.00510405 0.00510232 0.00509587 0.0050847 0.00506881 0.00504819 0.0050229 0.00499297 0.0049584 0.0049192 0.00487536 0.00482689 0.00477378 0.00471603 0.00465395 0.00458784 0.00451769 0.00444351 0.0043653 0.00428305 0.00419676 0.00410645 0.00401267 0.00391599 0.00381642 0.00371396 0.0036086 0.00350035 0.00338921 0.00327517 0.00315907 0.00304174 0.00292318 0.00280339 0.00268237 0.00256011 0.00243663 0.00231192 0.00218702 0.00206299 0.00193983 0.00181754 0.00169612 0.00157556 0.00145588 0.00133706 0.00121933 0.0011029 0.000987781 0.000873966 0.000761456 0.000650252 0.000540353 0.000431761 0.000330567 0.000242865 0.000168656 0.00010794 6.07163e-05 2.6985e-05 6.74626e-06 0 0 6.09492e-06 2.43797e-05 5.48543e-05 9.75187e-05 0.000152373 0.000219417 0.000298651 0.000390075 0.000488469 0.000588613 0.000690508 0.000794153 0.000899549 0.00100669 0.00111559 0.00122624 0.00133862 0.00145273 0.00156857 0.00168613 0.00180542 0.00192644 0.00204918 0.00217364 0.00229899 0.00242439 0.00254984 0.00267533 0.00280087 0.00292645 0.00305208 0.00317776 0.00330269 0.00342609 0.00354796 0.00366829 0.00378709 0.00390436 0.00402009 0.00413429 0.00424625 0.00435526 0.00446133 0.00456445 0.00466462 0.00476185 0.00485613 0.00494746 0.00503526 0.00511892 0.00519846 0.00527387 0.00534515 0.0054123 0.00547532 0.00553421 0.00558854 0.00563789 0.00568225 0.00572163 0.00575601 0.00578541 0.00580983 0.00582926 0.00584349 0.0058523 0.0058557 0.00585369 0.00584627 0.00583343 0.00581518 0.00579151 0.00576248 0.00572814 0.00568848 0.00564351 0.00559323 0.00553763 0.00547672 0.00541049 0.00533929 0.00526347 0.00518303 0.00509796 0.00500827 0.00491396 0.00481502 0.00471146 0.00460392 0.00449307 0.0043789 0.00426142 0.00414061 0.00401649 0.00388905 0.00375829 0.00362517 0.00349064 0.00335468 0.00321732 0.00307854 0.00293835 0.00279675 0.00265373 0.00251049 0.00236825 0.00222699 0.00208672 0.00194744 0.00180915 0.00167184 0.00153552 0.00140043 0.00126682 0.00113468 0.00100402 0.000874828 0.000747114 0.000620875 0.00049611 0.000379834 0.000279062 0.000193793 0.000124027 6.97654e-05 3.10069e-05 7.75172e-06 0 0 6.90266e-06 2.76106e-05 6.21239e-05 0.000110442 0.000172566 0.000248496 0.00033823 0.00044177 0.000553189 0.000666561 0.000781886 0.000899164 0.00101839 0.00113958 0.00126272 0.00138781 0.00151484 0.00164382 0.00177473 0.00190758 0.00204237 0.0021791 0.00231777 0.00245838 0.00259998 0.00274162 0.00288331 0.00302505 0.00316683 0.00330866 0.00345054 0.00359246 0.00373353 0.00387287 0.00401048 0.00414635 0.00428048 0.00441288 0.00454355 0.00467248 0.00479888 0.00492195 0.00504169 0.0051581 0.00527118 0.00538093 0.00548735 0.00559045 0.00568954 0.00578398 0.00587375 0.00595886 0.0060393 0.00611508 0.0061862 0.00625266 0.00631396 0.00636964 0.00641969 0.00646411 0.0065029 0.00653606 0.00656358 0.00658548 0.00660151 0.00661142 0.00661523 0.00661292 0.0066045 0.00658998 0.00656934 0.00654259 0.00650978 0.00647098 0.00642618 0.00637538 0.00631858 0.00625579 0.006187 0.00611221 0.00603181 0.00594619 0.00585535 0.0057593 0.00565803 0.00555153 0.00543982 0.0053229 0.00520149 0.00507633 0.00494743 0.00481478 0.00467839 0.00453826 0.00439438 0.00424675 0.00409645 0.00394455 0.00379106 0.00363596 0.00347926 0.00332097 0.00316107 0.00299957 0.00283783 0.00267719 0.00251766 0.00235924 0.00220192 0.0020457 0.00189059 0.00173659 0.00158396 0.00143296 0.00128361 0.00113589 0.000989808 0.000845366 0.000702561 0.000561393 0.000429817 0.000315784 0.000219294 0.000140348 7.89459e-05 3.50871e-05 8.77177e-06 0 0 7.7235e-06 3.0894e-05 6.95115e-05 0.000123576 0.000193088 0.000278046 0.000378452 0.000494304 0.000618955 0.000745758 0.000874711 0.00100582 0.00113907 0.00127448 0.00141203 0.00155174 0.0016936 0.00183761 0.00198377 0.00213208 0.00228254 0.00243516 0.00258992 0.00274684 0.00290485 0.00306291 0.003221 0.00337915 0.00353733 0.00369556 0.00385383 0.00401215 0.00416952 0.00432495 0.00447843 0.00462998 0.00477959 0.00492726 0.00507299 0.00521678 0.00535775 0.005495 0.00562853 0.00575834 0.00588444 0.00600683 0.00612549 0.00624045 0.00635094 0.00645623 0.00655632 0.0066512 0.00674089 0.00682537 0.00690465 0.00697872 0.00704706 0.00710911 0.00716489 0.00721439 0.00725761 0.00729454 0.0073252 0.00734958 0.00736741 0.00737843 0.00738263 0.00738001 0.00737059 0.00735434 0.00733129 0.00730142 0.00726479 0.00722148 0.00717148 0.0071148 0.00705143 0.00698136 0.00690462 0.00682118 0.00673149 0.00663598 0.00653466 0.00642752 0.00631456 0.00619578 0.00607118 0.00594077 0.00580535 0.00566577 0.005522 0.00537406 0.00522195 0.00506565 0.00490519 0.00474054 0.00457291 0.0044035 0.0042323 0.00405931 0.00388453 0.00370796 0.0035296 0.00334946 0.00316903 0.00298983 0.00281185 0.00263509 0.00245955 0.00228523 0.00211214 0.00194027 0.0017699 0.00160133 0.00143456 0.00126958 0.0011064 0.000945006 0.000785411 0.000627611 0.000480515 0.000353031 0.000245161 0.000156903 8.82578e-05 3.92257e-05 9.80642e-06 0 0 8.55745e-06 3.42298e-05 7.70171e-05 0.000136919 0.000213936 0.000308068 0.000419315 0.000547677 0.000685768 0.000826204 0.000968983 0.00111411 0.00126158 0.00141139 0.00156354 0.00171804 0.0018749 0.00203411 0.00219569 0.00235963 0.00252594 0.0026946 0.00286563 0.00303902 0.00321361 0.00338824 0.00356291 0.00373762 0.00391236 0.00408715 0.00426197 0.00443684 0.00461065 0.00478231 0.00495183 0.00511919 0.00528442 0.00544749 0.00560842 0.0057672 0.00592286 0.00607441 0.00622185 0.00636518 0.00650441 0.00663953 0.00677055 0.00689746 0.00701944 0.00713568 0.00724616 0.00735091 0.0074499 0.00754315 0.00763065 0.00771241 0.00778783 0.00785631 0.00791785 0.00797246 0.00802014 0.00806088 0.00809468 0.00812155 0.00814119 0.00815331 0.0081579 0.00815497 0.00814451 0.00812653 0.00810103 0.008068 0.00802751 0.00797965 0.0079244 0.00786177 0.00779175 0.00771436 0.00762958 0.00753741 0.00743835 0.00733286 0.00722095 0.00710262 0.00697786 0.00684669 0.00670909 0.00656507 0.00641553 0.00626138 0.00610262 0.00593925 0.00577127 0.00559868 0.00542148 0.00523967 0.00505456 0.00486747 0.00467841 0.00448736 0.00429433 0.00409933 0.00390235 0.00370339 0.0035041 0.00330615 0.00310954 0.00291427 0.00272034 0.00252774 0.00233648 0.00214655 0.00195827 0.00177193 0.00158754 0.00140509 0.00122459 0.00104604 0.000869427 0.000694763 0.000531928 0.000390804 0.000271392 0.000173691 9.7701e-05 4.34227e-05 1.08557e-05 0 0 9.40451e-06 3.7618e-05 8.46406e-05 0.000150472 0.000235113 0.000338562 0.000460821 0.000601889 0.000753627 0.000907898 0.0010647 0.00122404 0.00138591 0.00155031 0.00171725 0.00188672 0.00205874 0.00223333 0.0024105 0.00259024 0.00277255 0.00295743 0.00314489 0.00333492 0.00352626 0.00371762 0.00390902 0.00410046 0.00429192 0.00448342 0.00467495 0.00486652 0.00505692 0.00524496 0.00543065 0.00561398 0.00579496 0.00597358 0.00614984 0.00632374 0.00649421 0.00666018 0.00682165 0.00697862 0.00713109 0.00727906 0.00742252 0.00756149 0.00769505 0.00782232 0.00794329 0.00805797 0.00816635 0.00826844 0.00836423 0.00845372 0.00853627 0.00861122 0.00867857 0.00873833 0.00879049 0.00883506 0.00887203 0.0089014 0.00892286 0.00893607 0.00894105 0.00893779 0.00892628 0.00890654 0.00887855 0.00884233 0.00879795 0.00874548 0.00868492 0.00861629 0.00853957 0.00845476 0.00836187 0.0082609 0.00815237 0.00803681 0.00791422 0.0077846 0.00764795 0.00750426 0.00735355 0.0071958 0.00703201 0.00686317 0.00668929 0.00651035 0.00632637 0.00613734 0.00594326 0.00574413 0.00554138 0.00533647 0.00512938 0.00492012 0.00470869 0.00449508 0.0042793 0.00406135 0.00384303 0.00362617 0.00341076 0.00319679 0.00298428 0.00277322 0.00256361 0.00235544 0.00214905 0.00194475 0.00174254 0.00154242 0.00134439 0.00114845 0.000954607 0.000762849 0.000584056 0.000429103 0.000297988 0.000190712 0.000107276 4.76781e-05 1.19195e-05 0 0 1.0264e-05 4.10562e-05 9.23764e-05 0.000164225 0.000256601 0.000369506 0.000502938 0.000656899 0.000822483 0.000990786 0.00116181 0.00133555 0.00151201 0.00169118 0.00187308 0.0020577 0.00224506 0.00243521 0.00262814 0.00282386 0.00302236 0.00322364 0.0034277 0.00363455 0.0038428 0.00405108 0.00425938 0.0044677 0.00467606 0.00488443 0.00509283 0.00530126 0.00550841 0.00571299 0.00591501 0.00611445 0.00631132 0.00650562 0.00669735 0.00688651 0.00707194 0.00725246 0.00742808 0.00759881 0.00776463 0.00792555 0.00808157 0.0082327 0.00837794 0.00851634 0.00864788 0.00877257 0.00889042 0.00900141 0.00910555 0.00920284 0.00929257 0.00937404 0.00944725 0.00951219 0.00956887 0.00961729 0.00965744 0.00968933 0.00971261 0.00972693 0.00973228 0.00972867 0.0097161 0.00969457 0.00966408 0.00962462 0.00957629 0.00951917 0.00945326 0.00937855 0.00929506 0.00920278 0.0091017 0.00899184 0.00887375 0.00874802 0.00861465 0.00847363 0.00832497 0.00816866 0.0080047 0.0078331 0.00765494 0.00747128 0.00728212 0.00708748 0.00688735 0.00668172 0.00647061 0.006254 0.00603346 0.00581055 0.00558527 0.00535763 0.00512761 0.00489523 0.00466047 0.00442335 0.00418582 0.00394985 0.00371545 0.00348261 0.00325133 0.00302162 0.00279346 0.00256687 0.00234218 0.00211972 0.00189949 0.00168149 0.00146573 0.00125219 0.00104089 0.000831821 0.000636863 0.000467899 0.00032493 0.000207955 0.000116975 5.19888e-05 1.29972e-05 0 0 1.11354e-05 4.45418e-05 0.000100219 0.000178167 0.000278386 0.000400876 0.000545637 0.000712668 0.000892287 0.00107481 0.00126024 0.00144857 0.0016398 0.00183394 0.00203098 0.00223092 0.00243382 0.00263971 0.00284859 0.00306046 0.00327533 0.00349319 0.00371404 0.00393789 0.00416324 0.00438861 0.00461399 0.00483939 0.0050648 0.00529023 0.00551567 0.00574113 0.0059652 0.00618648 0.00640497 0.00662068 0.0068336 0.00704374 0.00725109 0.00745565 0.00765616 0.00785137 0.00804128 0.00822588 0.00840518 0.00857917 0.00874786 0.00891125 0.00906828 0.0092179 0.0093601 0.0094949 0.00962228 0.00974226 0.00985482 0.00995997 0.0100569 0.010145 0.0102241 0.0102943 0.0103555 0.0104078 0.0104511 0.0104856 0.0105107 0.0105261 0.0105318 0.0105278 0.0105142 0.0104908 0.0104578 0.0104151 0.0103628 0.0103009 0.0102296 0.0101488 0.0100584 0.00995858 0.00984924 0.00973039 0.00960266 0.00946667 0.00932241 0.00916988 0.00900909 0.00884003 0.00866271 0.00847713 0.00828444 0.00808582 0.00788125 0.00767075 0.00745431 0.00723193 0.00700362 0.00676937 0.00653086 0.00628978 0.00604614 0.00579992 0.00555114 0.00529979 0.00504587 0.00478938 0.00453244 0.00427718 0.00402359 0.00377168 0.00352144 0.00327287 0.00302599 0.00278077 0.00253758 0.00229676 0.00205831 0.00182223 0.00158852 0.00135719 0.00112822 0.000901629 0.00069031 0.000507166 0.000352199 0.000225407 0.000126792 5.63518e-05 1.4088e-05 0 0 1.20187e-05 4.80748e-05 0.000108168 0.000192299 0.000300467 0.000432673 0.000588916 0.000769196 0.000963039 0.00115997 0.00135999 0.0015631 0.00176929 0.00197857 0.00219094 0.0024064 0.00262501 0.00284682 0.00307183 0.00330005 0.00353147 0.00376609 0.00400392 0.00424495 0.00448759 0.00473023 0.00497287 0.00521552 0.00545816 0.00570081 0.00594347 0.00618612 0.00642727 0.00666542 0.00690056 0.00713269 0.00736181 0.00758793 0.00781104 0.00803114 0.00824689 0.00845692 0.00866124 0.00885984 0.00905274 0.00923992 0.00942139 0.00959715 0.00976606 0.009927 0.01008 0.0102249 0.0103619 0.010491 0.010612 0.0107251 0.0108294 0.010924 0.0110091 0.0110845 0.0111503 0.0112065 0.0112531 0.0112901 0.011317 0.0113335 0.0113396 0.0113353 0.0113205 0.0112953 0.0112597 0.0112137 0.0111573 0.0110907 0.0110139 0.0109269 0.0108297 0.0107222 0.0106045 0.0104766 0.0103391 0.0101927 0.0100375 0.00987334 0.00970031 0.00951838 0.00932757 0.00912787 0.00892052 0.00870679 0.00848667 0.00826016 0.00802726 0.00778797 0.00754229 0.00729023 0.00703358 0.00677416 0.00651197 0.00624701 0.00597928 0.00570877 0.00543549 0.00515945 0.00488291 0.00460815 0.00433518 0.004064 0.0037946 0.00352699 0.00326117 0.00299713 0.00273524 0.00247586 0.00221899 0.00196462 0.00171277 0.00146343 0.0012166 0.000972274 0.000744397 0.000546904 0.000379794 0.000243068 0.000136726 6.07671e-05 1.51918e-05 0 0 1.29138e-05 5.16552e-05 0.000116224 0.000206621 0.000322845 0.000464897 0.000632776 0.000826483 0.00103474 0.00124627 0.00146107 0.00167914 0.00190048 0.00212509 0.00235297 0.00258413 0.00281863 0.00305654 0.00329787 0.00354261 0.00379077 0.00404234 0.00429733 0.00455573 0.00481584 0.00507593 0.00533601 0.00559608 0.00585614 0.00611618 0.00637622 0.00663624 0.00689464 0.00714981 0.00740176 0.00765047 0.00789595 0.0081382 0.00837722 0.008613 0.00884412 0.0090691 0.00928796 0.0095007 0.00970731 0.0099078 0.0101022 0.0102904 0.0104713 0.0106437 0.0108075 0.0109627 0.0111094 0.0112476 0.0113772 0.0114982 0.0116099 0.0117112 0.0118022 0.011883 0.0119534 0.0120135 0.0120633 0.0121029 0.0121316 0.0121493 0.0121557 0.012151 0.0121351 0.0121081 0.0120698 0.0120205 0.01196 0.0118886 0.0118063 0.011713 0.0116088 0.0114936 0.0113675 0.0112304 0.0110831 0.0109262 0.0107599 0.010584 0.0103986 0.0102037 0.00999928 0.00978532 0.00956319 0.00933421 0.00909838 0.00885571 0.00860619 0.00834984 0.00808663 0.00781658 0.00754162 0.00726369 0.00698277 0.00669888 0.00641201 0.00612217 0.00582935 0.00553355 0.00523721 0.00494277 0.00465022 0.00435958 0.00407082 0.00378397 0.00349901 0.00321595 0.00293517 0.00265703 0.00238153 0.00210868 0.00183848 0.00157093 0.00130602 0.00104375 0.000799125 0.000587112 0.000407717 0.000260939 0.000146778 6.52347e-05 1.63087e-05 0 0 1.38208e-05 5.5283e-05 0.000124387 0.000221132 0.000345519 0.000497547 0.000677217 0.000884529 0.00110739 0.0013337 0.00156347 0.00179669 0.00203336 0.00227349 0.00251707 0.00276411 0.00301468 0.00326888 0.00352671 0.00378816 0.00405324 0.00432194 0.00459427 0.00487023 0.00514798 0.00542571 0.00570341 0.00598108 0.00625872 0.00653634 0.00681393 0.00709149 0.00736731 0.00763967 0.00790857 0.00817402 0.008436 0.00869454 0.00894961 0.00920123 0.00944784 0.00968792 0.00992145 0.0101484 0.0103689 0.0105828 0.0107902 0.010991 0.011184 0.0113678 0.0115426 0.0117082 0.0118647 0.012012 0.0121503 0.0122794 0.0123984 0.0125065 0.0126036 0.0126896 0.0127647 0.0128288 0.0128819 0.0129239 0.0129546 0.0129733 0.0129801 0.012975 0.012958 0.012929 0.0128882 0.0128354 0.0127708 0.0126946 0.0126067 0.012507 0.0123958 0.0122728 0.