<?xml version="1.0"?> 
<VTKFile type="StructuredGrid" version="0.1"> 
<StructuredGrid WholeExtent="0 128 0 128 0 0"> 
<Piece Extent="0 128 0 128 0 0"> 
<PointData>
<DataArray type="Float32" Name="u" format="ascii" NumberOfComponents="1"> 
0 0 0 0 0 0 0 0 0 0 0 0 0 0 0 0 0 0 0 0 0 0 0 0 0 0 0 0 0 0 0 0 0 0 0 0 0 0 0 0 0 0 0 0 0 0 0 0 0 0 0 0 0 0 0 0 0 0 0 0 0 0 0 0 0 0 0 0 0 0 0 0 0 0 0 0 0 0 0 0 0 0 0 0 0 0 0 0 0 0 0 0 0 0 0 0 0 0 0 0 0 0 0 0 0 0 0 0 0 0 0 0 0 0 0 0 0 0 0 0 0 0 0 0 0 0 0 0 0 0 6.86827e-08 2.74731e-07 6.18144e-07 1.09892e-06 1.71707e-06 2.47258e-06 3.36545e-06 4.39569e-06 5.28451e-06 5.75311e-06 5.8015e-06 5.42968e-06 4.63765e-06 3.42541e-06 1.79295e-06 -2.5972e-07 -2.73377e-06 -5.63038e-06 -8.94954e-06 -1.26913e-05 -1.68555e-05 -2.14423e-05 -2.64517e-05 -3.18836e-05 -3.74531e-05 -4.28752e-05 -4.81498e-05 -5.32769e-05 -5.82566e-05 -6.30889e-05 -6.77737e-05 -7.23111e-05 -7.64621e-05 -7.99879e-05 -8.28883e-05 -8.51635e-05 -8.68134e-05 -8.78381e-05 -8.82374e-05 -8.80115e-05 -8.71889e-05 -8.57981e-05 -8.38391e-05 -8.1312e-05 -7.82168e-05 -7.45534e-05 -7.03219e-05 -6.55222e-05 -6.07182e-05 -5.64738e-05 -5.27891e-05 -4.9664e-05 -4.70984e-05 -4.50925e-05 -4.36462e-05 -4.27596e-05 -4.27537e-05 -4.39501e-05 -4.63486e-05 -4.99492e-05 -5.4752e-05 -6.0757e-05 -6.79641e-05 -7.63734e-05 -8.58885e-05 -9.6413e-05 -0.000107947 -0.000120491 -0.000134044 -0.000148606 -0.000164178 -0.00018076 -0.000197954 -0.000215364 -0.000232988 -0.000250829 -0.000268885 -0.000287156 -0.000305643 -0.000324345 -0.000341967 -0.000357215 -0.000370087 -0.000380583 -0.000388705 -0.000394451 -0.000397823 -0.000398819 -0.000397509 -0.000393963 -0.00038818 -0.000380162 -0.000369907 -0.000357415 -0.000342687 -0.000325723 -0.000307766 -0.000290056 -0.000272596 -0.000255384 -0.000238421 -0.000221706 -0.00020524 -0.000189023 -0.000173229 -0.000158031 -0.00014343 -0.000129426 -0.000116019 -0.000103209 -9.09952e-05 -7.93785e-05 -6.85012e-05 -5.85057e-05 -4.93922e-05 -4.11605e-05 -3.38107e-05 -2.73428e-05 -2.17568e-05 -1.70527e-05 -1.3056e-05 -9.59214e-06 -6.66121e-06 -4.26317e-06 -2.39803e-06 -1.06579e-06 -2.66448e-07 0 0 2.74731e-07 1.09892e-06 2.47258e-06 4.39569e-06 6.86827e-06 9.8903e-06 1.34618e-05 1.75828e-05 2.1138e-05 2.30124e-05 2.3206e-05 2.17187e-05 1.85506e-05 1.37016e-05 7.1718e-06 -1.03888e-06 -1.09351e-05 -2.25215e-05 -3.57982e-05 -5.0765e-05 -6.74221e-05 -8.57694e-05 -0.000105807 -0.000127535 -0.000149813 -0.000171501 -0.000192599 -0.000213108 -0.000233027 -0.000252356 -0.000271095 -0.000289244 -0.000305849 -0.000319951 -0.000331553 -0.000340654 -0.000347254 -0.000351352 -0.00035295 -0.000352046 -0.000348755 -0.000343192 -0.000335357 -0.000325248 -0.000312867 -0.000298214 -0.000281287 -0.000262089 -0.000242873 -0.000225895 -0.000211156 -0.000198656 -0.000188394 -0.00018037 -0.000174585 -0.000171038 -0.000171015 -0.0001758 -0.000185394 -0.000199797 -0.000219008 -0.000243028 -0.000271856 -0.000305493 -0.000343554 -0.000385652 -0.000431788 -0.000481963 -0.000536175 -0.000594425 -0.000656714 -0.00072304 -0.000791816 -0.000861454 -0.000931954 -0.00100332 -0.00107554 -0.00114862 -0.00122257 -0.00129738 -0.00136787 -0.00142886 -0.00148035 -0.00152233 -0.00155482 -0.00157781 -0.00159129 -0.00159527 -0.00159004 -0.00157585 -0.00155272 -0.00152065 -0.00147963 -0.00142966 -0.00137075 -0.00130289 -0.00123106 -0.00116023 -0.00109038 -0.00102154 -0.000953683 -0.000886824 -0.000820961 -0.000756092 -0.000692915 -0.000632124 -0.000573721 -0.000517705 -0.000464076 -0.000412835 -0.000363981 -0.000317514 -0.000274005 -0.000234023 -0.000197569 -0.000164642 -0.000135243 -0.000109371 -8.70272e-05 -6.82108e-05 -5.22239e-05 -3.83685e-05 -2.66448e-05 -1.70527e-05 -9.59214e-06 -4.26317e-06 -1.06579e-06 0 0 6.18144e-07 2.47258e-06 5.5633e-06 9.8903e-06 1.54536e-05 2.22532e-05 3.02891e-05 3.95612e-05 4.75606e-05 5.1778e-05 5.22135e-05 4.88672e-05 4.17389e-05 3.08287e-05 1.61365e-05 -2.33748e-06 -2.4604e-05 -5.06734e-05 -8.05458e-05 -0.000114221 -0.0001517 -0.000192981 -0.000238065 -0.000286953 -0.000337078 -0.000385877 -0.000433348 -0.000479492 -0.00052431 -0.0005678 -0.000609964 -0.0006508 -0.000688159 -0.000719891 -0.000745995 -0.000766472 -0.000781321 -0.000790543 -0.000794137 -0.000792104 -0.0007847 -0.000772183 -0.000754552 -0.000731808 -0.000703951 -0.000670981 -0.000632897 -0.000589699 -0.000546464 -0.000508265 -0.000475102 -0.000446976 -0.000423886 -0.000405833 -0.000392816 -0.000384836 -0.000384784 -0.000395551 -0.000417137 -0.000449543 -0.000492768 -0.000546813 -0.000611677 -0.00068736 -0.000772996 -0.000867717 -0.000971524 -0.00108442 -0.00120639 -0.00133746 -0.00147761 -0.00162684 -0.00178159 -0.00193827 -0.0020969 -0.00225746 -0.00241996 -0.0025844 -0.00275079 -0.00291911 -0.00307771 -0.00321493 -0.00333078 -0.00342525 -0.00349834 -0.00355006 -0.0035804 -0.00358937 -0.00357758 -0.00354567 -0.00349362 -0.00342146 -0.00332916 -0.00321674 -0.00308419 -0.00293151 -0.00276989 -0.00261051 -0.00245336 -0.00229845 -0.00214579 -0.00199535 -0.00184716 -0.00170121 -0.00155906 -0.00142228 -0.00129087 -0.00116484 -0.00104417 -0.000928879 -0.000818957 -0.000714407 -0.000616511 -0.000526552 -0.00044453 -0.000370444 -0.000304296 -0.000246085 -0.000195811 -0.000153474 -0.000117504 -8.63292e-05 -5.99509e-05 -3.83685e-05 -2.15823e-05 -9.59214e-06 -2.39803e-06 0 0 1.09892e-06 4.39569e-06 9.8903e-06 1.75828e-05 2.74731e-05 3.95612e-05 5.38472e-05 7.03311e-05 8.45521e-05 9.20498e-05 9.28241e-05 8.68749e-05 7.42024e-05 5.48065e-05 2.86872e-05 -4.15552e-06 -4.37404e-05 -9.00861e-05 -0.000143193 -0.00020306 -0.000269688 -0.000343077 -0.000423227 -0.000510138 -0.00059925 -0.000686003 -0.000770396 -0.000852431 -0.000932106 -0.00100942 -0.00108438 -0.00115698 -0.00122339 -0.00127981 -0.00132621 -0.00136262 -0.00138901 -0.00140541 -0.0014118 -0.00140818 -0.00139502 -0.00137277 -0.00134143 -0.00130099 -0.00125147 -0.00119285 -0.00112515 -0.00104835 -0.000971491 -0.000903582 -0.000844626 -0.000794623 -0.000753575 -0.000721481 -0.00069834 -0.000684153 -0.00068406 -0.000703202 -0.000741578 -0.000799188 -0.000876033 -0.000972112 -0.00108743 -0.00122197 -0.00137422 -0.00154261 -0.00172715 -0.00192785 -0.0021447 -0.0023777 -0.00262685 -0.00289216 -0.00316726 -0.00344582 -0.00372782 -0.00401326 -0.00430216 -0.0045945 -0.00489028 -0.00518952 -0.00547148 -0.00571543 -0.00592138 -0.00608933 -0.00621928 -0.00631122 -0.00636516 -0.0063811 -0.00636014 -0.0063034 -0.00621089 -0.00608259 -0.00591851 -0.00571864 -0.005483 -0.00521157 -0.00492425 -0.0046409 -0.00436153 -0.00408614 -0.00381473 -0.0035473 -0.00328384 -0.00302437 -0.00277166 -0.0025285 -0.00229488 -0.00207082 -0.00185631 -0.00165134 -0.00145592 -0.00127006 -0.00109602 -0.000936092 -0.000790275 -0.000658568 -0.000540971 -0.000437485 -0.000348109 -0.000272843 -0.000208895 -0.000153474 -0.000106579 -6.82108e-05 -3.83685e-05 -1.70527e-05 -4.26317e-06 0 0 1.71707e-06 6.86827e-06 1.54536e-05 2.74731e-05 4.29267e-05 6.18144e-05 8.41363e-05 0.000109892 0.000132113 0.000143828 0.000145038 0.000135742 0.000115941 8.56352e-05 4.48237e-05 -6.493e-06 -6.83443e-05 -0.000140759 -0.000223738 -0.000317281 -0.000421388 -0.000536059 -0.000661293 -0.000797091 -0.000936328 -0.00107188 -0.00120374 -0.00133192 -0.00145642 -0.00157722 -0.00169434 -0.00180778 -0.00191155 -0.0019997 -0.00207221 -0.00212909 -0.00217034 -0.00219595 -0.00220594 -0.00220029 -0.00217972 -0.00214495 -0.00209598 -0.0020328 -0.00195542 -0.00186384 -0.00175805 -0.00163805 -0.00151795 -0.00141185 -0.00131973 -0.0012416 -0.00117746 -0.00112731 -0.00109116 -0.00106899 -0.00106884 -0.00109875 -0.00115871 -0.00124873 -0.0013688 -0.00151893 -0.0016991 -0.00190933 -0.00214721 -0.00241033 -0.00269868 -0.00301227 -0.00335109 -0.00371516 -0.00410446 -0.004519 -0.00494885 -0.00538409 -0.00582471 -0.00627072 -0.00672212 -0.0071789 -0.00764107 -0.00810863 -0.00854918 -0.00893036 -0.00925216 -0.00951458 -0.00971762 -0.00986128 -0.00994556 -0.00997046 -0.00993772 -0.00984907 -0.00970451 -0.00950404 -0.00924767 -0.00893538 -0.00856719 -0.00814309 -0.00769414 -0.00725141 -0.00681489 -0.0063846 -0.00596052 -0.00554265 -0.00513101 -0.00472558 -0.00433072 -0.00395078 -0.00358576 -0.00323566 -0.00290048 -0.00258022 -0.00227488 -0.00198446 -0.00171253 -0.00146264 -0.0012348 -0.00102901 -0.000845268 -0.00068357 -0.00054392 -0.000426317 -0.000326399 -0.000239803 -0.00016653 -0.000106579 -5.99509e-05 -2.66448e-05 -6.66121e-06 0 0 2.47258e-06 9.8903e-06 2.22532e-05 3.95612e-05 6.18144e-05 8.90127e-05 0.000121156 0.000158245 0.000190242 0.000207112 0.000208854 0.000195469 0.000166955 0.000123315 6.45462e-05 -9.34991e-06 -9.84158e-05 -0.000202694 -0.000322183 -0.000456885 -0.000606799 -0.000771924 -0.000952262 -0.00114781 -0.00134831 -0.00154351 -0.00173339 -0.00191797 -0.00209724 -0.0022712 -0.00243985 -0.0026032 -0.00275264 -0.00287956 -0.00298398 -0.00306589 -0.00312528 -0.00316217 -0.00317655 -0.00316841 -0.0031388 -0.00308873 -0.00301821 -0.00292723 -0.0028158 -0.00268392 -0.00253159 -0.0023588 -0.00218586 -0.00203306 -0.00190041 -0.0017879 -0.00169554 -0.00162333 -0.00157126 -0.00153934 -0.00153913 -0.0015822 -0.00166855 -0.00179817 -0.00197107 -0.00218725 -0.00244671 -0.00274944 -0.00309198 -0.00347087 -0.0038861 -0.00433766 -0.00482558 -0.00534983 -0.00591042 -0.00650736 -0.00712634 -0.00775309 -0.00838758 -0.00902984 -0.00967985 -0.0103376 -0.0110031 -0.0116764 -0.0123108 -0.0128597 -0.0133231 -0.013701 -0.0139934 -0.0142002 -0.0143216 -0.0143575 -0.0143103 -0.0141827 -0.0139745 -0.0136858 -0.0133166 -0.0128669 -0.0123367 -0.011726 -0.0110796 -0.010442 -0.00981345 -0.00919382 -0.00858314 -0.00798142 -0.00738865 -0.00680483 -0.00623623 -0.00568912 -0.00516349 -0.00465935 -0.00417669 -0.00371552 -0.00327583 -0.00285763 -0.00246604 -0.00210621 -0.00177812 -0.00148178 -0.00121719 -0.000984341 -0.000783245 -0.000613897 -0.000470015 -0.000345317 -0.000239803 -0.000153474 -8.63292e-05 -3.83685e-05 -9.59214e-06 0 0 3.36545e-06 1.34618e-05 3.02891e-05 5.38472e-05 8.41363e-05 0.000121156 0.000164907 0.000215389 0.000258941 0.000281902 0.000284274 0.000266055 0.000227245 0.000167845 8.78545e-05 -1.27263e-05 -0.000133955 -0.000275889 -0.000438527 -0.000621871 -0.000825921 -0.00105067 -0.00129613 -0.0015623 -0.0018352 -0.00210088 -0.00235934 -0.00261057 -0.00285458 -0.00309136 -0.00332091 -0.00354324 -0.00374664 -0.00391941 -0.00406153 -0.00417301 -0.00425386 -0.00430407 -0.00432363 -0.00431256 -0.00427225 -0.00420411 -0.00410812 -0.00398429 -0.00383262 -0.00365312 -0.00344577 -0.00321059 -0.00297519 -0.00276722 -0.00258667 -0.00243353 -0.00230782 -0.00220953 -0.00213867 -0.00209522 -0.00209493 -0.00215355 -0.00227108 -0.00244751 -0.00268285 -0.00297709 -0.00333024 -0.0037423 -0.00420853 -0.00472424 -0.00528941 -0.00590404 -0.00656814 -0.00728171 -0.00804474 -0.00885724 -0.00969975 -0.0105528 -0.0114164 -0.0122906 -0.0131754 -0.0140706 -0.0149765 -0.0158929 -0.0167564 -0.0175035 -0.0181342 -0.0186486 -0.0190465 -0.0193281 -0.0194933 -0.0195421 -0.0194779 -0.0193042 -0.0190208 -0.0186279 -0.0181254 -0.0175133 -0.0167917 -0.0159604 -0.0150805 -0.0142128 -0.0133572 -0.0125138 -0.0116826 -0.0108636 -0.0100568 -0.00926213 -0.0084882 -0.00774352 -0.00702808 -0.00634189 -0.00568494 -0.00505723 -0.00445877 -0.00388955 -0.00335656 -0.00286678 -0.00242022 -0.00201686 -0.00165672 -0.0013398 -0.00106608 -0.000835582 -0.000639742 -0.000470015 -0.000326399 -0.000208895 -0.000117504 -5.22239e-05 -1.3056e-05 0 0 4.39569e-06 1.75828e-05 3.95612e-05 7.03311e-05 0.000109892 0.000158245 0.000215389 0.000281324 0.000338208 0.000368199 0.000371296 0.0003475 0.00029681 0.000219226 0.000114749 -1.66221e-05 -0.000174961 -0.000360344 -0.00057277 -0.00081224 -0.00107875 -0.00137231 -0.00169291 -0.00204055 -0.002397 -0.00274401 -0.00308159 -0.00340972 -0.00372842 -0.00403769 -0.00433752 -0.00462791 -0.00489358 -0.00511922 -0.00530485 -0.00545047 -0.00555606 -0.00562164 -0.0056472 -0.00563274 -0.00558009 -0.00549108 -0.0053657 -0.00520397 -0.00500588 -0.00477142 -0.0045006 -0.00419342 -0.00388596 -0.00361433 -0.0033785 -0.00317849 -0.0030143 -0.00288592 -0.00279336 -0.00273661 -0.00273624 -0.00281281 -0.00296631 -0.00319675 -0.00350413 -0.00388845 -0.0043497 -0.0048879 -0.00549686 -0.00617043 -0.00690862 -0.0077114 -0.0085788 -0.00951081 -0.0105074 -0.0115686 -0.0126691 -0.0137833 -0.0149113 -0.016053 -0.0172086 -0.018378 -0.0195611 -0.0207581 -0.0218859 -0.0228617 -0.0236855 -0.0243573 -0.0248771 -0.0252449 -0.0254606 -0.0255244 -0.0254406 -0.0252136 -0.0248435 -0.0243303 -0.023674 -0.0228746 -0.021932 -0.0208463 -0.019697 -0.0185636 -0.0174461 -0.0163446 -0.0152589 -0.0141892 -0.0131354 -0.0120975 -0.0110866 -0.010114 -0.00917954 -0.00828328 -0.00742522 -0.00660536 -0.0058237 -0.00508023 -0.00438408 -0.00374437 -0.0031611 -0.00263427 -0.00216389 -0.00174994 -0.00139244 -0.00109137 -0.000835582 -0.000613897 -0.000426317 -0.000272843 -0.000153474 -6.82108e-05 -1.70527e-05 0 0 5.11615e-06 2.04646e-05 4.60453e-05 8.18584e-05 0.000127904 0.000184181 0.000250691 0.000327434 0.000392356 0.000423406 0.000420584 0.000383891 0.000313325 0.000208887 7.05767e-05 -0.000101605 -0.00030764 -0.000547507 -0.000821207 -0.00112874 -0.00147011 -0.0018453 -0.00225433 -0.0026972 -0.00315131 -0.0035941 -0.00402556 -0.00444569 -0.00485449 -0.00525197 -0.00563811 -0.00601293 -0.00635622 -0.00664777 -0.0068876 -0.00707569 -0.00721205 -0.00729669 -0.00732959 -0.00731076 -0.00724292 -0.00712881 -0.00696842 -0.00676175 -0.0065088 -0.00620958 -0.00586408 -0.00547229 -0.00508016 -0.00473361 -0.00443264 -0.00417725 -0.00396744 -0.0038032 -0.00368455 -0.00361148 -0.00360584 -0.00368948 -0.0038624 -0.0041246 -0.00447608 -0.00491684 -0.00544688 -0.0060662 -0.00676495 -0.00753327 -0.00837115 -0.00927859 -0.0102556 -0.0113022 -0.0124183 -0.0136041 -0.014835 -0.0160868 -0.0173595 -0.018653 -0.0199675 -0.0213028 -0.0226589 -0.024036 -0.0253359 -0.0264606 -0.0274102 -0.0281846 -0.0287838 -0.0292078 -0.0294567 -0.0295304 -0.0294342 -0.0291735 -0.0287483 -0.0281585 -0.0274042 -0.0264854 -0.0254021 -0.0241542 -0.0228355 -0.0215396 -0.0202665 -0.0190162 -0.0177887 -0.0165841 -0.0154023 -0.0142433 -0.0131138 -0.0120204 -0.0109631 -0.00994205 -0.00895709 -0.00800827 -0.0070956 -0.00621906 -0.00539249 -0.00462971 -0.00393072 -0.00329552 -0.00272411 -0.00221648 -0.00177265 -0.0013926 -0.00106621 -0.00078334 -0.000543986 -0.000348151 -0.000195835 -8.70377e-05 -2.17594e-05 0 0 5.07968e-06 2.03187e-05 4.57171e-05 8.12748e-05 0.000126992 0.000182868 0.000248904 0.000325099 0.000385694 0.000404928 0.000382801 0.000319313 0.000214465 6.82557e-05 -0.000119314 -0.000348244 -0.000618195 -0.000928824 -0.00128013 -0.00167212 -0.00210478 -0.00257813 -0.00309215 -0.00364685 -0.00421575 -0.00477236 -0.00531669 -0.00584873 -0.00636848 -0.00687595 -0.00737113 -0.00785402 -0.00829735 -0.0086738 -0.0089834 -0.00922614 -0.00940201 -0.00951102 -0.00955317 -0.00952846 -0.00944139 -0.00929648 -0.00909372 -0.00883311 -0.00851465 -0.00813835 -0.0077042 -0.00721221 -0.00671977 -0.0062843 -0.0059058 -0.00558426 -0.00531969 -0.00511209 -0.00496145 -0.00486778 -0.00484651 -0.00491308 -0.0050675 -0.00530975 -0.00563985 -0.00605779 -0.00656356 -0.00715718 -0.00782079 -0.00853654 -0.00930443 -0.0101245 -0.0109966 -0.0119209 -0.0128974 -0.013926 -0.0149982 -0.0161058 -0.0172485 -0.0184265 -0.0196397 -0.0208881 -0.0221718 -0.0234907 -0.0247429 -0.0258265 -0.0267414 -0.0274876 -0.0280652 -0.0284741 -0.0287144 -0.0287861 -0.0286948 -0.0284463 -0.0280407 -0.0274779 -0.0267579 -0.0258807 -0.0248463 -0.0236548 -0.0224024 -0.0211856 -0.0200044 -0.0188588 -0.0177487 -0.0166742 -0.0156353 -0.014632 -0.0136518 -0.0126826 -0.0117242 -0.0107767 -0.00984008 -0.00891433 -0.00799946 -0.00709546 -0.00622571 -0.00541357 -0.00465904 -0.00396213 -0.00332283 -0.00274115 -0.00221707 -0.00175061 -0.00134031 -0.00098472 -0.000683833 -0.000437653 -0.00024618 -0.000109413 -2.73533e-05 0 0 4.28628e-06 1.71451e-05 3.85765e-05 6.85804e-05 0.000107157 0.000154306 0.000210028 0.000274322 0.000318222 0.000312764 0.000257945 0.000153767 2.2993e-07 -0.000202667 -0.000454923 -0.000756539 -0.00110663 -0.00150429 -0.00194954 -0.00244238 -0.00298279 -0.00357078 -0.00420636 -0.00488952 -0.00559031 -0.0062788 -0.00695497 -0.00761884 -0.00827039 -0.00890964 -0.00953657 -0.0101512 -0.010717 -0.0111973 -0.0115923 -0.0119018 -0.0121259 -0.0122646 -0.0123179 -0.0122858 -0.0121755 -0.0119941 -0.0117416 -0.011418 -0.0110234 -0.0105577 -0.010021 -0.00941316 -0.00880479 -0.0082664 -0.00779798 -0.00739954 -0.00707107 -0.00681257 -0.00662405 -0.00650551 -0.00645826 -0.00648363 -0.00658162 -0.00675222 -0.00699545 -0.00731129 -0.00769975 -0.00816083 -0.00866439 -0.00918027 -0.00970847 -0.010249 -0.0108019 -0.0113671 -0.0119446 -0.0125344 -0.0131588 -0.0138401 -0.0145783 -0.0153734 -0.0162253 -0.0171341 -0.0180997 -0.0191222 -0.0201069 -0.0209592 -0.0216791 -0.0222664 -0.0227214 -0.0230439 -0.0232339 -0.0232915 -0.0232223 -0.0230321 -0.0227208 -0.0222884 -0.0217349 -0.0210603 -0.0202647 -0.019348 -0.0183978 -0.0175018 -0.01666 -0.0158723 -0.0151389 -0.0144596 -0.0138344 -0.0132635 -0.0127008 -0.0121006 -0.0114627 -0.0107873 -0.0100742 -0.00932354 -0.00853528 -0.00770942 -0.00688372 -0.00609594 -0.00534606 -0.0046341 -0.00396006 -0.00332392 -0.0027257 -0.0021654 -0.00165788 -0.00121804 -0.000845859 -0.00054135 -0.000304509 -0.000135337 -3.38344e-05 0 0 2.73595e-06 1.09438e-05 2.46235e-05 4.37751e-05 6.83986e-05 9.84941e-05 0.000134061 0.000175101 0.000189941 0.000146914 4.60178e-05 -0.000112747 -0.00032938 -0.000603881 -0.000936251 -0.00132649 -0.00177293 -0.00227392 -0.00282944 -0.00343951 -0.00410412 -0.00482327 -0.00559696 -0.0064252 -0.007275 -0.00811341 -0.00894041 -0.00975602 -0.0105602 -0.011353 -0.0121344 -0.0129045 -0.0136151 -0.0142183 -0.0147142 -0.0151027 -0.0153838 -0.0155575 -0.0156239 -0.0155829 -0.0154452 -0.0152216 -0.014912 -0.0145165 -0.0140351 -0.0134677 -0.0128144 -0.0120752 -0.0113352 -0.0106799 -0.0101092 -0.00962307 -0.00922156 -0.00890466 -0.00867236 -0.00852467 -0.00844108 -0.00840111 -0.00840475 -0.008452 -0.00854287 -0.00867735 -0.00885545 -0.00907716 -0.00929573 -0.00946444 -0.00958327 -0.00965223 -0.00967132 -0.00964053 -0.00955987 -0.00942934 -0.00931676 -0.00928996 -0.00934894 -0.0094937 -0.00972423 -0.0100406 -0.0104426 -0.0109305 -0.011428 -0.0118589 -0.0122233 -0.0125211 -0.0127523 -0.012917 -0.0130151 -0.0130467 -0.0130169 -0.0129308 -0.0127885 -0.01259 -0.0123353 -0.0120244 -0.0116572 -0.0112338 -0.0108216 -0.0104881 -0.0102332 -0.0100569 -0.00995918 -0.00994013 -0.0099997 -0.0101379 -0.0102608 -0.0102744 -0.0101787 -0.00997369 -0.00965943 -0.00923588 -0.00870305 -0.00806094 -0.00736653 -0.00667681 -0.00599178 -0.00531144 -0.00463579 -0.00396482 -0.00329855 -0.00263696 -0.00201892 -0.00148329 -0.00103006 -0.00065924 -0.000370823 -0.00016481 -4.12025e-05 0 0 4.28686e-07 1.71474e-06 3.85817e-06 6.85897e-06 1.07171e-05 1.54327e-05 2.10056e-05 2.74359e-05 8.51057e-07 -9.26214e-05 -0.000252981 -0.000480229 -0.000774364 -0.00113539 -0.0015633 -0.0020581 -0.00261712 -0.0032377 -0.00391983 -0.00466353 -0.00546878 -0.00633559 -0.00726396 -0.00825389 -0.00926982 -0.0102762 -0.011273 -0.0122603 -0.013238 -0.0142061 -0.0151647 -0.0161138 -0.0169917 -0.0177368 -0.0183492 -0.0188288 -0.0191756 -0.0193897 -0.019471 -0.0194196 -0.0192506 -0.0189791 -0.0186051 -0.0181286 -0.0175497 -0.0168683 -0.0160845 -0.0151982 -0.0143111 -0.0135248 -0.0128394 -0.0122549 -0.0117712 -0.0113883 -0.0111064 -0.0109253 -0.010795 -0.0106655 -0.0105369 -0.0104091 -0.0102821 -0.010156 -0.0100306 -0.00990615 -0.00971483 -0.00938906 -0.00892882 -0.00833413 -0.00760498 -0.00674137 -0.00574331 -0.00461078 -0.00347201 -0.0024552 -0.00156036 -0.000787484 -0.000136571 0.000392378 0.000799363 0.00108438 0.00129392 0.00147444 0.00162595 0.00174846 0.00184196 0.00190644 0.00194192 0.00194839 0.00192166 0.00185754 0.00175604 0.00161714 0.00144085 0.00122718 0.000976116 0.000687664 0.000326053 -0.000144484 -0.000723949 -0.00141234 -0.00220966 -0.00311591 -0.00413108 -0.00525518 -0.00633166 -0.00720396 -0.00787208 -0.00833602 -0.00859579 -0.00865138 -0.00850279 -0.00815002 -0.00767414 -0.0071562 -0.00659619 -0.00599413 -0.00535001 -0.00466384 -0.0039356 -0.0031653 -0.00242343 -0.00178048 -0.00123645 -0.000791326 -0.000445121 -0.000197831 -4.94579e-05 0 0 -2.6355e-06 -1.0542e-05 -2.37195e-05 -4.21681e-05 -6.58876e-05 -9.48781e-05 -0.00012914 -0.000168672 -0.000249049 -0.000405842 -0.000639053 -0.00094868 -0.00133472 -0.00179718 -0.00233606 -0.00295136 -0.00363918 -0.00439563 -0.00522071 -0.00611442 -0.00707677 -0.00810774 -0.00920735 -0.0103756 -0.0115748 -0.0127671 -0.0139528 -0.0151316 -0.0163037 -0.017469 -0.0186275 -0.0197792 -0.0208468 -0.0217528 -0.0224972 -0.0230801 -0.0235014 -0.0237612 -0.0238594 -0.023796 -0.0235915 -0.0232664 -0.0228207 -0.0222543 -0.0215672 -0.0207596 -0.0198312 -0.0187823 -0.0177323 -0.0168011 -0.0159887 -0.0152949 -0.0147199 -0.0142636 -0.0139261 -0.0137073 -0.01352 -0.0132769 -0.0129781 -0.0126235 -0.0122132 -0.0117471 -0.0112254 -0.0106478 -0.00992168 -0.00895412 -0.00774513 -0.00629471 -0.00460286 -0.00266958 -0.000494873 0.00192126 0.00437541 0.00666412 0.00878741 0.0107453 0.0125377 0.0141647 0.0156263 0.0169225 0.0180588 0.0190409 0.0198687 0.0205422 0.0210615 0.0214265 0.0216372 0.0216937 0.0215932 0.0213329 0.0209129 0.0203331 0.0195936 0.0186943 0.0176353 0.0164165 0.0150453 0.013529 0.0118676 0.0100612 0.00810969 0.0060131 0.00377142 0.00138467 -0.000913478 -0.00288935 -0.00454294 -0.00587424 -0.00688327 -0.00757002 -0.00793448 -0.00797666 -0.00780654 -0.00753409 -0.00715931 -0.00668219 -0.00610275 -0.00542097 -0.00463686 -0.00375042 -0.00287142 -0.00210961 -0.00146501 -0.000937605 -0.000527403 -0.000234401 -5.86003e-05 0 0 -6.45662e-06 -2.58265e-05 -5.81096e-05 -0.000103306 -0.000161416 -0.000232438 -0.000316375 -0.000413224 -0.000559758 -0.000792749 -0.0011122 -0.0015181 -0.00201046 -0.00258927 -0.00325455 -0.00400628 -0.00483911 -0.00574771 -0.00673207 -0.0077922 -0.00892808 -0.0101397 -0.0114271 -0.0127903 -0.0141898 -0.0155863 -0.0169797 -0.01837 -0.0197573 -0.0211415 -0.0225226 -0.0239007 -0.0251804 -0.0262662 -0.0271583 -0.0278566 -0.0283612 -0.0286719 -0.0287889 -0.0287121 -0.0284682 -0.0280838 -0.0275589 -0.0268935 -0.0260877 -0.0251414 -0.0240546 -0.0228274 -0.021599 -0.0205089 -0.0195569 -0.0187432 -0.0180678 -0.0175305 -0.0171315 -0.0168707 -0.016616 -0.0162352 -0.0157282 -0.0150952 -0.0143361 -0.0134509 -0.0124396 -0.0113021 -0.00991628 -0.00815963 -0.00603219 -0.00353397 -0.000664954 0.00257484 0.00618543 0.0101668 0.0142255 0.018068 0.0216944 0.0251046 0.0282986 0.0312765 0.0340382 0.0365838 0.0388667 0.0408404 0.0425049 0.0438602 0.0449062 0.0456431 0.0460708 0.0461893 0.0459978 0.0454954 0.0446821 0.043558 0.042123 0.0403771 0.0383203 0.0359527 0.0333361 0.0305324 0.0275416 0.0243638 0.0209989 0.0174469 0.0137078 0.00978166 0.00599376 0.00266946 -0.000191243 -0.00258835 -0.00452187 -0.0059918 -0.00699813 -0.00754087 -0.00776374 -0.00781049 -0.00768112 -0.00737561 -0.00689398 -0.00623622 -0.00540233 -0.00439232 -0.00336287 -0.00247068 -0.00171575 -0.00109808 -0.000617669 -0.00027452 -6.86299e-05 0 0 -1.10347e-05 -4.41387e-05 -9.9312e-05 -0.000176555 -0.000275867 -0.000397248 -0.000540699 -0.000706219 -0.000931277 -0.00125334 -0.00167241 -0.00218849 -0.00280157 -0.00351166 -0.00431875 -0.00522285 -0.00621693 -0.00729395 -0.00845392 -0.00969685 -0.0110227 -0.0124315 -0.0139233 -0.015498 -0.017115 -0.0187336 -0.0203537 -0.0219755 -0.0235988 -0.0252237 -0.0268502 -0.0284783 -0.0299924 -0.0312772 -0.0323325 -0.0331584 -0.0337549 -0.034122 -0.0342596 -0.0341679 -0.0338804 -0.033431 -0.0328196 -0.0320463 -0.0311111 -0.0300138 -0.0287547 -0.0273335 -0.0259111 -0.024648 -0.0235442 -0.0225998 -0.0218148 -0.021189 -0.0207226 -0.0204156 -0.0200831 -0.0195404 -0.0187874 -0.0178243 -0.0166508 -0.0152672 -0.0136733 -0.0118691 -0.00969863 -0.00700558 -0.00379001 -5.19002e-05 0.00420874 0.00899191 0.0142976 0.0201258 0.0260782 0.0317565 0.0371606 0.0422905 0.0471462 0.0517277 0.0560351 0.0600683 0.0637175 0.0668729 0.0695345 0.0717023 0.0733762 0.0745564 0.0752427 0.0754352 0.0751354 0.0743449 0.0730636 0.0712916 0.0690289 0.0662754 0.0630312 0.0592962 0.0551984 0.0508657 0.046298 0.0414954 0.0364579 0.0311854 0.0256781 0.0199358 0.0143901 0.00947247 0.005183 0.00152164 -0.0015116 -0.00391673 -0.00569374 -0.00684263 -0.00754574 -0.00798541 -0.00816162 -0.00807439 -0.00772371 -0.00710959 -0.00623201 -0.00509099 -0.00389779 -0.00286368 -0.00198867 -0.00127275 -0.00071592 -0.000318187 -7.95467e-05 0 0 -1.64248e-05 -6.56991e-05 -0.000147823 -0.000262796 -0.000410619 -0.000591292 -0.000804813 -0.00105118 -0.00136443 -0.00177856 -0.00229359 -0.00290951 -0.00362632 -0.00444402 -0.00536262 -0.0063821 -0.00749129 -0.00867899 -0.00994518 -0.0112899 -0.0127131 -0.0142148 -0.015795 -0.0174538 -0.0191566 -0.0208689 -0.0225909 -0.0243225 -0.0260636 -0.0278144 -0.0295747 -0.0313446 -0.0329932 -0.0343893 -0.0355331 -0.0364245 -0.0370635 -0.0374502 -0.0375844 -0.0374663 -0.0371381 -0.0366419 -0.0359778 -0.0351458 -0.0341459 -0.032978 -0.0316422 -0.0301386 -0.0286426 -0.0273298 -0.0262004 -0.0252543 -0.0244914 -0.0239118 -0.0235155 -0.0233025 -0.0230188 -0.0224106 -0.0214778 -0.0202205 -0.0186386 -0.0167321 -0.0145011 -0.0119455 -0.00887249 -0.00508906 -0.000595253 0.00460894 0.0105235 0.0171485 0.0244838 0.0325296 0.0407539 0.0486252 0.0561434 0.0633086 0.0701206 0.0765796 0.0826854 0.0884382 0.0936612 0.0981776 0.101987 0.105091 0.107488 0.109178 0.110162 0.110439 0.110014 0.108893 0.107075 0.10456 0.101348 0.097439 0.0928334 0.0875309 0.0817285 0.0756229 0.0692143 0.0625026 0.0554879 0.04817 0.0405491 0.0326251 0.0249606 0.0181184 0.0120984 0.00690058 0.002525 -0.00102838 -0.00375953 -0.00566848 -0.00698161 -0.00792533 -0.00849963 -0.00870451 -0.00853999 -0.00800604 -0.00710269 -0.00582992 -0.00446353 -0.00327933 -0.00227731 -0.00145748 -0.000819832 -0.00036437 -9.10924e-05 0 0 -2.2682e-05 -9.07281e-05 -0.000204138 -0.000362912 -0.00056705 -0.000816553 -0.00111142 -0.00145165 -0.00186003 -0.00235936 -0.00294962 -0.00363083 -0.00440298 -0.00526607 -0.0062201 -0.00726507 -0.00838089 -0.00954746 -0.0107648 -0.0120328 -0.0133517 -0.0147212 -0.0161415 -0.0176126 -0.0191207 -0.0206522 -0.0222072 -0.0237855 -0.0253871 -0.0270122 -0.0286607 -0.0303325 -0.0318927 -0.0332064 -0.0342735 -0.0350941 -0.0356681 -0.0359955 -0.0360763 -0.0359106 -0.035551 -0.0350501 -0.0344082 -0.033625 -0.0327006 -0.031635 -0.0304283 -0.0290803 -0.0277674 -0.0266658 -0.0257753 -0.0250961 -0.0246282 -0.0243715 -0.024326 -0.0244918 -0.0245205 -0.0240637 -0.0231214 -0.0216937 -0.0197805 -0.0173818 -0.0144976 -0.011128 -0.00704161 -0.00200714 0.0039754 0.010906 0.0187847 0.0276115 0.0373863 0.0481092 0.0590728 0.06957 0.0796006 0.0891647 0.0982622 0.106893 0.115058 0.122756 0.129747 0.135793 0.140894 0.145048 0.148257 0.15052 0.151837 0.152208 0.151643 0.150151 0.147733 0.144388 0.140116 0.134918 0.128793 0.121741 0.114023 0.105898 0.0973682 0.088432 0.0790899 0.0693418 0.0591877 0.0486276 0.0383907 0.029206 0.0210735 0.0139933 0.00796537 0.00298968 -0.000933752 -0.00380493 -0.00590041 -0.00749674 -0.00859392 -0.00919196 -0.00929084 -0.00889057 -0.00799115 -0.00659258 -0.00504744 -0.00370832 -0.00257523 -0.00164814 -0.000927081 -0.000412036 -0.000103009 0 0 -2.98064e-05 -0.000119226 -0.000268258 -0.000476903 -0.000745161 -0.00107303 -0.00146052 -0.00190761 -0.00241809 -0.00299572 -0.00364051 -0.00435245 -0.00513155 -0.00597779 -0.00689119 -0.00787175 -0.00888572 -0.00989937 -0.0109127 -0.0119257 -0.0129384 -0.0139507 -0.0149628 -0.0159745 -0.0170075 -0.0180835 -0.0192025 -0.0203644 -0.0215693 -0.0228172 -0.0241081 -0.0254419 -0.0266912 -0.0277285 -0.0285538 -0.0291671 -0.0295685 -0.0297578 -0.0297352 -0.0295006 -0.029119 -0.0286558 -0.0281107 -0.0274839 -0.0267753 -0.0259849 -0.0251128 -0.0241588 -0.0232857 -0.0226557 -0.022269 -0.0221255 -0.0222252 -0.0225681 -0.0231543 -0.0239837 -0.0245882 -0.0244998 -0.0237183 -0.0222439 -0.0200766 -0.0172162 -0.0136629 -0.00941659 -0.00420601 0.00224017 0.00992194 0.0188393 0.0289923 0.0403808 0.053005 0.0668647 0.081035 0.0945907 0.107532 0.119859 0.131571 0.142669 0.153152 0.163021 0.171976 0.17972 0.186253 0.191574 0.195683 0.198581 0.200267 0.200742 0.200021 0.19812 0.195038 0.190776 0.185334 0.178711 0.170909 0.161926 0.152081 0.141692 0.13076 0.119284 0.107264 0.0947008 0.0815939 0.0679434 0.0546801 0.0427351 0.0321084 0.0227998 0.0148095 0.00813745 0.00278361 -0.001252 -0.00430216 -0.00669966 -0.00844452 -0.00953672 -0.00997626 -0.00976315 -0.00889739 -0.00737897 -0.00564953 -0.00415067 -0.00288241 -0.00184474 -0.00103767 -0.000461186 -0.000115296 0 0 -3.7798e-05 -0.000151192 -0.000340182 -0.000604768 -0.00094495 -0.00136073 -0.0018521 -0.00241907 -0.0030386 -0.00368767 -0.00436626 -0.00507437 -0.00581202 -0.0065792 -0.0073759 -0.00820213 -0.00900578 -0.00973471 -0.0103889 -0.0109684 -0.0114733 -0.0119033 -0.0122587 -0.0125394 -0.0128169 -0.0131627 -0.0135769 -0.0140594 -0.0146102 -0.0152294 -0.0159169 -0.0166728 -0.0173885 -0.0179555 -0.0183739 -0.0186437 -0.0187648 -0.0187373 -0.0185611 -0.0182363 -0.0178424 -0.0174587 -0.0170855 -0.0167225 -0.0163699 -0.0160276 -0.0156957 -0.0153741 -0.0151973 -0.0152997 -0.0156814 -0.0163422 -0.0172824 -0.0185017 -0.0200003 -0.0217781 -0.023222 -0.0237188 -0.0232686 -0.0218712 -0.0195268 -0.0162354 -0.0119969 -0.00681127 -0.000365663 0.00765289 0.0172444 0.0284088 0.0411462 0.0554566 0.0713399 0.0887961 0.10664 0.123687 0.139938 0.155391 0.170047 0.183906 0.196968 0.209233 0.220348 0.229958 0.238065 0.244668 0.249767 0.253363 0.255454 0.256042 0.255149 0.252798 0.24899 0.243724 0.237001 0.22882 0.219181 0.208085 0.195902 0.183004 0.169388 0.155057 0.14001 0.124247 0.107768 0.0905724 0.0738291 0.0587059 0.045203 0.0333201 0.0230574 0.0144149 0.00739255 0.00199034 -0.00218684 -0.00553408 -0.0080514 -0.00973879 -0.0105963 -0.0106238 -0.00982142 -0.0081891 -0.00626978 -0.00460637 -0.00319887 -0.00204728 -0.00115159 -0.0