<?xml version="1.0"?> 
<VTKFile type="StructuredGrid" version="0.1"> 
<StructuredGrid WholeExtent="0 128 0 128 0 0"> 
<Piece Extent="0 128 0 128 0 0"> 
<PointData>
<DataArray type="Float32" Name="u" format="ascii" NumberOfComponents="1"> 
0 0 0 0 0 0 0 0 0 0 0 0 0 0 0 0 0 0 0 0 0 0 0 0 0 0 0 0 0 0 0 0 0 0 0 0 0 0 0 0 0 0 0 0 0 0 0 0 0 0 0 0 0 0 0 0 0 0 0 0 0 0 0 0 0 0 0 0 0 0 0 0 0 0 0 0 0 0 0 0 0 0 0 0 0 0 0 0 0 0 0 0 0 0 0 0 0 0 0 0 0 0 0 0 0 0 0 0 0 0 0 0 0 0 0 0 0 0 0 0 0 0 0 0 0 0 0 0 0 0 -3.85451e-09 -1.5418e-08 -3.46906e-08 -6.16722e-08 -9.63628e-08 -1.38762e-07 -1.88871e-07 -2.46689e-07 -5.17859e-07 -1.20802e-06 -2.31718e-06 -3.84534e-06 -5.79249e-06 -8.15864e-06 -1.09438e-05 -1.41479e-05 -1.78223e-05 -2.20182e-05 -2.67356e-05 -3.19744e-05 -3.77348e-05 -4.40167e-05 -5.082e-05 -5.81449e-05 -6.56835e-05 -7.31283e-05 -8.04792e-05 -8.77362e-05 -9.48993e-05 -0.000101968 -0.000108944 -0.000115825 -0.000122186 -0.0001276 -0.000132066 -0.000135584 -0.000138156 -0.00013978 -0.000140456 -0.000140185 -0.000139088 -0.000137285 -0.000134775 -0.00013156 -0.000127639 -0.000123012 -0.000117679 -0.00011164 -0.000105486 -9.98109e-05 -9.46131e-05 -8.98929e-05 -8.56505e-05 -8.18857e-05 -7.85987e-05 -7.57893e-05 -7.36522e-05 -7.23818e-05 -7.19782e-05 -7.24414e-05 -7.37714e-05 -7.59681e-05 -7.90317e-05 -8.2962e-05 -8.75808e-05 -9.271e-05 -9.83494e-05 -0.000104499 -0.000111159 -0.000118329 -0.00012601 -0.000134201 -0.000142688 -0.000151259 -0.000159912 -0.000168647 -0.000177466 -0.000186367 -0.000195351 -0.000204417 -0.000212972 -0.000220421 -0.000226763 -0.000231998 -0.000236128 -0.00023915 -0.000241067 -0.000241877 -0.000241593 -0.000240227 -0.000237778 -0.000234248 -0.000229636 -0.000223941 -0.000217165 -0.000209306 -0.000200891 -0.000192444 -0.000183966 -0.000175456 -0.000166914 -0.000158341 -0.000149736 -0.000141099 -0.000132445 -0.000123786 -0.000115122 -0.000106454 -9.7781e-05 -8.91035e-05 -8.04214e-05 -7.17347e-05 -6.32999e-05 -5.53734e-05 -4.79553e-05 -4.10455e-05 -3.4644e-05 -2.87508e-05 -2.3366e-05 -1.84894e-05 -1.4156e-05 -1.04003e-05 -7.22243e-06 -4.62236e-06 -2.60008e-06 -1.15559e-06 -2.88897e-07 0 0 -1.5418e-08 -6.16722e-08 -1.38762e-07 -2.46689e-07 -3.85451e-07 -5.5505e-07 -7.55484e-07 -9.86755e-07 -2.07143e-06 -4.83209e-06 -9.26874e-06 -1.53814e-05 -2.317e-05 -3.26346e-05 -4.37751e-05 -5.65917e-05 -7.12892e-05 -8.80727e-05 -0.000106942 -0.000127898 -0.000150939 -0.000176067 -0.00020328 -0.000232579 -0.000262734 -0.000292513 -0.000321917 -0.000350945 -0.000379597 -0.000407874 -0.000435775 -0.000463301 -0.000488744 -0.000510398 -0.000528262 -0.000542337 -0.000552623 -0.000559119 -0.000561825 -0.000560742 -0.000556352 -0.000549139 -0.000539102 -0.000526241 -0.000510556 -0.000492047 -0.000470715 -0.000446558 -0.000421946 -0.000399244 -0.000378452 -0.000359572 -0.000342602 -0.000327543 -0.000314395 -0.000303157 -0.000294609 -0.000289527 -0.000287913 -0.000289766 -0.000295086 -0.000303873 -0.000316127 -0.000331848 -0.000350323 -0.00037084 -0.000393398 -0.000417997 -0.000444637 -0.000473318 -0.00050404 -0.000536804 -0.000570754 -0.000605034 -0.000639646 -0.000674589 -0.000709862 -0.000745467 -0.000781403 -0.000817669 -0.000851889 -0.000881682 -0.000907051 -0.000927993 -0.00094451 -0.000956602 -0.000964267 -0.000967508 -0.000966371 -0.000960906 -0.000951113 -0.000936992 -0.000918543 -0.000895765 -0.000868659 -0.000837225 -0.000803564 -0.000769777 -0.000735863 -0.000701823 -0.000667656 -0.000633363 -0.000598944 -0.000564398 -0.00052978 -0.000495143 -0.000460489 -0.000425815 -0.000391124 -0.000356414 -0.000321686 -0.000286939 -0.0002532 -0.000221494 -0.000191821 -0.000164182 -0.000138576 -0.000115003 -9.34638e-05 -7.39577e-05 -5.66239e-05 -4.16012e-05 -2.88897e-05 -1.84894e-05 -1.04003e-05 -4.62236e-06 -1.15559e-06 0 0 -3.46906e-08 -1.38762e-07 -3.12215e-07 -5.5505e-07 -8.67265e-07 -1.24886e-06 -1.69984e-06 -2.2202e-06 -4.66073e-06 -1.08722e-05 -2.08547e-05 -3.46081e-05 -5.21324e-05 -7.34277e-05 -9.8494e-05 -0.000127331 -0.000160401 -0.000198164 -0.00024062 -0.00028777 -0.000339613 -0.00039615 -0.00045738 -0.000523304 -0.000591152 -0.000658155 -0.000724313 -0.000789626 -0.000854094 -0.000917716 -0.000980494 -0.00104243 -0.00109967 -0.0011484 -0.00118859 -0.00122026 -0.0012434 -0.00125802 -0.00126411 -0.00126167 -0.00125179 -0.00123556 -0.00121298 -0.00118404 -0.00114875 -0.00110711 -0.00105911 -0.00100476 -0.000949378 -0.000898298 -0.000851518 -0.000809036 -0.000770854 -0.000736972 -0.000707388 -0.000682104 -0.000662869 -0.000651436 -0.000647804 -0.000651973 -0.000663943 -0.000683713 -0.000711285 -0.000746658 -0.000788228 -0.00083439 -0.000885145 -0.000940492 -0.00100043 -0.00106497 -0.00113409 -0.00120781 -0.0012842 -0.00136133 -0.0014392 -0.00151782 -0.00159719 -0.0016773 -0.00175816 -0.00183976 -0.00191675 -0.00198379 -0.00204086 -0.00208798 -0.00212515 -0.00215235 -0.0021696 -0.00217689 -0.00217433 -0.00216204 -0.00214 -0.00210823 -0.00206672 -0.00201547 -0.00195448 -0.00188376 -0.00180802 -0.001732 -0.00165569 -0.0015791 -0.00150223 -0.00142507 -0.00134762 -0.0012699 -0.001192 -0.00111407 -0.0010361 -0.000958085 -0.000880029 -0.000801931 -0.000723793 -0.000645613 -0.000569699 -0.000498361 -0.000431598 -0.000369409 -0.000311796 -0.000258757 -0.000210294 -0.000166405 -0.000127404 -9.36027e-05 -6.50019e-05 -4.16012e-05 -2.34007e-05 -1.04003e-05 -2.60008e-06 0 0 -6.16722e-08 -2.46689e-07 -5.5505e-07 -9.86755e-07 -1.5418e-06 -2.2202e-06 -3.02194e-06 -3.94702e-06 -8.28574e-06 -1.93284e-05 -3.70749e-05 -6.15254e-05 -9.26799e-05 -0.000130538 -0.0001751 -0.000226367 -0.000285157 -0.000352291 -0.000427769 -0.000511591 -0.000603757 -0.000704267 -0.00081312 -0.000930318 -0.00105094 -0.00117005 -0.00128767 -0.00140378 -0.00151839 -0.0016315 -0.0017431 -0.0018532 -0.00195498 -0.00204159 -0.00211305 -0.00216935 -0.00221049 -0.00223647 -0.0022473 -0.00224297 -0.00222541 -0.00219656 -0.00215641 -0.00210496 -0.00204222 -0.00196819 -0.00188286 -0.00178623 -0.00168778 -0.00159697 -0.00151381 -0.00143829 -0.00137041 -0.00131017 -0.00125758 -0.00121263 -0.00117843 -0.00115811 -0.00115165 -0.00115906 -0.00118034 -0.00121549 -0.00126451 -0.00132739 -0.00140129 -0.00148336 -0.00157359 -0.00167199 -0.00177855 -0.00189327 -0.00201616 -0.00214722 -0.00228301 -0.00242014 -0.00255858 -0.00269836 -0.00283945 -0.00298187 -0.00312561 -0.00327068 -0.00340755 -0.00352673 -0.0036282 -0.00371197 -0.00377804 -0.00382641 -0.00385707 -0.00387003 -0.00386548 -0.00384362 -0.00380445 -0.00374797 -0.00367417 -0.00358306 -0.00347464 -0.0033489 -0.00321426 -0.00307911 -0.00294345 -0.00280729 -0.00267062 -0.00253345 -0.00239577 -0.00225759 -0.00211912 -0.00198057 -0.00184195 -0.00170326 -0.0015645 -0.00142566 -0.00128674 -0.00114776 -0.0010128 -0.000885975 -0.000767285 -0.000656728 -0.000554304 -0.000460013 -0.000373855 -0.000295831 -0.000226496 -0.000166405 -0.000115559 -7.39577e-05 -4.16012e-05 -1.84894e-05 -4.62236e-06 0 0 -9.63628e-08 -3.85451e-07 -8.67265e-07 -1.5418e-06 -2.40907e-06 -3.46906e-06 -4.72178e-06 -6.16722e-06 -1.29465e-05 -3.02006e-05 -5.79296e-05 -9.61335e-05 -0.000144812 -0.000203966 -0.000273594 -0.000353698 -0.000445557 -0.000550454 -0.000668389 -0.000799361 -0.00094337 -0.00110042 -0.0012705 -0.00145362 -0.00164209 -0.00182821 -0.00201198 -0.0021934 -0.00237248 -0.00254921 -0.0027236 -0.00289563 -0.00305465 -0.00318999 -0.00330164 -0.00338961 -0.00345389 -0.00349449 -0.00351141 -0.00350464 -0.0034772 -0.00343212 -0.00336939 -0.003289 -0.00319097 -0.00307529 -0.00294197 -0.00279099 -0.00263716 -0.00249527 -0.00236533 -0.00224732 -0.00214126 -0.00204714 -0.00196497 -0.00189473 -0.0018413 -0.00180955 -0.00179946 -0.00181104 -0.00184428 -0.0018992 -0.00197579 -0.00207405 -0.00218952 -0.00231775 -0.00245874 -0.00261248 -0.00277898 -0.00295824 -0.00315025 -0.00335503 -0.00356721 -0.00378147 -0.00399779 -0.00421618 -0.00443664 -0.00465917 -0.00488377 -0.00511043 -0.0053243 -0.00551052 -0.00566907 -0.00579996 -0.00590319 -0.00597876 -0.00602667 -0.00604692 -0.00603982 -0.00600566 -0.00594446 -0.0058562 -0.00574089 -0.00559853 -0.00542912 -0.00523266 -0.00502228 -0.0048111 -0.00459914 -0.00438639 -0.00417285 -0.00395852 -0.0037434 -0.00352749 -0.00331112 -0.00309465 -0.00287805 -0.00266135 -0.00244452 -0.00222759 -0.00201053 -0.00179337 -0.0015825 -0.00138434 -0.00119888 -0.00102614 -0.000866099 -0.00071877 -0.000584149 -0.000462236 -0.000353899 -0.000260008 -0.000180561 -0.000115559 -6.50019e-05 -2.88897e-05 -7.22243e-06 0 0 -1.38762e-07 -5.5505e-07 -1.24886e-06 -2.2202e-06 -3.46906e-06 -4.99545e-06 -6.79936e-06 -8.88079e-06 -1.86429e-05 -4.34889e-05 -8.34186e-05 -0.000138432 -0.00020853 -0.000293711 -0.000393976 -0.000509325 -0.000641603 -0.000792654 -0.00096248 -0.00115108 -0.00135845 -0.0015846 -0.00182952 -0.00209322 -0.00236461 -0.00263262 -0.00289725 -0.0031585 -0.00341637 -0.00367087 -0.00392198 -0.00416971 -0.0043987 -0.00459358 -0.00475436 -0.00488103 -0.0049736 -0.00503207 -0.00505642 -0.00504668 -0.00500717 -0.00494225 -0.00485192 -0.00473617 -0.004595 -0.00442842 -0.00423643 -0.00401903 -0.00379751 -0.00359319 -0.00340607 -0.00323615 -0.00308342 -0.00294789 -0.00282955 -0.00272842 -0.00265148 -0.00260574 -0.00259122 -0.00260789 -0.00265577 -0.00273485 -0.00284514 -0.00298663 -0.00315291 -0.00333756 -0.00354058 -0.00376197 -0.00400173 -0.00425986 -0.00453636 -0.00483124 -0.00513678 -0.00544531 -0.00575682 -0.0060713 -0.00638876 -0.0067092 -0.00703262 -0.00735902 -0.007667 -0.00793514 -0.00816346 -0.00835194 -0.00850059 -0.00860941 -0.00867841 -0.00870757 -0.00869734 -0.00864816 -0.00856002 -0.00843293 -0.00826688 -0.00806189 -0.00781793 -0.00753503 -0.00723208 -0.00692799 -0.00662277 -0.0063164 -0.0060089 -0.00570027 -0.00539049 -0.00507958 -0.00476802 -0.00445629 -0.0041444 -0.00383234 -0.00352011 -0.00320772 -0.00289517 -0.00258245 -0.0022788 -0.00199344 -0.00172639 -0.00147764 -0.00124718 -0.00103503 -0.000841174 -0.00066562 -0.000509615 -0.000374411 -0.000260008 -0.000166405 -9.36027e-05 -4.16012e-05 -1.04003e-05 0 0 -1.88871e-07 -7.55484e-07 -1.69984e-06 -3.02194e-06 -4.72178e-06 -6.79936e-06 -9.25468e-06 -1.20877e-05 -2.53751e-05 -5.91932e-05 -0.000113542 -0.000188422 -0.000283832 -0.000399773 -0.000536245 -0.000693248 -0.000873293 -0.00107889 -0.00131004 -0.00156675 -0.001849 -0.00215682 -0.00249018 -0.0028491 -0.00321849 -0.00358329 -0.00394348 -0.00429907 -0.00465006 -0.00499646 -0.00533825 -0.00567544 -0.00598712 -0.00625238 -0.00647121 -0.00664363 -0.00676963 -0.0068492 -0.00688236 -0.00686909 -0.00681532 -0.00672695 -0.006604 -0.00644645 -0.00625431 -0.00602758 -0.00576626 -0.00547034 -0.00516883 -0.00489073 -0.00463604 -0.00440475 -0.00419687 -0.0040124 -0.00385134 -0.00371368 -0.00360896 -0.00354671 -0.00352693 -0.00354963 -0.0036148 -0.00372244 -0.00387255 -0.00406514 -0.00429146 -0.00454279 -0.00481912 -0.00512046 -0.0054468 -0.00579815 -0.0061745 -0.00657585 -0.00699173 -0.00741167 -0.00783566 -0.00826371 -0.00869581 -0.00913197 -0.00957218 -0.0100164 -0.0104356 -0.0108006 -0.0111114 -0.0113679 -0.0115702 -0.0117184 -0.0118123 -0.011852 -0.011838 -0.0117711 -0.0116511 -0.0114782 -0.0112521 -0.0109731 -0.0106411 -0.010256 -0.00984366 -0.00942977 -0.00901432 -0.00859733 -0.00817879 -0.0077587 -0.00733706 -0.00691387 -0.0064898 -0.00606551 -0.00564098 -0.00521624 -0.00479127 -0.00436607 -0.00394065 -0.003515 -0.0031017 -0.0027133 -0.00234981 -0.00201123 -0.00169755 -0.00140879 -0.00114493 -0.000905982 -0.000693643 -0.000509615 -0.000353899 -0.000226496 -0.000127404 -5.66239e-05 -1.4156e-05 0 0 -2.46689e-07 -9.86755e-07 -2.2202e-06 -3.94702e-06 -6.16722e-06 -8.88079e-06 -1.20877e-05 -1.57881e-05 -3.31429e-05 -7.73135e-05 -0.0001483 -0.000246102 -0.000370719 -0.000522153 -0.000700402 -0.000905467 -0.00114063 -0.00140916 -0.00171108 -0.00204636 -0.00241503 -0.00281707 -0.00325248 -0.00372127 -0.00420375 -0.00468021 -0.00515067 -0.00561512 -0.00607355 -0.00652598 -0.0069724 -0.00741282 -0.00781991 -0.00816637 -0.0084522 -0.00867739 -0.00884196 -0.0089459 -0.0089892 -0.00897187 -0.00890164 -0.00878622 -0.00862563 -0.00841985 -0.00816889 -0.00787275 -0.00753144 -0.00714493 -0.00675113 -0.0063879 -0.00605524 -0.00575315 -0.00548163 -0.00524069 -0.00503032 -0.00485052 -0.00471374 -0.00463244 -0.00460661 -0.00463625 -0.00472137 -0.00486196 -0.00505803 -0.00530957 -0.00560517 -0.00593344 -0.00629436 -0.00668795 -0.00711419 -0.00757309 -0.00806465 -0.00858886 -0.00913206 -0.00968055 -0.0102343 -0.0107934 -0.0113578 -0.0119275 -0.0125024 -0.0130827 -0.0136302 -0.0141069 -0.0145128 -0.0148479 -0.0151122 -0.0153056 -0.0154283 -0.0154801 -0.0154619 -0.0153745 -0.0152178 -0.0149919 -0.0146967 -0.0143322 -0.0138985 -0.0133956 -0.012857 -0.0123164 -0.0117738 -0.0112292 -0.0106825 -0.0101338 -0.0095831 -0.00903037 -0.00847648 -0.00792229 -0.00736782 -0.00681305 -0.00625798 -0.00570262 -0.00514697 -0.00459102 -0.00405119 -0.0035439 -0.00306914 -0.00262691 -0.00221721 -0.00184005 -0.00149542 -0.00118332 -0.000905982 -0.00066562 -0.000462236 -0.000295831 -0.000166405 -7.39577e-05 -1.84894e-05 0 0 -5.95637e-07 -2.38255e-06 -5.36073e-06 -9.53019e-06 -1.48909e-05 -2.14429e-05 -2.91862e-05 -3.81207e-05 -6.43959e-05 -0.000124161 -0.000217416 -0.000344161 -0.000504395 -0.00069812 -0.000925335 -0.00118604 -0.00148405 -0.00182317 -0.0022034 -0.00262476 -0.00308722 -0.0035908 -0.0041355 -0.00472131 -0.0053239 -0.00591895 -0.00650645 -0.00708641 -0.00765881 -0.00822368 -0.00878099 -0.00933076 -0.00983884 -0.0102711 -0.0106275 -0.0109081 -0.0111129 -0.0112418 -0.0112949 -0.0112722 -0.0111837 -0.0110392 -0.0108389 -0.0105827 -0.0102706 -0.00990262 -0.00947877 -0.00899904 -0.00851047 -0.00806011 -0.00764795 -0.00727399 -0.00693824 -0.00664069 -0.00638134 -0.0061602 -0.00598999 -0.00588343 -0.00584054 -0.00586131 -0.00594574 -0.00609384 -0.00630559 -0.006581 -0.00690344 -0.00725627 -0.0076395 -0.00805312 -0.00849713 -0.00897154 -0.00947633 -0.0100115 -0.010565 -0.0111247 -0.0116906 -0.0122627 -0.012841 -0.0134255 -0.0140162 -0.0146131 -0.0151769 -0.0156685 -0.0160878 -0.0164348 -0.0167096 -0.016912 -0.0170422 -0.0171001 -0.0170864 -0.0170019 -0.0168465 -0.0166203 -0.0163231 -0.0159552 -0.0155163 -0.0150066 -0.0144598 -0.0139096 -0.0133561 -0.0127991 -0.0122388 -0.0116751 -0.0111081 -0.0105376 -0.00996013 -0.00937186 -0.00877281 -0.00816299 -0.00754241 -0.00691105 -0.00626892 -0.00561603 -0.00497558 -0.00437082 -0.00380173 -0.00326832 -0.00277059 -0.00230853 -0.00188215 -0.00149145 -0.00114189 -0.000838941 -0.000582598 -0.000372863 -0.000209735 -9.32157e-05 -2.33039e-05 0 0 -1.51914e-06 -6.07654e-06 -1.36722e-05 -2.43062e-05 -3.79784e-05 -5.46889e-05 -7.44377e-05 -9.72247e-05 -0.000141583 -0.000226046 -0.000350614 -0.000515287 -0.000720064 -0.000964946 -0.00124993 -0.00157502 -0.00194399 -0.0023606 -0.00282485 -0.00333675 -0.00389629 -0.00450348 -0.00515831 -0.00586078 -0.0065825 -0.00729506 -0.00799847 -0.00869272 -0.00937782 -0.0100538 -0.0107206 -0.0113782 -0.0119857 -0.0125021 -0.0129274 -0.0132616 -0.0135047 -0.0136567 -0.0137176 -0.0136874 -0.0135789 -0.0134051 -0.0131658 -0.0128612 -0.0124912 -0.0120558 -0.0115551 -0.0109889 -0.0104129 -0.00988281 -0.00939848 -0.00895996 -0.00856725 -0.00822035 -0.00791927 -0.00766399 -0.00746186 -0.00732021 -0.00723905 -0.00721838 -0.00725818 -0.00735848 -0.00751926 -0.00774052 -0.00799566 -0.00825806 -0.00852773 -0.00880467 -0.00908887 -0.00938034 -0.00967907 -0.00998507 -0.0102978 -0.0106169 -0.0109422 -0.0112738 -0.0116116 -0.0119557 -0.0123061 -0.0126628 -0.0130019 -0.0132998 -0.0135564 -0.0137717 -0.0139457 -0.0140784 -0.0141698 -0.01422 -0.014229 -0.0141969 -0.0141237 -0.0140095 -0.0138542 -0.0136578 -0.0134204 -0.0131419 -0.0128397 -0.012531 -0.012216 -0.0118945 -0.0115666 -0.0112322 -0.0108915 -0.0105443 -0.0101729 -0.0097594 -0.00930388 -0.00880631 -0.00826669 -0.00768502 -0.0070613 -0.00639553 -0.00572316 -0.00507962 -0.00446494 -0.0038791 -0.0033221 -0.00279394 -0.00229463 -0.00182417 -0.00139663 -0.0010261 -0.000712566 -0.000456043 -0.000256524 -0.000114011 -2.85027e-05 0 0 -3.01719e-06 -1.20687e-05 -2.71547e-05 -4.8275e-05 -7.54297e-05 -0.000108619 -0.000147842 -0.0001931 -0.000264705 -0.00038297 -0.000547895 -0.00075948 -0.00101772 -0.00132263 -0.00167419 -0.00207242 -0.00252046 -0.00302146 -0.00357542 -0.00418235 -0.00484224 -0.00555509 -0.00632091 -0.00713969 -0.00797954 -0.00880855 -0.00962672 -0.0104341 -0.0112306 -0.0120162 -0.0127911 -0.0135551 -0.0142604 -0.0148593 -0.0153518 -0.0157378 -0.0160173 -0.0161904 -0.0162571 -0.0162172 -0.0160874 -0.0158838 -0.0156065 -0.0152555 -0.0148308 -0.0143324 -0.0137603 -0.0131145 -0.0124585 -0.011856 -0.0113068 -0.010811 -0.0103687 -0.00997968 -0.00964409 -0.00936189 -0.00912936 -0.00894277 -0.00880213 -0.00870744 -0.00865869 -0.00865589 -0.00869903 -0.00878812 -0.00888182 -0.0089388 -0.00895906 -0.00894259 -0.0088894 -0.00879949 -0.00867286 -0.00850951 -0.00833055 -0.00815709 -0.00798913 -0.00782667 -0.00766971 -0.00751826 -0.00737231 -0.00723185 -0.00710524 -0.0070008 -0.00691853 -0.00685844 -0.00682051 -0.00680476 -0.00681119 -0.00683978 -0.00688953 -0.00695941 -0.00704943 -0.00715957 -0.00728985 -0.00744027 -0.00761081 -0.00780149 -0.00799665 -0.00818065 -0.00835349 -0.00851517 -0.00866569 -0.00880505 -0.00893325 -0.00905028 -0.00911467 -0.00908492 -0.00896103 -0.00874301 -0.00843084 -0.00802454 -0.00752411 -0.00692953 -0.00629391 -0.00567032 -0.00505876 -0.00445924 -0.00387175 -0.00329629 -0.00273287 -0.00218148 -0.0016702 -0.00122708 -0.000852141 -0.00054537 -0.000306771 -0.000136343 -3.40857e-05 0 0 -5.08979e-06 -2.03592e-05 -4.58081e-05 -8.14366e-05 -0.000127245 -0.000183232 -0.0002494 -0.000325747 -0.000433761 -0.000594931 -0.000809258 -0.00107674 -0.00139738 -0.00177117 -0.00219812 -0.00267823 -0.00321345 -0.00380574 -0.00445511 -0.00516155 -0.00592506 -0.00674565 -0.0076233 -0.00855804 -0.00951501 -0.0104594 -0.0113912 -0.0123104 -0.0132171 -0.0141111 -0.0149926 -0.0158615 -0.0166631 -0.0173429 -0.0179008 -0.0183368 -0.0186509 -0.0188431 -0.0189135 -0.0188619 -0.018709 -0.0184753 -0.0181608 -0.0177654 -0.0172893 -0.0167323 -0.0160945 -0.0153758 -0.0146473 -0.0139796 -0.013373 -0.0128272 -0.0123425 -0.0119187 -0.0115558 -0.0112539 -0.0109925 -0.0107511 -0.0105298 -0.0103285 -0.0101473 -0.00998607 -0.00984491 -0.0097238 -0.00956193 -0.00929849 -0.00893347 -0.00846689 -0.00789873 -0.007229 -0.00645771 -0.00558484 -0.00466313 -0.00374532 -0.00283141 -0.00192139 -0.00101527 -0.000113044 0.000785284 0.00167971 0.00251315 0.00322849 0.00382573 0.00430488 0.00466593 0.00490889 0.00503375 0.00504052 0.00493187 0.00471048 0.00437636 0.0039295 0.00336991 0.00269757 0.0019125 0.0010147 6.93221e-05 -0.000858459 -0.00176865 -0.00266124 -0.00353623 -0.00439363 -0.00523344 -0.00605565 -0.00678555 -0.00734842 -0.00774426 -0.00797307 -0.00803485 -0.00792961 -0.00765734 -0.00721804 -0.00668784 -0.0061429 -0.0055832 -0.00500874 -0.00441953 -0.00381557 -0.00319686 -0.00256339 -0.00196259 -0.0014419 -0.00100132 -0.000640846 -0.000360476 -0.000160212 -4.00529e-05 0 0 -7.73694e-06 -3.09478e-05 -6.96325e-05 -0.000123791 -0.000193424 -0.00027853 -0.00037911 -0.000495164 -0.000648752 -0.000861931 -0.0011347 -0.00146707 -0.00185902 -0.00231057 -0.00282171 -0.00339245 -0.00402296 -0.00471345 -0.00546391 -0.00627435 -0.00714476 -0.00807514 -0.00906549 -0.0101158 -0.0111889 -0.0122476 -0.0132919 -0.0143218 -0.0153373 -0.0163384 -0.0173251 -0.0182973 -0.0191937 -0.0199527 -0.0205743 -0.0210585 -0.0214053 -0.0216147 -0.0216867 -0.0216214 -0.0214439 -0.0211798 -0.0208288 -0.0203911 -0.0198667 -0.0192555 -0.0185576 -0.0177729 -0.0169791 -0.0162538 -0.0155969 -0.0150086 -0.0144887 -0.0140373 -0.0136544 -0.01334 -0.0130512 -0.0127452 -0.012422 -0.0120816 -0.0117239 -0.011349 -0.0109569 -0.0105476 -0.010036 -0.00933713 -0.00845098 -0.00737756 -0.00611685 -0.00466887 -0.0030336 -0.00121105 0.000704413 0.00261842 0.00453097 0.00644207 0.00835172 0.0102599 0.0121666 0.0140719 0.0158532 0.0173881 0.0186764 0.0197183 0.0205137 0.0210626 0.021365 0.0214209 0.0212352 0.0208128 0.0201536 0.0192577 0.0181251 0.0167557 0.0151495 0.0133066 0.0113582 0.00943553 0.00753857 0.00566733 0.00382182 0.00200203 0.000207964 -0.00156038 -0.0031855 -0.00454989 -0.00565356 -0.00649651 -0.00707873 -0.00740022 -0.00746099 -0.00726104 -0.00690496 -0.00649736 -0.00603825 -0.00552761 -0.00496546 -0.00435179 -0.00368659 -0.00296988 -0.00227382 -0.00167056 -0.00116011 -0.000742471 -0.00041764 -0.000185618 -4.64044e-05 0 0 -1.09586e-05 -4.38346e-05 -9.86278e-05 -0.000175338 -0.000273966 -0.000394511 -0.000536974 -0.000701354 -0.000909677 -0.00118397 -0.00152423 -0.00193046 -0.00240266 -0.00294083 -0.00354497 -0.00421508 -0.004949 -0.00574459 -0.00660184 -0.00752075 -0.00850133 -0.00954357 -0.0106475 -0.011813 -0.0130013 -0.0141732 -0.0153289 -0.0164682 -0.0175913 -0.0186981 -0.0197885 -0.0208627 -0.0218522 -0.0226887 -0.0233723 -0.0239029 -0.0242805 -0.0245052 -0.0245769 -0.0244956 -0.0242921 -0.023997 -0.0236105 -0.0231326 -0.0225631 -0.0219021 -0.0211497 -0.0203057 -0.0194541 -0.0186784 -0.0179787 -0.017355 -0.0168073 -0.0163356 -0.0159399 -0.0156202 -0.0153056 -0.0149251 -0.0144788 -0.0139666 -0.0133886 -0.0127447 -0.012035 -0.0112594 -0.010304 -0.00905472 -0.00751159 -0.00567461 -0.00354377 -0.00111908 0.00159946 0.00461185 0.00777208 0.0109341 0.014098 0.0172637 0.0204312 0.0236006 0.0267718 0.0299448 0.032915 0.0354779 0.0376335 0.0393818 0.0407227 0.0416563 0.0421825 0.0423014 0.0420206 0.0413476 0.0402824 0.0388251 0.0369757 0.034734 0.0321002 0.0290743 0.02587 0.0227013 0.0195682 0.0164705 0.0134085 0.0103819 0.00739096 0.00443553 0.00168548 -0.000689348 -0.00268895 -0.00431332 -0.00556246 -0.00643638 -0.00693507 -0.00705853 -0.00694526 -0.00673371 -0.00642391 -0.00601585 -0.00550952 -0.00490493 -0.00420208 -0.00340097 -0.00260387 -0.00191305 -0.0013285 -0.000850243 -0.000478262 -0.000212561 -5.31402e-05 0 0 -1.47549e-05 -5.90196e-05 -0.000132794 -0.000236078 -0.000368873 -0.000531177 -0.00072299 -0.000944314 -0.00121654 -0.00156104 -0.00197784 -0.00246692 -0.00302829 -0.00366195 -0.00436789 -0.00514612 -0.00599156 -0.00689915 -0.00786888 -0.00890076 -0.00999478 -0.0111509 -0.0123692 -0.0136497 -0.0149521 -0.0162362 -0.0175021 -0.0187497 -0.019979 -0.0211901 -0.0223829 -0.0235575 -0.0246386 -0.0255511 -0.0262949 -0.0268701 -0.0272767 -0.0275146 -0.0275839 -0.0274846 -0.0272534 -0.0269272 -0.026506 -0.0259897 -0.0253784 -0.0246721 -0.0238707 -0.0229743 -0.0220722 -0.0212535 -0.0205183 -0.0198666 -0.0192983 -0.0188136 -0.0184123 -0.0180946 -0.0177556 -0.0172908 -0.0167002 -0.0159837 -0.0151414 -0.0141732 -0.0130792 -0.0118594 -0.010366 -0.00845126 -0.00611529 -0.00335803 -0.000179481 0.00342035 0.00744146 0.0118839 0.0165399 0.0212018 0.0258697 0.0305435 0.0352233 0.039909 0.0446007 0.0492983 0.0536985 0.0574981 0.060697 0.0632953 0.065293 0.06669 0.0674863 0.067682 0.0672879 0.0663148 0.0647627 0.0626317 0.0599216 0.0566326 0.0527646 0.0483177 0.0436048 0.0389389 0.0343201 0.0297484 0.0252237 0.0207461 0.0163156 0.0119321 0.00782738 0.00423322 0.00114959 -0.0014235 -0.00348606 -0.00503808 -0.00607957 -0.00661053 -0.00680873 -0.00685195 -0.00674019 -0.00647345 -0.00605172 -0.00547501 -0.00474332 -0.00385665 -0.00295275 -0.00216937 -0.0015065 -0.000964163 -0.000542342 -0.000241041 -6.02602e-05 0 0 -1.91257e-05 -7.65029e-05 -0.000172131 -0.000306011 -0.000478143 -0.000688526 -0.00093716 -0.00122405 -0.00156933 -0.00199316 -0.00249553 -0.00307645 -0.00373591 -0.00447392 -0.00529047 -0.00618557 -0.00715065 -0.00817714 -0.00926505 -0.0104144 -0.0116251 -0.0128973 -0.0142308 -0.0156258 -0.0170413 -0.0184366 -0.0198115 -0.0211662 -0.0225005 -0.0238146 -0.0251083 -0.0263818 -0.0275529 -0.0285397 -0.029342 -0.02996 -0.0303937 -0.0306429 -0.0307078 -0.0305883 -0.0303279 -0.0299702 -0.0295151 -0.0289625 -0.0283126 -0.0275654 -0.0267207 -0.0257786 -0.0248334 -0.0239791 -0.0232157 -0.0225432 -0.0219618 -0.0214712 -0.0210716 -0.020763 -0.0204012 -0.0198423 -0.0190861 -0.0181327 -0.0169822 -0.0156345 -0.0140895 -0.0123474 -0.0102219 -0.00752675 -0.00426208 -0.000427821 0.00397601 0.00894942 0.0144924 0.020605 0.0270078 0.0334215 0.0398461 0.0462815 0.0527279 0.0591852 0.0656534 0.0721324 0.0782037 0.0834486 0.087867 0.091459 0.0942246 0.0961637 0.0972764 0.0975627 0.0970372 0.0957144 0.0935945 0.0906774 0.086963 0.0824515 0.0771428 0.0710368 0.0645624 0.0581483 0.0517944 0.0455009 0.0392676 0.0330945 0.0269817 0.0209292 0.0152402 0.0102178 0.00586206 0.00217295 -0.000849512 -0.00320533 -0.0048945 -0.00591703 -0.00649539 -0.00685208 -0.00698709 -0.00690041 -0.00659206 -0.00606203 -0.00531032 -0.00433693 -0.00332046 -0.00243952 -0.00169411 -0.00108423 -0.00060988 -0.000271058 -6.77645e-05 0 0 -2.3943e-05 -9.57719e-05 -0.000215487 -0.000383087 -0.000598574 -0.000861947 -0.00117321 -0.00153235 -0.00195523 -0.00245769 -0.00303973 -0.00370136 -0.00444257 -0.00526336 -0.00616374 -0.0071437 -0.00818816 -0.00928204 -0.0104253 -0.0116181 -0.0128602 -0.0141518 -0.0154927 -0.0168831 -0.0182865 -0.0196665 -0.021023 -0.0223561 -0.0236657 -0.0249519 -0.0262147 -0.027454 -0.0285898 -0.0295421 -0.0303108 -0.030896 -0.0312976 -0.0315157 -0.0315502 -0.0314012 -0.0311197 -0.0307568 -0.0303125 -0.0297867 -0.0291796 -0.028491 -0.027721 -0.0268697 -0.0260255 -0.025277 -0.0246243 -0.0240674 -0.0236062 -0.0232408 -0.0229712 -0.0227973 -0.0225241 -0.0219564 -0.0210943 -0.0199378 -0.0184868 -0.0167415 -0.0147017 -0.0123674 -0.00951146 -0.00590646 -0.00155242 0.00355064 0.00940275 0.0160039 0.023354 0.0314532 0.039928 0.0484047 0.0568834 0.0653641 0.0738468 0.0823315 0.0908182 0.0993068 0.107257 0.114126 0.119916 0.124626 0.128256 0.130806 0.132276 0.132666 0.131995 0.130283 0.127528 0.123733 0.118895 0.113016 0.106095 0.098132 0.0896781 0.0812833 0.0729477 0.0646713 0.056454 0.0482959 0.040197 0.0321572 0.0245713 0.0178341 0.0119456 0.00690567 0.00271443 -0.000628156 -0.00312208 -0.00476736 -0.00583659 -0.00660241 -0.00706481 -0.0072238 -0.00707936 -0.00663151 -0.00588025 -0.00482557 -0.00369457 -0.00271438 -0.00188499 -0.00120639 -0.000678595 -0.000301598 -7.53995e-05 0 0 -2.90785e-05 -0.000116314 -0.000261707 -0.000465257 -0.000726964 -0.00104683 -0.00142485 -0.00186103 -0.0023614 -0.00293202 -0.00357288 -0.00428397 -0.00506531 -0.00591689 -0.0068387 -0.00783076 -0.00886599 -0.00991732 -0.0109848 -0.0120683 -0.013168 -0.0142837 -0.0154156 -0.0165635 -0.0177052 -0.0188181 -0.0199023 -0.0209578 -0.0219846 -0.0229827 -0.023952 -0.0248926 -0.0257441 -0.026446 -0.0269984 -0.0274013 -0.0276547 -0.0277585 -0.0277128 -0.0275176 -0.0272326 -0.0269177 -0.0265728 -0.0261978 -0.0257929 -0.0253581 -0.0248932 -0.0243984 -0.0239362 -0.0235693 -0.0232977 -0.0231214 -0.0230404 -0.0230547 -0.0231643 -0.0233692 -0.0234057 -0.0230101 -0.0221825 -0.0209228 -0.019231 -0.0171072 -0.0145514 -0.0115634 -0.00787451 -0.00321562 0.00241322 0.00901201 0.0165807 0.0251194 0.0346281 0.0451067 0.0560525 0.066963 0.0778379 0.0886775 0.0994816 0.11025 0.120983 0.131681 0.141683 0.150328 0.157617 0.163549 0.168125 0.171345 0.173207 0.173714 0.172888 0.170755 0.167315 0.162567 0.156512 0.14915 0.140481 0.130504 0.119887 0.109298 0.0987365 0.0882029 0.0776971 0.067219 0.0567687 0.046346 0.0364681 0.0276519 0.0198972 0.0132043 0.00757302 0.00300341 -0.00050455 -0.00295084 -0.00466368 -0.00597126 -0.00687358 -0.00737064 -0.00746245 -0.00714901 -0.00643031 -0.00530635 -0.00406267 -0.00298482 -0.00207279 -0.00132659 -0.000746205 -0.000331647 -8.29117e-05 0 0 -3.45325e-05 -0.00013813 -0.000310792 -0.000552519 -0.000863311 -0.00124317 -0.00169209 -0.00221008 -0.00278785 -0.00341615 -0.00409496 -0.00482428 -0.00560413 -0.00643449 -0.00731536 -0.00824675 -0.00918414 -0.010083 -0.0109433 -0.0117651 -0.0125484 -0.0132931 -0.0139993 -0.014667 -0.0152973 -0.0158915 -0.0164496 -0.0169715 -0.0174572 -0.0179068 -0.0183202 -0.0186975 -0.0190156 -0.0192513 -0.0194048 -0.0194759 -0.0194648 -0.0193713 -0.0191956 -0.0189375 -0.0186668 -0.0184529 -0.018296 -0.0181959 -0.0181528 -0.0181665 -0.0182372 -0.0183647 -0.0185655 -0.0188559 -0.0192358 -0.0197052 -0.0202643 -0.0209128 -0.021651 -0.0224786 -0.023046 -0.0230034 -0.0223506 -0.0210877 -0.0192148 -0.0167318 -0.0136386 -0.00993543 -0.00531101 0.00054575 0.00763484 0.0159563 0.02551 0.0362961 0.0483145 0.0615653 0.0753815 0.0890964 0.10271 0.116222 0.129632 0.142941 0.156149 0.169256 0.181483 0.192055 0.20097 0.20823 0.213833 0.21778 0.220071 0.220707 0.219717 0.217132 0.212954 0.207182 0.199816 0.190855 0.1803 0.168151 0.155189 0.142192 0.129161 0.116096 0.102997 0.0898639 0.0766969 0.0634958 0.0509306 0.039671 0.0297171 0.0210689 0.0137263 0.00768936 0.0029581 -0.000467491 -0.00297665 -0.00495862 -0.00641339 -0.00734096 -0.00774133 -0.00761451 -0.00696049 -0.00577927 -0.00442475 -0.00325084 -0.00225753 -0.00144482 -0.00081271 -0.000361204 -9.03011e-05 0 0 -4.03047e-05 -0.000161219 -0.000362742 -0.000644875 -0.00100762 -0.00145097 -0.00197493 -0.0025795 -0.00323458 -0.00391007 -0.00460598 -0.0053223 -0.00605902 -0.00681616 -0.00759372 -0.00839168 -0.00914261 -0.00977905 -0.010301 -0.0107085 -0.0110015 -0.01118 -0.011244 -0.0111935 -0.011063 -0.0108867 -0.0106647 -0.0103969 -0.0100835 -0.00972431 -0.00931942 -0.00886881 -0.0084044 -0.00795811 -0.00752994 -0.0071199 -0.00672797 -0.00635417 -0.00599849 -0.00566093 -0.00542206 -0.00536243 -0.00548204 -0.0057809 -0.00625901 -0.00691636 -0.00775295 -0.00876879 -0.00991352 -0.0111368 -0.0124386 -0.0138189 -0.0152778 -0.0168152 -0.0184312 -0.0201257 -0.0214452 -0.0219362 -0.0215987 -0.0204326 -0.0184381 -0.015615 -0.0119635 -0.00748338 -0.00182095 0.00537766 0.0141124 0.0243834 0.0361906 0.0495339 0.0644134 0.0808291 0.0979149 0.114805 0.131499 0.147997 0.164299 0.180405 0.196316 0.21203 0.226657 0.239305 0.249975 0.258666 0.265379 0.270112 0.272868 0.273644 0.27248 0.269414 0.264446 0.257576 0.248804 0.23813 0.225554 0.211076 0.195583 0.179965 0.164221 0.14835 0.132353 0.11623 0.0999815 0.0836065 0.0679587 0.0538916 0.0414051 0.0304993 0.0211742 0.0134297 0.00726587 0.0026827 -0.000775521 -0.0035645 -0.00568424 -0.00