<?xml version="1.0"?> 
<VTKFile type="StructuredGrid" version="0.1"> 
<StructuredGrid WholeExtent="0 128 0 128 0 0"> 
<Piece Extent="0 128 0 128 0 0"> 
<PointData>
<DataArray type="Float32" Name="u" format="ascii" NumberOfComponents="1"> 
0 0 0 0 0 0 0 0 0 0 0 0 0 0 0 0 0 0 0 0 0 0 0 0 0 0 0 0 0 0 0 0 0 0 0 0 0 0 0 0 0 0 0 0 0 0 0 0 0 0 0 0 0 0 0 0 0 0 0 0 0 0 0 0 0 0 0 0 0 0 0 0 0 0 0 0 0 0 0 0 0 0 0 0 0 0 0 0 0 0 0 0 0 0 0 0 0 0 0 0 0 0 0 0 0 0 0 0 0 0 0 0 0 0 0 0 0 0 0 0 0 0 0 0 0 0 0 0 0 0 1.0473e-07 4.18919e-07 9.42567e-07 1.67568e-06 2.61824e-06 3.77027e-06 5.13176e-06 6.7027e-06 8.25066e-06 9.5432e-06 1.05803e-05 1.1362e-05 1.18883e-05 1.21591e-05 1.21745e-05 1.19345e-05 1.14603e-05 1.07731e-05 9.8729e-06 8.75974e-06 7.4336e-06 5.89448e-06 4.14237e-06 2.17729e-06 2.20294e-07 -1.50754e-06 -3.00622e-06 -4.27574e-06 -5.31609e-06 -6.12729e-06 -6.70933e-06 -7.06221e-06 -7.2943e-06 -7.51397e-06 -7.72121e-06 -7.91603e-06 -8.09842e-06 -8.2684e-06 -8.42595e-06 -8.57107e-06 -8.5843e-06 -8.34614e-06 -7.8566e-06 -7.11569e-06 -6.12339e-06 -4.87971e-06 -3.38465e-06 -1.63821e-06 5.70533e-08 1.39857e-06 2.38634e-06 3.02037e-06 3.30065e-06 3.22719e-06 2.79999e-06 2.01904e-06 2.07713e-07 -3.31062e-06 -8.53596e-06 -1.54683e-05 -2.41077e-05 -3.44541e-05 -4.65074e-05 -6.02678e-05 -7.55126e-05 -9.20193e-05 -0.000109788 -0.000128818 -0.000149111 -0.000170665 -0.000193481 -0.000217559 -0.000242174 -0.000266602 -0.000290842 -0.000314895 -0.000338761 -0.00036244 -0.000385931 -0.000409235 -0.000430979 -0.000449788 -0.000465663 -0.000478604 -0.00048861 -0.000495683 -0.000499822 -0.000501026 -0.00049935 -0.000494849 -0.000487521 -0.000477367 -0.000464388 -0.000448582 -0.000429951 -0.000408493 -0.000385598 -0.000362653 -0.000339657 -0.000316612 -0.000293517 -0.000270371 -0.000247176 -0.000223931 -0.00020122 -0.000179627 -0.000159153 -0.000139797 -0.000121559 -0.00010444 -8.84395e-05 -7.35571e-05 -6.0002e-05 -4.79832e-05 -3.75006e-05 -2.85544e-05 -2.11444e-05 -1.52707e-05 -1.09332e-05 -8.13207e-06 -6.22612e-06 -4.57429e-06 -3.17659e-06 -2.03302e-06 -1.14357e-06 -5.08254e-07 -1.27064e-07 0 0 4.18919e-07 1.67568e-06 3.77027e-06 6.7027e-06 1.0473e-05 1.50811e-05 2.0527e-05 2.68108e-05 3.30027e-05 3.81728e-05 4.23213e-05 4.5448e-05 4.7553e-05 4.86364e-05 4.8698e-05 4.7738e-05 4.58411e-05 4.30923e-05 3.94916e-05 3.5039e-05 2.97344e-05 2.35779e-05 1.65695e-05 8.70916e-06 8.81176e-07 -6.03017e-06 -1.20249e-05 -1.71029e-05 -2.12644e-05 -2.45092e-05 -2.68373e-05 -2.82488e-05 -2.91772e-05 -3.00559e-05 -3.08848e-05 -3.16641e-05 -3.23937e-05 -3.30736e-05 -3.37038e-05 -3.42843e-05 -3.43372e-05 -3.33846e-05 -3.14264e-05 -2.84627e-05 -2.44936e-05 -1.95188e-05 -1.35386e-05 -6.55283e-06 2.28213e-07 5.59428e-06 9.54536e-06 1.20815e-05 1.32026e-05 1.29088e-05 1.11999e-05 8.07615e-06 8.30852e-07 -1.32425e-05 -3.41439e-05 -6.18733e-05 -9.64307e-05 -0.000137816 -0.00018603 -0.000241071 -0.000302051 -0.000368077 -0.000439152 -0.000515273 -0.000596442 -0.000682659 -0.000773923 -0.000870234 -0.000968695 -0.00106641 -0.00116337 -0.00125958 -0.00135505 -0.00144976 -0.00154372 -0.00163694 -0.00172391 -0.00179915 -0.00186265 -0.00191441 -0.00195444 -0.00198273 -0.00199929 -0.0020041 -0.0019974 -0.00197939 -0.00195008 -0.00190947 -0.00185755 -0.00179433 -0.0017198 -0.00163397 -0.00154239 -0.00145061 -0.00135863 -0.00126645 -0.00117407 -0.00108149 -0.000988704 -0.000895724 -0.000804879 -0.000718509 -0.000636612 -0.000559188 -0.000486238 -0.000417761 -0.000353758 -0.000294228 -0.000240008 -0.000191933 -0.000150002 -0.000114217 -8.45775e-05 -6.10826e-05 -4.37329e-05 -3.25283e-05 -2.49045e-05 -1.82972e-05 -1.27064e-05 -8.13207e-06 -4.57429e-06 -2.03302e-06 -5.08254e-07 0 0 9.42567e-07 3.77027e-06 8.48311e-06 1.50811e-05 2.35642e-05 3.39324e-05 4.61858e-05 6.03243e-05 7.4256e-05 8.58888e-05 9.52228e-05 0.000102258 0.000106994 0.000109432 0.000109571 0.00010741 0.000103143 9.69577e-05 8.88561e-05 7.88377e-05 6.69024e-05 5.30503e-05 3.72814e-05 1.95956e-05 1.98265e-06 -1.35679e-05 -2.7056e-05 -3.84816e-05 -4.78448e-05 -5.51456e-05 -6.0384e-05 -6.35599e-05 -6.56487e-05 -6.76257e-05 -6.94909e-05 -7.12442e-05 -7.28858e-05 -7.44156e-05 -7.58335e-05 -7.71397e-05 -7.72587e-05 -7.51153e-05 -7.07094e-05 -6.40412e-05 -5.51105e-05 -4.39174e-05 -3.04618e-05 -1.47439e-05 5.13479e-07 1.25871e-05 2.14771e-05 2.71833e-05 2.97059e-05 2.90447e-05 2.51999e-05 1.81713e-05 1.86942e-06 -2.97956e-05 -7.68237e-05 -0.000139215 -0.000216969 -0.000310086 -0.000418567 -0.00054241 -0.000679614 -0.000828174 -0.000988091 -0.00115936 -0.001342 -0.00153598 -0.00174133 -0.00195803 -0.00217956 -0.00239941 -0.00261758 -0.00283406 -0.00304885 -0.00326196 -0.00347338 -0.00368312 -0.00387881 -0.00404809 -0.00419096 -0.00430743 -0.00439749 -0.00446115 -0.00449839 -0.00450923 -0.00449415 -0.00445364 -0.00438769 -0.00429631 -0.00417949 -0.00403724 -0.00386956 -0.00367644 -0.00347038 -0.00326387 -0.00305692 -0.00284951 -0.00264165 -0.00243334 -0.00222459 -0.00201538 -0.00181098 -0.00161664 -0.00143238 -0.00125817 -0.00109404 -0.000939963 -0.000795956 -0.000662014 -0.000540018 -0.000431848 -0.000337506 -0.000256989 -0.000190299 -0.000137436 -9.8399e-05 -7.31886e-05 -5.6035e-05 -4.11686e-05 -2.85893e-05 -1.82972e-05 -1.02921e-05 -4.57429e-06 -1.14357e-06 0 0 1.67568e-06 6.7027e-06 1.50811e-05 2.68108e-05 4.18919e-05 6.03243e-05 8.21081e-05 0.000107243 0.000132011 0.000152691 0.000169285 0.000181792 0.000190212 0.000194546 0.000194792 0.000190952 0.000183364 0.000172369 0.000157966 0.000140156 0.000118938 9.43116e-05 6.6278e-05 3.48366e-05 3.5247e-06 -2.41207e-05 -4.80995e-05 -6.84118e-05 -8.50575e-05 -9.80367e-05 -0.000107349 -0.000112995 -0.000116709 -0.000120223 -0.000123539 -0.000126656 -0.000129575 -0.000132294 -0.000134815 -0.000137137 -0.000137349 -0.000133538 -0.000125706 -0.000113851 -9.79742e-05 -7.80753e-05 -5.41544e-05 -2.62113e-05 9.12852e-07 2.23771e-05 3.81815e-05 4.83259e-05 5.28104e-05 5.16351e-05 4.47998e-05 3.23046e-05 3.32341e-06 -5.29699e-05 -0.000136575 -0.000247493 -0.000385723 -0.000551265 -0.000744119 -0.000964285 -0.0012082 -0.00147231 -0.00175661 -0.00206109 -0.00238577 -0.00273064 -0.00309569 -0.00348094 -0.00387478 -0.00426563 -0.00465347 -0.00503833 -0.00542018 -0.00579904 -0.0061749 -0.00654776 -0.00689566 -0.0071966 -0.0074506 -0.00765766 -0.00781777 -0.00793093 -0.00799714 -0.00801641 -0.0079896 -0.00791758 -0.00780034 -0.00763788 -0.00743021 -0.00717732 -0.00687921 -0.0065359 -0.00616957 -0.00580244 -0.00543452 -0.00506579 -0.00469627 -0.00432594 -0.00395482 -0.00358289 -0.00321952 -0.00287404 -0.00254645 -0.00223675 -0.00194495 -0.00167104 -0.00141503 -0.00117691 -0.000960032 -0.000767731 -0.00060001 -0.00045687 -0.00033831 -0.000244331 -0.000174932 -0.000130113 -9.96178e-05 -7.31886e-05 -5.08254e-05 -3.25283e-05 -1.82972e-05 -8.13207e-06 -2.03302e-06 0 0 2.61824e-06 1.0473e-05 2.35642e-05 4.18919e-05 6.54561e-05 9.42567e-05 0.000128294 0.000167568 0.000206267 0.00023858 0.000264508 0.00028405 0.000297207 0.000303977 0.000304363 0.000298362 0.000286507 0.000269327 0.000246823 0.000218994 0.00018584 0.000147362 0.000103559 5.44322e-05 5.50735e-06 -3.76886e-05 -7.51555e-05 -0.000106893 -0.000132902 -0.000153182 -0.000167733 -0.000176555 -0.000182357 -0.000187849 -0.00019303 -0.000197901 -0.000202461 -0.00020671 -0.000210649 -0.000214277 -0.000214607 -0.000208654 -0.000196415 -0.000177892 -0.000153085 -0.000121993 -8.46162e-05 -4.09552e-05 1.42633e-06 3.49642e-05 5.96585e-05 7.55092e-05 8.25163e-05 8.06798e-05 6.99997e-05 5.0476e-05 5.19283e-06 -8.27655e-05 -0.000213399 -0.000386708 -0.000602692 -0.000861351 -0.00116269 -0.0015067 -0.00188782 -0.00230048 -0.0027447 -0.00322046 -0.00372776 -0.00426662 -0.00483702 -0.00543896 -0.00605434 -0.00666504 -0.00727105 -0.00787238 -0.00846903 -0.009061 -0.00964828 -0.0102309 -0.0107745 -0.0112447 -0.0116416 -0.0119651 -0.0122153 -0.0123921 -0.0124955 -0.0125256 -0.0124838 -0.0123712 -0.012188 -0.0119342 -0.0116097 -0.0112146 -0.0107488 -0.0102123 -0.00963995 -0.00906632 -0.00849143 -0.0079153 -0.00733792 -0.00675928 -0.0061794 -0.00559827 -0.0050305 -0.00449068 -0.00397882 -0.00349493 -0.00303899 -0.00261101 -0.00221099 -0.00183893 -0.00150005 -0.00119958 -0.000937516 -0.000713859 -0.000528609 -0.000381766 -0.000273331 -0.000203302 -0.000155653 -0.000114357 -7.94147e-05 -5.08254e-05 -2.85893e-05 -1.27064e-05 -3.17659e-06 0 0 3.77027e-06 1.50811e-05 3.39324e-05 6.03243e-05 9.42567e-05 0.00013573 0.000184743 0.000241297 0.000297024 0.000343555 0.000380891 0.000409032 0.000427977 0.000437728 0.000438282 0.000429642 0.00041257 0.000387831 0.000355424 0.000315351 0.00026761 0.000212201 0.000149125 7.83824e-05 7.93058e-06 -5.42715e-05 -0.000108224 -0.000153927 -0.000191379 -0.000220583 -0.000241536 -0.00025424 -0.000262595 -0.000270503 -0.000277963 -0.000284977 -0.000291543 -0.000297662 -0.000303334 -0.000308559 -0.000309035 -0.000300461 -0.000282838 -0.000256165 -0.000220442 -0.00017567 -0.000121847 -5.89754e-05 2.05392e-06 5.03485e-05 8.59083e-05 0.000108733 0.000118823 0.000116179 0.0001008 7.26854e-05 7.47767e-06 -0.000119182 -0.000307295 -0.000556859 -0.000867876 -0.00124035 -0.00167427 -0.00216964 -0.00271846 -0.0033127 -0.00395236 -0.00463746 -0.00536798 -0.00614393 -0.00696531 -0.00783211 -0.00871825 -0.00959766 -0.0104703 -0.0113362 -0.0121954 -0.0130478 -0.0138935 -0.0147325 -0.0155152 -0.0161924 -0.0167639 -0.0172297 -0.01759 -0.0178446 -0.0179936 -0.0180369 -0.0179766 -0.0178145 -0.0175508 -0.0171852 -0.016718 -0.016149 -0.0154782 -0.0147058 -0.0138815 -0.0130555 -0.0122277 -0.011398 -0.0105666 -0.00973337 -0.00889834 -0.00806151 -0.00724391 -0.00646658 -0.00572951 -0.00503269 -0.00437614 -0.00375985 -0.00318382 -0.00264805 -0.00216007 -0.00172739 -0.00135002 -0.00102796 -0.000761197 -0.000549744 -0.000393596 -0.000292754 -0.00022414 -0.000164674 -0.000114357 -7.31886e-05 -4.11686e-05 -1.82972e-05 -4.57429e-06 0 0 5.13176e-06 2.0527e-05 4.61858e-05 8.21081e-05 0.000128294 0.000184743 0.000251456 0.000328432 0.000404282 0.000467617 0.000518435 0.000556738 0.000582525 0.000595796 0.000596551 0.00058479 0.000561554 0.000527881 0.000483772 0.000429227 0.000364246 0.000288829 0.000202976 0.000106687 1.07944e-05 -7.38696e-05 -0.000147305 -0.000209511 -0.000260489 -0.000300237 -0.000328757 -0.000346048 -0.000357421 -0.000368184 -0.000378339 -0.000387885 -0.000396823 -0.000405151 -0.000412871 -0.000419983 -0.000420631 -0.000408961 -0.000384974 -0.000348669 -0.000300046 -0.000239106 -0.000165848 -8.02721e-05 2.79561e-06 6.85299e-05 0.000116931 0.000147998 0.000161732 0.000158132 0.000137199 9.89329e-05 1.01779e-05 -0.00016222 -0.000418262 -0.000757948 -0.00118128 -0.00168825 -0.00227886 -0.00295312 -0.00370012 -0.00450895 -0.00537961 -0.0063121 -0.00730642 -0.00836257 -0.00948056 -0.0106604 -0.0118665 -0.0130635 -0.0142513 -0.0154299 -0.0165993 -0.0177596 -0.0189106 -0.0200525 -0.0211179 -0.0220396 -0.0228175 -0.0234516 -0.0239419 -0.0242885 -0.0244913 -0.0245503 -0.0244682 -0.0242476 -0.0238885 -0.023391 -0.022755 -0.0219805 -0.0210676 -0.0200162 -0.0188943 -0.01777 -0.0166432 -0.015514 -0.0143823 -0.0132482 -0.0121116 -0.0109726 -0.00985977 -0.00880173 -0.00779849 -0.00685005 -0.00595641 -0.00511757 -0.00433354 -0.0036043 -0.0029401 -0.00235118 -0.00183753 -0.00139916 -0.00103607 -0.000748262 -0.000535728 -0.000398471 -0.00030508 -0.00022414 -0.000155653 -9.96178e-05 -5.6035e-05 -2.49045e-05 -6.22612e-06 0 0 6.7027e-06 2.68108e-05 6.03243e-05 0.000107243 0.000167568 0.000241297 0.000328432 0.000428973 0.000528042 0.000610765 0.00067714 0.000727168 0.000760849 0.000778182 0.000779169 0.000763808 0.000733458 0.000689477 0.000631866 0.000560623 0.00047575 0.000377247 0.000265112 0.000139347 1.40988e-05 -9.64827e-05 -0.000192398 -0.000273647 -0.00034023 -0.000392147 -0.000429397 -0.000451982 -0.000466835 -0.000480894 -0.000494157 -0.000506626 -0.000518299 -0.000529177 -0.000539261 -0.000548549 -0.000549395 -0.000534153 -0.000502823 -0.000455404 -0.000391897 -0.000312301 -0.000216617 -0.000104845 3.65141e-06 8.95084e-05 0.000152726 0.000193304 0.000211242 0.00020654 0.000179199 0.000129218 1.32936e-05 -0.00021188 -0.000546302 -0.000989972 -0.00154289 -0.00220506 -0.00297648 -0.00385714 -0.00483281 -0.00588924 -0.00702642 -0.00824437 -0.00954308 -0.0109225 -0.0123828 -0.0139238 -0.0154991 -0.0170625 -0.0186139 -0.0201533 -0.0216807 -0.0231962 -0.0246996 -0.0261911 -0.0275826 -0.0287864 -0.0298024 -0.0306306 -0.0312711 -0.0317237 -0.0319886 -0.0320657 -0.0319584 -0.0316703 -0.0312013 -0.0305515 -0.0297208 -0.0287093 -0.0275169 -0.0261436 -0.0246783 -0.0232098 -0.0217381 -0.0202632 -0.0187851 -0.0173038 -0.0158193 -0.0143316 -0.0128781 -0.0114961 -0.0101858 -0.00894701 -0.00777981 -0.00668418 -0.00566013 -0.00470765 -0.00384013 -0.00307092 -0.00240004 -0.00182748 -0.00135324 -0.000977322 -0.000699726 -0.000520452 -0.000398471 -0.000292754 -0.000203302 -0.000130113 -7.31886e-05 -3.25283e-05 -8.13207e-06 0 0 8.07202e-06 3.22881e-05 7.26481e-05 0.000129152 0.0002018 0.000290593 0.000395529 0.000516609 0.00063499 0.000731827 0.000807121 0.000860872 0.00089308 0.000903744 0.000892866 0.000860444 0.000808363 0.000738507 0.000650876 0.00054547 0.000422289 0.000281333 0.000122602 -5.39035e-05 -0.000230352 -0.000388912 -0.000529584 -0.000652366 -0.00075726 -0.000844265 -0.000913381 -0.000964609 -0.00100483 -0.00104093 -0.0010729 -0.00110075 -0.00112448 -0.00114408 -0.00115956 -0.00117091 -0.00116899 -0.00114462 -0.00109781 -0.00102857 -0.000936882 -0.000822757 -0.000686191 -0.000527186 -0.000371939 -0.00024665 -0.000151318 -8.5943e-05 -5.05253e-05 -4.50648e-05 -6.95615e-05 -0.000124015 -0.000257973 -0.00052098 -0.000913036 -0.00143414 -0.0020843 -0.0028635 -0.00377176 -0.00480906 -0.00595541 -0.00719079 -0.00851521 -0.00992867 -0.0114312 -0.0130227 -0.0147033 -0.0164729 -0.0182834 -0.0200868 -0.021883 -0.023672 -0.0254539 -0.0272286 -0.0289962 -0.0307565 -0.0324023 -0.0338258 -0.0350272 -0.0360065 -0.0367636 -0.0372985 -0.0376113 -0.0377019 -0.0375747 -0.037234 -0.0366797 -0.0359119 -0.0349305 -0.0337356 -0.0323272 -0.0307053 -0.0289781 -0.0272539 -0.0255327 -0.0238146 -0.0220995 -0.0203874 -0.0186784 -0.0169724 -0.015306 -0.013716 -0.0122024 -0.010765 -0.00940401 -0.00811934 -0.00691099 -0.00577898 -0.00474254 -0.0038209 -0.00301405 -0.002322 -0.00174475 -0.00128231 -0.000934656 -0.000701805 -0.00053732 -0.000394765 -0.000274143 -0.000175451 -9.86913e-05 -4.38628e-05 -1.09657e-05 0 0 8.82861e-06 3.53145e-05 7.94575e-05 0.000141258 0.000220715 0.00031783 0.000432602 0.000565031 0.00069181 0.000789632 0.000858495 0.000898401 0.000909349 0.00089134 0.000844372 0.000768447 0.000666348 0.000540856 0.000391972 0.000219696 2.40285e-05 -0.000195031 -0.000437483 -0.000703327 -0.000970755 -0.00121796 -0.00144494 -0.0016517 -0.00183824 -0.00200455 -0.00215064 -0.0022765 -0.0023854 -0.00248058 -0.00256206 -0.00262982 -0.00268387 -0.0027242 -0.00275083 -0.00276374 -0.00275307 -0.00270895 -0.00263138 -0.00252036 -0.00237589 -0.00219797 -0.0019866 -0.00174179 -0.00150054 -0.00129988 -0.00113981 -0.00102033 -0.000941447 -0.00090315 -0.000905443 -0.000948326 -0.00107842 -0.00134234 -0.00174009 -0.00227167 -0.00293707 -0.0037363 -0.00466937 -0.00573626 -0.00690681 -0.00815084 -0.00946837 -0.0108594 -0.0123239 -0.0138619 -0.0154734 -0.0171583 -0.0188867 -0.0206283 -0.0223833 -0.0241515 -0.0259331 -0.0277279 -0.029536 -0.0313575 -0.0330699 -0.0345509 -0.0358005 -0.0368187 -0.0376056 -0.0381611 -0.0384852 -0.038578 -0.0384444 -0.0380898 -0.0375141 -0.0367172 -0.0356992 -0.0344601 -0.0329999 -0.0313186 -0.0295383 -0.0277814 -0.0260477 -0.0243374 -0.0226503 -0.0209866 -0.0193462 -0.017729 -0.0161509 -0.0146276 -0.0131592 -0.0117456 -0.0103867 -0.00908272 -0.00783353 -0.00663915 -0.00552972 -0.00453535 -0.00365606 -0.00289183 -0.00224268 -0.0017086 -0.00128958 -0.000985637 -0.000754628 -0.000554421 -0.000385014 -0.000246409 -0.000138605 -6.16023e-05 -1.54006e-05 0 0 8.97249e-06 3.589e-05 8.07524e-05 0.00014356 0.000224312 0.00032301 0.000439652 0.00057424 0.000698504 0.000784178 0.000831262 0.000839754 0.000809656 0.000740968 0.000633689 0.000487819 0.000307413 9.65253e-05 -0.000144845 -0.000416696 -0.00071903 -0.00105185 -0.00141514 -0.00180892 -0.00220711 -0.00258363 -0.00293847 -0.00327165 -0.00358316 -0.00387299 -0.00414116 -0.00438766 -0.00460854 -0.00479986 -0.00496162 -0.00509382 -0.00519646 -0.00526954 -0.00531306 -0.00532702 -0.00530163 -0.00522713 -0.00510351 -0.00493078 -0.00470892 -0.00443795 -0.00411785 -0.00374864 -0.00338214 -0.00307018 -0.00281276 -0.00260987 -0.00246152 -0.00236772 -0.00232845 -0.00234371 -0.00244804 -0.00267596 -0.00302746 -0.00350254 -0.00410121 -0.00482346 -0.0056693 -0.00663872 -0.007687 -0.00876938 -0.00988589 -0.0110365 -0.0122212 -0.0134401 -0.014693 -0.0159801 -0.0173089 -0.0186872 -0.0201148 -0.0215918 -0.0231182 -0.024694 -0.0263192 -0.0279938 -0.0295854 -0.0309615 -0.0321222 -0.0330674 -0.0337972 -0.0343115 -0.0346103 -0.0346937 -0.0345676 -0.0342378 -0.0337044 -0.0329675 -0.0320269 -0.0308827 -0.0295349 -0.0279834 -0.026359 -0.0247922 -0.023283 -0.0218315 -0.0204375 -0.0191012 -0.0178225 -0.0166015 -0.0154127 -0.014231 -0.0130563 -0.0118886 -0.010728 -0.00957433 -0.00842773 -0.00728816 -0.00620166 -0.0052143 -0.00432607 -0.00353697 -0.00284702 -0.00225619 -0.0017645 -0.00137195 -0.0010504 -0.000771721 -0.000535917 -0.000342987 -0.00019293 -8.57468e-05 -2.14367e-05 0 0 8.50365e-06 3.40146e-05 7.65329e-05 0.000136058 0.000212591 0.000306132 0.000416679 0.000544234 0.000655071 0.000715467 0.000725421 0.000684932 0.000594002 0.000452629 0.000260815 1.8559e-05 -0.000268441 -0.000594485 -0.000959574 -0.00136371 -0.00180689 -0.00228911 -0.00281038 -0.00337069 -0.00393942 -0.00448591 -0.00501017 -0.00551221 -0.00599202 -0.0064496 -0.00688495 -0.00729808 -0.00767425 -0.00799876 -0.0082716 -0.00849277 -0.00866227 -0.0087801 -0.00884626 -0.00886075 -0.00881469 -0.00869918 -0.00851422 -0.00825982 -0.00793597 -0.00754268 -0.00707994 -0.00654776 -0.00601675 -0.00555755 -0.00517015 -0.00485455 -0.00461076 -0.00443876 -0.00433857 -0.00431018 -0.00436685 -0.00452184 -0.00477515 -0.00512677 -0.00557672 -0.00612498 -0.00677156 -0.00751646 -0.00829598 -0.00904642 -0.00976777 -0.01046 -0.0111232 -0.0117573 -0.0123623 -0.0129383 -0.0135502 -0.0142633 -0.0150775 -0.0159929 -0.0170094 -0.018127 -0.0193458 -0.0206657 -0.0219489 -0.0230578 -0.0239923 -0.0247524 -0.0253382 -0.0257496 -0.0259866 -0.0260492 -0.0259441 -0.025678 -0.0252509 -0.0246627 -0.0239135 -0.0230033 -0.0219321 -0.0206999 -0.0194401 -0.0182864 -0.0172386 -0.0162969 -0.0154611 -0.0147313 -0.0141075 -0.0135897 -0.0130914 -0.012526 -0.0118936 -0.0111942 -0.0104277 -0.00959417 -0.00869361 -0.007726 -0.00675836 -0.00585772 -0.00502408 -0.00425742 -0.00355776 -0.00292509 -0.00235942 -0.00186074 -0.00142463 -0.00104667 -0.000726851 -0.000465185 -0.000261666 -0.000116296 -2.9074e-05 0 0 7.4221e-06 2.96884e-05 6.67989e-05 0.000118754 0.000185552 0.000267196 0.000363683 0.000475014 0.000561512 0.000583498 0.000540972 0.000433934 0.000262385 2.63241e-05 -0.000274249 -0.000639333 -0.00106121 -0.00153218 -0.00205222 -0.00262134 -0.00323954 -0.00390683 -0.00462319 -0.00538864 -0.00616767 -0.00692481 -0.00766005 -0.00837339 -0.00906483 -0.00973437 -0.010382 -0.0110078 -0.0115825 -0.0120773 -0.012492 -0.0128266 -0.0130813 -0.0132559 -0.0133504 -0.0133649 -0.0132922 -0.0131251 -0.0128635 -0.0125075 -0.012057 -0.0115122 -0.0108729 -0.0101391 -0.00940437 -0.00876199 -0.008212 -0.00775438 -0.00738914 -0.00711629 -0.00693581 -0.00684772 -0.00683483 -0.00687998 -0.00698315 -0.00714435 -0.00736359 -0.00764085 -0.00797615 -0.00836948 -0.00873376 -0.00898194 -0.00911402 -0.00912998 -0.00902984 -0.00881358 -0.00848123 -0.00803276 -0.00761049 -0.00735674 -0.00727149 -0.00735475 -0.00760653 -0.00802681 -0.00861561 -0.00937291 -0.0101604 -0.0108397 -0.0114109 -0.0118739 -0.0122288 -0.0124755 -0.012614 -0.0126444 -0.012574 -0.0124103 -0.0121533 -0.0118029 -0.0113592 -0.0108221 -0.0101917 -0.00946795 -0.00878174 -0.00826394 -0.00791455 -0.00773358 -0.00772102 -0.00787687 -0.00820113 -0.0086938 -0.009187 -0.00951281 -0.00967124 -0.00966228 -0.00948595 -0.00914224 -0.00863115 -0.00795267 -0.00719983 -0.00646564 -0.00575008 -0.00505318 -0.00437492 -0.0037153 -0.00307433 -0.00245201 -0.00187732 -0.00137925 -0.000957816 -0.000613002 -0.000344814 -0.00015325 -3.83126e-05 0 0 5.72782e-06 2.29113e-05 5.15504e-05 9.16452e-05 0.000143196 0.000206202 0.000280663 0.000366581 0.000417826 0.000388271 0.000277916 8.67613e-05 -0.000185193 -0.000537948 -0.000971503 -0.00148586 -0.00207091 -0.00271655 -0.00342277 -0.00418959 -0.005017 -0.00590499 -0.00685358 -0.00786275 -0.00889188 -0.00990033 -0.0108881 -0.0118552 -0.0128016 -0.0137273 -0.0146324 -0.0155167 -0.0163334 -0.0170354 -0.0176228 -0.0180955 -0.0184535 -0.0186969 -0.0188256 -0.0188396 -0.0187343 -0.0185048 -0.0181514 -0.0176738 -0.0170721 -0.0163464 -0.0154966 -0.0145228 -0.013545 -0.0126835 -0.0119383 -0.0113093 -0.0107967 -0.0104003 -0.0101202 -0.00995634 -0.009852 -0.00975038 -0.00965147 -0.00955529 -0.00946183 -0.00937109 -0.00928307 -0.00919776 -0.00900034 -0.00857596 -0.00792463 -0.00704634 -0.00594109 -0.00460888 -0.00304972 -0.0012636 0.000510241 0.00203255 0.00330334 0.0043226 0.00509033 0.00560655 0.00587123 0.00588439 0.00578018 0.00569275 0.00562211 0.00556825 0.00553118 0.00551089 0.00550739 0.00552067 0.00554263 0.00556516 0.00558827 0.00561195 0.0056362 0.00566103 0.00568643 0.0057124 0.00561622 0.00527516 0.00468921 0.00385839 0.00278269 0.0014621 -0.000103365 -0.00191371 -0.0036995 -0.0051913 -0.0063891 -0.0072929 -0.00790272 -0.00821853 -0.00824036 -0.00796819 -0.00752606 -0.00703803 -0.00650409 -0.00592424 -0.00529848 -0.00462682 -0.00390924 -0.00314576 -0.00240847 -0.00176949 -0.00122881 -0.000786439 -0.000442372 -0.00019661 -4.91524e-05 0 0 3.42083e-06 1.36833e-05 3.07875e-05 5.47333e-05 8.55207e-05 0.00012315 0.000167621 0.000218933 0.000224013 0.000129786 -6.37472e-05 -0.000356587 -0.000748734 -0.00124019 -0.00183095 -0.00252101 -0.00329752 -0.0041476 -0.00507124 -0.00606846 -0.00713925 -0.00828361 -0.00950154 -0.010793 -0.012112 -0.0134125 -0.0146943 -0.0159576 -0.0172023 -0.0184284 -0.019636 -0.0208249 -0.0219268 -0.0228732 -0.023664 -0.0242992 -0.0247789 -0.0251031 -0.0252717 -0.0252847 -0.0251408 -0.0248385 -0.0243778 -0.0237587 -0.0229813 -0.0220454 -0.0209512 -0.0196987 -0.0184386 -0.0173221 -0.016349 -0.0155195 -0.0148334 -0.0142908 -0.0138917 -0.013636 -0.0134183 -0.013133 -0.0127801 -0.0123596 -0.0118714 -0.0113157 -0.0106923 -0.0100013 -0.00909572 -0.00782848 -0.00619961 -0.0042091 -0.00185697 0.000856794 0.00393219 0.00736922 0.010812 0.0139046 0.0166469 0.0190392 0.0210812 0.0227731 0.0241147 0.0251062 0.0258728 0.0265396 0.0271067 0.027574 0.0279416 0.0282095 0.0283776 0.028446 0.0284059 0.0282485 0.0279738 0.0275818 0.0270726 0.0264461 0.0257023 0.0248412 0.0237537 0.0223309 0.0205727 0.018479 0.01605 0.0132856 0.0101858 0.00675056 0.00337109 0.000438495 -0.00204722 -0.00408604 -0.00567799 -0.00682305 -0.00752124 -0.00777253 -0.00773706 -0.00757491 -0.0072861 -0.00687061 -0.00632846 -0.00565964 -0.00486415 -0.00394198 -0.00301808 -0.00221737 -0.00153984 -0.000985496 -0.000554342 -0.000246374 -6.15935e-05 0 0 5.01117e-07 2.00447e-06 4.51005e-06 8.01787e-06 1.25279e-05 1.80402e-05 2.45547e-05 3.20715e-05 -1.99266e-05 -0.000191956 -0.000484018 -0.000896111 -0.00142824 -0.00208039 -0.00285258 -0.0037448 -0.00474105 -0.00582533 -0.00699763 -0.00825795 -0.0096063 -0.0110427 -0.0125671 -0.0141795 -0.0158282 -0.0174612 -0.0190787 -0.0206806 -0.0222669 -0.0238377 -0.0253928 -0.0269324 -0.0283628 -0.0295906 -0.0306156 -0.0314379 -0.0320576 -0.0324745 -0.0326887 -0.0327003 -0.0325118 -0.0321259 -0.0315428 -0.0307623 -0.0297844 -0.0286092 -0.0272367 -0.0256668 -0.0240853 -0.0226777 -0.0214442 -0.0203847 -0.0194992 -0.0187877 -0.0182503 -0.0178868 -0.0175339 -0.017028 -0.0163691 -0.0155572 -0.0145924 -0.0134746 -0.0122039 -0.0107802 -0.00901988 -0.00673948 -0.00393895 -0.000618284 0.00322251 0.00758344 0.0124645 0.0178657 0.0232947 0.0282593 0.0327593 0.0367949 0.0403661 0.0434727 0.0461149 0.0482927 0.0501174 0.0517008 0.0530428 0.0541434 0.0550025 0.0556203 0.0559966 0.0561316 0.0560157 0.0556396 0.0550033 0.0541068 0.05295 0.051533 0.0498558 0.0479183 0.0456308 0.0429033 0.0397358 0.0361284 0.032081 0.0275936 0.0226663 0.017299 0.0120248 0.00737657 0.00335441 -4.17054e-05 -0.00281178 -0.0049558 -0.00647378 -0.00736572 -0.00783282 -0.00807628 -0.0080961 -0.00789229 -0.00746485 -0.00681377 -0.00593905 -0.00484069 -0.00370615 -0.00272289 -0.0018909 -0.00121017 -0.000680722 -0.000302543 -7.56358e-05 0 0 -3.50436e-06 -1.40175e-05 -3.15393e-05 -5.60698e-05 -8.76091e-05 -0.000126157 -0.000171714 -0.000224279 -0.000347227 -0.000603932 -0.000994394 -0.00151861 -0.00217659 -0.00296832 -0.00389381 -0.00495305 -0.00612424 -0.00738557 -0.00873703 -0.0101786 -0.0117104 -0.0133322 -0.0150442 -0.0168464 -0.018691 -0.0205307 -0.0223653 -0.0241948 -0.0260193 -0.0278388 -0.0296532 -0.0314625 -0.0331489 -0.0345943 -0.0357988 -0.0367623 -0.0374849 -0.0379665 -0.0382071 -0.0382068 -0.0379737 -0.0375158 -0.0368333 -0.035926 -0.034794 -0.0334373 -0.0318559 -0.0300497 -0.028238 -0.0266396 -0.0252546 -0.0240831 -0.023125 -0.0223803 -0.0218491 -0.0215312 -0.0211838 -0.0205636 -0.0196707 -0.0185052 -0.0170669 -0.015356 -0.0133724 -0.011116 -0.00836338 -0.0048908 -0.000698281 0.00421417 0.00984656 0.0161989 0.0232711 0.0310633 0.0389114 0.0461515 0.0527834 0.0588073 0.0642231 0.0690307 0.0732303 0.0768219 0.0799043 0.0825766 0.0848389 0.086691 0.088133 0.089165 0.0897868 0.0899986 0.0897909 0.0891543 0.088089 0.0865948 0.0846718 0.0823199 0.0795393 0.0763297 0.0726198 0.0683376 0.0634833 0.0580569 0.0520583 0.0454875 0.0383446 0.0306295 0.0230482 0.0163064 0.0104043 0.00534183 0.00111894 -0.00226434 -0.004808 -0.00651206 -0.00762503 -0.00839546 -0.00882334 -0.00890867 -0.00865146 -0.0080517 -0.00710939 -0.00582453 -0.0044594 -0.0032763 -0.00227521 -0.00145613 -0.000819074 -0.000364033 -9.10083e-05 0 0 -9.06866e-06 -3.62747e-05 -8.1618e-05 -0.000145099 -0.000226717 -0.000326472 -0.000444364 -0.000580394 -0.000791124 -0.00113312 -0.00160637 -0.00221089 -0.00294667 -0.00381371 -0.00481201 -0.00594158 -0.00716982 -0.00846414 -0.00982455 -0.011251 -0.0127436 -0.0143023 -0.015927 -0.0176178 -0.0193515 -0.0211049 -0.022878 -0.0246708 -0.0264832 -0.0283154 -0.0301672 -0.0320388 -0.0337926 -0.0352912 -0.0365347 -0.0375231 -0.0382562 -0.0387343 -0.0389572 -0.0389249 -0.0386529 -0.0381567 -0.0374362 -0.0364915 -0.0353225 -0.0339292 -0.0323117 -0.0304699 -0.0286497 -0.0270967 -0.0258111 -0.0247927 -0.0240416 -0.0235577 -0.0233412 -0.023392 -0.0233533 -0.0228685 -0.0219375 -0.0205604 -0.0187372 -0.0164678 -0.0137523 -0.0105907 -0.00671673 -0.00186424 0.00396677 0.0107763 0.0185644 0.0273309 0.037076 0.0477996 0.0586151 0.068636 0.0778621 0.0862935 0.0939302 0.100772 0.10682 0.112072 0.116624 0.120567 0.123903 0.126632 0.128752 0.130265 0.131171 0.131468 0.13115 0.130208 0.128643 0.126454 0.123641 0.120205 0.116145 0.111461 0.106093 0.0999792 0.0931198 0.0855149 0.0771645 0.0680685 0.058227 0.0476399 0.0372279 0.0279117 0.0196911 0.0125663 0.00653717 0.00160377 -0.00223391 -0.00497587 -0.0069254 -0.00838579 -0.00935704 -0.00983915 -0.00983211 -0.00933593 -0.00835061 -0.00687614 -0.00526455 -0.00386783 -0.00268599 -0.00171904 -0.000966958 -0.000429759 -0.00010744 0 0 -1.61918e-05 -6.47671e-05 -0.000145726 -0.000259068 -0.000404795 -0.000582904 -0.000793397 -0.00103627 -0.00135162 -0.00177951 -0.00231995 -0.00297294 -0.00373848 -0.00461657 -0.00560721 -0.0067104 -0.0078778 -0.00906106 -0.0102602 -0.0114752 -0.0127061 -0.0139528 -0.0152154 -0.0164939 -0.0178096 -0.0191839 -0.0206169 -0.0221085 -0.0236587 -0.0252675 -0.026935 -0.0286611 -0.0302938 -0.0316812 -0.0328234 -0.0337202 -0.0343717 -0.0347779 -0.0349389 -0.0348545 -0.0345495 -0.0340485 -0.0333516 -0.0324587 -0.0313698 -0.030085 -0.0286042 -0.0269274 -0.0253205 -0.0240492 -0.0231134 -0.0225133 -0.0222488 -0.0223199 -0.0227266 -0.0234689 -0.0240424 -0.0239425 -0.0231694 -0.0217229 -0.0196032 -0.0168102 -0.0133438 -0.00920417 -0.00407993 0.0023402 0.0100562 0.0190681 0.0293759 0.0409796 0.0538791 0.0680746 0.0824058 0.0957127 0.107995 0.119254 0.129488 0.138697 0.146882 0.154043 0.160275 0.165673 0.170236 0.173965 0.17686 0.178921 0.180148 0.18054 0.180093 0.178802 0.176665 0.173684 0.169859 0.165188 0.159673 0.153313 0.146051 0.137828 0.128645 0.118503 0.1074 0.0953367 0.0823135 0.0683302 0.0545641 0.0421922 0.0312148 0.0216317 0.0134429 0.00664853 0.00124851 -0.00275715 -0.00573393 -0.00804728 -0.00969721 -0.0106837 -0.0110068 -0.0106665 -0.00966272 -0.00799554 -0.00612159 -0.00449749 -0.00312326 -0.00199889 -0.00112437 -0.000499721 -0.00012493 0 0 -2.48737e-05 -9.94949e-05 -0.000223863 -0.000397979 -0.000621843 -0.000895454 -0.00121881 -0.00159192 -0.00202871 -0.00254311 -0.00313513 -0.00380477 -0.00455203 -0.0053769 -0.00627939 -0.0072595 -0.00824816 -0.00917631 -0.010044 -0.0108511 -0.0115977 -0.0122838 -0.0129094 -0.0134745 -0.0140653 -0.0147677 -0.015582 -0.0165079 -0.0175457 -0.0186952 -0.0199564 -0.0213294 -0.0226526 -0.0237644 -0.0246647 -0.0253537 -0.0258313 -0.0260975 -0.0261522 -0.0259956 -0.0256634 -0.0251913 -0.0245794 -0.0238276 -0.022936 -0.0219046 -0.0207333 -0.0194222 -0.0182504 -0.0174969 -0.0171618 -0.0172451 -0.0177468 -0.0186669 -0.0200053 -0.0217621 -0.0232511 -0.0237858 -0.0233664 -0.0219927 -0.0196649 -0.016383 -0.0121468 -0.00695644 -0.000452987 0.00772251 0.01757 0.0290896 0.0422812 0.0571449 0.0736805 0.0918882 0.110284 0.127382 0.143183 0.157688 0.170895 0.182806 0.193419 0.202736 0.210859 0.217893 0.223837 0.228692 0.232457 0.235133 0.236719 0.237215 0.236621 0.234934 0.232156 0.228286 0.223324 0.217269 0.210123 0.201885 0.192492 0.181884 0.17006 0.15702 0.142764 0.127292 0.110604 0.0927005 0.0750565 0.0591481 0.0449753 0.032538 0.0218362 0.0128699 0.00563924 0.000144092 -0.0040506 -0.00737991 -0.00984383 -0.0114424 -0.0121