<?xml version="1.0"?> 
<VTKFile type="StructuredGrid" version="0.1"> 
<StructuredGrid WholeExtent="0 128 0 128 0 0"> 
<Piece Extent="0 128 0 128 0 0"> 
<PointData>
<DataArray type="Float32" Name="u" format="ascii" NumberOfComponents="1"> 
0 0 0 0 0 0 0 0 0 0 0 0 0 0 0 0 0 0 0 0 0 0 0 0 0 0 0 0 0 0 0 0 0 0 0 0 0 0 0 0 0 0 0 0 0 0 0 0 0 0 0 0 0 0 0 0 0 0 0 0 0 0 0 0 0 0 0 0 0 0 0 0 0 0 0 0 0 0 0 0 0 0 0 0 0 0 0 0 0 0 0 0 0 0 0 0 0 0 0 0 0 0 0 0 0 0 0 0 0 0 0 0 0 0 0 0 0 0 0 0 0 0 0 0 0 0 0 0 0 0 -6.8505e-10 -2.7402e-09 -6.16545e-09 -1.09608e-08 -1.71262e-08 -2.46618e-08 -3.35674e-08 -4.38432e-08 -2.65203e-07 -9.0736e-07 -1.97031e-06 -3.45407e-06 -5.35861e-06 -7.68396e-06 -1.04301e-05 -1.3597e-05 -1.72352e-05 -2.13951e-05 -2.60768e-05 -3.12801e-05 -3.70051e-05 -4.32519e-05 -5.00203e-05 -5.73105e-05 -6.48143e-05 -7.22237e-05 -7.95387e-05 -8.67593e-05 -9.38855e-05 -0.000100917 -0.000107855 -0.000114698 -0.000121022 -0.000126402 -0.000130839 -0.000134333 -0.000136883 -0.00013849 -0.000139153 -0.000138873 -0.00013777 -0.000135962 -0.000133451 -0.000130237 -0.000126318 -0.000121696 -0.000116371 -0.000110341 -0.000104203 -9.85518e-05 -9.33867e-05 -8.87078e-05 -8.45154e-05 -8.08094e-05 -7.75897e-05 -7.48564e-05 -7.2805e-05 -7.16311e-05 -7.13347e-05 -7.19157e-05 -7.33743e-05 -7.57103e-05 -7.89238e-05 -8.30148e-05 -8.78157e-05 -9.3159e-05 -9.90447e-05 -0.000105473 -0.000112443 -0.000119956 -0.000128011 -0.000136609 -0.000145529 -0.000154553 -0.000163679 -0.000172909 -0.000182241 -0.000191677 -0.000201216 -0.000210858 -0.00021996 -0.000227879 -0.000234615 -0.000240168 -0.000244538 -0.000247725 -0.000249729 -0.000250551 -0.000250205 -0.000248708 -0.00024606 -0.000242261 -0.000237311 -0.00023121 -0.000223959 -0.000215556 -0.000206576 -0.000197592 -0.000188604 -0.000179613 -0.000170618 -0.000161619 -0.000152617 -0.00014361 -0.000134615 -0.000125648 -0.000116706 -0.000107792 -9.89048e-05 -9.00443e-05 -8.12106e-05 -7.24037e-05 -6.3869e-05 -5.58518e-05 -4.8352e-05 -4.13697e-05 -3.49049e-05 -2.89575e-05 -2.35275e-05 -1.8615e-05 -1.42521e-05 -1.0471e-05 -7.27149e-06 -4.65376e-06 -2.61774e-06 -1.16344e-06 -2.9086e-07 0 0 -2.7402e-09 -1.09608e-08 -2.46618e-08 -4.38432e-08 -6.8505e-08 -9.86472e-08 -1.3427e-07 -1.75373e-07 -1.06081e-06 -3.62944e-06 -7.88126e-06 -1.38163e-05 -2.14345e-05 -3.07358e-05 -4.17204e-05 -5.43882e-05 -6.8941e-05 -8.55806e-05 -0.000104307 -0.00012512 -0.00014802 -0.000173007 -0.000200081 -0.000229242 -0.000259257 -0.000288895 -0.000318155 -0.000347037 -0.000375542 -0.000403669 -0.000431419 -0.00045879 -0.000484087 -0.000505609 -0.000523358 -0.000537332 -0.000547533 -0.00055396 -0.000556614 -0.000555493 -0.000551078 -0.000543849 -0.000533805 -0.000520946 -0.000505273 -0.000486785 -0.000465482 -0.000441365 -0.000416814 -0.000394207 -0.000373547 -0.000354831 -0.000338062 -0.000323237 -0.000310359 -0.000299425 -0.00029122 -0.000286524 -0.000285339 -0.000287663 -0.000293497 -0.000302841 -0.000315695 -0.000332059 -0.000351263 -0.000372636 -0.000396179 -0.000421891 -0.000449773 -0.000479824 -0.000512045 -0.000546435 -0.000582117 -0.000618211 -0.000654717 -0.000691635 -0.000728966 -0.000766709 -0.000804865 -0.000843433 -0.000879841 -0.000911517 -0.000938461 -0.000960673 -0.000978154 -0.000990902 -0.000998918 -0.0010022 -0.00100082 -0.000994831 -0.000984239 -0.000969044 -0.000949245 -0.000924841 -0.000895834 -0.000862224 -0.000826303 -0.000790368 -0.000754418 -0.000718452 -0.000682472 -0.000646477 -0.000610466 -0.000574441 -0.000538462 -0.00050259 -0.000466826 -0.000431169 -0.000395619 -0.000360177 -0.000324842 -0.000289615 -0.000255476 -0.000223407 -0.000193408 -0.000165479 -0.000139619 -0.00011583 -9.41101e-05 -7.44601e-05 -5.70085e-05 -4.18838e-05 -2.9086e-05 -1.8615e-05 -1.0471e-05 -4.65376e-06 -1.16344e-06 0 0 -6.16545e-09 -2.46618e-08 -5.5489e-08 -9.86472e-08 -1.54136e-07 -2.21956e-07 -3.02107e-07 -3.94589e-07 -2.38682e-06 -8.16624e-06 -1.77328e-05 -3.10866e-05 -4.82275e-05 -6.91557e-05 -9.38709e-05 -0.000122373 -0.000155117 -0.000192556 -0.000234691 -0.000281521 -0.000333046 -0.000389267 -0.000450183 -0.000515794 -0.000583328 -0.000650013 -0.000715848 -0.000780833 -0.000844969 -0.000908255 -0.000970692 -0.00103228 -0.00108919 -0.00113762 -0.00117755 -0.001209 -0.00123195 -0.00124641 -0.00125238 -0.00124986 -0.00123993 -0.00122366 -0.00120106 -0.00117213 -0.00113686 -0.00109527 -0.00104734 -0.000993072 -0.000937831 -0.000886967 -0.00084048 -0.000798371 -0.000760639 -0.000727284 -0.000698307 -0.000673707 -0.000655245 -0.00064468 -0.000642012 -0.000647242 -0.000660369 -0.000681393 -0.000710314 -0.000747133 -0.000790341 -0.000838431 -0.000891402 -0.000949255 -0.00101199 -0.0010796 -0.0011521 -0.00122948 -0.00130976 -0.00139097 -0.00147311 -0.00155618 -0.00164017 -0.0017251 -0.00181095 -0.00189772 -0.00197964 -0.00205091 -0.00211154 -0.00216152 -0.00220085 -0.00222953 -0.00224757 -0.00225495 -0.00225184 -0.00223837 -0.00221454 -0.00218035 -0.0021358 -0.00208089 -0.00201563 -0.00194 -0.00185918 -0.00177833 -0.00169744 -0.00161652 -0.00153556 -0.00145457 -0.00137355 -0.00129249 -0.00121154 -0.00113083 -0.00105036 -0.00097013 -0.000890143 -0.000810398 -0.000730895 -0.000651634 -0.000574821 -0.000502666 -0.000435168 -0.000372327 -0.000314144 -0.000260617 -0.000211748 -0.000167535 -0.000128269 -9.42386e-05 -6.54435e-05 -4.18838e-05 -2.35596e-05 -1.0471e-05 -2.61774e-06 0 0 -1.09608e-08 -4.38432e-08 -9.86472e-08 -1.75373e-07 -2.7402e-07 -3.94589e-07 -5.37079e-07 -7.01491e-07 -4.24324e-06 -1.45178e-05 -3.1525e-05 -5.5265e-05 -8.57378e-05 -0.000122943 -0.000166882 -0.000217553 -0.000275764 -0.000342322 -0.000417228 -0.000500481 -0.000592082 -0.00069203 -0.000800325 -0.000916967 -0.00103703 -0.00115558 -0.00127262 -0.00138815 -0.00150217 -0.00161468 -0.00172567 -0.00183516 -0.00193635 -0.00202244 -0.00209343 -0.00214933 -0.00219013 -0.00221584 -0.00222645 -0.00222197 -0.00220431 -0.0021754 -0.00213522 -0.00208378 -0.00202109 -0.00194714 -0.00186193 -0.00176546 -0.00166725 -0.00157683 -0.00149419 -0.00141933 -0.00135225 -0.00129295 -0.00124143 -0.0011977 -0.00116488 -0.0011461 -0.00114135 -0.00115065 -0.00117399 -0.00121136 -0.00126278 -0.00132824 -0.00140505 -0.00149054 -0.00158471 -0.00168756 -0.00179909 -0.0019193 -0.00204818 -0.00218574 -0.00232847 -0.00247284 -0.00261887 -0.00276654 -0.00291586 -0.00306684 -0.00321946 -0.00337373 -0.00351936 -0.00364607 -0.00375384 -0.00384269 -0.00391261 -0.00396361 -0.00399567 -0.00400881 -0.00400327 -0.00397932 -0.00393696 -0.00387618 -0.00379698 -0.00369937 -0.00358334 -0.00344889 -0.00330521 -0.00316147 -0.00301767 -0.00287381 -0.00272989 -0.00258591 -0.00244186 -0.00229776 -0.00215385 -0.00201036 -0.0018673 -0.00172468 -0.00158248 -0.00144071 -0.00129937 -0.00115846 -0.0010219 -0.000893629 -0.000773633 -0.000661915 -0.000558478 -0.000463319 -0.00037644 -0.00029784 -0.000228034 -0.000167535 -0.000116344 -7.44601e-05 -4.18838e-05 -1.8615e-05 -4.65376e-06 0 0 -1.71262e-08 -6.8505e-08 -1.54136e-07 -2.7402e-07 -4.28156e-07 -6.16545e-07 -8.39186e-07 -1.09608e-06 -6.63007e-06 -2.2684e-05 -4.92578e-05 -8.63516e-05 -0.000133965 -0.000192099 -0.000260753 -0.000339926 -0.000430881 -0.000534879 -0.000651919 -0.000782002 -0.000925128 -0.0010813 -0.00125051 -0.00143276 -0.00162036 -0.00180559 -0.00198847 -0.00216898 -0.00234714 -0.00252293 -0.00269637 -0.00286744 -0.00302554 -0.00316006 -0.00327098 -0.00335833 -0.00342208 -0.00346225 -0.00347884 -0.00347183 -0.00344424 -0.00339906 -0.00333628 -0.00325591 -0.00315796 -0.00304241 -0.00290927 -0.00275853 -0.00260508 -0.0024638 -0.00233467 -0.0022177 -0.00211289 -0.00202023 -0.00193974 -0.00187141 -0.00182012 -0.00179078 -0.00178337 -0.00179789 -0.00183436 -0.00189276 -0.00197309 -0.00207537 -0.00219539 -0.00232897 -0.00247612 -0.00263682 -0.00281108 -0.0029989 -0.00320028 -0.00341522 -0.00363823 -0.00386382 -0.00409198 -0.00432272 -0.00455604 -0.00479193 -0.00503041 -0.00527145 -0.00549901 -0.00569698 -0.00586538 -0.00600421 -0.00611346 -0.00619314 -0.00624324 -0.00626376 -0.00625511 -0.00621769 -0.0061515 -0.00605652 -0.00593278 -0.00578026 -0.00559897 -0.0053889 -0.00516439 -0.0049398 -0.00471511 -0.00449033 -0.00426545 -0.00404048 -0.00381541 -0.00359026 -0.00336539 -0.00314119 -0.00291766 -0.0026948 -0.00247262 -0.00225111 -0.00203026 -0.00181009 -0.00159673 -0.0013963 -0.0012088 -0.00103424 -0.000872621 -0.000723936 -0.000588188 -0.000465376 -0.000356303 -0.000261774 -0.000181787 -0.000116344 -6.54435e-05 -2.9086e-05 -7.27149e-06 0 0 -2.46618e-08 -9.86472e-08 -2.21956e-07 -3.94589e-07 -6.16545e-07 -8.87824e-07 -1.20843e-06 -1.57835e-06 -9.5473e-06 -3.26649e-05 -7.09313e-05 -0.000124346 -0.00019291 -0.000276623 -0.000375484 -0.000489494 -0.000620469 -0.000770225 -0.000938763 -0.00112608 -0.00133218 -0.00155707 -0.00180073 -0.00206318 -0.00233331 -0.00260005 -0.00286339 -0.00312333 -0.00337988 -0.00363302 -0.00388277 -0.00412911 -0.00435678 -0.00455048 -0.00471022 -0.00483599 -0.0049278 -0.00498564 -0.00500952 -0.00499944 -0.0049597 -0.00489464 -0.00480424 -0.00468852 -0.00454746 -0.00438107 -0.00418934 -0.00397229 -0.00375132 -0.00354787 -0.00336192 -0.00319348 -0.00304255 -0.00290914 -0.00279323 -0.00269483 -0.00262098 -0.00257872 -0.00256805 -0.00258897 -0.00264147 -0.00272557 -0.00284126 -0.00298853 -0.00316136 -0.00335372 -0.00356561 -0.00379702 -0.00404795 -0.00431842 -0.0046084 -0.00491792 -0.00523905 -0.00556389 -0.00589245 -0.00622472 -0.00656069 -0.00690038 -0.00724378 -0.00759089 -0.00791857 -0.00820365 -0.00844615 -0.00864606 -0.00880338 -0.00891812 -0.00899026 -0.00901982 -0.00900737 -0.00895348 -0.00885815 -0.00872139 -0.0085432 -0.00832357 -0.00806251 -0.00776001 -0.00743673 -0.00711331 -0.00678976 -0.00646607 -0.00614225 -0.00581829 -0.0054942 -0.00516997 -0.00484616 -0.00452331 -0.00420143 -0.00388052 -0.00356057 -0.00324159 -0.00292358 -0.00260653 -0.00229929 -0.00201067 -0.00174067 -0.00148931 -0.00125657 -0.00104247 -0.00084699 -0.000670141 -0.000513077 -0.000376954 -0.000261774 -0.000167535 -9.42386e-05 -4.18838e-05 -1.0471e-05 0 0 -3.35674e-08 -1.3427e-07 -3.02107e-07 -5.37079e-07 -8.39186e-07 -1.20843e-06 -1.6448e-06 -2.14832e-06 -1.29949e-05 -4.44606e-05 -9.65454e-05 -0.000169249 -0.000262572 -0.000376514 -0.000511075 -0.000666255 -0.000844527 -0.00104836 -0.00127776 -0.00153272 -0.00181325 -0.00211934 -0.00245099 -0.00280821 -0.0031759 -0.00353896 -0.0038974 -0.0042512 -0.00460039 -0.00494495 -0.00528488 -0.00562018 -0.00593006 -0.00619371 -0.00641113 -0.00658232 -0.00670728 -0.00678601 -0.00681852 -0.00680479 -0.00675071 -0.00666215 -0.00653911 -0.00638159 -0.00618959 -0.00596312 -0.00570216 -0.00540673 -0.00510597 -0.00482904 -0.00457595 -0.00434668 -0.00414126 -0.00395966 -0.00380189 -0.00366796 -0.00356744 -0.00350992 -0.0034954 -0.00352387 -0.00359534 -0.0037098 -0.00386727 -0.00406772 -0.00430297 -0.00456479 -0.00485319 -0.00516816 -0.00550972 -0.00587784 -0.00627255 -0.00669383 -0.00713093 -0.00757308 -0.00802028 -0.00847253 -0.00892983 -0.00939219 -0.00985959 -0.0103321 -0.0107781 -0.0111661 -0.0114961 -0.0117682 -0.0119824 -0.0121385 -0.0122367 -0.012277 -0.01226 -0.0121867 -0.0120569 -0.0118708 -0.0116282 -0.0113293 -0.010974 -0.0105622 -0.0101222 -0.00968201 -0.00924161 -0.00880104 -0.00836028 -0.00791934 -0.00747821 -0.0070369 -0.00659616 -0.00615673 -0.00571862 -0.00528182 -0.00484634 -0.00441217 -0.00397932 -0.00354778 -0.00312958 -0.00273674 -0.00236925 -0.00202712 -0.00171034 -0.00141892 -0.00115285 -0.000912136 -0.000698354 -0.000513077 -0.000356303 -0.000228034 -0.000128269 -5.70085e-05 -1.42521e-05 0 0 -4.38432e-08 -1.75373e-07 -3.94589e-07 -7.01491e-07 -1.09608e-06 -1.57835e-06 -2.14832e-06 -2.80596e-06 -1.6973e-05 -5.8071e-05 -0.0001261 -0.00022106 -0.000342951 -0.000491774 -0.000667527 -0.000870211 -0.00110306 -0.00136929 -0.00166891 -0.00200193 -0.00236833 -0.00276812 -0.0032013 -0.00366787 -0.00414811 -0.00462232 -0.00509048 -0.00555259 -0.00600867 -0.0064587 -0.0069027 -0.00734065 -0.00774539 -0.00808974 -0.00837372 -0.00859732 -0.00876053 -0.00886337 -0.00890582 -0.00888789 -0.00881725 -0.00870158 -0.00854088 -0.00833514 -0.00808437 -0.00778856 -0.00744772 -0.00706185 -0.00666902 -0.00630732 -0.00597675 -0.0056773 -0.00540899 -0.0051718 -0.00496574 -0.00479081 -0.00465952 -0.00458439 -0.00456542 -0.00460261 -0.00469595 -0.00484546 -0.00505112 -0.00531295 -0.0056202 -0.00596217 -0.00633886 -0.00675025 -0.00719636 -0.00767719 -0.00819272 -0.00874297 -0.00931387 -0.00989137 -0.0104755 -0.0110662 -0.0116635 -0.0122673 -0.0128778 -0.0134949 -0.0140775 -0.0145843 -0.0150154 -0.0153708 -0.0156505 -0.0158544 -0.0159827 -0.0160352 -0.0160131 -0.0159173 -0.0157478 -0.0155047 -0.0151879 -0.0147975 -0.0143334 -0.0137956 -0.0132209 -0.0126459 -0.0120707 -0.0114952 -0.0109195 -0.0103436 -0.00976746 -0.00919105 -0.00861539 -0.00804144 -0.00746921 -0.0068987 -0.00632991 -0.00576283 -0.00519748 -0.00463384 -0.00408762 -0.00357452 -0.00309453 -0.00264766 -0.00223391 -0.00185328 -0.00150576 -0.00119136 -0.000912136 -0.000670141 -0.000465376 -0.00029784 -0.000167535 -7.44601e-05 -1.8615e-05 0 0 -3.48611e-07 -1.39444e-06 -3.1375e-06 -5.57777e-06 -8.71526e-06 -1.255e-05 -1.70819e-05 -2.23111e-05 -4.47067e-05 -0.000100738 -0.000190405 -0.000313708 -0.000470646 -0.00066122 -0.00088543 -0.00114327 -0.00143852 -0.00177492 -0.00215248 -0.00257121 -0.00303109 -0.00353213 -0.00407434 -0.0046577 -0.00525787 -0.00585048 -0.00643553 -0.00701303 -0.00758298 -0.00814536 -0.0087002 -0.00924748 -0.00975318 -0.0101833 -0.0105378 -0.0108167 -0.0110201 -0.0111478 -0.0111999 -0.0111765 -0.0110873 -0.0109425 -0.0107418 -0.0104854 -0.0101732 -0.00980531 -0.00938162 -0.00890217 -0.00841431 -0.00796538 -0.00755538 -0.00718432 -0.00685219 -0.00655899 -0.00630472 -0.00608939 -0.00592574 -0.00582655 -0.00579181 -0.00582152 -0.00591568 -0.00607429 -0.00629735 -0.00658486 -0.00692105 -0.00729016 -0.00769219 -0.00812714 -0.008595 -0.00909578 -0.00962948 -0.0101961 -0.0107832 -0.0113783 -0.0119814 -0.0125926 -0.0132117 -0.0138389 -0.0144741 -0.0151174 -0.0157254 -0.016255 -0.0167061 -0.0170788 -0.017373 -0.0175887 -0.017726 -0.0177849 -0.0177663 -0.0176713 -0.0174998 -0.0172519 -0.0169276 -0.0165269 -0.0160497 -0.0154961 -0.0149038 -0.0143106 -0.0137163 -0.0131211 -0.0125249 -0.0119278 -0.0113296 -0.0107305 -0.0101268 -0.00951474 -0.00889439 -0.00826573 -0.00762877 -0.0069835 -0.00632993 -0.00566804 -0.00502017 -0.00440861 -0.00383337 -0.00329445 -0.00279185 -0.00232556 -0.0018956 -0.00150195 -0.00114993 -0.000844848 -0.0005867 -0.000375488 -0.000211212 -9.3872e-05 -2.3468e-05 0 0 -1.24099e-06 -4.96396e-06 -1.11689e-05 -1.98559e-05 -3.10248e-05 -4.46757e-05 -6.08086e-05 -7.94234e-05 -0.000119421 -0.000199703 -0.000320269 -0.00048112 -0.000682254 -0.000923672 -0.00120537 -0.00152736 -0.00189338 -0.00230717 -0.00276874 -0.00327809 -0.00383522 -0.00444012 -0.0050928 -0.00579326 -0.00651307 -0.0072238 -0.00792546 -0.00861805 -0.00930156 -0.00997599 -0.0106414 -0.0112976 -0.0119039 -0.0124191 -0.0128432 -0.0131763 -0.0134184 -0.0135694 -0.0136294 -0.0135983 -0.013489 -0.0133143 -0.0130742 -0.0127686 -0.0123977 -0.0119613 -0.0114595 -0.0108922 -0.0103157 -0.00978591 -0.00930293 -0.00886672 -0.0084773 -0.00813466 -0.0078388 -0.00758972 -0.00739466 -0.00726084 -0.00718827 -0.00717694 -0.00722687 -0.00733804 -0.00751045 -0.00774411 -0.00801349 -0.00829304 -0.00858276 -0.00888266 -0.00919273 -0.00951297 -0.00984339 -0.010184 -0.0105342 -0.0108933 -0.0112615 -0.0116387 -0.0120248 -0.01242 -0.0128241 -0.0132373 -0.0136305 -0.0139749 -0.0142705 -0.0145173 -0.0147152 -0.0148644 -0.0149647 -0.0150162 -0.0150193 -0.0149746 -0.0148819 -0.0147413 -0.0145529 -0.0143165 -0.0140322 -0.0137 -0.0133423 -0.0129816 -0.0126179 -0.0122511 -0.0118812 -0.0115083 -0.0111324 -0.0107534 -0.0103533 -0.00991393 -0.00943532 -0.00891748 -0.00836041 -0.00776409 -0.00712853 -0.00645374 -0.00577401 -0.00512364 -0.00450263 -0.00391099 -0.00334871 -0.00281579 -0.00231223 -0.00183804 -0.00140725 -0.0010339 -0.000717985 -0.000459511 -0.000258475 -0.000114878 -2.87194e-05 0 0 -2.72098e-06 -1.08839e-05 -2.44889e-05 -4.35358e-05 -6.80246e-05 -9.79555e-05 -0.000133328 -0.000174143 -0.000241117 -0.000354967 -0.000515694 -0.000723296 -0.000977775 -0.00127913 -0.00162736 -0.00202247 -0.00246764 -0.00296604 -0.00351769 -0.00412258 -0.00478071 -0.00549208 -0.00625669 -0.00707455 -0.00791372 -0.00874229 -0.00956027 -0.0103676 -0.0111644 -0.0119506 -0.0127262 -0.0134911 -0.0141974 -0.014797 -0.0152899 -0.015676 -0.0159555 -0.0161282 -0.0161941 -0.0161534 -0.0160222 -0.0158171 -0.015538 -0.0151848 -0.0147576 -0.0142564 -0.0136812 -0.013032 -0.0123731 -0.0117689 -0.0112194 -0.0107245 -0.0102843 -0.00989881 -0.00956798 -0.00929181 -0.00906626 -0.00888726 -0.0087548 -0.00866889 -0.00862952 -0.00863671 -0.00869044 -0.00879072 -0.00889752 -0.0089708 -0.00901056 -0.00901681 -0.00898954 -0.00892876 -0.00883447 -0.00870666 -0.00856685 -0.00843655 -0.00831577 -0.00820451 -0.00810277 -0.00801054 -0.00792782 -0.00785463 -0.00779279 -0.00774413 -0.00770867 -0.0076864 -0.00767732 -0.00768143 -0.00769873 -0.00772922 -0.00777226 -0.00782722 -0.00789409 -0.00797288 -0.00806358 -0.00816621 -0.00828074 -0.0084072 -0.00853638 -0.0086591 -0.00877535 -0.00888515 -0.00898848 -0.00908535 -0.00917577 -0.00925971 -0.00929489 -0.00923899 -0.00909201 -0.00885395 -0.00852481 -0.0081046 -0.0075933 -0.00699092 -0.00634913 -0.0057196 -0.00510231 -0.00449727 -0.00390449 -0.00332395 -0.00275567 -0.00219963 -0.00168409 -0.00123729 -0.000859231 -0.000549908 -0.000309323 -0.000137477 -3.43693e-05 0 0 -4.78859e-06 -1.91544e-05 -4.30973e-05 -7.66175e-05 -0.000119715 -0.000172389 -0.000234641 -0.00030647 -0.000409793 -0.000566529 -0.000776677 -0.00104024 -0.00135721 -0.00172759 -0.00215139 -0.0026286 -0.00316129 -0.00375153 -0.00439933 -0.00510467 -0.00586757 -0.00668801 -0.00756601 -0.00850156 -0.00945982 -0.0104059 -0.0113399 -0.0122618 -0.0131715 -0.0140692 -0.0149546 -0.015828 -0.0166339 -0.0173172 -0.0178779 -0.0183159 -0.0186313 -0.0188241 -0.0188942 -0.0188417 -0.018687 -0.0184509 -0.0181332 -0.0177339 -0.0172531 -0.0166908 -0.0160469 -0.0153215 -0.0145866 -0.0139144 -0.0133047 -0.0127577 -0.0122733 -0.0118514 -0.0114922 -0.0111957 -0.0109406 -0.0107058 -0.0104914 -0.0102973 -0.0101237 -0.00997031 -0.00983731 -0.00972467 -0.00957313 -0.00932344 -0.0089756 -0.0085296 -0.00798545 -0.00734315 -0.0066027 -0.00576409 -0.0048812 -0.0040079 -0.00314419 -0.00229006 -0.00144552 -0.000610569 0.000214797 0.00103058 0.00178777 0.0024374 0.00297945 0.00341393 0.00374083 0.00396016 0.00407192 0.0040761 0.00397498 0.00377083 0.00346365 0.00305344 0.0025402 0.00192393 0.00120462 0.00038229 -0.000485949 -0.00134297 -0.00218876 -0.00302334 -0.00384669 -0.00465883 -0.00545974 -0.00624943 -0.0069516 -0.00748994 -0.00786445 -0.00807514 -0.00812199 -0.00800502 -0.00772423 -0.0072796 -0.00674555 -0.00619649 -0.0056324 -0.0050533 -0.00445918 -0.00385005 -0.00322589 -0.00258672 -0.00198046 -0.00145503 -0.00101044 -0.00064668 -0.000363758 -0.00016167 -4.04175e-05 0 0 -7.44381e-06 -2.97752e-05 -6.69943e-05 -0.000119101 -0.000186095 -0.000267977 -0.000364747 -0.000476404 -0.000625451 -0.00083439 -0.00110322 -0.00143194 -0.00182056 -0.00226906 -0.00277746 -0.00334575 -0.00397434 -0.00466364 -0.00541365 -0.00622436 -0.00709579 -0.00802792 -0.00902076 -0.0100743 -0.0111514 -0.0122148 -0.0132645 -0.0143006 -0.015323 -0.0163317 -0.0173267 -0.0183081 -0.0192133 -0.0199797 -0.0206072 -0.021096 -0.021446 -0.0216572 -0.0217296 -0.0216632 -0.0214834 -0.0212156 -0.0208598 -0.020416 -0.0198842 -0.0192644 -0.0185566 -0.0177608 -0.0169562 -0.0162223 -0.015559 -0.0149662 -0.0144441 -0.0139926 -0.0136116 -0.0133013 -0.0130175 -0.0127165 -0.0123981 -0.0120623 -0.0117092 -0.0113388 -0.0109511 -0.010546 -0.0100403 -0.00935098 -0.00847787 -0.00742103 -0.00618045 -0.00475614 -0.00314809 -0.0013563 0.000522754 0.0023926 0.00425324 0.00610467 0.0079469 0.00977991 0.0116037 0.0134183 0.0151112 0.0165697 0.0177938 0.0187837 0.0195392 0.0200604 0.0203472 0.0203997 0.0202224 0.0198196 0.0191913 0.0183376 0.0172585 0.0159539 0.0144239 0.0126685 0.0108089 0.00896677 0.0071419 0.00533437 0.00354415 0.00177126 1.56858e-05 -0.00172256 -0.00332341 -0.00466677 -0.00575264 -0.00658104 -0.00715194 -0.00746537 -0.00752131 -0.00731977 -0.00696326 -0.00655431 -0.00609292 -0.00557908 -0.0050128 -0.00439408 -0.00372292 -0.00299931 -0.00229635 -0.00168711 -0.00117161 -0.000749828 -0.000421778 -0.000187457 -4.68642e-05 0 0 -1.06866e-05 -4.27466e-05 -9.61798e-05 -0.000170986 -0.000267166 -0.000384719 -0.000523646 -0.000683945 -0.000888089 -0.00115855 -0.00149532 -0.00189841 -0.00236782 -0.00290354 -0.00350558 -0.00417393 -0.00490679 -0.00570237 -0.00656066 -0.00748166 -0.00846537 -0.00951179 -0.0106209 -0.0117928 -0.0129884 -0.0141688 -0.0153339 -0.0164839 -0.0176186 -0.0187382 -0.0198425 -0.0209316 -0.0219356 -0.0227843 -0.0234779 -0.0240162 -0.0243994 -0.0246275 -0.0247003 -0.024618 -0.0244113 -0.0241113 -0.0237179 -0.023231 -0.0226508 -0.0219772 -0.0212102 -0.0203497 -0.0194819 -0.0186927 -0.0179821 -0.0173502 -0.0167969 -0.0163222 -0.0159261 -0.0156086 -0.0152972 -0.0149193 -0.0144748 -0.0139638 -0.0133863 -0.0127423 -0.0120317 -0.0112546 -0.0102991 -0.0090534 -0.00751738 -0.00569109 -0.00357454 -0.00116772 0.00152937 0.00451672 0.00764503 0.010765 0.0138765 0.0169797 0.0200745 0.0231609 0.026239 0.0293086 0.0321774 0.0346527 0.0367345 0.0384229 0.0397178 0.0406192 0.0411272 0.0412417 0.0409699 0.040319 0.0392889 0.0378796 0.0360913 0.0339238 0.0313771 0.0284513 0.0253483 0.0222701 0.0192166 0.016188 0.013184 0.0102049 0.00725051 0.00432089 0.00158968 -0.000769478 -0.00275659 -0.00437165 -0.00561467 -0.00648563 -0.00698455 -0.00711142 -0.00700225 -0.00679306 -0.00648385 -0.00607461 -0.00556534 -0.00495605 -0.00424674 -0.0034374 -0.00263176 -0.00193354 -0.00134273 -0.00085935 -0.000483384 -0.000214838 -5.37094e-05 0 0 -1.45171e-05 -5.80684e-05 -0.000130654 -0.000232273 -0.000362927 -0.000522615 -0.000711337 -0.000929094 -0.00119771 -0.00153901 -0.00195299 -0.00243965 -0.00299899 -0.00363102 -0.00433573 -0.00511313 -0.00595864 -0.00686772 -0.00784036 -0.00887656 -0.00997632 -0.0111396 -0.0123665 -0.013657 -0.0149708 -0.0162679 -0.0175482 -0.0188118 -0.0200586 -0.0212887 -0.0225019 -0.0236985 -0.0248007 -0.0257312 -0.0264898 -0.0270766 -0.0274917 -0.0277349 -0.0278063 -0.027706 -0.0274708 -0.027138 -0.0267074 -0.026179 -0.025553 -0.0248292 -0.0240077 -0.0230884 -0.0221637 -0.0213256 -0.0205742 -0.0199095 -0.0193315 -0.0188402 -0.0184356 -0.0181177 -0.0177796 -0.0173142 -0.0167216 -0.0160018 -0.0151548 -0.0141806 -0.0130792 -0.0118506 -0.0103495 -0.0084307 -0.00609412 -0.0033398 -0.000167722 0.0034221 0.00742966 0.011855 0.0164856 0.0211092 0.0257256 0.030335 0.0349373 0.0395324 0.0441205 0.0487015 0.0529865 0.0566865 0.0598015 0.0623315 0.0642766 0.0656367 0.0664118 0.066602 0.0662176 0.065269 0.0637563 0.0616795 0.0590386 0.0558335 0.0520642 0.0477308 0.0431322 0.038567 0.0340355 0.0295374 0.025073 0.0206421 0.0162447 0.0118809 0.00778767 0.00420193 0.00112371 -0.00144699 -0.00351016 -0.00506582 -0.00611395 -0.00665457 -0.00686254 -0.00691275 -0.00680519 -0.00653988 -0.0061168 -0.00553596 -0.00479736 -0.00390099 -0.0029867 -0.00219431 -0.00152382 -0.000975247 -0.000548577 -0.000243812 -6.0953e-05 0 0 -1.89352e-05 -7.57406e-05 -0.000170416 -0.000302962 -0.000473379 -0.000681665 -0.000927822 -0.00121185 -0.00155431 -0.00197576 -0.00247621 -0.00305565 -0.00371408 -0.00445151 -0.00526793 -0.00616335 -0.00712989 -0.00815969 -0.00925274 -0.0104091 -0.0116286 -0.0129115 -0.0142575 -0.0156669 -0.0170987 -0.0185122 -0.0199074 -0.0212843 -0.0226428 -0.0239831 -0.025305 -0.0266086 -0.0278088 -0.0288202 -0.0296431 -0.0302772 -0.0307227 -0.0309795 -0.0310477 -0.0309272 -0.0306619 -0.0302956 -0.0298283 -0.02926 -0.0285907 -0.0278204 -0.0269491 -0.0259769 -0.0250015 -0.0241209 -0.0233352 -0.0226442 -0.0220481 -0.0215468 -0.0211403 -0.0208286 -0.0204646 -0.0199012 -0.0191385 -0.0181764 -0.0170148 -0.0156539 -0.0140936 -0.012334 -0.0101915 -0.0074829 -0.0042081 -0.000367133 0.00404001 0.00901332 0.0145528 0.0206585 0.0270445 0.0334252 0.0398006 0.0461706 0.0525352 0.0588945 0.0652484 0.0715969 0.0775384 0.082671 0.0869947 0.0905096 0.0932156 0.0951128 0.0962011 0.0964806 0.0959654 0.0946698 0.0925937 0.0897373 0.0861004 0.081683 0.0764852 0.070507 0.0641605 0.0578576 0.0515984 0.0453828 0.039211 0.0330828 0.0269983 0.0209576 0.0152706 0.0102475 0.00588826 0.00219296 -0.000838432 -0.00320592 -0.00490951 -0.0059492 -0.00654411 -0.00691337 -0.00705696 -0.0069749 -0.00666718 -0.0061338 -0.00537477 -0.00439008 -0.00336115 -0.00246942 -0.00171487 -0.00109752 -0.000617355 -0.00027438 -6.8595e-05 0 0 -2.38147e-05 -9.52586e-05 -0.000214332 -0.000381034 -0.000595366 -0.000857328 -0.00116692 -0.00152414 -0.00194517 -0.0024462 -0.00302723 -0.00368825 -0.00442927 -0.00525028 -0.0061513 -0.00713231 -0.00817915 -0.00927768 -0.0104279 -0.0116298 -0.0128833 -0.0141885 -0.0155454 -0.016954 -0.0183781 -0.0197814 -0.0211639 -0.0225256 -0.0238666 -0.0251869 -0.0264864 -0.0277651 -0.0289388 -0.0299235 -0.030719 -0.0313253 -0.0317426 -0.0319707 -0.0320096 -0.0318594 -0.0315717 -0.0311979 -0.0307381 -0.0301922 -0.0295603 -0.0288423 -0.0280384 -0.0271484 -0.0262656 -0.0254834 -0.0248017 -0.0242205 -0.0237398 -0.0233597 -0.0230801 -0.022901 -0.0226233 -0.022048 -0.0211751 -0.0200045 -0.0185362 -0.0167703 -0.0147067 -0.0123455 -0.00946245 -0.00583341 -0.00145837 0.00366268 0.00952972 0.0161428 0.0235018 0.0316069 0.040076 0.0485274 0.0569609 0.0653767 0.0737747 0.0821548 0.0905172 0.0988618 0.106667 0.113412 0.119097 0.12372 0.127284 0.129787 0.131229 0.131611 0.130951 0.129268 0.126562 0.122833 0.118081 0.112306 0.105508 0.0976866 0.0893737 0.0811 0.0728655 0.0646703 0.0565143 0.0483975 0.04032 0.0322817 0.0246861 0.0179369 0.0120341 0.00697757 0.00276739 -0.000596443 -0.00311394 -0.0047851 -0.00587871 -0.00666355 -0.00713963 -0.00730694 -0.00716549 -0.00671527 -0.00595628 -0.00488853 -0.00374278 -0.0027498 -0.00190958 -0.00122213 -0.00068745 -0.000305533 -7.63833e-05 0 0 -2.90294e-05 -0.000116118 -0.000261265 -0.000464471 -0.000725736 -0.00104506 -0.00142244 -0.00185788 -0.00235757 -0.00292771 -0.00356828 -0.00427929 -0.00506074 -0.00591262 -0.00683495 -0.00782772 -0.00886506 -0.00992109 -0.0109958 -0.0120892 -0.0132014 -0.0143322 -0.0154817 -0.0166499 -0.0178149 -0.018955 -0.0200701 -0.0211602 -0.0222253 -0.0232654 -0.0242806 -0.0252707 -0.0261701 -0.0269128 -0.0274989 -0.0279285 -0.0282014 -0.0283177 -0.0282773 -0.0280804 -0.0277873 -0.0274585 -0.0270941 -0.0266939 -0.026258 -0.0257865 -0.0252792 -0.0247363 -0.0242262 -0.0238175 -0.0235102 -0.0233043 -0.0231998 -0.0231967 -0.023295 -0.0234946 -0.0235267 -0.0231221 -0.0222809 -0.0210032 -0.0192888 -0.0171378 -0.0145502 -0.011526 -0.0077997 -0.00310568 0.00255603 0.00918542 0.0167825 0.0253473 0.0348797 0.0453798 0.0563343 0.0672297 0.0780662 0.0888436 0.099562 0.110221 0.120822 0.131363 0.141207 0.149716 0.156889 0.162727 0.16723 0.170397 0.172229 0.172725 0.171911 0.169809 0.166421 0.161745 0.155783 0.148534 0.139999 0.130176 0.119712 0.109253 0.0987972 0.0883461 0.0778992 0.0674566 0.0570183 0.0465842 0.0366822 0.0278402 0.0200582 0.0133362 0.00767418 0.00307213 -0.000469945 -0.00295204 -0.00469806 -0.00603195 -0.00695369 -0.00746328 -0.00756073 -0.00724604 -0.0065192 -0.00538022 -0.00411923 -0.00302637 -0.00210165 -0.00134505 -0.000756593 -0.000336264 -8.40659e-05 0 0 -3.45795e-05 -0.000138318 -0.000311215 -0.000553272 -0.000864487 -0.00124486 -0.0016944 -0.00221309 -0.00279152 -0.00342028 -0.00409936 -0.00482876 -0.00560848 -0.00643853 -0.0073189 -0.00824959 -0.0091876 -0.0100899 -0.0109566 -0.0117875 -0.0125828 -0.0133423 -0.0140662 -0.0147544 -0.0154093 -0.0160331 -0.016626 -0.0171879 -0.0177188 -0.0182187 -0.0186876 -0.0191256 -0.0195025 -0.0197882 -0.019983 -0.0200866 -0.0200991 -0.0200205 -0.0198508 -0.0195901 -0.0193088 -0.0190775 -0.0188963 -0.0187651 -0.018684 -0.0186528 -0.0186717 -0.0187407 -0.0188834 -0.0191234 -0.0194609 -0.0198958 -0.0204281 -0.0210578 -0.021785 -0.0226095 -0.0231746 -0.0231235 -0.0224561 -0.0211725 -0.0192727 -0.0167566 -0.0136242 -0.00987561 -0.00520327 0.000700292 0.00783508 0.0162011 0.0257983 0.0366268 0.0486865 0.0619774 0.0758194 0.0895324 0.103116 0.116571 0.129897 0.143094 0.156162 0.169101 0.181158 0.191582 0.200373 0.20753 0.213054 0.216944 0.219201 0.219825 0.218845 0.216294 0.212171 0.206476 0.199209 0.190369 0.179958 0.167976 0.155176 0.142315 0.129393 0.11641 0.103366 0.0902601 0.0770932 0.0638651 0.0512588 0.0399573 0.0299607 0.0212689 0.0138819 0.00779979 0.00302248 -0.000450005 -0.00300218 -0.00501855 -0.00649914 -0.00744392 -0.00785292 -0.00772612 -0.00706353 -0.00586514 -0.0044905 -0.00329914 -0.00229107 -0.00146628 -0.000824785 -0.000366571 -9.16428e-05 0 0 -4.04648e-05 -0.000161859 -0.000364183 -0.000647437 -0.00101162 -0.00145673 -0.00198278 -0.00258975 -0.00324701 -0.00392392 -0.00462047 -0.00533667 -0.00607251 -0.006828 -0.00760314 -0.00839792 -0.00914679 -0.00978419 -0.0103101 -0.0107246 -0.0110275 -0.0112191 -0.0112991 -0.0112677 -0.0111611 -0.0110158 -0.0108317 -0.0106088 -0.0103472 -0.0100467 -0.00970756 -0.00932961 -0.00893598 -0.00854978 -0.008171 -0.00779965 -0.00743572 -0.00707922 -0.00673014 -0.00638848 -0.00613611 -0.00605488 -0.0061448 -0.00640585 -0.00683805 -0.00744139 -0.00821587 -0.00916149 -0.010237 -0.011401 -0.0126537 -0.0139949 -0.0154247 -0.0169431 -0.0185501 -0.0202457 -0.0215672 -0.0220522 -0.0217007 -0.0205125 -0.0184878 -0.0156265 -0.0119286 -0.00739419 -0.00167315 0.00558451 0.0143788 0.0247097 0.0365772 0.0499814 0.0649222 0.0813996 0.0985314 0.115435 0.132111 0.14856 0.16478 0.180773 0.196538 0.212075 0.22652 0.239011 0.249548 0.258129 0.264756 0.269428 0.272146 0.272908 0.271755 0.268722 0.263812 0.257023 0.248356 0.237811 0.225387 0.211085 0.195765 0.180288 0.164654 0.148862 0.132914 0.116808 0.100545 0.0841244 0.0684159 0.0542883 0.0417415 0.0307756 0.0213906 0.0135865 0.00736333 0.00272099 -0.000791043 -0.0036