<?xml version="1.0"?> 
<VTKFile type="StructuredGrid" version="0.1"> 
<StructuredGrid WholeExtent="0 128 0 128 0 0"> 
<Piece Extent="0 128 0 128 0 0"> 
<PointData>
<DataArray type="Float32" Name="u" format="ascii" NumberOfComponents="1"> 
0 0 0 0 0 0 0 0 0 0 0 0 0 0 0 0 0 0 0 0 0 0 0 0 0 0 0 0 0 0 0 0 0 0 0 0 0 0 0 0 0 0 0 0 0 0 0 0 0 0 0 0 0 0 0 0 0 0 0 0 0 0 0 0 0 0 0 0 0 0 0 0 0 0 0 0 0 0 0 0 0 0 0 0 0 0 0 0 0 0 0 0 0 0 0 0 0 0 0 0 0 0 0 0 0 0 0 0 0 0 0 0 0 0 0 0 0 0 0 0 0 0 0 0 0 0 0 0 0 0 1.00846e-07 4.03386e-07 9.07618e-07 1.61354e-06 2.52116e-06 3.63047e-06 4.94148e-06 6.45417e-06 7.99505e-06 9.39059e-06 1.06408e-05 1.17457e-05 1.27052e-05 1.35194e-05 1.41883e-05 1.47119e-05 1.50948e-05 1.53418e-05 1.54528e-05 1.5428e-05 1.52672e-05 1.49705e-05 1.45379e-05 1.39693e-05 1.34512e-05 1.31697e-05 1.31251e-05 1.33171e-05 1.37459e-05 1.44114e-05 1.53137e-05 1.64527e-05 1.76102e-05 1.8568e-05 1.93261e-05 1.98845e-05 2.02432e-05 2.04022e-05 2.03615e-05 2.0121e-05 1.98322e-05 1.96464e-05 1.95634e-05 1.95834e-05 1.97064e-05 1.99322e-05 2.02611e-05 2.06928e-05 2.10618e-05 2.12021e-05 2.1114e-05 2.07973e-05 2.0252e-05 1.94782e-05 1.84758e-05 1.72449e-05 1.49627e-05 1.08064e-05 4.7761e-06 -3.12829e-06 -1.29067e-05 -2.45593e-05 -3.80858e-05 -5.34865e-05 -7.04916e-05 -8.88317e-05 -0.000108507 -0.000129517 -0.000151862 -0.000175542 -0.000200557 -0.000226907 -0.000253709 -0.000280078 -0.000306016 -0.000331523 -0.000356597 -0.00038124 -0.000405451 -0.000429231 -0.000451308 -0.000470414 -0.000486548 -0.000499711 -0.000509902 -0.000517121 -0.000521368 -0.000522644 -0.000520984 -0.000516422 -0.000508959 -0.000498594 -0.000485328 -0.000469161 -0.000450093 -0.000428123 -0.000404565 -0.000380732 -0.000356624 -0.00033224 -0.000307581 -0.000282647 -0.000257438 -0.000231953 -0.000206983 -0.000183317 -0.000160956 -0.000139899 -0.000120146 -0.000101698 -8.45537e-05 -6.8714e-05 -5.44134e-05 -4.18868e-05 -3.11343e-05 -2.21557e-05 -1.49512e-05 -9.52072e-06 -5.86425e-06 -3.98179e-06 -3.04856e-06 -2.23976e-06 -1.55539e-06 -9.95447e-07 -5.59939e-07 -2.48862e-07 -6.22155e-08 0 0 4.03386e-07 1.61354e-06 3.63047e-06 6.45417e-06 1.00846e-05 1.45219e-05 1.97659e-05 2.58167e-05 3.19802e-05 3.75624e-05 4.25632e-05 4.69827e-05 5.08209e-05 5.40778e-05 5.67533e-05 5.88475e-05 6.03791e-05 6.13671e-05 6.18114e-05 6.17119e-05 6.10688e-05 5.9882e-05 5.81514e-05 5.58772e-05 5.38046e-05 5.26789e-05 5.25002e-05 5.32684e-05 5.49836e-05 5.76457e-05 6.12548e-05 6.58108e-05 7.04408e-05 7.42721e-05 7.73045e-05 7.95381e-05 8.09728e-05 8.16088e-05 8.14459e-05 8.04842e-05 7.93289e-05 7.85855e-05 7.82537e-05 7.83337e-05 7.88255e-05 7.9729e-05 8.10442e-05 8.27712e-05 8.4247e-05 8.48086e-05 8.4456e-05 8.31891e-05 8.10081e-05 7.79128e-05 7.39034e-05 6.89797e-05 5.98509e-05 4.32258e-05 1.91044e-05 -1.25132e-05 -5.1627e-05 -9.8237e-05 -0.000152343 -0.000213946 -0.000281966 -0.000355327 -0.000434027 -0.000518068 -0.000607448 -0.000702168 -0.000802228 -0.000907628 -0.00101483 -0.00112031 -0.00122407 -0.00132609 -0.00142639 -0.00152496 -0.00162181 -0.00171692 -0.00180523 -0.00188166 -0.00194619 -0.00199884 -0.00203961 -0.00206848 -0.00208547 -0.00209058 -0.00208393 -0.00206569 -0.00203583 -0.00199438 -0.00194131 -0.00187664 -0.00180037 -0.00171249 -0.00161826 -0.00152293 -0.00142649 -0.00132896 -0.00123032 -0.00113059 -0.00102975 -0.000927812 -0.000827932 -0.000733269 -0.000643824 -0.000559596 -0.000480585 -0.000406791 -0.000338215 -0.000274856 -0.000217654 -0.000167547 -0.000124537 -8.86229e-05 -5.98049e-05 -3.80829e-05 -2.3457e-05 -1.59272e-05 -1.21942e-05 -8.95903e-06 -6.22155e-06 -3.98179e-06 -2.23976e-06 -9.95447e-07 -2.48862e-07 0 0 9.07618e-07 3.63047e-06 8.16856e-06 1.45219e-05 2.26905e-05 3.26743e-05 4.44733e-05 5.80876e-05 7.19555e-05 8.45153e-05 9.57672e-05 0.000105711 0.000114347 0.000121675 0.000127695 0.000132407 0.000135853 0.000138076 0.000139076 0.000138852 0.000137405 0.000134734 0.000130841 0.000125724 0.00012106 0.000118528 0.000118126 0.000119854 0.000123713 0.000129703 0.000137823 0.000148074 0.000158492 0.000167112 0.000173935 0.000178961 0.000182189 0.00018362 0.000183253 0.000181089 0.00017849 0.000176817 0.000176071 0.000176251 0.000177357 0.00017939 0.00018235 0.000186235 0.000189556 0.000190819 0.000190026 0.000187176 0.000182268 0.000175304 0.000166283 0.000155204 0.000134664 9.7258e-05 4.29849e-05 -2.81546e-05 -0.000116161 -0.000221033 -0.000342772 -0.000481378 -0.000634424 -0.000799486 -0.000976561 -0.00116565 -0.00136676 -0.00157988 -0.00180501 -0.00204216 -0.00228338 -0.00252071 -0.00275415 -0.00298371 -0.00320938 -0.00343116 -0.00364906 -0.00386308 -0.00406177 -0.00423373 -0.00437894 -0.0044974 -0.00458912 -0.00465409 -0.00469232 -0.0047038 -0.00468885 -0.0046478 -0.00458063 -0.00448735 -0.00436795 -0.00422245 -0.00405083 -0.00385311 -0.00364109 -0.00342659 -0.00320961 -0.00299016 -0.00276823 -0.00254382 -0.00231694 -0.00208758 -0.00186285 -0.00164986 -0.0014486 -0.00125909 -0.00108132 -0.00091528 -0.000760983 -0.000618426 -0.00048972 -0.000376981 -0.000280208 -0.000199402 -0.000134561 -8.56865e-05 -5.27782e-05 -3.58361e-05 -2.7437e-05 -2.01578e-05 -1.39985e-05 -8.95903e-06 -5.03945e-06 -2.23976e-06 -5.59939e-07 0 0 1.61354e-06 6.45417e-06 1.45219e-05 2.58167e-05 4.03386e-05 5.80876e-05 7.90636e-05 0.000103267 0.000127921 0.00015025 0.000170253 0.000187931 0.000203284 0.000216311 0.000227013 0.00023539 0.000241516 0.000245468 0.000247245 0.000246848 0.000244275 0.000239528 0.000232606 0.000223509 0.000215218 0.000210716 0.000210001 0.000213074 0.000219934 0.000230583 0.000245019 0.000263243 0.000281763 0.000297088 0.000309218 0.000318152 0.000323891 0.000326435 0.000325784 0.000321937 0.000317316 0.000314342 0.000313015 0.000313335 0.000315302 0.000318916 0.000324177 0.000331085 0.000336988 0.000339234 0.000337824 0.000332756 0.000324032 0.000311651 0.000295614 0.000275919 0.000239403 0.000172903 7.64177e-05 -5.00526e-05 -0.000206508 -0.000392948 -0.000609373 -0.000855783 -0.00112787 -0.00142131 -0.00173611 -0.00207227 -0.00242979 -0.00280867 -0.00320891 -0.00363051 -0.00405934 -0.00448125 -0.00489626 -0.00530436 -0.00570556 -0.00609984 -0.00648722 -0.00686769 -0.00722093 -0.00752663 -0.00778477 -0.00799537 -0.00815843 -0.00827394 -0.0083419 -0.00836231 -0.00833574 -0.00826275 -0.00814334 -0.0079775 -0.00776525 -0.00750658 -0.00720148 -0.00684997 -0.00647304 -0.00609171 -0.00570598 -0.00531584 -0.0049213 -0.00452235 -0.004119 -0.00371125 -0.00331173 -0.00293308 -0.0025753 -0.00223838 -0.00192234 -0.00162716 -0.00135286 -0.00109942 -0.000870614 -0.000670189 -0.000498148 -0.000354492 -0.000239219 -0.000152332 -9.38279e-05 -6.37086e-05 -4.87769e-05 -3.58361e-05 -2.48862e-05 -1.59272e-05 -8.95903e-06 -3.98179e-06 -9.95447e-07 0 0 2.52116e-06 1.00846e-05 2.26905e-05 4.03386e-05 6.3029e-05 9.07618e-05 0.000123537 0.000161354 0.000199876 0.000234765 0.00026602 0.000293642 0.000317631 0.000337986 0.000354708 0.000367797 0.00037737 0.000383544 0.000386321 0.0003857 0.00038168 0.000374262 0.000363447 0.000349233 0.000336279 0.000329243 0.000328126 0.000332928 0.000343648 0.000360286 0.000382842 0.000411317 0.000440255 0.0004642 0.000483153 0.000497113 0.00050608 0.000510055 0.000509037 0.000503026 0.000495806 0.000491159 0.000489086 0.000489586 0.000492659 0.000498306 0.000506526 0.00051732 0.000526544 0.000530054 0.00052785 0.000519932 0.000506301 0.000486955 0.000461896 0.000431123 0.000374068 0.000270161 0.000119403 -7.82072e-05 -0.000322669 -0.000613981 -0.000952146 -0.00133716 -0.00176229 -0.00222079 -0.00271267 -0.00323792 -0.00379655 -0.00438855 -0.00501392 -0.00567267 -0.00634271 -0.00700196 -0.00765041 -0.00828807 -0.00891493 -0.009531 -0.0101363 -0.0107308 -0.0112827 -0.0117604 -0.0121637 -0.0124928 -0.0127475 -0.012928 -0.0130342 -0.0130661 -0.0130246 -0.0129105 -0.012724 -0.0124648 -0.0121332 -0.011729 -0.0112523 -0.0107031 -0.0101141 -0.0095183 -0.00891559 -0.008306 -0.00768953 -0.00706617 -0.00643594 -0.00579883 -0.00517458 -0.00458293 -0.0040239 -0.00349747 -0.00300366 -0.00254244 -0.00211384 -0.00171785 -0.00136033 -0.00104717 -0.000778356 -0.000553893 -0.00037378 -0.000238018 -0.000146606 -9.95447e-05 -7.62139e-05 -5.59939e-05 -3.88847e-05 -2.48862e-05 -1.39985e-05 -6.22155e-06 -1.55539e-06 0 0 3.63047e-06 1.45219e-05 3.26743e-05 5.80876e-05 9.07618e-05 0.000130697 0.000177893 0.00023235 0.000287822 0.000338061 0.000383069 0.000422845 0.000457388 0.0004867 0.000510779 0.000529627 0.000543412 0.000552304 0.000556302 0.000555407 0.000549619 0.000538938 0.000523363 0.000502895 0.000484241 0.000474111 0.000472502 0.000479416 0.000494853 0.000518812 0.000551293 0.000592297 0.000633967 0.000668449 0.00069574 0.000715842 0.000728755 0.000734479 0.000733013 0.000724358 0.00071396 0.000707269 0.000704283 0.000705003 0.000709429 0.000717561 0.000729398 0.000744941 0.000758223 0.000763277 0.000760104 0.000748702 0.000729073 0.000701216 0.000665131 0.000620818 0.000538658 0.000389032 0.00017194 -0.000112618 -0.000464643 -0.000884133 -0.00137109 -0.00192551 -0.0025377 -0.00319794 -0.00390625 -0.00466261 -0.00546703 -0.00631951 -0.00722005 -0.00816865 -0.00913351 -0.0100828 -0.0110166 -0.0119348 -0.0128375 -0.0137246 -0.0145962 -0.0154523 -0.0162471 -0.0169349 -0.0175157 -0.0179896 -0.0183565 -0.0186164 -0.0187693 -0.0188152 -0.0187554 -0.0185912 -0.0183225 -0.0179494 -0.0174718 -0.0168898 -0.0162033 -0.0154124 -0.0145643 -0.0137063 -0.0128384 -0.0119606 -0.0110729 -0.0101753 -0.00926775 -0.00835031 -0.00745139 -0.00659942 -0.00579441 -0.00503636 -0.00432526 -0.00366112 -0.00304393 -0.0024737 -0.00195888 -0.00150793 -0.00112083 -0.000797606 -0.000538244 -0.000342746 -0.000211113 -0.000143344 -0.000109748 -8.06312e-05 -5.59939e-05 -3.58361e-05 -2.01578e-05 -8.95903e-06 -2.23976e-06 0 0 4.94148e-06 1.97659e-05 4.44733e-05 7.90636e-05 0.000123537 0.000177893 0.000242132 0.000316255 0.000391757 0.000460139 0.000521399 0.000575538 0.000622556 0.000662453 0.000695228 0.000720881 0.000739644 0.000751747 0.000757189 0.000755971 0.000748093 0.000733554 0.000712355 0.000684496 0.000659106 0.000645317 0.000643128 0.000652538 0.000673549 0.00070616 0.000750371 0.000806182 0.0008629 0.000909833 0.00094698 0.000974341 0.000991917 0.000999707 0.000997712 0.000985931 0.00097178 0.000962672 0.000958608 0.000959588 0.000965612 0.00097668 0.000992792 0.00101395 0.00103203 0.00103891 0.00103459 0.00101907 0.000992349 0.000954432 0.000905317 0.000845002 0.000733173 0.000529516 0.000234029 -0.000153286 -0.00063243 -0.0012034 -0.00186621 -0.00262084 -0.00345409 -0.00435275 -0.00531683 -0.00634633 -0.00744124 -0.00860156 -0.00982729 -0.0111184 -0.0124317 -0.0137238 -0.0149948 -0.0162446 -0.0174733 -0.0186808 -0.0198671 -0.0210323 -0.0221141 -0.0230503 -0.0238409 -0.0244858 -0.0249852 -0.0253389 -0.0255471 -0.0256096 -0.0255282 -0.0253047 -0.024939 -0.0244311 -0.0237811 -0.0229889 -0.0220545 -0.020978 -0.0198237 -0.0186559 -0.0174746 -0.0162798 -0.0150715 -0.0138497 -0.0126144 -0.0113657 -0.0101422 -0.00898255 -0.00788684 -0.00685505 -0.00588716 -0.00498319 -0.00414313 -0.00336698 -0.00266626 -0.00205245 -0.00152558 -0.00108563 -0.00073261 -0.000466515 -0.000287348 -0.000195108 -0.000149379 -0.000109748 -7.62139e-05 -4.87769e-05 -2.7437e-05 -1.21942e-05 -3.04856e-06 0 0 6.45417e-06 2.58167e-05 5.80876e-05 0.000103267 0.000161354 0.00023235 0.000316255 0.000413067 0.000511683 0.000600998 0.000681012 0.000751724 0.000813135 0.000865244 0.000908052 0.000941559 0.000966066 0.000981873 0.000988982 0.000987391 0.000977101 0.000958112 0.000930423 0.000894035 0.000860874 0.000842863 0.000840004 0.000852295 0.000879738 0.000922332 0.000980076 0.00105297 0.00112705 0.00118835 0.00123687 0.00127261 0.00129557 0.00130574 0.00130313 0.00128775 0.00126926 0.00125737 0.00125206 0.00125334 0.00126121 0.00127566 0.00129671 0.00132434 0.00134795 0.00135694 0.0013513 0.00133103 0.00129613 0.00124661 0.00118245 0.00110368 0.000957614 0.000691612 0.000305671 -0.000200211 -0.000826032 -0.00157179 -0.00243749 -0.00342313 -0.00451146 -0.00568523 -0.00694444 -0.00828908 -0.00971916 -0.0112347 -0.0128356 -0.014522 -0.0162373 -0.017925 -0.0195851 -0.0212175 -0.0228222 -0.0243994 -0.0259489 -0.0274708 -0.0288837 -0.0301065 -0.0311391 -0.0319815 -0.0326337 -0.0330957 -0.0333676 -0.0334492 -0.033343 -0.033051 -0.0325733 -0.03191 -0.031061 -0.0300263 -0.0288059 -0.0273999 -0.0258922 -0.0243668 -0.0228239 -0.0212634 -0.0196852 -0.0180894 -0.016476 -0.014845 -0.0132469 -0.0117323 -0.0103012 -0.00895353 -0.00768936 -0.00650866 -0.00541144 -0.00439769 -0.00348246 -0.00268076 -0.00199259 -0.00141797 -0.000956878 -0.000609326 -0.000375312 -0.000254835 -0.000195108 -0.000143344 -9.95447e-05 -6.37086e-05 -3.58361e-05 -1.59272e-05 -3.98179e-06 0 0 7.82827e-06 3.13131e-05 7.04544e-05 0.000125252 0.000195707 0.000281818 0.000383585 0.000501009 0.000619693 0.000725242 0.000817654 0.000896931 0.000963071 0.00101608 0.00105594 0.00108268 0.0010969 0.00109924 0.0010897 0.00106828 0.00103498 0.000989798 0.000932733 0.000863786 0.000798236 0.000751363 0.000723166 0.000713646 0.000722801 0.000750633 0.000797142 0.000862326 0.000930595 0.000986356 0.00102961 0.00106035 0.00107859 0.00108432 0.00107754 0.00105826 0.00103824 0.00102928 0.00103137 0.00104452 0.00106871 0.00110396 0.00115026 0.00120762 0.00126043 0.0012931 0.00130562 0.00129801 0.00127025 0.00122235 0.00115431 0.00106613 0.000896644 0.000584692 0.000130275 -0.000466609 -0.00120596 -0.00208777 -0.00311206 -0.0042788 -0.00556406 -0.00694389 -0.00841828 -0.00998723 -0.0116507 -0.0134088 -0.0152615 -0.0172087 -0.0191905 -0.0211471 -0.0230785 -0.0249846 -0.0268655 -0.0287211 -0.0305515 -0.0323566 -0.034036 -0.0354893 -0.0367164 -0.0377175 -0.0384923 -0.0390411 -0.0393637 -0.0394602 -0.0393334 -0.0389862 -0.0384187 -0.0376308 -0.0366225 -0.0353938 -0.0339448 -0.0322753 -0.030489 -0.0286892 -0.0268759 -0.0250491 -0.0232088 -0.0213551 -0.0194879 -0.0176072 -0.0157651 -0.0140135 -0.0123525 -0.0107821 -0.00930225 -0.00791296 -0.00661424 -0.00540609 -0.00431001 -0.00334749 -0.00251854 -0.00182316 -0.00126135 -0.000833099 -0.00053842 -0.000377309 -0.000288877 -0.000212237 -0.000147386 -9.43273e-05 -5.30591e-05 -2.35818e-05 -5.89546e-06 0 0 8.72346e-06 3.48938e-05 7.85111e-05 0.000139575 0.000218086 0.000314044 0.000427449 0.000558301 0.000687882 0.000797473 0.000887076 0.000956689 0.00100631 0.00103595 0.00104559 0.00103525 0.00100637 0.000960417 0.000897382 0.000817267 0.000720074 0.000605801 0.000474449 0.000326018 0.000179886 5.54308e-05 -4.73483e-05 -0.000128451 -0.000187877 -0.000225627 -0.0002417 -0.000236097 -0.000222305 -0.00021381 -0.000210612 -0.000212713 -0.000220111 -0.000232806 -0.000250799 -0.00027409 -0.000289453 -0.000283664 -0.000256721 -0.000208626 -0.000139378 -4.89777e-05 6.25757e-05 0.000195282 0.000323879 0.000423104 0.000492958 0.00053344 0.000544551 0.00052629 0.000478658 0.000401654 0.000234927 -8.18737e-05 -0.000548749 -0.0011657 -0.00193272 -0.00284982 -0.003917 -0.00513424 -0.00646614 -0.00787725 -0.00936758 -0.0109371 -0.0125859 -0.0143139 -0.0161211 -0.0180075 -0.0199314 -0.021851 -0.0237663 -0.0256774 -0.0275841 -0.0294866 -0.0313847 -0.0332786 -0.035051 -0.0365844 -0.0378789 -0.0389346 -0.0397513 -0.0403292 -0.0406682 -0.0407683 -0.0406332 -0.0402664 -0.039668 -0.038838 -0.0377764 -0.0364832 -0.0349583 -0.0332018 -0.0313334 -0.0294728 -0.0276198 -0.0257747 -0.0239373 -0.0221076 -0.0202856 -0.0184715 -0.0166962 -0.0149911 -0.013356 -0.0117911 -0.0102963 -0.00887154 -0.00751693 -0.00623243 -0.00505143 -0.00400731 -0.00310009 -0.00232975 -0.00169631 -0.00119975 -0.000840091 -0.000617316 -0.000472633 -0.000347241 -0.000241139 -0.000154329 -8.68101e-05 -3.85823e-05 -9.64557e-06 0 0 9.13974e-06 3.6559e-05 8.22577e-05 0.000146236 0.000228494 0.000329031 0.000447847 0.000584944 0.000716249 0.000817693 0.000889277 0.000931 0.000942861 0.000924862 0.000877002 0.000799281 0.000694483 0.000565394 0.000412013 0.000234341 3.23767e-05 -0.000193879 -0.000444427 -0.000719266 -0.000994175 -0.00124493 -0.00147154 -0.00167399 -0.0018523 -0.00200645 -0.00213645 -0.0022423 -0.00233165 -0.00241215 -0.00248379 -0.00254659 -0.00260054 -0.00264564 -0.00268189 -0.00270929 -0.00271382 -0.00268147 -0.00261222 -0.00250609 -0.00236306 -0.00218315 -0.00196635 -0.00171267 -0.0014617 -0.00125304 -0.0010867 -0.000962677 -0.000880971 -0.000841581 -0.000844508 -0.000889751 -0.00102754 -0.00130809 -0.0017314 -0.00229748 -0.00300633 -0.00385794 -0.00485231 -0.00598946 -0.00721768 -0.00848531 -0.00979234 -0.0111388 -0.0125246 -0.0139499 -0.0154145 -0.0169186 -0.0184599 -0.0200366 -0.0216485 -0.0232957 -0.0249781 -0.0266958 -0.0284488 -0.030237 -0.0319286 -0.0333918 -0.0346266 -0.0356329 -0.0364107 -0.0369602 -0.0372812 -0.0373737 -0.0372424 -0.0368916 -0.0363214 -0.0355318 -0.0345228 -0.0332944 -0.0318466 -0.0301793 -0.0284254 -0.0267176 -0.0250558 -0.0234401 -0.0218704 -0.0203468 -0.0188692 -0.0174377 -0.0160402 -0.0146649 -0.0133116 -0.0119805 -0.0106714 -0.0093844 -0.00811951 -0.00687672 -0.00570672 -0.00466022 -0.00373723 -0.00293775 -0.00226177 -0.00170929 -0.00128032 -0.000974856 -0.000746374 -0.000548356 -0.000380803 -0.000243714 -0.000137089 -6.09285e-05 -1.52321e-05 0 0 9.07713e-06 3.63085e-05 8.16941e-05 0.000145234 0.000226928 0.000326777 0.000444779 0.000580936 0.000704795 0.000785902 0.000824257 0.000819862 0.000772715 0.000682817 0.000550167 0.000374767 0.00016123 -8.58252e-05 -0.0003664 -0.000680495 -0.00102811 -0.00140924 -0.0018239 -0.00227207 -0.00272395 -0.00314973 -0.00354941 -0.00392298 -0.00427046 -0.00459183 -0.00488711 -0.00515628 -0.00539743 -0.00560865 -0.00578994 -0.00594129 -0.0060627 -0.00615419 -0.00621573 -0.00624735 -0.00623487 -0.00616412 -0.00603512 -0.00584786 -0.00560234 -0.00529857 -0.00493653 -0.00451623 -0.00409629 -0.00373533 -0.00343335 -0.00319034 -0.00300631 -0.00288126 -0.00281519 -0.00280809 -0.00289075 -0.00309394 -0.00341768 -0.00386195 -0.00442677 -0.00511212 -0.00591801 -0.00684444 -0.0078187 -0.00876807 -0.00969257 -0.0105922 -0.0114669 -0.0123168 -0.0131417 -0.0139418 -0.0147762 -0.0157039 -0.016725 -0.0178396 -0.0190475 -0.0203488 -0.0217435 -0.0232316 -0.0246689 -0.0259115 -0.0269593 -0.0278123 -0.0284705 -0.0289339 -0.0292025 -0.0292764 -0.0291609 -0.0288617 -0.0283788 -0.0277121 -0.0268616 -0.0258275 -0.0246095 -0.0232079 -0.0217651 -0.0204237 -0.0191838 -0.0180453 -0.0170083 -0.0160727 -0.0152386 -0.0145059 -0.0137972 -0.013035 -0.0122194 -0.0113502 -0.0104276 -0.00945154 -0.00842198 -0.00733895 -0.00627588 -0.00530623 -0.00442998 -0.00364715 -0.00295773 -0.00236171 -0.00185912 -0.00144993 -0.0011101 -0.000815584 -0.000566378 -0.000362482 -0.000203896 -9.06205e-05 -2.26551e-05 0 0 8.53561e-06 3.41424e-05 7.68205e-05 0.00013657 0.00021339 0.000307282 0.000418245 0.000546279 0.000653519 0.000702098 0.000692017 0.000623276 0.000495874 0.000309813 6.50906e-05 -0.000238292 -0.000593385 -0.000993241 -0.00143786 -0.00192724 -0.00246138 -0.00304029 -0.00366396 -0.00433239 -0.00500944 -0.00565896 -0.00628095 -0.00687542 -0.00744236 -0.00798178 -0.00849367 -0.00897804 -0.00941966 -0.00980333 -0.010129 -0.0103968 -0.0106066 -0.0107584 -0.0108523 -0.0108883 -0.0108526 -0.0107316 -0.0105254 -0.010234 -0.00985722 -0.00939521 -0.00884794 -0.00821541 -0.00757992 -0.00702378 -0.00654699 -0.00614956 -0.00583148 -0.00559275 -0.00543337 -0.00535335 -0.0053547 -0.00543945 -0.00560759 -0.00585912 -0.00619405 -0.00661237 -0.00711408 -0.00769919 -0.00826918 -0.00872554 -0.00906826 -0.00929734 -0.00941279 -0.00941461 -0.00930279 -0.00907733 -0.00888011 -0.00885299 -0.00899597 -0.00930905 -0.00979224 -0.0104455 -0.0112689 -0.0122624 -0.013272 -0.0141436 -0.0148772 -0.015473 -0.0159307 -0.0162505 -0.0164323 -0.0164762 -0.0163888 -0.0161768 -0.0158401 -0.0153789 -0.0147929 -0.0140824 -0.0132472 -0.0122874 -0.0113523 -0.010591 -0.0100037 -0.00959033 -0.00935087 -0.00928534 -0.00939374 -0.00967606 -0.00996704 -0.0101014 -0.0100792 -0.00990039 -0.00956497 -0.00907296 -0.00842434 -0.00761913 -0.00675892 -0.00594532 -0.00517833 -0.00445795 -0.00378418 -0.00315702 -0.00257647 -0.00204253 -0.00156381 -0.00114892 -0.000797864 -0.000510633 -0.000287231 -0.000127658 -3.19146e-05 0 0 7.51519e-06 3.00608e-05 6.76367e-05 0.000120243 0.00018788 0.000270547 0.000368244 0.000480972 0.000562421 0.000566282 0.000492556 0.000341242 0.000112339 -0.00019415 -0.000578228 -0.00103989 -0.00156936 -0.00215685 -0.00280236 -0.0035059 -0.00426745 -0.00508702 -0.00596461 -0.00690022 -0.00785063 -0.00877262 -0.00966617 -0.0105313 -0.011368 -0.0121763 -0.0129561 -0.0137076 -0.0143983 -0.0149962 -0.0155011 -0.0159131 -0.0162322 -0.0164584 -0.0165917 -0.016632 -0.016567 -0.016384 -0.0160831 -0.0156644 -0.0151277 -0.0144731 -0.0137006 -0.0128102 -0.0119126 -0.0111184 -0.0104276 -0.00984033 -0.00935647 -0.00897605 -0.00869908 -0.00852555 -0.00841941 -0.0083446 -0.00830112 -0.00828898 -0.00830816 -0.00835868 -0.00844054 -0.00855372 -0.00856914 -0.00835771 -0.00791941 -0.00725425 -0.00636224 -0.00524337 -0.00389763 -0.00232504 -0.000771717 0.000516212 0.00153875 0.00229589 0.00278763 0.00301398 0.00297493 0.00267049 0.00226231 0.00191205 0.0016197 0.00138526 0.00120874 0.00109013 0.00102944 0.00102666 0.00107387 0.00116314 0.00129447 0.00146786 0.00168332 0.00194083 0.0022404 0.00258204 0.00281296 0.0027804 0.00248434 0.0019248 0.00110178 1.52628e-05 -0.00133474 -0.00294823 -0.00454982 -0.00586414 -0.00689118 -0.00763095 -0.00808344 -0.00824865 -0.00812659 -0.00771725 -0.00715582 -0.00657749 -0.00598227 -0.00537015 -0.00474113 -0.00409521 -0.00343239 -0.00275267 -0.00210751 -0.00154838 -0.00107526 -0.000688167 -0.000387094 -0.000172042 -4.30104e-05 0 0 6.01587e-06 2.40635e-05 5.41428e-05 9.62539e-05 0.000150397 0.000216571 0.000294777 0.000385015 0.000431502 0.000378455 0.000225874 -2.62408e-05 -0.00037789 -0.000829073 -0.00137979 -0.00203004 -0.0027667 -0.00357666 -0.00445991 -0.00541646 -0.0064463 -0.00754943 -0.00872586 -0.00997558 -0.0112475 -0.0124907 -0.0137051 -0.0148906 -0.0160474 -0.0171754 -0.0182745 -0.0193449 -0.0203334 -0.0211872 -0.0219061 -0.0224902 -0.0229396 -0.0232541 -0.0234338 -0.0234786 -0.023378 -0.0231212 -0.0227083 -0.0221391 -0.0214138 -0.0205322 -0.0194945 -0.0183006 -0.0170942 -0.0160191 -0.0150753 -0.0142626 -0.0135813 -0.0130312 -0.0126123 -0.0123247 -0.0120849 -0.0118094 -0.0114983 -0.0111515 -0.0107691 -0.0103511 -0.00989737 -0.00940802 -0.00871857 -0.00766457 -0.00624602 -0.00446292 -0.00231526 0.000196951 0.00307371 0.00631503 0.00954899 0.0124037 0.0148791 0.0169752 0.0186921 0.0200297 0.0209881 0.0215671 0.0219339 0.0222554 0.0225315 0.0227623 0.0229478 0.023088 0.0231828 0.0232323 0.0232272 0.0231581 0.0230251 0.0228281 0.0225671 0.0222422 0.0218533 0.0214005 0.0207306 0.0196906 0.0182804 0.0165001 0.0143497 0.0118291 0.00893844 0.00567762 0.00245448 -0.000323156 -0.00265528 -0.0045419 -0.00598302 -0.00697862 -0.00752872 -0.00763331 -0.0074666 -0.00720276 -0.00684181 -0.00638375 -0.00582857 -0.00517627 -0.00442686 -0.00358034 -0.0027412 -0.00201394 -0.00139857 -0.000895084 -0.000503485 -0.000223771 -5.59428e-05 0 0 4.03764e-06 1.61506e-05 3.63388e-05 6.46022e-05 0.000100941 0.000145355 0.000197844 0.000258409 0.000260762 0.000138616 -0.000108028 -0.000479171 -0.000974813 -0.00159495 -0.00233959 -0.00320873 -0.00418541 -0.00525267 -0.00641051 -0.00765893 -0.00899794 -0.0104275 -0.0119477 -0.0135584 -0.0152002 -0.0168132 -0.0183976 -0.0199534 -0.0214805 -0.022979 -0.0244488 -0.02589 -0.027225 -0.0283764 -0.0293441 -0.0301282 -0.0307286 -0.0311454 -0.0313786 -0.0314281 -0.0312858 -0.0309433 -0.0304008 -0.0296581 -0.0287154 -0.0275726 -0.0262297 -0.0246866 -0.0231249 -0.021726 -0.0204899 -0.0194165 -0.0185059 -0.0177581 -0.017173 -0.0167507 -0.0163511 -0.0158338 -0.0151991 -0.0144468 -0.0135769 -0.0125895 -0.0114846 -0.0102621 -0.00871748 -0.00664614 -0.0040481 -0.000923333 0.00272815 0.00690634 0.0116113 0.0168429 0.022082 0.0268094 0.0310251 0.034729 0.0379212 0.0406017 0.0427705 0.0444275 0.0457428 0.0468864 0.0478582 0.0486582 0.0492865 0.049743 0.0500277 0.0501407 0.0500711 0.0498081 0.0493517 0.0487018 0.0478585 0.0468217 0.0455915 0.0441679 0.0424006 0.0401395 0.0373845 0.0341356 0.0303929 0.0261563 0.0214258 0.0162015 0.0110459 0.00652153 0.00262849 -0.000633252 -0.00326371 -0.00526287 -0.00663074 -0.00736733 -0.00769124 -0.00782112 -0.00775696 -0.00749875 -0.00704651 -0.00640023 -0.0055599 -0.00452554 -0.00346487 -0.00254562 -0.00176779 -0.00113138 -0.000636404 -0.000282846 -7.07115e-05 0 0 9.32678e-07 3.73071e-06 8.3941e-06 1.49228e-05 2.33169e-05 3.35764e-05 4.57012e-05 5.96914e-05 3.28187e-06 -0.000195792 -0.000537531 -0.00102194 -0.001649 -0.00241874 -0.00333113 -0.0043862 -0.00556018 -0.00682934 -0.00819368 -0.00965319 -0.0112079 -0.0128577 -0.0146028 -0.016443 -0.018321 -0.0201794 -0.0220181 -0.0238373 -0.0256368 -0.0274167 -0.029177 -0.0309177 -0.0325361 -0.0339298 -0.0350986 -0.0360426 -0.0367618 -0.0372563 -0.0375259 -0.0375707 -0.0373861 -0.0369675 -0.0363149 -0.0354283 -0.0343077 -0.0329531 -0.0313646 -0.029542 -0.0277052 -0.0260736 -0.0246475 -0.0234267 -0.0224112 -0.0216011 -0.0209963 -0.0205969 -0.0201826 -0.0195331 -0.0186485 -0.0175287 -0.0161737 -0.0145836 -0.0127584 -0.010698 -0.0081539 -0.00487764 -0.000869189 0.00387144 0.00934426 0.0155493 0.0224864 0.0301558 0.0378529 0.044873 0.0512163 0.0568828 0.0618724 0.0661851 0.069821 0.07278 0.0752384 0.0773722 0.0791816 0.0806665 0.0818269 0.0826627 0.0831741 0.083361 0.0832116 0.082714 0.0818682 0.0806742 0.079132 0.0772417 0.0750031 0.0724164 0.0693315 0.0655984 0.061217 0.0561874 0.0505096 0.0441836 0.0372093 0.0295868 0.0220669 0.0154007 0.00958798 0.00462889 0.000523375 -0.00272856 -0.00512691 -0.00667168 -0.00763273 -0.00827991 -0.00861323 -0.00863267 -0.00833826 -0.00772997 -0.00680782 -0.0055718 -0.00426591 -0.00313414 -0.00217649 -0.00139295 -0.000783535 -0.000348238 -8.70594e-05 0 0 -3.94686e-06 -1.57874e-05 -3.55217e-05 -6.31497e-05 -9.86714e-05 -0.000142087 -0.000193396 -0.000252599 -0.000387856 -0.000667328 -0.00109101 -0.00165892 -0.00237103 -0.00322737 -0.00422791 -0.00537267 -0.00662573 -0.00795115 -0.00934893 -0.0108191 -0.0123616 -0.0139765 -0.0156638 -0.0174234 -0.0192225 -0.0210283 -0.0228407 -0.0246598 -0.0264856 -0.028318 -0.030157 -0.0320027 -0.0337299 -0.0352134 -0.0364531 -0.0374492 -0.0382016 -0.0387102 -0.0389752 -0.0389964 -0.0387747 -0.0383108 -0.0376047 -0.0366563 -0.0354657 -0.0340329 -0.0323579 -0.0304406 -0.0285354 -0.0268966 -0.025524 -0.0244178 -0.023578 -0.0230044 -0.0226972 -0.0226563 -0.022544 -0.0220223 -0.0210914 -0.0197512 -0.0180018 -0.015843 -0.013275 -0.0102977 -0.0066159 -0.00193427 0.00374715 0.0104284 0.0181094 0.0267902 0.0364708 0.0471511 0.0578871 0.0677342 0.0766926 0.0847622 0.0919431 0.0982352 0.103639 0.108153 0.11197 0.11528 0.118084 0.120381 0.122171 0.123455 0.124232 0.124502 0.124254 0.123476 0.122168 0.12033 0.117962 0.115064 0.111636 0.107678 0.103032 0.0975386 0.0911986 0.0840118 0.0759782 0.0670979 0.0573707 0.0467969 0.0363603 0.027045 0.018851 0.0117784 0.00582712 0.000997158 -0.00271147 -0.00529877 -0.00709402 -0.00842647 -0.00929614 -0.00970302 -0.00964711 -0.00912842 -0.00814693 -0.00670266 -0.00513173 -0.00377025 -0.00261823 -0.00167567 -0.000942562 -0.000418916 -0.000104729 0 0 -1.0601e-05 -4.24038e-05 -9.54086e-05 -0.000169615 -0.000265024 -0.000381635 -0.000519447 -0.000678461 -0.000912651 -0.00127599 -0.00176848 -0.00239012 -0.0031409 -0.00402084 -0.00502993 -0.00616816 -0.00738205 -0.00861809 -0.00987628 -0.0111566 -0.0124591 -0.0137838 -0.0151306 -0.0164996 -0.0179047 -0.01936 -0.0208655 -0.0224211 -0.0240269 -0.0256828 -0.0273889 -0.0291452 -0.0308064 -0.0322272 -0.0334077 -0.0343479 -0.0350478 -0.0355074 -0.0357266 -0.0357055 -0.0354518 -0.0349734 -0.0342701 -0.0333421 -0.0321894 -0.0308118 -0.0292095 -0.0273824 -0.0256157 -0.0241948 -0.0231196 -0.02239 -0.0220062 -0.0219681 -0.0222757 -0.0229291 -0.0234353 -0.0233016 -0.022528 -0.0211145 -0.019061 -0.0163677 -0.0130345 -0.00906134 -0.00410347 0.00218395 0.00980091 0.0187474 0.0290235 0.040629 0.0535642 0.0678289 0.0821846 0.0953929 0.107454 0.118367 0.128133 0.136752 0.144223 0.150547 0.155938 0.16061 0.164565 0.167801 0.170319 0.172119 0.173201 0.173564 0.173199 0.172095 0.170253 0.167671 0.16435 0.16029 0.155491 0.149953 0.143501 0.13596 0.127329 0.117609 0.106799 0.0948992 0.0819102 0.0678318 0.0539259 0.0414545 0.0304176 0.0208153 0.0126475 0.00591428 0.000615567 -0.00324861 -0.00607511 -0.00826081 -0.0098057 -0.0107098 -0.0109731 -0.0105956 -0.00957724 -0.00791811 -0.00606231 -0.00445394 -0.00309301 -0.00197953 -0.00111348 -0.000494882 -0.000123721 0 0 -1.90296e-05 -7.61185e-05 -0.000171267 -0.000304474 -0.000475741 -0.000685067 -0.000932452 -0.0012179 -0.0015711 -0.00202178 -0.00256992 -0.00321553 -0.00395861 -0.00479916 -0.00573717 -0.00677266 -0.00782914 -0.00883016 -0.00977573 -0.0106658 -0.0115005 -0.0122797 -0.0130034 -0.0136716 -0.0143676 -0.0151745 -0.0160923 -0.017121 -0.0182607 -0.0195112 -0.0208727 -0.022345 -0.0237655 -0.0249713 -0.0259624 -0.0267388 -0.0273006 -0.0276477 -0.02778 -0.0276978 -0.0274173 -0.0269551 -0.0263113 -0.0254859 -0.0244787 -0.0232899 -0.0219194 -0.0203673 -0.0189461 -0.0179683 -0.0174341 -0.0173433 -0.017696 -0.0184922 -0.0197319 -0.0214151 -0.0228565 -0.0233708 -0.0229581 -0.0216183 -0.0193515 -0.0161577 -0.0120368 -0.00698881 -0.000616608 0.00747703 0.0172921 0.0288286 0.0420865 0.0570659 0.0737667 0.092189 0.110745 0.127849 0.1435 0.157698 0.170443 0.181735 0.191574 0.199961 0.207141 0.213362 0.218624 0.222927 0.226271 0.228656 0.230081 0.230548 0.230047 0.228571 0.22612 0.222695 0.218294 0.212918 0.206568 0.199242 0.19074 0.180863 0.169609 0.156978 0.142971 0.127588 0.110828 0.0926915 0.0747638 0.0586292 0.0442878 0.0317396 0.0209846 0.0120228 0.00485421 -0.000521176 -0.004576 -0.00778292 -0.0101419 -0.011653 -0.0123162 -0.0121314 -0.0110987 -0.00921816 -0.00705765 -0.00518522 -0.00360084 -0.00230454 -0.0012963 -0.000576135 -0.000144034 0 0 -2.92329e-05 -0.000116932 -0.000263096 -0.000467726 -0.000730822 -0.00105238 -0