<?xml version="1.0"?> 
<VTKFile type="StructuredGrid" version="0.1"> 
<StructuredGrid WholeExtent="0 128 0 128 0 0"> 
<Piece Extent="0 128 0 128 0 0"> 
<PointData>
<DataArray type="Float32" Name="u" format="ascii" NumberOfComponents="1"> 
0 0 0 0 0 0 0 0 0 0 0 0 0 0 0 0 0 0 0 0 0 0 0 0 0 0 0 0 0 0 0 0 0 0 0 0 0 0 0 0 0 0 0 0 0 0 0 0 0 0 0 0 0 0 0 0 0 0 0 0 0 0 0 0 0 0 0 0 0 0 0 0 0 0 0 0 0 0 0 0 0 0 0 0 0 0 0 0 0 0 0 0 0 0 0 0 0 0 0 0 0 0 0 0 0 0 0 0 0 0 0 0 0 0 0 0 0 0 0 0 0 0 0 0 0 0 0 0 0 0 2.92338e-09 1.16935e-08 2.63104e-08 4.67741e-08 7.30845e-08 1.05242e-07 1.43246e-07 1.87096e-07 2.25345e-08 -5.64699e-07 -1.5746e-06 -3.00718e-06 -4.86243e-06 -7.14035e-06 -9.84094e-06 -1.29642e-05 -1.65594e-05 -2.06759e-05 -2.53137e-05 -3.04727e-05 -3.6153e-05 -4.23546e-05 -4.90774e-05 -5.63215e-05 -6.37786e-05 -7.11404e-05 -7.8407e-05 -8.55784e-05 -9.26545e-05 -9.96353e-05 -0.000106521 -0.000113311 -0.000119585 -0.000124922 -0.00012932 -0.000132781 -0.000135305 -0.000136891 -0.000137539 -0.000137249 -0.000136141 -0.000134331 -0.000131822 -0.000128612 -0.000124701 -0.000120089 -0.000114777 -0.000108765 -0.00010265 -9.70308e-05 -9.19071e-05 -8.7279e-05 -8.31466e-05 -7.95098e-05 -7.63686e-05 -7.37231e-05 -7.17703e-05 -7.07073e-05 -7.05343e-05 -7.12511e-05 -7.28578e-05 -7.53544e-05 -7.87408e-05 -8.30171e-05 -8.80267e-05 -9.3613e-05 -9.9776e-05 -0.000106516 -0.000113832 -0.000121725 -0.000130194 -0.000139241 -0.000148637 -0.000158158 -0.000167802 -0.00017757 -0.000187461 -0.000197477 -0.000207616 -0.000217879 -0.000227571 -0.000235997 -0.000243158 -0.000249053 -0.000253683 -0.000257047 -0.000259145 -0.000259978 -0.000259565 -0.000257927 -0.000255063 -0.000250975 -0.000245661 -0.000239122 -0.000231357 -0.000222367 -0.000212778 -0.000203213 -0.000193674 -0.00018416 -0.000174671 -0.000165208 -0.000155769 -0.000146356 -0.000136986 -0.000127677 -0.00011843 -0.000109243 -0.000100118 -9.10537e-05 -8.20506e-05 -7.31087e-05 -6.44616e-05 -5.63431e-05 -4.87531e-05 -4.16917e-05 -3.51589e-05 -2.91546e-05 -2.36788e-05 -1.87316e-05 -1.43414e-05 -1.05365e-05 -7.31705e-06 -4.68291e-06 -2.63414e-06 -1.17073e-06 -2.92682e-07 0 0 1.16935e-08 4.67741e-08 1.05242e-07 1.87096e-07 2.92338e-07 4.20967e-07 5.72982e-07 7.48385e-07 9.01381e-08 -2.25879e-06 -6.29841e-06 -1.20287e-05 -1.94497e-05 -2.85614e-05 -3.93637e-05 -5.18568e-05 -6.62377e-05 -8.27037e-05 -0.000101255 -0.000121891 -0.000144612 -0.000169418 -0.00019631 -0.000225286 -0.000255114 -0.000284562 -0.000313628 -0.000342313 -0.000370618 -0.000398541 -0.000426084 -0.000453245 -0.000478341 -0.000499686 -0.000517281 -0.000531125 -0.000541219 -0.000547562 -0.000550155 -0.000548997 -0.000544562 -0.000537326 -0.000527287 -0.000514446 -0.000498803 -0.000480358 -0.00045911 -0.00043506 -0.0004106 -0.000388123 -0.000367628 -0.000349116 -0.000332586 -0.000318039 -0.000305474 -0.000294892 -0.000287081 -0.000282829 -0.000282137 -0.000285004 -0.000291431 -0.000301418 -0.000314963 -0.000332069 -0.000352107 -0.000374452 -0.000399104 -0.000426062 -0.000455327 -0.000486899 -0.000520778 -0.000556963 -0.000594549 -0.000632631 -0.000671207 -0.000710279 -0.000749845 -0.000789907 -0.000830464 -0.000871516 -0.000910284 -0.00094399 -0.000972633 -0.000996214 -0.00101473 -0.00102819 -0.00103658 -0.00103991 -0.00103826 -0.00103171 -0.00102025 -0.0010039 -0.000982643 -0.000956486 -0.000925429 -0.00088947 -0.000851111 -0.000812853 -0.000774696 -0.00073664 -0.000698685 -0.000660831 -0.000623077 -0.000585425 -0.000547945 -0.00051071 -0.000473719 -0.000436973 -0.000400472 -0.000364215 -0.000328203 -0.000292435 -0.000257847 -0.000225372 -0.000195013 -0.000166767 -0.000140636 -0.000116618 -9.47153e-05 -7.49266e-05 -5.73657e-05 -4.21462e-05 -2.92682e-05 -1.87316e-05 -1.05365e-05 -4.68291e-06 -1.17073e-06 0 0 2.63104e-08 1.05242e-07 2.36794e-07 4.20967e-07 6.5776e-07 9.47175e-07 1.28921e-06 1.68387e-06 2.02811e-07 -5.08229e-06 -1.41714e-05 -2.70646e-05 -4.37618e-05 -6.42631e-05 -8.85684e-05 -0.000116678 -0.000149035 -0.000186083 -0.000227823 -0.000274254 -0.000325377 -0.000381191 -0.000441696 -0.000506893 -0.000574007 -0.000640264 -0.000705663 -0.000770205 -0.00083389 -0.000896718 -0.000958689 -0.0010198 -0.00107627 -0.00112429 -0.00116388 -0.00119503 -0.00121774 -0.00123201 -0.00123785 -0.00123524 -0.00122527 -0.00120898 -0.0011864 -0.0011575 -0.00112231 -0.0010808 -0.001033 -0.000978885 -0.000923851 -0.000873277 -0.000827164 -0.000785511 -0.000748319 -0.000715588 -0.000687318 -0.000663508 -0.000645932 -0.000636366 -0.000634809 -0.00064126 -0.00065572 -0.000678189 -0.000708667 -0.000747154 -0.000792241 -0.000842517 -0.000897984 -0.00095864 -0.00102449 -0.00109552 -0.00117175 -0.00125317 -0.00133774 -0.00142342 -0.00151022 -0.00159813 -0.00168715 -0.00177729 -0.00186854 -0.00196091 -0.00204814 -0.00212398 -0.00218842 -0.00224148 -0.00228315 -0.00231342 -0.00233231 -0.0023398 -0.00233608 -0.00232134 -0.00229557 -0.00225877 -0.00221095 -0.00215209 -0.00208221 -0.00200131 -0.001915 -0.00182892 -0.00174307 -0.00165744 -0.00157204 -0.00148687 -0.00140192 -0.00131721 -0.00123288 -0.0011491 -0.00106587 -0.00098319 -0.000901061 -0.000819483 -0.000738456 -0.000657978 -0.000580155 -0.000507088 -0.000438778 -0.000375226 -0.00031643 -0.000262391 -0.000213109 -0.000168585 -0.000129073 -9.48289e-05 -6.58534e-05 -4.21462e-05 -2.37072e-05 -1.05365e-05 -2.63414e-06 0 0 4.67741e-08 1.87096e-07 4.20967e-07 7.48385e-07 1.16935e-06 1.68387e-06 2.29193e-06 2.99354e-06 3.60553e-07 -9.03518e-06 -2.51937e-05 -4.81149e-05 -7.77988e-05 -0.000114246 -0.000157455 -0.000207427 -0.000264951 -0.000330815 -0.000405019 -0.000487563 -0.000578448 -0.000677673 -0.000785238 -0.000901143 -0.00102046 -0.00113825 -0.00125451 -0.00136925 -0.00148247 -0.00159417 -0.00170434 -0.00181298 -0.00191336 -0.00199875 -0.00206912 -0.0021245 -0.00216488 -0.00219025 -0.00220062 -0.00219599 -0.00217825 -0.0021493 -0.00210915 -0.00205779 -0.00199521 -0.00192143 -0.00183644 -0.00174024 -0.0016424 -0.00155249 -0.00147051 -0.00139646 -0.00133035 -0.00127216 -0.0012219 -0.00117957 -0.00114832 -0.00113132 -0.00112855 -0.00114002 -0.00116572 -0.00120567 -0.00125985 -0.00132827 -0.00140843 -0.00149781 -0.00159642 -0.00170425 -0.00182131 -0.0019476 -0.00208311 -0.00222785 -0.0023782 -0.00253052 -0.00268483 -0.00284111 -0.00299938 -0.00315963 -0.00332186 -0.00348606 -0.00364114 -0.00377596 -0.00389053 -0.00398485 -0.00405893 -0.00411275 -0.00414632 -0.00415964 -0.00415304 -0.00412683 -0.00408101 -0.00401559 -0.00393057 -0.00382595 -0.00370171 -0.00355788 -0.00340444 -0.00325141 -0.00309879 -0.00294656 -0.00279474 -0.00264332 -0.00249231 -0.0023417 -0.00219178 -0.00204284 -0.00189488 -0.00174789 -0.00160189 -0.00145686 -0.00131281 -0.00116974 -0.00103139 -0.00090149 -0.00078005 -0.000667068 -0.000562542 -0.000466473 -0.000378861 -0.000299706 -0.000229463 -0.000168585 -0.000117073 -7.49266e-05 -4.21462e-05 -1.87316e-05 -4.68291e-06 0 0 7.30845e-08 2.92338e-07 6.5776e-07 1.16935e-06 1.82711e-06 2.63104e-06 3.58114e-06 4.67741e-06 5.63363e-07 -1.41175e-05 -3.93651e-05 -7.51795e-05 -0.000121561 -0.000178509 -0.000246023 -0.000324105 -0.000413986 -0.000516898 -0.000632842 -0.000761818 -0.000903825 -0.00105886 -0.00122693 -0.00140804 -0.00159446 -0.00177851 -0.00196018 -0.00213946 -0.00231636 -0.00249088 -0.00266302 -0.00283278 -0.00298963 -0.00312304 -0.00323301 -0.00331953 -0.00338262 -0.00342226 -0.00343847 -0.00343123 -0.00340352 -0.00335829 -0.00329555 -0.00321529 -0.00311752 -0.00300224 -0.00286944 -0.00271913 -0.00256625 -0.00242577 -0.00229768 -0.00218198 -0.00207866 -0.00198774 -0.00190922 -0.00184308 -0.00179426 -0.00176768 -0.00176336 -0.00178128 -0.00182145 -0.00188386 -0.00196852 -0.00207543 -0.00220067 -0.00234033 -0.0024944 -0.00266289 -0.0028458 -0.00304312 -0.00325486 -0.00348102 -0.00371593 -0.00395394 -0.00419504 -0.00443924 -0.00468653 -0.00493692 -0.0051904 -0.00544697 -0.00568928 -0.00589994 -0.00607896 -0.00622633 -0.00634207 -0.00642617 -0.00647863 -0.00649944 -0.00648912 -0.00644817 -0.00637658 -0.00627437 -0.00614152 -0.00597804 -0.00578393 -0.00555919 -0.00531944 -0.00508033 -0.00484185 -0.004604 -0.00436678 -0.00413019 -0.00389423 -0.00365891 -0.00342466 -0.00319194 -0.00296075 -0.00273108 -0.00250295 -0.00227634 -0.00205127 -0.00182772 -0.00161154 -0.00140858 -0.00121883 -0.00104229 -0.000878972 -0.000728864 -0.000591971 -0.000468291 -0.000358535 -0.000263414 -0.000182926 -0.000117073 -6.58534e-05 -2.92682e-05 -7.31705e-06 0 0 1.05242e-07 4.20967e-07 9.47175e-07 1.68387e-06 2.63104e-06 3.7887e-06 5.15684e-06 6.73546e-06 8.11243e-07 -2.03292e-05 -5.66857e-05 -0.000108258 -0.000175047 -0.000257052 -0.000354274 -0.000466711 -0.000596139 -0.000744333 -0.000911293 -0.00109702 -0.00130151 -0.00152476 -0.00176679 -0.00202757 -0.00229603 -0.00256105 -0.00282265 -0.00308082 -0.00333556 -0.00358687 -0.00383475 -0.00407921 -0.00430507 -0.00449718 -0.00465553 -0.00478013 -0.00487097 -0.00492806 -0.00495139 -0.00494097 -0.00490106 -0.00483593 -0.00474559 -0.00463002 -0.00448923 -0.00432322 -0.00413199 -0.00391554 -0.0036954 -0.00349311 -0.00330866 -0.00314204 -0.00299328 -0.00286235 -0.00274927 -0.00265403 -0.00258373 -0.00254546 -0.00253923 -0.00256504 -0.00262288 -0.00271276 -0.00283467 -0.00298862 -0.00316896 -0.00337007 -0.00359193 -0.00383456 -0.00409795 -0.00438209 -0.004687 -0.00501267 -0.00535094 -0.00569368 -0.00604086 -0.00639251 -0.00674861 -0.00710916 -0.00747417 -0.00784364 -0.00819256 -0.00849591 -0.0087537 -0.00896592 -0.00913258 -0.00925368 -0.00932922 -0.00935919 -0.00934433 -0.00928536 -0.00918228 -0.00903509 -0.00884379 -0.00860838 -0.00832886 -0.00800523 -0.00766 -0.00731568 -0.00697227 -0.00662976 -0.00628817 -0.00594748 -0.0056077 -0.00526882 -0.00493151 -0.00459639 -0.00426347 -0.00393276 -0.00360425 -0.00327793 -0.00295382 -0.00263191 -0.00232062 -0.00202835 -0.00175511 -0.0015009 -0.00126572 -0.00104956 -0.000852438 -0.000674339 -0.000516291 -0.000379316 -0.000263414 -0.000168585 -9.48289e-05 -4.21462e-05 -1.05365e-05 0 0 1.43246e-07 5.72982e-07 1.28921e-06 2.29193e-06 3.58114e-06 5.15684e-06 7.01903e-06 9.16772e-06 1.10419e-06 -2.76702e-05 -7.71556e-05 -0.000147352 -0.000238259 -0.000349877 -0.000482206 -0.000635246 -0.000811412 -0.00101312 -0.00124037 -0.00149316 -0.0017715 -0.00207537 -0.00240479 -0.00275975 -0.00312515 -0.00348588 -0.00384194 -0.00419334 -0.00454007 -0.00488213 -0.00521953 -0.00555226 -0.00585968 -0.00612116 -0.00633669 -0.00650628 -0.00662993 -0.00670763 -0.00673939 -0.00672521 -0.00667089 -0.00658224 -0.00645927 -0.00630197 -0.00611034 -0.00588438 -0.0056241 -0.00532949 -0.00502985 -0.00475451 -0.00450345 -0.00427667 -0.00407418 -0.00389598 -0.00374206 -0.00361243 -0.00351674 -0.00346466 -0.00345618 -0.0034913 -0.00357003 -0.00369236 -0.0038583 -0.00406784 -0.00431331 -0.00458704 -0.00488902 -0.00521926 -0.00557776 -0.00596452 -0.00637953 -0.0068228 -0.00728323 -0.00774972 -0.00822229 -0.00870091 -0.0091856 -0.00967636 -0.0101732 -0.0106761 -0.011151 -0.0115639 -0.0119148 -0.0122036 -0.0124305 -0.0125953 -0.0126981 -0.0127389 -0.0127187 -0.0126384 -0.0124981 -0.0122978 -0.0120374 -0.011717 -0.0113365 -0.010896 -0.0104261 -0.00995745 -0.00949003 -0.00902384 -0.00855889 -0.00809518 -0.0076327 -0.00717145 -0.00671233 -0.0062562 -0.00580306 -0.00535292 -0.00490578 -0.00446163 -0.00402048 -0.00358233 -0.00315862 -0.00276081 -0.0023889 -0.00204289 -0.00172278 -0.00142857 -0.00116026 -0.000917851 -0.000702729 -0.000516291 -0.000358535 -0.000229463 -0.000129073 -5.73657e-05 -1.43414e-05 0 0 1.87096e-07 7.48385e-07 1.68387e-06 2.99354e-06 4.67741e-06 6.73546e-06 9.16772e-06 1.19742e-05 1.44221e-06 -3.61407e-05 -0.000100775 -0.000192459 -0.000311195 -0.000456982 -0.00062982 -0.000829709 -0.0010598 -0.00132326 -0.00162008 -0.00195025 -0.00231379 -0.00271069 -0.00314095 -0.00360457 -0.00408183 -0.00455299 -0.00501805 -0.00547702 -0.00592989 -0.00637666 -0.00681734 -0.00725193 -0.00765346 -0.00799498 -0.0082765 -0.008498 -0.0086595 -0.00876099 -0.00880247 -0.00878395 -0.008713 -0.00859722 -0.0084366 -0.00823114 -0.00798085 -0.00768572 -0.00734576 -0.00696096 -0.00656961 -0.00620997 -0.00588205 -0.00558586 -0.00532138 -0.00508863 -0.00488759 -0.00471828 -0.0045933 -0.00452527 -0.00451419 -0.00456007 -0.0046629 -0.00482268 -0.00503941 -0.0053131 -0.00563371 -0.00599123 -0.00638566 -0.006817 -0.00728524 -0.00779039 -0.00833245 -0.00891141 -0.00951279 -0.0101221 -0.0107393 -0.0113645 -0.0119975 -0.0126385 -0.0132874 -0.0139443 -0.0145645 -0.0151038 -0.0155621 -0.0159394 -0.0162357 -0.016451 -0.0165853 -0.0166386 -0.0166121 -0.0165073 -0.016324 -0.0160624 -0.0157223 -0.0153038 -0.0148069 -0.0142315 -0.0136178 -0.0130057 -0.0123951 -0.0117862 -0.011179 -0.0105733 -0.00996924 -0.0093668 -0.00876712 -0.00817136 -0.00757951 -0.00699157 -0.00640755 -0.00582744 -0.00525124 -0.00467896 -0.00412554 -0.00360596 -0.0031202 -0.00266827 -0.00225017 -0.00186589 -0.00151545 -0.00119883 -0.000917851 -0.000674339 -0.000468291 -0.000299706 -0.000168585 -7.49266e-05 -1.87316e-05 0 0 -6.70335e-08 -2.68134e-07 -6.03302e-07 -1.07254e-06 -1.67584e-06 -2.41321e-06 -3.28464e-06 -4.29015e-06 -2.2257e-05 -7.40125e-05 -0.000159557 -0.000278889 -0.000432011 -0.00061892 -0.000839619 -0.00109411 -0.00138607 -0.00171918 -0.00209345 -0.00250888 -0.00296546 -0.0034632 -0.00400209 -0.00458214 -0.00517897 -0.00576822 -0.00634988 -0.00692395 -0.00749043 -0.00804933 -0.00860064 -0.00914436 -0.00964668 -0.0100738 -0.0104257 -0.0107023 -0.0109038 -0.01103 -0.0110811 -0.0110569 -0.0109673 -0.0108221 -0.0106214 -0.0103651 -0.0100531 -0.00968565 -0.00926258 -0.00878392 -0.00829732 -0.00785044 -0.00744327 -0.0070758 -0.00674805 -0.00646001 -0.00621168 -0.00600306 -0.00584699 -0.00575628 -0.00573094 -0.00577097 -0.00587638 -0.00604715 -0.00628329 -0.0065848 -0.00693681 -0.00732443 -0.00774766 -0.00820651 -0.00870097 -0.00923104 -0.00979673 -0.010398 -0.0110221 -0.011656 -0.0122999 -0.0129536 -0.0136172 -0.0142907 -0.0149741 -0.0156674 -0.016323 -0.0168936 -0.017379 -0.0177793 -0.0180945 -0.0183246 -0.0184696 -0.0185294 -0.0185055 -0.0183992 -0.0182104 -0.0179392 -0.0175855 -0.0171494 -0.0166309 -0.0160299 -0.0153885 -0.0147486 -0.0141103 -0.0134735 -0.0128382 -0.0122045 -0.0115723 -0.0109417 -0.010309 -0.00967072 -0.0090268 -0.00837727 -0.00772212 -0.00706135 -0.00639495 -0.00572294 -0.00506667 -0.00444752 -0.00386546 -0.00332052 -0.00281269 -0.00234196 -0.00190834 -0.00151183 -0.00115749 -0.000850403 -0.000590558 -0.000377957 -0.000212601 -9.44893e-05 -2.36223e-05 0 0 -9.22971e-07 -3.69188e-06 -8.30674e-06 -1.47675e-05 -2.30743e-05 -3.3227e-05 -4.52256e-05 -5.90701e-05 -9.40757e-05 -0.000169557 -0.000285515 -0.000441949 -0.000638858 -0.000876244 -0.00115411 -0.00147244 -0.00183495 -0.00224532 -0.00270354 -0.00320962 -0.00376357 -0.00436537 -0.00501503 -0.00571256 -0.0064295 -0.00713743 -0.00783634 -0.00852624 -0.00920712 -0.00987899 -0.0105418 -0.0111957 -0.0117996 -0.0123127 -0.0127349 -0.0130664 -0.013307 -0.0134567 -0.0135156 -0.0134837 -0.0133737 -0.0131983 -0.0129575 -0.0126513 -0.0122796 -0.0118426 -0.0113401 -0.0107723 -0.0101957 -0.00966686 -0.00918587 -0.00875271 -0.00836737 -0.00802985 -0.00774016 -0.00749829 -0.00731141 -0.00718667 -0.00712408 -0.00712364 -0.00718535 -0.00730921 -0.00749522 -0.00774337 -0.00802924 -0.00832839 -0.00864083 -0.00896654 -0.00930553 -0.00965781 -0.0100234 -0.0104022 -0.0107936 -0.0111968 -0.0116119 -0.0120388 -0.0124775 -0.012928 -0.0133904 -0.0138646 -0.0143162 -0.0147109 -0.0150486 -0.0153294 -0.0155532 -0.01572 -0.0158299 -0.0158828 -0.0158796 -0.0158211 -0.0157073 -0.0155383 -0.0153139 -0.0150343 -0.0146994 -0.0143092 -0.0138916 -0.0134746 -0.013058 -0.012642 -0.0122265 -0.0118114 -0.0113969 -0.0109829 -0.0105511 -0.0100831 -0.00957893 -0.00903858 -0.00846205 -0.00784935 -0.00720047 -0.00651542 -0.00582729 -0.0051692 -0.00454115 -0.00394313 -0.00337515 -0.00283721 -0.0023293 -0.00185142 -0.0014175 -0.00104143 -0.000723213 -0.000462856 -0.000260357 -0.000115714 -2.89285e-05 0 0 -2.38072e-06 -9.52286e-06 -2.14264e-05 -3.80915e-05 -5.95179e-05 -8.57058e-05 -0.000116655 -0.000152366 -0.000214014 -0.000322775 -0.00047865 -0.000681638 -0.000931739 -0.00122895 -0.00157328 -0.00196472 -0.00240646 -0.00290166 -0.00345034 -0.00405249 -0.00470811 -0.00541721 -0.00617978 -0.00699582 -0.0078334 -0.00866061 -0.00947744 -0.0102839 -0.01108 -0.0118657 -0.012641 -0.0134059 -0.0141122 -0.0147117 -0.0152043 -0.0155901 -0.015869 -0.016041 -0.0161062 -0.0160645 -0.0159323 -0.0157257 -0.0154449 -0.0150897 -0.0146603 -0.0141565 -0.0135785 -0.0129261 -0.0122647 -0.0116592 -0.0111099 -0.0106166 -0.0101793 -0.00979815 -0.00947302 -0.00920395 -0.00898655 -0.00881644 -0.00869362 -0.00861808 -0.00858983 -0.00860887 -0.00867519 -0.00878881 -0.00891102 -0.00900313 -0.00906516 -0.00909709 -0.00909894 -0.00907069 -0.00901234 -0.00892391 -0.0088273 -0.00874444 -0.00867532 -0.00861995 -0.00857832 -0.00855044 -0.0085363 -0.0085359 -0.00854411 -0.00855579 -0.00857093 -0.00858954 -0.00861162 -0.00863716 -0.00866616 -0.00869863 -0.00873436 -0.00877312 -0.00881493 -0.00885977 -0.00890765 -0.00895857 -0.00901253 -0.00906953 -0.00912731 -0.00918362 -0.00923846 -0.00929183 -0.00934372 -0.00939414 -0.00944309 -0.00949057 -0.00949343 -0.00940854 -0.0092359 -0.0089755 -0.00862735 -0.00819145 -0.00766779 -0.00705638 -0.0064074 -0.00577102 -0.00514726 -0.00453611 -0.00393757 -0.00335164 -0.00277832 -0.00221761 -0.00169786 -0.00124741 -0.000866255 -0.000554403 -0.000311852 -0.000138601 -3.46502e-05 0 0 -4.44027e-06 -1.77611e-05 -3.99624e-05 -7.10443e-05 -0.000111007 -0.00015985 -0.000217573 -0.000284177 -0.000382072 -0.000533666 -0.000738961 -0.000997957 -0.00131065 -0.00167705 -0.00209714 -0.00257094 -0.00310059 -0.00368822 -0.00433386 -0.00503748 -0.0057991 -0.00661872 -0.00749633 -0.00843193 -0.00939069 -0.0103378 -0.0112732 -0.0121969 -0.013109 -0.0140093 -0.014898 -0.015775 -0.0165846 -0.0172708 -0.0178338 -0.0182734 -0.0185898 -0.0187829 -0.0188527 -0.0187992 -0.0186429 -0.0184044 -0.0180835 -0.0176805 -0.0171951 -0.0166275 -0.0159775 -0.0152454 -0.0145043 -0.0138276 -0.0132153 -0.0126674 -0.012184 -0.0117649 -0.0114103 -0.0111201 -0.0108724 -0.0106456 -0.0104396 -0.0102543 -0.0100898 -0.00994612 -0.00982322 -0.0097211 -0.00958213 -0.00934864 -0.00902066 -0.00859817 -0.00808117 -0.00746967 -0.00676367 -0.00596316 -0.00512322 -0.00429891 -0.00349023 -0.00269718 -0.00191977 -0.00115799 -0.000411841 0.000318674 0.000993291 0.00157175 0.00205404 0.00244017 0.00273013 0.00292394 0.00302158 0.00302306 0.00293019 0.00274479 0.00246685 0.00209639 0.00163339 0.00107785 0.000429789 -0.00031081 -0.00109547 -0.00187572 -0.00265155 -0.00342298 -0.00418999 -0.0049526 -0.00571079 -0.00646457 -0.00713597 -0.00764701 -0.0079977 -0.00818803 -0.00821801 -0.00808764 -0.00779691 -0.00734583 -0.00680699 -0.00625298 -0.0056838 -0.00509945 -0.00449994 -0.00388526 -0.00325541 -0.0026104 -0.00199858 -0.00146835 -0.00101969 -0.000652599 -0.000367087 -0.00016315 -4.07874e-05 0 0 -7.10163e-06 -2.84065e-05 -6.39147e-05 -0.000113626 -0.000177541 -0.000255659 -0.00034798 -0.000454504 -0.000598249 -0.000802231 -0.00106645 -0.00139091 -0.0017756 -0.00222053 -0.0027257 -0.0032911 -0.00391734 -0.004605 -0.00535408 -0.00616459 -0.00703653 -0.00796989 -0.00896468 -0.0100209 -0.0111014 -0.0121689 -0.0132235 -0.0142653 -0.0152941 -0.01631 -0.017313 -0.0183031 -0.0192166 -0.01999 -0.0206233 -0.0211165 -0.0214695 -0.0216824 -0.0217551 -0.0216878 -0.0215057 -0.0212343 -0.0208735 -0.0204235 -0.0198841 -0.0192554 -0.0185374 -0.01773 -0.0169145 -0.0161718 -0.0155021 -0.0149052 -0.0143812 -0.0139301 -0.0135519 -0.0132466 -0.012969 -0.0126741 -0.0123619 -0.0120323 -0.0116853 -0.011321 -0.0109393 -0.0105403 -0.0100426 -0.00936493 -0.00850733 -0.00746977 -0.00625225 -0.00485478 -0.00327735 -0.00151996 0.000318661 0.00213979 0.00394342 0.00572955 0.00749819 0.00924934 0.010983 0.0126991 0.014296 0.0156717 0.0168263 0.0177598 0.0184721 0.0189633 0.0192333 0.0192823 0.019114 0.0187326 0.018138 0.0173302 0.0163092 0.015075 0.0136275 0.0119669 0.0102039 0.00844914 0.00670269 0.00496456 0.00323472 0.0015132 -0.000200024 -0.00190494 -0.00347872 -0.00479851 -0.00586433 -0.00667618 -0.00723404 -0.00753793 -0.00758784 -0.00738377 -0.00702606 -0.00661506 -0.00615076 -0.00563316 -0.00506226 -0.00443806 -0.00376057 -0.00302977 -0.00231967 -0.00170425 -0.0011835 -0.000757443 -0.000426062 -0.000189361 -4.73402e-05 0 0 -1.03648e-05 -4.14592e-05 -9.32832e-05 -0.000165837 -0.00025912 -0.000373133 -0.000507875 -0.000663347 -0.000862546 -0.00112847 -0.00146111 -0.00186048 -0.00232658 -0.00285939 -0.00345894 -0.0041252 -0.00485671 -0.00565198 -0.00651102 -0.00743383 -0.0084204 -0.00947073 -0.0105848 -0.0117627 -0.0129654 -0.014154 -0.0153286 -0.016489 -0.0176354 -0.0187677 -0.0198859 -0.02099 -0.0220084 -0.0228694 -0.023573 -0.0241192 -0.024508 -0.0247395 -0.0248136 -0.0247303 -0.0245205 -0.0242154 -0.0238148 -0.0233187 -0.0227273 -0.0220403 -0.021258 -0.0203802 -0.0194954 -0.0186921 -0.0179703 -0.01733 -0.0167711 -0.0162938 -0.0158979 -0.0155836 -0.0152764 -0.0149021 -0.0144606 -0.013952 -0.0133763 -0.0127334 -0.0120234 -0.0112463 -0.0102924 -0.00905198 -0.00752516 -0.00571189 -0.00361216 -0.00122599 0.00144663 0.0044057 0.00749834 0.0105716 0.0136256 0.0166603 0.0196756 0.0226715 0.0256482 0.0286055 0.031364 0.0337441 0.0357458 0.0373692 0.0386142 0.0394808 0.0399691 0.040079 0.0398172 0.0391904 0.0381985 0.0368416 0.0351197 0.0330327 0.0305807 0.0277637 0.0247708 0.0217909 0.0188243 0.0158708 0.0129304 0.0100032 0.0070892 0.00418832 0.00147832 -0.000863054 -0.0028358 -0.00443993 -0.00567543 -0.00654231 -0.00704057 -0.0071702 -0.00706463 -0.00685728 -0.00654814 -0.00613723 -0.00562453 -0.00501005 -0.00429379 -0.00347574 -0.00266111 -0.0019551 -0.00135771 -0.000868935 -0.000488776 -0.000217234 -5.43085e-05 0 0 -1.42298e-05 -5.69191e-05 -0.000128068 -0.000227676 -0.000355744 -0.000512272 -0.000697259 -0.000910705 -0.00117496 -0.00151238 -0.00192296 -0.00240669 -0.00296359 -0.00359365 -0.00429686 -0.00507324 -0.00591871 -0.00682918 -0.00780468 -0.00884518 -0.0099507 -0.0111212 -0.0123568 -0.0136573 -0.0149828 -0.0162931 -0.0175882 -0.0188681 -0.0201328 -0.0213823 -0.0226167 -0.0238358 -0.0249598 -0.0259088 -0.0266827 -0.0272816 -0.0277054 -0.0279542 -0.028028 -0.0279267 -0.0276875 -0.0273478 -0.0269073 -0.0263663 -0.0257246 -0.0249823 -0.0241393 -0.0231957 -0.0222469 -0.0213883 -0.0206199 -0.0199417 -0.0193537 -0.0188559 -0.0184484 -0.018131 -0.0177945 -0.0173294 -0.0167357 -0.0160135 -0.0151628 -0.0141835 -0.0130756 -0.0118392 -0.0103315 -0.00840981 -0.00607416 -0.00332453 -0.000160912 0.00341669 0.00740826 0.0118138 0.0164158 0.0209966 0.0255564 0.0300949 0.0346123 0.0391086 0.0435838 0.0480378 0.0521973 0.0557889 0.0588127 0.0612685 0.0631565 0.0644767 0.0652289 0.0654133 0.0650397 0.0641181 0.0626484 0.0606307 0.058065 0.0549512 0.0512894 0.0470795 0.0426051 0.0381497 0.0337132 0.0292957 0.0248971 0.0205175 0.0161569 0.0118152 0.00773514 0.00415937 0.00108789 -0.0014793 -0.00354219 -0.00510079 -0.0061551 -0.00670512 -0.00692268 -0.00697963 -0.00687595 -0.00661166 -0.00618675 -0.00560122 -0.00485507 -0.0039483 -0.00302292 -0.00222092 -0.00154231 -0.000987076 -0.00055523 -0.000246769 -6.16923e-05 0 0 -1.86966e-05 -7.47862e-05 -0.000168269 -0.000299145 -0.000467414 -0.000673076 -0.000916131 -0.00119658 -0.0015355 -0.00195396 -0.00245197 -0.00302953 -0.00368663 -0.00442328 -0.00523948 -0.00613522 -0.00710332 -0.0081366 -0.00923504 -0.0103987 -0.0116274 -0.0129214 -0.0142805 -0.0157048 -0.0171536 -0.0185862 -0.0200025 -0.0214025 -0.0227864 -0.024154 -0.0255054 -0.0268405 -0.028071 -0.0291083 -0.0299526 -0.0306037 -0.0310617 -0.0313266 -0.0313983 -0.031277 -0.0310066 -0.0306314 -0.0301512 -0.0295661 -0.0288761 -0.0280812 -0.0271814 -0.0261767 -0.025169 -0.0242604 -0.0234509 -0.0227404 -0.0221289 -0.0216165 -0.0212031 -0.0208888 -0.0205233 -0.0199561 -0.0191872 -0.0182168 -0.0170448 -0.0156711 -0.0140958 -0.0123189 -0.0101599 -0.00743841 -0.00415433 -0.00030769 0.0041015 0.00907325 0.0146075 0.0207044 0.0270711 0.0334148 0.0397356 0.0460336 0.0523085 0.0585606 0.0647897 0.070996 0.0767959 0.0818062 0.0860268 0.0894578 0.0920991 0.0939507 0.0950127 0.0952851 0.0947815 0.0935157 0.0914877 0.0886974 0.085145 0.0808303 0.0757534 0.0699144 0.063707 0.0575254 0.0513695 0.0452393 0.0391348 0.0330561 0.027003 0.0209757 0.0152917 0.0102688 0.00590675 0.00220573 -0.00083431 -0.00321337 -0.00493144 -0.00598853 -0.00660022 -0.00698211 -0.00713419 -0.00705646 -0.00674892 -0.00621157 -0.00544442 -0.00444746 -0.00340509 -0.0025017 -0.00173729 -0.00111187 -0.000625424 -0.000277966 -6.94916e-05 0 0 -2.3642e-05 -9.45679e-05 -0.000212778 -0.000378271 -0.000591049 -0.000851111 -0.00115846 -0.00151309 -0.00193162 -0.00243069 -0.00301028 -0.00367041 -0.00441106 -0.00523225 -0.00613396 -0.0071162 -0.00816573 -0.00926929 -0.0104269 -0.0116385 -0.0129042 -0.0142239 -0.0155977 -0.0170255 -0.0184713 -0.0198993 -0.0213093 -0.0227013 -0.0240754 -0.0254316 -0.0267699 -0.0280902 -0.0293041 -0.030323 -0.0311468 -0.0317757 -0.0322095 -0.0324484 -0.0324922 -0.0323411 -0.0320468 -0.0316616 -0.0311852 -0.0306178 -0.0299593 -0.0292097 -0.0283691 -0.0274374 -0.026513 -0.0256944 -0.0249816 -0.0243746 -0.0238733 -0.0234777 -0.0231879 -0.0230039 -0.0227223 -0.0221397 -0.0212561 -0.0200715 -0.0185859 -0.0167992 -0.0147116 -0.012323 -0.00941255 -0.00575926 -0.00136319 0.00377568 0.00965734 0.0162818 0.023649 0.0317591 0.0402209 0.0486435 0.0570268 0.065371 0.0736759 0.0819416 0.090168 0.0983553 0.106003 0.112612 0.118181 0.122712 0.126203 0.128654 0.130067 0.13044 0.129792 0.128141 0.125488 0.121832 0.117174 0.111513 0.104849 0.0971822 0.0890231 0.0808815 0.0727576 0.0646513 0.0565625 0.0484913 0.0404378 0.0324018 0.0247966 0.0180353 0.0121179 0.00704436 0.00281476 -0.000570928 -0.00311272 -0.0048106 -0.00592932 -0.00673365 -0.00722357 -0.00739909 -0.00726021 -0.00680693 -0.00603924 -0.00495716 -0.00379532 -0.0027884 -0.00193639 -0.00123929 -0.0006971 -0.000309822 -7.74556e-05 0 0 -2.89428e-05 -0.000115771 -0.000260485 -0.000463085 -0.000723571 -0.00104194 -0.0014182 -0.00185234 -0.0023508 -0.00292003 -0.00356 -0.00427074 -0.00505223 -0.00590447 -0.00682748 -0.00782124 -0.00886108 -0.00992234 -0.011005 -0.0121091 -0.0132346 -0.0143815 -0.0155498 -0.0167396 -0.0179295 -0.0190985 -0.0202464 -0.0213734 -0.0224793 -0.0235642 -0.0246282 -0.0256711 -0.0266215 -0.0274077 -0.0280299 -0.0284879 -0.0287817 -0.0289115 -0.0288772 -0.0286787 -0.0283772 -0.0280337 -0.0276483 -0.027221 -0.0267517 -0.0262405 -0.0256873 -0.0250922 -0.0245302 -0.0240763 -0.0237305 -0.0234928 -0.0233632 -0.0233417 -0.0234283 -0.0236231 -0.0236511 -0.0232378 -0.0223832 -0.0210871 -0.0193497 -0.0171708 -0.0145506 -0.011489 -0.00772409 -0.00299384 0.00270174 0.00936263 0.0169888 0.0255804 0.0351372 0.0456594 0.0566219 0.0674999 0.0782932 0.0890019 0.0996261 0.110166 0.120621 0.130991 0.140663 0.149023 0.15607 0.161805 0.166228 0.169339 0.171137 0.171623 0.170821 0.168754 0.165422 0.160826 0.154966 0.147841 0.139451 0.129797 0.1195 0.109182 0.098842 0.0884812 0.0780992 0.0676958 0.0572713 0.0468255 0.0368981 0.0280291 0.0202183 0.0134658 0.0077716 0.00313563 -0.000442068 -0.0029615 -0.00474206 -0.00610318 -0.00704484 -0.00756705 -0.0076698 -0.0073531 -0.00661695 -0.00546134 -0.00418134 -0.003072 -0.00213334 -0.00136533 -0.000768001 -0.000341334 -8.53334e-05 0 0 -3.45991e-05 -0.000138397 -0.000311392 -0.000553586 -0.000864979 -0.00124557 -0.00169536 -0.00221435 -0.00279305 -0.00342197 -0.00410113 -0.00483051 -0.00561012 -0.00643996 -0.00732003 -0.00825033 -0.00918939 -0.0100957 -0.0109694 -0.0118103 -0.0126186 -0.0133941 -0.014137 -0.0148471 -0.0155282 -0.0161838 -0.016814 -0.0174187 -0.017998 -0.0185518 -0.0190802 -0.0195831 -0.0200231 -0.0203626 -0.0206016 -0.0207402 -0.0207783 -0.020716 -0.0205531 -0.0202898 -0.0199976 -0.0197478 -0.0195404 -0.0193756 -0.0192533 -0.0191734 -0.019136 -0.0191411 -0.0192205 -0.019406 -0.0196975 -0.0200951 -0.0205988 -0.0212085 -0.0219243 -0.0227462 -0.0233097 -0.0232505 -0.0225685 -0.0212637 -0.0193362 -0.0167859 -0.0136128 -0.0098169 -0.00509458 0.000857866 0.00804045 0.0164532 0.026096 0.036969 0.0490722 0.0624054 0.0762743 0.089984 0.103535 0.116927 0.130159 0.143233 0.156147 0.168903 0.180775 0.191038 0.199692 0.206738 0.212175 0.216004 0.218223 0.218834 0.217867 0.215352 0.21129 0.205679 0.198521 0.189815 0.179561 0.167759 0.155138 0.142426 0.129623 0.116729 0.103745 0.0906696 0.0775035 0.0642467 0.0515964 0.0402503 0.0302082 0.0214701 0.0140362 0.00790631 0.0030805 -0.000441228 -0.00303844 -0.0050907 -0.00659799 -0.00756032 -0.00797768 -0.00785009 -0.00717753 -0.00596001 -0.00456313 -0.0033525 -0.00232813 -0.00149 -0.000838126 -0.0003725 -9.31251e-05 0 0 -4.06109e-05 -0.000162444 -0.000365498 -0.000649774 -0.00101527 -0.00146199 -0.00198993 -0.0025991 -0.00325834 -0.00393653 -0.00463367 -0.00534974 -0.00608476 -0.00683872 -0.00761163 -0.00840347 -0.00915064 -0.00978949 -0.01032 -0.0107423 -0.0110562 -0.0112618 -0.0113591 -0.0113481 -0.0112673 -0.0111552 -0.0110119 -0.0108373 -0.0106315 -0.0103943 -0.0101259 -0.00982626 -0.00950894 -0.00918758 -0.00886218 -0.00853274 -0.00819926 -0.00786174 -0.00752018 -0.00717458 -0.00690806 -0.00680374 -0.00686163 -0.00708173 -0.00746402 -0.00800852 -0.00871523 -0.00958414 -0.010584 -0.0116835 -0.0128826 -0.0141815 -0.01558 -0.0170781 -0.0186759 -0.0203734 -0.0216981 -0.0221777 -0.0218121 -0.0206013 -0.0185454 -0.0156443 -0.0118981 -0.00730664 -0.00152402 0.00579584 0.014653 0.0250473 0.0369789 0.0504477 0.0654538 0.0819972 0.0991778 0.116096 0.132752 0.149145 0.165275 0.181143 0.196749 0.212092 0.226339 0.238658 0.249049 0.257511 0.264044 0.268649 0.271326 0.272074 0.270932 0.267938 0.26309 0.256391 0.247839 0.237434 0.225177 0.211067 0.195936 0.180613 0.1651 0.149395 0.133499 0.117413 0.101135 0.0846654 0.0688914 0.0546987 0.0420873 0.0310573 0.0216085 0.0137411 0.007455 0.00275021 -0.000818461 -0.0036962 -0.00588302 -0.0073789 -0.00818386 -0.00829789 -0.00772099 -0.00645316 -0.00