<?xml version="1.0"?> 
<VTKFile type="StructuredGrid" version="0.1"> 
<StructuredGrid WholeExtent="0 128 0 128 0 0"> 
<Piece Extent="0 128 0 128 0 0"> 
<PointData>
<DataArray type="Float32" Name="u" format="ascii" NumberOfComponents="1"> 
0 0 0 0 0 0 0 0 0 0 0 0 0 0 0 0 0 0 0 0 0 0 0 0 0 0 0 0 0 0 0 0 0 0 0 0 0 0 0 0 0 0 0 0 0 0 0 0 0 0 0 0 0 0 0 0 0 0 0 0 0 0 0 0 0 0 0 0 0 0 0 0 0 0 0 0 0 0 0 0 0 0 0 0 0 0 0 0 0 0 0 0 0 0 0 0 0 0 0 0 0 0 0 0 0 0 0 0 0 0 0 0 0 0 0 0 0 0 0 0 0 0 0 0 0 0 0 0 0 0 -2.05699e-08 -8.22796e-08 -1.85129e-07 -3.29118e-07 -5.14248e-07 -7.40517e-07 -1.00793e-06 -1.31647e-06 -1.84843e-06 -2.78606e-06 -4.12936e-06 -5.87834e-06 -8.03299e-06 -1.05933e-05 -1.35593e-05 -1.6931e-05 -2.07587e-05 -2.50928e-05 -2.99333e-05 -3.52802e-05 -4.11336e-05 -4.74933e-05 -5.43594e-05 -6.17319e-05 -6.93096e-05 -7.67911e-05 -8.41765e-05 -9.14658e-05 -9.8659e-05 -0.000105756 -0.000112757 -0.000119662 -0.000126048 -0.000131493 -0.000135997 -0.00013956 -0.000142182 -0.000143862 -0.000144602 -0.0001444 -0.000143374 -0.000141641 -0.000139201 -0.000136053 -0.000132198 -0.000127635 -0.000122366 -0.000116389 -0.000110268 -0.000104567 -9.92867e-05 -9.44262e-05 -8.99858e-05 -8.59654e-05 -8.23651e-05 -7.91848e-05 -7.66202e-05 -7.48666e-05 -7.39241e-05 -7.37927e-05 -7.44724e-05 -7.59632e-05 -7.8265e-05 -8.1378e-05 -8.50402e-05 -8.89899e-05 -9.3227e-05 -9.77516e-05 -0.000102564 -0.000107663 -0.00011305 -0.000118724 -0.000124503 -0.000130202 -0.000135822 -0.000141362 -0.000146823 -0.000152204 -0.000157506 -0.000162729 -0.000167615 -0.000171907 -0.000175604 -0.000178707 -0.000181216 -0.000183131 -0.000184451 -0.000185177 -0.000185297 -0.000184798 -0.000183682 -0.000181947 -0.000179595 -0.000176624 -0.000173035 -0.000168828 -0.000164192 -0.000159319 -0.000154206 -0.000148855 -0.000143265 -0.000137437 -0.000131371 -0.000125065 -0.000118536 -0.000111799 -0.000104852 -9.76971e-05 -9.03332e-05 -8.27606e-05 -7.49792e-05 -6.69891e-05 -5.91301e-05 -5.17421e-05 -4.48251e-05 -3.83792e-05 -3.24043e-05 -2.69003e-05 -2.18674e-05 -1.73055e-05 -1.32496e-05 -9.73437e-06 -6.75998e-06 -4.32638e-06 -2.43359e-06 -1.0816e-06 -2.70399e-07 0 0 -8.22796e-08 -3.29118e-07 -7.40517e-07 -1.31647e-06 -2.05699e-06 -2.96207e-06 -4.0317e-06 -5.2659e-06 -7.39372e-06 -1.11442e-05 -1.65174e-05 -2.35134e-05 -3.2132e-05 -4.23733e-05 -5.42373e-05 -6.7724e-05 -8.30348e-05 -0.000100371 -0.000119733 -0.000141121 -0.000164534 -0.000189973 -0.000217438 -0.000246928 -0.000277238 -0.000307164 -0.000336706 -0.000365863 -0.000394636 -0.000423024 -0.000451028 -0.000478647 -0.000504192 -0.000525973 -0.000543989 -0.00055824 -0.000568727 -0.000575449 -0.000578407 -0.000577601 -0.000573497 -0.000566565 -0.000556803 -0.000544212 -0.000528791 -0.000510541 -0.000489462 -0.000465554 -0.000441071 -0.000418269 -0.000397147 -0.000377705 -0.000359943 -0.000343862 -0.00032946 -0.000316739 -0.000306481 -0.000299466 -0.000295696 -0.000295171 -0.00029789 -0.000303853 -0.00031306 -0.000325512 -0.000340161 -0.000355959 -0.000372908 -0.000391006 -0.000410254 -0.000430652 -0.0004522 -0.000474897 -0.000498011 -0.000520807 -0.000543286 -0.000565447 -0.000587291 -0.000608817 -0.000630026 -0.000650917 -0.000670461 -0.000687628 -0.000702417 -0.00071483 -0.000724865 -0.000732523 -0.000737804 -0.000740708 -0.000741187 -0.000739193 -0.000734727 -0.000727789 -0.000718378 -0.000706495 -0.000692139 -0.000675311 -0.00065677 -0.000637274 -0.000616824 -0.00059542 -0.000573062 -0.000549749 -0.000525482 -0.000500261 -0.000474145 -0.000447195 -0.000419409 -0.000390788 -0.000361333 -0.000331042 -0.000299917 -0.000267956 -0.00023652 -0.000206968 -0.000179301 -0.000153517 -0.000129617 -0.000107601 -8.74697e-05 -6.92222e-05 -5.29982e-05 -3.89375e-05 -2.70399e-05 -1.73055e-05 -9.73437e-06 -4.32638e-06 -1.0816e-06 0 0 -1.85129e-07 -7.40517e-07 -1.66616e-06 -2.96207e-06 -4.62823e-06 -6.66465e-06 -9.07133e-06 -1.18483e-05 -1.66359e-05 -2.50745e-05 -3.71643e-05 -5.29051e-05 -7.22969e-05 -9.53399e-05 -0.000122034 -0.000152379 -0.000186828 -0.000225835 -0.0002694 -0.000317522 -0.000370202 -0.000427439 -0.000489235 -0.000555587 -0.000623786 -0.00069112 -0.000757589 -0.000823193 -0.000887931 -0.000951805 -0.00101481 -0.00107696 -0.00113443 -0.00118344 -0.00122397 -0.00125604 -0.00127964 -0.00129476 -0.00130142 -0.0012996 -0.00129037 -0.00127477 -0.00125281 -0.00122448 -0.00118978 -0.00114872 -0.00110129 -0.0010475 -0.000992411 -0.000941105 -0.00089358 -0.000849836 -0.000809872 -0.000773688 -0.000741286 -0.000712664 -0.000689582 -0.000673799 -0.000665317 -0.000664134 -0.000670252 -0.000683669 -0.000704385 -0.000732402 -0.000765362 -0.000800909 -0.000839043 -0.000879764 -0.000923072 -0.000968968 -0.00101745 -0.00106852 -0.00112053 -0.00117182 -0.00122239 -0.00127226 -0.0013214 -0.00136984 -0.00141756 -0.00146456 -0.00150854 -0.00154716 -0.00158044 -0.00160837 -0.00163095 -0.00164818 -0.00166006 -0.00166659 -0.00166767 -0.00166318 -0.00165314 -0.00163753 -0.00161635 -0.00158961 -0.00155731 -0.00151945 -0.00147773 -0.00143387 -0.00138785 -0.0013397 -0.00128939 -0.00123694 -0.00118233 -0.00112559 -0.00106683 -0.00100619 -0.00094367 -0.000879274 -0.000812999 -0.000744845 -0.000674813 -0.000602902 -0.000532171 -0.000465679 -0.000403426 -0.000345413 -0.000291638 -0.000242103 -0.000196807 -0.00015575 -0.000119246 -8.76093e-05 -6.08398e-05 -3.89375e-05 -2.19023e-05 -9.73437e-06 -2.43359e-06 0 0 -3.29118e-07 -1.31647e-06 -2.96207e-06 -5.2659e-06 -8.22796e-06 -1.18483e-05 -1.61268e-05 -2.10636e-05 -2.95749e-05 -4.45769e-05 -6.60698e-05 -9.40534e-05 -0.000128528 -0.000169493 -0.000216949 -0.000270896 -0.000332139 -0.000401485 -0.000478933 -0.000564484 -0.000658137 -0.000759892 -0.00086975 -0.000987711 -0.00110895 -0.00122866 -0.00134682 -0.00146345 -0.00157854 -0.0016921 -0.00180411 -0.00191459 -0.00201677 -0.00210389 -0.00217595 -0.00223296 -0.00227491 -0.0023018 -0.00231363 -0.0023104 -0.00229399 -0.00226626 -0.00222721 -0.00217685 -0.00211516 -0.00204217 -0.00195785 -0.00186222 -0.00176429 -0.00167308 -0.00158859 -0.00151082 -0.00143977 -0.00137545 -0.00131784 -0.00126696 -0.00122592 -0.00119787 -0.00118279 -0.00118068 -0.00119156 -0.00121541 -0.00125224 -0.00130205 -0.00136064 -0.00142384 -0.00149163 -0.00156402 -0.00164102 -0.00172261 -0.0018088 -0.00189959 -0.00199204 -0.00208323 -0.00217314 -0.00226179 -0.00234916 -0.00243527 -0.0025201 -0.00260367 -0.00268184 -0.00275051 -0.00280967 -0.00285932 -0.00289946 -0.00293009 -0.00295122 -0.00296283 -0.00296475 -0.00295677 -0.00293891 -0.00291116 -0.00287351 -0.00282598 -0.00276856 -0.00270124 -0.00262708 -0.0025491 -0.0024673 -0.00238168 -0.00229225 -0.002199 -0.00210193 -0.00200104 -0.00189658 -0.00178878 -0.00167764 -0.00156315 -0.00144533 -0.00132417 -0.00119967 -0.00107183 -0.000946081 -0.000827874 -0.000717202 -0.000614067 -0.000518468 -0.000430405 -0.000349879 -0.000276889 -0.000211993 -0.00015575 -0.00010816 -6.92222e-05 -3.89375e-05 -1.73055e-05 -4.32638e-06 0 0 -5.14248e-07 -2.05699e-06 -4.62823e-06 -8.22796e-06 -1.28562e-05 -1.85129e-05 -2.51981e-05 -3.29118e-05 -4.62107e-05 -6.96515e-05 -0.000103234 -0.000146958 -0.000200825 -0.000264833 -0.000338983 -0.000423275 -0.000518968 -0.00062732 -0.000748333 -0.000882006 -0.00102834 -0.00118733 -0.00135898 -0.0015433 -0.00173274 -0.00191978 -0.00210441 -0.00228665 -0.00246648 -0.0026439 -0.00281893 -0.00299155 -0.0031512 -0.00328733 -0.00339993 -0.003489 -0.00355454 -0.00359656 -0.00361505 -0.00361 -0.00358436 -0.00354103 -0.00348002 -0.00340132 -0.00330494 -0.00319088 -0.00305914 -0.00290971 -0.0027567 -0.00261418 -0.00248217 -0.00236065 -0.00224964 -0.00214913 -0.00205913 -0.00197962 -0.0019155 -0.00187167 -0.0018481 -0.00184482 -0.00186181 -0.00189908 -0.00195663 -0.00203445 -0.002126 -0.00222475 -0.00233067 -0.00244379 -0.00256409 -0.00269158 -0.00282625 -0.00296811 -0.00311257 -0.00325505 -0.00339554 -0.00353405 -0.00367057 -0.00380511 -0.00393766 -0.00406823 -0.00419038 -0.00429767 -0.00439011 -0.00446769 -0.00453041 -0.00457827 -0.00461128 -0.00462942 -0.00463242 -0.00461996 -0.00459205 -0.00454868 -0.00448986 -0.00441559 -0.00432587 -0.00422069 -0.00410481 -0.00398296 -0.00385515 -0.00372138 -0.00358164 -0.00343593 -0.00328426 -0.00312663 -0.00296341 -0.00279497 -0.00262131 -0.00244243 -0.00225833 -0.00206901 -0.00187448 -0.00167473 -0.00147825 -0.00129355 -0.00112063 -0.00095948 -0.000810106 -0.000672508 -0.000546686 -0.000432638 -0.000331239 -0.000243359 -0.000168999 -0.00010816 -6.08398e-05 -2.70399e-05 -6.75998e-06 0 0 -7.40517e-07 -2.96207e-06 -6.66465e-06 -1.18483e-05 -1.85129e-05 -2.66586e-05 -3.62853e-05 -4.73931e-05 -6.65435e-05 -0.000100298 -0.000148657 -0.00021162 -0.000289188 -0.000381359 -0.000488135 -0.000609516 -0.000747313 -0.000903341 -0.0010776 -0.00127009 -0.00148081 -0.00170976 -0.00195694 -0.00222235 -0.00249514 -0.00276448 -0.00303036 -0.00329277 -0.00355173 -0.00380722 -0.00405925 -0.00430783 -0.00453773 -0.00473375 -0.0048959 -0.00502416 -0.00511854 -0.00517904 -0.00520567 -0.00519841 -0.00516148 -0.00509908 -0.00501122 -0.0048979 -0.00475912 -0.00459487 -0.00440516 -0.00418999 -0.00396964 -0.00376442 -0.00357432 -0.00339934 -0.00323949 -0.00309475 -0.00296514 -0.00285065 -0.00275833 -0.0026952 -0.00266127 -0.00265654 -0.00268101 -0.00273467 -0.00281754 -0.00292961 -0.00306145 -0.00320364 -0.00335617 -0.00351906 -0.00369229 -0.00387587 -0.0040698 -0.00427408 -0.0044821 -0.00468727 -0.00488957 -0.00508902 -0.00528562 -0.00547935 -0.00567023 -0.00585825 -0.00603415 -0.00618865 -0.00632176 -0.00643347 -0.00652379 -0.00659271 -0.00664024 -0.00666637 -0.00667068 -0.00665274 -0.00661255 -0.0065501 -0.0064654 -0.00635845 -0.00622925 -0.0060778 -0.00591093 -0.00573547 -0.00555142 -0.00535878 -0.00515755 -0.00494774 -0.00472934 -0.00450235 -0.00426731 -0.00402475 -0.00377468 -0.0035171 -0.003252 -0.00297938 -0.00269925 -0.00241161 -0.00212868 -0.00186272 -0.0016137 -0.00138165 -0.00116655 -0.000968412 -0.000787227 -0.000622999 -0.000476984 -0.000350437 -0.000243359 -0.00015575 -8.76093e-05 -3.89375e-05 -9.73437e-06 0 0 -1.00793e-06 -4.0317e-06 -9.07133e-06 -1.61268e-05 -2.51981e-05 -3.62853e-05 -4.93883e-05 -6.45072e-05 -9.0573e-05 -0.000136517 -0.000202339 -0.000288039 -0.000393617 -0.000519073 -0.000664406 -0.000829618 -0.00101718 -0.00122955 -0.00146673 -0.00172873 -0.00201554 -0.00232717 -0.00266361 -0.00302486 -0.00339617 -0.00376276 -0.00412465 -0.00448183 -0.00483429 -0.00518205 -0.0055251 -0.00586343 -0.00617636 -0.00644317 -0.00666386 -0.00683844 -0.0069669 -0.00704925 -0.00708549 -0.00707561 -0.00702534 -0.00694042 -0.00682083 -0.00666659 -0.00647769 -0.00625413 -0.00599591 -0.00570304 -0.00540313 -0.00512379 -0.00486505 -0.00462688 -0.0044093 -0.0042123 -0.00403589 -0.00388006 -0.00375439 -0.00366846 -0.00362228 -0.00361584 -0.00364915 -0.0037222 -0.00383499 -0.00398752 -0.00416697 -0.0043605 -0.00456812 -0.00478983 -0.00502562 -0.00527549 -0.00553945 -0.00581749 -0.00610064 -0.00637989 -0.00665525 -0.00692673 -0.00719431 -0.00745801 -0.00771782 -0.00797373 -0.00821315 -0.00842344 -0.00860461 -0.00875666 -0.0088796 -0.00897341 -0.0090381 -0.00907367 -0.00907954 -0.00905512 -0.00900041 -0.00891541 -0.00880013 -0.00865456 -0.00847871 -0.00827256 -0.00804543 -0.00780661 -0.0075561 -0.0072939 -0.00702001 -0.00673443 -0.00643716 -0.0061282 -0.00580828 -0.00547814 -0.00513776 -0.00478716 -0.00442633 -0.00405527 -0.00367398 -0.00328246 -0.00289737 -0.00253536 -0.00219643 -0.00188058 -0.00158781 -0.00131812 -0.0010715 -0.000847971 -0.000649228 -0.000476984 -0.000331239 -0.000211993 -0.000119246 -5.29982e-05 -1.32496e-05 0 0 -1.31647e-06 -5.2659e-06 -1.18483e-05 -2.10636e-05 -3.29118e-05 -4.73931e-05 -6.45072e-05 -8.42543e-05 -0.000118299 -0.000178308 -0.000264279 -0.000376214 -0.000514111 -0.000677972 -0.000867796 -0.00108358 -0.00132856 -0.00160594 -0.00191573 -0.00225794 -0.00263255 -0.00303957 -0.003479 -0.00395084 -0.00443581 -0.00491463 -0.0053873 -0.00585381 -0.00631418 -0.00676839 -0.00721645 -0.00765836 -0.00806708 -0.00841556 -0.00870382 -0.00893184 -0.00909963 -0.00920719 -0.00925452 -0.00924161 -0.00917596 -0.00906503 -0.00890884 -0.00870739 -0.00846066 -0.00816866 -0.0078314 -0.00744887 -0.00705714 -0.0066923 -0.00635435 -0.00604328 -0.00575909 -0.00550178 -0.00527137 -0.00506783 -0.00490369 -0.00479146 -0.00473114 -0.00472273 -0.00476623 -0.00486164 -0.00500896 -0.00520819 -0.00544257 -0.00569535 -0.00596653 -0.0062561 -0.00656407 -0.00689044 -0.0072352 -0.00759836 -0.00796818 -0.00833292 -0.00869258 -0.00904716 -0.00939665 -0.00974107 -0.0100804 -0.0104147 -0.0107274 -0.011002 -0.0112387 -0.0114373 -0.0115978 -0.0117204 -0.0118049 -0.0118513 -0.011859 -0.0118271 -0.0117556 -0.0116446 -0.0114941 -0.0113039 -0.0110742 -0.010805 -0.0105083 -0.0101964 -0.00986919 -0.00952672 -0.00916899 -0.00879598 -0.00840771 -0.00800418 -0.00758633 -0.00715512 -0.00671055 -0.00625262 -0.00578133 -0.00529668 -0.00479867 -0.0042873 -0.00378432 -0.00331149 -0.00286881 -0.00245627 -0.00207387 -0.00172162 -0.00139952 -0.00110755 -0.000847971 -0.000622999 -0.000432638 -0.000276889 -0.00015575 -6.92222e-05 -1.73055e-05 0 0 -1.89205e-06 -7.5682e-06 -1.70285e-05 -3.02728e-05 -4.73013e-05 -6.81138e-05 -9.27105e-05 -0.000121091 -0.000167582 -0.00024651 -0.000357875 -0.000501677 -0.000677915 -0.00088659 -0.0011277 -0.00140125 -0.00171088 -0.00206025 -0.00244935 -0.00287819 -0.00334676 -0.00385506 -0.00440309 -0.00499086 -0.00559453 -0.00619025 -0.00677803 -0.00735787 -0.00792977 -0.00849373 -0.00904974 -0.00959782 -0.0101045 -0.0105363 -0.0108933 -0.0111755 -0.0113828 -0.0115152 -0.0115728 -0.0115556 -0.0114731 -0.011335 -0.0111414 -0.0108921 -0.0105872 -0.0102267 -0.00981054 -0.00933882 -0.00885598 -0.00840654 -0.00799049 -0.00760783 -0.00725856 -0.00694269 -0.0066602 -0.00641111 -0.00620854 -0.00606561 -0.00598232 -0.00595868 -0.00599468 -0.00609032 -0.0062456 -0.00646053 -0.00671172 -0.00697576 -0.00725267 -0.00754244 -0.00784508 -0.00816058 -0.00848894 -0.00883017 -0.00917383 -0.00950951 -0.00983721 -0.0101569 -0.0104686 -0.0107724 -0.0110681 -0.0113559 -0.0116241 -0.0118613 -0.0120673 -0.0122423 -0.0123862 -0.012499 -0.0125807 -0.0126313 -0.0126496 -0.0126346 -0.0125861 -0.0125042 -0.0123888 -0.0122401 -0.0120579 -0.0118423 -0.0115995 -0.0113356 -0.0110508 -0.0107449 -0.0104179 -0.0100699 -0.00970093 -0.0093109 -0.00889695 -0.00845622 -0.0079887 -0.00749439 -0.0069733 -0.00642541 -0.00585074 -0.00524928 -0.00465106 -0.0040861 -0.00355441 -0.00305598 -0.00259082 -0.00215893 -0.00176029 -0.00139493 -0.00106799 -0.000784648 -0.000544894 -0.000348732 -0.000196162 -8.71831e-05 -2.17958e-05 0 0 -2.96055e-06 -1.18422e-05 -2.66449e-05 -4.73687e-05 -7.40136e-05 -0.00010658 -0.000145067 -0.000189475 -0.000256282 -0.000361965 -0.000506524 -0.000689959 -0.00091227 -0.00117346 -0.00147352 -0.00181246 -0.00219359 -0.00262022 -0.00309235 -0.00360998 -0.0041731 -0.00478173 -0.00543586 -0.00613549 -0.00685276 -0.00755979 -0.00825658 -0.00894314 -0.00961946 -0.0102855 -0.0109414 -0.011587 -0.0121832 -0.0126909 -0.0131099 -0.0134404 -0.0136824 -0.0138357 -0.0139005 -0.0138767 -0.0137766 -0.0136126 -0.0133845 -0.0130924 -0.0127364 -0.0123163 -0.0118323 -0.0112842 -0.0107239 -0.0102031 -0.00972174 -0.00927986 -0.00887745 -0.00851451 -0.00819104 -0.00790705 -0.00767123 -0.00749231 -0.00737028 -0.00730514 -0.00729688 -0.00734552 -0.00745105 -0.00761347 -0.00779786 -0.00796932 -0.00812784 -0.00827343 -0.00840607 -0.00852579 -0.00863257 -0.00872641 -0.0088067 -0.00887283 -0.00892481 -0.00896262 -0.00898627 -0.00899576 -0.00899108 -0.00897225 -0.00895072 -0.00893796 -0.00893397 -0.00893874 -0.00895228 -0.00897458 -0.00900566 -0.0090455 -0.0090921 -0.00914348 -0.00919963 -0.00926054 -0.00932622 -0.00939667 -0.00947189 -0.00955188 -0.0096189 -0.00965525 -0.00966091 -0.00963589 -0.00958018 -0.00949379 -0.00937672 -0.00922896 -0.00903567 -0.00878198 -0.00846789 -0.00809341 -0.00765854 -0.00716328 -0.00660762 -0.00599156 -0.00535909 -0.00475417 -0.0041768 -0.00362699 -0.00310473 -0.00261003 -0.00214288 -0.00170328 -0.00130407 -0.000958094 -0.000665343 -0.00042582 -0.000239524 -0.000106455 -2.66137e-05 0 0 -4.52196e-06 -1.80878e-05 -4.06976e-05 -7.23513e-05 -0.000113049 -0.00016279 -0.000221576 -0.000289405 -0.000384397 -0.00052467 -0.000710225 -0.00094106 -0.00121718 -0.00153857 -0.00190525 -0.00231721 -0.00277667 -0.00328584 -0.00384471 -0.0044533 -0.00511159 -0.0058196 -0.00657732 -0.00738474 -0.00821051 -0.00902324 -0.00982294 -0.0106096 -0.0113832 -0.0121438 -0.0128914 -0.013626 -0.0143033 -0.0148792 -0.0153537 -0.0157267 -0.0159984 -0.0161687 -0.0162375 -0.016205 -0.0160865 -0.0158976 -0.0156382 -0.0153085 -0.0149083 -0.0144377 -0.0138966 -0.0132851 -0.012661 -0.012082 -0.0115481 -0.0110594 -0.0106157 -0.0102172 -0.00986387 -0.00955563 -0.00929178 -0.00907158 -0.00889502 -0.00876212 -0.00867286 -0.00862725 -0.0086253 -0.00866699 -0.008701 -0.00867602 -0.00859203 -0.00844904 -0.00824706 -0.00798607 -0.00766608 -0.00728708 -0.00686679 -0.00642289 -0.00595538 -0.00546426 -0.00494954 -0.00441121 -0.00384927 -0.00326372 -0.00270714 -0.00223209 -0.00183857 -0.00152659 -0.00129613 -0.00114721 -0.00107982 -0.00109396 -0.00118638 -0.00135381 -0.00159625 -0.0019137 -0.00230616 -0.00277364 -0.00331613 -0.00393363 -0.00456652 -0.00515519 -0.00569962 -0.00619983 -0.00665581 -0.00706756 -0.00743508 -0.00775838 -0.00800247 -0.00813238 -0.00814812 -0.00804968 -0.00783706 -0.00751027 -0.0070693 -0.00651415 -0.00590842 -0.0053157 -0.00473599 -0.00416929 -0.0036156 -0.00307492 -0.00254726 -0.0020326 -0.00155621 -0.00114334 -0.000793985 -0.00050815 -0.000285834 -0.000127038 -3.17594e-05 0 0 -6.57629e-06 -2.63051e-05 -5.91866e-05 -0.000105221 -0.000164407 -0.000236746 -0.000322238 -0.000420882 -0.000551929 -0.000734627 -0.000968978 -0.00125498 -0.00159264 -0.00198194 -0.0024229 -0.00291551 -0.00346013 -0.00405711 -0.00470645 -0.00540816 -0.00616223 -0.00696866 -0.00782745 -0.00873861 -0.00966778 -0.0105806 -0.0114771 -0.0123573 -0.0132211 -0.0140686 -0.0148998 -0.0157146 -0.0164646 -0.0171012 -0.0176245 -0.0180344 -0.0183309 -0.0185141 -0.0185839 -0.0185404 -0.0184027 -0.0181901 -0.0179026 -0.0175402 -0.0171029 -0.0165906 -0.0160035 -0.0153415 -0.0146672 -0.0140432 -0.0134696 -0.0129463 -0.0124734 -0.0120509 -0.0116787 -0.0113569 -0.0110702 -0.0108034 -0.0105565 -0.0103296 -0.0101226 -0.00993551 -0.00976835 -0.0096211 -0.00942115 -0.00909586 -0.00864525 -0.0080693 -0.00736802 -0.00654141 -0.00558947 -0.0045122 -0.00335409 -0.00215967 -0.000928919 0.000338154 0.00164155 0.00298127 0.00435732 0.00576969 0.00710661 0.00825633 0.00921885 0.00999415 0.0105823 0.0109831 0.0111968 0.0112233 0.0110675 0.0107344 0.010224 0.00953634 0.00867132 0.007629 0.00640936 0.00501241 0.00355765 0.00216454 0.000833102 -0.000436674 -0.00164479 -0.00279123 -0.00387602 -0.00489914 -0.00579736 -0.00650744 -0.00702939 -0.00736319 -0.00750886 -0.00746639 -0.00723579 -0.00681704 -0.00629905 -0.00577069 -0.00523197 -0.00468288 -0.00412343 -0.00355362 -0.00297344 -0.0023829 -0.0018244 -0.00134038 -0.000930819 -0.000595724 -0.000335095 -0.000148931 -3.72328e-05 0 0 -9.12353e-06 -3.64941e-05 -8.21118e-05 -0.000145977 -0.000228088 -0.000328447 -0.000447053 -0.000583906 -0.000758877 -0.000991836 -0.00128278 -0.00163172 -0.00203864 -0.00250356 -0.00302646 -0.00360735 -0.00424396 -0.00493404 -0.00567757 -0.00647455 -0.007325 -0.0082289 -0.00918627 -0.0101971 -0.0112246 -0.0122319 -0.0132191 -0.0141862 -0.0151331 -0.0160599 -0.0169665 -0.017853 -0.0186673 -0.0193571 -0.0199224 -0.0203634 -0.0206799 -0.020872 -0.0209397 -0.0208829 -0.0207252 -0.0204901 -0.0201776 -0.0197876 -0.0193202 -0.0187753 -0.018153 -0.0174533 -0.0167424 -0.0160867 -0.0154862 -0.0149408 -0.0144505 -0.0140155 -0.0136355 -0.0133108 -0.0130064 -0.0126878 -0.0123549 -0.0120076 -0.0116461 -0.0112703 -0.0108802 -0.0104758 -0.00995829 -0.00922886 -0.00828749 -0.0071342 -0.00576898 -0.00419183 -0.00240275 -0.000401743 0.00173138 0.00391682 0.00615457 0.00844463 0.010787 0.0131817 0.0156287 0.018128 0.0204905 0.0225273 0.0242383 0.0256235 0.0266829 0.0274165 0.0278243 0.0279063 0.0276696 0.0271213 0.0262613 0.0250896 0.0236062 0.0218112 0.0197046 0.0172863 0.0147536 0.0123039 0.00993726 0.00765358 0.00545288 0.00333518 0.00130047 -0.00065125 -0.00242034 -0.00390715 -0.00511169 -0.00603395 -0.00667394 -0.00703165 -0.00710708 -0.00690024 -0.00653098 -0.00611915 -0.00566474 -0.00516777 -0.00462822 -0.00404611 -0.00342142 -0.00275416 -0.00210866 -0.00154922 -0.00107585 -0.000688541 -0.000387304 -0.000172135 -4.30338e-05 0 0 -1.21637e-05 -4.86548e-05 -0.000109473 -0.000194619 -0.000304092 -0.000437893 -0.000596021 -0.000778477 -0.00100524 -0.0012963 -0.00165164 -0.00207128 -0.00255521 -0.00310342 -0.00371593 -0.00439273 -0.00512818 -0.00591662 -0.00675805 -0.00765249 -0.00859991 -0.00960034 -0.0106538 -0.0117602 -0.0128809 -0.0139771 -0.0150489 -0.0160963 -0.0171192 -0.0181176 -0.0190916 -0.0200412 -0.0209112 -0.0216467 -0.0222475 -0.0227137 -0.0230453 -0.0232424 -0.0233048 -0.0232326 -0.0230541 -0.0227977 -0.0224632 -0.0220507 -0.0215602 -0.0209916 -0.0203451 -0.0196206 -0.0188868 -0.0182126 -0.0175979 -0.0170427 -0.016547 -0.0161109 -0.0157343 -0.0154173 -0.0151005 -0.0147247 -0.0142899 -0.0137962 -0.0132434 -0.0126316 -0.0119609 -0.0112311 -0.0103124 -0.00907499 -0.00751876 -0.00564373 -0.00344991 -0.000937307 0.00189409 0.00504428 0.00838964 0.0118066 0.0152951 0.0188552 0.0224868 0.02619 0.0299648 0.0338111 0.0374446 0.0405808 0.0432198 0.0453614 0.0470058 0.0481528 0.0488026 0.0489551 0.0486199 0.0478067 0.0465154 0.044746 0.0424986 0.0397731 0.0365695 0.0328879 0.0290213 0.025263 0.0216129 0.0180709 0.0146372 0.0113117 0.00809439 0.00498529 0.00212859 -0.000331512 -0.00239503 -0.00406195 -0.00533229 -0.00620603 -0.00668318 -0.00676375 -0.00660421 -0.00636106 -0.00603431 -0.00562395 -0.00512997 -0.00455239 -0.0038912 -0.00314641 -0.00240897 -0.00176985 -0.00122907 -0.000786602 -0.000442464 -0.00019665 -4.91626e-05 0 0 -1.56968e-05 -6.27871e-05 -0.000141271 -0.000251148 -0.000392419 -0.000565084 -0.000769142 -0.00100459 -0.00129102 -0.00164801 -0.00207555 -0.00257366 -0.00314232 -0.00378154 -0.00449132 -0.00527166 -0.00611276 -0.00700485 -0.00794791 -0.00894195 -0.00998697 -0.011083 -0.0122299 -0.0134279 -0.0146367 -0.0158163 -0.0169665 -0.0180876 -0.0191793 -0.0202418 -0.0212751 -0.0222791 -0.0231965 -0.02397 -0.0245996 -0.0250854 -0.0254272 -0.0256252 -0.0256793 -0.0255895 -0.0253894 -0.0251127 -0.0247594 -0.0243294 -0.0238228 -0.0232396 -0.0225798 -0.0218433 -0.0211003 -0.0204208 -0.0198047 -0.0192521 -0.018763 -0.0183373 -0.0179752 -0.0176765 -0.0173524 -0.0169142 -0.0163618 -0.0156952 -0.0149144 -0.0140195 -0.0130103 -0.011887 -0.0104836 -0.00863427 -0.00633905 -0.0035979 -0.000410838 0.00322214 0.00730104 0.0118259 0.0166207 0.0215096 0.0264926 0.0315697 0.036741 0.0420063 0.0473657 0.0528192 0.0579689 0.0624169 0.0661633 0.0692079 0.0715509 0.0731921 0.0741317 0.0743696 0.0739184 0.0727907 0.0709864 0.0685056 0.0653483 0.0615145 0.0570042 0.0518173 0.0463609 0.0410417 0.0358599 0.0308154 0.0259082 0.0211383 0.0165057 0.0120105 0.00784944 0.00421948 0.0011206 -0.0014472 -0.00348391 -0.00498954 -0.00596409 -0.00640756 -0.00651874 -0.00649644 -0.00634067 -0.00605142 -0.00562869 -0.00507248 -0.00438279 -0.00355962 -0.00272534 -0.00200229 -0.00139048 -0.000889906 -0.000500572 -0.000222476 -5.56191e-05 0 0 -1.97228e-05 -7.88911e-05 -0.000177505 -0.000315564 -0.000493069 -0.00071002 -0.000966416 -0.00126226 -0.00161622 -0.00204697 -0.00255452 -0.00313885 -0.00379998 -0.00453791 -0.00535262 -0.00624413 -0.00719773 -0.00819874 -0.00924715 -0.010343 -0.0114862 -0.0126768 -0.0139148 -0.0152002 -0.0164921 -0.0177493 -0.018972 -0.0201601 -0.0213136 -0.0224325 -0.0235169 -0.0245667 -0.0255231 -0.0263271 -0.0269789 -0.0274784 -0.0278256 -0.0280205 -0.0280631 -0.0279534 -0.027731 -0.0274352 -0.0270662 -0.0266238 -0.0261082 -0.0255193 -0.0248571 -0.0241216 -0.0233829 -0.0227113 -0.0221066 -0.0215689 -0.0210983 -0.0206946 -0.020358 -0.0200883 -0.0197622 -0.0192563 -0.0185705 -0.0177048 -0.0166592 -0.0154338 -0.0140286 -0.0124434 -0.0104717 -0.0079067 -0.00474836 -0.00099671 0.00334825 0.00828653 0.0138181 0.019943 0.0264245 0.0330259 0.0397472 0.0465884 0.0535495 0.0606305 0.0678313 0.0751521 0.0820633 0.0880356 0.0930688 0.097163 0.100318 0.102534 0.103812 0.10415 0.103565 0.102073 0.0996744 0.0963685 0.0921555 0.0870356 0.0810086 0.0740746 0.0667722 0.0596401 0.0526783 0.0458869 0.0392658 0.032815 0.0265345 0.0204243 0.0147422 0.00974581 0.00543518 0.00181031 -0.00112882 -0.00338219 -0.00494981 -0.00583167 -0.00627457 -0.00652529 -0.00658382 -0.00645018 -0.00612436 -0.00560636 -0.00489617 -0.00399381 -0.00305776 -0.00224652 -0.00156008 -0.000998453 -0.00056163 -0.000249613 -6.24033e-05 0 0 -2.41184e-05 -9.64736e-05 -0.000217066 -0.000385895 -0.00060296 -0.000868263 -0.0011818 -0.00154358 -0.00196867 -0.00247215 -0.00305403 -0.00371429 -0.00445295 -0.00527 -0.00616544 -0.00713928 -0.00816863 -0.00923061 -0.0103252 -0.0114525 -0.0126124 -0.0138049 -0.0150301 -0.0162878 -0.0175408 -0.0187514 -0.0199197 -0.0210456 -0.0221292 -0.0231705 -0.0241694 -0.025126 -0.0259899 -0.0267108 -0.0272886 -0.0277234 -0.0280152 -0.0281639 -0.0281696 -0.0280323 -0.0277979 -0.0275123 -0.0271756 -0.0267878 -0.0263489 -0.0258589 -0.0253177 -0.0247254 -0.0241407 -0.0236223 -0.0231702 -0.0227845 -0.0224652 -0.0222121 -0.0220254 -0.021905 -0.0216828 -0.0211905 -0.0204281 -0.0193957 -0.0180933 -0.0165208 -0.0146782 -0.0125656 -0.0099328 -0.00652965 -0.00235615 0.00258769 0.00830187 0.0147864 0.0220413 0.0300665 0.0385438 0.0471549 0.0558999 0.0647788 0.0737914 0.082938 0.0922184 0.101633 0.110512 0.118187 0.124659 0.129927 0.133991 0.136852 0.138508 0.138961 0.13823 0.136336 0.133277 0.129055 0.123669 0.117119 0.109406 0.100528 0.0911644 0.0819912 0.0730087 0.0642169 0.0556158 0.0472054 0.0389857 0.0309567 0.0234557 0.0168202 0.0110499 0.00614508 0.0021056 -0.0010685 -0.00337724 -0.0048206 -0.00569886 -0.0063123 -0.00666092 -0.00674471 -0.00656368 -0.00611783 -0.00540715 -0.00443165 -0.00339298 -0.0024928 -0.00173111 -0.00110791 -0.000623201 -0.000276978 -6.92445e-05 0 0 -2.87604e-05 -0.000115042 -0.000258844 -0.000460166 -0.00071901 -0.00103537 -0.00140926 -0.00184067 -0.00233621 -0.00290251 -0.00353958 -0.0042474 -0.00502597 -0.00587531 -0.0067954 -0.00778625 -0.00881101 -0.0098328 -0.0108516 -0.0118675 -0.0128804 -0.0138904 -0.0148974 -0.0159015 -0.0168768 -0.0177976 -0.018664 -0.019476 -0.0202334 -0.0209364 -0.0215849 -0.0221789 -0.0226961 -0.0231138 -0.0234322 -0.0236512 -0.0237709 -0.0237912 -0.0237122 -0.0235337 -0.023309 -0.023091 -0.0228798 -0.0226753 -0.0224776 -0.0222866 -0.0221023 -0.0219248 -0.0217796 -0.021692 -0.0216622 -0.0216901 -0.0217757 -0.021919 -0.0221201 -0.0223788 -0.022467 -0.0221565 -0.0214471 -0.020339 -0.0188321 -0.0169264 -0.0146219 -0.0119186 -0.00852273 -0.00414049 0.00122813 0.00758313 0.0149245 0.0232523 0.0325664 0.0428669 0.0537211 0.064696 0.0757918 0.0870085 0.098346 0.109804 0.121383 0.133083 0.144099 0.153623 0.161657 0.168201 0.173254 0.176816 0.178888 0.179469 0.178585 0.176259 0.172493 0.167286 0.160638 0.152548 0.143018 0.132047 0.120447 0.109028 0.0977915 0.0867368 0.075864 0.0651732 0.0546644 0.0443375 0.034639 0.0260152 0.018466 0.0119916 0.00659195 0.00226697 -0.000983293 -0.00315884 -0.00461878 -0.00572219 -0.00646909 -0.00685947 -0.00689333 -0.00657067 -0.0058915 -0.00485581 -0.00371773 -0.00273139 -0.0018968 -0.00121395 -0.000682848 -0.000303488 -7.5872e-05 0 0 -3.36487e-05 -0.000134595 -0.000302839 -0.00053838 -0.000841218 -0.00121135 -0.00164879 -0.00215352 -0.00271884 -0.00333806 -0.00401117 -0.00473816 -0.00551905 -0.00635383 -0.0072425 -0.00818505 -0.00912487 -0.0100053 -0.0108264 -0.0115881 -0.0122904 -0.0129333 -0.0135169 -0.014041 -0.0145 -0.0148881 -0.0152051 -0.0154511 -0.0156262 -0.0157303 -0.0157634 -0.0157255 -0.0156415 -0.0155362 -0.0154096 -0.0152618 -0.0150927 -0.0149023 -0.0146907 -0.0144578 -0.0142644 -0.0141713 -0.0141786 -0.0142862 -0.0144942 -0.0148025 -0.0152111 -0.01572 -0.0162997 -0.0169205 -0.0175825 -0.0182856 -0.0190299 -0.0198154 -0.0206419 -0.0215097 -0.022115 -0.0221542 -0.0216274 -0.0205345 -0.0188755 -0.0166505 -0.0138595 -0.0105024 -0.00624151 -0.000739222 0.00600449 0.0139896 0.0232162 0.0336842 0.0453936 0.0583445 0.0719564 0.0856493 0.099423 0.113278 0.127213 0.141229 0.155326 0.169504 0.182823 0.194343 0.204063 0.211984 0.218105 0.222427 0.22495 0.225674 0.224628 0.221844 0.217322 0.211061 0.203061 0.193323 0.181847 0.168631 0.154619 0.140751 0.127027 0.113446 0.10001 0.0867184 0.0735706 0.0605668 0.0482919 0.0373308 0.0276835 0.01935 0.0123302 0.00662423 0.00223202 -0.000846406 -0.00303431 -0.00475496 -0.00600834 -0.00679446 -0.00711331 -0.0069649 -0.00634922 -0.00526628 -0.004032 -0.00296229 -0.00205714 -0.00131657 -0.000740571 -0.000329143 -8.22857e-05 0 0 -3.87834e-05 -0.000155134 -0.000349051 -0.000620535 -0.000969586 -0.0013962 -0.00190039 -0.00248214 -0.00311657 -0.00377879 -0.0044688 -0.00518659 -0.00593218 -0.00670556 -0.00750672 -0.00833568 -0.00911022 -0.00974813 -0.0102494 -0.0106141 -0.0108422 -0.0109336 -0.0108884 -0.0107066 -0.0104106 -0.0100226 -0.00954282 -0.00897114 -0.00830759 -0.00755216 -0.00670486 -0.00576568 -0.00482618 -0.00397792 -0.00322091 -0.00255513 -0.00198059 -0.0014973 -0.00110524 -0.000804421 -0.000664036 -0.000753277 -0.00107214 -0.00162063 -0.00239875 -0.00340649 -0.00464385 -0.00611084 -0.00770097 -0.00930772 -0.0109311 -0.0125712 -0.0142278 -0.0159011 -0.0175911 -0.0192976 -0.0206266 -0.0211837 -0.0209689 -0.0199823 -0.0182237 -0.0156933 -0.0123911 -0.00831695 -0.00308914 0.00367415 0.0119729 0.0218072 0.0331769 0.0460821 0.0605228 0.076499 0.0932499 0.110015 0.126793 0.143586 0.160393 0.177213 0.194047 0.210896 0.226686 0.240346 0.251876 0.261276 0.268546 0.273686 0.276695 0.277575 0.276361 0.273091 0.267764 0.26038 0.25094 0.239444 0.225891 0.210281 0.193682 0.177159 0.160714 0.144346 0.128055 0.111841 0.0957042 0.0796444 0.0644145 0.0507671 0.0387023 0.028