<?xml version="1.0"?> 
<VTKFile type="StructuredGrid" version="0.1"> 
<StructuredGrid WholeExtent="0 128 0 128 0 0"> 
<Piece Extent="0 128 0 128 0 0"> 
<PointData>
<DataArray type="Float32" Name="u" format="ascii" NumberOfComponents="1"> 
0 0 0 0 0 0 0 0 0 0 0 0 0 0 0 0 0 0 0 0 0 0 0 0 0 0 0 0 0 0 0 0 0 0 0 0 0 0 0 0 0 0 0 0 0 0 0 0 0 0 0 0 0 0 0 0 0 0 0 0 0 0 0 0 0 0 0 0 0 0 0 0 0 0 0 0 0 0 0 0 0 0 0 0 0 0 0 0 0 0 0 0 0 0 0 0 0 0 0 0 0 0 0 0 0 0 0 0 0 0 0 0 0 0 0 0 0 0 0 0 0 0 0 0 0 0 0 0 0 0 -2.00794e-08 -8.03175e-08 -1.80714e-07 -3.2127e-07 -5.01984e-07 -7.22858e-07 -9.8389e-07 -1.28508e-06 -1.80946e-06 -2.74007e-06 -4.0769e-06 -5.81996e-06 -7.96924e-06 -1.05247e-05 -1.34865e-05 -1.68544e-05 -2.06792e-05 -2.50113e-05 -2.98508e-05 -3.51977e-05 -4.10519e-05 -4.74136e-05 -5.42826e-05 -6.16589e-05 -6.9241e-05 -7.67273e-05 -8.41177e-05 -9.14122e-05 -9.86108e-05 -0.000105714 -0.00011272 -0.000119631 -0.000126023 -0.000131473 -0.00013598 -0.000139545 -0.000142168 -0.000143849 -0.000144587 -0.000144383 -0.000143353 -0.000141617 -0.000139172 -0.00013602 -0.00013216 -0.000127592 -0.000122316 -0.000116333 -0.000110207 -0.000104503 -9.92218e-05 -9.43623e-05 -8.9925e-05 -8.59099e-05 -8.23169e-05 -7.91462e-05 -7.65929e-05 -7.48523e-05 -7.39246e-05 -7.38097e-05 -7.45075e-05 -7.60182e-05 -7.83416e-05 -8.14779e-05 -8.51686e-05 -8.91556e-05 -9.34388e-05 -9.80182e-05 -0.000102894 -0.000108066 -0.000113534 -0.000119298 -0.000125175 -0.000130979 -0.00013671 -0.000142369 -0.000147956 -0.00015347 -0.000158912 -0.000164281 -0.000169307 -0.00017372 -0.000177519 -0.000180703 -0.000183274 -0.000185232 -0.000186575 -0.000187305 -0.000187409 -0.000186878 -0.000185711 -0.000183908 -0.000181469 -0.000178394 -0.000174683 -0.000170336 -0.000165556 -0.000160546 -0.000155306 -0.000149836 -0.000144136 -0.000138206 -0.000132045 -0.000125655 -0.000119049 -0.000112242 -0.000105233 -9.8024e-05 -9.06136e-05 -8.30021e-05 -7.51895e-05 -6.71759e-05 -5.92976e-05 -5.18911e-05 -4.49563e-05 -3.84934e-05 -3.25023e-05 -2.69829e-05 -2.19353e-05 -1.73596e-05 -1.32909e-05 -9.76475e-06 -6.78108e-06 -4.33989e-06 -2.44119e-06 -1.08497e-06 -2.71243e-07 0 0 -8.03175e-08 -3.2127e-07 -7.22858e-07 -1.28508e-06 -2.00794e-06 -2.89143e-06 -3.93556e-06 -5.14032e-06 -7.23785e-06 -1.09603e-05 -1.63076e-05 -2.32798e-05 -3.1877e-05 -4.2099e-05 -5.39459e-05 -6.74177e-05 -8.27167e-05 -0.000100045 -0.000119403 -0.000140791 -0.000164208 -0.000189654 -0.00021713 -0.000246636 -0.000276964 -0.000306909 -0.000336471 -0.000365649 -0.000394443 -0.000422854 -0.000450882 -0.000478526 -0.000504094 -0.000525892 -0.000543922 -0.000558182 -0.000568673 -0.000575394 -0.000578347 -0.00057753 -0.000573414 -0.000566466 -0.000556688 -0.000544079 -0.000528638 -0.000510367 -0.000489266 -0.000465333 -0.000440829 -0.000418014 -0.000396887 -0.000377449 -0.0003597 -0.00034364 -0.000329268 -0.000316585 -0.000306371 -0.000299409 -0.000295698 -0.000295239 -0.00029803 -0.000304073 -0.000313367 -0.000325911 -0.000340674 -0.000356622 -0.000373755 -0.000392073 -0.000411576 -0.000432263 -0.000454136 -0.000477193 -0.000500699 -0.000523914 -0.00054684 -0.000569476 -0.000591823 -0.00061388 -0.000635647 -0.000657125 -0.00067723 -0.00069488 -0.000710074 -0.000722814 -0.000733098 -0.000740927 -0.0007463 -0.000749219 -0.000749638 -0.000747513 -0.000742844 -0.000735632 -0.000725875 -0.000713575 -0.000698732 -0.000681344 -0.000662225 -0.000642185 -0.000621225 -0.000599344 -0.000576543 -0.000552822 -0.000528181 -0.000502619 -0.000476195 -0.000448966 -0.000420933 -0.000392096 -0.000362454 -0.000332008 -0.000300758 -0.000268703 -0.00023719 -0.000207564 -0.000179825 -0.000153974 -0.000130009 -0.000107932 -8.77413e-05 -6.94382e-05 -5.31636e-05 -3.9059e-05 -2.71243e-05 -1.73596e-05 -9.76475e-06 -4.33989e-06 -1.08497e-06 0 0 -1.80714e-07 -7.22858e-07 -1.62643e-06 -2.89143e-06 -4.51786e-06 -6.50572e-06 -8.85501e-06 -1.15657e-05 -1.62852e-05 -2.46606e-05 -3.66921e-05 -5.23796e-05 -7.17231e-05 -9.47227e-05 -0.000121378 -0.00015169 -0.000186113 -0.000225102 -0.000268657 -0.000316779 -0.000369467 -0.000426722 -0.000488543 -0.00055493 -0.000623169 -0.000690546 -0.000757059 -0.00082271 -0.000887497 -0.000951422 -0.00101448 -0.00107668 -0.00113421 -0.00118326 -0.00122382 -0.00125591 -0.00127951 -0.00129464 -0.00130128 -0.00129944 -0.00129018 -0.00127455 -0.00125255 -0.00122418 -0.00118944 -0.00114833 -0.00110085 -0.001047 -0.000991865 -0.000940531 -0.000892996 -0.000849261 -0.000809325 -0.000773189 -0.000740853 -0.000712315 -0.000689336 -0.000673671 -0.000665322 -0.000664287 -0.000670568 -0.000684164 -0.000705075 -0.000733301 -0.000766517 -0.0008024 -0.000840949 -0.000882164 -0.000926045 -0.000972592 -0.00102181 -0.00107369 -0.00112657 -0.00117881 -0.00123039 -0.00128132 -0.0013316 -0.00138123 -0.00143021 -0.00147853 -0.00152377 -0.00156348 -0.00159767 -0.00162633 -0.00164947 -0.00166709 -0.00167918 -0.00168574 -0.00168668 -0.0016819 -0.0016714 -0.00165517 -0.00163322 -0.00160554 -0.00157215 -0.00153302 -0.00149001 -0.00144492 -0.00139776 -0.00134852 -0.00129722 -0.00124385 -0.00118841 -0.00113089 -0.00107144 -0.00101017 -0.000947099 -0.000882216 -0.000815522 -0.000747019 -0.000676706 -0.000604583 -0.000533678 -0.00046702 -0.000404607 -0.000346441 -0.00029252 -0.000242846 -0.000197418 -0.000156236 -0.000119618 -8.78827e-05 -6.10297e-05 -3.9059e-05 -2.19707e-05 -9.76475e-06 -2.44119e-06 0 0 -3.2127e-07 -1.28508e-06 -2.89143e-06 -5.14032e-06 -8.03175e-06 -1.15657e-05 -1.57422e-05 -2.05613e-05 -2.89514e-05 -4.38411e-05 -6.52304e-05 -9.31193e-05 -0.000127508 -0.000168396 -0.000215784 -0.000269671 -0.000330867 -0.000400181 -0.000477613 -0.000563163 -0.000656831 -0.000758617 -0.000868521 -0.000986543 -0.00110786 -0.00122764 -0.00134588 -0.00146259 -0.00157777 -0.00169142 -0.00180353 -0.0019141 -0.00201637 -0.00210357 -0.00217569 -0.00223273 -0.00227469 -0.00230158 -0.00231339 -0.00231012 -0.00229366 -0.00226587 -0.00222675 -0.00217631 -0.00211455 -0.00204147 -0.00195706 -0.00186133 -0.00176332 -0.00167205 -0.00158755 -0.0015098 -0.0014388 -0.00137456 -0.00131707 -0.00126634 -0.00122549 -0.00119764 -0.00118279 -0.00118096 -0.00119212 -0.00121629 -0.00125347 -0.00130365 -0.0013627 -0.00142649 -0.00149502 -0.00156829 -0.0016463 -0.00172905 -0.00181654 -0.00190877 -0.00200279 -0.00209566 -0.00218736 -0.0022779 -0.00236729 -0.00245552 -0.00254259 -0.0026285 -0.00270892 -0.00277952 -0.0028403 -0.00289126 -0.00293239 -0.00296371 -0.0029852 -0.00299688 -0.00299855 -0.00299005 -0.00297138 -0.00294253 -0.0029035 -0.0028543 -0.00279493 -0.00272538 -0.0026489 -0.00256874 -0.0024849 -0.00239738 -0.00230617 -0.00221129 -0.00211272 -0.00201048 -0.00190478 -0.00179586 -0.00168373 -0.00156838 -0.00144982 -0.00132803 -0.00120303 -0.00107481 -0.000948761 -0.000830257 -0.000719301 -0.000615895 -0.000520036 -0.000431726 -0.000350965 -0.000277753 -0.000212655 -0.000156236 -0.000108497 -6.94382e-05 -3.9059e-05 -1.73596e-05 -4.33989e-06 0 0 -5.01984e-07 -2.00794e-06 -4.51786e-06 -8.03175e-06 -1.25496e-05 -1.80714e-05 -2.45972e-05 -3.2127e-05 -4.52366e-05 -6.85017e-05 -0.000101923 -0.000145499 -0.000199231 -0.000263119 -0.000337162 -0.000421361 -0.00051698 -0.000625283 -0.00074627 -0.000879942 -0.0010263 -0.00118534 -0.00135706 -0.00154147 -0.00173103 -0.00191818 -0.00210294 -0.0022853 -0.00246527 -0.00264284 -0.00281801 -0.00299079 -0.00315059 -0.00328683 -0.00339951 -0.00348864 -0.0035542 -0.00359622 -0.00361467 -0.00360957 -0.00358384 -0.00354041 -0.0034793 -0.00340049 -0.00330399 -0.0031898 -0.00305791 -0.00290833 -0.00275518 -0.00261259 -0.00248054 -0.00235906 -0.00224813 -0.00214775 -0.00205792 -0.00197865 -0.00191482 -0.00187131 -0.00184812 -0.00184524 -0.00186269 -0.00190045 -0.00195854 -0.00203695 -0.00212921 -0.00222889 -0.00233597 -0.00245046 -0.00257235 -0.00270165 -0.00283835 -0.00298246 -0.00312937 -0.00327446 -0.00341775 -0.00355923 -0.00369889 -0.00383675 -0.00397279 -0.00410703 -0.00423269 -0.004343 -0.00443796 -0.00451759 -0.00458186 -0.00463079 -0.00466438 -0.00468262 -0.00468523 -0.00467195 -0.00464277 -0.0045977 -0.00453672 -0.00445985 -0.00436707 -0.0042584 -0.00413891 -0.00401366 -0.00388266 -0.0037459 -0.0036034 -0.00345514 -0.00330113 -0.00314137 -0.00297622 -0.00280604 -0.00263083 -0.0024506 -0.00226534 -0.00207505 -0.00187974 -0.0016794 -0.00148244 -0.00129728 -0.00112391 -0.000962335 -0.000812557 -0.000674573 -0.000548383 -0.000433989 -0.000332273 -0.000244119 -0.000169527 -0.000108497 -6.10297e-05 -2.71243e-05 -6.78108e-06 0 0 -7.22858e-07 -2.89143e-06 -6.50572e-06 -1.15657e-05 -1.80714e-05 -2.60229e-05 -3.542e-05 -4.62629e-05 -6.51407e-05 -9.86425e-05 -0.000146768 -0.000209518 -0.000286893 -0.000378891 -0.000485513 -0.000606759 -0.000744451 -0.000900407 -0.00107463 -0.00126712 -0.00147787 -0.00170689 -0.00195417 -0.00221972 -0.00249268 -0.00276218 -0.00302824 -0.00329084 -0.00354999 -0.00380569 -0.00405794 -0.00430673 -0.00453684 -0.00473303 -0.00489529 -0.00502364 -0.00511805 -0.00517855 -0.00520512 -0.00519777 -0.00516072 -0.0050982 -0.00501019 -0.00489671 -0.00475775 -0.00459331 -0.00440339 -0.00418799 -0.00396746 -0.00376212 -0.00357198 -0.00339704 -0.0032373 -0.00309276 -0.00296341 -0.00284926 -0.00275734 -0.00269468 -0.00266129 -0.00265715 -0.00268227 -0.00273665 -0.0028203 -0.0029332 -0.00306607 -0.0032096 -0.0033638 -0.00352866 -0.00370418 -0.00389037 -0.00408722 -0.00429474 -0.00450629 -0.00471523 -0.00492156 -0.00512529 -0.0053264 -0.00552492 -0.00572082 -0.00591412 -0.00609507 -0.00625392 -0.00639067 -0.00650532 -0.00659788 -0.00666834 -0.0067167 -0.00674297 -0.00674674 -0.00672761 -0.0066856 -0.00662068 -0.00653288 -0.00642218 -0.00628859 -0.0061321 -0.00596002 -0.00577966 -0.00559102 -0.0053941 -0.00518889 -0.0049754 -0.00475363 -0.00452357 -0.00428575 -0.00404069 -0.0037884 -0.00352886 -0.00326209 -0.00298808 -0.00270682 -0.00241833 -0.00213471 -0.00186808 -0.00161843 -0.00138576 -0.00117008 -0.000971385 -0.000789672 -0.000624944 -0.000478473 -0.000351531 -0.000244119 -0.000156236 -8.78827e-05 -3.9059e-05 -9.76475e-06 0 0 -9.8389e-07 -3.93556e-06 -8.85501e-06 -1.57422e-05 -2.45972e-05 -3.542e-05 -4.82106e-05 -6.29689e-05 -8.86637e-05 -0.000134263 -0.000199768 -0.000285178 -0.000390493 -0.000515712 -0.000660837 -0.000825867 -0.00101328 -0.00122555 -0.00146269 -0.00172469 -0.00201154 -0.00232326 -0.00265985 -0.00302129 -0.00339281 -0.00375964 -0.00412177 -0.0044792 -0.00483193 -0.00517996 -0.0055233 -0.00586194 -0.00617515 -0.00644218 -0.00666304 -0.00683773 -0.00696624 -0.00704858 -0.00708475 -0.00707475 -0.00702432 -0.00693921 -0.00681943 -0.00666496 -0.00647582 -0.006252 -0.0059935 -0.00570033 -0.00540015 -0.00512067 -0.00486187 -0.00462375 -0.00440633 -0.00420958 -0.00403353 -0.00387816 -0.00375305 -0.00366776 -0.00362231 -0.00361667 -0.00365087 -0.00372489 -0.00383874 -0.00399241 -0.00417326 -0.00436862 -0.0045785 -0.00480289 -0.0050418 -0.00529522 -0.00556316 -0.00584562 -0.00613356 -0.00641795 -0.00669879 -0.00697608 -0.00724983 -0.00752003 -0.00778668 -0.00804978 -0.00829607 -0.00851228 -0.00869841 -0.00885447 -0.00898045 -0.00907635 -0.00914218 -0.00917793 -0.00918306 -0.00915703 -0.00909984 -0.00901149 -0.00889197 -0.0087413 -0.00855946 -0.00834647 -0.00811225 -0.00786677 -0.00761 -0.00734197 -0.00706266 -0.00677207 -0.00647021 -0.00615708 -0.00583338 -0.00549983 -0.00515643 -0.00480317 -0.00444006 -0.0040671 -0.00368429 -0.00329162 -0.00290558 -0.00254266 -0.00220286 -0.00188618 -0.00159261 -0.00132216 -0.00107483 -0.000850618 -0.000651254 -0.000478473 -0.000332273 -0.000212655 -0.000119618 -5.31636e-05 -1.32909e-05 0 0 -1.28508e-06 -5.14032e-06 -1.15657e-05 -2.05613e-05 -3.2127e-05 -4.62629e-05 -6.29689e-05 -8.22451e-05 -0.000115806 -0.000175364 -0.000260922 -0.000372477 -0.000510031 -0.000673584 -0.000863134 -0.00107868 -0.00132347 -0.00160072 -0.00191045 -0.00225265 -0.00262732 -0.00303447 -0.00347408 -0.00394617 -0.00443143 -0.00491055 -0.00538353 -0.00585038 -0.00631109 -0.00676567 -0.00721411 -0.00765641 -0.0080655 -0.00841427 -0.00870274 -0.00893091 -0.00909876 -0.00920631 -0.00925355 -0.00924049 -0.00917462 -0.00906346 -0.00890701 -0.00870526 -0.00845822 -0.00816588 -0.00782825 -0.00744532 -0.00705326 -0.00668822 -0.00635019 -0.00603919 -0.0057552 -0.00549823 -0.00526828 -0.00506535 -0.00490194 -0.00479055 -0.00473118 -0.00472382 -0.00476848 -0.00486516 -0.00501386 -0.00521458 -0.00545079 -0.00570596 -0.00598008 -0.00627317 -0.00658521 -0.00691621 -0.00726617 -0.00763509 -0.00801118 -0.00838263 -0.00874944 -0.00911162 -0.00946916 -0.00982208 -0.0101704 -0.010514 -0.0108357 -0.0111181 -0.0113612 -0.011565 -0.0117296 -0.0118548 -0.0119408 -0.0119875 -0.0119942 -0.0119602 -0.0118855 -0.0117701 -0.011614 -0.0114172 -0.0111797 -0.0109015 -0.0105956 -0.010275 -0.0099396 -0.00958951 -0.0092247 -0.00884516 -0.00845089 -0.0080419 -0.00761911 -0.00718346 -0.00673493 -0.00627353 -0.00579927 -0.00531213 -0.00481213 -0.00429926 -0.00379504 -0.00332103 -0.00287721 -0.00246358 -0.00208014 -0.00172691 -0.00140386 -0.00111101 -0.000850618 -0.000624944 -0.000433989 -0.000277753 -0.000156236 -6.94382e-05 -1.73596e-05 0 0 -1.85423e-06 -7.41693e-06 -1.66881e-05 -2.96677e-05 -4.63558e-05 -6.67524e-05 -9.08574e-05 -0.000118671 -0.000164578 -0.000242966 -0.000353833 -0.00049718 -0.000673006 -0.000881312 -0.0011221 -0.00139536 -0.00170478 -0.00205401 -0.00244306 -0.00287193 -0.00334061 -0.00384911 -0.00439744 -0.00498557 -0.00558966 -0.00618584 -0.0067741 -0.00735445 -0.00792689 -0.00849141 -0.00904802 -0.00959671 -0.010104 -0.0105363 -0.0108936 -0.011176 -0.0113834 -0.0115159 -0.0115734 -0.011556 -0.0114732 -0.0113348 -0.0111408 -0.0108911 -0.0105857 -0.0102247 -0.00980804 -0.00933572 -0.00885235 -0.00840255 -0.00798631 -0.00760365 -0.00725455 -0.00693902 -0.00665705 -0.00640865 -0.00620692 -0.00606495 -0.00598275 -0.0059603 -0.00599762 -0.0060947 -0.00625155 -0.00646815 -0.00672142 -0.00698824 -0.00726861 -0.00756254 -0.00787002 -0.00819106 -0.00852565 -0.00887379 -0.00922502 -0.00956887 -0.00990533 -0.0102344 -0.0105561 -0.0108704 -0.0111773 -0.0114769 -0.0117564 -0.0120033 -0.0122175 -0.0123991 -0.0125479 -0.0126642 -0.0127478 -0.0127987 -0.0128159 -0.0127982 -0.0127456 -0.0126582 -0.012536 -0.0123788 -0.0121868 -0.01196 -0.0117056 -0.0114308 -0.0111358 -0.0108204 -0.0104847 -0.0101287 -0.00975242 -0.0093558 -0.00893594 -0.00848988 -0.00801764 -0.00751921 -0.0069946 -0.0064438 -0.00586681 -0.00526364 -0.00466402 -0.00409771 -0.00356471 -0.00306501 -0.00259862 -0.00216554 -0.00176576 -0.00139928 -0.00107133 -0.000787096 -0.000546595 -0.000349821 -0.000196774 -8.74551e-05 -2.18638e-05 0 0 -2.91915e-06 -1.16766e-05 -2.62723e-05 -4.67064e-05 -7.29787e-05 -0.000105089 -0.000143038 -0.000186826 -0.000252994 -0.000358088 -0.000502106 -0.000685048 -0.000906915 -0.00116771 -0.00146742 -0.00180606 -0.00218698 -0.00261351 -0.00308566 -0.00360343 -0.00416682 -0.00477582 -0.00543045 -0.00613069 -0.00684866 -0.00755644 -0.00825405 -0.00894148 -0.00961873 -0.0102858 -0.0109427 -0.0115894 -0.0121866 -0.0126951 -0.0131149 -0.0134459 -0.0136881 -0.0138416 -0.0139063 -0.0138823 -0.0137818 -0.0136173 -0.0133887 -0.0130959 -0.0127391 -0.0123183 -0.0118333 -0.0112842 -0.010723 -0.0102014 -0.00971958 -0.00927743 -0.00887499 -0.00851225 -0.00818921 -0.00790588 -0.00767089 -0.00749288 -0.00737187 -0.00730784 -0.00730079 -0.00735073 -0.00745766 -0.00762158 -0.00780791 -0.00798211 -0.00814417 -0.00829409 -0.00843186 -0.0085575 -0.008671 -0.00877235 -0.00886098 -0.00893629 -0.0089983 -0.00904698 -0.00908235 -0.00910441 -0.00911316 -0.00910859 -0.0091008 -0.00909987 -0.00910582 -0.00911863 -0.00913831 -0.00916486 -0.00919828 -0.00923856 -0.00928379 -0.00933203 -0.00938328 -0.00943754 -0.00949482 -0.00955511 -0.00961841 -0.00968472 -0.00973769 -0.00976094 -0.00975449 -0.00971832 -0.00965245 -0.00955686 -0.00943157 -0.00927656 -0.00907685 -0.00881743 -0.00849831 -0.00811949 -0.00768096 -0.00718273 -0.00662479 -0.00600715 -0.00537343 -0.00476725 -0.00418862 -0.00363752 -0.00311398 -0.00261797 -0.00214951 -0.00170859 -0.00130814 -0.000961082 -0.000667418 -0.000427147 -0.00024027 -0.000106787 -2.66967e-05 0 0 -4.47983e-06 -1.79193e-05 -4.03185e-05 -7.16773e-05 -0.000111996 -0.000161274 -0.000219512 -0.000286709 -0.000381053 -0.00052073 -0.00070574 -0.000936083 -0.00121176 -0.00153277 -0.00189911 -0.00231078 -0.00277006 -0.00327922 -0.00383825 -0.00444715 -0.00510593 -0.00581459 -0.00657312 -0.00738153 -0.00820841 -0.00902236 -0.00982337 -0.0106115 -0.0113866 -0.0121488 -0.0128981 -0.0136345 -0.0143135 -0.0148909 -0.0153665 -0.0157405 -0.0160127 -0.0161833 -0.0162522 -0.0162193 -0.0161003 -0.0159108 -0.0156506 -0.0153198 -0.0149185 -0.0144465 -0.013904 -0.0132909 -0.0126651 -0.0120848 -0.01155 -0.0110605 -0.0106165 -0.0102179 -0.00986476 -0.00955702 -0.00929384 -0.00907434 -0.00889854 -0.00876642 -0.008678 -0.00863326 -0.00863221 -0.00867485 -0.00871027 -0.00868757 -0.00860675 -0.0084678 -0.00827073 -0.00801553 -0.00770221 -0.00733076 -0.00691904 -0.0064849 -0.00602833 -0.00554933 -0.00504791 -0.00452406 -0.00397778 -0.00340909 -0.00286882 -0.00240784 -0.00202616 -0.00172376 -0.00150065 -0.00135684 -0.00129231 -0.00130708 -0.00139794 -0.00156173 -0.00179843 -0.00210804 -0.00249058 -0.00294603 -0.00347439 -0.00407567 -0.00469195 -0.00526531 -0.00579575 -0.00628328 -0.00672788 -0.00712956 -0.00748833 -0.00780417 -0.00804185 -0.00816611 -0.00817694 -0.00807435 -0.00785834 -0.00752891 -0.00708606 -0.00652979 -0.00592326 -0.00532964 -0.00474893 -0.00418112 -0.00362621 -0.00308421 -0.00255512 -0.00203893 -0.00156106 -0.0011469 -0.000796458 -0.000509733 -0.000286725 -0.000127433 -3.18583e-05 0 0 -6.53628e-06 -2.61451e-05 -5.88265e-05 -0.00010458 -0.000163407 -0.000235306 -0.000320278 -0.000418322 -0.000548755 -0.000730892 -0.000964735 -0.00125028 -0.00158754 -0.00197649 -0.00241716 -0.00290952 -0.00345404 -0.00405114 -0.00470083 -0.0054031 -0.00615797 -0.00696542 -0.00782546 -0.00873808 -0.00966892 -0.0105836 -0.0114821 -0.0123644 -0.0132305 -0.0140805 -0.0149143 -0.015732 -0.0164846 -0.0171235 -0.0176486 -0.0180598 -0.0183573 -0.0185411 -0.018611 -0.0185671 -0.0184288 -0.0182153 -0.0179266 -0.0175628 -0.0171237 -0.0166095 -0.0160202 -0.0153556 -0.0146788 -0.0140528 -0.0134775 -0.012953 -0.0124791 -0.0120561 -0.0116837 -0.0113621 -0.0110758 -0.0108093 -0.0105628 -0.0103361 -0.0101292 -0.00994228 -0.00977519 -0.00962798 -0.0094285 -0.00910462 -0.00865635 -0.00808368 -0.00738662 -0.00656515 -0.00561929 -0.00454903 -0.00339921 -0.00221468 -0.000995424 0.000258548 0.00154724 0.00287065 0.00422877 0.00562162 0.00693952 0.00807281 0.00902149 0.00978556 0.010365 0.0107599 0.0109701 0.0109958 0.0108417 0.0105127 0.0100089 0.00933026 0.00847676 0.00744841 0.0062452 0.00486715 0.00343164 0.00205607 0.000740436 -0.000515258 -0.00171101 -0.00284683 -0.0039227 -0.00493864 -0.00583094 -0.0065359 -0.00705353 -0.00738381 -0.00752676 -0.00748237 -0.00725064 -0.00683157 -0.00631353 -0.00578489 -0.00524564 -0.00469578 -0.00413532 -0.00356426 -0.00298259 -0.00239031 -0.00183008 -0.00134455 -0.000933716 -0.000597578 -0.000336138 -0.000149395 -3.73486e-05 0 0 -9.08849e-06 -3.63539e-05 -8.17964e-05 -0.000145416 -0.000227212 -0.000327186 -0.000445336 -0.000581663 -0.000756099 -0.000988576 -0.00127909 -0.00162765 -0.00203425 -0.00249889 -0.00302156 -0.00360228 -0.0042389 -0.00492927 -0.0056734 -0.00647128 -0.00732292 -0.00822831 -0.00918745 -0.0102004 -0.0112302 -0.0122401 -0.0132301 -0.0142003 -0.0151505 -0.0160808 -0.0169913 -0.0178818 -0.0186999 -0.0193929 -0.019961 -0.020404 -0.0207219 -0.0209149 -0.0209828 -0.0209257 -0.0207672 -0.0205309 -0.0202167 -0.0198247 -0.0193549 -0.0188072 -0.0181818 -0.0174785 -0.0167641 -0.0161053 -0.0155022 -0.0149547 -0.0144629 -0.0140266 -0.013646 -0.0133211 -0.0130167 -0.0126979 -0.0123645 -0.0120168 -0.0116545 -0.0112778 -0.0108866 -0.010481 -0.00996259 -0.00923326 -0.00829298 -0.00714173 -0.00577953 -0.00420636 -0.00242224 -0.000427153 0.00169851 0.00387436 0.00610041 0.00837665 0.0107031 0.0130797 0.0155065 0.0179835 0.0203242 0.0223421 0.0240371 0.0254093 0.0264587 0.0271853 0.027589 0.0276699 0.027435 0.0268913 0.0260387 0.0248774 0.0234072 0.0216282 0.0195404 0.0171437 0.0146331 0.0122032 0.00985408 0.00758573 0.00539815 0.00329134 0.0012653 -0.000679965 -0.00244412 -0.00392682 -0.00512807 -0.00604786 -0.0066862 -0.00704308 -0.00711851 -0.00691248 -0.00654423 -0.00613299 -0.00567876 -0.00518153 -0.00464132 -0.00405811 -0.00343192 -0.00276273 -0.00211522 -0.00155404 -0.00107919 -0.000690683 -0.000388509 -0.000172671 -4.31677e-05 0 0 -1.21365e-05 -4.85458e-05 -0.000109228 -0.000194183 -0.000303412 -0.000436913 -0.000594687 -0.000776734 -0.00100309 -0.00129378 -0.00164881 -0.00206818 -0.00255189 -0.00309994 -0.00371233 -0.00438906 -0.00512465 -0.00591362 -0.00675596 -0.00765168 -0.00860078 -0.00960326 -0.0106591 -0.0117683 -0.0128922 -0.013992 -0.0150676 -0.0161191 -0.0171465 -0.0181498 -0.019129 -0.0200841 -0.0209594 -0.0216993 -0.0223038 -0.0227728 -0.0231065 -0.0233048 -0.0233676 -0.0232951 -0.0231156 -0.0228575 -0.0225209 -0.0221057 -0.0216119 -0.0210397 -0.0203888 -0.0196595 -0.0189209 -0.0182424 -0.0176241 -0.0170658 -0.0165677 -0.0161297 -0.0157518 -0.015434 -0.0151166 -0.0147399 -0.0143039 -0.0138085 -0.0132538 -0.0126398 -0.0119665 -0.0112338 -0.0103125 -0.00907349 -0.00751663 -0.00564196 -0.00344947 -0.000939168 0.00188894 0.00503487 0.00837412 0.0117822 0.0152592 0.018805 0.0224196 0.0261031 0.0298554 0.0336766 0.0372853 0.0404 0.0430207 0.0451476 0.0467804 0.0479194 0.0485644 0.0487154 0.0483821 0.047574 0.0462911 0.0445333 0.0423007 0.0395933 0.0364111 0.0327541 0.0289124 0.0251761 0.0215452 0.0180197 0.0145996 0.0112849 0.0080757 0.00497186 0.00211861 -0.000338868 -0.00240057 -0.00406651 -0.00533667 -0.00621106 -0.00668968 -0.00677252 -0.00661536 -0.00637394 -0.00604828 -0.00563836 -0.00514419 -0.00456577 -0.0039031 -0.00315618 -0.00241645 -0.00177535 -0.00123288 -0.000789046 -0.000443838 -0.000197261 -4.93154e-05 0 0 -1.56802e-05 -6.27208e-05 -0.000141122 -0.000250883 -0.000392005 -0.000564487 -0.00076833 -0.00100353 -0.00128972 -0.0016465 -0.00207389 -0.00257188 -0.00314047 -0.00377967 -0.00448946 -0.00526986 -0.00611129 -0.00700417 -0.00794851 -0.00894431 -0.00999156 -0.0110903 -0.0122404 -0.0134421 -0.014655 -0.0158391 -0.0169944 -0.0181209 -0.0192186 -0.0202874 -0.0213275 -0.0223387 -0.0232631 -0.0240425 -0.0246769 -0.0251665 -0.0255111 -0.0257107 -0.0257654 -0.0256752 -0.0254738 -0.0251951 -0.0248391 -0.0244057 -0.0238949 -0.0233068 -0.0226414 -0.0218986 -0.0211492 -0.020464 -0.019843 -0.0192862 -0.0187936 -0.0183651 -0.0180009 -0.0177008 -0.0173755 -0.0169355 -0.0163807 -0.0157113 -0.0149271 -0.0140283 -0.0130147 -0.0118865 -0.0104784 -0.00862531 -0.0063273 -0.00358434 -0.000396431 0.00323644 0.00731426 0.011837 0.0166276 0.0215089 0.0264809 0.0315435 0.0366968 0.0419409 0.0472756 0.0527009 0.0578227 0.0622465 0.0659723 0.0690002 0.0713302 0.0729622 0.0738962 0.0741323 0.073683 0.0725609 0.0707659 0.068298 0.0651573 0.0613438 0.0568575 0.0516982 0.0462695 0.0409747 0.0358137 0.0307866 0.0258934 0.021134 0.0165085 0.0120168 0.00785725 0.00422796 0.00112897 -0.00143974 -0.00347816 -0.0049863 -0.00596414 -0.0064117 -0.00652692 -0.00650775 -0.0063542 -0.00606626 -0.00564394 -0.00508724 -0.00439615 -0.00357067 -0.0027338 -0.0020085 -0.00139479 -0.000892668 -0.000502126 -0.000223167 -5.57918e-05 0 0 -1.97197e-05 -7.88788e-05 -0.000177477 -0.000315515 -0.000492993 -0.000709909 -0.000966266 -0.00126206 -0.00161599 -0.00204675 -0.00255433 -0.00313875 -0.00379999 -0.00453806 -0.00535295 -0.00624468 -0.00719881 -0.00820094 -0.00925105 -0.0103492 -0.0114953 -0.0126893 -0.0139314 -0.0152215 -0.0165185 -0.0177816 -0.0190106 -0.0202057 -0.0213667 -0.0224937 -0.0235867 -0.0246457 -0.0256109 -0.0264225 -0.0270805 -0.0275848 -0.0279356 -0.0281327 -0.0281762 -0.0280661 -0.0278421 -0.0275438 -0.0271714 -0.0267247 -0.0262038 -0.0256087 -0.0249394 -0.0241958 -0.0234491 -0.0227702 -0.0221591 -0.0216159 -0.0211406 -0.0207331 -0.0203934 -0.0201216 -0.0197934 -0.0192846 -0.0185952 -0.0177251 -0.0166745 -0.0154433 -0.0140314 -0.012439 -0.01046 -0.00788872 -0.004725 -0.000968903 0.00337958 0.00832045 0.0138537 0.0199793 0.026459 0.0330544 0.0397655 0.0465923 0.0535348 0.060593 0.0677669 0.0750564 0.0819365 0.0878816 0.0928919 0.0969673 0.100108 0.102314 0.103585 0.103921 0.103338 0.101852 0.0994632 0.0961716 0.0919771 0.0868797 0.0808794 0.0739761 0.0667045 0.0595991 0.0526597 0.0458865 0.0392794 0.0328385 0.0265636 0.0204549 0.0147718 0.00977367 0.00546055 0.00183243 -0.00111069 -0.0033688 -0.0049419 -0.00583 -0.00627891 -0.00653441 -0.00659653 -0.00646525 -0.00614058 -0.00562251 -0.00491105 -0.0040062 -0.00306725 -0.00225349 -0.00156492 -0.00100155 -0.000563372 -0.000250387 -6.25968e-05 0 0 -2.4131e-05 -9.6524e-05 -0.000217179 -0.000386096 -0.000603275 -0.000868716 -0.00118242 -0.00154438 -0.00196968 -0.00247337 -0.00305546 -0.00371595 -0.00445484 -0.00527212 -0.0061678 -0.00714188 -0.00817182 -0.00923509 -0.0103317 -0.0114616 -0.0126249 -0.0138215 -0.0150514 -0.0163147 -0.0175738 -0.0187913 -0.0199673 -0.0211016 -0.0221944 -0.0232455 -0.0242551 -0.0252231 -0.026098 -0.0268282 -0.0274137 -0.0278545 -0.0281506 -0.0283021 -0.0283089 -0.028171 -0.0279347 -0.0276461 -0.0273052 -0.026912 -0.0264666 -0.0259689 -0.0254189 -0.0248166 -0.0242219 -0.0236946 -0.0232346 -0.022842 -0.0225168 -0.022259 -0.0220685 -0.0219454 -0.0217204 -0.0212244 -0.0204573 -0.0194191 -0.0181099 -0.0165295 -0.0146781 -0.0125557 -0.0099129 -0.00650063 -0.00231885 0.00263244 0.00835324 0.0148435 0.0221034 0.0301327 0.0386112 0.0472185 0.0559545 0.0648194 0.0738131 0.0829355 0.0921868 0.101567 0.110412 0.118057 0.124504 0.129751 0.133799 0.136647 0.138297 0.138747 0.138018 0.13613 0.133082 0.128876 0.12351 0.116985 0.109301 0.100457 0.0911272 0.0819828 0.073024 0.064251 0.0556636 0.047262 0.0390461 0.0310159 0.0235109 0.0168707 0.0110951 0.00618423 0.00213807 -0.00104339 -0.00336015 -0.0048122 -0.0056987 -0.00631882 -0.00667256 -0.00675992 -0.00658089 -0.00613547 -0.00542367 -0.00444549 -0.00340358 -0.00250059 -0.00173652 -0.00111137 -0.000625147 -0.000277843 -6.94608e-05 0 0 -2.87901e-05 -0.00011516 -0.000259111 -0.000460642 -0.000719753 -0.00103644 -0.00141072 -0.00184257 -0.00233855 -0.00290523 -0.0035426 -0.00425066 -0.00502942 -0.00587886 -0.00679899 -0.00778982 -0.0088149 -0.00983782 -0.0108586 -0.0118771 -0.0128935 -0.0139077 -0.0149198 -0.0159296 -0.0169117 -0.0178402 -0.0187153 -0.019537 -0.0203051 -0.0210198 -0.021681 -0.0222888 -0.0228191 -0.0232481 -0.0235757 -0.0238019 -0.0239268 -0.0239503 -0.0238725 -0.0236933 -0.0234661 -0.0232443 -0.0230279 -0.0228168 -0.0226112 -0.0224109 -0.022216 -0.0220265 -0.0218692 -0.0217709 -0.0217317 -0.0217516 -0.0218304 -0.0219683 -0.0221653 -0.0224213 -0.0225068 -0.0221921 -0.0214772 -0.0203622 -0.0188471 -0.0169318 -0.0146164 -0.0119008 -0.00849224 -0.00409798 0.00128202 0.00764774 0.0149992 0.0233364 0.0326593 0.042968 0.0538269 0.0648007 0.0758894 0.087093 0.0984114 0.109845 0.121393 0.133056 0.144034 0.153526 0.161532 0.168053 0.173088 0.176637 0.178701 0.179279 0.178397 0.176078 0.172323 0.167133 0.160507 0.152444 0.142946 0.132012 0.120447 0.109059 0.0978474 0.0868116 0.0759519 0.0652683 0.0547609 0.0444296 0.0347234 0.0260914 0.0185335 0.0120499 0.0066404 0.00230509 -0.00095606 -0.00314303 -0.00461369 -0.00572588 -0.00647961 -0.00687487 -0.00691167 -0.00659001 -0.00590988 -0.00487129 -0.00372958 -0.0027401 -0.00190285 -0.00121782 -0.000685026 -0.000304456 -7.6114e-05 0 0 -3.3697e-05 -0.000134788 -0.000303273 -0.000539153 -0.000842426 -0.00121309 -0.00165115 -0.00215661 -0.00272262 -0.00334233 -0.00401576 -0.00474289 -0.00552373 -0.00635828 -0.00724654 -0.0081885 -0.00912806 -0.0100091 -0.0108316 -0.0115956 -0.0123011 -0.012948 -0.0135365 -0.0140664 -0.0145322 -0.0149284 -0.0152549 -0.0155118 -0.015699 -0.0158165 -0.0158644 -0.0158427 -0.0157743 -0.0156822 -0.0155665 -0.0154271 -0.015264 -0.0150773 -0.0148669 -0.0146329 -0.0144363 -0.0143385 -0.0143395 -0.0144392 -0.0146376 -0.0149348 -0.0153307 -0.0158254 -0.0163909 -0.0169992 -0.0176504 -0.0183445 -0.0190814 -0.0198612 -0.0206839 -0.0215494 -0.0221524 -0.0221877 -0.021655 -0.0205546 -0.0188863 -0.0166501 -0.0138461 -0.0104743 -0.00619806 -0.000680751 0.00607761 0.014077 0.0233175 0.033799 0.0455215 0.0584851 0.0721062 0.0858013 0.0995702 0.113413 0.12733 0.141321 0.155385 0.169524 0.182802 0.194287 0.203977 0.211873 0.217975 0.222283 0.224797 0.225517 0.224473 0.221696 0.217186 0.210943 0.202966 0.193257 0.181814 0.168639 0.154665 0.140829 0.12713 0.113568 0.100144 0.0868573 0.0737079 0.0606958 0.0484091 0.0374358 0.0277759 0.0194294 0.0123963 0.00667664 0.00227036 -0.000822511 -0.00302386 -0.00475558 -0.00601767 -0.00681012 -0.00713294 -0.00698613 -0.00636968 -0.0052836 -0.00404525 -0.00297202 -0.0020639 -0.0013209 -0.000743006 -0.000330225 -8.25562e-05 0 0 -3.88518e-05 -0.000155407 -0.000349666 -0.000621628 -0.000971294 -0.00139866 -0.00190374 -0.00248651 -0.00312187 -0.00378467 -0.00447492 -0.00519262 -0.00593778 -0.00671038 -0.00751043 -0.00833793 -0.0091113 -0.00974896 -0.0102509 -0.0106171 -0.0108476 -0.0109425 -0.0109015 -0.0107249 -0.0104354 -0.0100557 -0.0095859 -0.00902597 -0.0083759 -0.00763571 -0.00680539 -0.00588493 -0.00496361 -0.0041307 -0.00338619 -0.00273009 -0.00216239 -0.00168309 -0.0012922 -0.000989716 -0.000845336 -0.000928766 -0.00124001 -0.00177905 -0.00254591 -0.00354058 -0.00476306 -0.00621335 -0.00778695 -0.0093794 -0.0109907 -0.0126208 -0.0142698 -0.0159375 -0.0176242 -0.0193296 -0.0206574 -0.0212111 -0.0209906 -0.019996 -0.0182273 -0.0156844 -0.0123674 -0.0082763 -0.00303036 0.00375105 0.0120679 0.0219203 0.0333081 0.0462313 0.0606901 0.0766843 0.0934492 0.11022 0.126997 0.14378 0.160568 0.177363 0.194164 0.21097 0.226717 0.24034 0.251838 0.261212 0.268461 0.273585 0.276585 0.27746 0.276247 0.272984 0.26767 0.260305 0.25089 0.239423 0.225906 0.210339 0.19378 0.177291 0.160871 0.144521 0.12824 0.112029 0.0958872 0.0798147 0.0645681 0.0509039 0.0388221 0.0283228 0.0194