<?xml version="1.0"?> 
<VTKFile type="StructuredGrid" version="0.1"> 
<StructuredGrid WholeExtent="0 128 0 128 0 0"> 
<Piece Extent="0 128 0 128 0 0"> 
<PointData>
<DataArray type="Float32" Name="u" format="ascii" NumberOfComponents="1"> 
0 0 0 0 0 0 0 0 0 0 0 0 0 0 0 0 0 0 0 0 0 0 0 0 0 0 0 0 0 0 0 0 0 0 0 0 0 0 0 0 0 0 0 0 0 0 0 0 0 0 0 0 0 0 0 0 0 0 0 0 0 0 0 0 0 0 0 0 0 0 0 0 0 0 0 0 0 0 0 0 0 0 0 0 0 0 0 0 0 0 0 0 0 0 0 0 0 0 0 0 0 0 0 0 0 0 0 0 0 0 0 0 0 0 0 0 0 0 0 0 0 0 0 0 0 0 0 0 0 0 -7.43191e-09 -2.97276e-08 -6.68872e-08 -1.18911e-07 -1.85798e-07 -2.67549e-07 -3.64164e-07 -4.75642e-07 -8.02934e-07 -1.54699e-06 -2.70781e-06 -4.28539e-06 -6.27973e-06 -8.69083e-06 -1.15187e-05 -1.47633e-05 -1.84766e-05 -2.27103e-05 -2.74645e-05 -3.27393e-05 -3.85345e-05 -4.48501e-05 -5.16863e-05 -5.9043e-05 -6.66131e-05 -7.40896e-05 -8.14725e-05 -8.87618e-05 -9.59576e-05 -0.00010306 -0.000110068 -0.000116983 -0.000123376 -0.000128819 -0.000133312 -0.000136854 -0.000139446 -0.000141088 -0.000141779 -0.00014152 -0.000140433 -0.000138637 -0.000136133 -0.000132921 -0.000129001 -0.000124373 -0.000119037 -0.000112994 -0.000106829 -0.000101132 -9.59026e-05 -9.114e-05 -8.68446e-05 -8.30163e-05 -7.96553e-05 -7.67615e-05 -7.45286e-05 -7.31507e-05 -7.26276e-05 -7.29594e-05 -7.4146e-05 -7.61875e-05 -7.90839e-05 -8.28352e-05 -8.72495e-05 -9.21353e-05 -9.74924e-05 -0.000103321 -0.000109621 -0.000116392 -0.000123635 -0.000131349 -0.000139327 -0.000147362 -0.000155454 -0.000163603 -0.000171809 -0.000180072 -0.000188392 -0.000196769 -0.000204667 -0.00021155 -0.000217419 -0.000222273 -0.000226113 -0.000228939 -0.00023075 -0.000231546 -0.000231336 -0.000230126 -0.000227917 -0.000224709 -0.000220501 -0.000215295 -0.000209089 -0.000201884 -0.000194146 -0.000186342 -0.000178472 -0.000170536 -0.000162533 -0.000154465 -0.00014633 -0.000138129 -0.000129874 -0.000121577 -0.000113238 -0.000104857 -9.64343e-05 -8.79696e-05 -7.94631e-05 -7.09146e-05 -6.25945e-05 -5.47731e-05 -4.74505e-05 -4.06266e-05 -3.43015e-05 -2.8475e-05 -2.31473e-05 -1.83184e-05 -1.4025e-05 -1.03041e-05 -7.15562e-06 -4.57959e-06 -2.57602e-06 -1.1449e-06 -2.86225e-07 0 0 -2.97276e-08 -1.18911e-07 -2.67549e-07 -4.75642e-07 -7.43191e-07 -1.07019e-06 -1.45665e-06 -1.90257e-06 -3.21174e-06 -6.18795e-06 -1.08312e-05 -1.71415e-05 -2.51189e-05 -3.47633e-05 -4.60748e-05 -5.90533e-05 -7.39063e-05 -9.08413e-05 -0.000109858 -0.000130957 -0.000154138 -0.000179401 -0.000206745 -0.000236172 -0.000266452 -0.000296358 -0.00032589 -0.000355047 -0.00038383 -0.000412239 -0.000440273 -0.000467933 -0.000493505 -0.000515277 -0.000533247 -0.000547416 -0.000557784 -0.000564351 -0.000567117 -0.000566082 -0.00056173 -0.000554547 -0.000544531 -0.000531684 -0.000516004 -0.000497493 -0.00047615 -0.000451974 -0.000427318 -0.00040453 -0.00038361 -0.00036456 -0.000347378 -0.000332065 -0.000318621 -0.000307046 -0.000298115 -0.000292603 -0.00029051 -0.000291838 -0.000296584 -0.00030475 -0.000316336 -0.000331341 -0.000348998 -0.000368541 -0.00038997 -0.000413284 -0.000438483 -0.000465569 -0.00049454 -0.000525396 -0.000557309 -0.000589449 -0.000621818 -0.000654414 -0.000687237 -0.000720289 -0.000753568 -0.000787074 -0.000818666 -0.0008462 -0.000869675 -0.000889093 -0.000904453 -0.000915754 -0.000922998 -0.000926184 -0.000925342 -0.000920503 -0.000911668 -0.000898835 -0.000882006 -0.000861179 -0.000836356 -0.000807536 -0.000776584 -0.000745369 -0.000713888 -0.000682143 -0.000650133 -0.000617858 -0.000585319 -0.000552515 -0.000519495 -0.000486307 -0.000452951 -0.000419428 -0.000385737 -0.000351879 -0.000317852 -0.000283658 -0.000250378 -0.000219093 -0.000189802 -0.000162506 -0.000137206 -0.0001139 -9.25894e-05 -7.32735e-05 -5.61e-05 -4.12163e-05 -2.86225e-05 -1.83184e-05 -1.03041e-05 -4.57959e-06 -1.1449e-06 0 0 -6.68872e-08 -2.67549e-07 -6.01985e-07 -1.07019e-06 -1.67218e-06 -2.40794e-06 -3.27747e-06 -4.28078e-06 -7.22641e-06 -1.39229e-05 -2.43702e-05 -3.85685e-05 -5.65175e-05 -7.82175e-05 -0.000103668 -0.00013287 -0.000166289 -0.000204393 -0.000247181 -0.000294653 -0.00034681 -0.000403651 -0.000465177 -0.000531387 -0.000599517 -0.000666806 -0.000733252 -0.000798856 -0.000863618 -0.000927538 -0.000990615 -0.00105285 -0.00111039 -0.00115937 -0.00119981 -0.00123169 -0.00125501 -0.00126979 -0.00127601 -0.00127368 -0.00126389 -0.00124773 -0.00122519 -0.00119629 -0.00116101 -0.00111936 -0.00107134 -0.00101694 -0.000961465 -0.000910192 -0.000863123 -0.00082026 -0.000781601 -0.000747147 -0.000716898 -0.000690853 -0.000670758 -0.000658356 -0.000653648 -0.000656634 -0.000667314 -0.000685688 -0.000711755 -0.000745516 -0.000785246 -0.000829218 -0.000877432 -0.000929889 -0.000986588 -0.00104753 -0.00111271 -0.00118214 -0.00125394 -0.00132626 -0.00139909 -0.00147243 -0.00154628 -0.00162065 -0.00169553 -0.00177092 -0.001842 -0.00190395 -0.00195677 -0.00200046 -0.00203502 -0.00206045 -0.00207675 -0.00208391 -0.00208202 -0.00207113 -0.00205125 -0.00202238 -0.00198451 -0.00193765 -0.0018818 -0.00181696 -0.00174731 -0.00167708 -0.00160625 -0.00153482 -0.0014628 -0.00139018 -0.00131697 -0.00124316 -0.00116886 -0.00109419 -0.00101914 -0.000943713 -0.000867909 -0.000791727 -0.000715168 -0.000638231 -0.00056335 -0.000492958 -0.000427055 -0.00036564 -0.000308713 -0.000256275 -0.000208326 -0.000164865 -0.000126225 -9.27368e-05 -6.44005e-05 -4.12163e-05 -2.31842e-05 -1.03041e-05 -2.57602e-06 0 0 -1.18911e-07 -4.75642e-07 -1.07019e-06 -1.90257e-06 -2.97276e-06 -4.28078e-06 -5.82662e-06 -7.61027e-06 -1.28469e-05 -2.47518e-05 -4.33249e-05 -6.85662e-05 -0.000100476 -0.000139053 -0.000184299 -0.000236213 -0.000295625 -0.000363365 -0.000439433 -0.000523828 -0.000616551 -0.000717602 -0.000826981 -0.000944687 -0.00106581 -0.00118543 -0.00130356 -0.00142019 -0.00153532 -0.00164896 -0.00176109 -0.00187173 -0.00197402 -0.00206111 -0.00213299 -0.00218966 -0.00223114 -0.0022574 -0.00226847 -0.00226433 -0.00224692 -0.00221819 -0.00217812 -0.00212673 -0.00206402 -0.00198997 -0.0019046 -0.0018079 -0.00170927 -0.00161812 -0.00153444 -0.00145824 -0.00138951 -0.00132826 -0.00127448 -0.00122818 -0.00119246 -0.00117041 -0.00116204 -0.00116735 -0.00118634 -0.001219 -0.00126534 -0.00132536 -0.00139599 -0.00147416 -0.00155988 -0.00165314 -0.00175393 -0.00186227 -0.00197816 -0.00210158 -0.00222924 -0.0023578 -0.00248727 -0.00261765 -0.00274895 -0.00288115 -0.00301427 -0.0031483 -0.00327466 -0.0033848 -0.0034787 -0.00355637 -0.00361781 -0.00366302 -0.00369199 -0.00370474 -0.00370137 -0.00368201 -0.00364667 -0.00359534 -0.00352802 -0.00344472 -0.00334542 -0.00323014 -0.00310634 -0.00298147 -0.00285555 -0.00272857 -0.00260053 -0.00247143 -0.00234128 -0.00221006 -0.00207798 -0.00194523 -0.00181181 -0.00167771 -0.00154295 -0.00140751 -0.00127141 -0.00113463 -0.00100151 -0.00087637 -0.000759208 -0.000650026 -0.000548823 -0.0004556 -0.000370357 -0.000293094 -0.0002244 -0.000164865 -0.00011449 -7.32735e-05 -4.12163e-05 -1.83184e-05 -4.57959e-06 0 0 -1.85798e-07 -7.43191e-07 -1.67218e-06 -2.97276e-06 -4.64494e-06 -6.68872e-06 -9.10409e-06 -1.18911e-05 -2.00733e-05 -3.86747e-05 -6.76951e-05 -0.000107135 -0.000156993 -0.000217271 -0.000287968 -0.000369083 -0.000461915 -0.000567758 -0.000686614 -0.000818481 -0.000963361 -0.00112125 -0.00129216 -0.00147607 -0.00166533 -0.00185224 -0.00203681 -0.00221905 -0.00239894 -0.00257649 -0.00275171 -0.00292458 -0.00308441 -0.00322048 -0.00333279 -0.00342135 -0.00348615 -0.00352719 -0.00354448 -0.00353801 -0.00351081 -0.00346592 -0.00340332 -0.00332302 -0.00322503 -0.00310933 -0.00297594 -0.00282484 -0.00267074 -0.00252831 -0.00239757 -0.0022785 -0.00217111 -0.00207541 -0.00199138 -0.00191904 -0.00186322 -0.00182877 -0.00181569 -0.00182398 -0.00185365 -0.00190469 -0.0019771 -0.00207088 -0.00218124 -0.00230338 -0.00243731 -0.00258302 -0.00274052 -0.0029098 -0.00309087 -0.00328372 -0.00348318 -0.00368406 -0.00388636 -0.00409009 -0.00429523 -0.0045018 -0.0047098 -0.00491922 -0.00511666 -0.00528875 -0.00543547 -0.00555683 -0.00565283 -0.00572346 -0.00576874 -0.00578865 -0.00578339 -0.00575315 -0.00569792 -0.00561772 -0.00551254 -0.00538237 -0.00522722 -0.0050471 -0.00485365 -0.00465855 -0.0044618 -0.00426339 -0.00406333 -0.00386161 -0.00365824 -0.00345322 -0.00324684 -0.00303942 -0.00283095 -0.00262143 -0.00241086 -0.00219924 -0.00198658 -0.00177286 -0.00156486 -0.00136933 -0.00118626 -0.00101567 -0.000857536 -0.000711876 -0.000578683 -0.000457959 -0.000350625 -0.000257602 -0.00017889 -0.00011449 -6.44005e-05 -2.86225e-05 -7.15562e-06 0 0 -2.67549e-07 -1.07019e-06 -2.40794e-06 -4.28078e-06 -6.68872e-06 -9.63175e-06 -1.31099e-05 -1.71231e-05 -2.89056e-05 -5.56916e-05 -9.7481e-05 -0.000154274 -0.00022607 -0.00031287 -0.000414673 -0.00053148 -0.000665157 -0.000817572 -0.000988724 -0.00117861 -0.00138724 -0.0016146 -0.00186071 -0.00212555 -0.00239807 -0.00266722 -0.00293301 -0.00319543 -0.00345447 -0.00371015 -0.00396246 -0.0042114 -0.00444155 -0.00463749 -0.00479922 -0.00492674 -0.00502006 -0.00507916 -0.00510405 -0.00509474 -0.00505557 -0.00499092 -0.00490078 -0.00478515 -0.00464404 -0.00447744 -0.00428535 -0.00406777 -0.00384586 -0.00364077 -0.00345249 -0.00328104 -0.0031264 -0.00298859 -0.00286759 -0.00276341 -0.00268303 -0.00263342 -0.00261459 -0.00262654 -0.00266926 -0.00274275 -0.00284702 -0.00298207 -0.00314098 -0.00331687 -0.00350973 -0.00371955 -0.00394635 -0.00419012 -0.00445086 -0.00472856 -0.00501578 -0.00530504 -0.00559636 -0.00588972 -0.00618514 -0.0064826 -0.00678211 -0.00708367 -0.00736799 -0.0076158 -0.00782708 -0.00800184 -0.00814007 -0.00824179 -0.00830698 -0.00833565 -0.00832808 -0.00828453 -0.00820501 -0.00808952 -0.00793805 -0.00775061 -0.0075272 -0.00726782 -0.00698926 -0.00670832 -0.00642499 -0.00613928 -0.0058512 -0.00556072 -0.00526787 -0.00497263 -0.00467545 -0.00437676 -0.00407656 -0.00377485 -0.00347163 -0.00316691 -0.00286067 -0.00255292 -0.0022534 -0.00197183 -0.00170822 -0.00146256 -0.00123485 -0.0010251 -0.000833304 -0.000659462 -0.0005049 -0.000370947 -0.000257602 -0.000164865 -9.27368e-05 -4.12163e-05 -1.03041e-05 0 0 -3.64164e-07 -1.45665e-06 -3.27747e-06 -5.82662e-06 -9.10409e-06 -1.31099e-05 -1.7844e-05 -2.33065e-05 -3.93438e-05 -7.58024e-05 -0.000132682 -0.000209984 -0.000307707 -0.000425851 -0.000564416 -0.000723403 -0.000905353 -0.00111281 -0.00134576 -0.00160422 -0.00188819 -0.00219766 -0.00253263 -0.0028931 -0.00326404 -0.00363039 -0.00399215 -0.00434933 -0.00470192 -0.00504993 -0.00539335 -0.00573218 -0.00604544 -0.00631214 -0.00653227 -0.00670584 -0.00683285 -0.0069133 -0.00694718 -0.0069345 -0.00688119 -0.0067932 -0.00667051 -0.00651312 -0.00632105 -0.00609429 -0.00583283 -0.00553669 -0.00523464 -0.00495549 -0.00469923 -0.00446586 -0.00425538 -0.0040678 -0.00390311 -0.00376131 -0.0036519 -0.00358438 -0.00355875 -0.00357501 -0.00363316 -0.00373319 -0.00387511 -0.00405892 -0.00427523 -0.00451463 -0.00477713 -0.00506273 -0.00537142 -0.00570322 -0.00605811 -0.0064361 -0.00682703 -0.00722076 -0.00761727 -0.00801657 -0.00841866 -0.00882354 -0.00923121 -0.00964166 -0.0100287 -0.0103659 -0.0106535 -0.0108914 -0.0110795 -0.011218 -0.0113067 -0.0113458 -0.0113354 -0.0112762 -0.0111679 -0.0110107 -0.0108046 -0.0105494 -0.0102454 -0.00989231 -0.00951316 -0.00913076 -0.00874513 -0.00835625 -0.00796413 -0.00756876 -0.00717016 -0.00676831 -0.00636381 -0.00595726 -0.00554865 -0.00513799 -0.00472528 -0.00431051 -0.00389369 -0.00347481 -0.00306713 -0.00268388 -0.00232507 -0.0019907 -0.00168077 -0.00139528 -0.00113422 -0.0008976 -0.000687225 -0.0005049 -0.000350625 -0.0002244 -0.000126225 -5.61e-05 -1.4025e-05 0 0 -4.75642e-07 -1.90257e-06 -4.28078e-06 -7.61027e-06 -1.18911e-05 -1.71231e-05 -2.33065e-05 -3.04411e-05 -5.13878e-05 -9.90073e-05 -0.0001733 -0.000274265 -0.000401903 -0.000556213 -0.000737197 -0.000944853 -0.0011825 -0.00145346 -0.00175773 -0.00209531 -0.00246621 -0.00287041 -0.00330792 -0.00377875 -0.00426324 -0.00474173 -0.00521424 -0.00568076 -0.00614129 -0.00659582 -0.00704437 -0.00748693 -0.00789609 -0.00824443 -0.00853195 -0.00875865 -0.00892454 -0.00902961 -0.00907387 -0.00905731 -0.00898768 -0.00887274 -0.0087125 -0.00850694 -0.00825607 -0.00795989 -0.00761839 -0.00723159 -0.00683708 -0.00647247 -0.00613777 -0.00583296 -0.00555805 -0.00531305 -0.00509794 -0.00491273 -0.00476983 -0.00468164 -0.00464817 -0.0046694 -0.00474535 -0.004876 -0.00506137 -0.00530145 -0.00558397 -0.00589666 -0.00623951 -0.00661254 -0.00701574 -0.0074491 -0.00791263 -0.00840633 -0.00891694 -0.00943119 -0.00994908 -0.0104706 -0.0109958 -0.0115246 -0.0120571 -0.0125932 -0.0130987 -0.0135392 -0.0139148 -0.0142255 -0.0144712 -0.0146521 -0.014768 -0.0148189 -0.0148055 -0.0147281 -0.0145867 -0.0143814 -0.0141121 -0.0137789 -0.0133817 -0.0129206 -0.0124254 -0.0119259 -0.0114222 -0.0109143 -0.0104021 -0.00988573 -0.0093651 -0.00884024 -0.00831192 -0.00778091 -0.00724722 -0.00671085 -0.00617179 -0.00563006 -0.00508564 -0.00453853 -0.00400605 -0.00350548 -0.00303683 -0.0026001 -0.00219529 -0.0018224 -0.00148143 -0.00117238 -0.0008976 -0.000659462 -0.000457959 -0.000293094 -0.000164865 -7.32735e-05 -1.83184e-05 0 0 -8.74087e-07 -3.49635e-06 -7.86679e-06 -1.39854e-05 -2.18522e-05 -3.14671e-05 -4.28303e-05 -5.59416e-05 -8.65824e-05 -0.000150534 -0.000247796 -0.000378369 -0.000542253 -0.000739447 -0.000969952 -0.00123377 -0.00153474 -0.00187671 -0.00225969 -0.00268366 -0.00314864 -0.00365461 -0.00420159 -0.00478957 -0.00539427 -0.00599141 -0.00658098 -0.007163 -0.00773745 -0.00830434 -0.00886367 -0.00941544 -0.00992544 -0.0103595 -0.0107175 -0.0109996 -0.0112058 -0.0113359 -0.0113901 -0.0113684 -0.0112806 -0.0111369 -0.0109372 -0.0106816 -0.01037 -0.0100024 -0.00957885 -0.00909932 -0.00861048 -0.00815896 -0.00774476 -0.00736789 -0.00702834 -0.00672611 -0.00646121 -0.00623363 -0.00605611 -0.00594137 -0.00588943 -0.00590026 -0.00597389 -0.0061103 -0.0063095 -0.00657148 -0.00687853 -0.0072129 -0.00757461 -0.00796365 -0.00838003 -0.00882373 -0.00929477 -0.00979314 -0.0103071 -0.010825 -0.0113468 -0.0118726 -0.0124022 -0.0129357 -0.0134732 -0.0140145 -0.0145254 -0.0149714 -0.0153525 -0.0156687 -0.0159201 -0.0161065 -0.0162281 -0.0162848 -0.016277 -0.0162051 -0.0160689 -0.0158686 -0.0156041 -0.0152754 -0.0148826 -0.0144256 -0.0139333 -0.0134347 -0.0129297 -0.0124184 -0.0119007 -0.0113767 -0.0108464 -0.0103097 -0.00976293 -0.00920251 -0.0086284 -0.00804058 -0.00743907 -0.00682387 -0.00619496 -0.00555236 -0.00492042 -0.0043235 -0.00376159 -0.0032347 -0.00274282 -0.00228596 -0.00186412 -0.00147729 -0.00113105 -0.000830974 -0.000577065 -0.000369322 -0.000207744 -9.23305e-05 -2.30826e-05 0 0 -1.8316e-06 -7.32641e-06 -1.64844e-05 -2.93056e-05 -4.57901e-05 -6.59377e-05 -8.97485e-05 -0.000117223 -0.000166472 -0.00025561 -0.000384636 -0.00055355 -0.000762352 -0.00101104 -0.00129962 -0.00162809 -0.00200021 -0.00241974 -0.00288669 -0.00340105 -0.00396283 -0.00457203 -0.00522864 -0.00593267 -0.00665576 -0.00736957 -0.0080741 -0.00876934 -0.00945531 -0.010132 -0.0107994 -0.0114575 -0.0120655 -0.0125824 -0.0130084 -0.0133433 -0.0135872 -0.0137401 -0.013802 -0.0137729 -0.0136656 -0.0134931 -0.0132552 -0.0129521 -0.0125837 -0.01215 -0.011651 -0.0110867 -0.0105121 -0.00998217 -0.00949686 -0.00905619 -0.00866017 -0.00830879 -0.00800206 -0.00773997 -0.00753003 -0.00737974 -0.00728912 -0.00725815 -0.00728684 -0.00737519 -0.00752319 -0.00773085 -0.00797021 -0.00821331 -0.00846014 -0.00871072 -0.00896503 -0.00922308 -0.00948488 -0.00975041 -0.0100192 -0.010291 -0.0105656 -0.0108431 -0.0111234 -0.0114067 -0.0116928 -0.0119819 -0.0122562 -0.0124983 -0.0127081 -0.0128856 -0.0130309 -0.0131439 -0.0132246 -0.0132731 -0.013289 -0.0132721 -0.0132223 -0.0131396 -0.013024 -0.0128757 -0.0126944 -0.0124803 -0.0122444 -0.011998 -0.0117411 -0.0114736 -0.0111955 -0.0109068 -0.0106076 -0.0102978 -0.00996003 -0.00957687 -0.00914831 -0.00867435 -0.00815501 -0.00759026 -0.00698012 -0.00632459 -0.00566053 -0.00502482 -0.00441746 -0.00383844 -0.00328777 -0.00276544 -0.00227146 -0.00180583 -0.00138259 -0.00101578 -0.000705403 -0.000451458 -0.000253945 -0.000112865 -2.82161e-05 0 0 -3.34819e-06 -1.33927e-05 -3.01337e-05 -5.3571e-05 -8.37047e-05 -0.000120535 -0.000164061 -0.000214284 -0.000291057 -0.000414236 -0.000583819 -0.000799807 -0.0010622 -0.001371 -0.0017262 -0.00212781 -0.0025789 -0.00308254 -0.00363873 -0.00424749 -0.00490879 -0.00562265 -0.00638906 -0.00720803 -0.0080477 -0.00887622 -0.00969358 -0.0104998 -0.0112949 -0.0120788 -0.0128515 -0.0136131 -0.0143162 -0.0149133 -0.0154044 -0.0157896 -0.0160689 -0.0162422 -0.0163095 -0.0162709 -0.0161427 -0.0159412 -0.0156665 -0.0153185 -0.0148972 -0.0144027 -0.0138349 -0.0131938 -0.012542 -0.0119421 -0.0113941 -0.0108979 -0.0104535 -0.0100611 -0.00972048 -0.00943173 -0.00919158 -0.00899675 -0.00884725 -0.00874306 -0.0086842 -0.00867066 -0.00870245 -0.00877956 -0.00885902 -0.00889787 -0.00889611 -0.00885373 -0.00877075 -0.00864715 -0.00848295 -0.00827813 -0.00805328 -0.00782901 -0.0076053 -0.00738215 -0.00715957 -0.00693756 -0.00671612 -0.00649524 -0.0062911 -0.00611987 -0.00598156 -0.00587616 -0.00580367 -0.00576409 -0.00575743 -0.00578367 -0.00584137 -0.00592904 -0.0060467 -0.00619434 -0.00637195 -0.00657955 -0.00681713 -0.0070847 -0.0073588 -0.00761602 -0.00785635 -0.00807979 -0.00828634 -0.008476 -0.00864877 -0.00880465 -0.0089032 -0.00890397 -0.00880696 -0.00861217 -0.0083196 -0.00792925 -0.00744112 -0.00685521 -0.00622637 -0.00560944 -0.00500442 -0.00441132 -0.00383012 -0.00326084 -0.00270347 -0.00215801 -0.00165223 -0.00121388 -0.000842973 -0.000539503 -0.00030347 -0.000134876 -3.37189e-05 0 0 -5.42384e-06 -2.16954e-05 -4.88146e-05 -8.67814e-05 -0.000135596 -0.000195258 -0.000265768 -0.000347126 -0.000460338 -0.000626411 -0.000845345 -0.00111714 -0.0014418 -0.00181932 -0.00224969 -0.00273293 -0.00327081 -0.00386511 -0.00451583 -0.00522296 -0.00598651 -0.00680648 -0.00768286 -0.00861567 -0.00957009 -0.0105113 -0.0114394 -0.0123543 -0.0132561 -0.0141447 -0.0150201 -0.0158823 -0.0166775 -0.017352 -0.0179057 -0.0183386 -0.0186507 -0.0188421 -0.0189126 -0.0188624 -0.0187118 -0.0184814 -0.018171 -0.0177807 -0.0173105 -0.0167604 -0.0161304 -0.0154205 -0.0147002 -0.0140388 -0.0134364 -0.0128929 -0.0124085 -0.011983 -0.0116165 -0.0113089 -0.0110408 -0.0107924 -0.0105638 -0.010355 -0.010166 -0.00999673 -0.00984727 -0.0097176 -0.00954495 -0.00926659 -0.00888251 -0.0083927 -0.00779718 -0.00709594 -0.00628898 -0.0053763 -0.00440923 -0.00343913 -0.00246599 -0.0014898 -0.000510579 0.000471687 0.00145699 0.00244534 0.00336988 0.00416377 0.00482701 0.00535959 0.00576152 0.0060328 0.00617343 0.0061834 0.00606587 0.00582399 0.00545774 0.00496714 0.00435218 0.00361287 0.0027492 0.00176117 0.000723627 -0.000288598 -0.0012755 -0.00223709 -0.00317336 -0.0040843 -0.00496993 -0.00583023 -0.00659245 -0.00718382 -0.00760435 -0.00785402 -0.00793285 -0.00784083 -0.00757795 -0.00714423 -0.00661794 -0.00607736 -0.0055225 -0.00495334 -0.00436989 -0.00377216 -0.00316014 -0.00253383 -0.00193996 -0.00142528 -0.000989776 -0.000633456 -0.000356319 -0.000158364 -3.9591e-05 0 0 -8.05856e-06 -3.22343e-05 -7.25271e-05 -0.000128937 -0.000201464 -0.000290108 -0.00039487 -0.000515748 -0.000674314 -0.000892136 -0.00116922 -0.00150555 -0.00190114 -0.00235599 -0.0028701 -0.00344346 -0.00407596 -0.00476746 -0.00551796 -0.00632748 -0.00719599 -0.00812351 -0.00911004 -0.0101556 -0.0112229 -0.012275 -0.0133117 -0.014333 -0.015339 -0.0163297 -0.017305 -0.018265 -0.0191496 -0.0198986 -0.0205122 -0.0209902 -0.0213328 -0.0215398 -0.0216113 -0.0215474 -0.021373 -0.0211135 -0.0207687 -0.0203388 -0.0198236 -0.0192233 -0.0185377 -0.017767 -0.0169866 -0.0162722 -0.0156238 -0.0150414 -0.0145249 -0.0140745 -0.01369 -0.0133716 -0.0130776 -0.0127667 -0.0124388 -0.012094 -0.0117322 -0.0113534 -0.0109577 -0.010545 -0.010028 -0.00931947 -0.00841934 -0.00732763 -0.00604433 -0.00456944 -0.00290297 -0.00104492 0.000912895 0.00287865 0.00485234 0.00683397 0.00882354 0.0108211 0.0128265 0.0148399 0.0167268 0.0183527 0.0197177 0.0208217 0.0216647 0.0222468 0.022568 0.0226281 0.0224327 0.021987 0.0212911 0.0203449 0.0191484 0.0177016 0.0160046 0.0140573 0.0120028 0.00998422 0.00800146 0.00605455 0.00414349 0.00226829 0.000428955 -0.00137453 -0.00302778 -0.00441643 -0.00554048 -0.00639992 -0.00699476 -0.00732499 -0.00739062 -0.00719165 -0.00683524 -0.00642859 -0.00597167 -0.0054645 -0.00490708 -0.0042994 -0.00364146 -0.00293327 -0.00224579 -0.00164997 -0.00114581 -0.000733318 -0.000412492 -0.00018333 -4.58324e-05 0 0 -1.12524e-05 -4.50094e-05 -0.000101271 -0.000180038 -0.000281309 -0.000405085 -0.000551365 -0.000720151 -0.000932985 -0.00121141 -0.00155543 -0.00196504 -0.00244024 -0.00298103 -0.00358742 -0.0042594 -0.00499433 -0.00578958 -0.00664515 -0.00756103 -0.00853724 -0.00957376 -0.0106706 -0.0118278 -0.0130062 -0.0141671 -0.0153102 -0.0164358 -0.0175436 -0.0186338 -0.0197064 -0.0207613 -0.0217323 -0.0225532 -0.0232239 -0.0237446 -0.0241151 -0.0243354 -0.0244057 -0.0243258 -0.0241263 -0.0238376 -0.0234597 -0.0229927 -0.0224365 -0.0217912 -0.0210567 -0.020233 -0.0194012 -0.0186423 -0.0179563 -0.0173432 -0.016803 -0.0163356 -0.0159412 -0.0156196 -0.0153021 -0.0149196 -0.0144722 -0.01396 -0.0133828 -0.0127406 -0.0120336 -0.0112617 -0.0103082 -0.00905651 -0.00750661 -0.0056585 -0.00351219 -0.00106767 0.00167506 0.004716 0.0079131 0.0111243 0.0143497 0.0175892 0.0208428 0.0241105 0.0273924 0.0306884 0.0337795 0.0364469 0.0386904 0.0405101 0.0419059 0.0428779 0.0434262 0.0435505 0.0432592 0.0425601 0.0414533 0.0399388 0.0380166 0.0356867 0.0329491 0.0298038 0.0264789 0.0232024 0.0199745 0.0167951 0.0136642 0.0105818 0.00754787 0.00456245 0.00179081 -0.000601787 -0.00261534 -0.00424985 -0.00550532 -0.00638174 -0.00687912 -0.00699746 -0.00687828 -0.00666311 -0.00635195 -0.00594481 -0.00544168 -0.00484256 -0.00414745 -0.00335635 -0.00256971 -0.00188795 -0.00131108 -0.000839089 -0.000471987 -0.000209772 -5.2443e-05 0 0 -1.50052e-05 -6.00209e-05 -0.000135047 -0.000240083 -0.00037513 -0.000540188 -0.000735256 -0.000960334 -0.00123635 -0.00158423 -0.00200398 -0.0024956 -0.00305908 -0.00369443 -0.00440165 -0.00518073 -0.00602593 -0.00693148 -0.00789738 -0.00892363 -0.0100102 -0.0111572 -0.0123645 -0.0136322 -0.01492 -0.0161877 -0.0174352 -0.0186626 -0.0198699 -0.0210571 -0.0222242 -0.0233711 -0.0244257 -0.0253156 -0.0260409 -0.0266015 -0.0269975 -0.0272289 -0.0272956 -0.0271977 -0.0269716 -0.0266537 -0.026244 -0.0257425 -0.0251492 -0.0244642 -0.0236874 -0.0228188 -0.0219441 -0.0211492 -0.0204339 -0.0197984 -0.0192425 -0.0187664 -0.0183699 -0.0180531 -0.0177142 -0.0172512 -0.0166641 -0.015953 -0.0151178 -0.0141585 -0.0130752 -0.0118678 -0.0103855 -0.00847772 -0.00614432 -0.00338533 -0.000200762 0.00340939 0.00744514 0.0119065 0.0165914 0.0212979 0.0260261 0.0307758 0.0355472 0.0403401 0.0451547 0.0499909 0.0545282 0.0584463 0.0617452 0.0644248 0.0664851 0.0679262 0.068748 0.0689506 0.0685452 0.0675431 0.0659444 0.063749 0.0609569 0.0575681 0.0535826 0.0490005 0.0441517 0.0393661 0.0346437 0.0299846 0.0253888 0.0208562 0.0163868 0.0119807 0.00786333 0.00426011 0.00117105 -0.00140383 -0.00346454 -0.00501109 -0.00604346 -0.00656166 -0.00674704 -0.00678093 -0.00666334 -0.00639425 -0.00597369 -0.00540163 -0.0046781 -0.00380307 -0.00291173 -0.00213923 -0.00148557 -0.000950768 -0.000534807 -0.000237692 -5.9423e-05 0 0 -1.93172e-05 -7.72686e-05 -0.000173854 -0.000309074 -0.000482929 -0.000695417 -0.00094654 -0.0012363 -0.00158441 -0.00201061 -0.00251488 -0.00309724 -0.00375768 -0.0044962 -0.00531279 -0.00620747 -0.00717075 -0.00819314 -0.00927465 -0.0104153 -0.011615 -0.0128739 -0.0141918 -0.0155689 -0.0169642 -0.0183367 -0.0196865 -0.0210136 -0.0223179 -0.0235995 -0.0248584 -0.0260945 -0.0272297 -0.0281859 -0.0289631 -0.0295611 -0.0299802 -0.0302202 -0.0302812 -0.0301631 -0.0299089 -0.0295617 -0.0291215 -0.0285881 -0.0279617 -0.0272423 -0.0264298 -0.0255242 -0.0246153 -0.0237928 -0.0230567 -0.0224069 -0.0218436 -0.0213667 -0.0209762 -0.0206721 -0.0203139 -0.0197614 -0.0190144 -0.018073 -0.0169372 -0.0156069 -0.0140822 -0.0123631 -0.01026 -0.00758308 -0.00433246 -0.000508115 0.00388995 0.00886174 0.0144072 0.0205265 0.0269478 0.0333994 0.0398815 0.0463939 0.0529367 0.0595098 0.0661134 0.0727473 0.0789728 0.0843511 0.088882 0.0925658 0.0954023 0.0973916 0.0985336 0.0988283 0.0982909 0.0969362 0.0947644 0.0917754 0.0879692 0.0833458 0.0779053 0.0716475 0.0650213 0.0584751 0.052009 0.0456231 0.0393172 0.0330915 0.0269458 0.0208803 0.0151898 0.0101692 0.00581871 0.00213815 -0.000872423 -0.00321302 -0.00488363 -0.00588427 -0.00644154 -0.00678205 -0.00690582 -0.00681284 -0.00650311 -0.00597663 -0.0052334 -0.00427342 -0.00327184 -0.0024038 -0.00166931 -0.00106836 -0.00060095 -0.000267089 -6.67722e-05 0 0 -2.40587e-05 -9.62348e-05 -0.000216528 -0.000384939 -0.000601468 -0.000866113 -0.00117888 -0.00153976 -0.00196429 -0.002468 -0.00305088 -0.00371295 -0.0044542 -0.00527463 -0.00617424 -0.00715303 -0.00819472 -0.00928304 -0.010418 -0.0115995 -0.0128277 -0.0141026 -0.015424 -0.0167921 -0.0181701 -0.0195214 -0.020846 -0.0221439 -0.0234151 -0.0246596 -0.0258774 -0.0270684 -0.0281578 -0.0290705 -0.0298065 -0.0303658 -0.0307484 -0.0309544 -0.0309837 -0.0308363 -0.0305626 -0.030213 -0.0297875 -0.0292861 -0.0287088 -0.0280556 -0.0273264 -0.0265214 -0.0257235 -0.0250157 -0.0243981 -0.0238707 -0.0234334 -0.0230863 -0.0228294 -0.0226626 -0.0223956 -0.0218383 -0.0209905 -0.0198524 -0.0184238 -0.0167048 -0.0146954 -0.0123956 -0.00957418 -0.00600004 -0.00167317 0.00340645 0.0092388 0.0158239 0.0231617 0.0312523 0.0397321 0.0482375 0.0567686 0.0653254 0.0739079 0.082516 0.0911498 0.0998093 0.10793 0.114948 0.120863 0.125675 0.129384 0.13199 0.133494 0.133894 0.133211 0.131464 0.128653 0.124778 0.119839 0.113836 0.106769 0.0986381 0.0900168 0.0814785 0.0730231 0.0646507 0.0563612 0.0481547 0.0400311 0.0319906 0.0244172 0.0176954 0.011825 0.00680622 0.00263891 -0.000676897 -0.00314119 -0.00475397 -0.00579258 -0.00653434 -0.00697924 -0.0071273 -0.00697851 -0.00653287 -0.00579038 -0.00475105 -0.00363752 -0.00267246 -0.00185588 -0.00118776 -0.000668116 -0.00029694 -7.42351e-05 0 0 -2.91004e-05 -0.000116402 -0.000261904 -0.000465607 -0.000727511 -0.00104762 -0.00142592 -0.00186243 -0.00236309 -0.00293386 -0.00357475 -0.00428574 -0.00506684 -0.00591805 -0.00683938 -0.00783081 -0.00886376 -0.00990961 -0.0109684 -0.01204 -0.0131246 -0.0142221 -0.0153325 -0.0164558 -0.017569 -0.0186488 -0.0196955 -0.0207088 -0.021689 -0.0226358 -0.0235495 -0.0244298 -0.0252231 -0.0258755 -0.0263871 -0.0267578 -0.0269875 -0.0270765 -0.0270245 -0.0268317 -0.0265568 -0.0262587 -0.0259374 -0.0255928 -0.0252251 -0.0248341 -0.0244199 -0.0239825 -0.0235775 -0.0232607 -0.023032 -0.0228915 -0.0228391 -0.0228748 -0.0229987 -0.0232107 -0.0232536 -0.02287 -0.0220599 -0.0208234 -0.0191604 -0.017071 -0.0145551 -0.0116127 -0.00797077 -0.00335606 0.00223142 0.00879164 0.0163246 0.0248304 0.0343089 0.0447601 0.0556941 0.0666209 0.0775403 0.0884525 0.0993573 0.110255 0.121145 0.132028 0.142217 0.151024 0.15845 0.164494 0.169157 0.172439 0.174339 0.174858 0.17402 0.17185 0.168348 0.163515 0.15735 0.149854 0.141026 0.130866 0.120067 0.109325 0.0986385 0.0880076 0.0774324 0.0669129 0.0564491 0.0460411 0.0361927 0.0274082 0.0196874 0.0130305 0.00743731 0.00290792 -0.000557682 -0.0029595 -0.00463099 -0.00590563 -0.00678342 -0.00726436 -0.00734845 -0.00703568 -0.00632606 -0.00521959 -0.00399625 -0.00293602 -0.0020389 -0.0013049 -0.000734005 -0.000326224 -8.15561e-05 0 0 -3.44424e-05 -0.000137769 -0.000309981 -0.000551078 -0.000861059 -0.00123992 -0.00168768 -0.00220431 -0.00278082 -0.00340821 -0.00408647 -0.00481559 -0.00559559 -0.00642646 -0.00730821 -0.00824082 -0.00917785 -0.0100729 -0.0109258 -0.0117368 -0.0125057 -0.0132325 -0.0139174 -0.0145602 -0.0151608 -0.015719 -0.0162349 -0.0167084 -0.0171395 -0.0175283 -0.0178747 -0.0181787 -0.0184258 -0.0186012 -0.0187049 -0.0187371 -0.0186976 -0.0185864 -0.0184036 -0.0181492 -0.0178915 -0.0176988 -0.0175711 -0.0175083 -0.0175106 -0.0175779 -0.0177101 -0.0179074 -0.0181773 -0.0185276 -0.0189582 -0.0194692 -0.0200605 -0.0207322 -0.0214841 -0.0223165 -0.0228877 -0.0228564 -0.0222225 -0.020986 -0.019147 -0.0167054 -0.0136613 -0.0100146 -0.00544976 0.000348878 0.00738129 0.0156475 0.0251475 0.0358812 0.0478487 0.06105 0.074834 0.0885494 0.102196 0.115775 0.129285 0.142727 0.1561 0.169404 0.181833 0.19258 0.201643 0.209024 0.214722 0.218737 0.22107 0.221719 0.220717 0.218095 0.213852 0.207988 0.200504 0.1914 0.180675 0.16833 0.155173 0.142015 0.128855 0.115694 0.102531 0.0893661 0.0761998 0.0630318 0.0505163 0.0393077 0.0294059 0.020811 0.0135228 0.00754143 0.00286689 -0.000500833 -0.00295677 -0.00489595 -0.00631837 -0.00722402 -0.00761292 -0.00748506 -0.00684044 -0.00567905 -0.00434802 -0.00319447 -0.00221838 -0.00141976 -0.000798617 -0.000354941 -8.87352e-05 0 0 -4.00845e-05 -0.000160338 -0.00036076 -0.000641351 -0.00100211 -0.00144304 -0.00196414 -0.0025654 -0.00321749 -0.00389104 -0.00458605 -0.00530252 -0.00604046 -0.00679986 -0.00758073 -0.00838306 -0.00913702 -0.00977278 -0.0102903 -0.0106897 -0.0109708 -0.0111338 -0.0111785 -0.0111051 -0.0109455 -0.0107319 -0.0104642 -0.0101425 -0.00976674 -0.00933692 -0.00885305 -0.00831513 -0.00776572 -0.00724734 -0.00676001 -0.00630372 -0.00587847 -0.00548427 -0.0051211 -0.00478899 -0.00456676 -0.00453329 -0.00468857 -0.0050326 -0.00556537 -0.0062869 -0.00719718 -0.0082962 -0.00952299 -0.0108165 -0.0121769 -0.0136039 -0.0150978 -0.0166584 -0.0182858 -0.0199799 -0.0212981 -0.0217976 -0.0214783 -0.0203403 -0.0183836 -0.0156082 -0.0120141 -0.00760124 -0.00201114 0.00511476 0.0137765 0.023974 0.0357073 0.0489764 0.0637812 0.0801219 0.0971516 0.114023 0.130737 0.147293 0.163691 0.179931 0.196013 0.211938 0.226779 0.239614 0.250442 0.259263 0.266078 0.270885 0.273685 0.274479 0.273304 0.270198 0.265163 0.258197 0.249301 0.238474 0.225718 0.211031 0.195334 0.179548 0.163674 0.14771 0.131657 0.115514 0.0992831 0.0829627 0.067388 0.053394 0.0409805 0.0301476 0.0208953 0.0132236 0.00713253 0.00262202 -0.000769918 -0.00350528