<?xml version="1.0"?> 
<VTKFile type="StructuredGrid" version="0.1"> 
<StructuredGrid WholeExtent="0 128 0 128 0 0"> 
<Piece Extent="0 128 0 128 0 0"> 
<PointData>
<DataArray type="Float32" Name="u" format="ascii" NumberOfComponents="1"> 
0 0 0 0 0 0 0 0 0 0 0 0 0 0 0 0 0 0 0 0 0 0 0 0 0 0 0 0 0 0 0 0 0 0 0 0 0 0 0 0 0 0 0 0 0 0 0 0 0 0 0 0 0 0 0 0 0 0 0 0 0 0 0 0 0 0 0 0 0 0 0 0 0 0 0 0 0 0 0 0 0 0 0 0 0 0 0 0 0 0 0 0 0 0 0 0 0 0 0 0 0 0 0 0 0 0 0 0 0 0 0 0 0 0 0 0 0 0 0 0 0 0 0 0 0 0 0 0 0 0 -5.77994e-09 -2.31198e-08 -5.20195e-08 -9.2479e-08 -1.44498e-07 -2.08078e-07 -2.83217e-07 -3.69916e-07 -6.71306e-07 -1.39052e-06 -2.52755e-06 -4.08241e-06 -6.05508e-06 -8.44558e-06 -1.12539e-05 -1.448e-05 -1.81756e-05 -2.23923e-05 -2.713e-05 -3.23888e-05 -3.81686e-05 -4.44695e-05 -5.12914e-05 -5.86344e-05 -6.61911e-05 -7.36541e-05 -8.10235e-05 -8.82991e-05 -9.5481e-05 -0.000102569 -0.000109564 -0.000116465 -0.000122844 -0.000128275 -0.000132756 -0.000136288 -0.000138871 -0.000140505 -0.000141189 -0.000140925 -0.000139832 -0.000138032 -0.000135525 -0.000132311 -0.00012839 -0.000123762 -0.000118427 -0.000112384 -0.000106224 -0.000100536 -9.53206e-05 -9.0577e-05 -8.63056e-05 -8.25063e-05 -7.91791e-05 -7.63241e-05 -7.41353e-05 -7.28068e-05 -7.23387e-05 -7.27309e-05 -7.39835e-05 -7.60965e-05 -7.90698e-05 -8.29034e-05 -8.74121e-05 -9.24105e-05 -9.78987e-05 -0.000103877 -0.000110344 -0.000117302 -0.000124749 -0.000132686 -0.000140902 -0.000149188 -0.000157543 -0.000165967 -0.00017446 -0.000183023 -0.000191655 -0.000200356 -0.000208563 -0.000215712 -0.000221804 -0.000226838 -0.000230814 -0.000233732 -0.000235593 -0.000236396 -0.000236151 -0.000234867 -0.000232546 -0.000229186 -0.000224788 -0.000219352 -0.000212878 -0.000205365 -0.000197309 -0.000189203 -0.000181047 -0.000172841 -0.000164586 -0.00015628 -0.000147925 -0.000139521 -0.000131079 -0.000122613 -0.000114122 -0.000105607 -9.70674e-05 -8.85036e-05 -7.99153e-05 -7.13026e-05 -6.29292e-05 -5.50589e-05 -4.76917e-05 -4.08275e-05 -3.44664e-05 -2.86084e-05 -2.32534e-05 -1.84015e-05 -1.40886e-05 -1.03508e-05 -7.18808e-06 -4.60037e-06 -2.58771e-06 -1.15009e-06 -2.87523e-07 0 0 -2.31198e-08 -9.2479e-08 -2.08078e-07 -3.69916e-07 -5.77994e-07 -8.32311e-07 -1.13287e-06 -1.47966e-06 -2.68522e-06 -5.56207e-06 -1.01102e-05 -1.63296e-05 -2.42203e-05 -3.37823e-05 -4.50156e-05 -5.79202e-05 -7.27025e-05 -8.95691e-05 -0.00010852 -0.000129555 -0.000152674 -0.000177878 -0.000205166 -0.000234538 -0.000264765 -0.000294617 -0.000324094 -0.000353196 -0.000381924 -0.000410277 -0.000438256 -0.000465859 -0.000491377 -0.000513098 -0.000531023 -0.000545151 -0.000555483 -0.000562018 -0.000564757 -0.000563699 -0.000559328 -0.000552129 -0.000542102 -0.000529246 -0.000513561 -0.000495048 -0.000473707 -0.000449537 -0.000424897 -0.000402145 -0.000381283 -0.000362308 -0.000345222 -0.000330025 -0.000316716 -0.000305296 -0.000296541 -0.000291227 -0.000289355 -0.000290924 -0.000295934 -0.000304386 -0.000316279 -0.000331614 -0.000349648 -0.000369642 -0.000391595 -0.000415506 -0.000441377 -0.000469207 -0.000498995 -0.000530743 -0.000563609 -0.000596751 -0.000630171 -0.000663868 -0.000697841 -0.000732092 -0.00076662 -0.000801425 -0.000834252 -0.000862849 -0.000887215 -0.000907351 -0.000923255 -0.000934928 -0.000942371 -0.000945583 -0.000944602 -0.000939469 -0.000930183 -0.000916745 -0.000899153 -0.000877409 -0.000851512 -0.000821462 -0.000789236 -0.000756811 -0.000724187 -0.000691364 -0.000658342 -0.000625121 -0.000591701 -0.000558082 -0.000524315 -0.00049045 -0.000456488 -0.000422428 -0.00038827 -0.000354014 -0.000319661 -0.00028521 -0.000251717 -0.000220236 -0.000190767 -0.00016331 -0.000137866 -0.000114433 -9.30136e-05 -7.36059e-05 -5.63546e-05 -4.14033e-05 -2.87523e-05 -1.84015e-05 -1.03508e-05 -4.60037e-06 -1.15009e-06 0 0 -5.20195e-08 -2.08078e-07 -4.68175e-07 -8.32311e-07 -1.30049e-06 -1.8727e-06 -2.54895e-06 -3.32925e-06 -6.04176e-06 -1.25147e-05 -2.2748e-05 -3.67417e-05 -5.44958e-05 -7.60103e-05 -0.000101285 -0.00013032 -0.000163581 -0.00020153 -0.00024417 -0.000291499 -0.000343517 -0.000400225 -0.000461623 -0.00052771 -0.00059572 -0.000662887 -0.000729211 -0.000794692 -0.000859329 -0.000923124 -0.000986075 -0.00104818 -0.0011056 -0.00115447 -0.0011948 -0.00122659 -0.00124984 -0.00126454 -0.0012707 -0.00126832 -0.00125849 -0.00124229 -0.00121973 -0.0011908 -0.00115551 -0.00111386 -0.00106584 -0.00101146 -0.000956018 -0.000904827 -0.000857886 -0.000815193 -0.00077675 -0.000742556 -0.000712612 -0.000686916 -0.000667217 -0.000655261 -0.000651048 -0.000654579 -0.000665852 -0.000684868 -0.000711628 -0.000746131 -0.000786709 -0.000831695 -0.000881088 -0.00093489 -0.000993099 -0.00105572 -0.00112274 -0.00119417 -0.00126812 -0.00134269 -0.00141788 -0.0014937 -0.00157014 -0.00164721 -0.00172489 -0.00180321 -0.00187707 -0.00194141 -0.00199623 -0.00204154 -0.00207732 -0.00210359 -0.00212033 -0.00212756 -0.00212536 -0.00211381 -0.00209291 -0.00206268 -0.00202309 -0.00197417 -0.0019159 -0.00184829 -0.00177578 -0.00170282 -0.00162942 -0.00155557 -0.00148127 -0.00140652 -0.00133133 -0.00125569 -0.00117971 -0.00110351 -0.0010271 -0.000950462 -0.000873607 -0.000796532 -0.000719238 -0.000641723 -0.000566363 -0.00049553 -0.000429225 -0.000367448 -0.000310198 -0.000257475 -0.000209281 -0.000165613 -0.000126798 -9.31575e-05 -6.46927e-05 -4.14033e-05 -2.32894e-05 -1.03508e-05 -2.58771e-06 0 0 -9.2479e-08 -3.69916e-07 -8.32311e-07 -1.47966e-06 -2.31198e-06 -3.32925e-06 -4.53147e-06 -5.91866e-06 -1.07409e-05 -2.22483e-05 -4.04408e-05 -6.53185e-05 -9.68814e-05 -0.000135129 -0.000180062 -0.000231681 -0.00029081 -0.000358276 -0.00043408 -0.00051822 -0.000610697 -0.000711512 -0.000820663 -0.000938151 -0.00105906 -0.00117847 -0.00129638 -0.00141279 -0.0015277 -0.00164111 -0.00175302 -0.00186344 -0.00196551 -0.00205239 -0.00212409 -0.00218061 -0.00222193 -0.00224807 -0.00225903 -0.0022548 -0.00223731 -0.00220852 -0.00216841 -0.00211698 -0.00205425 -0.00198019 -0.00189483 -0.00179815 -0.00169959 -0.00160858 -0.00152513 -0.00144923 -0.00138089 -0.0013201 -0.00126687 -0.00122118 -0.00118616 -0.00116491 -0.00115742 -0.0011637 -0.00118374 -0.00121754 -0.00126512 -0.00132645 -0.00139859 -0.00147857 -0.00156638 -0.00166203 -0.00176551 -0.00187683 -0.00199598 -0.00212297 -0.00225443 -0.002387 -0.00252068 -0.00265547 -0.00279136 -0.00292837 -0.00306648 -0.0032057 -0.00333701 -0.0034514 -0.00354886 -0.0036294 -0.00369302 -0.00373971 -0.00376948 -0.00378233 -0.00377841 -0.00375788 -0.00372073 -0.00366698 -0.00359661 -0.00350964 -0.00340605 -0.00328585 -0.00315694 -0.00302724 -0.00289675 -0.00276546 -0.00263337 -0.00250049 -0.00236681 -0.00223233 -0.00209726 -0.0019618 -0.00182595 -0.00168971 -0.00155308 -0.00141606 -0.00127864 -0.00114084 -0.00100687 -0.000880943 -0.000763067 -0.00065324 -0.000551462 -0.000457734 -0.000372054 -0.000294424 -0.000225418 -0.000165613 -0.000115009 -7.36059e-05 -4.14033e-05 -1.84015e-05 -4.60037e-06 0 0 -1.44498e-07 -5.77994e-07 -1.30049e-06 -2.31198e-06 -3.61246e-06 -5.20195e-06 -7.08043e-06 -9.2479e-06 -1.67827e-05 -3.47629e-05 -6.31888e-05 -0.00010206 -0.000151377 -0.00021114 -0.000281348 -0.000362001 -0.000454391 -0.000559807 -0.00067825 -0.000809719 -0.000954215 -0.00111174 -0.00128229 -0.00146586 -0.00165478 -0.00184135 -0.00202559 -0.00220748 -0.00238703 -0.00256423 -0.0027391 -0.00291162 -0.00307111 -0.00320686 -0.00331889 -0.0034072 -0.00347177 -0.00351261 -0.00352973 -0.00352312 -0.0034958 -0.00345081 -0.00338814 -0.00330779 -0.00320976 -0.00309405 -0.00296067 -0.00280961 -0.00265561 -0.00251341 -0.00238302 -0.00226443 -0.00215764 -0.00206266 -0.00197948 -0.0019081 -0.00185338 -0.00182017 -0.00180847 -0.00181827 -0.00184959 -0.00190241 -0.00197674 -0.00207259 -0.0021853 -0.00231026 -0.00244747 -0.00259692 -0.00275861 -0.00293254 -0.00311872 -0.00331714 -0.00352255 -0.00372969 -0.00393857 -0.00414917 -0.00436151 -0.00457557 -0.00479137 -0.0050089 -0.00521408 -0.00539281 -0.0055451 -0.00567094 -0.00577034 -0.0058433 -0.00588982 -0.00590989 -0.00590376 -0.00587168 -0.00581365 -0.00572965 -0.00561971 -0.00548381 -0.00532195 -0.00513414 -0.00493272 -0.00473007 -0.00452617 -0.00432103 -0.00411464 -0.00390701 -0.00369813 -0.00348802 -0.00327697 -0.00306531 -0.00285305 -0.00264017 -0.00242669 -0.00221259 -0.00199788 -0.00178256 -0.00157323 -0.00137647 -0.00119229 -0.00102069 -0.00086166 -0.000715209 -0.000581335 -0.000460037 -0.000352216 -0.000258771 -0.000179702 -0.000115009 -6.46927e-05 -2.87523e-05 -7.18808e-06 0 0 -2.08078e-07 -8.32311e-07 -1.8727e-06 -3.32925e-06 -5.20195e-06 -7.4908e-06 -1.01958e-05 -1.3317e-05 -2.4167e-05 -5.00586e-05 -9.09919e-05 -0.000146967 -0.000217983 -0.000304041 -0.000405141 -0.000521282 -0.000654323 -0.000806122 -0.000976679 -0.001166 -0.00137407 -0.0016009 -0.00184649 -0.00211084 -0.00238288 -0.00265155 -0.00291684 -0.00317877 -0.00343732 -0.0036925 -0.0039443 -0.00419273 -0.00442239 -0.00461788 -0.00477921 -0.00490636 -0.00499935 -0.00505816 -0.00508281 -0.00507329 -0.00503395 -0.00496916 -0.00487892 -0.00476321 -0.00462205 -0.00445544 -0.00426336 -0.00404583 -0.00382407 -0.00361931 -0.00343154 -0.00326077 -0.003107 -0.00297023 -0.00285045 -0.00274767 -0.00266887 -0.00262104 -0.00260419 -0.00261831 -0.00266341 -0.00273947 -0.00284651 -0.00298452 -0.00314684 -0.00332678 -0.00352435 -0.00373956 -0.00397239 -0.00422286 -0.00449096 -0.00477669 -0.00507248 -0.00537076 -0.00567154 -0.00597481 -0.00628057 -0.00658883 -0.00689958 -0.00721282 -0.00750827 -0.00776564 -0.00798494 -0.00816616 -0.00830929 -0.00841436 -0.00848134 -0.00851024 -0.00850142 -0.00845522 -0.00837165 -0.0082507 -0.00809238 -0.00789668 -0.00766361 -0.00739316 -0.00710312 -0.0068113 -0.00651768 -0.00622228 -0.00592508 -0.00562609 -0.00532531 -0.00502274 -0.00471884 -0.00441405 -0.00410839 -0.00380185 -0.00349443 -0.00318613 -0.00287695 -0.00256689 -0.00226545 -0.00198212 -0.0017169 -0.00146979 -0.00124079 -0.0010299 -0.000837122 -0.000662454 -0.000507191 -0.00037263 -0.000258771 -0.000165613 -9.31575e-05 -4.14033e-05 -1.03508e-05 0 0 -2.83217e-07 -1.13287e-06 -2.54895e-06 -4.53147e-06 -7.08043e-06 -1.01958e-05 -1.38776e-05 -1.81259e-05 -3.2894e-05 -6.81354e-05 -0.00012385 -0.000200038 -0.000296699 -0.000413834 -0.000551441 -0.000709522 -0.000890606 -0.00109722 -0.00132937 -0.00158705 -0.00187026 -0.002179 -0.00251328 -0.00287309 -0.00324337 -0.00360905 -0.00397015 -0.00432666 -0.00467857 -0.0050259 -0.00536863 -0.00570677 -0.00601937 -0.00628545 -0.00650503 -0.0066781 -0.00680467 -0.00688472 -0.00691827 -0.00690531 -0.00685177 -0.00676358 -0.00664075 -0.00648326 -0.00629113 -0.00606434 -0.00580291 -0.00550683 -0.00520499 -0.00492628 -0.00467071 -0.00443828 -0.00422897 -0.00404281 -0.00387978 -0.00373988 -0.00363263 -0.00356753 -0.0035446 -0.00356382 -0.00362519 -0.00372873 -0.00387442 -0.00406227 -0.00428319 -0.00452812 -0.00479704 -0.00508995 -0.00540687 -0.00574778 -0.00611269 -0.0065016 -0.0069042 -0.0073102 -0.00771959 -0.00813238 -0.00854856 -0.00896813 -0.00939109 -0.00981745 -0.0102196 -0.0105699 -0.0108684 -0.011115 -0.0113099 -0.0114529 -0.011544 -0.0115834 -0.0115714 -0.0115085 -0.0113947 -0.0112301 -0.0110146 -0.0107483 -0.010431 -0.0100629 -0.00966814 -0.00927093 -0.00887129 -0.00846921 -0.00806469 -0.00765774 -0.00724834 -0.00683651 -0.00642286 -0.00600802 -0.00559198 -0.00517474 -0.0047563 -0.00433667 -0.00391585 -0.00349383 -0.00308353 -0.00269789 -0.00233689 -0.00200055 -0.00168885 -0.00140181 -0.00113942 -0.000901673 -0.000690343 -0.000507191 -0.000352216 -0.000225418 -0.000126798 -5.63546e-05 -1.40886e-05 0 0 -3.69916e-07 -1.47966e-06 -3.32925e-06 -5.91866e-06 -9.2479e-06 -1.3317e-05 -1.81259e-05 -2.36746e-05 -4.29636e-05 -8.89931e-05 -0.000161763 -0.000261274 -0.000387525 -0.000540517 -0.00072025 -0.000926723 -0.00116324 -0.00143311 -0.00173632 -0.00207288 -0.00244279 -0.00284605 -0.00328265 -0.0037526 -0.00423623 -0.00471386 -0.0051855 -0.00565114 -0.00611079 -0.00656444 -0.00701209 -0.00745374 -0.00786203 -0.00820957 -0.00849637 -0.00872242 -0.00888773 -0.00899229 -0.00903611 -0.00901918 -0.00894925 -0.00883407 -0.00867363 -0.00846793 -0.00821698 -0.00792077 -0.00757931 -0.00719259 -0.00679835 -0.00643433 -0.00610052 -0.00579693 -0.00552356 -0.0052804 -0.00506746 -0.00488474 -0.00474466 -0.00465964 -0.00462968 -0.00465478 -0.00473495 -0.00487017 -0.00506047 -0.00530582 -0.00559437 -0.00591427 -0.00626552 -0.0066481 -0.00706203 -0.00750731 -0.00798393 -0.00849189 -0.00901774 -0.00954802 -0.0100827 -0.0106219 -0.0111655 -0.0117135 -0.0122659 -0.0128228 -0.013348 -0.0138056 -0.0141954 -0.0145176 -0.0147721 -0.0149589 -0.0150779 -0.0151293 -0.0151136 -0.0150315 -0.0148829 -0.0146679 -0.0143865 -0.0140385 -0.0136242 -0.0131434 -0.0126278 -0.012109 -0.011587 -0.0110618 -0.0105335 -0.0100019 -0.00946722 -0.00892932 -0.00838904 -0.00784721 -0.0073038 -0.00675884 -0.00621232 -0.00566423 -0.00511458 -0.00456337 -0.00402747 -0.00352377 -0.00305227 -0.00261296 -0.00220585 -0.00183094 -0.00148822 -0.0011777 -0.000901673 -0.000662454 -0.000460037 -0.000294424 -0.000165613 -7.36059e-05 -1.84015e-05 0 0 -7.45556e-07 -2.98222e-06 -6.71001e-06 -1.19289e-05 -1.86389e-05 -2.684e-05 -3.65323e-05 -4.77156e-05 -7.63423e-05 -0.000138364 -0.000233782 -0.000362596 -0.000524805 -0.000720409 -0.000949409 -0.0012118 -0.00151143 -0.00185212 -0.00223387 -0.00265668 -0.00312055 -0.00362549 -0.00417149 -0.00475855 -0.00536237 -0.00595863 -0.00654735 -0.00712851 -0.00770213 -0.00826819 -0.0088267 -0.00937766 -0.00988688 -0.0103202 -0.0106776 -0.010959 -0.0111646 -0.0112942 -0.0113479 -0.0113257 -0.0112375 -0.0110934 -0.0108934 -0.0106375 -0.0103256 -0.00995775 -0.009534 -0.00905431 -0.00856552 -0.00811446 -0.00770115 -0.00732557 -0.00698774 -0.00668764 -0.00642527 -0.00620065 -0.00602649 -0.00591551 -0.00586773 -0.00588313 -0.00596172 -0.0061035 -0.00630847 -0.00657662 -0.00689076 -0.00723367 -0.00760537 -0.00800583 -0.00843508 -0.0088931 -0.00937989 -0.00989547 -0.0104279 -0.0109654 -0.0115079 -0.0120553 -0.0126078 -0.0131653 -0.0137277 -0.0142952 -0.014831 -0.0152984 -0.0156975 -0.0160282 -0.0162906 -0.0164846 -0.0166102 -0.0166675 -0.0166569 -0.0165791 -0.0164339 -0.0162214 -0.0159415 -0.0155944 -0.0151799 -0.0146981 -0.0141802 -0.0136573 -0.0131295 -0.0125968 -0.0120591 -0.0115165 -0.0109689 -0.0104164 -0.00985533 -0.00928189 -0.00869613 -0.00809804 -0.00748764 -0.0068649 -0.00622985 -0.00558247 -0.00494658 -0.00434601 -0.00378075 -0.00325081 -0.00275617 -0.00229685 -0.00187285 -0.00148415 -0.0011363 -0.000834836 -0.000579747 -0.000371038 -0.000208709 -9.27595e-05 -2.31899e-05 0 0 -1.68752e-06 -6.75007e-06 -1.51877e-05 -2.70003e-05 -4.21879e-05 -6.07506e-05 -8.26884e-05 -0.000108001 -0.000154996 -0.000241982 -0.000368958 -0.000535923 -0.000742879 -0.000989825 -0.00127676 -0.00160369 -0.00197437 -0.00239259 -0.00285835 -0.00337163 -0.00393245 -0.00454079 -0.00519667 -0.00590009 -0.00662266 -0.00733601 -0.00804014 -0.00873505 -0.00942075 -0.0100972 -0.0107645 -0.0114225 -0.0120304 -0.0125472 -0.012973 -0.0133076 -0.0135512 -0.0137037 -0.0137652 -0.0137355 -0.0136277 -0.0134545 -0.013216 -0.0129121 -0.0125429 -0.0121083 -0.0116084 -0.0110432 -0.0104678 -0.00993772 -0.00945278 -0.00901304 -0.00861849 -0.00826914 -0.00796497 -0.007706 -0.00749964 -0.00735332 -0.00726703 -0.00724078 -0.00727456 -0.00736838 -0.00752223 -0.00773612 -0.00798273 -0.00823474 -0.00849215 -0.00875497 -0.00902319 -0.00929681 -0.00957584 -0.00986027 -0.0101496 -0.0104435 -0.0107419 -0.0110447 -0.0113521 -0.0116639 -0.0119802 -0.0123011 -0.0126059 -0.0128742 -0.013106 -0.0133013 -0.0134601 -0.0135823 -0.0136681 -0.0137174 -0.0137301 -0.013706 -0.0136452 -0.0135477 -0.0134135 -0.0132425 -0.0130349 -0.0127905 -0.0125234 -0.0122478 -0.0119635 -0.0116706 -0.0113692 -0.0110591 -0.0107404 -0.0104131 -0.0100597 -0.00966234 -0.0092212 -0.00873623 -0.00820743 -0.00763481 -0.00701837 -0.0063581 -0.00569019 -0.00505085 -0.00444008 -0.00385787 -0.00330423 -0.00277915 -0.00228263 -0.00181468 -0.00138936 -0.00102076 -0.000708858 -0.000453669 -0.000255189 -0.000113417 -2.83543e-05 0 0 -3.1958e-06 -1.27832e-05 -2.87622e-05 -5.11328e-05 -7.9895e-05 -0.000115049 -0.000156594 -0.000204531 -0.000278926 -0.000399846 -0.000567289 -0.000781257 -0.00104175 -0.00134877 -0.00170231 -0.00210237 -0.00255208 -0.00305454 -0.00360976 -0.00421774 -0.00487847 -0.00559196 -0.00635821 -0.00717721 -0.0080171 -0.00884598 -0.00966387 -0.0104708 -0.0112667 -0.0120515 -0.0128254 -0.0135883 -0.0142926 -0.0148907 -0.0153826 -0.0157682 -0.0160477 -0.0162209 -0.016288 -0.0162488 -0.0161197 -0.0159172 -0.0156412 -0.0152918 -0.0148688 -0.0143724 -0.0138025 -0.0131591 -0.0125053 -0.0119041 -0.0113554 -0.0108593 -0.0104158 -0.0100249 -0.00968656 -0.0094008 -0.00916413 -0.00897306 -0.0088276 -0.00872774 -0.00867348 -0.00866482 -0.00870177 -0.00878432 -0.00887028 -0.00891747 -0.00892587 -0.00889551 -0.00882637 -0.00871845 -0.00857175 -0.00838628 -0.00818287 -0.00798237 -0.00778477 -0.00759007 -0.00739828 -0.00720939 -0.00702341 -0.00684033 -0.00667263 -0.0065328 -0.00642083 -0.00633673 -0.0062805 -0.00625213 -0.00625163 -0.00627899 -0.00633296 -0.00641228 -0.00651695 -0.00664697 -0.00680234 -0.00698306 -0.00718913 -0.00742055 -0.00765755 -0.00788036 -0.008089 -0.00828345 -0.00846372 -0.00862981 -0.00878171 -0.00891943 -0.00900203 -0.00898855 -0.00887901 -0.0086734 -0.00837171 -0.00797396 -0.00748014 -0.00689025 -0.0062583 -0.0056383 -0.00503025 -0.00443415 -0.00385 -0.00327781 -0.00271756 -0.00216927 -0.00166085 -0.00122021 -0.000847371 -0.000542317 -0.000305054 -0.000135579 -3.38948e-05 0 0 -5.27041e-06 -2.10816e-05 -4.74337e-05 -8.43265e-05 -0.00013176 -0.000189735 -0.00025825 -0.000337306 -0.000448132 -0.000611955 -0.000828777 -0.0010986 -0.00142141 -0.00179723 -0.00222604 -0.00270786 -0.00324454 -0.00383795 -0.00448811 -0.005195 -0.00595863 -0.00677899 -0.00765609 -0.00858993 -0.00954569 -0.0104886 -0.0114185 -0.0123356 -0.0132398 -0.0141312 -0.0150096 -0.0158751 -0.0166735 -0.0173506 -0.0179064 -0.0183408 -0.018654 -0.0188458 -0.0189162 -0.0188654 -0.0187137 -0.0184817 -0.0181693 -0.0177766 -0.0173035 -0.0167501 -0.0161164 -0.0154023 -0.014678 -0.0140136 -0.013409 -0.0128644 -0.0123797 -0.0119549 -0.01159 -0.011285 -0.0110199 -0.0107747 -0.0105494 -0.010344 -0.0101585 -0.00999282 -0.00984707 -0.00972121 -0.00955341 -0.00928186 -0.00890654 -0.00842746 -0.00784461 -0.00715801 -0.00636764 -0.00547351 -0.00452762 -0.00358197 -0.00263655 -0.00169137 -0.00074643 0.000198274 0.00114274 0.00208697 0.0029687 0.00372568 0.0043579 0.00486537 0.00524809 0.00550605 0.00563925 0.0056477 0.00553433 0.00530206 0.0049509 0.00448084 0.00389189 0.00318405 0.00235731 0.00141168 0.000417443 -0.000555121 -0.00150601 -0.00243522 -0.00334276 -0.00422861 -0.0050928 -0.00593531 -0.00668245 -0.00726054 -0.00766957 -0.00790955 -0.00798047 -0.00788234 -0.00761516 -0.00717892 -0.00665089 -0.00610834 -0.00555125 -0.00497964 -0.0043935 -0.00379284 -0.00317765 -0.00254793 -0.00195076 -0.00143321 -0.000995285 -0.000636982 -0.000358303 -0.000159246 -3.98114e-05 0 0 -7.91133e-06 -3.16453e-05 -7.1202e-05 -0.000126581 -0.000197783 -0.000284808 -0.000387655 -0.000506325 -0.000662613 -0.000878311 -0.00115342 -0.00148794 -0.00188188 -0.00233522 -0.00284798 -0.00342014 -0.00405175 -0.00474283 -0.00549339 -0.00630341 -0.00717291 -0.00810188 -0.00909032 -0.0101382 -0.0112084 -0.0122638 -0.0133042 -0.0143297 -0.0153403 -0.016336 -0.0173169 -0.0182828 -0.0191731 -0.019927 -0.0205444 -0.0210255 -0.0213701 -0.0215783 -0.02165 -0.0215854 -0.0214096 -0.0211478 -0.0208001 -0.0203665 -0.0198469 -0.0192414 -0.0185499 -0.0177725 -0.0169858 -0.0162661 -0.0156137 -0.0150284 -0.0145102 -0.0140592 -0.0136754 -0.0133587 -0.0130671 -0.0127584 -0.0124325 -0.0120896 -0.0117295 -0.0113524 -0.0109581 -0.0105468 -0.0100321 -0.00932791 -0.00843414 -0.00735081 -0.00607793 -0.00461549 -0.0029635 -0.00112196 0.000816113 0.00275769 0.00470278 0.00665138 0.00860348 0.0105591 0.0125182 0.0144808 0.0163181 0.0179013 0.0192302 0.0203051 0.0211257 0.0216922 0.0220045 0.0220627 0.0218718 0.021437 0.0207583 0.0198357 0.0186692 0.0172588 0.0156045 0.0137062 0.0117016 0.00972798 0.00778548 0.00587407 0.00399374 0.00214449 0.000326323 -0.00146076 -0.00310091 -0.00447828 -0.00559287 -0.00644468 -0.00703371 -0.00735996 -0.00742343 -0.00722412 -0.00686798 -0.00646097 -0.0060031 -0.00549435 -0.00493473 -0.00432424 -0.00366289 -0.00295066 -0.0022591 -0.00165974 -0.0011526 -0.000737664 -0.000414936 -0.000184416 -4.6104e-05 0 0 -1.11186e-05 -4.44743e-05 -0.000100067 -0.000177897 -0.000277965 -0.000400269 -0.000544811 -0.000711589 -0.000922369 -0.00119891 -0.00154122 -0.00194929 -0.00242313 -0.00296273 -0.0035681 -0.00423923 -0.00497373 -0.00576918 -0.0066256 -0.00754298 -0.00852133 -0.00956064 -0.0106609 -0.0118221 -0.0130053 -0.0141715 -0.0153207 -0.0164529 -0.0175681 -0.0186662 -0.0197474 -0.0208115 -0.0217914 -0.0226198 -0.0232967 -0.0238221 -0.024196 -0.0244184 -0.0244893 -0.0244088 -0.0242073 -0.0239156 -0.0235337 -0.0230614 -0.0224989 -0.0218462 -0.0211032 -0.0202699 -0.0194287 -0.0186618 -0.0179693 -0.0173511 -0.0168073 -0.0163378 -0.0159427 -0.0156219 -0.0153056 -0.0149239 -0.0144769 -0.0139644 -0.0133867 -0.0127435 -0.012035 -0.0112611 -0.0103064 -0.00905563 -0.00750867 -0.00566557 -0.00352631 -0.0010909 0.00164066 0.00466838 0.00784833 0.0110366 0.0142332 0.0174382 0.0206515 0.0238731 0.027103 0.0303413 0.0333757 0.035994 0.0381962 0.0399823 0.0413524 0.0423063 0.0428442 0.042966 0.0426795 0.0419927 0.0409054 0.0394177 0.0375297 0.0352412 0.0325523 0.0294631 0.0261948 0.0229689 0.0197855 0.0166444 0.0135458 0.0104895 0.00747565 0.0045042 0.00174258 -0.000641794 -0.00264892 -0.0042788 -0.00553143 -0.00640681 -0.00690495 -0.00702584 -0.00690957 -0.00669621 -0.00638578 -0.00597827 -0.00547369 -0.00487202 -0.00417327 -0.00337745 -0.00258586 -0.00189982 -0.00131932 -0.000844363 -0.000474954 -0.000211091 -5.27727e-05 0 0 -1.48922e-05 -5.95686e-05 -0.000134029 -0.000238274 -0.000372304 -0.000536118 -0.000729716 -0.000953098 -0.0012274 -0.00157376 -0.00199218 -0.00248265 -0.00304518 -0.00367977 -0.00438642 -0.00516512 -0.00601046 -0.006917 -0.00788475 -0.00891371 -0.0100039 -0.0111553 -0.0123678 -0.0136416 -0.0149364 -0.0162119 -0.0174682 -0.0187053 -0.0199231 -0.0211217 -0.022301 -0.0234611 -0.0245283 -0.025429 -0.0261631 -0.0267307 -0.0271317 -0.0273662 -0.0274341 -0.0273355 -0.027107 -0.0267851 -0.02637 -0.0258615 -0.0252597 -0.0245646 -0.0237762 -0.0228945 -0.0220068 -0.0212007 -0.020476 -0.0198327 -0.019271 -0.0187907 -0.0183918 -0.0180745 -0.0177354 -0.0172714 -0.0166825 -0.0159686 -0.0151299 -0.0141662 -0.0130776 -0.0118641 -0.0103763 -0.00846501 -0.00613015 -0.00337173 -0.000189757 0.00341577 0.00744485 0.0118975 0.016569 0.0212548 0.0259548 0.030669 0.0353975 0.0401402 0.0448971 0.0496683 0.0541413 0.0580038 0.0612557 0.0638971 0.065928 0.0673484 0.0681582 0.0683575 0.0679574 0.0669689 0.065392 0.0632268 0.0604732 0.0571312 0.0532009 0.0486822 0.0438972 0.0391677 0.034494 0.0298758 0.0253133 0.0208064 0.0163552 0.0119596 0.00784803 0.00424893 0.00116229 -0.0014119 -0.00347363 -0.0050229 -0.00605972 -0.00658409 -0.00677564 -0.00681405 -0.00669931 -0.00643141 -0.00601036 -0.00543617 -0.00470881 -0.00382831 -0.00293105 -0.00215343 -0.00149543 -0.000957078 -0.000538356 -0.00023927 -5.98174e-05 0 0 -1.9232e-05 -7.69282e-05 -0.000173088 -0.000307713 -0.000480801 -0.000692354 -0.00094237 -0.00123085 -0.00157771 -0.00200286 -0.00250629 -0.00308802 -0.00374803 -0.00448634 -0.00530293 -0.00619781 -0.00716194 -0.00818628 -0.00927083 -0.0104156 -0.0116206 -0.0128857 -0.0142111 -0.0155967 -0.0170016 -0.0183849 -0.0197467 -0.0210868 -0.0224054 -0.0237024 -0.0249778 -0.0262317 -0.027384 -0.0283546 -0.0291437 -0.0297513 -0.0301772 -0.0304216 -0.0304844 -0.0303656 -0.0301085 -0.0297563 -0.029309 -0.0287666 -0.0281292 -0.0273966 -0.0265689 -0.0256462 -0.0247201 -0.0238826 -0.0231336 -0.0224731 -0.0219012 -0.0214178 -0.0210229 -0.0207165 -0.0203565 -0.0198008 -0.0190493 -0.0181021 -0.0169591 -0.0156204 -0.014086 -0.0123557 -0.0102418 -0.00755605 -0.00429856 -0.0004693 0.00393172 0.00890452 0.0144491 0.0205654 0.0269782 0.0334122 0.0398675 0.0463439 0.0528416 0.0593605 0.0659005 0.0724618 0.078615 0.0839307 0.0884089 0.0920495 0.0948528 0.0968185 0.0979467 0.0982374 0.0977055 0.0963658 0.0942183 0.091263 0.0874998 0.0829289 0.0775502 0.0713637 0.0648086 0.0583244 0.0519109 0.0455683 0.0392964 0.0330952 0.0269649 0.0209054 0.0152154 0.0101939 0.00584075 0.00215602 -0.000860309 -0.00320823 -0.00488775 -0.00589885 -0.00646622 -0.00681449 -0.00694367 -0.00685377 -0.00654477 -0.00601668 -0.00526951 -0.00430324 -0.00329467 -0.00242057 -0.00168095 -0.00107581 -0.000605143 -0.000268953 -6.72381e-05 0 0 -2.40093e-05 -9.60373e-05 -0.000216084 -0.000384149 -0.000600233 -0.000864335 -0.00117646 -0.0015366 -0.00196042 -0.00246361 -0.00304615 -0.00370805 -0.00444931 -0.00526992 -0.00616989 -0.00714922 -0.0081922 -0.00928314 -0.010422 -0.0116089 -0.0128437 -0.0141264 -0.0154571 -0.0168357 -0.0182258 -0.0195906 -0.0209304 -0.0222449 -0.0235343 -0.0247985 -0.0260376 -0.0272515 -0.0283628 -0.0292942 -0.0300457 -0.0306173 -0.0310089 -0.0312205 -0.0312523 -0.0311041 -0.0308267 -0.0304708 -0.0300364 -0.0295235 -0.0289322 -0.0282623 -0.027514 -0.0266871 -0.0258674 -0.0251405 -0.0245064 -0.023965 -0.0235164 -0.0231606 -0.0228976 -0.0227273 -0.0224573 -0.0218949 -0.0210403 -0.0198933 -0.0184539 -0.0167223 -0.0146983 -0.0123821 -0.00954411 -0.00595518 -0.00161526 0.00347564 0.00931754 0.0159104 0.0232543 0.0313491 0.0398268 0.0483189 0.0568256 0.0653469 0.0738827 0.082433 0.0909979 0.0995773 0.107618 0.114566 0.120423 0.125187 0.128859 0.131438 0.132926 0.133321 0.132644 0.130913 0.128129 0.124291 0.119399 0.113454 0.106456 0.0984039 0.0898611 0.0813901 0.0729908 0.0646634 0.0564077 0.0482238 0.0401117 0.0320713 0.024492 0.0177628 0.0118837 0.00685483 0.00267609 -0.000652483 -0.0031309 -0.00475916 -0.00581236 -0.00656561 -0.00701889 -0.00717222 -0.00702559 -0.006579 -0.00583245 -0.00478595 -0.00366424 -0.00269209 -0.00186951 -0.00119649 -0.000673024 -0.000299122 -7.47804e-05 0 0 -2.9095e-05 -0.00011638 -0.000261855 -0.00046552 -0.000727375 -0.00104742 -0.00142566 -0.00186208 -0.00236268 -0.00293343 -0.00357435 -0.00428542 -0.00506664 -0.00591803 -0.00683957 -0.00783126 -0.00886525 -0.00991366 -0.0109765 -0.0120538 -0.0131454 -0.0142516 -0.0153721 -0.0165071 -0.0176337 -0.0187292 -0.0197936 -0.0208268 -0.021829 -0.0228 -0.0237399 -0.0246487 -0.0254695 -0.0261453 -0.0266761 -0.027062 -0.0273029 -0.0273988 -0.0273498 -0.0271558 -0.0268761 -0.0265701 -0.0262376 -0.0258788 -0.0254935 -0.0250819 -0.0246439 -0.0241795 -0.0237477 -0.0234073 -0.0231584 -0.0230011 -0.0229351 -0.0229607 -0.0230778 -0.0232863 -0.023326 -0.0229366 -0.0221181 -0.0208705 -0.0191938 -0.0170879 -0.014553 -0.0115889 -0.00792457 -0.0032888 0.0023184 0.00889702 0.0164471 0.0249686 0.0344615 0.0449258 0.0558656 0.0667849 0.0776836 0.0885619 0.0994196 0.110257 0.121074 0.13187 0.141971 0.150702 0.158064 0.164056 0.168678 0.17193 0.173812 0.174325 0.173493 0.171341 0.167868 0.163075 0.156961 0.149528 0.140774 0.1307 0.119986 0.109316 0.0986881 0.0881028 0.07756 0.0670598 0.0566022 0.0461872 0.0363248 0.0275253 0.0197884 0.0131144 0.00750314 0.00295464 -0.000531075 -0.00295402 -0.00464517 -0.00593549 -0.00682499 -0.00731367 -0.00740152 -0.00708855 -0.00637475 -0.00526013 -0.00402729 -0.00295882 -0.00205474 -0.00131503 -0.000739706 -0.000328758 -8.21895e-05 0 0 -3.44891e-05 -0.000137956 -0.000310402 -0.000551826 -0.000862228 -0.00124161 -0.00168997 -0.0022073 -0.00278447 -0.00341233 -0.00409088 -0.00482011 -0.00560004 -0.00643065 -0.00731195 -0.00824394 -0.00918109 -0.0100779 -0.0109343 -0.0117503 -0.012526 -0.0132612 -0.0139562 -0.0146107 -0.0152253 -0.0158005 -0.0163363 -0.0168326 -0.0172895 -0.0177069 -0.0180849 -0.0184235 -0.018704 -0.0189078 -0.019035 -0.0190855 -0.0190593 -0.0189565 -0.018777 -0.0185208 -0.0182569 -0.0180542 -0.0179127 -0.0178324 -0.0178133 -0.0178555 -0.0179588 -0.0181234 -0.0183609 -0.018683 -0.0190898 -0.0195812 -0.0201573 -0.020818 -0.0215634 -0.0223934 -0.0229627 -0.0229259 -0.0222829 -0.0210338 -0.0191786 -0.0167173 -0.0136499 -0.00997632 -0.00538316 0.00044309 0.00750242 0.0157948 0.0253203 0.0360789 0.0480706 0.0612953 0.0750947 0.08881 0.102441 0.115989 0.129453 0.142832 0.156128 0.16934 0.181674 0.192338 0.201333 0.208656 0.21431 0.218293 0.220606 0.221249 0.220253 0.217648 0.213435 0.207615 0.200186 0.191149 0.180504 0.16825 0.155185 0.142102 0.129003 0.115886 0.102753 0.0896034 0.0764366 0.063253 0.050714 0.0394814 0.0295549 0.0209348 0.0136208 0.00761315 0.00291173 -0.000483434 -0.00296463 -0.00492414 -0.00636197 -0.00727811 -0.00767256 -0.00754533 -0.00689641 -0.0057258 -0.00438381 -0.00322076 -0.00223664 -0.00143145 -0.00080519 -0.000357862 -8.94656e-05 0 0 -4.01917e-05 -0.000160767 -0.000361725 -0.000643067 -0.00100479 -0.0014469 -0.00196939 -0.00257227 -0.00322581 -0.0039003 -0.00459575 -0.00531215 -0.00604949 -0.0068078 -0.00758705 -0.00838725 -0.00913971 -0.00977573 -0.0102953 -0.0106985 -0.0109852 -0.0111554 -0.0112092 -0.0111466 -0.0110007 -0.0108047 -0.0105585 -0.0102622 -0.0099158 -0.00951923 -0.00907253 -0.0085757 -0.00806628 -0.00758181 -0.0071223 -0.00668774 -0.00627813 -0.00589348 -0.00553378 -0.00519904 -0.00496892 -0.00492311 -0.00506161 -0.00538442 -0.00589153 -0.00658295 -0.00745867 -0.00851871 -0.00970703 -0.0109676 -0.0123005 -0.0137056 -0.015183 -0.0167326 -0.0183545 -0.0200487 -0.0213674 -0.0218627 -0.0215346 -0.0203832 -0.0184085 -0.0156104 -0.011989 -0.00754428 -0.00191988 0.00524048 0.0139368 0.0241691 0.0359373 0.0492415 0.0640817 0.0804578 0.097514 0.114394 0.131099 0.147628 0.163981 0.180159 0.19616 0.211986 0.226728 0.239475 0.250229 0.258989 0.265756 0.270528 0.273307 0.274093 0.272923 0.269836 0.264832 0.257911 0.249073 0.238318 0.225646 0.211057 0.195456 0.179749 0.163935 0.148014 0.131988 0.115855 0.0996148 0.0832687 0.0676596 0.0536311 0.0411832 0.0303159 0.0210292 0.013323 0.00719752 0.0026526 -0.00077075