<?xml version="1.0"?> 
<VTKFile type="StructuredGrid" version="0.1"> 
<StructuredGrid WholeExtent="0 128 0 128 0 0"> 
<Piece Extent="0 128 0 128 0 0"> 
<PointData>
<DataArray type="Float32" Name="u" format="ascii" NumberOfComponents="1"> 
0 0 0 0 0 0 0 0 0 0 0 0 0 0 0 0 0 0 0 0 0 0 0 0 0 0 0 0 0 0 0 0 0 0 0 0 0 0 0 0 0 0 0 0 0 0 0 0 0 0 0 0 0 0 0 0 0 0 0 0 0 0 0 0 0 0 0 0 0 0 0 0 0 0 0 0 0 0 0 0 0 0 0 0 0 0 0 0 0 0 0 0 0 0 0 0 0 0 0 0 0 0 0 0 0 0 0 0 0 0 0 0 0 0 0 0 0 0 0 0 0 0 0 0 0 0 0 0 0 0 -4.49122e-08 -1.79649e-07 -4.0421e-07 -7.18596e-07 -1.12281e-06 -1.61684e-06 -2.2007e-06 -2.87438e-06 -3.40721e-06 -3.56848e-06 -3.35821e-06 -2.77639e-06 -1.82302e-06 -4.98102e-07 1.19836e-06 3.26637e-06 6.04738e-06 9.88282e-06 1.47727e-05 2.0717e-05 2.77158e-05 3.5769e-05 4.48766e-05 5.50387e-05 6.52143e-05 7.43624e-05 8.24831e-05 8.95764e-05 9.56423e-05 0.000100681 0.000104692 0.000107675 0.000110007 0.000112063 0.000113842 0.000115345 0.000116571 0.000117522 0.000118196 0.000118593 0.000118627 0.000118209 0.00011734 0.000116019 0.000114246 0.000112022 0.000109346 0.000106219 0.000102563 9.83025e-05 9.34366e-05 8.79657e-05 8.18896e-05 7.52085e-05 6.79223e-05 6.0031e-05 5.19457e-05 4.40775e-05 3.64264e-05 2.89924e-05 2.17754e-05 1.47755e-05 7.99278e-06 1.42709e-06 -6.64843e-06 -1.79607e-05 -3.25098e-05 -5.02956e-05 -7.13182e-05 -9.55775e-05 -0.000123074 -0.000153807 -0.000184479 -0.000211795 -0.000235754 -0.000256355 -0.0002736 -0.000287487 -0.000298017 -0.000305191 -0.00031034 -0.000314797 -0.000318563 -0.000321637 -0.000324019 -0.00032571 -0.00032671 -0.000327017 -0.00032665 -0.000325622 -0.000323936 -0.00032159 -0.000318585 -0.00031492 -0.000310596 -0.000305613 -0.000298567 -0.000288055 -0.000274076 -0.000256632 -0.000235721 -0.000211344 -0.000183501 -0.000152192 -0.000120925 -9.3208e-05 -6.90421e-05 -4.84266e-05 -3.13617e-05 -1.78473e-05 -7.88353e-06 -1.47025e-06 2.74443e-06 6.11245e-06 8.63382e-06 1.03085e-05 1.11366e-05 1.1118e-05 1.02528e-05 8.54088e-06 6.53911e-06 4.80425e-06 3.33628e-06 2.13522e-06 1.20106e-06 5.33805e-07 1.33451e-07 0 0 -1.79649e-07 -7.18596e-07 -1.61684e-06 -2.87438e-06 -4.49122e-06 -6.46736e-06 -8.8028e-06 -1.14975e-05 -1.36288e-05 -1.42739e-05 -1.34328e-05 -1.11055e-05 -7.29207e-06 -1.99241e-06 4.79344e-06 1.30655e-05 2.41895e-05 3.95313e-05 5.90908e-05 8.28681e-05 0.000110863 0.000143076 0.000179506 0.000220155 0.000260857 0.00029745 0.000329933 0.000358306 0.000382569 0.000402723 0.000418767 0.000430702 0.000440029 0.000448251 0.000455367 0.000461379 0.000466285 0.000470086 0.000472782 0.000474373 0.000474508 0.000472837 0.000469359 0.000464076 0.000456985 0.000448088 0.000437385 0.000424876 0.000410253 0.00039321 0.000373747 0.000351863 0.000327559 0.000300834 0.000271689 0.000240124 0.000207783 0.00017631 0.000145706 0.000115969 8.71016e-05 5.91022e-05 3.19711e-05 5.70836e-06 -2.65937e-05 -7.18429e-05 -0.000130039 -0.000201182 -0.000285273 -0.00038231 -0.000492295 -0.000615226 -0.000737917 -0.00084718 -0.000943014 -0.00102542 -0.0010944 -0.00114995 -0.00119207 -0.00122076 -0.00124136 -0.00125919 -0.00127425 -0.00128655 -0.00129608 -0.00130284 -0.00130684 -0.00130807 -0.0013066 -0.00130249 -0.00129574 -0.00128636 -0.00127434 -0.00125968 -0.00124239 -0.00122245 -0.00119427 -0.00115222 -0.00109631 -0.00102653 -0.000942884 -0.000845376 -0.000734004 -0.000608767 -0.000483698 -0.000372832 -0.000276168 -0.000193706 -0.000125447 -7.13894e-05 -3.15341e-05 -5.881e-06 1.09777e-05 2.44498e-05 3.45353e-05 4.12342e-05 4.45464e-05 4.44721e-05 4.10111e-05 3.41635e-05 2.61564e-05 1.9217e-05 1.33451e-05 8.54088e-06 4.80425e-06 2.13522e-06 5.33805e-07 0 0 -4.0421e-07 -1.61684e-06 -3.63789e-06 -6.46736e-06 -1.01053e-05 -1.45516e-05 -1.98063e-05 -2.58694e-05 -3.06648e-05 -3.21163e-05 -3.02239e-05 -2.49875e-05 -1.64072e-05 -4.48292e-06 1.07852e-05 2.93973e-05 5.44264e-05 8.89454e-05 0.000132954 0.000186453 0.000249442 0.000321921 0.000403889 0.000495348 0.000586928 0.000669262 0.000742348 0.000806188 0.000860781 0.000906127 0.000942226 0.000969079 0.000990065 0.00100856 0.00102458 0.0010381 0.00104914 0.00105769 0.00106376 0.00106734 0.00106764 0.00106388 0.00105606 0.00104417 0.00102822 0.0010082 0.000984117 0.000955971 0.00092307 0.000884723 0.00084093 0.000791691 0.000737007 0.000676877 0.000611301 0.000540279 0.000467511 0.000396698 0.000327837 0.000260931 0.000195979 0.00013298 7.1935e-05 1.28438e-05 -5.98359e-05 -0.000161647 -0.000292588 -0.00045266 -0.000641864 -0.000860198 -0.00110766 -0.00138426 -0.00166031 -0.00190615 -0.00212178 -0.0023072 -0.0024624 -0.00258738 -0.00268216 -0.00274672 -0.00279306 -0.00283317 -0.00286706 -0.00289473 -0.00291617 -0.00293139 -0.00294039 -0.00294316 -0.00293985 -0.0029306 -0.00291542 -0.00289431 -0.00286726 -0.00283428 -0.00279537 -0.00275052 -0.0026871 -0.00259249 -0.00246669 -0.00230969 -0.00212149 -0.0019021 -0.00165151 -0.00136972 -0.00108832 -0.000838872 -0.000621378 -0.000435839 -0.000282255 -0.000160626 -7.09517e-05 -1.32323e-05 2.46998e-05 5.5012e-05 7.77044e-05 9.27768e-05 0.000100229 0.000100062 9.2275e-05 7.68679e-05 5.8852e-05 4.32382e-05 3.00265e-05 1.9217e-05 1.08096e-05 4.80425e-06 1.20106e-06 0 0 -7.18596e-07 -2.87438e-06 -6.46736e-06 -1.14975e-05 -1.79649e-05 -2.58694e-05 -3.52112e-05 -4.59901e-05 -5.45153e-05 -5.70957e-05 -5.37313e-05 -4.44222e-05 -2.91683e-05 -7.96964e-06 1.91738e-05 5.2262e-05 9.6758e-05 0.000158125 0.000236363 0.000331472 0.000443452 0.000572304 0.000718026 0.000880619 0.00104343 0.0011898 0.00131973 0.00143322 0.00153028 0.00161089 0.00167507 0.00172281 0.00176011 0.001793 0.00182147 0.00184551 0.00186514 0.00188035 0.00189113 0.00189749 0.00189803 0.00189135 0.00187744 0.0018563 0.00182794 0.00179235 0.00174954 0.0016995 0.00164101 0.00157284 0.00149499 0.00140745 0.00131023 0.00120334 0.00108676 0.000960496 0.000831131 0.00070524 0.000582822 0.000463878 0.000348407 0.000236409 0.000127884 2.28334e-05 -0.000106375 -0.000287372 -0.000520156 -0.00080473 -0.00114109 -0.00152924 -0.00196918 -0.0024609 -0.00295167 -0.00338872 -0.00377206 -0.00410168 -0.00437759 -0.00459979 -0.00476828 -0.00488305 -0.00496543 -0.00503675 -0.005097 -0.00514619 -0.00518431 -0.00521136 -0.00522735 -0.00523228 -0.00522639 -0.00520996 -0.00518298 -0.00514544 -0.00509736 -0.00503872 -0.00496954 -0.00488981 -0.00477707 -0.00460888 -0.00438522 -0.00410611 -0.00377154 -0.0033815 -0.00293601 -0.00243507 -0.00193479 -0.00149133 -0.00110467 -0.000774826 -0.000501787 -0.000285557 -0.000126136 -2.3524e-05 4.39108e-05 9.77992e-05 0.000138141 0.000164937 0.000178186 0.000177888 0.000164044 0.000136654 0.000104626 7.68679e-05 5.33805e-05 3.41635e-05 1.9217e-05 8.54088e-06 2.13522e-06 0 0 -1.12281e-06 -4.49122e-06 -1.01053e-05 -1.79649e-05 -2.80701e-05 -4.0421e-05 -5.50175e-05 -7.18596e-05 -8.51801e-05 -8.9212e-05 -8.39552e-05 -6.94097e-05 -4.55754e-05 -1.24526e-05 2.9959e-05 8.16593e-05 0.000151184 0.00024707 0.000369317 0.000517925 0.000692894 0.000894224 0.00112192 0.00137597 0.00163036 0.00185906 0.00206208 0.00223941 0.00239106 0.00251702 0.0026173 0.00269189 0.00275018 0.00280157 0.00284605 0.00288362 0.00291428 0.00293804 0.00295489 0.00296483 0.00296568 0.00295523 0.0029335 0.00290047 0.00285616 0.00280055 0.00273366 0.00265547 0.00256408 0.00245756 0.00233592 0.00219914 0.00204724 0.00188021 0.00169806 0.00150078 0.00129864 0.00110194 0.00091066 0.000724809 0.000544385 0.000369389 0.000199819 3.56772e-05 -0.000166211 -0.000449018 -0.000812744 -0.00125739 -0.00178295 -0.00238944 -0.00307684 -0.00384516 -0.00461198 -0.00529487 -0.00589384 -0.00640888 -0.00683999 -0.00718717 -0.00745043 -0.00762977 -0.00775849 -0.00786992 -0.00796407 -0.00804092 -0.00810048 -0.00814276 -0.00816774 -0.00817543 -0.00816624 -0.00814056 -0.0080984 -0.00803975 -0.00796462 -0.00787301 -0.00776491 -0.00764033 -0.00746417 -0.00720137 -0.00685191 -0.00641579 -0.00589302 -0.0052836 -0.00458752 -0.00380479 -0.00302311 -0.0023302 -0.00172605 -0.00121067 -0.000784043 -0.000446184 -0.000197088 -3.67563e-05 6.86106e-05 0.000152811 0.000215845 0.000257713 0.000278415 0.00027795 0.000256319 0.000213522 0.000163478 0.000120106 8.3407e-05 5.33805e-05 3.00265e-05 1.33451e-05 3.33628e-06 0 0 -1.61684e-06 -6.46736e-06 -1.45516e-05 -2.58694e-05 -4.0421e-05 -5.82063e-05 -7.92252e-05 -0.000103478 -0.000122659 -0.000128465 -0.000120895 -9.99499e-05 -6.56286e-05 -1.79317e-05 4.3141e-05 0.000117589 0.000217706 0.000355781 0.000531817 0.000745813 0.000997768 0.00128768 0.00161556 0.00198139 0.00234771 0.00267705 0.00296939 0.00322475 0.00344312 0.00362451 0.00376891 0.00387632 0.00396026 0.00403425 0.0040983 0.00415241 0.00419657 0.00423078 0.00425504 0.00426936 0.00427058 0.00425553 0.00422424 0.00417668 0.00411287 0.0040328 0.00393647 0.00382388 0.00369228 0.00353889 0.00336372 0.00316676 0.00294803 0.00270751 0.0024452 0.00216112 0.00187005 0.00158679 0.00131135 0.00104372 0.000783915 0.00053192 0.00028774 5.13752e-05 -0.000239344 -0.000646586 -0.00117035 -0.00181064 -0.00256745 -0.00344079 -0.00443065 -0.00553703 -0.00664125 -0.00762462 -0.00848713 -0.00922878 -0.00984958 -0.0103495 -0.0107286 -0.0109869 -0.0111722 -0.0113327 -0.0114683 -0.0115789 -0.0116647 -0.0117256 -0.0117615 -0.0117726 -0.0117594 -0.0117224 -0.0116617 -0.0115772 -0.0114691 -0.0113371 -0.0111815 -0.0110021 -0.0107484 -0.01037 -0.00986675 -0.00923874 -0.00848595 -0.00760838 -0.00660603 -0.0054789 -0.00435328 -0.00335549 -0.00248551 -0.00174336 -0.00112902 -0.000642504 -0.000283807 -5.2929e-05 9.87993e-05 0.000220048 0.000310818 0.000371107 0.000400918 0.000400249 0.0003691 0.000307472 0.000235408 0.000172953 0.000120106 7.68679e-05 4.32382e-05 1.9217e-05 4.80425e-06 0 0 -2.2007e-06 -8.8028e-06 -1.98063e-05 -3.52112e-05 -5.50175e-05 -7.92252e-05 -0.000107834 -0.000140845 -0.000166953 -0.000174856 -0.000164552 -0.000136043 -8.93279e-05 -2.4407e-05 5.87197e-05 0.000160052 0.000296321 0.000484258 0.000723862 0.00101513 0.00135807 0.00175268 0.00219895 0.0026969 0.0031955 0.00364376 0.00404167 0.00438925 0.00468647 0.00493336 0.0051299 0.0052761 0.00539035 0.00549107 0.00557825 0.00565189 0.00571199 0.00575856 0.00579158 0.00581107 0.00581273 0.00579225 0.00574965 0.00568493 0.00559807 0.00548908 0.00535797 0.00520473 0.0050256 0.00481682 0.0045784 0.00431032 0.00401259 0.00368522 0.00332819 0.00294152 0.00254534 0.0021598 0.00178489 0.00142063 0.00106699 0.000724002 0.000391646 6.99274e-05 -0.000325773 -0.000880075 -0.00159298 -0.00246448 -0.00349459 -0.0046833 -0.00603061 -0.00753652 -0.00903948 -0.010378 -0.0115519 -0.0125614 -0.0134064 -0.0140869 -0.0146028 -0.0149543 -0.0152066 -0.015425 -0.0156096 -0.0157602 -0.0158769 -0.0159598 -0.0160088 -0.0160238 -0.0160058 -0.0159555 -0.0158729 -0.0157579 -0.0156107 -0.0154311 -0.0152192 -0.014975 -0.0146298 -0.0141147 -0.0134297 -0.012575 -0.0115503 -0.0103559 -0.00899155 -0.00745739 -0.0059253 -0.00456719 -0.00338306 -0.0023729 -0.00153672 -0.00087452 -0.000386293 -7.20423e-05 0.000134477 0.00029951 0.000423057 0.000505118 0.000545694 0.000544783 0.000502386 0.000418503 0.000320416 0.000235408 0.000163478 0.000104626 5.8852e-05 2.61564e-05 6.53911e-06 0 0 -2.87438e-06 -1.14975e-05 -2.58694e-05 -4.59901e-05 -7.18596e-05 -0.000103478 -0.000140845 -0.000183961 -0.000218061 -0.000228383 -0.000214925 -0.000177689 -0.000116673 -3.18785e-05 7.66951e-05 0.000209048 0.000387032 0.0006325 0.000945453 0.00132589 0.00177381 0.00228921 0.0028721 0.00352248 0.00417371 0.00475919 0.00527892 0.00573289 0.00612111 0.00644357 0.00670028 0.00689123 0.00704046 0.00717201 0.00728588 0.00738206 0.00746056 0.00752138 0.00756452 0.00758997 0.00759213 0.00756539 0.00750975 0.00742521 0.00731176 0.00716942 0.00699817 0.00679802 0.00656405 0.00629136 0.00597995 0.0056298 0.00524094 0.00481335 0.00434703 0.00384198 0.00332453 0.00282096 0.00233129 0.00185551 0.00139363 0.000945635 0.000511538 9.13337e-05 -0.0004255 -0.00114949 -0.00208063 -0.00321892 -0.00456436 -0.00611696 -0.00787671 -0.00984362 -0.0118067 -0.0135549 -0.0150882 -0.0164067 -0.0175104 -0.0183992 -0.0190731 -0.0195322 -0.0198617 -0.020147 -0.020388 -0.0205848 -0.0207372 -0.0208455 -0.0209094 -0.0209291 -0.0209056 -0.0208398 -0.0207319 -0.0205818 -0.0203894 -0.0201549 -0.0198782 -0.0195592 -0.0191083 -0.0184355 -0.0175409 -0.0164244 -0.0150861 -0.013526 -0.0117441 -0.00974027 -0.00773917 -0.00596531 -0.00441869 -0.0030993 -0.00200715 -0.00114223 -0.000504546 -9.4096e-05 0.000175643 0.000391197 0.000552564 0.000659746 0.000712743 0.000711553 0.000656178 0.000546616 0.000418503 0.000307472 0.000213522 0.000136654 7.68679e-05 3.41635e-05 8.54088e-06 0 0 -3.38261e-06 -1.35304e-05 -3.04435e-05 -5.41217e-05 -8.45652e-05 -0.000121774 -0.000165748 -0.000216487 -0.000256508 -0.000268327 -0.000251944 -0.000207359 -0.000134572 -3.35839e-05 9.56064e-05 0.000252999 0.000464041 0.000754183 0.00112342 0.00157176 0.0020992 0.00270574 0.00339138 0.00415612 0.00492189 0.00561063 0.00622234 0.00675701 0.00721466 0.00759527 0.00789885 0.0081254 0.0083029 0.00845931 0.00859466 0.00870892 0.00880211 0.00887422 0.00892525 0.00895521 0.00895749 0.00892551 0.00885926 0.00875875 0.00862397 0.00845492 0.0082516 0.00801402 0.0077369 0.00741497 0.00704823 0.00663668 0.00618033 0.00567917 0.00513319 0.00454241 0.00393573 0.00334206 0.0027614 0.00219375 0.00163911 0.00109748 0.000568858 5.32452e-05 -0.00057683 -0.00144884 -0.00256278 -0.00391866 -0.00551647 -0.00735622 -0.00943791 -0.0117615 -0.0140805 -0.0161483 -0.0179649 -0.0195303 -0.0208446 -0.0219076 -0.0227195 -0.0232801 -0.0236878 -0.0240408 -0.024339 -0.0245825 -0.0247713 -0.0249053 -0.0249846 -0.0250091 -0.0249802 -0.0248988 -0.0247652 -0.0245792 -0.0243408 -0.0240501 -0.0237071 -0.0233117 -0.0227605 -0.0219499 -0.0208799 -0.0195506 -0.0179619 -0.0161139 -0.0140065 -0.0116397 -0.00927611 -0.00717822 -0.00534602 -0.00377951 -0.00247871 -0.00144359 -0.000674178 -0.000170459 0.000166974 0.000437533 0.000641217 0.000778025 0.000847959 0.000851019 0.000787203 0.000656512 0.000502642 0.000369288 0.00025645 0.000164128 9.2322e-05 4.1032e-05 1.0258e-05 0 0 -3.47009e-06 -1.38803e-05 -3.12308e-05 -5.55214e-05 -8.67521e-05 -0.000124923 -0.000170034 -0.000222085 -0.000262817 -0.000273967 -0.000255536 -0.000207525 -0.000129933 -2.27605e-05 0.000113993 0.000280327 0.000501553 0.000802981 0.00118461 0.00164645 0.00218848 0.00281072 0.00351316 0.00429581 0.00507956 0.00578533 0.00641312 0.00696292 0.00743474 0.00782858 0.00814444 0.00838231 0.00856998 0.00873523 0.00887806 0.00899848 0.00909647 0.00917205 0.0092252 0.00925594 0.00925751 0.00922317 0.00915292 0.00904676 0.00890469 0.00872671 0.00851282 0.00826302 0.00797341 0.00764011 0.00726311 0.00684242 0.00637804 0.00586996 0.00531818 0.00472271 0.0041071 0.00349489 0.0028861 0.00228072 0.00167875 0.0010802 0.000485049 -0.000106687 -0.000818069 -0.00177215 -0.00296894 -0.00440843 -0.00609063 -0.00801553 -0.0101831 -0.0125934 -0.0149987 -0.0171512 -0.0190509 -0.0206978 -0.022092 -0.0232334 -0.024122 -0.0247578 -0.0252352 -0.0256486 -0.025998 -0.0262834 -0.0265047 -0.0266621 -0.0267554 -0.0267847 -0.0267511 -0.0266559 -0.026499 -0.0262805 -0.0260002 -0.0256583 -0.0252547 -0.0247894 -0.0241628 -0.0232752 -0.0221265 -0.0207168 -0.0190461 -0.0171144 -0.0149217 -0.0124679 -0.0100173 -0.00783426 -0.00591865 -0.00427049 -0.0028898 -0.00177657 -0.000930804 -0.000352501 5.31452e-05 0.000380943 0.000630891 0.000802989 0.000897239 0.000913639 0.00085219 0.000712892 0.000545808 0.000401002 0.000278473 0.000178223 0.00010025 4.45557e-05 1.11389e-05 0 0 -3.13682e-06 -1.25473e-05 -2.82314e-05 -5.01891e-05 -7.84205e-05 -0.000112926 -0.000153704 -0.000200756 -0.000236988 -0.000245303 -0.000225703 -0.000178187 -0.000102756 5.91436e-07 0.000131854 0.000291033 0.000499567 0.000778895 0.00112902 0.00154993 0.00204164 0.00260415 0.00323745 0.00394154 0.00464673 0.0052833 0.00585127 0.00635063 0.00678137 0.00714351 0.00743703 0.00766195 0.00784171 0.00799975 0.00813609 0.00825072 0.00834365 0.00841486 0.00846436 0.00849216 0.00849219 0.00845838 0.00839073 0.00828926 0.00815395 0.0079848 0.00778182 0.00754501 0.00727359 0.00696679 0.00662459 0.00624702 0.00583406 0.00538571 0.00490198 0.00438287 0.00383861 0.00327945 0.00270539 0.00211642 0.00151255 0.000893783 0.000260111 -0.000388463 -0.00114922 -0.00211943 -0.0032991 -0.00468823 -0.00628682 -0.00809487 -0.0101124 -0.0123393 -0.0145612 -0.0165635 -0.0183461 -0.0199092 -0.0212526 -0.0223764 -0.0232806 -0.0239652 -0.0245039 -0.0249705 -0.025365 -0.0256874 -0.0259376 -0.0261158 -0.0262218 -0.0262558 -0.0262185 -0.0261111 -0.0259335 -0.0256857 -0.0253677 -0.0249795 -0.0245211 -0.0239925 -0.0233154 -0.0224114 -0.0212807 -0.0199232 -0.0183388 -0.0165276 -0.0144896 -0.0122248 -0.00996287 -0.00793346 -0.00613658 -0.00457224 -0.00324043 -0.00214116 -0.00127442 -0.000640222 -0.000165844 0.000221426 0.000521587 0.000734638 0.000860581 0.000899415 0.000851139 0.000715755 0.000548 0.000402612 0.000279592 0.000178939 0.000100653 4.47347e-05 1.11837e-05 0 0 -2.38281e-06 -9.53124e-06 -2.14453e-05 -3.8125e-05 -5.95703e-05 -8.57812e-05 -0.000116758 -0.0001525 -0.000179021 -0.000182336 -0.000162444 -0.000119346 -5.30402e-05 3.6472e-05 0.000149191 0.000285117 0.000458083 0.000681923 0.000956638 0.00128223 0.00165869 0.00208603 0.00256424 0.00309332 0.00362339 0.00410455 0.00453679 0.00492012 0.00525454 0.00554005 0.00577664 0.00596432 0.00611808 0.00625289 0.00636875 0.00646566 0.00654364 0.00660266 0.00664274 0.00666387 0.00666151 0.00663112 0.00657269 0.00648623 0.00637172 0.00622919 0.00605861 0.00586001 0.00563744 0.005395 0.00513267 0.00485047 0.0045484 0.00422644 0.00388461 0.00352289 0.00313028 0.00269573 0.00221925 0.00170085 0.00114051 0.000538242 -0.000105956 -0.000792084 -0.00157028 -0.00249067 -0.00355327 -0.00475806 -0.00610506 -0.00759425 -0.00922565 -0.0109992 -0.0127681 -0.0143852 -0.0158507 -0.0171644 -0.0183264 -0.0193368 -0.0201954 -0.0209023 -0.0214939 -0.0220064 -0.02244 -0.0227945 -0.02307 -0.0232664 -0.0233839 -0.0234223 -0.0233823 -0.0232644 -0.0230685 -0.0227948 -0.0224432 -0.0220136 -0.0215062 -0.0209208 -0.0202181 -0.0193587 -0.0183425 -0.0171696 -0.0158399 -0.0143535 -0.0127104 -0.0109105 -0.00911269 -0.0074758 -0.00599982 -0.00468475 -0.0035306 -0.00253736 -0.00170503 -0.00103362 -0.000489992 -4.10167e-05 0.000313305 0.000572972 0.000737986 0.000808345 0.000784051 0.000665102 0.000509219 0.00037412 0.000259806 0.000166276 9.353e-05 4.15689e-05 1.03922e-05 0 0 -1.20806e-06 -4.83222e-06 -1.08725e-05 -1.93289e-05 -3.02014e-05 -4.349e-05 -5.91947e-05 -7.73155e-05 -8.89175e-05 -8.50655e-05 -6.57597e-05 -3.09999e-05 1.92137e-05 8.48813e-05 0.000166003 0.000262578 0.000377102 0.000512068 0.000667476 0.000843327 0.00103962 0.00125636 0.00149353 0.00175115 0.00200955 0.00224906 0.00246968 0.00267141 0.00285425 0.0030182 0.00316326 0.00328943 0.0033991 0.00349463 0.00357603 0.0036433 0.00369644 0.00373545 0.00376033 0.00377107 0.0037655 0.00374141 0.0036988 0.00363767 0.00355803 0.00345987 0.00334319 0.00320799 0.00306495 0.00292474 0.00278735 0.00265279 0.00252105 0.00239213 0.00226605 0.00214278 0.0019821 0.00174374 0.00142771 0.001034 0.000562623 1.35726e-05 -0.000613151 -0.00131755 -0.00208125 -0.00288587 -0.00373143 -0.00461792 -0.00554533 -0.00651368 -0.00752295 -0.00857316 -0.00961931 -0.0106164 -0.0115645 -0.0124635 -0.0133135 -0.0141144 -0.0148663 -0.0155692 -0.0162052 -0.0167564 -0.0172229 -0.0176047 -0.0179017 -0.018114 -0.0182416 -0.0182844 -0.0182425 -0.0181157 -0.0179042 -0.0176078 -0.0172267 -0.0167607 -0.01621 -0.0155744 -0.014871 -0.0141169 -0.0133119 -0.0124561 -0.0115495 -0.0105921 -0.00958392 -0.00852491 -0.0074668 -0.00646128 -0.00550836 -0.00460803 -0.00376031 -0.00296517 -0.00222264 -0.0015327 -0.000919301 -0.000406386 6.04475e-06 0.000317991 0.000529453 0.00064043 0.000650924 0.000560933 0.000429464 0.000315525 0.000219114 0.000140233 7.88812e-05 3.50583e-05 8.76457e-06 0 0 3.87444e-07 1.54978e-06 3.48699e-06 6.1991e-06 9.6861e-06 1.3948e-05 1.89847e-05 2.47964e-05 3.33241e-05 4.65089e-05 6.43508e-05 8.68498e-05 0.000114006 0.000145819 0.00018229 0.000223417 0.000256623 0.000269327 0.00026153 0.000233232 0.000184433 0.000115133 2.5332e-05 -8.49704e-05 -0.000194794 -0.000283159 -0.000350066 -0.000395515 -0.000419505 -0.000422037 -0.00040311 -0.000362725 -0.000315243 -0.000275023 -0.000242067 -0.000216373 -0.000197943 -0.000186776 -0.000182872 -0.000186231 -0.00019586 -0.000210767 -0.00023095 -0.00025641 -0.000287147 -0.000323161 -0.000364451 -0.000411019 -0.000443863 -0.000443981 -0.000411374 -0.000346042 -0.000247984 -0.000117201 4.63069e-05 0.00024254 0.000394072 0.000423472 0.000330743 0.000115884 -0.000221106 -0.000680225 -0.00126148 -0.00196486 -0.00268212 -0.00330504 -0.0038336 -0.0042678 -0.00460765 -0.00485315 -0.00500429 -0.00506107 -0.00511487 -0.00525703 -0.00548757 -0.00580648 -0.00621376 -0.00670941 -0.00729343 -0.00796582 -0.00863777 -0.00922045 -0.00971387 -0.010118 -0.0104329 -0.0106585 -0.0107949 -0.010842 -0.010799 -0.0106652 -0.0104404 -0.0101248 -0.00971824 -0.00922082 -0.00863251 -0.00795331 -0.00727416 -0.00668602 -0.00618887 -0.00578271 -0.00546756 -0.0052434 -0.00511024 -0.00506807 -0.0050252 -0.00488991 -0.0046622 -0.00434209 -0.00392955 -0.0034246 -0.00282724 -0.00213746 -0.00145377 -0.000874681 -0.000400193 -3.03054e-05 0.000234983 0.000395671 0.000451759 0.000403247 0.000308736 0.000226826 0.000157518 0.000100812 5.67066e-05 2.52029e-05 6.30073e-06 0 0 2.40369e-06 9.61475e-06 2.16332e-05 3.8459e-05 6.00922e-05 8.65328e-05 0.000117781 0.000153836 0.000187703 0.000212387 0.000227887 0.000234203 0.000231336 0.000219286 0.000198051 0.000167634 9.66459e-05 -4.62983e-05 -0.000261199 -0.000548056 -0.000906869 -0.00133764 -0.00184037 -0.00241505 -0.00298964 -0.00349211 -0.00392244 -0.00428064 -0.00456672 -0.00478066 -0.00492247 -0.00499215 -0.00502494 -0.00505606 -0.00508554 -0.00511335 -0.00513951 -0.00516401 -0.00518686 -0.00520805 -0.00522256 -0.0052254 -0.00521655 -0.00519601 -0.00516379 -0.00511989 -0.00506431 -0.00499704 -0.00488901 -0.00471117 -0.0044635 -0.00414601 -0.0037587 -0.00330157 -0.00277461 -0.00217784 -0.0016338 -0.00126507 -0.00107164 -0.00105351 -0.00121068 -0.00154315 -0.00205093 -0.00273401 -0.00337291 -0.00374816 -0.00385976 -0.00370771 -0.00329201 -0.00261265 -0.00166965 -0.000462989 0.000745229 0.00169291 0.00238006 0.00280668 0.00297276 0.00287831 0.00252333 0.00190781 0.00120833 0.000601454 8.71802e-05 -0.000334489 -0.000663554 -0.000900014 -0.00104387 -0.00109512 -0.00105199 -0.000912697 -0.000677239 -0.000345618 8.21659e-05 0.000606113 0.00122622 0.0019425 0.00257252 0.00293387 0.00302656 0.00285059 0.00240594 0.00169264 0.000710661 -0.00053998 -0.00178789 -0.00276168 -0.00346136 -0.0038869 -0.00403833 -0.00391564 -0.00351883 -0.00284789 -0.0020934 -0.0014459 -0.000905409 -0.000471917 -0.000145425 7.40658e-05 0.000186556 0.000192045 0.000147034 0.000108025 7.50176e-05 4.80112e-05 2.70063e-05 1.20028e-05 3.0007e-06 0 0 4.84068e-06 1.93627e-05 4.35661e-05 7.74508e-05 0.000121017 0.000174264 0.000237193 0.000309803 0.00037422 0.000412569 0.000424849 0.000411061 0.000371205 0.000305281 0.000213289 9.5228e-05 -0.000102828 -0.000434808 -0.000900711 -0.00150054 -0.00223429 -0.00310196 -0.00410356 -0.00523908 -0.006375 -0.00737779 -0.00824745 -0.00898398 -0.00958739 -0.0100577 -0.0103948 -0.0105988 -0.01073 -0.0108485 -0.0109544 -0.0110476 -0.0111283 -0.0111963 -0.0112516 -0.0112944 -0.0113146 -0.0113025 -0.011258 -0.0111811 -0.0110719 -0.0109303 -0.0107564 -0.0105501 -0.0102705 -0.00987682 -0.00936903 -0.00874712 -0.0080111 -0.00716097 -0.00619672 -0.00511835 -0.00410152 -0.00332188 -0.00277943 -0.00247417 -0.00240609 -0.00257521 -0.00298151 -0.003625 -0.00415361 -0.00421525 -0.00380993 -0.00293765 -0.00159841 0.000207797 0.00248096 0.00522109 0.00796098 0.0102334 0.0120384 0.013376 0.0142461 0.0146487 0.0145839 0.0140517 0.0133331 0.0127093 0.0121802 0.0117459 0.0114064 0.0111616 0.0110115 0.0109563 0.0109987 0.0111417 0.0113853 0.0117296 0.0121745 0.0127201 0.0133662 0.014113 0.014669 0.0147428 0.0143344 0.0134438 0.012071 0.010216 0.00787878 0.00505937 0.00224512 -7.66056e-05 -0.00190581 -0.00324249 -0.00408665 -0.00443829 -0.00429741 -0.00366401 -0.00283818 -0.00212005 -0.0015096 -0.00100684 -0.00061177 -0.000324384 -0.000144685 -7.26733e-05 -5.56405e-05 -4.08788e-05 -2.8388e-05 -1.81683e-05 -1.02197e-05 -4.54208e-06 -1.13552e-06 0 0 7.05521e-06 2.82209e-05 6.34969e-05 0.000112883 0.00017638 0.000253988 0.000345706 0.000451534 0.000542715 0.000590491 0.000594862 0.000555828 0.000473389 0.000347545 0.000178296 -3.43573e-05 -0.00036008 -0.000868536 -0.00155973 -0.00243365 -0.0034903 -0.00472969 -0.00615181 -0.00775667 -0.0093622 -0.0107863 -0.0120291 -0.0130904 -0.0139704 -0.014669 -0.0151862 -0.015522 -0.0157553 -0.015965 -0.0161512 -0.0163138 -0.0164528 -0.0165683 -0.0166602 -0.0167285 -0.0167571 -0.0167299 -0.0166468 -0.0165079 -0.0163131 -0.0160624 -0.0157559 -0.0153935 -0.0149339 -0.0143355 -0.0135985 -0.0127227 -0.0117083 -0.0105551 -0.0092633 -0.00783275 -0.00646634 -0.00536689 -0.00453441 -0.00396889 -0.00367033 -0.00363873 -0.0038741 -0.00437643 -0.00463861 -0.00415352 -0.00292118 -0.000941577 0.00178529 0.00525941 0.0094808 0.0144495 0.0194154 0.0236288 0.0270896 0.0297977 0.0317532 0.0329562 0.0334065 0.0331042 0.0324674 0.0319143 0.0314447 0.0310587 0.0307563 0.0305376 0.0304024 0.0303509 0.0303867 0.0305135 0.0307314 0.0310404 0.0314404 0.0319315 0.0325136 0.0331868 0.0335193 0.033079 0.0318661 0.0298805 0.0271223 0.0235915 0.0192879 0.0142117 0.00914285 0.00486129 0.00136702 -0.00133995 -0.00325961 -0.00439197 -0.00473703 -0.00429479 -0.00350371 -0.00280225 -0.00219042 -0.00166821 -0.00123562 -0.000892663 -0.000639325 -0.00047561 -0.000364139 -0.000267531 -0.000185785 -0.000118903 -6.68827e-05 -2.97256e-05 -7.43141e-06 0 0 8.40411e-06 3.36164e-05 7.5637e-05 0.000134466 0.000210103 0.000302548 0.000411801 0.000537863 0.000643028 0.00068959 0.000677551 0.000606909 0.000477665 0.000289819 4.3371e-05 -0.000261679 -0.000693389 -0.00131982 -0.00214096 -0.00315682 -0.0043674 -0.00577269 -0.0073727 -0.00916743 -0.0109626 -0.0125639 -0.0139713 -0.0151849 -0.0162047 -0.0170305 -0.0176625 -0.0181007 -0.0184257 -0.0187184 -0.0189786 -0.0192065 -0.0194019 -0.019565 -0.0196956 -0.0197939 -0.0198353 -0.0197955 -0.0196745 -0.0194722 -0.0191887 -0.018824 -0.018378 -0.0178508 -0.0172247 -0.0164818 -0.0156223 -0.0146462 -0.0135533 -0.0123438 -0.0110176 -0.0095748 -0.00818552 -0.00702003 -0.00607834 -0.00536045 -0.00486636 -0.00459606 -0.00454956 -0.00472686 -0.00444229 -0.0030102 -0.000430587 0.00329655 0.00817122 0.0141934 0.0213631 0.0296804 0.0379916 0.0451433 0.0511355 0.0559682 0.0596414 0.062155 0.0635091 0.0637037 0.063342 0.0630274 0.0627599 0.0625393 0.0623658 0.0622393 0.0621599 0.0621275 0.0621458 0.0622183 0.062345 0.062526 0.0627613 0.0630508 0.0633946 0.0637926 0.0636272 0.0622807 0.0597532 0.0560445 0.0511547 0.0450839 0.0378319 0.0293988 0.0209743 0.013748 0.00771972 0.00288964 -0.0007423 -0.00317609 -0.00441174 -0.00444923 -0.00390555 -0.00339764 -0.0029255 -0.00248914 -0.00208856 -0.00172375 -0.00139472 -0.00110147 -0.000843312 -0.000619576 -0.000430261 -0.000275367 -0.000154894 -6.88418e-05 -1.72104e-05 0 0 8.88736e-06 3.55494e-05 7.99862e-05 0.000142198 0.000222184 0.000319945 0.000435481 0.000568791 0.000675159 0.000709867 0.000672916 0.000564304 0.000384033 0.000132103 -0.000191488 -0.000586738 -0.00110275 -0.00178865 -0.00264441 -0.00367005 -0.00486557 -0.00623096 -0.00776622 -0.00947136 -0.0111762 -0.0127105 -0.0140742 -0.0152674 -0.0162901 -0.0171423 -0.0178239 -0.018335 -0.0187413 -0.0191085 -0.0194366 -0.0197256 -0.0199754 -0.0201862 -0.0203578 -0.0204904 -0.0205491 -0.0204993 -0.0203411 -0.0200743 -0.019699 -0.0192152 -0.0186228 -0.017922 -0.0171429 -0.0163158 -0.0154406 -0.0145174 -0.0135462 -0.012527 -0.0114598 -0.0103445 -0.00925905 -0.00828129 -0.00741123 -0.00664886 -0.00599418 -0.0054472 -0.0050079 -0.0046763 -0.00356467 -0.000785285 0.00366185 0.00977674 0.0175594 0.0270098 0.0381279 0.0509138 0.0636895 0.074777 0.0841763 0.0918875 0.0979104 0.102245 0.104892 0.10585 0.105957 0.106049 0.106126 0.106188 0.106235 0.106267 0.106284 0.106286 0.106276 0.106256 0.106226 0.106187 0.106137 0.106078 0.106009 0.10593 0.104993 0.102348 0.0979955 0.0919356 0.0841681 0.0746932 0.0635107 0.0506207 0.0377395 0.0265834 0.0171523 0.00944626 0.00346528 -0.000790651 -0.00332152 -0.00412734 -0.0040437 -0.0039062 -0.00371485 -0.00346964 -0.00317058 -0.00281766 -0.00241088 -0.00195025 -0.00149316 -0.00109701 -0.000761815 -0.000487562 -0.000274254 -0.00012189 -3.04726e-05 0 0 8.50497e-06 3.40199e-05 7.65447e-05 0.000136079 0.000212624 0.000306179 0.000416743 0.000544318 0.000639108 0.000651321 0.000580957 0.000428014 0.000192494 -0.000125604 -0.00052628 -0.00100953 -0.00158818 -0.00227503 -0.00307009 -0.00397335 -0.00498482 -0.00610449 -0.00733237 -0.00866846 -0.0100029 -0.011226 -0.0123377 -0.013338 -0.0142268 -0.0150043 -0.0156703 -0.016225 -0.0167021 -0.0171355 -0.0175252 -0.0178711 -0.0181734 -0.018432 -0.0186469 -0.0188181 -0.0188985 -0.0188414 -0.0186465 -0.018314 -0.0178437 -0.0172358 -0.0164903 -0.015607 -0.0146886 -0.0138373 -0.0130533 -0.0123366 -0.011687 -0.0111047 -0.0105897 -0.0101418 -0.00968693 -0.00915068 -0.00853307 -0.00783412 -0.00705381 -0.00619214 -0.00524913 -0.00422476 -0.00200574 0.00252123 0.00935613 0.018499 0.0299498 0.0437085 0.0597752 0.0781498 0.0965091 0.11253 0.126212 0.137555 0.14656 0.153227 0.157554 0.159544 0.160312 0.160978 0.161542 0.162004 0.162363 0.16262 0.162775 0.162827 0.162777 0.162627 0.162375 0.162022 0.161568 0.161013 0.160357 0.1596 0.157616 0.153281 0.146593 0.137554 0.126163 0.112419 0.0963244 0.0778774 0.0594385 0.0433676 0.0296647 0.0183299 0.00936312 0.00276435 -0.00146639 -0.0033291 -0.00391816 -0.00432795 -0.00455847 -0.00460971 -0.00448168 -0.00417437 -0.0036878 -0.00302195 -0.00231368 -0.00169985 -0.00118045 -0.000755487 -0.000424961 -0.000188872 -4.72179e-05 0 0 7.25693e-06 2.90277e-05 6.53124e-05 0.000116111 0.000181423 0.000261249 0.00