<?xml version="1.0"?> 
<VTKFile type="StructuredGrid" version="0.1"> 
<StructuredGrid WholeExtent="0 128 0 128 0 0"> 
<Piece Extent="0 128 0 128 0 0"> 
<PointData>
<DataArray type="Float32" Name="u" format="ascii" NumberOfComponents="1"> 
0 0 0 0 0 0 0 0 0 0 0 0 0 0 0 0 0 0 0 0 0 0 0 0 0 0 0 0 0 0 0 0 0 0 0 0 0 0 0 0 0 0 0 0 0 0 0 0 0 0 0 0 0 0 0 0 0 0 0 0 0 0 0 0 0 0 0 0 0 0 0 0 0 0 0 0 0 0 0 0 0 0 0 0 0 0 0 0 0 0 0 0 0 0 0 0 0 0 0 0 0 0 0 0 0 0 0 0 0 0 0 0 0 0 0 0 0 0 0 0 0 0 0 0 0 0 0 0 0 0 1.00572e-07 4.02288e-07 9.05148e-07 1.60915e-06 2.5143e-06 3.62059e-06 4.92803e-06 6.43661e-06 7.97508e-06 9.3722e-06 1.0628e-05 1.17424e-05 1.27154e-05 1.35471e-05 1.42375e-05 1.47865e-05 1.51981e-05 1.54763e-05 1.56211e-05 1.56326e-05 1.55106e-05 1.52552e-05 1.48663e-05 1.43441e-05 1.38735e-05 1.36395e-05 1.36422e-05 1.38815e-05 1.43574e-05 1.50699e-05 1.6019e-05 1.72048e-05 1.84058e-05 1.94005e-05 2.0189e-05 2.07712e-05 2.11472e-05 2.1317e-05 2.12805e-05 2.10378e-05 2.07409e-05 2.05419e-05 2.04408e-05 2.04375e-05 2.05321e-05 2.07246e-05 2.1015e-05 2.14032e-05 2.17283e-05 2.18291e-05 2.17056e-05 2.13578e-05 2.07858e-05 1.99895e-05 1.89689e-05 1.77241e-05 1.54276e-05 1.12521e-05 5.19766e-06 -2.73582e-06 -1.25483e-05 -2.42398e-05 -3.78102e-05 -5.32597e-05 -7.03174e-05 -8.87126e-05 -0.000108445 -0.000129516 -0.000151923 -0.000175668 -0.000200751 -0.000227171 -0.00025404 -0.000280468 -0.000306456 -0.000332003 -0.00035711 -0.000381776 -0.000406002 -0.000429787 -0.000451867 -0.000470974 -0.00048711 -0.000500275 -0.000510468 -0.000517689 -0.000521938 -0.000523216 -0.000521557 -0.000516995 -0.000509531 -0.000499164 -0.000485895 -0.000469723 -0.000450648 -0.000428671 -0.000405101 -0.000381247 -0.00035711 -0.000332689 -0.000307985 -0.000282997 -0.000257726 -0.000232171 -0.000207129 -0.000183399 -0.000160978 -0.000139868 -0.000120069 -0.000101581 -8.44027e-05 -6.85353e-05 -5.42139e-05 -4.16738e-05 -3.09152e-05 -2.1938e-05 -1.47422e-05 -9.32787e-06 -5.69491e-06 -3.84336e-06 -2.94258e-06 -2.16189e-06 -1.50131e-06 -9.60841e-07 -5.40473e-07 -2.4021e-07 -6.00526e-08 0 0 4.02288e-07 1.60915e-06 3.62059e-06 6.43661e-06 1.00572e-05 1.44824e-05 1.97121e-05 2.57464e-05 3.19003e-05 3.74888e-05 4.25119e-05 4.69695e-05 5.08618e-05 5.41886e-05 5.695e-05 5.9146e-05 6.07925e-05 6.19053e-05 6.24846e-05 6.25302e-05 6.20422e-05 6.10206e-05 5.94654e-05 5.73765e-05 5.54941e-05 5.45582e-05 5.45688e-05 5.55259e-05 5.74294e-05 6.02795e-05 6.40761e-05 6.88192e-05 7.36231e-05 7.76019e-05 8.07559e-05 8.30849e-05 8.45889e-05 8.5268e-05 8.51221e-05 8.41512e-05 8.29637e-05 8.21676e-05 8.1763e-05 8.175e-05 8.21285e-05 8.28984e-05 8.40599e-05 8.56129e-05 8.69131e-05 8.73162e-05 8.68223e-05 8.54312e-05 8.31431e-05 7.99579e-05 7.58757e-05 7.08963e-05 6.17104e-05 4.50085e-05 2.07906e-05 -1.09433e-05 -5.01932e-05 -9.6959e-05 -0.000151241 -0.000213039 -0.00028127 -0.000354851 -0.000433781 -0.000518062 -0.000607693 -0.000702674 -0.000803005 -0.000908685 -0.00101616 -0.00112187 -0.00122582 -0.00132801 -0.00142844 -0.00152711 -0.00162401 -0.00171915 -0.00180747 -0.0018839 -0.00194844 -0.0020011 -0.00204187 -0.00207076 -0.00208775 -0.00209287 -0.00208623 -0.00206798 -0.00203812 -0.00199666 -0.00194358 -0.00187889 -0.00180259 -0.00171469 -0.0016204 -0.00152499 -0.00142844 -0.00133076 -0.00123194 -0.00113199 -0.0010309 -0.000928683 -0.000828518 -0.000733594 -0.000643913 -0.000559474 -0.000480277 -0.000406323 -0.000337611 -0.000274141 -0.000216855 -0.000166695 -0.000123661 -8.77521e-05 -5.8969e-05 -3.73115e-05 -2.27796e-05 -1.53735e-05 -1.17703e-05 -8.64757e-06 -6.00526e-06 -3.84336e-06 -2.16189e-06 -9.60841e-07 -2.4021e-07 0 0 9.05148e-07 3.62059e-06 8.14633e-06 1.44824e-05 2.26287e-05 3.25853e-05 4.43522e-05 5.79294e-05 7.17757e-05 8.43498e-05 9.56517e-05 0.000105681 0.000114439 0.000121924 0.000128138 0.000133079 0.000136783 0.000139287 0.00014059 0.000140693 0.000139595 0.000137296 0.000133797 0.000129097 0.000124862 0.000122756 0.00012278 0.000124933 0.000129216 0.000135629 0.000144171 0.000154843 0.000165652 0.000174604 0.000181701 0.000186941 0.000190325 0.000191853 0.000191525 0.00018934 0.000186668 0.000184877 0.000183967 0.000183937 0.000184789 0.000186521 0.000189135 0.000192629 0.000195554 0.000196462 0.00019535 0.00019222 0.000187072 0.000179905 0.00017072 0.000159517 0.000138848 0.000101269 4.67789e-05 -2.46223e-05 -0.000112935 -0.000218158 -0.000340292 -0.000479337 -0.000632857 -0.000798414 -0.000976008 -0.00116564 -0.00136731 -0.00158102 -0.00180676 -0.00204454 -0.00228636 -0.00252421 -0.0027581 -0.00298803 -0.00321399 -0.00343599 -0.00365402 -0.00386809 -0.0040668 -0.00423877 -0.00438399 -0.00450247 -0.00459421 -0.0046592 -0.00469745 -0.00470895 -0.00469401 -0.00465296 -0.00458578 -0.00449248 -0.00437305 -0.00422751 -0.00405584 -0.00385804 -0.00364591 -0.00343123 -0.00321399 -0.0029942 -0.00277187 -0.00254697 -0.00231953 -0.00208954 -0.00186416 -0.00165059 -0.0014488 -0.00125882 -0.00108062 -0.000914227 -0.000759625 -0.000616818 -0.000487925 -0.000375065 -0.000278237 -0.000197442 -0.00013268 -8.39508e-05 -5.12542e-05 -3.45903e-05 -2.64832e-05 -1.9457e-05 -1.35118e-05 -8.64757e-06 -4.86426e-06 -2.16189e-06 -5.40473e-07 0 0 1.60915e-06 6.43661e-06 1.44824e-05 2.57464e-05 4.02288e-05 5.79294e-05 7.88484e-05 0.000102986 0.000127601 0.000149955 0.000170047 0.000187878 0.000203447 0.000216754 0.0002278 0.000236584 0.00024317 0.000247621 0.000249938 0.000250121 0.000248169 0.000244082 0.000237861 0.000229506 0.000221976 0.000218233 0.000218275 0.000222103 0.000229718 0.000241118 0.000256304 0.000275277 0.000294492 0.000310408 0.000323024 0.000332339 0.000338356 0.000341072 0.000340488 0.000336605 0.000331855 0.00032867 0.000327052 0.000327 0.000328514 0.000331594 0.00033624 0.000342452 0.000347652 0.000349265 0.000347289 0.000341725 0.000332572 0.000319832 0.000303503 0.000283585 0.000246842 0.000180034 8.31625e-05 -4.37731e-05 -0.000200773 -0.000387836 -0.000604964 -0.000852155 -0.00112508 -0.0014194 -0.00173513 -0.00207225 -0.00243077 -0.0028107 -0.00321202 -0.00363474 -0.00406464 -0.00448749 -0.0049033 -0.00531205 -0.00571376 -0.00610842 -0.00649603 -0.0068766 -0.00722987 -0.00753559 -0.00779377 -0.0080044 -0.00816748 -0.00828302 -0.00835101 -0.00837146 -0.00834491 -0.00827193 -0.0081525 -0.00798663 -0.00777432 -0.00751557 -0.00721037 -0.00685874 -0.00648162 -0.00609996 -0.00571376 -0.00532303 -0.00492776 -0.00452796 -0.00412361 -0.00371473 -0.00331407 -0.00293438 -0.00257565 -0.0022379 -0.00192111 -0.00162529 -0.00135044 -0.00109656 -0.000867422 -0.000666781 -0.000494644 -0.000351008 -0.000235876 -0.000149246 -9.11186e-05 -6.14938e-05 -4.70812e-05 -3.45903e-05 -2.4021e-05 -1.53735e-05 -8.64757e-06 -3.84336e-06 -9.60841e-07 0 0 2.5143e-06 1.00572e-05 2.26287e-05 4.02288e-05 6.28575e-05 9.05148e-05 0.000123201 0.000160915 0.000199377 0.000234305 0.000265699 0.00029356 0.000317886 0.000338679 0.000355938 0.000369663 0.000379953 0.000386908 0.000390529 0.000390814 0.000387764 0.000381379 0.000371659 0.000358603 0.000346838 0.000340989 0.000341055 0.000347037 0.000358934 0.000376747 0.000400476 0.00043012 0.000460144 0.000485012 0.000504724 0.00051928 0.000528681 0.000532925 0.000532013 0.000525945 0.000518523 0.000513547 0.000511019 0.000510937 0.000513303 0.000518115 0.000525374 0.000535081 0.000543207 0.000545726 0.000542639 0.000533945 0.000519645 0.000499737 0.000474223 0.000443102 0.00038569 0.000281303 0.000129941 -6.83954e-05 -0.000313707 -0.000605994 -0.000945256 -0.00133149 -0.00175794 -0.00221782 -0.00271113 -0.00323789 -0.00379808 -0.00439171 -0.00501878 -0.00567928 -0.006351 -0.00701171 -0.0076614 -0.00830008 -0.00892775 -0.00954441 -0.0101501 -0.0107447 -0.0112967 -0.0117744 -0.0121778 -0.0125069 -0.0127617 -0.0129422 -0.0130485 -0.0130804 -0.0130389 -0.0129249 -0.0127383 -0.0124791 -0.0121474 -0.0117431 -0.0112662 -0.0107168 -0.0101275 -0.00953119 -0.00892776 -0.00831724 -0.00769963 -0.00707493 -0.00644314 -0.00580427 -0.00517823 -0.00458496 -0.00402445 -0.00349671 -0.00300173 -0.00253952 -0.00211007 -0.00171338 -0.00135535 -0.00104185 -0.000772881 -0.000548451 -0.000368556 -0.000233197 -0.000142373 -9.60841e-05 -7.35644e-05 -5.40473e-05 -3.75329e-05 -2.4021e-05 -1.35118e-05 -6.00526e-06 -1.50131e-06 0 0 3.62059e-06 1.44824e-05 3.25853e-05 5.79294e-05 9.05148e-05 0.000130341 0.000177409 0.000231718 0.000287103 0.000337399 0.000382607 0.000422726 0.000457756 0.000487697 0.00051255 0.000532314 0.000547132 0.000557148 0.000562361 0.000562772 0.00055838 0.000549185 0.000535188 0.000516389 0.000499447 0.000491024 0.000491119 0.000499733 0.000516865 0.000542516 0.000576685 0.000619373 0.000662607 0.000698418 0.000726803 0.000747764 0.0007613 0.000767412 0.000766099 0.000757361 0.000746673 0.000739508 0.000735867 0.00073575 0.000739156 0.000746086 0.000756539 0.000770516 0.000782218 0.000785846 0.0007814 0.000768881 0.000748288 0.000719621 0.000682881 0.000638067 0.000555394 0.000405077 0.000187116 -9.84894e-05 -0.000451738 -0.000872631 -0.00136117 -0.00191735 -0.00253143 -0.00319366 -0.00390403 -0.00466256 -0.00546924 -0.00632407 -0.00722704 -0.00817817 -0.00914544 -0.0100969 -0.0110324 -0.0119521 -0.012856 -0.0137439 -0.0146161 -0.0154723 -0.0162672 -0.0169551 -0.017536 -0.0180099 -0.0183768 -0.0186368 -0.0187898 -0.0188358 -0.0187761 -0.0186118 -0.0183431 -0.0179699 -0.0174922 -0.01691 -0.0162233 -0.0154322 -0.0145836 -0.0137249 -0.012856 -0.0119768 -0.0110875 -0.0101879 -0.00927813 -0.00835815 -0.00745666 -0.00660235 -0.00579522 -0.00503526 -0.0043225 -0.00365691 -0.0030385 -0.00246727 -0.0019517 -0.00150026 -0.00111295 -0.000789769 -0.000530721 -0.000335803 -0.000205017 -0.000138361 -0.000105933 -7.78281e-05 -5.40473e-05 -3.45903e-05 -1.9457e-05 -8.64757e-06 -2.16189e-06 0 0 4.92803e-06 1.97121e-05 4.43522e-05 7.88484e-05 0.000123201 0.000177409 0.000241473 0.000315394 0.000390779 0.000459238 0.00052077 0.000575377 0.000623057 0.00066381 0.000697638 0.000724539 0.000744708 0.00075834 0.000765436 0.000765995 0.000760017 0.000747502 0.000728451 0.000702862 0.000679803 0.000668338 0.000668468 0.000680192 0.000703511 0.000738424 0.000784932 0.000843035 0.000901882 0.000950624 0.00098926 0.00101779 0.00103621 0.00104453 0.00104275 0.00103085 0.0010163 0.00100655 0.0010016 0.00100144 0.00100607 0.00101551 0.00102973 0.00104876 0.00106469 0.00106962 0.00106357 0.00104653 0.0010185 0.000979485 0.000929477 0.00086848 0.000755953 0.000551354 0.000254685 -0.000134055 -0.000614866 -0.00118775 -0.0018527 -0.00260973 -0.00344555 -0.00434692 -0.00531382 -0.00634626 -0.00744424 -0.00860776 -0.00983681 -0.0111314 -0.012448 -0.0137429 -0.0150163 -0.0162682 -0.0174984 -0.018707 -0.0198941 -0.0210596 -0.0221415 -0.0230777 -0.0238684 -0.0245135 -0.0250129 -0.0253668 -0.025575 -0.0256376 -0.0255563 -0.0253328 -0.024967 -0.0244591 -0.0238089 -0.0230164 -0.0220818 -0.0210049 -0.01985 -0.0186811 -0.0174984 -0.0163018 -0.0150913 -0.0138669 -0.0126286 -0.0113764 -0.0101493 -0.00898653 -0.00788793 -0.00685356 -0.0058834 -0.00497746 -0.00413573 -0.00335823 -0.00265648 -0.00204202 -0.00151485 -0.00107496 -0.00072237 -0.000457066 -0.000279051 -0.000188325 -0.000144186 -0.000105933 -7.35644e-05 -4.70812e-05 -2.64832e-05 -1.17703e-05 -2.94258e-06 0 0 6.43661e-06 2.57464e-05 5.79294e-05 0.000102986 0.000160915 0.000231718 0.000315394 0.000411943 0.000510405 0.000599821 0.00068019 0.000751512 0.000813788 0.000867017 0.0009112 0.000946336 0.00097268 0.000990486 0.000999753 0.00100048 0.000992675 0.00097633 0.000951446 0.000918024 0.000887906 0.000872931 0.0008731 0.000888414 0.000918871 0.000964473 0.00102522 0.00110111 0.00117797 0.00124163 0.00129209 0.00132936 0.00135342 0.00136429 0.00136195 0.00134642 0.00132742 0.00131468 0.00130821 0.001308 0.00131406 0.00132637 0.00134496 0.00136981 0.00139061 0.00139706 0.00138916 0.0013669 0.00133029 0.00127933 0.00121401 0.00113434 0.000987367 0.000720136 0.00033265 -0.000175092 -0.000803091 -0.00155134 -0.00241985 -0.00340862 -0.00450032 -0.00567761 -0.0069405 -0.008289 -0.00972309 -0.0112428 -0.0128481 -0.014539 -0.0162586 -0.01795 -0.0196132 -0.0212482 -0.022855 -0.0244337 -0.0259841 -0.0275064 -0.0289195 -0.0301424 -0.0311751 -0.0320176 -0.0326699 -0.0331321 -0.0334041 -0.0334858 -0.0333797 -0.0330877 -0.03261 -0.0319465 -0.0310973 -0.0300623 -0.0288415 -0.027435 -0.0259265 -0.0243998 -0.0228551 -0.0212921 -0.019711 -0.0181118 -0.0164945 -0.0148589 -0.0132563 -0.0117375 -0.0103026 -0.00895158 -0.00768444 -0.00650117 -0.00540178 -0.00438626 -0.00346969 -0.00266713 -0.00197857 -0.00140403 -0.000943504 -0.000596984 -0.000364474 -0.000245975 -0.000188325 -0.000138361 -9.60841e-05 -6.14938e-05 -3.45903e-05 -1.53735e-05 -3.84336e-06 0 0 7.80878e-06 3.12351e-05 7.0279e-05 0.000124941 0.00019522 0.000281116 0.00038263 0.000499762 0.000618287 0.000723981 0.000816844 0.000896876 0.000964077 0.00101845 0.00105999 0.00108869 0.00110514 0.0011099 0.00110297 0.00108435 0.00105404 0.00101204 0.000958357 0.000892981 0.000831098 0.00078789 0.000763357 0.000757499 0.000770316 0.000801809 0.000851976 0.000920819 0.000992488 0.00105114 0.00109676 0.00112937 0.00114895 0.00115551 0.00114905 0.00112957 0.00110891 0.00109892 0.00109958 0.00111091 0.0011329 0.00116556 0.00120888 0.00126286 0.00131227 0.00134187 0.00135168 0.00134167 0.00131187 0.00126226 0.00119284 0.00110362 0.000933068 0.000619648 0.000163361 -0.000435791 -0.00117781 -0.00206269 -0.00309045 -0.00426106 -0.00555049 -0.00693467 -0.0084136 -0.00998729 -0.0116557 -0.0134189 -0.0152769 -0.0172296 -0.0192167 -0.0211779 -0.0231132 -0.0250227 -0.0269062 -0.0287638 -0.0305956 -0.0324014 -0.0340812 -0.0355348 -0.0367623 -0.0377636 -0.0385387 -0.0390877 -0.0394105 -0.0395072 -0.0393805 -0.0390333 -0.0384656 -0.0376774 -0.0366686 -0.0354394 -0.0339897 -0.0323194 -0.0305319 -0.0287303 -0.0269146 -0.0250847 -0.0232408 -0.0213828 -0.0195108 -0.0176246 -0.0157769 -0.0140202 -0.0123546 -0.0107801 -0.00929656 -0.00790409 -0.00660268 -0.00539231 -0.00429454 -0.00333093 -0.00250146 -0.00180616 -0.001245 -0.000818004 -0.000525157 -0.000366464 -0.000280574 -0.000206136 -0.00014315 -9.16161e-05 -5.1534e-05 -2.2904e-05 -5.726e-06 0 0 8.70701e-06 3.4828e-05 7.83631e-05 0.000139312 0.000217675 0.000313452 0.000426643 0.000557248 0.00068673 0.000796551 0.000886711 0.00095721 0.00100805 0.00103923 0.00105074 0.0010426 0.00101619 0.000972902 0.000912743 0.00083571 0.000741803 0.000631022 0.000503367 0.000358838 0.000216721 9.62995e-05 -2.42509e-06 -7.94531e-05 -0.000134785 -0.00016842 -0.000180358 -0.0001706 -0.000152938 -0.000141164 -0.000135279 -0.000135282 -0.000141173 -0.000152952 -0.000170619 -0.000194175 -0.000210311 -0.00020572 -0.000180401 -0.000134355 -6.75808e-05 1.99205e-05 0.000128149 0.000257105 0.000381935 0.000477785 0.000544654 0.000582543 0.000591452 0.00057138 0.000522328 0.000444296 0.00027649 -4.18854e-05 -0.000510829 -0.00113034 -0.00190042 -0.00282107 -0.00389229 -0.00511408 -0.00645086 -0.00786705 -0.00936265 -0.0109377 -0.0125921 -0.014326 -0.0161392 -0.0180319 -0.0199618 -0.0218868 -0.0238068 -0.025722 -0.0276322 -0.0295374 -0.0314377 -0.0333331 -0.0351066 -0.036641 -0.0379364 -0.0389927 -0.0398101 -0.0403885 -0.0407278 -0.0408281 -0.040693 -0.0403261 -0.0397273 -0.0388966 -0.0378341 -0.0365397 -0.0350135 -0.0332554 -0.031385 -0.0295217 -0.0276655 -0.0258165 -0.0239747 -0.02214 -0.0203124 -0.0184921 -0.0167105 -0.0149996 -0.0133594 -0.0117897 -0.0102907 -0.00886229 -0.0075045 -0.00621733 -0.00503426 -0.00398876 -0.00308085 -0.00231051 -0.00167775 -0.00118257 -0.000824968 -0.000604944 -0.00046316 -0.000340281 -0.000236306 -0.000151236 -8.50702e-05 -3.7809e-05 -9.45224e-06 0 0 9.13128e-06 3.65251e-05 8.21816e-05 0.000146101 0.000228282 0.000328726 0.000447433 0.000584402 0.000715735 0.000817531 0.000889791 0.000932516 0.000945704 0.000929356 0.000883472 0.000808052 0.000705818 0.000579491 0.000429073 0.000254562 5.59589e-05 -0.000166736 -0.000413524 -0.000684404 -0.000955225 -0.00120184 -0.00142424 -0.00162244 -0.00179643 -0.00194621 -0.00207179 -0.00217315 -0.00225831 -0.00233527 -0.00240403 -0.00246459 -0.00251695 -0.00256111 -0.00259707 -0.00262483 -0.00263025 -0.00259923 -0.00253174 -0.0024278 -0.0022874 -0.00211054 -0.00189722 -0.00164745 -0.00140039 -0.00119521 -0.00103191 -0.00091049 -0.000830955 -0.000793301 -0.000797528 -0.000843637 -0.000982369 -0.00126446 -0.00168992 -0.00225874 -0.00297093 -0.00382648 -0.00482539 -0.00596766 -0.00720141 -0.00847474 -0.00978765 -0.0111401 -0.0125322 -0.0139639 -0.0154351 -0.0169459 -0.0184939 -0.0200766 -0.021694 -0.0233461 -0.0250329 -0.0267544 -0.0285107 -0.0303017 -0.0319956 -0.0334608 -0.0346973 -0.0357051 -0.0364841 -0.0370344 -0.037356 -0.0374488 -0.0373174 -0.0369662 -0.0363951 -0.0356043 -0.0345936 -0.0333632 -0.0319129 -0.0302428 -0.0284856 -0.026774 -0.025108 -0.0234875 -0.0219126 -0.0203833 -0.0188995 -0.0174614 -0.0160573 -0.0146758 -0.0133169 -0.0119806 -0.0106669 -0.00937575 -0.00810723 -0.00686131 -0.00568883 -0.00464064 -0.00371672 -0.00291709 -0.00224175 -0.00169069 -0.00126391 -0.000961413 -0.000736082 -0.000540795 -0.000375552 -0.000240353 -0.000135199 -6.00883e-05 -1.50221e-05 0 0 9.08161e-06 3.63264e-05 8.17345e-05 0.000145306 0.00022704 0.000326938 0.000444999 0.000581223 0.0007053 0.000786921 0.000826085 0.000822792 0.000777042 0.000688836 0.000558173 0.000385053 0.000174032 -7.03324e-05 -0.000348041 -0.000659094 -0.00100349 -0.00138123 -0.00179232 -0.00223674 -0.00268474 -0.00310653 -0.0035021 -0.00387147 -0.00421462 -0.00453157 -0.0048223 -0.00508683 -0.00532363 -0.00553118 -0.00570949 -0.00585856 -0.00597838 -0.00606896 -0.00613029 -0.00616238 -0.00615092 -0.0060816 -0.00595444 -0.00576942 -0.00552654 -0.00522582 -0.00486724 -0.0044508 -0.0040347 -0.0036771 -0.00337801 -0.00313743 -0.00295535 -0.00283179 -0.00276673 -0.00276018 -0.00284351 -0.00304809 -0.00337392 -0.003821 -0.00438933 -0.00507891 -0.00588974 -0.00682182 -0.00780216 -0.00875775 -0.0096886 -0.0105947 -0.0114761 -0.0123327 -0.0131646 -0.0139717 -0.014813 -0.0157473 -0.0167746 -0.017895 -0.0191085 -0.0204149 -0.0218144 -0.023307 -0.0247484 -0.0259944 -0.0270452 -0.0279006 -0.0285608 -0.0290256 -0.0292951 -0.0293692 -0.0292536 -0.0289535 -0.0284691 -0.0278004 -0.0269473 -0.0259098 -0.0246879 -0.0232817 -0.0218339 -0.0204873 -0.0192419 -0.0180976 -0.0170546 -0.0161127 -0.015272 -0.0145325 -0.013817 -0.0130486 -0.0122271 -0.0113526 -0.010425 -0.00944448 -0.00841089 -0.00732427 -0.00625827 -0.00528655 -0.00440909 -0.00362591 -0.00293699 -0.00234235 -0.00184198 -0.00143587 -0.00109934 -0.000807679 -0.000560888 -0.000358968 -0.00020192 -8.97421e-05 -2.24355e-05 0 0 8.55799e-06 3.42319e-05 7.70219e-05 0.000136928 0.00021395 0.000308087 0.000419341 0.000547711 0.000655427 0.000704721 0.000695591 0.000628039 0.000502064 0.000317666 7.48445e-05 -0.000226399 -0.00057917 -0.000976569 -0.0014186 -0.00190526 -0.00243654 -0.00301246 -0.00363301 -0.00429818 -0.00497182 -0.00561776 -0.006236 -0.00682653 -0.00738936 -0.00792449 -0.00843192 -0.00891164 -0.00934889 -0.0097289 -0.0100517 -0.0103172 -0.0105255 -0.0106765 -0.0107703 -0.0108068 -0.0107723 -0.0106529 -0.0104485 -0.0101592 -0.00978502 -0.00932592 -0.0087819 -0.00815296 -0.007521 -0.0069679 -0.00649365 -0.00609827 -0.00578174 -0.00554408 -0.00538527 -0.00530533 -0.00530693 -0.00539275 -0.00556281 -0.0058171 -0.00615562 -0.00657837 -0.00708535 -0.00767656 -0.0082531 -0.00871608 -0.0090655 -0.00930136 -0.00942366 -0.00943239 -0.00932757 -0.00910918 -0.00891904 -0.00889892 -0.00904885 -0.00936881 -0.00985881 -0.0105188 -0.0113489 -0.012349 -0.0133648 -0.0142417 -0.0149799 -0.0155793 -0.01604 -0.0163619 -0.016545 -0.0165893 -0.0165015 -0.0162881 -0.0159493 -0.0154849 -0.014895 -0.0141795 -0.0133386 -0.0123721 -0.0114298 -0.0106616 -0.0100673 -0.00964694 -0.00940059 -0.00932823 -0.00942984 -0.00970543 -0.00998988 -0.0101181 -0.0100901 -0.00990577 -0.00956525 -0.00906847 -0.00841546 -0.00760619 -0.00674257 -0.0059265 -0.00515795 -0.00443695 -0.00376349 -0.00313756 -0.00255917 -0.00202832 -0.00155293 -0.00114093 -0.000792314 -0.000507081 -0.000285233 -0.00012677 -3.16925e-05 0 0 7.56041e-06 3.02416e-05 6.80437e-05 0.000120967 0.00018901 0.000272175 0.00037046 0.000483866 0.000566116 0.000570931 0.000498311 0.000348257 0.000120768 -0.000184155 -0.000566512 -0.0010263 -0.00155379 -0.00213922 -0.0027826 -0.00348393 -0.0042432 -0.00506043 -0.0059356 -0.00686872 -0.00781648 -0.00873555 -0.00962593 -0.0104876 -0.0113206 -0.012125 -0.0129006 -0.0136476 -0.0143341 -0.0149284 -0.0154305 -0.0158405 -0.0161582 -0.0163837 -0.0165171 -0.0165582 -0.0164944 -0.016313 -0.0160139 -0.0155972 -0.0150628 -0.0144108 -0.0136412 -0.0127539 -0.0118593 -0.0110676 -0.0103788 -0.00979301 -0.00931012 -0.00893017 -0.00865316 -0.00847908 -0.00837262 -0.00829847 -0.00825661 -0.00824706 -0.00826981 -0.00832486 -0.00841221 -0.00853186 -0.00855423 -0.00834972 -0.00791835 -0.0072601 -0.00637498 -0.00526299 -0.00392412 -0.00235839 -0.000812073 0.000468528 0.00148341 0.00223259 0.00271605 0.00293379 0.00288582 0.00257214 0.00215515 0.00179725 0.00149845 0.00125876 0.00107816 0.000956652 0.000894247 0.00089094 0.000938825 0.00103 0.00116446 0.0013422 0.00156324 0.00182756 0.00213517 0.00248607 0.00272663 0.00270324 0.00241589 0.00186458 0.00104932 -2.9899e-05 -0.00137307 -0.00298021 -0.00457578 -0.0058843 -0.00690575 -0.00764014 -0.00808747 -0.00824774 -0.00812094 -0.00770708 -0.00714174 -0.00656048 -0.00596331 -0.00535023 -0.00472123 -0.00407632 -0.0034155 -0.00273876 -0.00209687 -0.00154055 -0.00106983 -0.000684691 -0.000385139 -0.000171173 -4.27932e-05 0 0 6.08889e-06 2.43556e-05 5.48e-05 9.74222e-05 0.000152222 0.0002192 0.000298356 0.000389689 0.000437365 0.00038555 0.000234244 -1.65542e-05 -0.000366844 -0.000816625 -0.0013659 -0.00201466 -0.00274982 -0.00355828 -0.00444004 -0.00539511 -0.00642347 -0.00752513 -0.0087001 -0.00994836 -0.0112187 -0.0124599 -0.0136719 -0.0148548 -0.0160085 -0.017133 -0.0182284 -0.0192947 -0.0202793 -0.0211298 -0.0218461 -0.0224284 -0.0228766 -0.0231906 -0.0233706 -0.0234164 -0.0233172 -0.023062 -0.0226507 -0.0220833 -0.02136 -0.0204806 -0.0194451 -0.0182537 -0.0170496 -0.0159762 -0.0150336 -0.0142217 -0.0135405 -0.0129901 -0.0125704 -0.0122814 -0.0120406 -0.0117652 -0.0114553 -0.0111109 -0.0107319 -0.0103184 -0.00987032 -0.00938774 -0.00870555 -0.00765869 -0.00624715 -0.00447093 -0.00233004 0.000175527 0.00304577 0.00628069 0.00950791 0.0123551 0.0148221 0.0169092 0.0186161 0.019943 0.0208898 0.0214565 0.0218114 0.0221225 0.02239 0.0226137 0.0227937 0.02293 0.0230226 0.0230715 0.0230673 0.0230009 0.022872 0.0226809 0.0224274 0.0221115 0.0217333 0.0212928 0.0206355 0.0196071 0.0182076 0.0164369 0.0142952 0.0117823 0.0088983 0.00564319 0.00242526 -0.000347203 -0.00267418 -0.00455569 -0.00599172 -0.00698227 -0.00752735 -0.00762695 -0.00745577 -0.0071885 -0.00682516 -0.00636573 -0.00581022 -0.00515863 -0.00441095 -0.00356719 -0.00273113 -0.00200655 -0.00139344 -0.000891799 -0.000501637 -0.00022295 -5.57374e-05 0 0 4.14341e-06 1.65737e-05 3.72907e-05 6.62946e-05 0.000103585 0.000149163 0.000203027 0.000265178 0.000269176 0.00014858 -9.66103e-05 -0.000466394 -0.000960772 -0.00157974 -0.00232331 -0.00319147 -0.00416727 -0.00523376 -0.00639093 -0.00763879 -0.00897734 -0.0104066 -0.0119265 -0.0135371 -0.0151785 -0.0167908 -0.0183739 -0.0199279 -0.0214528 -0.0229486 -0.0244153 -0.0258529 -0.0271844 -0.0283329 -0.0292984 -0.030081 -0.0306806 -0.0310973 -0.0313309 -0.0313816 -0.0312408 -0.0308998 -0.0303588 -0.0296177 -0.0286765 -0.0275351 -0.0261937 -0.0246522 -0.0230918 -0.0216937 -0.0204578 -0.0193842 -0.0184729 -0.0177238 -0.017137 -0.0167124 -0.0163109 -0.015793 -0.0151589 -0.0144085 -0.0135419 -0.0125589 -0.0114597 -0.0102442 -0.00870706 -0.00664296 -0.00405189 -0.000933851 0.00271116 0.00688315 0.0115821 0.016808 0.0220409 0.0267607 0.0309673 0.0346609 0.0378414 0.0405087 0.042663 0.0443042 0.0456039 0.0467341 0.0476946 0.0484854 0.0491066 0.0495582 0.0498401 0.0499523 0.0498841 0.0496245 0.0491735 0.0485311 0.0476974 0.0466723 0.0454558 0.044048 0.0422967 0.04005 0.0373078 0.0340701 0.030337 0.0261084 0.0213843 0.0161648 0.0110132 0.0064932 0.00260465 -0.000652414 -0.00327799 -0.00527207 -0.00663467 -0.00736578 -0.00768465 -0.00781056 -0.0077435 -0.00748346 -0.00703046 -0.00638448 -0.00554553 -0.00451362 -0.00345574 -0.00253891 -0.00176313 -0.0011284 -0.000634727 -0.000282101 -7.05252e-05 0 0 1.07042e-06 4.28169e-06 9.6338e-06 1.71268e-05 2.67606e-05 3.85352e-05 5.24507e-05 6.8507e-05 1.41802e-05 -0.000183054 -0.000523195 -0.00100624 -0.0016322 -0.00240106 -0.00331283 -0.00436751 -0.00554132 -0.0068105 -0.00817505 -0.00963496 -0.0111902 -0.0128409 -0.0145869 -0.0164283 -0.0183073 -0.0201661 -0.0220048 -0.0238233 -0.0256216 -0.0273998 -0.0291578 -0.0308957 -0.0325114 -0.0339028 -0.0350701 -0.0360132 -0.036732 -0.0372266 -0.037497 -0.0375432 -0.0373603 -0.0369431 -0.0362917 -0.0354062 -0.0342864 -0.0329325 -0.0313444 -0.0295221 -0.0276852 -0.0260531 -0.0246261 -0.0234039 -0.0223866 -0.0215743 -0.0209669 -0.0205644 -0.0201475 -0.0194968 -0.0186123 -0.0174941 -0.016142 -0.0145562 -0.0127367 -0.0106833 -0.00814674 -0.00487753 -0.000875682 0.00385881 0.00932594 0.0155257 0.0224581 0.0301232 0.0378151 0.0448281 0.0511622 0.0568173 0.0617935 0.0660909 0.0697092 0.0726487 0.0750878 0.077205 0.0790003 0.0804738 0.0816255 0.0824552 0.0829631 0.0831492 0.0830015 0.0825081 0.0816691 0.0804844 0.078954 0.077078 0.0748564 0.072289 0.0692236 0.0655077 0.0611411 0.0561241 0.0504565 0.0441383 0.0371696 0.0295503 0.0220328 0.0153694 0.00956001 0.00460474 0.000503548 -0.00274356 -0.0051366 -0.00667555 -0.00763107 -0.0082738 -0.00860374 -0.0086209 -0.00832526 -0.00771683 -0.00679561 -0.00556161 -0.0042581 -0.0031284 -0.0021725 -0.0013904 -0.000782101 -0.0003476 -8.69001e-05 0 0 -3.78365e-06 -1.51346e-05 -3.40529e-05 -6.05384e-05 -9.45913e-05 -0.000136212 -0.000185399 -0.000242154 -0.000374991 -0.000652424 -0.00107445 -0.00164108 -0.0023523 -0.00320812 -0.00420854 -0.00535355 -0.00660716 -0.00793337 -0.00933219 -0.0108036 -0.0123476 -0.0139642 -0.0156534 -0.0174153 -0.0192164 -0.0210238 -0.0228372 -0.0246568 -0.0264826 -0.0283145 -0.0301525 -0.0319966 -0.0337223 -0.0352046 -0.0364438 -0.0374397 -0.0381924 -0.0387018 -0.038968 -0.0389909 -0.0387709 -0.0383082 -0.0376029 -0.0366548 -0.035464 -0.0340306 -0.0323545 -0.0304357 -0.0285286 -0.0268876 -0.0255127 -0.0244039 -0.0235612 -0.0229846 -0.0226742 -0.0226298 -0.0225146 -0.0219914 -0.0210604 -0.0197215 -0.0179748 -0.0158201 -0.0132576 -0.0102872 -0.00661256 -0.00193736 0.00373839 0.0104147 0.0180916 0.026769 0.0364471 0.0471256 0.0578587 0.0677001 0.0766498 0.0847079 0.0918744 0.0981492 0.103532 0.108024 0.111818 0.115108 0.117895 0.120179 0.121959 0.123235 0.124008 0.124278 0.124032 0.123259 0.121959 0.120132 0.117778 0.114897 0.111489 0.107553 0.10293 0.0974559 0.0911323 0.0839588 0.0759354 0.067062 0.0573388 0.0467656 0.0363285 0.0270137 0.0188212 0.0117508 0.00580271 0.000976826 -0.00272683 -0.00530825 -0.00709769 -0.00842537 -0.00929131 -0.00969549 -0.00963793 -0.00911862 -0.00813756 -0.00669475 -0.00512566 -0.00376579 -0.00261513 -0.00167369 -0.000941449 -0.000418422 -0.000104605 0 0 -1.04188e-05 -4.16752e-05 -9.37693e-05 -0.000166701 -0.00026047 -0.000375077 -0.000510522 -0.000666804 -0.000898336 -0.00125953 -0.00175039 -0.0023709 -0.00312109 -0.00400093 -0.00501043 -0.0061496 -0.00736479 -0.00860237 -0.00986234 -0.0111447 -0.0124494 -0.0137766 -0.0151261 -0.016498 -0.017906 -0.0193638 -0.0208713 -0.0224286 -0.0240358 -0.0256926 -0.0273993 -0.0291557 -0.030817 -0.0322383 -0.0334195 -0.0343606 -0.0350617 -0.0355228 -0.0357437 -0.0357247 -0.0354728 -0.0349953 -0.0342922 -0.0333636 -0.0322093 -0.0308295 -0.029224 -0.027393 -0.0256221 -0.024197 -0.0231177 -0.0223843 -0.0219966 -0.0219548 -0.0222588 -0.0229087 -0.0234121 -0.023277 -0.0225033 -0.0210909 -0.01904 -0.0163506 -0.0130225 -0.00905583 -0.00410451 0.00217754 0.00979034 0.0187339 0.0290081 0.0406131 0.0535489 0.0678154 0.0821716 0.0953766 0.10743 0.118333 0.128084 0.136684 0.144132 0.15043 0.155794 0.160444 0.164379 0.1676 0.170106 0.171898 0.172975 0.173338 0.172975 0.171877 0.170043 0.167474 0.164169 0.160129 0.155353 0.149841 0.143415 0.135895 0.127281 0.117574 0.106774 0.0948796 0.0818919 0.0678106 0.0539005 0.0414263 0.0303881 0.0207858 0.0126195 0.0058891 0.000594641 -0.00326388 -0.0060845 -0.00826527 -0.00980619 -0.0107073 -0.0109685 -0.0105898 -0.00957137 -0.00791303 -0.00605842 -0.00445108 -0.00309103 -0.00197826 -0.00111277 -0.000494565 -0.000123641 0 0 -1.88351e-05 -7.53402e-05 -0.000169516 -0.000301361 -0.000470876 -0.000678062 -0.000922918 -0.00120544 -0.00155586 -0.00200437 -0.00255099 -0.00319572 -0.00393855 -0.00477948 -0.00571851 -0.00675565 -0.00781421 -0.0088175 -0.00976551 -0.0106583 -0.0114957 -0.0122779 -0.0130049 -0.0136766 -0.014376 -0.0151861 -0.016107 -0.0171387 -0.0182811 -0.0195343 -0.0208983 -0.0223729 -0.0237957 -0.0250038 -0.0259972 -0.026776 -0.0273401 -0.0276895 -0.0278243 -0.0277445 -0.0274658 -0.0270043 -0.0263598 -0.0255325 -0.0245222 -0.0233291 -0.021953 -0.0203941 -0.0189657 -0.0179814 -0.0174411 -0.017345 -0.0176929 -0.0184848 -0.0197208 -0.0214009 -0.0228401 -0.0233534 -0.0229408 -0.0216023 -0.0193379 -0.0161475 -0.0120313 -0.00698924 -0.000622612 0.00746718 0.0172801 0.0288163 0.0420756 0.057058 0.0737636 0.0921924 0.110754 0.127858 0.143503 0.157692 0.170422 0.181694 0.191509 0.199866 0.207017 0.213212 0.218453 0.222738 0.226069 0.228444 0.229864 0.23033 0.229832 0.228363 0.225922 0.222511 0.218128 0.212774 0.206448 0.199152 0.190679 0.180824 0.169588 0.156971 0.142972 0.127591 0.110829 0.0926854 0.0747487 0.0586072 0.0442609 0.0317098 0.0209539 0.0119933 0.00482781 -0.000542426 -0.00459151 -0.0077935 -0.0101484 -0.0116562 -0.0123169 -0.0121305 -0.011097 -0.00921647 -0.00705636 -0.00518427 -0.00360018 -0.00230412 -0.00129607 -0.000576029 -0.000144007 0 0 -2.90324e-05 -0.00011613 -0.000261291 -0.000464518 -0.00072581 -0.00104517 -0.00142259 -0.00185807 -0.00234755 -0.00288695 -0.00347627 -0.00411552 -0.00480468 -0.00554