<?xml version="1.0"?> 
<VTKFile type="StructuredGrid" version="0.1"> 
<StructuredGrid WholeExtent="0 128 0 128 0 0"> 
<Piece Extent="0 128 0 128 0 0"> 
<PointData>
<DataArray type="Float32" Name="u" format="ascii" NumberOfComponents="1"> 
0 0 0 0 0 0 0 0 0 0 0 0 0 0 0 0 0 0 0 0 0 0 0 0 0 0 0 0 0 0 0 0 0 0 0 0 0 0 0 0 0 0 0 0 0 0 0 0 0 0 0 0 0 0 0 0 0 0 0 0 0 0 0 0 0 0 0 0 0 0 0 0 0 0 0 0 0 0 0 0 0 0 0 0 0 0 0 0 0 0 0 0 0 0 0 0 0 0 0 0 0 0 0 0 0 0 0 0 0 0 0 0 0 0 0 0 0 0 0 0 0 0 0 0 0 0 0 0 0 0 -5.08234e-10 -2.03294e-09 -4.57411e-09 -8.13175e-09 -1.27059e-08 -1.82964e-08 -2.49035e-08 -3.2527e-08 1.95761e-07 8.96887e-07 2.07085e-06 3.71766e-06 5.8373e-06 8.42978e-06 1.14951e-05 1.50333e-05 1.89752e-05 2.32517e-05 2.78629e-05 3.28088e-05 3.80893e-05 4.37045e-05 4.96543e-05 5.59388e-05 6.23135e-05 6.85342e-05 7.46007e-05 8.05132e-05 8.62715e-05 9.18758e-05 9.73259e-05 0.000102622 0.000107496 0.00011168 0.000115174 0.000117977 0.000120091 0.000121514 0.000122248 0.000122291 0.0001217 0.00012053 0.000118783 0.000116457 0.000113552 0.00011007 0.000106008 0.000101369 9.65191e-05 9.18265e-05 8.72913e-05 8.29135e-05 7.8693e-05 7.46299e-05 7.07241e-05 6.69757e-05 6.24063e-05 5.60372e-05 4.78687e-05 3.79006e-05 2.61329e-05 1.25657e-05 -2.801e-06 -1.99673e-05 -3.90614e-05 -6.02119e-05 -8.34187e-05 -0.000108682 -0.000136001 -0.000165377 -0.000196809 -0.000230297 -0.000263775 -0.000295178 -0.000324504 -0.000351755 -0.00037693 -0.000400029 -0.000421051 -0.000439998 -0.000456793 -0.000471358 -0.000483694 -0.000493801 -0.000501679 -0.000507328 -0.000510748 -0.000511939 -0.000510872 -0.000507518 -0.000501878 -0.000493951 -0.000483738 -0.000471239 -0.000456453 -0.00043938 -0.000420153 -0.000398904 -0.000375633 -0.000350341 -0.000323026 -0.00029369 -0.000262332 -0.000228951 -0.000195804 -0.000165143 -0.00013697 -0.000111284 -8.80851e-05 -6.73734e-05 -4.91489e-05 -3.34116e-05 -2.00156e-05 -8.81512e-06 1.89817e-07 6.99924e-06 1.16131e-05 1.40315e-05 1.42544e-05 1.22817e-05 9.40318e-06 6.90846e-06 4.79754e-06 3.07043e-06 1.72711e-06 7.67607e-07 1.91902e-07 0 0 -2.03294e-09 -8.13175e-09 -1.82964e-08 -3.2527e-08 -5.08234e-08 -7.31857e-08 -9.96139e-08 -1.30108e-07 7.83043e-07 3.58755e-06 8.28341e-06 1.48706e-05 2.33492e-05 3.37191e-05 4.59804e-05 6.01331e-05 7.59007e-05 9.30069e-05 0.000111452 0.000131235 0.000152357 0.000174818 0.000198617 0.000223755 0.000249254 0.000274137 0.000298403 0.000322053 0.000345086 0.000367503 0.000389304 0.000410488 0.000429984 0.000446719 0.000460694 0.000471909 0.000480363 0.000486057 0.00048899 0.000489163 0.000486799 0.000482122 0.000475131 0.000465827 0.000454209 0.000440278 0.000424034 0.000405476 0.000386076 0.000367306 0.000349165 0.000331654 0.000314772 0.00029852 0.000282897 0.000267903 0.000249625 0.000224149 0.000191475 0.000151602 0.000104532 5.02629e-05 -1.1204e-05 -7.98691e-05 -0.000156246 -0.000240848 -0.000333675 -0.000434727 -0.000544004 -0.000661507 -0.000787235 -0.000921188 -0.0010551 -0.00118071 -0.00129802 -0.00140702 -0.00150772 -0.00160011 -0.00168421 -0.00175999 -0.00182717 -0.00188543 -0.00193478 -0.0019752 -0.00200672 -0.00202931 -0.00204299 -0.00204776 -0.00204349 -0.00203007 -0.00200751 -0.00197581 -0.00193495 -0.00188495 -0.00182581 -0.00175752 -0.00168061 -0.00159562 -0.00150253 -0.00140136 -0.00129211 -0.00117476 -0.00104933 -0.000915805 -0.000783215 -0.000660573 -0.00054788 -0.000445136 -0.000352341 -0.000269494 -0.000196596 -0.000133646 -8.00624e-05 -3.52605e-05 7.5927e-07 2.7997e-05 4.64525e-05 5.61261e-05 5.70175e-05 4.91268e-05 3.76127e-05 2.76338e-05 1.91902e-05 1.22817e-05 6.90846e-06 3.07043e-06 7.67607e-07 0 0 -4.57411e-09 -1.82964e-08 -4.1167e-08 -7.31857e-08 -1.14353e-07 -1.64668e-07 -2.24131e-07 -2.92743e-07 1.76185e-06 8.07199e-06 1.86377e-05 3.34589e-05 5.25357e-05 7.5868e-05 0.000103456 0.000135299 0.000170777 0.000209266 0.000250766 0.000295279 0.000342804 0.00039334 0.000446889 0.000503449 0.000560822 0.000616807 0.000671406 0.000724618 0.000776444 0.000826882 0.000875934 0.000923598 0.000967464 0.00100512 0.00103656 0.0010618 0.00108082 0.00109363 0.00110023 0.00110062 0.0010953 0.00108477 0.00106904 0.00104811 0.00102197 0.000990626 0.000954076 0.000912321 0.000868672 0.000826439 0.000785622 0.000746221 0.000708237 0.000671669 0.000636517 0.000602782 0.000561656 0.000504335 0.000430818 0.000341105 0.000235196 0.000113092 -2.5209e-05 -0.000179705 -0.000351553 -0.000541907 -0.000750768 -0.000978136 -0.00122401 -0.00148839 -0.00177128 -0.00207267 -0.00237398 -0.0026566 -0.00292054 -0.0031658 -0.00339237 -0.00360026 -0.00378946 -0.00395998 -0.00411113 -0.00424222 -0.00435325 -0.00444421 -0.00451511 -0.00456595 -0.00459673 -0.00460745 -0.00459785 -0.00456766 -0.0045169 -0.00444556 -0.00435364 -0.00424115 -0.00410807 -0.00395442 -0.00378138 -0.00359014 -0.0033807 -0.00315307 -0.00290724 -0.00264321 -0.00236098 -0.00206056 -0.00176223 -0.00148629 -0.00123273 -0.00100156 -0.000792766 -0.000606361 -0.00044234 -0.000300704 -0.00018014 -7.93361e-05 1.70836e-06 6.29931e-05 0.000104518 0.000126284 0.000128289 0.000110535 8.46286e-05 6.21761e-05 4.31779e-05 2.76338e-05 1.5544e-05 6.90846e-06 1.72711e-06 0 0 -8.13175e-09 -3.2527e-08 -7.31857e-08 -1.30108e-07 -2.03294e-07 -2.92743e-07 -3.98456e-07 -5.20432e-07 3.13217e-06 1.43502e-05 3.31336e-05 5.94825e-05 9.33968e-05 0.000134877 0.000183922 0.000240532 0.000303603 0.000372028 0.000445807 0.000524941 0.000609429 0.000699272 0.000794469 0.00089502 0.000997016 0.00109655 0.00119361 0.00128821 0.00138034 0.00147001 0.00155722 0.00164195 0.00171994 0.00178688 0.00184278 0.00188764 0.00192145 0.00194423 0.00195596 0.00195665 0.0019472 0.00192849 0.00190052 0.00186331 0.00181684 0.00176111 0.00169613 0.0016219 0.00154431 0.00146922 0.00139666 0.00132662 0.00125909 0.00119408 0.00113159 0.00107161 0.0009985 0.000896596 0.000765899 0.000606409 0.000418127 0.000201052 -4.48159e-05 -0.000319476 -0.000624983 -0.000963391 -0.0013347 -0.00173891 -0.00217602 -0.00264603 -0.00314894 -0.00368475 -0.00422041 -0.00472285 -0.00519207 -0.00562808 -0.00603088 -0.00640046 -0.00673682 -0.00703997 -0.00730868 -0.00754173 -0.00773911 -0.00790082 -0.00802687 -0.00811725 -0.00817197 -0.00819102 -0.00817395 -0.00812029 -0.00803005 -0.00790322 -0.00773981 -0.00753982 -0.00730324 -0.00703008 -0.00672245 -0.00638247 -0.00601014 -0.00560545 -0.00516842 -0.00469904 -0.00419731 -0.00366322 -0.00313286 -0.00264229 -0.00219152 -0.00178054 -0.00140936 -0.00107797 -0.000786383 -0.000534585 -0.000320249 -0.000141042 3.03708e-06 0.000111988 0.00018581 0.000224504 0.00022807 0.000196507 0.000150451 0.000110535 7.67607e-05 4.91268e-05 2.76338e-05 1.22817e-05 3.07043e-06 0 0 -1.27059e-08 -5.08234e-08 -1.14353e-07 -2.03294e-07 -3.17646e-07 -4.57411e-07 -6.22587e-07 -8.13175e-07 4.89402e-06 2.24222e-05 5.17713e-05 9.29414e-05 0.000145933 0.000210745 0.000287378 0.000375832 0.000474379 0.000581293 0.000696573 0.00082022 0.000952233 0.00109261 0.00124136 0.00139847 0.00155784 0.00171335 0.00186502 0.00201283 0.00215679 0.00229689 0.00243315 0.00256555 0.0026874 0.002792 0.00287934 0.00294943 0.00300227 0.00303786 0.00305619 0.00305727 0.00304249 0.00301326 0.00296957 0.00291142 0.00283881 0.00275174 0.00265021 0.00253423 0.00241298 0.00229566 0.00218228 0.00207284 0.00196733 0.00186575 0.0017681 0.00167439 0.00156016 0.00140093 0.00119672 0.000947514 0.000653323 0.000314143 -7.00249e-05 -0.000499182 -0.000976536 -0.0015053 -0.00208547 -0.00271704 -0.00340003 -0.00413442 -0.00492022 -0.00575742 -0.00659438 -0.00737945 -0.00811261 -0.00879388 -0.00942324 -0.0100007 -0.0105263 -0.011 -0.0114198 -0.0117839 -0.0120924 -0.012345 -0.012542 -0.0126832 -0.0127687 -0.0127985 -0.0127718 -0.012688 -0.012547 -0.0123488 -0.0120935 -0.011781 -0.0114113 -0.0109845 -0.0105038 -0.0099726 -0.00939084 -0.00875852 -0.00807566 -0.00734225 -0.00655829 -0.00572378 -0.00489509 -0.00412858 -0.00342425 -0.0027821 -0.00220213 -0.00168434 -0.00122872 -0.000835289 -0.00050039 -0.000220378 4.74544e-06 0.000174981 0.000290328 0.000350788 0.000356359 0.000307043 0.00023508 0.000172711 0.000119939 7.67607e-05 4.31779e-05 1.91902e-05 4.79754e-06 0 0 -1.82964e-08 -7.31857e-08 -1.64668e-07 -2.92743e-07 -4.57411e-07 -6.58672e-07 -8.96525e-07 -1.17097e-06 7.04738e-06 3.22879e-05 7.45507e-05 0.000133836 0.000210143 0.000303472 0.000413824 0.000541197 0.000683106 0.000837062 0.00100307 0.00118112 0.00137122 0.00157336 0.00178755 0.0020138 0.00224329 0.00246723 0.00268563 0.00289847 0.00310577 0.00330753 0.00350373 0.00369439 0.00386986 0.00402047 0.00414625 0.00424718 0.00432327 0.00437451 0.00440091 0.00440247 0.00438119 0.00433909 0.00427618 0.00419244 0.00408788 0.0039625 0.0038163 0.00364928 0.00347469 0.00330575 0.00314249 0.00298489 0.00283295 0.00268668 0.00254607 0.00241113 0.00224663 0.00201734 0.00172327 0.00136442 0.000940785 0.000452366 -0.000100836 -0.000718821 -0.00140621 -0.00216763 -0.00300307 -0.00391254 -0.00489604 -0.00595356 -0.00708511 -0.00829069 -0.00949591 -0.0106264 -0.0116822 -0.0126632 -0.0135695 -0.014401 -0.0151578 -0.0158399 -0.0164445 -0.0169689 -0.017413 -0.0177768 -0.0180605 -0.0182638 -0.0183869 -0.0184298 -0.0183914 -0.0182707 -0.0180676 -0.0177823 -0.0174146 -0.0169646 -0.0164323 -0.0158177 -0.0151255 -0.0143606 -0.0135228 -0.0126123 -0.0116289 -0.0105728 -0.00944394 -0.00824225 -0.00704893 -0.00594516 -0.00493092 -0.00400622 -0.00317106 -0.00242544 -0.00176936 -0.00120282 -0.000720561 -0.000317344 6.83343e-06 0.000251973 0.000418073 0.000505135 0.000513157 0.000442141 0.000338514 0.000248705 0.000172711 0.000110535 6.21761e-05 2.76338e-05 6.90846e-06 0 0 -2.49035e-08 -9.96139e-08 -2.24131e-07 -3.98456e-07 -6.22587e-07 -8.96525e-07 -1.22027e-06 -1.59382e-06 9.59227e-06 4.39475e-05 0.000101472 0.000182165 0.000286028 0.000413059 0.00056326 0.00073663 0.000929783 0.00113933 0.00136528 0.00160763 0.00186638 0.00214152 0.00243306 0.002741 0.00305336 0.00335817 0.00365543 0.00394514 0.0042273 0.00450191 0.00476897 0.00502848 0.0052673 0.00547231 0.00564351 0.00578088 0.00588445 0.0059542 0.00599013 0.00599225 0.00596329 0.00590599 0.00582035 0.00570638 0.00556406 0.00539341 0.00519441 0.00496708 0.00472944 0.0044995 0.00427727 0.00406276 0.00385596 0.00365686 0.00346548 0.00328181 0.00305791 0.00274582 0.00234556 0.00185713 0.00128051 0.000615721 -0.000137249 -0.000978396 -0.00191401 -0.00295038 -0.00408752 -0.00532541 -0.00666405 -0.00810346 -0.00964363 -0.0112846 -0.012925 -0.0144637 -0.0159007 -0.017236 -0.0184696 -0.0196014 -0.0206315 -0.0215599 -0.0223828 -0.0230965 -0.023701 -0.0241963 -0.0245823 -0.0248591 -0.0250267 -0.025085 -0.0250327 -0.0248684 -0.024592 -0.0242036 -0.0237032 -0.0230907 -0.0223662 -0.0215296 -0.0205875 -0.0195463 -0.018406 -0.0171667 -0.0158283 -0.0143908 -0.0128542 -0.0112186 -0.00959438 -0.00809202 -0.00671153 -0.00545292 -0.00431617 -0.0033013 -0.0024083 -0.00163717 -0.000980764 -0.000431941 9.30105e-06 0.000342963 0.000569044 0.000687544 0.000698464 0.000601804 0.000460756 0.000338514 0.00023508 0.000150451 8.46286e-05 3.76127e-05 9.40318e-06 0 0 -3.2527e-08 -1.30108e-07 -2.92743e-07 -5.20432e-07 -8.13175e-07 -1.17097e-06 -1.59382e-06 -2.08173e-06 1.25287e-05 5.74008e-05 0.000132535 0.00023793 0.000373587 0.000539506 0.000735687 0.000962129 0.00121441 0.00148811 0.00178323 0.00209976 0.00243772 0.00279709 0.00317787 0.00358008 0.00398806 0.00438619 0.00477445 0.00515284 0.00552138 0.00588005 0.00622886 0.00656781 0.00687974 0.00714751 0.00737111 0.00755054 0.00768581 0.00777691 0.00782384 0.00782661 0.00778878 0.00771395 0.00760209 0.00745323 0.00726734 0.00704445 0.00678454 0.00648762 0.00617722 0.0058769 0.00558664 0.00530646 0.00503635 0.00477631 0.00452634 0.00428645 0.003994 0.00358638 0.00306359 0.00242564 0.00167251 0.000804207 -0.000179264 -0.0012779 -0.00249993 -0.00385356 -0.0053388 -0.00695563 -0.00870407 -0.0105841 -0.0125958 -0.014739 -0.0168816 -0.0188914 -0.0207683 -0.0225123 -0.0241235 -0.0256018 -0.0269473 -0.0281599 -0.0292347 -0.0301669 -0.0309564 -0.0316033 -0.0321075 -0.032469 -0.0326879 -0.0327641 -0.0326958 -0.0324812 -0.0321202 -0.0316129 -0.0309593 -0.0301593 -0.029213 -0.0281203 -0.0268898 -0.0255299 -0.0240405 -0.0224218 -0.0206737 -0.0187962 -0.0167892 -0.0146529 -0.0125314 -0.0105692 -0.00876608 -0.00712218 -0.00563745 -0.0043119 -0.00314553 -0.00213834 -0.001281 -0.000564168 1.21483e-05 0.000447951 0.000743241 0.000898017 0.00091228 0.000786029 0.000601804 0.000442141 0.000307043 0.000196507 0.000110535 4.91268e-05 1.22817e-05 0 0 1.36205e-07 5.44819e-07 1.22584e-06 2.17928e-06 3.40512e-06 4.90337e-06 6.67404e-06 8.71711e-06 2.83269e-05 8.27975e-05 0.000172129 0.000296322 0.000455375 0.00064929 0.000878065 0.0011417 0.00143471 0.0017516 0.00209238 0.00245704 0.00284559 0.00325802 0.00369434 0.00415454 0.00462158 0.00507843 0.00552508 0.00596153 0.00638778 0.00680384 0.0072097 0.00760537 0.00796998 0.0082827 0.00854352 0.00875244 0.00890947 0.00901459 0.00906782 0.00906914 0.00902336 0.00893525 0.00880481 0.00863204 0.00841694 0.00815952 0.00785977 0.00751769 0.00716035 0.00681481 0.00648107 0.00615913 0.00584899 0.00555064 0.0052641 0.00498935 0.0046504 0.00417122 0.00355181 0.00279218 0.00189232 0.000852244 -0.00032806 -0.00164859 -0.00311402 -0.00472903 -0.00649362 -0.00840778 -0.0104715 -0.0126849 -0.0150478 -0.0175602 -0.0200723 -0.0224339 -0.0246452 -0.026706 -0.0286163 -0.0303763 -0.0319859 -0.033445 -0.0347427 -0.0358682 -0.0368214 -0.0376023 -0.0382109 -0.0386473 -0.0389113 -0.039003 -0.0389203 -0.038661 -0.0382251 -0.0376126 -0.0368235 -0.0358578 -0.0347155 -0.0333966 -0.0319164 -0.0302901 -0.0285178 -0.0265994 -0.024535 -0.0223246 -0.0199681 -0.0174656 -0.0149808 -0.0126775 -0.0105557 -0.00861539 -0.0068566 -0.00527931 -0.00388352 -0.00266923 -0.00163017 -0.000760072 -5.89254e-05 0.000473264 0.000836498 0.00103077 0.00105609 0.000912458 0.000698601 0.000513258 0.000356429 0.000228115 0.000128314 5.70286e-05 1.42572e-05 0 0 6.58664e-07 2.63466e-06 5.92798e-06 1.05386e-05 1.64666e-05 2.37119e-05 3.22745e-05 4.21545e-05 6.9457e-05 0.000130287 0.000224646 0.000352532 0.000513945 0.000708887 0.000937357 0.00119935 0.0014884 0.00179803 0.00212823 0.002479 0.00285036 0.00324228 0.00365478 0.00408786 0.00452809 0.00496205 0.00538974 0.00581116 0.00622631 0.00663519 0.0070378 0.00743414 0.00780084 0.00811452 0.0083752 0.00858287 0.00873753 0.00883918 0.00888782 0.00888345 0.00883269 0.00874217 0.0086119 0.00844186 0.00823207 0.00798251 0.0076932 0.00736412 0.00702114 0.00669011 0.00637103 0.00606389 0.00576871 0.00548547 0.00521419 0.00495485 0.00462259 0.00413252 0.00348466 0.00267899 0.00171552 0.000594253 -0.000684818 -0.00212169 -0.00370632 -0.00542865 -0.00728868 -0.00928642 -0.0114219 -0.013695 -0.0161059 -0.0186544 -0.0212035 -0.0236159 -0.0258916 -0.0280307 -0.0300331 -0.0318989 -0.0336279 -0.0352203 -0.0366494 -0.0378887 -0.0389382 -0.0397978 -0.0404676 -0.0409475 -0.0412376 -0.0413378 -0.041246 -0.04096 -0.0404798 -0.0398053 -0.0389366 -0.0378737 -0.0366166 -0.0351652 -0.0335512 -0.0318058 -0.0299292 -0.0279213 -0.0257822 -0.0235118 -0.0211101 -0.0185772 -0.0160631 -0.0137178 -0.0115414 -0.00953395 -0.00769534 -0.0060256 -0.00452473 -0.00319274 -0.00203721 -0.0010657 -0.000278221 0.000325228 0.000744648 0.000980038 0.0010314 0.000898731 0.000688091 0.000505536 0.000351067 0.000224683 0.000126384 5.61707e-05 1.40427e-05 0 0 1.53485e-06 6.1394e-06 1.38137e-05 2.45576e-05 3.83713e-05 5.52546e-05 7.52077e-05 9.82304e-05 0.000135919 0.00019987 0.000290084 0.00040656 0.000549298 0.000718299 0.000913562 0.00113509 0.00137549 0.00162738 0.00189077 0.00216564 0.00245201 0.00274987 0.00305922 0.00338006 0.00370761 0.00403707 0.00436845 0.00470175 0.00503697 0.0053741 0.00571315 0.00605412 0.0063723 0.00664298 0.00686615 0.00704183 0.00717 0.00725067 0.00728384 0.00726951 0.00721678 0.00713473 0.00702337 0.0068827 0.00671272 0.00651342 0.00628481 0.00602689 0.00575958 0.00550279 0.00525651 0.00502076 0.00479552 0.00458081 0.00437661 0.00418294 0.00391057 0.00347031 0.00286214 0.00208607 0.0011421 3.02342e-05 -0.00124954 -0.00269721 -0.00427682 -0.00595241 -0.00772399 -0.00959154 -0.0115551 -0.0136146 -0.0157701 -0.0180216 -0.0202752 -0.0224373 -0.0245078 -0.0264866 -0.0283738 -0.0301695 -0.0318735 -0.0334859 -0.0349548 -0.0362284 -0.0373067 -0.0381897 -0.0388774 -0.0393697 -0.0396668 -0.0397685 -0.0396729 -0.0393781 -0.0388842 -0.038191 -0.0372986 -0.0362071 -0.0349163 -0.0334263 -0.0317942 -0.030077 -0.0282748 -0.0263875 -0.0244151 -0.0223577 -0.0202152 -0.0179877 -0.0157783 -0.0136902 -0.0117234 -0.00987786 -0.00815366 -0.00655076 -0.00506916 -0.00370887 -0.00250209 -0.00148105 -0.000645737 3.84307e-06 0.000467692 0.000745809 0.000838194 0.000744848 0.000570274 0.000418977 0.000290956 0.000186212 0.000104744 4.6553e-05 1.16382e-05 0 0 2.76476e-06 1.10591e-05 2.48829e-05 4.42362e-05 6.91191e-05 9.95315e-05 0.000135473 0.000176945 0.000227713 0.000291546 0.000368444 0.000458406 0.000561433 0.000677524 0.00080668 0.0009489 0.00109597 0.00123967 0.00138 0.00151696 0.00165056 0.00178078 0.00190764 0.00203113 0.00216012 0.00230347 0.0024612 0.00263329 0.00281974 0.00302057 0.00323576 0.00346532 0.00368437 0.00386806 0.00401637 0.00412931 0.00420688 0.00424907 0.0042559 0.00422735 0.00417562 0.00411291 0.00403922 0.00395455 0.00385889 0.00375225 0.00363462 0.00350602 0.00337567 0.00325284 0.00313752 0.00302972 0.00292942 0.00283664 0.00275137 0.00267361 0.00251435 0.00218456 0.00168425 0.00101342 0.000172066 -0.000839813 -0.00202222 -0.00337514 -0.00482553 -0.00630033 -0.00779954 -0.00932315 -0.0108712 -0.0124436 -0.0140404 -0.0156617 -0.0172875 -0.0188981 -0.0204935 -0.0220736 -0.0236385 -0.0251881 -0.0267225 -0.0282417 -0.0296589 -0.0308873 -0.0319271 -0.0327781 -0.0334404 -0.033914 -0.0341988 -0.034295 -0.0342009 -0.0339154 -0.0334383 -0.0327697 -0.0319095 -0.0308578 -0.0296145 -0.0281797 -0.0266455 -0.0251037 -0.0235546 -0.021998 -0.0204339 -0.0188624 -0.0172835 -0.0156972 -0.0141265 -0.0125946 -0.0111014 -0.00964711 -0.00823156 -0.00685479 -0.00551681 -0.00421761 -0.00302483 -0.00200612 -0.00116148 -0.000490891 5.62885e-06 0.000328086 0.000476479 0.000450808 0.00034515 0.00025358 0.000176097 0.000112702 6.33949e-05 2.81755e-05 7.04388e-06 0 0 4.3484e-06 1.73936e-05 3.91356e-05 6.95745e-05 0.00010871 0.000156543 0.000213072 0.000278298 0.00034484 0.000405316 0.000459726 0.000508071 0.00055035 0.000586564 0.000616711 0.000640794 0.000649841 0.000634885 0.000595926 0.000532962 0.000445995 0.000335024 0.000200049 4.10703e-05 -0.000114371 -0.000238734 -0.00033202 -0.000394227 -0.000425356 -0.000425407 -0.00039438 -0.000332275 -0.000262943 -0.000210233 -0.000174146 -0.000154681 -0.00015184 -0.000165621 -0.000196024 -0.000243051 -0.000290776 -0.000323274 -0.000340547 -0.000342592 -0.000329412 -0.000301006 -0.000257373 -0.000198514 -0.000130579 -5.97181e-05 1.4068e-05 9.07795e-05 0.000170417 0.000252979 0.000338467 0.000426881 0.000433923 0.000275297 -4.89974e-05 -0.00053896 -0.00119459 -0.00201589 -0.00300286 -0.00415549 -0.00535245 -0.0064724 -0.00751533 -0.00848125 -0.00937015 -0.010182 -0.0109169 -0.0115748 -0.0122403 -0.0129983 -0.0138488 -0.0147917 -0.015827 -0.0169548 -0.0181751 -0.0194877 -0.0207616 -0.0218654 -0.0227992 -0.0235629 -0.0241566 -0.0245802 -0.0248338 -0.0249173 -0.0248302 -0.0245718 -0.0241422 -0.0235413 -0.0227693 -0.0218259 -0.0207114 -0.0194256 -0.018105 -0.016886 -0.0157685 -0.0147527 -0.0138385 -0.0130259 -0.0123149 -0.0117055 -0.0111076 -0.010431 -0.00967568 -0.0088417 -0.00792904 -0.0069377 -0.00586767 -0.00471896 -0.00360543 -0.00264092 -0.00182543 -0.00115898 -0.000641541 -0.000273131 -5.37466e-05 1.66128e-05 1.27192e-05 9.34468e-06 6.48936e-06 4.15319e-06 2.33617e-06 1.0383e-06 2.59575e-07 0 0 6.28577e-06 2.51431e-05 5.65719e-05 0.000100572 0.000157144 0.000226288 0.000308003 0.000402289 0.000487298 0.000541178 0.00056393 0.000555554 0.000516049 0.000445417 0.000343656 0.000210768 3.71077e-05 -0.000186967 -0.000461456 -0.000786359 -0.00116168 -0.00158741 -0.00206356 -0.00259012 -0.00311586 -0.00358955 -0.0040112 -0.00438079 -0.00469833 -0.00496382 -0.00517726 -0.00533866 -0.00546965 -0.00559189 -0.00570539 -0.00581014 -0.00590615 -0.00599341 -0.00607192 -0.00614168 -0.00618242 -0.00617383 -0.00611594 -0.00600872 -0.00585219 -0.00564634 -0.00539118 -0.0050867 -0.00475918 -0.0044349 -0.00411386 -0.00379606 -0.0034815 -0.00317018 -0.0028621 -0.00255726 -0.00233071 -0.0022575 -0.00233762 -0.00257107 -0.00295787 -0.00349799 -0.00419146 -0.00503826 -0.00585758 -0.00646862 -0.00687137 -0.00706583 -0.007052 -0.00682988 -0.00639947 -0.00576078 -0.00513366 -0.00473798 -0.00457373 -0.00464091 -0.00493954 -0.00546959 -0.00623109 -0.00722402 -0.00826301 -0.0091627 -0.00992309 -0.0105442 -0.011026 -0.0113684 -0.0115716 -0.0116355 -0.0115605 -0.0113473 -0.0109958 -0.010506 -0.00987789 -0.00911149 -0.0082068 -0.00716381 -0.0061727 -0.00542367 -0.0049167 -0.00465179 -0.00462895 -0.00484818 -0.00530947 -0.00601283 -0.00672167 -0.00719942 -0.00744608 -0.00746164 -0.00724611 -0.00679948 -0.00612175 -0.00521294 -0.00424388 -0.00338544 -0.00263762 -0.00200041 -0.00147382 -0.00105784 -0.000752482 -0.000557739 -0.000427019 -0.000313728 -0.000217867 -0.000139435 -7.84321e-05 -3.48587e-05 -8.71467e-06 0 0 8.57687e-06 3.43075e-05 7.71918e-05 0.00013723 0.000214422 0.000308767 0.000420266 0.00054892 0.000655088 0.000699133 0.000681056 0.000600855 0.000458531 0.000254084 -1.24853e-05 -0.000341178 -0.000742233 -0.00122589 -0.00179214 -0.002441 -0.00317246 -0.00398652 -0.00488318 -0.00586244 -0.00684435 -0.00774899 -0.00857634 -0.0093264 -0.00999918 -0.0105947 -0.0111129 -0.0115538 -0.0119357 -0.0122769 -0.0125774 -0.0128371 -0.0130561 -0.0132343 -0.0133718 -0.0134685 -0.0134993 -0.0134388 -0.0132869 -0.0130438 -0.0127094 -0.0122838 -0.0117668 -0.0111585 -0.0105101 -0.0098727 -0.00924626 -0.0086308 -0.00802633 -0.00743284 -0.00685034 -0.00627882 -0.00577955 -0.00541381 -0.0051816 -0.00508292 -0.00511776 -0.00528613 -0.00558802 -0.00602344 -0.00634092 -0.00628899 -0.00586764 -0.00507689 -0.00391673 -0.00238715 -0.000488163 0.00178023 0.00403247 0.00588296 0.00733172 0.00837875 0.00902403 0.00926758 0.00910939 0.00854946 0.0078369 0.00722083 0.00670124 0.00627812 0.00595149 0.00572134 0.00558767 0.00555049 0.00560789 0.00575801 0.00600083 0.00633636 0.0067646 0.00728555 0.00789921 0.00860558 0.00915132 0.00928312 0.00900096 0.00830486 0.0071948 0.0056708 0.00373285 0.00138095 -0.0009687 -0.0028999 -0.00441264 -0.00550692 -0.00618275 -0.00644013 -0.00627906 -0.00569953 -0.00494019 -0.00423968 -0.00359802 -0.00301519 -0.0024912 -0.00202604 -0.00161973 -0.00127225 -0.000974064 -0.000715639 -0.000496972 -0.000318062 -0.00017891 -7.95155e-05 -1.98789e-05 0 0 1.12217e-05 4.48868e-05 0.000100995 0.000179547 0.000280542 0.000403981 0.000549863 0.000718188 0.00084821 0.000879182 0.000811103 0.000643974 0.000377795 1.25659e-05 -0.000451714 -0.00101504 -0.00168818 -0.00248188 -0.00339614 -0.00443096 -0.00558635 -0.0068623 -0.00825881 -0.00977588 -0.0112998 -0.012717 -0.0140274 -0.0152311 -0.0163279 -0.017318 -0.0182013 -0.0189778 -0.0196612 -0.0202653 -0.0207901 -0.0212355 -0.0216015 -0.0218883 -0.0220956 -0.0222236 -0.0222414 -0.0221181 -0.0218536 -0.0214479 -0.0209012 -0.0202133 -0.0193842 -0.018414 -0.0173834 -0.0163731 -0.0153831 -0.0144134 -0.0134641 -0.012535 -0.0116262 -0.0107378 -0.0099126 -0.00919366 -0.00858095 -0.00807449 -0.00767427 -0.00738029 -0.00719254 -0.00711104 -0.00680247 -0.00593351 -0.00450417 -0.00251444 3.5666e-05 0.00314616 0.00681703 0.0110483 0.0152581 0.0188645 0.0218676 0.0242673 0.0260637 0.0272567 0.0278464 0.0278327 0.0275381 0.0272852 0.0270738 0.026904 0.0267758 0.0266891 0.0266441 0.0266406 0.0266752 0.0267442 0.0268477 0.0269857 0.0271582 0.0273652 0.0276066 0.0278826 0.0278671 0.0272344 0.0259844 0.0241172 0.0216327 0.018531 0.014812 0.0104758 0.00615132 0.00246761 -0.000575352 -0.00297755 -0.00473899 -0.00585966 -0.00633958 -0.00617873 -0.00569435 -0.00520365 -0.00470664 -0.00420332 -0.00369369 -0.00317774 -0.00265548 -0.00212691 -0.00162842 -0.00119639 -0.000830825 -0.000531728 -0.000299097 -0.000132932 -3.3233e-05 0 0 1.29873e-05 5.19491e-05 0.000116885 0.000207796 0.000324682 0.000467542 0.000636376 0.000831185 0.000972852 0.00098226 0.00085941 0.000604301 0.000216934 -0.000302692 -0.000954577 -0.00173872 -0.00266102 -0.00372739 -0.00493783 -0.00629233 -0.00779089 -0.00943351 -0.0112202 -0.013151 -0.0150924 -0.016911 -0.0186069 -0.0201801 -0.0216305 -0.0229582 -0.0241631 -0.0252453 -0.0262085 -0.0270565 -0.0277895 -0.0284073 -0.0289099 -0.0292974 -0.0295698 -0.029727 -0.0297323 -0.0295488 -0.0291766 -0.0286155 -0.0278657 -0.0269272 -0.0257998 -0.0244837 -0.0230979 -0.0217613 -0.0204741 -0.0192361 -0.0180474 -0.0169079 -0.0158178 -0.0147769 -0.0137806 -0.0128241 -0.0119074 -0.0110304 -0.0101933 -0.00939595 -0.00863841 -0.00792066 -0.00681922 -0.0049106 -0.0021948 0.00132817 0.00565833 0.0107957 0.0167402 0.0234919 0.0302186 0.0360882 0.0411006 0.0452558 0.0485539 0.0509949 0.0525787 0.0533054 0.0535863 0.053833 0.0540455 0.0542237 0.0543677 0.0544774 0.0545529 0.0545941 0.0545956 0.0545517 0.0544625 0.054328 0.0541482 0.0539231 0.0536527 0.053337 0.0525636 0.0509202 0.0484068 0.0450234 0.0407701 0.0356467 0.0296533 0.02279 0.0159488 0.010022 0.00500946 0.000911287 -0.00227255 -0.00454205 -0.00589721 -0.00633804 -0.00627371 -0.00611342 -0.00585716 -0.00550493 -0.00505673 -0.00451257 -0.00387244 -0.00313634 -0.00240126 -0.00176419 -0.00122513 -0.000784084 -0.000441047 -0.000196021 -4.90053e-05 0 0 1.26406e-05 5.05625e-05 0.000113766 0.00020225 0.000316016 0.000455063 0.000619391 0.000809 0.000935202 0.000909307 0.000731315 0.000401226 -8.09602e-05 -0.000715243 -0.00150162 -0.0024401 -0.00352106 -0.00473489 -0.00608159 -0.00756117 -0.00917361 -0.0109189 -0.0127971 -0.0148082 -0.016832 -0.0187483 -0.0205573 -0.0222589 -0.023853 -0.0253397 -0.0267191 -0.027991 -0.0291399 -0.03015 -0.0310215 -0.0317543 -0.0323485 -0.0328039 -0.0331207 -0.0332988 -0.0332955 -0.0330681 -0.0326166 -0.0319411 -0.0310415 -0.0299179 -0.0285701 -0.0269983 -0.0253725 -0.0238626 -0.0224687 -0.0211908 -0.0200289 -0.018983 -0.018053 -0.0172391 -0.0164343 -0.0155322 -0.0145325 -0.0134353 -0.0122407 -0.0109486 -0.00955898 -0.0080719 -0.00596818 -0.00272869 0.00164657 0.00715761 0.0138044 0.021587 0.0305054 0.0405595 0.0505895 0.0594355 0.0670975 0.0735755 0.0788694 0.0829793 0.0859052 0.0876471 0.088727 0.0896671 0.0904673 0.0911276 0.0916481 0.0920287 0.0922694 0.0923703 0.0923234 0.0921209 0.0917628 0.0912492 0.0905799 0.0897551 0.0887746 0.0876386 0.0858296 0.0828305 0.0786412 0.0732617 0.066692 0.0589321 0.049982 0.0398418 0.0297342 0.0208821 0.0132855 0.00694439 0.0018588 -0.00197128 -0.00454586 -0.00586494 -0.00644564 -0.00680507 -0.00694324 -0.00686015 -0.00655579 -0.00603017 -0.00528328 -0.00431513 -0.00330377 -0.00242726 -0.0016856 -0.00107878 -0.000606815 -0.000269696 -6.74239e-05 0 0 1.01818e-05 4.07271e-05 9.1636e-05 0.000162908 0.000254545 0.000366544 0.000498907 0.000651634 0.00073526 0.000660321 0.000426816 3.47471e-05 -0.000515887 -0.00122509 -0.00209285 -0.00311918 -0.00426829 -0.00550437 -0.00682744 -0.00823749 -0.00973453 -0.0113185 -0.0129895 -0.0147475 -0.0165186 -0.018229 -0.0198785 -0.0214673 -0.0229954 -0.0244627 -0.0258692 -0.027215 -0.0284554 -0.0295458 -0.0304862 -0.0312767 -0.0319172 -0.0324077 -0.0327483 -0.0329388 -0.0329309 -0.0326759 -0.0321738 -0.0314247 -0.0304285 -0.0291853 -0.027695 -0.0259577 -0.0242071 -0.0226768 -0.021367 -0.0202776 -0.0194086 -0.01876 -0.0183319 -0.0181241 -0.0178738 -0.0173179 -0.0164564 -0.0152892 -0.0138165 -0.0120382 -0.00995427 -0.00756475 -0.00424935 0.000612217 0.00701996 0.0149739 0.0244739 0.0355202 0.0481126 0.0622512 0.0763709 0.0889066 0.0998584 0.109226 0.11701 0.12321 0.127826 0.130858 0.13296 0.134787 0.136339 0.137616 0.138617 0.139343 0.139794 0.139969 0.139859 0.139452 0.138749 0.137749 0.136453 0.134861 0.132972 0.130787 0.127665 0.122965 0.116688 0.108832 0.0993985 0.0883872 0.0757981 0.0616312 0.0475074 0.0350479 0.0242527 0.0151218 0.00765508 0.00185264 -0.00228553 -0.00475945 -0.00621013 -0.00727861 -0.00796489 -0.00826897 -0.00819085 -0.00773053 -0.00688801 -0.00566329 -0.00433595 -0.0031856 -0.00221222 -0.00141582 -0.0007964 -0.000353955 -8.84889e-05 0 0 5.61072e-06 2.24429e-05 5.04964e-05 8.97714e-05 0.000140268 0.000201986 0.000274925 0.000359086 0.000373026 0.000235302 -5.40844e-05 -0.000495134 -0.00108785 -0.00183222 -0.00272826 -0.00377597 -0.0049027 -0.00603583 -0.00717537 -0.0083213 -0.00947363 -0.0106324 -0.0117975 -0.012969 -0.0141523 -0.0153529 -0.0165706 -0.0178055 -0.0190576 -0.020327 -0.0216135 -0.0229172 -0.024155 -0.0252438 -0.0261836 -0.0269744 -0.0276161 -0.0281088 -0.0284525 -0.0286472 -0.0286386 -0.0283722 -0.0278481 -0.0270663 -0.0260268 -0.0247295 -0.0231746 -0.0213619 -0.0196017 -0.0182041 -0.017169 -0.0164965 -0.0161866 -0.0162392 -0.0166544 -0.0174322 -0.018099 -0.0181813 -0.017679 -0.0165921 -0.0149207 -0.0126648 -0.00982427 -0.00639923 -0.00166273 0.00511213 0.0139254 0.0247769 0.0376669 0.0525952 0.0695619 0.0885669 0.107563 0.124501 0.139383 0.152208 0.162976 0.171687 0.178341 0.182938 0.186286 0.189194 0.191661 0.193688 0.195274 0.19642 0.197126 0.19739 0.197201 0.196545 0.19542 0.193828 0.191768 0.189241 0.186246 0.182783 0.178071 0.171325 0.162546 0.151734 0.13889 0.124012 0.107102 0.0881581 0.0692685 0.0525196 0.0379112 0.0254434 0.0151163 0.00692972 0.000883785 -0.00302154 -0.00556717 -0.00753403 -0.0089221 -0.0097314 -0.00996192 -0.00961366 -0.00868663 -0.00718081 -0.00549781 -0.00403921 -0.002805 -0.0017952 -0.0010098 -0.000448801 -0.0001122 0 0 -1.07257e-06 -4.29026e-06 -9.65309e-06 -1.7161e-05 -2.68141e-05 -3.86124e-05 -5.25557e-05 -6.86442e-05 -0.000151501 -0.000365749 -0.000711388 -0.00118842 -0.00179684 -0.00253665 -0.00340786 -0.00441045 -0.0054243 -0.00632928 -0.00712537 -0.00781258 -0.00839092 -0.00886037 -0.00922094 -0.00947264 -0.00973313 -0.0101201 -0.0106335 -0.0112734 -0.0120398 -0.0129326 -0.0139519 -0.0150977