<?xml version="1.0"?> 
<VTKFile type="StructuredGrid" version="0.1"> 
<StructuredGrid WholeExtent="0 128 0 128 0 0"> 
<Piece Extent="0 128 0 128 0 0"> 
<PointData>
<DataArray type="Float32" Name="u" format="ascii" NumberOfComponents="1"> 
0 0 0 0 0 0 0 0 0 0 0 0 0 0 0 0 0 0 0 0 0 0 0 0 0 0 0 0 0 0 0 0 0 0 0 0 0 0 0 0 0 0 0 0 0 0 0 0 0 0 0 0 0 0 0 0 0 0 0 0 0 0 0 0 0 0 0 0 0 0 0 0 0 0 0 0 0 0 0 0 0 0 0 0 0 0 0 0 0 0 0 0 0 0 0 0 0 0 0 0 0 0 0 0 0 0 0 0 0 0 0 0 0 0 0 0 0 0 0 0 0 0 0 0 0 0 0 0 0 0 9.54484e-08 3.81794e-07 8.59036e-07 1.52718e-06 2.38621e-06 3.43614e-06 4.67697e-06 6.1087e-06 7.4546e-06 8.43796e-06 9.05877e-06 9.31703e-06 9.21275e-06 8.74592e-06 7.91654e-06 6.72462e-06 5.19243e-06 3.34224e-06 1.17407e-06 -1.31209e-06 -4.11625e-06 -7.23839e-06 -1.06785e-05 -1.44367e-05 -1.82564e-05 -2.18814e-05 -2.53117e-05 -2.85472e-05 -3.1588e-05 -3.44341e-05 -3.70854e-05 -3.9542e-05 -4.17414e-05 -4.36214e-05 -4.51818e-05 -4.64227e-05 -4.73441e-05 -4.79459e-05 -4.82282e-05 -4.81911e-05 -4.77812e-05 -4.69454e-05 -4.56838e-05 -4.39963e-05 -4.18829e-05 -3.93437e-05 -3.63785e-05 -3.29875e-05 -2.96277e-05 -2.67558e-05 -2.43721e-05 -2.24764e-05 -2.10689e-05 -2.01494e-05 -1.97179e-05 -1.97746e-05 -2.08033e-05 -2.32879e-05 -2.72284e-05 -3.2625e-05 -3.94774e-05 -4.77858e-05 -5.75502e-05 -6.87705e-05 -8.12978e-05 -9.49831e-05 -0.000109826 -0.000125828 -0.000142987 -0.000161304 -0.00018078 -0.000201413 -0.000222658 -0.000243969 -0.000265345 -0.000286787 -0.000308294 -0.000329867 -0.000351506 -0.00037321 -0.000393571 -0.00041118 -0.000426038 -0.000438144 -0.000447498 -0.000454101 -0.000457952 -0.000459051 -0.000457469 -0.000453276 -0.000446473 -0.000437059 -0.000425034 -0.000410398 -0.000393152 -0.000373294 -0.000352212 -0.000331289 -0.000310527 -0.000289924 -0.000269482 -0.0002492 -0.000229078 -0.000209115 -0.000189669 -0.000171094 -0.000153391 -0.000136559 -0.000120598 -0.000105509 -9.12919e-05 -7.79457e-05 -6.56367e-05 -5.45305e-05 -4.46271e-05 -3.59265e-05 -2.84287e-05 -2.21337e-05 -1.70415e-05 -1.31521e-05 -1.00696e-05 -7.39805e-06 -5.13753e-06 -3.28802e-06 -1.84951e-06 -8.22005e-07 -2.05501e-07 0 0 3.81794e-07 1.52718e-06 3.43614e-06 6.1087e-06 9.54484e-06 1.37446e-05 1.87079e-05 2.44348e-05 2.98184e-05 3.37518e-05 3.62351e-05 3.72681e-05 3.6851e-05 3.49837e-05 3.16662e-05 2.68985e-05 2.07697e-05 1.3369e-05 4.69629e-06 -5.24837e-06 -1.6465e-05 -2.89536e-05 -4.27141e-05 -5.77466e-05 -7.30256e-05 -8.75257e-05 -0.000101247 -0.000114189 -0.000126352 -0.000137736 -0.000148342 -0.000158168 -0.000166966 -0.000174486 -0.000180727 -0.000185691 -0.000189376 -0.000191784 -0.000192913 -0.000192764 -0.000191125 -0.000187782 -0.000182735 -0.000175985 -0.000167532 -0.000157375 -0.000145514 -0.00013195 -0.000118511 -0.000107023 -9.74884e-05 -8.99058e-05 -8.42755e-05 -8.05975e-05 -7.88718e-05 -7.90984e-05 -8.32131e-05 -9.31515e-05 -0.000108914 -0.0001305 -0.00015791 -0.000191143 -0.000230201 -0.000275082 -0.000325191 -0.000379932 -0.000439305 -0.000503311 -0.000571948 -0.000645217 -0.000723118 -0.000805651 -0.000890632 -0.000975874 -0.00106138 -0.00114715 -0.00123318 -0.00131947 -0.00140602 -0.00149284 -0.00157428 -0.00164472 -0.00170415 -0.00175257 -0.00178999 -0.0018164 -0.00183181 -0.0018362 -0.00182988 -0.00181311 -0.00178589 -0.00174824 -0.00170014 -0.00164159 -0.00157261 -0.00149318 -0.00140885 -0.00132516 -0.00124211 -0.0011597 -0.00107793 -0.000996799 -0.00091631 -0.000836462 -0.000758677 -0.000684377 -0.000613564 -0.000546236 -0.000482394 -0.000422038 -0.000365167 -0.000311783 -0.000262547 -0.000218122 -0.000178509 -0.000143706 -0.000113715 -8.85349e-05 -6.8166e-05 -5.26083e-05 -4.02783e-05 -2.95922e-05 -2.05501e-05 -1.31521e-05 -7.39805e-06 -3.28802e-06 -8.22005e-07 0 0 8.59036e-07 3.43614e-06 7.73132e-06 1.37446e-05 2.14759e-05 3.09253e-05 4.20928e-05 5.49783e-05 6.70914e-05 7.59416e-05 8.15289e-05 8.38533e-05 8.29147e-05 7.87133e-05 7.12489e-05 6.05216e-05 4.67318e-05 3.00802e-05 1.05666e-05 -1.18088e-05 -3.70462e-05 -6.51455e-05 -9.61067e-05 -0.00012993 -0.000164308 -0.000196933 -0.000227805 -0.000256925 -0.000284292 -0.000309907 -0.000333769 -0.000355878 -0.000375673 -0.000392592 -0.000406636 -0.000417804 -0.000426096 -0.000431513 -0.000434054 -0.000433719 -0.000430031 -0.000422509 -0.000411154 -0.000395967 -0.000376946 -0.000354093 -0.000327407 -0.000296888 -0.000266649 -0.000240803 -0.000219349 -0.000202288 -0.00018962 -0.000181344 -0.000177461 -0.000177971 -0.000187229 -0.000209591 -0.000245056 -0.000293625 -0.000355297 -0.000430072 -0.000517952 -0.000618935 -0.00073168 -0.000854848 -0.000988437 -0.00113245 -0.00128688 -0.00145174 -0.00162702 -0.00181272 -0.00200392 -0.00219572 -0.0023881 -0.00258108 -0.00277465 -0.0029688 -0.00316355 -0.00335889 -0.00354214 -0.00370062 -0.00383434 -0.00394329 -0.00402748 -0.00408691 -0.00412157 -0.00413146 -0.00411722 -0.00407949 -0.00401826 -0.00393353 -0.0038253 -0.00369358 -0.00353836 -0.00335965 -0.0031699 -0.0029816 -0.00279474 -0.00260932 -0.00242534 -0.0022428 -0.0020617 -0.00188204 -0.00170702 -0.00153985 -0.00138052 -0.00122903 -0.00108539 -0.000949585 -0.000821627 -0.000701512 -0.000590731 -0.000490775 -0.000401644 -0.000323339 -0.000255859 -0.000199203 -0.000153374 -0.000118369 -9.06261e-05 -6.65824e-05 -4.62378e-05 -2.95922e-05 -1.66456e-05 -7.39805e-06 -1.84951e-06 0 0 1.52718e-06 6.1087e-06 1.37446e-05 2.44348e-05 3.81794e-05 5.49783e-05 7.48316e-05 9.77392e-05 0.000119274 0.000135007 0.00014494 0.000149072 0.000147404 0.000139935 0.000126665 0.000107594 8.30788e-05 5.34759e-05 1.87851e-05 -2.09935e-05 -6.58599e-05 -0.000115814 -0.000170856 -0.000230986 -0.000292103 -0.000350103 -0.000404987 -0.000456756 -0.000505408 -0.000550945 -0.000593367 -0.000632672 -0.000667863 -0.000697942 -0.000722909 -0.000742763 -0.000757505 -0.000767135 -0.000771652 -0.000771057 -0.000764499 -0.000751127 -0.000730941 -0.00070394 -0.000670126 -0.000629499 -0.000582057 -0.000527801 -0.000474042 -0.000428093 -0.000389954 -0.000359623 -0.000337102 -0.00032239 -0.000315487 -0.000316394 -0.000332852 -0.000372606 -0.000435655 -0.000521999 -0.000631639 -0.000764573 -0.000920803 -0.00110033 -0.00130076 -0.00151973 -0.00175722 -0.00201324 -0.00228779 -0.00258087 -0.00289247 -0.00322261 -0.00356253 -0.0039035 -0.00424552 -0.00458859 -0.0049327 -0.00527787 -0.00562409 -0.00597135 -0.00629713 -0.00657888 -0.0068166 -0.0070103 -0.00715997 -0.00726561 -0.00732723 -0.00734482 -0.00731951 -0.00725242 -0.00714357 -0.00699294 -0.00680054 -0.00656637 -0.00629042 -0.00597271 -0.00563539 -0.00530063 -0.00496843 -0.00463879 -0.00431171 -0.0039872 -0.00366524 -0.00334585 -0.00303471 -0.00273751 -0.00245425 -0.00218494 -0.00192958 -0.00168815 -0.00146067 -0.00124713 -0.00105019 -0.000872489 -0.000714034 -0.000574825 -0.00045486 -0.00035414 -0.000272664 -0.000210433 -0.000161113 -0.000118369 -8.22005e-05 -5.26083e-05 -2.95922e-05 -1.31521e-05 -3.28802e-06 0 0 2.38621e-06 9.54484e-06 2.14759e-05 3.81794e-05 5.96553e-05 8.59036e-05 0.000116924 0.000152718 0.000186365 0.000210949 0.000226469 0.000232926 0.000230319 0.000218648 0.000197914 0.000168115 0.000129811 8.35561e-05 2.93518e-05 -3.28023e-05 -0.000102906 -0.00018096 -0.000266963 -0.000360916 -0.00045641 -0.000547036 -0.000632792 -0.000713681 -0.000789701 -0.000860852 -0.000927135 -0.00098855 -0.00104354 -0.00109053 -0.00112954 -0.00116057 -0.0011836 -0.00119865 -0.00120571 -0.00120478 -0.00119453 -0.00117364 -0.00114209 -0.00109991 -0.00104707 -0.000983591 -0.000909463 -0.000824689 -0.000740691 -0.000668896 -0.000609303 -0.000561911 -0.000526722 -0.000503734 -0.000492949 -0.000494365 -0.000520082 -0.000582197 -0.000680711 -0.000815624 -0.000986936 -0.00119465 -0.00143875 -0.00171926 -0.00203244 -0.00237458 -0.00274566 -0.00314569 -0.00357467 -0.00403261 -0.00451949 -0.00503532 -0.00556645 -0.00609922 -0.00663362 -0.00716967 -0.00770735 -0.00824668 -0.00878764 -0.00933024 -0.00983927 -0.0102795 -0.0106509 -0.0109536 -0.0111875 -0.0113525 -0.0114488 -0.0114763 -0.0114367 -0.0113319 -0.0111618 -0.0109265 -0.0106258 -0.01026 -0.00982879 -0.00933236 -0.00880529 -0.00828223 -0.00776317 -0.00724811 -0.00673705 -0.00622999 -0.00572694 -0.00522789 -0.00474173 -0.00427736 -0.00383477 -0.00341397 -0.00301496 -0.00263774 -0.0022823 -0.00194864 -0.00164092 -0.00136326 -0.00111568 -0.000898164 -0.000710718 -0.000553343 -0.000426038 -0.000328802 -0.000251739 -0.000184951 -0.000128438 -8.22005e-05 -4.62378e-05 -2.05501e-05 -5.13753e-06 0 0 3.43614e-06 1.37446e-05 3.09253e-05 5.49783e-05 8.59036e-05 0.000123701 0.000168371 0.000219913 0.000268366 0.000303766 0.000326116 0.000335413 0.000331659 0.000314853 0.000284995 0.000242086 0.000186927 0.000120321 4.22666e-05 -4.72353e-05 -0.000148185 -0.000260582 -0.000384427 -0.00051972 -0.000657231 -0.000787731 -0.000911221 -0.0010277 -0.00113717 -0.00123963 -0.00133507 -0.00142351 -0.00150269 -0.00157037 -0.00162654 -0.00167122 -0.00170439 -0.00172605 -0.00173622 -0.00173488 -0.00172012 -0.00169003 -0.00164462 -0.00158387 -0.00150778 -0.00141637 -0.00130963 -0.00118755 -0.0010666 -0.00096321 -0.000877396 -0.000809152 -0.000758479 -0.000725377 -0.000709846 -0.000711885 -0.000748917 -0.000838364 -0.000980224 -0.0011745 -0.00142119 -0.00172029 -0.00207181 -0.00247574 -0.00292672 -0.00341939 -0.00395375 -0.0045298 -0.00514753 -0.00580695 -0.00650806 -0.00725086 -0.00801569 -0.00878287 -0.00955241 -0.0103243 -0.0110986 -0.0118752 -0.0126542 -0.0134355 -0.0141685 -0.0148025 -0.0153374 -0.0157732 -0.0161099 -0.0163476 -0.0164863 -0.0165258 -0.0164689 -0.016318 -0.016073 -0.0157341 -0.0153012 -0.0147743 -0.0141535 -0.0134386 -0.0126796 -0.0119264 -0.011179 -0.0104373 -0.00970135 -0.00897119 -0.00824679 -0.00752816 -0.00682809 -0.00615939 -0.00552207 -0.00491612 -0.00434154 -0.00379834 -0.00328651 -0.00280605 -0.00236292 -0.0019631 -0.00160658 -0.00129336 -0.00102343 -0.000796814 -0.000613494 -0.000473475 -0.000362504 -0.00026633 -0.000184951 -0.000118369 -6.65824e-05 -2.95922e-05 -7.39805e-06 0 0 4.67697e-06 1.87079e-05 4.20928e-05 7.48316e-05 0.000116924 0.000168371 0.000229172 0.000299326 0.000365276 0.00041346 0.00044388 0.000456534 0.000451425 0.00042855 0.00038791 0.000329506 0.000254429 0.00016377 5.75295e-05 -6.42925e-05 -0.000201696 -0.000354681 -0.000523248 -0.000707396 -0.000894564 -0.00107219 -0.00124027 -0.00139881 -0.00154781 -0.00168727 -0.00181719 -0.00193756 -0.00204533 -0.00213745 -0.00221391 -0.00227471 -0.00231986 -0.00234935 -0.00236318 -0.00236136 -0.00234128 -0.00230033 -0.00223851 -0.00215582 -0.00205226 -0.00192784 -0.00178255 -0.00161639 -0.00145175 -0.00131104 -0.00119423 -0.00110135 -0.00103237 -0.000987319 -0.000966179 -0.000968955 -0.00101936 -0.00114111 -0.00133419 -0.00159862 -0.00193439 -0.00234151 -0.00281996 -0.00336975 -0.00398359 -0.00465417 -0.00538149 -0.00616556 -0.00700636 -0.00790391 -0.0088582 -0.00986923 -0.0109102 -0.0119545 -0.0130019 -0.0140525 -0.0151064 -0.0161635 -0.0172238 -0.0182873 -0.019285 -0.0201478 -0.0208758 -0.021469 -0.0219274 -0.0222509 -0.0224396 -0.0224935 -0.022416 -0.0222105 -0.0218772 -0.0214159 -0.0208267 -0.0201095 -0.0192644 -0.0182914 -0.0172584 -0.0162332 -0.0152158 -0.0142063 -0.0132046 -0.0122108 -0.0112248 -0.0102467 -0.00929379 -0.00838362 -0.00751615 -0.00669139 -0.00590933 -0.00516996 -0.0044733 -0.00381934 -0.0032162 -0.002672 -0.00218673 -0.0017604 -0.00139301 -0.00108455 -0.000835034 -0.000644452 -0.000493409 -0.000362504 -0.000251739 -0.000161113 -9.06261e-05 -4.02783e-05 -1.00696e-05 0 0 6.1087e-06 2.44348e-05 5.49783e-05 9.77392e-05 0.000152718 0.000219913 0.000299326 0.000390957 0.000477095 0.000540029 0.000579761 0.00059629 0.000589616 0.000559739 0.000506659 0.000430376 0.000332315 0.000213904 7.51406e-05 -8.39739e-05 -0.00026344 -0.000463257 -0.000683426 -0.000923946 -0.00116841 -0.00140041 -0.00161995 -0.00182702 -0.00202163 -0.00220378 -0.00237347 -0.00253069 -0.00267145 -0.00279177 -0.00289163 -0.00297105 -0.00303002 -0.00306854 -0.00308661 -0.00308423 -0.00305799 -0.00300451 -0.00292376 -0.00281576 -0.00268051 -0.00251799 -0.00232823 -0.0021112 -0.00189617 -0.00171237 -0.00155981 -0.00143849 -0.00134841 -0.00128956 -0.00126195 -0.00126557 -0.00133141 -0.00149042 -0.00174262 -0.002088 -0.00252655 -0.00305829 -0.00368321 -0.00440131 -0.00520306 -0.00607892 -0.00702889 -0.00805297 -0.00915117 -0.0103235 -0.0115699 -0.0128904 -0.0142501 -0.015614 -0.0169821 -0.0183543 -0.0197308 -0.0211115 -0.0224964 -0.0238854 -0.0251885 -0.0263155 -0.0272664 -0.0280412 -0.0286399 -0.0290624 -0.0293089 -0.0293793 -0.029278 -0.0290097 -0.0285743 -0.0279718 -0.0272022 -0.0262655 -0.0251617 -0.0238908 -0.0225415 -0.0212025 -0.0198737 -0.0185552 -0.0172468 -0.0159488 -0.014661 -0.0133834 -0.0121388 -0.01095 -0.00981702 -0.00873977 -0.0077183 -0.0067526 -0.00584268 -0.00498853 -0.00420075 -0.00348996 -0.00285614 -0.0022993 -0.00181944 -0.00141656 -0.00109066 -0.000841733 -0.000644452 -0.000473475 -0.000328802 -0.000210433 -0.000118369 -5.26083e-05 -1.31521e-05 0 0 7.2715e-06 2.9086e-05 6.54435e-05 0.000116344 0.000181788 0.000261774 0.000356304 0.000465376 0.000566903 0.000638793 0.000681049 0.000693668 0.000676652 0.000630001 0.000553714 0.000447791 0.000314137 0.000154657 -3.06512e-05 -0.000241786 -0.000478747 -0.000741536 -0.00103015 -0.00134459 -0.00166443 -0.00196922 -0.00225897 -0.00253368 -0.00279334 -0.00303797 -0.00326755 -0.00348209 -0.00367507 -0.00383998 -0.00397681 -0.00408558 -0.00416627 -0.00421888 -0.00424343 -0.0042399 -0.0042045 -0.00413341 -0.00402664 -0.00388419 -0.00370606 -0.00349225 -0.00324275 -0.00295758 -0.00267472 -0.00243219 -0.00222998 -0.00206809 -0.00194652 -0.00186528 -0.00182436 -0.00182377 -0.00189791 -0.0020812 -0.00237365 -0.00277525 -0.003286 -0.0039059 -0.00463495 -0.00547316 -0.00640649 -0.00742091 -0.00851643 -0.00969304 -0.0109507 -0.0122896 -0.0137094 -0.0152104 -0.0167575 -0.0183156 -0.0198847 -0.0214649 -0.0230561 -0.0246584 -0.0262717 -0.027896 -0.0294227 -0.030743 -0.0318569 -0.0327645 -0.0334657 -0.0339606 -0.034249 -0.0343311 -0.0342124 -0.0338983 -0.0333888 -0.032684 -0.0317838 -0.0306883 -0.0293974 -0.0279112 -0.0263362 -0.024779 -0.0232397 -0.0217181 -0.0202144 -0.0187284 -0.0172603 -0.01581 -0.0143973 -0.0130419 -0.0117439 -0.0105033 -0.00932001 -0.00819411 -0.00712558 -0.00611442 -0.00517628 -0.00432681 -0.00356602 -0.00289391 -0.00231048 -0.00181572 -0.00140965 -0.00109225 -0.000836251 -0.000614389 -0.000426659 -0.000273062 -0.000153597 -6.82654e-05 -1.70663e-05 0 0 7.70557e-06 3.08223e-05 6.93501e-05 0.000123289 0.000192639 0.0002774 0.000377573 0.000493156 0.000597779 0.000665071 0.00069503 0.000687658 0.000642954 0.000560918 0.00044155 0.00028485 9.34456e-05 -0.000130037 -0.000385597 -0.000673235 -0.00099295 -0.00134474 -0.00172862 -0.00214456 -0.00256828 -0.00297544 -0.00336606 -0.00374013 -0.00409766 -0.00443863 -0.00476306 -0.00507094 -0.00535019 -0.00558872 -0.00578653 -0.00594362 -0.00606 -0.00613565 -0.00617059 -0.00616481 -0.00611501 -0.00601787 -0.0058734 -0.00568161 -0.00544248 -0.00515601 -0.00482222 -0.0044411 -0.00406229 -0.00373544 -0.00346056 -0.00323763 -0.00306667 -0.00294767 -0.00288063 -0.00286556 -0.0029317 -0.00310832 -0.00339542 -0.00379299 -0.00430104 -0.00491957 -0.00564857 -0.00648805 -0.00741525 -0.00840745 -0.00946462 -0.0105868 -0.0117739 -0.013026 -0.0143432 -0.0157252 -0.0171546 -0.0186134 -0.0201016 -0.0216194 -0.0231666 -0.0247433 -0.0263494 -0.0279851 -0.0295309 -0.0308677 -0.0319953 -0.0329139 -0.0336233 -0.0341237 -0.034415 -0.0344971 -0.0343765 -0.0340592 -0.0335453 -0.0328349 -0.0319278 -0.0308241 -0.0295238 -0.028027 -0.0264495 -0.0249074 -0.0234007 -0.0219294 -0.0204935 -0.0190929 -0.0177278 -0.016398 -0.0151031 -0.0138425 -0.012616 -0.0114239 -0.010266 -0.00914235 -0.00805296 -0.00699783 -0.00600248 -0.0050924 -0.00426761 -0.00352811 -0.00287388 -0.00230494 -0.00182129 -0.00142292 -0.00108942 -0.000800391 -0.000555827 -0.00035573 -0.000200098 -8.89324e-05 -2.22331e-05 0 0 7.41089e-06 2.96435e-05 6.6698e-05 0.000118574 0.000185272 0.000266792 0.000363133 0.000474297 0.000569725 0.000618861 0.000621706 0.000578259 0.00048852 0.000352489 0.000170167 -5.84475e-05 -0.00032976 -0.000640176 -0.000989696 -0.00137832 -0.00180605 -0.00227288 -0.00277882 -0.00332386 -0.00387996 -0.00441908 -0.00494123 -0.00544639 -0.00593457 -0.00640578 -0.00686 -0.00729725 -0.00769681 -0.00803799 -0.00832078 -0.00854519 -0.00871121 -0.00881885 -0.00886809 -0.00885896 -0.00878953 -0.00865789 -0.00846405 -0.008208 -0.00788975 -0.00750929 -0.00706663 -0.00656177 -0.00605887 -0.00562214 -0.00525155 -0.00494712 -0.00470885 -0.00453673 -0.00443076 -0.00439095 -0.00443279 -0.00457179 -0.00480793 -0.00514123 -0.00557169 -0.0060993 -0.00672406 -0.00744597 -0.00822935 -0.00903851 -0.00987345 -0.0107342 -0.0116207 -0.012533 -0.013471 -0.0144349 -0.0154414 -0.0165073 -0.0176328 -0.0188178 -0.0200623 -0.0213662 -0.0227297 -0.0241526 -0.0255132 -0.0266895 -0.0276815 -0.0284892 -0.0291126 -0.0295518 -0.0298067 -0.0298772 -0.0297703 -0.0294925 -0.0290438 -0.0284243 -0.027634 -0.0266729 -0.0255409 -0.0242381 -0.0228813 -0.0215876 -0.0203568 -0.019189 -0.0180842 -0.0170423 -0.0160635 -0.0151476 -0.0142564 -0.0133517 -0.0124334 -0.0115016 -0.0105562 -0.00959729 -0.00862481 -0.00763877 -0.00667935 -0.00578673 -0.0049609 -0.00420188 -0.00350965 -0.00288422 -0.00232558 -0.00183375 -0.00140396 -0.00103148 -0.000716308 -0.000458437 -0.000257871 -0.000114609 -2.86523e-05 0 0 6.38746e-06 2.55499e-05 5.74872e-05 0.000102199 0.000159687 0.000229949 0.000312986 0.000408798 0.000482739 0.000500166 0.000461076 0.000365472 0.000213352 4.71596e-06 -0.000260435 -0.000582102 -0.000955479 -0.00137576 -0.00184295 -0.00235704 -0.00291804 -0.00352595 -0.00418076 -0.00488247 -0.00559947 -0.00630013 -0.00698446 -0.00765245 -0.00830409 -0.00893941 -0.00955838 -0.010161 -0.0107149 -0.0111878 -0.0115796 -0.0118903 -0.0121199 -0.0122685 -0.0123359 -0.0123223 -0.0122281 -0.0120535 -0.0117986 -0.0114634 -0.0110479 -0.0105521 -0.00997598 -0.00931958 -0.00866448 -0.00809227 -0.00760297 -0.00719656 -0.00687306 -0.00663245 -0.00647475 -0.00639994 -0.00640117 -0.00647159 -0.00661119 -0.00681997 -0.00709794 -0.00744509 -0.00786142 -0.00834693 -0.00884878 -0.00931412 -0.00974293 -0.0101352 -0.010491 -0.0108103 -0.0110931 -0.0113393 -0.0116178 -0.0119975 -0.0124783 -0.0130601 -0.0137431 -0.0145272 -0.0154124 -0.0163987 -0.0173696 -0.0182085 -0.0189155 -0.0194906 -0.0199337 -0.0202449 -0.0204242 -0.0204715 -0.0203938 -0.020198 -0.0198842 -0.0194524 -0.0189025 -0.0182346 -0.0174486 -0.0165446 -0.0156318 -0.0148196 -0.014108 -0.013497 -0.0129865 -0.0125766 -0.0122673 -0.0120586 -0.0118572 -0.0115697 -0.0111961 -0.0107364 -0.0101907 -0.00955896 -0.00884112 -0.00803722 -0.00720689 -0.00640979 -0.0056459 -0.00491523 -0.00421778 -0.00355355 -0.00292253 -0.00232474 -0.00177988 -0.00130767 -0.000908101 -0.000581185 -0.000326916 -0.000145296 -3.6324e-05 0 0 4.6353e-06 1.85412e-05 4.17177e-05 7.41648e-05 0.000115882 0.000166871 0.00022713 0.000296659 0.000336823 0.000308983 0.000213141 4.92959e-05 -0.000182552 -0.000482403 -0.000850256 -0.00128611 -0.00178371 -0.00233679 -0.00294536 -0.0036094 -0.00432893 -0.00510394 -0.00593444 -0.00682041 -0.00772682 -0.0086186 -0.00949576 -0.0103583 -0.0112062 -0.0120395 -0.0128582 -0.0136622 -0.0144046 -0.0150381 -0.0155629 -0.0159789 -0.0162861 -0.0164845 -0.0165741 -0.016555 -0.0164306 -0.0162046 -0.015877 -0.0154477 -0.0149169 -0.0142844 -0.0135503 -0.0127145 -0.0118791 -0.0111458 -0.0105148 -0.00998595 -0.0095593 -0.00923484 -0.00901259 -0.00889253 -0.00883685 -0.00880774 -0.00880519 -0.00882921 -0.0088798 -0.00895694 -0.00906066 -0.00919094 -0.00927355 -0.00923425 -0.00907306 -0.00878996 -0.00838496 -0.00785805 -0.00720925 -0.00643854 -0.00568403 -0.00508384 -0.00463795 -0.00434638 -0.00420912 -0.00422617 -0.00439754 -0.00472321 -0.00510001 -0.00542474 -0.00569741 -0.00591802 -0.00608656 -0.00620304 -0.00626746 -0.00627981 -0.00624701 -0.00617595 -0.00606665 -0.0059191 -0.0057333 -0.00550925 -0.00524695 -0.0049464 -0.00470082 -0.00460343 -0.00465424 -0.00485324 -0.00520043 -0.00569581 -0.00633939 -0.00713116 -0.00790538 -0.00849633 -0.008904 -0.0091284 -0.00916951 -0.00902735 -0.00870191 -0.0081932 -0.00758512 -0.00696158 -0.0063226 -0.00566816 -0.00499827 -0.00431293 -0.00361213 -0.00289589 -0.00221716 -0.00162894 -0.00113121 -0.000723972 -0.000407234 -0.000180993 -4.52482e-05 0 0 2.15439e-06 8.61757e-06 1.93895e-05 3.44703e-05 5.38598e-05 7.75582e-05 0.000105565 0.000137881 0.000131975 4.5314e-05 -0.0001221 -0.000370268 -0.000699191 -0.00110887 -0.0015993 -0.00217048 -0.00281446 -0.00352327 -0.00429692 -0.0051354 -0.00603872 -0.00700687 -0.00803985 -0.00913767 -0.010262 -0.0113745 -0.0124751 -0.013564 -0.0146409 -0.0157061 -0.0167594 -0.0178009 -0.0187657 -0.019589 -0.0202708 -0.020811 -0.0212098 -0.021467 -0.0215826 -0.0215568 -0.0213971 -0.0211113 -0.0206993 -0.0201611 -0.0194967 -0.0187062 -0.0177895 -0.0167467 -0.0157027 -0.0147829 -0.013987 -0.0133153 -0.0127676 -0.0123439 -0.0120443 -0.0118687 -0.0117398 -0.0115802 -0.0113899 -0.0111689 -0.0109173 -0.0106349 -0.0103218 -0.00997798 -0.00950364 -0.00879893 -0.00786383 -0.00669834 -0.00530248 -0.00367623 -0.00181959 0.000267421 0.00236008 0.00423363 0.00588808 0.00732343 0.00853967 0.00953681 0.0103148 0.0108738 0.0112955 0.0116619 0.0119729 0.0122285 0.0124289 0.0125738 0.0126635 0.0126977 0.01267 0.0125738 0.012409 0.0121756 0.0118737 0.0115031 0.0110641 0.0105564 0.00991157 0.00906091 0.00800444 0.00674215 0.00527405 0.00360013 0.00172039 -0.00036516 -0.00240102 -0.00413169 -0.00555717 -0.00667746 -0.00749256 -0.00800246 -0.00820717 -0.00810669 -0.00781401 -0.00744211 -0.006991 -0.00646067 -0.00585112 -0.00516236 -0.00439439 -0.0035472 -0.00271582 -0.0019953 -0.00138562 -0.000886799 -0.000498824 -0.0002217 -5.54249e-05 0 0 -1.05526e-06 -4.22102e-06 -9.4973e-06 -1.68841e-05 -2.63814e-05 -3.79892e-05 -5.17075e-05 -6.75364e-05 -0.000131805 -0.000290842 -0.000544647 -0.000893221 -0.00133656 -0.00187468 -0.00250756 -0.0032352 -0.00404772 -0.00493519 -0.00589763 -0.00693503 -0.0080474 -0.00923472 -0.010497 -0.0118343 -0.013205 -0.0145678 -0.0159226 -0.0172694 -0.0186083 -0.0199392 -0.0212621 -0.022577 -0.0237984 -0.0248404 -0.0257032 -0.0263867 -0.0268909 -0.0272158 -0.0273615 -0.0273279 -0.0271277 -0.0267735 -0.0262654 -0.0256034 -0.0247874 -0.0238175 -0.0226937 -0.0214159 -0.0201354 -0.0190033 -0.0180197 -0.0171846 -0.0164979 -0.0159596 -0.0155698 -0.0153285 -0.0151101 -0.0147891 -0.0143654 -0.0138392 -0.0132103 -0.0124788 -0.0116448 -0.0107081 -0.00953907 -0.00800814 -0.00611524 -0.00386039 -0.00124358 0.00173518 0.0050759 0.00877857 0.0125145 0.0159549 0.0190998 0.0219493 0.0245033 0.0267618 0.0287248 0.0303923 0.0318169 0.0330513 0.0340953 0.0349491 0.0356125 0.0360857 0.0363686 0.0364612 0.0363574 0.0360512 0.0355427 0.0348317 0.0339183 0.0328026 0.0314844 0.0299638 0.0282054 0.0261734 0.023868 0.0212892 0.0184369 0.0153112 0.011912 0.00823936 0.0046559 0.00152424 -0.0011556 -0.00338364 -0.00515987 -0.00648429 -0.0073569 -0.00777771 -0.00789358 -0.00785137 -0.0076511 -0.00729276 -0.00677634 -0.00610185 -0.00526929 -0.00427866 -0.00327585 -0.00240675 -0.00167135 -0.00106967 -0.000601687 -0.000267416 -6.68541e-05 0 0 -4.99365e-06 -1.99746e-05 -4.49428e-05 -7.98983e-05 -0.000124841 -0.000179771 -0.000244689 -0.000319593 -0.000454515 -0.000699484 -0.0010545 -0.00151956 -0.00209467 -0.00277983 -0.00357503 -0.00448028 -0.00548349 -0.00657256 -0.0077475 -0.0090083 -0.010355 -0.0117875 -0.0133059 -0.0149102 -0.0165558 -0.0181985 -0.0198381 -0.0214747 -0.0231082 -0.0247387 -0.0263662 -0.0279906 -0.0295025 -0.0307924 -0.0318601 -0.0327059 -0.0333295 -0.0337312 -0.0339107 -0.0338682 -0.0336222 -0.0331913 -0.0325755 -0.0317747 -0.030789 -0.0296184 -0.0282628 -0.0267223 -0.0251771 -0.0238072 -0.0226128 -0.0215938 -0.0207502 -0.020082 -0.0195892 -0.0192719 -0.0189477 -0.0184342 -0.0177317 -0.0168399 -0.015759 -0.0144889 -0.0130296 -0.0113812 -0.00937984 -0.00686188 -0.0038273 -0.000276097 0.00379172 0.00837617 0.0134772 0.0190949 0.0247792 0.03008 0.0349974 0.0395313 0.0436817 0.0474487 0.0508322 0.0538323 0.0564643 0.0587435 0.0606699 0.0622436 0.0634645 0.0643326 0.0648479 0.0650105 0.064815 0.0642563 0.0633344 0.0620492 0.0604007 0.058389 0.0560141 0.0532759 0.0501806 0.0467341 0.0429366 0.0387879 0.0342882 0.0294374 0.0242354 0.0186824 0.0132654 0.00847148 0.00430072 0.000753075 -0.00217144 -0.00447283 -0.0061511 -0.00720625 -0.00782382 -0.00818937 -0.00830291 -0.00816442 -0.00777392 -0.00713139 -0.00623685 -0.00509029 -0.00389725 -0.00286329 -0.00198839 -0.00127257 -0.000715822 -0.000318143 -7.95357e-05 0 0 -9.91129e-06 -3.96451e-05 -8.92016e-05 -0.000158581 -0.000247782 -0.000356806 -0.000485653 -0.000634322 -0.000852065 -0.00118813 -0.00164253 -0.00221525 -0.00290629 -0.00371566 -0.00464336 -0.00568938 -0.00683697 -0.00806938 -0.00938662 -0.0107887 -0.0122755 -0.0138472 -0.0155038 -0.0172451 -0.0190326 -0.0208276 -0.02263 -0.02444 -0.0262574 -0.0280824 -0.0299148 -0.0317547 -0.0334712 -0.0349336 -0.0361419 -0.037096 -0.0377959 -0.0382417 -0.0384333 -0.0383708 -0.03808 -0.0375869 -0.0368914 -0.0359937 -0.0348936 -0.0335912 -0.0320864 -0.0303793 -0.0286753 -0.0271795 -0.0258919 -0.0248127 -0.0239418 -0.0232791 -0.0228247 -0.0225786 -0.0222826 -0.0216785 -0.0207662 -0.0195458 -0.0180173 -0.0161807 -0.0140359 -0.011583 -0.00862108 -0.0049491 -0.000567095 0.00452493 0.010327 0.016839 0.0240611 0.0319932 0.0400321 0.0475745 0.0546204 0.0611697 0.0672226 0.072779 0.0778389 0.0824023 0.086446 0.0899467 0.0929044 0.0953191 0.0971909 0.0985196 0.0993054 0.0995482 0.0992445 0.0983906 0.0969866 0.0950325 0.0925282 0.0894739 0.0858694 0.0817148 0.0770588 0.0719502 0.066389 0.0603751 0.0539086 0.0469895 0.0396177 0.0317933 0.0241558 0.0173446 0.0113597 0.00620116 0.00186896 -0.00163689 -0.00431641 -0.00616959 -0.0074264 -0.0083168 -0.00884081 -0.00899841 -0.00878961 -0.00821441 -0.00727281 -0.00596481 -0.00456681 -0.00335521 -0.00233 -0.0014912 -0.000838801 -0.000372801 -9.32002e-05 0 0 -1.60587e-05 -6.42347e-05 -0.000144528 -0.000256939 -0.000401467 -0.000578112 -0.000786875 -0.00102776 -0.00134036 -0.00176431 -0.0022996 -0.00294623 -0.00370419 -0.0045735 -0.00555415 -0.00664613 -0.00782334 -0.00905965 -0.0103551 -0.0117096 -0.0131232 -0.014596 -0.0161278 -0.0177188 -0.0193533 -0.021016 -0.0227068 -0.0244256 -0.0261726 -0.0279477 -0.0297509 -0.0315822 -0.0332976 -0.0347531 -0.0359487 -0.0368844 -0.0375603 -0.0379762 -0.0381323 -0.0380285 -0.0377001 -0.0371823 -0.0364753 -0.0355789 -0.0344933 -0.0332183 -0.0317541 -0.0301005 -0.0284775 -0.0271049 -0.0259828 -0.0251111 -0.0244898 -0.0241189 -0.0239985 -0.0241285 -0.0241451 -0.0236845 -0.0227467 -0.0213316 -0.0194394 -0.0170699 -0.0142232 -0.0108993 -0.00685793 -0.00185872 0.00409828 0.0110131 0.0188857 0.0277161 0.0375043 0.0482503 0.0591511 0.0694039 0.0790086 0.0879652 0.0962737 0.103934 0.110947 0.117311 0.122971 0.127869 0.132007 0.135383 0.137998 0.139852 0.140945 0.141277 0.140847 0.139656 0.137702 0.134986 0.131508 0.127268 0.122267 0.116503 0.110062 0.103029 0.0954043 0.0871876 0.078379 0.0689784 0.058986 0.0484015 0.0380554 0.028778 0.0205692 0.0134291 0.00735759 0.00235474 -0.00157946 -0.00444501 -0.00652296 -0.00809436 -0.00915919 -0.00971746 -0.00976918 -0.00931433 -0.00835293 -0.00688497 -0.0052713 -0.00387279 -0.00268944 -0.00172124 -0.000968199 -0.00043031 -0.000107578 0 0 -2.34358e-05 -9.37433e-05 -0.000210922 -0.000374973 -0.000585896 -0.00084369 -0.00114836 -0.00149989 -0.00191941 -0.00242802 -0.00302572 -0.0037125 -0.00448838 -0.00535335 -0.0063074 -0.00735055 -0.0084426 -0.00954338 -0.0106529 -0.0117711 -0.012898 -0.0140337 -0.0151781 -0.0163312 -0.0175181 -0.0187638 -0.0200683 -0.0214316 -0.0228538 -0.0243348 -0.0258745 -0.0274732 -0.0289815 -0.0302507 -0.0312806 -0.0320712 -0.0326226 -0.0329348 -0.0330077 -0.0328414 -0.0324825 -0.0319777 -0.0313271 -0.0305306 -0.0295882 -0.0284999 -0.0272658 -0.0258858 -0.0245838 -0.0235836 -0.0228853 -0.0224888 -0.0223942 -0.0226014 -0.0231105 -0.0239215 -0.0245351 -0.0244523 -0.023673 -0.0221973 -0.0200252 -0.0171566 -0.0135916 -0.00933008 -0.0040904 0.00240924 0.0101688 0.0191884 0.0294679 0.0410073 0.0538067 0.0678661 0.0821363 0.0955683 0.108162 0.119918 0.130835 0.140914 0.150155 0.158558 0.166038 0.172511 0.177976 0.182435 0.185886 0.18833 0.189767 0.190197 0.189623 0.188051 0.18548 0.18191 0.177341 0.171773 0.165206 0.157639 0.149189 0.13997 0.129982 0.119225 0.107699 0.0954042 0.0823401 0.068507 0.0549644 0.0427718 0.0319293 0.0224369 0.0142944 0.00750207 0.00205975 -0.00203252 -0.00511352 -0.00752204 -0.00925805 -0.0103216 -0.0107126 -0.0104312 -0.0094772 -0.00785076 -0.00601074 -0.00441605 -0.0030667 -0.00196269 -0.00110401 -0.000490673 -0.000122668 0 0 -3.20427e-05 -0.000128171 -0.000288385 -0.000512684 -0.000801068 -0.00115354 -0.00157009 -0.00205073 -0.00258921 -0.00317925 -0.00382088 -0.00451408 -0.00525885 -0.0060552 -0.00690313 -0.00780263 -0.00869476 -0.00952055 -0.01028 -0.0109731 -0.0115999 -0.0121604 -0.0126546 -0.0130824 -0.0135268 -0.0140709 -0.0147146 -0.015458 -0.0163009 -0.0172435 -0.0182857 -0.0194276 -0.0205231 -0.0214264 -0.0221375 -0.0226564 -0.022983 -0.0231174 -0.0230595 -0.0228095 -0.0224273 -0.021973 -0.0214468 -0.0208485 -0.0201782 -0.0194359 -0.0186216 -0.0177352 -0.0169941 -0.0166155 -0.0165995 -0.016946 -0.0176551 -0.0187267 -0.0201609 -0.0219576 -0.0234526 -0.0239819 -0.0235453 -0.0221429 -0.0197747 -0.0164407 -0.0121409 -0.00687526 -0.000318482 0.00785478 0.0176445 0.0290508 0.0420735 0.0567127 0.0729684 0.0908406 0.108988 0.126068 0.142081 0.157027 0.170906 0.183719 0.195464 0.206143 0.215648 0.223871 0.230814 0.236475 0.240855 0.243953 0.245771 0.246308 0.245573 0.243578 0.240321 0.235804 0.230026 0.222986 0.214686 0.205125 0.194442 0.182775 0.170123 0.156488 0.14187 0.126267 0.10968 0.0921098 0.0748826 0.059326 0.04544 0.0332245 0.0226795 0.0138051 0.00660122 0.00106789 -0.00319808 -0.00659984 -0.0091374 -0.0108108 -0.0116199 -0.0115649 -0.0106456 -0.00886219 -0.