<?xml version="1.0"?> 
<VTKFile type="StructuredGrid" version="0.1"> 
<StructuredGrid WholeExtent="0 128 0 128 0 0"> 
<Piece Extent="0 128 0 128 0 0"> 
<PointData>
<DataArray type="Float32" Name="u" format="ascii" NumberOfComponents="1"> 
0 0 0 0 0 0 0 0 0 0 0 0 0 0 0 0 0 0 0 0 0 0 0 0 0 0 0 0 0 0 0 0 0 0 0 0 0 0 0 0 0 0 0 0 0 0 0 0 0 0 0 0 0 0 0 0 0 0 0 0 0 0 0 0 0 0 0 0 0 0 0 0 0 0 0 0 0 0 0 0 0 0 0 0 0 0 0 0 0 0 0 0 0 0 0 0 0 0 0 0 0 0 0 0 0 0 0 0 0 0 0 0 0 0 0 0 0 0 0 0 0 0 0 0 0 0 0 0 0 0 -1.49335e-08 -5.97342e-08 -1.34402e-07 -2.38937e-07 -3.73339e-07 -5.37608e-07 -7.31744e-07 -9.55747e-07 -1.40027e-06 -2.25598e-06 -3.52287e-06 -5.20094e-06 -7.2902e-06 -9.79063e-06 -1.27022e-05 -1.6025e-05 -1.98109e-05 -2.41118e-05 -2.89277e-05 -3.42586e-05 -4.01045e-05 -4.64654e-05 -5.33412e-05 -6.07321e-05 -6.83334e-05 -7.58406e-05 -8.32536e-05 -9.05725e-05 -9.77972e-05 -0.000104928 -0.000111964 -0.000118906 -0.000125327 -0.000130797 -0.000135318 -0.000138888 -0.000141509 -0.00014318 -0.000143901 -0.000143672 -0.000142614 -0.000140846 -0.000138368 -0.00013518 -0.000131283 -0.000126676 -0.000121359 -0.000115332 -0.000109172 -0.000103454 -9.81788e-05 -9.33456e-05 -8.89547e-05 -8.50062e-05 -8.14999e-05 -7.8436e-05 -7.60082e-05 -7.44106e-05 -7.36432e-05 -7.37058e-05 -7.45985e-05 -7.63214e-05 -7.88744e-05 -8.22575e-05 -8.62442e-05 -9.06079e-05 -9.53486e-05 -0.000100466 -0.000105961 -0.000111833 -0.000118082 -0.000124708 -0.000131517 -0.000138316 -0.000145104 -0.000151882 -0.00015865 -0.000165407 -0.000172154 -0.000178891 -0.000185225 -0.000190762 -0.000195504 -0.000199449 -0.000202599 -0.000204952 -0.00020651 -0.000207272 -0.000207235 -0.000206396 -0.000204756 -0.000202314 -0.00019907 -0.000195025 -0.000190178 -0.000184529 -0.000178403 -0.000172124 -0.000165691 -0.000159106 -0.000152368 -0.000145476 -0.000138432 -0.000131234 -0.000123895 -0.000116427 -0.000108829 -0.000101102 -9.32462e-05 -8.52608e-05 -7.7146e-05 -6.8902e-05 -6.0834e-05 -5.32472e-05 -4.61418e-05 -3.95176e-05 -3.33747e-05 -2.77131e-05 -2.25327e-05 -1.78337e-05 -1.36539e-05 -1.00314e-05 -6.96627e-06 -4.45842e-06 -2.50786e-06 -1.1146e-06 -2.78651e-07 0 0 -5.97342e-08 -2.38937e-07 -5.37608e-07 -9.55747e-07 -1.49335e-06 -2.15043e-06 -2.92697e-06 -3.82299e-06 -5.6011e-06 -9.02393e-06 -1.40915e-05 -2.08038e-05 -2.91608e-05 -3.91625e-05 -5.0809e-05 -6.41002e-05 -7.92437e-05 -9.64472e-05 -0.000115711 -0.000137034 -0.000160418 -0.000185861 -0.000213365 -0.000242929 -0.000273334 -0.000303362 -0.000333014 -0.00036229 -0.000391189 -0.000419711 -0.000447857 -0.000475626 -0.000501307 -0.000523188 -0.00054127 -0.000555553 -0.000566036 -0.00057272 -0.000575604 -0.000574689 -0.000570455 -0.000563382 -0.00055347 -0.00054072 -0.00052513 -0.000506702 -0.000485435 -0.000461329 -0.000436689 -0.000413817 -0.000392715 -0.000373382 -0.000355819 -0.000340025 -0.000326 -0.000313744 -0.000304033 -0.000297643 -0.000294573 -0.000294823 -0.000298394 -0.000305286 -0.000315498 -0.00032903 -0.000344977 -0.000362432 -0.000381394 -0.000401865 -0.000423845 -0.000447332 -0.000472327 -0.000498831 -0.000526067 -0.000553263 -0.000580417 -0.000607529 -0.0006346 -0.00066163 -0.000688618 -0.000715564 -0.000740898 -0.000763048 -0.000782014 -0.000797797 -0.000810395 -0.00081981 -0.00082604 -0.000829087 -0.000828939 -0.000825584 -0.000819022 -0.000809254 -0.00079628 -0.000780098 -0.00076071 -0.000738116 -0.000713611 -0.000688495 -0.000662766 -0.000636425 -0.000609471 -0.000581905 -0.000553726 -0.000524935 -0.00049558 -0.000465707 -0.000435317 -0.000404409 -0.000372985 -0.000341043 -0.000308584 -0.000275608 -0.000243336 -0.000212989 -0.000184567 -0.00015807 -0.000133499 -0.000110852 -9.01309e-05 -7.13346e-05 -5.46156e-05 -4.01257e-05 -2.78651e-05 -1.78337e-05 -1.00314e-05 -4.45842e-06 -1.1146e-06 0 0 -1.34402e-07 -5.37608e-07 -1.20962e-06 -2.15043e-06 -3.36005e-06 -4.83847e-06 -6.58569e-06 -8.60172e-06 -1.26025e-05 -2.03038e-05 -3.17059e-05 -4.68085e-05 -6.56118e-05 -8.81157e-05 -0.00011432 -0.000144225 -0.000178298 -0.000217006 -0.000260349 -0.000308327 -0.00036094 -0.000418188 -0.000480071 -0.000546589 -0.000615001 -0.000682565 -0.000749282 -0.000815152 -0.000880175 -0.00094435 -0.00100768 -0.00107016 -0.00112794 -0.00117717 -0.00121786 -0.00124999 -0.00127358 -0.00128862 -0.00129511 -0.00129305 -0.00128352 -0.00126761 -0.00124531 -0.00121662 -0.00118154 -0.00114008 -0.00109223 -0.00103799 -0.00098255 -0.000931089 -0.000883609 -0.000840111 -0.000800593 -0.000765055 -0.000733499 -0.000705924 -0.000684074 -0.000669696 -0.000662788 -0.000663352 -0.000671387 -0.000686893 -0.00070987 -0.000740317 -0.000776198 -0.000815471 -0.000858137 -0.000904197 -0.00095365 -0.0010065 -0.00106274 -0.00112237 -0.00118365 -0.00124484 -0.00130594 -0.00136694 -0.00142785 -0.00148867 -0.00154939 -0.00161002 -0.00166702 -0.00171686 -0.00175953 -0.00179504 -0.00182339 -0.00184457 -0.00185859 -0.00186545 -0.00186511 -0.00185756 -0.0018428 -0.00182082 -0.00179163 -0.00175522 -0.0017116 -0.00166076 -0.00160563 -0.00154911 -0.00149122 -0.00143196 -0.00137131 -0.00130929 -0.00124588 -0.0011811 -0.00111505 -0.00104784 -0.000979462 -0.000909921 -0.000839216 -0.000767347 -0.000694314 -0.000620118 -0.000547506 -0.000479225 -0.000415276 -0.000355658 -0.000300372 -0.000249417 -0.000202794 -0.000160503 -0.000122885 -9.02829e-05 -6.26965e-05 -4.01257e-05 -2.25707e-05 -1.00314e-05 -2.50786e-06 0 0 -2.38937e-07 -9.55747e-07 -2.15043e-06 -3.82299e-06 -5.97342e-06 -8.60172e-06 -1.17079e-05 -1.52919e-05 -2.24044e-05 -3.60957e-05 -5.6366e-05 -8.32151e-05 -0.000116643 -0.00015665 -0.000203236 -0.000256401 -0.000316975 -0.000385789 -0.000462843 -0.000548137 -0.000641672 -0.000743446 -0.00085346 -0.000971714 -0.00109334 -0.00121345 -0.00133206 -0.00144916 -0.00156475 -0.00167884 -0.00179143 -0.0019025 -0.00200523 -0.00209275 -0.00216508 -0.00222221 -0.00226415 -0.00229088 -0.00230242 -0.00229876 -0.00228182 -0.00225353 -0.00221388 -0.00216288 -0.00210052 -0.00202681 -0.00194174 -0.00184532 -0.00174675 -0.00165527 -0.00157086 -0.00149353 -0.00142328 -0.0013601 -0.001304 -0.00125498 -0.00121613 -0.00119057 -0.00117829 -0.00117929 -0.00119358 -0.00122114 -0.00126199 -0.00131612 -0.00137991 -0.00144973 -0.00152558 -0.00160746 -0.00169538 -0.00178933 -0.00188931 -0.00199532 -0.00210427 -0.00221305 -0.00232167 -0.00243012 -0.0025384 -0.00264652 -0.00275447 -0.00286226 -0.00296359 -0.00305219 -0.00312806 -0.00319119 -0.00324158 -0.00327924 -0.00330416 -0.00331635 -0.00331576 -0.00330234 -0.00327609 -0.00323702 -0.00318512 -0.00312039 -0.00304284 -0.00295246 -0.00285445 -0.00275398 -0.00265106 -0.0025457 -0.00243788 -0.00232762 -0.00221491 -0.00209974 -0.00198232 -0.00186283 -0.00174127 -0.00161764 -0.00149194 -0.00136417 -0.00123434 -0.00110243 -0.000973344 -0.000851956 -0.000738268 -0.000632281 -0.000533995 -0.000443409 -0.000360523 -0.000285339 -0.000218462 -0.000160503 -0.00011146 -7.13346e-05 -4.01257e-05 -1.78337e-05 -4.45842e-06 0 0 -3.73339e-07 -1.49335e-06 -3.36005e-06 -5.97342e-06 -9.33346e-06 -1.34402e-05 -1.82936e-05 -2.38937e-05 -3.50069e-05 -5.63996e-05 -8.80718e-05 -0.000130024 -0.000182255 -0.000244766 -0.000317556 -0.000400626 -0.000495273 -0.000602795 -0.000723192 -0.000856465 -0.00100261 -0.00116163 -0.00133353 -0.0015183 -0.00170834 -0.00189602 -0.00208134 -0.00226431 -0.00244493 -0.00262319 -0.0027991 -0.00297266 -0.00313317 -0.00326993 -0.00338294 -0.00347221 -0.00353773 -0.0035795 -0.00359753 -0.00359181 -0.00356535 -0.00352114 -0.00345919 -0.0033795 -0.00328207 -0.00316689 -0.00303397 -0.00288331 -0.0027293 -0.00258636 -0.00245447 -0.00233364 -0.00222387 -0.00212515 -0.0020375 -0.0019609 -0.00190021 -0.00186027 -0.00184108 -0.00184264 -0.00186496 -0.00190804 -0.00197186 -0.00205644 -0.0021561 -0.0022652 -0.00238372 -0.00251166 -0.00264903 -0.00279582 -0.00295205 -0.00311769 -0.00328792 -0.00345789 -0.0036276 -0.00379706 -0.00396625 -0.00413518 -0.00430386 -0.00447228 -0.00463061 -0.00476905 -0.00488759 -0.00498623 -0.00506497 -0.00512381 -0.00516275 -0.0051818 -0.00518087 -0.0051599 -0.00511889 -0.00505784 -0.00497675 -0.00487561 -0.00475444 -0.00461322 -0.00446007 -0.00430309 -0.00414229 -0.00397765 -0.00380919 -0.0036369 -0.00346079 -0.00328085 -0.00309737 -0.00291067 -0.00272073 -0.00252756 -0.00233115 -0.00213152 -0.00192865 -0.00172255 -0.00152085 -0.00133118 -0.00115354 -0.000987939 -0.000834367 -0.000692826 -0.000563318 -0.000445842 -0.000341347 -0.000250786 -0.000174157 -0.00011146 -6.26965e-05 -2.78651e-05 -6.96627e-06 0 0 -5.37608e-07 -2.15043e-06 -4.83847e-06 -8.60172e-06 -1.34402e-05 -1.93539e-05 -2.63428e-05 -3.44069e-05 -5.04099e-05 -8.12154e-05 -0.000126823 -0.000187234 -0.000262447 -0.000352463 -0.000457281 -0.000576901 -0.000713193 -0.000868025 -0.0010414 -0.00123331 -0.00144376 -0.00167275 -0.00192028 -0.00218636 -0.00246 -0.00273026 -0.00299713 -0.00326061 -0.0035207 -0.0037774 -0.00403071 -0.00428063 -0.00451176 -0.00470869 -0.00487143 -0.00499998 -0.00509433 -0.00515448 -0.00518044 -0.0051722 -0.0051341 -0.00507044 -0.00498123 -0.00486648 -0.00472617 -0.00456032 -0.00436892 -0.00415196 -0.0039302 -0.00372436 -0.00353444 -0.00336044 -0.00320237 -0.00306022 -0.002934 -0.00282369 -0.0027363 -0.00267878 -0.00265115 -0.00265341 -0.00268555 -0.00274757 -0.00283948 -0.00296127 -0.00310479 -0.00326188 -0.00343255 -0.00361679 -0.0038146 -0.00402599 -0.00425095 -0.00448948 -0.00473461 -0.00497937 -0.00522375 -0.00546776 -0.0057114 -0.00595467 -0.00619756 -0.00644008 -0.00666808 -0.00686743 -0.00703813 -0.00718017 -0.00729356 -0.00737829 -0.00743436 -0.00746179 -0.00746045 -0.00743026 -0.0073712 -0.00728329 -0.00716652 -0.00702088 -0.00684639 -0.00664304 -0.0064225 -0.00619645 -0.00596489 -0.00572782 -0.00548524 -0.00523714 -0.00498354 -0.00472442 -0.00446022 -0.00419136 -0.00391785 -0.00363968 -0.00335686 -0.00306939 -0.00277726 -0.00248047 -0.00219002 -0.0019169 -0.0016611 -0.00142263 -0.00120149 -0.00099767 -0.000811178 -0.000642012 -0.00049154 -0.000361132 -0.000250786 -0.000160503 -9.02829e-05 -4.01257e-05 -1.00314e-05 0 0 -7.31744e-07 -2.92697e-06 -6.58569e-06 -1.17079e-05 -1.82936e-05 -2.63428e-05 -3.58554e-05 -4.68316e-05 -6.86134e-05 -0.000110543 -0.000172621 -0.000254846 -0.00035722 -0.000479741 -0.00062241 -0.000785227 -0.000970735 -0.00118148 -0.00141746 -0.00167867 -0.00196512 -0.0022768 -0.00261372 -0.00297587 -0.00334834 -0.00371619 -0.00407943 -0.00443805 -0.00479206 -0.00514146 -0.00548624 -0.00582641 -0.00614101 -0.00640906 -0.00663056 -0.00680552 -0.00693394 -0.00701582 -0.00705115 -0.00703995 -0.00698808 -0.00690143 -0.00678001 -0.00662382 -0.00643285 -0.0062071 -0.00594658 -0.00565128 -0.00534944 -0.00506926 -0.00481076 -0.00457394 -0.00435878 -0.0041653 -0.0039935 -0.00384336 -0.0037244 -0.00364612 -0.00360851 -0.00361158 -0.00365533 -0.00373975 -0.00386485 -0.00403062 -0.00422596 -0.00443979 -0.00467208 -0.00492285 -0.0051921 -0.00547982 -0.00578601 -0.00611068 -0.00644433 -0.00677747 -0.0071101 -0.00744223 -0.00777385 -0.00810496 -0.00843556 -0.00876566 -0.009076 -0.00934734 -0.00957967 -0.00977301 -0.00992734 -0.0100427 -0.010119 -0.0101563 -0.0101545 -0.0101134 -0.010033 -0.00991337 -0.00975442 -0.0095562 -0.0093187 -0.00904192 -0.00874174 -0.00843406 -0.00811888 -0.0077962 -0.00746602 -0.00712833 -0.00678315 -0.00643046 -0.00607085 -0.00570491 -0.00533263 -0.00495401 -0.00456906 -0.00417778 -0.00378016 -0.0033762 -0.00298086 -0.00260911 -0.00226095 -0.00193636 -0.00163536 -0.00135794 -0.0011041 -0.000873849 -0.000669041 -0.00049154 -0.000341347 -0.000218462 -0.000122885 -5.46156e-05 -1.36539e-05 0 0 -9.55747e-07 -3.82299e-06 -8.60172e-06 -1.52919e-05 -2.38937e-05 -3.44069e-05 -4.68316e-05 -6.11678e-05 -8.96175e-05 -0.000144383 -0.000225464 -0.00033286 -0.000466573 -0.0006266 -0.000812944 -0.0010256 -0.0012679 -0.00154316 -0.00185137 -0.00219255 -0.00256669 -0.00297378 -0.00341384 -0.00388686 -0.00437334 -0.0048538 -0.00532823 -0.00579664 -0.00625902 -0.00671538 -0.00716571 -0.00761001 -0.00802091 -0.00837101 -0.00866032 -0.00888885 -0.00905658 -0.00916352 -0.00920967 -0.00919503 -0.00912728 -0.00901412 -0.00885553 -0.00865152 -0.00840209 -0.00810724 -0.00776696 -0.00738127 -0.00698702 -0.00662108 -0.00628344 -0.00597412 -0.0056931 -0.00544039 -0.00521599 -0.0050199 -0.00486453 -0.00476228 -0.00471316 -0.00471717 -0.00477431 -0.00488457 -0.00504796 -0.00526448 -0.00551963 -0.0057989 -0.00610231 -0.00642985 -0.00678151 -0.00715731 -0.00755724 -0.00798129 -0.00841708 -0.00885221 -0.00928667 -0.00972047 -0.0101536 -0.0105861 -0.0110179 -0.011449 -0.0118544 -0.0122088 -0.0125122 -0.0127647 -0.0129663 -0.013117 -0.0132166 -0.0132654 -0.013263 -0.0132093 -0.0131044 -0.0129481 -0.0127405 -0.0124816 -0.0121714 -0.0118098 -0.0114178 -0.0110159 -0.0106043 -0.0101828 -0.00975153 -0.00931048 -0.00885962 -0.00839897 -0.00792927 -0.00745131 -0.00696506 -0.00647055 -0.00596776 -0.00545669 -0.00493735 -0.00440973 -0.00389337 -0.00340782 -0.00295307 -0.00252912 -0.00213598 -0.00177364 -0.00144209 -0.00114135 -0.000873849 -0.000642012 -0.000445842 -0.000285339 -0.000160503 -7.13346e-05 -1.78337e-05 0 0 -1.45644e-06 -5.82575e-06 -1.31079e-05 -2.3303e-05 -3.6411e-05 -5.24318e-05 -7.13655e-05 -9.3212e-05 -0.000132949 -0.000205554 -0.000311028 -0.000449369 -0.000620579 -0.000824657 -0.0010616 -0.00133142 -0.00163791 -0.00198489 -0.00237236 -0.00280031 -0.00326875 -0.00377768 -0.0043271 -0.004917 -0.0055233 -0.00612189 -0.00671279 -0.00729599 -0.00787149 -0.0084393 -0.0089994 -0.0095518 -0.0100625 -0.0104975 -0.0108567 -0.0111402 -0.011348 -0.01148 -0.0115364 -0.011517 -0.0114318 -0.0112906 -0.0110935 -0.0108404 -0.0105314 -0.0101665 -0.00974561 -0.00926879 -0.00878163 -0.00832971 -0.00791304 -0.00753161 -0.00718543 -0.0068745 -0.00659881 -0.00635837 -0.00616604 -0.00603471 -0.00596438 -0.00595504 -0.00600669 -0.00611933 -0.00629297 -0.00652761 -0.00680269 -0.00709768 -0.00741258 -0.0077474 -0.00810212 -0.00847675 -0.00887129 -0.00928573 -0.00970914 -0.0101305 -0.01055 -0.0109674 -0.0113828 -0.0117962 -0.0122076 -0.012617 -0.0130018 -0.0133393 -0.0136295 -0.0138724 -0.014068 -0.0142163 -0.0143173 -0.014371 -0.0143769 -0.0143346 -0.0142441 -0.0141054 -0.0139185 -0.0136833 -0.0133999 -0.0130683 -0.0127057 -0.0123293 -0.0119391 -0.0115352 -0.0111175 -0.010686 -0.0102407 -0.00978166 -0.00930546 -0.00880871 -0.00829141 -0.00775355 -0.00719515 -0.00661619 -0.00601669 -0.00539663 -0.00478323 -0.00420369 -0.00365802 -0.00314621 -0.00266827 -0.0022242 -0.00181399 -0.00143765 -0.0011007 -0.000808676 -0.00056158 -0.000359411 -0.000202169 -8.98529e-05 -2.24632e-05 0 0 -2.48064e-06 -9.92256e-06 -2.23258e-05 -3.96902e-05 -6.2016e-05 -8.9303e-05 -0.000121551 -0.000158761 -0.000218135 -0.000316877 -0.000454988 -0.000632466 -0.000849313 -0.00110553 -0.00140111 -0.00173606 -0.00211399 -0.00253851 -0.00300962 -0.00352731 -0.0040916 -0.00470248 -0.00535994 -0.006064 -0.00678649 -0.00749928 -0.00820237 -0.00889574 -0.00957941 -0.0102534 -0.0109176 -0.0115722 -0.0121768 -0.0126913 -0.0131156 -0.0134499 -0.0136939 -0.0138479 -0.0139117 -0.0138853 -0.0137815 -0.0136129 -0.0133795 -0.0130813 -0.0127184 -0.0122906 -0.0117981 -0.0112407 -0.0106719 -0.0101451 -0.00966009 -0.00921703 -0.00881586 -0.00845661 -0.00813925 -0.00786381 -0.00763832 -0.00747087 -0.00736145 -0.00731005 -0.00731668 -0.00738134 -0.00750403 -0.00768474 -0.00789206 -0.00809456 -0.00829225 -0.00848512 -0.00867317 -0.0088564 -0.00903482 -0.00920842 -0.00937677 -0.00953946 -0.00969648 -0.00984783 -0.0099935 -0.0101335 -0.0102679 -0.0103965 -0.0105169 -0.0106264 -0.0107251 -0.0108128 -0.0108897 -0.0109557 -0.0110108 -0.011055 -0.0110871 -0.0111059 -0.0111113 -0.0111034 -0.0110823 -0.0110477 -0.0109999 -0.0109387 -0.0108604 -0.0107614 -0.0106416 -0.0105009 -0.0103394 -0.0101572 -0.00995414 -0.00973028 -0.0094694 -0.00915527 -0.00878791 -0.0083673 -0.00789345 -0.00736636 -0.00678603 -0.00615246 -0.00550609 -0.00488738 -0.00429632 -0.00373292 -0.00319717 -0.00268907 -0.00220863 -0.00175584 -0.00134432 -0.000987662 -0.000685876 -0.000438961 -0.000246915 -0.00010974 -2.7435e-05 0 0 -4.02835e-06 -1.61134e-05 -3.62551e-05 -6.44536e-05 -0.000100709 -0.000145021 -0.000197389 -0.000257814 -0.000345176 -0.000478352 -0.000657344 -0.000882151 -0.00115277 -0.00146921 -0.00183146 -0.00223953 -0.00269614 -0.00320402 -0.00376316 -0.00437356 -0.00503524 -0.00574818 -0.00651238 -0.00732785 -0.00816293 -0.00898597 -0.00979695 -0.0105959 -0.0113828 -0.0121576 -0.0129204 -0.0136711 -0.0143638 -0.0149525 -0.0154372 -0.0158178 -0.0160944 -0.016267 -0.0163355 -0.0163 -0.0161766 -0.0159811 -0.0157137 -0.0153743 -0.014963 -0.0144796 -0.0139243 -0.0132971 -0.012658 -0.0120671 -0.0115246 -0.0110304 -0.0105844 -0.0101867 -0.00983733 -0.00953622 -0.00928137 -0.00907075 -0.00890437 -0.00878221 -0.00870428 -0.00867059 -0.00868112 -0.00873589 -0.00878774 -0.00878955 -0.00874131 -0.00864301 -0.00849467 -0.00829628 -0.00804783 -0.00774934 -0.00741998 -0.00707895 -0.00672624 -0.00636185 -0.00598578 -0.00559804 -0.00519862 -0.00478752 -0.00439973 -0.00407024 -0.00379903 -0.00358612 -0.00343151 -0.00333518 -0.00329715 -0.00331742 -0.00339352 -0.00352301 -0.00370589 -0.00394215 -0.0042318 -0.00457483 -0.00497125 -0.00542106 -0.00588211 -0.00631229 -0.00671158 -0.00707999 -0.00741752 -0.00772416 -0.00799993 -0.00824481 -0.00842107 -0.00849099 -0.00845456 -0.00831179 -0.00806267 -0.0077072 -0.00724539 -0.00667723 -0.00606198 -0.0054589 -0.00486798 -0.00428924 -0.00372266 -0.00316826 -0.00262602 -0.00209595 -0.00160471 -0.00117897 -0.000818729 -0.000523987 -0.000294742 -0.000130997 -3.27492e-05 0 0 -6.09957e-06 -2.43983e-05 -5.48961e-05 -9.75931e-05 -0.000152489 -0.000219584 -0.000298879 -0.000390372 -0.00051407 -0.000689978 -0.000918096 -0.00119842 -0.00153096 -0.00191571 -0.00235267 -0.00284183 -0.00338436 -0.00398141 -0.00463298 -0.00533906 -0.00609966 -0.00691478 -0.00778441 -0.00870857 -0.00965262 -0.0105819 -0.0114965 -0.0123964 -0.0132816 -0.014152 -0.0150077 -0.0158487 -0.0166236 -0.0172811 -0.0178213 -0.018244 -0.0185494 -0.0187373 -0.0188079 -0.0187611 -0.0186169 -0.0183952 -0.018096 -0.0177193 -0.0172652 -0.0167335 -0.0161244 -0.0154378 -0.0147397 -0.014096 -0.0135066 -0.0129716 -0.012491 -0.0120648 -0.011693 -0.0113756 -0.0110952 -0.0108344 -0.0105931 -0.0103715 -0.0101695 -0.00998708 -0.00982426 -0.00968104 -0.00948974 -0.00918264 -0.00875976 -0.00822108 -0.00756662 -0.00679637 -0.00591033 -0.00490851 -0.00383877 -0.00274902 -0.00163924 -0.000509439 0.000640384 0.00181023 0.0030001 0.00420999 0.00534977 0.00632932 0.00714864 0.00780772 0.00830657 0.00864518 0.00882356 0.0088417 0.00870377 0.00841392 0.00797216 0.00737848 0.00663289 0.00573538 0.00468596 0.00348462 0.00222934 0.00101806 -0.000149192 -0.00127243 -0.00235166 -0.00338687 -0.00437807 -0.00532525 -0.00616049 -0.00681587 -0.00729138 -0.00758702 -0.0077028 -0.00763871 -0.00739475 -0.00697093 -0.00645088 -0.00591824 -0.005373 -0.00481518 -0.00424476 -0.00366175 -0.00306615 -0.00245796 -0.00188187 -0.0013826 -0.000960139 -0.000614489 -0.00034565 -0.000153622 -3.84056e-05 0 0 -8.6943e-06 -3.47772e-05 -7.82487e-05 -0.000139109 -0.000217357 -0.000312995 -0.000426021 -0.000556435 -0.00072482 -0.000951756 -0.00123724 -0.00158128 -0.00198388 -0.00244502 -0.00296471 -0.00354296 -0.00417866 -0.00487069 -0.00561908 -0.0064238 -0.00728487 -0.00820228 -0.00917604 -0.0102061 -0.0112555 -0.0122872 -0.0133011 -0.0142973 -0.0152758 -0.0162365 -0.0171795 -0.0181048 -0.0189561 -0.0196771 -0.0202679 -0.0207285 -0.0210589 -0.021259 -0.0213289 -0.0212686 -0.0211025 -0.0208551 -0.0205264 -0.0201163 -0.019625 -0.0190523 -0.0183983 -0.017663 -0.0169171 -0.0162315 -0.015606 -0.0150408 -0.0145358 -0.014091 -0.0137064 -0.013382 -0.0130798 -0.0127617 -0.0124278 -0.012078 -0.0117123 -0.0113308 -0.0109334 -0.0105202 -0.00999804 -0.00927383 -0.0083476 -0.00721932 -0.00588902 -0.00435668 -0.00262231 -0.000685909 0.00136686 0.00345034 0.00556452 0.00770941 0.009885 0.0120913 0.0143283 0.016596 0.0187316 0.0205722 0.0221179 0.0233687 0.0243245 0.0249854 0.0253514 0.0254224 0.0252048 0.0247049 0.0239228 0.0228584 0.0215118 0.0198829 0.0179718 0.0157783 0.0134739 0.0112297 0.00904561 0.00692177 0.00485812 0.00285468 0.000911435 -0.00097161 -0.00268765 -0.0041299 -0.00529834 -0.00619299 -0.00681383 -0.00716088 -0.00723412 -0.00703356 -0.0066728 -0.0062654 -0.00581138 -0.00531073 -0.00476345 -0.00416955 -0.00352902 -0.00284187 -0.00217581 -0.00159855 -0.00111011 -0.000710468 -0.000399638 -0.000177617 -4.44042e-05 0 0 -1.18125e-05 -4.72501e-05 -0.000106313 -0.000189001 -0.000295313 -0.000425251 -0.000578814 -0.000756002 -0.000977423 -0.00126369 -0.00161479 -0.00203073 -0.00251152 -0.00305714 -0.00366761 -0.00434292 -0.00507902 -0.00587186 -0.00672145 -0.00762779 -0.00859086 -0.00961069 -0.0106873 -0.0118206 -0.0129717 -0.0141018 -0.0152108 -0.0162987 -0.0173655 -0.0184112 -0.0194359 -0.0204395 -0.0213613 -0.0221405 -0.0227772 -0.0232713 -0.0236229 -0.023832 -0.0238985 -0.0238225 -0.0236334 -0.0233609 -0.0230049 -0.0225654 -0.0220424 -0.021436 -0.020746 -0.0199726 -0.0191903 -0.0184737 -0.017823 -0.0172379 -0.0167186 -0.0162651 -0.0158773 -0.0155553 -0.0152351 -0.0148527 -0.0144082 -0.0139016 -0.0133327 -0.0127018 -0.0120087 -0.0112534 -0.0103127 -0.00906313 -0.00750483 -0.00563774 -0.00346187 -0.000977214 0.00181622 0.00491845 0.00819692 0.0115191 0.014885 0.0182947 0.0217481 0.0252452 0.028786 0.0323705 0.0357457 0.0386585 0.0411089 0.0430969 0.0446224 0.0456856 0.0462863 0.0464246 0.0461095 0.04535 0.0441461 0.0424977 0.0404049 0.0378677 0.0348861 0.0314601 0.0278516 0.0243225 0.0208728 0.0175026 0.0142118 0.0110005 0.00786859 0.00481612 0.00199744 -0.000433088 -0.00247547 -0.0041297 -0.00539578 -0.00627371 -0.0067635 -0.00686513 -0.00672773 -0.00650039 -0.00618311 -0.0057759 -0.00527875 -0.00469167 -0.00401465 -0.00324769 -0.00248651 -0.00182683 -0.00126863 -0.000811923 -0.000456707 -0.000202981 -5.07452e-05 0 0 -1.54543e-05 -6.18171e-05 -0.000139089 -0.000247269 -0.000386357 -0.000556354 -0.00075726 -0.000989074 -0.00127188 -0.00162577 -0.00205073 -0.00254677 -0.00311389 -0.00375208 -0.00446135 -0.0052417 -0.00608545 -0.00698492 -0.00794011 -0.00895102 -0.0100176 -0.01114 -0.0123181 -0.0135518 -0.0148011 -0.0160256 -0.0172254 -0.0184004 -0.0195506 -0.0206761 -0.0217768 -0.0228528 -0.0238392 -0.0246713 -0.025349 -0.0258724 -0.0262415 -0.0264562 -0.0265167 -0.0264227 -0.0262096 -0.0259126 -0.0255315 -0.0250665 -0.0245175 -0.0238845 -0.0231675 -0.0223666 -0.0215591 -0.0208227 -0.0201573 -0.0195629 -0.0190396 -0.0185873 -0.0182059 -0.0178956 -0.0175612 -0.0171075 -0.0165346 -0.0158423 -0.0150308 -0.0141 -0.0130499 -0.0118806 -0.0104336 -0.00855053 -0.00623145 -0.00347633 -0.000285166 0.00334204 0.00740528 0.0119046 0.0166514 0.0214573 0.0263223 0.0312464 0.0362296 0.0412718 0.0463731 0.0515336 0.0563922 0.0605881 0.0641215 0.0669922 0.0692002 0.0707456 0.0716283 0.0718484 0.071418 0.0703492 0.0686419 0.0662963 0.0633123 0.0596899 0.0554291 0.0505299 0.0453624 0.0402965 0.0353325 0.0304701 0.0257095 0.0210506 0.0164934 0.0120379 0.00789479 0.00427457 0.00117725 -0.00139715 -0.00344864 -0.00497722 -0.00598288 -0.00646564 -0.00661568 -0.0066232 -0.0064882 -0.00621068 -0.00579064 -0.00522809 -0.00452301 -0.00367542 -0.00281399 -0.00206742 -0.00143571 -0.000918854 -0.000516856 -0.000229714 -5.74284e-05 0 0 -1.96195e-05 -7.84782e-05 -0.000176576 -0.000313913 -0.000490489 -0.000706303 -0.000961358 -0.00125565 -0.00160819 -0.002038 -0.00254507 -0.00312939 -0.00379098 -0.00452983 -0.00534594 -0.00623932 -0.00719796 -0.00820987 -0.00927504 -0.0103935 -0.0115652 -0.0127902 -0.0140685 -0.0154 -0.0167438 -0.0180588 -0.019345 -0.0206025 -0.0218312 -0.0230311 -0.0242022 -0.0253446 -0.0263898 -0.0272694 -0.0279834 -0.0285318 -0.0289146 -0.0291318 -0.0291834 -0.0290694 -0.0288311 -0.0285101 -0.0281063 -0.0276196 -0.0270502 -0.0263979 -0.0256629 -0.024845 -0.0240237 -0.0232784 -0.0226092 -0.0220159 -0.0214986 -0.0210574 -0.0206922 -0.0204029 -0.0200581 -0.019526 -0.0188067 -0.0179002 -0.0168064 -0.0155255 -0.0140572 -0.0124018 -0.0103608 -0.00773604 -0.00452747 -0.000735091 0.00364109 0.00860107 0.0141449 0.0202724 0.0267303 0.033265 0.0398764 0.0465646 0.0533295 0.0601713 0.0670898 0.0740851 0.0806709 0.0863611 0.0911557 0.0950546 0.0980579 0.100165 0.101377 0.101694 0.10113 0.0997024 0.0974104 0.0942543 0.0902339 0.0853494 0.0796006 0.0729877 0.0660063 0.0591519 0.0524245 0.0458242 0.039351 0.0330049 0.0267858 0.0206938 0.0150044 0.00999306 0.00565982 0.00200466 -0.000972407 -0.00327139 -0.00489228 -0.00583508 -0.00633664 -0.00663383 -0.00672665 -0.00661508 -0.00629914 -0.00577882 -0.00505412 -0.00412505 -0.00315824 -0.00232034 -0.00161135 -0.00103126 -0.000580085 -0.000257816 -6.44539e-05 0 0 -2.41797e-05 -9.67188e-05 -0.000217617 -0.000386875 -0.000604493 -0.000870469 -0.00118481 -0.0015475 -0.00197367 -0.00247841 -0.00306174 -0.00372365 -0.00446413 -0.0052832 -0.00618085 -0.00715708 -0.0081924 -0.00926732 -0.0103818 -0.011536 -0.0127297 -0.013963 -0.0152359 -0.0165485 -0.0178634 -0.0191437 -0.0203892 -0.0216 -0.0227761 -0.0239175 -0.0250241 -0.026096 -0.0270708 -0.0278859 -0.0285415 -0.0290374 -0.0293736 -0.0295503 -0.0295673 -0.0294247 -0.0291708 -0.028854 -0.0284741 -0.0280313 -0.0275256 -0.0269568 -0.0263251 -0.0256304 -0.024943 -0.0243329 -0.0238002 -0.0233449 -0.022967 -0.0226664 -0.0224433 -0.0222976 -0.0220504 -0.021523 -0.0207154 -0.0196275 -0.0182594 -0.0166111 -0.0146825 -0.0124737 -0.00974389 -0.00625229 -0.0019989 0.00301628 0.00879325 0.015332 0.0226326 0.0306949 0.0391791 0.0477451 0.0563929 0.0651226 0.0739342 0.0828276 0.0918028 0.10086 0.10938 0.116744 0.122951 0.128002 0.131897 0.134636 0.136219 0.136645 0.135936 0.13411 0.131167 0.127109 0.121934 0.115643 0.108236 0.0997125 0.0907006 0.0818278 0.0730941 0.0644995 0.0560441 0.0477279 0.0395508 0.0315128 0.0239736 0.0172931 0.0114711 0.00650767 0.00240283 -0.000843439 -0.00323114 -0.00476026 -0.0057198 -0.00639874 -0.00679708 -0.00691482 -0.00675197 -0.00630851 -0.00558446 -0.00457981 -0.00350641 -0.00257614 -0.00178899 -0.00114495 -0.000644035 -0.000286238 -7.15595e-05 0 0 -2.90062e-05 -0.000116025 -0.000261056 -0.000464099 -0.000725154 -0.00104422 -0.0014213 -0.00185639 -0.00235561 -0.00292504 -0.00356469 -0.00427457 -0.00505468 -0.005905 -0.00682555 -0.00781632 -0.00884466 -0.00987792 -0.0109161 -0.0119592 -0.0130072 -0.0140601 -0.015118 -0.0161807 -0.0172239 -0.0182228 -0.0191775 -0.020088 -0.0209543 -0.0217764 -0.0225543 -0.023288 -0.0239398 -0.0244718 -0.0248842 -0.025177 -0.02535 -0.0254034 -0.0253371 -0.0251512 -0.0249016 -0.0246446 -0.0243801 -0.0241082 -0.0238287 -0.0235418 -0.0232475 -0.0229456 -0.0226759 -0.0224781 -0.0223521 -0.022298 -0.0223157 -0.0224052 -0.0225666 -0.0227998 -0.0228627 -0.0225131 -0.021751 -0.0205764 -0.0189893 -0.0169897 -0.0145776 -0.011753 -0.00823234 -0.00373192 0.00174822 0.00820809 0.0156477 0.024067 0.033466 0.0438448 0.054743 0.0657007 0.0767177 0.087794 0.0989297 0.110125 0.121379 0.132693 0.143317 0.152502 0.160247 0.166554 0.171421 0.174849 0.176838 0.177388 0.176523 0.17427 0.170628 0.165597 0.159177 0.151368 0.14217 0.131583 0.120363 0.109264 0.0982863 0.0874306 0.0766964 0.0660839 0.055593 0.0452237 0.0354499 0.0267453 0.0191099 0.0125438 0.00704699 0.00261941 -0.000738927 -0.00302801 -0.00459432 -0.00578436 -0.00659813 -0.00703563 -0.00709686 -0.00678181 -0.0060905 -0.00502291 -0.00384566 -0.00282538 -0.00196207 -0.00125573 -0.000706346 -0.000313932 -7.84829e-05 0 0 -3.40989e-05 -0.000136396 -0.00030689 -0.000545583 -0.000852473 -0.00122756 -0.00167085 -0.00218233 -0.00275401 -0.00337787 -0.00405393 -0.00478217 -0.0055626 -0.00639522 -0.00728003 -0.00821703 -0.00915473 -0.0100417 -0.0108778 -0.0116632 -0.0123977 -0.0130816 -0.0137146 -0.0142968 -0.0148251 -0.0152961 -0.0157099 -0.0160665 -0.0163658 -0.0166079 -0.0167928 -0.0169205 -0.0169967 -0.0170271 -0.0170118 -0.0169507 -0.0168438 -0.0166912 -0.0164928 -0.0162487 -0.0160235 -0.0158821 -0.0158243 -0.0158501 -0.0159597 -0.0161529 -0.0164299 -0.0167905 -0.0172226 -0.0177141 -0.018265 -0.0188752 -0.0195448 -0.0202737 -0.0210621 -0.0219097 -0.0224951 -0.0224964 -0.0219137 -0.020747 -0.0189962 -0.0166615 -0.0137427 -0.0102398 -0.00582617 -0.000174933 0.0067139 0.0148403 0.0242044 0.034806 0.0466452 0.059722 0.0734223 0.0871318 0.100851 0.114579 0.128316 0.142063 0.155819 0.169584 0.182482 0.193635 0.203044 0.210708 0.216628 0.220804 0.223234 0.223921 0.222894 0.220185 0.215793 0.209719 0.201963 0.192524 0.181403 0.1686 0.154992 0.141459 0.128001 0.114617 0.101308 0.088073 0.0749126 0.0618267 0.0494331 0.0383497 0.0285763 0.0201131 0.0129601 0.00711715 0.00258435 -0.00063831 -0.00296021 -0.00479071 -0.00612981 -0.00697751 -0.00733382 -0.00719872 -0.00657223 -0.00545435 -0.00417598 -0.00306807 -0.0021306 -0.00136359 -0.000767018 -0.000340897 -8.52242e-05 0 0 -3.9458e-05 -0.000157832 -0.000355122 -0.000631328 -0.00098645 -0.00142049 -0.00193344 -0.00252531 -0.00316888 -0.00383692 -0.00452944 -0.00524644 -0.00598792 -0.00675387 -0.0075443 -0.00835921 -0.00912261 -0.00975852 -0.0102669 -0.0106479 -0.0109013 -0.0110273 -0.0110257 -0.0108967 -0.0106671 -0.0103636 -0.00998641 -0.0095354 -0.00901061 -0.00841203 -0.00773967 -0.00699353 -0.00624156 -0.00555171 -0.00492399 -0.0043584 -0.00385494 -0.0034136 -0.00303439 -0.00271731 -0.00253654 -0.00256627 -0.00280649 -0.00325721 -0.00391843 -0.00479014 -0.00587236 -0.00716507 -0.008583 -0.0100409 -0.0115387 -0.0130765 -0.0146543 -0.016272 -0.0179297 -0.0196273 -0.0209475 -0.0214729 -0.0212035 -0.0201392 -0.0182801 -0.0156263 -0.0121775 -0.00793402 -0.00252538 0.00441867 0.0128981 0.022913 0.0344633 0.047549 0.0621702 0.0783267 0.0952168 0.112039 0.128792 0.145477 0.162094 0.178642 0.195122 0.211534 0.226875 0.240144 0.251341 0.260466 0.267519 0.2725 0.275409 0.276245 0.275047 0.271853 0.266662 0.259475 0.250291 0.239111 0.225935 0.210762 0.19459 0.178415 0.162239 0.14606 0.129879 0.113695 0.0975095 0.0813217 0.0659234 0.0521062 0.0398703 0.0292156 0.0201421 0.0126498 0.0067387 0.00240883 -0.000817458 -0.00341777 -0