<?xml version="1.0"?> 
<VTKFile type="StructuredGrid" version="0.1"> 
<StructuredGrid WholeExtent="0 128 0 128 0 0"> 
<Piece Extent="0 128 0 128 0 0"> 
<PointData>
<DataArray type="Float32" Name="u" format="ascii" NumberOfComponents="1"> 
0 0 0 0 0 0 0 0 0 0 0 0 0 0 0 0 0 0 0 0 0 0 0 0 0 0 0 0 0 0 0 0 0 0 0 0 0 0 0 0 0 0 0 0 0 0 0 0 0 0 0 0 0 0 0 0 0 0 0 0 0 0 0 0 0 0 0 0 0 0 0 0 0 0 0 0 0 0 0 0 0 0 0 0 0 0 0 0 0 0 0 0 0 0 0 0 0 0 0 0 0 0 0 0 0 0 0 0 0 0 0 0 0 0 0 0 0 0 0 0 0 0 0 0 0 0 0 0 0 0 -4.88712e-08 -1.95485e-07 -4.39841e-07 -7.8194e-07 -1.22178e-06 -1.75936e-06 -2.39469e-06 -3.12776e-06 -3.67228e-06 -3.74194e-06 -3.33676e-06 -2.45673e-06 -1.10185e-06 7.27883e-07 3.03246e-06 5.81189e-06 9.2883e-06 1.36838e-05 1.89985e-05 2.52323e-05 3.23852e-05 4.04572e-05 4.94484e-05 5.93587e-05 6.92933e-05 7.83575e-05 8.65513e-05 9.38747e-05 0.000100328 0.00010591 0.000110622 0.000114464 0.000117671 0.00012048 0.00012289 0.000124901 0.000126514 0.000127728 0.000128543 0.00012896 0.000128896 0.000128267 0.000127074 0.000125318 0.000122997 0.000120112 0.000116663 0.00011265 0.000108166 0.000103305 9.8066e-05 9.24498e-05 8.6456e-05 8.00849e-05 7.33362e-05 6.62101e-05 5.87513e-05 5.10048e-05 4.29706e-05 3.46487e-05 2.6039e-05 1.71416e-05 7.95643e-06 -1.51645e-06 -1.26638e-05 -2.68724e-05 -4.41423e-05 -6.44734e-05 -8.78658e-05 -0.000114319 -0.000143834 -0.00017641 -0.000208898 -0.000238149 -0.000264162 -0.000286938 -0.000306477 -0.000322778 -0.000335842 -0.000345669 -0.000353363 -0.000360031 -0.000365671 -0.000370285 -0.000373872 -0.000376432 -0.000377965 -0.000378471 -0.000377957 -0.000376431 -0.000373892 -0.00037034 -0.000365776 -0.0003602 -0.000353611 -0.00034601 -0.000336233 -0.000323119 -0.000306667 -0.000286877 -0.000263749 -0.000237283 -0.00020748 -0.000174339 -0.00014126 -0.000111641 -8.54843e-05 -6.27883e-05 -4.35534e-05 -2.77797e-05 -1.54671e-05 -6.61563e-06 -1.10629e-07 5.16257e-06 9.20397e-06 1.20136e-05 1.35914e-05 1.39374e-05 1.30516e-05 1.0934e-05 8.37133e-06 6.15036e-06 4.27109e-06 2.7335e-06 1.53759e-06 6.83374e-07 1.70843e-07 0 0 -1.95485e-07 -7.8194e-07 -1.75936e-06 -3.12776e-06 -4.88712e-06 -7.03746e-06 -9.57876e-06 -1.2511e-05 -1.46891e-05 -1.49678e-05 -1.3347e-05 -9.82691e-06 -4.40739e-06 2.91153e-06 1.21298e-05 2.32476e-05 3.71532e-05 5.47354e-05 7.5994e-05 0.000100929 0.000129541 0.000161829 0.000197794 0.000237435 0.000277173 0.00031343 0.000346205 0.000375499 0.000401311 0.000423641 0.000442489 0.000457856 0.000470685 0.000481919 0.000491559 0.000499604 0.000506055 0.000510911 0.000514173 0.00051584 0.000515582 0.000513068 0.000508297 0.00050127 0.000491987 0.000480447 0.000466652 0.000450599 0.000432664 0.000413219 0.000392264 0.000369799 0.000345824 0.000320339 0.000293345 0.00026484 0.000235005 0.000204019 0.000171882 0.000138595 0.000104156 6.85663e-05 3.18257e-05 -6.06581e-06 -5.06553e-05 -0.00010749 -0.000176569 -0.000257894 -0.000351463 -0.000457278 -0.000575337 -0.000705641 -0.000835594 -0.000952596 -0.00105665 -0.00114775 -0.00122591 -0.00129111 -0.00134337 -0.00138268 -0.00141345 -0.00144012 -0.00146269 -0.00148114 -0.00149549 -0.00150573 -0.00151186 -0.00151388 -0.00151183 -0.00150572 -0.00149557 -0.00148136 -0.00146311 -0.0014408 -0.00141444 -0.00138404 -0.00134493 -0.00129247 -0.00122667 -0.00114751 -0.001055 -0.000949133 -0.00082992 -0.000697356 -0.000565038 -0.000446565 -0.000341937 -0.000251153 -0.000174214 -0.000111119 -6.18684e-05 -2.64625e-05 -4.42517e-07 2.06503e-05 3.68159e-05 4.80543e-05 5.43655e-05 5.57495e-05 5.22063e-05 4.37359e-05 3.34853e-05 2.46015e-05 1.70843e-05 1.0934e-05 6.15036e-06 2.7335e-06 6.83374e-07 0 0 -4.39841e-07 -1.75936e-06 -3.95857e-06 -7.03746e-06 -1.0996e-05 -1.58343e-05 -2.15522e-05 -2.81498e-05 -3.30505e-05 -3.36775e-05 -3.00308e-05 -2.21105e-05 -9.91662e-06 6.55095e-06 2.72922e-05 5.2307e-05 8.35947e-05 0.000123155 0.000170987 0.000227091 0.000291467 0.000364115 0.000445036 0.000534228 0.00062364 0.000705218 0.000778962 0.000844872 0.000902949 0.000953192 0.000995601 0.00103018 0.00105904 0.00108432 0.00110601 0.00112411 0.00113862 0.00114955 0.00115689 0.00116064 0.00116006 0.0011544 0.00114367 0.00112786 0.00110697 0.00108101 0.00104997 0.00101385 0.000973494 0.000929743 0.000882594 0.000832048 0.000778104 0.000720764 0.000660026 0.00059589 0.000528762 0.000459043 0.000386736 0.000311838 0.000234351 0.000154274 7.16079e-05 -1.36481e-05 -0.000113974 -0.000241852 -0.000397281 -0.000580261 -0.000790792 -0.00102887 -0.00129451 -0.00158769 -0.00188009 -0.00214334 -0.00237746 -0.00258245 -0.00275829 -0.002905 -0.00302258 -0.00311102 -0.00318027 -0.00324028 -0.00329104 -0.00333257 -0.00336485 -0.00338788 -0.00340168 -0.00340623 -0.00340161 -0.00338787 -0.00336503 -0.00333306 -0.00329199 -0.0032418 -0.0031825 -0.00311409 -0.0030261 -0.00290807 -0.00276 -0.00258189 -0.00237374 -0.00213555 -0.00186732 -0.00156905 -0.00127134 -0.00100477 -0.000769358 -0.000565094 -0.000391981 -0.000250017 -0.000139204 -5.95406e-05 -9.95663e-07 4.64631e-05 8.28357e-05 0.000108122 0.000122322 0.000125436 0.000117464 9.84058e-05 7.5342e-05 5.53533e-05 3.84398e-05 2.46015e-05 1.38383e-05 6.15036e-06 1.53759e-06 0 0 -7.8194e-07 -3.12776e-06 -7.03746e-06 -1.2511e-05 -1.95485e-05 -2.81498e-05 -3.83151e-05 -5.00442e-05 -5.87564e-05 -5.98711e-05 -5.33881e-05 -3.93076e-05 -1.76295e-05 1.16461e-05 4.85194e-05 9.29902e-05 0.000148613 0.000218941 0.000303976 0.000403717 0.000518163 0.000647316 0.000791174 0.000949739 0.00110869 0.00125372 0.00138482 0.001502 0.00160524 0.00169456 0.00176996 0.00183143 0.00188274 0.00192768 0.00196624 0.00199842 0.00202422 0.00204365 0.00205669 0.00206336 0.00206233 0.00205227 0.00203319 0.00200508 0.00196795 0.00192179 0.00186661 0.0018024 0.00173066 0.00165288 0.00156906 0.0014792 0.0013833 0.00128136 0.00117338 0.00105936 0.000940021 0.000816077 0.00068753 0.000554379 0.000416624 0.000274265 0.000127303 -2.42633e-05 -0.000202621 -0.000429959 -0.000706277 -0.00103157 -0.00140585 -0.00182911 -0.00230135 -0.00282257 -0.00334237 -0.00381039 -0.0042266 -0.00459101 -0.00490363 -0.00516445 -0.00537348 -0.0055307 -0.00565381 -0.00576049 -0.00585074 -0.00592456 -0.00598195 -0.00602291 -0.00604743 -0.00605553 -0.00604731 -0.00602289 -0.00598227 -0.00592545 -0.00585242 -0.0057632 -0.00565778 -0.00553616 -0.00537973 -0.0051699 -0.00490666 -0.00459003 -0.00421998 -0.00379653 -0.00331968 -0.00278942 -0.00226015 -0.00178626 -0.00136775 -0.00100461 -0.000696855 -0.000444475 -0.000247473 -0.00010585 -1.77007e-06 8.26011e-05 0.000147264 0.000192217 0.000217462 0.000222998 0.000208825 0.000174944 0.000133941 9.84058e-05 6.83374e-05 4.37359e-05 2.46015e-05 1.0934e-05 2.7335e-06 0 0 -1.22178e-06 -4.88712e-06 -1.0996e-05 -1.95485e-05 -3.05445e-05 -4.39841e-05 -5.98673e-05 -7.8194e-05 -9.18069e-05 -9.35485e-05 -8.3419e-05 -6.14182e-05 -2.75462e-05 1.81971e-05 7.58116e-05 0.000145297 0.000232208 0.000342096 0.000474963 0.000630807 0.00080963 0.00101143 0.00123621 0.00148397 0.00173233 0.00195894 0.00216378 0.00234687 0.00250819 0.00264776 0.00276556 0.0028616 0.00294178 0.003012 0.00307224 0.00312253 0.00316284 0.0031932 0.00321358 0.003224 0.00322239 0.00320667 0.00317686 0.00313294 0.00307492 0.0030028 0.00291657 0.00281625 0.00270415 0.00258262 0.00245165 0.00231124 0.0021614 0.00200212 0.0018334 0.00165525 0.00146878 0.00127512 0.00107427 0.000866217 0.000650975 0.00042854 0.000198911 -3.79113e-05 -0.000316596 -0.000671811 -0.00110356 -0.00161184 -0.00219664 -0.00285798 -0.00359586 -0.00441026 -0.00522246 -0.00595373 -0.00660406 -0.00717346 -0.00766193 -0.00806946 -0.00839606 -0.00864172 -0.00883408 -0.00900077 -0.00914179 -0.00925713 -0.0093468 -0.00941079 -0.00944911 -0.00946176 -0.00944892 -0.00941076 -0.00934729 -0.00925851 -0.00914441 -0.009005 -0.00884028 -0.00865024 -0.00840583 -0.00807797 -0.00766666 -0.00717191 -0.00659372 -0.00593208 -0.005187 -0.00435848 -0.00353149 -0.00279103 -0.00213711 -0.00156971 -0.00108884 -0.000694492 -0.000386677 -0.000165391 -2.76573e-06 0.000129064 0.000230099 0.000300339 0.000339784 0.000348434 0.000326289 0.00027335 0.000209283 0.000153759 0.000106777 6.83374e-05 3.84398e-05 1.70843e-05 4.27109e-06 0 0 -1.75936e-06 -7.03746e-06 -1.58343e-05 -2.81498e-05 -4.39841e-05 -6.33371e-05 -8.62089e-05 -0.000112599 -0.000132202 -0.00013471 -0.000120123 -8.84422e-05 -3.96665e-05 2.62038e-05 0.000109169 0.000209228 0.000334379 0.000492618 0.000683946 0.000908363 0.00116587 0.00145646 0.00178014 0.00213691 0.00249456 0.00282087 0.00311585 0.00337949 0.0036118 0.00381277 0.0039824 0.00412071 0.00423617 0.00433727 0.00442403 0.00449644 0.0045545 0.0045982 0.00462756 0.00464256 0.00464024 0.00461761 0.00457468 0.00451143 0.00442788 0.00432403 0.00419986 0.00405539 0.00389398 0.00371897 0.00353038 0.00332819 0.00311242 0.00288305 0.0026401 0.00238356 0.00211505 0.00183617 0.00154694 0.00124735 0.000937404 0.000617097 0.000286432 -5.45923e-05 -0.000455898 -0.000967408 -0.00158912 -0.00232104 -0.00316317 -0.0041155 -0.00517803 -0.00635077 -0.00752034 -0.00857337 -0.00950985 -0.0103298 -0.0110332 -0.01162 -0.0120903 -0.0124441 -0.0127211 -0.0129611 -0.0131642 -0.0133303 -0.0134594 -0.0135515 -0.0136067 -0.0136249 -0.0136064 -0.0135515 -0.0134601 -0.0133323 -0.013168 -0.0129672 -0.01273 -0.0124563 -0.0121044 -0.0116323 -0.01104 -0.0103276 -0.00949496 -0.0085422 -0.00746928 -0.0062762 -0.00508535 -0.00401909 -0.00307743 -0.00226038 -0.00156792 -0.00100007 -0.000556815 -0.000238163 -3.98265e-06 0.000185853 0.000331343 0.000432489 0.000489289 0.000501745 0.000469857 0.000393623 0.000301368 0.000221413 0.000153759 9.84058e-05 5.53533e-05 2.46015e-05 6.15036e-06 0 0 -2.39469e-06 -9.57876e-06 -2.15522e-05 -3.83151e-05 -5.98673e-05 -8.62089e-05 -0.00011734 -0.00015326 -0.000179941 -0.000183355 -0.000163501 -0.00012038 -5.39905e-05 3.56663e-05 0.000148591 0.000284783 0.000455127 0.000670508 0.000930927 0.00123638 0.00158687 0.0019824 0.00242297 0.00290858 0.00339537 0.00383952 0.00424102 0.00459986 0.00491606 0.0051896 0.0054205 0.00560874 0.00576589 0.00590351 0.0060216 0.00612015 0.00619918 0.00625866 0.00629862 0.00631905 0.00631588 0.00628508 0.00622664 0.00614056 0.00602684 0.00588548 0.00571648 0.00551984 0.00530014 0.00506193 0.00480523 0.00453004 0.00423635 0.00392416 0.00359347 0.00324429 0.00287881 0.00249924 0.00210556 0.00169779 0.00127591 0.000839937 0.000389865 -7.43062e-05 -0.000620528 -0.00131675 -0.00216297 -0.0031592 -0.00430542 -0.00560165 -0.00704788 -0.00864411 -0.010236 -0.0116693 -0.012944 -0.01406 -0.0150174 -0.0158161 -0.0164563 -0.0169378 -0.0173148 -0.0176415 -0.0179179 -0.018144 -0.0183197 -0.0184452 -0.0185203 -0.0185451 -0.0185199 -0.0184451 -0.0183207 -0.0181467 -0.017923 -0.0176498 -0.0173269 -0.0169545 -0.0164754 -0.0158328 -0.0150267 -0.014057 -0.0129237 -0.0116269 -0.0101665 -0.00854261 -0.00692172 -0.00547043 -0.00418873 -0.00307663 -0.00213412 -0.0013612 -0.000757887 -0.000324166 -5.42083e-06 0.000252966 0.000450994 0.000588665 0.000665977 0.000682931 0.000639527 0.000535765 0.000410195 0.000301368 0.000209283 0.000133941 7.5342e-05 3.34853e-05 8.37133e-06 0 0 -3.12776e-06 -1.2511e-05 -2.81498e-05 -5.00442e-05 -7.8194e-05 -0.000112599 -0.00015326 -0.000200177 -0.000235026 -0.000239484 -0.000213553 -0.000157231 -7.05182e-05 4.65845e-05 0.000194078 0.000371961 0.000594451 0.000875766 0.0012159 0.00161487 0.00207265 0.00258926 0.0031647 0.00379896 0.00443477 0.00501488 0.00553929 0.00600798 0.00642097 0.00677825 0.00707983 0.0073257 0.00753096 0.00771071 0.00786495 0.00799367 0.00809688 0.00817458 0.00822677 0.00825345 0.00824932 0.00820909 0.00813276 0.00802032 0.00787179 0.00768716 0.00746642 0.00720959 0.00692263 0.0066115 0.00627622 0.00591678 0.00553319 0.00512543 0.00469352 0.00423744 0.00376008 0.00326431 0.00275012 0.00221752 0.0016665 0.00109706 0.000509212 -9.7053e-05 -0.000810485 -0.00171984 -0.00282511 -0.0041263 -0.00562341 -0.00731644 -0.00920539 -0.0112903 -0.0133695 -0.0152415 -0.0169064 -0.0183641 -0.0196145 -0.0206578 -0.0214939 -0.0221228 -0.0226153 -0.023042 -0.023403 -0.0236982 -0.0239278 -0.0240916 -0.0241897 -0.0242221 -0.0241892 -0.0240916 -0.0239291 -0.0237018 -0.0234097 -0.0230528 -0.0226311 -0.0221446 -0.0215189 -0.0206796 -0.0196267 -0.0183601 -0.0168799 -0.0151861 -0.0132787 -0.0111577 -0.00904062 -0.00714505 -0.00547099 -0.00401845 -0.00278742 -0.0017779 -0.000989894 -0.0004234 -7.08027e-06 0.000330404 0.000589054 0.000768868 0.000869848 0.000891992 0.000835301 0.000699775 0.000535765 0.000393623 0.00027335 0.000174944 9.84058e-05 4.37359e-05 1.0934e-05 0 0 -3.65835e-06 -1.46334e-05 -3.29252e-05 -5.85337e-05 -9.14588e-05 -0.000131701 -0.000179259 -0.000234135 -0.000274712 -0.000279376 -0.000248127 -0.000180965 -7.78898e-05 6.10983e-05 0.000236 0.000446814 0.000709898 0.00104161 0.00144195 0.00191091 0.0024485 0.00305472 0.00372956 0.00447303 0.00521837 0.00589881 0.00651436 0.00706502 0.00755079 0.00797166 0.00832764 0.00861872 0.00886219 0.00907531 0.0092581 0.00941053 0.00953263 0.00962438 0.00968578 0.00971685 0.00971144 0.00966344 0.00957285 0.00943966 0.00926388 0.0090455 0.00878454 0.00848097 0.00814234 0.00777615 0.00738242 0.00696113 0.00651229 0.0060359 0.00553196 0.00500047 0.00444234 0.00385848 0.00324889 0.00261357 0.00195252 0.00126575 0.000553246 -0.000184986 -0.00104998 -0.00214279 -0.00346339 -0.0050118 -0.00678801 -0.00879203 -0.0110238 -0.0134835 -0.0159364 -0.0181481 -0.0201186 -0.0218479 -0.0233361 -0.024583 -0.0255887 -0.0263532 -0.0269568 -0.0274798 -0.0279224 -0.0282844 -0.0285658 -0.0287667 -0.028887 -0.0289268 -0.0288866 -0.0287668 -0.0285675 -0.0282887 -0.0279304 -0.0274925 -0.0269752 -0.0263783 -0.0256173 -0.0246076 -0.0233493 -0.0218423 -0.0200867 -0.0180824 -0.0158295 -0.0133279 -0.0108309 -0.00859196 -0.00661102 -0.00488807 -0.00342312 -0.00221616 -0.00126721 -0.000576255 -6.24795e-05 0.000354933 0.000675982 0.000900669 0.00102899 0.00106095 0.000996551 0.000835786 0.000639898 0.00047013 0.000326479 0.000208946 0.000117532 5.22366e-05 1.30592e-05 0 0 -3.68626e-06 -1.4745e-05 -3.31763e-05 -5.89801e-05 -9.21564e-05 -0.000132705 -0.000180627 -0.00023592 -0.000276257 -0.000279309 -0.000245074 -0.000173553 -6.47456e-05 8.13475e-05 0.000264727 0.000485392 0.000759011 0.00110125 0.00151212 0.0019916 0.00253971 0.00315645 0.0038418 0.00459578 0.00535177 0.00604316 0.00666995 0.00723215 0.00772974 0.00816274 0.00853114 0.00883494 0.0090904 0.00931378 0.00950507 0.00966429 0.00979142 0.00988647 0.00994943 0.00998032 0.00997315 0.00992196 0.00982674 0.00968751 0.00950425 0.00927696 0.00900566 0.00869033 0.00834016 0.00796435 0.00756288 0.00713577 0.006683 0.00620459 0.00570053 0.00517082 0.00460905 0.00400882 0.00337013 0.00269298 0.00197736 0.00122328 0.000430745 -0.000400257 -0.00136324 -0.00255171 -0.00396569 -0.00560515 -0.00747012 -0.00956057 -0.0118765 -0.014418 -0.0169524 -0.0192471 -0.0213021 -0.0231176 -0.0246934 -0.0260295 -0.027126 -0.0279828 -0.0286737 -0.0292725 -0.0297791 -0.0301936 -0.0305159 -0.030746 -0.030884 -0.0309299 -0.030884 -0.0307468 -0.0305184 -0.0301987 -0.0297876 -0.0292853 -0.0286918 -0.0280069 -0.0271529 -0.0260519 -0.0247039 -0.023109 -0.0212671 -0.0191782 -0.0168423 -0.0142595 -0.0116815 -0.00936018 -0.00729559 -0.0054877 -0.0039365 -0.00264201 -0.00160421 -0.000823118 -0.000225137 0.000263315 0.000642239 0.000911635 0.0010715 0.00112184 0.00106265 0.000893931 0.000684416 0.000502836 0.000349192 0.000223483 0.000125709 5.58707e-05 1.39677e-05 0 0 -3.21147e-06 -1.28459e-05 -2.89032e-05 -5.13835e-05 -8.02867e-05 -0.000115613 -0.000157362 -0.000205534 -0.000239663 -0.000239282 -0.000204393 -0.000134994 -3.10855e-05 0.000107332 0.000280259 0.000487695 0.000741791 0.0010547 0.00142642 0.00185695 0.0023463 0.00289445 0.00350142 0.0041672 0.00483498 0.00544793 0.00600605 0.00650936 0.00695784 0.0073515 0.00769034 0.00797435 0.00821559 0.0084261 0.00860588 0.00875493 0.00887326 0.00896085 0.00901772 0.00904386 0.00903445 0.00898464 0.00889445 0.00876387 0.00859289 0.00838154 0.00812979 0.00783765 0.0075161 0.00717609 0.00681762 0.0064407 0.00604533 0.00563151 0.00519923 0.0047485 0.00426023 0.00371535 0.00311385 0.00245574 0.00174101 0.000969665 0.000141706 -0.000742868 -0.00175025 -0.00294662 -0.00433199 -0.00590636 -0.00766972 -0.00962208 -0.0117634 -0.0140938 -0.0164174 -0.0185384 -0.0204569 -0.022173 -0.0236864 -0.0249974 -0.0261058 -0.0270117 -0.0277661 -0.0284199 -0.0289732 -0.0294259 -0.0297781 -0.0300297 -0.0301807 -0.0302313 -0.0301815 -0.0300316 -0.0297816 -0.0294316 -0.0289814 -0.0284312 -0.0277809 -0.0270305 -0.0261257 -0.0250124 -0.0236906 -0.0221601 -0.0204211 -0.0184735 -0.0163173 -0.0139526 -0.0115923 -0.00944971 -0.00752472 -0.00581734 -0.00432758 -0.00305543 -0.0020009 -0.00116399 -0.000495053 5.55523e-05 0.000487826 0.000801767 0.000997376 0.00107465 0.0010336 0.000874211 0.000669318 0.000491744 0.000341489 0.000218553 0.000122936 5.46382e-05 1.36596e-05 0 0 -2.23399e-06 -8.93594e-06 -2.01059e-05 -3.57438e-05 -5.58496e-05 -8.04235e-05 -0.000109465 -0.000142975 -0.000164928 -0.000159297 -0.000126084 -6.52882e-05 2.30904e-05 0.000139052 0.000282596 0.000453723 0.000658238 0.000901948 0.00118485 0.00150695 0.00186825 0.00226873 0.00270842 0.0031873 0.00366799 0.00411311 0.00452267 0.00489666 0.00523508 0.00553794 0.00580523 0.00603696 0.00623776 0.00641227 0.00656051 0.00668247 0.00677814 0.00684754 0.00689065 0.00690748 0.00689533 0.00685149 0.00677596 0.00666873 0.00652982 0.00635922 0.00615693 0.00592295 0.00567014 0.00541137 0.00514664 0.00487594 0.00459927 0.00431665 0.00402806 0.0037335 0.00339587 0.00297805 0.00248004 0.00190185 0.00124347 0.000504893 -0.000313868 -0.00121282 -0.00221101 -0.00332751 -0.00456231 -0.00591542 -0.00738682 -0.00897653 -0.0106845 -0.0125109 -0.0143314 -0.0160221 -0.017583 -0.0190141 -0.0203153 -0.0214867 -0.0225282 -0.0234399 -0.0242339 -0.0249221 -0.0255046 -0.0259813 -0.0263523 -0.0266176 -0.0267772 -0.026831 -0.026779 -0.0266211 -0.0263573 -0.0259875 -0.0255118 -0.0249301 -0.0242425 -0.0234491 -0.0225359 -0.0214892 -0.0203092 -0.0189956 -0.0175487 -0.0159683 -0.0142544 -0.0124071 -0.0105634 -0.00886054 -0.00729839 -0.00587699 -0.00459634 -0.00345643 -0.00245728 -0.00159887 -0.000872227 -0.000268356 0.000212741 0.000571065 0.000806615 0.000919392 0.000909396 0.000776626 0.000594604 0.000436852 0.00030337 0.000194157 0.000109213 4.85391e-05 1.21348e-05 0 0 -7.53813e-07 -3.01525e-06 -6.78432e-06 -1.2061e-05 -1.88453e-05 -2.71373e-05 -3.69369e-05 -4.82441e-05 -5.20518e-05 -3.93531e-05 -1.01478e-05 3.55639e-05 9.77822e-05 0.000176507 0.000271738 0.000383476 0.000508352 0.000642999 0.000787417 0.000941605 0.00110556 0.00127929 0.00146279 0.00165606 0.0018508 0.00203871 0.0022198 0.00239405 0.00256147 0.00272206 0.00287582 0.00302276 0.0031569 0.00327231 0.00336897 0.0034469 0.00350608 0.00354652 0.00356822 0.00357118 0.0035558 0.0035225 0.00347127 0.00340211 0.00331503 0.00321002 0.00308708 0.00294622 0.0028023 0.0026702 0.00254992 0.00244146 0.00234483 0.00226001 0.00218701 0.00212583 0.00201598 0.00179694 0.00146872 0.00103131 0.00048473 -0.000171034 -0.000935979 -0.00181011 -0.00274553 -0.00369438 -0.00465664 -0.00563233 -0.00662143 -0.00762395 -0.00863989 -0.00966925 -0.0106945 -0.0116982 -0.0126804 -0.0136409 -0.0145799 -0.0154973 -0.0163932 -0.0172674 -0.0180771 -0.018779 -0.0193733 -0.0198598 -0.0202387 -0.0205099 -0.0206733 -0.0207291 -0.0206766 -0.0205154 -0.0202453 -0.0198664 -0.0193786 -0.0187821 -0.0180768 -0.0172626 -0.0163832 -0.0154823 -0.0145597 -0.0136156 -0.0126499 -0.0116625 -0.0106536 -0.00962311 -0.00859485 -0.00759268 -0.00661662 -0.00566665 -0.00474278 -0.00384501 -0.00297334 -0.00212776 -0.00135666 -0.000708411 -0.000183015 0.000219529 0.00049922 0.000656057 0.000690043 0.000601175 0.000460275 0.000338161 0.000234834 0.000150294 8.45403e-05 3.75735e-05 9.39336e-06 0 0 1.22905e-06 4.9162e-06 1.10615e-05 1.96648e-05 3.07263e-05 4.42458e-05 6.02235e-05 7.86593e-05 9.89643e-05 0.00012055 0.000143416 0.000167563 0.00019299 0.000219697 0.000247686 0.000276954 0.000292133 0.000277852 0.000234111 0.000160909 5.82477e-05 -7.38739e-05 -0.000235456 -0.000426497 -0.000616575 -0.000775265 -0.000902566 -0.00099848 -0.001063 -0.00109614 -0.00109789 -0.00106825 -0.00102697 -0.000993801 -0.000968739 -0.000951785 -0.00094294 -0.000942204 -0.000949576 -0.000965056 -0.000984141 -0.00100233 -0.00101961 -0.001036 -0.00105148 -0.00106607 -0.00107976 -0.00109255 -0.00108743 -0.00104742 -0.000972517 -0.000862711 -0.000718007 -0.000538405 -0.000323906 -7.45076e-05 0.000120542 0.000171999 7.98613e-05 -0.00015587 -0.000535195 -0.00105811 -0.00172463 -0.00253473 -0.00335381 -0.00404722 -0.00461498 -0.00505709 -0.00537353 -0.00556432 -0.00562945 -0.00556892 -0.0055067 -0.00556672 -0.00574901 -0.00605354 -0.00648034 -0.00702939 -0.00770069 -0.00849425 -0.00929571 -0.00999074 -0.0105793 -0.0110614 -0.0114371 -0.0117064 -0.0118692 -0.0119256 -0.0118743 -0.0117144 -0.0114457 -0.0110682 -0.0105821 -0.00998716 -0.00928351 -0.00847112 -0.00766786 -0.00699159 -0.00644229 -0.00601998 -0.00572466 -0.00555631 -0.00551495 -0.00560058 -0.00568652 -0.00564613 -0.0054794 -0.00518633 -0.00476692 -0.00422117 -0.00354909 -0.00275066 -0.00194835 -0.00126461 -0.000699441 -0.000252841 7.51887e-05 0.000284649 0.000375539 0.000347859 0.00026633 0.000195671 0.000135882 8.69648e-05 4.89177e-05 2.17412e-05 5.4353e-06 0 0 3.71461e-06 1.48584e-05 3.34315e-05 5.94337e-05 9.28652e-05 0.000133726 0.000182016 0.000237735 0.000288121 0.000320412 0.000334608 0.000330708 0.000308713 0.000268623 0.000210438 0.000134158 9.58094e-06 -0.000193493 -0.000475065 -0.000835134 -0.0012737 -0.00179076 -0.00238633 -0.00306038 -0.00373415 -0.00432883 -0.00484442 -0.00528092 -0.00563834 -0.00591666 -0.00611591 -0.00623606 -0.00631387 -0.00638605 -0.00645262 -0.00651358 -0.00656891 -0.00661863 -0.00666273 -0.00670122 -0.0067245 -0.00672299 -0.00669669 -0.0066456 -0.00656972 -0.00646905 -0.00634359 -0.00619334 -0.00599906 -0.0057415 -0.00542068 -0.00503659 -0.00458923 -0.0040786 -0.00350469 -0.00286752 -0.00229043 -0.00189676 -0.00168652 -0.0016597 -0.00181631 -0.00215635 -0.00267981 -0.0033867 -0.00403584 -0.00438605 -0.00443734 -0.0041897 -0.00364314 -0.00279765 -0.00165323 -0.000209893 0.00123208 0.00237241 0.00321108 0.0037481 0.00398347 0.00391719 0.00354925 0.00287966 0.00211023 0.00144279 0.000877317 0.000413826 5.23123e-05 -0.000207223 -0.00036478 -0.00042036 -0.000372099 -0.000218136 4.15278e-05 0.000406894 0.000877961 0.00145473 0.0021372 0.00292537 0.00361026 0.00398285 0.00404317 0.0037912 0.00322695 0.00235041 0.00116159 -0.000339511 -0.00183848 -0.00302088 -0.00388673 -0.00443602 -0.00466874 -0.00458491 -0.00418452 -0.00346757 -0.0026473 -0.00193696 -0.00133654 -0.000846045 -0.000465477 -0.000194834 -3.41158e-05 1.66774e-05 1.27686e-05 9.38104e-06 6.51461e-06 4.16935e-06 2.34526e-06 1.04234e-06 2.60584e-07 0 0 6.70285e-06 2.68114e-05 6.03257e-05 0.000107246 0.000167571 0.000241303 0.00032844 0.000428983 0.000515418 0.000560233 0.000563427 0.000525 0.000444953 0.000323284 0.000159996 -4.49138e-05 -0.000339304 -0.000771036 -0.00134011 -0.00204652 -0.00289028 -0.00387138 -0.00498982 -0.0062456 -0.00750192 -0.00862197 -0.00960575 -0.0104533 -0.0111645 -0.0117395 -0.0121782 -0.0124807 -0.0127038 -0.0129044 -0.0130827 -0.0132385 -0.0133718 -0.0134828 -0.0135712 -0.0136373 -0.0136653 -0.0136395 -0.01356 -0.0134267 -0.0132397 -0.0129989 -0.0127044 -0.0123562 -0.0119326 -0.011412 -0.0107946 -0.0100802 -0.00926884 -0.00836056 -0.00735536 -0.00625321 -0.00521693 -0.00440934 -0.00383042 -0.00348018 -0.00335862 -0.00346574 -0.00380153 -0.004366 -0.00479162 -0.00471086 -0.00412371 -0.00303017 -0.00143024 0.000676067 0.00328876 0.00640785 0.00952181 0.0121192 0.0141999 0.015764 0.0168115 0.0173424 0.0173566 0.0168543 0.0161408 0.0155215 0.0149966 0.014566 0.0142297 0.0139877 0.0138399 0.0137865 0.0138301 0.0139734 0.0142163 0.014559 0.0150014 0.0155436 0.0161854 0.0169269 0.0174511 0.017441 0.0168966 0.015818 0.0142049 0.0120576 0.00937602 0.00616009 0.00294929 0.00028306 -0.00183861 -0.00341571 -0.00444825 -0.00493623 -0.00487964 -0.00427848 -0.00345351 -0.00272545 -0.00209431 -0.00156008 -0.00112278 -0.000782391 -0.000538921 -0.00039237 -0.000300408 -0.000220708 -0.000153269 -9.80924e-05 -5.5177e-05 -2.45231e-05 -6.13078e-06 0 0 9.32744e-06 3.73098e-05 8.3947e-05 0.000149239 0.000233186 0.000335788 0.000457045 0.000596956 0.000713778 0.000765764 0.000752915 0.000675231 0.000532711 0.000325356 5.31661e-05 -0.000283859 -0.000744405 -0.00138716 -0.00221211 -0.00321928 -0.00440864 -0.00578022 -0.007334 -0.00906998 -0.0108071 -0.0123644 -0.0137417 -0.0149392 -0.0159567 -0.0167944 -0.0174522 -0.0179301 -0.0182986 -0.0186283 -0.0189192 -0.0191713 -0.0193846 -0.019559 -0.0196947 -0.0197915 -0.0198265 -0.0197766 -0.0196419 -0.0194223 -0.0191179 -0.0187286 -0.0182544 -0.0176954 -0.0170391 -0.0162729 -0.0153969 -0.014411 -0.0133153 -0.0121098 -0.0107945 -0.00936932 -0.00800874 -0.00688718 -0.00600463 -0.0053611 -0.00495658 -0.00479108 -0.00486459 -0.00517711 -0.00521654 -0.00447077 -0.00293979 -0.000623612 0.00247777 0.00636436 0.0110362 0.0164931 0.021941 0.0265853 0.0304262 0.0334635 0.0356974 0.0371277 0.0377545 0.0375779 0.0370352 0.036564 0.0361642 0.0358359 0.0355791 0.0353938 0.0352799 0.0352375 0.0352696 0.0353795 0.0355671 0.0358324 0.0361753 0.036596 0.0370944 0.0376705 0.0378722 0.0372474 0.0357961 0.0335183 0.0304141 0.0264833 0.0217261 0.0161424 0.0105667 0.00583348 0.00194278 -0.00110542 -0.00331112 -0.00467431 -0.005195 -0.00487319 -0.00416172 -0.00351343 -0.00292833 -0.0024064 -0.00194765 -0.00155208 -0.00121969 -0.000950478 -0.00072771 -0.000534644 -0.000371281 -0.00023762 -0.000133661 -5.94049e-05 -1.48512e-05 0 0 1.0722e-05 4.28881e-05 9.64982e-05 0.000171552 0.000268051 0.000385993 0.000525379 0.00068621 0.000816123 0.000862758 0.000826114 0.000706192 0.000502992 0.000216514 -0.000153243 -0.000606278 -0.0011956 -0.00197423 -0.00294216 -0.0040994 -0.00544594 -0.00698178 -0.00870692 -0.0106214 -0.012537 -0.0142657 -0.0158074 -0.0171623 -0.0183301 -0.0193111 -0.0201051 -0.0207122 -0.0212001 -0.0216369 -0.0220225 -0.0223568 -0.0226399 -0.0228718 -0.0230525 -0.0231819 -0.0232282 -0.0231592 -0.022975 -0.0226755 -0.0222609 -0.021731 -0.0210859 -0.0203255 -0.0194696 -0.0185378 -0.0175302 -0.0164466 -0.0152872 -0.0140519 -0.0127407 -0.0113536 -0.0100156 -0.00885173 -0.00786195 -0.00704626 -0.00640468 -0.00593719 -0.00564379 -0.0055245 -0.00490598 -0.00311492 -0.000151312 0.00398484 0.00929353 0.0157748 0.0234285 0.0322549 0.0410681 0.0486828 0.0550987 0.060316 0.0643347 0.0671547 0.068776 0.0691987 0.0690328 0.0688885 0.0687657 0.0686645 0.0685848 0.0685267 0.0684901 0.0684751 0.0684841 0.0685198 0.0685821 0.068671 0.0687866 0.0689288 0.0690977 0.0692931 0.0688908 0.0672662 0.0644194 0.0603503 0.055059 0.0485454 0.0408096 0.0318515 0.0229036 0.0151982 0.00873525 0.00351487 -0.000462994 -0.00319834 -0.00469117 -0.00494148 -0.0045667 -0.00418427 -0.00379417 -0.00339642 -0.00299102 -0.00257795 -0.00215723 -0.00172884 -0.00132365 -0.000972475 -0.00067533 -0.000432211 -0.000243119 -0.000108053 -2.70132e-05 0 0 1.08866e-05 4.35464e-05 9.79793e-05 0.000174186 0.000272165 0.000391917 0.000533443 0.000696742 0.000822453 0.000851213 0.000783024 0.000617885 0.000355796 -3.24247e-06 -0.000459231 -0.00101217 -0.0016929 -0.00253226 -0.00353026 -0.0046869 -0.00600216 -0.00747607 -0.0091086 -0.0108998 -0.0126916 -0.0143259 -0.0158029 -0.0171225 -0.0182847 -0.0192895 -0.020137 -0.020827 -0.0214084 -0.0219303 -0.0223925 -0.022795 -0.0231379 -0.0234211 -0.0236447 -0.0238086 -0.0238703 -0.0237872 -0.0235592 -0.0231863 -0.0226686 -0.0220061 -0.0211987 -0.0202465 -0.0192243 -0.018207 -0.0171946 -0.016187 -0.0151844 -0.0141867 -0.0131939 -0.012206 -0.0112376 -0.010303 -0.00940237 -0.00853567 -0.0077029 -0.00690405 -0.00613914 -0.00540815 -0.00385993 -0.0006433 0.00424174 0.0107952 0.019017 0.0289073 0.040466 0.053693 0.0669033 0.0784114 0.0882175 0.0963215 0.102723 0.107423 0.110421 0.111717 0.112134 0.112495 0.112801 0.113052 0.113247 0.113386 0.113471 0.113499 0.113473 0.113394 0.113261 0.113075 0.112835 0.112542 0.112195 0.111795 0.110507 0.107498 0.102767 0.0963139 0.0881397 0.0782439 0.0666265 0.0532875 0.03996 0.0283771 0.0185388 0.0104452 0.00409611 -0.00050832 -0.00336814 -0.00448334 -0.00466844 -0.00473795 -0.00469185 -0.00453017 -0.00425289 -0.00386001 -0.00335153 -0.00272747 -0.00208822 -0.0015342 -0.00106542 -0.000681867 -0.00038355 -0.000170467 -4.26167e-05 0 0 9.82116e-06 3.92846e-05 8.83904e-05 0.000157138 0.000245529 0.000353562 0.000481237 0.000628554 0.000732768 0.000731131 0.000623645 0.000410309 9.11229e-05 -0.000333913 -0.000864799 -0.00150153 -0.00223629 -0.00306125 -0.00397641 -0.00498177 -0.00607732 -0.00726308 -0.00853903 -0.00990518 -0.0112708 -0.0125451 -0.0137282 -0.01482 -0.0158205 -0.0167298 -0.0175478 -0.0182745 -0.0189235 -0.0195084 -0.0200292 -0.0204859 -0.0208785 -0.021207 -0.0214714 -0.0216716 -0.021753 -0.0216606 -0.0213945 -0.0209547 -0.0203412 -0.0195539 -0.018593 -0.0174583 -0.016303 -0.0152802 -0.01439 -0.0136323 -0.0130071 -0.0125144 -0.0121543 -0.0119267 -0.0116746 -0.011241 -0.0106259 -0.00982931 -0.00885124 -0.00769168 -0.00635063 -0.00482808 -0.0020784 0.00294408 0.0102394 0.0198074 0.0316483 0.0457619 0.0621484 0.0808076 0.0994463 0.115771 0.129783 0.14148 0.150864 0.157934 0.16269 0.165132 0.166338 0.167384 0.16827 0.168997 0.169565 0.169973 0.170221 0.17031 0.170238 0.170003 0.169605 0.169044 0.168321 0.167436 0.166387 0.165176 0.162721 0.157942 0.150838 0.141409 0.129656 0.115579 0.0991768 0.0804503 0.0617359 0.0453703 0.0313535 0.0196854 0.0103662 0.00339575 -0.00122591 -0.00349878 -0.00446694 -0.00517447 -0.00562137 -0.00580763 -0.00573326 -0.00539825 -0.00480262 -0.00394635 -0.00302142 -0.00221982 -0.00154154 -0.000986586 -0.000554955 -0.000246647 -6.16617e-05 0 0 7.52571e-06 3.01028e-05 6.77314e-05 0.000120411 0.000188143 0.000270925 0.00036876 0.000481645 0.000547067 0.000502511 0.000347977 8.34636e-05 -0.000291028 -0.000775498 -0.00136995 