<?xml version="1.0"?> 
<VTKFile type="StructuredGrid" version="0.1"> 
<StructuredGrid WholeExtent="0 128 0 128 0 0"> 
<Piece Extent="0 128 0 128 0 0"> 
<PointData>
<DataArray type="Float32" Name="u" format="ascii" NumberOfComponents="1"> 
0 0 0 0 0 0 0 0 0 0 0 0 0 0 0 0 0 0 0 0 0 0 0 0 0 0 0 0 0 0 0 0 0 0 0 0 0 0 0 0 0 0 0 0 0 0 0 0 0 0 0 0 0 0 0 0 0 0 0 0 0 0 0 0 0 0 0 0 0 0 0 0 0 0 0 0 0 0 0 0 0 0 0 0 0 0 0 0 0 0 0 0 0 0 0 0 0 0 0 0 0 0 0 0 0 0 0 0 0 0 0 0 0 0 0 0 0 0 0 0 0 0 0 0 0 0 0 0 0 0 1.01843e-07 4.07374e-07 9.16591e-07 1.62949e-06 2.54609e-06 3.66636e-06 4.99033e-06 6.51798e-06 8.06705e-06 9.45526e-06 1.06826e-05 1.17491e-05 1.26548e-05 1.33996e-05 1.39835e-05 1.44066e-05 1.46763e-05 1.48001e-05 1.47781e-05 1.46101e-05 1.42963e-05 1.38366e-05 1.3231e-05 1.24795e-05 1.17736e-05 1.13046e-05 1.10725e-05 1.10773e-05 1.13191e-05 1.17978e-05 1.25134e-05 1.3466e-05 1.44502e-05 1.52609e-05 1.58979e-05 1.63614e-05 1.66513e-05 1.67677e-05 1.67104e-05 1.64796e-05 1.62234e-05 1.60901e-05 1.60795e-05 1.61919e-05 1.6427e-05 1.6785e-05 1.72659e-05 1.78696e-05 1.8412e-05 1.8709e-05 1.87605e-05 1.85667e-05 1.81275e-05 1.74428e-05 1.65127e-05 1.53373e-05 1.3112e-05 9.03263e-06 3.09911e-06 -4.68854e-06 -1.43303e-05 -2.58262e-05 -3.91763e-05 -5.43805e-05 -7.11743e-05 -8.92933e-05 -0.000108737 -0.000129507 -0.000151601 -0.00017502 -0.000199765 -0.000225835 -0.000252368 -0.000278504 -0.000304242 -0.000329583 -0.000354525 -0.00037907 -0.000403218 -0.000426968 -0.000449033 -0.000468127 -0.00048425 -0.000497402 -0.000507583 -0.000514793 -0.000519031 -0.000520298 -0.000518632 -0.000514071 -0.000506614 -0.000496261 -0.000483013 -0.00046687 -0.000447831 -0.000425896 -0.000402392 -0.000378646 -0.000354656 -0.000330423 -0.000305948 -0.000281229 -0.000256268 -0.000231064 -0.000206378 -0.000182971 -0.000160845 -0.000139998 -0.000120431 -0.000102144 -8.51363e-05 -6.94085e-05 -5.51928e-05 -4.27216e-05 -3.19948e-05 -2.30126e-05 -1.57748e-05 -1.02815e-05 -6.53268e-06 -4.52835e-06 -3.46702e-06 -2.5472e-06 -1.76889e-06 -1.13209e-06 -6.36799e-07 -2.83022e-07 -7.07554e-08 0 0 4.07374e-07 1.62949e-06 3.66636e-06 6.51798e-06 1.01843e-05 1.46655e-05 1.99613e-05 2.60719e-05 3.22682e-05 3.7821e-05 4.27305e-05 4.69965e-05 5.06191e-05 5.35982e-05 5.5934e-05 5.76263e-05 5.87051e-05 5.92005e-05 5.91122e-05 5.84405e-05 5.71852e-05 5.53464e-05 5.29241e-05 4.99182e-05 4.70944e-05 4.52183e-05 4.42899e-05 4.43093e-05 4.52764e-05 4.71912e-05 5.00537e-05 5.38639e-05 5.78008e-05 6.10435e-05 6.35917e-05 6.54457e-05 6.66054e-05 6.70707e-05 6.68417e-05 6.59184e-05 6.48936e-05 6.43602e-05 6.43181e-05 6.47674e-05 6.57081e-05 6.71401e-05 6.90635e-05 7.14783e-05 7.36479e-05 7.48358e-05 7.50421e-05 7.42668e-05 7.25098e-05 6.97712e-05 6.60509e-05 6.1349e-05 5.2448e-05 3.61305e-05 1.23964e-05 -1.87542e-05 -5.73213e-05 -0.000103305 -0.000156705 -0.000217522 -0.000284697 -0.000357173 -0.000434949 -0.000518026 -0.000606404 -0.000700081 -0.00079906 -0.000903339 -0.00100947 -0.00111402 -0.00121697 -0.00131833 -0.0014181 -0.00151628 -0.00161287 -0.00170787 -0.00179613 -0.00187251 -0.001937 -0.00198961 -0.00203033 -0.00205917 -0.00207612 -0.00208119 -0.00207453 -0.00205628 -0.00202646 -0.00198505 -0.00193205 -0.00186748 -0.00179132 -0.00170358 -0.00160957 -0.00151458 -0.00141862 -0.00132169 -0.00122379 -0.00112492 -0.00102507 -0.000924254 -0.00082551 -0.000731886 -0.00064338 -0.000559993 -0.000481725 -0.000408575 -0.000340545 -0.000277634 -0.000220771 -0.000170886 -0.000127979 -9.20502e-05 -6.30991e-05 -4.1126e-05 -2.61307e-05 -1.81134e-05 -1.38681e-05 -1.01888e-05 -7.07554e-06 -4.52835e-06 -2.5472e-06 -1.13209e-06 -2.83022e-07 0 0 9.16591e-07 3.66636e-06 8.24932e-06 1.46655e-05 2.29148e-05 3.29973e-05 4.49129e-05 5.86618e-05 7.26034e-05 8.50973e-05 9.61435e-05 0.000105742 0.000113893 0.000120596 0.000125851 0.000129659 0.000132087 0.000133201 0.000133003 0.000131491 0.000128667 0.000124529 0.000119079 0.000112316 0.000105962 0.000101741 9.96524e-05 9.96959e-05 0.000101872 0.00010618 0.000112621 0.000121194 0.000130052 0.000137348 0.000143081 0.000147253 0.000149862 0.000150909 0.000150394 0.000148316 0.000146011 0.00014481 0.000144716 0.000145727 0.000147843 0.000151065 0.000155393 0.000160826 0.000165708 0.000168381 0.000168845 0.0001671 0.000163147 0.000156985 0.000148615 0.000138035 0.000118008 8.12937e-05 2.7892e-05 -4.21969e-05 -0.000128973 -0.000232436 -0.000352587 -0.000489424 -0.000640569 -0.000803639 -0.000978636 -0.00116556 -0.00136441 -0.00157518 -0.00179788 -0.00203251 -0.00227131 -0.00250654 -0.00273818 -0.00296624 -0.00319073 -0.00341163 -0.00362896 -0.00384271 -0.0040413 -0.00421315 -0.00435825 -0.00447662 -0.00456825 -0.00463313 -0.00467128 -0.00468269 -0.00466769 -0.00462664 -0.00455953 -0.00446635 -0.00434712 -0.00420183 -0.00403048 -0.00383307 -0.00362153 -0.00340781 -0.0031919 -0.00297381 -0.00275353 -0.00253106 -0.00230641 -0.00207957 -0.0018574 -0.00164674 -0.0014476 -0.00125998 -0.00108388 -0.000919295 -0.000766227 -0.000624677 -0.000496735 -0.000384494 -0.000287953 -0.000207113 -0.000141973 -9.25334e-05 -5.87941e-05 -4.07551e-05 -3.12032e-05 -2.29248e-05 -1.592e-05 -1.01888e-05 -5.73119e-06 -2.5472e-06 -6.36799e-07 0 0 1.62949e-06 6.51798e-06 1.46655e-05 2.60719e-05 4.07374e-05 5.86618e-05 7.98452e-05 0.000104288 0.000129073 0.000151284 0.000170922 0.000187986 0.000202476 0.000214393 0.000223736 0.000230505 0.000234821 0.000236802 0.000236449 0.000233762 0.000228741 0.000221386 0.000211696 0.000199673 0.000188378 0.000180873 0.00017716 0.000177237 0.000181106 0.000188765 0.000200215 0.000215456 0.000231203 0.000244174 0.000254367 0.000261783 0.000266421 0.000268283 0.000267367 0.000263674 0.000259574 0.000257441 0.000257273 0.00025907 0.000262832 0.00026856 0.000276254 0.000285913 0.000294591 0.000299343 0.000300169 0.000297067 0.000290039 0.000279085 0.000264204 0.000245396 0.000209792 0.000144522 4.95858e-05 -7.50166e-05 -0.000229285 -0.00041322 -0.000626821 -0.000870088 -0.00113879 -0.00142869 -0.0017398 -0.0020721 -0.00242561 -0.00280033 -0.00319624 -0.00361335 -0.00403789 -0.00445606 -0.00486787 -0.00527332 -0.0056724 -0.00606513 -0.00645149 -0.00683148 -0.00718453 -0.00749004 -0.00774801 -0.00795844 -0.00812133 -0.00823668 -0.0083045 -0.00832478 -0.00829812 -0.00822513 -0.00810582 -0.00794018 -0.00772821 -0.00746992 -0.00716529 -0.00681434 -0.00643828 -0.00605833 -0.00567449 -0.00528677 -0.00489516 -0.00449967 -0.00410029 -0.00369702 -0.00330204 -0.00292754 -0.00257352 -0.00223997 -0.0019269 -0.0016343 -0.00136218 -0.00111054 -0.000883085 -0.000683545 -0.000511917 -0.000368201 -0.000252397 -0.000164504 -0.000104523 -7.24536e-05 -5.54723e-05 -4.07551e-05 -2.83022e-05 -1.81134e-05 -1.01888e-05 -4.52835e-06 -1.13209e-06 0 0 2.54609e-06 1.01843e-05 2.29148e-05 4.07374e-05 6.36521e-05 9.16591e-05 0.000124758 0.000162949 0.000201676 0.000236381 0.000267065 0.000293728 0.000316369 0.000334989 0.000349587 0.000360164 0.000366907 0.000370003 0.000369452 0.000365253 0.000357408 0.000345915 0.000330775 0.000311989 0.00029434 0.000282614 0.000276812 0.000276933 0.000282977 0.000294945 0.000312836 0.00033665 0.000361255 0.000381522 0.000397448 0.000409036 0.000416284 0.000419192 0.000417761 0.00041199 0.000405585 0.000402251 0.000401988 0.000404796 0.000410676 0.000419626 0.000431647 0.000446739 0.000460299 0.000467724 0.000469013 0.000464168 0.000453186 0.00043607 0.000412818 0.000383432 0.0003278 0.000225816 7.74778e-05 -0.000117214 -0.000358258 -0.000645656 -0.000979408 -0.00135951 -0.00177936 -0.00223233 -0.00271843 -0.00323766 -0.00379002 -0.00437551 -0.00499412 -0.00564587 -0.0063092 -0.0069626 -0.00760605 -0.00823956 -0.00886313 -0.00947676 -0.0100804 -0.0106742 -0.0112258 -0.0117032 -0.0121063 -0.0124351 -0.0126896 -0.0128698 -0.0129758 -0.0130075 -0.0129658 -0.0128518 -0.0126653 -0.0124065 -0.0120753 -0.0116717 -0.0111958 -0.0106474 -0.0100598 -0.00946614 -0.0088664 -0.00826058 -0.00764869 -0.00703073 -0.0064067 -0.00577659 -0.00515944 -0.00457428 -0.00402112 -0.00349995 -0.00301078 -0.0025536 -0.00212841 -0.00173521 -0.00137982 -0.00106804 -0.000799871 -0.000575314 -0.00039437 -0.000257037 -0.000163317 -0.000113209 -8.66754e-05 -6.36799e-05 -4.42222e-05 -2.83022e-05 -1.592e-05 -7.07554e-06 -1.76889e-06 0 0 3.66636e-06 1.46655e-05 3.29973e-05 5.86618e-05 9.16591e-05 0.000131989 0.000179652 0.000234647 0.000290414 0.000340389 0.000384574 0.000422968 0.000455571 0.000482384 0.000503406 0.000518637 0.000528346 0.000532804 0.00053201 0.000525964 0.000514667 0.000498118 0.000476316 0.000449264 0.000423849 0.000406965 0.00039861 0.000398784 0.000407487 0.000424721 0.000450483 0.000484775 0.000520208 0.000549391 0.000572326 0.000589011 0.000599448 0.000603636 0.000601575 0.000593266 0.000584043 0.000579242 0.000578863 0.000582907 0.000591373 0.000604261 0.000621572 0.000643304 0.000662831 0.000673522 0.000675379 0.000668401 0.000652588 0.000627941 0.000594459 0.000552141 0.000472032 0.000325175 0.000111568 -0.000168787 -0.000515892 -0.000929745 -0.00141035 -0.0019577 -0.00256228 -0.00321456 -0.00391454 -0.00466224 -0.00545763 -0.00630073 -0.00719154 -0.00813005 -0.00908525 -0.0100261 -0.0109527 -0.011865 -0.0127629 -0.0136465 -0.0145158 -0.0153708 -0.0161652 -0.0168526 -0.017433 -0.0179065 -0.018273 -0.0185325 -0.0186851 -0.0187307 -0.0186708 -0.0185066 -0.0182381 -0.0178654 -0.0173885 -0.0168073 -0.0161219 -0.0153323 -0.0144861 -0.0136312 -0.0127676 -0.0118952 -0.0110141 -0.0101243 -0.00922564 -0.00831829 -0.00742959 -0.00658697 -0.00579042 -0.00503993 -0.00433552 -0.00367718 -0.00306491 -0.00249871 -0.00198694 -0.00153798 -0.00115181 -0.000828452 -0.000567892 -0.000370134 -0.000235176 -0.000163021 -0.000124813 -9.16991e-05 -6.36799e-05 -4.07551e-05 -2.29248e-05 -1.01888e-05 -2.5472e-06 0 0 4.99033e-06 1.99613e-05 4.49129e-05 7.98452e-05 0.000124758 0.000179652 0.000244526 0.000319381 0.000395285 0.000463308 0.000523448 0.000575707 0.000620083 0.000656578 0.000685191 0.000705922 0.000719138 0.000725206 0.000724125 0.000715896 0.000700519 0.000677993 0.00064832 0.000611498 0.000576906 0.000553924 0.000542552 0.000542789 0.000554636 0.000578092 0.000613158 0.000659833 0.00070806 0.000747782 0.000778999 0.00080171 0.000815916 0.000821616 0.000818811 0.000807501 0.000794947 0.000788412 0.000787897 0.000793401 0.000804924 0.000822467 0.000846028 0.000875609 0.000902186 0.000916739 0.000919266 0.000909768 0.000888245 0.000854697 0.000809124 0.000751526 0.000642489 0.000442599 0.000151856 -0.000229738 -0.000702186 -0.00126549 -0.00191964 -0.00266464 -0.00348754 -0.00437537 -0.00532813 -0.00634582 -0.00742844 -0.008576 -0.00978848 -0.0110659 -0.012366 -0.0136467 -0.0149079 -0.0161495 -0.0173717 -0.0185745 -0.0197577 -0.0209214 -0.0220026 -0.0229382 -0.0237283 -0.0243727 -0.0248716 -0.0252248 -0.0254325 -0.0254946 -0.025413 -0.0251895 -0.0248241 -0.0243168 -0.0236677 -0.0228766 -0.0219437 -0.0208689 -0.0197172 -0.0185536 -0.0173781 -0.0161907 -0.0149914 -0.0137802 -0.0125571 -0.0113221 -0.0101125 -0.0089656 -0.0078814 -0.00685991 -0.00590113 -0.00500505 -0.00417168 -0.00340102 -0.00270445 -0.00209336 -0.00156775 -0.00112762 -0.000772964 -0.000503793 -0.000320101 -0.000221889 -0.000169884 -0.000124813 -8.66754e-05 -5.54723e-05 -3.12032e-05 -1.38681e-05 -3.46702e-06 0 0 6.51798e-06 2.60719e-05 5.86618e-05 0.000104288 0.000162949 0.000234647 0.000319381 0.000417151 0.000516291 0.000605136 0.000683687 0.000751943 0.000809905 0.000857572 0.000894943 0.000922021 0.000939282 0.000947207 0.000945796 0.000935048 0.000914963 0.000885542 0.000846785 0.000798691 0.00075351 0.000723493 0.000708639 0.000708949 0.000724422 0.000755059 0.000800859 0.000861823 0.000924814 0.000976695 0.00101747 0.00104713 0.00106569 0.00107313 0.00106947 0.00105469 0.0010383 0.00102976 0.00102909 0.00103628 0.00105133 0.00107424 0.00110502 0.00114365 0.00117837 0.00119737 0.00120067 0.00118827 0.00116016 0.00111634 0.00105682 0.000981585 0.000839169 0.000578088 0.000198343 -0.000300067 -0.000917141 -0.00165288 -0.00250728 -0.00348035 -0.00455516 -0.00571477 -0.00695919 -0.00828842 -0.00970246 -0.0112013 -0.012785 -0.0144534 -0.0161516 -0.0178243 -0.0194715 -0.0210933 -0.0226896 -0.0242605 -0.0258059 -0.0273259 -0.0287381 -0.0299601 -0.030992 -0.0318337 -0.0324853 -0.0329467 -0.033218 -0.0332991 -0.0331925 -0.0329005 -0.0324233 -0.0317607 -0.0309129 -0.0298797 -0.0286612 -0.0272574 -0.0257531 -0.0242333 -0.022698 -0.0211471 -0.0195807 -0.0179987 -0.0164011 -0.0147881 -0.0132082 -0.0117102 -0.0102941 -0.00895988 -0.00770759 -0.00653721 -0.00544872 -0.00444214 -0.00353234 -0.00273418 -0.00204767 -0.0014728 -0.00100959 -0.000658015 -0.000418091 -0.000289814 -0.000221889 -0.000163021 -0.000113209 -7.24536e-05 -4.07551e-05 -1.81134e-05 -4.52835e-06 0 0 7.89839e-06 3.15936e-05 7.10855e-05 0.000126374 0.00019746 0.000284342 0.000387021 0.000505497 0.000624709 0.000729596 0.000820159 0.000896397 0.00095831 0.0010059 0.00103916 0.0010581 0.00106356 0.00105637 0.00103654 0.00100407 0.000958956 0.000901201 0.000830804 0.000747765 0.000667736 0.000606369 0.000563665 0.000539624 0.000534245 0.000547528 0.000579475 0.000630083 0.000684796 0.000729053 0.000762855 0.000786202 0.000799093 0.000801529 0.00079351 0.000775035 0.000757626 0.000752801 0.00076056 0.000780904 0.000813832 0.000859345 0.000917443 0.000988125 0.00105436 0.00109913 0.00112243 0.00112426 0.00110462 0.00106351 0.00100093 0.000916882 0.00075167 0.000445603 -1.31815e-06 -0.000589094 -0.00131772 -0.00218721 -0.00319755 -0.00434874 -0.00561727 -0.00697962 -0.00843579 -0.00998579 -0.0116296 -0.0133672 -0.0151987 -0.017124 -0.0190848 -0.0210229 -0.0229383 -0.024831 -0.026701 -0.0285483 -0.0303728 -0.0321747 -0.0338522 -0.0353037 -0.0365293 -0.037529 -0.0383026 -0.0388503 -0.039172 -0.0392678 -0.0391407 -0.0387938 -0.0382271 -0.0374406 -0.0364342 -0.0352081 -0.0337622 -0.0320964 -0.0303153 -0.028523 -0.0267196 -0.0249052 -0.0230796 -0.021243 -0.0193953 -0.0175365 -0.0157165 -0.0139852 -0.0123425 -0.0107886 -0.00932331 -0.00794673 -0.00665885 -0.00545965 -0.00437041 -0.0034124 -0.00258561 -0.00189006 -0.00132573 -0.000892631 -0.00059076 -0.000420116 -0.000321652 -0.000236315 -0.000164108 -0.000105029 -5.90789e-05 -2.62573e-05 -6.56432e-06 0 0 8.78065e-06 3.51226e-05 7.90258e-05 0.00014049 0.000219516 0.000316103 0.000430252 0.000561961 0.000691818 0.000800407 0.000887729 0.000953784 0.000998571 0.00102209 0.00102434 0.00100533 0.000966734 0.00091025 0.000835875 0.000743609 0.000633453 0.000505406 0.000359469 0.000195641 3.36571e-05 -0.000106749 -0.000225577 -0.000322827 -0.000398499 -0.000452592 -0.000485108 -0.000496046 -0.000497664 -0.000502222 -0.000509718 -0.000520154 -0.000533529 -0.000549843 -0.000569096 -0.000591289 -0.00060354 -0.000592969 -0.000559576 -0.000503362 -0.000424325 -0.000322467 -0.000197786 -5.02836e-05 9.31761e-05 0.000205728 0.000287373 0.000338109 0.000357939 0.00034686 0.000304874 0.000231981 6.95877e-05 -0.000240897 -0.000699474 -0.00130614 -0.0020609 -0.00296375 -0.0040147 -0.00521373 -0.00652604 -0.0079168 -0.00938601 -0.0109337 -0.0125598 -0.0142644 -0.0160474 -0.0179089 -0.0198087 -0.0217067 -0.023603 -0.0254976 -0.0273903 -0.0292813 -0.0311705 -0.033058 -0.0348254 -0.0363545 -0.0376452 -0.0386977 -0.0395119 -0.0400877 -0.0404252 -0.0405244 -0.0403892 -0.0400233 -0.0394268 -0.0385997 -0.037542 -0.0362536 -0.0347346 -0.032985 -0.0311252 -0.0292754 -0.0274356 -0.0256059 -0.0237863 -0.0219767 -0.0201772 -0.0183877 -0.0166373 -0.014955 -0.0133408 -0.0117947 -0.0103166 -0.00890671 -0.00756486 -0.00629109 -0.00511845 -0.00407996 -0.00317561 -0.00240542 -0.00176937 -0.00126747 -0.000899718 -0.000666115 -0.000509995 -0.00037469 -0.000260201 -0.000166529 -9.36725e-05 -4.16322e-05 -1.04081e-05 0 0 9.16474e-06 3.6659e-05 8.24827e-05 0.000146636 0.000229119 0.000329931 0.000449072 0.000586543 0.000717618 0.00081757 0.000886399 0.000924106 0.000930689 0.000906151 0.000850489 0.000763705 0.000648818 0.00050885 0.0003438 0.000153668 -6.15465e-05 -0.000301842 -0.00056722 -0.00085768 -0.00114873 -0.00141586 -0.00165909 -0.0018784 -0.00207381 -0.0022453 -0.00239289 -0.00251657 -0.00262257 -0.00271713 -0.00280025 -0.00287194 -0.00293218 -0.00298099 -0.00301835 -0.00304428 -0.0030452 -0.00300755 -0.00293132 -0.00281652 -0.00266314 -0.00247119 -0.00224067 -0.00197157 -0.0017052 -0.00148284 -0.00130451 -0.00117019 -0.00107989 -0.00103362 -0.00103136 -0.00107312 -0.00120708 -0.00148141 -0.00189612 -0.00245121 -0.00314667 -0.00398251 -0.00495873 -0.00607532 -0.00728146 -0.0085263 -0.00980984 -0.0111321 -0.012493 -0.0138927 -0.0153311 -0.0168082 -0.0183233 -0.0198758 -0.0214657 -0.0230929 -0.0247576 -0.0264596 -0.028199 -0.0299758 -0.0316576 -0.0331123 -0.0343398 -0.03534 -0.036113 -0.0366589 -0.0369775 -0.0370689 -0.0369379 -0.036589 -0.0360224 -0.0352381 -0.034236 -0.0330161 -0.0315785 -0.0299231 -0.0281828 -0.0264904 -0.0248459 -0.0232493 -0.0217005 -0.0201997 -0.0187468 -0.0173417 -0.0159707 -0.0146197 -0.0132889 -0.0119782 -0.0106876 -0.00941713 -0.00816675 -0.00693648 -0.00577647 -0.00473687 -0.00381767 -0.00301888 -0.0023405 -0.00178253 -0.00134497 -0.00102781 -0.000786918 -0.000578144 -0.000401489 -0.000256953 -0.000144536 -6.42382e-05 -1.60596e-05 0 0 9.05068e-06 3.62027e-05 8.14561e-05 0.000144811 0.000226267 0.000325824 0.000443483 0.000579243 0.000702109 0.000781084 0.000816168 0.000807362 0.000754665 0.000658077 0.000517599 0.00033323 0.000109808 -0.000147831 -0.000439685 -0.000765755 -0.00112604 -0.00152054 -0.00194926 -0.0024122 -0.00287941 -0.00332097 -0.00373686 -0.0041271 -0.00449168 -0.00483061 -0.00514387 -0.00543147 -0.00568991 -0.00591567 -0.00610874 -0.00626914 -0.00639686 -0.0064919 -0.00655426 -0.00658393 -0.00656735 -0.00649093 -0.00635467 -0.00615856 -0.00590262 -0.00558683 -0.00521121 -0.00477574 -0.00434076 -0.00396658 -0.00365321 -0.00340064 -0.00320887 -0.00307792 -0.00300776 -0.00299842 -0.00307832 -0.00327594 -0.00359127 -0.0040243 -0.00457504 -0.00524349 -0.00602965 -0.00693352 -0.00788353 -0.00880812 -0.00970728 -0.010581 -0.0114294 -0.0122523 -0.0130498 -0.0138218 -0.0146285 -0.01553 -0.0165262 -0.0176171 -0.0188027 -0.0200831 -0.0214583 -0.0229281 -0.024349 -0.0255773 -0.0266129 -0.0274558 -0.0281062 -0.0285639 -0.0288289 -0.0289013 -0.0287868 -0.028491 -0.028014 -0.0273558 -0.0265164 -0.0254957 -0.0242939 -0.0229107 -0.0214882 -0.0201682 -0.0189505 -0.0178353 -0.0168224 -0.015912 -0.0151041 -0.0143985 -0.0137166 -0.0129794 -0.0121869 -0.0113392 -0.0104362 -0.00947799 -0.00846452 -0.0073958 -0.00634446 -0.00538312 -0.00451178 -0.00373046 -0.00303913 -0.00243782 -0.00192651 -0.0015052 -0.00115242 -0.000846677 -0.00058797 -0.000376301 -0.000211669 -9.40753e-05 -2.35188e-05 0 0 8.43845e-06 3.37538e-05 7.59461e-05 0.000135015 0.000210961 0.000303784 0.000413484 0.000540061 0.00064529 0.000690949 0.000677036 0.000603552 0.000470497 0.00027787 2.56725e-05 -0.000286096 -0.000650297 -0.00105979 -0.00151458 -0.00201466 -0.00256003 -0.0031507 -0.00378666 -0.00446791 -0.0051584 -0.00582207 -0.00645891 -0.00706893 -0.00765212 -0.0082085 -0.00873805 -0.00924077 -0.0096997 -0.0100978 -0.0104352 -0.0107118 -0.0109276 -0.0110826 -0.0111768 -0.0112103 -0.01117 -0.0110431 -0.0108296 -0.0105295 -0.0101428 -0.00966939 -0.0091094 -0.00846279 -0.00781351 -0.00724548 -0.00675872 -0.00635323 -0.006029 -0.00578604 -0.00562434 -0.00554391 -0.00554415 -0.00562449 -0.0057849 -0.00602541 -0.006346 -0.00674669 -0.00722746 -0.00778831 -0.00833225 -0.00876226 -0.00907834 -0.0092805 -0.00936872 -0.00934302 -0.0092034 -0.00894984 -0.00872447 -0.00866939 -0.0087846 -0.00907009 -0.00952588 -0.010152 -0.0109483 -0.011915 -0.0128995 -0.0137493 -0.0144646 -0.0150452 -0.0154912 -0.0158026 -0.0159794 -0.0160216 -0.0159359 -0.0157292 -0.0154015 -0.0149528 -0.0143831 -0.0136924 -0.0128806 -0.0119479 -0.0110414 -0.0103086 -0.00974942 -0.00936388 -0.00915199 -0.00911374 -0.00924912 -0.00955815 -0.009875 -0.0100339 -0.0100347 -0.00987757 -0.00956244 -0.00908931 -0.00845818 -0.00766906 -0.00682242 -0.00601871 -0.00525795 -0.00454013 -0.00386526 -0.00323333 -0.00264434 -0.00209829 -0.00160651 -0.00118029 -0.000819646 -0.000524574 -0.000295073 -0.000131143 -3.27858e-05 0 0 7.32806e-06 2.93123e-05 6.59526e-05 0.000117249 0.000183202 0.00026381 0.000359075 0.000468996 0.000547163 0.000547165 0.000469003 0.000312677 7.81856e-05 -0.00023447 -0.00062529 -0.00109427 -0.0016315 -0.00222703 -0.00288088 -0.00359305 -0.00436352 -0.00519231 -0.00607941 -0.00702483 -0.0079857 -0.00891916 -0.00982522 -0.0107039 -0.0115551 -0.012379 -0.0131754 -0.0139445 -0.0146519 -0.0152636 -0.0157796 -0.0161998 -0.0165243 -0.016753 -0.016886 -0.0169232 -0.0168531 -0.0166641 -0.0163562 -0.0159293 -0.0153836 -0.0147189 -0.0139353 -0.0130327 -0.0121234 -0.0113196 -0.0106211 -0.010028 -0.00954028 -0.00915799 -0.0088811 -0.0087096 -0.00860457 -0.00852704 -0.00847704 -0.00845454 -0.00845956 -0.0084921 -0.00855215 -0.00863971 -0.00862762 -0.00838872 -0.00792301 -0.00723048 -0.00631114 -0.00516499 -0.00379202 -0.00219224 -0.000611083 0.000706027 0.00175909 0.0025481 0.00307305 0.00333396 0.00333081 0.00306362 0.00269097 0.00237145 0.00210508 0.00189184 0.00173174 0.00162478 0.00157095 0.00157027 0.00161471 0.00169629 0.001815 0.00197084 0.00216382 0.00239392 0.00266115 0.00296552 0.00315767 0.00308828 0.00275734 0.00216485 0.00131082 0.000195239 -0.00118189 -0.00282057 -0.00444596 -0.00578322 -0.00683237 -0.00759339 -0.00806629 -0.00825107 -0.00814773 -0.00775627 -0.00721035 -0.00664365 -0.00605618 -0.00544792 -0.00481888 -0.00416906 -0.00349846 -0.00280708 -0.00214917 -0.00157898 -0.00109652 -0.00070177 -0.000394746 -0.000175443 -4.38606e-05 0 0 5.71952e-06 2.28781e-05 5.14757e-05 9.15123e-05 0.000142988 0.000205903 0.000280256 0.000366049 0.000407726 0.000349733 0.000192069 -6.52644e-05 -0.000422269 -0.000878943 -0.00143529 -0.0020913 -0.00283379 -0.00364956 -0.0045386 -0.00550091 -0.00653651 -0.00764537 -0.00882752 -0.0100829 -0.0113613 -0.0126123 -0.0138358 -0.015032 -0.0162007 -0.0173421 -0.018456 -0.0195425 -0.0205466 -0.0214131 -0.022142 -0.0227333 -0.0231871 -0.0235033 -0.0236819 -0.0237229 -0.0236168 -0.0233539 -0.0229343 -0.022358 -0.021625 -0.0207352 -0.0196888 -0.0184855 -0.0172706 -0.0161888 -0.0152402 -0.0144249 -0.0137427 -0.0131938 -0.012778 -0.0124955 -0.0122596 -0.0119836 -0.0116677 -0.0113117 -0.0109157 -0.0104797 -0.0100037 -0.00948771 -0.00876965 -0.00768751 -0.00624129 -0.004431 -0.00225662 0.000281835 0.00318437 0.00645098 0.00971163 0.0125963 0.0151049 0.0172375 0.018994 0.0203746 0.0213792 0.0220077 0.0224223 0.0227851 0.0230961 0.0233554 0.0235628 0.0237184 0.0238222 0.0238742 0.0238651 0.0237856 0.0236356 0.0234152 0.0231244 0.0227632 0.0223315 0.0218294 0.021109 0.0200225 0.0185698 0.016751 0.014566 0.0120149 0.00909762 0.00581422 0.00257056 -0.000227471 -0.00257987 -0.00448664 -0.00594778 -0.00696328 -0.00753316 -0.00765741 -0.00750825 -0.00725794 -0.00690646 -0.00645381 -0.0059 -0.00524502 -0.00448887 -0.00363157 -0.00278042 -0.00204276 -0.00141858 -0.000907891 -0.000510689 -0.000226973 -5.67432e-05 0 0 3.61281e-06 1.44512e-05 3.25153e-05 5.7805e-05 9.03203e-05 0.000130061 0.000177028 0.00023122 0.00022698 9.86522e-05 -0.000153765 -0.000530271 -0.00103087 -0.00165555 -0.00240432 -0.00327718 -0.00425718 -0.00532736 -0.00648772 -0.00773826 -0.00907899 -0.0105099 -0.012031 -0.0136422 -0.0152852 -0.0169013 -0.0184907 -0.0200532 -0.0215888 -0.0230977 -0.0245798 -0.026035 -0.0273837 -0.0285461 -0.0295223 -0.0303122 -0.0309159 -0.0313332 -0.0315644 -0.0316092 -0.0314609 -0.0311125 -0.0305641 -0.0298156 -0.0288671 -0.0277185 -0.0263699 -0.0248212 -0.0232549 -0.0218532 -0.0206162 -0.0195439 -0.0186363 -0.0178934 -0.0173151 -0.0169016 -0.0165091 -0.0159942 -0.0153568 -0.0145969 -0.0137145 -0.0127096 -0.0115822 -0.0103323 -0.00875833 -0.00665862 -0.00403319 -0.000882033 0.00279485 0.00699745 0.0117258 0.0169798 0.0222437 0.0270013 0.0312528 0.034998 0.0382371 0.04097 0.0431967 0.0449172 0.0462946 0.0474917 0.0485086 0.0493453 0.0500019 0.0504782 0.0507744 0.0508903 0.0508153 0.0505386 0.0500603 0.0493803 0.0484987 0.0474154 0.0461304 0.0446438 0.0428126 0.040494 0.0376879 0.0343944 0.0306135 0.0263452 0.0215894 0.0163462 0.0111745 0.0066334 0.00272279 -0.000557311 -0.00320689 -0.00522594 -0.00661447 -0.00737249 -0.00771613 -0.00786157 -0.00780879 -0.0075578 -0.00710861 -0.0064612 -0.00561558 -0.00457175 -0.00350024 -0.00257161 -0.00178584 -0.00114294 -0.000642902 -0.000285734 -7.14335e-05 0 0 3.82802e-07 1.53121e-06 3.44522e-06 6.12483e-06 9.57005e-06 1.37809e-05 1.87573e-05 2.44993e-05 -4.02124e-05 -0.000246597 -0.000594655 -0.00108439 -0.00171579 -0.00248887 -0.00340362 -0.00446004 -0.00563452 -0.00690345 -0.00826681 -0.00972461 -0.0112769 -0.0129235 -0.0146647 -0.0165002 -0.0183743 -0.0202308 -0.0220698 -0.0238913 -0.0256952 -0.0274817 -0.0292506 -0.031002 -0.0326311 -0.0340331 -0.0352079 -0.0361556 -0.0368762 -0.0373696 -0.0376359 -0.0376751 -0.0374841 -0.03706 -0.0364027 -0.0355123 -0.0343887 -0.0330319 -0.031442 -0.0296189 -0.0277828 -0.0261535 -0.0247313 -0.023516 -0.0225076 -0.0217062 -0.0211117 -0.0207242 -0.0203199 -0.0196751 -0.0187898 -0.0176639 -0.0162976 -0.0146907 -0.0128433 -0.0107554 -0.00818201 -0.00487823 -0.000844039 0.00392056 0.00941557 0.015641 0.0225968 0.0302831 0.0380002 0.0450488 0.0514288 0.0571402 0.062183 0.0665572 0.0702628 0.0732999 0.0758351 0.0780354 0.0799006 0.0814308 0.0826261 0.0834863 0.0840116 0.0842018 0.0840455 0.0835309 0.082658 0.081427 0.0798377 0.0778902 0.0755844 0.0729205 0.0697579 0.0659564 0.061516 0.0564366 0.0507182 0.044361 0.0373647 0.0297295 0.0222007 0.0155235 0.00969788 0.00472393 0.000601614 -0.00266907 -0.00508812 -0.00665554 -0.00763812 -0.00830266 -0.00864916 -0.00867761 -0.00838801 -0.00778038 -0.0068547 -0.00561098 -0.0042959 -0.00315617 -0.00219179 -0.00140274 -0.000789044 -0.000350686 -8.76715e-05 0 0 -4.59565e-06 -1.83826e-05 -4.13609e-05 -7.35304e-05 -0.000114891 -0.000165443 -0.000225187 -0.000294122 -0.00043899 -0.000726535 -0.00115676 -0.00172965 -0.00244523 -0.00330348 -0.0043044 -0.00544801 -0.00669868 -0.00802082 -0.00941442 -0.0108795 -0.012416 -0.014024 -0.0157035 -0.0174544 -0.0192453 -0.0210449 -0.0228532 -0.02467 -0.0264955 -0.0283296 -0.0301724 -0.0320238 -0.0337567 -0.0352441 -0.0364861 -0.0374826 -0.0382335 -0.038739 -0.038999 -0.0390134 -0.038785 -0.0383163 -0.0376073 -0.036658 -0.0354684 -0.0340385 -0.0323683 -0.0304578 -0.0285607 -0.0269307 -0.0255678 -0.024472 -0.0236432 -0.0230816 -0.0227871 -0.0227597 -0.0226585 -0.0221426 -0.021212 -0.0198667 -0.0181068 -0.0159321 -0.0133428 -0.0103388 -0.00662906 -0.00192252 0.00378082 0.0104809 0.0181779 0.0268716 0.0365621 0.0472494 0.0579965 0.0678663 0.0768589 0.0849743 0.0922124 0.0985732 0.104057 0.108663 0.112571 0.11596 0.11883 0.121181 0.123012 0.124325 0.125118 0.125392 0.125136 0.124338 0.122998 0.121116 0.118693 0.115727 0.11222 0.108171 0.103435 0.0978636 0.0914583 0.0842188 0.076145 0.067237 0.0574948 0.0469183 0.0364836 0.0271668 0.0189677 0.0118864 0.00592296 0.0010773 -0.00265056 -0.00526061 -0.00707837 -0.00842934 -0.00931352 -0.00973092 -0.00968152 -0.00916534 -0.00818237 -0.00673261 -0.00515466 -0.00378709 -0.00262993 -0.00168315 -0.000946773 -0.000420788 -0.000105197 0 0 -1.13226e-05 -4.52902e-05 -0.000101903 -0.000181161 -0.000283064 -0.000407612 -0.000554805 -0.000724643 -0.000969353 -0.00134116 -0.00184007 -0.00246607 -0.00321918 -0.00409938 -0.00510668 -0.00624108 -0.00744965 -0.00867947 -0.00993055 -0.0112029 -0.0124965 -0.0138113 -0.0151474 -0.0165047 -0.0178985 -0.0193438 -0.0208408 -0.0223895 -0.0239897 -0.0256416 -0.0273451 -0.0291002 -0.0307604 -0.0321793 -0.0333569 -0.034293 -0.0349879 -0.0354414 -0.0356535 -0.0356243 -0.0353636 -0.0348815 -0.0341779 -0.0332528 -0.0321063 -0.0307383 -0.0291487 -0.0273378 -0.0255886 -0.0241846 -0.0231257 -0.0224119 -0.0220432 -0.0220197 -0.0223413 -0.023008 -0.0235248 -0.0233966 -0.0226234 -0.0212052 -0.0191421 -0.0164339 -0.0130807 -0.00908256 -0.00409946 0.00220852 0.00984138 0.0187991 0.0290817 0.0406892 0.0536216 0.0678789 0.0822325 0.0954539 0.107543 0.1185 0.128325 0.137018 0.144579 0.151007 0.156503 0.161267 0.165297 0.168596 0.171161 0.172994 0.174094 0.174461 0.174086 0.172959 0.171079 0.168447 0.165063 0.160927 0.156038 0.150397 0.143843 0.136215 0.127515 0.117741 0.106894 0.0949733 0.0819796 0.0679126 0.0540234 0.0415633 0.0305322 0.0209302 0.0127572 0.00601318 0.000698227 -0.00318769 -0.00603687 -0.0082416 -0.00980189 -0.0107177 -0.0109891 -0.0106161 -0.00959859 -0.00793665 -0.0060765 -0.00446436 -0.00310025 -0.00198416 -0.00111609 -0.000496041 -0.00012401 0 0 -1.97979e-05 -7.91916e-05 -0.000178181 -0.000316766 -0.000494947 -0.000712724 -0.000970097 -0.00126707 -0.0016313 -0.00209048 -0.00264459 -0.00329365 -0.00403764 -0.00487657 -0.00581044 -0.00683925 -0.00788743 -0.00887942 -0.0098152 -0.0106948 -0.0115182 -0.0122854 -0.0129964 -0.0136512 -0.0143336 -0.0151275 -0.0160328 -0.0170496 -0.0181778 -0.0194176 -0.0207687 -0.0222313 -0.0236423 -0.0248386 -0.0258202 -0.0265871 -0.0271393 -0.0274767 -0.0275995 -0.0275075 -0.0272199 -0.0267556 -0.0261145 -0.0252968 -0.0243024 -0.0231312 -0.0217834 -0.0202589 -0.0188665 -0.0179152 -0.0174049 -0.0173357 -0.0177075 -0.0185204 -0.0197743 -0.0214692 -0.022919 -0.0234373 -0.0230241 -0.0216795 -0.0194035 -0.016196 -0.012057 -0.00698666 -0.000593223 0.00751488 0.0173376 0.0288751 0.0421272 0.0570939 0.0737753 0.0921714 0.110708 0.127812 0.143482 0.157718 0.170522 0.181892 0.191829 0.200332 0.207631 0.213954 0.219302 0.223675 0.227072 0.229493 0.230939 0.231409 0.230897 0.229395 0.226903 0.223421 0.21895 0.213488 0.207037 0.199596 0.190982 0.181012 0.169685 0.157003 0.142965 0.12757 0.110819 0.0927123 0.0748201 0.0587131 0.0443915 0.0318552 0.0211042 0.0121386 0.00495823 -0.000436784 -0.00451362 -0.00773945 -0.0101143 -0.0116381 -0.0123108 -0.0121326 -0.0111034 -0.00922309 -0.00706143 -0.00518799 -0.00360277 -0.00230577 -0.001297 -0.000576443 -0.000144111 0 0 -3.00217e-05 -0.000120087 -0.000270195 -0.000480347 -0.000750542 -0.00108078 -0.00147106 -0