<?xml version="1.0"?> 
<VTKFile type="StructuredGrid" version="0.1"> 
<StructuredGrid WholeExtent="0 128 0 128 0 0"> 
<Piece Extent="0 128 0 128 0 0"> 
<PointData>
<DataArray type="Float32" Name="u" format="ascii" NumberOfComponents="1"> 
0 0 0 0 0 0 0 0 0 0 0 0 0 0 0 0 0 0 0 0 0 0 0 0 0 0 0 0 0 0 0 0 0 0 0 0 0 0 0 0 0 0 0 0 0 0 0 0 0 0 0 0 0 0 0 0 0 0 0 0 0 0 0 0 0 0 0 0 0 0 0 0 0 0 0 0 0 0 0 0 0 0 0 0 0 0 0 0 0 0 0 0 0 0 0 0 0 0 0 0 0 0 0 0 0 0 0 0 0 0 0 0 0 0 0 0 0 0 0 0 0 0 0 0 0 0 0 0 0 0 1.03983e-07 4.1593e-07 9.35843e-07 1.66372e-06 2.59956e-06 3.74337e-06 5.09514e-06 6.65488e-06 8.21575e-06 9.5709e-06 1.07203e-05 1.16641e-05 1.24021e-05 1.29344e-05 1.3261e-05 1.33819e-05 1.33119e-05 1.30659e-05 1.26437e-05 1.20455e-05 1.12712e-05 1.03209e-05 9.19444e-06 7.89193e-06 6.61902e-06 5.58137e-06 4.77898e-06 4.21186e-06 3.87999e-06 3.78339e-06 3.92205e-06 4.29597e-06 4.74165e-06 5.09559e-06 5.35779e-06 5.52825e-06 5.60697e-06 5.59395e-06 5.48919e-06 5.29269e-06 5.14134e-06 5.17203e-06 5.38476e-06 5.77953e-06 6.35633e-06 7.11518e-06 8.05606e-06 9.17898e-06 1.02451e-05 1.10157e-05 1.14907e-05 1.16701e-05 1.15539e-05 1.11421e-05 1.04348e-05 9.43188e-06 7.386e-06 3.54981e-06 -2.07671e-06 -9.49353e-06 -1.87007e-05 -2.96981e-05 -4.24859e-05 -5.7064e-05 -7.31854e-05 -9.06029e-05 -0.000109317 -0.000129327 -0.000150633 -0.000173235 -0.000197134 -0.000222328 -0.000248022 -0.000273417 -0.000298513 -0.00032331 -0.000347809 -0.000372009 -0.000395911 -0.000419514 -0.000441486 -0.000460497 -0.000476546 -0.000489633 -0.000499759 -0.000506922 -0.000511124 -0.000512364 -0.000510688 -0.00050614 -0.000498723 -0.000488434 -0.000475274 -0.000459244 -0.000440343 -0.000418571 -0.000395289 -0.000371856 -0.000348272 -0.000324538 -0.000300652 -0.000276617 -0.00025243 -0.000228093 -0.000204284 -0.000181681 -0.000160284 -0.000140094 -0.00012111 -0.000103332 -8.676e-05 -7.13947e-05 -5.74587e-05 -4.5175e-05 -3.45437e-05 -2.55648e-05 -1.82383e-05 -1.25641e-05 -8.54233e-06 -6.17291e-06 -4.72614e-06 -3.47226e-06 -2.41129e-06 -1.54323e-06 -8.68066e-07 -3.85807e-07 -9.64518e-08 0 0 4.1593e-07 1.66372e-06 3.74337e-06 6.65488e-06 1.03983e-05 1.49735e-05 2.03806e-05 2.66195e-05 3.2863e-05 3.82836e-05 4.28814e-05 4.66563e-05 4.96084e-05 5.17377e-05 5.30441e-05 5.35277e-05 5.32477e-05 5.22635e-05 5.05749e-05 4.81821e-05 4.50849e-05 4.12835e-05 3.67777e-05 3.15677e-05 2.64761e-05 2.23255e-05 1.91159e-05 1.68474e-05 1.552e-05 1.51336e-05 1.56882e-05 1.71839e-05 1.89666e-05 2.03824e-05 2.14312e-05 2.2113e-05 2.24279e-05 2.23758e-05 2.19568e-05 2.11708e-05 2.05654e-05 2.06881e-05 2.1539e-05 2.31181e-05 2.54253e-05 2.84607e-05 3.22242e-05 3.67159e-05 4.09805e-05 4.40628e-05 4.59628e-05 4.66804e-05 4.62156e-05 4.45686e-05 4.17392e-05 3.77275e-05 2.9544e-05 1.41992e-05 -8.30682e-06 -3.79741e-05 -7.48027e-05 -0.000118793 -0.000169944 -0.000228256 -0.000292741 -0.000362412 -0.000437267 -0.000517306 -0.000602531 -0.00069294 -0.000788534 -0.000889313 -0.000992087 -0.00109367 -0.00119405 -0.00129324 -0.00139124 -0.00148804 -0.00158364 -0.00167805 -0.00176594 -0.00184199 -0.00190618 -0.00195853 -0.00199903 -0.00202769 -0.0020445 -0.00204946 -0.00204275 -0.00202456 -0.00199489 -0.00195374 -0.0019011 -0.00183698 -0.00176137 -0.00167429 -0.00158116 -0.00148742 -0.00139309 -0.00129815 -0.00120261 -0.00110647 -0.00100972 -0.000912373 -0.000817136 -0.000726724 -0.000641137 -0.000560375 -0.000484438 -0.000413327 -0.00034704 -0.000285579 -0.000229835 -0.0001807 -0.000138175 -0.000102259 -7.29531e-05 -5.02565e-05 -3.41693e-05 -2.46917e-05 -1.89045e-05 -1.38891e-05 -9.64518e-06 -6.17291e-06 -3.47226e-06 -1.54323e-06 -3.85807e-07 0 0 9.35843e-07 3.74337e-06 8.42258e-06 1.49735e-05 2.33961e-05 3.36903e-05 4.58563e-05 5.98939e-05 7.39417e-05 8.61381e-05 9.64831e-05 0.000104977 0.000111619 0.00011641 0.000119349 0.000120437 0.000119807 0.000117593 0.000113794 0.00010841 0.000101441 9.28878e-05 8.27499e-05 7.10274e-05 5.95712e-05 5.02323e-05 4.30109e-05 3.79067e-05 3.49199e-05 3.40505e-05 3.52984e-05 3.86637e-05 4.26748e-05 4.58603e-05 4.82201e-05 4.97542e-05 5.04627e-05 5.03456e-05 4.94027e-05 4.76342e-05 4.62721e-05 4.65483e-05 4.84628e-05 5.20157e-05 5.7207e-05 6.40366e-05 7.25045e-05 8.26109e-05 9.22062e-05 9.91413e-05 0.000103416 0.000105031 0.000103985 0.000100279 9.39132e-05 8.48869e-05 6.6474e-05 3.19482e-05 -1.86904e-05 -8.54418e-05 -0.000168306 -0.000267283 -0.000382373 -0.000513576 -0.000658668 -0.000815426 -0.00098385 -0.00116394 -0.00135569 -0.00155912 -0.0017742 -0.00200095 -0.0022322 -0.00246075 -0.00268661 -0.00290979 -0.00313028 -0.00334808 -0.0035632 -0.00377562 -0.00397338 -0.00414447 -0.00428891 -0.0044067 -0.00449783 -0.0045623 -0.00460012 -0.00461128 -0.00459619 -0.00455526 -0.0044885 -0.00439591 -0.00427747 -0.0041332 -0.00396309 -0.00376714 -0.0035576 -0.0033467 -0.00313445 -0.00292084 -0.00270587 -0.00248955 -0.00227187 -0.00205284 -0.00183856 -0.00163513 -0.00144256 -0.00126084 -0.00108999 -0.000929985 -0.00078084 -0.000642552 -0.000517128 -0.000406575 -0.000310894 -0.000230083 -0.000164145 -0.000113077 -7.6881e-05 -5.55562e-05 -4.25352e-05 -3.12504e-05 -2.17017e-05 -1.38891e-05 -7.81259e-06 -3.47226e-06 -8.68066e-07 0 0 1.66372e-06 6.65488e-06 1.49735e-05 2.66195e-05 4.1593e-05 5.98939e-05 8.15223e-05 0.000106478 0.000131452 0.000153134 0.000171526 0.000186625 0.000198434 0.000206951 0.000212177 0.000214111 0.000212991 0.000209054 0.0002023 0.000192728 0.00018034 0.000165134 0.000147111 0.000126271 0.000105904 8.9302e-05 7.64638e-05 6.73897e-05 6.20799e-05 6.05342e-05 6.27528e-05 6.87355e-05 7.58664e-05 8.15294e-05 8.57246e-05 8.8452e-05 8.97115e-05 8.95032e-05 8.78271e-05 8.46831e-05 8.22615e-05 8.27525e-05 8.61562e-05 9.24724e-05 0.000101701 0.000113843 0.000128897 0.000146864 0.000163922 0.000176251 0.000183851 0.000186721 0.000184863 0.000178274 0.000166957 0.00015091 0.000118176 5.67969e-05 -3.32273e-05 -0.000151897 -0.000299211 -0.00047517 -0.000679775 -0.000913024 -0.00117097 -0.00144965 -0.00174907 -0.00206923 -0.00241012 -0.00277176 -0.00315414 -0.00355725 -0.00396835 -0.00437466 -0.0047762 -0.00517296 -0.00556494 -0.00595215 -0.00633457 -0.00671222 -0.00706378 -0.00736795 -0.00762474 -0.00783413 -0.00799614 -0.00811075 -0.00817798 -0.00819782 -0.008171 -0.00809825 -0.00797956 -0.00781494 -0.00760439 -0.00734791 -0.00704549 -0.00669714 -0.00632462 -0.00594969 -0.00557235 -0.0051926 -0.00481044 -0.00442587 -0.00403888 -0.00364949 -0.00326854 -0.00290689 -0.00256455 -0.0022415 -0.00193775 -0.00165331 -0.00138816 -0.00114232 -0.000919339 -0.0007228 -0.0005527 -0.000409037 -0.000291812 -0.000201026 -0.000136677 -9.87666e-05 -7.56182e-05 -5.55562e-05 -3.85807e-05 -2.46917e-05 -1.38891e-05 -6.17291e-06 -1.54323e-06 0 0 2.59956e-06 1.03983e-05 2.33961e-05 4.1593e-05 6.49891e-05 9.35843e-05 0.000127379 0.000166372 0.000205394 0.000239273 0.000268009 0.000291602 0.000310053 0.000323361 0.000331526 0.000334548 0.000332798 0.000326647 0.000316093 0.000301138 0.000281781 0.000258022 0.000229861 0.000197298 0.000165476 0.000139534 0.000119475 0.000105296 9.69998e-05 9.45848e-05 9.80512e-05 0.000107399 0.000118541 0.00012739 0.000133945 0.000138206 0.000140174 0.000139849 0.00013723 0.000132317 0.000128534 0.000129301 0.000134619 0.000144488 0.000158908 0.000177879 0.000201402 0.000229475 0.000256128 0.000275393 0.000287267 0.000291752 0.000288848 0.000278554 0.00026087 0.000235797 0.00018465 8.87451e-05 -5.19176e-05 -0.000237338 -0.000467517 -0.000742454 -0.00106215 -0.0014266 -0.00182963 -0.00226507 -0.00273292 -0.00323316 -0.00376582 -0.00433088 -0.00492834 -0.00555821 -0.00620054 -0.00683541 -0.00746282 -0.00808275 -0.00869522 -0.00930023 -0.00989777 -0.0104878 -0.0110372 -0.0115124 -0.0119136 -0.0122408 -0.012494 -0.0126731 -0.0127781 -0.0128091 -0.0127672 -0.0126535 -0.0124681 -0.0122108 -0.0118819 -0.0114811 -0.0110086 -0.0104643 -0.00988222 -0.0092964 -0.0087068 -0.00811344 -0.00751631 -0.00691542 -0.00631076 -0.00570233 -0.0051071 -0.00454202 -0.0040071 -0.00350234 -0.00302774 -0.00258329 -0.002169 -0.00178487 -0.00143647 -0.00112938 -0.000863593 -0.00063912 -0.000455957 -0.000314103 -0.000213558 -0.000154323 -0.000118153 -8.68066e-05 -6.02824e-05 -3.85807e-05 -2.17017e-05 -9.64518e-06 -2.41129e-06 0 0 3.74337e-06 1.49735e-05 3.36903e-05 5.98939e-05 9.35843e-05 0.000134761 0.000183425 0.000239576 0.000295767 0.000344552 0.000385933 0.000419907 0.000446476 0.000465639 0.000477397 0.000481749 0.00047923 0.000470371 0.000455174 0.000433638 0.000405764 0.000371551 0.000331 0.00028411 0.000238285 0.000200929 0.000172043 0.000151627 0.00013968 0.000136202 0.000141194 0.000154655 0.000170699 0.000183441 0.00019288 0.000199017 0.000201851 0.000201382 0.000197611 0.000190537 0.000185088 0.000186193 0.000193851 0.000208063 0.000228828 0.000256146 0.000290018 0.000330443 0.000368825 0.000396565 0.000413665 0.000420123 0.000415941 0.000401117 0.000375653 0.000339548 0.000265896 0.000127793 -7.47614e-05 -0.000341767 -0.000673224 -0.00106913 -0.00152949 -0.0020543 -0.00263467 -0.0032617 -0.0039354 -0.00465576 -0.00542278 -0.00623646 -0.00709681 -0.00800382 -0.00892878 -0.00984299 -0.0107465 -0.0116392 -0.0125211 -0.0133923 -0.0142528 -0.0151025 -0.0158935 -0.0165779 -0.0171557 -0.0176268 -0.0179913 -0.0182492 -0.0184005 -0.0184451 -0.0183848 -0.0182211 -0.017954 -0.0175836 -0.0171099 -0.0165328 -0.0158524 -0.0150686 -0.0142304 -0.0133868 -0.0125378 -0.0116834 -0.0108235 -0.0099582 -0.00908749 -0.00821135 -0.00735422 -0.00654051 -0.00577023 -0.00504337 -0.00435994 -0.00371994 -0.00312336 -0.00257021 -0.00206851 -0.0016263 -0.00124357 -0.000920333 -0.000656578 -0.000452308 -0.000307524 -0.000222225 -0.000170141 -0.000125002 -8.68066e-05 -5.55562e-05 -3.12504e-05 -1.38891e-05 -3.47226e-06 0 0 5.09514e-06 2.03806e-05 4.58563e-05 8.15223e-05 0.000127379 0.000183425 0.000249662 0.000326089 0.000402572 0.000468974 0.000525297 0.00057154 0.000607703 0.000633787 0.000649791 0.000655715 0.000652285 0.000640227 0.000619543 0.00059023 0.00055229 0.000505723 0.000450527 0.000386705 0.000324332 0.000273487 0.00023417 0.000206381 0.00019012 0.000185386 0.00019218 0.000210502 0.000232341 0.000249684 0.000262532 0.000270884 0.000274742 0.000274104 0.00026897 0.000259342 0.000251926 0.00025343 0.000263853 0.000283197 0.00031146 0.000348644 0.000394747 0.00044977 0.000502012 0.000539769 0.000563044 0.000571834 0.000566142 0.000545965 0.000511305 0.000462162 0.000361914 0.00017394 -0.000101759 -0.000465183 -0.000916333 -0.00145521 -0.00208181 -0.00279614 -0.00358608 -0.00443954 -0.00535652 -0.006337 -0.007381 -0.00848852 -0.00965954 -0.0108941 -0.0121531 -0.0133974 -0.0146271 -0.0158422 -0.0170426 -0.0182284 -0.0193996 -0.0205562 -0.0216328 -0.0225644 -0.0233508 -0.023992 -0.0244882 -0.0248392 -0.0250451 -0.0251058 -0.0250237 -0.0248009 -0.0244374 -0.0239333 -0.0232884 -0.022503 -0.0215768 -0.02051 -0.0193692 -0.0182209 -0.0170653 -0.0159023 -0.014732 -0.0135542 -0.0123691 -0.0111766 -0.0100099 -0.00890236 -0.00785392 -0.00686459 -0.00593437 -0.00506325 -0.00425124 -0.00349834 -0.00281547 -0.00221358 -0.00169264 -0.00125268 -0.000893676 -0.000615642 -0.000418574 -0.000302473 -0.000231581 -0.000170141 -0.000118153 -7.56182e-05 -4.25352e-05 -1.89045e-05 -4.72614e-06 0 0 6.65488e-06 2.66195e-05 5.98939e-05 0.000106478 0.000166372 0.000239576 0.000326089 0.000425912 0.000525808 0.000612538 0.000686102 0.000746501 0.000793735 0.000827803 0.000848706 0.000856443 0.000851964 0.000836215 0.000809198 0.000770913 0.000721359 0.000660536 0.000588444 0.000505084 0.000423617 0.000357208 0.000305855 0.000269559 0.00024832 0.000242137 0.000251011 0.000274942 0.000303465 0.000326118 0.000342898 0.000353808 0.000358846 0.000358013 0.000351308 0.000338732 0.000329046 0.00033101 0.000344625 0.00036989 0.000406805 0.000455371 0.000515588 0.000587455 0.000655689 0.000705005 0.000735404 0.000746886 0.00073945 0.000713098 0.000667827 0.00060364 0.000472704 0.000227188 -0.000132909 -0.000607586 -0.00119684 -0.00190068 -0.0027191 -0.0036521 -0.00468386 -0.00579859 -0.00699627 -0.0082769 -0.00964049 -0.011087 -0.0126165 -0.014229 -0.0158734 -0.0174987 -0.0191048 -0.0206918 -0.0222598 -0.0238086 -0.0253383 -0.0268489 -0.0282551 -0.0294718 -0.0304989 -0.0313365 -0.0319845 -0.032443 -0.0327119 -0.0327913 -0.032684 -0.032393 -0.0319182 -0.0312598 -0.0304176 -0.0293916 -0.028182 -0.0267886 -0.0252985 -0.0237988 -0.0222894 -0.0207704 -0.0192418 -0.0177035 -0.0161555 -0.014598 -0.0130742 -0.0116276 -0.0102582 -0.008966 -0.00775101 -0.00661323 -0.00555264 -0.00456926 -0.00367735 -0.0028912 -0.0022108 -0.00163615 -0.00116725 -0.000804104 -0.000546709 -0.000395066 -0.000302473 -0.000222225 -0.000154323 -9.87666e-05 -5.55562e-05 -2.46917e-05 -6.17291e-06 0 0 8.04201e-06 3.2168e-05 7.23781e-05 0.000128672 0.00020105 0.000289512 0.000394058 0.000514688 0.000634483 0.000736524 0.000820811 0.000887343 0.000936121 0.000967145 0.000980415 0.00097593 0.000955094 0.000919308 0.000868572 0.000802886 0.00072225 0.000626664 0.000516129 0.000390644 0.000266909 0.000161626 7.47934e-05 6.412e-06 -4.35183e-05 -7.49976e-05 -8.80258e-05 -8.2603e-05 -6.99714e-05 -6.13731e-05 -5.68083e-05 -5.62768e-05 -5.97788e-05 -6.73141e-05 -7.88828e-05 -9.4485e-05 -0.000103538 -9.54589e-05 -7.02481e-05 -2.79053e-05 3.15693e-05 0.000108176 0.000201914 0.000312784 0.000419515 0.000500835 0.000556743 0.000587241 0.000592328 0.000572003 0.000526268 0.000455121 0.000303411 1.59851e-05 -0.000407157 -0.000966016 -0.00166059 -0.00249088 -0.00345689 -0.00455861 -0.00577401 -0.00708104 -0.00847971 -0.00997002 -0.011552 -0.0132255 -0.0149908 -0.0168476 -0.0187426 -0.0206222 -0.0224865 -0.0243353 -0.0261689 -0.027987 -0.0297898 -0.0315772 -0.0332445 -0.034687 -0.0359047 -0.0368975 -0.0376656 -0.0382087 -0.0385271 -0.0386206 -0.038493 -0.0381479 -0.0375852 -0.0368051 -0.0358075 -0.0345924 -0.0331598 -0.0315096 -0.0297486 -0.0279833 -0.0262137 -0.0244397 -0.0226615 -0.020879 -0.0190921 -0.017301 -0.0155492 -0.0138805 -0.0122949 -0.0107923 -0.0093728 -0.00803636 -0.00678299 -0.00561268 -0.00454588 -0.00360302 -0.00278412 -0.00208916 -0.00151814 -0.00107108 -0.000747959 -0.000548788 -0.000420166 -0.000308693 -0.00021437 -0.000137197 -7.71734e-05 -3.42993e-05 -8.57482e-06 0 0 8.87594e-06 3.55038e-05 7.98835e-05 0.000142015 0.000221899 0.000319534 0.000434921 0.00056806 0.000697607 0.000802215 0.000881885 0.000936618 0.000966413 0.00097127 0.000951189 0.00090617 0.000838503 0.000750477 0.000642092 0.000513348 0.000364245 0.000194783 4.96239e-06 -0.000205217 -0.000415023 -0.000603724 -0.000771319 -0.000917808 -0.00104319 -0.00114747 -0.00123064 -0.00129271 -0.00134201 -0.0013869 -0.00142738 -0.00146344 -0.00149508 -0.0015223 -0.00154511 -0.0015635 -0.00156581 -0.00154037 -0.00148718 -0.00140624 -0.00129754 -0.0011611 -0.000996901 -0.000804954 -0.000616849 -0.000464178 -0.00034694 -0.000265136 -0.000218765 -0.000207828 -0.000232325 -0.000292255 -0.000440819 -0.000731216 -0.00116345 -0.00173751 -0.00245341 -0.00331114 -0.0043107 -0.0054521 -0.00670251 -0.00802912 -0.00943193 -0.0109109 -0.0124661 -0.0140975 -0.0158051 -0.0175889 -0.0194135 -0.0212435 -0.023079 -0.0249199 -0.0267662 -0.028618 -0.0304752 -0.0323378 -0.0340853 -0.0355968 -0.0368725 -0.0379123 -0.0387163 -0.0392844 -0.0396166 -0.039713 -0.039578 -0.039216 -0.0386271 -0.0378113 -0.0367685 -0.0354988 -0.0340021 -0.0322785 -0.0304497 -0.0286375 -0.0268418 -0.0250626 -0.0232999 -0.0215537 -0.0198241 -0.018111 -0.0164373 -0.0148255 -0.0132758 -0.0117882 -0.0103627 -0.00899916 -0.0076977 -0.00645831 -0.00531277 -0.00429289 -0.00339867 -0.0026301 -0.0019872 -0.00146995 -0.00107835 -0.000812421 -0.00062201 -0.000456987 -0.000317352 -0.000203105 -0.000114247 -5.07763e-05 -1.26941e-05 0 0 9.15669e-06 3.66268e-05 8.24102e-05 0.000146507 0.000228917 0.000329641 0.000448678 0.000586028 0.000715177 0.00080961 0.000869326 0.000894326 0.000884609 0.000840176 0.000761027 0.000647162 0.00050219 0.000329722 0.000129759 -9.7701e-05 -0.000352657 -0.000635108 -0.000945056 -0.0012825 -0.00162218 -0.00193884 -0.00223248 -0.0025031 -0.0027507 -0.00297528 -0.00317684 -0.00335538 -0.00351266 -0.00365048 -0.00376881 -0.00386767 -0.00394705 -0.00400695 -0.00404737 -0.00406832 -0.00405778 -0.00400373 -0.00390617 -0.0037651 -0.00358053 -0.00335245 -0.00308086 -0.00276576 -0.00245341 -0.00219003 -0.00197565 -0.00181025 -0.00169383 -0.0016264 -0.00160795 -0.00163849 -0.00175999 -0.00201442 -0.00240178 -0.00292207 -0.0035753 -0.00436146 -0.00528055 -0.00633257 -0.00746938 -0.00864282 -0.0098529 -0.0110996 -0.012383 -0.013703 -0.0150596 -0.0164528 -0.0178861 -0.0193626 -0.0208824 -0.0224455 -0.0240519 -0.0257015 -0.0273945 -0.0291307 -0.0307773 -0.0322012 -0.0334024 -0.0343809 -0.0351368 -0.03567 -0.0359805 -0.0360684 -0.0359389 -0.0355974 -0.0350438 -0.0342782 -0.0333005 -0.0321108 -0.0307091 -0.0290953 -0.0274019 -0.0257613 -0.0241737 -0.0226388 -0.0211569 -0.0197278 -0.0183516 -0.0170282 -0.0157383 -0.0144626 -0.0132011 -0.0119538 -0.0107206 -0.00950161 -0.00829679 -0.00710615 -0.00597803 -0.0049608 -0.00405446 -0.00325899 -0.00257441 -0.00200071 -0.0015379 -0.00118596 -0.000908003 -0.000667104 -0.000463267 -0.000296491 -0.000166776 -7.41227e-05 -1.85307e-05 0 0 8.88425e-06 3.5537e-05 7.99582e-05 0.000142148 0.000222106 0.000319833 0.000435328 0.000568592 0.000687195 0.000758709 0.000783132 0.000760466 0.000690711 0.000573866 0.000409931 0.000198906 -5.38441e-05 -0.000342955 -0.000668427 -0.00103026 -0.00142845 -0.00186301 -0.00233393 -0.0028412 -0.00335456 -0.00384373 -0.0043087 -0.00474947 -0.00516605 -0.00555843 -0.00592661 -0.0062706 -0.00658192 -0.00685209 -0.00708111 -0.00726897 -0.00741569 -0.00752126 -0.00758567 -0.00760894 -0.00757943 -0.00748552 -0.00732721 -0.0071045 -0.00681739 -0.00646587 -0.00604996 -0.00556964 -0.00509015 -0.00467673 -0.00432938 -0.00404809 -0.00383286 -0.0036837 -0.00360061 -0.00358358 -0.00365409 -0.00383361 -0.00412215 -0.0045197 -0.00502626 -0.00564183 -0.00636642 -0.00720002 -0.0080746 -0.00892214 -0.00974264 -0.0105361 -0.0113025 -0.0120419 -0.0127542 -0.0134395 -0.0141604 -0.0149794 -0.0158967 -0.0169121 -0.0180258 -0.0192376 -0.0205476 -0.0219559 -0.0233206 -0.0245001 -0.0254943 -0.0263033 -0.026927 -0.0273655 -0.0276188 -0.0276868 -0.0275759 -0.027292 -0.0268354 -0.0262059 -0.0254036 -0.0244285 -0.0232806 -0.0219598 -0.020605 -0.0193549 -0.0182094 -0.0171686 -0.0162325 -0.0154011 -0.0146744 -0.0140523 -0.0134524 -0.0127918 -0.0120706 -0.0112889 -0.0104466 -0.00954371 -0.00858024 -0.00755619 -0.00654167 -0.00560676 -0.00475148 -0.00397582 -0.00327978 -0.00266337 -0.00212658 -0.00166942 -0.00127815 -0.000939047 -0.000652116 -0.000417354 -0.000234762 -0.000104339 -2.60846e-05 0 0 8.05862e-06 3.22345e-05 7.25276e-05 0.000128938 0.000201465 0.00029011 0.000394872 0.000515752 0.000613661 0.000649512 0.000623305 0.00053504 0.000384718 0.000172337 -0.000102101 -0.000438598 -0.0008296 -0.00126756 -0.00175247 -0.00228433 -0.00286315 -0.00348892 -0.00416165 -0.00488133 -0.00561217 -0.00631838 -0.00699996 -0.00765691 -0.00828923 -0.00889691 -0.00947997 -0.0100384 -0.0105498 -0.0109917 -0.0113643 -0.0116674 -0.011901 -0.0120652 -0.01216 -0.0121854 -0.0121308 -0.0119858 -0.0117503 -0.0114244 -0.0110081 -0.0105014 -0.00990419 -0.00921658 -0.00852709 -0.00792427 -0.00740813 -0.00697866 -0.00663587 -0.00637975 -0.0062103 -0.00612753 -0.00612313 -0.00618881 -0.00632456 -0.00653039 -0.00680629 -0.00715227 -0.00756832 -0.00805444 -0.00851818 -0.00886708 -0.00910114 -0.00922036 -0.00922474 -0.00911428 -0.00888898 -0.00854883 -0.00823635 -0.00809402 -0.00812184 -0.00831982 -0.00868796 -0.00922625 -0.0099347 -0.0108133 -0.0117152 -0.0124935 -0.0131483 -0.0136794 -0.014087 -0.014371 -0.0145315 -0.0145683 -0.0144888 -0.0142999 -0.0140018 -0.0135945 -0.0130778 -0.0124519 -0.0117167 -0.0108722 -0.0100591 -0.00941803 -0.00894894 -0.00865186 -0.00852678 -0.00857371 -0.00879264 -0.00918358 -0.00957942 -0.00981304 -0.00988446 -0.00979368 -0.00954068 -0.00912548 -0.00854807 -0.00780845 -0.00700367 -0.00623076 -0.00548974 -0.00478059 -0.00410332 -0.00345793 -0.00284441 -0.00226278 -0.00173244 -0.00127281 -0.000883899 -0.000565695 -0.000318203 -0.000141424 -3.53559e-05 0 0 6.6798e-06 2.67192e-05 6.01182e-05 0.000106877 0.000166995 0.000240473 0.00032731 0.000427507 0.000494574 0.000482019 0.000389843 0.000218047 -3.33706e-05 -0.000364409 -0.000775068 -0.00126535 -0.00182508 -0.00244408 -0.00312236 -0.00385991 -0.00465674 -0.00551284 -0.00642822 -0.00740287 -0.008395 -0.0093628 -0.0103063 -0.0112254 -0.0121202 -0.0129907 -0.0138369 -0.0146587 -0.0154163 -0.0160694 -0.0166183 -0.0170628 -0.017403 -0.0176389 -0.0177704 -0.0177976 -0.0177118 -0.0175044 -0.0171755 -0.0167249 -0.0161527 -0.015459 -0.0146436 -0.0137066 -0.0127642 -0.0119327 -0.0112119 -0.010602 -0.0101028 -0.00971453 -0.00943703 -0.00927034 -0.00916711 -0.00908001 -0.00900902 -0.00895415 -0.0089154 -0.00889276 -0.00888624 -0.00889584 -0.00880012 -0.00847764 -0.00792841 -0.00715241 -0.00614966 -0.00492015 -0.00346388 -0.00178085 -0.000114033 0.00129362 0.0024421 0.00333142 0.00396157 0.00433255 0.00444436 0.00429701 0.00403891 0.00381848 0.00363574 0.00349067 0.00338328 0.00331356 0.00328153 0.00328717 0.00332234 0.00337891 0.00345687 0.00355622 0.00367697 0.0038191 0.00398263 0.00416754 0.00423575 0.00404913 0.00360769 0.00291142 0.00196033 0.000754425 -0.000706307 -0.00242186 -0.00411947 -0.00552638 -0.00664257 -0.00746806 -0.00800283 -0.0082469 -0.00820026 -0.00786292 -0.00736404 -0.00683281 -0.00626923 -0.0056733 -0.00504501 -0.00438438 -0.00369139 -0.00296605 -0.00227089 -0.00166841 -0.00115862 -0.000741514 -0.000417101 -0.000185378 -4.63446e-05 0 0 4.74779e-06 1.89912e-05 4.27301e-05 7.59647e-05 0.000118695 0.000170921 0.000232642 0.000303859 0.000329934 0.00025623 8.27478e-05 -0.000190513 -0.000563554 -0.00103637 -0.00160897 -0.00228135 -0.00304028 -0.00387253 -0.0047781 -0.005757 -0.00680923 -0.00793477 -0.00913365 -0.0104058 -0.0117031 -0.012977 -0.0142276 -0.015455 -0.0166591 -0.0178399 -0.0189974 -0.0201317 -0.0211813 -0.0220852 -0.0228432 -0.0234553 -0.0239217 -0.0242421 -0.0244168 -0.0244456 -0.0243225 -0.0240416 -0.0236027 -0.0230059 -0.0222512 -0.0213386 -0.0202681 -0.0190397 -0.0178015 -0.0167019 -0.0157407 -0.014918 -0.0142338 -0.013688 -0.0132808 -0.013012 -0.012786 -0.0125072 -0.0121755 -0.011791 -0.0113536 -0.0108633 -0.0103202 -0.00972422 -0.00892042 -0.00775383 -0.00622444 -0.00433225 -0.00207727 0.000540504 0.00352107 0.00686444 0.0102066 0.0131835 0.0157952 0.0180416 0.0199228 0.0214388 0.0225895 0.023375 0.0239417 0.0244359 0.0248577 0.025207 0.0254838 0.0256882 0.0258201 0.0258796 0.0258575 0.0257445 0.0255407 0.0252461 0.0248607 0.0243844 0.0238174 0.0231595 0.0222796 0.0210466 0.0194605 0.0175212 0.0152288 0.0125833 0.00958461 0.0062328 0.00292747 6.82131e-05 -0.00234496 -0.00431205 -0.00583306 -0.00690798 -0.00753683 -0.00771959 -0.00762278 -0.0074129 -0.00708996 -0.00665395 -0.00610487 -0.00544273 -0.00466752 -0.00377924 -0.00289348 -0.00212582 -0.00147627 -0.00094481 -0.000531455 -0.000236202 -5.90506e-05 0 0 2.26259e-06 9.05038e-06 2.03633e-05 3.62015e-05 5.65649e-05 8.14534e-05 0.000110867 0.000144806 0.000119742 -2.78542e-05 -0.000297982 -0.000690641 -0.00120583 -0.00184355 -0.00260381 -0.00348659 -0.0044752 -0.0055529 -0.0067197 -0.00797561 -0.00932061 -0.0107547 -0.0122779 -0.0138902 -0.0155363 -0.0171609 -0.0187641 -0.0203457 -0.0219058 -0.0234444 -0.0249615 -0.0264571 -0.027845 -0.0290389 -0.0300389 -0.0308449 -0.031457 -0.0318751 -0.0320992 -0.0321294 -0.031963 -0.0315971 -0.031032 -0.0302674 -0.0293036 -0.0281403 -0.0267778 -0.0252158 -0.0236391 -0.022232 -0.0209945 -0.0199268 -0.0190287 -0.0183003 -0.0177416 -0.0173525 -0.0169799 -0.0164704 -0.0158241 -0.0150409 -0.0141208 -0.0130639 -0.0118702 -0.0105396 -0.00887908 -0.00669563 -0.00398923 -0.000759875 0.00299243 0.00726768 0.0120659 0.017387 0.0227255 0.0275756 0.0319374 0.0358108 0.0391958 0.0420925 0.0445008 0.0464208 0.0479932 0.0493588 0.0505176 0.0514695 0.0522146 0.0527529 0.0530844 0.053209 0.0531166 0.0527968 0.0522497 0.0514752 0.0504733 0.0492441 0.0477875 0.0461036 0.0440725 0.0415745 0.0386095 0.0351776 0.0312787 0.0269129 0.0220801 0.0167804 0.0115614 0.00697072 0.00300837 -0.000325656 -0.00303135 -0.00510872 -0.00655776 -0.00737848 -0.00777989 -0.00797104 -0.00795192 -0.00772254 -0.00728289 -0.00663297 -0.00577278 -0.00470233 -0.00360022 -0.00264506 -0.00183685 -0.00117558 -0.000661266 -0.000293896 -7.3474e-05 0 0 -1.33209e-06 -5.32836e-06 -1.19888e-05 -2.13135e-05 -3.33023e-05 -4.79553e-05 -6.52724e-05 -8.52538e-05 -0.000175747 -0.000404599 -0.000771811 -0.00127738 -0.00192131 -0.0027036 -0.00362425 -0.00468326 -0.00585764 -0.00712438 -0.0084835 -0.00993498 -0.0114788 -0.0131151 -0.0148437 -0.0166646 -0.018526 -0.0203759 -0.0222143 -0.0240411 -0.0258564 -0.0276602 -0.0294525 -0.0312333 -0.0328914 -0.0343157 -0.0355063 -0.0364631 -0.0371861 -0.0376753 -0.0379307 -0.0379524 -0.0377422 -0.0373021 -0.036632 -0.0357319 -0.0346019 -0.0332419 -0.031652 -0.0298322 -0.0280027 -0.0263841 -0.0249762 -0.0237792 -0.0227929 -0.0220175 -0.0214529 -0.021099 -0.0207226 -0.0200904 -0.0192022 -0.0180582 -0.0166584 -0.0150026 -0.013091 -0.0109235 -0.00826539 -0.00488193 -0.000773114 0.00406106 0.00962058 0.0159055 0.0229157 0.0306513 0.0384284 0.0455631 0.0520554 0.0579054 0.063113 0.0676782 0.071601 0.0748815 0.0776568 0.0800643 0.0821038 0.0837755 0.0850793 0.0860152 0.0865832 0.0867834 0.0866049 0.086037 0.0850798 0.0837331 0.0819971 0.0798717 0.0773569 0.0744527 0.0710489 0.0670354 0.062412 0.0571789 0.051336 0.0448833 0.0378208 0.0301485 0.0225943 0.015886 0.0100237 0.00500738 0.000837002 -0.00248742 -0.00496589 -0.00659841 -0.007643 -0.0083577 -0.00874252 -0.00879745 -0.00852249 -0.00791764 -0.0069829 -0.00571828 -0.00437806 -0.00321653 -0.0022337 -0.00142957 -0.000804133 -0.000357392 -8.93481e-05 0 0 -6.59256e-06 -2.63702e-05 -5.93331e-05 -0.000105481 -0.000164814 -0.000237332 -0.000323036 -0.000421924 -0.000596276 -0.00090837 -0.00135821 -0.00194579 -0.00267111 -0.00353417 -0.00453498 -0.00567352 -0.00691539 -0.00822616 -0.00960583 -0.0110544 -0.0125719 -0.0141583 -0.0158135 -0.0175377 -0.0193034 -0.0210832 -0.0228771 -0.0246851 -0.0265072 -0.0283434 -0.0301938 -0.0320583 -0.0338046 -0.0353005 -0.0365461 -0.0375412 -0.038286 -0.0387804 -0.0390243 -0.0390179 -0.0387695 -0.0382873 -0.0375714 -0.0366217 -0.0354383 -0.0340212 -0.0323704 -0.0304858 -0.0286185 -0.0270195 -0.0256887 -0.0246261 -0.0238318 -0.0233058 -0.0230481 -0.0230585 -0.0229882 -0.0224879 -0.0215577 -0.0201975 -0.0184074 -0.0161874 -0.0135375 -0.0104576 -0.00666866 -0.00189161 0.00387358 0.0106269 0.0183683 0.0270979 0.0368156 0.0475215 0.0583008 0.068239 0.0773361 0.085592 0.0930067 0.0995803 0.105313 0.110204 0.114396 0.118029 0.121105 0.123622 0.125582 0.126983 0.127826 0.128111 0.127827 0.126966 0.125527 0.12351 0.120914 0.117741 0.113989 0.10966 0.104644 0.0988321 0.0922255 0.0848237 0.0766267 0.0676345 0.0578471 0.0472644 0.036838 0.0275189 0.0193074 0.0122033 0.00620673 0.00131761 -0.00246405 -0.00513823 -0.00701974 -0.00842338 -0.00934916 -0.00979707 -0.0097671 -0.00925927 -0.00827357 -0.00681001 -0.00521391 -0.00383063 -0.00266016 -0.0017025 -0.000957657 -0.000425625 -0.000106406 0 0 -1.35188e-05 -5.40753e-05 -0.000121669 -0.000216301 -0.00033797 -0.000486677 -0.000662422 -0.000865204 -0.00114185 -0.00153917 -0.00205717 -0.00269585 -0.00345521 -0.00433526 -0.00533598 -0.00645738 -0.00764847 -0.00885825 -0.0100867 -0.0113339 -0.0125997 -0.0138842 -0.0151875 -0.0165094 -0.0178683 -0.0192827 -0.0207524 -0.0222776 -0.0238581 -0.025494 -0.0271853 -0.0289321 -0.0305846 -0.0319933 -0.0331582 -0.0340794 -0.0347567 -0.0351903 -0.03538 -0.035326 -0.0350447 -0.0345528 -0.0338501 -0.0329368 -0.0318128 -0.0304782 -0.0289328 -0.0271768 -0.0254864 -0.0241381 -0.0231318 -0.0224676 -0.0221454 -0.0221653 -0.0225272 -0.0232311 -0.0237766 -0.023663 -0.0228904 -0.0214587 -0.0193681 -0.0166183 -0.0132096 -0.00914182 -0.00408888 0.00227534 0.00995084 0.0189376 0.0292357 0.0408451 0.0537657 0.0679976 0.0823429 0.0956035 0.107779 0.118871 0.128877 0.137799 0.145636 0.152389 0.15821 0.163254 0.167521 0.17101 0.173721 0.175655 0.176812 0.177191 0.176784 0.175584 0.173591 0.170805 0.167225 0.162851 0.157685 0.151725 0.144856 0.136965 0.12805 0.118112 0.107151 0.0951666 0.0821591 0.0681284 0.0542925 0.0418695 0.0308594 0.0212622 0.0130778 0.00630637 0.000947774 -0.00299794 -0.00591011 -0.00816808 -0.00977183 -0.0107214 -0.0110167 -0.0106579 -0.0096448 -0.00797752 -0.00610779 -0.00448736 -0.00311622 -0.00199438 -0.00112184 -0.000498595 -0.000124649 0 0 -2.21109e-05 -8.84434e-05 -0.000198998 -0.000353774 -0.000552772 -0.000795991 -0.00108343 -0.0014151 -0.00181246 -0.00229699 -0.0028687 -0.00352758 -0.00427363 -0.00510686 -0.00602726 -0.00703484 -0.00805687 -0.00902063 -0.00992614 -0.0107734 -0.0115624 -0.0122931 -0.0129655 -0.0135797 -0.0142209 -0.0149745 -0.0158403 -0.0168185 -0.0179091 -0.0191119 -0.0204271 -0.0218547 -0.0232314 -0.0243941 -0.0253428 -0.0260775 -0.0265983 -0.026905 -0.0269978 -0.0268766 -0.026568 -0.0260985 -0.0254683 -0.0246773 -0.0237254 -0.0226128 -0.0213393 -0.019905 -0.0186064 -0.01774 -0.0173057 -0.0173036 -0.0177337 -0.0185959 -0.0198903 -0.0216168 -0.0230878 -0.0236157 -0.0232003 -0.0218419 -0.0195402 -0.0162954 -0.0121074 -0.00697621 -0.000526058 0.00761891 0.0174587 0.0289933 0.0422227 0.0571469 0.0737659 0.0920798 0.110555 0.127656 0.143385 0.157741 0.170724 0.182334 0.192571 0.201436 0.2091 0.215739 0.221351 0.225938 0.229498 0.232033 0.233541 0.234024 0.233475 0.231892 0.229273 0.225618 0.220929 0.215203 0.208443 0.200647 0.191687 0.181433 0.169885 0.157044 0.142909 0.12748 0.110757 0.0927402 0.0749579 0.0589377 0.0446798 0.032184 0.0214503 0.0124789 0.00526957 -0.000177539 -0.00431411 -0.00759178 -0.0100105 -0.0115704 -0.0122714 -0.0121134 -0.0110966 -0.00922082 -0.00705969 -0.00518671 -0.00360188 -0.00230521 -0.00129668 -0.000576301 -0.000144075 0 0 -3.23687e-05 -0.000129475 -0.000291318 -0.000517899 -0.0008