<?xml version="1.0"?> 
<VTKFile type="StructuredGrid" version="0.1"> 
<StructuredGrid WholeExtent="0 128 0 128 0 0"> 
<Piece Extent="0 128 0 128 0 0"> 
<PointData>
<DataArray type="Float32" Name="u" format="ascii" NumberOfComponents="1"> 
0 0 0 0 0 0 0 0 0 0 0 0 0 0 0 0 0 0 0 0 0 0 0 0 0 0 0 0 0 0 0 0 0 0 0 0 0 0 0 0 0 0 0 0 0 0 0 0 0 0 0 0 0 0 0 0 0 0 0 0 0 0 0 0 0 0 0 0 0 0 0 0 0 0 0 0 0 0 0 0 0 0 0 0 0 0 0 0 0 0 0 0 0 0 0 0 0 0 0 0 0 0 0 0 0 0 0 0 0 0 0 0 0 0 0 0 0 0 0 0 0 0 0 0 0 0 0 0 0 0 4.74809e-08 1.89924e-07 4.27328e-07 7.59694e-07 1.18702e-06 1.70931e-06 2.32656e-06 3.03878e-06 3.58291e-06 3.69593e-06 3.37784e-06 2.62863e-06 1.4483e-06 -1.63145e-07 -2.2057e-06 -4.67938e-06 -7.60456e-06 -1.10016e-05 -1.48706e-05 -1.92114e-05 -2.40242e-05 -2.93088e-05 -3.50653e-05 -4.12938e-05 -4.76966e-05 -5.39763e-05 -6.01329e-05 -6.61663e-05 -7.20767e-05 -7.7864e-05 -8.35282e-05 -8.90693e-05 -9.41638e-05 -9.84883e-05 -0.000102043 -0.000104827 -0.000106842 -0.000108087 -0.000108561 -0.000108266 -0.000107271 -0.000105648 -0.000103395 -0.000100514 -9.70047e-05 -9.28662e-05 -8.80989e-05 -8.27029e-05 -7.72737e-05 -7.24068e-05 -6.81023e-05 -6.43601e-05 -6.11803e-05 -5.85628e-05 -5.65077e-05 -5.50149e-05 -5.43413e-05 -5.47438e-05 -5.62225e-05 -5.87773e-05 -6.24082e-05 -6.71153e-05 -7.28984e-05 -7.97577e-05 -8.76015e-05 -9.63384e-05 -0.000105968 -0.000116491 -0.000127907 -0.000140216 -0.000153418 -0.000167512 -0.000182173 -0.00019707 -0.000212205 -0.000227577 -0.000243186 -0.000259033 -0.000275117 -0.000291439 -0.000306845 -0.000320186 -0.00033146 -0.000340668 -0.000347809 -0.000352885 -0.000355893 -0.000356836 -0.00035577 -0.000352756 -0.000347794 -0.000340883 -0.000332023 -0.000321214 -0.000308457 -0.000293751 -0.000278185 -0.000262849 -0.000247742 -0.000232864 -0.000218216 -0.000203797 -0.000189607 -0.000175646 -0.000162013 -0.000148807 -0.000136027 -0.000123673 -0.000111745 -0.000100244 -8.91685e-05 -7.85198e-05 -6.84491e-05 -5.91082e-05 -5.04971e-05 -4.26158e-05 -3.54643e-05 -2.90426e-05 -2.33508e-05 -1.83887e-05 -1.40788e-05 -1.03436e-05 -7.18308e-06 -4.59717e-06 -2.58591e-06 -1.14929e-06 -2.87323e-07 0 0 1.89924e-07 7.59694e-07 1.70931e-06 3.03878e-06 4.74809e-06 6.83725e-06 9.30626e-06 1.21551e-05 1.43317e-05 1.47837e-05 1.35114e-05 1.05145e-05 5.7932e-06 -6.5258e-07 -8.82282e-06 -1.87175e-05 -3.04182e-05 -4.40065e-05 -5.94824e-05 -7.68458e-05 -9.60967e-05 -0.000117235 -0.000140261 -0.000165175 -0.000190786 -0.000215905 -0.000240531 -0.000264665 -0.000288307 -0.000311456 -0.000334113 -0.000356277 -0.000376655 -0.000393953 -0.000408171 -0.00041931 -0.000427368 -0.000432347 -0.000434245 -0.000433064 -0.000429085 -0.000422591 -0.000413582 -0.000402058 -0.000388019 -0.000371465 -0.000352396 -0.000330812 -0.000309095 -0.000289627 -0.000272409 -0.000257441 -0.000244721 -0.000234251 -0.000226031 -0.000220059 -0.000217365 -0.000218975 -0.00022489 -0.000235109 -0.000249633 -0.000268461 -0.000291594 -0.000319031 -0.000350406 -0.000385354 -0.000423873 -0.000465964 -0.000511628 -0.000560863 -0.000613671 -0.00067005 -0.00072869 -0.00078828 -0.000848819 -0.000910307 -0.000972745 -0.00103613 -0.00110047 -0.00116575 -0.00122738 -0.00128074 -0.00132584 -0.00136267 -0.00139124 -0.00141154 -0.00142357 -0.00142734 -0.00142308 -0.00141103 -0.00139118 -0.00136353 -0.00132809 -0.00128486 -0.00123383 -0.001175 -0.00111274 -0.0010514 -0.000990968 -0.000931457 -0.000872864 -0.000815187 -0.000758427 -0.000702585 -0.000648053 -0.000595227 -0.000544106 -0.00049469 -0.00044698 -0.000400974 -0.000356674 -0.000314079 -0.000273796 -0.000236433 -0.000201988 -0.000170463 -0.000141857 -0.000116171 -9.3403e-05 -7.35547e-05 -5.63153e-05 -4.13745e-05 -2.87323e-05 -1.83887e-05 -1.03436e-05 -4.59717e-06 -1.14929e-06 0 0 4.27328e-07 1.70931e-06 3.84595e-06 6.83725e-06 1.06832e-05 1.53838e-05 2.09391e-05 2.7349e-05 3.22462e-05 3.32634e-05 3.04005e-05 2.36576e-05 1.30347e-05 -1.4683e-06 -1.98513e-05 -4.21144e-05 -6.8441e-05 -9.90147e-05 -0.000133835 -0.000172903 -0.000216218 -0.000263779 -0.000315588 -0.000371644 -0.000429269 -0.000485786 -0.000541196 -0.000595497 -0.000648691 -0.000700776 -0.000751754 -0.000801623 -0.000847474 -0.000886395 -0.000918386 -0.000943447 -0.000961578 -0.00097278 -0.000977051 -0.000974393 -0.00096544 -0.000950829 -0.000930559 -0.00090463 -0.000873042 -0.000835796 -0.00079289 -0.000744326 -0.000695463 -0.000651662 -0.000612921 -0.000579241 -0.000550623 -0.000527065 -0.000508569 -0.000495134 -0.000489072 -0.000492695 -0.000506003 -0.000528996 -0.000561674 -0.000604037 -0.000656086 -0.000717819 -0.000788414 -0.000867045 -0.000953714 -0.00104842 -0.00115116 -0.00126194 -0.00138076 -0.00150761 -0.00163955 -0.00177363 -0.00190984 -0.00204819 -0.00218868 -0.0023313 -0.00247605 -0.00262295 -0.00276161 -0.00288167 -0.00298314 -0.00306601 -0.00313029 -0.00317596 -0.00320304 -0.00321152 -0.00320193 -0.00317481 -0.00313014 -0.00306794 -0.0029882 -0.00289093 -0.00277611 -0.00264376 -0.00250367 -0.00236564 -0.00222968 -0.00209578 -0.00196394 -0.00183417 -0.00170646 -0.00158082 -0.00145812 -0.00133926 -0.00122424 -0.00111305 -0.0010057 -0.000902192 -0.000802517 -0.000706678 -0.000616042 -0.000531974 -0.000454474 -0.000383542 -0.000319179 -0.000261384 -0.000210157 -0.000165498 -0.00012671 -9.30927e-05 -6.46477e-05 -4.13745e-05 -2.32732e-05 -1.03436e-05 -2.58591e-06 0 0 7.59694e-07 3.03878e-06 6.83725e-06 1.21551e-05 1.89924e-05 2.7349e-05 3.7225e-05 4.86204e-05 5.73266e-05 5.91349e-05 5.40454e-05 4.2058e-05 2.31728e-05 -2.61032e-06 -3.52913e-05 -7.48701e-05 -0.000121673 -0.000176026 -0.000237929 -0.000307383 -0.000384387 -0.000468941 -0.000561045 -0.0006607 -0.000763145 -0.00086362 -0.000962126 -0.00105866 -0.00115323 -0.00124582 -0.00133645 -0.00142511 -0.00150662 -0.00157581 -0.00163269 -0.00167724 -0.00170947 -0.00172939 -0.00173698 -0.00173225 -0.00171634 -0.00169036 -0.00165433 -0.00160823 -0.00155207 -0.00148586 -0.00140958 -0.00132325 -0.00123638 -0.00115851 -0.00108964 -0.00102976 -0.000978885 -0.000937005 -0.000904123 -0.000880238 -0.000869461 -0.000875901 -0.00089956 -0.000940437 -0.000998532 -0.00107384 -0.00116637 -0.00127612 -0.00140162 -0.00154141 -0.00169549 -0.00186386 -0.00204651 -0.00224345 -0.00245468 -0.0026802 -0.00291476 -0.00315312 -0.00339527 -0.00364123 -0.00389098 -0.00414453 -0.00440187 -0.00466302 -0.00490953 -0.00512298 -0.00530336 -0.00545069 -0.00556495 -0.00564615 -0.00569429 -0.00570937 -0.00569232 -0.0056441 -0.0055647 -0.00545412 -0.00531236 -0.00513943 -0.00493531 -0.00470002 -0.00445097 -0.00420559 -0.00396387 -0.00372583 -0.00349145 -0.00326075 -0.00303371 -0.00281034 -0.00259221 -0.00238091 -0.00217642 -0.00197876 -0.00178792 -0.0016039 -0.0014267 -0.00125632 -0.00109519 -0.000945731 -0.000807953 -0.000681853 -0.000567429 -0.000464682 -0.000373612 -0.000294219 -0.000225261 -0.000165498 -0.000114929 -7.35547e-05 -4.13745e-05 -1.83887e-05 -4.59717e-06 0 0 1.18702e-06 4.74809e-06 1.06832e-05 1.89924e-05 2.96756e-05 4.27328e-05 5.81641e-05 7.59694e-05 8.95728e-05 9.23984e-05 8.4446e-05 6.57157e-05 3.62075e-05 -4.07862e-06 -5.51426e-05 -0.000116985 -0.000190114 -0.000275041 -0.000371765 -0.000480286 -0.000600605 -0.00073272 -0.000876634 -0.00103234 -0.00119241 -0.00134941 -0.00150332 -0.00165416 -0.00180192 -0.0019466 -0.0020882 -0.00222673 -0.00235409 -0.00246221 -0.00255107 -0.00262069 -0.00267105 -0.00270217 -0.00271403 -0.00270665 -0.00268178 -0.00264119 -0.00258489 -0.00251286 -0.00242512 -0.00232165 -0.00220247 -0.00206757 -0.00193184 -0.00181017 -0.00170256 -0.001609 -0.00152951 -0.00146407 -0.00141269 -0.00137537 -0.00135853 -0.0013686 -0.00140556 -0.00146943 -0.00156021 -0.00167788 -0.00182246 -0.00199394 -0.00219004 -0.00240846 -0.00264921 -0.00291228 -0.00319767 -0.00350539 -0.00383544 -0.00418781 -0.00455431 -0.00492675 -0.00530512 -0.00568942 -0.00607965 -0.00647582 -0.00687793 -0.00728596 -0.00767114 -0.00800465 -0.00828651 -0.0085167 -0.00869524 -0.00882211 -0.00889733 -0.00892089 -0.00889426 -0.00881891 -0.00869485 -0.00852207 -0.00830057 -0.00803035 -0.00771142 -0.00734378 -0.00695464 -0.00657123 -0.00619355 -0.00582161 -0.0054554 -0.00509492 -0.00474017 -0.00439115 -0.00405033 -0.00372017 -0.00340066 -0.00309181 -0.00279362 -0.00250609 -0.00222921 -0.00196299 -0.00171123 -0.0014777 -0.00126243 -0.00106539 -0.000886608 -0.000726066 -0.000583769 -0.000459717 -0.000351971 -0.000258591 -0.000179577 -0.000114929 -6.46477e-05 -2.87323e-05 -7.18308e-06 0 0 1.70931e-06 6.83725e-06 1.53838e-05 2.7349e-05 4.27328e-05 6.15352e-05 8.37563e-05 0.000109396 0.000128985 0.000133054 0.000121602 9.46306e-05 5.21388e-05 -5.87322e-06 -7.94054e-05 -0.000168458 -0.000273764 -0.000396059 -0.000535341 -0.000691612 -0.000864871 -0.00105512 -0.00126235 -0.00148658 -0.00171708 -0.00194315 -0.00216478 -0.00238199 -0.00259476 -0.0028031 -0.00300701 -0.00320649 -0.0033899 -0.00354558 -0.00367354 -0.00377379 -0.00384631 -0.00389112 -0.0039082 -0.00389757 -0.00386176 -0.00380332 -0.00372224 -0.00361852 -0.00349217 -0.00334318 -0.00317156 -0.0029773 -0.00278185 -0.00260665 -0.00245168 -0.00231696 -0.00220249 -0.00210826 -0.00203428 -0.00198053 -0.00195629 -0.00197078 -0.00202401 -0.00211598 -0.0022467 -0.00241615 -0.00262434 -0.00287128 -0.00315366 -0.00346818 -0.00381486 -0.00419368 -0.00460465 -0.00504777 -0.00552303 -0.00603045 -0.00655821 -0.00709452 -0.00763937 -0.00819276 -0.0087547 -0.00932518 -0.00990421 -0.0104918 -0.0110464 -0.0115267 -0.0119326 -0.0122641 -0.0125211 -0.0127038 -0.0128122 -0.0128461 -0.0128077 -0.0126992 -0.0125206 -0.0122718 -0.0119528 -0.0115637 -0.0111045 -0.010575 -0.0100147 -0.00946257 -0.00891872 -0.00838312 -0.00785577 -0.00733668 -0.00682584 -0.00632326 -0.00583248 -0.00535704 -0.00489695 -0.00445221 -0.00402282 -0.00360877 -0.00321007 -0.00282671 -0.00246417 -0.00212789 -0.0018179 -0.00153417 -0.00127672 -0.00104553 -0.000840627 -0.000661993 -0.000506838 -0.000372371 -0.000258591 -0.000165498 -9.30927e-05 -4.13745e-05 -1.03436e-05 0 0 2.32656e-06 9.30626e-06 2.09391e-05 3.7225e-05 5.81641e-05 8.37563e-05 0.000114002 0.0001489 0.000175563 0.000181101 0.000165514 0.000128803 7.09666e-05 -7.9941e-06 -0.00010808 -0.00022929 -0.000372623 -0.00053908 -0.000728659 -0.000941361 -0.00117719 -0.00143613 -0.0017182 -0.00202339 -0.00233713 -0.00264484 -0.00294651 -0.00324215 -0.00353176 -0.00381534 -0.00409288 -0.00436439 -0.00461403 -0.00482593 -0.0050001 -0.00513654 -0.00523526 -0.00529624 -0.0053195 -0.00530503 -0.00525629 -0.00517674 -0.00506638 -0.00492521 -0.00475323 -0.00455044 -0.00431685 -0.00405244 -0.00378641 -0.00354793 -0.00333701 -0.00315365 -0.00299783 -0.00286958 -0.00276888 -0.00269573 -0.00266272 -0.00268245 -0.0027549 -0.00288009 -0.003058 -0.00328865 -0.00357202 -0.00390813 -0.00429248 -0.00472058 -0.00519244 -0.00570806 -0.00626744 -0.00687057 -0.00751746 -0.00820811 -0.00892645 -0.00965643 -0.010398 -0.0111513 -0.0119161 -0.0126926 -0.0134807 -0.0142805 -0.0150354 -0.0156891 -0.0162416 -0.0166927 -0.0170427 -0.0172913 -0.0174388 -0.0174849 -0.0174327 -0.0172851 -0.0170419 -0.0167032 -0.0162691 -0.0157395 -0.0151144 -0.0143938 -0.0136311 -0.0128796 -0.0121394 -0.0114104 -0.0106926 -0.00998604 -0.00929073 -0.00860666 -0.00793865 -0.00729153 -0.0066653 -0.00605996 -0.0054755 -0.00491194 -0.00436926 -0.00384747 -0.003354 -0.0028963 -0.00247436 -0.00208817 -0.00173775 -0.00142309 -0.00114419 -0.000901045 -0.000689863 -0.000506838 -0.000351971 -0.000225261 -0.00012671 -5.63153e-05 -1.40788e-05 0 0 3.03878e-06 1.21551e-05 2.7349e-05 4.86204e-05 7.59694e-05 0.000109396 0.0001489 0.000194482 0.000229306 0.00023654 0.000216182 0.000168232 9.26911e-05 -1.04413e-05 -0.000141165 -0.00029948 -0.000486692 -0.000704104 -0.000951718 -0.00122953 -0.00153755 -0.00187576 -0.00224418 -0.0026428 -0.00305258 -0.00345448 -0.0038485 -0.00423465 -0.00461291 -0.0049833 -0.0053458 -0.00570043 -0.00602648 -0.00630325 -0.00653074 -0.00670896 -0.00683789 -0.00691754 -0.00694792 -0.00692902 -0.00686535 -0.00676145 -0.00661731 -0.00643292 -0.0062083 -0.00594344 -0.00563833 -0.00529299 -0.00494552 -0.00463404 -0.00435855 -0.00411905 -0.00391554 -0.00374802 -0.00361649 -0.00352095 -0.00347784 -0.00350361 -0.00359824 -0.00376175 -0.00399413 -0.00429538 -0.0046655 -0.00510449 -0.0056065 -0.00616566 -0.00678197 -0.00745543 -0.00818604 -0.00897381 -0.00981873 -0.0107208 -0.011659 -0.0126125 -0.0135811 -0.0145649 -0.0155639 -0.0165781 -0.0176075 -0.0186521 -0.0196381 -0.0204919 -0.0212135 -0.0218028 -0.0222598 -0.0225846 -0.0227772 -0.0228375 -0.0227693 -0.0225764 -0.0222588 -0.0218165 -0.0212495 -0.0205577 -0.0197412 -0.0188001 -0.0178039 -0.0168223 -0.0158555 -0.0149033 -0.0139658 -0.013043 -0.0121348 -0.0112414 -0.0103689 -0.00952363 -0.0087057 -0.00791504 -0.00715168 -0.00641559 -0.00570679 -0.00502527 -0.00438074 -0.00378292 -0.00323181 -0.00272741 -0.00226972 -0.00185873 -0.00149445 -0.00117688 -0.000901045 -0.000661993 -0.000459717 -0.000294219 -0.000165498 -7.35547e-05 -1.83887e-05 0 0 3.43391e-06 1.37356e-05 3.09052e-05 5.49425e-05 8.58477e-05 0.000123621 0.000168262 0.00021977 0.000257413 0.000260458 0.000228904 0.000162751 6.20003e-05 -7.33495e-05 -0.000243298 -0.000447845 -0.00068848 -0.000966694 -0.00128249 -0.00163586 -0.0020268 -0.00245533 -0.00292143 -0.00342511 -0.00394284 -0.00445108 -0.00494983 -0.00543909 -0.00591886 -0.00638914 -0.00684993 -0.00730123 -0.00771639 -0.00806874 -0.00835829 -0.00858503 -0.00874897 -0.0088501 -0.00888842 -0.00886395 -0.00878273 -0.00865083 -0.00846825 -0.008235 -0.00795107 -0.00761646 -0.00723118 -0.00679522 -0.00635668 -0.00596367 -0.00561619 -0.00531425 -0.00505783 -0.00484694 -0.00468158 -0.00456175 -0.00450445 -0.00452667 -0.00462842 -0.00480968 -0.00507047 -0.00541079 -0.00583062 -0.00632998 -0.00689933 -0.00752914 -0.0082194 -0.00897012 -0.00978129 -0.0106529 -0.011585 -0.0125776 -0.013611 -0.0146659 -0.0157421 -0.0168397 -0.0179587 -0.0190991 -0.0202609 -0.0214441 -0.0225629 -0.0235319 -0.0243509 -0.0250199 -0.025539 -0.0259081 -0.0261273 -0.0261965 -0.0261202 -0.0259028 -0.0255444 -0.0250449 -0.0244043 -0.0236227 -0.0226999 -0.0216361 -0.0205118 -0.0194076 -0.0183235 -0.0172595 -0.0162156 -0.0151918 -0.0141881 -0.0132045 -0.0122424 -0.0113031 -0.0103868 -0.00949335 -0.0086228 -0.00777515 -0.00695038 -0.00614851 -0.00538416 -0.00467194 -0.00401185 -0.00340389 -0.00284807 -0.00234438 -0.00189283 -0.00149341 -0.00114339 -0.000840044 -0.000583364 -0.000373353 -0.000210011 -9.33382e-05 -2.33346e-05 0 0 3.09992e-06 1.23997e-05 2.78992e-05 4.95986e-05 7.74979e-05 0.000111597 0.000151896 0.000198395 0.000227081 0.000213943 0.00015898 6.21936e-05 -7.64178e-05 -0.000256854 -0.000479114 -0.000743199 -0.0010505 -0.00140241 -0.00179893 -0.00224006 -0.00272579 -0.00325614 -0.00383109 -0.00445066 -0.00508733 -0.00571363 -0.00632955 -0.00693508 -0.00753024 -0.00811502 -0.00868941 -0.00925343 -0.00977288 -0.0102136 -0.0105756 -0.0108588 -0.0110633 -0.011189 -0.011236 -0.0112042 -0.0111022 -0.0109382 -0.0107124 -0.0104248 -0.0100752 -0.00966383 -0.00919055 -0.00865541 -0.00811741 -0.00763556 -0.00720986 -0.00684032 -0.00652693 -0.0062697 -0.00606862 -0.00592369 -0.00584536 -0.00584407 -0.00591982 -0.00607262 -0.00630245 -0.00660933 -0.00699325 -0.00745421 -0.00797459 -0.00853676 -0.00914072 -0.00978647 -0.010474 -0.0112034 -0.0119745 -0.0127874 -0.0136374 -0.0145198 -0.0154346 -0.0163817 -0.0173612 -0.0183731 -0.0194174 -0.020494 -0.0215184 -0.0224058 -0.0231563 -0.0237699 -0.0242465 -0.0245862 -0.024789 -0.0248548 -0.0247883 -0.0245939 -0.0242718 -0.0238219 -0.0232442 -0.0225387 -0.0217054 -0.0207443 -0.0197338 -0.0187524 -0.0177999 -0.0168765 -0.0159822 -0.0151168 -0.0142805 -0.0134732 -0.0126785 -0.0118798 -0.0110772 -0.0102708 -0.00946035 -0.00864603 -0.00782779 -0.00700563 -0.00620404 -0.00544751 -0.00473604 -0.00406963 -0.00344828 -0.00287199 -0.00234075 -0.00185458 -0.00141991 -0.0010432 -0.000724445 -0.000463645 -0.0002608 -0.000115911 -2.89778e-05 0 0 2.0368e-06 8.14718e-06 1.83312e-05 3.25887e-05 5.09199e-05 7.33247e-05 9.9803e-05 0.000130355 0.000138309 9.69945e-05 6.41091e-06 -0.000133442 -0.000322563 -0.000560954 -0.000848613 -0.00118554 -0.00157275 -0.00201125 -0.00250105 -0.00304214 -0.00363452 -0.0042782 -0.00497317 -0.00571943 -0.00648606 -0.00724214 -0.00798767 -0.00872264 -0.00944706 -0.0101609 -0.0108642 -0.011557 -0.0121959 -0.0127378 -0.0131825 -0.0135302 -0.0137807 -0.0139342 -0.0139906 -0.0139499 -0.0138237 -0.0136237 -0.0133499 -0.0130022 -0.0125808 -0.0120855 -0.0115165 -0.0108736 -0.0102277 -0.00964969 -0.00913955 -0.00869727 -0.00832284 -0.00801629 -0.00777759 -0.00760675 -0.00750056 -0.0074558 -0.00747246 -0.00755055 -0.00769006 -0.007891 -0.00815337 -0.00847717 -0.00883226 -0.00918851 -0.00954592 -0.00990449 -0.0102642 -0.0106251 -0.0109872 -0.0113504 -0.0117383 -0.0121743 -0.0126585 -0.0131909 -0.0137714 -0.0144001 -0.0150769 -0.0158019 -0.0165044 -0.0171137 -0.0176298 -0.0180527 -0.0183824 -0.018619 -0.0187623 -0.0188124 -0.0187735 -0.0186497 -0.018441 -0.0181475 -0.0177691 -0.0173058 -0.0167576 -0.0161245 -0.0154698 -0.0148565 -0.0142847 -0.0137543 -0.0132654 -0.012818 -0.012412 -0.0120475 -0.0116772 -0.0112537 -0.010777 -0.0102473 -0.00966432 -0.00902823 -0.008339 -0.00759661 -0.00684039 -0.00610965 -0.0054044 -0.00472463 -0.00407034 -0.00344154 -0.00283822 -0.00226038 -0.0017306 -0.00127146 -0.000882962 -0.000565095 -0.000317866 -0.000141274 -3.53185e-05 0 0 2.44551e-07 9.78206e-07 2.20096e-06 3.91282e-06 6.11379e-06 8.80385e-06 1.1983e-05 1.56513e-05 -8.90193e-06 -9.03873e-05 -0.000228805 -0.000424154 -0.000676436 -0.00098565 -0.0013518 -0.00177487 -0.00225523 -0.00279322 -0.00338885 -0.0040421 -0.00475298 -0.0055215 -0.00634765 -0.00723143 -0.00813902 -0.0090366 -0.00992418 -0.0108018 -0.0116693 -0.0125269 -0.0133744 -0.014212 -0.0149856 -0.0156413 -0.0161792 -0.0165993 -0.0169015 -0.0170858 -0.0171522 -0.0171008 -0.0169472 -0.0167071 -0.0163805 -0.0159674 -0.0154677 -0.0148816 -0.0142089 -0.0134497 -0.0126876 -0.0120061 -0.0114053 -0.0108851 -0.0104456 -0.0100867 -0.0098085 -0.00961095 -0.00947006 -0.00936185 -0.00928632 -0.00924347 -0.0092333 -0.00925581 -0.009311 -0.00939886 -0.00947235 -0.0094844 -0.009435 -0.00932418 -0.00915191 -0.0089182 -0.00862305 -0.00826647 -0.00791354 -0.00762935 -0.0074139 -0.0072672 -0.00718924 -0.00718002 -0.00723955 -0.00736781 -0.00752108 -0.00765562 -0.00777141 -0.00786847 -0.00794679 -0.00800637 -0.00804721 -0.00806931 -0.00807589 -0.00807014 -0.00805207 -0.00802168 -0.00797896 -0.00792392 -0.00785657 -0.00777689 -0.00771975 -0.00772003 -0.00777772 -0.00789283 -0.00806535 -0.00829529 -0.00858263 -0.0089274 -0.00923846 -0.00942473 -0.00948619 -0.00942285 -0.00923471 -0.00892176 -0.00848401 -0.00792145 -0.0072932 -0.00665836 -0.00601692 -0.00536888 -0.00471426 -0.00405304 -0.00338522 -0.00271082 -0.00207547 -0.00152483 -0.00105891 -0.000677704 -0.000381209 -0.000169426 -4.23565e-05 0 0 -2.27682e-06 -9.10728e-06 -2.04914e-05 -3.64291e-05 -5.69205e-05 -8.19655e-05 -0.000111564 -0.000145716 -0.000214552 -0.000348202 -0.000546666 -0.000809944 -0.00113804 -0.00153094 -0.00198866 -0.00251119 -0.00309795 -0.00374832 -0.00446232 -0.00523994 -0.00608118 -0.00698605 -0.00795454 -0.00898665 -0.0100462 -0.011097 -0.0121391 -0.0131724 -0.014197 -0.0152129 -0.01622 -0.0172183 -0.0181418 -0.0189243 -0.0195657 -0.020066 -0.0204254 -0.0206437 -0.0207209 -0.0206572 -0.0204729 -0.0201886 -0.0198044 -0.0193202 -0.0187361 -0.0180519 -0.0172678 -0.0163838 -0.015497 -0.0147047 -0.014007 -0.0134038 -0.0128951 -0.012481 -0.0121614 -0.0119363 -0.0117539 -0.0115622 -0.0113614 -0.0111514 -0.0109322 -0.0107037 -0.0104661 -0.0102193 -0.00989486 -0.00942442 -0.00880797 -0.00804552 -0.00713707 -0.0060826 -0.00488214 -0.00353566 -0.00216324 -0.000884944 0.000299236 0.0013893 0.00238524 0.00328706 0.00409476 0.00480835 0.00543165 0.00596852 0.00641894 0.00678293 0.00706048 0.00725159 0.00735626 0.00737449 0.00730457 0.00714477 0.0068951 0.00655556 0.00612615 0.00560686 0.00499771 0.00429868 0.00351628 0.00265701 0.00172087 0.000707858 -0.00038202 -0.00154877 -0.00279238 -0.00411287 -0.00536235 -0.00639296 -0.00720469 -0.00779754 -0.00817151 -0.00832661 -0.00826282 -0.00798016 -0.00756248 -0.00709362 -0.0065736 -0.0060024 -0.00538003 -0.00470648 -0.00398177 -0.00320589 -0.00245451 -0.00180331 -0.0012523 -0.000801471 -0.000450828 -0.000200368 -5.0092e-05 0 0 -5.52731e-06 -2.21093e-05 -4.97458e-05 -8.8437e-05 -0.000138183 -0.000198983 -0.000270838 -0.000353748 -0.000478642 -0.000676451 -0.000947174 -0.00129081 -0.00170736 -0.00219683 -0.00275921 -0.0033945 -0.00410089 -0.00487654 -0.00572147 -0.00663566 -0.00761912 -0.00867185 -0.00979385 -0.0109851 -0.0122076 -0.0134234 -0.0146324 -0.0158347 -0.0170301 -0.0182189 -0.0194009 -0.0205761 -0.0216646 -0.0225865 -0.0233418 -0.0239305 -0.0243525 -0.0246079 -0.0246967 -0.0246188 -0.0244006 -0.0240682 -0.0236216 -0.0230608 -0.0223858 -0.0215967 -0.0206933 -0.0196758 -0.018656 -0.0177456 -0.0169447 -0.0162533 -0.0156715 -0.0151991 -0.0148361 -0.0145827 -0.0143519 -0.014057 -0.0136977 -0.0132743 -0.0127867 -0.0122348 -0.0116187 -0.0109385 -0.0100998 -0.00900858 -0.00766483 -0.00606854 -0.0042197 -0.00211833 0.000235584 0.00284204 0.00551262 0.00805891 0.0104809 0.0127786 0.014952 0.0170012 0.018926 0.0207265 0.0223538 0.0237587 0.0249412 0.0259015 0.0266393 0.0271549 0.0274481 0.027519 0.0273679 0.026995 0.0264005 0.0255842 0.0245462 0.0232866 0.0218052 0.0201021 0.0182383 0.0162746 0.0142111 0.0120478 0.0097846 0.00742159 0.00495874 0.00239607 -4.88399e-05 -0.00215837 -0.00393253 -0.00537132 -0.00647474 -0.00724278 -0.00767545 -0.00777274 -0.00764822 -0.00741546 -0.00707444 -0.00662517 -0.00606765 -0.00540188 -0.00462786 -0.00374559 -0.00286772 -0.00210689 -0.00146312 -0.000936397 -0.000526723 -0.000234099 -5.85248e-05 0 0 -9.50694e-06 -3.80277e-05 -8.55624e-05 -0.000152111 -0.000237673 -0.00034225 -0.00046584 -0.000608444 -0.000801172 -0.00107513 -0.00143033 -0.00186676 -0.00238442 -0.00298331 -0.00366344 -0.0044248 -0.00526407 -0.0061779 -0.00716629 -0.00822926 -0.00936679 -0.0105789 -0.0118656 -0.0132268 -0.0146233 -0.0160157 -0.0174041 -0.0187884 -0.0201687 -0.0215449 -0.0229171 -0.0242852 -0.025554 -0.0266281 -0.0275077 -0.0281926 -0.0286828 -0.0289785 -0.0290795 -0.0289859 -0.0287304 -0.0283457 -0.0278319 -0.027189 -0.0264169 -0.0255157 -0.0244853 -0.0233258 -0.0221645 -0.0211287 -0.0202185 -0.0194338 -0.0187746 -0.018241 -0.0178329 -0.0175503 -0.0172643 -0.016846 -0.0162953 -0.0156122 -0.0147968 -0.013849 -0.0127689 -0.0115564 -0.0100871 -0.00823687 -0.00600557 -0.00339321 -0.000399819 0.00297462 0.0067301 0.0108666 0.0151141 0.0192022 0.0231311 0.0269008 0.0305112 0.0339623 0.0372542 0.0403868 0.0432453 0.0457149 0.0477955 0.0494871 0.0507898 0.0517036 0.0522284 0.0523642 0.052114 0.0514806 0.050464 0.0490643 0.0472813 0.0451152 0.042566 0.0396335 0.0364463 0.0331328 0.029693 0.0261269 0.0224345 0.0186158 0.0146708 0.0105994 0.00670208 0.00327903 0.00033027 -0.0021442 -0.00414438 -0.00567027 -0.00672187 -0.00729918 -0.00755043 -0.00762385 -0.00751944 -0.0072372 -0.00677712 -0.00613922 -0.00532349 -0.00432992 -0.0033151 -0.00243558 -0.00169138 -0.00108248 -0.000608895 -0.00027062 -6.7655e-05 0 0 -1.42157e-05 -5.68627e-05 -0.000127941 -0.000227451 -0.000355392 -0.000511765 -0.000696568 -0.000909804 -0.00118214 -0.00154425 -0.00199613 -0.00253778 -0.0031692 -0.00389039 -0.00470136 -0.00560209 -0.00658747 -0.00765237 -0.0087968 -0.0100207 -0.0113242 -0.0127072 -0.0141697 -0.0157117 -0.0172932 -0.018874 -0.0204542 -0.0220338 -0.0236127 -0.025191 -0.0267687 -0.0283457 -0.0298099 -0.0310491 -0.0320632 -0.0328523 -0.0334164 -0.0337554 -0.0338693 -0.0337582 -0.0334622 -0.0330213 -0.0324356 -0.0317049 -0.0308294 -0.0298091 -0.0286439 -0.0273338 -0.0260226 -0.0248541 -0.0238283 -0.0229451 -0.0222046 -0.0216067 -0.0211516 -0.020839 -0.020491 -0.0199294 -0.0191541 -0.0181652 -0.0169626 -0.0155464 -0.0139165 -0.012073 -0.0098569 -0.0071093 -0.00383019 -1.95571e-05 0.00432259 0.00919625 0.0146014 0.0205381 0.0266411 0.032545 0.0382499 0.0437557 0.0490626 0.0541704 0.0590793 0.0637891 0.0681062 0.0718371 0.0749816 0.0775399 0.0795119 0.0808976 0.081697 0.0819101 0.081543 0.0806015 0.0790858 0.0769957 0.0743314 0.0710928 0.06728 0.0628928 0.0581403 0.0532316 0.0481666 0.0429453 0.0375677 0.0320338 0.0263436 0.0204972 0.0148904 0.00991925 0.00558372 0.00188383 -0.00118044 -0.00360909 -0.0054021 -0.00655949 -0.0072691 -0.00771881 -0.0079086 -0.00783848 -0.00750845 -0.00691851 -0.00606866 -0.00495889 -0.00379665 -0.00278938 -0.00193707 -0.00123972 -0.000697344 -0.000309931 -7.74827e-05 0 0 -1.96234e-05 -7.84937e-05 -0.000176611 -0.000313975 -0.000490585 -0.000706443 -0.000961547 -0.0012559 -0.00161587 -0.00206782 -0.00261175 -0.00324768 -0.00397558 -0.00479548 -0.00570735 -0.00671122 -0.00779756 -0.00895689 -0.0101892 -0.0114945 -0.0128728 -0.014324 -0.0158483 -0.0174455 -0.0190816 -0.0207226 -0.0223683 -0.0240189 -0.0256743 -0.0273345 -0.0289995 -0.0306693 -0.0322207 -0.0335306 -0.0345988 -0.0354255 -0.0360105 -0.036354 -0.0364559 -0.0363162 -0.0359836 -0.035507 -0.0348863 -0.0341215 -0.0332127 -0.0321597 -0.0309627 -0.0296217 -0.028289 -0.0271172 -0.0261063 -0.0252564 -0.0245673 -0.0240391 -0.0236717 -0.0234653 -0.0231774 -0.0225657 -0.0216302 -0.0203709 -0.0187878 -0.0168808 -0.01465 -0.0120955 -0.00902067 -0.00522929 -0.000721308 0.00450327 0.0104444 0.0171022 0.0244766 0.0325676 0.0408881 0.0489512 0.0567569 0.0643052 0.071596 0.0786294 0.0854053 0.0919239 0.0979078 0.10308 0.10744 0.110989 0.113726 0.115651 0.116764 0.117066 0.116566 0.115274 0.11319 0.110315 0.106648 0.10219 0.0969395 0.0908976 0.0843574 0.0776126 0.0706632 0.0635091 0.0561503 0.0485869 0.0408189 0.0328462 0.0251839 0.0183469 0.0123352 0.00714881 0.00278779 -0.000747902 -0.00345826 -0.00534329 -0.00663588 -0.0075689 -0.00814237 -0.00835629 -0.00821064 -0.00770544 -0.00684069 -0.00561637 -0.00430004 -0.00315921 -0.0021939 -0.00140409 -0.000789802 -0.000351023 -8.77558e-05 0 0 -2.57e-05 -0.0001028 -0.0002313 -0.0004112 -0.0006425 -0.0009252 -0.0012593 -0.0016448 -0.00209667 -0.00262986 -0.00324439 -0.00394026 -0.00471745 -0.00557598 -0.00651583 -0.00753702 -0.00862079 -0.00974836 -0.0109197 -0.0121349 -0.013394 -0.0146968 -0.0160434 -0.0174339 -0.018853 -0.0202858 -0.0217321 -0.023192 -0.0246655 -0.0261526 -0.0276533 -0.0291675 -0.0305746 -0.0317536 -0.0327047 -0.0334277 -0.0339227 -0.0341898 -0.0342288 -0.0340398 -0.033682 -0.0332148 -0.032638 -0.0319517 -0.0311559 -0.0302505 -0.0292357 -0.0281113 -0.0270223 -0.0261135 -0.025385 -0.0248366 -0.0244685 -0.0242807 -0.024273 -0.0244456 -0.024469 -0.0240137 -0.0230798 -0.0216673 -0.0197761 -0.0174063 -0.0145579 -0.0112309 -0.00719003 -0.00220026 0.00373846 0.0106261 0.0184627 0.0272482 0.0369827 0.0476661 0.0586498 0.0692851 0.0795721 0.0895107 0.099101 0.108343 0.117236 0.125782 0.133621 0.140398 0.146112 0.150763 0.154352 0.156878 0.158341 0.158741 0.158094 0.156414 0.153703 0.14996 0.145184 0.139377 0.132537 0.124665 0.116135 0.107317 0.0982141 0.0888245 0.0791486 0.0691865 0.0589381 0.0484034 0.0382502 0.0291464 0.0210919 0.0140868 0.00813104 0.00322461 -0.00063248 -0.00344022 -0.00548238 -0.0070427 -0.0081212 -0.00871787 -0.00883271 -0.00846572 -0.0076169 -0.00628625 -0.00481291 -0.00353602 -0.00245557 -0.00157156 -0.000884004 -0.000392891 -9.82227e-05 0 0 -3.24454e-05 -0.000129782 -0.000292009 -0.000519127 -0.000811136 -0.00116804 -0.00158983 -0.00207651 -0.00262454 -0.00323039 -0.00389404 -0.00461551 -0.0053948 -0.00623189 -0.0071268 -0.00807952 -0.00905715 -0.0100268 -0.0109884 -0.0119421 -0.0128877 -0.0138254 -0.0147551 -0.0156768 -0.0166073 -0.0175635 -0.0185455 -0.0195531 -0.0205864 -0.0216454 -0.02273 -0.0238404 -0.0248715 -0.0257183 -0.0263808 -0.026859 -0.027153 -0.0272626 -0.027188 -0.0269291 -0.0265575 -0.0261447 -0.0256907 -0.0251955 -0.0246591 -0.0240815 -0.0234627 -0.0228028 -0.0222226 -0.021843 -0.0216642 -0.0216859 -0.0219084 -0.0223316 -0.0229554 -0.0237799 -0.0243656 -0.0242733 -0.0235029 -0.0220543 -0.0199277 -0.017123 -0.0136401 -0.00947922 -0.00436498 0.0019778 0.00954911 0.018349 0.0283773 0.0396343 0.0521197 0.0658337 0.079926 0.0935466 0.106695 0.119372 0.131578 0.143311 0.154573 0.165362 0.175247 0.183792 0.190997 0.196863 0.20139 0.204578 0.206426 0.206935 0.206126 0.204023 0.200623 0.195929 0.189939 0.182653 0.174072 0.164196 0.153472 0.142346 0.130819 0.118892 0.106563 0.0938324 0.0807011 0.0671686 0.0540894 0.0423179 0.031854 0.0226978 0.0148493 0.00830844 0.00307524 -0.000850281 -0.00380861 -0.00614021 -0.00784508 -0.00892323 -0.00937464 -0.00919933 -0.00839729 -0.00696852 -0.00533528 -0.00391979 -0.00272208 -0.00174213 -0.000979949 -0.000435533 -0.000108883 0 0 -3.98597e-05 -0.000159439 -0.000358737 -0.000637755 -0.000996492 -0.00143495 -0.00195313 -0.00255102 -0.00319949 -0.00386938 -0.0045607 -0.00527345 -0.00600762 -0.00676322 -0.00754024 -0.00833869 -0.00910664 -0.00979216 -0.0103952 -0.0109159 -0.0113541 -0.0117099 -0.0119833 -0.0121743 -0.0123445 -0.012556 -0.0128085 -0.0131021 -0.0134369 -0.0138128 -0.0142298 -0.014688 -0.0151115 -0.0154245 -0.0156272 -0.0157194 -0.0157013 -0.0155727 -0.0153336 -0.0149842 -0.01461 -0.0142967 -0.0140443 -0.0138529 -0.0137223 -0.0136526 -0.0136439 -0.013696 -0.0138898 -0.0143057 -0.0149439 -0.0158043 -0.0168869 -0.0181917 -0.0197188 -0.0214681 -0.0228674 -0.0233445 -0.0228994 -0.021532 -0.0192425 -0.0160307 -0.0118967 -0.00684052 -0.000545517 0.00730487 0.0167106 0.0276718 0.0401884 0.0542603 0.0698876 0.0870703 0.104717 0.121736 0.138127 0.15389 0.169026 0.183534 0.197414 0.210666 0.222784 0.23326 0.242095 0.249289 0.254841 0.258751 0.26102 0.261648 0.260664 0.258099 0.253951 0.248222 0.240912 0.23202 0.221546 0.20949 0.196369 0.182699 0.168479 0.15371 0.138392 0.122525 0.106108 0.089142 0.0727015 0.0578613 0.0446214 0.0329819 0.0229426 0.0145036 0.00766491 0.00242653 -0.00161457 -0.00486142 -0.00731402 -0.00897236 -0.00983645 -0.00990628 -0.00918187 -0.00766319 -0.00586713 -0.00431055 -0.00299344 -0.0019158 -0.00107764 -0.00047895 -0.