<?xml version="1.0"?> 
<VTKFile type="StructuredGrid" version="0.1"> 
<StructuredGrid WholeExtent="0 128 0 128 0 0"> 
<Piece Extent="0 128 0 128 0 0"> 
<PointData>
<DataArray type="Float32" Name="u" format="ascii" NumberOfComponents="1"> 
0 0 0 0 0 0 0 0 0 0 0 0 0 0 0 0 0 0 0 0 0 0 0 0 0 0 0 0 0 0 0 0 0 0 0 0 0 0 0 0 0 0 0 0 0 0 0 0 0 0 0 0 0 0 0 0 0 0 0 0 0 0 0 0 0 0 0 0 0 0 0 0 0 0 0 0 0 0 0 0 0 0 0 0 0 0 0 0 0 0 0 0 0 0 0 0 0 0 0 0 0 0 0 0 0 0 0 0 0 0 0 0 0 0 0 0 0 0 0 0 0 0 0 0 0 0 0 0 0 0 2.7968e-10 1.11872e-09 2.51712e-09 4.47488e-09 6.99201e-09 1.00685e-08 1.37043e-08 1.78995e-08 2.0761e-08 2.03955e-08 1.68032e-08 9.984e-09 -6.2098e-11 -1.33351e-08 -2.98349e-08 -4.95617e-08 -6.10179e-08 -5.27061e-08 -2.46263e-08 2.32214e-08 9.08371e-08 1.78221e-07 2.85373e-07 4.12292e-07 5.39614e-07 6.47971e-07 7.37365e-07 8.07795e-07 8.5926e-07 8.91762e-07 9.05299e-07 8.99872e-07 8.85751e-07 8.73205e-07 8.62233e-07 8.52836e-07 8.45014e-07 8.38766e-07 8.34094e-07 8.30996e-07 8.3016e-07 8.32273e-07 8.37335e-07 8.45346e-07 8.56306e-07 8.70215e-07 8.87074e-07 9.06881e-07 9.1746e-07 9.06632e-07 8.74399e-07 8.20759e-07 7.45714e-07 6.49262e-07 5.31404e-07 3.9214e-07 2.56067e-07 1.4778e-07 6.72806e-08 1.45679e-08 -1.03577e-08 -7.49639e-09 2.31519e-08 8.15872e-08 1.29337e-07 1.2793e-07 7.73661e-08 -2.23553e-08 -1.71234e-07 -3.6927e-07 -6.16463e-07 -9.12813e-07 -1.21106e-06 -1.46395e-06 -1.67147e-06 -1.83363e-06 -1.95044e-06 -2.02188e-06 -2.04795e-06 -2.02867e-06 -1.98937e-06 -1.95541e-06 -1.92678e-06 -1.90348e-06 -1.88551e-06 -1.87288e-06 -1.86558e-06 -1.86361e-06 -1.86681e-06 -1.875e-06 -1.88818e-06 -1.90635e-06 -1.92951e-06 -1.95767e-06 -1.99081e-06 -2.02896e-06 -2.0473e-06 -2.02104e-06 -1.9502e-06 -1.83476e-06 -1.67473e-06 -1.47011e-06 -1.2209e-06 -9.27089e-07 -6.34082e-07 -3.87264e-07 -1.86637e-07 -3.22002e-08 7.60464e-08 1.38103e-07 1.53969e-07 1.23645e-07 7.42674e-08 3.29743e-08 -2.34539e-10 -2.53592e-08 -4.23998e-08 -5.13561e-08 -5.22283e-08 -4.50163e-08 -3.44656e-08 -2.53217e-08 -1.75845e-08 -1.12541e-08 -6.33042e-09 -2.81352e-09 -7.0338e-10 0 0 1.11872e-09 4.47488e-09 1.00685e-08 1.78995e-08 2.7968e-08 4.0274e-08 5.48173e-08 7.15981e-08 8.30439e-08 8.15821e-08 6.72128e-08 3.9936e-08 -2.48392e-10 -5.33403e-08 -1.1934e-07 -1.98247e-07 -2.44072e-07 -2.10824e-07 -9.85054e-08 9.28856e-08 3.63348e-07 7.12883e-07 1.14149e-06 1.64917e-06 2.15846e-06 2.59189e-06 2.94946e-06 3.23118e-06 3.43704e-06 3.56705e-06 3.6212e-06 3.59949e-06 3.543e-06 3.49282e-06 3.44893e-06 3.41134e-06 3.38006e-06 3.35507e-06 3.33637e-06 3.32398e-06 3.32064e-06 3.32909e-06 3.34934e-06 3.38138e-06 3.42522e-06 3.48086e-06 3.54829e-06 3.62752e-06 3.66984e-06 3.62653e-06 3.4976e-06 3.28304e-06 2.98286e-06 2.59705e-06 2.12562e-06 1.56856e-06 1.02427e-06 5.91121e-07 2.69122e-07 5.82717e-08 -4.14309e-08 -2.99856e-08 9.26076e-08 3.26349e-07 5.17349e-07 5.11721e-07 3.09464e-07 -8.94213e-08 -6.84936e-07 -1.47708e-06 -2.46585e-06 -3.65125e-06 -4.84424e-06 -5.85579e-06 -6.68589e-06 -7.33454e-06 -7.80175e-06 -8.08751e-06 -8.19182e-06 -8.11469e-06 -7.9575e-06 -7.82164e-06 -7.70711e-06 -7.61392e-06 -7.54205e-06 -7.49152e-06 -7.46232e-06 -7.45445e-06 -7.46723e-06 -7.49998e-06 -7.5527e-06 -7.62539e-06 -7.71804e-06 -7.83067e-06 -7.96326e-06 -8.11582e-06 -8.18918e-06 -8.08417e-06 -7.80079e-06 -7.33904e-06 -6.69893e-06 -5.88044e-06 -4.88358e-06 -3.70836e-06 -2.53633e-06 -1.54906e-06 -7.46548e-07 -1.28801e-07 3.04186e-07 5.52411e-07 6.15875e-07 4.94579e-07 2.9707e-07 1.31897e-07 -9.38156e-10 -1.01437e-07 -1.69599e-07 -2.05425e-07 -2.08913e-07 -1.80065e-07 -1.37863e-07 -1.01287e-07 -7.0338e-08 -4.50163e-08 -2.53217e-08 -1.12541e-08 -2.81352e-09 0 0 2.51712e-09 1.00685e-08 2.26541e-08 4.0274e-08 6.29281e-08 9.06164e-08 1.23339e-07 1.61096e-07 1.86849e-07 1.8356e-07 1.51229e-07 8.9856e-08 -5.58882e-10 -1.20016e-07 -2.68514e-07 -4.46055e-07 -5.49161e-07 -4.74355e-07 -2.21637e-07 2.08993e-07 8.17534e-07 1.60399e-06 2.56835e-06 3.71063e-06 4.85652e-06 5.83174e-06 6.63628e-06 7.27015e-06 7.73334e-06 8.02585e-06 8.14769e-06 8.09885e-06 7.97176e-06 7.85884e-06 7.7601e-06 7.67552e-06 7.60512e-06 7.5489e-06 7.50684e-06 7.47896e-06 7.47144e-06 7.49045e-06 7.53601e-06 7.60811e-06 7.70675e-06 7.83194e-06 7.98366e-06 8.16193e-06 8.25714e-06 8.15969e-06 7.86959e-06 7.38683e-06 6.71142e-06 5.84336e-06 4.78264e-06 3.52926e-06 2.3046e-06 1.33002e-06 6.05525e-07 1.31111e-07 -9.32194e-08 -6.74675e-08 2.08367e-07 7.34284e-07 1.16404e-06 1.15137e-06 6.96295e-07 -2.01198e-07 -1.54111e-06 -3.32343e-06 -5.54816e-06 -8.21531e-06 -1.08995e-05 -1.31755e-05 -1.50432e-05 -1.65027e-05 -1.75539e-05 -1.81969e-05 -1.84316e-05 -1.8258e-05 -1.79044e-05 -1.75987e-05 -1.7341e-05 -1.71313e-05 -1.69696e-05 -1.68559e-05 -1.67902e-05 -1.67725e-05 -1.68013e-05 -1.6875e-05 -1.69936e-05 -1.71571e-05 -1.73656e-05 -1.7619e-05 -1.79173e-05 -1.82606e-05 -1.84257e-05 -1.81894e-05 -1.75518e-05 -1.65129e-05 -1.50726e-05 -1.3231e-05 -1.09881e-05 -8.3438e-06 -5.70673e-06 -3.48538e-06 -1.67973e-06 -2.89801e-07 6.84418e-07 1.24292e-06 1.38572e-06 1.1128e-06 6.68407e-07 2.96769e-07 -2.11085e-09 -2.28233e-07 -3.81598e-07 -4.62205e-07 -4.70055e-07 -4.05147e-07 -3.10191e-07 -2.27895e-07 -1.58261e-07 -1.01287e-07 -5.69738e-08 -2.53217e-08 -6.33042e-09 0 0 4.47488e-09 1.78995e-08 4.0274e-08 7.15981e-08 1.11872e-07 1.61096e-07 2.19269e-07 2.86393e-07 3.32176e-07 3.26329e-07 2.68851e-07 1.59744e-07 -9.93568e-10 -2.13361e-07 -4.77359e-07 -7.92987e-07 -9.76286e-07 -8.43298e-07 -3.94022e-07 3.71542e-07 1.45339e-06 2.85153e-06 4.56596e-06 6.59667e-06 8.63382e-06 1.03675e-05 1.17978e-05 1.29247e-05 1.37482e-05 1.42682e-05 1.44848e-05 1.4398e-05 1.4172e-05 1.39713e-05 1.37957e-05 1.36454e-05 1.35202e-05 1.34203e-05 1.33455e-05 1.32959e-05 1.32826e-05 1.33164e-05 1.33974e-05 1.35255e-05 1.37009e-05 1.39234e-05 1.41932e-05 1.45101e-05 1.46794e-05 1.45061e-05 1.39904e-05 1.31322e-05 1.19314e-05 1.03882e-05 8.50247e-06 6.27424e-06 4.09707e-06 2.36448e-06 1.07649e-06 2.33087e-07 -1.65723e-07 -1.19942e-07 3.7043e-07 1.30539e-06 2.0694e-06 2.04688e-06 1.23786e-06 -3.57685e-07 -2.73974e-06 -5.90831e-06 -9.8634e-06 -1.4605e-05 -1.9377e-05 -2.34232e-05 -2.67435e-05 -2.93382e-05 -3.1207e-05 -3.235e-05 -3.27673e-05 -3.24587e-05 -3.183e-05 -3.12865e-05 -3.08284e-05 -3.04557e-05 -3.01682e-05 -2.99661e-05 -2.98493e-05 -2.98178e-05 -2.98689e-05 -2.99999e-05 -3.02108e-05 -3.05016e-05 -3.08722e-05 -3.13227e-05 -3.1853e-05 -3.24633e-05 -3.27567e-05 -3.23367e-05 -3.12032e-05 -2.93562e-05 -2.67957e-05 -2.35218e-05 -1.95343e-05 -1.48334e-05 -1.01453e-05 -6.19623e-06 -2.98619e-06 -5.15203e-07 1.21674e-06 2.20964e-06 2.4635e-06 1.97831e-06 1.18828e-06 5.2759e-07 -3.75262e-09 -4.05748e-07 -6.78397e-07 -8.21698e-07 -8.35653e-07 -7.20261e-07 -5.5145e-07 -4.05147e-07 -2.81352e-07 -1.80065e-07 -1.01287e-07 -4.50163e-08 -1.12541e-08 0 0 6.99201e-09 2.7968e-08 6.29281e-08 1.11872e-07 1.748e-07 2.51712e-07 3.42608e-07 4.47488e-07 5.19024e-07 5.09888e-07 4.2008e-07 2.496e-07 -1.55245e-09 -3.33377e-07 -7.45874e-07 -1.23904e-06 -1.52545e-06 -1.31765e-06 -6.15659e-07 5.80535e-07 2.27093e-06 4.45552e-06 7.13431e-06 1.03073e-05 1.34903e-05 1.61993e-05 1.84341e-05 2.01949e-05 2.14815e-05 2.2294e-05 2.26325e-05 2.24968e-05 2.21438e-05 2.18301e-05 2.15558e-05 2.13209e-05 2.11253e-05 2.09692e-05 2.08523e-05 2.07749e-05 2.0754e-05 2.08068e-05 2.09334e-05 2.11336e-05 2.14077e-05 2.17554e-05 2.21768e-05 2.2672e-05 2.29365e-05 2.26658e-05 2.186e-05 2.0519e-05 1.86428e-05 1.62316e-05 1.32851e-05 9.80351e-06 6.40167e-06 3.6945e-06 1.68201e-06 3.64198e-07 -2.58943e-07 -1.8741e-07 5.78797e-07 2.03968e-06 3.23343e-06 3.19826e-06 1.93415e-06 -5.58883e-07 -4.28085e-06 -9.23174e-06 -1.54116e-05 -2.28203e-05 -3.02765e-05 -3.65987e-05 -4.17868e-05 -4.58409e-05 -4.87609e-05 -5.05469e-05 -5.11989e-05 -5.07168e-05 -4.97343e-05 -4.88852e-05 -4.81694e-05 -4.7587e-05 -4.71378e-05 -4.6822e-05 -4.66395e-05 -4.65903e-05 -4.66702e-05 -4.68749e-05 -4.72044e-05 -4.76587e-05 -4.82378e-05 -4.89417e-05 -4.97704e-05 -5.07239e-05 -5.11824e-05 -5.05261e-05 -4.8755e-05 -4.5869e-05 -4.18683e-05 -3.67527e-05 -3.05224e-05 -2.31772e-05 -1.5852e-05 -9.6816e-06 -4.66593e-06 -8.05004e-07 1.90116e-06 3.45257e-06 3.84922e-06 3.09112e-06 1.85669e-06 8.24359e-07 -5.86348e-09 -6.33981e-07 -1.05999e-06 -1.2839e-06 -1.30571e-06 -1.12541e-06 -8.61641e-07 -6.33042e-07 -4.39613e-07 -2.81352e-07 -1.58261e-07 -7.0338e-08 -1.75845e-08 0 0 1.00685e-08 4.0274e-08 9.06164e-08 1.61096e-07 2.51712e-07 3.62466e-07 4.93356e-07 6.44383e-07 7.47395e-07 7.34239e-07 6.04915e-07 3.59424e-07 -2.23553e-09 -4.80063e-07 -1.07406e-06 -1.78422e-06 -2.19664e-06 -1.89742e-06 -8.86548e-07 8.3597e-07 3.27014e-06 6.41595e-06 1.02734e-05 1.48425e-05 1.94261e-05 2.3327e-05 2.65451e-05 2.90806e-05 3.09334e-05 3.21034e-05 3.25908e-05 3.23954e-05 3.1887e-05 3.14354e-05 3.10404e-05 3.07021e-05 3.04205e-05 3.01956e-05 3.00274e-05 2.99158e-05 2.98858e-05 2.99618e-05 3.01441e-05 3.04325e-05 3.0827e-05 3.13278e-05 3.19346e-05 3.26477e-05 3.30285e-05 3.26388e-05 3.14784e-05 2.95473e-05 2.68457e-05 2.33734e-05 1.91306e-05 1.4117e-05 9.2184e-06 5.32009e-06 2.4221e-06 5.24446e-07 -3.72878e-07 -2.6987e-07 8.33468e-07 2.93714e-06 4.65614e-06 4.60549e-06 2.78518e-06 -8.04791e-07 -6.16442e-06 -1.32937e-05 -2.21927e-05 -3.28613e-05 -4.35982e-05 -5.27021e-05 -6.0173e-05 -6.60109e-05 -7.02157e-05 -7.27875e-05 -7.37264e-05 -7.30322e-05 -7.16175e-05 -7.03947e-05 -6.9364e-05 -6.85252e-05 -6.78785e-05 -6.74237e-05 -6.71609e-05 -6.70901e-05 -6.72051e-05 -6.74998e-05 -6.79743e-05 -6.86285e-05 -6.94624e-05 -7.0476e-05 -7.16693e-05 -7.30424e-05 -7.37026e-05 -7.27575e-05 -7.02071e-05 -6.60514e-05 -6.02903e-05 -5.2924e-05 -4.39522e-05 -3.33752e-05 -2.28269e-05 -1.39415e-05 -6.71893e-06 -1.15921e-06 2.73767e-06 4.9717e-06 5.54288e-06 4.45121e-06 2.67363e-06 1.18708e-06 -8.44341e-09 -9.12933e-07 -1.52639e-06 -1.84882e-06 -1.88022e-06 -1.62059e-06 -1.24076e-06 -9.11581e-07 -6.33042e-07 -4.05147e-07 -2.27895e-07 -1.01287e-07 -2.53217e-08 0 0 1.37043e-08 5.48173e-08 1.23339e-07 2.19269e-07 3.42608e-07 4.93356e-07 6.71512e-07 8.77077e-07 1.01729e-06 9.99381e-07 8.23357e-07 4.89216e-07 -3.0428e-09 -6.53419e-07 -1.46191e-06 -2.42852e-06 -2.98988e-06 -2.5826e-06 -1.20669e-06 1.13785e-06 4.45102e-06 8.73282e-06 1.39833e-05 2.02023e-05 2.64411e-05 3.17506e-05 3.61309e-05 3.95819e-05 4.21037e-05 4.36963e-05 4.43597e-05 4.40937e-05 4.34018e-05 4.2787e-05 4.22494e-05 4.1789e-05 4.14057e-05 4.10996e-05 4.08706e-05 4.07188e-05 4.06778e-05 4.07814e-05 4.10294e-05 4.14219e-05 4.1959e-05 4.26405e-05 4.34666e-05 4.44372e-05 4.49555e-05 4.4425e-05 4.28455e-05 4.02172e-05 3.654e-05 3.18138e-05 2.60388e-05 1.92149e-05 1.25473e-05 7.24123e-06 3.29675e-06 7.13829e-07 -5.07528e-07 -3.67323e-07 1.13444e-06 3.99777e-06 6.33753e-06 6.26858e-06 3.79094e-06 -1.09541e-06 -8.39046e-06 -1.80942e-05 -3.02067e-05 -4.47278e-05 -5.9342e-05 -7.17334e-05 -8.19021e-05 -8.98481e-05 -9.55714e-05 -9.90719e-05 -0.00010035 -9.94049e-05 -9.74793e-05 -9.58151e-05 -9.44121e-05 -9.32705e-05 -9.23901e-05 -9.17711e-05 -9.14134e-05 -9.1317e-05 -9.14736e-05 -9.18748e-05 -9.25206e-05 -9.3411e-05 -9.4546e-05 -9.59257e-05 -9.75499e-05 -9.94188e-05 -0.000100317 -9.90311e-05 -9.55597e-05 -8.99033e-05 -8.20619e-05 -7.20354e-05 -5.98239e-05 -4.54274e-05 -3.107e-05 -1.89759e-05 -9.14521e-06 -1.57781e-06 3.72628e-06 6.76704e-06 7.54447e-06 6.05859e-06 3.6391e-06 1.61574e-06 -1.14924e-08 -1.2426e-06 -2.07759e-06 -2.51645e-06 -2.55919e-06 -2.2058e-06 -1.68882e-06 -1.24076e-06 -8.61641e-07 -5.5145e-07 -3.10191e-07 -1.37863e-07 -3.44656e-08 0 0 1.78995e-08 7.15981e-08 1.61096e-07 2.86393e-07 4.47488e-07 6.44383e-07 8.77077e-07 1.14557e-06 1.3287e-06 1.30531e-06 1.07541e-06 6.38976e-07 -3.97427e-09 -8.53445e-07 -1.90944e-06 -3.17195e-06 -3.90514e-06 -3.37319e-06 -1.57609e-06 1.48617e-06 5.81358e-06 1.14061e-05 1.82638e-05 2.63867e-05 3.45353e-05 4.14702e-05 4.71914e-05 5.16989e-05 5.49926e-05 5.70727e-05 5.79391e-05 5.75918e-05 5.66881e-05 5.58851e-05 5.51829e-05 5.45815e-05 5.40809e-05 5.36811e-05 5.3382e-05 5.31837e-05 5.31302e-05 5.32655e-05 5.35894e-05 5.41021e-05 5.48036e-05 5.56938e-05 5.67727e-05 5.80404e-05 5.87174e-05 5.80245e-05 5.59615e-05 5.25286e-05 4.77257e-05 4.15528e-05 3.40099e-05 2.5097e-05 1.63883e-05 9.45793e-06 4.30596e-06 9.32348e-07 -6.62894e-07 -4.79769e-07 1.48172e-06 5.22158e-06 8.27759e-06 8.18754e-06 4.95143e-06 -1.43074e-06 -1.0959e-05 -2.36333e-05 -3.94536e-05 -5.842e-05 -7.75079e-05 -9.36926e-05 -0.000106974 -0.000117353 -0.000124828 -0.0001294 -0.000131069 -0.000129835 -0.00012732 -0.000125146 -0.000123314 -0.000121823 -0.000120673 -0.000119864 -0.000119397 -0.000119271 -0.000119476 -0.00012 -0.000120843 -0.000122006 -0.000123489 -0.000125291 -0.000127412 -0.000129853 -0.000131027 -0.000129347 -0.000124813 -0.000117425 -0.000107183 -9.4087e-05 -7.81373e-05 -5.93337e-05 -4.05812e-05 -2.47849e-05 -1.19448e-05 -2.06081e-06 4.86697e-06 8.83858e-06 9.85401e-06 7.91326e-06 4.75311e-06 2.11036e-06 -1.50105e-08 -1.62299e-06 -2.71359e-06 -3.28679e-06 -3.34261e-06 -2.88104e-06 -2.2058e-06 -1.62059e-06 -1.12541e-06 -7.20261e-07 -4.05147e-07 -1.80065e-07 -4.50163e-08 0 0 2.11859e-08 8.47435e-08 1.90673e-07 3.38974e-07 5.29647e-07 7.62691e-07 1.03811e-06 1.3559e-06 1.57266e-06 1.545e-06 1.27293e-06 7.56431e-07 -4.48528e-09 -1.00982e-06 -2.25958e-06 -3.75375e-06 -4.62e-06 -3.98595e-06 -1.85161e-06 1.78302e-06 6.91793e-06 1.35531e-05 2.16886e-05 3.13244e-05 4.09906e-05 4.92173e-05 5.60046e-05 6.13523e-05 6.52606e-05 6.77295e-05 6.87588e-05 6.83487e-05 6.72787e-05 6.63285e-05 6.54981e-05 6.47874e-05 6.41966e-05 6.37255e-05 6.33742e-05 6.31427e-05 6.30821e-05 6.32432e-05 6.36262e-05 6.42311e-05 6.50578e-05 6.61063e-05 6.73767e-05 6.8869e-05 6.96618e-05 6.88339e-05 6.63853e-05 6.2316e-05 5.6626e-05 4.93153e-05 4.03839e-05 2.98317e-05 1.95172e-05 1.12986e-05 5.17595e-06 1.14918e-06 -7.81674e-07 -6.1661e-07 1.64437e-06 6.00127e-06 9.54406e-06 9.36272e-06 5.45726e-06 -2.17233e-06 -1.3526e-05 -2.86039e-05 -4.74058e-05 -6.99319e-05 -9.26015e-05 -0.000111834 -0.000127629 -0.000139987 -0.000148908 -0.000154392 -0.000156439 -0.000155048 -0.000152137 -0.000149621 -0.0001475 -0.000145774 -0.000144444 -0.000143509 -0.000142969 -0.000142825 -0.000143062 -0.00014367 -0.000144646 -0.000145992 -0.000147707 -0.000149792 -0.000152246 -0.00015507 -0.000156388 -0.000154328 -0.00014889 -0.000140072 -0.000127876 -0.000112302 -9.3348e-05 -7.10158e-05 -4.87437e-05 -2.99706e-05 -1.46964e-05 -2.92131e-06 5.35483e-06 1.0132e-05 1.14101e-05 9.18929e-06 5.51938e-06 2.45032e-06 -1.78747e-08 -1.88522e-06 -3.1517e-06 -3.81734e-06 -3.88211e-06 -3.34603e-06 -2.56181e-06 -1.88214e-06 -1.30704e-06 -8.36508e-07 -4.70536e-07 -2.09127e-07 -5.22817e-08 0 0 2.20951e-08 8.83804e-08 1.98856e-07 3.53521e-07 5.52377e-07 7.95423e-07 1.08266e-06 1.41409e-06 1.64018e-06 1.61141e-06 1.32779e-06 7.89308e-07 -4.03115e-09 -1.05223e-06 -2.35528e-06 -3.9132e-06 -4.81197e-06 -4.13762e-06 -1.89014e-06 1.93048e-06 7.32422e-06 1.42911e-05 2.28311e-05 3.29442e-05 4.3089e-05 5.17237e-05 5.88485e-05 6.44634e-05 6.85683e-05 7.11632e-05 7.22482e-05 7.18232e-05 7.07065e-05 6.97161e-05 6.88521e-05 6.81145e-05 6.75033e-05 6.70184e-05 6.666e-05 6.64279e-05 6.63724e-05 6.65438e-05 6.69419e-05 6.75668e-05 6.84186e-05 6.94971e-05 7.08024e-05 7.23346e-05 7.31362e-05 7.225e-05 6.96759e-05 6.54139e-05 5.94641e-05 5.18265e-05 4.25009e-05 3.14876e-05 2.071e-05 1.20918e-05 5.63294e-06 1.3335e-06 -8.06569e-07 -7.8725e-07 1.39145e-06 5.72954e-06 9.20467e-06 8.7945e-06 4.49904e-06 -3.68171e-06 -1.57478e-05 -3.16991e-05 -5.15357e-05 -7.52577e-05 -9.91284e-05 -0.000119412 -0.000136107 -0.000149215 -0.000158735 -0.000164668 -0.000167013 -0.000165771 -0.000162928 -0.000160471 -0.000158401 -0.000156717 -0.000155421 -0.00015451 -0.000153986 -0.000153849 -0.000154084 -0.000154679 -0.000155633 -0.000156947 -0.000158619 -0.000160651 -0.000163042 -0.000165793 -0.00016696 -0.0001646 -0.000158715 -0.000149303 -0.000136366 -0.000119902 -9.99115e-05 -7.63952e-05 -5.29405e-05 -3.31351e-05 -1.69791e-05 -4.4724e-06 4.38492e-06 9.59288e-06 1.11515e-05 9.06075e-06 5.44161e-06 2.41504e-06 -1.8962e-08 -1.8604e-06 -3.10927e-06 -3.76557e-06 -3.8293e-06 -3.30047e-06 -2.52692e-06 -1.85651e-06 -1.28924e-06 -8.25117e-07 -4.64128e-07 -2.06279e-07 -5.15698e-08 0 0 2.06272e-08 8.25089e-08 1.85645e-07 3.30035e-07 5.1568e-07 7.4258e-07 1.01073e-06 1.32014e-06 1.53126e-06 1.50454e-06 1.23999e-06 7.37608e-07 -2.61189e-09 -9.80666e-07 -2.19655e-06 -3.65028e-06 -4.48108e-06 -3.82821e-06 -1.69167e-06 1.92855e-06 7.03244e-06 1.362e-05 2.16912e-05 3.12461e-05 4.08303e-05 4.89894e-05 5.57232e-05 6.1032e-05 6.49156e-05 6.7374e-05 6.84074e-05 6.80155e-05 6.69714e-05 6.60479e-05 6.5245e-05 6.45627e-05 6.40009e-05 6.35598e-05 6.32392e-05 6.30393e-05 6.30014e-05 6.31671e-05 6.35365e-05 6.41094e-05 6.48859e-05 6.58661e-05 6.70498e-05 6.84372e-05 6.91406e-05 6.82726e-05 6.58332e-05 6.18223e-05 5.624e-05 4.90863e-05 4.03611e-05 3.00645e-05 1.99665e-05 1.18374e-05 5.67694e-06 1.4853e-06 -7.37577e-07 -9.91687e-07 7.22971e-07 4.4064e-06 7.25942e-06 6.48288e-06 2.07678e-06 -5.95889e-06 -1.76241e-05 -3.29189e-05 -5.18433e-05 -7.43972e-05 -9.70887e-05 -0.000116426 -0.000132408 -0.000145036 -0.000154309 -0.000160228 -0.000162792 -0.000162002 -0.000159692 -0.000157697 -0.000156017 -0.000154653 -0.000153603 -0.000152868 -0.000152449 -0.000152344 -0.000152542 -0.000153028 -0.000153804 -0.00015487 -0.000156224 -0.000157867 -0.0001598 -0.000162022 -0.00016274 -0.000160162 -0.000154288 -0.000145117 -0.00013265 -0.000116887 -9.78277e-05 -7.54719e-05 -5.31716e-05 -3.42785e-05 -1.87927e-05 -6.71408e-06 1.95723e-06 7.22129e-06 9.07809e-06 7.52764e-06 4.51981e-06 2.00451e-06 -1.82725e-08 -1.54853e-06 -2.58627e-06 -3.13149e-06 -3.18418e-06 -2.74435e-06 -2.10115e-06 -1.5437e-06 -1.07201e-06 -6.86088e-07 -3.85925e-07 -1.71522e-07 -4.28805e-08 0 0 1.67822e-08 6.71289e-08 1.5104e-07 2.68516e-07 4.19556e-07 6.0416e-07 8.22329e-07 1.07406e-06 1.2459e-06 1.22439e-06 1.00954e-06 6.01329e-07 -2.275e-10 -7.95134e-07 -1.78339e-06 -2.965e-06 -3.62732e-06 -3.05772e-06 -1.2562e-06 1.77723e-06 6.04258e-06 1.15399e-05 1.8269e-05 2.62302e-05 3.42147e-05 4.10142e-05 4.66287e-05 5.10581e-05 5.43025e-05 5.63619e-05 5.72363e-05 5.69256e-05 5.60735e-05 5.53239e-05 5.46767e-05 5.41319e-05 5.36895e-05 5.33495e-05 5.31119e-05 5.29767e-05 5.29689e-05 5.31133e-05 5.34099e-05 5.38588e-05 5.44599e-05 5.52133e-05 5.61189e-05 5.71768e-05 5.76751e-05 5.69019e-05 5.48573e-05 5.15412e-05 4.69537e-05 4.10947e-05 3.39643e-05 2.55624e-05 1.72869e-05 1.05354e-05 5.30795e-06 1.60459e-06 -5.747e-07 -1.22992e-06 -3.61076e-07 2.03184e-06 3.70832e-06 2.42786e-06 -1.80954e-06 -9.00388e-06 -1.91552e-05 -3.22634e-05 -4.83285e-05 -6.73506e-05 -8.64822e-05 -0.000102876 -0.000116532 -0.00012745 -0.00013563 -0.000141072 -0.000143776 -0.000143743 -0.00014243 -0.000141299 -0.000140349 -0.000139579 -0.000138991 -0.000138583 -0.000138356 -0.00013831 -0.000138434 -0.000138718 -0.00013916 -0.000139761 -0.000140522 -0.000141441 -0.00014252 -0.000143758 -0.000143731 -0.000141014 -0.000135609 -0.000127515 -0.000116731 -0.000103258 -8.70967e-05 -6.8246e-05 -4.9437e-05 -3.34008e-05 -2.01372e-05 -9.64636e-06 -1.92822e-06 3.01721e-06 5.18994e-06 4.58996e-06 2.75398e-06 1.21873e-06 -1.5806e-08 -9.49622e-07 -1.58272e-06 -1.91509e-06 -1.94675e-06 -1.67769e-06 -1.28448e-06 -9.437e-07 -6.55347e-07 -4.19422e-07 -2.35925e-07 -1.04856e-07 -2.62139e-08 0 0 1.05601e-08 4.22406e-08 9.50412e-08 1.68962e-07 2.64003e-07 3.80165e-07 5.17447e-07 6.75849e-07 7.8411e-07 7.70967e-07 6.36422e-07 3.80473e-07 3.12202e-09 -4.95632e-07 -1.11579e-06 -1.85735e-06 -2.25068e-06 -1.82614e-06 -5.83742e-07 1.47653e-06 4.35466e-06 8.05066e-06 1.25645e-05 1.78962e-05 2.32421e-05 2.77983e-05 3.15649e-05 3.45418e-05 3.67292e-05 3.81269e-05 3.87349e-05 3.85533e-05 3.80129e-05 3.75442e-05 3.71473e-05 3.68223e-05 3.65691e-05 3.63877e-05 3.62782e-05 3.62404e-05 3.62749e-05 3.63822e-05 3.65622e-05 3.6815e-05 3.71405e-05 3.75387e-05 3.80097e-05 3.85534e-05 3.87396e-05 3.81378e-05 3.67482e-05 3.45706e-05 3.16052e-05 2.78518e-05 2.33106e-05 1.79815e-05 1.2671e-05 8.18584e-06 4.52596e-06 1.69137e-06 -3.17937e-07 -1.50196e-06 -1.86069e-06 -1.39413e-06 -1.44864e-06 -3.37057e-06 -7.1599e-06 -1.28167e-05 -2.03408e-05 -2.97324e-05 -4.09914e-05 -5.41178e-05 -6.73091e-05 -7.87626e-05 -8.84785e-05 -9.64566e-05 -0.000102697 -0.0001072 -0.000109965 -0.000110992 -0.000111143 -0.000111277 -0.000111395 -0.000111498 -0.000111584 -0.000111655 -0.000111709 -0.000111748 -0.000111763 -0.000111747 -0.0001117 -0.000111622 -0.000111513 -0.000111373 -0.000111202 -0.000111 -0.000109931 -0.000107157 -0.000102678 -9.64949e-05 -8.86073e-05 -7.90152e-05 -6.77185e-05 -5.47173e-05 -4.17368e-05 -3.05019e-05 -2.10127e-05 -1.32692e-05 -7.27144e-06 -3.01936e-06 -5.12976e-07 2.47709e-07 1.44125e-07 5.77008e-08 -1.15627e-08 -6.36659e-08 -9.86087e-08 -1.16391e-07 -1.17013e-07 -1.00475e-07 -7.69259e-08 -5.6517e-08 -3.92479e-08 -2.51186e-08 -1.41292e-08 -6.27966e-09 -1.56992e-09 0 0 1.96094e-09 7.84377e-09 1.76485e-08 3.13751e-08 4.90236e-08 7.05939e-08 9.60862e-08 1.255e-07 1.45878e-07 1.4426e-07 1.20648e-07 7.50397e-08 7.43667e-09 -8.21614e-08 -1.93755e-07 -3.27343e-07 -3.51172e-07 -1.33485e-07 3.25715e-07 1.02643e-06 1.96866e-06 3.15241e-06 4.57767e-06 6.24444e-06 7.91251e-06 9.34164e-06 1.05318e-05 1.14831e-05 1.21954e-05 1.26688e-05 1.29033e-05 1.28988e-05 1.27893e-05 1.27087e-05 1.26568e-05 1.26338e-05 1.26397e-05 1.26743e-05 1.27379e-05 1.28302e-05 1.29195e-05 1.29739e-05 1.29934e-05 1.2978e-05 1.29276e-05 1.28424e-05 1.27222e-05 1.25671e-05 1.23341e-05 1.19804e-05 1.15058e-05 1.09105e-05 1.01945e-05 9.3576e-06 8.39995e-06 7.32153e-06 6.11892e-06 4.78874e-06 3.33097e-06 1.74563e-06 3.27117e-08 -1.80779e-06 -3.77586e-06 -5.87152e-06 -8.21146e-06 -1.09124e-05 -1.39743e-05 -1.73972e-05 -2.11812e-05 -2.53261e-05 -2.9832e-05 -3.46988e-05 -3.95692e-05 -4.40857e-05 -4.82481e-05 -5.20566e-05 -5.55111e-05 -5.86116e-05 -6.13581e-05 -6.37507e-05 -6.58285e-05 -6.76307e-05 -6.91572e-05 -7.04082e-05 -7.13835e-05 -7.20832e-05 -7.25073e-05 -7.26558e-05 -7.2526e-05 -7.21152e-05 -7.14234e-05 -7.04505e-05 -6.91967e-05 -6.76618e-05 -6.58459e-05 -6.3749e-05 -6.13402e-05 -5.85889e-05 -5.54949e-05 -5.20584e-05 -4.82792e-05 -4.41574e-05 -3.9693e-05 -3.4886e-05 -3.00708e-05 -2.55819e-05 -2.14192e-05 -1.75827e-05 -1.40724e-05 -1.08884e-05 -8.03065e-06 -5.49911e-06 -3.30976e-06 -1.47858e-06 -5.54259e-09 1.10934e-06 1.86606e-06 2.26462e-06 2.30503e-06 1.98729e-06 1.52152e-06 1.11785e-06 7.76285e-07 4.96822e-07 2.79463e-07 1.24206e-07 3.10514e-08 0 0 -9.01536e-09 -3.60614e-08 -8.11382e-08 -1.44246e-07 -2.25384e-07 -3.24553e-07 -4.41753e-07 -5.76983e-07 -6.68792e-07 -6.55726e-07 -5.37786e-07 -3.14972e-07 1.27165e-08 4.45279e-07 9.82716e-07 1.62503e-06 2.07121e-06 2.02026e-06 1.47217e-06 4.26948e-07 -1.11541e-06 -3.15489e-06 -5.69152e-06 -8.72527e-06 -1.17741e-05 -1.43558e-05 -1.64705e-05 -1.81181e-05 -1.92986e-05 -2.00121e-05 -2.02585e-05 -2.00379e-05 -1.9597e-05 -1.91827e-05 -1.87948e-05 -1.84336e-05 -1.80988e-05 -1.77906e-05 -1.75089e-05 -1.72538e-05 -1.70973e-05 -1.71115e-05 -1.72965e-05 -1.76522e-05 -1.81786e-05 -1.88758e-05 -1.97437e-05 -2.07823e-05 -2.15413e-05 -2.15705e-05 -2.08697e-05 -1.9439e-05 -1.72785e-05 -1.4388e-05 -1.07676e-05 -6.41734e-06 -2.36937e-06 3.44076e-07 1.72299e-06 1.76738e-06 4.77247e-07 -2.14742e-06 -6.1066e-06 -1.14003e-05 -1.65801e-05 -2.01976e-05 -2.22528e-05 -2.27456e-05 -2.16761e-05 -1.90443e-05 -1.48502e-05 -9.0937e-06 -3.26273e-06 1.15495e-06 4.15932e-06 5.75038e-06 5.92814e-06 4.69259e-06 2.04374e-06 -2.01842e-06 -6.48826e-06 -1.03602e-05 -1.36342e-05 -1.63102e-05 -1.83883e-05 -1.98685e-05 -2.07508e-05 -2.10351e-05 -2.07249e-05 -1.98237e-05 -1.83314e-05 -1.62481e-05 -1.35737e-05 -1.03082e-05 -6.45173e-06 -2.00417e-06 2.04059e-06 4.68871e-06 5.94019e-06 5.79503e-06 4.25322e-06 1.31478e-06 -3.0203e-06 -8.75203e-06 -1.44392e-05 -1.86407e-05 -2.13566e-05 -2.25867e-05 -2.23312e-05 -2.059e-05 -1.73631e-05 -1.26505e-05 -7.60768e-06 -3.3901e-06 2.25444e-09 2.56938e-06 4.31128e-06 5.22795e-06 5.31939e-06 4.5856e-06 3.51085e-06 2.5794e-06 1.79125e-06 1.1464e-06 6.44851e-07 2.866e-07 7.16501e-08 0 0 -2.23688e-08 -8.94751e-08 -2.01319e-07 -3.579e-07 -5.59219e-07 -8.05276e-07 -1.09607e-06 -1.4316e-06 -1.6599e-06 -1.62899e-06 -1.33888e-06 -7.89561e-07 1.89614e-08 1.08669e-06 2.41362e-06 3.99976e-06 5.01646e-06 4.63508e-06 2.85562e-06 -3.21923e-07 -4.89754e-06 -1.08712e-05 -1.8243e-05 -2.70129e-05 -3.58176e-05 -4.3294e-05 -4.9442e-05 -5.42617e-05 -5.7753e-05 -5.9916e-05 -6.07507e-05 -6.02569e-05 -5.91462e-05 -5.81298e-05 -5.72076e-05 -5.63798e-05 -5.56463e-05 -5.50071e-05 -5.44622e-05 -5.40117e-05 -5.37756e-05 -5.38742e-05 -5.43075e-05 -5.50756e-05 -5.61783e-05 -5.76157e-05 -5.93878e-05 -6.14947e-05 -6.28868e-05 -6.25147e-05 -6.03785e-05 -5.64781e-05 -5.08136e-05 -4.33849e-05 -3.41921e-05 -2.32351e-05 -1.27939e-05 -5.14814e-06 -2.97984e-07 1.75662e-06 1.01567e-06 -2.52084e-06 -8.85291e-06 -1.79805e-05 -2.65547e-05 -3.12263e-05 -3.19953e-05 -2.88618e-05 -2.18258e-05 -1.08872e-05 3.95395e-06 2.26976e-05 4.16105e-05 5.69592e-05 6.87438e-05 7.69643e-05 8.16206e-05 8.27128e-05 8.02409e-05 7.42048e-05 6.68781e-05 6.05345e-05 5.51737e-05 5.0796e-05 4.74012e-05 4.49894e-05 4.35606e-05 4.31147e-05 4.36409e-05 4.51281e-05 4.75764e-05 5.09858e-05 5.53563e-05 6.06878e-05 6.69804e-05 7.42342e-05 8.02118e-05 8.26762e-05 8.16273e-05 7.70653e-05 6.899e-05 5.74014e-05 4.22997e-05 2.36847e-05 5.15806e-06 -9.67848e-06 -2.0825e-05 -2.82814e-05 -3.20477e-05 -3.2124e-05 -2.85103e-05 -2.12065e-05 -1.27496e-05 -5.67687e-06 1.18283e-08 4.31647e-06 7.23706e-06 8.77359e-06 8.92606e-06 7.69447e-06 5.89108e-06 4.32814e-06 3.00565e-06 1.92362e-06 1.08203e-06 4.80904e-07 1.20226e-07 0 0 -3.29111e-08 -1.31644e-07 -2.962e-07 -5.26577e-07 -8.22776e-07 -1.1848e-06 -1.61264e-06 -2.10631e-06 -2.44247e-06 -2.39782e-06 -1.97234e-06 -1.16604e-06 2.10866e-08 1.58903e-06 3.5378e-06 5.86739e-06 7.29905e-06 6.55402e-06 3.6323e-06 -1.46611e-06 -8.74121e-06 -1.8193e-05 -2.98215e-05 -4.36266e-05 -5.74824e-05 -6.92626e-05 -7.89674e-05 -8.65967e-05 -9.21504e-05 -9.56287e-05 -9.70315e-05 -9.63587e-05 -9.4724e-05 -9.32409e-05 -9.19094e-05 -9.07295e-05 -8.97011e-05 -8.88243e-05 -8.80991e-05 -8.75255e-05 -8.72518e-05 -8.74264e-05 -8.80492e-05 -8.91204e-05 -9.06398e-05 -9.26075e-05 -9.50235e-05 -9.78878e-05 -9.96687e-05 -9.88347e-05 -9.53858e-05 -8.93219e-05 -8.0643e-05 -6.93493e-05 -5.54406e-05 -3.89169e-05 -2.30794e-05 -1.1229e-05 -3.36574e-06 5.10373e-07 3.99341e-07 -3.69883e-06 -1.17842e-05 -2.38566e-05 2.60684e-05 0.000203975 0.000509864 0.000943735 0.00150559 0.00219542 0.00301324 0.00395904 0.00490509 0.00572364 0.00641471 0.0069783 0.00741439 0.00772299 0.00790411 0.00795774 0.00794826 0.00794006 0.00793313 0.00792747 0.00792308 0.00791997 0.00791813 0.00791757 0.00791826 0.00792019 0.00792336 0.00792776 0.00793341 0.0079403 0.00794842 0.00795779 0.00790407 0.00772294 0.0074144 0.00697845 0.00641509 0.00572433 0.00490616 0.00396057 0.00301512 0.00219732 0.00150718 0.000944693 0.00050987 0.000202705 2.31985e-05 -2.86492e-05 -1.7567e-05 -8.28372e-06 -7.99371e-07 4.88606e-06 8.77259e-06 1.08602e-05 1.11489e-05 9.63868e-06 7.37962e-06 5.42176e-06 3.76511e-06 2.40967e-06 1.35544e-06 6.02418e-07 1.50604e-07 0 0 -3.5454e-08 -1.41816e-07 -3.19086e-07 -5.67264e-07 -8.8635e-07 -1.27634e-06 -1.73725e-06 -2.26906e-06 -2.63155e-06 -2.58448e-06 -2.12787e-06 -1.26171e-06 1.40073e-08 1.69927e-06 3.79409e-06 6.29846e-06 7.73344e-06 6.6201e-06 2.95844e-06 -3.25154e-06 -1.20098e-05 -2.33165e-05 -3.71714e-05 -5.35747e-05 -7.00325e-05 -8.40514e-05 -9.56311e-05 -0.000104772 -0.000111473 -0.000115736 -0.000117559 -0.000116944 -0.000115196 -0.000113624 -0.000112228 -0.000111007 -0.000109961 -0.000109091 -0.000108397 -0.000107877 -0.000107662 -0.00010788 -0.000108531 -0.000109615 -0.000111132 -0.000113081 -0.000115464 -0.000118279 -0.000119854 -0.000118513 -0.000114257 -0.000107085 -9.69989e-05 -8.39971e-05 -6.808e-05 -4.92478e-05 -3.11508e-05 -1.74395e-05 -8.11406e-06 -3.17433e-06 -2.62036e-06 -6.45216e-06 -1.46697e-05 -2.7273e-05 0.000205492 0.000933381 0.00215639 0.00387453 0.00608779 0.00879617 0.0119997 0.0156983 0.0193972 0.0226015 0.0253113 0.0275265 0.0292471 0.0304731 0.0312045 0.0314414 0.0314317 0.0314232 0.0314161 0.0314103 0.0314058 0.0314026 0.0314007 0.0314001 0.0314008 0.0314028 0.0314061 0.0314106 0.0314164 0.0314235 0.0314318 0.0314415 0.0312045 0.030473 0.0292471 0.0275267 0.0253117 0.0226023 0.0193984 0.0157001 0.0120018 0.00879835 0.00608964 0.0038757 0.00215651 0.000932092 0.000202434 -3.24608e-05 -2.08911e-05 -1.11555e-05 -3.25389e-06 2.81361e-06 7.04706e-06 9.44644e-06 1.00118e-05 8.74304e-06 6.69389e-06 4.91796e-06 3.41525e-06 2.18576e-06 1.22949e-06 5.4644e-07 1.3661e-07 0 0 -2.99976e-08 -1.19991e-07 -2.69979e-07 -4.79962e-07 -7.49941e-07 -1.07991e-06 -1.46988e-06 -1.91985e-06 -2.22712e-06 -2.18899e-06 -1.80548e-06 -1.07657e-06 -2.2765e-09 1.41741e-06 3.18249e-06 5.29295e-06 6.31963e-06 4.83333e-06 8.34046e-07 -5.67821e-06 -1.47034e-05 -2.62417e-05 -4.02928e-05 -5.6857e-05 -7.34681e-05 -8.76602e-05 -9.94332e-05 -0.000108787 -0.000115722 -0.000120238 -0.000122334 -0.000122012 -0.000120563 -0.00011928 -0.000118163 -0.000117212 -0.000116427 -0.000115808 -0.000115355 -0.000115067 -0.000115007 -0.000115236 -0.000115753 -0.000116559 -0.000117654 -0.000119037 -0.000120709 -0.00012267 -0.000123442 -0.000121549 -0.000116992 -0.000109769 -9.98811e-05 -8.73283e-05 -7.21105e-05 -5.42277e-05 -3.7008e-05 -2.37798e-05 -1.45429e-05 -9.29749e-06 -8.04345e-06 -1.07808e-05 -1.75096e-05 -2.82297e-05 0.000511717 0.00215699 0.00490759 0.00876351 0.0137248 0.0197913 0.0269632 0.0352405 0.043518 0.0506906 0.0567584 0.0617214 0.0655796 0.068333 0.0699815 0.0705252 0.0705171 0.07051 0.070504 0.0704992 0.0704954 0.0704927 0.0704912 0.0704907 0.0704913 0.070493 0.0704957 0.0704995 0.0705044 0.0705103 0.0705173 0.0705253 0.0699815 0.068333 0.0655797 0.0617217 0.0567589 0.0506914 0.0435191 0.0352422 0.0269653