<?xml version="1.0"?> 
<VTKFile type="StructuredGrid" version="0.1"> 
<StructuredGrid WholeExtent="0 128 0 128 0 0"> 
<Piece Extent="0 128 0 128 0 0"> 
<PointData>
<DataArray type="Float32" Name="u" format="ascii" NumberOfComponents="1"> 
0 0 0 0 0 0 0 0 0 0 0 0 0 0 0 0 0 0 0 0 0 0 0 0 0 0 0 0 0 0 0 0 0 0 0 0 0 0 0 0 0 0 0 0 0 0 0 0 0 0 0 0 0 0 0 0 0 0 0 0 0 0 0 0 0 0 0 0 0 0 0 0 0 0 0 0 0 0 0 0 0 0 0 0 0 0 0 0 0 0 0 0 0 0 0 0 0 0 0 0 0 0 0 0 0 0 0 0 0 0 0 0 0 0 0 0 0 0 0 0 0 0 0 0 0 0 0 0 0 0 4.9377e-08 1.97508e-07 4.44393e-07 7.90032e-07 1.23442e-06 1.77757e-06 2.41947e-06 3.16013e-06 3.73481e-06 3.87878e-06 3.59205e-06 2.87461e-06 1.72647e-06 1.4762e-07 -1.86193e-06 -4.30219e-06 -7.19191e-06 -1.05498e-05 -1.4376e-05 -1.86703e-05 -2.34329e-05 -2.86637e-05 -3.43626e-05 -4.05298e-05 -4.68686e-05 -5.30825e-05 -5.91714e-05 -6.51353e-05 -7.09743e-05 -7.66883e-05 -8.22773e-05 -8.77414e-05 -9.27635e-05 -9.70265e-05 -0.000100531 -0.000103275 -0.000105261 -0.000106488 -0.000106956 -0.000106665 -0.000105682 -0.000104075 -0.000101844 -9.89881e-05 -9.55083e-05 -9.14043e-05 -8.6676e-05 -8.13234e-05 -7.59403e-05 -7.11205e-05 -6.68638e-05 -6.31703e-05 -6.004e-05 -5.74729e-05 -5.54689e-05 -5.40282e-05 -5.34121e-05 -5.3882e-05 -5.54379e-05 -5.80798e-05 -6.18078e-05 -6.66218e-05 -7.25218e-05 -7.95079e-05 -8.74889e-05 -9.63738e-05 -0.000106163 -0.000116855 -0.000128452 -0.000140953 -0.000154357 -0.000168666 -0.000183545 -0.000198661 -0.000214015 -0.000229607 -0.000245436 -0.000261502 -0.000277806 -0.000294348 -0.00030996 -0.000323478 -0.0003349 -0.000344227 -0.00035146 -0.000356597 -0.000359638 -0.000360585 -0.000359497 -0.000356433 -0.000351395 -0.000344381 -0.000335393 -0.000324429 -0.00031149 -0.000296576 -0.000280791 -0.000265239 -0.000249921 -0.000234835 -0.000219982 -0.000205363 -0.000190976 -0.000176823 -0.000163006 -0.000149631 -0.000136697 -0.000124203 -0.000112151 -0.000100541 -8.93708e-05 -7.86422e-05 -6.85048e-05 -5.9109e-05 -5.04546e-05 -4.25417e-05 -3.53703e-05 -2.89404e-05 -2.32519e-05 -1.83049e-05 -1.40147e-05 -1.02965e-05 -7.15036e-06 -4.57623e-06 -2.57413e-06 -1.14406e-06 -2.86014e-07 0 0 1.97508e-07 7.90032e-07 1.77757e-06 3.16013e-06 4.9377e-06 7.11029e-06 9.67789e-06 1.26405e-05 1.49392e-05 1.55151e-05 1.43682e-05 1.14984e-05 6.90587e-06 5.9048e-07 -7.44773e-06 -1.72088e-05 -2.87676e-05 -4.21993e-05 -5.75039e-05 -7.46813e-05 -9.37315e-05 -0.000114655 -0.000137451 -0.000162119 -0.000187475 -0.00021233 -0.000236686 -0.000260541 -0.000283897 -0.000306753 -0.000329109 -0.000350966 -0.000371054 -0.000388106 -0.000402122 -0.000413102 -0.000421046 -0.000425953 -0.000427825 -0.00042666 -0.000422728 -0.0004163 -0.000407375 -0.000395952 -0.000382033 -0.000365617 -0.000346704 -0.000325294 -0.000303761 -0.000284482 -0.000267455 -0.000252681 -0.00024016 -0.000229891 -0.000221876 -0.000216113 -0.000213648 -0.000215528 -0.000221752 -0.000232319 -0.000247231 -0.000266487 -0.000290087 -0.000318032 -0.000349956 -0.000385495 -0.000424651 -0.000467422 -0.000513808 -0.000563811 -0.000617428 -0.000674662 -0.000734178 -0.000794645 -0.000856061 -0.000918427 -0.000981743 -0.00104601 -0.00111122 -0.00117739 -0.00123984 -0.00129391 -0.0013396 -0.00137691 -0.00140584 -0.00142639 -0.00143855 -0.00144234 -0.00143799 -0.00142573 -0.00140558 -0.00137753 -0.00134157 -0.00129772 -0.00124596 -0.0011863 -0.00112317 -0.00106096 -0.000999683 -0.00093934 -0.000879929 -0.00082145 -0.000763904 -0.00070729 -0.000652024 -0.000598523 -0.000546786 -0.000496814 -0.000448606 -0.000402162 -0.000357483 -0.000314569 -0.000274019 -0.000236436 -0.000201818 -0.000170167 -0.000141481 -0.000115761 -9.30076e-05 -7.32197e-05 -5.60588e-05 -4.11861e-05 -2.86014e-05 -1.83049e-05 -1.02965e-05 -4.57623e-06 -1.14406e-06 0 0 4.44393e-07 1.77757e-06 3.99954e-06 7.11029e-06 1.11098e-05 1.59981e-05 2.17753e-05 2.84411e-05 3.36133e-05 3.4909e-05 3.23284e-05 2.58715e-05 1.55382e-05 1.32858e-06 -1.67574e-05 -3.87197e-05 -6.47272e-05 -9.49485e-05 -0.000129384 -0.000168033 -0.000210896 -0.000257973 -0.000309264 -0.000364768 -0.000421818 -0.000477742 -0.000532542 -0.000586218 -0.000638769 -0.000690195 -0.000740496 -0.000789673 -0.000834871 -0.000873239 -0.000904775 -0.000929479 -0.000947353 -0.000958395 -0.000962605 -0.000959984 -0.000951139 -0.000936675 -0.000916593 -0.000890893 -0.000859575 -0.000822638 -0.000780084 -0.000731911 -0.000683463 -0.000640084 -0.000601774 -0.000568533 -0.00054036 -0.000517256 -0.00049922 -0.000486254 -0.000480709 -0.000484938 -0.000498941 -0.000522719 -0.00055627 -0.000599596 -0.000652696 -0.000715571 -0.0007874 -0.000867364 -0.000955464 -0.0010517 -0.00115607 -0.00126857 -0.00138921 -0.00151799 -0.0016519 -0.00178795 -0.00192614 -0.00206646 -0.00220892 -0.00235352 -0.00250026 -0.00264913 -0.00278964 -0.0029113 -0.0030141 -0.00309805 -0.00316314 -0.00320937 -0.00323675 -0.00324527 -0.00323547 -0.0032079 -0.00316255 -0.00309943 -0.00301853 -0.00291986 -0.00280341 -0.00266919 -0.00252712 -0.00238716 -0.00224929 -0.00211351 -0.00197984 -0.00184826 -0.00171878 -0.0015914 -0.00146705 -0.00134668 -0.00123027 -0.00111783 -0.00100936 -0.000904865 -0.000804338 -0.00070778 -0.000616544 -0.000531981 -0.000454091 -0.000382875 -0.000318333 -0.000260463 -0.000209267 -0.000164744 -0.000126132 -9.26687e-05 -6.43533e-05 -4.11861e-05 -2.31672e-05 -1.02965e-05 -2.57413e-06 0 0 7.90032e-07 3.16013e-06 7.11029e-06 1.26405e-05 1.97508e-05 2.84411e-05 3.87116e-05 5.0562e-05 5.97569e-05 6.20605e-05 5.74728e-05 4.59938e-05 2.76235e-05 2.36192e-06 -2.97909e-05 -6.88351e-05 -0.000115071 -0.000168797 -0.000230016 -0.000298725 -0.000374926 -0.000458618 -0.000549802 -0.000648477 -0.000749898 -0.00084932 -0.000946742 -0.00104217 -0.00113559 -0.00122701 -0.00131644 -0.00140386 -0.00148422 -0.00155242 -0.00160849 -0.00165241 -0.00168418 -0.00170381 -0.0017113 -0.00170664 -0.00169091 -0.0016652 -0.0016295 -0.00158381 -0.00152813 -0.00146247 -0.00138682 -0.00130117 -0.00121505 -0.00113793 -0.00106982 -0.00101072 -0.00096064 -0.000919566 -0.000887503 -0.000864451 -0.000854593 -0.000862112 -0.000887006 -0.000929277 -0.000988925 -0.00106595 -0.00116035 -0.00127213 -0.00139982 -0.00154198 -0.0016986 -0.00186969 -0.00205523 -0.00225524 -0.00246971 -0.00269865 -0.00293671 -0.00317858 -0.00342424 -0.00367371 -0.00392697 -0.00418404 -0.0044449 -0.00470956 -0.00495937 -0.00517565 -0.0053584 -0.00550764 -0.00562335 -0.00570555 -0.00575422 -0.00576936 -0.00575195 -0.00570293 -0.00562232 -0.0055101 -0.00536628 -0.00519086 -0.00498384 -0.00474522 -0.00449266 -0.00424383 -0.00399873 -0.00375736 -0.00351972 -0.0032858 -0.00305562 -0.00282916 -0.0026081 -0.00239409 -0.00218714 -0.00198726 -0.00179442 -0.00160865 -0.00142993 -0.00125828 -0.00109608 -0.000945744 -0.000807274 -0.000680667 -0.000565925 -0.000463046 -0.00037203 -0.000292879 -0.000224235 -0.000164744 -0.000114406 -7.32197e-05 -4.11861e-05 -1.83049e-05 -4.57623e-06 0 0 1.23442e-06 4.9377e-06 1.11098e-05 1.97508e-05 3.08606e-05 4.44393e-05 6.04868e-05 7.90032e-05 9.33702e-05 9.69695e-05 8.98012e-05 7.18653e-05 4.31617e-05 3.6905e-06 -4.65483e-05 -0.000107555 -0.000179798 -0.000263746 -0.000359399 -0.000466758 -0.000585822 -0.000716591 -0.000859066 -0.00101325 -0.00117172 -0.00132706 -0.00147928 -0.00162838 -0.00177436 -0.00191721 -0.00205693 -0.00219354 -0.00231909 -0.00242566 -0.00251326 -0.00258189 -0.00263154 -0.00266221 -0.0026739 -0.00266662 -0.00264205 -0.00260188 -0.00254609 -0.0024747 -0.00238771 -0.00228511 -0.0021669 -0.00203309 -0.00189851 -0.00177801 -0.00167159 -0.00157926 -0.001501 -0.00143682 -0.00138672 -0.00135071 -0.0013353 -0.00134705 -0.00138595 -0.001452 -0.0015452 -0.00166555 -0.00181305 -0.0019877 -0.00218722 -0.00240935 -0.00265407 -0.00292139 -0.0032113 -0.00352382 -0.00385893 -0.00421664 -0.00458861 -0.00496653 -0.00535038 -0.00574017 -0.00613589 -0.00653756 -0.00694516 -0.00735869 -0.00774901 -0.00808695 -0.00837251 -0.00860569 -0.00878649 -0.00891491 -0.00899096 -0.00901463 -0.00898742 -0.00891084 -0.00878487 -0.00860953 -0.00838482 -0.00811072 -0.00778725 -0.00741441 -0.00701978 -0.00663099 -0.00624802 -0.00587087 -0.00549956 -0.00513407 -0.0047744 -0.00442056 -0.00407515 -0.00374077 -0.00341741 -0.00310509 -0.00280379 -0.00251351 -0.00223427 -0.00196605 -0.00171262 -0.00147772 -0.00126137 -0.00106354 -0.000884257 -0.000723509 -0.000581297 -0.000457623 -0.000350368 -0.000257413 -0.000178759 -0.000114406 -6.43533e-05 -2.86014e-05 -7.15036e-06 0 0 1.77757e-06 7.11029e-06 1.59981e-05 2.84411e-05 4.44393e-05 6.39926e-05 8.7101e-05 0.000113765 0.000134453 0.000139636 0.000129314 0.000103486 6.21529e-05 5.31432e-06 -6.70296e-05 -0.000154879 -0.000258909 -0.000379794 -0.000517535 -0.000672132 -0.000843584 -0.00103189 -0.00123705 -0.00145907 -0.00168727 -0.00191097 -0.00213017 -0.00234487 -0.00255507 -0.00276078 -0.00296198 -0.00315869 -0.00333949 -0.00349295 -0.0036191 -0.00371792 -0.00378941 -0.00383358 -0.00385042 -0.00383994 -0.00380456 -0.0037467 -0.00366637 -0.00356357 -0.0034383 -0.00329055 -0.00312033 -0.00292764 -0.00273385 -0.00256034 -0.0024071 -0.00227413 -0.00216144 -0.00206902 -0.00199688 -0.00194502 -0.00192283 -0.00193975 -0.00199576 -0.00209087 -0.00222508 -0.00239839 -0.00261079 -0.00286228 -0.0031496 -0.00346946 -0.00382186 -0.00420679 -0.00462427 -0.00507429 -0.00555686 -0.00607196 -0.00660761 -0.0071518 -0.00770455 -0.00826584 -0.00883569 -0.00941408 -0.010001 -0.0105965 -0.0111586 -0.0116452 -0.0120564 -0.0123922 -0.0126525 -0.0128375 -0.012947 -0.0129811 -0.0129419 -0.0128316 -0.0126502 -0.0123977 -0.0120741 -0.0116794 -0.0112136 -0.0106767 -0.0101085 -0.00954862 -0.00899714 -0.00845406 -0.00791936 -0.00739305 -0.00687514 -0.00636561 -0.00586822 -0.00538671 -0.00492108 -0.00447132 -0.00403745 -0.00361946 -0.00321735 -0.00283112 -0.00246617 -0.00212792 -0.00181637 -0.0015315 -0.00127333 -0.00104185 -0.000837068 -0.000658977 -0.00050453 -0.000370675 -0.000257413 -0.000164744 -9.26687e-05 -4.11861e-05 -1.02965e-05 0 0 2.41947e-06 9.67789e-06 2.17753e-05 3.87116e-05 6.04868e-05 8.7101e-05 0.000118554 0.000154846 0.000183006 0.00019006 0.00017601 0.000140856 8.45969e-05 7.23338e-06 -9.12347e-05 -0.000210807 -0.000352404 -0.000516942 -0.000704423 -0.000914846 -0.00114821 -0.00140452 -0.00168377 -0.00198596 -0.00229656 -0.00260104 -0.0028994 -0.00319163 -0.00347774 -0.00375773 -0.00403159 -0.00429933 -0.00454541 -0.0047543 -0.004926 -0.0050605 -0.00515781 -0.00521793 -0.00524085 -0.00522658 -0.00517842 -0.00509968 -0.00499034 -0.00485042 -0.00467991 -0.00447881 -0.00424712 -0.00398485 -0.00372108 -0.0034849 -0.00327633 -0.00309534 -0.00294196 -0.00281617 -0.00271798 -0.00264738 -0.00261719 -0.00264022 -0.00271646 -0.00284591 -0.00302858 -0.00326447 -0.00355357 -0.00389589 -0.00428696 -0.00472232 -0.00520197 -0.00572591 -0.00629415 -0.00690668 -0.0075635 -0.00826461 -0.00899369 -0.0097344 -0.0104867 -0.0112507 -0.0120264 -0.0128136 -0.0136125 -0.014423 -0.0151881 -0.0158504 -0.0164101 -0.0168671 -0.0172215 -0.0174732 -0.0176223 -0.0176687 -0.0176153 -0.0174652 -0.0172184 -0.0168747 -0.0164342 -0.015897 -0.015263 -0.0145322 -0.0137588 -0.0129967 -0.0122461 -0.0115069 -0.0107791 -0.0100628 -0.00935783 -0.0086643 -0.0079873 -0.00733191 -0.00669813 -0.00608597 -0.00549542 -0.00492649 -0.00437917 -0.00385347 -0.00335674 -0.00289634 -0.00247228 -0.00208454 -0.00173314 -0.00141808 -0.00113934 -0.000896941 -0.000686721 -0.00050453 -0.000350368 -0.000224235 -0.000126132 -5.60588e-05 -1.40147e-05 0 0 3.16013e-06 1.26405e-05 2.84411e-05 5.0562e-05 7.90032e-05 0.000113765 0.000154846 0.000202248 0.000239028 0.000248242 0.000229891 0.000183975 0.000110494 9.44768e-06 -0.000119164 -0.00027534 -0.000460282 -0.00067519 -0.000920062 -0.0011949 -0.0014997 -0.00183447 -0.00219921 -0.00259391 -0.00299959 -0.00339728 -0.00378697 -0.00416866 -0.00454235 -0.00490805 -0.00526575 -0.00561545 -0.00593686 -0.0062097 -0.00643395 -0.00660963 -0.00673673 -0.00681525 -0.00684519 -0.00682656 -0.00676365 -0.0066608 -0.006518 -0.00633524 -0.00611253 -0.00584987 -0.00554726 -0.0052047 -0.00486018 -0.00455171 -0.00427928 -0.0040429 -0.00384256 -0.00367826 -0.00355001 -0.0034578 -0.00341837 -0.00344845 -0.00354803 -0.00371711 -0.0039557 -0.0042638 -0.0046414 -0.0050885 -0.00559929 -0.00616792 -0.00679441 -0.00747875 -0.00822093 -0.00902097 -0.00987886 -0.0107946 -0.0117469 -0.0127143 -0.013697 -0.0146948 -0.0157079 -0.0167361 -0.0177796 -0.0188383 -0.0198375 -0.0207026 -0.0214336 -0.0220306 -0.0224934 -0.0228222 -0.0230169 -0.0230775 -0.0230078 -0.0228117 -0.0224893 -0.0220404 -0.0214651 -0.0207635 -0.0199354 -0.0189809 -0.0179706 -0.0169753 -0.0159949 -0.0150294 -0.0140789 -0.0131432 -0.0122225 -0.0113166 -0.0104324 -0.00957637 -0.00874858 -0.00794902 -0.00717769 -0.0064346 -0.00571973 -0.0050331 -0.00438431 -0.00378298 -0.00322909 -0.00272267 -0.0022637 -0.00185218 -0.00148812 -0.00117152 -0.000896941 -0.000658977 -0.000457623 -0.000292879 -0.000164744 -7.32197e-05 -1.83049e-05 0 0 3.58385e-06 1.43354e-05 3.22546e-05 5.73416e-05 8.95962e-05 0.000129019 0.000175609 0.000229366 0.00026942 0.000274897 0.000245799 0.000182124 8.3874e-05 -4.89525e-05 -0.000216355 -0.000418333 -0.00065625 -0.000931467 -0.00124399 -0.0015938 -0.00198092 -0.00240534 -0.00286706 -0.00336608 -0.00387894 -0.00438217 -0.00487577 -0.00535975 -0.0058341 -0.00629882 -0.00675392 -0.00719939 -0.00760906 -0.00795676 -0.00824248 -0.00846623 -0.00862801 -0.00872782 -0.00876566 -0.00874152 -0.00866122 -0.00853056 -0.00834955 -0.00811819 -0.00783647 -0.0075044 -0.00712197 -0.00668919 -0.00625404 -0.00586451 -0.0055206 -0.00522232 -0.00496965 -0.0047626 -0.00460117 -0.00448536 -0.0044325 -0.00445993 -0.00456764 -0.00475564 -0.00502393 -0.00537251 -0.00580137 -0.00631051 -0.00689046 -0.00753171 -0.00823428 -0.00899816 -0.00982335 -0.0107098 -0.0116577 -0.0126668 -0.0137173 -0.0147893 -0.0158829 -0.0169979 -0.0181344 -0.0192924 -0.020472 -0.021673 -0.0228086 -0.023792 -0.024623 -0.0253018 -0.0258283 -0.0262025 -0.0264244 -0.026494 -0.0264158 -0.0261944 -0.0258298 -0.025322 -0.0246709 -0.0238767 -0.0229392 -0.0218585 -0.0207164 -0.0195948 -0.0184937 -0.0174131 -0.016353 -0.0153134 -0.0142943 -0.0132957 -0.0123194 -0.0113671 -0.0104388 -0.00953465 -0.00865451 -0.0077984 -0.00696635 -0.00615834 -0.00538886 -0.00467241 -0.00400898 -0.00339858 -0.0028412 -0.00233684 -0.0018855 -0.00148719 -0.00113863 -0.000836547 -0.000580935 -0.000371799 -0.000209137 -9.29496e-05 -2.32374e-05 0 0 3.27494e-06 1.30998e-05 2.94745e-05 5.23991e-05 8.18736e-05 0.000117898 0.000160472 0.000209596 0.000241083 0.000230743 0.000178577 8.45848e-05 -5.1233e-05 -0.000228877 -0.000448347 -0.000709643 -0.00101401 -0.00136271 -0.00175572 -0.00219306 -0.00267472 -0.00320071 -0.00377101 -0.00438564 -0.00501717 -0.00563819 -0.00624869 -0.00684868 -0.00743815 -0.00801711 -0.00858555 -0.00914348 -0.00965721 -0.0100931 -0.0104511 -0.0107312 -0.0109335 -0.0110579 -0.0111045 -0.0110731 -0.0109721 -0.0108094 -0.0105852 -0.0102994 -0.00995202 -0.00954304 -0.00907247 -0.00854032 -0.00800553 -0.00752707 -0.00710493 -0.00673912 -0.00642963 -0.00617647 -0.00597962 -0.00583911 -0.00576569 -0.00577015 -0.00585248 -0.00601269 -0.00625078 -0.00656674 -0.00696057 -0.00743229 -0.00796432 -0.00853912 -0.00915669 -0.00981702 -0.0105201 -0.011266 -0.0120546 -0.012886 -0.0137552 -0.0146572 -0.015592 -0.0165596 -0.0175601 -0.0185933 -0.0196593 -0.0207582 -0.0218035 -0.0227089 -0.0234745 -0.0241003 -0.0245862 -0.0249322 -0.0251384 -0.0252047 -0.0251359 -0.0249366 -0.0246068 -0.0241465 -0.0235558 -0.0228346 -0.0219829 -0.0210007 -0.0199682 -0.0189655 -0.0179926 -0.0170494 -0.016136 -0.0152524 -0.0143986 -0.0135746 -0.0127641 -0.0119511 -0.0111354 -0.010317 -0.00949609 -0.00867252 -0.00784632 -0.00701749 -0.00621036 -0.00544923 -0.00473409 -0.00406497 -0.00344184 -0.00286472 -0.00233359 -0.00184847 -0.00141524 -0.00103977 -0.00072206 -0.000462118 -0.000259942 -0.00011553 -2.88824e-05 0 0 2.23342e-06 8.93367e-06 2.01007e-05 3.57347e-05 5.58354e-05 8.0403e-05 0.000109437 0.000142939 0.000154016 0.000115778 2.82246e-05 -0.000108644 -0.000294827 -0.000530326 -0.000815139 -0.00114927 -0.00153357 -0.00196891 -0.00245527 -0.00299267 -0.0035811 -0.00422057 -0.00491106 -0.00565259 -0.0064143 -0.00716535 -0.00790574 -0.00863546 -0.00935452 -0.0100629 -0.0107606 -0.0114477 -0.0120813 -0.0126187 -0.0130598 -0.0134046 -0.0136532 -0.0138055 -0.0138616 -0.0138214 -0.0136962 -0.0134974 -0.013225 -0.0128789 -0.0124592 -0.0119658 -0.0113988 -0.0107581 -0.0101147 -0.00953938 -0.00903227 -0.00859331 -0.00822251 -0.00791987 -0.00768538 -0.00751906 -0.00741794 -0.00737911 -0.00740254 -0.00748825 -0.00763623 -0.00784649 -0.00811902 -0.00845383 -0.00882088 -0.00919015 -0.00956164 -0.00993534 -0.0103113 -0.0106894 -0.0110698 -0.0114524 -0.0118606 -0.012318 -0.0128245 -0.0133801 -0.0139848 -0.0146387 -0.0153416 -0.0160937 -0.0168219 -0.0174534 -0.0179881 -0.018426 -0.0187671 -0.0190114 -0.019159 -0.0192098 -0.0191681 -0.0190382 -0.0188202 -0.018514 -0.0181197 -0.0176372 -0.0170665 -0.0164077 -0.0157262 -0.0150875 -0.0144915 -0.0139383 -0.0134279 -0.0129603 -0.0125354 -0.0121533 -0.0117667 -0.0113283 -0.0108381 -0.0102962 -0.00970246 -0.00905695 -0.00835965 -0.00761057 -0.0068488 -0.00611342 -0.00540443 -0.00472184 -0.00406563 -0.00343581 -0.00283239 -0.00225535 -0.00172676 -0.00126864 -0.000880997 -0.000563838 -0.000317159 -0.00014096 -3.52399e-05 0 0 4.59266e-07 1.83706e-06 4.13339e-06 7.34826e-06 1.14816e-05 1.65336e-05 2.2504e-05 2.9393e-05 8.21959e-06 -6.99972e-05 -0.000205257 -0.000397561 -0.000646908 -0.000953298 -0.00131673 -0.00173721 -0.00221492 -0.00275007 -0.00334264 -0.00399264 -0.00470007 -0.00546492 -0.00628721 -0.00716693 -0.00807032 -0.00896365 -0.0098469 -0.0107201 -0.0115832 -0.0124362 -0.0132792 -0.0141121 -0.0148814 -0.0155335 -0.0160685 -0.0164864 -0.0167871 -0.0169706 -0.017037 -0.0169863 -0.0168337 -0.0165946 -0.0162689 -0.0158567 -0.015358 -0.0147727 -0.0141008 -0.0133425 -0.0125814 -0.0119014 -0.0113026 -0.0107849 -0.0103483 -0.00999281 -0.00971845 -0.00952521 -0.00938927 -0.0092868 -0.00921782 -0.00918232 -0.00918031 -0.00921177 -0.00927671 -0.00937513 -0.00946013 -0.00948479 -0.00944912 -0.00935312 -0.00919678 -0.00898011 -0.00870311 -0.00836577 -0.00803349 -0.00777164 -0.00758022 -0.00745923 -0.00740868 -0.00742856 -0.00751887 -0.00767962 -0.00786404 -0.0080254 -0.00816369 -0.0082789 -0.00837105 -0.00844013 -0.00848614 -0.00850907 -0.00851234 -0.00849933 -0.00847004 -0.00842447 -0.00836262 -0.0082845 -0.0081901 -0.00807942 -0.00799034 -0.00796072 -0.00799058 -0.00807989 -0.00822868 -0.00843693 -0.00870464 -0.00903182 -0.00932703 -0.00949881 -0.00954716 -0.00947209 -0.0092736 -0.00895168 -0.00850634 -0.00793758 -0.00730419 -0.006665 -0.00602 -0.00536919 -0.00471256 -0.00405013 -0.00338189 -0.00270783 -0.00207319 -0.00152316 -0.00105775 -0.000676958 -0.000380789 -0.00016924 -4.23099e-05 0 0 -2.04751e-06 -8.19003e-06 -1.84276e-05 -3.27601e-05 -5.11877e-05 -7.37103e-05 -0.000100328 -0.000131041 -0.000196306 -0.000326582 -0.000521869 -0.000782167 -0.00110748 -0.0014978 -0.00195313 -0.00247347 -0.00305807 -0.00370619 -0.00441781 -0.00519296 -0.00603161 -0.00693378 -0.00789946 -0.00892866 -0.00998524 -0.0110331 -0.0120722 -0.0131026 -0.0141242 -0.0151371 -0.0161412 -0.0171366 -0.0180574 -0.0188377 -0.0194774 -0.0199765 -0.0203352 -0.0205533 -0.0206308 -0.0205678 -0.0203845 -0.0201008 -0.0197169 -0.0192328 -0.0186483 -0.0179637 -0.0171787 -0.0162935 -0.0154058 -0.0146133 -0.0139159 -0.0133139 -0.012807 -0.0123953 -0.0120788 -0.0118576 -0.0116797 -0.0114932 -0.0112983 -0.0110949 -0.010883 -0.0106626 -0.0104336 -0.0101962 -0.00988207 -0.00942305 -0.00881914 -0.00807034 -0.00717665 -0.00613808 -0.00495461 -0.00362625 -0.00227383 -0.00101816 0.00014076 0.00120293 0.00216834 0.003037 0.00380891 0.00448407 0.00507021 0.00557507 0.00599865 0.00634095 0.00660197 0.00678171 0.00688017 0.00689734 0.00683129 0.00668007 0.00644368 0.00612212 0.00571539 0.00522349 0.00464641 0.00398417 0.00323941 0.00241478 0.00151028 0.000525925 -0.0005383 -0.00168239 -0.00290634 -0.00421016 -0.00544514 -0.00646256 -0.00726244 -0.00784475 -0.00820952 -0.00835673 -0.00828639 -0.0079985 -0.00757653 -0.00710396 -0.00658079 -0.00600702 -0.00538264 -0.00470767 -0.00398209 -0.00320591 -0.00245453 -0.00180333 -0.00125231 -0.000801479 -0.000450832 -0.00020037 -5.00924e-05 0 0 -5.28691e-06 -2.11476e-05 -4.75822e-05 -8.45905e-05 -0.000132173 -0.000190329 -0.000259058 -0.000338362 -0.000459561 -0.000653978 -0.000921611 -0.00126246 -0.00167653 -0.00216382 -0.00272432 -0.00335804 -0.00406301 -0.00483727 -0.00568081 -0.00659363 -0.00757574 -0.00862713 -0.00974781 -0.0109378 -0.012159 -0.0133737 -0.0145816 -0.0157829 -0.0169775 -0.0181654 -0.0193467 -0.0205213 -0.0216094 -0.0225311 -0.0232863 -0.0238751 -0.0242975 -0.0245534 -0.0246429 -0.024566 -0.0243485 -0.0240162 -0.0235691 -0.0230071 -0.0223303 -0.0215388 -0.0206324 -0.0196112 -0.0185878 -0.0176748 -0.0168723 -0.0161802 -0.0155985 -0.0151273 -0.0147665 -0.0145161 -0.0142891 -0.0139984 -0.0136441 -0.013226 -0.0127443 -0.0121989 -0.0115898 -0.010917 -0.0100867 -0.00900492 -0.0076717 -0.00608702 -0.00425089 -0.00216331 0.000175716 0.00276619 0.00541836 0.00794244 0.0103385 0.0126064 0.0147462 0.016758 0.0186417 0.0203974 0.0219808 0.023348 0.0244989 0.0254336 0.026152 0.0266541 0.0269399 0.0270095 0.0268628 0.0265 0.025921 0.0251258 0.0241144 0.0228868 0.021443 0.0197831 0.017963 0.016039 0.0140111 0.0118791 0.00964321 0.00730333 0.00485949 0.00231168 -0.000121034 -0.00221958 -0.00398396 -0.00541417 -0.00651022 -0.00727209 -0.0076998 -0.00779335 -0.00766582 -0.0074303 -0.00708681 -0.00663533 -0.00607587 -0.00540843 -0.004633 -0.0037496 -0.00287078 -0.00210915 -0.00146469 -0.000937399 -0.000527287 -0.00023435 -5.85874e-05 0 0 -9.25893e-06 -3.70357e-05 -8.33303e-05 -0.000148143 -0.000231473 -0.000333321 -0.000453687 -0.000592571 -0.000781546 -0.00105218 -0.00140448 -0.00183845 -0.00235407 -0.00295136 -0.00363031 -0.00439093 -0.00522975 -0.00614331 -0.00713161 -0.00819466 -0.00933245 -0.010545 -0.0118323 -0.0131943 -0.0145917 -0.0159854 -0.0173751 -0.018761 -0.0201431 -0.0215213 -0.0228957 -0.0242662 -0.0255374 -0.0266137 -0.0274953 -0.028182 -0.0286739 -0.0289711 -0.0290734 -0.0289809 -0.0287259 -0.0283407 -0.0278253 -0.0271797 -0.0264039 -0.025498 -0.0244618 -0.0232955 -0.0221274 -0.0210862 -0.0201717 -0.0193839 -0.018723 -0.0181888 -0.0177815 -0.0175009 -0.0172176 -0.0168023 -0.016255 -0.0155756 -0.0147642 -0.0138207 -0.0127452 -0.0115376 -0.010074 -0.00823042 -0.00600679 -0.00340315 -0.000419491 0.00294418 0.00668787 0.0108116 0.0150431 0.0191102 0.0230129 0.0267512 0.030325 0.0337345 0.0369796 0.0400603 0.0428678 0.0452934 0.0473372 0.048999 0.0502789 0.051177 0.0516931 0.0518274 0.0515823 0.0509604 0.0499618 0.0485864 0.0468343 0.0447054 0.0421997 0.0393172 0.0361805 0.032912 0.0295117 0.0259797 0.0223158 0.0185202 0.0145929 0.0105337 0.00664529 0.00323015 0.000288267 -0.00218034 -0.00417569 -0.00569776 -0.00674657 -0.00732212 -0.00757205 -0.00764403 -0.00753805 -0.00725412 -0.00679224 -0.00615241 -0.00533462 -0.00433888 -0.00332195 -0.00244062 -0.00169487 -0.00108472 -0.000610155 -0.00027118 -6.77949e-05 0 0 -1.39636e-05 -5.58543e-05 -0.000125672 -0.000223417 -0.000349089 -0.000502689 -0.000684215 -0.000893669 -0.00116226 -0.0015212 -0.00197049 -0.00251012 -0.0031401 -0.00386043 -0.00467111 -0.00557214 -0.00655828 -0.00762431 -0.00877023 -0.00999604 -0.0113017 -0.0126873 -0.0141528 -0.0156982 -0.0172833 -0.0188682 -0.0204528 -0.022037 -0.023621 -0.0252047 -0.0267881 -0.0283712 -0.0298413 -0.0310856 -0.0321043 -0.0328973 -0.0334646 -0.0338063 -0.0339222 -0.0338124 -0.0335165 -0.0330743 -0.0324857 -0.0317506 -0.0308692 -0.0298413 -0.0286671 -0.0273464 -0.0260247 -0.0248472 -0.023814 -0.0229251 -0.0221804 -0.0215799 -0.0211237 -0.0208118 -0.0204652 -0.019905 -0.0191312 -0.0181438 -0.0169427 -0.0155281 -0.0138998 -0.012058 -0.00984406 -0.00709953 -0.00382442 -1.87314e-05 0.00431754 0.0091844 0.0145818 0.0205099 0.0266003 0.032485 0.038164 0.0436372 0.0489047 0.0539665 0.0588225 0.0634728 0.0677311 0.0714113 0.0745133 0.0770372 0.0789829 0.0803504 0.0811398 0.081351 0.0809896 0.0800614 0.0785662 0.0765041 0.0738752 0.0706793 0.0669164 0.0625867 0.0578919 0.0530337 0.0480123 0.0428276 0.0374796 0.0319683 0.0262938 0.0204559 0.0148538 0.00988661 0.00555424 0.00185673 -0.00120594 -0.00363375 -0.0054267 -0.00658481 -0.00729523 -0.00774513 -0.00793452 -0.0078634 -0.00753176 -0.00693961 -0.00608694 -0.00497376 -0.00380803 -0.00279774 -0.00194287 -0.00124344 -0.000699435 -0.00031086 -7.7715e-05 0 0 -1.9377e-05 -7.7508e-05 -0.000174393 -0.000310032 -0.000484425 -0.000697572 -0.000949473 -0.00124013 -0.0015965 -0.00204554 -0.00258727 -0.00322167 -0.00394874 -0.00476849 -0.00568092 -0.00668602 -0.00777423 -0.00893597 -0.0101712 -0.0114801 -0.0128624 -0.0143183 -0.0158477 -0.0174506 -0.019093 -0.0207409 -0.0223941 -0.0240527 -0.0257167 -0.027386 -0.0290608 -0.030741 -0.0323025 -0.0336211 -0.034697 -0.03553 -0.0361202 -0.0364675 -0.0365721 -0.0364338 -0.036101 -0.0356221 -0.0349969 -0.0342256 -0.0333081 -0.0322444 -0.0310345 -0.0296785 -0.0283308 -0.0271461 -0.0261244 -0.0252656 -0.0245699 -0.0240371 -0.0236672 -0.0234604 -0.0231729 -0.0225613 -0.0216256 -0.0203656 -0.0187815 -0.0168733 -0.0146408 -0.0120842 -0.0090076 -0.00521508 -0.00070667 0.00451763 0.0104578 0.0171139 0.0244859 0.0325737 0.0408866 0.0489335 0.0567146 0.0642297 0.0714789 0.0784622 0.0851796 0.0916311 0.0975484 0.102663 0.106975 0.110485 0.113192 0.115096 0.116198 0.116497 0.116004 0.114727 0.112666 0.109823 0.106196 0.101785 0.0965914 0.0906143 0.0841388 0.0774499 0.0705478 0.0634322 0.0561034 0.0485612 0.0408056 0.0328367 0.0251736 0.0183354 0.0123221 0.0071337 0.00277021 -0.000768382 -0.00348207 -0.00537085 -0.00666682 -0.00760206 -0.00817656 -0.00839033 -0.00824337 -0.00773568 -0.00686725 -0.00563809 -0.00431666 -0.00317143 -0.00220238 -0.00140952 -0.000792857 -0.000352381 -8.80952e-05 0 0 -2.54754e-05 -0.000101902 -0.000229278 -0.000407606 -0.000636884 -0.000917114 -0.00124829 -0.00163042 -0.00207906 -0.00260974 -0.00322248 -0.00391727 -0.00469411 -0.005553 -0.00649395 -0.00751695 -0.00860322 -0.00973398 -0.0109092 -0.012129 -0.0133932 -0.0147019 -0.0160551 -0.0174529 -0.0188801 -0.020322 -0.0217785 -0.0232497 -0.0247354 -0.0262358 -0.0277508 -0.0292804 -0.0307024 -0.0318945 -0.0328566 -0.0335888 -0.0340911 -0.0343635 -0.0344059 -0.0342185 -0.0338599 -0.0333891 -0.0328059 -0.0321105 -0.0313028 -0.0303828 -0.0293506 -0.028206 -0.0270969 -0.0261708 -0.0254277 -0.0248677 -0.0244907 -0.0242968 -0.0242859 -0.0244581 -0.024482 -0.0240263 -0.0230912 -0.0216765 -0.0197823 -0.0174085 -0.0145552 -0.0112224 -0.00717548 -0.00217988 0.00376439 0.0106573 0.018499 0.0272892 0.0370282 0.0477158 0.0586984 0.0693223 0.0795873 0.0894937 0.0990413 0.10823 0.11706 0.125531 0.133297 0.14001 0.145671 0.150279 0.153834 0.156336 0.157786 0.158184 0.157544 0.155881 0.153195 0.149486 0.144754 0.139 0.132223 0.124423 0.115963 0.107206 0.098153 0.0888029 0.0791559 0.0692122 0.0589718 0.0484346 0.0382736 0.0291621 0.0211 0.0140873 0.00812392 0.00320999 -0.000654552 -0.00346969 -0.0055183 -0.00708324 -0.0081645 -0.00876209 -0.00887601 -0.00850626 -0.00765283 -0.00631573 -0.00483548 -0.0035526 -0.00246708 -0.00157893 -0.00088815 -0.000394733 -9.86833e-05 0 0 -3.22587e-05 -0.000129035 -0.000290328 -0.000516139 -0.000806468 -0.00116131 -0.00158068 -0.00206456 -0.00260993 -0.00321379 -0.00387612 -0.00459693 -0.00537621 -0.00621397 -0.00711021 -0.00806492 -0.00904525 -0.0100183 -0.0109842 -0.0119428 -0.0128942 -0.0138383 -0.0147752 -0.0157048 -0.0166445 -0.0176117 -0.0186061 -0.019628 -0.0206773 -0.0217539 -0.022858 -0.0239894 -0.025041 -0.0259056 -0.0265833 -0.0270739 -0.0273775 -0.0274941 -0.0274238 -0.0271664 -0.0267932 -0.0263753 -0.0259126 -0.0254053 -0.0248533 -0.0242567 -0.0236153 -0.0229292 -0.022323 -0.0219213 -0.021724 -0.0217313 -0.0219429 -0.0223591 -0.0229797 -0.0238048 -0.0243923 -0.0243 -0.0235281 -0.0220764 -0.019945 -0.0171339 -0.0136431 -0.00947255 -0.00434771 0.00200606 0.00958876 0.0184004 0.0284409 0.0397104 0.0522088 0.0659361 0.0800358 0.0936512 0.106782 0.119429 0.131592 0.14327 0.154464 0.165174 0.174977 0.183453 0.1906 0.196418 0.200909 0.204071 0.205905 0.20641 0.205609 0.203523 0.200151 0.195494 0.189551 0.182324 0.173811 0.164012 0.153364 0.142303 0.130828 0.118939 0.106637 0.0939216 0.0807923 0.0672494 0.0541539 0.0423667 0.0318879 0.0227174 0.0148552 0.00830136 0.00305585 -0.000881324 -0.00384967 -0.00618867 -0.00789834 -0.00897868 -0.00942968 -0.00925135 -0.00844368 -0.00700668 -0.00536449 -0.00394126 -0.00273698 -0.00175167 -0.000985314 -0.000437917 -0.000109479 0 0 -3.9727e-05 -0.000158908 -0.000357543 -0.000635632 -0.000993174 -0.00143017 -0.00194662 -0.00254253 -0.00318913 -0.00385769 -0.00454819 -0.00526064 -0.00599504 -0.00675139 -0.00752969 -0.00832993 -0.00910032 -0.00978905 -0.0103961 -0.0109215 -0.0113653 -0.0117274 -0.0120078 -0.0122066 -0.0123863 -0.0126098 -0.0128769 -0.0131878 -0.0135423 -0.0139405 -0.0143824 -0.0148679 -0.0153183 -0.0156547 -0.0158769 -0.0159852 -0.0159793 -0.0158595 -0.0156255 -0.0152775 -0.0149008 -0.0145806 -0.0143171 -0.0141101 -0.0139597 -0.0138658 -0.0138286 -0.0138479 -0.0140092 -0.0143976 -0.0150134 -0.0158563 -0.0169265 -0.018224 -0.0197487 -0.0215006 -0.0229038 -0.0233823 -0.0229361 -0.0215652 -0.0192697 -0.0160494 -0.0119044 -0.00683466 -0.000524279 0.00734275 0.0167664 0.0277468 0.0402838 0.0543774 0.0700277 0.0872347 0.104899 0.12192 0.138299 0.154036 0.16913 0.183582 0.197391 0.210558 0.222589 0.23299 0.241762 0.248904 0.254417 0.2583 0.260553 0.261177 0.260201 0.257653 0.253535 0.247846 0.240587 0.231756 0.221355 0.209383 0.196343 0.18274 0.168573 0.153842 0.138548 0.122689 0.106267 0.0892813 0.0728144 0.0579493 0.0446858 0.0330241 0.022964 0.0145057 0.00764914 0.00239425 -0.00166091 -0.00491836 -0.00737809 -0.0090401 -0.00990439 -0.00997095 -0.0092398 -0.00771093 -0.00590368 -0.0043374 -0.00301208 -0.00192773 -0.00108435 -0.000481933 -0.000