<?xml version="1.0"?> 
<VTKFile type="StructuredGrid" version="0.1"> 
<StructuredGrid WholeExtent="0 128 0 128 0 0"> 
<Piece Extent="0 128 0 128 0 0"> 
<PointData>
<DataArray type="Float32" Name="u" format="ascii" NumberOfComponents="1"> 
0 0 0 0 0 0 0 0 0 0 0 0 0 0 0 0 0 0 0 0 0 0 0 0 0 0 0 0 0 0 0 0 0 0 0 0 0 0 0 0 0 0 0 0 0 0 0 0 0 0 0 0 0 0 0 0 0 0 0 0 0 0 0 0 0 0 0 0 0 0 0 0 0 0 0 0 0 0 0 0 0 0 0 0 0 0 0 0 0 0 0 0 0 0 0 0 0 0 0 0 0 0 0 0 0 0 0 0 0 0 0 0 0 0 0 0 0 0 0 0 0 0 0 0 0 0 0 0 0 0 8.81869e-09 3.52748e-08 7.93682e-08 1.41099e-07 2.20467e-07 3.17473e-07 4.32116e-07 5.64396e-07 9.24349e-07 1.72201e-06 2.95738e-06 4.63045e-06 6.74123e-06 9.28972e-06 1.22759e-05 1.56998e-05 1.94847e-05 2.35537e-05 2.7907e-05 3.25445e-05 3.74661e-05 4.2672e-05 4.81621e-05 5.39363e-05 5.98063e-05 6.55836e-05 7.12681e-05 7.68599e-05 8.2359e-05 8.77653e-05 9.3079e-05 9.82998e-05 0.000103129 0.000107266 0.000110711 0.000113466 0.000115528 0.000116899 0.000117578 0.000117566 0.000116937 0.000115764 0.000114048 0.000111789 0.000108987 0.000105641 0.000101752 9.73198e-05 9.26986e-05 8.82424e-05 8.39513e-05 7.98252e-05 7.58642e-05 7.20683e-05 6.84374e-05 6.49716e-05 6.06458e-05 5.44351e-05 4.63393e-05 3.63586e-05 2.44929e-05 1.07422e-05 -4.89351e-06 -2.24142e-05 -4.18598e-05 -6.32701e-05 -8.66453e-05 -0.000111985 -0.00013929 -0.00016856 -0.000199794 -0.000232994 -0.00026621 -0.000297495 -0.000326848 -0.000354271 -0.000379762 -0.000403322 -0.000424951 -0.000444649 -0.000462214 -0.000477447 -0.000490347 -0.000500914 -0.000509149 -0.00051505 -0.000518619 -0.000519855 -0.000518729 -0.000515212 -0.000509305 -0.000501007 -0.000490319 -0.00047724 -0.00046177 -0.00044391 -0.000423925 -0.000402081 -0.000378378 -0.000352817 -0.000325397 -0.000296118 -0.000264981 -0.000231984 -0.000199245 -0.00016888 -0.000140888 -0.00011527 -9.20252e-05 -7.1154e-05 -5.26564e-05 -3.65323e-05 -2.27099e-05 -1.11175e-05 -1.75497e-06 5.3776e-06 1.02802e-05 1.29529e-05 1.33957e-05 1.16085e-05 8.88778e-06 6.5298e-06 4.53458e-06 2.90213e-06 1.63245e-06 7.25533e-07 1.81383e-07 0 0 3.52748e-08 1.41099e-07 3.17473e-07 5.64396e-07 8.81869e-07 1.26989e-06 1.72846e-06 2.25758e-06 3.6974e-06 6.88804e-06 1.18295e-05 1.85218e-05 2.69649e-05 3.71589e-05 4.91037e-05 6.27993e-05 7.79387e-05 9.4215e-05 0.000111628 0.000130178 0.000149865 0.000170688 0.000192648 0.000215745 0.000239225 0.000262334 0.000285072 0.00030744 0.000329436 0.000351061 0.000372316 0.000393199 0.000412514 0.000429063 0.000442846 0.000453862 0.000462112 0.000467596 0.000470314 0.000470266 0.000467748 0.000463057 0.000456193 0.000447156 0.000435946 0.000422563 0.000407008 0.000389279 0.000370794 0.00035297 0.000335805 0.000319301 0.000303457 0.000288273 0.00027375 0.000259886 0.000242583 0.00021774 0.000185357 0.000145434 9.79715e-05 4.29687e-05 -1.9574e-05 -8.96567e-05 -0.000167439 -0.000253081 -0.000346581 -0.000447941 -0.000557161 -0.000674239 -0.000799177 -0.000931975 -0.00106484 -0.00118998 -0.00130739 -0.00141708 -0.00151905 -0.00161329 -0.0016998 -0.0017786 -0.00184886 -0.00190979 -0.00196139 -0.00200366 -0.00203659 -0.0020602 -0.00207447 -0.00207942 -0.00207491 -0.00206085 -0.00203722 -0.00200403 -0.00196127 -0.00190896 -0.00184708 -0.00177564 -0.0016957 -0.00160832 -0.00151351 -0.00141127 -0.00130159 -0.00118447 -0.00105992 -0.000927938 -0.000796982 -0.00067552 -0.000563553 -0.00046108 -0.000368101 -0.000284616 -0.000210625 -0.000146129 -9.08396e-05 -4.44699e-05 -7.01986e-06 2.15104e-05 4.11209e-05 5.18117e-05 5.35828e-05 4.64341e-05 3.55511e-05 2.61192e-05 1.81383e-05 1.16085e-05 6.5298e-06 2.90213e-06 7.25533e-07 0 0 7.93682e-08 3.17473e-07 7.14314e-07 1.26989e-06 1.9842e-06 2.85725e-06 3.88904e-06 5.07956e-06 8.31914e-06 1.54981e-05 2.66164e-05 4.16741e-05 6.06711e-05 8.36075e-05 0.000110483 0.000141298 0.000175362 0.000211984 0.000251163 0.0002929 0.000337195 0.000384048 0.000433458 0.000485427 0.000538257 0.000590252 0.000641413 0.000691739 0.000741231 0.000789888 0.000837711 0.000884698 0.000928157 0.000965392 0.000996403 0.00102119 0.00103975 0.00105209 0.00105821 0.0010581 0.00105243 0.00104188 0.00102643 0.0010061 0.000980879 0.000950768 0.000915768 0.000875878 0.000834287 0.000794181 0.000755561 0.000718427 0.000682778 0.000648615 0.000615937 0.000584744 0.000545812 0.000489916 0.000417054 0.000327227 0.000220436 9.66796e-05 -4.40416e-05 -0.000201728 -0.000376738 -0.000569431 -0.000779808 -0.00100787 -0.00125361 -0.00151704 -0.00179815 -0.00209694 -0.00239589 -0.00267745 -0.00294164 -0.00318844 -0.00341786 -0.0036299 -0.00382456 -0.00400184 -0.00415993 -0.00429703 -0.00441312 -0.00450823 -0.00458234 -0.00463545 -0.00466757 -0.00467869 -0.00466856 -0.00463691 -0.00458374 -0.00450906 -0.00441287 -0.00429516 -0.00415593 -0.00399519 -0.00381532 -0.00361873 -0.00340541 -0.00317535 -0.00292857 -0.00266506 -0.00238483 -0.00208786 -0.00179321 -0.00151992 -0.00126799 -0.00103743 -0.000828227 -0.000640386 -0.000473907 -0.00032879 -0.000204389 -0.000100057 -1.57947e-05 4.83984e-05 9.25221e-05 0.000116576 0.000120561 0.000104477 7.999e-05 5.87682e-05 4.08112e-05 2.61192e-05 1.4692e-05 6.5298e-06 1.63245e-06 0 0 1.41099e-07 5.64396e-07 1.26989e-06 2.25758e-06 3.52748e-06 5.07956e-06 6.91385e-06 9.03034e-06 1.47896e-05 2.75521e-05 4.7318e-05 7.40872e-05 0.00010786 0.000148636 0.000196415 0.000251197 0.000311755 0.00037686 0.000446512 0.000520711 0.000599458 0.000682752 0.000770593 0.000862981 0.000956901 0.00104934 0.00114029 0.00122976 0.00131774 0.00140425 0.00148926 0.0015728 0.00165006 0.00171625 0.00177138 0.00181545 0.00184845 0.00187038 0.00188126 0.00188106 0.00187099 0.00185223 0.00182477 0.00178862 0.00174378 0.00169025 0.00162803 0.00155712 0.00148318 0.00141188 0.00134322 0.0012772 0.00121383 0.00115309 0.001095 0.00103955 0.000970333 0.000870961 0.000741429 0.000581737 0.000391886 0.000171875 -7.82961e-05 -0.000358627 -0.000669756 -0.00101232 -0.00138633 -0.00179177 -0.00222864 -0.00269696 -0.00319671 -0.0037279 -0.00425936 -0.00475991 -0.00522957 -0.00566833 -0.00607619 -0.00645316 -0.00679922 -0.00711438 -0.00739543 -0.00763916 -0.00784556 -0.00801463 -0.00814638 -0.0082408 -0.0082979 -0.00831767 -0.00829966 -0.00824339 -0.00814888 -0.00801611 -0.0078451 -0.00763583 -0.00738832 -0.00710255 -0.00678279 -0.00643329 -0.00605405 -0.00564507 -0.00520635 -0.00473789 -0.00423969 -0.00371175 -0.00318793 -0.00270208 -0.00225421 -0.00184432 -0.0014724 -0.00113846 -0.000842502 -0.000584516 -0.000363358 -0.000177879 -2.80795e-05 8.60416e-05 0.000164484 0.000207247 0.000214331 0.000185736 0.000142204 0.000104477 7.25533e-05 4.64341e-05 2.61192e-05 1.16085e-05 2.90213e-06 0 0 2.20467e-07 8.81869e-07 1.9842e-06 3.52748e-06 5.51168e-06 7.93682e-06 1.08029e-05 1.41099e-05 2.31087e-05 4.30502e-05 7.39344e-05 0.000115761 0.000168531 0.000232243 0.000306898 0.000392496 0.000487117 0.000588844 0.000697675 0.000813612 0.000936653 0.0010668 0.00120405 0.00134841 0.00149516 0.00163959 0.0017817 0.0019215 0.00205897 0.00219413 0.00232697 0.0024575 0.00257821 0.00268164 0.00276779 0.00283664 0.0028882 0.00292248 0.00293946 0.00293916 0.00292342 0.0028941 0.0028512 0.00279472 0.00272466 0.00264102 0.0025438 0.002433 0.00231746 0.00220606 0.00209878 0.00199563 0.00189661 0.00180171 0.00171094 0.00162429 0.00151615 0.00136088 0.00115848 0.000908965 0.000612322 0.000268554 -0.000122338 -0.000560354 -0.00104649 -0.00158175 -0.00216613 -0.00279963 -0.00348226 -0.004214 -0.00499486 -0.00582484 -0.00665524 -0.00743737 -0.00817121 -0.00885677 -0.00949405 -0.0100831 -0.0106238 -0.0111162 -0.0115554 -0.0119362 -0.0122587 -0.0125229 -0.0127287 -0.0128763 -0.0129655 -0.0129964 -0.0129682 -0.0128803 -0.0127326 -0.0125252 -0.012258 -0.011931 -0.0115442 -0.0110977 -0.0105981 -0.010052 -0.00945946 -0.00882043 -0.00813493 -0.00740296 -0.00662452 -0.00579961 -0.00498114 -0.004222 -0.00352221 -0.00288175 -0.00230063 -0.00177885 -0.00131641 -0.000913306 -0.000567747 -0.000277937 -4.38741e-05 0.00013444 0.000257006 0.000323823 0.000334892 0.000290213 0.000222195 0.000163245 0.000113365 7.25533e-05 4.08112e-05 1.81383e-05 4.53458e-06 0 0 3.17473e-07 1.26989e-06 2.85725e-06 5.07956e-06 7.93682e-06 1.1429e-05 1.55562e-05 2.03183e-05 3.32766e-05 6.19923e-05 0.000106466 0.000166696 0.000242684 0.00033443 0.000441933 0.000565194 0.000701449 0.000847935 0.00100465 0.0011716 0.00134878 0.00153619 0.00173383 0.00194171 0.00215303 0.00236101 0.00256565 0.00276696 0.00296492 0.00315955 0.00335084 0.00353879 0.00371263 0.00386157 0.00398561 0.00408476 0.00415901 0.00420837 0.00423283 0.00423239 0.00420973 0.00416751 0.00410573 0.0040244 0.00392352 0.00380307 0.00366307 0.00350351 0.00333715 0.00317673 0.00302225 0.00287371 0.00273111 0.00259446 0.00246375 0.00233898 0.00218325 0.00195966 0.00166822 0.00130891 0.000881744 0.000386718 -0.000176166 -0.00080691 -0.00150695 -0.00227773 -0.00311923 -0.00403147 -0.00501445 -0.00606816 -0.0071926 -0.00838777 -0.00958355 -0.0107098 -0.0117665 -0.0127537 -0.0136714 -0.0145196 -0.0152982 -0.0160074 -0.0166397 -0.0171881 -0.0176525 -0.0180329 -0.0183294 -0.0185418 -0.0186703 -0.0187148 -0.0186742 -0.0185476 -0.018335 -0.0180363 -0.0176515 -0.0171806 -0.0166237 -0.0159807 -0.0152613 -0.0144749 -0.0136216 -0.0127014 -0.0117143 -0.0106603 -0.00953931 -0.00835144 -0.00717284 -0.00607968 -0.00507198 -0.00414972 -0.00331291 -0.00256154 -0.00189563 -0.00131516 -0.000817556 -0.000400229 -6.31788e-05 0.000193594 0.000370088 0.000466305 0.000482245 0.000417907 0.00031996 0.000235073 0.000163245 0.000104477 5.87682e-05 2.61192e-05 6.5298e-06 0 0 4.32116e-07 1.72846e-06 3.88904e-06 6.91385e-06 1.08029e-05 1.55562e-05 2.11737e-05 2.76554e-05 4.52931e-05 8.43784e-05 0.000144911 0.000226892 0.00033032 0.000455196 0.00060152 0.000769291 0.00095475 0.00115413 0.00136744 0.00159468 0.00183584 0.00209093 0.00235994 0.00264288 0.00293051 0.0032136 0.00349214 0.00376614 0.00403559 0.0043005 0.00456087 0.00481669 0.0050533 0.00525602 0.00542486 0.00555981 0.00566087 0.00572805 0.00576135 0.00576075 0.00572991 0.00567244 0.00558836 0.00547766 0.00534034 0.0051764 0.00498585 0.00476867 0.00454223 0.00432388 0.00411361 0.00391144 0.00371735 0.00353135 0.00335343 0.00318361 0.00297165 0.00266732 0.00227063 0.00178157 0.00120015 0.000526367 -0.000239782 -0.00109829 -0.00205113 -0.00310024 -0.00424562 -0.00548728 -0.00682522 -0.00825943 -0.00978992 -0.0114167 -0.0130443 -0.0145772 -0.0160156 -0.0173593 -0.0186083 -0.0197628 -0.0208226 -0.0217878 -0.0226485 -0.0233949 -0.024027 -0.0245448 -0.0249483 -0.0252375 -0.0254123 -0.0254729 -0.0254177 -0.0252454 -0.0249559 -0.0245493 -0.0240256 -0.0233847 -0.0226267 -0.0217516 -0.0207723 -0.019702 -0.0185405 -0.017288 -0.0159445 -0.0145098 -0.0129841 -0.0113672 -0.00976303 -0.00827512 -0.00690352 -0.00564823 -0.00450924 -0.00348655 -0.00258016 -0.00179008 -0.00111278 -0.000544756 -8.59933e-05 0.000263502 0.000503731 0.000634694 0.000656389 0.000568818 0.000435501 0.00031996 0.000222195 0.000142204 7.999e-05 3.55511e-05 8.88778e-06 0 0 5.64396e-07 2.25758e-06 5.07956e-06 9.03034e-06 1.41099e-05 2.03183e-05 2.76554e-05 3.61213e-05 5.91583e-05 0.000110209 0.000189272 0.000296349 0.000431439 0.000594542 0.000785659 0.00100479 0.00124702 0.00150744 0.00178605 0.00208285 0.00239783 0.00273101 0.00308237 0.00345192 0.0038276 0.00419735 0.00456116 0.00491903 0.00527098 0.00561698 0.00595705 0.00629119 0.00660023 0.00686501 0.00708553 0.00726179 0.0073938 0.00748154 0.00752502 0.00752425 0.00748396 0.00740891 0.00729908 0.0071545 0.00697514 0.00676102 0.00651213 0.00622847 0.00593271 0.00564751 0.00537288 0.00510881 0.00485531 0.00461237 0.00437999 0.00415818 0.00388133 0.00348384 0.00296572 0.00232695 0.00156754 0.000687499 -0.000313185 -0.00143451 -0.00267902 -0.00404929 -0.0055453 -0.00716706 -0.00891457 -0.0107878 -0.0127868 -0.0149116 -0.0170374 -0.0190397 -0.0209183 -0.0226733 -0.0243048 -0.0258126 -0.0271969 -0.0284575 -0.0295817 -0.0305566 -0.0313822 -0.0320585 -0.0325855 -0.0329632 -0.0331916 -0.0332707 -0.0331986 -0.0329736 -0.0325955 -0.0320644 -0.0313804 -0.0305433 -0.0295533 -0.0284102 -0.0271312 -0.0257332 -0.0242162 -0.0225803 -0.0208254 -0.0189516 -0.0169588 -0.014847 -0.0127517 -0.0108083 -0.00901685 -0.00737728 -0.00588961 -0.00455386 -0.00337001 -0.00233806 -0.00145343 -0.000711518 -0.000112318 0.000344166 0.000657935 0.000828987 0.000857325 0.000742946 0.000568818 0.000417907 0.000290213 0.000185736 0.000104477 4.64341e-05 1.16085e-05 0 0 8.55362e-07 3.42145e-06 7.69826e-06 1.36858e-05 2.13841e-05 3.0793e-05 4.19128e-05 5.47432e-05 8.44698e-05 0.000146278 0.000240168 0.00036614 0.000524193 0.000714328 0.000936545 0.00119084 0.00147121 0.00177161 0.00209207 0.00243257 0.00279311 0.00317371 0.00357434 0.00399503 0.00442296 0.00484532 0.00526213 0.00567338 0.00607907 0.00647919 0.00687376 0.00726277 0.00762305 0.00793144 0.00818794 0.00839255 0.00854527 0.0086461 0.00869503 0.00869208 0.00864343 0.00855528 0.00842764 0.0082605 0.00805387 0.00780774 0.00752211 0.00719699 0.0068582 0.00653159 0.00621714 0.00591487 0.00562477 0.00534684 0.00508108 0.0048275 0.00450673 0.00403944 0.00342563 0.00266529 0.00175842 0.000705031 -0.000494885 -0.00184133 -0.0033323 -0.00496582 -0.00674187 -0.00866047 -0.0107216 -0.0129253 -0.0152715 -0.0177603 -0.0202507 -0.0226018 -0.0248137 -0.0268863 -0.0288197 -0.0306138 -0.0322686 -0.0337842 -0.0351401 -0.0363158 -0.0373115 -0.038127 -0.0387625 -0.0392178 -0.039493 -0.039588 -0.0395009 -0.0392292 -0.0387732 -0.0381327 -0.0373078 -0.0362985 -0.0351048 -0.0337266 -0.0321895 -0.0305189 -0.0287148 -0.0267772 -0.0247061 -0.0225016 -0.0201635 -0.0176919 -0.0152399 -0.0129607 -0.0108541 -0.00892029 -0.00715915 -0.00557072 -0.00415499 -0.00291196 -0.00184098 -0.00094137 -0.00021314 0.000343714 0.000729192 0.000943293 0.000986017 0.000857364 0.000656419 0.000482267 0.000334908 0.000214341 0.000120567 5.35852e-05 1.33963e-05 0 0 1.44606e-06 5.78426e-06 1.30146e-05 2.3137e-05 3.61516e-05 5.20583e-05 7.08571e-05 9.25481e-05 0.000130825 0.000199383 0.00029822 0.000427338 0.000586736 0.000776414 0.000996372 0.00124661 0.00152025 0.00181041 0.0021171 0.00244031 0.00278004 0.0031363 0.00350908 0.00389838 0.00429521 0.00469057 0.00508446 0.00547689 0.00586785 0.00625734 0.00664536 0.00703192 0.00739141 0.00769824 0.00795242 0.00815394 0.0083028 0.00839901 0.00844255 0.00843344 0.00837985 0.00828996 0.00816377 0.00800128 0.00780249 0.00756739 0.007296 0.00698831 0.00666832 0.00636005 0.00606348 0.00577863 0.00550549 0.00524406 0.00499435 0.00475634 0.00444226 0.00396432 0.00332251 0.00251683 0.00154729 0.000413878 -0.000883395 -0.00234453 -0.00395263 -0.00569076 -0.00755894 -0.00955716 -0.0116854 -0.0139437 -0.0163321 -0.0188505 -0.0213717 -0.0237684 -0.0260407 -0.0281885 -0.0302119 -0.0321108 -0.0338853 -0.0355353 -0.0370242 -0.0383151 -0.0394082 -0.0403033 -0.0410005 -0.0414998 -0.0418013 -0.0419048 -0.0418082 -0.0415095 -0.0410085 -0.0403054 -0.0394 -0.0382925 -0.0369828 -0.0354708 -0.033799 -0.0320096 -0.0301025 -0.0280778 -0.0259356 -0.0236757 -0.0212982 -0.0188031 -0.0163288 -0.0140136 -0.0118576 -0.0098607 -0.00802296 -0.00634437 -0.00482492 -0.00346462 -0.00227689 -0.00127517 -0.000459446 0.000170276 0.000613996 0.000871714 0.00094343 0.000829145 0.000634814 0.000466394 0.000323885 0.000207286 0.000116599 5.18216e-05 1.29554e-05 0 0 2.3365e-06 9.346e-06 2.10285e-05 3.7384e-05 5.84125e-05 8.4114e-05 0.000114489 0.000149536 0.000198224 0.000269522 0.000363428 0.000479943 0.000619067 0.0007808 0.000965142 0.00117209 0.00139416 0.00162384 0.00186115 0.00210607 0.00235862 0.00261878 0.00288657 0.00316197 0.00344436 0.00373309 0.00402816 0.00432957 0.00463732 0.00495141 0.00527185 0.00559863 0.0059053 0.00616541 0.00637896 0.00654595 0.00666639 0.00674026 0.00676758 0.00674834 0.00669323 0.00661294 0.00650747 0.00637682 0.00622099 0.00603998 0.0058338 0.00560243 0.00536307 0.0051329 0.00491191 0.0047001 0.00449748 0.00430404 0.00411979 0.00394473 0.00368793 0.00325847 0.00265635 0.00188157 0.000934134 -0.00018596 -0.00147871 -0.00294413 -0.00454 -0.00622412 -0.0079965 -0.00985713 -0.011806 -0.0138432 -0.0159686 -0.0181822 -0.0204004 -0.0225395 -0.0245993 -0.02658 -0.0284815 -0.0303039 -0.0320471 -0.0337111 -0.0352342 -0.0365546 -0.0376723 -0.0385874 -0.0392997 -0.0398094 -0.0401165 -0.0402208 -0.0401207 -0.0398142 -0.0393014 -0.0385824 -0.0376569 -0.0365252 -0.0351871 -0.0336428 -0.0319596 -0.0302051 -0.0283793 -0.0264822 -0.0245138 -0.022474 -0.020363 -0.0181807 -0.0160183 -0.0139671 -0.0120272 -0.0101985 -0.00848105 -0.00687482 -0.00537982 -0.00399605 -0.00276118 -0.00171292 -0.000851237 -0.00017615 0.000312346 0.000614252 0.000729566 0.000658289 0.000504003 0.000370288 0.000257144 0.000164572 9.25719e-05 4.11431e-05 1.02858e-05 0 0 3.52667e-06 1.41067e-05 3.174e-05 5.64267e-05 8.81668e-05 0.00012696 0.000172807 0.000225707 0.000286668 0.000356696 0.000435792 0.000523956 0.000621187 0.000727486 0.000842853 0.000967288 0.00109292 0.0012119 0.00132421 0.00142986 0.00152884 0.00162116 0.00170682 0.00178581 0.00187041 0.00197288 0.00209321 0.00223141 0.00238748 0.00256142 0.00275323 0.00296291 0.00316472 0.00333294 0.00346756 0.00356859 0.00363603 0.00366987 0.00367012 0.00363677 0.00358356 0.00352421 0.00345874 0.00338713 0.00330939 0.00322551 0.0031355 0.00303936 0.00294245 0.00285013 0.00276241 0.00267927 0.00260073 0.00252678 0.00245742 0.00239265 0.00224372 0.00192189 0.00142716 0.000759515 -8.10323e-05 -0.00109448 -0.00228084 -0.00364011 -0.00509441 -0.00656589 -0.00805455 -0.00956039 -0.0110834 -0.0126236 -0.014181 -0.0157555 -0.017337 -0.018915 -0.0204896 -0.0220607 -0.0236285 -0.0251929 -0.0267538 -0.0283113 -0.0297699 -0.0310341 -0.0321038 -0.0329792 -0.0336601 -0.0341466 -0.0344386 -0.0345363 -0.0344383 -0.0341436 -0.033652 -0.0329637 -0.0320786 -0.0309967 -0.029718 -0.0282425 -0.0266713 -0.0251055 -0.0235452 -0.0219902 -0.0204407 -0.0188965 -0.0173578 -0.0158245 -0.0143084 -0.0128212 -0.011363 -0.00993371 -0.0085334 -0.00716206 -0.00581967 -0.00450623 -0.00329385 -0.00225461 -0.00138851 -0.000695563 -0.000175756 0.000170906 0.000344423 0.000344796 0.000263985 0.000193948 0.000134686 8.61991e-05 4.8487e-05 2.15498e-05 5.38744e-06 0 0 5.01658e-06 2.00663e-05 4.51492e-05 8.02652e-05 0.000125414 0.000180597 0.000245812 0.000321061 0.000396155 0.000460905 0.000515312 0.000559375 0.000593096 0.000616473 0.000629506 0.000632197 0.000616552 0.000574581 0.000506284 0.00041166 0.000290709 0.000143432 -3.01709e-05 -0.000230101 -0.000426638 -0.000590062 -0.000720374 -0.000817574 -0.000881662 -0.000912637 -0.0009105 -0.00087525 -0.000830327 -0.000799168 -0.000781773 -0.000778143 -0.000788278 -0.000812176 -0.00084984 -0.000901268 -0.000949158 -0.00097621 -0.000982423 -0.000967797 -0.000932332 -0.000876028 -0.000798885 -0.000700903 -0.000593536 -0.000488238 -0.000385009 -0.000283849 -0.000184758 -8.77354e-05 7.21824e-06 0.000100103 0.000109651 -4.54074e-05 -0.000365071 -0.00084934 -0.00149821 -0.00231169 -0.00328978 -0.00443247 -0.00561587 -0.00671608 -0.0077331 -0.00866693 -0.00951757 -0.010285 -0.0109693 -0.0115704 -0.0121812 -0.0128949 -0.0137114 -0.0146307 -0.0156529 -0.0167778 -0.0180055 -0.0193361 -0.0206315 -0.0217537 -0.0227028 -0.0234788 -0.0240816 -0.0245112 -0.0247677 -0.0248511 -0.0247611 -0.0244974 -0.0240602 -0.0234494 -0.0226649 -0.0217069 -0.0205752 -0.0192699 -0.0179341 -0.0167108 -0.0156001 -0.0146019 -0.0137163 -0.0129432 -0.0122827 -0.0117346 -0.0111991 -0.0105758 -0.0098649 -0.0090663 -0.00818003 -0.00720609 -0.00614447 -0.00499518 -0.00387488 -0.00290025 -0.00207127 -0.00138796 -0.000850312 -0.000458324 -0.000211998 -0.000111334 -8.52397e-05 -6.26251e-05 -4.34897e-05 -2.78334e-05 -1.56563e-05 -6.95835e-06 -1.73959e-06 0 0 6.80622e-06 2.72249e-05 6.1256e-05 0.000108899 0.000170155 0.000245024 0.000333505 0.000435598 0.000526685 0.000582149 0.000601988 0.000586202 0.000534793 0.000447759 0.000325101 0.000166819 -3.49597e-05 -0.000288109 -0.000592627 -0.000948516 -0.00135577 -0.0018144 -0.0023244 -0.00288577 -0.00344679 -0.00395573 -0.0044126 -0.00481739 -0.00517011 -0.00547076 -0.00571934 -0.00591584 -0.00607984 -0.00623091 -0.00636905 -0.00649425 -0.00660653 -0.00670587 -0.00679229 -0.00686577 -0.00690492 -0.00688833 -0.00681601 -0.00668795 -0.00650416 -0.00626463 -0.00596937 -0.00561837 -0.0052449 -0.00488222 -0.00453035 -0.00418927 -0.00385898 -0.00353949 -0.0032308 -0.00293291 -0.00271429 -0.00264343 -0.00272033 -0.00294499 -0.00331741 -0.00383759 -0.00450553 -0.00532122 -0.00610437 -0.00667468 -0.00703214 -0.00717675 -0.00710852 -0.00682744 -0.00633351 -0.00562673 -0.00493329 -0.00447936 -0.00426493 -0.00429001 -0.0045546 -0.0050587 -0.0058023 -0.00678541 -0.00781886 -0.00871345 -0.0094692 -0.0100861 -0.0105642 -0.0109034 -0.0111037 -0.0111652 -0.0110889 -0.0108759 -0.010526 -0.0100394 -0.00941598 -0.0086558 -0.00775885 -0.00672512 -0.00574804 -0.00502106 -0.00454417 -0.00431738 -0.00434067 -0.00461406 -0.00513754 -0.00591111 -0.0066904 -0.00723102 -0.00753299 -0.00759629 -0.00742093 -0.00700691 -0.00635423 -0.00546289 -0.00450429 -0.00364983 -0.00289952 -0.00225335 -0.00171132 -0.00127344 -0.000939697 -0.0007101 -0.00054367 -0.000399431 -0.000277383 -0.000177525 -9.98578e-05 -4.43813e-05 -1.10953e-05 0 0 8.89559e-06 3.55824e-05 8.00604e-05 0.00014233 0.00022239 0.000320241 0.000435884 0.000569318 0.00067826 0.000720427 0.000695819 0.000604437 0.000446279 0.000221346 -7.03615e-05 -0.000428844 -0.000861611 -0.00137617 -0.00197252 -0.00265067 -0.00341061 -0.00425234 -0.00517587 -0.00618119 -0.00719003 -0.00812412 -0.00898346 -0.00976804 -0.0104779 -0.011113 -0.0116733 -0.0121589 -0.0125838 -0.0129623 -0.0132943 -0.0135797 -0.0138187 -0.0140112 -0.0141572 -0.0142567 -0.0142837 -0.0142122 -0.014042 -0.0137733 -0.0134061 -0.0129403 -0.0123759 -0.011713 -0.0110116 -0.0103318 -0.0096736 -0.00903698 -0.00842194 -0.0078285 -0.00725664 -0.00670638 -0.0062281 -0.00587218 -0.00563863 -0.00552744 -0.00553862 -0.00567217 -0.00592808 -0.00630636 -0.00655992 -0.00644169 -0.00595167 -0.00508985 -0.00385624 -0.00225084 -0.000273645 0.00207535 0.00440689 0.00633176 0.00784995 0.00896147 0.0096663 0.00996446 0.00985593 0.00934073 0.00866796 0.0080867 0.00759698 0.00719878 0.0068921 0.00667696 0.00655333 0.00652124 0.00657805 0.00672115 0.00695055 0.00726624 0.00766822 0.0081565 0.00873106 0.00939193 0.0098869 0.00996382 0.00962268 0.00886349 0.00768623 0.00609092 0.00407754 0.00164611 -0.000782343 -0.00278679 -0.00436724 -0.00552368 -0.00625611 -0.00656453 -0.00644895 -0.00590937 -0.00518207 -0.00450337 -0.00387325 -0.00329172 -0.00275878 -0.00227443 -0.00183867 -0.0014515 -0.00111131 -0.000816471 -0.000566994 -0.000362876 -0.000204118 -9.0719e-05 -2.26797e-05 0 0 1.12847e-05 4.51388e-05 0.000101562 0.000180555 0.000282118 0.000406249 0.000552951 0.000722221 0.000850879 0.000875741 0.000796807 0.000614078 0.000327553 -6.27669e-05 -0.000556883 -0.00115479 -0.0018634 -0.00268961 -0.00363341 -0.00469481 -0.0058738 -0.00717039 -0.00858458 -0.0101164 -0.0116564 -0.0130952 -0.014433 -0.0156695 -0.0168049 -0.0178392 -0.0187723 -0.0196043 -0.0203423 -0.0209933 -0.0215574 -0.0220346 -0.0224249 -0.0227282 -0.0229447 -0.0230742 -0.0230856 -0.0229477 -0.0226605 -0.022224 -0.0216382 -0.020903 -0.0200186 -0.0189849 -0.0178937 -0.016837 -0.0158148 -0.014827 -0.0138736 -0.0129547 -0.0120703 -0.0112203 -0.0104318 -0.00973165 -0.00911996 -0.00859669 -0.00816185 -0.00781543 -0.00755745 -0.00738788 -0.00698252 -0.00601712 -0.0044917 -0.00240624 0.000239244 0.00344476 0.00721031 0.0115359 0.0158393 0.0195384 0.0226332 0.0251237 0.0270098 0.0282917 0.0289692 0.0290423 0.028829 0.0286468 0.0284957 0.0283759 0.0282872 0.0282298 0.0282035 0.0282083 0.0282399 0.0282936 0.0283695 0.0284675 0.0285877 0.02873 0.0288946 0.0290812 0.0289707 0.0282438 0.0269004 0.0249406 0.0223644 0.0191717 0.0153626 0.010937 0.00652509 0.00275687 -0.000367645 -0.00284845 -0.00468555 -0.00587894 -0.00642863 -0.0063346 -0.00590822 -0.00546084 -0.00499246 -0.00450308 -0.0039927 -0.00346131 -0.00290893 -0.00233554 -0.00178815 -0.00131374 -0.000912322 -0.000583886 -0.000328436 -0.000145972 -3.64929e-05 0 0 1.27515e-05 5.10062e-05 0.000114764 0.000204025 0.000318789 0.000459055 0.000624825 0.000816099 0.000951745 0.000950636 0.000812771 0.000538149 0.000126772 -0.000421361 -0.00110625 -0.0019279 -0.00288744 -0.00398602 -0.00522363 -0.00660029 -0.00811598 -0.00977071 -0.0115645 -0.0134973 -0.0154425 -0.0172735 -0.0189902 -0.0205927 -0.0220809 -0.0234549 -0.0247147 -0.0258603 -0.0268866 -0.0277887 -0.0285666 -0.0292203 -0.0297497 -0.030155 -0.030436 -0.0305929 -0.030589 -0.0303878 -0.0299894 -0.0293937 -0.0286008 -0.0276106 -0.0264232 -0.0250385 -0.0235885 -0.0222049 -0.0208879 -0.0196373 -0.0184533 -0.0173357 -0.0162847 -0.0153001 -0.0143564 -0.0134281 -0.0125151 -0.0116174 -0.010735 -0.00986799 -0.00901626 -0.00817985 -0.00694967 -0.00491665 -0.00208078 0.00155794 0.00599951 0.0112439 0.0172912 0.0241413 0.0309667 0.0369396 0.0420602 0.0463284 0.0497443 0.0523078 0.0540188 0.0548776 0.0552848 0.0556414 0.0559473 0.0562027 0.0564075 0.0565616 0.0566651 0.056718 0.0567136 0.0566453 0.0565129 0.0563166 0.0560564 0.0557321 0.0553439 0.0548917 0.0539763 0.0521985 0.0495582 0.0460554 0.0416901 0.0364624 0.0303723 0.0234197 0.0164924 0.0104783 0.00537733 0.00118954 -0.0020851 -0.00444658 -0.00589491 -0.00643007 -0.00645106 -0.00635684 -0.00614742 -0.00582279 -0.00538295 -0.00482791 -0.00415767 -0.00337221 -0.00258185 -0.00189687 -0.00131727 -0.000843054 -0.000474218 -0.000210763 -5.26908e-05 0 0 1.20741e-05 4.82964e-05 0.000108667 0.000193185 0.000301852 0.000434667 0.00059163 0.000772742 0.000888064 0.00084766 0.00065153 0.000299674 -0.000207909 -0.000871218 -0.00169025 -0.00266501 -0.00378082 -0.00502301 -0.00639156 -0.00788648 -0.00950778 -0.0112554 -0.0131295 -0.0151299 -0.017145 -0.0190631 -0.0208842 -0.0226083 -0.0242354 -0.0257655 -0.0271987 -0.0285348 -0.0297482 -0.0308133 -0.0317299 -0.0324982 -0.0331181 -0.0335897 -0.0339128 -0.0340876 -0.0340723 -0.0338254 -0.0333468 -0.0326365 -0.0316946 -0.0305209 -0.0291156 -0.0274786 -0.0257932 -0.0242427 -0.022827 -0.0215461 -0.0204001 -0.0193889 -0.0185126 -0.0177711 -0.0170333 -0.0161678 -0.0151748 -0.0140543 -0.0128061 -0.0114304 -0.00992716 -0.00829631 -0.0060389 -0.00265595 0.00185253 0.00748656 0.0142461 0.0221312 0.0311419 0.041278 0.0513916 0.0603344 0.0681064 0.0747076 0.080138 0.0843976 0.0874864 0.0894045 0.090656 0.0917452 0.0926721 0.0934367 0.094039 0.094479 0.0947567 0.0948722 0.0948162 0.0945798 0.094163 0.0935658 0.0927881 0.09183 0.0906914 0.0893725 0.0873766 0.0842074 0.0798648 0.074349 0.0676597 0.0597972 0.0507613 0.0405521 0.0303801 0.0214558 0.0137793 0.00735046 0.00216942 -0.00176388 -0.00444944 -0.00588725 -0.00657889 -0.00702593 -0.00722836 -0.00718619 -0.00689943 -0.00636805 -0.00559208 -0.00457151 -0.00350006 -0.00257147 -0.00178574 -0.00114288 -0.000642868 -0.000285719 -7.14298e-05 0 0 9.25235e-06 3.70094e-05 8.32712e-05 0.000148038 0.000231309 0.000333085 0.000453365 0.000592151 0.000659835 0.000566813 0.000313085 -0.000101349 -0.00067649 -0.00141234 -0.00230889 -0.00336615 -0.00454356 -0.00580057 -0.00713719 -0.0085534 -0.0100492 -0.0116246 -0.0132796 -0.0150142 -0.0167639 -0.0184642 -0.020115 -0.0217165 -0.0232684 -0.024771 -0.0262241 -0.0276279 -0.0289271 -0.030067 -0.0310474 -0.0318685 -0.0325301 -0.0330323 -0.033375 -0.0335584 -0.0335357 -0.0332605 -0.0327327 -0.0319523 -0.0309194 -0.0296339 -0.0280958 -0.0263051 -0.0245079 -0.0229502 -0.021632 -0.0205533 -0.0197141 -0.0191143 -0.0187541 -0.0186333 -0.0184622 -0.0179508 -0.0170992 -0.0159073 -0.0143752 -0.0125028 -0.0102901 -0.00773726 -0.0042502 0.000764962 0.00730823 0.0153796 0.0249791 0.0361066 0.0487623 0.0629461 0.0771142 0.0897227 0.100772 0.110261 0.118191 0.124561 0.129372 0.132623 0.134943 0.136958 0.13867 0.140078 0.141182 0.141982 0.142478 0.142671 0.142548 0.142097 0.14132 0.140215 0.138783 0.137024 0.134937 0.132523 0.129171 0.124271 0.11782 0.109821 0.100273 0.089176 0.0765296 0.0623343 0.0481881 0.0356894 0.0248381 0.0156343 0.008078 0.00216916 -0.00209222 -0.00470613 -0.00629171 -0.0074681 -0.0082353 -0.00859331 -0.00854212 -0.00808174 -0.00721218 -0.00593342 -0.00454277 -0.00333755 -0.00231774 -0.00148335 -0.000834387 -0.000370839 -9.27097e-05 0 0 4.28633e-06 1.71453e-05 3.8577e-05 6.85813e-05 0.000107158 0.000154308 0.00021003 0.000274325 0.000267058 0.000108095 -0.000202564 -0.000664919 -0.00127897 -0.00204472 -0.00296216 -0.0040313 -0.00517565 -0.00631872 -0.00746051 -0.00860102 -0.00974026 -0.0108782 -0.0120149 -0.0131503 -0.0142993 -0.0154767 -0.0166827 -0.0179171 -0.01918 -0.0204713 -0.0217912 -0.0231395 -0.0244233 -0.0255499 -0.0265191 -0.027331 -0.0279855 -0.0284828 -0.0288226 -0.0290052 -0.0289791 -0.0286931 -0.0281471 -0.0273412 -0.0262753 -0.0249495 -0.0233638 -0.0215181 -0.0197326 -0.0183276 -0.017303 -0.0166589 -0.0163952 -0.016512 -0.0170092 -0.0178868 -0.0186433 -0.018777 -0.0182881 -0.0171765 -0.0154421 -0.013085 -0.0101052 -0.00650271 -0.00158357 0.0053461 0.0142863 0.0252371 0.0381984 0.0531702 0.0701526 0.0891455 0.108134 0.125104 0.140056 0.152989 0.163903 0.172798 0.179675 0.184533 0.188145 0.19128 0.193941 0.196126 0.197836 0.199071 0.19983 0.200114 0.199908 0.199198 0.197983 0.196264 0.194041 0.191313 0.188081 0.184345 0.179361 0.172388 0.163425 0.152473 0.139531 0.124599 0.107677 0.0887662 0.0699164 0.053179 0.0385539 0.0260411 0.0156407 0.00735254 0.00117675 -0.00288671 -0.00558953 -0.00768336 -0.00916823 -0.0100441 -0.010311 -0.00996898 -0.00901795 -0.00745795 -0.00570999 -0.0041951 -0.00291326 -0.00186449 -0.00104877 -0.000466122 -0.000116531 0 0 -2.82398e-06 -1.12959e-05 -2.54158e-05 -4.51837e-05 -7.05995e-05 -0.000101663 -0.000138375 -0.000180735 -0.000290266 -0.000528494 -0.000895417 -0.00139104 -0.00201535 -0.00276836 -0.00365007 -0.00466047 -0.00567709 -0.00657745 -0.00736154 -0.00802937 -0.00858093 -0.00901623 -0.00933527 -0.00953805 -0.00975104 -0.0101007 -0.0105871 -0.0112102 -0.01197 -0.0128665 -0.0138997 -0.0150697 -0.0162369 -0.0172619 -0.0181449 -0.