<?xml version="1.0"?> 
<VTKFile type="StructuredGrid" version="0.1"> 
<StructuredGrid WholeExtent="0 128 0 128 0 0"> 
<Piece Extent="0 128 0 128 0 0"> 
<PointData>
<DataArray type="Float32" Name="u" format="ascii" NumberOfComponents="1"> 
0 0 0 0 0 0 0 0 0 0 0 0 0 0 0 0 0 0 0 0 0 0 0 0 0 0 0 0 0 0 0 0 0 0 0 0 0 0 0 0 0 0 0 0 0 0 0 0 0 0 0 0 0 0 0 0 0 0 0 0 0 0 0 0 0 0 0 0 0 0 0 0 0 0 0 0 0 0 0 0 0 0 0 0 0 0 0 0 0 0 0 0 0 0 0 0 0 0 0 0 0 0 0 0 0 0 0 0 0 0 0 0 0 0 0 0 0 0 0 0 0 0 0 0 0 0 0 0 0 0 -1.92092e-08 -7.68367e-08 -1.72883e-07 -3.07347e-07 -4.80229e-07 -6.9153e-07 -9.4125e-07 -1.22939e-06 -1.74031e-06 -2.6584e-06 -3.98365e-06 -5.71606e-06 -7.85563e-06 -1.04024e-05 -1.33563e-05 -1.67173e-05 -2.05364e-05 -2.48645e-05 -2.97016e-05 -3.50476e-05 -4.09027e-05 -4.72667e-05 -5.41396e-05 -6.15216e-05 -6.91103e-05 -7.66035e-05 -8.40012e-05 -9.13035e-05 -9.85103e-05 -0.000105622 -0.000112637 -0.000119558 -0.000125958 -0.000131415 -0.000135927 -0.000139495 -0.000142119 -0.000143799 -0.000144534 -0.000144326 -0.000143291 -0.000141548 -0.000139097 -0.000135937 -0.000132069 -0.000127492 -0.000122208 -0.000116214 -0.00011008 -0.000104372 -9.90889e-05 -9.42321e-05 -8.9801e-05 -8.57957e-05 -8.22163e-05 -7.90627e-05 -7.65299e-05 -7.48128e-05 -7.39116e-05 -7.38261e-05 -7.45564e-05 -7.61025e-05 -7.84643e-05 -8.1642e-05 -8.53831e-05 -8.94355e-05 -9.37992e-05 -9.84742e-05 -0.00010346 -0.000108758 -0.000114367 -0.000120287 -0.000126332 -0.000132317 -0.000138241 -0.000144104 -0.000149907 -0.00015565 -0.000161331 -0.000166952 -0.00017222 -0.000176839 -0.000180812 -0.000184137 -0.000186815 -0.000188845 -0.000190228 -0.000190964 -0.000191043 -0.000190455 -0.000189201 -0.00018728 -0.000184693 -0.000181439 -0.000177519 -0.000172932 -0.000167904 -0.00016266 -0.000157201 -0.000151526 -0.000145636 -0.00013953 -0.000133208 -0.000126671 -0.000119932 -0.000113005 -0.00010589 -9.85867e-05 -9.10959e-05 -8.34172e-05 -7.55506e-05 -6.7496e-05 -5.95841e-05 -5.21454e-05 -4.51799e-05 -3.86877e-05 -3.26687e-05 -2.71229e-05 -2.20503e-05 -1.7451e-05 -1.33609e-05 -9.81616e-06 -6.81678e-06 -4.36274e-06 -2.45404e-06 -1.09068e-06 -2.72671e-07 0 0 -7.68367e-08 -3.07347e-07 -6.9153e-07 -1.22939e-06 -1.92092e-06 -2.76612e-06 -3.765e-06 -4.91755e-06 -6.96126e-06 -1.06336e-05 -1.59346e-05 -2.28642e-05 -3.14225e-05 -4.16094e-05 -5.3425e-05 -6.68692e-05 -8.21457e-05 -9.94581e-05 -0.000118806 -0.000140191 -0.000163611 -0.000189067 -0.000216558 -0.000246086 -0.000276441 -0.000306414 -0.000336005 -0.000365214 -0.000394041 -0.000422486 -0.00045055 -0.000478231 -0.000503833 -0.000525659 -0.000543708 -0.00055798 -0.000568476 -0.000575195 -0.000578138 -0.000577303 -0.000573164 -0.000566192 -0.000556386 -0.000543747 -0.000528275 -0.000509969 -0.00048883 -0.000464858 -0.000440321 -0.000417487 -0.000396356 -0.000376928 -0.000359204 -0.000343183 -0.000328865 -0.000316251 -0.000306119 -0.000299251 -0.000295646 -0.000295304 -0.000298226 -0.00030441 -0.000313857 -0.000326568 -0.000341532 -0.000357742 -0.000375197 -0.000393897 -0.000413841 -0.000435031 -0.000457466 -0.000481146 -0.000505327 -0.000529266 -0.000552963 -0.000576417 -0.000599629 -0.000622598 -0.000645325 -0.00066781 -0.000688878 -0.000707358 -0.000723247 -0.000736548 -0.000747259 -0.000755381 -0.000760913 -0.000763856 -0.000764172 -0.000761821 -0.000756804 -0.000749121 -0.000738772 -0.000725757 -0.000710075 -0.000691728 -0.000671616 -0.000650642 -0.000628805 -0.000606106 -0.000582544 -0.000558119 -0.000532832 -0.000506683 -0.000479727 -0.000452018 -0.000423559 -0.000394347 -0.000364384 -0.000333669 -0.000302202 -0.000269984 -0.000238336 -0.000208582 -0.00018072 -0.000154751 -0.000130675 -0.000108492 -8.82012e-05 -6.98038e-05 -5.34436e-05 -3.92647e-05 -2.72671e-05 -1.7451e-05 -9.81616e-06 -4.36274e-06 -1.09068e-06 0 0 -1.72883e-07 -6.9153e-07 -1.55594e-06 -2.76612e-06 -4.32207e-06 -6.22377e-06 -8.47125e-06 -1.10645e-05 -1.56628e-05 -2.39256e-05 -3.58529e-05 -5.14445e-05 -7.07007e-05 -9.36213e-05 -0.000120206 -0.000150456 -0.000184828 -0.000223781 -0.000267314 -0.000315429 -0.000368124 -0.0004254 -0.000487257 -0.000553694 -0.000621992 -0.000689431 -0.000756011 -0.000821731 -0.000886593 -0.000950594 -0.00101374 -0.00107602 -0.00113363 -0.00118273 -0.00122334 -0.00125546 -0.00127907 -0.00129419 -0.00130081 -0.00129893 -0.00128962 -0.00127393 -0.00125187 -0.00122343 -0.00118862 -0.00114743 -0.00109987 -0.00104593 -0.000990721 -0.000939345 -0.0008918 -0.000848089 -0.000808209 -0.000772162 -0.000739947 -0.000711564 -0.000688769 -0.000673315 -0.000665204 -0.000664435 -0.000671007 -0.000684922 -0.000706179 -0.000734778 -0.000768448 -0.00080492 -0.000844193 -0.000886267 -0.000931143 -0.00097882 -0.0010293 -0.00108258 -0.00113699 -0.00119085 -0.00124417 -0.00129694 -0.00134916 -0.00140085 -0.00145198 -0.00150257 -0.00154998 -0.00159155 -0.00162731 -0.00165723 -0.00168133 -0.00169961 -0.00171206 -0.00171868 -0.00171939 -0.0017141 -0.00170281 -0.00168552 -0.00166224 -0.00163295 -0.00159767 -0.00155639 -0.00151114 -0.00146394 -0.00141481 -0.00136374 -0.00131072 -0.00125577 -0.00119887 -0.00114004 -0.00107938 -0.00101704 -0.000953007 -0.000887281 -0.000819863 -0.000750755 -0.000679955 -0.000607464 -0.000536257 -0.000469309 -0.000406619 -0.000348189 -0.000294018 -0.000244106 -0.000198453 -0.000157059 -0.000120248 -8.83455e-05 -6.1351e-05 -3.92647e-05 -2.20864e-05 -9.81616e-06 -2.45404e-06 0 0 -3.07347e-07 -1.22939e-06 -2.76612e-06 -4.91755e-06 -7.68367e-06 -1.10645e-05 -1.506e-05 -1.96702e-05 -2.7845e-05 -4.25344e-05 -6.37384e-05 -9.1457e-05 -0.00012569 -0.000166438 -0.0002137 -0.000267477 -0.000328583 -0.000397832 -0.000475225 -0.000560762 -0.000654443 -0.000756266 -0.000866234 -0.000984345 -0.00110576 -0.00122566 -0.00134402 -0.00146086 -0.00157616 -0.00168995 -0.0018022 -0.00191293 -0.00201533 -0.00210264 -0.00217483 -0.00223192 -0.0022739 -0.00230078 -0.00231255 -0.00230921 -0.00229266 -0.00226477 -0.00222554 -0.00217499 -0.0021131 -0.00203988 -0.00195532 -0.00185943 -0.00176128 -0.00166995 -0.00158542 -0.00150771 -0.00143682 -0.00137273 -0.00131546 -0.001265 -0.00122448 -0.00119701 -0.00118259 -0.00118122 -0.0011929 -0.00121764 -0.00125543 -0.00130627 -0.00136613 -0.00143097 -0.00150079 -0.00157559 -0.00165537 -0.00174013 -0.00182986 -0.00192458 -0.00202131 -0.00211707 -0.00221185 -0.00230567 -0.00239851 -0.00249039 -0.0025813 -0.00267124 -0.00275551 -0.00282943 -0.00289299 -0.00294619 -0.00298904 -0.00302152 -0.00304365 -0.00305543 -0.00305669 -0.00304728 -0.00302722 -0.00299648 -0.00295509 -0.00290303 -0.0028403 -0.00276691 -0.00268646 -0.00260257 -0.00251522 -0.00242442 -0.00233017 -0.00223248 -0.00213133 -0.00202673 -0.00191891 -0.00180807 -0.00169423 -0.00157739 -0.00145753 -0.00133468 -0.00120881 -0.00107994 -0.000953346 -0.000834326 -0.000722879 -0.000619003 -0.000522699 -0.000433966 -0.000352805 -0.000279215 -0.000213774 -0.000157059 -0.000109068 -6.98038e-05 -3.92647e-05 -1.7451e-05 -4.36274e-06 0 0 -4.80229e-07 -1.92092e-06 -4.32207e-06 -7.68367e-06 -1.20057e-05 -1.72883e-05 -2.35312e-05 -3.07347e-05 -4.35079e-05 -6.64601e-05 -9.95913e-05 -0.000142902 -0.000196391 -0.000260059 -0.000333906 -0.000417933 -0.000513411 -0.000621613 -0.00074254 -0.000876191 -0.00102257 -0.00118167 -0.00135349 -0.00153804 -0.00172776 -0.00191509 -0.00210003 -0.00228259 -0.00246276 -0.00264054 -0.00281594 -0.00298895 -0.00314896 -0.00328537 -0.00339818 -0.00348738 -0.00355298 -0.00359497 -0.00361336 -0.00360815 -0.00358228 -0.0035387 -0.00347741 -0.00339842 -0.00330172 -0.00318731 -0.00305519 -0.00290536 -0.002752 -0.00260929 -0.00247722 -0.0023558 -0.00224502 -0.00214489 -0.00205541 -0.00197657 -0.00191325 -0.00187032 -0.00184779 -0.00184565 -0.00186391 -0.00190256 -0.00196161 -0.00204105 -0.00213458 -0.00223589 -0.00234498 -0.00246185 -0.00258651 -0.00271895 -0.00285916 -0.00300716 -0.0031583 -0.00330791 -0.00345602 -0.00360261 -0.00374768 -0.00389124 -0.00403328 -0.00417381 -0.00430549 -0.00442098 -0.0045203 -0.00460342 -0.00467037 -0.00472113 -0.00475571 -0.0047741 -0.00477607 -0.00476138 -0.00473002 -0.00468201 -0.00461732 -0.00453598 -0.00443797 -0.0043233 -0.0041976 -0.00406651 -0.00393003 -0.00378816 -0.0036409 -0.00348825 -0.0033302 -0.00316677 -0.00299829 -0.00282511 -0.00264724 -0.00246467 -0.0022774 -0.00208543 -0.00188876 -0.0016874 -0.0014896 -0.00130364 -0.0011295 -0.000967192 -0.000816717 -0.000678072 -0.000551258 -0.000436274 -0.000334022 -0.000245404 -0.000170419 -0.000109068 -6.1351e-05 -2.72671e-05 -6.81678e-06 0 0 -6.9153e-07 -2.76612e-06 -6.22377e-06 -1.10645e-05 -1.72883e-05 -2.48951e-05 -3.3885e-05 -4.42579e-05 -6.26513e-05 -9.57025e-05 -0.000143411 -0.000205778 -0.000282803 -0.000374485 -0.000480825 -0.000601823 -0.000739311 -0.000895123 -0.00106926 -0.00126171 -0.0014725 -0.0017016 -0.00194903 -0.00221478 -0.00248797 -0.00275773 -0.00302404 -0.00328693 -0.00354637 -0.00380238 -0.00405495 -0.00430408 -0.0045345 -0.00473093 -0.00489337 -0.00502182 -0.00511628 -0.00517676 -0.00520324 -0.00519573 -0.00515848 -0.00509573 -0.00500747 -0.00489372 -0.00475447 -0.00458972 -0.00439947 -0.00418372 -0.00396288 -0.00375738 -0.0035672 -0.00339235 -0.00323284 -0.00308865 -0.00295979 -0.00284626 -0.00275508 -0.00269326 -0.00266082 -0.00265774 -0.00268403 -0.00273969 -0.00282472 -0.00293911 -0.00307379 -0.00321968 -0.00337677 -0.00354507 -0.00372457 -0.00391528 -0.0041172 -0.00433032 -0.00454795 -0.0047634 -0.00497667 -0.00518775 -0.00539666 -0.00560338 -0.00580792 -0.00601029 -0.0061999 -0.00636622 -0.00650923 -0.00662893 -0.00672533 -0.00679843 -0.00684822 -0.00687471 -0.00687754 -0.00685639 -0.00681124 -0.00674209 -0.00664895 -0.00653181 -0.00639068 -0.00622555 -0.00604454 -0.00585577 -0.00565924 -0.00545495 -0.00524289 -0.00502307 -0.00479549 -0.00456015 -0.00431754 -0.00406817 -0.00381203 -0.00354912 -0.00327945 -0.00300302 -0.00271982 -0.00242986 -0.00214503 -0.00187723 -0.00162648 -0.00139276 -0.00117607 -0.000976424 -0.000793811 -0.000628234 -0.000480992 -0.000353382 -0.000245404 -0.000157059 -8.83455e-05 -3.92647e-05 -9.81616e-06 0 0 -9.4125e-07 -3.765e-06 -8.47125e-06 -1.506e-05 -2.35312e-05 -3.3885e-05 -4.61212e-05 -6.024e-05 -8.52754e-05 -0.000130262 -0.000195199 -0.000280087 -0.000384926 -0.000509716 -0.000654456 -0.000819148 -0.00100628 -0.00121836 -0.00145538 -0.00171733 -0.00200423 -0.00231607 -0.00265284 -0.00301456 -0.0033864 -0.00375357 -0.00411606 -0.00447387 -0.004827 -0.00517546 -0.00551923 -0.00585833 -0.00617196 -0.00643932 -0.00666042 -0.00683526 -0.00696383 -0.00704614 -0.00708219 -0.00707197 -0.00702126 -0.00693585 -0.00681573 -0.0066609 -0.00647137 -0.00624712 -0.00598817 -0.00569451 -0.00539393 -0.00511421 -0.00485536 -0.00461737 -0.00440025 -0.00420399 -0.0040286 -0.00387407 -0.00374996 -0.00366583 -0.00362167 -0.00361748 -0.00365326 -0.00372902 -0.00384475 -0.00400046 -0.00418377 -0.00438234 -0.00459616 -0.00482523 -0.00506956 -0.00532913 -0.00560396 -0.00589404 -0.00619026 -0.00648351 -0.00677379 -0.00706111 -0.00734545 -0.00762683 -0.00790523 -0.00818067 -0.00843876 -0.00866513 -0.00885978 -0.00902271 -0.00915392 -0.00925342 -0.00932119 -0.00935724 -0.0093611 -0.00933231 -0.00927085 -0.00917673 -0.00904995 -0.00889052 -0.00869842 -0.00847366 -0.0082273 -0.00797036 -0.00770286 -0.00742479 -0.00713616 -0.00683696 -0.0065272 -0.00620687 -0.00587665 -0.00553722 -0.00518859 -0.00483075 -0.0044637 -0.00408744 -0.00370198 -0.0033073 -0.00291962 -0.00255512 -0.00221382 -0.0018957 -0.00160077 -0.00132902 -0.00108047 -0.000855097 -0.000654684 -0.000480992 -0.000334022 -0.000213774 -0.000120248 -5.34436e-05 -1.33609e-05 0 0 -1.22939e-06 -4.91755e-06 -1.10645e-05 -1.96702e-05 -3.07347e-05 -4.42579e-05 -6.024e-05 -7.86808e-05 -0.00011138 -0.000170138 -0.000254954 -0.000365828 -0.00050276 -0.000665751 -0.0008548 -0.00106991 -0.00131433 -0.00159133 -0.0019009 -0.00224305 -0.00261777 -0.00302507 -0.00346494 -0.00393738 -0.00442306 -0.00490262 -0.00537608 -0.00584342 -0.00630466 -0.00675978 -0.0072088 -0.0076517 -0.00806134 -0.00841054 -0.00869933 -0.00892769 -0.00909562 -0.00920312 -0.0092502 -0.00923685 -0.00917063 -0.00905907 -0.00890218 -0.00869995 -0.0084524 -0.0081595 -0.00782128 -0.00743773 -0.00704513 -0.00667978 -0.00634169 -0.00603085 -0.00574726 -0.00549093 -0.00526184 -0.00506001 -0.00489791 -0.00478802 -0.00473034 -0.00472487 -0.00477161 -0.00487056 -0.00502172 -0.00522508 -0.00546452 -0.00572387 -0.00600315 -0.00630235 -0.00662146 -0.0069605 -0.00731946 -0.00769834 -0.00808524 -0.00846826 -0.00884741 -0.00922267 -0.00959406 -0.00996157 -0.0103252 -0.010685 -0.0110221 -0.0113177 -0.011572 -0.0117848 -0.0119561 -0.0120861 -0.0121746 -0.0122217 -0.0122267 -0.0121891 -0.0121089 -0.0119859 -0.0118203 -0.0116121 -0.0113612 -0.0110676 -0.0107459 -0.0104103 -0.0100609 -0.00969769 -0.0093207 -0.00892991 -0.00852532 -0.00810693 -0.00767562 -0.00723229 -0.00677694 -0.00630955 -0.00583014 -0.0053387 -0.00483524 -0.00431974 -0.00381338 -0.00333731 -0.00289152 -0.00247601 -0.0020908 -0.00173586 -0.00141122 -0.00111686 -0.000855097 -0.000628234 -0.000436274 -0.000279215 -0.000157059 -6.98038e-05 -1.7451e-05 0 0 -1.78709e-06 -7.14837e-06 -1.60838e-05 -2.85935e-05 -4.46773e-05 -6.43353e-05 -8.75675e-05 -0.000114374 -0.000159244 -0.000236667 -0.000346642 -0.000489171 -0.000664252 -0.000871886 -0.00111207 -0.00138481 -0.00169381 -0.00204276 -0.00243167 -0.00286053 -0.00332935 -0.00383813 -0.00438686 -0.00497555 -0.00558029 -0.00617715 -0.00676615 -0.00734728 -0.00792055 -0.00848594 -0.00904347 -0.00959313 -0.0101013 -0.0105343 -0.0108922 -0.011175 -0.0113826 -0.0115151 -0.0115724 -0.0115546 -0.0114714 -0.0113324 -0.0111378 -0.0108874 -0.0105813 -0.0102194 -0.00980183 -0.00932853 -0.00884431 -0.00839395 -0.00797746 -0.00759485 -0.00724611 -0.00693123 -0.00665023 -0.0064031 -0.00620289 -0.00606265 -0.00598239 -0.0059621 -0.00600178 -0.00610144 -0.00626107 -0.00648067 -0.00673763 -0.00700933 -0.00729576 -0.00759692 -0.00791283 -0.00824346 -0.00858884 -0.00894895 -0.00931324 -0.00967118 -0.0100228 -0.010368 -0.0107068 -0.0110393 -0.0113654 -0.0116852 -0.0119841 -0.0122477 -0.0124759 -0.0126688 -0.0128263 -0.0129484 -0.0130352 -0.0130867 -0.0131018 -0.0130796 -0.0130201 -0.0129232 -0.0127891 -0.0126176 -0.0124087 -0.0121626 -0.0118882 -0.0115948 -0.0112822 -0.0109506 -0.0105999 -0.0102301 -0.00984123 -0.00943326 -0.00900317 -0.00854792 -0.00806753 -0.00756198 -0.00703128 -0.00647543 -0.00589442 -0.00528826 -0.00468621 -0.00411755 -0.00358228 -0.00308038 -0.00261188 -0.00217675 -0.00177501 -0.00140666 -0.00107697 -0.000791244 -0.000549475 -0.000351664 -0.000197811 -8.7916e-05 -2.1979e-05 0 0 -2.84551e-06 -1.1382e-05 -2.56096e-05 -4.55282e-05 -7.11378e-05 -0.000102438 -0.00013943 -0.000182113 -0.000247145 -0.000351184 -0.00049423 -0.000676284 -0.000897346 -0.00115741 -0.00145649 -0.00179457 -0.00217507 -0.00260138 -0.00307351 -0.00359145 -0.00415521 -0.00476478 -0.00542017 -0.00612137 -0.00684045 -0.00754943 -0.00824833 -0.00893715 -0.00961589 -0.0102845 -0.0109431 -0.0115916 -0.0121905 -0.0127004 -0.0131212 -0.0134529 -0.0136956 -0.0138493 -0.0139139 -0.0138894 -0.0137884 -0.013623 -0.0133935 -0.0130997 -0.0127416 -0.0123194 -0.0118328 -0.0112821 -0.0107193 -0.0101966 -0.00971393 -0.00927142 -0.008869 -0.00850668 -0.00818446 -0.00790235 -0.00766886 -0.00749253 -0.00737336 -0.00731135 -0.0073065 -0.00735881 -0.00746827 -0.0076349 -0.00782471 -0.00800375 -0.008172 -0.00832948 -0.00847618 -0.0086121 -0.00873724 -0.00885161 -0.00895464 -0.00904581 -0.0091251 -0.00919252 -0.00924807 -0.00929175 -0.00932356 -0.00934349 -0.00935929 -0.00937869 -0.00940171 -0.00942832 -0.00945854 -0.00949237 -0.0095298 -0.00957084 -0.00961368 -0.00965652 -0.00969936 -0.0097422 -0.00978504 -0.00982788 -0.00987072 -0.00991356 -0.00994237 -0.00994314 -0.00991586 -0.00986054 -0.00977716 -0.00966575 -0.00952628 -0.00935877 -0.00914798 -0.00887867 -0.00855084 -0.00816449 -0.00771963 -0.00721625 -0.00665434 -0.00603393 -0.00539802 -0.00478964 -0.0042088 -0.00365549 -0.00312972 -0.00263148 -0.00216078 -0.00171761 -0.00131504 -0.000966155 -0.000670941 -0.000429402 -0.000241539 -0.000107351 -2.68376e-05 0 0 -4.40465e-06 -1.76186e-05 -3.96418e-05 -7.04743e-05 -0.000110116 -0.000158567 -0.000215828 -0.000281897 -0.000375083 -0.00051369 -0.000697719 -0.000927169 -0.00120204 -0.00152234 -0.00188805 -0.00229919 -0.00275812 -0.00326719 -0.00382642 -0.0044358 -0.00509534 -0.00580502 -0.00656486 -0.00737485 -0.00820354 -0.00901946 -0.00982263 -0.010613 -0.0113907 -0.0121556 -0.0129077 -0.013647 -0.0143289 -0.0149087 -0.0153862 -0.0157616 -0.0160348 -0.0162058 -0.0162747 -0.0162414 -0.0161215 -0.0159308 -0.0156693 -0.0153368 -0.0149335 -0.0144593 -0.0139143 -0.0132984 -0.01267 -0.0120876 -0.0115511 -0.0110606 -0.0106159 -0.0102173 -0.00986455 -0.00955776 -0.00929583 -0.00907767 -0.00890327 -0.00877263 -0.00868577 -0.00864266 -0.00864333 -0.00868776 -0.00872576 -0.00870714 -0.00863189 -0.00850002 -0.00831153 -0.00806641 -0.00776467 -0.00740631 -0.00700943 -0.00659214 -0.00615444 -0.00569633 -0.00521782 -0.00471889 -0.00419955 -0.0036598 -0.00314757 -0.00271077 -0.0023494 -0.00206348 -0.00185299 -0.00171793 -0.00165831 -0.00167413 -0.00176232 -0.00191983 -0.00214666 -0.00244281 -0.00280827 -0.00324306 -0.00374716 -0.00432058 -0.00490832 -0.00545538 -0.00596176 -0.00642746 -0.00685249 -0.00723683 -0.00758049 -0.00788348 -0.00811006 -0.00822453 -0.00822687 -0.00811709 -0.00789519 -0.00756116 -0.00711502 -0.00655675 -0.00594879 -0.00535357 -0.00477108 -0.00420134 -0.00364433 -0.00310005 -0.00256852 -0.00204972 -0.00156932 -0.00115297 -0.000800671 -0.00051243 -0.000288242 -0.000128107 -3.20269e-05 0 0 -6.4645e-06 -2.5858e-05 -5.81805e-05 -0.000103432 -0.000161612 -0.000232722 -0.00031676 -0.000413728 -0.000543058 -0.000724184 -0.000957107 -0.00124183 -0.00157834 -0.00196665 -0.00240676 -0.00289866 -0.00344295 -0.0040402 -0.00469042 -0.0053936 -0.00614974 -0.00695886 -0.00782093 -0.00873598 -0.00966956 -0.0105872 -0.011489 -0.0123749 -0.0132449 -0.014099 -0.0149372 -0.0157595 -0.0165166 -0.0171592 -0.0176873 -0.018101 -0.0184001 -0.0185847 -0.0186548 -0.0186104 -0.0184709 -0.0182559 -0.0179652 -0.0175989 -0.0171569 -0.0166394 -0.0160462 -0.0153775 -0.0146966 -0.0140671 -0.013489 -0.0129623 -0.0124869 -0.012063 -0.0116905 -0.0113693 -0.0110838 -0.0108181 -0.0105721 -0.0103459 -0.0101396 -0.009953 -0.00978623 -0.00963925 -0.00944077 -0.0091195 -0.00867542 -0.00810855 -0.00741887 -0.0066064 -0.00567113 -0.00461307 -0.00347761 -0.00231019 -0.00111078 0.000120595 0.00138395 0.00267928 0.00400658 0.00536586 0.00665105 0.0077561 0.00868101 0.00942578 0.00999041 0.0103749 0.0105792 0.0106034 0.0104523 0.0101304 0.00963801 0.00897493 0.00814123 0.0071369 0.00596194 0.00461635 0.00321394 0.00186851 0.000580068 -0.00065139 -0.00182586 -0.00294335 -0.00400386 -0.00500737 -0.00588942 -0.0065855 -0.00709561 -0.00741977 -0.00755795 -0.00751018 -0.00727643 -0.00685673 -0.00633854 -0.00580934 -0.00526913 -0.00471792 -0.00415569 -0.00358247 -0.00299823 -0.00240299 -0.00183979 -0.00135168 -0.000938667 -0.000600747 -0.00033792 -0.000150187 -3.75467e-05 0 0 -9.02506e-06 -3.61002e-05 -8.12256e-05 -0.000144401 -0.000225627 -0.000324902 -0.000442228 -0.000577604 -0.00075107 -0.000982667 -0.0012724 -0.00162025 -0.00202624 -0.00249036 -0.00301261 -0.00359299 -0.00422957 -0.0049204 -0.00566549 -0.00646483 -0.00731843 -0.00822628 -0.00918839 -0.0102048 -0.0112385 -0.0122528 -0.0132475 -0.0142228 -0.0151786 -0.0161149 -0.0170317 -0.017929 -0.0187536 -0.0194521 -0.0200246 -0.020471 -0.0207914 -0.0209858 -0.0210542 -0.0209965 -0.0208365 -0.0205981 -0.0202812 -0.0198858 -0.0194119 -0.0188595 -0.0182286 -0.0175193 -0.0167989 -0.016135 -0.0155275 -0.0149765 -0.014482 -0.0140439 -0.0136623 -0.0133371 -0.0130328 -0.0127137 -0.0123799 -0.0120313 -0.0116679 -0.0112898 -0.010897 -0.0104894 -0.00996975 -0.00924082 -0.00830259 -0.00715505 -0.00579821 -0.00423207 -0.00245662 -0.000471872 0.00164081 0.00380006 0.00600588 0.00825827 0.0105572 0.0129027 0.0152948 0.0177335 0.0200366 0.0220219 0.0236895 0.0250395 0.0260716 0.0267861 0.0271828 0.0272619 0.0270301 0.0264943 0.0256546 0.024511 0.0230635 0.021312 0.0192566 0.0168972 0.0144244 0.0120285 0.00970962 0.00746768 0.0053027 0.00321468 0.00120363 -0.00073046 -0.00248605 -0.00396159 -0.00515708 -0.00607253 -0.00670793 -0.00706329 -0.0071386 -0.00693386 -0.00656725 -0.00615695 -0.00570294 -0.00520523 -0.00466383 -0.00407872 -0.00344992 -0.00277741 -0.00212646 -0.0015623 -0.00108493 -0.000694354 -0.000390574 -0.000173588 -4.33971e-05 0 0 -1.20863e-05 -4.83454e-05 -0.000108777 -0.000193381 -0.000302159 -0.000435108 -0.000592231 -0.000773526 -0.00099912 -0.00128914 -0.00164358 -0.00206245 -0.00254575 -0.00309347 -0.00370561 -0.00438218 -0.00511797 -0.00590779 -0.00675163 -0.0076495 -0.00860138 -0.0096073 -0.0106672 -0.0117812 -0.0129104 -0.014016 -0.0150982 -0.0161567 -0.0171917 -0.0182032 -0.0191911 -0.0201555 -0.0210397 -0.0217872 -0.0223979 -0.0228718 -0.0232089 -0.0234093 -0.0234728 -0.0233996 -0.0232183 -0.0229575 -0.0226173 -0.0221975 -0.0216983 -0.0211196 -0.0204615 -0.0197238 -0.018977 -0.0182913 -0.0176668 -0.0171034 -0.0166011 -0.0161599 -0.0157799 -0.015461 -0.0151427 -0.0147646 -0.0143265 -0.0138286 -0.0132708 -0.0126531 -0.0119756 -0.0112382 -0.0103127 -0.00907112 -0.0075134 -0.00563954 -0.00344954 -0.000943405 0.00187887 0.00501728 0.00834585 0.0117386 0.0151955 0.0187167 0.022302 0.0259515 0.0296652 0.0334431 0.037009 0.0400867 0.0426762 0.0447775 0.0463907 0.0475157 0.0481525 0.0483011 0.0479711 0.0471718 0.0459032 0.0441655 0.0419585 0.0392822 0.0361368 0.0325221 0.0287231 0.0250247 0.0214269 0.0179297 0.0145332 0.0112373 0.00804196 0.00494726 0.00210006 -0.000352785 -0.00241126 -0.00407537 -0.00534511 -0.00622049 -0.0067015 -0.00678815 -0.00663494 -0.0063964 -0.00607251 -0.00566329 -0.00516872 -0.00458882 -0.00392358 -0.003173 -0.00242933 -0.00178481 -0.00123945 -0.00079325 -0.000446203 -0.000198312 -4.95781e-05 0 0 -1.56483e-05 -6.25934e-05 -0.000140835 -0.000250373 -0.000391208 -0.00056334 -0.000766769 -0.00100149 -0.00128721 -0.0016436 -0.00207067 -0.00256842 -0.00313685 -0.00377596 -0.00448575 -0.00526622 -0.00610816 -0.00700238 -0.00794885 -0.0089476 -0.00999862 -0.0111019 -0.0122575 -0.0134653 -0.0146852 -0.0158771 -0.0170409 -0.0181766 -0.0192843 -0.020364 -0.0214155 -0.022439 -0.0233752 -0.0241646 -0.0248073 -0.0253032 -0.0256525 -0.025855 -0.0259108 -0.0258199 -0.0256163 -0.0253342 -0.0249735 -0.0245342 -0.0240163 -0.0234198 -0.0227448 -0.0219911 -0.0212309 -0.0205361 -0.0199067 -0.0193428 -0.0188442 -0.0184111 -0.0180434 -0.0177411 -0.0174137 -0.0169707 -0.0164121 -0.015738 -0.0149483 -0.0140429 -0.013022 -0.0118856 -0.0104696 -0.00861038 -0.00630784 -0.003562 -0.000372863 0.00325958 0.00733533 0.0118544 0.0166375 0.0215054 0.0264582 0.0314958 0.0366183 0.0418256 0.0471177 0.0524946 0.0575683 0.0619504 0.065641 0.06864 0.0709476 0.0725637 0.0734882 0.0737213 0.0732753 0.0721628 0.0703838 0.0679383 0.0648262 0.0610476 0.0566025 0.0514909 0.0461099 0.040857 0.0357319 0.0307348 0.0258657 0.0211244 0.0165111 0.0120258 0.00786889 0.0042409 0.00114184 -0.0014283 -0.00346951 -0.0049818 -0.00596516 -0.00641959 -0.0065416 -0.00652769 -0.00637784 -0.00609208 -0.00567038 -0.00511276 -0.00441921 -0.00358974 -0.0027484 -0.00201923 -0.00140224 -0.000897436 -0.000504807 -0.000224359 -5.60897e-05 0 0 -1.9711e-05 -7.88442e-05 -0.000177399 -0.000315377 -0.000492776 -0.000709598 -0.000965841 -0.00126151 -0.00161533 -0.00204605 -0.00255366 -0.00313816 -0.00379956 -0.00453785 -0.00535304 -0.00624512 -0.00720014 -0.00820415 -0.00925715 -0.0103591 -0.0115101 -0.0127101 -0.0139591 -0.015257 -0.0165629 -0.0178358 -0.0190757 -0.0202825 -0.0214564 -0.0225971 -0.0237049 -0.0247796 -0.0257598 -0.0265842 -0.0272528 -0.0277654 -0.0281222 -0.0283231 -0.0283681 -0.0282572 -0.0280306 -0.0277281 -0.0273498 -0.0268957 -0.0263658 -0.02576 -0.0250785 -0.0243212 -0.0235606 -0.0228694 -0.0222474 -0.0216948 -0.0212114 -0.0207974 -0.0204527 -0.0201773 -0.0198456 -0.0193321 -0.0186367 -0.0177594 -0.0167003 -0.0154592 -0.0140363 -0.0124316 -0.0104405 -0.00785861 -0.00468593 -0.000922454 0.00343182 0.00837689 0.0139128 0.0200394 0.0265157 0.0331006 0.0397939 0.0465957 0.0535061 0.0605249 0.0676523 0.0748882 0.0817145 0.087613 0.0925838 0.096627 0.0997424 0.10193 0.10319 0.103522 0.102943 0.101467 0.0990963 0.0958294 0.0916667 0.0866081 0.0806538 0.0738036 0.066585 0.0595254 0.0526247 0.0458829 0.0393 0.0328761 0.0266112 0.0205051 0.0148204 0.00981947 0.00550222 0.00186869 -0.00108111 -0.00334719 -0.00492955 -0.00582819 -0.00628723 -0.00655082 -0.00661894 -0.0064916 -0.0061688 -0.00565054 -0.00493682 -0.00402764 -0.00308366 -0.00226555 -0.0015733 -0.00100691 -0.000566387 -0.000251728 -6.29319e-05 0 0 -2.41494e-05 -9.65976e-05 -0.000217345 -0.00038639 -0.000603735 -0.000869378 -0.00118332 -0.00154556 -0.00197116 -0.00247517 -0.00305759 -0.00371843 -0.00445768 -0.00527534 -0.00617142 -0.00714591 -0.00817686 -0.00924233 -0.0103423 -0.0114768 -0.0126458 -0.0138493 -0.0150874 -0.0163599 -0.0176295 -0.0188589 -0.0200479 -0.0211966 -0.022305 -0.023373 -0.0244008 -0.0253882 -0.0262818 -0.0270279 -0.0276265 -0.0280776 -0.0283812 -0.0285374 -0.0285461 -0.0284073 -0.0281677 -0.0278738 -0.0275257 -0.0271233 -0.0266667 -0.0261559 -0.0255908 -0.0249715 -0.0243597 -0.023817 -0.0233435 -0.0229391 -0.022604 -0.022338 -0.0221412 -0.0220135 -0.021784 -0.0212818 -0.0205067 -0.0194588 -0.0181381 -0.0165446 -0.0146783 -0.0125392 -0.00987959 -0.00645195 -0.00225623 0.00270757 0.00843946 0.0149394 0.0222075 0.0302436 0.0387238 0.0473242 0.0560447 0.0648854 0.0738461 0.082927 0.0921281 0.101449 0.110235 0.117829 0.124232 0.129443 0.133463 0.136291 0.137928 0.138374 0.137648 0.135771 0.132743 0.128563 0.123232 0.11675 0.109116 0.100331 0.0910593 0.0819644 0.0730466 0.0643059 0.0557424 0.0473561 0.0391469 0.0311148 0.0236031 0.016955 0.0111704 0.00624935 0.00219189 -0.001002 -0.00333234 -0.00479911 -0.00569958 -0.006331 -0.00669337 -0.0067867 -0.00661098 -0.00616621 -0.0054524 -0.00446954 -0.00342199 -0.00251411 -0.00174591 -0.00111738 -0.000628528 -0.000279346 -6.98365e-05 0 0 -2.88383e-05 -0.000115353 -0.000259545 -0.000461413 -0.000720958 -0.00103818 -0.00141308 -0.00184565 -0.00234236 -0.00290964 -0.00354752 -0.00425597 -0.00503501 -0.00588463 -0.00680484 -0.00779562 -0.00882128 -0.00984611 -0.0108701 -0.0118932 -0.0129155 -0.013937 -0.0149576 -0.0159774 -0.0169709 -0.0179127 -0.0188026 -0.0196408 -0.0204273 -0.021162 -0.0218449 -0.0224761 -0.023029 -0.0234772 -0.0238205 -0.0240591 -0.024193 -0.024222 -0.0241463 -0.0239658 -0.0237344 -0.0235061 -0.0232808 -0.0230585 -0.0228392 -0.022623 -0.0224098 -0.0221996 -0.0220216 -0.021905 -0.0218497 -0.0218558 -0.0219232 -0.0220519 -0.022242 -0.0224934 -0.0225743 -0.0222527 -0.0215286 -0.0204021 -0.0188731 -0.0169416 -0.0146076 -0.0118711 -0.00844114 -0.00402653 0.0013727 0.00775654 0.015125 0.0234781 0.0328158 0.0431381 0.054005 0.0649766 0.0760528 0.0872337 0.0985192 0.109909 0.121404 0.133003 0.143917 0.153353 0.161311 0.167793 0.172797 0.176324 0.178374 0.178947 0.178067 0.175761 0.172026 0.166865 0.160276 0.15226 0.142816 0.131945 0.120444 0.109108 0.0979392 0.086936 0.0760989 0.065428 0.0549231 0.0445843 0.0348652 0.0262194 0.0186468 0.0121474 0.00672132 0.00236846 -0.000911153 -0.00311752 -0.00460637 -0.00573343 -0.00649871 -0.00690219 -0.00694389 -0.0066238 -0.00594192 -0.00489825 -0.00375022 -0.00275527 -0.00191338 -0.00122456 -0.000688817 -0.000306141 -7.65352e-05 0 0 -3.37778e-05 -0.000135111 -0.000304 -0.000540444 -0.000844444 -0.001216 -0.00165511 -0.00216178 -0.00272892 -0.00334947 -0.00402343 -0.00475079 -0.00553155 -0.00636572 -0.00725329 -0.00819426 -0.00913341 -0.0100155 -0.0108405 -0.0116085 -0.0123193 -0.0129732 -0.0135699 -0.0141096 -0.0145871 -0.0149972 -0.0153399 -0.0156153 -0.0158233 -0.015964 -0.0160373 -0.0160432 -0.0160016 -0.0159322 -0.015835 -0.0157101 -0.0155574 -0.0153769 -0.0151686 -0.0149326 -0.0147307 -0.0146248 -0.014615 -0.0147011 -0.0148832 -0.0151613 -0.0155354 -0.0160055 -0.0165465 -0.0171334 -0.0177661 -0.0184446 -0.019169 -0.0199392 -0.0207552 -0.0216171 -0.0222165 -0.022245 -0.0217026 -0.0205893 -0.0189052 -0.0166502 -0.0138243 -0.0104275 -0.00612515 -0.000582355 0.00620084 0.0142244 0.0234885 0.0339929 0.0457377 0.0587229 0.0723593 0.0860578 0.0998182 0.113641 0.127525 0.141472 0.15548 0.169551 0.18276 0.194184 0.203823 0.211676 0.217745 0.222029 0.224527 0.225241 0.2242 0.221435 0.216946 0.210734 0.202797 0.193137 0.181753 0.168646 0.154739 0.140958 0.127302 0.113773 0.10037 0.0870918 0.0739398 0.0609137 0.0486068 0.0376127 0.0279315 0.0195629 0.0125072 0.0067642 0.002334 -0.000783424 -0.00300762 -0.00475813 -0.00603496 -0.00683809 -0.00716755 -0.00702331 -0.0064054 -0.00531379 -0.00406837 -0.00298901 -0.0020757 -0.00132845 -0.000747252 -0.000332112 -8.3028e-05 0 0 -3.89678e-05 -0.000155871 -0.00035071 -0.000623485 -0.000974195 -0.00140284 -0.00190942 -0.00249394 -0.00313086 -0.00379466 -0.00448533 -0.00520288 -0.00594731 -0.00671861 -0.00751678 -0.00834183 -0.00911324 -0.00975047 -0.0102535 -0.0106225 -0.0108572 -0.0109578 -0.0109242 -0.0107564 -0.010478 -0.0101125 -0.00965981 -0.00912001 -0.00849309 -0.00777903 -0.00697785 -0.00608953 -0.00519942 -0.00439286 -0.00366983 -0.00303035 -0.00247442 -0.00200202 -0.00161317 -0.00130787 -0.00115667 -0.00123015 -0.00152829 -0.00205112 -0.00279862 -0.00377079 -0.00496763 -0.00638915 -0.00793433 -0.00950215 -0.0110926 -0.0127057 -0.0143415 -0.0159998 -0.0176809 -0.0193845 -0.0207105 -0.0212585 -0.0210285 -0.0200205 -0.0182344 -0.0156704 -0.0123284 -0.00820837 -0.00293161 0.00388058 0.0122282 0.0221113 0.0335298 0.0464838 0.0609732 0.076998 0.0937867 0.110568 0.127341 0.144106 0.160864 0.177614 0.194357 0.211091 0.226764 0.240323 0.251766 0.261094 0.268307 0.273405 0.276388 0.277255 0.276045 0.272794 0.267503 0.26017 0.250797 0.239383 0.225928 0.210432 0.193944 0.177512 0.161136 0.144817 0.128554 0.112347 0.096197 0.0801028 0.0648279 0.0511351 0.0390244 0.0284958 0.0195495 0.0121852 0.00640313