<?xml version="1.0"?> 
<VTKFile type="StructuredGrid" version="0.1"> 
<StructuredGrid WholeExtent="0 128 0 128 0 0"> 
<Piece Extent="0 128 0 128 0 0"> 
<PointData>
<DataArray type="Float32" Name="u" format="ascii" NumberOfComponents="1"> 
0 0 0 0 0 0 0 0 0 0 0 0 0 0 0 0 0 0 0 0 0 0 0 0 0 0 0 0 0 0 0 0 0 0 0 0 0 0 0 0 0 0 0 0 0 0 0 0 0 0 0 0 0 0 0 0 0 0 0 0 0 0 0 0 0 0 0 0 0 0 0 0 0 0 0 0 0 0 0 0 0 0 0 0 0 0 0 0 0 0 0 0 0 0 0 0 0 0 0 0 0 0 0 0 0 0 0 0 0 0 0 0 0 0 0 0 0 0 0 0 0 0 0 0 0 0 0 0 0 0 -2.8133e-09 -1.12532e-08 -2.53197e-08 -4.50128e-08 -7.03326e-08 -1.01279e-07 -1.37852e-07 -1.80051e-07 -4.34866e-07 -1.10929e-06 -2.20331e-06 -3.71694e-06 -5.65017e-06 -8.00301e-06 -1.07754e-05 -1.39675e-05 -1.76302e-05 -2.18145e-05 -2.65204e-05 -3.17479e-05 -3.74971e-05 -4.3768e-05 -5.05604e-05 -5.78745e-05 -6.54024e-05 -7.28363e-05 -8.01761e-05 -8.74219e-05 -9.45736e-05 -0.000101631 -0.000108595 -0.000115465 -0.000121814 -0.000127218 -0.000131675 -0.000135186 -0.00013775 -0.000139369 -0.000140041 -0.000139767 -0.000138667 -0.000136862 -0.000134352 -0.000131137 -0.000127216 -0.00012259 -0.000117259 -0.000111223 -0.000105074 -9.94058e-05 -9.42183e-05 -8.95114e-05 -8.52851e-05 -8.15394e-05 -7.82742e-05 -7.54897e-05 -7.33807e-05 -7.21419e-05 -7.17734e-05 -7.22752e-05 -7.36472e-05 -7.58895e-05 -7.90021e-05 -8.2985e-05 -8.76636e-05 -9.28632e-05 -9.85839e-05 -0.000104826 -0.000111588 -0.000118872 -0.000126677 -0.000135003 -0.000143634 -0.000152355 -0.000161166 -0.000170067 -0.000179057 -0.000188136 -0.000197306 -0.000206565 -0.000215303 -0.000222909 -0.000229382 -0.000234724 -0.000238934 -0.000242012 -0.000243958 -0.000244771 -0.000244467 -0.000243057 -0.000240542 -0.000236922 -0.000232196 -0.000226366 -0.000219431 -0.00021139 -0.000202786 -0.00019416 -0.000185511 -0.00017684 -0.000168147 -0.000159432 -0.000150695 -0.000141936 -0.000133168 -0.000124406 -0.000115651 -0.000106901 -9.81567e-05 -8.94186e-05 -8.06864e-05 -7.19601e-05 -6.34923e-05 -5.55358e-05 -4.80905e-05 -4.11565e-05 -3.47338e-05 -2.88224e-05 -2.34222e-05 -1.85332e-05 -1.41895e-05 -1.04249e-05 -7.23954e-06 -4.63331e-06 -2.60624e-06 -1.15833e-06 -2.89582e-07 0 0 -1.12532e-08 -4.50128e-08 -1.01279e-07 -1.80051e-07 -2.8133e-07 -4.05115e-07 -5.51407e-07 -7.20205e-07 -1.73947e-06 -4.43714e-06 -8.81324e-06 -1.48678e-05 -2.26007e-05 -3.2012e-05 -4.31018e-05 -5.587e-05 -7.05206e-05 -8.72578e-05 -0.000106082 -0.000126992 -0.000149989 -0.000175072 -0.000202242 -0.000231498 -0.00026161 -0.000291345 -0.000320704 -0.000349688 -0.000378295 -0.000406525 -0.00043438 -0.000461859 -0.000487257 -0.00050887 -0.000526699 -0.000540742 -0.000551001 -0.000557475 -0.000560164 -0.000559068 -0.000554669 -0.00054745 -0.000537409 -0.000524547 -0.000508864 -0.000490361 -0.000469036 -0.000444891 -0.000420296 -0.000397623 -0.000376873 -0.000358045 -0.00034114 -0.000326157 -0.000313097 -0.000301959 -0.000293523 -0.000288568 -0.000287094 -0.000289101 -0.000294589 -0.000303558 -0.000316009 -0.00033194 -0.000350654 -0.000371453 -0.000394335 -0.000419302 -0.000446354 -0.000475489 -0.000506709 -0.000540013 -0.000574538 -0.000609422 -0.000644665 -0.000680266 -0.000716226 -0.000752545 -0.000789223 -0.000826259 -0.000861211 -0.000891634 -0.00091753 -0.000938897 -0.000955736 -0.000968047 -0.00097583 -0.000979086 -0.000977866 -0.000972227 -0.000962167 -0.000947686 -0.000928785 -0.000905464 -0.000877722 -0.00084556 -0.000811144 -0.000776638 -0.000742044 -0.000707361 -0.00067259 -0.000637729 -0.00060278 -0.000567743 -0.000532672 -0.000497626 -0.000462603 -0.000427603 -0.000392627 -0.000357675 -0.000322746 -0.00028784 -0.000253969 -0.000222143 -0.000192362 -0.000164626 -0.000138935 -0.000115289 -9.36887e-05 -7.41329e-05 -5.6758e-05 -4.16998e-05 -2.89582e-05 -1.85332e-05 -1.04249e-05 -4.63331e-06 -1.15833e-06 0 0 -2.53197e-08 -1.01279e-07 -2.27877e-07 -4.05115e-07 -6.32993e-07 -9.1151e-07 -1.24067e-06 -1.62046e-06 -3.9138e-06 -9.98357e-06 -1.98298e-05 -3.34524e-05 -5.08515e-05 -7.20271e-05 -9.6979e-05 -0.000125707 -0.000158671 -0.00019633 -0.000238683 -0.000285732 -0.000337474 -0.000393912 -0.000455044 -0.000520871 -0.000588622 -0.000655526 -0.000721585 -0.000786797 -0.000851163 -0.000914682 -0.000977355 -0.00103918 -0.00109633 -0.00114496 -0.00118507 -0.00121667 -0.00123975 -0.00125432 -0.00126037 -0.0012579 -0.00124801 -0.00123176 -0.00120917 -0.00118023 -0.00114495 -0.00110331 -0.00105533 -0.001001 -0.000945665 -0.000894652 -0.000847965 -0.000805602 -0.000767566 -0.000733854 -0.000704468 -0.000679408 -0.000660426 -0.000649277 -0.000645961 -0.000650477 -0.000662825 -0.000683006 -0.000711019 -0.000746865 -0.000788972 -0.000835769 -0.000887255 -0.00094343 -0.0010043 -0.00106985 -0.00114009 -0.00121503 -0.00129271 -0.0013712 -0.0014505 -0.0015306 -0.00161151 -0.00169323 -0.00177575 -0.00185908 -0.00193772 -0.00200618 -0.00206444 -0.00211252 -0.00215041 -0.00217811 -0.00219562 -0.00220294 -0.0022002 -0.00218751 -0.00216488 -0.00213229 -0.00208977 -0.00203729 -0.00197488 -0.00190251 -0.00182507 -0.00174744 -0.0016696 -0.00159156 -0.00151333 -0.00143489 -0.00135626 -0.00127742 -0.00119851 -0.00111966 -0.00104086 -0.000962107 -0.000883411 -0.000804768 -0.000726178 -0.00064764 -0.000571431 -0.000499822 -0.000432815 -0.000370409 -0.000312604 -0.000259401 -0.000210799 -0.000166799 -0.000127706 -9.38245e-05 -6.51559e-05 -4.16998e-05 -2.34561e-05 -1.04249e-05 -2.60624e-06 0 0 -4.50128e-08 -1.80051e-07 -4.05115e-07 -7.20205e-07 -1.12532e-06 -1.62046e-06 -2.20563e-06 -2.88082e-06 -6.95786e-06 -1.77486e-05 -3.5253e-05 -5.9471e-05 -9.04027e-05 -0.000128048 -0.000172407 -0.00022348 -0.000282083 -0.000349031 -0.000424326 -0.000507967 -0.000599954 -0.000700288 -0.000808967 -0.000925992 -0.00104644 -0.00116538 -0.00128282 -0.00139875 -0.00151318 -0.0016261 -0.00173752 -0.00184744 -0.00194903 -0.00203548 -0.00210679 -0.00216297 -0.002204 -0.0022299 -0.00224066 -0.00223627 -0.00221868 -0.0021898 -0.00214964 -0.00209819 -0.00203546 -0.00196144 -0.00187614 -0.00177956 -0.00168118 -0.00159049 -0.00150749 -0.00143218 -0.00136456 -0.00130463 -0.00125239 -0.00120784 -0.00117409 -0.00115427 -0.00114837 -0.0011564 -0.00117836 -0.00121423 -0.00126403 -0.00132776 -0.00140262 -0.00148581 -0.00157734 -0.00167721 -0.00178541 -0.00190196 -0.00202683 -0.00216005 -0.00229815 -0.00243769 -0.00257866 -0.00272106 -0.00286491 -0.00301018 -0.00315689 -0.00330504 -0.00344484 -0.00356654 -0.00367012 -0.00375559 -0.00382294 -0.00387219 -0.00390332 -0.00391634 -0.00391147 -0.00388891 -0.00384867 -0.00379075 -0.00371514 -0.00362186 -0.00351089 -0.00338224 -0.00324457 -0.00310655 -0.00296818 -0.00282944 -0.00269036 -0.00255092 -0.00241112 -0.00227097 -0.00213069 -0.0019905 -0.00185041 -0.00171041 -0.00157051 -0.0014307 -0.00129098 -0.00115136 -0.00101588 -0.000888572 -0.000769449 -0.000658505 -0.000555741 -0.000461158 -0.000374755 -0.000296532 -0.000227032 -0.000166799 -0.000115833 -7.41329e-05 -4.16998e-05 -1.85332e-05 -4.63331e-06 0 0 -7.03326e-08 -2.8133e-07 -6.32993e-07 -1.12532e-06 -1.75831e-06 -2.53197e-06 -3.44629e-06 -4.50128e-06 -1.08717e-05 -2.77321e-05 -5.50827e-05 -9.29235e-05 -0.000141254 -0.000200075 -0.000269386 -0.000349187 -0.000440754 -0.000545361 -0.00066301 -0.000793699 -0.000937429 -0.0010942 -0.00126401 -0.00144686 -0.00163506 -0.00182091 -0.0020044 -0.00218555 -0.00236434 -0.00254078 -0.00271488 -0.00288662 -0.00304536 -0.00318044 -0.00329187 -0.00337964 -0.00344376 -0.00348422 -0.00350102 -0.00349417 -0.00346668 -0.00342156 -0.00335881 -0.00327842 -0.0031804 -0.00306476 -0.00293148 -0.00278057 -0.00262685 -0.00248515 -0.00235546 -0.00223778 -0.00213213 -0.00203848 -0.00195686 -0.00188724 -0.00183452 -0.00180355 -0.00179433 -0.00180688 -0.00184118 -0.00189724 -0.00197505 -0.00207463 -0.00219159 -0.00232158 -0.0024646 -0.00262064 -0.00278971 -0.00297181 -0.00316693 -0.00337508 -0.00359086 -0.00380889 -0.00402915 -0.00425166 -0.00447641 -0.00470341 -0.00493264 -0.00516412 -0.00538257 -0.00557271 -0.00573456 -0.00586811 -0.00597335 -0.0060503 -0.00609894 -0.00611928 -0.00611166 -0.00607642 -0.00601354 -0.00592304 -0.00580491 -0.00565915 -0.00548576 -0.00528475 -0.00506965 -0.00485399 -0.00463777 -0.00442101 -0.00420368 -0.00398581 -0.00376738 -0.00354839 -0.0033292 -0.00311016 -0.00289127 -0.00267252 -0.00245392 -0.00223547 -0.00201716 -0.001799 -0.00158731 -0.00138839 -0.00120226 -0.00102891 -0.000868346 -0.000720559 -0.000585554 -0.000463331 -0.000354738 -0.000260624 -0.000180989 -0.000115833 -6.51559e-05 -2.89582e-05 -7.23954e-06 0 0 -1.01279e-07 -4.05115e-07 -9.1151e-07 -1.62046e-06 -2.53197e-06 -3.64604e-06 -4.96266e-06 -6.48185e-06 -1.56552e-05 -3.99343e-05 -7.93192e-05 -0.00013381 -0.000203406 -0.000288108 -0.000387916 -0.00050283 -0.000634686 -0.00078532 -0.000954734 -0.00114293 -0.0013499 -0.00157565 -0.00182018 -0.00208348 -0.00235449 -0.00262211 -0.00288634 -0.00314719 -0.00340465 -0.00365873 -0.00390942 -0.00415673 -0.00438531 -0.00457983 -0.00474029 -0.00486668 -0.00495901 -0.00501727 -0.00504147 -0.00503161 -0.00499202 -0.00492705 -0.00483668 -0.00472092 -0.00457978 -0.00441325 -0.00422133 -0.00400402 -0.00378266 -0.00357861 -0.00339186 -0.00322241 -0.00307026 -0.00293542 -0.00281787 -0.00271763 -0.0026417 -0.00259711 -0.00258384 -0.00260191 -0.0026513 -0.00273202 -0.00284408 -0.00298746 -0.00315589 -0.00334307 -0.00354902 -0.00377372 -0.00401718 -0.0042794 -0.00456038 -0.00486011 -0.00517084 -0.0054848 -0.00580198 -0.0061224 -0.00644604 -0.00677291 -0.007103 -0.00743633 -0.0077509 -0.00802471 -0.00825777 -0.00845007 -0.00860163 -0.00871243 -0.00878247 -0.00881177 -0.0088008 -0.00875004 -0.0086595 -0.00852918 -0.00835907 -0.00814918 -0.0078995 -0.00761004 -0.00730029 -0.00698974 -0.0066784 -0.00636625 -0.00605331 -0.00573956 -0.00542502 -0.00510968 -0.00479405 -0.00447863 -0.00416342 -0.00384843 -0.00353364 -0.00321907 -0.00290471 -0.00259056 -0.00228572 -0.00199929 -0.00173126 -0.00148164 -0.00125042 -0.00103761 -0.000843198 -0.000667196 -0.000510822 -0.000375298 -0.000260624 -0.000166799 -9.38245e-05 -4.16998e-05 -1.04249e-05 0 0 -1.37852e-07 -5.51407e-07 -1.24067e-06 -2.20563e-06 -3.44629e-06 -4.96266e-06 -6.75474e-06 -8.82252e-06 -2.13085e-05 -5.4355e-05 -0.000107962 -0.00018213 -0.000276858 -0.000392147 -0.000527997 -0.000684407 -0.000863878 -0.00106891 -0.0012995 -0.00155565 -0.00183736 -0.00214463 -0.00247746 -0.00283585 -0.00320472 -0.00356898 -0.00392863 -0.00428367 -0.00463411 -0.00497994 -0.00532116 -0.00565777 -0.0059689 -0.00623366 -0.00645206 -0.00662409 -0.00674976 -0.00682907 -0.00686201 -0.00684858 -0.0067947 -0.00670626 -0.00658326 -0.0064257 -0.00623359 -0.00600692 -0.00574569 -0.00544991 -0.00514862 -0.00487088 -0.0046167 -0.00438606 -0.00417897 -0.00399543 -0.00383544 -0.003699 -0.00359565 -0.00353495 -0.0035169 -0.00354148 -0.00360871 -0.00371859 -0.00387111 -0.00406627 -0.00429552 -0.0045503 -0.00483061 -0.00513645 -0.00546783 -0.00582474 -0.00620718 -0.00661515 -0.00703809 -0.00746542 -0.00789714 -0.00833326 -0.00877377 -0.00921868 -0.00966798 -0.0101217 -0.0105498 -0.0109225 -0.0112397 -0.0115015 -0.0117078 -0.0118586 -0.0119539 -0.0119938 -0.0119789 -0.0119098 -0.0117865 -0.0116092 -0.0113776 -0.0110919 -0.0107521 -0.0103581 -0.00993651 -0.00951382 -0.00909004 -0.00866517 -0.00823922 -0.00781218 -0.00738406 -0.00695485 -0.00652524 -0.00609592 -0.00566688 -0.00523814 -0.00480968 -0.00438151 -0.00395363 -0.00352604 -0.00311112 -0.00272125 -0.00235644 -0.00201667 -0.00170196 -0.0014123 -0.00114769 -0.000908128 -0.000695286 -0.000510822 -0.000354738 -0.000227032 -0.000127706 -5.6758e-05 -1.41895e-05 0 0 -1.80051e-07 -7.20205e-07 -1.62046e-06 -2.88082e-06 -4.50128e-06 -6.48185e-06 -8.82252e-06 -1.15233e-05 -2.78314e-05 -7.09943e-05 -0.000141012 -0.000237884 -0.000361611 -0.000512193 -0.000689629 -0.00089392 -0.00112833 -0.00139613 -0.0016973 -0.00203187 -0.00239982 -0.00280115 -0.00323587 -0.00370397 -0.00418575 -0.00466152 -0.00513127 -0.005595 -0.00605271 -0.00650441 -0.00695008 -0.00738974 -0.00779611 -0.00814192 -0.00842718 -0.00865187 -0.00881601 -0.0089196 -0.00896262 -0.00894509 -0.00887471 -0.00875919 -0.00859854 -0.00839275 -0.00814183 -0.00784577 -0.00750458 -0.00711825 -0.00672473 -0.00636197 -0.00602997 -0.00572873 -0.00545824 -0.00521852 -0.00500955 -0.00483134 -0.00469636 -0.00461708 -0.0045935 -0.00462561 -0.00471342 -0.00485693 -0.00505614 -0.00531104 -0.00561047 -0.00594324 -0.00630937 -0.00670884 -0.00714166 -0.00760782 -0.00810734 -0.0086402 -0.00919261 -0.00975075 -0.0103146 -0.0108843 -0.0114596 -0.0120407 -0.0126276 -0.0132201 -0.0137794 -0.0142661 -0.0146805 -0.0150223 -0.0152918 -0.0154888 -0.0156133 -0.0156654 -0.0156459 -0.0155556 -0.0153947 -0.015163 -0.0148606 -0.0144874 -0.0140436 -0.013529 -0.0129783 -0.0124262 -0.0118727 -0.0113178 -0.0107614 -0.0102037 -0.00964449 -0.00908388 -0.00852276 -0.00796201 -0.00740164 -0.00684165 -0.00628203 -0.00572279 -0.00516393 -0.00460544 -0.00406351 -0.00355429 -0.00307779 -0.00263402 -0.00222296 -0.00184463 -0.00149902 -0.00118613 -0.000908128 -0.000667196 -0.000463331 -0.000296532 -0.000166799 -7.41329e-05 -1.85332e-05 0 0 -5.14518e-07 -2.05807e-06 -4.63066e-06 -8.23228e-06 -1.28629e-05 -1.85226e-05 -2.52114e-05 -3.29291e-05 -5.79309e-05 -0.000116472 -0.000208552 -0.000334171 -0.000493329 -0.000686026 -0.000912262 -0.00117204 -0.00146915 -0.0018074 -0.00218678 -0.0026073 -0.00306895 -0.00357174 -0.00411566 -0.00470072 -0.00530257 -0.00589687 -0.00648363 -0.00706284 -0.0076345 -0.00819861 -0.00875518 -0.0093042 -0.00981157 -0.0102432 -0.010599 -0.0108791 -0.0110834 -0.011212 -0.0112648 -0.0112418 -0.011153 -0.0110084 -0.010808 -0.0105516 -0.0102395 -0.00987151 -0.00944767 -0.00896799 -0.00847961 -0.00802968 -0.0076182 -0.00724516 -0.00691057 -0.00661443 -0.00635674 -0.00613749 -0.00596943 -0.00586528 -0.00582506 -0.00584875 -0.00593636 -0.00608789 -0.00630334 -0.00658271 -0.00690965 -0.00726784 -0.00765726 -0.00807793 -0.00852983 -0.00901298 -0.00952736 -0.010073 -0.0106376 -0.0112091 -0.0117874 -0.0123725 -0.0129645 -0.0135632 -0.0141688 -0.0147812 -0.0153598 -0.0158641 -0.016294 -0.0166496 -0.0169309 -0.0171378 -0.0172704 -0.0173286 -0.0173133 -0.0172252 -0.0170645 -0.016831 -0.0165248 -0.0161459 -0.0156942 -0.0151698 -0.0146078 -0.0140432 -0.0134761 -0.0129063 -0.0123341 -0.0117592 -0.0111818 -0.0106019 -0.0100156 -0.00941947 -0.00881335 -0.00819729 -0.00757127 -0.00693531 -0.0062894 -0.00563354 -0.00499065 -0.00438363 -0.00381251 -0.00327726 -0.0027779 -0.00231442 -0.00188682 -0.0014951 -0.00114469 -0.000840994 -0.000584024 -0.000373775 -0.000210249 -9.34438e-05 -2.33609e-05 0 0 -1.42789e-06 -5.71156e-06 -1.2851e-05 -2.28463e-05 -3.56973e-05 -5.14041e-05 -6.99667e-05 -9.1385e-05 -0.000134314 -0.000217407 -0.000340665 -0.000504088 -0.000707676 -0.000951429 -0.00123535 -0.00155943 -0.00192744 -0.00234315 -0.00280655 -0.00331764 -0.00387643 -0.00448292 -0.0051371 -0.00583897 -0.00656013 -0.00727216 -0.00797507 -0.00866885 -0.0093535 -0.010029 -0.0106954 -0.0113527 -0.0119599 -0.012476 -0.0129009 -0.0132348 -0.0134776 -0.0136293 -0.0136899 -0.0136594 -0.0135506 -0.0133765 -0.0131369 -0.012832 -0.0124616 -0.0120258 -0.0115247 -0.0109581 -0.0103819 -0.00985183 -0.0093679 -0.0089301 -0.00853844 -0.00819291 -0.00789352 -0.00764026 -0.00744044 -0.00730135 -0.00722299 -0.00720536 -0.00724847 -0.00735231 -0.00751687 -0.00774218 -0.00800196 -0.00826999 -0.00854627 -0.00883078 -0.00912354 -0.00942454 -0.00973378 -0.0100513 -0.0103765 -0.0107088 -0.0110484 -0.0113952 -0.0117492 -0.0121103 -0.0124787 -0.0128542 -0.0132114 -0.0135249 -0.0137945 -0.0140203 -0.0142023 -0.0143406 -0.014435 -0.0144856 -0.0144926 -0.0144563 -0.0143766 -0.0142536 -0.0140872 -0.0138774 -0.0136244 -0.0133279 -0.0130071 -0.0126811 -0.0123498 -0.0120131 -0.0116712 -0.0113241 -0.0109716 -0.0106138 -0.0102329 -0.00981084 -0.00934767 -0.00884338 -0.00829798 -0.00771147 -0.00708384 -0.0064151 -0.00574031 -0.00509452 -0.00447775 -0.00388997 -0.00333121 -0.00280145 -0.0023007 -0.00182896 -0.0014003 -0.00102879 -0.000714437 -0.00045724 -0.000257197 -0.00011431 -2.85775e-05 0 0 -2.92017e-06 -1.16807e-05 -2.62815e-05 -4.67227e-05 -7.30043e-05 -0.000105126 -0.000143088 -0.000186891 -0.00025698 -0.0003738 -0.000537353 -0.000747637 -0.00100465 -0.0013084 -0.00165888 -0.00205609 -0.0025032 -0.00300338 -0.00355661 -0.00416291 -0.00482227 -0.0055347 -0.00630018 -0.00711873 -0.00795844 -0.00878739 -0.00960559 -0.010413 -0.0112097 -0.0119957 -0.0127709 -0.0135353 -0.0142411 -0.0148403 -0.0153329 -0.015719 -0.0159986 -0.0161716 -0.016238 -0.0161978 -0.0160675 -0.0158634 -0.0155854 -0.0152337 -0.0148081 -0.0143087 -0.0137356 -0.0130886 -0.0124316 -0.0118284 -0.0112791 -0.0107835 -0.0103418 -0.00995396 -0.00961989 -0.00933966 -0.0091094 -0.00892528 -0.00878729 -0.00869545 -0.00864974 -0.00865017 -0.00869674 -0.00878945 -0.00888741 -0.00894972 -0.00897638 -0.0089674 -0.00892277 -0.00884249 -0.00872657 -0.00857501 -0.00840905 -0.00824994 -0.00809769 -0.00795229 -0.00781375 -0.00768206 -0.00755723 -0.00743925 -0.00733428 -0.00724849 -0.00718186 -0.00713441 -0.00710613 -0.00709702 -0.00710709 -0.00713632 -0.00718384 -0.00724874 -0.00733102 -0.00743069 -0.00754775 -0.00768219 -0.00783401 -0.00800322 -0.00817634 -0.00833987 -0.00849382 -0.00863819 -0.00877298 -0.00889818 -0.00901381 -0.00911985 -0.00917454 -0.00913612 -0.00900458 -0.00877993 -0.00846215 -0.00805126 -0.00754726 -0.00695013 -0.0063125 -0.00568696 -0.00507351 -0.00447216 -0.00388291 -0.00330574 -0.00274068 -0.0021877 -0.00167496 -0.00123058 -0.000854571 -0.000546926 -0.000307646 -0.000136731 -3.41829e-05 0 0 -4.99136e-06 -1.99654e-05 -4.49222e-05 -7.98617e-05 -0.000124784 -0.000179689 -0.000244577 -0.000319447 -0.000425929 -0.000585651 -0.000798614 -0.00106482 -0.00138426 -0.00175695 -0.00218287 -0.00266204 -0.00319644 -0.00378809 -0.00443697 -0.0051431 -0.00590647 -0.00672707 -0.00760492 -0.00854001 -0.0094975 -0.0104426 -0.0113752 -0.0122954 -0.0132032 -0.0140985 -0.0149814 -0.0158519 -0.0166551 -0.0173361 -0.017895 -0.0183318 -0.0186463 -0.0188388 -0.018909 -0.0188572 -0.0187037 -0.0184691 -0.0181535 -0.0177568 -0.0172791 -0.0167202 -0.0160804 -0.0153594 -0.0146287 -0.0139594 -0.0133517 -0.0128055 -0.0123208 -0.0118976 -0.0115359 -0.0112357 -0.0109763 -0.0107371 -0.010518 -0.010319 -0.0101402 -0.0099815 -0.00984295 -0.00972454 -0.00956598 -0.009307 -0.0089476 -0.00848777 -0.00792753 -0.00726685 -0.00650576 -0.00564424 -0.00473541 -0.00383239 -0.00293518 -0.00204378 -0.00115819 -0.000278412 0.00059556 0.00146372 0.00227169 0.00296508 0.00354388 0.0040081 0.00435774 0.0045928 0.00471327 0.00471917 0.00461302 0.00439739 0.00407226 0.00363764 0.00309352 0.00243992 0.00167682 0.000804227 -0.000115383 -0.00101954 -0.00190823 -0.00278147 -0.00363925 -0.00448158 -0.00530845 -0.00611986 -0.00684057 -0.00739531 -0.0077841 -0.00800693 -0.00806379 -0.0079547 -0.00767965 -0.00723863 -0.00670721 -0.00616094 -0.00559981 -0.00502382 -0.00443298 -0.00382729 -0.00320674 -0.00257133 -0.00196868 -0.00144637 -0.00100443 -0.000642833 -0.000361593 -0.000160708 -4.0177e-05 0 0 -7.64145e-06 -3.05658e-05 -6.87731e-05 -0.000122263 -0.000191036 -0.000275092 -0.000374431 -0.000489053 -0.000641161 -0.00085296 -0.00112445 -0.00145563 -0.0018465 -0.00229706 -0.00280731 -0.00337725 -0.00400715 -0.00469728 -0.00544763 -0.00625821 -0.00712901 -0.00806004 -0.0090513 -0.0101028 -0.0111773 -0.0122377 -0.0132839 -0.0143159 -0.0153338 -0.0163376 -0.0173272 -0.0183026 -0.019202 -0.0199635 -0.0205872 -0.021073 -0.0214209 -0.0216309 -0.0217031 -0.0216374 -0.0214591 -0.0211937 -0.0208411 -0.0204014 -0.0198744 -0.0192603 -0.018559 -0.0177706 -0.0169731 -0.0162449 -0.0155858 -0.0149959 -0.0144752 -0.0140237 -0.0136414 -0.0133283 -0.0130412 -0.0127367 -0.012415 -0.012076 -0.0117198 -0.0113463 -0.0109555 -0.0105474 -0.0100377 -0.00934185 -0.00845993 -0.00739191 -0.00613781 -0.00469761 -0.00307132 -0.00125894 0.000644453 0.0025438 0.00443908 0.00633032 0.00821749 0.0101006 0.0119797 0.0138547 0.0156065 0.0171158 0.0183827 0.0194072 0.0201893 0.0207289 0.0210261 0.0210809 0.020898 0.0204821 0.0198332 0.0189514 0.0178366 0.0164889 0.0149081 0.0130944 0.0111757 0.00927991 0.007407 0.00555701 0.00372992 0.00192574 0.000144471 -0.00161389 -0.00323098 -0.00458842 -0.00568622 -0.00652438 -0.0071029 -0.00742177 -0.00748101 -0.0072806 -0.00692445 -0.00651646 -0.00605663 -0.00554495 -0.00498144 -0.00436608 -0.00369888 -0.00297984 -0.00228144 -0.00167616 -0.001164 -0.000744961 -0.00041904 -0.00018624 -4.65601e-05 0 0 -1.08705e-05 -4.34818e-05 -9.78341e-05 -0.000173927 -0.000271761 -0.000391336 -0.000532652 -0.000695709 -0.000902677 -0.00117573 -0.00151486 -0.00192007 -0.00239137 -0.00292874 -0.0035322 -0.00420174 -0.00493533 -0.00573095 -0.00658858 -0.00750824 -0.00848991 -0.00953361 -0.0106393 -0.0118071 -0.0129979 -0.0141727 -0.0153316 -0.0164746 -0.0176017 -0.0187128 -0.019808 -0.0208873 -0.0218818 -0.0227225 -0.0234095 -0.0239427 -0.0243222 -0.024548 -0.0246201 -0.0245385 -0.0243339 -0.0240372 -0.0236483 -0.0231673 -0.0225942 -0.021929 -0.0211716 -0.0203221 -0.019465 -0.0186848 -0.0179814 -0.0173549 -0.0168053 -0.0163325 -0.0159366 -0.0156176 -0.0153039 -0.0149242 -0.0144784 -0.0139665 -0.0133886 -0.0127445 -0.0120344 -0.0112581 -0.0103025 -0.00905427 -0.00751337 -0.00567982 -0.00355362 -0.00113477 0.00157672 0.00458087 0.00773054 0.0108786 0.0140251 0.01717 0.0203133 0.023455 0.0265951 0.0297337 0.03267 0.0352037 0.0373347 0.0390629 0.0403885 0.0413113 0.0418314 0.0419489 0.041671 0.0410054 0.0399519 0.0385106 0.0366816 0.0344647 0.03186 0.0288674 0.025697 0.0225585 0.0194519 0.0163772 0.0133345 0.0103238 0.00734496 0.00439807 0.00165424 -0.000715435 -0.00271094 -0.00433229 -0.00557947 -0.00645249 -0.00695134 -0.00707604 -0.00696422 -0.00675353 -0.00644398 -0.00603556 -0.00552828 -0.00492213 -0.00421712 -0.00341324 -0.00261326 -0.00191995 -0.0013333 -0.00085331 -0.000479987 -0.000213328 -5.33319e-05 0 0 -1.46784e-05 -5.87134e-05 -0.000132105 -0.000234854 -0.000366959 -0.000528421 -0.00071924 -0.000939415 -0.00121048 -0.00155395 -0.00196984 -0.00245815 -0.00301886 -0.003652 -0.00435754 -0.00513551 -0.00598099 -0.00688909 -0.00785983 -0.00889318 -0.00998917 -0.0111478 -0.012369 -0.0136529 -0.0149592 -0.0162477 -0.0175185 -0.0187715 -0.0200068 -0.0212243 -0.0224241 -0.0236061 -0.0246944 -0.0256129 -0.0263618 -0.0269409 -0.0273504 -0.0275901 -0.0276601 -0.0275604 -0.0273279 -0.0269994 -0.026575 -0.0260547 -0.0254384 -0.0247263 -0.0239181 -0.0230141 -0.0221043 -0.0212791 -0.0205384 -0.0198823 -0.0193108 -0.0188238 -0.0184214 -0.0181035 -0.0177647 -0.0172996 -0.0167082 -0.0159905 -0.0151465 -0.0141762 -0.0130796 -0.0118566 -0.0103605 -0.00844425 -0.00610791 -0.00335148 -0.000174954 0.00342167 0.00743839 0.0118752 0.0165229 0.0211721 0.0258229 0.0304753 0.0351293 0.0397848 0.0444419 0.0491006 0.0534624 0.0572288 0.0603997 0.0629752 0.0649553 0.06634 0.0671292 0.0673231 0.0669322 0.0659672 0.0644283 0.0623153 0.0596283 0.0563673 0.0525323 0.0481232 0.0434484 0.0388161 0.0342264 0.0296792 0.0251746 0.0207125 0.016293 0.011916 0.00781507 0.00422364 0.00114173 -0.00143065 -0.00349351 -0.00504684 -0.00609065 -0.00662494 -0.00682651 -0.00687214 -0.00676185 -0.00649564 -0.0060735 -0.00549543 -0.00476144 -0.00387152 -0.00296413 -0.00217773 -0.00151231 -0.000967881 -0.000544433 -0.00024197 -6.04925e-05 0 0 -1.90652e-05 -7.62607e-05 -0.000171587 -0.000305043 -0.000476629 -0.000686346 -0.000934194 -0.00122017 -0.00156456 -0.00198763 -0.0024894 -0.00306985 -0.00372899 -0.00446682 -0.00528334 -0.00617854 -0.00714411 -0.00817172 -0.00926137 -0.0104131 -0.0116268 -0.0129025 -0.0142403 -0.0156402 -0.0170612 -0.0184626 -0.0198444 -0.0212066 -0.0225491 -0.023872 -0.0251753 -0.0264589 -0.0276399 -0.028635 -0.0294442 -0.0300677 -0.0305053 -0.0307571 -0.0308231 -0.0307032 -0.0304412 -0.0300806 -0.0296213 -0.0290635 -0.0284071 -0.0276521 -0.0267985 -0.0258463 -0.024891 -0.0240279 -0.023257 -0.0225783 -0.0219919 -0.0214977 -0.0210957 -0.020786 -0.0204234 -0.0198629 -0.0191044 -0.018148 -0.0169936 -0.0156413 -0.0140911 -0.0123429 -0.0102116 -0.00751179 -0.00424356 -0.000406908 0.00399818 0.00897171 0.0145137 0.0206241 0.0270214 0.0334242 0.0398324 0.0462462 0.0526653 0.05909 0.0655201 0.0719556 0.0779836 0.083191 0.0875779 0.0911442 0.0938899 0.095815 0.0969195 0.0972035 0.0966814 0.0953677 0.0932624 0.0903655 0.0866769 0.0821968 0.0769251 0.0708617 0.06443 0.0580529 0.0517306 0.045463 0.0392501 0.033092 0.0269886 0.02094 0.0152515 0.0102288 0.00587181 0.00218054 -0.000845012 -0.00320484 -0.00489894 -0.00592731 -0.00651132 -0.0068723 -0.00701026 -0.00692519 -0.0066171 -0.00608599 -0.00533185 -0.00435469 -0.00333406 -0.00244951 -0.00170105 -0.00108867 -0.000612378 -0.000272168 -6.8042e-05 0 0 -2.39034e-05 -9.56134e-05 -0.00021513 -0.000382454 -0.000597584 -0.000860521 -0.00117126 -0.00152981 -0.00195212 -0.00245415 -0.00303588 -0.00369733 -0.0044385 -0.00525937 -0.00615996 -0.00714026 -0.00818551 -0.00928094 -0.0104266 -0.0116223 -0.0128683 -0.0141645 -0.0155108 -0.0169074 -0.0183177 -0.0197055 -0.0210708 -0.0224135 -0.0237337 -0.0250314 -0.0263065 -0.0275591 -0.0287077 -0.0296709 -0.0304486 -0.0310409 -0.0314478 -0.0316692 -0.0317052 -0.0315558 -0.0312721 -0.0309055 -0.030456 -0.0299235 -0.0293081 -0.0286097 -0.0278283 -0.026964 -0.0261069 -0.0253472 -0.0246848 -0.0241197 -0.023652 -0.0232816 -0.0230085 -0.0228328 -0.022558 -0.0219877 -0.0211219 -0.0199606 -0.0185037 -0.0167513 -0.0147034 -0.01236 -0.00949475 -0.00588154 -0.00152032 0.00358892 0.00944617 0.0160514 0.0234047 0.031506 0.039979 0.0484474 0.0569111 0.0653702 0.0738248 0.0822747 0.09072 0.0991606 0.107062 0.11389 0.119645 0.124326 0.127934 0.130468 0.131929 0.132316 0.131649 0.129946 0.127208 0.123434 0.118625 0.112781 0.105901 0.0979854 0.0895785 0.0812241 0.0729222 0.0646728 0.0564759 0.0483315 0.0402396 0.0322003 0.0246111 0.0178698 0.0119764 0.00693081 0.00273313 -0.000616666 -0.00311859 -0.00477264 -0.00585015 -0.00662243 -0.0070895 -0.00725135 -0.00710797 -0.00665938 -0.00590558 -0.00484655 -0.00371064 -0.00272618 -0.00189318 -0.00121164 -0.000681546 -0.000302909 -7.57273e-05 0 0 -2.90653e-05 -0.000116261 -0.000261588 -0.000465045 -0.000726633 -0.00104635 -0.0014242 -0.00186018 -0.00236038 -0.00293087 -0.00357166 -0.00428274 -0.00506412 -0.0059158 -0.00683778 -0.00783005 -0.00886597 -0.00991886 -0.0109887 -0.0120756 -0.0131794 -0.0143002 -0.015438 -0.0165928 -0.0177423 -0.0188643 -0.0199589 -0.021026 -0.0220657 -0.0230779 -0.0240626 -0.0250198 -0.0258874 -0.026603 -0.0271667 -0.0275786 -0.0278385 -0.0279465 -0.0279026 -0.0277067 -0.027419 -0.0270994 -0.0267479 -0.0263646 -0.0259493 -0.0255022 -0.0250232 -0.0245123 -0.0240341 -0.0236532 -0.0233697 -0.0231835 -0.0230946 -0.023103 -0.0232087 -0.0234118 -0.0234467 -0.0230481 -0.0222158 -0.0209499 -0.0192505 -0.0171174 -0.0145508 -0.0115506 -0.00784896 -0.00317815 0.00246184 0.00907102 0.0166494 0.0251969 0.0347137 0.0451996 0.0561485 0.067054 0.0779162 0.0887352 0.0995108 0.110243 0.120932 0.131578 0.141527 0.150127 0.157377 0.163278 0.167829 0.171031 0.172884 0.173387 0.172565 0.170442 0.167019 0.162296 0.156272 0.148947 0.140322 0.130397 0.119831 0.109285 0.0987589 0.0882528 0.0777665 0.0673002 0.0568538 0.0464273 0.0365413 0.0277163 0.0199525 0.0132497 0.00760805 0.00302747 -0.000492016 -0.00295041 -0.00467447 -0.00599097 -0.00689989 -0.00740123 -0.00749501 -0.00718121 -0.00645985 -0.0053309 -0.00408147 -0.00299863 -0.00208238 -0.00133273 -0.000749659 -0.000333182 -8.32954e-05 0 0 -3.45511e-05 -0.000138205 -0.00031096 -0.000552818 -0.000863778 -0.00124384 -0.00169301 -0.00221127 -0.00278931 -0.00341779 -0.00409671 -0.00482607 -0.00560587 -0.00643612 -0.0073168 -0.00824792 -0.00918548 -0.0100855 -0.0109479 -0.0117727 -0.01256 -0.0133097 -0.0140218 -0.0146964 -0.015335 -0.0159391 -0.0165088 -0.0170441 -0.017545 -0.0180115 -0.0184435 -0.0188411 -0.0191789 -0.0194314 -0.0195987 -0.0196807 -0.0196775 -0.019589 -0.0194152 -0.0191562 -0.0188819 -0.0186622 -0.0184971 -0.0183867 -0.0183308 -0.0183296 -0.018383 -0.018491 -0.0186724 -0.018946 -0.0193117 -0.0197696 -0.0203197 -0.0209619 -0.0216963 -0.0225228 -0.0230894 -0.0230438 -0.022386 -0.0211161 -0.019234 -0.0167398 -0.0136334 -0.00991481 -0.0052742 0.000598378 0.00770291 0.0160394 0.0256078 0.0364082 0.0484406 0.0617048 0.0755298 0.0892441 0.102848 0.116341 0.129723 0.142995 0.156156 0.169207 0.181378 0.1919 0.200774 0.207999 0.213576 0.217504 0.219784 0.220415 0.219429 0.216856 0.212696 0.206949 0.199616 0.190696 0.180189 0.168095 0.155187 0.142235 0.129241 0.116203 0.103122 0.0899982 0.0768312 0.063621 0.051042 0.0397684 0.0298001 0.0211372 0.0137797 0.00772757 0.00298079 -0.00046062 -0.0029843 -0.0049779 -0.00644142 -0.00737486 -0.00777821 -0.00765147 -0.00699466 -0.00580776 -0.00444657 -0.00326687 -0.00226866 -0.00145194 -0.000816716 -0.000362985 -9.07463e-05 0 0 -4.03608e-05 -0.000161443 -0.000363247 -0.000645772 -0.00100902 -0.00145299 -0.00197768 -0.00258309 -0.00323893 -0.00391492 -0.00461105 -0.00532733 -0.00606375 -0.00682031 -0.00759702 -0.00839387 -0.00914406 -0.00978079 -0.010304 -0.0107138 -0.0110101 -0.011193 -0.0112624 -0.0112183 -0.0110958 -0.0109298 -0.0107205 -0.0104678 -0.0101717 -0.0098322 -0.00944929 -0.00902299 -0.00858226 -0.00815607 -0.00774442 -0.0073473 -0.00696471 -0.00659667 -0.00624316 -0.00590418 -0.00566075 -0.00559388 -0.00570356 -0.00598979 -0.00645257 -0.00709191 -0.00790781 -0.00890025 -0.0100219 -0.0112254 -0.0125108 -0.0138781 -0.0153273 -0.0168583 -0.0184712 -0.020166 -0.0214861 -0.021975 -0.0216326 -0.0204591 -0.0184543 -0.0156183 -0.0119511 -0.00745266 -0.00177046 0.00544805 0.0142029 0.024494 0.0363215 0.0496853 0.0645854 0.0810218 0.098123 0.115018 0.131706 0.148187 0.164462 0.180531 0.196393 0.212048 0.226615 0.239211 0.249836 0.258491 0.265174 0.269888 0.27263 0.273402 0.272241 0.269187 0.264238 0.257395 0.248658 0.238027 0.225501 0.211082 0.195647 0.180076 0.164368 0.148524 0.132543 0.116425 0.100172 0.0837815 0.0681134 0.054026 0.0415194 0.0305934 0.0212482 0.0134836 0.00729983 0.00269673 -0.000779634 -0.00358324 -0.0