<?xml version="1.0"?> 
<VTKFile type="StructuredGrid" version="0.1"> 
<StructuredGrid WholeExtent="0 128 0 128 0 0"> 
<Piece Extent="0 128 0 128 0 0"> 
<PointData>
<DataArray type="Float32" Name="u" format="ascii" NumberOfComponents="1"> 
0 0 0 0 0 0 0 0 0 0 0 0 0 0 0 0 0 0 0 0 0 0 0 0 0 0 0 0 0 0 0 0 0 0 0 0 0 0 0 0 0 0 0 0 0 0 0 0 0 0 0 0 0 0 0 0 0 0 0 0 0 0 0 0 0 0 0 0 0 0 0 0 0 0 0 0 0 0 0 0 0 0 0 0 0 0 0 0 0 0 0 0 0 0 0 0 0 0 0 0 0 0 0 0 0 0 0 0 0 0 0 0 0 0 0 0 0 0 0 0 0 0 0 0 0 0 0 0 0 0 2.65587e-09 1.06235e-08 2.39028e-08 4.24939e-08 6.63967e-08 9.56113e-08 1.30138e-07 1.69976e-07 1.20019e-09 -5.90114e-07 -1.60397e-06 -3.04036e-06 -4.89929e-06 -7.18076e-06 -9.88476e-06 -1.30113e-05 -1.66098e-05 -2.07296e-05 -2.53707e-05 -3.05331e-05 -3.62169e-05 -4.2422e-05 -4.91484e-05 -5.63961e-05 -6.38569e-05 -7.12225e-05 -7.8493e-05 -8.56683e-05 -9.27484e-05 -9.97333e-05 -0.000106623 -0.000113418 -0.000119696 -0.000125035 -0.000129437 -0.000132901 -0.000135426 -0.000137014 -0.000137663 -0.000137374 -0.000136266 -0.000134457 -0.000131947 -0.000128736 -0.000124825 -0.000120212 -0.000114899 -0.000108885 -0.000102768 -9.71465e-05 -9.20196e-05 -8.73876e-05 -8.32507e-05 -7.96086e-05 -7.64616e-05 -7.38095e-05 -7.18493e-05 -7.07782e-05 -7.05959e-05 -7.13026e-05 -7.28983e-05 -7.53829e-05 -7.87564e-05 -8.30189e-05 -8.8013e-05 -9.35812e-05 -9.97237e-05 -0.00010644 -0.000113731 -0.000121596 -0.000130036 -0.000139049 -0.000148411 -0.000157895 -0.000167501 -0.00017723 -0.000187081 -0.000197055 -0.00020715 -0.000217369 -0.000227018 -0.000235408 -0.000242538 -0.000248408 -0.000253019 -0.00025637 -0.000258461 -0.000259293 -0.000258885 -0.000257257 -0.00025441 -0.000250342 -0.000245054 -0.000238547 -0.00023082 -0.000221872 -0.000212327 -0.000202804 -0.000193305 -0.000183829 -0.000174376 -0.000164946 -0.00015554 -0.000146156 -0.000136814 -0.00012753 -0.000118305 -0.000109138 -0.00010003 -9.09809e-05 -8.19903e-05 -7.30584e-05 -6.44196e-05 -5.63085e-05 -4.87251e-05 -4.16695e-05 -3.51415e-05 -2.91413e-05 -2.36687e-05 -1.87239e-05 -1.43355e-05 -1.05322e-05 -7.31402e-06 -4.68098e-06 -2.63305e-06 -1.17024e-06 -2.92561e-07 0 0 1.06235e-08 4.24939e-08 9.56113e-08 1.69976e-07 2.65587e-07 3.82445e-07 5.2055e-07 6.79903e-07 4.80076e-09 -2.36046e-06 -6.41587e-06 -1.21614e-05 -1.95972e-05 -2.8723e-05 -3.95391e-05 -5.20452e-05 -6.64391e-05 -8.29183e-05 -0.000101483 -0.000122133 -0.000144868 -0.000169688 -0.000196594 -0.000225584 -0.000255428 -0.00028489 -0.000313972 -0.000342673 -0.000370993 -0.000398933 -0.000426492 -0.00045367 -0.000478782 -0.000500141 -0.000517748 -0.000531603 -0.000541705 -0.000548054 -0.000550651 -0.000549496 -0.000545063 -0.000537827 -0.000527787 -0.000514944 -0.000499298 -0.000480849 -0.000459597 -0.000435541 -0.000411074 -0.000388586 -0.000368078 -0.000349551 -0.000333003 -0.000318435 -0.000305846 -0.000295238 -0.000287397 -0.000283113 -0.000282384 -0.00028521 -0.000291593 -0.000301531 -0.000315026 -0.000332076 -0.000352052 -0.000374325 -0.000398895 -0.000425762 -0.000454925 -0.000486385 -0.000520143 -0.000556197 -0.000593644 -0.00063158 -0.000670006 -0.000708921 -0.000748325 -0.000788219 -0.000828602 -0.000869474 -0.000908072 -0.000941631 -0.000970151 -0.000993633 -0.00101208 -0.00102548 -0.00103385 -0.00103717 -0.00103554 -0.00102903 -0.00101764 -0.00100137 -0.000980217 -0.000954188 -0.000923278 -0.000887489 -0.000849307 -0.000811217 -0.00077322 -0.000735316 -0.000697504 -0.000659785 -0.000622159 -0.000584625 -0.000547255 -0.00051012 -0.000473219 -0.000436552 -0.000400121 -0.000363924 -0.000327961 -0.000292233 -0.000257678 -0.000225234 -0.000194901 -0.000166678 -0.000140566 -0.000116565 -9.46749e-05 -7.48956e-05 -5.73419e-05 -4.21288e-05 -2.92561e-05 -1.87239e-05 -1.05322e-05 -4.68098e-06 -1.17024e-06 0 0 2.39028e-08 9.56113e-08 2.15125e-07 3.82445e-07 5.97571e-07 8.60502e-07 1.17124e-06 1.52978e-06 1.08017e-08 -5.31103e-06 -1.44357e-05 -2.73632e-05 -4.40936e-05 -6.46268e-05 -8.89629e-05 -0.000117102 -0.000149488 -0.000186566 -0.000228336 -0.000274798 -0.000325952 -0.000381798 -0.000442336 -0.000507565 -0.000574712 -0.000641003 -0.000706437 -0.000771014 -0.000834735 -0.0008976 -0.000959607 -0.00102076 -0.00107726 -0.00112532 -0.00116493 -0.00119611 -0.00121884 -0.00123312 -0.00123897 -0.00123637 -0.00122639 -0.00121011 -0.00118752 -0.00115862 -0.00112342 -0.00108191 -0.00103409 -0.000979967 -0.000924915 -0.000874319 -0.000828176 -0.000786489 -0.000749256 -0.000716478 -0.000688154 -0.000664285 -0.000646644 -0.000637003 -0.000635363 -0.000641724 -0.000656084 -0.000678446 -0.000708808 -0.00074717 -0.000792117 -0.000842231 -0.000897513 -0.000957964 -0.00102358 -0.00109437 -0.00117032 -0.00125144 -0.0013357 -0.00142106 -0.00150751 -0.00159507 -0.00168373 -0.00177349 -0.00186435 -0.00195632 -0.00204316 -0.00211867 -0.00218284 -0.00223567 -0.00227717 -0.00230733 -0.00232615 -0.00233364 -0.00232997 -0.00231532 -0.00228969 -0.00225308 -0.00220549 -0.00214692 -0.00207738 -0.00199685 -0.00191094 -0.00182524 -0.00173975 -0.00165446 -0.00156938 -0.00148452 -0.00139986 -0.00131541 -0.00123132 -0.00114777 -0.00106474 -0.000982243 -0.000900272 -0.000818828 -0.000737913 -0.000657525 -0.000579776 -0.000506776 -0.000438526 -0.000375025 -0.000316274 -0.000262271 -0.000213019 -0.000168515 -0.000129019 -9.47898e-05 -6.58262e-05 -4.21288e-05 -2.36974e-05 -1.05322e-05 -2.63305e-06 0 0 4.24939e-08 1.69976e-07 3.82445e-07 6.79903e-07 1.06235e-06 1.52978e-06 2.0822e-06 2.71961e-06 1.9203e-08 -9.44182e-06 -2.56635e-05 -4.86457e-05 -7.83886e-05 -0.000114892 -0.000158156 -0.000208181 -0.000265757 -0.000331673 -0.000405931 -0.00048853 -0.00057947 -0.000678752 -0.000786374 -0.000902338 -0.00102171 -0.00113956 -0.00125589 -0.00137069 -0.00148397 -0.00159573 -0.00170597 -0.00181468 -0.00191513 -0.00200057 -0.00207099 -0.00212641 -0.00216682 -0.00219222 -0.00220261 -0.00219798 -0.00218025 -0.00215131 -0.00211115 -0.00205978 -0.00199719 -0.0019234 -0.00183839 -0.00174216 -0.00164429 -0.00155434 -0.00147231 -0.0013982 -0.00133201 -0.00127374 -0.00122339 -0.00118095 -0.00114959 -0.00113245 -0.00112953 -0.00114084 -0.00116637 -0.00120613 -0.0012601 -0.0013283 -0.00140821 -0.0014973 -0.00159558 -0.00170305 -0.0018197 -0.00194554 -0.00208057 -0.00222479 -0.00237458 -0.00252632 -0.00268002 -0.00283568 -0.0029933 -0.00315288 -0.00331441 -0.0034779 -0.00363229 -0.00376652 -0.0038806 -0.00397453 -0.0040483 -0.00410192 -0.00413538 -0.00414869 -0.00414216 -0.00411612 -0.00407055 -0.00400547 -0.00392087 -0.00381675 -0.00369311 -0.00354996 -0.00339723 -0.00324487 -0.00309288 -0.00294126 -0.00279002 -0.00263914 -0.00248863 -0.0023385 -0.00218902 -0.00204048 -0.00189287 -0.00174621 -0.00160048 -0.00145569 -0.00131185 -0.00116893 -0.00103071 -0.000900936 -0.000779602 -0.000666711 -0.000562264 -0.00046626 -0.0003787 -0.000299582 -0.000229368 -0.000168515 -0.000117024 -7.48956e-05 -4.21288e-05 -1.87239e-05 -4.68098e-06 0 0 6.63967e-08 2.65587e-07 5.97571e-07 1.06235e-06 1.65992e-06 2.39028e-06 3.25344e-06 4.24939e-06 3.00047e-08 -1.47528e-05 -4.00992e-05 -7.6009e-05 -0.000122482 -0.000179519 -0.000247119 -0.000325283 -0.000415245 -0.00051824 -0.000634268 -0.000763329 -0.000905423 -0.00106055 -0.00122871 -0.0014099 -0.00159642 -0.00178056 -0.00196232 -0.00214171 -0.00231871 -0.00249333 -0.00266558 -0.00283544 -0.00299239 -0.00312588 -0.00323593 -0.00332252 -0.00338565 -0.00342534 -0.00344157 -0.00343435 -0.00340664 -0.00336142 -0.00329867 -0.0032184 -0.00312061 -0.00300531 -0.00287248 -0.00272213 -0.00256921 -0.00242866 -0.00230049 -0.00218469 -0.00208127 -0.00199022 -0.00191154 -0.00184524 -0.00179623 -0.00176945 -0.0017649 -0.00178257 -0.00182246 -0.00188457 -0.00196891 -0.00207547 -0.00220032 -0.00233953 -0.00249309 -0.00266101 -0.00284328 -0.00303991 -0.00325089 -0.00347623 -0.00371027 -0.00394738 -0.00418754 -0.00443076 -0.00467703 -0.00492637 -0.00517876 -0.00543421 -0.00567545 -0.00588519 -0.00606344 -0.0062102 -0.00632547 -0.00640925 -0.00646154 -0.00648233 -0.00647213 -0.00643143 -0.00636024 -0.00625855 -0.00612636 -0.00596367 -0.00577049 -0.00554681 -0.00530817 -0.00507011 -0.00483263 -0.00459572 -0.0043594 -0.00412366 -0.00388849 -0.00365391 -0.00342034 -0.00318825 -0.00295762 -0.00272845 -0.00250075 -0.00227452 -0.00204976 -0.00182646 -0.00161049 -0.00140771 -0.00121813 -0.00104174 -0.000878538 -0.000728532 -0.000591718 -0.000468098 -0.000358387 -0.000263305 -0.000182851 -0.000117024 -6.58262e-05 -2.92561e-05 -7.31402e-06 0 0 9.56113e-08 3.82445e-07 8.60502e-07 1.52978e-06 2.39028e-06 3.44201e-06 4.68495e-06 6.11912e-06 4.32068e-08 -2.12441e-05 -5.77428e-05 -0.000109453 -0.000176374 -0.000258507 -0.000355852 -0.000468407 -0.000597952 -0.000746265 -0.000913345 -0.00109919 -0.00130381 -0.00152719 -0.00176934 -0.00203026 -0.00229885 -0.00256401 -0.00282575 -0.00308406 -0.00333894 -0.0035904 -0.00383843 -0.00408303 -0.00430904 -0.00450127 -0.00465974 -0.00478442 -0.00487534 -0.00493249 -0.00495586 -0.00494546 -0.00490557 -0.00484044 -0.00475008 -0.0046345 -0.00449368 -0.00432764 -0.00413637 -0.00391987 -0.00369966 -0.00349727 -0.00331271 -0.00314596 -0.00299702 -0.00286591 -0.00275262 -0.00265714 -0.00258658 -0.00254801 -0.00254145 -0.00256689 -0.00262434 -0.00271378 -0.00283523 -0.00298868 -0.00316847 -0.00336892 -0.00359005 -0.00383185 -0.00409433 -0.00437747 -0.00468128 -0.00500577 -0.00534279 -0.00568422 -0.00603005 -0.00638029 -0.00673493 -0.00709397 -0.00745742 -0.00782527 -0.00817265 -0.00847468 -0.00873136 -0.0089427 -0.00910868 -0.00922932 -0.00930461 -0.00933456 -0.00931987 -0.00926127 -0.00915874 -0.00901231 -0.00882196 -0.00858769 -0.0083095 -0.0079874 -0.00764376 -0.00730095 -0.00695898 -0.00661784 -0.00627754 -0.00593807 -0.00559943 -0.00526163 -0.00492529 -0.00459108 -0.00425897 -0.00392897 -0.00360109 -0.00327531 -0.00295165 -0.0026301 -0.0023191 -0.00202711 -0.0017541 -0.0015001 -0.00126509 -0.00104909 -0.000852074 -0.00067406 -0.000516078 -0.000379159 -0.000263305 -0.000168515 -9.47898e-05 -4.21288e-05 -1.05322e-05 0 0 1.30138e-07 5.2055e-07 1.17124e-06 2.0822e-06 3.25344e-06 4.68495e-06 6.37674e-06 8.32881e-06 5.88093e-08 -2.89156e-05 -7.85944e-05 -0.000148978 -0.000240065 -0.000351857 -0.000484353 -0.000637554 -0.00081388 -0.00101575 -0.00124316 -0.00149612 -0.00177463 -0.00207868 -0.00240827 -0.00276341 -0.00312899 -0.0034899 -0.00384616 -0.00419774 -0.00454467 -0.00488693 -0.00522453 -0.00555746 -0.00586508 -0.00612673 -0.00634242 -0.00651213 -0.00663588 -0.00671367 -0.00674548 -0.00673133 -0.00667702 -0.00658838 -0.00646539 -0.00630807 -0.0061164 -0.0058904 -0.00563006 -0.00533538 -0.00503565 -0.00476018 -0.00450896 -0.00428199 -0.00407928 -0.00390082 -0.00374662 -0.00361666 -0.00352062 -0.00346813 -0.0034592 -0.00349383 -0.00357201 -0.00369376 -0.00385906 -0.00406793 -0.00431264 -0.00458548 -0.00488646 -0.00521558 -0.00557283 -0.00595822 -0.00637175 -0.00681341 -0.00727214 -0.00773686 -0.00820757 -0.00868428 -0.00916698 -0.00965568 -0.0101504 -0.0106511 -0.0111239 -0.011535 -0.0118844 -0.012172 -0.0123979 -0.0125621 -0.0126646 -0.0127054 -0.0126854 -0.0126056 -0.0124661 -0.0122668 -0.0120077 -0.0116888 -0.0113102 -0.0108717 -0.010404 -0.00993741 -0.00947195 -0.00900762 -0.00854443 -0.00808237 -0.00762144 -0.00716166 -0.00670387 -0.00624896 -0.00579693 -0.00534777 -0.00490148 -0.00445807 -0.00401753 -0.00357986 -0.00315656 -0.00275912 -0.00238753 -0.0020418 -0.00172193 -0.00142792 -0.00115977 -0.000917471 -0.000702439 -0.000516078 -0.000358387 -0.000229368 -0.000129019 -5.73419e-05 -1.43355e-05 0 0 1.69976e-07 6.79903e-07 1.52978e-06 2.71961e-06 4.24939e-06 6.11912e-06 8.32881e-06 1.08784e-05 7.68121e-08 -3.77673e-05 -0.000102654 -0.000194583 -0.000313554 -0.000459568 -0.000632625 -0.000832724 -0.00106303 -0.00132669 -0.00162373 -0.00195412 -0.00231788 -0.00271501 -0.0031455 -0.00360935 -0.00408684 -0.00455824 -0.00502355 -0.00548277 -0.00593589 -0.00638293 -0.00682387 -0.00725873 -0.00766051 -0.00800226 -0.00828397 -0.00850564 -0.00866728 -0.00876887 -0.00881042 -0.00879194 -0.00872101 -0.00860523 -0.00844459 -0.00823911 -0.00798877 -0.00769358 -0.00735354 -0.00696865 -0.00657718 -0.00621738 -0.00588925 -0.00559281 -0.00532804 -0.00509495 -0.00489354 -0.00472381 -0.00459836 -0.0045298 -0.00451814 -0.00456337 -0.00466549 -0.0048245 -0.00504041 -0.00531321 -0.00563283 -0.0059892 -0.00638232 -0.00681219 -0.0072788 -0.00778217 -0.00832228 -0.00889915 -0.0094983 -0.0101053 -0.0107201 -0.0113427 -0.0119732 -0.0126115 -0.0132576 -0.0139116 -0.0145291 -0.0150661 -0.0155224 -0.0158981 -0.0161932 -0.0164077 -0.0165415 -0.0165948 -0.0165687 -0.0164645 -0.0162822 -0.0160219 -0.0156835 -0.015267 -0.0147725 -0.0141998 -0.0135889 -0.0129795 -0.0123715 -0.0117651 -0.0111601 -0.0105566 -0.00995454 -0.009354 -0.00875608 -0.00816191 -0.0075715 -0.00698484 -0.00640193 -0.00582278 -0.00524738 -0.00467573 -0.00412285 -0.00360374 -0.00311841 -0.00266685 -0.00224906 -0.00186504 -0.0015148 -0.00119833 -0.000917471 -0.00067406 -0.000468098 -0.000299582 -0.000168515 -7.48956e-05 -1.87239e-05 0 0 -8.79198e-08 -3.51679e-07 -7.91279e-07 -1.40672e-06 -2.198e-06 -3.16511e-06 -4.30807e-06 -5.62687e-06 -2.39225e-05 -7.59958e-05 -0.000161847 -0.000281476 -0.000434882 -0.000622066 -0.000843028 -0.00109777 -0.00138998 -0.00172334 -0.00209786 -0.00251355 -0.00297038 -0.00346838 -0.00400754 -0.00458785 -0.00518495 -0.00577446 -0.0063564 -0.00693074 -0.0074975 -0.00805668 -0.00860828 -0.00915228 -0.00965488 -0.0100822 -0.0104343 -0.0107112 -0.0109128 -0.0110391 -0.0110903 -0.0110661 -0.0109766 -0.0108314 -0.0106307 -0.0103743 -0.0100624 -0.00969482 -0.00927169 -0.00879295 -0.00830625 -0.0078592 -0.00745181 -0.00708407 -0.00675598 -0.00646755 -0.00621878 -0.00600966 -0.00585301 -0.00576167 -0.00573563 -0.0057749 -0.00587946 -0.00604932 -0.00628449 -0.00658496 -0.00693578 -0.00732203 -0.0077437 -0.00820078 -0.00869329 -0.00922121 -0.00978456 -0.0103833 -0.0110047 -0.0116358 -0.0122767 -0.0129273 -0.0135877 -0.0142578 -0.0149377 -0.0156274 -0.0162796 -0.0168472 -0.0173301 -0.0177284 -0.0180421 -0.0182712 -0.0184156 -0.0184754 -0.0184519 -0.0183463 -0.0181588 -0.0178892 -0.0175377 -0.0171042 -0.0165886 -0.0159911 -0.0153532 -0.0147167 -0.0140816 -0.0134478 -0.0128154 -0.0121843 -0.0115546 -0.0109263 -0.0102957 -0.00965937 -0.00901718 -0.00836918 -0.00771536 -0.00705573 -0.00639028 -0.00571902 -0.00506337 -0.00444477 -0.00386322 -0.00331871 -0.00281126 -0.00234085 -0.00190748 -0.00151117 -0.00115699 -0.000850032 -0.0005903 -0.000377792 -0.000212508 -9.44479e-05 -2.3612e-05 0 0 -9.46594e-07 -3.78638e-06 -8.51935e-06 -1.51455e-05 -2.36649e-05 -3.40774e-05 -4.63831e-05 -6.0582e-05 -9.59586e-05 -0.000171798 -0.000288099 -0.000444862 -0.000642088 -0.000879775 -0.00115793 -0.00147654 -0.00183931 -0.00224994 -0.00270842 -0.00321476 -0.00376895 -0.004371 -0.00502091 -0.00571867 -0.00643585 -0.00714401 -0.00784315 -0.00853328 -0.00921438 -0.00988647 -0.0105495 -0.0112036 -0.0118077 -0.012321 -0.0127434 -0.0130749 -0.0133157 -0.0134655 -0.0135245 -0.0134927 -0.0133827 -0.0132073 -0.0129666 -0.0126604 -0.0122888 -0.0118518 -0.0113493 -0.0107815 -0.0102049 -0.00967598 -0.00919483 -0.00876143 -0.00837577 -0.00803787 -0.00774771 -0.0075053 -0.00731781 -0.00719239 -0.00712906 -0.0071278 -0.00718863 -0.00731153 -0.00749652 -0.00774359 -0.00802823 -0.00832592 -0.00863667 -0.00896048 -0.00929735 -0.00964727 -0.0100102 -0.0103863 -0.0107747 -0.0111747 -0.0115863 -0.0120096 -0.0124445 -0.012891 -0.0133492 -0.0138189 -0.0142664 -0.0146574 -0.0149921 -0.0152704 -0.0154923 -0.0156578 -0.015767 -0.0158199 -0.0158171 -0.0157596 -0.0156474 -0.0154804 -0.0152586 -0.0149821 -0.0146509 -0.0142649 -0.0138517 -0.0134387 -0.013026 -0.0126135 -0.0122013 -0.0117893 -0.0113776 -0.0109662 -0.0105367 -0.0100708 -0.00956848 -0.00902978 -0.00845468 -0.00784319 -0.00719529 -0.006511 -0.0058235 -0.00516598 -0.00453844 -0.00394089 -0.00337332 -0.00283574 -0.00232813 -0.00185051 -0.0014168 -0.00104091 -0.000722857 -0.000462629 -0.000260229 -0.000115657 -2.89143e-05 0 0 -2.40605e-06 -9.62419e-06 -2.16544e-05 -3.84968e-05 -6.01512e-05 -8.66177e-05 -0.000117896 -0.000153987 -0.000216032 -0.000325173 -0.000481409 -0.000684742 -0.000935171 -0.0012327 -0.00157732 -0.00196903 -0.00241103 -0.00290648 -0.00345539 -0.00405776 -0.00471358 -0.00542287 -0.00618561 -0.00700181 -0.00783954 -0.00866688 -0.00948382 -0.0102904 -0.0110865 -0.0118723 -0.0126477 -0.0134126 -0.014119 -0.0147185 -0.0152112 -0.015597 -0.0158759 -0.016048 -0.0161132 -0.0160716 -0.0159395 -0.015733 -0.0154523 -0.0150973 -0.014668 -0.0141644 -0.0135865 -0.0129344 -0.0122731 -0.0116677 -0.0111183 -0.0106249 -0.0101874 -0.0098059 -0.00948034 -0.00921074 -0.00899273 -0.00882195 -0.0086984 -0.00862208 -0.00859299 -0.00861114 -0.00867651 -0.00878911 -0.00891016 -0.00900087 -0.00906124 -0.00909128 -0.00909097 -0.00906033 -0.00899935 -0.00890803 -0.00880827 -0.00872194 -0.00864906 -0.00858962 -0.00854363 -0.00851107 -0.00849196 -0.00848629 -0.00848943 -0.00849674 -0.00850822 -0.00852387 -0.00854369 -0.00856768 -0.00859584 -0.00862817 -0.00866442 -0.00870436 -0.00874798 -0.00879528 -0.00884627 -0.00890093 -0.00895928 -0.00902131 -0.00908426 -0.00914539 -0.00920468 -0.00926215 -0.00931778 -0.00937158 -0.00942356 -0.0094737 -0.00947893 -0.00939616 -0.0092254 -0.00896665 -0.0086199 -0.00818515 -0.00766241 -0.00705168 -0.00640323 -0.00576737 -0.00514409 -0.00453338 -0.00393526 -0.00334972 -0.00277676 -0.00221637 -0.00169691 -0.00124671 -0.000865771 -0.000554093 -0.000311677 -0.000138523 -3.46308e-05 0 0 -4.46628e-06 -1.78651e-05 -4.01965e-05 -7.14605e-05 -0.000111657 -0.000160786 -0.000218848 -0.000285842 -0.000384142 -0.000536121 -0.000741779 -0.00100112 -0.00131413 -0.00168083 -0.0021012 -0.00257526 -0.00310513 -0.00369297 -0.00433878 -0.00504255 -0.00580428 -0.00662398 -0.00750164 -0.00843727 -0.00939603 -0.0103431 -0.0112784 -0.012202 -0.013114 -0.0140142 -0.0149027 -0.0157795 -0.0165888 -0.0172748 -0.0178376 -0.0182772 -0.0185935 -0.0187866 -0.0188564 -0.018803 -0.0186468 -0.0184084 -0.0180878 -0.017685 -0.0172 -0.0166327 -0.0159832 -0.0152515 -0.0145108 -0.0138344 -0.0132223 -0.0126745 -0.0121909 -0.0117717 -0.0114167 -0.011126 -0.0108778 -0.0106504 -0.0104437 -0.0102577 -0.0100926 -0.00994813 -0.00982445 -0.00972152 -0.00958159 -0.00934688 -0.00901741 -0.00859318 -0.00807417 -0.0074604 -0.00675187 -0.00594856 -0.00510548 -0.00427759 -0.0034649 -0.0026674 -0.00188511 -0.00111802 -0.000366122 0.000370574 0.00105118 0.00163479 0.00212141 0.00251104 0.00280368 0.00299934 0.003098 0.00309967 0.0030062 0.00281944 0.00253938 0.00216603 0.00169939 0.00113946 0.000486226 -0.000260295 -0.00105101 -0.00183683 -0.00261774 -0.00339376 -0.00416487 -0.00493108 -0.00569239 -0.00644879 -0.00712245 -0.0076355 -0.00798794 -0.00817977 -0.008211 -0.00808162 -0.00779164 -0.00734105 -0.00680258 -0.00624894 -0.00568015 -0.00509619 -0.00449707 -0.00388279 -0.00325334 -0.00260874 -0.00199732 -0.00146742 -0.00101904 -0.000652185 -0.000366854 -0.000163046 -4.07616e-05 0 0 -7.12729e-06 -2.85092e-05 -6.41456e-05 -0.000114037 -0.000178182 -0.000256582 -0.000349237 -0.000456147 -0.000600289 -0.000804643 -0.00106921 -0.00139398 -0.00177897 -0.00222417 -0.00272958 -0.0032952 -0.00392162 -0.00460941 -0.00535858 -0.00616912 -0.00704104 -0.00797433 -0.00896901 -0.0100251 -0.0111053 -0.0121726 -0.0132269 -0.0142683 -0.0152966 -0.0163121 -0.0173145 -0.018304 -0.019217 -0.0199899 -0.0206228 -0.0211157 -0.0214685 -0.0216813 -0.021754 -0.0216867 -0.0215048 -0.0212336 -0.0208732 -0.0204236 -0.0198848 -0.0192567 -0.0185394 -0.0177329 -0.0169181 -0.0161761 -0.0155068 -0.0149102 -0.0143863 -0.0139351 -0.0135567 -0.013251 -0.012973 -0.0126776 -0.0123649 -0.0120348 -0.0116873 -0.0113225 -0.0109403 -0.0105408 -0.0100425 -0.00936396 -0.00850518 -0.00746618 -0.00624695 -0.00484749 -0.0032678 -0.00150788 0.000333707 0.00215839 0.00396618 0.00575707 0.00753107 0.00928816 0.0110284 0.0127517 0.0143555 0.0157372 0.0168968 0.0178344 0.0185498 0.0190432 0.0193145 0.0193637 0.0191948 0.0188118 0.0182147 0.0174036 0.0163783 0.015139 0.0136856 0.0120181 0.0102481 0.008487 0.00673486 0.00499168 0.00325745 0.00153218 -0.000184133 -0.00189149 -0.00346726 -0.00478879 -0.00585609 -0.00666916 -0.007228 -0.0075326 -0.00758298 -0.00737912 -0.00702153 -0.0066107 -0.00614662 -0.0056293 -0.00505874 -0.00443494 -0.0037579 -0.00302762 -0.00231802 -0.00170304 -0.00118266 -0.000756905 -0.000425759 -0.000189226 -4.73065e-05 0 0 -1.03891e-05 -4.15563e-05 -9.35017e-05 -0.000166225 -0.000259727 -0.000374007 -0.000509065 -0.000664901 -0.000864473 -0.00113074 -0.0014637 -0.00186335 -0.00232969 -0.00286273 -0.00346245 -0.00412888 -0.00486049 -0.0056558 -0.0065148 -0.00743748 -0.00842386 -0.00947394 -0.0105877 -0.0117652 -0.0129674 -0.0141554 -0.0153293 -0.016489 -0.0176346 -0.018766 -0.0198832 -0.0209863 -0.0220037 -0.0228638 -0.0235668 -0.0241124 -0.0245009 -0.0247321 -0.0248061 -0.0247228 -0.0245133 -0.0242085 -0.0238084 -0.023313 -0.0227224 -0.0220364 -0.0212551 -0.0203786 -0.019495 -0.0186927 -0.0179717 -0.017332 -0.0167735 -0.0162963 -0.0159004 -0.0155858 -0.0152783 -0.0149037 -0.014462 -0.0139532 -0.0133773 -0.0127343 -0.0120242 -0.011247 -0.0102929 -0.00905209 -0.00752455 -0.00571028 -0.00360929 -0.00122157 0.00145286 0.00441403 0.00750928 0.010586 0.0136442 0.0166838 0.0197049 0.0227075 0.0256915 0.028657 0.0314234 0.0338105 0.035818 0.0374461 0.0386947 0.0395639 0.0400536 0.0401638 0.0399013 0.0392727 0.038278 0.0369173 0.0351906 0.0330978 0.0306389 0.027814 0.024813 0.0218261 0.0188531 0.0158942 0.0129492 0.0100182 0.00710121 0.00419821 0.00148665 -0.00085604 -0.00282986 -0.00443481 -0.00567089 -0.00653809 -0.00703643 -0.0071659 -0.00706009 -0.00685263 -0.00654351 -0.00613273 -0.00562029 -0.00500619 -0.00429043 -0.00347301 -0.00265902 -0.00195357 -0.00135664 -0.000868252 -0.000488392 -0.000217063 -5.42657e-05 0 0 -1.42516e-05 -5.70066e-05 -0.000128265 -0.000228026 -0.000356291 -0.000513059 -0.000698331 -0.000912105 -0.00117669 -0.00151441 -0.00192524 -0.0024092 -0.00296628 -0.00359649 -0.00429982 -0.00507628 -0.00592175 -0.00683213 -0.00780743 -0.00884764 -0.00995275 -0.0111228 -0.0123577 -0.0136576 -0.0149822 -0.0162916 -0.0175856 -0.0188644 -0.0201278 -0.021376 -0.0226088 -0.0238264 -0.0249489 -0.0258965 -0.0266694 -0.0272674 -0.0276906 -0.027939 -0.0280126 -0.0279114 -0.0276725 -0.0273332 -0.0268935 -0.0263533 -0.0257128 -0.0249718 -0.0241303 -0.0231885 -0.0222414 -0.0213843 -0.0206171 -0.0199399 -0.0193526 -0.0188552 -0.0184479 -0.0181304 -0.0177938 -0.0173286 -0.016735 -0.016013 -0.0151624 -0.0141834 -0.013076 -0.0118401 -0.0103328 -0.00841128 -0.00607551 -0.00332548 -0.000161204 0.00341733 0.00741011 0.0118171 0.0164212 0.0210052 0.0255691 0.0301128 0.0346364 0.0391399 0.0436233 0.0480865 0.0522551 0.0558546 0.058885 0.0613462 0.0632384 0.0645614 0.0653153 0.0655001 0.0651257 0.0642021 0.0627293 0.0607073 0.0581361 0.0550157 0.0513461 0.0471273 0.0426438 0.0381804 0.033737 0.0293137 0.0249103 0.020527 0.0161636 0.0118203 0.00773927 0.00416275 0.00109075 -0.00147672 -0.00353967 -0.00509809 -0.00615199 -0.00670136 -0.00691827 -0.00697475 -0.00687082 -0.00660647 -0.00618171 -0.00559652 -0.00485092 -0.0039449 -0.00302032 -0.00221901 -0.00154098 -0.000986226 -0.000554752 -0.000246557 -6.16391e-05 0 0 -1.8715e-05 -7.486e-05 -0.000168435 -0.00029944 -0.000467875 -0.00067374 -0.000917035 -0.00119776 -0.00153695 -0.00195565 -0.00245385 -0.00303155 -0.00368876 -0.00442547 -0.00524168 -0.0061374 -0.00710539 -0.00813842 -0.00923648 -0.0103996 -0.0116277 -0.0129209 -0.0142791 -0.0157023 -0.0171499 -0.0185811 -0.0199959 -0.0213943 -0.0227763 -0.024142 -0.0254913 -0.0268242 -0.0280525 -0.029088 -0.0299307 -0.0305806 -0.0310377 -0.031302 -0.0313735 -0.0312523 -0.0309822 -0.0306076 -0.0301284 -0.0295445 -0.028856 -0.0280628 -0.0271651 -0.0261627 -0.0251574 -0.0242508 -0.023443 -0.0227339 -0.0221235 -0.0216119 -0.021199 -0.0208849 -0.0205194 -0.0199524 -0.019184 -0.0182141 -0.0170428 -0.01567 -0.0140957 -0.01232 -0.0101622 -0.00744154 -0.00415807 -0.000311786 0.00409731 0.00906922 0.0146039 0.0207015 0.0270696 0.0334161 0.0397409 0.0460441 0.0523256 0.0585854 0.0648237 0.0710402 0.0768504 0.0818696 0.0860977 0.0895348 0.0921808 0.0940358 0.0950997 0.0953725 0.0948681 0.0936001 0.0915686 0.0887735 0.085215 0.0808928 0.0758072 0.069958 0.0637405 0.0575501 0.0513866 0.0452502 0.0391409 0.0330585 0.0270031 0.0209748 0.0152906 0.0102676 0.00590575 0.00220511 -0.000834342 -0.0032126 -0.00492966 -0.00598553 -0.00659605 -0.00697705 -0.00712854 -0.00705052 -0.00674299 -0.00620594 -0.00543938 -0.00444331 -0.00340191 -0.00249936 -0.00173567 -0.00111083 -0.000624841 -0.000277707 -6.94268e-05 0 0 -2.36557e-05 -9.46228e-05 -0.000212901 -0.000378491 -0.000591392 -0.000851605 -0.00115913 -0.00151396 -0.0019327 -0.00243192 -0.00301163 -0.00367183 -0.00441252 -0.00523369 -0.00613535 -0.0071175 -0.00816683 -0.00927003 -0.0104271 -0.011638 -0.0129028 -0.0142215 -0.0155941 -0.0170205 -0.0184648 -0.0198909 -0.021299 -0.0226889 -0.0240606 -0.0254142 -0.0267497 -0.0280671 -0.0292781 -0.0302945 -0.0311163 -0.0317436 -0.0321762 -0.0324143 -0.0324578 -0.0323067 -0.0320129 -0.0316285 -0.0311533 -0.0305874 -0.0299309 -0.0291836 -0.0283456 -0.0274169 -0.0264956 -0.0256796 -0.024969 -0.0243638 -0.023864 -0.0234695 -0.0231805 -0.0229968 -0.0227154 -0.0221333 -0.0212504 -0.0200668 -0.0185824 -0.0167972 -0.0147113 -0.0123246 -0.00941606 -0.00576447 -0.00136986 0.00376777 0.00964842 0.0162721 0.0236388 0.0317485 0.0402109 0.0486356 0.0570227 0.065372 0.0736837 0.0819578 0.0901941 0.0983928 0.106052 0.112671 0.118249 0.122786 0.126282 0.128737 0.130152 0.130526 0.129877 0.128224 0.125567 0.121906 0.11724 0.111571 0.104897 0.0972195 0.0890492 0.080898 0.0727661 0.0646532 0.0565596 0.0484851 0.0404298 0.0323936 0.0247891 0.0180286 0.0121122 0.0070399 0.00281167 -0.000572478 -0.00311255 -0.00480854 -0.00592549 -0.00672844 -0.0072174 -0.00739235 -0.00725331 -0.00680026 -0.00603322 -0.00495217 -0.00379151 -0.0027856 -0.00193444 -0.00123804 -0.000696399 -0.000309511 -7.73777e-05 0 0 -2.89503e-05 -0.000115801 -0.000260553 -0.000463205 -0.000723758 -0.00104221 -0.00141857 -0.00185282 -0.00235139 -0.00292069 -0.00356072 -0.00427148 -0.00505297 -0.00590519 -0.00682814 -0.00782182 -0.00886148 -0.00992235 -0.0110044 -0.0121078 -0.0132323 -0.014378 -0.015545 -0.0167332 -0.0179214 -0.0190882 -0.0202338 -0.0213581 -0.0224611 -0.0235428 -0.0246033 -0.0256424 -0.0265891 -0.0273722 -0.0279918 -0.0284477 -0.0287401 -0.0288689 -0.0288341 -0.0286357 -0.0283348 -0.0279924 -0.0276085 -0.0271831 -0.0267163 -0.0262079 -0.0256581 -0.0250668 -0.0245085 -0.0240579 -0.0237149 -0.0234795 -0.0233517 -0.0233315 -0.023419 -0.023614 -0.0236424 -0.0232297 -0.0223759 -0.0210811 -0.0193453 -0.0171685 -0.0145505 -0.0114916 -0.00772939 -0.0030017 0.00269148 0.00935015 0.0169743 0.0255639 0.0351191 0.0456397 0.0566017 0.0674809 0.0782774 0.0889912 0.0996222 0.110171 0.120636 0.131019 0.140703 0.149074 0.15613 0.161873 0.166302 0.169416 0.171217 0.171704 0.170901 0.168831 0.165496 0.160894 0.155026 0.147892 0.139492 0.129825 0.119516 0.109187 0.0988395 0.0884721 0.0780853 0.0676791 0.0572535 0.0468085 0.036883 0.0280159 0.0202072 0.0134569 0.00776495 0.0031314 -0.000443762 -0.00296054 -0.00473865 -0.00609783 -0.00703809 -0.00755942 -0.00766181 -0.00734528 -0.00660982 -0.00545543 -0.00417681 -0.00306868 -0.00213103 -0.00136386 -0.000767169 -0.000340964 -8.5241e-05 0 0 -3.45989e-05 -0.000138395 -0.00031139 -0.000553582 -0.000864971 -0.00124556 -0.00169534 -0.00221433 -0.00279302 -0.00342195 -0.00410111 -0.0048305 -0.00561012 -0.00643997 -0.00732005 -0.00825036 -0.00918933 -0.0100954 -0.0109685 -0.0118087 -0.012616 -0.0133904 -0.0141319 -0.0148405 -0.0155196 -0.016173 -0.0168005 -0.0174021 -0.0179779 -0.0185278 -0.0190519 -0.0195502 -0.0199856 -0.0203212 -0.0205571 -0.0206931 -0.0207294 -0.0206658 -0.0205025 -0.0202394 -0.0199479 -0.0196994 -0.019494 -0.0193316 -0.0192122 -0.0191359 -0.0191026 -0.0191123 -0.0191963 -0.0193858 -0.0196806 -0.0200809 -0.0205866 -0.0211978 -0.0219144 -0.0227365 -0.0233001 -0.0232414 -0.0225604 -0.0212571 -0.0193315 -0.0167837 -0.0136135 -0.00982095 -0.00510219 0.000846777 0.00802596 0.0164354 0.026075 0.0369448 0.0490448 0.062375 0.0762419 0.089952 0.103505 0.116902 0.130141 0.143224 0.156149 0.168918 0.180804 0.191078 0.199743 0.206797 0.21224 0.216073 0.218295 0.218907 0.217939 0.215422 0.211355 0.205738 0.198572 0.189856 0.17959 0.167775 0.155141 0.142418 0.129607 0.116707 0.103718 0.0906406 0.0774744 0.0642196 0.0515726 0.0402296 0.0301908 0.0214561 0.0140255 0.00789904 0.0030767 -0.00044152 -0.00303552 -0.00508523 -0.00659062 -0.00755172 -0.00796851 -0.007841 -0.00716919 -0.00595307 -0.00455782 -0.0033486 -0.00232542 -0.00148827 -0.000837151 -0.000372067 -9.30167e-05 0 0 -4.06013e-05 -0.000162405 -0.000365412 -0.000649621 -0.00101503 -0.00146165 -0.00198947 -0.00259849 -0.0032576 -0.00393571 -0.0046328 -0.00534889 -0.00608396 -0.00683802 -0.00761108 -0.00840312 -0.00915039 -0.00978912 -0.0103193 -0.010741 -0.0110541 -0.0112587 -0.0113547 -0.0113423 -0.0112596 -0.0111451 -0.0109989 -0.0108208 -0.0106109 -0.0103692 -0.0100957 -0.00979035 -0.00946751 -0.00914146 -0.0088122 -0.00847972 -0.00814403 -0.00780513 -0.00746301 -0.00711767 -0.00685216 -0.00674951 -0.00680971 -0.00703278 -0.0074187 -0.00796747 -0.00867911 -0.0095536 -0.0105589 -0.0116631 -0.0128662 -0.0141681 -0.0155689 -0.0170685 -0.0186669 -0.0203642 -0.0216887 -0.0221686 -0.021804 -0.0205948 -0.0185411 -0.0156428 -0.0119 -0.00731268 -0.00153446 0.00578096 0.0146336 0.0250234 0.0369504 0.0504146 0.065416 0.0819545 0.0991317 0.116049 0.132706 0.149103 0.16524 0.181117 0.196734 0.212091 0.226353 0.238685 0.249086 0.257557 0.264097 0.268707 0.271387 0.272136 0.270993 0.267996 0.263144 0.256438 0.247877 0.237462 0.225193 0.21107 0.195924 0.180591 0.165068 0.149357 0.133458 0.117369 0.101092 0.0846269 0.0688576 0.0546696 0.0420629 0.0310375 0.0215933 0.0137304 0.00744883 0.00274851 -0.000816114 -0.00369062 -0.005875 -0.00736926 -0.0081734 -0.00828743 -0.007711