<?xml version="1.0"?> 
<VTKFile type="StructuredGrid" version="0.1"> 
<StructuredGrid WholeExtent="0 128 0 128 0 0"> 
<Piece Extent="0 128 0 128 0 0"> 
<PointData>
<DataArray type="Float32" Name="u" format="ascii" NumberOfComponents="1"> 
0 0 0 0 0 0 0 0 0 0 0 0 0 0 0 0 0 0 0 0 0 0 0 0 0 0 0 0 0 0 0 0 0 0 0 0 0 0 0 0 0 0 0 0 0 0 0 0 0 0 0 0 0 0 0 0 0 0 0 0 0 0 0 0 0 0 0 0 0 0 0 0 0 0 0 0 0 0 0 0 0 0 0 0 0 0 0 0 0 0 0 0 0 0 0 0 0 0 0 0 0 0 0 0 0 0 0 0 0 0 0 0 0 0 0 0 0 0 0 0 0 0 0 0 0 0 0 0 0 0 3.54693e-08 1.41877e-07 3.19224e-07 5.6751e-07 8.86734e-07 1.2769e-06 1.738e-06 2.27004e-06 2.99688e-06 4.04237e-06 5.40653e-06 7.08935e-06 9.09082e-06 1.1411e-05 1.40497e-05 1.70072e-05 2.02047e-05 2.35638e-05 2.70843e-05 3.07663e-05 3.46099e-05 3.86149e-05 4.27814e-05 4.71094e-05 5.15425e-05 5.6024e-05 6.05539e-05 6.51324e-05 6.97593e-05 7.44347e-05 7.91586e-05 8.3931e-05 8.83979e-05 9.22055e-05 9.53537e-05 9.78425e-05 9.9672e-05 0.000100842 0.000101353 0.000101204 0.000100515 9.9405e-05 9.78733e-05 9.59202e-05 9.35457e-05 9.07498e-05 8.75325e-05 8.38938e-05 8.01148e-05 7.64766e-05 7.29792e-05 6.96225e-05 6.64065e-05 6.33314e-05 6.0397e-05 5.76034e-05 5.3861e-05 4.80802e-05 4.02612e-05 3.04037e-05 1.8508e-05 4.57392e-06 -1.13985e-05 -2.94092e-05 -4.9313e-05 -7.09645e-05 -9.43637e-05 -0.000119511 -0.000146405 -0.000175048 -0.000205438 -0.000237575 -0.000269817 -0.000300519 -0.000329681 -0.000357303 -0.000383386 -0.000407929 -0.000430932 -0.000452395 -0.000471797 -0.000488616 -0.000502853 -0.000514506 -0.000523577 -0.000530064 -0.000533969 -0.000535291 -0.000534007 -0.000530092 -0.000523546 -0.00051437 -0.000502564 -0.000488127 -0.000471059 -0.000451361 -0.000429636 -0.000406488 -0.000381916 -0.000355921 -0.000328503 -0.000299661 -0.000269395 -0.000237706 -0.000206345 -0.000177061 -0.000149855 -0.000124727 -0.000101677 -8.07049e-05 -6.18106e-05 -4.49942e-05 -3.03443e-05 -1.79497e-05 -7.81037e-06 7.37521e-08 5.70263e-06 9.07628e-06 1.01947e-05 9.05784e-06 6.93491e-06 5.09503e-06 3.53822e-06 2.26446e-06 1.27376e-06 5.66115e-07 1.41529e-07 0 0 1.41877e-07 5.6751e-07 1.2769e-06 2.27004e-06 3.54693e-06 5.10759e-06 6.95199e-06 9.08015e-06 1.19875e-05 1.61695e-05 2.16261e-05 2.83574e-05 3.63633e-05 4.56438e-05 5.6199e-05 6.80288e-05 8.08189e-05 9.4255e-05 0.000108337 0.000123065 0.000138439 0.00015446 0.000171126 0.000188438 0.00020617 0.000224096 0.000242216 0.00026053 0.000279037 0.000297739 0.000316634 0.000335724 0.000353592 0.000368822 0.000381415 0.00039137 0.000398688 0.000403369 0.000405412 0.000404817 0.000402062 0.00039762 0.000391493 0.000383681 0.000374183 0.000362999 0.00035013 0.000335575 0.000320459 0.000305906 0.000291917 0.00027849 0.000265626 0.000253326 0.000241588 0.000230414 0.000215444 0.000192321 0.000161045 0.000121615 7.4032e-05 1.82957e-05 -4.5594e-05 -0.000117637 -0.000197252 -0.000283858 -0.000377455 -0.000478042 -0.000585621 -0.00070019 -0.00082175 -0.000950301 -0.00107927 -0.00120208 -0.00131872 -0.00142921 -0.00153354 -0.00163172 -0.00172373 -0.00180958 -0.00188719 -0.00195447 -0.00201141 -0.00205802 -0.00209431 -0.00212026 -0.00213588 -0.00214117 -0.00213603 -0.00212037 -0.00209418 -0.00205748 -0.00201025 -0.00195251 -0.00188424 -0.00180545 -0.00171855 -0.00162595 -0.00152767 -0.00142369 -0.00131401 -0.00119864 -0.00107758 -0.000950826 -0.000825379 -0.000708244 -0.000599421 -0.000498909 -0.000406708 -0.00032282 -0.000247242 -0.000179977 -0.000121377 -7.17989e-05 -3.12415e-05 2.95008e-07 2.28105e-05 3.63051e-05 4.07787e-05 3.62314e-05 2.77396e-05 2.03801e-05 1.41529e-05 9.05784e-06 5.09503e-06 2.26446e-06 5.66115e-07 0 0 3.19224e-07 1.2769e-06 2.87302e-06 5.10759e-06 7.9806e-06 1.14921e-05 1.5642e-05 2.04303e-05 2.69719e-05 3.63814e-05 4.86588e-05 6.38041e-05 8.18174e-05 0.000102699 0.000126448 0.000153065 0.000181843 0.000212074 0.000243759 0.000276897 0.000311489 0.000347534 0.000385033 0.000423985 0.000463882 0.000504216 0.000544985 0.000586192 0.000627834 0.000669913 0.000712428 0.000755379 0.000795581 0.000829849 0.000858183 0.000880583 0.000897048 0.000907579 0.000912176 0.000910839 0.000904639 0.000894645 0.00088086 0.000863282 0.000841911 0.000816748 0.000787792 0.000755044 0.000721033 0.00068829 0.000656812 0.000626602 0.000597659 0.000569983 0.000543573 0.00051843 0.000484749 0.000432722 0.00036235 0.000273634 0.000166572 4.11653e-05 -0.000102586 -0.000264683 -0.000443817 -0.00063868 -0.000849273 -0.0010756 -0.00131765 -0.00157543 -0.00184894 -0.00213818 -0.00242835 -0.00270467 -0.00296713 -0.00321573 -0.00345047 -0.00367136 -0.00387839 -0.00407156 -0.00424617 -0.00439755 -0.00452567 -0.00463055 -0.00471219 -0.00477058 -0.00480572 -0.00481762 -0.00480606 -0.00477082 -0.00471192 -0.00462933 -0.00452307 -0.00439314 -0.00423953 -0.00406225 -0.00386673 -0.00365839 -0.00343725 -0.00320329 -0.00295652 -0.00269695 -0.00242456 -0.00213936 -0.0018571 -0.00159355 -0.0013487 -0.00112254 -0.000915094 -0.000726344 -0.000556295 -0.000404948 -0.000273099 -0.000161548 -7.02933e-05 6.63769e-07 5.13237e-05 8.16865e-05 9.17521e-05 8.15205e-05 6.24142e-05 4.58553e-05 3.1844e-05 2.03801e-05 1.14638e-05 5.09503e-06 1.27376e-06 0 0 5.6751e-07 2.27004e-06 5.10759e-06 9.08015e-06 1.41877e-05 2.04303e-05 2.7808e-05 3.63206e-05 4.795e-05 6.4678e-05 8.65045e-05 0.00011343 0.000145453 0.000182575 0.000224796 0.000272115 0.000323276 0.00037702 0.000433349 0.000492261 0.000553758 0.000617838 0.000684503 0.000753751 0.000824679 0.000896383 0.000968863 0.00104212 0.00111615 0.00119096 0.00126654 0.0013429 0.00141437 0.00147529 0.00152566 0.00156548 0.00159475 0.00161347 0.00162165 0.00161927 0.00160825 0.00159048 0.00156597 0.00153472 0.00149673 0.001452 0.00140052 0.0013423 0.00128184 0.00122363 0.00116767 0.00111396 0.0010625 0.0010133 0.000966352 0.000921654 0.000861776 0.000769284 0.000644179 0.00048646 0.000296128 7.31827e-05 -0.000182376 -0.000470548 -0.000789008 -0.00113543 -0.00150982 -0.00191217 -0.00234248 -0.00280076 -0.003287 -0.0038012 -0.00431707 -0.0048083 -0.0052749 -0.00571685 -0.00613418 -0.00652686 -0.00689491 -0.00723832 -0.00754875 -0.00781786 -0.00804564 -0.0082321 -0.00837723 -0.00848103 -0.00854351 -0.00856466 -0.00854411 -0.00848147 -0.00837674 -0.00822992 -0.00804102 -0.00781003 -0.00753695 -0.00722178 -0.00687418 -0.00650381 -0.00611066 -0.00569474 -0.00525604 -0.00479457 -0.00431032 -0.0038033 -0.00330152 -0.00283298 -0.00239768 -0.00199563 -0.00162683 -0.00129128 -0.00098897 -0.000719907 -0.000485509 -0.000287196 -0.000124966 1.18003e-06 9.12422e-05 0.00014522 0.000163115 0.000144925 0.000110959 8.15205e-05 5.66115e-05 3.62314e-05 2.03801e-05 9.05784e-06 2.26446e-06 0 0 8.86734e-07 3.54693e-06 7.9806e-06 1.41877e-05 2.21683e-05 3.19224e-05 4.34499e-05 5.6751e-05 7.49219e-05 0.000101059 0.000135163 0.000177234 0.000227271 0.000285274 0.000351244 0.00042518 0.000505118 0.000589094 0.000677107 0.000769158 0.000865246 0.000965372 0.00106954 0.00117774 0.00128856 0.0014006 0.00151385 0.00162831 0.00174398 0.00186087 0.00197897 0.00209827 0.00220995 0.00230514 0.00238384 0.00244606 0.0024918 0.00252105 0.00253382 0.00253011 0.00251288 0.00248513 0.00244683 0.002398 0.00233864 0.00226874 0.00218831 0.00209735 0.00200287 0.00191192 0.00182448 0.00174056 0.00166016 0.00158328 0.00150993 0.00144008 0.00134652 0.00120201 0.00100653 0.000760094 0.0004627 0.000114348 -0.000284962 -0.000735231 -0.00123283 -0.00177411 -0.00235909 -0.00298776 -0.00366013 -0.00437619 -0.00513594 -0.00593938 -0.00674542 -0.00751297 -0.00824203 -0.00893259 -0.00958465 -0.0101982 -0.0107733 -0.0113099 -0.0117949 -0.0122154 -0.0125713 -0.0128627 -0.0130894 -0.0132516 -0.0133492 -0.0133823 -0.0133502 -0.0132523 -0.0130887 -0.0128593 -0.0125641 -0.0122032 -0.0117765 -0.011284 -0.0107409 -0.0101622 -0.00954791 -0.00889803 -0.00821257 -0.00749152 -0.00673488 -0.00594266 -0.00515862 -0.00442653 -0.00374638 -0.00311818 -0.00254193 -0.00201762 -0.00154526 -0.00112485 -0.000758608 -0.000448743 -0.000195259 1.8438e-06 0.000142566 0.000226907 0.000254867 0.000226446 0.000173373 0.000127376 8.84555e-05 5.66115e-05 3.1844e-05 1.41529e-05 3.53822e-06 0 0 1.2769e-06 5.10759e-06 1.14921e-05 2.04303e-05 3.19224e-05 4.59683e-05 6.25679e-05 8.17214e-05 0.000107888 0.000145525 0.000194635 0.000255217 0.00032727 0.000410794 0.000505791 0.000612259 0.00072737 0.000848295 0.000975035 0.00110759 0.00124595 0.00139014 0.00154013 0.00169594 0.00185553 0.00201686 0.00217994 0.00234477 0.00251134 0.00267965 0.00284971 0.00302152 0.00318232 0.0033194 0.00343273 0.00352233 0.00358819 0.00363032 0.00364871 0.00364336 0.00361855 0.00357858 0.00352344 0.00345313 0.00336764 0.00326699 0.00315117 0.00302018 0.00288413 0.00275316 0.00262725 0.00250641 0.00239064 0.00227993 0.00217429 0.00207372 0.001939 0.00173089 0.0014494 0.00109453 0.000666288 0.000164661 -0.000410346 -0.00105873 -0.00177527 -0.00255472 -0.00339709 -0.00430238 -0.00527059 -0.00630171 -0.00739575 -0.00855271 -0.00971341 -0.0108187 -0.0118685 -0.0128629 -0.0138019 -0.0146854 -0.0155135 -0.0162862 -0.0169847 -0.0175902 -0.0181027 -0.0185222 -0.0188488 -0.0190823 -0.0192229 -0.0192705 -0.0192242 -0.0190833 -0.0188477 -0.0185173 -0.0180923 -0.0175726 -0.0169581 -0.016249 -0.0154669 -0.0146336 -0.013749 -0.0128132 -0.0118261 -0.0107878 -0.00969823 -0.00855743 -0.00742841 -0.0063742 -0.00539479 -0.00449018 -0.00366038 -0.00290538 -0.00222518 -0.00161979 -0.0010924 -0.00064619 -0.000281173 2.65507e-06 0.000205295 0.000326746 0.000367008 0.000326082 0.000249657 0.000183421 0.000127376 8.15205e-05 4.58553e-05 2.03801e-05 5.09503e-06 0 0 1.738e-06 6.95199e-06 1.5642e-05 2.7808e-05 4.34499e-05 6.25679e-05 8.51619e-05 0.000111232 0.000146847 0.000198076 0.00026492 0.000347378 0.00044545 0.000559137 0.000688438 0.000833353 0.000990032 0.00115462 0.00132713 0.00150755 0.00169588 0.00189213 0.00209629 0.00230836 0.00252558 0.00274517 0.00296714 0.00319149 0.00341821 0.0036473 0.00387877 0.00411262 0.0043315 0.00451807 0.00467233 0.00479428 0.00488393 0.00494127 0.00496629 0.00495901 0.00492525 0.00487085 0.00479579 0.00470009 0.00458374 0.00444674 0.00428909 0.0041108 0.00392563 0.00374735 0.00357598 0.0034115 0.00325392 0.00310324 0.00295945 0.00282257 0.00263919 0.00235593 0.0019728 0.00148978 0.000906892 0.000224122 -0.000558526 -0.00144105 -0.00241634 -0.00347726 -0.00462382 -0.00585602 -0.00717385 -0.00857733 -0.0100664 -0.0116412 -0.013221 -0.0147254 -0.0161544 -0.0175079 -0.0187859 -0.0199885 -0.0211157 -0.0221674 -0.0231181 -0.0239422 -0.0246398 -0.0252108 -0.0256553 -0.0259732 -0.0261645 -0.0262293 -0.0261663 -0.0259745 -0.0256538 -0.0252041 -0.0246256 -0.0239182 -0.0230819 -0.0221167 -0.0210522 -0.0199179 -0.0187139 -0.0174401 -0.0160966 -0.0146834 -0.0132004 -0.0116476 -0.0101109 -0.00867599 -0.0073429 -0.00611163 -0.00498218 -0.00395454 -0.00302872 -0.00220472 -0.00148687 -0.000879537 -0.000382708 3.61385e-06 0.000279429 0.000444738 0.000499539 0.000443834 0.00033981 0.000249657 0.000173373 0.000110959 6.24142e-05 2.77396e-05 6.93491e-06 0 0 2.27004e-06 9.08015e-06 2.04303e-05 3.63206e-05 5.6751e-05 8.17214e-05 0.000111232 0.000145282 0.0001918 0.000258712 0.000346018 0.000453718 0.000581813 0.000730301 0.000899184 0.00108846 0.0012931 0.00150808 0.00173339 0.00196904 0.00221503 0.00247135 0.00273801 0.003015 0.00329872 0.00358553 0.00387545 0.00416847 0.0044646 0.00476382 0.00506615 0.00537158 0.00565747 0.00590115 0.00610264 0.00626192 0.00637901 0.0064539 0.00648659 0.00647708 0.00643298 0.00636192 0.00626389 0.00613889 0.00598692 0.00580799 0.00560208 0.0053692 0.00512735 0.0048945 0.00467067 0.00445584 0.00425002 0.00405321 0.00386541 0.00368662 0.0034471 0.00307713 0.00257671 0.00194584 0.00118451 0.000292731 -0.000729504 -0.00188219 -0.00315603 -0.00454173 -0.00603928 -0.00764868 -0.00936993 -0.011203 -0.013148 -0.0152048 -0.0172683 -0.0192332 -0.0210996 -0.0228674 -0.0245367 -0.0261074 -0.0275796 -0.0289533 -0.030195 -0.0312714 -0.0321826 -0.0329284 -0.0335089 -0.0339241 -0.034174 -0.0342586 -0.0341764 -0.0339259 -0.033507 -0.0329197 -0.0321641 -0.0312401 -0.0301478 -0.0288871 -0.0274967 -0.0260152 -0.0244427 -0.022779 -0.0210242 -0.0191783 -0.0172413 -0.0152132 -0.0132061 -0.0113319 -0.00959073 -0.00798254 -0.00650733 -0.00516511 -0.00395588 -0.00287963 -0.00194204 -0.00114878 -0.000499864 4.72013e-06 0.000364969 0.000580882 0.000652459 0.000579702 0.000443834 0.000326082 0.000226446 0.000144925 8.15205e-05 3.62314e-05 9.05784e-06 0 0 2.90192e-06 1.16077e-05 2.61173e-05 4.64307e-05 7.2548e-05 0.000104469 0.000142194 0.000185723 0.000243526 0.000324075 0.00042737 0.00055341 0.000702196 0.000873727 0.001068 0.00128503 0.00151878 0.00176326 0.00201847 0.0022844 0.00256105 0.00284843 0.00314653 0.00345535 0.00377207 0.00409383 0.00442065 0.00475253 0.00508945 0.00543143 0.00577846 0.00613055 0.00646062 0.00674163 0.00697356 0.00715642 0.00729021 0.00737493 0.00741058 0.00739715 0.00734429 0.00726163 0.00714916 0.00700689 0.00683482 0.00663294 0.00640126 0.00613978 0.00586825 0.00560644 0.00535434 0.00511195 0.00487927 0.0046563 0.00444304 0.0042395 0.00396204 0.00352703 0.00293448 0.00218438 0.00127674 0.000211545 -0.00101119 -0.00239147 -0.00391348 -0.00556137 -0.00733516 -0.00923483 -0.0112604 -0.0134119 -0.0156892 -0.0180925 -0.0205041 -0.0228065 -0.0249997 -0.0270837 -0.0290585 -0.0309241 -0.0326806 -0.0343278 -0.0358211 -0.0371155 -0.038211 -0.0391077 -0.0398056 -0.0403046 -0.0406048 -0.0407061 -0.0406069 -0.0403054 -0.0398016 -0.0390955 -0.0381871 -0.0370764 -0.0357635 -0.0342483 -0.0325818 -0.0308152 -0.0289485 -0.0269816 -0.0249146 -0.0227475 -0.0204802 -0.0181128 -0.0157703 -0.0135776 -0.0115349 -0.00964201 -0.00789903 -0.00630594 -0.00486274 -0.00356942 -0.00243739 -0.00147802 -0.000691334 -7.73164e-05 0.000364029 0.000632702 0.000728703 0.000652031 0.000499211 0.000366768 0.0002547 0.000163008 9.16919e-05 4.0752e-05 1.0188e-05 0 0 3.66255e-06 1.46502e-05 3.29629e-05 5.86007e-05 9.15636e-05 0.000131852 0.000179465 0.000234403 0.000302805 0.000390809 0.000498417 0.000625626 0.000772438 0.000938853 0.00112487 0.00133049 0.00154927 0.00177477 0.00200699 0.00224593 0.0024916 0.00274398 0.00300308 0.0032689 0.00354276 0.00382597 0.00411853 0.00442045 0.00473172 0.00505234 0.00538232 0.00572164 0.00604136 0.00631248 0.00653501 0.00670895 0.00683431 0.00691107 0.00693925 0.00691883 0.00686171 0.00677977 0.00667301 0.00654143 0.00638503 0.00620381 0.00599777 0.00576691 0.00552729 0.005295 0.00507001 0.00485235 0.004642 0.00443896 0.00424324 0.00405484 0.0037833 0.00333816 0.00271942 0.00192708 0.000961152 -0.000178378 -0.0014915 -0.00297823 -0.00460779 -0.00634944 -0.00820316 -0.010169 -0.0122469 -0.0144368 -0.0167389 -0.019153 -0.0215772 -0.0239096 -0.0261501 -0.0282988 -0.0303556 -0.0323205 -0.0341936 -0.0359748 -0.0376017 -0.0390117 -0.040205 -0.0411815 -0.0419411 -0.0424839 -0.0428099 -0.0429192 -0.04281 -0.0424809 -0.0419319 -0.041163 -0.0401742 -0.0389654 -0.0375367 -0.0358881 -0.0340886 -0.0322075 -0.0302447 -0.0282002 -0.0260739 -0.023866 -0.0215764 -0.019205 -0.0168599 -0.0146489 -0.012572 -0.0106292 -0.00882046 -0.00714587 -0.00560538 -0.00419899 -0.00295242 -0.00189136 -0.00101581 -0.000325786 0.000178726 0.000497723 0.000631204 0.000579169 0.000443427 0.000325783 0.000226238 0.000144792 8.14457e-05 3.61981e-05 9.04952e-06 0 0 4.55192e-06 1.82077e-05 4.09672e-05 7.28306e-05 0.000113798 0.000163869 0.000223044 0.000291323 0.000369636 0.000458914 0.000559158 0.000670367 0.000792541 0.00092568 0.00106978 0.00122485 0.00138457 0.00154261 0.00169897 0.00185366 0.00200667 0.002158 0.00230766 0.00245564 0.00261078 0.00278193 0.00296908 0.00317223 0.00339139 0.00362655 0.00387771 0.00414488 0.00439967 0.0046137 0.00478699 0.00491952 0.0050113 0.00506232 0.0050726 0.00504212 0.00498525 0.00491636 0.00483545 0.00474252 0.00463757 0.00452059 0.0043916 0.00425058 0.00410447 0.00396017 0.0038177 0.00367704 0.00353821 0.0034012 0.00326601 0.00313264 0.00291088 0.00251051 0.00193153 0.00117395 0.000237759 -0.000877038 -0.00217044 -0.00364245 -0.00523898 -0.00690592 -0.00864329 -0.0104511 -0.0123293 -0.0142779 -0.016297 -0.0183864 -0.0204878 -0.0225427 -0.024551 -0.0265127 -0.0284279 -0.0302966 -0.0321187 -0.0338942 -0.0355369 -0.0369603 -0.0381646 -0.0391496 -0.0399155 -0.0404621 -0.0407896 -0.0408978 -0.0407858 -0.0404526 -0.039898 -0.0391223 -0.0381252 -0.036907 -0.0354674 -0.0338066 -0.0320173 -0.0301921 -0.0283312 -0.0264345 -0.0245021 -0.0225338 -0.0205297 -0.0184899 -0.0164749 -0.0145457 -0.012702 -0.010944 -0.00927163 -0.00768489 -0.00618379 -0.00476833 -0.00348712 -0.00238878 -0.0014733 -0.000740689 -0.00019094 0.000175944 0.000359962 0.000361116 0.000276479 0.000203128 0.000141061 9.0279e-05 5.07819e-05 2.25697e-05 5.64244e-06 0 0 5.57003e-06 2.22801e-05 5.01303e-05 8.91205e-05 0.000139251 0.000200521 0.000272931 0.000356482 0.000444019 0.00052839 0.000609594 0.000687632 0.000762503 0.000834208 0.000902747 0.000968119 0.00102468 0.00106677 0.0010944 0.00110756 0.00110626 0.00109049 0.00106027 0.00101557 0.000976149 0.000961728 0.000972308 0.00100789 0.00106848 0.00115406 0.00126465 0.00140025 0.00153556 0.00164531 0.0017295 0.00178812 0.00182119 0.00182869 0.00181063 0.00176701 0.0017149 0.00167139 0.00163647 0.00161015 0.00159242 0.00158329 0.00158275 0.00159081 0.00159977 0.00160197 0.00159739 0.00158604 0.00156791 0.00154301 0.00151134 0.0014729 0.00134478 0.00104409 0.000570821 -7.50224e-05 -0.000893441 -0.00188443 -0.003048 -0.00438415 -0.00580704 -0.00723083 -0.00865554 -0.0100812 -0.0115077 -0.0129351 -0.0143635 -0.0157928 -0.0172358 -0.0187057 -0.0202022 -0.0217255 -0.0232755 -0.0248523 -0.0264558 -0.0280861 -0.0296267 -0.0309612 -0.0320898 -0.0330123 -0.0337288 -0.0342392 -0.0345437 -0.0346421 -0.0345343 -0.0342203 -0.0336999 -0.0329733 -0.0320404 -0.0309011 -0.0295556 -0.0280038 -0.0263677 -0.0247691 -0.0232081 -0.0216848 -0.020199 -0.0187509 -0.0173403 -0.0159673 -0.0146154 -0.013268 -0.011925 -0.0105865 -0.00925252 -0.00792302 -0.00659799 -0.00527745 -0.00404151 -0.0029703 -0.0020638 -0.00132202 -0.000744969 -0.000332635 -8.50219e-05 -2.12921e-06 -1.63018e-06 -1.19768e-06 -8.31723e-07 -5.32303e-07 -2.9942e-07 -1.33076e-07 -3.32689e-08 0 0 6.71689e-06 2.68676e-05 6.0452e-05 0.00010747 0.000167922 0.000241808 0.000329128 0.000429881 0.000525955 0.000599236 0.000649725 0.000677422 0.000682326 0.000664437 0.000623756 0.000560282 0.00046959 0.000347254 0.000193273 7.64799e-06 -0.000209621 -0.000458535 -0.000739093 -0.0010513 -0.00136114 -0.00163464 -0.00187179 -0.00207258 -0.00223703 -0.00236512 -0.00245686 -0.00251225 -0.00255097 -0.00259271 -0.00263747 -0.00268524 -0.00273603 -0.00278983 -0.00284666 -0.00290649 -0.00294933 -0.00295513 -0.00292391 -0.00285567 -0.00275039 -0.00260809 -0.00242877 -0.00221242 -0.00198678 -0.00177962 -0.00159091 -0.00142068 -0.00126891 -0.0011356 -0.00102076 -0.000924384 -0.000914993 -0.0010611 -0.00136272 -0.00181983 -0.00243245 -0.00320057 -0.00412419 -0.00520331 -0.00631196 -0.00732417 -0.00823992 -0.00905923 -0.00978208 -0.0104085 -0.0109384 -0.011372 -0.0118212 -0.0123985 -0.0131038 -0.0139371 -0.0148984 -0.0159877 -0.017205 -0.0185503 -0.019871 -0.0210144 -0.0219805 -0.0227693 -0.0233809 -0.0238152 -0.0240722 -0.0241519 -0.0240555 -0.023784 -0.0233375 -0.022716 -0.0219195 -0.0209479 -0.0198013 -0.0184797 -0.0171398 -0.0159384 -0.0148754 -0.0139509 -0.0131648 -0.0125172 -0.0120081 -0.0116374 -0.0112812 -0.0108158 -0.0102409 -0.00955671 -0.00876315 -0.00786024 -0.00684797 -0.00572634 -0.00461558 -0.0036359 -0.00278731 -0.00206979 -0.00148336 -0.00102801 -0.000703749 -0.000510566 -0.000390902 -0.000287193 -0.00019944 -0.000127641 -7.17983e-05 -3.19104e-05 -7.97759e-06 0 0 7.99249e-06 3.197e-05 7.19324e-05 0.00012788 0.000199812 0.00028773 0.000391632 0.000511519 0.000615443 0.000671453 0.000679551 0.000639736 0.000552007 0.000416366 0.000232812 1.34542e-06 -0.000280686 -0.000615934 -0.0010044 -0.00144608 -0.00194098 -0.00248909 -0.00309042 -0.00374497 -0.0044011 -0.00500718 -0.00556321 -0.00606919 -0.00652512 -0.006931 -0.00728683 -0.00759261 -0.00785993 -0.00810036 -0.0083139 -0.00850057 -0.00866035 -0.00879324 -0.00889926 -0.00897839 -0.00900744 -0.00896321 -0.00884572 -0.00865494 -0.00839089 -0.00805357 -0.00764297 -0.00715909 -0.00665521 -0.00618458 -0.00574721 -0.00534309 -0.00497224 -0.00463464 -0.0043303 -0.00405921 -0.00386845 -0.00380507 -0.00386908 -0.00406048 -0.00437927 -0.00482544 -0.005399 -0.00609995 -0.00675376 -0.00718592 -0.00739642 -0.00738526 -0.00715245 -0.00669798 -0.00602185 -0.00512406 -0.00424407 -0.00362132 -0.00325582 -0.00314757 -0.00329657 -0.00370282 -0.00436631 -0.00528705 -0.00626993 -0.00711986 -0.00783684 -0.00842085 -0.00887191 -0.00919001 -0.00937516 -0.00942734 -0.00934932 -0.00914384 -0.00881091 -0.00835051 -0.00776265 -0.00704734 -0.00620456 -0.00523433 -0.00433376 -0.00369999 -0.00333301 -0.00323283 -0.00339944 -0.00383285 -0.00453305 -0.00550005 -0.00647251 -0.00718908 -0.00764977 -0.00785458 -0.00780351 -0.00749656 -0.00693372 -0.00611501 -0.00520933 -0.0043856 -0.00364382 -0.002984 -0.00240612 -0.00191019 -0.00149622 -0.00116419 -0.000891336 -0.000654859 -0.000454763 -0.000291049 -0.000163715 -7.27621e-05 -1.81905e-05 0 0 9.39684e-06 3.75873e-05 8.45715e-05 0.000150349 0.000234921 0.000338286 0.000460445 0.000601398 0.000712483 0.000745041 0.000699071 0.000574574 0.000371549 8.99964e-05 -0.000270084 -0.000708692 -0.00122615 -0.0018228 -0.00249862 -0.00325362 -0.00408781 -0.00500117 -0.00599372 -0.00706545 -0.00814372 -0.00915589 -0.010102 -0.0109819 -0.0117958 -0.0125436 -0.0132253 -0.0138408 -0.0143913 -0.0148776 -0.0152998 -0.0156579 -0.0159518 -0.0161815 -0.0163472 -0.0164487 -0.0164594 -0.0163529 -0.0161289 -0.0157877 -0.0153291 -0.0147531 -0.0140598 -0.0132492 -0.0124055 -0.0116129 -0.0108715 -0.0101812 -0.00954209 -0.0089541 -0.00841727 -0.00793158 -0.00751558 -0.00718781 -0.00694827 -0.00679697 -0.00673389 -0.00675905 -0.00687244 -0.00707406 -0.00713244 -0.0068161 -0.00612505 -0.00505928 -0.00361879 -0.00180359 0.000386324 0.00295096 0.00549571 0.00762599 0.00934181 0.0106431 0.01153 0.0120024 0.0120603 0.0117038 0.0111766 0.0107224 0.0103413 0.0100332 0.00979821 0.00963629 0.00954742 0.00953162 0.00958415 0.00970026 0.00987997 0.0101233 0.0104302 0.0108006 0.0112347 0.0117324 0.0120505 0.0119461 0.011419 0.0104694 0.00909709 0.00730222 0.00508475 0.00244466 -0.000189174 -0.00238792 -0.00415157 -0.00548013 -0.0063736 -0.00683198 -0.00685526 -0.00644345 -0.00582276 -0.00521939 -0.00463335 -0.00406463 -0.00351324 -0.00297917 -0.00246243 -0.00196301 -0.00150293 -0.0011042 -0.000766802 -0.000490753 -0.000276049 -0.000122688 -3.06721e-05 0 0 1.09299e-05 4.37197e-05 9.83694e-05 0.000174879 0.000273248 0.000393477 0.000535566 0.000699515 0.000817076 0.00082 0.000708287 0.000481937 0.00014095 -0.000314673 -0.000884933 -0.00156983 -0.00236681 -0.00327333 -0.00428939 -0.00541498 -0.00665012 -0.00799478 -0.00944899 -0.0110127 -0.012589 -0.0140808 -0.015488 -0.0168108 -0.0180491 -0.0192029 -0.0202721 -0.0212569 -0.0221451 -0.0229245 -0.0235952 -0.0241571 -0.0246103 -0.0249547 -0.0251904 -0.0253174 -0.0253053 -0.025124 -0.0247736 -0.0242539 -0.0235649 -0.0227068 -0.0216794 -0.0204828 -0.0192376 -0.0180646 -0.0169638 -0.015935 -0.0149785 -0.014094 -0.0132817 -0.0125415 -0.0118564 -0.0112093 -0.0106003 -0.0100293 -0.00949632 -0.00900139 -0.0085445 -0.00812564 -0.00744798 -0.0062147 -0.00442579 -0.00208127 0.000818884 0.00427466 0.00828606 0.0128531 0.0173981 0.0213434 0.0246891 0.027435 0.0295813 0.031128 0.0320749 0.0324222 0.0324685 0.0325123 0.0325538 0.0325928 0.0326295 0.0326637 0.0326956 0.032725 0.0327449 0.0327483 0.0327351 0.0327053 0.0326589 0.032596 0.0325165 0.0324204 0.032013 0.0309998 0.0293807 0.0271557 0.0243248 0.020888 0.0168453 0.0121968 0.00756875 0.00358772 0.000253684 -0.00243337 -0.00447342 -0.00586649 -0.00661258 -0.00671167 -0.00645587 -0.00613727 -0.00575588 -0.0053117 -0.00480472 -0.00423495 -0.00360238 -0.00290703 -0.00222569 -0.0016352 -0.00113556 -0.000726756 -0.0004088 -0.000181689 -4.54223e-05 0 0 1.14409e-05 4.57636e-05 0.000102968 0.000183054 0.000286022 0.000411872 0.000560604 0.000732217 0.000842362 0.00080669 0.0006252 0.000297892 -0.000175234 -0.000794178 -0.00155894 -0.00246952 -0.00351594 -0.00468822 -0.00598637 -0.00741039 -0.00896027 -0.010636 -0.0124376 -0.0143651 -0.0163103 -0.0181652 -0.0199298 -0.021604 -0.0231879 -0.0246814 -0.0260846 -0.0273975 -0.0285905 -0.0296343 -0.0305287 -0.0312738 -0.0318697 -0.0323162 -0.0326134 -0.0327614 -0.0327263 -0.0324746 -0.0320062 -0.0313212 -0.0304195 -0.0293011 -0.0279661 -0.0264144 -0.0248098 -0.0233159 -0.0219329 -0.0206606 -0.0194992 -0.0184485 -0.0175086 -0.0166795 -0.0158802 -0.01503 -0.0141286 -0.0131762 -0.0121728 -0.0111183 -0.0100128 -0.00885618 -0.00728008 -0.00491598 -0.00176389 0.00217618 0.00690425 0.0124203 0.0187243 0.0258164 0.0328871 0.0391271 0.0445365 0.0491152 0.0528632 0.0557806 0.0578673 0.0591234 0.0599138 0.0606035 0.0611925 0.0616809 0.0620686 0.0623557 0.0625421 0.0626278 0.0626033 0.0624591 0.062195 0.0618112 0.0613076 0.0606842 0.059941 0.0590781 0.0577391 0.055568 0.0525647 0.0487291 0.0440614 0.0385614 0.0322293 0.0250649 0.0179369 0.0117137 0.00639533 0.00198179 -0.00152692 -0.00413081 -0.00582986 -0.00662408 -0.00688209 -0.00697251 -0.00689534 -0.00665058 -0.00623823 -0.0056583 -0.00491077 -0.00399565 -0.00305917 -0.00224755 -0.0015608 -0.000998913 -0.000561888 -0.000249728 -6.2432e-05 0 0 9.77885e-06 3.91154e-05 8.80096e-05 0.000156462 0.000244471 0.000352039 0.000479164 0.000625846 0.000701484 0.000615473 0.000367813 -4.14949e-05 -0.000612451 -0.00134506 -0.00223931 -0.00329521 -0.00448681 -0.00578815 -0.00719924 -0.00872007 -0.0103506 -0.012091 -0.013941 -0.0159008 -0.0178811 -0.0197927 -0.0216356 -0.0234098 -0.0251152 -0.0267519 -0.0283199 -0.0298191 -0.0311968 -0.0324001 -0.033429 -0.0342835 -0.0349636 -0.0354694 -0.0358007 -0.0359576 -0.0359036 -0.0356023 -0.0350535 -0.0342573 -0.0332138 -0.0319228 -0.0303844 -0.0285986 -0.02678 -0.025143 -0.0236877 -0.0224141 -0.0213221 -0.0204118 -0.0196831 -0.0191361 -0.0185765 -0.0178101 -0.0168368 -0.0156566 -0.0142695 -0.0126756 -0.0108748 -0.00886719 -0.00620841 -0.0024542 0.00239543 0.00834049 0.015381 0.0235169 0.0327482 0.0430749 0.0533868 0.0625733 0.0706347 0.0775707 0.0833815 0.0880671 0.0916274 0.0940624 0.0958203 0.0973493 0.0986493 0.0997204 0.100563 0.101176 0.10156 0.101715 0.10163 0.101291 0.1007 0.0998565 0.0987599 0.0974107 0.0958086 0.0939539 0.0914142 0.0877574 0.0829836 0.0770926 0.0700846 0.0619594 0.0527172 0.0423579 0.0320509 0.0229659 0.0151027 0.00846139 0.00304196 -0.00115561 -0.0041313 -0.00588511 -0.00687487 -0.00755838 -0.00793565 -0.00800667 -0.00777145 -0.00722998 -0.00638227 -0.00522831 -0.00400293 -0.00294093 -0.00204231 -0.00130708 -0.000735232 -0.00032677 -8.16924e-05 0 0 5.9438e-06 2.37752e-05 5.34942e-05 9.51008e-05 0.000148595 0.000213977 0.000291246 0.000380403 0.00039444 0.000246348 -6.3873e-05 -0.000536222 -0.0011707 -0.00196731 -0.00292604 -0.00404691 -0.00527942 -0.00657311 -0.00792798 -0.00934402 -0.0108212 -0.0123596 -0.0139592 -0.0156199 -0.0173014 -0.0189633 -0.0206055 -0.022228 -0.0238309 -0.0254142 -0.0269778 -0.0285218 -0.0299639 -0.031222 -0.0322961 -0.0331862 -0.0338922 -0.0344142 -0.0347522 -0.0349061 -0.0348373 -0.0345071 -0.0339154 -0.0330623 -0.0319478 -0.0305718 -0.0289344 -0.0270355 -0.0251483 -0.0235459 -0.0222282 -0.0211953 -0.0204472 -0.0199838 -0.0198052 -0.0199114 -0.0199452 -0.0195497 -0.0187247 -0.0174703 -0.0157865 -0.0136733 -0.0111307 -0.00815867 -0.00423297 0.00117065 0.00805219 0.0164117 0.026249 0.0375644 0.0503576 0.0646287 0.0788971 0.0916821 0.102984 0.112802 0.121136 0.127987 0.133355 0.137239 0.140188 0.14275 0.144924 0.146711 0.148111 0.149124 0.149749 0.149987 0.149824 0.149245 0.148251 0.146841 0.145016 0.142775 0.140119 0.137048 0.133038 0.127568 0.120637 0.112246 0.102394 0.091082 0.0783091 0.0640756 0.0499109 0.0373443 0.0263758 0.0170055 0.00923322 0.00305911 -0.00151689 -0.00449476 -0.0064342 -0.00789488 -0.0088768 -0.00937996 -0.00940436 -0.00895 -0.00801689 -0.00660501 -0.00505696 -0.00371532 -0.00258008 -0.00165125 -0.00092883 -0.000412813 -0.000103203 0 0 -6.42466e-08 -2.56986e-07 -5.78219e-07 -1.02795e-06 -1.60616e-06 -2.31288e-06 -3.14808e-06 -4.11178e-06 -7.87689e-05 -0.000300685 -0.000669858 -0.00118629 -0.00184998 -0.00266093 -0.00361914 -0.0047246 -0.00589378 -0.00704311 -0.00817259 -0.00928224 -0.010372 -0.011442 -0.0124921 -0.0135224 -0.0145712 -0.0156768 -0.0168394 -0.0180589 -0.0193352 -0.0206684 -0.0220585 -0.0235056 -0.0248919 -0.0261001 -0.02713 -0.0279818 -0.0286553 -0.0291507 -0.0294679 -0.0296068 -0.0295273 -0.029189 -0.028592 -0.0277361 -0.0266215 -0.0252481 -0.023616 -0.021725 -0.0199147 -0.0185245 -0.0175544 -0.0170044 -0.0168745 -0.0171647 -0.017875 -0.0190053 -0.0199864 -0.0202488 -0.0197925 -0.0186175 -0.0167238 -0.0141114 -0.0107804 -0.00673061 -0.00135377 0.00595855 0.0152064 0.0263897 0.0395085 0.0545628 0.0715525 0.0904778 0.109418 0.126453 0.141583 0.154808 0.166127 0.175542 0.18305 0.188654 0.193017 0.196805 0.200017 0.202654 0.204715 0.2062 0.20711 0.207444 0.207186 0.20632 0.204847 0.202765 0.200076 0.196778 0.192873 0.18836 0.182611 0.175 0.165526 0.15419 0.140991 0.125929 0.109005 0.090218 0.0715167 0.0548489 0.0402146 0.027614 0.0170469 0.00851333 0.00201336 -0.00245304 -0.00556009 -0.007982 -0.00971879 -0.0107704 -0.011137 -0.0108184 -0.00981462 -0.00812575 -0.00622128 -0.00457073 -0.00317412 -0.00203144 -0.00114268 -0.000507859 -0.000126965 0 0 -8.2453e-06 -3.29812e-05 -7.42077e-05 -0.000131925 -0.000206132 -0.000296831 -0.00040402 -0.000527699 -0.000718143 -0.00102562 -0.00145014 -0.0019917 -0.0026503 -0.00342593 -0.0043186 -0.00532831 -0.00632988 -0.00719814 -0.00793309 -0.00853473 -0.00900306 -0.00933808 -0.00953979 -0.00960819 -0.00969038 -0.00993344 -0.0103374 -0.0109022 -0.0116279 -0.0125145 -0.013562 -0.0147704 -0.0159807 -0.0170342 -0.0179307 -0.0186703 -0.0192531 -0.0196789 -0.0199478 -0.0200598 -0.0199737 -0.0196481 -0.0190832 -0.0