<?xml version="1.0"?> 
<VTKFile type="StructuredGrid" version="0.1"> 
<StructuredGrid WholeExtent="0 128 0 128 0 0"> 
<Piece Extent="0 128 0 128 0 0"> 
<PointData>
<DataArray type="Float32" Name="u" format="ascii" NumberOfComponents="1"> 
0 0 0 0 0 0 0 0 0 0 0 0 0 0 0 0 0 0 0 0 0 0 0 0 0 0 0 0 0 0 0 0 0 0 0 0 0 0 0 0 0 0 0 0 0 0 0 0 0 0 0 0 0 0 0 0 0 0 0 0 0 0 0 0 0 0 0 0 0 0 0 0 0 0 0 0 0 0 0 0 0 0 0 0 0 0 0 0 0 0 0 0 0 0 0 0 0 0 0 0 0 0 0 0 0 0 0 0 0 0 0 0 0 0 0 0 0 0 0 0 0 0 0 0 0 0 0 0 0 0 3.00499e-08 1.202e-07 2.7045e-07 4.80799e-07 7.51249e-07 1.0818e-06 1.47245e-06 1.9232e-06 2.1883e-06 2.02201e-06 1.42432e-06 3.95243e-07 -1.06523e-06 -2.9571e-06 -5.28036e-06 -8.03501e-06 -1.12553e-05 -1.49753e-05 -1.91951e-05 -2.39147e-05 -2.91342e-05 -3.48534e-05 -4.10723e-05 -4.77911e-05 -5.47055e-05 -6.15112e-05 -6.82083e-05 -7.47968e-05 -8.12767e-05 -8.76479e-05 -9.39105e-05 -0.000100064 -0.000105736 -0.000110553 -0.000114514 -0.000117619 -0.000119869 -0.000121263 -0.000121802 -0.000121486 -0.000120409 -0.000118669 -0.000116264 -0.000113196 -0.000109463 -0.000105066 -0.000100005 -9.42801e-05 -8.84963e-05 -8.3259e-05 -7.85682e-05 -7.44239e-05 -7.08261e-05 -6.77748e-05 -6.52699e-05 -6.33116e-05 -6.21235e-05 -6.19295e-05 -6.27297e-05 -6.45239e-05 -6.73122e-05 -7.10946e-05 -7.58711e-05 -8.16417e-05 -8.83022e-05 -9.57483e-05 -0.00010398 -0.000112997 -0.0001228 -0.000133389 -0.000144763 -0.000156922 -0.000169584 -0.000182465 -0.000195565 -0.000208884 -0.000222423 -0.00023618 -0.000250156 -0.000264351 -0.000277762 -0.000289386 -0.000299224 -0.000307274 -0.000313537 -0.000318014 -0.000320703 -0.000321605 -0.000320767 -0.000318234 -0.000314007 -0.000308086 -0.00030047 -0.00029116 -0.000280155 -0.000267456 -0.000253998 -0.000240718 -0.000227615 -0.000214689 -0.00020194 -0.000189368 -0.000176973 -0.000164756 -0.000152772 -0.000141079 -0.000129675 -0.000118561 -0.000107738 -9.72044e-05 -8.6961e-05 -7.70077e-05 -6.75174e-05 -5.86628e-05 -5.0444e-05 -4.28611e-05 -3.5914e-05 -2.96026e-05 -2.39271e-05 -1.88873e-05 -1.44606e-05 -1.06241e-05 -7.37787e-06 -4.72183e-06 -2.65603e-06 -1.18046e-06 -2.95115e-07 0 0 1.202e-07 4.80799e-07 1.0818e-06 1.9232e-06 3.00499e-06 4.32719e-06 5.88979e-06 7.69279e-06 8.7532e-06 8.08803e-06 5.69729e-06 1.58097e-06 -4.26092e-06 -1.18284e-05 -2.11214e-05 -3.214e-05 -4.5021e-05 -5.99012e-05 -7.67805e-05 -9.5659e-05 -0.000116537 -0.000139413 -0.000164289 -0.000191165 -0.000218822 -0.000246045 -0.000272833 -0.000299187 -0.000325107 -0.000350592 -0.000375642 -0.000400258 -0.000422945 -0.000442211 -0.000458054 -0.000470476 -0.000479476 -0.000485053 -0.000487209 -0.000485942 -0.000481637 -0.000474675 -0.000465057 -0.000452782 -0.000437851 -0.000420264 -0.00040002 -0.00037712 -0.000353985 -0.000333036 -0.000314273 -0.000297696 -0.000283304 -0.000271099 -0.00026108 -0.000253246 -0.000248494 -0.000247718 -0.000250919 -0.000258096 -0.000269249 -0.000284379 -0.000303485 -0.000326567 -0.000353209 -0.000382993 -0.00041592 -0.000451989 -0.0004912 -0.000533554 -0.000579051 -0.000627689 -0.000678337 -0.000729861 -0.000782262 -0.000835538 -0.00088969 -0.000944719 -0.00100062 -0.0010574 -0.00111105 -0.00115755 -0.00119689 -0.0012291 -0.00125415 -0.00127205 -0.00128281 -0.00128642 -0.00128307 -0.00127294 -0.00125603 -0.00123234 -0.00120188 -0.00116464 -0.00112062 -0.00106982 -0.00101599 -0.000962872 -0.000910459 -0.000858754 -0.000807759 -0.000757472 -0.000707894 -0.000659024 -0.000611089 -0.000564314 -0.000518699 -0.000474245 -0.000430951 -0.000388817 -0.000347844 -0.000308031 -0.000270069 -0.000234651 -0.000201776 -0.000171444 -0.000143656 -0.00011841 -9.57083e-05 -7.55493e-05 -5.78425e-05 -4.24965e-05 -2.95115e-05 -1.88873e-05 -1.06241e-05 -4.72183e-06 -1.18046e-06 0 0 2.7045e-07 1.0818e-06 2.43405e-06 4.32719e-06 6.76124e-06 9.73618e-06 1.3252e-05 1.73088e-05 1.96947e-05 1.81981e-05 1.28189e-05 3.55719e-06 -9.58707e-06 -2.66139e-05 -4.75232e-05 -7.23151e-05 -0.000101297 -0.000134778 -0.000172756 -0.000215233 -0.000262207 -0.00031368 -0.000369651 -0.00043012 -0.000492349 -0.000553601 -0.000613875 -0.000673171 -0.00073149 -0.000788831 -0.000845194 -0.00090058 -0.000951627 -0.000994974 -0.00103062 -0.00105857 -0.00107882 -0.00109137 -0.00109622 -0.00109337 -0.00108368 -0.00106802 -0.00104638 -0.00101876 -0.000985165 -0.000945594 -0.000900046 -0.000848521 -0.000796467 -0.000749331 -0.000707114 -0.000669815 -0.000637435 -0.000609973 -0.000587429 -0.000569804 -0.000559112 -0.000557366 -0.000564567 -0.000580715 -0.00060581 -0.000639852 -0.00068284 -0.000734776 -0.00079472 -0.000861734 -0.000935819 -0.00101697 -0.0011052 -0.0012005 -0.00130286 -0.0014123 -0.00152626 -0.00164219 -0.00176009 -0.00187996 -0.0020018 -0.00212562 -0.0022514 -0.00237916 -0.00249986 -0.00260448 -0.00269301 -0.00276547 -0.00282184 -0.00286212 -0.00288633 -0.00289445 -0.0028869 -0.00286411 -0.00282607 -0.00277277 -0.00270423 -0.00262044 -0.0025214 -0.0024071 -0.00228599 -0.00216646 -0.00204853 -0.0019322 -0.00181746 -0.00170431 -0.00159276 -0.0014828 -0.00137495 -0.00126971 -0.00116707 -0.00106705 -0.00096964 -0.000874839 -0.000782649 -0.000693069 -0.000607656 -0.000527965 -0.000453996 -0.00038575 -0.000323226 -0.000266423 -0.000215344 -0.000169986 -0.000130146 -9.56171e-05 -6.64008e-05 -4.24965e-05 -2.39043e-05 -1.06241e-05 -2.65603e-06 0 0 4.80799e-07 1.9232e-06 4.32719e-06 7.69279e-06 1.202e-05 1.73088e-05 2.35592e-05 3.07711e-05 3.50128e-05 3.23521e-05 2.27892e-05 6.32389e-06 -1.70437e-05 -4.73135e-05 -8.44857e-05 -0.00012856 -0.000180084 -0.000239605 -0.000307122 -0.000382636 -0.000466146 -0.000557654 -0.000657158 -0.000764658 -0.000875288 -0.00098418 -0.00109133 -0.00119675 -0.00130043 -0.00140237 -0.00150257 -0.00160103 -0.00169178 -0.00176884 -0.00183222 -0.0018819 -0.0019179 -0.00194021 -0.00194884 -0.00194377 -0.00192655 -0.0018987 -0.00186023 -0.00181113 -0.00175141 -0.00168106 -0.00160008 -0.00150848 -0.00141594 -0.00133214 -0.00125709 -0.00119078 -0.00113322 -0.0010844 -0.00104432 -0.00101299 -0.000993976 -0.000990873 -0.00100367 -0.00103238 -0.001077 -0.00113751 -0.00121394 -0.00130627 -0.00141284 -0.00153197 -0.00166368 -0.00180795 -0.0019648 -0.00213422 -0.0023162 -0.00251076 -0.00271335 -0.00291945 -0.00312905 -0.00334215 -0.00355876 -0.00377888 -0.00400249 -0.00422962 -0.0044442 -0.00463018 -0.00478758 -0.00491638 -0.0050166 -0.00508822 -0.00513125 -0.00514569 -0.00513227 -0.00509175 -0.00502412 -0.00492937 -0.00480752 -0.00465855 -0.00448248 -0.0042793 -0.00406397 -0.00385149 -0.00364184 -0.00343502 -0.00323104 -0.00302989 -0.00283157 -0.0026361 -0.00244436 -0.00225726 -0.0020748 -0.00189698 -0.0017238 -0.00155527 -0.00139138 -0.00123212 -0.00108028 -0.000938605 -0.000807105 -0.000685778 -0.000574623 -0.000473642 -0.000382833 -0.000302197 -0.00023137 -0.000169986 -0.000118046 -7.55493e-05 -4.24965e-05 -1.88873e-05 -4.72183e-06 0 0 7.51249e-07 3.00499e-06 6.76124e-06 1.202e-05 1.87812e-05 2.7045e-05 3.68112e-05 4.80799e-05 5.47075e-05 5.05502e-05 3.5608e-05 9.88107e-06 -2.66307e-05 -7.39274e-05 -0.000132009 -0.000200875 -0.000281381 -0.000374382 -0.000479878 -0.000597869 -0.000728354 -0.000871334 -0.00102681 -0.00119478 -0.00136764 -0.00153778 -0.00170521 -0.00186992 -0.00203192 -0.0021912 -0.00234776 -0.00250161 -0.00264341 -0.00276382 -0.00286284 -0.00294048 -0.00299672 -0.00303158 -0.00304506 -0.00303714 -0.00301023 -0.00296672 -0.00290661 -0.00282989 -0.00273657 -0.00262665 -0.00250013 -0.002357 -0.00221241 -0.00208148 -0.00196421 -0.0018606 -0.00177065 -0.00169437 -0.00163175 -0.00158279 -0.00155309 -0.00154824 -0.00156824 -0.0016131 -0.00168281 -0.00177737 -0.00189678 -0.00204104 -0.00220755 -0.00239371 -0.0025995 -0.00282493 -0.00307 -0.00333471 -0.00361907 -0.00392306 -0.00423961 -0.00456163 -0.00488914 -0.00522211 -0.00556057 -0.00590449 -0.0062539 -0.00660878 -0.00694406 -0.00723466 -0.00748059 -0.00768185 -0.00783843 -0.00795034 -0.00801757 -0.00804013 -0.00801918 -0.00795586 -0.00785018 -0.00770214 -0.00751175 -0.00727899 -0.00700388 -0.0066864 -0.00634996 -0.00601795 -0.00569037 -0.00536722 -0.00504849 -0.0047342 -0.00442433 -0.0041189 -0.00381931 -0.00352696 -0.00324187 -0.00296403 -0.00269344 -0.00243011 -0.00217403 -0.00192519 -0.00168793 -0.00146657 -0.0012611 -0.00107153 -0.000897849 -0.000740065 -0.000598177 -0.000472183 -0.000361515 -0.000265603 -0.000184447 -0.000118046 -6.64008e-05 -2.95115e-05 -7.37787e-06 0 0 1.0818e-06 4.32719e-06 9.73618e-06 1.73088e-05 2.7045e-05 3.89447e-05 5.30081e-05 6.92351e-05 7.87788e-05 7.27923e-05 5.12756e-05 1.42287e-05 -3.83483e-05 -0.000106455 -0.000190093 -0.00028926 -0.000405189 -0.000539111 -0.000691024 -0.000860931 -0.00104883 -0.00125472 -0.0014786 -0.00172048 -0.0019694 -0.0022144 -0.0024555 -0.00269269 -0.00292596 -0.00315532 -0.00338078 -0.00360232 -0.00380651 -0.0039799 -0.00412249 -0.00423428 -0.00431528 -0.00436548 -0.00438488 -0.00437348 -0.00433473 -0.00427208 -0.00418551 -0.00407504 -0.00394066 -0.00378238 -0.00360018 -0.00339408 -0.00318587 -0.00299733 -0.00282846 -0.00267926 -0.00254974 -0.00243989 -0.00234972 -0.00227922 -0.00223645 -0.00222946 -0.00225827 -0.00232286 -0.00242324 -0.00255941 -0.00273136 -0.0029391 -0.00317888 -0.00344694 -0.00374328 -0.0040679 -0.0044208 -0.00480199 -0.00521145 -0.0056492 -0.00610504 -0.00656875 -0.00704036 -0.00751984 -0.00800721 -0.00850247 -0.00900561 -0.00951664 -0.00999944 -0.0104179 -0.0107721 -0.0110619 -0.0112873 -0.0114485 -0.0115453 -0.0115778 -0.0115476 -0.0114564 -0.0113043 -0.0110911 -0.0108169 -0.0104817 -0.0100856 -0.00962842 -0.00914394 -0.00866585 -0.00819413 -0.00772879 -0.00726983 -0.00681725 -0.00637104 -0.00593122 -0.0054998 -0.00507883 -0.0046683 -0.00426821 -0.00387856 -0.00349936 -0.0031306 -0.00277228 -0.00243062 -0.00211186 -0.00181599 -0.001543 -0.0012929 -0.00106569 -0.000861375 -0.000679944 -0.000520582 -0.000382469 -0.000265603 -0.000169986 -9.56171e-05 -4.24965e-05 -1.06241e-05 0 0 1.47245e-06 5.88979e-06 1.3252e-05 2.35592e-05 3.68112e-05 5.30081e-05 7.21499e-05 9.42366e-05 0.000107227 9.90784e-05 6.97918e-05 1.93669e-05 -5.21963e-05 -0.000144898 -0.000258737 -0.000393716 -0.000551508 -0.000733789 -0.000940561 -0.00117182 -0.00142757 -0.00170781 -0.00201254 -0.00234177 -0.00268057 -0.00301405 -0.00334221 -0.00366504 -0.00398256 -0.00429475 -0.00460161 -0.00490316 -0.00518108 -0.00541708 -0.00561117 -0.00576333 -0.00587358 -0.0059419 -0.00596831 -0.0059528 -0.00590005 -0.00581477 -0.00569695 -0.00554658 -0.00536368 -0.00514823 -0.00490025 -0.00461973 -0.00433632 -0.00407969 -0.00384984 -0.00364677 -0.00347048 -0.00332096 -0.00319823 -0.00310227 -0.00304405 -0.00303455 -0.00307375 -0.00316167 -0.0032983 -0.00348364 -0.00371769 -0.00400045 -0.00432681 -0.00469166 -0.00509502 -0.00553686 -0.0060172 -0.00653604 -0.00709337 -0.00768919 -0.00830963 -0.0089408 -0.00958271 -0.0102353 -0.0108987 -0.0115728 -0.0122576 -0.0129532 -0.0136104 -0.0141799 -0.014662 -0.0150564 -0.0153633 -0.0155827 -0.0157144 -0.0157587 -0.0157176 -0.0155935 -0.0153864 -0.0150962 -0.014723 -0.0142668 -0.0137276 -0.0131053 -0.0124459 -0.0117952 -0.0111531 -0.0105197 -0.00989504 -0.00927903 -0.0086717 -0.00807304 -0.00748584 -0.00691285 -0.00635407 -0.0058095 -0.00527915 -0.00476301 -0.00426109 -0.00377338 -0.00330835 -0.00287448 -0.00247176 -0.00210019 -0.00175978 -0.00145053 -0.00117243 -0.000925479 -0.00070857 -0.000520582 -0.000361515 -0.00023137 -0.000130146 -5.78425e-05 -1.44606e-05 0 0 1.9232e-06 7.69279e-06 1.73088e-05 3.07711e-05 4.80799e-05 6.92351e-05 9.42366e-05 0.000123085 0.000140051 0.000129408 9.11566e-05 2.52955e-05 -6.81747e-05 -0.000189254 -0.000337943 -0.000514241 -0.000720336 -0.000958419 -0.00122849 -0.00153054 -0.00186459 -0.00223061 -0.00262863 -0.00305863 -0.00350115 -0.00393672 -0.00436533 -0.004787 -0.00520171 -0.00560946 -0.00601027 -0.00640412 -0.00676712 -0.00707537 -0.00732887 -0.00752762 -0.00767161 -0.00776085 -0.00779534 -0.00777508 -0.00770619 -0.0075948 -0.00744091 -0.00724452 -0.00700562 -0.00672422 -0.00640033 -0.00603393 -0.00566377 -0.00532858 -0.00502837 -0.00476313 -0.00453287 -0.00433758 -0.00417727 -0.00405194 -0.0039759 -0.00396349 -0.0040147 -0.00412953 -0.00430798 -0.00455006 -0.00485575 -0.00522507 -0.00565134 -0.00612789 -0.00665471 -0.00723182 -0.0078592 -0.00853687 -0.00926481 -0.010043 -0.0108534 -0.0116778 -0.0125162 -0.0133686 -0.014235 -0.0151155 -0.01601 -0.0169185 -0.0177768 -0.0185207 -0.0191503 -0.0196655 -0.0200664 -0.0203529 -0.020525 -0.0205827 -0.0205291 -0.020367 -0.0200965 -0.0197175 -0.0192301 -0.0186342 -0.0179299 -0.0171172 -0.0162559 -0.015406 -0.0145673 -0.0137401 -0.0129241 -0.0121195 -0.0113263 -0.0105444 -0.00977742 -0.00902902 -0.00829919 -0.00758792 -0.00689522 -0.00622108 -0.0055655 -0.00492849 -0.00432111 -0.00375442 -0.00322842 -0.00274311 -0.00229849 -0.00189457 -0.00153133 -0.00120879 -0.000925479 -0.000679944 -0.000472183 -0.000302197 -0.000169986 -7.55493e-05 -1.88873e-05 0 0 2.05932e-06 8.23728e-06 1.85339e-05 3.29491e-05 5.1483e-05 7.41355e-05 0.000100907 0.000131797 0.000147473 0.000128603 7.51873e-05 -1.27743e-05 -0.000135282 -0.000292335 -0.000483934 -0.00071008 -0.000973329 -0.00127624 -0.00161881 -0.00200105 -0.00242295 -0.00288451 -0.00338573 -0.00392661 -0.0044831 -0.00503116 -0.00557077 -0.00610194 -0.00662467 -0.00713896 -0.00764481 -0.00814222 -0.00860078 -0.00899008 -0.00931012 -0.00956091 -0.00974243 -0.0098547 -0.00989772 -0.00987147 -0.00978401 -0.00964338 -0.00944957 -0.0092026 -0.00890245 -0.00854913 -0.00814264 -0.00768298 -0.00721876 -0.00679862 -0.00642253 -0.00609052 -0.00580257 -0.00555869 -0.00535887 -0.00520312 -0.00510602 -0.00508215 -0.00513152 -0.00525412 -0.00544996 -0.00571903 -0.00606134 -0.00647688 -0.00695505 -0.00748526 -0.00806749 -0.00870177 -0.00938807 -0.0101264 -0.0109168 -0.0117592 -0.0126371 -0.013534 -0.0144499 -0.0153847 -0.0163386 -0.0173114 -0.0183033 -0.0193141 -0.0202707 -0.0211001 -0.0218023 -0.0223772 -0.0228248 -0.0231452 -0.0233383 -0.0234042 -0.0233462 -0.0231678 -0.0228689 -0.0224497 -0.02191 -0.0212499 -0.0204694 -0.0195685 -0.0186149 -0.0176763 -0.0167528 -0.0158444 -0.014951 -0.0140727 -0.0132094 -0.0123612 -0.0115266 -0.0107043 -0.00989432 -0.0090966 -0.00831115 -0.00753798 -0.00677708 -0.00602847 -0.0053085 -0.00463355 -0.00400362 -0.00341871 -0.00287882 -0.00238395 -0.0019341 -0.00152927 -0.00117085 -0.000860217 -0.000597373 -0.000382319 -0.000215054 -9.55796e-05 -2.38949e-05 0 0 1.5061e-06 6.02438e-06 1.35549e-05 2.40975e-05 3.76524e-05 5.42194e-05 7.37987e-05 9.63901e-05 9.97119e-05 6.14823e-05 -1.82989e-05 -0.000139631 -0.000302515 -0.000506951 -0.000752938 -0.00104048 -0.00137214 -0.00175049 -0.00217555 -0.00264729 -0.00316573 -0.00373087 -0.0043427 -0.00500123 -0.00567839 -0.00634612 -0.00700442 -0.00765328 -0.00829272 -0.00892273 -0.0095433 -0.0101544 -0.0107182 -0.0111965 -0.0115894 -0.011897 -0.0121191 -0.0122558 -0.0123072 -0.0122731 -0.0121644 -0.0119917 -0.0117551 -0.0114546 -0.0110901 -0.0106617 -0.0101694 -0.00961317 -0.00905188 -0.00854444 -0.00809085 -0.00769112 -0.00734523 -0.0070532 -0.00681502 -0.00663068 -0.00650841 -0.00645639 -0.00647463 -0.00656314 -0.0067219 -0.00695092 -0.00725021 -0.00761975 -0.0080405 -0.00849341 -0.00897848 -0.0094957 -0.0100451 -0.0106266 -0.0112403 -0.0118861 -0.0125615 -0.0132637 -0.0139929 -0.0147489 -0.0155317 -0.0163415 -0.0171781 -0.0180416 -0.0188642 -0.019578 -0.020183 -0.0206793 -0.0210669 -0.0213457 -0.0215157 -0.021577 -0.0215329 -0.0213866 -0.0211381 -0.0207875 -0.0203348 -0.0197799 -0.0191229 -0.0183638 -0.0175639 -0.0167845 -0.0160256 -0.0152873 -0.0145695 -0.0138722 -0.0131955 -0.0125393 -0.0118854 -0.0112157 -0.0105301 -0.00982866 -0.00911133 -0.00837813 -0.00762907 -0.00686414 -0.0061101 -0.00539372 -0.00471501 -0.00407395 -0.00347056 -0.00290482 -0.00237675 -0.00188633 -0.00144422 -0.00106106 -0.000736849 -0.000471583 -0.000265266 -0.000117896 -2.9474e-05 0 0 2.6352e-07 1.05408e-06 2.37168e-06 4.21633e-06 6.58801e-06 9.48674e-06 1.29125e-05 1.68653e-05 -3.23128e-06 -7.19537e-05 -0.000189302 -0.000355276 -0.000569876 -0.000833102 -0.00114495 -0.00150543 -0.00191676 -0.00238118 -0.00289869 -0.00346928 -0.00409295 -0.00476971 -0.00549956 -0.00628249 -0.007087 -0.0078816 -0.00866627 -0.00944102 -0.0102058 -0.0109608 -0.0117057 -0.0124408 -0.0131193 -0.0136947 -0.0141668 -0.0145358 -0.0148016 -0.0149642 -0.0150237 -0.01498 -0.0148473 -0.0146398 -0.0143575 -0.0140005 -0.0135686 -0.013062 -0.0124807 -0.0118245 -0.0111631 -0.0105661 -0.0100333 -0.00956493 -0.00916086 -0.00882112 -0.00854571 -0.00833464 -0.00818307 -0.00808621 -0.00804404 -0.00805657 -0.00812381 -0.00824574 -0.00842237 -0.0086537 -0.0089077 -0.00915236 -0.00938766 -0.00961361 -0.00983021 -0.0100375 -0.0102354 -0.0104239 -0.0106266 -0.010867 -0.0111451 -0.0114609 -0.0118144 -0.0122056 -0.0126345 -0.0131011 -0.0135571 -0.0139543 -0.0142926 -0.014572 -0.0147926 -0.0149544 -0.0150573 -0.0151013 -0.0150891 -0.0150234 -0.014904 -0.014731 -0.0145044 -0.0142243 -0.0138905 -0.0135031 -0.0131029 -0.0127304 -0.0123856 -0.0120687 -0.0117795 -0.0115182 -0.0112846 -0.0110788 -0.0108539 -0.0105632 -0.0102066 -0.0097841 -0.00929576 -0.00874154 -0.00812146 -0.0074355 -0.00672592 -0.00603494 -0.00536258 -0.00470883 -0.0040737 -0.00345718 -0.00285926 -0.00227997 -0.0017456 -0.00128248 -0.000890612 -0.000569992 -0.00032062 -0.000142498 -3.56245e-05 0 0 -1.6684e-06 -6.67362e-06 -1.50156e-05 -2.66945e-05 -4.17101e-05 -6.00625e-05 -8.17518e-05 -0.000106778 -0.000161357 -0.000271705 -0.000437822 -0.000659708 -0.000937363 -0.00127079 -0.00165998 -0.00210494 -0.00260721 -0.0031683 -0.00378823 -0.004467 -0.0052046 -0.00600103 -0.00685629 -0.00777039 -0.00870895 -0.0096376 -0.0105563 -0.0114651 -0.0123641 -0.013253 -0.0141321 -0.0150013 -0.0158042 -0.0164845 -0.0170423 -0.0174774 -0.01779 -0.0179799 -0.0180473 -0.0179921 -0.0178327 -0.0175876 -0.0172568 -0.0168402 -0.016338 -0.01575 -0.0150764 -0.014317 -0.0135525 -0.0128635 -0.01225 -0.011712 -0.0112495 -0.0108625 -0.010551 -0.010315 -0.01013 -0.0099716 -0.00983974 -0.00973443 -0.00965567 -0.00960347 -0.00957782 -0.00957872 -0.00955665 -0.00946209 -0.00929505 -0.00905551 -0.00874348 -0.00835897 -0.00790196 -0.00737246 -0.00683244 -0.00634386 -0.00590672 -0.00552101 -0.00518674 -0.00490391 -0.00467252 -0.00449256 -0.00434955 -0.00422899 -0.00413088 -0.00405522 -0.00400201 -0.00397125 -0.00396294 -0.00397708 -0.00401505 -0.00407821 -0.00416658 -0.00428016 -0.00441893 -0.00458291 -0.00477209 -0.00498647 -0.00523185 -0.00551402 -0.00583298 -0.00618872 -0.00658126 -0.00701058 -0.00747669 -0.0079796 -0.00843203 -0.00874673 -0.0089237 -0.00896293 -0.00886444 -0.00862821 -0.00825426 -0.00774257 -0.00715595 -0.00655721 -0.00594635 -0.00532336 -0.00468825 -0.00404101 -0.00338166 -0.00271017 -0.00207498 -0.00152447 -0.00105866 -0.000677544 -0.000381118 -0.000169386 -4.23465e-05 0 0 -4.28968e-06 -1.71587e-05 -3.86071e-05 -6.86349e-05 -0.000107242 -0.000154428 -0.000210194 -0.000274539 -0.000374665 -0.000537771 -0.000763859 -0.00105293 -0.00140498 -0.00182001 -0.00229802 -0.00283901 -0.00344347 -0.00411186 -0.00484419 -0.00564046 -0.00650067 -0.00742482 -0.00841291 -0.00946493 -0.0105442 -0.0116141 -0.0126746 -0.0137257 -0.0147673 -0.0157996 -0.0168225 -0.0178359 -0.0187728 -0.0195661 -0.0202158 -0.0207218 -0.0210841 -0.0213029 -0.021378 -0.0213094 -0.0211207 -0.0208352 -0.0204529 -0.0199739 -0.0193982 -0.0187257 -0.0179565 -0.0170906 -0.0162199 -0.0154366 -0.0147407 -0.0141322 -0.013611 -0.0131772 -0.0128308 -0.0125717 -0.0123492 -0.0121126 -0.0118617 -0.0115967 -0.0113175 -0.0110241 -0.0107166 -0.0103948 -0.00998734 -0.00942262 -0.00870063 -0.00782139 -0.00678489 -0.00559113 -0.0042401 -0.00273183 -0.00117897 0.000305779 0.00172242 0.00307096 0.00435138 0.00556371 0.00670792 0.00778403 0.00875851 0.00959784 0.010302 0.0108711 0.0113049 0.0116037 0.0117673 0.0117957 0.0116894 0.0114489 0.0110741 0.0105651 0.00992173 0.00914415 0.00823229 0.00718617 0.00604914 0.00486455 0.0036324 0.00235269 0.00102541 -0.000349427 -0.00177183 -0.00324178 -0.0046198 -0.00576637 -0.00668148 -0.00736515 -0.00781737 -0.00803814 -0.00802746 -0.00778533 -0.0074002 -0.00696053 -0.0064663 -0.00591753 -0.00531421 -0.00465634 -0.00394392 -0.00317696 -0.00243236 -0.00178704 -0.001241 -0.000794239 -0.00044676 -0.00019856 -4.964e-05 0 0 -7.6003e-06 -3.04012e-05 -6.84027e-05 -0.000121605 -0.000190008 -0.000273611 -0.000372415 -0.000486419 -0.000643155 -0.000870153 -0.00116741 -0.00153493 -0.00197272 -0.00248076 -0.00305907 -0.00370764 -0.00442554 -0.00521184 -0.00606655 -0.00698966 -0.00798117 -0.00904108 -0.0101694 -0.0113661 -0.0125928 -0.0138112 -0.0150211 -0.0162226 -0.0174157 -0.0186004 -0.0197767 -0.0209447 -0.0220252 -0.0229395 -0.0236874 -0.0242689 -0.0246842 -0.0249331 -0.0250157 -0.024932 -0.0247112 -0.0243825 -0.0239459 -0.0234015 -0.0227493 -0.0219891 -0.0211212 -0.0201453 -0.0191655 -0.0182856 -0.0175057 -0.0168256 -0.0162455 -0.0157654 -0.0153851 -0.0151048 -0.0148407 -0.0145091 -0.01411 -0.0136434 -0.0131093 -0.0125077 -0.0118386 -0.011102 -0.0101998 -0.00903393 -0.00760442 -0.00591125 -0.00395443 -0.00173394 0.000750207 0.00349801 0.0063338 0.00908188 0.0117423 0.0143149 0.0167999 0.0191972 0.0215068 0.0237287 0.0257671 0.0275262 0.0290062 0.0302068 0.0311283 0.0317704 0.0321334 0.0322171 0.0320243 0.031558 0.0308181 0.0298046 0.0285176 0.0269569 0.0251226 0.0230148 0.0207401 0.0184054 0.0160105 0.0135555 0.0110405 0.00846529 0.00583003 0.00313467 0.000582779 -0.00162209 -0.00347993 -0.00499075 -0.00615455 -0.00697132 -0.00744107 -0.00756379 -0.00745867 -0.00724489 -0.00692244 -0.00649134 -0.00595157 -0.00530315 -0.00454606 -0.00368031 -0.00281774 -0.00207018 -0.00143762 -0.000920078 -0.000517544 -0.00023002 -5.75049e-05 0 0 -1.16003e-05 -4.64011e-05 -0.000104402 -0.000185604 -0.000290007 -0.00041761 -0.000568414 -0.000742418 -0.000966828 -0.00126885 -0.00164848 -0.00210573 -0.00264058 -0.00325305 -0.00394313 -0.00471082 -0.00555343 -0.00646826 -0.00745532 -0.0085146 -0.0096461 -0.0108498 -0.0121258 -0.0134739 -0.0148548 -0.0162287 -0.0175958 -0.0189559 -0.0203092 -0.0216555 -0.022995 -0.0243275 -0.0255613 -0.0266045 -0.027457 -0.0281189 -0.0285901 -0.0288706 -0.0289605 -0.0288598 -0.0286042 -0.0282295 -0.0277358 -0.027123 -0.0263912 -0.0255402 -0.0245702 -0.0234812 -0.0223892 -0.0214104 -0.0205447 -0.0197923 -0.019153 -0.0186269 -0.018214 -0.0179143 -0.0176045 -0.0171612 -0.0165846 -0.0158745 -0.0150311 -0.0140542 -0.0129439 -0.0117002 -0.010194 -0.00829604 -0.00600641 -0.0033251 -0.0002521 0.00321259 0.00706898 0.011317 0.0157059 0.0199844 0.0241528 0.028211 0.0321589 0.0359966 0.0397241 0.0433414 0.0466761 0.0495562 0.0519815 0.0539521 0.0554679 0.056529 0.0571353 0.0572869 0.0569896 0.0562491 0.0550654 0.0534385 0.0513685 0.0488553 0.045899 0.0424994 0.0388411 0.0351084 0.0313013 0.0274198 0.0234639 0.0194336 0.0153289 0.0111498 0.00717571 0.0036861 0.00068095 -0.00183974 -0.00387598 -0.00542776 -0.00649508 -0.00707795 -0.00733135 -0.00741029 -0.00731477 -0.00704479 -0.00660035 -0.00598144 -0.00518808 -0.00422024 -0.00323112 -0.00237389 -0.00164853 -0.00105506 -0.000593472 -0.000263765 -6.59413e-05 0 0 -1.62896e-05 -6.51584e-05 -0.000146606 -0.000260634 -0.00040724 -0.000586426 -0.00079819 -0.00104253 -0.00134568 -0.00173386 -0.00220707 -0.00276531 -0.00340858 -0.00413688 -0.00495021 -0.00584857 -0.00682714 -0.00788112 -0.0090105 -0.0102153 -0.0114955 -0.012851 -0.014282 -0.0157884 -0.01733 -0.0188668 -0.0203986 -0.0219256 -0.0234477 -0.0249649 -0.0264772 -0.0279846 -0.0293812 -0.0305613 -0.0315247 -0.0322715 -0.0328018 -0.0331154 -0.0332124 -0.0330928 -0.0327998 -0.0323764 -0.0318226 -0.0311384 -0.0303239 -0.029379 -0.0283038 -0.0270982 -0.025891 -0.0248109 -0.023858 -0.0230321 -0.0223335 -0.0217619 -0.0213175 -0.0210002 -0.0206405 -0.0200689 -0.0192855 -0.0182901 -0.0170828 -0.0156636 -0.0140325 -0.0121895 -0.0099699 -0.00720893 -0.00390661 -6.29339e-05 0.00432209 0.00924847 0.0147162 0.0207253 0.0269372 0.0330135 0.0389541 0.044759 0.0504283 0.0559619 0.0613598 0.0666221 0.0714857 0.0756877 0.0792281 0.0821068 0.0843239 0.0858794 0.0867732 0.0870054 0.0865853 0.0855221 0.083816 0.0814668 0.0784746 0.0748395 0.0705613 0.06564 0.0603521 0.0549737 0.0495048 0.0439455 0.0382957 0.0325554 0.0267247 0.0208035 0.015159 0.0101582 0.00580117 0.00208788 -0.000981661 -0.00340746 -0.0051895 -0.0063278 -0.00701825 -0.00745675 -0.00764329 -0.00757789 -0.00726053 -0.00669122 -0.00586996 -0.00479675 -0.00367251 -0.00269817 -0.00187373 -0.00119919 -0.000674543 -0.000299797 -7.49492e-05 0 0 -2.15897e-05 -8.6359e-05 -0.000194308 -0.000345436 -0.000539744 -0.000777231 -0.0010579 -0.00138174 -0.0017704 -0.0022455 -0.00280705 -0.00345504 -0.00418948 -0.00501035 -0.00591768 -0.00691144 -0.00798202 -0.00911978 -0.0103247 -0.0115968 -0.0129361 -0.0143426 -0.0158162 -0.017357 -0.0189305 -0.020502 -0.0220717 -0.0236395 -0.0252053 -0.0267693 -0.0283314 -0.0298916 -0.031337 -0.0325545 -0.0335443 -0.0343062 -0.0348404 -0.0351468 -0.0352254 -0.0350761 -0.0347508 -0.034301 -0.0337267 -0.0330279 -0.0322046 -0.0312569 -0.0301847 -0.0289881 -0.0277997 -0.0267521 -0.0258455 -0.0250798 -0.0244549 -0.023971 -0.023628 -0.0234259 -0.0231351 -0.022526 -0.0215986 -0.0203529 -0.0187889 -0.0169066 -0.014706 -0.0121871 -0.00914686 -0.00538208 -0.000892814 0.00432094 0.0102592 0.0169219 0.0243092 0.0324209 0.0408058 0.0490126 0.0570412 0.0648918 0.0725642 0.0800585 0.0873746 0.0945127 0.101113 0.106817 0.111625 0.115536 0.11855 0.120668 0.121889 0.122213 0.121655 0.120228 0.117931 0.114765 0.11073 0.105826 0.100052 0.0934099 0.0862711 0.0790087 0.0716228 0.0641134 0.0564804 0.048724 0.040844 0.0328405 0.0251905 0.0183711 0.0123822 0.00722382 0.00289601 -0.000601258 -0.00326798 -0.00510416 -0.00635198 -0.00725363 -0.00780911 -0.00801841 -0.00788154 -0.0073985 -0.00656929 -0.0053939 -0.0041297 -0.00303407 -0.00210699 -0.00134847 -0.000758517 -0.000337119 -8.42796e-05 0 0 -2.74222e-05 -0.000109689 -0.0002468 -0.000438755 -0.000685554 -0.000987198 -0.00134369 -0.00175502 -0.00223166 -0.00278409 -0.0034123 -0.00411628 -0.00489605 -0.0057516 -0.00668293 -0.00769003 -0.00875343 -0.00985361 -0.0109906 -0.0121643 -0.0133749 -0.0146222 -0.0159064 -0.0172273 -0.0185679 -0.0199111 -0.0212568 -0.0226052 -0.0239562 -0.0253097 -0.0266659 -0.0280246 -0.0292808 -0.0303291 -0.0311695 -0.0318022 -0.032227 -0.0324441 -0.0324533 -0.0322547 -0.0319101 -0.0314814 -0.0309685 -0.0303716 -0.0296905 -0.0289253 -0.028076 -0.0271426 -0.0262439 -0.0254988 -0.0249074 -0.0244697 -0.0241855 -0.024055 -0.0240781 -0.0242549 -0.0242745 -0.0238262 -0.02291 -0.0215259 -0.0196739 -0.0173539 -0.0145661 -0.0113103 -0.00734411 -0.00242496 0.00344716 0.0102722 0.0180502 0.0267812 0.0364651 0.047102 0.0580895 0.0688254 0.0793095 0.089542 0.0995227 0.109252 0.118729 0.127955 0.136477 0.143842 0.150051 0.155104 0.159 0.161741 0.163325 0.163752 0.163043 0.161216 0.158271 0.154209 0.149029 0.142731 0.135316 0.126782 0.117596 0.108221 0.098657 0.0889042 0.0789626 0.0688323 0.0585132 0.0480052 0.0379281 0.0289015 0.0209254 0.0139998 0.00812463 0.00329998 -0.000474169 -0.00319783 -0.00516517 -0.00667033 -0.00771332 -0.00829415 -0.0084128 -0.00806929 -0.00726361 -0.00599575 -0.0045905 -0.00337261 -0.00234209 -0.00149894 -0.000843153 -0.000374735 -9.36836e-05 0 0 -3.37869e-05 -0.000135148 -0.000304082 -0.00054059 -0.000844672 -0.00121633 -0.00165556 -0.00216236 -0.00272947 -0.00334962 -0.00402281 -0.00474904 -0.0055283 -0.00636061 -0.00724595 -0.00818434 -0.00914136 -0.0100826 -0.0110081 -0.0119178 -0.0128118 -0.01369 -0.0145525 -0.0153992 -0.0162423 -0.0170939 -0.0179541 -0.0188229 -0.0197002 -0.0205861 -0.0214806 -0.0223836 -0.0232126 -0.0238849 -0.0244005 -0.0247594 -0.0249617 -0.0250072 -0.0248962 -0.0246284 -0.0242776 -0.0239176 -0.0235482 -0.0231695 -0.0227815 -0.0223842 -0.0219776 -0.0215616 -0.0212237 -0.0210511 -0.0210438 -0.0212018 -0.0215252 -0.0220139 -0.0226679 -0.0234872 -0.0240588 -0.0239696 -0.0232197 -0.0218091 -0.0197377 -0.0170056 -0.0136127 -0.00955906 -0.00456167 0.00166245 0.00911331 0.0177909 0.0276952 0.0388263 0.0511842 0.0647687 0.0787885 0.0924519 0.105759 0.11871 0.131304 0.143542 0.155424 0.166949 0.177575 0.186761 0.194507 0.200811 0.205675 0.209098 0.21108 0.211622 0.210749 0.208487 0.204837 0.199798 0.193371 0.185555 0.176351 0.165758 0.154327 0.14261 0.130607 0.118318 0.105742 0.0928804 0.0797322 0.0662977 0.0533718 0.0417495 0.0314308 0.0224157 0.0147042 0.00829627 0.00319193 -0.000608817 -0.0034578 -0.00570684 -0.00735594 -0.0084051 -0.00885432 -0.00870359 -0.00795292 -0.00660232 -0.0050549 -0.0037138 -0.00257903 -0.00165058 -0.000928451 -0.000412645 -0.000103161 0 0 -4.06839e-05 -0.000162736 -0.000366155 -0.000650943 -0.0010171 -0.00146462 -0.00199351 -0.00260377 -0.00326382 -0.0039421 -0.00463859 -0.0053533 -0.00608623 -0.00683738 -0.00760676 -0.00839435 -0.00914581 -0.0098068 -0.0103773 -0.0108573 -0.0112469 -0.011546 -0.0117546 -0.0118727 -0.0119536 -0.0120505 -0.0121635 -0.0122924 -0.0124374 -0.0125984 -0.0127755 -0.0129685 -0.0131324 -0.0132219 -0.0132371 -0.0131779 -0.0130443 -0.0128363 -0.012554 -0.0121974 -0.0118535 -0.0116096 -0.0114656 -0.0114216 -0.0114776 -0.0116335 -0.0118894 -0.0122453 -0.0127391 -0.0134088 -0.0142546 -0.0152763 -0.0164739 -0.0178476 -0.0193972 -0.0211227 -0.0224879 -0.0229562 -0.0225277 -0.0212025 -0.0189804 -0.0158615 -0.0118458 -0.00693335 -0.000799537 0.00688012 0.0161056 0.026877 0.0391942 0.0530573 0.0684662 0.0854209 0.102903 0.119892 0.136389 0.152395 0.167908 0.182929 0.197458 0.211494 0.22441 0.235576 0.244992 0.252658 0.258574 0.26274 0.265156 0.265822 0.264773 0.262041 0.257628 0.251533 0.243756 0.234298 0.223157 0.210335 0.196464 0.182177 0.167474 0.152355 0.13682 0.120868 0.104501 0.087718 0.0715216 0.0569151 0.0438985 0.0324717 0.0226347 0.0143876 0.00773032 0.00266289 -0.00122988 -0.00436317 -0.00673696 -0.00835126 -0.00920608 -0.0093014 -0.00863724 -0.00721359 -0.0055229 -0.00405764 -0.00281781 -0.0018034 -0.00101441 -0.000450849 -0.000112712 0 0 -4.81132e-05 -0.000192453 -0.000433019 -0.000769