<?xml version="1.0"?> 
<VTKFile type="StructuredGrid" version="0.1"> 
<StructuredGrid WholeExtent="0 128 0 128 0 0"> 
<Piece Extent="0 128 0 128 0 0"> 
<PointData>
<DataArray type="Float32" Name="u" format="ascii" NumberOfComponents="1"> 
0 0 0 0 0 0 0 0 0 0 0 0 0 0 0 0 0 0 0 0 0 0 0 0 0 0 0 0 0 0 0 0 0 0 0 0 0 0 0 0 0 0 0 0 0 0 0 0 0 0 0 0 0 0 0 0 0 0 0 0 0 0 0 0 0 0 0 0 0 0 0 0 0 0 0 0 0 0 0 0 0 0 0 0 0 0 0 0 0 0 0 0 0 0 0 0 0 0 0 0 0 0 0 0 0 0 0 0 0 0 0 0 0 0 0 0 0 0 0 0 0 0 0 0 0 0 0 0 0 0 -1.20255e-08 -4.81021e-08 -1.0823e-07 -1.92408e-07 -3.00638e-07 -4.32919e-07 -5.8925e-07 -7.69633e-07 -1.1688e-06 -1.98149e-06 -3.20769e-06 -4.84742e-06 -6.90066e-06 -9.36742e-06 -1.22477e-05 -1.55415e-05 -1.93009e-05 -2.35781e-05 -2.83731e-05 -3.36858e-05 -3.95163e-05 -4.58645e-05 -5.27305e-05 -6.01142e-05 -6.771e-05 -7.5212e-05 -8.26204e-05 -8.9935e-05 -9.71559e-05 -0.000104283 -0.000111317 -0.000118256 -0.000124674 -0.00013014 -0.000134655 -0.000138218 -0.000140831 -0.000142492 -0.000143202 -0.000142961 -0.000141889 -0.000140108 -0.000137618 -0.000134417 -0.000130508 -0.000125888 -0.00012056 -0.000114521 -0.000108355 -0.00010264 -9.73784e-05 -9.2569e-05 -8.82122e-05 -8.43078e-05 -8.08559e-05 -7.78564e-05 -7.55031e-05 -7.39895e-05 -7.33156e-05 -7.34814e-05 -7.44869e-05 -7.63321e-05 -7.90171e-05 -8.25417e-05 -8.66943e-05 -9.1263e-05 -9.62478e-05 -0.000101649 -0.000107466 -0.000113699 -0.000120348 -0.000127413 -0.000134696 -0.000141996 -0.000149315 -0.000156653 -0.000164008 -0.000171382 -0.000178774 -0.000186184 -0.00019316 -0.000199251 -0.000204456 -0.000208775 -0.000212209 -0.000214757 -0.000216419 -0.000217195 -0.000217088 -0.000216097 -0.000214223 -0.000211466 -0.000207827 -0.000203304 -0.000197898 -0.00019161 -0.000184822 -0.000177917 -0.000170895 -0.000163757 -0.000156502 -0.000149131 -0.000141643 -0.000134038 -0.000126328 -0.000118525 -0.000110628 -0.000102637 -9.45525e-05 -8.63746e-05 -7.8103e-05 -6.97379e-05 -6.15697e-05 -5.38891e-05 -4.66961e-05 -3.99907e-05 -3.37729e-05 -2.80427e-05 -2.28e-05 -1.8045e-05 -1.38157e-05 -1.01503e-05 -7.04883e-06 -4.51125e-06 -2.53758e-06 -1.12781e-06 -2.81953e-07 0 0 -4.81021e-08 -1.92408e-07 -4.32919e-07 -7.69633e-07 -1.20255e-06 -1.73167e-06 -2.357e-06 -3.07853e-06 -4.6752e-06 -7.92595e-06 -1.28308e-05 -1.93897e-05 -2.76026e-05 -3.74697e-05 -4.89908e-05 -6.2166e-05 -7.72037e-05 -9.43125e-05 -0.000113492 -0.000134743 -0.000158065 -0.000183458 -0.000210922 -0.000240457 -0.00027084 -0.000300848 -0.000330481 -0.00035974 -0.000388624 -0.000417133 -0.000445267 -0.000473026 -0.000498695 -0.000520559 -0.000538619 -0.000552874 -0.000563323 -0.000569968 -0.000572808 -0.000571843 -0.000567557 -0.000560433 -0.00055047 -0.000537669 -0.000522031 -0.000503554 -0.000482239 -0.000458086 -0.000433418 -0.000410561 -0.000389514 -0.000370276 -0.000352849 -0.000337231 -0.000323423 -0.000311426 -0.000302012 -0.000295958 -0.000293262 -0.000293925 -0.000297948 -0.000305328 -0.000316068 -0.000330167 -0.000346777 -0.000365052 -0.000384991 -0.000406595 -0.000429863 -0.000454795 -0.000481392 -0.000509653 -0.000538783 -0.000567986 -0.000597262 -0.000626611 -0.000656033 -0.000685527 -0.000715095 -0.000744736 -0.000772641 -0.000797004 -0.000817824 -0.000835102 -0.000848836 -0.000859027 -0.000865676 -0.000868782 -0.00086835 -0.000864387 -0.000856892 -0.000845865 -0.000831306 -0.000813216 -0.000791594 -0.00076644 -0.000739287 -0.000711667 -0.000683581 -0.000655028 -0.000626009 -0.000596523 -0.000566571 -0.000536152 -0.000505312 -0.000474098 -0.00044251 -0.000410547 -0.00037821 -0.000345498 -0.000312412 -0.000278952 -0.000246279 -0.000215556 -0.000186784 -0.000159963 -0.000135092 -0.000112171 -9.12002e-05 -7.218e-05 -5.52628e-05 -4.06012e-05 -2.81953e-05 -1.8045e-05 -1.01503e-05 -4.51125e-06 -1.12781e-06 0 0 -1.0823e-07 -4.32919e-07 -9.74067e-07 -1.73167e-06 -2.70574e-06 -3.89627e-06 -5.30325e-06 -6.9267e-06 -1.05192e-05 -1.78334e-05 -2.88692e-05 -4.36267e-05 -6.21059e-05 -8.43068e-05 -0.000110229 -0.000139873 -0.000173708 -0.000212203 -0.000255358 -0.000303172 -0.000355646 -0.00041278 -0.000474574 -0.000541028 -0.00060939 -0.000676908 -0.000743583 -0.000809415 -0.000874403 -0.000938548 -0.00100185 -0.00106431 -0.00112206 -0.00117126 -0.00121189 -0.00124397 -0.00126748 -0.00128243 -0.00128882 -0.00128665 -0.001277 -0.00126097 -0.00123856 -0.00120976 -0.00117457 -0.001133 -0.00108504 -0.00103069 -0.000975191 -0.000923762 -0.000876406 -0.000833121 -0.00079391 -0.00075877 -0.000727703 -0.000700708 -0.000679528 -0.000665905 -0.00065984 -0.000661332 -0.000670382 -0.000686989 -0.000711154 -0.000742876 -0.000780249 -0.000821367 -0.00086623 -0.000914838 -0.000967191 -0.00102329 -0.00108313 -0.00114672 -0.00121226 -0.00127797 -0.00134384 -0.00140987 -0.00147607 -0.00154244 -0.00160896 -0.00167566 -0.00173844 -0.00179326 -0.0018401 -0.00187898 -0.00190988 -0.00193281 -0.00194777 -0.00195476 -0.00195379 -0.00194487 -0.00192801 -0.0019032 -0.00187044 -0.00182974 -0.00178109 -0.00172449 -0.00166339 -0.00160125 -0.00153806 -0.00147381 -0.00140852 -0.00134218 -0.00127478 -0.00120634 -0.00113695 -0.00106672 -0.000995648 -0.000923731 -0.000850973 -0.000777371 -0.000702927 -0.000627641 -0.000554127 -0.000485002 -0.000420265 -0.000359916 -0.000303956 -0.000252384 -0.0002052 -0.000162405 -0.000124341 -9.13528e-05 -6.34394e-05 -4.06012e-05 -2.28382e-05 -1.01503e-05 -2.53758e-06 0 0 -1.92408e-07 -7.69633e-07 -1.73167e-06 -3.07853e-06 -4.81021e-06 -6.9267e-06 -9.42801e-06 -1.23141e-05 -1.87008e-05 -3.17038e-05 -5.13231e-05 -7.75587e-05 -0.000110411 -0.000149879 -0.000195963 -0.000248664 -0.000308815 -0.00037725 -0.000453969 -0.000538973 -0.00063226 -0.000733832 -0.000843688 -0.000961827 -0.00108336 -0.00120339 -0.00132193 -0.00143896 -0.00155449 -0.00166853 -0.00178107 -0.0018921 -0.00199478 -0.00208224 -0.00215448 -0.00221149 -0.00225329 -0.00227987 -0.00229123 -0.00228737 -0.00227023 -0.00224173 -0.00220188 -0.00215068 -0.00208812 -0.00201421 -0.00192895 -0.00183234 -0.00173367 -0.00164224 -0.00155805 -0.0014811 -0.00141139 -0.00134892 -0.00129369 -0.0012457 -0.00120805 -0.00118383 -0.00117305 -0.0011757 -0.00119179 -0.00122131 -0.00126427 -0.00132067 -0.00138711 -0.00146021 -0.00153996 -0.00162638 -0.00171945 -0.00181918 -0.00192557 -0.00203861 -0.00215513 -0.00227194 -0.00238905 -0.00250644 -0.00262413 -0.00274211 -0.00286038 -0.00297894 -0.00309057 -0.00318802 -0.0032713 -0.00334041 -0.00339534 -0.00343611 -0.0034627 -0.00347513 -0.0034734 -0.00345755 -0.00342757 -0.00338346 -0.00332522 -0.00325286 -0.00316637 -0.00306576 -0.00295715 -0.00284667 -0.00273432 -0.00262011 -0.00250404 -0.00238609 -0.00226628 -0.00214461 -0.00202125 -0.00189639 -0.00177004 -0.00164219 -0.00151284 -0.00138199 -0.00124965 -0.00111581 -0.000985115 -0.000862226 -0.000747138 -0.000639851 -0.000540366 -0.000448683 -0.000364801 -0.00028872 -0.000221051 -0.000162405 -0.000112781 -7.218e-05 -4.06012e-05 -1.8045e-05 -4.51125e-06 0 0 -3.00638e-07 -1.20255e-06 -2.70574e-06 -4.81021e-06 -7.51595e-06 -1.0823e-05 -1.47313e-05 -1.92408e-05 -2.922e-05 -4.95372e-05 -8.01923e-05 -0.000121185 -0.000172516 -0.000234186 -0.000306193 -0.000388537 -0.000482523 -0.000589453 -0.000709327 -0.000842145 -0.000987907 -0.00114661 -0.00131826 -0.00150286 -0.00169275 -0.0018803 -0.00206551 -0.00224838 -0.0024289 -0.00260708 -0.00278292 -0.00295641 -0.00311684 -0.0032535 -0.00336637 -0.00345546 -0.00352077 -0.0035623 -0.00358005 -0.00357402 -0.00354723 -0.0035027 -0.00344044 -0.00336043 -0.00326269 -0.00314721 -0.00301399 -0.00286303 -0.00270886 -0.00256601 -0.00243446 -0.00231423 -0.0022053 -0.00210769 -0.0020214 -0.00194641 -0.00188758 -0.00184974 -0.00183289 -0.00183703 -0.00186217 -0.0019083 -0.00197543 -0.00206354 -0.00216736 -0.00228157 -0.00240619 -0.00254122 -0.00268664 -0.00284247 -0.0030087 -0.00318533 -0.00336739 -0.00354991 -0.00373289 -0.00391632 -0.0041002 -0.00428455 -0.00446934 -0.0046546 -0.00482901 -0.00498128 -0.0051114 -0.00521938 -0.00530522 -0.00536892 -0.00541047 -0.00542989 -0.00542719 -0.00540242 -0.00535557 -0.00528665 -0.00519566 -0.0050826 -0.00494746 -0.00479025 -0.00462054 -0.00444792 -0.00427238 -0.00409393 -0.00391256 -0.00372827 -0.00354107 -0.00335095 -0.0031582 -0.00296312 -0.00276569 -0.00256592 -0.00236381 -0.00215936 -0.00195258 -0.00174345 -0.00153924 -0.00134723 -0.0011674 -0.000999768 -0.000844323 -0.000701067 -0.000570001 -0.000451125 -0.000345393 -0.000253758 -0.000176221 -0.000112781 -6.34394e-05 -2.81953e-05 -7.04883e-06 0 0 -4.32919e-07 -1.73167e-06 -3.89627e-06 -6.9267e-06 -1.0823e-05 -1.55851e-05 -2.1213e-05 -2.77068e-05 -4.20768e-05 -7.13335e-05 -0.000115477 -0.000174507 -0.000248424 -0.000337227 -0.000440917 -0.000559494 -0.000694834 -0.000848813 -0.00102143 -0.00121269 -0.00142259 -0.00165112 -0.0018983 -0.00216411 -0.00243756 -0.00270763 -0.00297433 -0.00323766 -0.00349761 -0.00375419 -0.0040074 -0.00425723 -0.00448825 -0.00468503 -0.00484757 -0.00497586 -0.00506991 -0.00512971 -0.00515527 -0.00514659 -0.00510801 -0.00504389 -0.00495423 -0.00483903 -0.00469828 -0.00453198 -0.00434015 -0.00412277 -0.00390076 -0.00369505 -0.00350562 -0.00333249 -0.00317564 -0.00303508 -0.00291081 -0.00280283 -0.00271811 -0.00266362 -0.00263936 -0.00264533 -0.00268153 -0.00274796 -0.00284461 -0.0029715 -0.00312099 -0.00328547 -0.00346492 -0.00365935 -0.00386876 -0.00409315 -0.00433253 -0.00458688 -0.00484905 -0.00511187 -0.00537536 -0.0056395 -0.00590429 -0.00616975 -0.00643586 -0.00670262 -0.00695377 -0.00717304 -0.00736042 -0.00751591 -0.00763952 -0.00773125 -0.00779108 -0.00781903 -0.00781515 -0.00777948 -0.00771202 -0.00761278 -0.00748175 -0.00731894 -0.00712434 -0.00689796 -0.00665358 -0.006405 -0.00615223 -0.00589525 -0.00563408 -0.00536871 -0.00509914 -0.00482537 -0.00454781 -0.00426689 -0.00398259 -0.00369493 -0.00340389 -0.00310949 -0.00281171 -0.00251056 -0.00221651 -0.00194001 -0.00168106 -0.00143967 -0.00121582 -0.00100954 -0.000820802 -0.00064962 -0.000497365 -0.000365411 -0.000253758 -0.000162405 -9.13528e-05 -4.06012e-05 -1.01503e-05 0 0 -5.8925e-07 -2.357e-06 -5.30325e-06 -9.42801e-06 -1.47313e-05 -2.1213e-05 -2.88733e-05 -3.7712e-05 -5.72712e-05 -9.70929e-05 -0.000157177 -0.000237523 -0.000338132 -0.000459004 -0.000600137 -0.000761533 -0.000945746 -0.00115533 -0.00139028 -0.0016506 -0.0019363 -0.00224736 -0.00258379 -0.0029456 -0.00331779 -0.00368539 -0.0040484 -0.00440682 -0.00476064 -0.00510987 -0.00545451 -0.00579456 -0.00610901 -0.00637685 -0.00659808 -0.0067727 -0.00690071 -0.00698211 -0.0070169 -0.00700508 -0.00695258 -0.0068653 -0.00674326 -0.00658645 -0.00639488 -0.00616853 -0.00590742 -0.00561155 -0.00530937 -0.00502937 -0.00477154 -0.00453588 -0.0043224 -0.00413108 -0.00396194 -0.00381496 -0.00369965 -0.00362548 -0.00359246 -0.00360059 -0.00364986 -0.00374027 -0.00387184 -0.00404454 -0.00424802 -0.00447189 -0.00471614 -0.00498078 -0.00526582 -0.00557124 -0.00589705 -0.00624325 -0.00660009 -0.00695783 -0.00731646 -0.00767598 -0.0080364 -0.00839771 -0.00875991 -0.00912301 -0.00946486 -0.0097633 -0.0100183 -0.01023 -0.0103982 -0.0105231 -0.0106045 -0.0106426 -0.0106373 -0.0105887 -0.0104969 -0.0103618 -0.0101835 -0.00996189 -0.00969702 -0.00938889 -0.00905626 -0.00871792 -0.00837386 -0.00802409 -0.00766861 -0.00730741 -0.00694049 -0.00656786 -0.00619008 -0.00580771 -0.00542075 -0.0050292 -0.00463307 -0.00423235 -0.00382705 -0.00341716 -0.00301692 -0.00264057 -0.00228811 -0.00195955 -0.00165487 -0.00137409 -0.0011172 -0.000884205 -0.000676969 -0.000497365 -0.000345393 -0.000221051 -0.000124341 -5.52628e-05 -1.38157e-05 0 0 -7.69633e-07 -3.07853e-06 -6.9267e-06 -1.23141e-05 -1.92408e-05 -2.77068e-05 -3.7712e-05 -4.92565e-05 -7.48033e-05 -0.000126815 -0.000205292 -0.000310235 -0.000441642 -0.000599515 -0.000783853 -0.000994656 -0.00123526 -0.001509 -0.00181588 -0.00215589 -0.00252904 -0.00293533 -0.00337475 -0.00384731 -0.00433344 -0.00481357 -0.0052877 -0.00575584 -0.00621798 -0.00667412 -0.00712426 -0.00756841 -0.00797912 -0.00832895 -0.0086179 -0.00884598 -0.00901317 -0.00911949 -0.00916493 -0.0091495 -0.00908091 -0.00896692 -0.00880752 -0.00860271 -0.00835249 -0.00805686 -0.00771582 -0.00732937 -0.00693469 -0.00656898 -0.00623222 -0.00592442 -0.00564558 -0.0053957 -0.00517477 -0.00498281 -0.0048322 -0.00473533 -0.0046922 -0.00470281 -0.00476716 -0.00488526 -0.00505709 -0.00528267 -0.00554843 -0.00584083 -0.00615986 -0.00650551 -0.0068778 -0.00727672 -0.00770227 -0.00815445 -0.00862053 -0.00908778 -0.00955619 -0.0100258 -0.0104965 -0.0109684 -0.0114415 -0.0119158 -0.0123623 -0.0127521 -0.0130852 -0.0133616 -0.0135814 -0.0137444 -0.0138508 -0.0139005 -0.0138936 -0.0138302 -0.0137103 -0.0135338 -0.0133009 -0.0130115 -0.0126655 -0.012263 -0.0118286 -0.0113867 -0.0109373 -0.0104804 -0.0100161 -0.00954437 -0.00906513 -0.00857843 -0.008085 -0.00758558 -0.00708016 -0.00656876 -0.00605136 -0.00552797 -0.00499859 -0.00446322 -0.00394046 -0.0034489 -0.00298855 -0.00255941 -0.00216147 -0.00179473 -0.0014592 -0.00115488 -0.000884205 -0.00064962 -0.000451125 -0.00028872 -0.000162405 -7.218e-05 -1.8045e-05 0 0 -1.23097e-06 -4.92389e-06 -1.10787e-05 -1.96956e-05 -3.07743e-05 -4.4315e-05 -6.03176e-05 -7.87822e-05 -0.000115004 -0.000184279 -0.000286606 -0.000421986 -0.000590419 -0.000791904 -0.00102644 -0.00129403 -0.00159852 -0.00194374 -0.00232971 -0.00275641 -0.00322385 -0.00373202 -0.00428094 -0.00487059 -0.0054768 -0.00607539 -0.00666635 -0.00724968 -0.00782538 -0.00839346 -0.00895392 -0.00950675 -0.0100178 -0.0104529 -0.0108122 -0.0110954 -0.0113028 -0.0114343 -0.0114898 -0.0114694 -0.0113831 -0.0112408 -0.0110424 -0.0107881 -0.0104778 -0.0101115 -0.0096892 -0.00921091 -0.00872267 -0.00827052 -0.00785446 -0.0074745 -0.00713064 -0.00682287 -0.00655119 -0.00631561 -0.00612892 -0.00600391 -0.00594058 -0.00593894 -0.00599899 -0.00612072 -0.00630414 -0.00654924 -0.00683667 -0.00714709 -0.00748049 -0.00783687 -0.00821624 -0.00861859 -0.00904393 -0.00949225 -0.00995231 -0.0104129 -0.0108739 -0.0113355 -0.0117976 -0.0122602 -0.0127232 -0.0131868 -0.0136234 -0.0140055 -0.014333 -0.0146061 -0.0148246 -0.0149886 -0.0150981 -0.0151531 -0.0151534 -0.015099 -0.0149897 -0.0148257 -0.0146069 -0.0143333 -0.014005 -0.0136218 -0.013206 -0.0127794 -0.0123422 -0.0118943 -0.0114358 -0.0109666 -0.0104867 -0.00999619 -0.00949145 -0.00896895 -0.00842871 -0.00787072 -0.00729497 -0.00670147 -0.00609022 -0.00546122 -0.00484048 -0.00425401 -0.00370181 -0.00318388 -0.00270022 -0.00225083 -0.00183571 -0.00145486 -0.00111388 -0.00081836 -0.000568305 -0.000363715 -0.00020459 -9.09289e-05 -2.27322e-05 0 0 -2.23017e-06 -8.92069e-06 -2.00715e-05 -3.56827e-05 -5.57543e-05 -8.02862e-05 -0.000109278 -0.000142731 -0.000198205 -0.000293262 -0.000427901 -0.000602123 -0.000815928 -0.00106932 -0.00136229 -0.00169484 -0.00207067 -0.00249348 -0.00296326 -0.00348002 -0.00404375 -0.00465445 -0.00531214 -0.00601679 -0.00674018 -0.00745406 -0.00815842 -0.00885327 -0.00953861 -0.0102144 -0.0108807 -0.0115375 -0.0121443 -0.0126604 -0.0130859 -0.0134209 -0.0136652 -0.0138189 -0.013882 -0.0138545 -0.0137492 -0.0135788 -0.0133434 -0.013043 -0.0126775 -0.012247 -0.0117514 -0.0111908 -0.0106192 -0.0100907 -0.00960509 -0.00916255 -0.00876303 -0.00840653 -0.00809305 -0.00782259 -0.00760297 -0.00744199 -0.00733965 -0.00729595 -0.0073109 -0.00738449 -0.00751672 -0.0077076 -0.00792716 -0.00814544 -0.00836246 -0.0085782 -0.00879266 -0.00900585 -0.00921777 -0.00942842 -0.00963739 -0.00984428 -0.0100491 -0.0102519 -0.0104525 -0.0106511 -0.0108477 -0.0110421 -0.0112257 -0.0113896 -0.0115339 -0.0116586 -0.0117635 -0.0118489 -0.0119145 -0.0119606 -0.0119861 -0.0119902 -0.011973 -0.0119345 -0.0118746 -0.0117933 -0.0116907 -0.0115667 -0.0114238 -0.0112643 -0.0110883 -0.0108958 -0.0106867 -0.0104611 -0.0102189 -0.00996026 -0.0096683 -0.0093263 -0.00893428 -0.00849221 -0.00800011 -0.00745798 -0.00686581 -0.00622361 -0.00557032 -0.00494489 -0.00434732 -0.00377761 -0.00323576 -0.00272177 -0.00223564 -0.00177737 -0.0013608 -0.000999769 -0.000694284 -0.000444342 -0.000249942 -0.000111085 -2.77714e-05 0 0 -3.76723e-06 -1.50689e-05 -3.39051e-05 -6.02757e-05 -9.41808e-05 -0.00013562 -0.000184594 -0.000241103 -0.000324406 -0.000453764 -0.000629178 -0.000850646 -0.00111817 -0.00143175 -0.00179138 -0.00219707 -0.00265171 -0.0031582 -0.00371653 -0.00432671 -0.00498874 -0.00570261 -0.00646834 -0.00728591 -0.00812357 -0.00894958 -0.00976393 -0.0105666 -0.0113577 -0.012137 -0.0129047 -0.0136608 -0.0143586 -0.0149514 -0.0154393 -0.0158222 -0.0161003 -0.0162734 -0.0163415 -0.0163047 -0.0161792 -0.0159811 -0.0157105 -0.0153673 -0.0149516 -0.0144633 -0.0139025 -0.0132692 -0.0126244 -0.0120294 -0.0114841 -0.0109886 -0.0105428 -0.0101467 -0.00980036 -0.00950377 -0.00925436 -0.00904956 -0.00888939 -0.00877383 -0.00870288 -0.00867656 -0.00869485 -0.00875775 -0.0088199 -0.0088359 -0.00880576 -0.00872948 -0.00860706 -0.0084385 -0.0082238 -0.00796295 -0.00767576 -0.007382 -0.00708168 -0.00677479 -0.00646135 -0.00614134 -0.00581476 -0.00548163 -0.00516916 -0.00490458 -0.00468791 -0.00451912 -0.00439823 -0.00432524 -0.00430014 -0.00432293 -0.00439156 -0.00450396 -0.00466014 -0.00486008 -0.0051038 -0.0053913 -0.00572256 -0.0060976 -0.00648199 -0.00684131 -0.00717555 -0.00748472 -0.00776881 -0.00802783 -0.00826177 -0.00847064 -0.00861555 -0.00865763 -0.00859686 -0.00843324 -0.00816679 -0.0077975 -0.00732536 -0.00675038 -0.00612997 -0.00552154 -0.00492508 -0.00434059 -0.00376808 -0.00320754 -0.00265898 -0.0021224 -0.00162496 -0.00119385 -0.000829061 -0.000530599 -0.000298462 -0.00013265 -3.31624e-05 0 0 -5.84215e-06 -2.33686e-05 -5.25794e-05 -9.34745e-05 -0.000146054 -0.000210318 -0.000286266 -0.000373898 -0.000493607 -0.000665787 -0.000890436 -0.00116755 -0.00149714 -0.0018792 -0.00231373 -0.00280073 -0.00334164 -0.0039379 -0.00458952 -0.0052965 -0.00605882 -0.00687651 -0.00774954 -0.00867793 -0.00962697 -0.0105619 -0.0114829 -0.0123897 -0.0132825 -0.0141612 -0.0150259 -0.0158765 -0.0166607 -0.0173259 -0.0178722 -0.0182996 -0.0186081 -0.0187976 -0.0188683 -0.0188201 -0.0186731 -0.0184476 -0.0181436 -0.0177611 -0.0173001 -0.0167605 -0.0161425 -0.0154459 -0.0147382 -0.0140867 -0.0134915 -0.0129525 -0.0124698 -0.0120433 -0.0116731 -0.0113591 -0.0110831 -0.0108266 -0.0105898 -0.0103726 -0.0101749 -0.00999693 -0.00983851 -0.0096997 -0.00951489 -0.00921845 -0.0088104 -0.00829073 -0.00765944 -0.00691654 -0.00606201 -0.00509586 -0.00406743 -0.00302603 -0.00197166 -0.000904332 0.000175961 0.00126922 0.00237544 0.00349463 0.00454623 0.0054497 0.00620505 0.00681226 0.00727134 0.00758229 0.00774511 0.0077598 0.00763012 0.00735983 0.00694894 0.00639745 0.00570534 0.00487264 0.00389933 0.00278541 0.00161933 0.000489531 -0.000603985 -0.00166122 -0.00268217 -0.00366684 -0.00461523 -0.00552733 -0.00633321 -0.00696292 -0.00741645 -0.00769381 -0.00779501 -0.00772002 -0.00746887 -0.00704154 -0.00651944 -0.00598395 -0.00543508 -0.00487282 -0.00429718 -0.00370816 -0.00310574 -0.00248995 -0.00190637 -0.0014006 -0.000972636 -0.000622487 -0.000350149 -0.000155622 -3.89055e-05 0 0 -8.45494e-06 -3.38197e-05 -7.60944e-05 -0.000135279 -0.000211373 -0.000304378 -0.000414292 -0.000541116 -0.000705809 -0.000929328 -0.00121167 -0.00155285 -0.00195285 -0.00241168 -0.00292933 -0.00350582 -0.00414046 -0.0048326 -0.00558224 -0.00638937 -0.007254 -0.00817613 -0.00915576 -0.0101929 -0.0112504 -0.0122912 -0.0133152 -0.0143226 -0.0153132 -0.0162871 -0.0172443 -0.0181847 -0.0190506 -0.0197838 -0.0203846 -0.0208529 -0.0211886 -0.0213918 -0.0214624 -0.0214005 -0.0212309 -0.0209784 -0.0206428 -0.0202244 -0.019723 -0.0191386 -0.0184713 -0.017721 -0.0169606 -0.0162626 -0.0156273 -0.0150545 -0.0145442 -0.0140965 -0.0137113 -0.0133887 -0.0130891 -0.0127732 -0.0124409 -0.0120922 -0.0117271 -0.0113456 -0.0109477 -0.0105334 -0.0100121 -0.00929311 -0.00837638 -0.00726195 -0.0059498 -0.00443996 -0.0027324 -0.000827144 0.00118761 0.00322364 0.00528094 0.00735953 0.00945939 0.0115805 0.013723 0.0158867 0.0179205 0.0196732 0.0211449 0.0223356 0.0232452 0.0238737 0.0242212 0.0242876 0.024079 0.0236012 0.0228542 0.0218381 0.0205529 0.0189985 0.017175 0.0150824 0.0128802 0.0107282 0.00862641 0.00657474 0.00457323 0.00262189 0.000720697 -0.00113033 -0.00282127 -0.00424218 -0.00539306 -0.00627392 -0.00688475 -0.00722556 -0.00729634 -0.00709709 -0.00673872 -0.00633214 -0.00587733 -0.00537431 -0.00482306 -0.0042236 -0.00357592 -0.00288003 -0.00220502 -0.00162001 -0.00112501 -0.000720007 -0.000405004 -0.000180002 -4.50004e-05 0 0 -1.16056e-05 -4.64223e-05 -0.00010445 -0.000185689 -0.00029014 -0.000417801 -0.000568673 -0.000742757 -0.00096101 -0.00124439 -0.0015929 -0.00200653 -0.00248529 -0.00302917 -0.00363819 -0.00431233 -0.00504817 -0.00584228 -0.00669467 -0.00760534 -0.00857427 -0.00960149 -0.010687 -0.0118307 -0.0129938 -0.0141372 -0.015261 -0.0163652 -0.0174497 -0.0185146 -0.0195598 -0.0205854 -0.0215282 -0.0223253 -0.0229766 -0.0234821 -0.0238418 -0.0240557 -0.0241238 -0.0240461 -0.0238527 -0.0235733 -0.0232081 -0.0227571 -0.0222202 -0.0215975 -0.020889 -0.0200945 -0.0192915 -0.0185572 -0.0178914 -0.0172944 -0.0167659 -0.0163061 -0.0159149 -0.0155924 -0.0152725 -0.0148893 -0.0144427 -0.0139327 -0.0133593 -0.0127226 -0.0120225 -0.011259 -0.0103116 -0.00905986 -0.00750369 -0.00564312 -0.00347815 -0.00100877 0.00176502 0.0048432 0.00808935 0.011367 0.0146761 0.0180168 0.021389 0.0247926 0.0282278 0.0316945 0.0349535 0.037766 0.0401317 0.0420508 0.0435233 0.044549 0.0451281 0.0452606 0.044955 0.04422 0.0430557 0.0414619 0.0394388 0.0369863 0.0341045 0.0307932 0.0273007 0.0238748 0.0205156 0.0172232 0.0139974 0.0108383 0.007746 0.00472036 0.00192027 -0.000495413 -0.00252669 -0.00417357 -0.00543604 -0.00631411 -0.00680777 -0.00691703 -0.00678782 -0.00656609 -0.00625183 -0.00584504 -0.00534573 -0.00475389 -0.00406952 -0.00329263 -0.00252092 -0.0018521 -0.00128618 -0.000823157 -0.000463026 -0.000205789 -5.14473e-05 0 0 -1.52941e-05 -6.11763e-05 -0.000137647 -0.000244705 -0.000382352 -0.000550587 -0.00074941 -0.000978821 -0.00125921 -0.00161097 -0.0020341 -0.00252859 -0.00309446 -0.00373169 -0.0044403 -0.00522027 -0.00606477 -0.00696696 -0.00792683 -0.00894439 -0.0100196 -0.0111526 -0.0123432 -0.0135915 -0.0148572 -0.0161002 -0.0173203 -0.0185176 -0.019692 -0.0208437 -0.0219725 -0.0230785 -0.0240937 -0.0249503 -0.0256481 -0.0261873 -0.0265677 -0.0267895 -0.0268525 -0.0267569 -0.0265383 -0.0262325 -0.0258395 -0.0253593 -0.0247919 -0.0241373 -0.0233955 -0.0225665 -0.0217311 -0.0209703 -0.020284 -0.0196722 -0.019135 -0.0186722 -0.018284 -0.0179704 -0.0176333 -0.0171749 -0.0165951 -0.015894 -0.0150716 -0.0141278 -0.0130628 -0.0118763 -0.0104134 -0.00851872 -0.00619234 -0.00343426 -0.000244467 0.00337704 0.00743026 0.0119152 0.0166378 0.021404 0.0262139 0.0310675 0.0359646 0.0409055 0.0458899 0.050918 0.0556455 0.059728 0.0631655 0.065958 0.0681056 0.0696082 0.0704659 0.0706786 0.0702581 0.0692164 0.0675533 0.0652689 0.0623631 0.0588361 0.0546877 0.0499181 0.0448807 0.0399292 0.0350637 0.030284 0.0255903 0.0209825 0.0164607 0.0120247 0.00789141 0.00427738 0.00118266 -0.00139275 -0.00344886 -0.00498566 -0.00600316 -0.00650135 -0.00666673 -0.00668581 -0.00655857 -0.00628503 -0.00586517 -0.00529901 -0.00458653 -0.00372775 -0.00285406 -0.00209686 -0.00145615 -0.000931938 -0.000524215 -0.000232984 -5.82461e-05 0 0 -1.95205e-05 -7.80818e-05 -0.000175684 -0.000312327 -0.000488011 -0.000702736 -0.000956502 -0.00124931 -0.00160041 -0.00202907 -0.00253528 -0.00311905 -0.00378036 -0.00451923 -0.00533566 -0.00622964 -0.00719026 -0.00820662 -0.00927871 -0.0104065 -0.0115901 -0.0128294 -0.0141244 -0.0154752 -0.0168407 -0.0181799 -0.0194929 -0.0207797 -0.0220402 -0.0232744 -0.0244824 -0.0256641 -0.026747 -0.0276588 -0.0283992 -0.0289684 -0.0293664 -0.0295931 -0.0296486 -0.0295328 -0.0292878 -0.0289559 -0.0285369 -0.0280309 -0.0274379 -0.0267579 -0.0259908 -0.0251368 -0.0242793 -0.023502 -0.0228049 -0.022188 -0.0216513 -0.0211948 -0.0208186 -0.0205225 -0.0201713 -0.0196299 -0.0188982 -0.0179762 -0.016864 -0.0155614 -0.0140686 -0.0123855 -0.0103174 -0.00766967 -0.00444233 -0.000635364 0.00375123 0.00871746 0.0142633 0.0203888 0.0268329 0.0333348 0.0398943 0.0465115 0.0531864 0.0599191 0.0667094 0.0735574 0.0799962 0.0855592 0.0902461 0.0940572 0.0969922 0.0990513 0.100235 0.100542 0.0999885 0.0985903 0.0963471 0.093259 0.0893259 0.0845478 0.0789248 0.0724568 0.0656202 0.0588915 0.0522705 0.0457574 0.039352 0.0330545 0.0268647 0.0207828 0.0150921 0.0100762 0.005735 0.00206853 -0.000923215 -0.00324023 -0.00488251 -0.00585006 -0.00637546 -0.00669129 -0.00679756 -0.00669426 -0.0063814 -0.00585896 -0.00512696 -0.0041854 -0.00320445 -0.00235429 -0.00163492 -0.00104635 -0.000588572 -0.000261587 -6.53969e-05 0 0 -2.41551e-05 -9.66203e-05 -0.000217396 -0.000386481 -0.000603877 -0.000869583 -0.0011836 -0.00154592 -0.00197179 -0.00247643 -0.00305984 -0.00372201 -0.00446296 -0.00528268 -0.00618117 -0.00715843 -0.00819635 -0.00927683 -0.0103998 -0.0115654 -0.0127735 -0.0140242 -0.0153174 -0.0166532 -0.0179946 -0.0193045 -0.0205831 -0.0218303 -0.0230461 -0.0242304 -0.0253834 -0.026505 -0.0275275 -0.0283833 -0.0290723 -0.0295946 -0.0299502 -0.030139 -0.030161 -0.0300163 -0.0297541 -0.0294236 -0.0290249 -0.0285579 -0.0280226 -0.0274191 -0.0267473 -0.0260073 -0.0252744 -0.024624 -0.0240562 -0.0235709 -0.0231681 -0.0228479 -0.0226102 -0.022455 -0.0221989 -0.0216582 -0.0208331 -0.0197234 -0.0183292 -0.0166504 -0.0146872 -0.0124394 -0.00967033 -0.00614323 -0.0018581 0.00318507 0.00898627 0.0155455 0.0228628 0.0309381 0.0394218 0.0479643 0.0565656 0.0652257 0.0739445 0.0827222 0.0915586 0.100454 0.108811 0.116034 0.122122 0.127076 0.130895 0.133579 0.135129 0.135545 0.134845 0.133051 0.130162 0.126178 0.121099 0.114926 0.107657 0.0992939 0.0904412 0.0817046 0.0730841 0.0645798 0.0561915 0.0479194 0.0397634 0.0317236 0.0241696 0.0174712 0.0116285 0.00664135 0.00250986 -0.000765991 -0.00318622 -0.00475082 -0.00574392 -0.00644963 -0.00686797 -0.00699893 -0.00684251 -0.00639871 -0.00566754 -0.00464898 -0.00355938 -0.00261505 -0.00181601 -0.00116225 -0.000653763 -0.000290561 -7.26403e-05 0 0 -2.90684e-05 -0.000116273 -0.000261615 -0.000465094 -0.000726709 -0.00104646 -0.00142435 -0.00186037 -0.00236052 -0.00293078 -0.00357115 -0.00428163 -0.00506223 -0.00591293 -0.00683374 -0.00782466 -0.00885477 -0.00989315 -0.0109398 -0.0119947 -0.0130579 -0.0141293 -0.0152091 -0.016297 -0.0173693 -0.0184019 -0.0193948 -0.0203481 -0.0212616 -0.0221355 -0.0229697 -0.0237642 -0.0244746 -0.0250566 -0.02551 -0.025835 -0.0260315 -0.0260995 -0.026039 -0.02585 -0.0255899 -0.0253158 -0.0250279 -0.0247261 -0.0244103 -0.0240807 -0.0237372 -0.0233798 -0.0230547 -0.022808 -0.0226397 -0.0225498 -0.0225383 -0.0226052 -0.0227506 -0.0229743 -0.0230281 -0.0226636 -0.0218807 -0.0206794 -0.0190599 -0.0170219 -0.0145657 -0.0116911 -0.00811891 -0.00356992 0.0019559 0.00845853 0.015938 0.0243943 0.0338273 0.0442372 0.0551516 0.0660979 0.0770763 0.0880867 0.0991291 0.110204 0.12131 0.132448 0.142895 0.151926 0.159541 0.165741 0.170524 0.173893 0.175845 0.176382 0.175528 0.173308 0.169723 0.164772 0.158456 0.150774 0.141727 0.131314 0.120265 0.109311 0.0984523 0.0876878 0.0770179 0.0664426 0.055962 0.045576 0.0357708 0.0270325 0.0193612 0.0127568 0.00721935 0.00274886 -0.000654692 -0.0029913 -0.00460201 -0.00582791 -0.00666897 -0.00712521 -0.00719663 -0.00688322 -0.00618498 -0.00510191 -0.00390615 -0.00286983 -0.00199293 -0.00127548 -0.000717456 -0.000318869 -7.97174e-05 0 0 -3.42603e-05 -0.000137041 -0.000308343 -0.000548165 -0.000856507 -0.00123337 -0.00167875 -0.00219266 -0.00276661 -0.00339213 -0.00406923 -0.0047979 -0.00557815 -0.00640997 -0.00729336 -0.00822832 -0.00916552 -0.0100556 -0.0108986 -0.0116944 -0.0124431 -0.0131447 -0.0137992 -0.0144066 -0.0149649 -0.0154721 -0.0159281 -0.016333 -0.0166869 -0.0169896 -0.0172412 -0.0174416 -0.0175883 -0.0176785 -0.0177123 -0.0176896 -0.0176104 -0.0174747 -0.0172826 -0.017034 -0.0167952 -0.0166325 -0.0165459 -0.0165354 -0.016601 -0.0167427 -0.0169605 -0.0172544 -0.0176203 -0.0180539 -0.0185554 -0.0191248 -0.0197619 -0.0204669 -0.0212397 -0.0220803 -0.022659 -0.0226459 -0.022041 -0.0208444 -0.0190561 -0.016676 -0.0137042 -0.0101406 -0.00566314 5.02808e-05 0.00699967 0.015185 0.0246064 0.0352637 0.0471569 0.0602862 0.0740221 0.0877355 0.101426 0.115094 0.12874 0.142363 0.155964 0.169541 0.182248 0.193236 0.202504 0.210052 0.215882 0.219991 0.222382 0.223053 0.222035 0.219361 0.21503 0.209041 0.201396 0.192093 0.181133 0.168516 0.155093 0.141712 0.128375 0.115081 0.101831 0.088624 0.0754604 0.06234 0.0498957 0.0387601 0.0289331 0.0204148 0.0132052 0.00730431 0.00271207 -0.000571489 -0.00294976 -0.00482612 -0.00620057 -0.00707311 -0.00744374 -0.00731247 -0.00667928 -0.00554419 -0.00424477 -0.00311861 -0.0021657 -0.00138605 -0.000779652 -0.000346512 -8.6628e-05 0 0 -3.97309e-05 -0.000158924 -0.000357578 -0.000635694 -0.000993272 -0.00143031 -0.00194681 -0.00254278 -0.00319005 -0.00386048 -0.00455407 -0.00527082 -0.00601073 -0.0067738 -0.00756003 -0.00836941 -0.00912858 -0.00976415 -0.0102761 -0.0106645 -0.0109293 -0.0110704 -0.011088 -0.010982 -0.0107813 -0.010515 -0.0101829 -0.00978519 -0.00932176 -0.00879264 -0.00819782 -0.00753731 -0.00686861 -0.00624921 -0.0056791 -0.0051583 -0.0046868 -0.0042646 -0.0038917 -0.0035681 -0.00337 -0.0033736 -0.00357891 -0.00398592 -0.00459463 -0.00540505 -0.00641717 -0.00763099 -0.00897104 -0.0103619 -0.0118035 -0.0132958 -0.014839 -0.0164329 -0.0180775 -0.019773 -0.0210914 -0.0216052 -0.0213141 -0.0202184 -0.0183178 -0.0156126 -0.0121026 -0.00778786 -0.002303 0.00471736 0.0132732 0.0233646 0.0349914 0.0481537 0.0628516 0.0790849 0.0960335 0.112877 0.129616 0.146249 0.162777 0.179201 0.195519 0.211733 0.226871 0.239963 0.25101 0.260011 0.266966 0.271876 0.27474 0.275558 0.274369 0.27121 0.266082 0.258985 0.249918 0.238882 0.225876 0.210901 0.194923 0.178907 0.162852 0.146761 0.130631 0.114464 0.0982586 0.0820158 0.0665444 0.052654 0.0403443 0.0296155 0.0204675 0.0129004 0.00691408 0.0025086 -0.000787143 -0.00344426 -0.