<?xml version="1.0"?> 
<VTKFile type="StructuredGrid" version="0.1"> 
<StructuredGrid WholeExtent="0 128 0 128 0 0"> 
<Piece Extent="0 128 0 128 0 0"> 
<PointData>
<DataArray type="Float32" Name="u" format="ascii" NumberOfComponents="1"> 
0 0 0 0 0 0 0 0 0 0 0 0 0 0 0 0 0 0 0 0 0 0 0 0 0 0 0 0 0 0 0 0 0 0 0 0 0 0 0 0 0 0 0 0 0 0 0 0 0 0 0 0 0 0 0 0 0 0 0 0 0 0 0 0 0 0 0 0 0 0 0 0 0 0 0 0 0 0 0 0 0 0 0 0 0 0 0 0 0 0 0 0 0 0 0 0 0 0 0 0 0 0 0 0 0 0 0 0 0 0 0 0 0 0 0 0 0 0 0 0 0 0 0 0 0 0 0 0 0 0 2.3179e-10 9.2716e-10 2.08611e-09 3.70864e-09 5.79475e-09 8.34444e-09 1.13577e-08 1.48346e-08 -1.92102e-07 -8.2033e-07 -1.86985e-06 -3.34066e-06 -5.23276e-06 -7.54615e-06 -1.02808e-05 -1.34368e-05 -1.70643e-05 -2.12134e-05 -2.58841e-05 -3.10766e-05 -3.67907e-05 -4.30264e-05 -4.97839e-05 -5.70629e-05 -6.45556e-05 -7.19536e-05 -7.9257e-05 -8.64659e-05 -9.35801e-05 -0.0001006 -0.000107525 -0.000114355 -0.000120667 -0.000126037 -0.000130465 -0.000133951 -0.000136495 -0.000138096 -0.000138756 -0.000138473 -0.000137368 -0.00013556 -0.000133049 -0.000129835 -0.000125918 -0.000121298 -0.000115976 -0.00010995 -0.000103818 -9.81738e-05 -9.30187e-05 -8.83524e-05 -8.4175e-05 -8.04863e-05 -7.72864e-05 -7.45752e-05 -7.25488e-05 -7.1403e-05 -7.11378e-05 -7.17532e-05 -7.32492e-05 -7.56258e-05 -7.8883e-05 -8.30209e-05 -8.78746e-05 -9.32797e-05 -9.92361e-05 -0.000105744 -0.000112803 -0.000120413 -0.000128575 -0.000137288 -0.000146331 -0.000155482 -0.000164742 -0.000174111 -0.000183588 -0.000193174 -0.000202868 -0.000212671 -0.000221926 -0.000229977 -0.000236823 -0.000242465 -0.000246902 -0.000250135 -0.000252164 -0.000252988 -0.000252624 -0.000251091 -0.000248387 -0.000244513 -0.000239469 -0.000233254 -0.00022587 -0.000217315 -0.000208177 -0.000199043 -0.000189912 -0.000180786 -0.000171663 -0.000162544 -0.000153429 -0.000144318 -0.000135227 -0.000126172 -0.000117152 -0.000108168 -9.92193e-05 -9.03066e-05 -8.14296e-05 -7.25883e-05 -6.40249e-05 -5.59818e-05 -4.84588e-05 -4.14561e-05 -3.49736e-05 -2.90112e-05 -2.35691e-05 -1.86472e-05 -1.42768e-05 -1.04891e-05 -7.28407e-06 -4.6618e-06 -2.62226e-06 -1.16545e-06 -2.91363e-07 0 0 9.2716e-10 3.70864e-09 8.34444e-09 1.48346e-08 2.3179e-08 3.33778e-08 4.54309e-08 5.93383e-08 -7.68409e-07 -3.28132e-06 -7.47939e-06 -1.33626e-05 -2.0931e-05 -3.01846e-05 -4.11233e-05 -5.37472e-05 -6.8257e-05 -8.48534e-05 -0.000103537 -0.000124306 -0.000147163 -0.000172106 -0.000199135 -0.000228252 -0.000258222 -0.000287814 -0.000317028 -0.000345863 -0.00037432 -0.000402399 -0.000430099 -0.000457421 -0.00048267 -0.00050415 -0.000521861 -0.000535804 -0.000545979 -0.000552385 -0.000555023 -0.000553893 -0.000549472 -0.00054224 -0.000532196 -0.00051934 -0.000503673 -0.000485194 -0.000463903 -0.000439801 -0.00041527 -0.000392695 -0.000372075 -0.00035341 -0.0003367 -0.000321945 -0.000309145 -0.000298301 -0.000290195 -0.000285612 -0.000284551 -0.000287013 -0.000292997 -0.000302503 -0.000315532 -0.000332083 -0.000351499 -0.000373119 -0.000396944 -0.000422975 -0.000451211 -0.000481653 -0.000514299 -0.000549151 -0.000585322 -0.000621928 -0.000658968 -0.000696443 -0.000734352 -0.000772695 -0.000811473 -0.000850685 -0.000887705 -0.000919907 -0.000947292 -0.000969859 -0.000987609 -0.00100054 -0.00100865 -0.00101195 -0.0010105 -0.00100436 -0.000993548 -0.000978053 -0.000957876 -0.000933018 -0.000903479 -0.000869259 -0.000832707 -0.00079617 -0.000759649 -0.000723143 -0.000686652 -0.000650177 -0.000613718 -0.000577274 -0.000540909 -0.000504687 -0.000468607 -0.000432671 -0.000396877 -0.000361226 -0.000325718 -0.000290353 -0.0002561 -0.000223927 -0.000193835 -0.000165824 -0.000139894 -0.000116045 -9.42765e-05 -7.45888e-05 -5.71071e-05 -4.19562e-05 -2.91363e-05 -1.86472e-05 -1.04891e-05 -4.6618e-06 -1.16545e-06 0 0 2.08611e-09 8.34444e-09 1.8775e-08 3.33778e-08 5.21528e-08 7.51e-08 1.02219e-07 1.33511e-07 -1.72892e-06 -7.38297e-06 -1.68286e-05 -3.00659e-05 -4.70948e-05 -6.79153e-05 -9.25275e-05 -0.000120931 -0.000153578 -0.00019092 -0.000232957 -0.000279689 -0.000331116 -0.000387238 -0.000448055 -0.000513566 -0.000581 -0.000647582 -0.000713313 -0.000778193 -0.000842221 -0.000905398 -0.000967723 -0.0010292 -0.00108601 -0.00113434 -0.00117419 -0.00120556 -0.00122845 -0.00124287 -0.0012488 -0.00124626 -0.00123631 -0.00122004 -0.00119744 -0.00116852 -0.00113326 -0.00109169 -0.00104378 -0.000989552 -0.000934359 -0.000883564 -0.000837168 -0.000795172 -0.000757575 -0.000724376 -0.000695577 -0.000671177 -0.000652939 -0.000642627 -0.00064024 -0.000645779 -0.000659243 -0.000680632 -0.000709947 -0.000747188 -0.000790872 -0.000839518 -0.000893125 -0.000951694 -0.00101523 -0.00108372 -0.00115717 -0.00123559 -0.00131698 -0.00139934 -0.00148268 -0.001567 -0.00165229 -0.00173856 -0.00182581 -0.00191404 -0.00199734 -0.00206979 -0.00213141 -0.00218218 -0.00222212 -0.00225122 -0.00226947 -0.00227689 -0.00227362 -0.00225982 -0.00223548 -0.00220062 -0.00215522 -0.00209929 -0.00203283 -0.00195583 -0.00187359 -0.00179138 -0.00170921 -0.00162707 -0.00154497 -0.0014629 -0.00138086 -0.00129887 -0.00121704 -0.00113555 -0.00105437 -0.00097351 -0.000892974 -0.000812759 -0.000732866 -0.000653294 -0.000576224 -0.000503836 -0.000436129 -0.000373105 -0.000314762 -0.000261101 -0.000212122 -0.000167825 -0.000128491 -9.44015e-05 -6.55566e-05 -4.19562e-05 -2.36004e-05 -1.04891e-05 -2.62226e-06 0 0 3.70864e-09 1.48346e-08 3.33778e-08 5.93383e-08 9.2716e-08 1.33511e-07 1.81723e-07 2.37353e-07 -3.07363e-06 -1.31253e-05 -2.99176e-05 -5.34505e-05 -8.37241e-05 -0.000120738 -0.000164493 -0.000214989 -0.000273028 -0.000339414 -0.000414146 -0.000497225 -0.000588651 -0.000688423 -0.000796542 -0.000913007 -0.00103289 -0.00115126 -0.00126811 -0.00138345 -0.00149728 -0.0016096 -0.0017204 -0.00182968 -0.00193068 -0.0020166 -0.00208744 -0.00214322 -0.00218392 -0.00220954 -0.00222009 -0.00221557 -0.00219789 -0.00216896 -0.00212878 -0.00207736 -0.00201469 -0.00194078 -0.00185561 -0.0017592 -0.00166108 -0.00157078 -0.0014883 -0.00141364 -0.0013468 -0.00128778 -0.00123658 -0.0011932 -0.00116078 -0.00114245 -0.0011382 -0.00114805 -0.00117199 -0.00121001 -0.00126213 -0.00132833 -0.00140599 -0.00149248 -0.00158778 -0.0016919 -0.00180485 -0.00192661 -0.0020572 -0.0021966 -0.00234129 -0.00248771 -0.00263587 -0.00278577 -0.00293741 -0.00309078 -0.00324589 -0.00340274 -0.00355082 -0.00367963 -0.00378917 -0.00387944 -0.00395043 -0.00400216 -0.00403462 -0.0040478 -0.00404199 -0.00401745 -0.00397419 -0.00391221 -0.0038315 -0.00373207 -0.00361392 -0.00347704 -0.00333083 -0.00318468 -0.00303859 -0.00289257 -0.00274661 -0.00260071 -0.00245487 -0.00230909 -0.00216363 -0.00201875 -0.00187443 -0.00173068 -0.00158751 -0.00144491 -0.00130287 -0.00116141 -0.0010244 -0.000895708 -0.000775341 -0.000663297 -0.000559577 -0.00046418 -0.000377106 -0.000298355 -0.000228428 -0.000167825 -0.000116545 -7.45888e-05 -4.19562e-05 -1.86472e-05 -4.6618e-06 0 0 5.79475e-09 2.3179e-08 5.21528e-08 9.2716e-08 1.44869e-07 2.08611e-07 2.83943e-07 3.70864e-07 -4.80255e-06 -2.05082e-05 -4.67462e-05 -8.35164e-05 -0.000130819 -0.000188654 -0.000257021 -0.00033592 -0.000426606 -0.000530334 -0.000647103 -0.000776914 -0.000919767 -0.00107566 -0.0012446 -0.00142657 -0.00161389 -0.00179884 -0.00198143 -0.00216165 -0.0023395 -0.00251499 -0.00268812 -0.00285888 -0.00301668 -0.00315093 -0.00326163 -0.00334878 -0.00341237 -0.00345241 -0.0034689 -0.00346183 -0.0034342 -0.003389 -0.00332622 -0.00324588 -0.00314796 -0.00303246 -0.0028994 -0.00274876 -0.00259544 -0.00245434 -0.00232547 -0.00220881 -0.00210437 -0.00201216 -0.00193216 -0.00186438 -0.00181372 -0.00178508 -0.00177845 -0.00179383 -0.00183123 -0.00189065 -0.00197208 -0.00207552 -0.00219687 -0.00233199 -0.0024809 -0.0026436 -0.00282007 -0.00301033 -0.00321437 -0.00343219 -0.00365827 -0.00388705 -0.00411855 -0.00435277 -0.0045897 -0.00482934 -0.0050717 -0.00531678 -0.00554815 -0.00574942 -0.00592058 -0.00606162 -0.00617255 -0.00625338 -0.00630409 -0.00632469 -0.00631561 -0.00627727 -0.00620968 -0.00611283 -0.00598672 -0.00583136 -0.00564674 -0.00543287 -0.00520442 -0.00497606 -0.0047478 -0.00451964 -0.00429158 -0.00406361 -0.00383574 -0.00360796 -0.00338068 -0.00315429 -0.0029288 -0.00270419 -0.00248048 -0.00225767 -0.00203574 -0.00181471 -0.00160062 -0.00139954 -0.00121147 -0.0010364 -0.000874339 -0.000725281 -0.000589228 -0.00046618 -0.000356919 -0.000262226 -0.000182102 -0.000116545 -6.55566e-05 -2.91363e-05 -7.28407e-06 0 0 8.34444e-09 3.33778e-08 7.51e-08 1.33511e-07 2.08611e-07 3.004e-07 4.08878e-07 5.34044e-07 -6.91568e-06 -2.95319e-05 -6.73145e-05 -0.000120264 -0.000188379 -0.000271661 -0.00037011 -0.000483725 -0.000614313 -0.000763681 -0.000931829 -0.00111876 -0.00132446 -0.00154895 -0.00179222 -0.00205427 -0.002324 -0.00259033 -0.00285325 -0.00311277 -0.00336888 -0.00362159 -0.00387089 -0.00411679 -0.00434403 -0.00453735 -0.00469675 -0.00482224 -0.00491381 -0.00497147 -0.00499521 -0.00498503 -0.00494525 -0.00488016 -0.00478976 -0.00467406 -0.00453306 -0.00436675 -0.00417513 -0.00395821 -0.00373743 -0.00353426 -0.00334867 -0.00318069 -0.0030303 -0.00289751 -0.00278231 -0.00268471 -0.00261176 -0.00257051 -0.00256096 -0.00258312 -0.00263697 -0.00272253 -0.00283979 -0.00298875 -0.00316349 -0.00335807 -0.0035725 -0.00380678 -0.0040609 -0.00433487 -0.00462869 -0.00494236 -0.0052679 -0.00559735 -0.00593072 -0.00626799 -0.00660917 -0.00695426 -0.00730325 -0.00765616 -0.00798934 -0.00827917 -0.00852563 -0.00872873 -0.00888848 -0.00900486 -0.00907789 -0.00910755 -0.00909448 -0.00903927 -0.00894194 -0.00880247 -0.00862088 -0.00839716 -0.00813131 -0.00782334 -0.00749436 -0.00716553 -0.00683684 -0.00650828 -0.00617987 -0.00585159 -0.00552346 -0.00519546 -0.00486818 -0.00454218 -0.00421747 -0.00389404 -0.0035719 -0.00325104 -0.00293147 -0.00261318 -0.0023049 -0.00201534 -0.00174452 -0.00149242 -0.00125905 -0.0010444 -0.000848488 -0.0006713 -0.000513964 -0.000377606 -0.000262226 -0.000167825 -9.44015e-05 -4.19562e-05 -1.04891e-05 0 0 1.13577e-08 4.54309e-08 1.02219e-07 1.81723e-07 2.83943e-07 4.08878e-07 5.56528e-07 7.26894e-07 -9.41301e-06 -4.01962e-05 -9.16226e-05 -0.000163692 -0.000256405 -0.000369761 -0.000503761 -0.000658403 -0.000836148 -0.00103945 -0.00126832 -0.00152275 -0.00180274 -0.0021083 -0.00243941 -0.00279608 -0.00316322 -0.00352573 -0.00388359 -0.00423683 -0.00458543 -0.00492939 -0.00526872 -0.00560341 -0.0059127 -0.00617583 -0.0063928 -0.0065636 -0.00668824 -0.00676672 -0.00679903 -0.00678518 -0.00673103 -0.00664244 -0.0065194 -0.00636192 -0.00616999 -0.00594363 -0.00568282 -0.00538756 -0.00508706 -0.00481051 -0.00455792 -0.00432927 -0.00412457 -0.00394383 -0.00378703 -0.00365419 -0.00355489 -0.00349875 -0.00348575 -0.00351591 -0.00358921 -0.00370567 -0.00386527 -0.00406802 -0.00430586 -0.00457071 -0.00486257 -0.00518145 -0.00552734 -0.00590024 -0.00630016 -0.0067271 -0.0071702 -0.00761862 -0.00807236 -0.00853143 -0.00899581 -0.00946552 -0.00994054 -0.0104209 -0.0108744 -0.0112689 -0.0116043 -0.0118808 -0.0120982 -0.0122566 -0.012356 -0.0123964 -0.0123786 -0.0123035 -0.012171 -0.0119811 -0.011734 -0.0114295 -0.0110676 -0.0106484 -0.0102007 -0.00975308 -0.0093057 -0.0088585 -0.00841149 -0.00796467 -0.00751804 -0.0070716 -0.00662613 -0.00618241 -0.00574044 -0.00530022 -0.00486175 -0.00442502 -0.00399005 -0.00355683 -0.00313722 -0.00274311 -0.00237448 -0.00203135 -0.0017137 -0.00142155 -0.00115489 -0.000913713 -0.000699562 -0.000513964 -0.000356919 -0.000228428 -0.000128491 -5.71071e-05 -1.42768e-05 0 0 1.48346e-08 5.93383e-08 1.33511e-07 2.37353e-07 3.70864e-07 5.34044e-07 7.26894e-07 9.49412e-07 -1.22945e-05 -5.25011e-05 -0.00011967 -0.000213802 -0.000334896 -0.000482953 -0.000657973 -0.000859955 -0.00109211 -0.00135766 -0.00165658 -0.0019889 -0.0023546 -0.00275369 -0.00318617 -0.00365203 -0.00413156 -0.00460503 -0.00507245 -0.00553381 -0.00598913 -0.00643838 -0.00688159 -0.00731874 -0.00772271 -0.00806639 -0.00834978 -0.00857287 -0.00873566 -0.00883817 -0.00888037 -0.00886228 -0.00879155 -0.00867584 -0.00851513 -0.00830944 -0.00805877 -0.0077631 -0.00742245 -0.00703682 -0.00664433 -0.00628312 -0.0059532 -0.00565456 -0.0053872 -0.00515112 -0.00494633 -0.00477282 -0.00464313 -0.00456979 -0.00455282 -0.00459221 -0.00468795 -0.00484005 -0.00504851 -0.00531334 -0.00562398 -0.0059699 -0.00635111 -0.0067676 -0.00721938 -0.00770644 -0.00822879 -0.00878641 -0.00936516 -0.00995085 -0.0105435 -0.0111431 -0.0117496 -0.0123631 -0.0129836 -0.013611 -0.0142033 -0.0147185 -0.0151567 -0.0155177 -0.0158017 -0.0160086 -0.0161385 -0.0161912 -0.016168 -0.0160698 -0.0158968 -0.0156488 -0.015326 -0.0149283 -0.0144557 -0.0139082 -0.0133233 -0.0127387 -0.0121544 -0.0115703 -0.0109864 -0.0104028 -0.00981948 -0.00923638 -0.00865454 -0.00807499 -0.00749772 -0.00692273 -0.00635004 -0.00577962 -0.00521149 -0.00464565 -0.00409759 -0.00358283 -0.00310136 -0.00265319 -0.00223831 -0.00185672 -0.00150842 -0.00119342 -0.000913713 -0.0006713 -0.00046618 -0.000298355 -0.000167825 -7.45888e-05 -1.86472e-05 0 0 -2.771e-07 -1.1084e-06 -2.4939e-06 -4.43359e-06 -6.92749e-06 -9.97559e-06 -1.35779e-05 -1.77344e-05 -3.90059e-05 -9.39532e-05 -0.000182576 -0.000304875 -0.00046085 -0.0006505 -0.000873827 -0.00113083 -0.00142525 -0.00176084 -0.00213759 -0.0025555 -0.00301458 -0.00351483 -0.00405623 -0.00463881 -0.00523818 -0.00582999 -0.00641424 -0.00699093 -0.00756006 -0.00812163 -0.00867563 -0.00922208 -0.00972698 -0.0101564 -0.0105103 -0.0107887 -0.0109915 -0.0111189 -0.0111708 -0.0111471 -0.0110578 -0.0109129 -0.0107122 -0.0104557 -0.0101436 -0.00977576 -0.00935218 -0.00887289 -0.00838531 -0.00793686 -0.00752754 -0.00715736 -0.00682632 -0.00653441 -0.00628164 -0.006068 -0.00590627 -0.00580923 -0.00577686 -0.00580918 -0.00590618 -0.00606786 -0.00629422 -0.00658526 -0.00692546 -0.00729927 -0.00770671 -0.00814776 -0.00862243 -0.00913072 -0.00967263 -0.0102482 -0.0108448 -0.0114499 -0.0120635 -0.0126856 -0.0133163 -0.0139555 -0.0146032 -0.0152594 -0.0158797 -0.0164199 -0.01688 -0.0172598 -0.0175594 -0.0177789 -0.0179182 -0.0179773 -0.0179574 -0.0178594 -0.0176835 -0.0174295 -0.0170976 -0.0166877 -0.0161998 -0.0156339 -0.0150289 -0.0144236 -0.0138179 -0.0132119 -0.0126057 -0.0119991 -0.0113922 -0.010785 -0.0101738 -0.009555 -0.0089286 -0.00829459 -0.00765296 -0.00700372 -0.00634687 -0.00568241 -0.00503239 -0.00441889 -0.0038419 -0.00330143 -0.00279747 -0.00233002 -0.00189908 -0.00150466 -0.00115201 -0.000846373 -0.000587759 -0.000376166 -0.000211593 -9.40414e-05 -2.35104e-05 0 0 -1.16032e-06 -4.64128e-06 -1.04429e-05 -1.85651e-05 -2.9008e-05 -4.17715e-05 -5.68556e-05 -7.42604e-05 -0.000112993 -0.000192059 -0.000311459 -0.000471193 -0.000671262 -0.000911664 -0.0011924 -0.00151347 -0.00187861 -0.00229156 -0.0027523 -0.00326086 -0.00381722 -0.00442138 -0.00507335 -0.00577312 -0.00649227 -0.00720236 -0.0079034 -0.00859537 -0.00927829 -0.00995216 -0.010617 -0.0112727 -0.0118784 -0.0123932 -0.0128169 -0.0131496 -0.0133913 -0.013542 -0.0136018 -0.0135705 -0.013461 -0.013286 -0.0130457 -0.0127399 -0.0123688 -0.0119322 -0.0114301 -0.0108627 -0.0102861 -0.0097565 -0.00927398 -0.00883851 -0.00845009 -0.00810872 -0.00781441 -0.00756715 -0.00737415 -0.00724262 -0.00717257 -0.00716399 -0.00721688 -0.00733124 -0.00750708 -0.00774439 -0.00801792 -0.00830244 -0.00859794 -0.00890443 -0.00922189 -0.00955035 -0.00988978 -0.0102402 -0.010601 -0.0109715 -0.0113518 -0.0117418 -0.0121415 -0.012551 -0.0129702 -0.0133992 -0.0138075 -0.014165 -0.0144715 -0.0147271 -0.0149317 -0.0150854 -0.0151882 -0.0152401 -0.0152416 -0.0151933 -0.0150952 -0.0149472 -0.0147494 -0.0145019 -0.0142045 -0.0138572 -0.013484 -0.0131087 -0.0127313 -0.0123518 -0.0119701 -0.0115864 -0.0112005 -0.0108125 -0.0104043 -0.00995754 -0.00947238 -0.00894877 -0.00838671 -0.0077862 -0.00714725 -0.00646985 -0.00578799 -0.00513565 -0.00451284 -0.00391956 -0.0033558 -0.00282156 -0.00231686 -0.00184168 -0.00141003 -0.00103594 -0.000719405 -0.000460419 -0.000258986 -0.000115105 -2.87762e-05 0 0 -2.63482e-06 -1.05393e-05 -2.37134e-05 -4.21572e-05 -6.58706e-05 -9.48537e-05 -0.000129106 -0.000168629 -0.000234255 -0.000346818 -0.000506319 -0.000712756 -0.000966132 -0.00126644 -0.00161369 -0.00200788 -0.00245219 -0.00294981 -0.00350074 -0.00410497 -0.00476251 -0.00547336 -0.00623752 -0.00705498 -0.00789383 -0.00872214 -0.00953991 -0.0103471 -0.0111438 -0.01193 -0.0127056 -0.0134707 -0.0141771 -0.0147767 -0.0152696 -0.0156557 -0.015935 -0.0161076 -0.0161733 -0.0161323 -0.0160009 -0.0157954 -0.0155157 -0.015162 -0.0147342 -0.0142323 -0.0136563 -0.0130062 -0.0123466 -0.0117421 -0.0111925 -0.010698 -0.0102585 -0.00987406 -0.00954464 -0.00927026 -0.00904676 -0.00886999 -0.00873995 -0.00865664 -0.00862006 -0.00863021 -0.00868709 -0.0087907 -0.00890136 -0.0089794 -0.00902481 -0.0090376 -0.00901777 -0.00896531 -0.00888023 -0.00876252 -0.00863382 -0.00851573 -0.00840827 -0.00831143 -0.00822522 -0.00814963 -0.00808466 -0.00803032 -0.00798662 -0.00795359 -0.00793124 -0.00791956 -0.00791855 -0.00792822 -0.00794855 -0.00797956 -0.00802071 -0.00807148 -0.00813187 -0.00820187 -0.00828148 -0.00837071 -0.00846956 -0.00857802 -0.00868872 -0.00879425 -0.00889462 -0.00898983 -0.00907988 -0.00916477 -0.0092445 -0.00931907 -0.00934596 -0.00928262 -0.00912906 -0.00888528 -0.00855129 -0.00812707 -0.00761264 -0.00700798 -0.00636438 -0.00573311 -0.00511418 -0.00450757 -0.0039133 -0.00333135 -0.00276174 -0.00220446 -0.00168779 -0.00124001 -0.000861117 -0.000551115 -0.000310002 -0.000137779 -3.44447e-05 0 0 -4.70062e-06 -1.88025e-05 -4.23055e-05 -7.52098e-05 -0.000117515 -0.000169222 -0.00023033 -0.000300839 -0.000402792 -0.000558231 -0.000767155 -0.00102956 -0.00134546 -0.00171484 -0.00213771 -0.00261406 -0.00314599 -0.0037356 -0.00438288 -0.00508783 -0.00585046 -0.00667076 -0.00754873 -0.00848438 -0.00944286 -0.0103893 -0.0113238 -0.0122462 -0.0131567 -0.0140551 -0.0149415 -0.0158159 -0.0166229 -0.0173071 -0.0178684 -0.0183069 -0.0186226 -0.0188155 -0.0188855 -0.0188327 -0.0186777 -0.0184408 -0.0181223 -0.017722 -0.01724 -0.0166762 -0.0160308 -0.0153035 -0.014567 -0.0138935 -0.0132831 -0.0127358 -0.0122516 -0.0118304 -0.0114723 -0.0111773 -0.0109241 -0.0106913 -0.010479 -0.0102871 -0.0101157 -0.00996476 -0.00983425 -0.0097242 -0.00957578 -0.00933015 -0.00898732 -0.00854729 -0.00801005 -0.00737562 -0.00664398 -0.00581513 -0.00494327 -0.00408258 -0.00323304 -0.00239467 -0.00156747 -0.000751427 5.34509e-05 0.000847164 0.00158299 0.00221419 0.00274076 0.00316272 0.00348006 0.00369277 0.00380087 0.00380434 0.00370535 0.00350605 0.00320643 0.0028065 0.00230627 0.00170572 0.00100485 0.00020368 -0.000642925 -0.00148008 -0.00230779 -0.00312605 -0.00393486 -0.00473422 -0.00552414 -0.0063046 -0.00699888 -0.00753023 -0.00789864 -0.00810413 -0.00814669 -0.00802633 -0.00774303 -0.0072968 -0.00676157 -0.00621128 -0.00564591 -0.00506547 -0.00446996 -0.00385938 -0.00323374 -0.00259302 -0.00198528 -0.00145857 -0.0010129 -0.000648254 -0.000364643 -0.000162064 -4.05159e-05 0 0 -7.35769e-06 -2.94308e-05 -6.62192e-05 -0.000117723 -0.000183942 -0.000264877 -0.000360527 -0.000470892 -0.000618605 -0.000826297 -0.00109397 -0.00142162 -0.00180925 -0.00225686 -0.00276444 -0.00333201 -0.00396002 -0.00464893 -0.00539874 -0.00620945 -0.00708106 -0.00801358 -0.009007 -0.0100613 -0.0111394 -0.0122039 -0.013255 -0.0142926 -0.0153168 -0.0163275 -0.0173247 -0.0183085 -0.0192159 -0.0199842 -0.0206134 -0.0211033 -0.0214541 -0.0216658 -0.0217383 -0.0216716 -0.0214912 -0.0212225 -0.0208653 -0.0204199 -0.0198861 -0.0192639 -0.0185534 -0.0177546 -0.0169471 -0.0162109 -0.0155458 -0.014952 -0.0144293 -0.0139778 -0.0135975 -0.0132884 -0.0130062 -0.0127066 -0.0123897 -0.0120555 -0.0117039 -0.0113349 -0.0109486 -0.0105449 -0.0100412 -0.0093547 -0.00848547 -0.00743348 -0.00619875 -0.00478126 -0.00318103 -0.00139804 0.000470649 0.00232797 0.00417393 0.00600853 0.00783176 0.00964363 0.0114441 0.0132333 0.0149013 0.0163384 0.0175445 0.0185198 0.0192641 0.0197775 0.02006 0.0201116 0.0199366 0.0195393 0.0189197 0.0180779 0.0170138 0.0157274 0.0142188 0.0124879 0.0106533 0.00883375 0.00702916 0.00523954 0.00346491 0.00170526 -3.94165e-05 -0.00176911 -0.00336303 -0.00470036 -0.00578113 -0.00660532 -0.00717293 -0.00748396 -0.00753842 -0.00733631 -0.00697956 -0.00657014 -0.00610804 -0.00559326 -0.0050258 -0.00440566 -0.00373284 -0.00300734 -0.0023025 -0.00169163 -0.00117474 -0.000751836 -0.000422908 -0.000187959 -4.69898e-05 0 0 -1.06061e-05 -4.24242e-05 -9.54545e-05 -0.000169697 -0.000265151 -0.000381818 -0.000519697 -0.000678787 -0.000881693 -0.00115102 -0.00148676 -0.00188892 -0.00235749 -0.00289249 -0.0034939 -0.00416173 -0.00489426 -0.00568979 -0.00654831 -0.00746982 -0.00845433 -0.00950182 -0.0106123 -0.0117858 -0.0129833 -0.0141659 -0.0153336 -0.0164864 -0.0176243 -0.0187472 -0.0198552 -0.0209484 -0.0219562 -0.0228082 -0.0235044 -0.0240449 -0.0244296 -0.0246585 -0.0247317 -0.0246491 -0.0244416 -0.0241402 -0.0237449 -0.0232556 -0.0226725 -0.0219953 -0.0212243 -0.0203593 -0.0194871 -0.0186942 -0.0179806 -0.0173465 -0.0167916 -0.0163162 -0.0159201 -0.0156034 -0.015293 -0.0149159 -0.0144721 -0.0139616 -0.0133845 -0.0127406 -0.01203 -0.0112528 -0.0102975 -0.00905303 -0.00751925 -0.00569619 -0.00358386 -0.00118225 0.00150862 0.00448877 0.00760795 0.0107159 0.0138126 0.0168982 0.0199725 0.0230355 0.0260874 0.029128 0.0319683 0.0344189 0.0364801 0.0381516 0.0394336 0.040326 0.0408289 0.0409422 0.040673 0.0400282 0.039008 0.0376123 0.0358411 0.0336944 0.0311723 0.0282746 0.0252 0.0221473 0.0191162 0.016107 0.0131194 0.0101537 0.00720966 0.0042874 0.0015616 -0.000793035 -0.00277651 -0.00438883 -0.00562999 -0.00649999 -0.00699882 -0.0071265 -0.00701835 -0.00680971 -0.00650057 -0.00609093 -0.0055808 -0.00497018 -0.00425906 -0.00344744 -0.00263945 -0.00193919 -0.00134666 -0.000861861 -0.000484797 -0.000215465 -5.38663e-05 0 0 -1.44457e-05 -5.77828e-05 -0.000130011 -0.000231131 -0.000361143 -0.000520045 -0.000707839 -0.000924525 -0.00119206 -0.00153239 -0.00194552 -0.00243146 -0.0029902 -0.00362174 -0.00432608 -0.00510322 -0.00594873 -0.00685819 -0.0078316 -0.00886895 -0.00997025 -0.0111355 -0.0123647 -0.0136578 -0.0149747 -0.0162753 -0.0175596 -0.0188275 -0.020079 -0.0213142 -0.0225331 -0.0237356 -0.0248436 -0.0257789 -0.0265416 -0.0271316 -0.0275489 -0.0277936 -0.0278656 -0.027765 -0.0275288 -0.0271941 -0.026761 -0.0262293 -0.0255992 -0.0248705 -0.0240434 -0.0231178 -0.0221868 -0.0213434 -0.0205875 -0.0199193 -0.0193386 -0.0188456 -0.0184402 -0.0181223 -0.0177845 -0.0173191 -0.0167262 -0.0160057 -0.0151576 -0.0141819 -0.0130787 -0.0118479 -0.0103449 -0.00842517 -0.00608867 -0.00333541 -0.000165378 0.00342142 0.00742497 0.0118453 0.0164686 0.0210812 0.0256831 0.0302742 0.0348546 0.0394243 0.0439832 0.0485314 0.0527839 0.0564559 0.0595474 0.0620582 0.0639885 0.0653383 0.0661075 0.0662961 0.0659145 0.0649729 0.0634713 0.0614098 0.0587882 0.0556067 0.0518652 0.0475638 0.0429972 0.0384604 0.0339534 0.0294762 0.0250287 0.020611 0.0162231 0.0118649 0.00777501 0.00419176 0.0011152 -0.00145468 -0.00351788 -0.00507439 -0.00612423 -0.00666738 -0.00687794 -0.00692997 -0.00682349 -0.00655849 -0.00613497 -0.00555294 -0.00481239 -0.00391332 -0.00299613 -0.00220124 -0.00152864 -0.000978329 -0.00055031 -0.000244582 -6.11456e-05 0 0 -1.88766e-05 -7.55065e-05 -0.00016989 -0.000302026 -0.000471916 -0.000679559 -0.000924955 -0.0012081 -0.0015497 -0.00197042 -0.00247027 -0.00304925 -0.00370736 -0.0044446 -0.00526097 -0.00615647 -0.00712342 -0.00815413 -0.0092486 -0.0104068 -0.0116288 -0.0129146 -0.0142641 -0.0156774 -0.0171136 -0.0185321 -0.0199329 -0.0213159 -0.0226811 -0.0240285 -0.0253581 -0.02667 -0.0278781 -0.0288964 -0.0297248 -0.0303634 -0.0308122 -0.0310711 -0.0311402 -0.0310195 -0.0307528 -0.0303842 -0.0299135 -0.0293408 -0.0286662 -0.0278895 -0.0270108 -0.0260301 -0.0250463 -0.0241584 -0.0233665 -0.0226704 -0.0220703 -0.0215661 -0.0211577 -0.0208453 -0.0204808 -0.0199163 -0.0191519 -0.0181875 -0.0170231 -0.0156588 -0.0140944 -0.0123301 -0.0101832 -0.00747109 -0.00419373 -0.000351131 0.00405669 0.00902974 0.014568 0.0206715 0.0270527 0.033424 0.0397853 0.0461367 0.0524783 0.0588099 0.0651316 0.0714434 0.0773483 0.0824493 0.0867464 0.0902396 0.0929289 0.0948143 0.0958958 0.0961734 0.0956612 0.0943733 0.0923096 0.0894702 0.0858551 0.0814643 0.0762977 0.0703555 0.0640449 0.0577733 0.0515407 0.0453472 0.0391927 0.0330773 0.0270009 0.0209635 0.0152772 0.010254 0.00589401 0.00219714 -0.000836595 -0.00320719 -0.00491464 -0.00595895 -0.00655832 -0.00693094 -0.00707681 -0.00699594 -0.00668832 -0.00615394 -0.00539283 -0.00440496 -0.00337255 -0.00247779 -0.00172069 -0.00110124 -0.000619448 -0.00027531 -6.88275e-05 0 0 -2.37734e-05 -9.50935e-05 -0.00021396 -0.000380374 -0.000594334 -0.000855841 -0.0011649 -0.0015215 -0.00194193 -0.0024425 -0.00302318 -0.003684 -0.00442494 -0.00524601 -0.0061472 -0.00712852 -0.00817605 -0.00927587 -0.010428 -0.0116324 -0.0128891 -0.0141981 -0.0155595 -0.0169731 -0.0184028 -0.0198125 -0.0212022 -0.0225719 -0.0239216 -0.0252512 -0.0265608 -0.0278504 -0.0290347 -0.0300282 -0.0308312 -0.0314434 -0.0318649 -0.0320958 -0.032136 -0.0319856 -0.0316961 -0.0313193 -0.0308552 -0.0303037 -0.0296649 -0.0289388 -0.0281253 -0.0272245 -0.0263309 -0.0255392 -0.0248494 -0.0242615 -0.0237755 -0.0233913 -0.023109 -0.0229286 -0.0226498 -0.0220725 -0.0211967 -0.0200223 -0.0185494 -0.016778 -0.0147081 -0.0123396 -0.00944923 -0.00581374 -0.00143308 0.00369274 0.00956373 0.0161799 0.0235412 0.0316476 0.040115 0.0485591 0.0569797 0.0653771 0.0737511 0.0821018 0.0904291 0.0987331 0.106498 0.113208 0.118862 0.123462 0.127007 0.129496 0.130931 0.13131 0.130653 0.128979 0.126286 0.122576 0.117848 0.112103 0.105339 0.0975582 0.089285 0.0810454 0.0728394 0.0646671 0.0565285 0.0484234 0.040352 0.0323142 0.0247161 0.0179637 0.012057 0.00699595 0.00278064 -0.000588975 -0.00311288 -0.00479109 -0.00589133 -0.00668133 -0.00716109 -0.0073306 -0.00718988 -0.00673891 -0.00597771 -0.00490626 -0.00375636 -0.00275977 -0.00191651 -0.00122657 -0.000689943 -0.000306642 -7.66604e-05 0 0 -2.90104e-05 -0.000116042 -0.000261094 -0.000464167 -0.00072526 -0.00104438 -0.00142151 -0.00185667 -0.00235609 -0.00292602 -0.00356647 -0.00427743 -0.00505889 -0.00591087 -0.00683336 -0.00782637 -0.00886433 -0.0099217 -0.0109985 -0.0120947 -0.0132103 -0.0143453 -0.0154997 -0.0166735 -0.017845 -0.0189926 -0.0201163 -0.021216 -0.0222917 -0.0233435 -0.0243714 -0.0253753 -0.0262879 -0.027042 -0.0276375 -0.0280744 -0.0283528 -0.0284726 -0.0284338 -0.0282364 -0.0279411 -0.0276085 -0.0272386 -0.0268313 -0.0263868 -0.025905 -0.0253859 -0.0248294 -0.0243059 -0.0238855 -0.0235682 -0.0233541 -0.023243 -0.0232351 -0.0233303 -0.0235286 -0.0235595 -0.0231526 -0.0223079 -0.0210252 -0.0193047 -0.0171464 -0.0145502 -0.0115161 -0.00777961 -0.00307603 0.00259462 0.00923233 0.0168371 0.0254089 0.0349478 0.0454538 0.0564105 0.0673015 0.0781269 0.0888867 0.0995808 0.110209 0.120772 0.131269 0.141069 0.149539 0.15668 0.162492 0.166974 0.170126 0.171949 0.172443 0.171631 0.169539 0.166165 0.16151 0.155574 0.148357 0.139859 0.13008 0.11966 0.109236 0.0988108 0.088383 0.0779528 0.0675203 0.0570855 0.0466483 0.0367397 0.0278906 0.0201011 0.0133711 0.00770059 0.00308964 -0.000461789 -0.00295369 -0.0047088 -0.00604986 -0.00697686 -0.00748982 -0.00758872 -0.00727357 -0.00654437 -0.00540112 -0.00413523 -0.00303813 -0.00210981 -0.00135028 -0.000759532 -0.00033757 -8.43925e-05 0 0 -3.45878e-05 -0.000138351 -0.00031129 -0.000553405 -0.000864695 -0.00124516 -0.0016948 -0.00221362 -0.00279217 -0.003421 -0.00410012 -0.00482953 -0.00560922 -0.0064392 -0.00731947 -0.00825002 -0.00918827 -0.0100916 -0.01096 -0.0117936 -0.0125922 -0.0133559 -0.0140847 -0.0147786 -0.0154403 -0.0160724 -0.016675 -0.017248 -0.0177915 -0.0183054 -0.0187898 -0.0192446 -0.0196379 -0.0199376 -0.0201439 -0.0202565 -0.0202757 -0.0202013 -0.0200334 -0.0197719 -0.0194877 -0.0192517 -0.0190637 -0.0189237 -0.0188319 -0.0187882 -0.0187926 -0.018845 -0.0189713 -0.0191973 -0.0195229 -0.0199481 -0.020473 -0.0210975 -0.0218216 -0.0226454 -0.02321 -0.0231567 -0.0224854 -0.0211962 -0.019289 -0.0167639 -0.0136208 -0.00985982 -0.00517436 0.000742039 0.00788937 0.0162676 0.0258768 0.0367169 0.048788 0.06209 0.0759391 0.0896513 0.103227 0.116666 0.129967 0.143133 0.156161 0.169052 0.181062 0.191445 0.2002 0.207329 0.21283 0.216704 0.218951 0.219572 0.218595 0.216054 0.211946 0.206273 0.199033 0.190229 0.179858 0.167922 0.155168 0.142346 0.129455 0.116495 0.103466 0.090368 0.0772013 0.0639657 0.051348 0.0400349 0.0300264 0.0213225 0.0139233 0.00782865 0.00303865 -0.000446739 -0.00301072 -0.00503653 -0.00652415 -0.00747358 -0.00788484 -0.00775792 -0.00709281 -0.00588952 -0.00450916 -0.00331285 -0.00230059 -0.00147238 -0.000828214 -0.000368095 -9.20237e-05 0 0 -4.05055e-05 -0.000162022 -0.000364549 -0.000648087 -0.00101264 -0.0014582 -0.00198477 -0.00259235 -0.00325016 -0.00392743 -0.00462414 -0.00534031 -0.00607593 -0.006831 -0.00760552 -0.00839949 -0.00914786 -0.00978559 -0.0103127 -0.0107291 -0.0110349 -0.0112301 -0.0113146 -0.0112885 -0.0111886 -0.0110519 -0.0108784 -0.010668 -0.0104209 -0.0101369 -0.00981606 -0.00945842 -0.00908458 -0.00871519 -0.00835024 -0.00798974 -0.00763368 -0.00728207 -0.0069349 -0.00659217 -0.00633609 -0.00624885 -0.00633046 -0.00658091 -0.00700021 -0.00758835 -0.00834534 -0.00927117 -0.0103271 -0.0114745 -0.0127134 -0.0140436 -0.0154653 -0.0169784 -0.018583 -0.020279 -0.0216013 -0.0220848 -0.0217294 -0.0205353 -0.0185023 -0.0156306 -0.01192 -0.00737064 -0.00163348 0.00564046 0.0144512 0.0247986 0.0366829 0.0501039 0.0650617 0.0815562 0.0987008 0.115609 0.132279 0.148714 0.164911 0.180871 0.196595 0.212082 0.226477 0.238923 0.249422 0.257973 0.264575 0.26923 0.271937 0.272696 0.271545 0.268523 0.263629 0.256863 0.248225 0.237716 0.225335 0.211083 0.195812 0.180375 0.164772 0.149003 0.133067 0.116966 0.100699 0.0842664 0.0685409 0.0543964 0.0418328 0.0308503 0.0214487 0.0136281 0.00738842 0.00272976 -0.000797102 -0.00364133 -0.00580293 -0.0072819 -0.00807824 -0.00819195 -0.00762302 -0.00637147 -0.004878