<?xml version="1.0"?> 
<VTKFile type="StructuredGrid" version="0.1"> 
<StructuredGrid WholeExtent="0 128 0 128 0 0"> 
<Piece Extent="0 128 0 128 0 0"> 
<PointData>
<DataArray type="Float32" Name="u" format="ascii" NumberOfComponents="1"> 
0 0 0 0 0 0 0 0 0 0 0 0 0 0 0 0 0 0 0 0 0 0 0 0 0 0 0 0 0 0 0 0 0 0 0 0 0 0 0 0 0 0 0 0 0 0 0 0 0 0 0 0 0 0 0 0 0 0 0 0 0 0 0 0 0 0 0 0 0 0 0 0 0 0 0 0 0 0 0 0 0 0 0 0 0 0 0 0 0 0 0 0 0 0 0 0 0 0 0 0 0 0 0 0 0 0 0 0 0 0 0 0 0 0 0 0 0 0 0 0 0 0 0 0 0 0 0 0 0 0 2.93232e-08 1.17293e-07 2.63909e-07 4.69171e-07 7.33079e-07 1.05563e-06 1.43684e-06 1.87668e-06 2.13021e-06 1.95245e-06 1.34339e-06 3.03049e-07 -1.16858e-06 -3.07151e-06 -5.40572e-06 -8.17122e-06 -1.14027e-05 -1.5135e-05 -1.93679e-05 -2.41016e-05 -2.9336e-05 -3.50712e-05 -4.1307e-05 -4.80436e-05 -5.49765e-05 -6.18013e-05 -6.85179e-05 -7.51264e-05 -8.16268e-05 -8.80191e-05 -9.43033e-05 -0.000100479 -0.000106172 -0.000111006 -0.000114982 -0.000118099 -0.000120358 -0.000121758 -0.0001223 -0.000121983 -0.000120904 -0.00011916 -0.000116751 -0.000113676 -0.000109936 -0.00010553 -0.000100459 -9.47232e-05 -8.89271e-05 -8.36766e-05 -7.89716e-05 -7.48121e-05 -7.11982e-05 -6.81298e-05 -6.56069e-05 -6.36296e-05 -6.24205e-05 -6.22025e-05 -6.29754e-05 -6.47392e-05 -6.74941e-05 -7.12399e-05 -7.59767e-05 -8.17045e-05 -8.83182e-05 -9.57126e-05 -0.000103888 -0.000112844 -0.000122581 -0.000133098 -0.000144397 -0.000156476 -0.000169054 -0.00018185 -0.000194864 -0.000208095 -0.000221544 -0.00023521 -0.000249094 -0.000263196 -0.000276519 -0.000288067 -0.000297841 -0.00030584 -0.000312065 -0.000316515 -0.00031919 -0.000320091 -0.000319262 -0.000316751 -0.000312556 -0.000306678 -0.000299117 -0.000289873 -0.000278946 -0.000266335 -0.00025297 -0.000239779 -0.000226762 -0.00021392 -0.000201252 -0.000188758 -0.000176439 -0.000164294 -0.000152378 -0.000140747 -0.0001294 -0.000118337 -0.000107559 -9.70646e-05 -8.68548e-05 -7.69294e-05 -6.74622e-05 -5.86274e-05 -5.0425e-05 -4.28549e-05 -3.59171e-05 -2.96117e-05 -2.39387e-05 -1.8898e-05 -1.44688e-05 -1.06301e-05 -7.38204e-06 -4.72451e-06 -2.65753e-06 -1.18113e-06 -2.95282e-07 0 0 1.17293e-07 4.69171e-07 1.05563e-06 1.87668e-06 2.93232e-06 4.22254e-06 5.74734e-06 7.50673e-06 8.52084e-06 7.80978e-06 5.37357e-06 1.2122e-06 -4.67433e-06 -1.2286e-05 -2.16229e-05 -3.26849e-05 -4.56109e-05 -6.05398e-05 -7.74717e-05 -9.64064e-05 -0.000117344 -0.000140285 -0.000165228 -0.000192174 -0.000219906 -0.000247205 -0.000274072 -0.000300506 -0.000326507 -0.000352076 -0.000377213 -0.000401917 -0.000424688 -0.000444025 -0.000459928 -0.000472396 -0.000481431 -0.000487032 -0.000489199 -0.000487931 -0.000483616 -0.00047664 -0.000467002 -0.000454703 -0.000439742 -0.000422121 -0.000401837 -0.000378893 -0.000355708 -0.000334706 -0.000315886 -0.000299248 -0.000284793 -0.000272519 -0.000262428 -0.000254518 -0.000249682 -0.00024881 -0.000251901 -0.000258957 -0.000269976 -0.00028496 -0.000303907 -0.000326818 -0.000353273 -0.00038285 -0.000415551 -0.000451376 -0.000490323 -0.000532393 -0.000577587 -0.000625904 -0.000676217 -0.000727401 -0.000779456 -0.00083238 -0.000886175 -0.000940841 -0.000996377 -0.00105278 -0.00110607 -0.00115227 -0.00119136 -0.00122336 -0.00124826 -0.00126606 -0.00127676 -0.00128036 -0.00127705 -0.001267 -0.00125022 -0.00122671 -0.00119647 -0.00115949 -0.00111578 -0.00106534 -0.00101188 -0.000959115 -0.000907049 -0.00085568 -0.000805008 -0.000755034 -0.000705756 -0.000657176 -0.000609514 -0.000562988 -0.0005176 -0.000473349 -0.000430235 -0.000388259 -0.000347419 -0.000307717 -0.000269849 -0.00023451 -0.0002017 -0.000171419 -0.000143669 -0.000118447 -9.57548e-05 -7.55921e-05 -5.78752e-05 -4.25206e-05 -2.95282e-05 -1.8898e-05 -1.06301e-05 -4.72451e-06 -1.18113e-06 0 0 2.63909e-07 1.05563e-06 2.37518e-06 4.22254e-06 6.59771e-06 9.50071e-06 1.29315e-05 1.68901e-05 1.91719e-05 1.7572e-05 1.20905e-05 2.72744e-06 -1.05172e-05 -2.76435e-05 -4.86515e-05 -7.3541e-05 -0.000102625 -0.000136215 -0.000174311 -0.000216914 -0.000264024 -0.00031564 -0.000371763 -0.000432393 -0.000494789 -0.000556211 -0.000616661 -0.000676138 -0.000734641 -0.000792172 -0.000848729 -0.000904313 -0.000955548 -0.000999056 -0.00103484 -0.00106289 -0.00108322 -0.00109582 -0.0011007 -0.00109785 -0.00108814 -0.00107244 -0.00105075 -0.00102308 -0.00098942 -0.000949771 -0.000904134 -0.000852508 -0.000800344 -0.000753089 -0.000710744 -0.000673309 -0.000640784 -0.000613168 -0.000590462 -0.000572666 -0.000561785 -0.000559822 -0.000566778 -0.000582653 -0.000607447 -0.000641159 -0.00068379 -0.00073534 -0.000794863 -0.000861414 -0.000934991 -0.0010156 -0.00110323 -0.00119789 -0.00129957 -0.00140828 -0.00152149 -0.00163665 -0.00175378 -0.00187286 -0.00199389 -0.00211689 -0.00224185 -0.00236876 -0.00248867 -0.0025926 -0.00268057 -0.00275256 -0.00280858 -0.00284863 -0.00287271 -0.00288081 -0.00287336 -0.00285076 -0.00281301 -0.00276011 -0.00269206 -0.00260886 -0.00251051 -0.00239701 -0.00227673 -0.00215801 -0.00204086 -0.00192528 -0.00181127 -0.00169883 -0.00158795 -0.00147865 -0.00137141 -0.00126672 -0.0011646 -0.00106503 -0.000968029 -0.000873582 -0.000781694 -0.000692364 -0.00060716 -0.000527647 -0.000453825 -0.000385694 -0.000323254 -0.000266506 -0.000215448 -0.000170082 -0.000130219 -9.56713e-05 -6.64384e-05 -4.25206e-05 -2.39178e-05 -1.06301e-05 -2.65753e-06 0 0 4.69171e-07 1.87668e-06 4.22254e-06 7.50673e-06 1.17293e-05 1.68901e-05 2.29894e-05 3.00269e-05 3.40833e-05 3.12391e-05 2.14943e-05 4.84879e-06 -1.86973e-05 -4.91441e-05 -8.64915e-05 -0.000130739 -0.000182444 -0.000242159 -0.000309887 -0.000385626 -0.000469376 -0.000561139 -0.000660912 -0.000768698 -0.000879624 -0.00098882 -0.00109629 -0.00120202 -0.00130603 -0.00140831 -0.00150885 -0.00160767 -0.00169875 -0.0017761 -0.00183971 -0.00188959 -0.00192572 -0.00194813 -0.00195679 -0.00195172 -0.00193446 -0.00190656 -0.00186801 -0.00181881 -0.00175897 -0.00168848 -0.00160735 -0.00151557 -0.00142283 -0.00133882 -0.00126355 -0.00119699 -0.00113917 -0.00109008 -0.00104971 -0.00101807 -0.000998729 -0.000995239 -0.00100761 -0.00103583 -0.00107991 -0.00113984 -0.00121563 -0.00130727 -0.00141309 -0.0015314 -0.00166221 -0.0018055 -0.00196129 -0.00212957 -0.00231035 -0.00250362 -0.00270487 -0.00290961 -0.00311782 -0.00332952 -0.0035447 -0.00376336 -0.00398551 -0.00421113 -0.0044243 -0.00460907 -0.00476545 -0.00489344 -0.00499303 -0.00506423 -0.00510704 -0.00512145 -0.0051082 -0.00506801 -0.0050009 -0.00490685 -0.00478588 -0.00463797 -0.00446313 -0.00426136 -0.00404751 -0.00383646 -0.0036282 -0.00342272 -0.00322003 -0.00302013 -0.00282303 -0.00262871 -0.00243805 -0.00225195 -0.0020704 -0.00189339 -0.00172094 -0.00155303 -0.00138968 -0.00123087 -0.0010794 -0.000938039 -0.000806799 -0.000685678 -0.000574674 -0.000473788 -0.000383019 -0.000302368 -0.000231501 -0.000170082 -0.000118113 -7.55921e-05 -4.25206e-05 -1.8898e-05 -4.72451e-06 0 0 7.33079e-07 2.93232e-06 6.59771e-06 1.17293e-05 1.8327e-05 2.63909e-05 3.59209e-05 4.69171e-05 5.32552e-05 4.88111e-05 3.35848e-05 7.57623e-06 -2.92146e-05 -7.67876e-05 -0.000135143 -0.00020428 -0.000285068 -0.000378374 -0.000484198 -0.00060254 -0.000733401 -0.000876779 -0.00103268 -0.00120109 -0.00137441 -0.00154503 -0.00171295 -0.00187816 -0.00204067 -0.00220048 -0.00235758 -0.00251198 -0.0026543 -0.00277515 -0.00287455 -0.00295248 -0.00300894 -0.00304395 -0.00305749 -0.00304957 -0.0030226 -0.002979 -0.00291876 -0.00284189 -0.00274839 -0.00263825 -0.00251148 -0.00236808 -0.00222318 -0.00209191 -0.00197429 -0.0018703 -0.00177995 -0.00170324 -0.00164017 -0.00159074 -0.00156051 -0.00155506 -0.00157438 -0.00161848 -0.00168735 -0.001781 -0.00189942 -0.00204261 -0.00220795 -0.00239282 -0.0025972 -0.0028211 -0.00306452 -0.00332746 -0.00360992 -0.0039119 -0.00422636 -0.00454626 -0.0048716 -0.00520238 -0.0055386 -0.00588025 -0.00622735 -0.00657989 -0.00691297 -0.00720168 -0.00744602 -0.007646 -0.00780162 -0.00791286 -0.00797975 -0.00800226 -0.00798156 -0.00791877 -0.00781391 -0.00766696 -0.00747793 -0.00724683 -0.00697364 -0.00665837 -0.00632424 -0.00599447 -0.00566906 -0.005348 -0.0050313 -0.00471896 -0.00441098 -0.00410735 -0.00380946 -0.00351867 -0.003235 -0.00295843 -0.00268897 -0.00242662 -0.00217137 -0.00192323 -0.00168656 -0.00146569 -0.00126062 -0.00107137 -0.000897928 -0.000740294 -0.000598468 -0.000472451 -0.00036172 -0.000265753 -0.000184551 -0.000118113 -6.64384e-05 -2.95282e-05 -7.38204e-06 0 0 1.05563e-06 4.22254e-06 9.50071e-06 1.68901e-05 2.63909e-05 3.80028e-05 5.17261e-05 6.75606e-05 7.66875e-05 7.0288e-05 4.83621e-05 1.09098e-05 -4.2069e-05 -0.000110574 -0.000194606 -0.000294164 -0.000410498 -0.000544859 -0.000697245 -0.000867658 -0.0010561 -0.00126256 -0.00148705 -0.00172957 -0.00197915 -0.00222485 -0.00246665 -0.00270455 -0.00293857 -0.00316869 -0.00339492 -0.00361725 -0.00382219 -0.00399622 -0.00413935 -0.00425157 -0.00433288 -0.00438329 -0.00440279 -0.00439138 -0.00435255 -0.00428976 -0.00420302 -0.00409233 -0.00395768 -0.00379908 -0.00361654 -0.00341003 -0.00320138 -0.00301236 -0.00284298 -0.00269324 -0.00256313 -0.00245267 -0.00236185 -0.00229067 -0.00224714 -0.00223929 -0.00226711 -0.00233061 -0.00242979 -0.00256464 -0.00273516 -0.00294136 -0.00317945 -0.00344565 -0.00373996 -0.00406238 -0.00441291 -0.00479154 -0.00519828 -0.00563313 -0.00608596 -0.00654661 -0.0070151 -0.00749142 -0.00797558 -0.00846757 -0.00896739 -0.00947504 -0.00995467 -0.0103704 -0.0107223 -0.0110102 -0.0112343 -0.0113945 -0.0114908 -0.0115233 -0.0114934 -0.011403 -0.011252 -0.0110404 -0.0107682 -0.0104354 -0.010042 -0.00958805 -0.00910691 -0.00863204 -0.00816344 -0.00770112 -0.00724507 -0.0067953 -0.00635181 -0.00591459 -0.00548562 -0.00506689 -0.0046584 -0.00426014 -0.00387212 -0.00349433 -0.00312677 -0.00276946 -0.00242864 -0.00211059 -0.0018153 -0.00154278 -0.00129302 -0.00106602 -0.000861793 -0.000680329 -0.000520877 -0.000382685 -0.000265753 -0.000170082 -9.56713e-05 -4.25206e-05 -1.06301e-05 0 0 1.43684e-06 5.74734e-06 1.29315e-05 2.29894e-05 3.59209e-05 5.17261e-05 7.04049e-05 9.19575e-05 0.00010438 9.56698e-05 6.58262e-05 1.48494e-05 -5.72606e-05 -0.000150504 -0.00026488 -0.00040039 -0.000558734 -0.000741613 -0.000949028 -0.00118098 -0.00143747 -0.00171849 -0.00202404 -0.00235414 -0.00269385 -0.00302826 -0.00335738 -0.0036812 -0.00399971 -0.00431294 -0.00462086 -0.00492348 -0.00520243 -0.0054393 -0.00563411 -0.00578685 -0.00589753 -0.00596614 -0.00599268 -0.00597716 -0.0059243 -0.00583884 -0.00572078 -0.00557011 -0.00538684 -0.00517098 -0.00492251 -0.00464143 -0.00435743 -0.00410015 -0.00386961 -0.00366579 -0.00348871 -0.00333836 -0.00321474 -0.00311785 -0.00305861 -0.00304792 -0.00308579 -0.00317222 -0.00330721 -0.00349076 -0.00372286 -0.00400352 -0.00432759 -0.00468992 -0.00509051 -0.00552935 -0.00600646 -0.00652182 -0.00707544 -0.00766732 -0.00828366 -0.00891067 -0.00954833 -0.0101967 -0.0108556 -0.0115253 -0.0122056 -0.0128966 -0.0135494 -0.0141153 -0.0145942 -0.0149862 -0.0152912 -0.0155092 -0.0156403 -0.0156844 -0.0156439 -0.0155208 -0.0153153 -0.0150272 -0.0146567 -0.0142038 -0.0136683 -0.0130504 -0.0123955 -0.0117492 -0.0111113 -0.0104821 -0.00986135 -0.00924916 -0.00864551 -0.00805041 -0.00746654 -0.0068966 -0.0063406 -0.00579852 -0.00527038 -0.00475617 -0.00425589 -0.00376954 -0.00330565 -0.00287274 -0.00247082 -0.00209989 -0.00175994 -0.00145098 -0.001173 -0.000926003 -0.000708971 -0.000520877 -0.00036172 -0.000231501 -0.000130219 -5.78752e-05 -1.44688e-05 0 0 1.87668e-06 7.50673e-06 1.68901e-05 3.00269e-05 4.69171e-05 6.75606e-05 9.19575e-05 0.000120108 0.000136333 0.000124957 8.59771e-05 1.93952e-05 -7.47893e-05 -0.000196576 -0.000345966 -0.000522958 -0.000729775 -0.000968638 -0.00123955 -0.0015425 -0.00187751 -0.00224455 -0.00264365 -0.00307479 -0.0035185 -0.00395528 -0.00438515 -0.00480809 -0.00522412 -0.00563322 -0.00603541 -0.00643067 -0.00679501 -0.0071044 -0.00735884 -0.00755834 -0.0077029 -0.00779251 -0.00782718 -0.0078069 -0.00773786 -0.00762624 -0.00747203 -0.00727525 -0.00703588 -0.00675393 -0.0064294 -0.00606228 -0.00569133 -0.0053553 -0.00505418 -0.00478797 -0.00455668 -0.00436031 -0.00419884 -0.00407229 -0.00399491 -0.00398096 -0.00403042 -0.00414331 -0.00431962 -0.00455935 -0.00486251 -0.00522909 -0.00565236 -0.00612561 -0.00664882 -0.00722201 -0.00784517 -0.0085183 -0.00924139 -0.0100145 -0.0108195 -0.0116384 -0.0124713 -0.0133181 -0.0141788 -0.0150535 -0.015942 -0.0168445 -0.0176972 -0.0184363 -0.0190618 -0.0195738 -0.0199721 -0.0202569 -0.0204282 -0.0204858 -0.0204328 -0.0202721 -0.0200036 -0.0196274 -0.0191435 -0.0185519 -0.0178525 -0.0170454 -0.0161901 -0.0153458 -0.0145128 -0.0136909 -0.0128801 -0.0120805 -0.0112921 -0.0105148 -0.00975222 -0.00900781 -0.0082816 -0.00757358 -0.00688376 -0.00621214 -0.00555871 -0.00492348 -0.00431758 -0.00375215 -0.0032272 -0.00274271 -0.0022987 -0.00189515 -0.00153208 -0.00120947 -0.000926003 -0.000680329 -0.000472451 -0.000302368 -0.000170082 -7.55921e-05 -1.8898e-05 0 0 2.00215e-06 8.0086e-06 1.80193e-05 3.20344e-05 5.00537e-05 7.20774e-05 9.81053e-05 0.000128138 0.000142904 0.000123136 6.88326e-05 -2.0006e-05 -0.00014338 -0.000301289 -0.000493733 -0.000720712 -0.000984824 -0.00128867 -0.00163224 -0.00201555 -0.00243858 -0.00290135 -0.00340384 -0.00394607 -0.00450396 -0.00505345 -0.00559453 -0.0061272 -0.00665147 -0.00716733 -0.00767479 -0.00817384 -0.00863395 -0.00902458 -0.00934572 -0.00959738 -0.00977956 -0.00989226 -0.00993548 -0.00990921 -0.00982157 -0.00968067 -0.00948652 -0.0092391 -0.00893843 -0.0085845 -0.00817731 -0.00771686 -0.00725177 -0.00683067 -0.00645355 -0.0061204 -0.00583124 -0.00558607 -0.00538487 -0.00522766 -0.00512893 -0.00510321 -0.00515047 -0.00527074 -0.005464 -0.00573026 -0.00606952 -0.00648177 -0.00695635 -0.00748258 -0.00806047 -0.00869002 -0.00937122 -0.0101041 -0.0108886 -0.0117247 -0.0125961 -0.0134864 -0.0143955 -0.0153234 -0.0162701 -0.0172357 -0.0182201 -0.0192233 -0.0201728 -0.0209961 -0.0216931 -0.0222638 -0.0227083 -0.0230265 -0.0232185 -0.0232842 -0.023227 -0.0230503 -0.0227541 -0.0223384 -0.0218032 -0.0211484 -0.0203742 -0.0194804 -0.0185342 -0.0176029 -0.0166863 -0.0157846 -0.0148976 -0.0140254 -0.013168 -0.0123254 -0.0114961 -0.0106787 -0.00987304 -0.00907924 -0.00829726 -0.0075271 -0.00676878 -0.00602228 -0.00530408 -0.00463064 -0.00400196 -0.00341804 -0.00287888 -0.00238449 -0.00193485 -0.00152998 -0.00117139 -0.000860611 -0.000597647 -0.000382494 -0.000215153 -9.56235e-05 -2.39059e-05 0 0 1.44021e-06 5.76082e-06 1.29619e-05 2.30433e-05 3.60051e-05 5.18474e-05 7.05701e-05 9.21732e-05 9.44506e-05 5.51964e-05 -2.55894e-05 -0.000147907 -0.000311756 -0.000517137 -0.00076405 -0.00105249 -0.00138508 -0.00176444 -0.00219055 -0.00266342 -0.00318305 -0.00374945 -0.0043626 -0.00502252 -0.00570111 -0.00637031 -0.0070301 -0.00768049 -0.00832147 -0.00895306 -0.00957524 -0.010188 -0.0107533 -0.0112329 -0.0116269 -0.0119353 -0.0121581 -0.0122953 -0.0123468 -0.0123127 -0.0122038 -0.0120309 -0.011794 -0.011493 -0.0111281 -0.0106992 -0.0102064 -0.00964946 -0.00908743 -0.00857912 -0.00812455 -0.0077237 -0.00737659 -0.0070832 -0.00684353 -0.0066576 -0.00653353 -0.00647947 -0.00649542 -0.00658138 -0.00673734 -0.00696331 -0.00725929 -0.00762528 -0.00804213 -0.00849071 -0.00897101 -0.00948303 -0.0100268 -0.0106022 -0.0112094 -0.0118483 -0.0125164 -0.0132111 -0.0139323 -0.0146801 -0.0154545 -0.0162555 -0.0170831 -0.0179373 -0.018751 -0.0194572 -0.0200558 -0.020547 -0.0209306 -0.0212068 -0.0213754 -0.0214365 -0.0213933 -0.0212491 -0.0210039 -0.0206576 -0.0202104 -0.0196621 -0.0190129 -0.0182626 -0.0174718 -0.0167012 -0.0159507 -0.0152203 -0.01451 -0.0138198 -0.0131498 -0.0124999 -0.0118518 -0.0111874 -0.0105066 -0.00980941 -0.00909586 -0.00836594 -0.00761963 -0.00685696 -0.00610479 -0.00539002 -0.00471265 -0.00407267 -0.00347009 -0.00290491 -0.00237713 -0.00188675 -0.00144454 -0.00106129 -0.00073701 -0.000471687 -0.000265324 -0.000117922 -2.94804e-05 0 0 1.90853e-07 7.63413e-07 1.71768e-06 3.05365e-06 4.77133e-06 6.87072e-06 9.35182e-06 1.22146e-05 -9.0278e-06 -7.88623e-05 -0.000197289 -0.000364308 -0.000579919 -0.000844122 -0.00115692 -0.0015183 -0.00193056 -0.00239594 -0.00291447 -0.00348613 -0.00411092 -0.00478886 -0.00551993 -0.00630413 -0.00710995 -0.00790586 -0.00869186 -0.00946794 -0.0102341 -0.0109904 -0.0117368 -0.0124732 -0.013153 -0.0137295 -0.0142025 -0.0145722 -0.0148386 -0.0150015 -0.0150611 -0.0150173 -0.0148845 -0.0146768 -0.0143943 -0.0140371 -0.013605 -0.0130982 -0.0125165 -0.0118601 -0.0111983 -0.0106007 -0.0100672 -0.00959788 -0.00919271 -0.00885169 -0.00857483 -0.00836212 -0.00820871 -0.00810976 -0.00806526 -0.00807522 -0.00813964 -0.00825851 -0.00843183 -0.00865962 -0.00890971 -0.00914999 -0.00938043 -0.00960105 -0.00981185 -0.0100128 -0.010204 -0.0103853 -0.0105803 -0.0108125 -0.0110818 -0.0113884 -0.0117322 -0.0121131 -0.0125312 -0.0129865 -0.0134318 -0.0138197 -0.0141502 -0.0144234 -0.0146392 -0.0147977 -0.0148988 -0.0149426 -0.0149316 -0.0148684 -0.0147529 -0.0145852 -0.0143652 -0.014093 -0.0137686 -0.0133919 -0.0130027 -0.0126406 -0.0123057 -0.0119979 -0.0117173 -0.0114637 -0.0112374 -0.0110381 -0.0108192 -0.0105339 -0.0101822 -0.00976411 -0.00927958 -0.00872863 -0.00811127 -0.0074275 -0.0067197 -0.00603029 -0.00535926 -0.00470661 -0.00407233 -0.00345644 -0.00285892 -0.00227978 -0.00174546 -0.00128238 -0.000890541 -0.000569946 -0.000320595 -0.000142487 -3.56216e-05 0 0 -1.74591e-06 -6.98363e-06 -1.57132e-05 -2.79345e-05 -4.36477e-05 -6.28527e-05 -8.55495e-05 -0.000111738 -0.000167531 -0.00027904 -0.000446266 -0.000669209 -0.000947867 -0.00128224 -0.00167233 -0.00211814 -0.00262124 -0.00318319 -0.003804 -0.00448367 -0.00522219 -0.00601957 -0.00687581 -0.00779091 -0.00873047 -0.0096601 -0.0105798 -0.0114896 -0.0123894 -0.0132793 -0.0141593 -0.0150294 -0.0158331 -0.0165141 -0.0170724 -0.017508 -0.0178209 -0.018011 -0.0180784 -0.0180231 -0.0178636 -0.0176185 -0.0172877 -0.0168712 -0.0163691 -0.0157813 -0.0151078 -0.0143487 -0.0135844 -0.0128953 -0.0122815 -0.0117429 -0.0112796 -0.0108916 -0.0105788 -0.0103412 -0.0101545 -0.00999406 -0.00985999 -0.00975227 -0.00967088 -0.00961584 -0.00958714 -0.00958478 -0.00955909 -0.00946041 -0.00928874 -0.00904408 -0.00872643 -0.00833579 -0.00787216 -0.00733553 -0.00678773 -0.00629057 -0.00584405 -0.00544817 -0.00510293 -0.00480833 -0.00456436 -0.00437104 -0.00421516 -0.00408351 -0.0039761 -0.00389293 -0.003834 -0.00379931 -0.00378886 -0.00380265 -0.00384197 -0.00390813 -0.00400111 -0.00412093 -0.00426757 -0.00444105 -0.00464136 -0.0048685 -0.00512698 -0.00542131 -0.00575149 -0.00611753 -0.00651941 -0.00695715 -0.00743074 -0.00794017 -0.0083984 -0.00871833 -0.00889998 -0.00894333 -0.00884841 -0.00861519 -0.00824369 -0.00773391 -0.00714883 -0.00655146 -0.0059418 -0.00531984 -0.00468559 -0.00403905 -0.00338022 -0.00270909 -0.00207415 -0.00152386 -0.00105824 -0.000677273 -0.000380966 -0.000169318 -4.23296e-05 0 0 -4.37008e-06 -1.74803e-05 -3.93307e-05 -6.99213e-05 -0.000109252 -0.000157323 -0.000214134 -0.000279685 -0.000381059 -0.000545337 -0.000772521 -0.00106261 -0.0014156 -0.0018315 -0.0023103 -0.00285201 -0.00345713 -0.00412618 -0.00485915 -0.00565604 -0.00651686 -0.0074416 -0.00843026 -0.00948285 -0.0105627 -0.011633 -0.0126939 -0.0137454 -0.0147874 -0.0158199 -0.016843 -0.0178566 -0.0187936 -0.019587 -0.0202367 -0.0207427 -0.0211051 -0.0213238 -0.0213988 -0.0213301 -0.0211413 -0.0208559 -0.020474 -0.0199954 -0.0194203 -0.0187486 -0.0179802 -0.0171153 -0.0162457 -0.015463 -0.0147674 -0.0141588 -0.0136373 -0.0132028 -0.0128553 -0.0125949 -0.0123708 -0.0121324 -0.0118796 -0.0116125 -0.0113311 -0.0110353 -0.0107252 -0.0104008 -0.00999026 -0.00942198 -0.00869594 -0.00781212 -0.00677053 -0.00557116 -0.00421403 -0.00269912 -0.00113879 0.000354597 0.00178105 0.00314055 0.00443313 0.00565876 0.00681745 0.00790921 0.00889887 0.00975127 0.0104664 0.0110443 0.011485 0.0117884 0.0119545 0.0119834 0.0118756 0.0116316 0.0112514 0.010735 0.0100825 0.00929375 0.00836883 0.00730772 0.00615539 0.00495681 0.00371197 0.00242088 0.00108353 -0.000300076 -0.00172994 -0.00320606 -0.0045893 -0.00574056 -0.00665981 -0.00734708 -0.00780235 -0.00802562 -0.0080169 -0.00777618 -0.00739216 -0.00695352 -0.00646026 -0.00591238 -0.00530988 -0.00465276 -0.00394102 -0.00317467 -0.0024306 -0.00178575 -0.0012401 -0.000793666 -0.000446437 -0.000198417 -4.96042e-05 0 0 -7.68166e-06 -3.07266e-05 -6.91349e-05 -0.000122907 -0.000192042 -0.00027654 -0.000376401 -0.000491626 -0.000649611 -0.000877754 -0.00117605 -0.00154451 -0.00198312 -0.00249189 -0.00307082 -0.00371991 -0.00443824 -0.00522491 -0.00607991 -0.00700325 -0.00799492 -0.00905493 -0.0101833 -0.01138 -0.0126066 -0.0138247 -0.0150343 -0.0162354 -0.017428 -0.0186121 -0.0197877 -0.0209548 -0.0220345 -0.022948 -0.0236953 -0.0242763 -0.0246912 -0.0249398 -0.0250221 -0.0249383 -0.0247175 -0.0243891 -0.0239532 -0.0234097 -0.0227587 -0.022 -0.0211338 -0.02016 -0.0191822 -0.0183038 -0.017525 -0.0168456 -0.0162658 -0.0157854 -0.0154045 -0.0151231 -0.0148577 -0.0145247 -0.0141241 -0.013656 -0.0131202 -0.0125169 -0.011846 -0.0111076 -0.0102032 -0.00903471 -0.00760202 -0.00590516 -0.00394413 -0.00171893 0.000770434 0.00352397 0.00636656 0.00912305 0.0117935 0.0143778 0.016876 0.0192882 0.0216142 0.0238542 0.0259103 0.0276847 0.0291774 0.0303884 0.0313178 0.0319654 0.0323314 0.0324156 0.0322211 0.0317508 0.0310047 0.0299828 0.028685 0.0271114 0.025262 0.0231367 0.0208444 0.0184937 0.0160847 0.0136173 0.0110916 0.00850749 0.00586504 0.00316425 0.000608043 -0.00160062 -0.00346175 -0.00497534 -0.0061414 -0.00695991 -0.00743089 -0.00755433 -0.0074497 -0.00723647 -0.00691465 -0.00648422 -0.00594519 -0.00529756 -0.00454134 -0.00367651 -0.00281483 -0.00206804 -0.00143614 -0.000919127 -0.000517009 -0.000229782 -5.74454e-05 0 0 -1.16807e-05 -4.67226e-05 -0.000105126 -0.00018689 -0.000292016 -0.000420503 -0.000572352 -0.000747562 -0.000973189 -0.00127629 -0.00165686 -0.00211491 -0.00265043 -0.00326342 -0.00395389 -0.00472183 -0.00556455 -0.00647937 -0.00746628 -0.00852529 -0.00965638 -0.0108596 -0.0121349 -0.0134822 -0.0148621 -0.016235 -0.0176008 -0.0189595 -0.0203112 -0.0216559 -0.0229934 -0.024324 -0.0255558 -0.0265972 -0.0274482 -0.0281089 -0.0285791 -0.028859 -0.0289485 -0.0288476 -0.0285921 -0.0282181 -0.0277254 -0.0271141 -0.0263842 -0.0255356 -0.0245685 -0.0234827 -0.0223939 -0.0214177 -0.0205542 -0.0198033 -0.019165 -0.0186394 -0.0182263 -0.017926 -0.0176152 -0.0171711 -0.0165936 -0.0158827 -0.0150384 -0.0140607 -0.0129496 -0.0117052 -0.010198 -0.00829858 -0.00600699 -0.00332321 -0.000247253 0.00322089 0.00708122 0.0113337 0.0157283 0.0200148 0.0241932 0.0282635 0.0322257 0.0360799 0.039826 0.043464 0.0468191 0.0497167 0.0521568 0.0541393 0.0556643 0.0567317 0.0573416 0.0574939 0.0571946 0.0564496 0.0552587 0.0536222 0.0515399 0.0490119 0.0460381 0.0426185 0.0389401 0.0351894 0.0313667 0.0274718 0.0235047 0.0194655 0.0153542 0.0111707 0.00719364 0.00370147 0.000694212 -0.00182813 -0.00386556 -0.00541807 -0.00648567 -0.00706835 -0.00732145 -0.00740032 -0.00730496 -0.00703536 -0.00659153 -0.00597346 -0.00518116 -0.00421462 -0.00322682 -0.00237072 -0.00164634 -0.00105365 -0.000592681 -0.000263414 -6.58534e-05 0 0 -1.6367e-05 -6.54682e-05 -0.000147303 -0.000261873 -0.000409176 -0.000589214 -0.000801985 -0.00104749 -0.00135179 -0.00174094 -0.00221495 -0.00277381 -0.00341752 -0.00414609 -0.00495951 -0.00585778 -0.00683608 -0.00788958 -0.00901827 -0.0102222 -0.0115012 -0.0128555 -0.014285 -0.0157897 -0.0173294 -0.018864 -0.0203935 -0.0219179 -0.0234371 -0.0249512 -0.0264603 -0.0279642 -0.0293575 -0.0305346 -0.0314955 -0.0322403 -0.032769 -0.0330815 -0.0331778 -0.033058 -0.0327653 -0.0323428 -0.0317906 -0.0311086 -0.0302969 -0.0293555 -0.0282843 -0.0270834 -0.0258808 -0.0248047 -0.023855 -0.0230318 -0.022335 -0.0217647 -0.0213208 -0.0210034 -0.0206433 -0.0200715 -0.0192879 -0.0182925 -0.0170854 -0.0156666 -0.014036 -0.0121937 -0.00997454 -0.0072136 -0.00391085 -6.62731e-05 0.00432012 0.00924832 0.0147183 0.0207302 0.0269465 0.0330298 0.0389802 0.0447977 0.0504823 0.0560339 0.0614527 0.0667385 0.0716254 0.0758474 0.0794047 0.0822971 0.0845247 0.0860874 0.0869853 0.0872184 0.0867961 0.0857278 0.0840136 0.0816534 0.0786472 0.0749952 0.0706971 0.0657531 0.0604424 0.055044 0.0495579 0.0439843 0.038323 0.0325741 0.0267376 0.0208134 0.0151675 0.0101657 0.00580808 0.00209456 -0.00097483 -0.00340009 -0.00518123 -0.00631823 -0.00700741 -0.00744507 -0.0076312 -0.0075658 -0.00724889 -0.00668045 -0.00586049 -0.004789 -0.00366658 -0.00269381 -0.0018707 -0.00119725 -0.000673453 -0.000299312 -7.48281e-05 0 0 -2.16607e-05 -8.66426e-05 -0.000194946 -0.00034657 -0.000541516 -0.000779784 -0.00106137 -0.00138628 -0.00177597 -0.00225191 -0.00281409 -0.00346251 -0.00419718 -0.00501809 -0.00592524 -0.00691863 -0.0079886 -0.00912547 -0.0103292 -0.0115999 -0.0129375 -0.0143419 -0.0158133 -0.0173516 -0.0189222 -0.0204906 -0.0220567 -0.0236206 -0.0251823 -0.0267418 -0.028299 -0.029854 -0.0312944 -0.0325076 -0.0334937 -0.0342527 -0.0347846 -0.0350893 -0.0351669 -0.0350175 -0.0346926 -0.0342441 -0.033672 -0.0329762 -0.0321568 -0.0312138 -0.0301471 -0.0289568 -0.0277747 -0.0267326 -0.0258305 -0.0250685 -0.0244466 -0.0239646 -0.0236227 -0.0234208 -0.02313 -0.0225212 -0.0215944 -0.0203496 -0.0187868 -0.0169061 -0.0147074 -0.0121907 -0.00915252 -0.00538951 -0.000901628 0.00431114 0.0102488 0.0169113 0.0242987 0.032411 0.0407983 0.0490109 0.0570489 0.064912 0.0726005 0.0801143 0.0874533 0.0946176 0.101244 0.106971 0.111798 0.115724 0.11875 0.120876 0.122102 0.122427 0.121867 0.120433 0.118128 0.11495 0.110899 0.105976 0.10018 0.0935121 0.0863478 0.0790635 0.0716591 0.0641346 0.0564901 0.0487256 0.040841 0.0328364 0.0251871 0.0183687 0.0123811 0.00722429 0.0028983 -0.000596885 -0.00326126 -0.00509482 -0.00634021 -0.0072401 -0.00779448 -0.00800335 -0.00786671 -0.00738455 -0.00655689 -0.00538372 -0.00412191 -0.00302834 -0.00210301 -0.00134593 -0.000757085 -0.000336482 -8.41206e-05 0 0 -2.74813e-05 -0.000109925 -0.000247331 -0.0004397 -0.000687032 -0.000989326 -0.00134658 -0.0017588 -0.0022363 -0.00278938 -0.00341805 -0.00412231 -0.00490216 -0.0057576 -0.00668863 -0.00769525 -0.00875789 -0.00985699 -0.0109925 -0.0121646 -0.013373 -0.014618 -0.0158994 -0.0172172 -0.0185544 -0.0198935 -0.0212348 -0.0225781 -0.0239235 -0.025271 -0.0266206 -0.0279722 -0.0292214 -0.0302638 -0.0310992 -0.0317279 -0.0321496 -0.0323645 -0.0323725 -0.0321736 -0.0318298 -0.031403 -0.030893 -0.0303001 -0.0296241 -0.028865 -0.0280229 -0.0270977 -0.0262072 -0.0254693 -0.0248838 -0.0244508 -0.0241703 -0.0240423 -0.0240668 -0.0242438 -0.0242634 -0.0238156 -0.0229004 -0.0215178 -0.0196679 -0.0173506 -0.0145659 -0.0113139 -0.00735156 -0.00243606 0.00343262 0.0102545 0.0180295 0.0267578 0.0364392 0.0470738 0.0580612 0.068801 0.0792933 0.089538 0.0995352 0.109285 0.118787 0.128041 0.136592 0.143982 0.150212 0.155282 0.159192 0.161941 0.16353 0.163959 0.163247 0.161414 0.15846 0.154384 0.149187 0.142868 0.135428 0.126867 0.117653 0.108254 0.0986707 0.0889026 0.0789499 0.0688125 0.0584905 0.0479838 0.0379101 0.028887 0.0209145 0.0139926 0.00812133 0.00330065 -0.000469444 -0.00318893 -0.0051525 -0.00665484 -0.00769593 -0.00827579 -0.00839441 -0.00805179 -0.00724794 -0.00598284 -0.00458061 -0.00336535 -0.00233705 -0.00149571 -0.000841337 -0.000373928 -9.34819e-05 0 0 -3.38289e-05 -0.000135316 -0.00030446 -0.000541262 -0.000845722 -0.00121784 -0.00165762 -0.00216505 -0.00273276 -0.00335335 -0.00402684 -0.00475322 -0.00553249 -0.00636464 -0.00724969 -0.00818763 -0.00914395 -0.0100841 -0.0110082 -0.0119161 -0.012808 -0.0136836 -0.0145432 -0.0153866 -0.0162259 -0.0170729 -0.0179278 -0.0187904 -0.0196608 -0.0205389 -0.0214249 -0.0223186 -0.0231386 -0.0238031 -0.0243122 -0.0246659 -0.0248642 -0.024907 -0.0247945 -0.0245266 -0.0241769 -0.0238193 -0.0234537 -0.0230801 -0.0226986 -0.022309 -0.0219115 -0.021506 -0.0211784 -0.0210147 -0.0210147 -0.0211786 -0.0215063 -0.0219978 -0.0226532 -0.0234723 -0.0240434 -0.0239546 -0.0232059 -0.0217972 -0.0197286 -0.0170001 -0.0136117 -0.00956334 -0.00457165 0.00164676 0.00909191 0.0177638 0.0276624 0.0387877 0.0511398 0.0647186 0.0787351 0.0924001 0.105714 0.118676 0.131286 0.143546 0.155453 0.16701 0.177668 0.186881 0.194649 0.200972 0.20585 0.209283 0.211271 0.211814 0.210938 0.20867 0.205009 0.199956 0.19351 0.185672 0.176441 0.165818 0.154358 0.142616 0.130593 0.118288 0.105702 0.0928348 0.0796859 0.0662556 0.0533364 0.0417206 0.0314083 0.0223996 0.0146943 0.0082925 0.00319421 -0.000600583 -0.00344428 -0.00568926 -0.00733555 -0.00838312 -0.008832 -0.00868216 -0.00793363 -0.00658638 -0.0050427 -0.00370484 -0.00257281 -0.0016466 -0.00092621 -0.000411649 -0.000102912 0 0 -4.07035e-05 -0.000162814 -0.000366332 -0.000651256 -0.00101759 -0.00146533 -0.00199447 -0.00260502 -0.00326535 -0.00394383 -0.00464045 -0.00535522 -0.00608814 -0.0068392 -0.00760842 -0.00839577 -0.00914678 -0.00980692 -0.0103762 -0.0108546 -0.0112422 -0.0115389 -0.0117448 -0.0118598 -0.0119368 -0.0120288 -0.0121356 -0.0122573 -0.012394 -0.0125456 -0.012712 -0.0128934 -0.0130458 -0.0131255 -0.0131325 -0.0130667 -0.0129282 -0.012717 -0.012433 -0.0120762 -0.0117339 -0.0114932 -0.011354 -0.0113164 -0.0113804 -0.011546 -0.0118131 -0.0121818 -0.0126883 -0.0133689 -0.0142234 -0.015252 -0.0164546 -0.0178311 -0.0193818 -0.0211064 -0.0224702 -0.0229384 -0.0225109 -0.0211878 -0.0189691 -0.0158547 -0.0118447 -0.00693903 -0.000812803 0.00685895 0.0160762 0.026839 0.0391474 0.0530012 0.0684006 0.0853455 0.10282 0.119808 0.13631 0.152325 0.167854 0.182896 0.197453 0.211522 0.224472 0.235666 0.245107 0.252793 0.258724 0.262901 0.265324 0.265992 0.26494 0.262201 0.257777 0.251667 0.24387 0.234388 0.223219 0.210365 0.196462 0.182149 0.167425 0.152292 0.136747 0.120792 0.104427 0.0876519 0.0714659 0.0568695 0.0438626 0.0324451 0.0226171 0.0143787 0.00772971 0.00267023 -0.00121553 -0.00434339 -0.00671333 -0.00832536 -0.00917947 -0.00927567 -0.00861396 -0.00719433 -0.00550816 -0.00404681 -0.00281029 -0.00179858 -0.0010117 -0.000449646 -0.000112411 0 0 -