<?xml version="1.0"?> 
<VTKFile type="StructuredGrid" version="0.1"> 
<StructuredGrid WholeExtent="0 128 0 128 0 0"> 
<Piece Extent="0 128 0 128 0 0"> 
<PointData>
<DataArray type="Float32" Name="u" format="ascii" NumberOfComponents="1"> 
0 0 0 0 0 0 0 0 0 0 0 0 0 0 0 0 0 0 0 0 0 0 0 0 0 0 0 0 0 0 0 0 0 0 0 0 0 0 0 0 0 0 0 0 0 0 0 0 0 0 0 0 0 0 0 0 0 0 0 0 0 0 0 0 0 0 0 0 0 0 0 0 0 0 0 0 0 0 0 0 0 0 0 0 0 0 0 0 0 0 0 0 0 0 0 0 0 0 0 0 0 0 0 0 0 0 0 0 0 0 0 0 0 0 0 0 0 0 0 0 0 0 0 0 0 0 0 0 0 0 2.45703e-08 9.82812e-08 2.21133e-07 3.93125e-07 6.14257e-07 8.8453e-07 1.20394e-06 1.5725e-06 1.75042e-06 1.49792e-06 8.15001e-07 -2.9833e-07 -1.84208e-06 -3.81624e-06 -6.22082e-06 -9.05581e-06 -1.23592e-05 -1.6169e-05 -2.04851e-05 -2.53077e-05 -3.06366e-05 -3.64719e-05 -4.28136e-05 -4.96617e-05 -5.67105e-05 -6.36543e-05 -7.0493e-05 -7.72267e-05 -8.38555e-05 -9.03792e-05 -9.67979e-05 -0.000103112 -0.000108934 -0.00011388 -0.000117948 -0.00012114 -0.000123454 -0.000124891 -0.000125451 -0.000125134 -0.000124042 -0.000122276 -0.000119838 -0.000116726 -0.000112941 -0.000108483 -0.000103352 -9.7547e-05 -9.16753e-05 -8.63423e-05 -8.1548e-05 -7.72924e-05 -7.35756e-05 -7.03975e-05 -6.77582e-05 -6.56576e-05 -6.43119e-05 -6.39373e-05 -6.45338e-05 -6.61014e-05 -6.86402e-05 -7.21501e-05 -7.6631e-05 -8.20831e-05 -8.8395e-05 -9.54553e-05 -0.000103264 -0.000111821 -0.000121127 -0.000131181 -0.000141984 -0.000153535 -0.000165564 -0.0001778 -0.000190242 -0.000202892 -0.000215748 -0.000228811 -0.000242081 -0.000255558 -0.000268292 -0.000279334 -0.000288685 -0.000296343 -0.000302308 -0.000306582 -0.000309164 -0.000310054 -0.000309293 -0.000306923 -0.000302945 -0.000297358 -0.000290163 -0.000281358 -0.000270945 -0.000258923 -0.000246174 -0.000233579 -0.000221138 -0.000208852 -0.000196719 -0.000184741 -0.000172916 -0.000161246 -0.000149776 -0.000138553 -0.000127575 -0.000116845 -0.00010636 -9.61222e-05 -8.61305e-05 -7.63852e-05 -6.70685e-05 -5.83623e-05 -5.02668e-05 -4.27819e-05 -3.59076e-05 -2.9644e-05 -2.39909e-05 -1.89485e-05 -1.45074e-05 -1.06585e-05 -7.40175e-06 -4.73712e-06 -2.66463e-06 -1.18428e-06 -2.9607e-07 0 0 9.82812e-08 3.93125e-07 8.8453e-07 1.5725e-06 2.45703e-06 3.53812e-06 4.81578e-06 6.28999e-06 7.00166e-06 5.99166e-06 3.26e-06 -1.19332e-06 -7.36831e-06 -1.5265e-05 -2.48833e-05 -3.62232e-05 -4.94368e-05 -6.46759e-05 -8.19406e-05 -0.000101231 -0.000122547 -0.000145888 -0.000171255 -0.000198647 -0.000226842 -0.000254617 -0.000281972 -0.000308907 -0.000335422 -0.000361517 -0.000387192 -0.000412446 -0.000435737 -0.000455519 -0.000471793 -0.000484558 -0.000493815 -0.000499564 -0.000501804 -0.000500536 -0.000496167 -0.000489105 -0.000479351 -0.000466904 -0.000451764 -0.000433932 -0.000413406 -0.000390188 -0.000366701 -0.000345369 -0.000326192 -0.00030917 -0.000294302 -0.00028159 -0.000271033 -0.00026263 -0.000257247 -0.000255749 -0.000258135 -0.000264406 -0.000274561 -0.0002886 -0.000306524 -0.000328332 -0.00035358 -0.000381821 -0.000413057 -0.000447286 -0.000484509 -0.000524726 -0.000567936 -0.000614141 -0.000662256 -0.000711199 -0.000760969 -0.000811567 -0.000862992 -0.000915244 -0.000968325 -0.00102223 -0.00107317 -0.00111734 -0.00115474 -0.00118537 -0.00120923 -0.00122633 -0.00123666 -0.00124021 -0.00123717 -0.00122769 -0.00121178 -0.00118943 -0.00116065 -0.00112543 -0.00108378 -0.00103569 -0.000984697 -0.000934317 -0.000884554 -0.000835407 -0.000786877 -0.000738963 -0.000691665 -0.000644985 -0.000599105 -0.00055421 -0.000510302 -0.000467378 -0.000425441 -0.000384489 -0.000344522 -0.000305541 -0.000268274 -0.000233449 -0.000201067 -0.000171128 -0.000143631 -0.000118576 -9.59637e-05 -7.57939e-05 -5.80297e-05 -4.26341e-05 -2.9607e-05 -1.89485e-05 -1.06585e-05 -4.73712e-06 -1.18428e-06 0 0 2.21133e-07 8.8453e-07 1.99019e-06 3.53812e-06 5.52831e-06 7.96077e-06 1.08355e-05 1.41525e-05 1.57537e-05 1.34812e-05 7.33501e-06 -2.68497e-06 -1.65787e-05 -3.43462e-05 -5.59874e-05 -8.15023e-05 -0.000111233 -0.000145521 -0.000184366 -0.000227769 -0.00027573 -0.000328247 -0.000385323 -0.000446956 -0.000510394 -0.000572888 -0.000634437 -0.000695041 -0.000754699 -0.000813413 -0.000871181 -0.000928004 -0.000980408 -0.00102492 -0.00106153 -0.00109026 -0.00111108 -0.00112402 -0.00112906 -0.00112621 -0.00111638 -0.00110049 -0.00107854 -0.00105053 -0.00101647 -0.000976346 -0.000930164 -0.000877923 -0.000825078 -0.00077708 -0.000733932 -0.000695632 -0.00066218 -0.000633578 -0.000609824 -0.000590918 -0.000578807 -0.000575436 -0.000580804 -0.000594913 -0.000617762 -0.00064935 -0.000689679 -0.000738748 -0.000795555 -0.000859098 -0.000929377 -0.00100639 -0.00109014 -0.00118063 -0.00127786 -0.00138182 -0.00149008 -0.0016002 -0.00171218 -0.00182603 -0.00194173 -0.0020593 -0.00217873 -0.00230002 -0.00241463 -0.00251401 -0.00259816 -0.00266708 -0.00272078 -0.00275924 -0.00278248 -0.00279048 -0.00278364 -0.00276231 -0.00272651 -0.00267622 -0.00261146 -0.00253222 -0.00243851 -0.00233031 -0.00221557 -0.00210221 -0.00199025 -0.00187967 -0.00177047 -0.00166267 -0.00155625 -0.00145122 -0.00134799 -0.00124697 -0.00114818 -0.0010516 -0.000957242 -0.000865099 -0.000775175 -0.000687467 -0.000603616 -0.000525261 -0.000452401 -0.000385037 -0.000323169 -0.000266796 -0.000215918 -0.000170536 -0.000130567 -9.59267e-05 -6.66158e-05 -4.26341e-05 -2.39817e-05 -1.06585e-05 -2.66463e-06 0 0 3.93125e-07 1.5725e-06 3.53812e-06 6.28999e-06 9.82812e-06 1.41525e-05 1.92631e-05 2.516e-05 2.80066e-05 2.39667e-05 1.304e-05 -4.77328e-06 -2.94732e-05 -6.10598e-05 -9.95331e-05 -0.000144893 -0.000197747 -0.000258704 -0.000327762 -0.000404923 -0.000490186 -0.000583551 -0.000685018 -0.000794588 -0.000907368 -0.00101847 -0.00112789 -0.00123563 -0.00134169 -0.00144607 -0.00154877 -0.00164979 -0.00174295 -0.00182208 -0.00188717 -0.00193823 -0.00197526 -0.00199825 -0.00200722 -0.00200214 -0.00198467 -0.00195642 -0.0019174 -0.00186762 -0.00180706 -0.00173573 -0.00165363 -0.00156075 -0.0014668 -0.00138148 -0.00130477 -0.00123668 -0.00117721 -0.00112636 -0.00108413 -0.00105052 -0.00102899 -0.001023 -0.00103254 -0.00105762 -0.00109824 -0.0011544 -0.0012261 -0.00131333 -0.00141432 -0.00152729 -0.00165223 -0.00178914 -0.00193803 -0.0020989 -0.00227174 -0.00245656 -0.00264902 -0.0028448 -0.00304388 -0.00324627 -0.00345197 -0.00366098 -0.0038733 -0.00408893 -0.00429268 -0.00446935 -0.00461895 -0.00474148 -0.00483693 -0.00490532 -0.00494662 -0.00496086 -0.00494868 -0.00491077 -0.00484712 -0.00475773 -0.0046426 -0.00450173 -0.00433512 -0.00414277 -0.00393879 -0.00373727 -0.00353822 -0.00334163 -0.00314751 -0.00295585 -0.00276666 -0.00257994 -0.00239642 -0.00221684 -0.00204121 -0.00186951 -0.00170176 -0.00153795 -0.00137809 -0.00122216 -0.0010731 -0.000933798 -0.000804269 -0.000684511 -0.000574522 -0.000474303 -0.000383855 -0.000303176 -0.000232119 -0.000170536 -0.000118428 -7.57939e-05 -4.26341e-05 -1.89485e-05 -4.73712e-06 0 0 6.14257e-07 2.45703e-06 5.52831e-06 9.82812e-06 1.53564e-05 2.21133e-05 3.00986e-05 3.93125e-05 4.37604e-05 3.74479e-05 2.0375e-05 -7.45824e-06 -4.60519e-05 -9.5406e-05 -0.00015552 -0.000226395 -0.00030898 -0.000404225 -0.000512129 -0.000632692 -0.000765916 -0.000911799 -0.00107034 -0.00124154 -0.00141776 -0.00159136 -0.00176233 -0.00193067 -0.00209639 -0.00225948 -0.00241995 -0.00257779 -0.00272336 -0.00284699 -0.0029487 -0.00302849 -0.00308634 -0.00312227 -0.00313627 -0.00312835 -0.00310104 -0.00305691 -0.00299594 -0.00291815 -0.00282353 -0.00271207 -0.00258379 -0.00243868 -0.00229188 -0.00215856 -0.0020387 -0.00193231 -0.00183939 -0.00175994 -0.00169395 -0.00164144 -0.0016078 -0.00159843 -0.00161335 -0.00165254 -0.001716 -0.00180375 -0.00191578 -0.00205208 -0.00220987 -0.00238638 -0.0025816 -0.00279554 -0.00302818 -0.00327953 -0.0035496 -0.00383838 -0.0041391 -0.00444499 -0.00475606 -0.00507229 -0.0053937 -0.00572028 -0.00605203 -0.00638895 -0.00670731 -0.00698336 -0.00721711 -0.00740856 -0.00755771 -0.00766456 -0.0077291 -0.00775134 -0.00773232 -0.00767308 -0.00757363 -0.00743395 -0.00725406 -0.00703395 -0.00677363 -0.00647308 -0.00615436 -0.00583948 -0.00552846 -0.00522129 -0.00491798 -0.00461852 -0.00432291 -0.00403115 -0.0037444 -0.00346382 -0.00318939 -0.00292112 -0.002659 -0.00240305 -0.00215326 -0.00190963 -0.00167671 -0.00145906 -0.00125667 -0.00106955 -0.000897691 -0.000741099 -0.000599773 -0.000473712 -0.000362686 -0.000266463 -0.000185044 -0.000118428 -6.66158e-05 -2.9607e-05 -7.40175e-06 0 0 8.8453e-07 3.53812e-06 7.96077e-06 1.41525e-05 2.21133e-05 3.18431e-05 4.3342e-05 5.66099e-05 6.30149e-05 5.3925e-05 2.934e-05 -1.07399e-05 -6.63148e-05 -0.000137385 -0.000223949 -0.000326009 -0.000444931 -0.000582083 -0.000737465 -0.000911077 -0.00110292 -0.00131299 -0.00154129 -0.00178782 -0.00204158 -0.00229155 -0.00253775 -0.00278016 -0.0030188 -0.00325365 -0.00348472 -0.00371202 -0.00392163 -0.00409967 -0.00424613 -0.00436102 -0.00444434 -0.00449607 -0.00451623 -0.00450482 -0.0044655 -0.00440195 -0.00431416 -0.00420214 -0.00406588 -0.00390538 -0.00372066 -0.00351169 -0.00330031 -0.00310832 -0.00293573 -0.00278253 -0.00264872 -0.00253431 -0.00243929 -0.00236367 -0.00231523 -0.00230174 -0.00232322 -0.00237965 -0.00247105 -0.0025974 -0.00275872 -0.00295499 -0.00318222 -0.00343639 -0.00371751 -0.00402557 -0.00436058 -0.00472253 -0.00511143 -0.00552727 -0.00596031 -0.00640079 -0.00684872 -0.0073041 -0.00776693 -0.0082372 -0.00871492 -0.00920009 -0.00965852 -0.010056 -0.0103926 -0.0106683 -0.0108831 -0.011037 -0.0111299 -0.0111619 -0.0111345 -0.0110492 -0.010906 -0.0107049 -0.0104459 -0.0101289 -0.00975402 -0.00932124 -0.00886227 -0.00840885 -0.00796098 -0.00751866 -0.00708189 -0.00665067 -0.00622499 -0.00580486 -0.00539194 -0.00498789 -0.00459271 -0.00420641 -0.00382897 -0.0034604 -0.0031007 -0.00274987 -0.00241447 -0.00210104 -0.00180961 -0.00154015 -0.00129267 -0.00106718 -0.000863673 -0.000682146 -0.000522268 -0.000383707 -0.000266463 -0.000170536 -9.59267e-05 -4.26341e-05 -1.06585e-05 0 0 1.20394e-06 4.81578e-06 1.08355e-05 1.92631e-05 3.00986e-05 4.3342e-05 5.89933e-05 7.70524e-05 8.57703e-05 7.33979e-05 3.99351e-05 -1.46182e-05 -9.02617e-05 -0.000186996 -0.00030482 -0.000443735 -0.000605601 -0.00079228 -0.00100377 -0.00124008 -0.00150119 -0.00178713 -0.00209787 -0.00243342 -0.00277881 -0.00311906 -0.00345416 -0.00378411 -0.00410892 -0.00442858 -0.0047431 -0.00505247 -0.00533778 -0.00558011 -0.00577946 -0.00593584 -0.00604923 -0.00611965 -0.0061471 -0.00613156 -0.00607804 -0.00599154 -0.00587205 -0.00571957 -0.00553411 -0.00531566 -0.00506423 -0.00477981 -0.00449209 -0.00423077 -0.00399585 -0.00378733 -0.0036052 -0.00344948 -0.00332015 -0.00321722 -0.00315128 -0.00313293 -0.00316216 -0.00323897 -0.00336337 -0.00353535 -0.00375492 -0.00402207 -0.00433135 -0.00467731 -0.00505994 -0.00547925 -0.00593523 -0.00642789 -0.00695722 -0.00752323 -0.00811264 -0.00871219 -0.00932187 -0.00994169 -0.0105717 -0.0112117 -0.011862 -0.0125223 -0.0131463 -0.0136874 -0.0141455 -0.0145208 -0.0148131 -0.0150225 -0.015149 -0.0151926 -0.0151553 -0.0150392 -0.0148443 -0.0145706 -0.014218 -0.0137866 -0.0132763 -0.0126872 -0.0120625 -0.0114454 -0.0108358 -0.0102337 -0.00963924 -0.00905229 -0.0084729 -0.00790106 -0.00733903 -0.00678908 -0.0062512 -0.00572539 -0.00521165 -0.00470999 -0.00422039 -0.00374288 -0.00328636 -0.00285976 -0.00246307 -0.00209631 -0.00175947 -0.00145255 -0.00117555 -0.000928476 -0.000710864 -0.000522268 -0.000362686 -0.000232119 -0.000130567 -5.80297e-05 -1.45074e-05 0 0 1.5725e-06 6.28999e-06 1.41525e-05 2.516e-05 3.93125e-05 5.66099e-05 7.70524e-05 0.00010064 0.000112027 9.58666e-05 5.21601e-05 -1.90931e-05 -0.000117893 -0.000244239 -0.000398132 -0.000579572 -0.000790989 -0.00103482 -0.00131105 -0.00161969 -0.00196074 -0.0023342 -0.00274007 -0.00317835 -0.00362947 -0.00407387 -0.00451155 -0.00494251 -0.00536675 -0.00578427 -0.00619506 -0.00659914 -0.00697179 -0.0072883 -0.00754868 -0.00775293 -0.00790104 -0.00799302 -0.00802886 -0.00800857 -0.00793867 -0.00782569 -0.00766962 -0.00747046 -0.00722823 -0.00694291 -0.0066145 -0.00624301 -0.00586722 -0.00552591 -0.00521907 -0.00494672 -0.00470884 -0.00450544 -0.00433652 -0.00420208 -0.00411596 -0.00409199 -0.00413016 -0.00423049 -0.00439297 -0.0046176 -0.00490439 -0.00525332 -0.00565728 -0.00610914 -0.0066089 -0.00715657 -0.00775214 -0.00839561 -0.00908698 -0.00982625 -0.0105961 -0.0113792 -0.0121755 -0.0129851 -0.0138079 -0.0146439 -0.0154932 -0.0163557 -0.0171707 -0.0178774 -0.0184758 -0.0189659 -0.0193477 -0.0196213 -0.0197865 -0.0198434 -0.0197947 -0.0196431 -0.0193885 -0.0190309 -0.0185704 -0.0180069 -0.0173405 -0.0165711 -0.0157552 -0.0149491 -0.0141529 -0.0133665 -0.01259 -0.0118234 -0.0110666 -0.0103198 -0.00958568 -0.00886737 -0.00816483 -0.00747805 -0.00680705 -0.00615182 -0.00551235 -0.00488866 -0.00429238 -0.00373519 -0.00321708 -0.00273804 -0.00229809 -0.00189721 -0.00153542 -0.0012127 -0.000928476 -0.000682146 -0.000473712 -0.000303176 -0.000170536 -7.57939e-05 -1.89485e-05 0 0 1.62853e-06 6.51413e-06 1.46568e-05 2.60565e-05 4.07133e-05 5.86271e-05 7.9798e-05 0.000104226 0.000113057 8.74382e-05 2.73686e-05 -6.71514e-05 -0.000196122 -0.000359543 -0.000557414 -0.000789736 -0.00105935 -0.00136912 -0.00171903 -0.00210908 -0.00253928 -0.00300962 -0.0035201 -0.00407073 -0.00463734 -0.00519576 -0.00574598 -0.00628802 -0.00682187 -0.00734752 -0.00786499 -0.00837427 -0.00884401 -0.0092429 -0.00957092 -0.00982807 -0.0100144 -0.0101298 -0.0101743 -0.010148 -0.0100594 -0.00991697 -0.00972074 -0.00947071 -0.00916688 -0.00880926 -0.00839783 -0.00793261 -0.00746218 -0.00703514 -0.00665149 -0.00631122 -0.00601434 -0.00576085 -0.00555074 -0.00538402 -0.00527474 -0.00523694 -0.00527063 -0.0053758 -0.00555245 -0.00580059 -0.00612022 -0.00651133 -0.00696274 -0.00746327 -0.00801292 -0.00861168 -0.00925956 -0.00995656 -0.0107027 -0.0114979 -0.0123265 -0.0131729 -0.014037 -0.0149188 -0.0158184 -0.0167356 -0.0176706 -0.0186233 -0.0195251 -0.0203073 -0.0209699 -0.021513 -0.0219365 -0.0222404 -0.0224247 -0.0224895 -0.0224377 -0.0222725 -0.0219938 -0.0216016 -0.021096 -0.0204768 -0.0197442 -0.0188982 -0.0180018 -0.0171184 -0.016248 -0.0153905 -0.0145459 -0.0137143 -0.0128956 -0.0120898 -0.011295 -0.010509 -0.00973192 -0.00896369 -0.00820432 -0.00745382 -0.00671218 -0.00597941 -0.00527265 -0.00460901 -0.00398852 -0.00341115 -0.00287692 -0.00238583 -0.00193786 -0.00153304 -0.00117373 -0.000862334 -0.000598843 -0.000383259 -0.000215583 -9.58149e-05 -2.39537e-05 0 0 1.01038e-06 4.04153e-06 9.09344e-06 1.61661e-05 2.52595e-05 3.63737e-05 4.95087e-05 6.46644e-05 6.01363e-05 1.42195e-05 -7.30858e-05 -0.00020178 -0.000371862 -0.000583333 -0.000836193 -0.00113044 -0.00146896 -0.00185462 -0.00228743 -0.00276739 -0.0032945 -0.00386875 -0.00449016 -0.00515871 -0.00584621 -0.00652448 -0.00719351 -0.0078533 -0.00850385 -0.00914516 -0.00977723 -0.0104001 -0.0109748 -0.0114625 -0.0118633 -0.012177 -0.0124038 -0.0125436 -0.0125964 -0.0125622 -0.0124523 -0.012278 -0.0120393 -0.0117362 -0.0113687 -0.0109369 -0.0104406 -0.0098799 -0.00931346 -0.00879989 -0.00833919 -0.00793137 -0.00757642 -0.00727434 -0.00702513 -0.00682879 -0.00669309 -0.00662581 -0.00662693 -0.00669646 -0.00683441 -0.00704077 -0.00731553 -0.00765871 -0.0080505 -0.00847109 -0.0089205 -0.00939872 -0.00990575 -0.0104416 -0.0110062 -0.0115997 -0.0122199 -0.0128645 -0.0135338 -0.0142276 -0.0149459 -0.0156888 -0.0164562 -0.0172482 -0.0180029 -0.0186582 -0.0192143 -0.0196712 -0.0200287 -0.0202871 -0.0204461 -0.0205059 -0.0204693 -0.0203391 -0.0201154 -0.0197982 -0.0193874 -0.0188831 -0.0182852 -0.0175938 -0.0168642 -0.0161519 -0.0154568 -0.014779 -0.0141184 -0.0134751 -0.012849 -0.0122402 -0.0116301 -0.0110003 -0.0103508 -0.00968155 -0.00899259 -0.0082839 -0.00755549 -0.00680736 -0.00606724 -0.00536289 -0.00469429 -0.00406145 -0.00346437 -0.00290305 -0.00237749 -0.00188769 -0.00144526 -0.00106183 -0.000737379 -0.000471923 -0.000265457 -0.000117981 -2.94952e-05 0 0 -2.81951e-07 -1.1278e-06 -2.53756e-06 -4.51121e-06 -7.04877e-06 -1.01502e-05 -1.38156e-05 -1.80449e-05 -4.67366e-05 -0.000123789 -0.000249203 -0.000422978 -0.000645114 -0.000915611 -0.00123447 -0.00160169 -0.0020198 -0.00249132 -0.00301627 -0.00359463 -0.00422641 -0.00491161 -0.00565023 -0.00644227 -0.00725608 -0.00806003 -0.00885412 -0.00963833 -0.0104127 -0.0111772 -0.0119318 -0.0126766 -0.0133641 -0.0139472 -0.0144258 -0.0147998 -0.0150694 -0.0152344 -0.0152949 -0.015251 -0.0151173 -0.0149087 -0.0146253 -0.014267 -0.0138338 -0.0133257 -0.0127427 -0.0120849 -0.0114211 -0.0108202 -0.0102822 -0.00980717 -0.00939507 -0.00904591 -0.00875968 -0.00853639 -0.00837102 -0.00825858 -0.00819908 -0.00819249 -0.00823884 -0.00833812 -0.00849032 -0.00869545 -0.00892054 -0.00913261 -0.00933166 -0.0095177 -0.00969072 -0.00985073 -0.00999771 -0.0101317 -0.010276 -0.0104541 -0.0106658 -0.0109113 -0.0111905 -0.0115035 -0.0118501 -0.0122305 -0.012604 -0.0129302 -0.013209 -0.0134405 -0.0136246 -0.0137613 -0.0138507 -0.0138927 -0.0138895 -0.013843 -0.0137535 -0.0136207 -0.0134448 -0.0132257 -0.0129634 -0.012658 -0.0123424 -0.0120495 -0.0117795 -0.0115322 -0.0113077 -0.0111059 -0.010927 -0.0107708 -0.010591 -0.0103412 -0.0100214 -0.00963166 -0.00917187 -0.00864208 -0.00804229 -0.00737249 -0.00667618 -0.00599681 -0.00533441 -0.00468895 -0.00406045 -0.0034489 -0.0028543 -0.00227666 -0.00174307 -0.00128062 -0.000889321 -0.000569165 -0.000320156 -0.000142291 -3.55728e-05 0 0 -2.24847e-06 -8.99387e-06 -2.02362e-05 -3.59755e-05 -5.62117e-05 -8.09448e-05 -0.000110175 -0.000143902 -0.000207561 -0.000326588 -0.000500983 -0.000730746 -0.00101588 -0.00135638 -0.00175224 -0.00220348 -0.00271187 -0.00327922 -0.00390553 -0.0045908 -0.00533502 -0.0061382 -0.00700033 -0.00792142 -0.00886696 -0.00980242 -0.0107278 -0.0116431 -0.0125484 -0.0134436 -0.0143287 -0.0152037 -0.016012 -0.0166969 -0.0172584 -0.0176964 -0.018011 -0.0182022 -0.01827 -0.0182144 -0.0180544 -0.0178092 -0.0174787 -0.017063 -0.016562 -0.0159758 -0.0153043 -0.0145476 -0.013785 -0.0130959 -0.0124805 -0.0119386 -0.0114703 -0.0110756 -0.0107544 -0.0105068 -0.0103085 -0.0101353 -0.00998706 -0.00986389 -0.00976575 -0.00969265 -0.00964458 -0.00962156 -0.00957287 -0.00944781 -0.00924639 -0.00896861 -0.00861446 -0.00818395 -0.00767707 -0.00709383 -0.00649502 -0.00594146 -0.00543313 -0.00497004 -0.00455218 -0.00417957 -0.00385219 -0.00357005 -0.0033286 -0.00312327 -0.00295406 -0.00282098 -0.00272403 -0.0026632 -0.0026385 -0.00264992 -0.00269824 -0.0027842 -0.00290783 -0.00306911 -0.00326805 -0.00350464 -0.00377888 -0.00409078 -0.00443628 -0.00481131 -0.00521587 -0.00564997 -0.00611361 -0.00660677 -0.00712948 -0.00768171 -0.00817773 -0.00853179 -0.00874387 -0.008814 -0.00874215 -0.00852834 -0.00817256 -0.00767481 -0.00709944 -0.00651079 -0.00590886 -0.00529364 -0.00466514 -0.00402336 -0.0033683 -0.00269995 -0.00206715 -0.00151872 -0.00105467 -0.000674988 -0.000379681 -0.000168747 -4.21867e-05 0 0 -4.88917e-06 -1.95567e-05 -4.40025e-05 -7.82266e-05 -0.000122229 -0.00017601 -0.000239569 -0.000312907 -0.000422338 -0.000594178 -0.000828427 -0.00112508 -0.00148415 -0.00190563 -0.00238951 -0.00293581 -0.00354519 -0.00421833 -0.00495523 -0.00575589 -0.00662032 -0.00754851 -0.00854046 -0.00959617 -0.0106788 -0.0117516 -0.0128146 -0.0138677 -0.014911 -0.0159443 -0.0169679 -0.0179816 -0.0189185 -0.0197116 -0.0203611 -0.0208668 -0.0212288 -0.0214471 -0.0215217 -0.0214525 -0.0212637 -0.0209794 -0.0205996 -0.0201243 -0.0195535 -0.0188871 -0.0181253 -0.0172679 -0.0164052 -0.0156272 -0.0149341 -0.0143257 -0.0138021 -0.0133633 -0.0130093 -0.0127401 -0.0125056 -0.0122559 -0.0119909 -0.0117106 -0.0114151 -0.0111044 -0.0107783 -0.010437 -0.0100075 -0.00941671 -0.0086647 -0.00775145 -0.00667697 -0.00544126 -0.00404432 -0.00248614 -0.000876889 0.000673258 0.00216431 0.00359625 0.0049691 0.00628285 0.00753749 0.00873304 0.00982344 0.0107626 0.0115506 0.0121874 0.012673 0.0130074 0.0131905 0.0132225 0.0131044 0.0128374 0.0124214 0.0118566 0.0111428 0.0102801 0.00926842 0.00810786 0.00685407 0.00556277 0.00423395 0.00286761 0.00146376 2.23938e-05 -0.00145649 -0.00297289 -0.00439024 -0.00557197 -0.00651808 -0.00722857 -0.00770344 -0.00794269 -0.00794632 -0.00771432 -0.00733705 -0.00690482 -0.00641765 -0.00587553 -0.00527846 -0.00462644 -0.00391947 -0.00315756 -0.0024175 -0.00177613 -0.00123342 -0.000789389 -0.000444032 -0.000197347 -4.93368e-05 0 0 -8.20405e-06 -3.28162e-05 -7.38364e-05 -0.000131265 -0.000205101 -0.000295346 -0.000401998 -0.000525059 -0.000691066 -0.000926557 -0.00123153 -0.00160599 -0.00204994 -0.00256337 -0.00314628 -0.00379868 -0.00451973 -0.00530863 -0.00616535 -0.00708991 -0.00808231 -0.00914254 -0.0102706 -0.0114665 -0.0126917 -0.0139077 -0.0151145 -0.016312 -0.0175004 -0.0186795 -0.0198494 -0.0210101 -0.0220835 -0.0229914 -0.0237339 -0.0243111 -0.0247227 -0.024969 -0.0250498 -0.0249653 -0.0247451 -0.0244194 -0.0239879 -0.0234509 -0.0228081 -0.0220597 -0.0212057 -0.020246 -0.0192817 -0.0184141 -0.017643 -0.0169685 -0.0163905 -0.0159092 -0.0155244 -0.0152362 -0.0149623 -0.0146204 -0.0142106 -0.0137328 -0.013187 -0.0125732 -0.0118915 -0.0111419 -0.0102244 -0.0090393 -0.00758658 -0.00586623 -0.00387826 -0.00162267 0.00090055 0.00369139 0.00657839 0.00939009 0.0121265 0.0147876 0.0173733 0.0198838 0.022319 0.0246788 0.0268521 0.0287275 0.030305 0.0315846 0.0325664 0.0332503 0.0336364 0.0337245 0.0335184 0.0330217 0.0322344 0.0311563 0.0297877 0.0281284 0.0261785 0.0239379 0.0215287 0.0190727 0.01657 0.0140206 0.0114244 0.00878157 0.00609197 0.00335565 0.000771451 -0.00146179 -0.00334407 -0.00487538 -0.00605573 -0.00688512 -0.00736355 -0.00749102 -0.00738898 -0.0071789 -0.00686078 -0.00643461 -0.00590039 -0.00525813 -0.00450783 -0.00364948 -0.00279413 -0.00205283 -0.00142558 -0.000912371 -0.000513208 -0.000228093 -5.70232e-05 0 0 -1.21931e-05 -4.87724e-05 -0.000109738 -0.00019509 -0.000304828 -0.000438952 -0.000597462 -0.000780359 -0.00101375 -0.00132373 -0.0017103 -0.00217347 -0.00271323 -0.00332959 -0.00402254 -0.00479209 -0.00563552 -0.00655013 -0.00753591 -0.00859286 -0.00972099 -0.0109203 -0.0121908 -0.0135324 -0.0149056 -0.0162706 -0.0176274 -0.0189761 -0.0203167 -0.021649 -0.0229732 -0.0242893 -0.025507 -0.0265362 -0.0273769 -0.0280291 -0.0284928 -0.0287679 -0.0288546 -0.0287527 -0.0284987 -0.028129 -0.0276437 -0.0270427 -0.026326 -0.0254936 -0.0245455 -0.0234817 -0.0224146 -0.0214564 -0.0206072 -0.0198669 -0.0192355 -0.0187131 -0.0182996 -0.0179951 -0.0176785 -0.0172288 -0.0166461 -0.0159302 -0.0150813 -0.0140993 -0.0129842 -0.0117361 -0.0102236 -0.00831557 -0.00601203 -0.00331294 -0.000218321 0.00327184 0.00715753 0.0114388 0.0158708 0.020209 0.0244534 0.0286039 0.0326605 0.0366233 0.0404922 0.0442672 0.0477573 0.0507712 0.053309 0.0553707 0.0569563 0.0580657 0.058699 0.0588562 0.0585439 0.0577688 0.0565309 0.0548302 0.0526667 0.0500404 0.0469513 0.0433994 0.0395875 0.0357185 0.0317923 0.0278089 0.0237684 0.0196707 0.0155159 0.0113039 0.00730735 0.00379876 0.000778172 -0.00175443 -0.00379903 -0.00535565 -0.00642427 -0.00700491 -0.00725526 -0.00733304 -0.00723825 -0.00697088 -0.00653095 -0.00591845 -0.00513337 -0.00417573 -0.00319704 -0.00234885 -0.00163114 -0.00104393 -0.000587211 -0.000260983 -6.52457e-05 0 0 -1.68564e-05 -6.74254e-05 -0.000151707 -0.000269702 -0.000421409 -0.000606829 -0.000825962 -0.00107881 -0.00139038 -0.00178569 -0.00226473 -0.00282752 -0.00347404 -0.00420431 -0.00501831 -0.00591604 -0.00689254 -0.00794282 -0.00906689 -0.0102647 -0.0115364 -0.0128818 -0.014301 -0.0157939 -0.0173205 -0.0188403 -0.0203535 -0.02186 -0.0233598 -0.0248529 -0.0263394 -0.0278192 -0.0291891 -0.0303461 -0.03129 -0.032021 -0.0325389 -0.0328439 -0.0329358 -0.0328148 -0.0325244 -0.0321085 -0.0315669 -0.0308998 -0.030107 -0.0291887 -0.0281447 -0.0269752 -0.0258038 -0.0247542 -0.0238266 -0.0230209 -0.022337 -0.0217751 -0.021335 -0.0210169 -0.0206543 -0.0200812 -0.0192974 -0.0183031 -0.0170981 -0.0156826 -0.0140564 -0.0122196 -0.0100051 -0.00724555 -0.00394105 -9.15862e-05 0.00430285 0.00924225 0.0147266 0.020756 0.0270004 0.0331301 0.039145 0.0450452 0.0508306 0.0565013 0.0620572 0.0674984 0.0725391 0.076894 0.0805628 0.0835457 0.0858426 0.0874535 0.0883785 0.0886175 0.0881808 0.0870786 0.0853111 0.0828782 0.0797798 0.0760161 0.0715869 0.0664923 0.0610306 0.0555001 0.0499008 0.0442327 0.0384957 0.0326899 0.0268153 0.0208719 0.0152174 0.0102097 0.00584863 0.00213429 -0.00093334 -0.00335426 -0.00512848 -0.00625598 -0.00693586 -0.00736722 -0.00755005 -0.00748435 -0.00717013 -0.00660737 -0.00579609 -0.00473629 -0.00362622 -0.00266416 -0.00185011 -0.00118407 -0.00066604 -0.000296018 -7.40045e-05 0 0 -2.21033e-05 -8.84132e-05 -0.00019893 -0.000353653 -0.000552582 -0.000795719 -0.00108306 -0.00141461 -0.00181076 -0.00229189 -0.00285801 -0.00350912 -0.00424522 -0.0050663 -0.00597237 -0.00696343 -0.00802948 -0.00916055 -0.0103566 -0.0116177 -0.0129438 -0.0143349 -0.0157911 -0.0173122 -0.0188636 -0.0204104 -0.0219528 -0.0234906 -0.0250238 -0.0265526 -0.0280768 -0.0295965 -0.0310027 -0.0321864 -0.0331478 -0.0338867 -0.0344031 -0.0346971 -0.0347687 -0.0346178 -0.0342967 -0.0338574 -0.0332999 -0.0326244 -0.0318307 -0.0309189 -0.029889 -0.0287409 -0.0276009 -0.0265951 -0.0257237 -0.0249865 -0.0243835 -0.0239149 -0.0235805 -0.0233804 -0.0230895 -0.022483 -0.0215607 -0.0203227 -0.0187689 -0.0168995 -0.0147143 -0.0122134 -0.00919085 -0.0054408 -0.000963222 0.00424188 0.0101745 0.0168346 0.0242223 0.0323375 0.0407404 0.0489911 0.0570896 0.065036 0.0728302 0.0804722 0.0879621 0.0952998 0.102099 0.107975 0.112927 0.116955 0.12006 0.12224 0.123497 0.123829 0.123253 0.121782 0.119417 0.116158 0.112004 0.106956 0.101014 0.0941772 0.0868449 0.0794155 0.071889 0.0642655 0.056545 0.0487274 0.0408127 0.032801 0.0251571 0.0183459 0.0123674 0.00722154 0.00290835 -0.000572171 -0.00322001 -0.00503518 -0.00626354 -0.00715094 -0.00769738 -0.00790287 -0.0077674 -0.00729097 -0.00647359 -0.00531526 -0.00406949 -0.00298983 -0.00207627 -0.00132881 -0.000747458 -0.000332204 -8.30509e-05 0 0 -2.78434e-05 -0.000111374 -0.000250591 -0.000445495 -0.000696085 -0.00100236 -0.00136433 -0.00178198 -0.00226468 -0.00282179 -0.00345332 -0.00415925 -0.0049396 -0.00579436 -0.00672353 -0.00772712 -0.00878502 -0.00987713 -0.0110035 -0.012164 -0.0133588 -0.0145877 -0.0158509 -0.0171483 -0.0184621 -0.0197745 -0.0210853 -0.0223948 -0.0237027 -0.0250092 -0.0263143 -0.0276179 -0.0288205 -0.0298228 -0.0306247 -0.0312262 -0.0316272 -0.0318279 -0.0318282 -0.0316282 -0.0312899 -0.0308756 -0.0303852 -0.0298189 -0.0291766 -0.0284582 -0.0276638 -0.0267934 -0.0259575 -0.0252666 -0.0247205 -0.0243195 -0.0240633 -0.0239521 -0.0239859 -0.0241646 -0.024184 -0.0237397 -0.0228318 -0.0214603 -0.0196252 -0.0173265 -0.0145641 -0.0113381 -0.00740292 -0.00251292 0.00333188 0.0101315 0.0178859 0.0265951 0.0362591 0.046878 0.0578641 0.0686299 0.0791755 0.0895007 0.0996058 0.109491 0.119155 0.128599 0.13734 0.144895 0.151263 0.156446 0.160442 0.163252 0.164876 0.165313 0.164585 0.162711 0.159692 0.155527 0.150217 0.143762 0.136161 0.127415 0.118017 0.108462 0.0987504 0.0888813 0.0788549 0.0686714 0.0583306 0.0478327 0.0377819 0.0287825 0.0208346 0.0139381 0.00809302 0.00329942 -0.000442744 -0.00313346 -0.00507101 -0.00655366 -0.00758142 -0.00815428 -0.00827224 -0.0079353 -0.00714346 -0.00589673 -0.00451468 -0.00331691 -0.00230341 -0.00147418 -0.000829227 -0.000368546 -9.21364e-05 0 0 -3.40767e-05 -0.000136307 -0.000306691 -0.000545228 -0.000851918 -0.00122676 -0.00166976 -0.00218091 -0.00275214 -0.00337539 -0.00405065 -0.00477792 -0.0055572 -0.0063885 -0.0072718 -0.00820712 -0.00915915 -0.0100926 -0.0110074 -0.0119036 -0.0127812 -0.0136402 -0.0144806 -0.0153024 -0.0161161 -0.0169324 -0.0177513 -0.0185726 -0.0193965 -0.0202229 -0.0210519 -0.0218834 -0.0226427 -0.0232551 -0.0237207 -0.0240395 -0.0242113 -0.0242364 -0.0241145 -0.0238458 -0.023504 -0.023163 -0.0228228 -0.0224833 -0.0221446 -0.0218066 -0.0214694 -0.0211329 -0.0208738 -0.0207685 -0.0208172 -0.0210199 -0.0213764 -0.0218868 -0.0225512 -0.0233695 -0.0239376 -0.0238514 -0.0231109 -0.0217161 -0.019667 -0.0169636 -0.0136059 -0.00959386 -0.00464129 0.00153808 0.00894426 0.0175773 0.0274371 0.0385237 0.0508371 0.0643773 0.0783714 0.0920465 0.105402 0.118439 0.131157 0.143556 0.155636 0.167397 0.178261 0.187653 0.195571 0.202017 0.206989 0.210489 0.212515 0.213068 0.212176 0.209865 0.206135 0.200986 0.194419 0.186433 0.177028 0.166205 0.154547 0.142641 0.130485 0.11808 0.105425 0.0925219 0.079369 0.0659668 0.0530916 0.0415193 0.0312501 0.0222839 0.0146207 0.0082605 0.00320333 -0.000550819 -0.00335829 -0.00557541 -0.00720217 -0.00823858 -0.00868464 -0.00854035 -0.0078057 -0.0064807 -0.00496179 -0.00364539 -0.00253152 -0.00162018 -0.000911349 -0.000405044 -0.000101261 0 0 -4.08032e-05 -0.000163213 -0.000367229 -0.000652852 -0.00102008 -0.00146892 -0.00199936 -0.00261141 -0.00327315 -0.00395269 -0.00465001 -0.00536512 -0.00609802 -0.0068487 -0.00761718 -0.00840344 -0.00915187 -0.00980686 -0.0103684 -0.0108365 -0.0112111 -0.0114923 -0.01168 -0.0117743 -0.0118256 -0.0118843 -0.0119505 -0.0120241 -0.0121052 -0.0121937 -0.0122896 -0.012393 -0.0124691 -0.0124835 -0.0124359 -0.0123266 -0.0121554 -0.0119223 -0.0116275 -0.0112707 -0.0109392 -0.0107198 -0.0106126 -0.0106176 -0.0107347 -0.010964 -0.0113055 -0.0117592 -0.0123495 -0.0131011 -0.0140138 -0.0150877 -0.0163228 -0.017719 -0.0192765 -0.0209951 -0.0223505 -0.022818 -0.0223979 -0.0210899 -0.0188942 -0.0158108 -0.0118396 -0.00698059 -0.000905963 0.00671221 0.0158739 0.0265792 0.038828 0.0526203 0.0679562 0.0848356 0.102262 0.119241 0.135771 0.151852 0.167485 0.182669 0.197405 0.211692 0.224863 0.236249 0.245851 0.253669 0.259702 0.263951 0.266415 0.267096 0.266026 0.263243 0.258746 0.252534 0.244609 0.234969 0.223615 0.210547 0.196436 0.181951 0.167093 0.151861 0.136257 0.120279 0.103928 0.0872035 0.0710863 0.0565565 0.043614 0.032259 0.0224913 0.0143111 0.00771822 0.00271275 -0.00112537 -0.00421616 -0.00655963 -0.00815578 -0.00900461 -0.00910612 -0.00846031 -0.00706718 -0.00541081 -0.00397529 -0.00276062 -0.00176679 -0.