<?xml version="1.0"?> 
<VTKFile type="StructuredGrid" version="0.1"> 
<StructuredGrid WholeExtent="0 128 0 128 0 0"> 
<Piece Extent="0 128 0 128 0 0"> 
<PointData>
<DataArray type="Float32" Name="u" format="ascii" NumberOfComponents="1"> 
0 0 0 0 0 0 0 0 0 0 0 0 0 0 0 0 0 0 0 0 0 0 0 0 0 0 0 0 0 0 0 0 0 0 0 0 0 0 0 0 0 0 0 0 0 0 0 0 0 0 0 0 0 0 0 0 0 0 0 0 0 0 0 0 0 0 0 0 0 0 0 0 0 0 0 0 0 0 0 0 0 0 0 0 0 0 0 0 0 0 0 0 0 0 0 0 0 0 0 0 0 0 0 0 0 0 0 0 0 0 0 0 0 0 0 0 0 0 0 0 0 0 0 0 0 0 0 0 0 0 2.71741e-08 1.08696e-07 2.44567e-07 4.34786e-07 6.79353e-07 9.78268e-07 1.33153e-06 1.73914e-06 1.95846e-06 1.74684e-06 1.10429e-06 3.08057e-08 -1.47362e-06 -3.40897e-06 -5.77527e-06 -8.57249e-06 -1.18369e-05 -1.56047e-05 -1.98758e-05 -2.46503e-05 -2.99283e-05 -3.57096e-05 -4.19942e-05 -4.87823e-05 -5.57687e-05 -6.26485e-05 -6.94215e-05 -7.60879e-05 -8.26477e-05 -8.91007e-05 -9.54471e-05 -0.000101687 -0.00010744 -0.000112325 -0.000116344 -0.000119495 -0.000121779 -0.000123196 -0.000123746 -0.000123429 -0.000122344 -0.00012059 -0.000118166 -0.000115074 -0.000111313 -0.000106883 -0.000101784 -9.60157e-05 -9.01844e-05 -8.48957e-05 -8.01496e-05 -7.59461e-05 -7.22851e-05 -6.91667e-05 -6.65909e-05 -6.45577e-05 -6.32867e-05 -6.29976e-05 -6.36904e-05 -6.5365e-05 -6.80216e-05 -7.166e-05 -7.62803e-05 -8.18826e-05 -8.83589e-05 -9.56016e-05 -0.000103611 -0.000112386 -0.000121928 -0.000132236 -0.00014331 -0.000155151 -0.000167482 -0.000180025 -0.000192782 -0.000205752 -0.000218934 -0.00023233 -0.000245939 -0.000259761 -0.00027282 -0.000284142 -0.000293726 -0.000301573 -0.000307681 -0.000312052 -0.000314686 -0.000315582 -0.000314783 -0.000312336 -0.000308238 -0.00030249 -0.000295093 -0.000286046 -0.000275348 -0.000263001 -0.000249912 -0.000236989 -0.00022423 -0.000211638 -0.000199211 -0.000186949 -0.000174853 -0.000162922 -0.000151208 -0.000139761 -0.000128581 -0.000117668 -0.000107023 -9.66448e-05 -8.65339e-05 -7.66902e-05 -6.72913e-05 -5.85148e-05 -5.03606e-05 -4.28288e-05 -3.59193e-05 -2.96322e-05 -2.39674e-05 -1.8925e-05 -1.44895e-05 -1.06453e-05 -7.39259e-06 -4.73125e-06 -2.66133e-06 -1.18281e-06 -2.95703e-07 0 0 1.08696e-07 4.34786e-07 9.78268e-07 1.73914e-06 2.71741e-06 3.91307e-06 5.32613e-06 6.95657e-06 7.83385e-06 6.98738e-06 4.41717e-06 1.23223e-07 -5.89447e-06 -1.36359e-05 -2.31011e-05 -3.429e-05 -4.73475e-05 -6.24186e-05 -7.95032e-05 -9.86014e-05 -0.000119713 -0.000142838 -0.000167977 -0.000195129 -0.000223075 -0.000250594 -0.000277686 -0.000304352 -0.000330591 -0.000356403 -0.000381788 -0.000406747 -0.000429758 -0.000449301 -0.000465375 -0.00047798 -0.000487117 -0.000492785 -0.000494985 -0.000493716 -0.000489375 -0.000482358 -0.000472666 -0.000460297 -0.000445252 -0.000427532 -0.000407135 -0.000384063 -0.000360738 -0.000339583 -0.000320599 -0.000303784 -0.00028914 -0.000276667 -0.000266364 -0.000258231 -0.000253147 -0.00025199 -0.000254761 -0.00026146 -0.000272086 -0.00028664 -0.000305121 -0.00032753 -0.000353436 -0.000382406 -0.000414443 -0.000449544 -0.000487711 -0.000528944 -0.000573242 -0.000620605 -0.000669927 -0.000720102 -0.000771128 -0.000823007 -0.000875738 -0.000929321 -0.000983756 -0.00103904 -0.00109128 -0.00113657 -0.0011749 -0.00120629 -0.00123073 -0.00124821 -0.00125874 -0.00126233 -0.00125913 -0.00124934 -0.00123295 -0.00120996 -0.00118037 -0.00114418 -0.00110139 -0.00105201 -0.000999649 -0.000947955 -0.000896922 -0.000846551 -0.000796843 -0.000747796 -0.000699411 -0.000651688 -0.000604831 -0.000559043 -0.000514323 -0.000470673 -0.000428092 -0.000386579 -0.000346135 -0.000306761 -0.000269165 -0.000234059 -0.000201443 -0.000171315 -0.000143677 -0.000118529 -9.58698e-05 -7.57001e-05 -5.79579e-05 -4.25813e-05 -2.95703e-05 -1.8925e-05 -1.06453e-05 -4.73125e-06 -1.18281e-06 0 0 2.44567e-07 9.78268e-07 2.2011e-06 3.91307e-06 6.11418e-06 8.80441e-06 1.19838e-05 1.56523e-05 1.76262e-05 1.57216e-05 9.93864e-06 2.77251e-07 -1.32626e-05 -3.06808e-05 -5.19774e-05 -7.71525e-05 -0.000106532 -0.000140442 -0.000178882 -0.000221853 -0.000269354 -0.000321386 -0.000377948 -0.000439041 -0.000501919 -0.000563836 -0.000624794 -0.000684791 -0.000743829 -0.000801906 -0.000859024 -0.000915181 -0.000966956 -0.00101093 -0.00104709 -0.00107546 -0.00109601 -0.00110877 -0.00111372 -0.00111086 -0.00110109 -0.00108531 -0.0010635 -0.00103567 -0.00100182 -0.000961946 -0.000916054 -0.000864142 -0.00081166 -0.000764062 -0.000721347 -0.000683515 -0.000650566 -0.000622501 -0.000599318 -0.000581019 -0.00056958 -0.000566978 -0.000573213 -0.000588285 -0.000612194 -0.00064494 -0.000686523 -0.000736943 -0.00079523 -0.000860414 -0.000932496 -0.00101147 -0.00109735 -0.00119012 -0.00128979 -0.00139636 -0.00150734 -0.00162023 -0.00173504 -0.00185177 -0.00197041 -0.00209097 -0.00221345 -0.00233785 -0.00245538 -0.00255728 -0.00264354 -0.00271415 -0.00276913 -0.00280847 -0.00283217 -0.00284023 -0.00283305 -0.00281102 -0.00277414 -0.00272241 -0.00265584 -0.00257441 -0.00247814 -0.00236701 -0.00224921 -0.0021329 -0.00201807 -0.00190474 -0.0017929 -0.00168254 -0.00157368 -0.0014663 -0.00136087 -0.00125785 -0.00115723 -0.00105901 -0.000963206 -0.000869803 -0.000778805 -0.000690212 -0.000605622 -0.000526633 -0.000453246 -0.000385459 -0.000323274 -0.00026669 -0.000215707 -0.000170325 -0.000130405 -9.58079e-05 -6.65333e-05 -4.25813e-05 -2.3952e-05 -1.06453e-05 -2.66133e-06 0 0 4.34786e-07 1.73914e-06 3.91307e-06 6.95657e-06 1.08696e-05 1.56523e-05 2.13045e-05 2.78263e-05 3.13354e-05 2.79495e-05 1.76687e-05 4.92891e-07 -2.35779e-05 -5.45436e-05 -9.24043e-05 -0.00013716 -0.00018939 -0.000249674 -0.000318013 -0.000394405 -0.000478852 -0.000571353 -0.000671908 -0.000780517 -0.0008923 -0.00100238 -0.00111074 -0.00121741 -0.00132236 -0.00142561 -0.00152715 -0.00162699 -0.00171903 -0.0017972 -0.0018615 -0.00191192 -0.00194847 -0.00197114 -0.00197994 -0.00197487 -0.0019575 -0.00192943 -0.00189066 -0.00184119 -0.00178101 -0.00171013 -0.00162854 -0.00153625 -0.00144295 -0.00135833 -0.00128239 -0.00121514 -0.00115656 -0.00110667 -0.00106545 -0.00103292 -0.00101259 -0.00100796 -0.00101905 -0.00104584 -0.00108835 -0.00114656 -0.00122049 -0.00131012 -0.00141374 -0.00152963 -0.00165777 -0.00179818 -0.00195085 -0.00211578 -0.00229297 -0.00248242 -0.00267971 -0.00288041 -0.00308451 -0.00329203 -0.00350295 -0.00371728 -0.00393502 -0.00415617 -0.00436512 -0.00454627 -0.00469962 -0.00482516 -0.0049229 -0.00499284 -0.00503497 -0.0050493 -0.00503654 -0.00499737 -0.00493181 -0.00483984 -0.00472149 -0.00457673 -0.00440558 -0.00420802 -0.0039986 -0.00379182 -0.00358769 -0.00338621 -0.00318737 -0.00299118 -0.00279764 -0.00260675 -0.00241932 -0.00223617 -0.00205729 -0.00188269 -0.00171237 -0.00154632 -0.00138454 -0.00122704 -0.00107666 -0.000936237 -0.00080577 -0.000685261 -0.00057471 -0.000474116 -0.000383479 -0.0003028 -0.000231831 -0.000170325 -0.000118281 -7.57001e-05 -4.25813e-05 -1.8925e-05 -4.73125e-06 0 0 6.79353e-07 2.71741e-06 6.11418e-06 1.08696e-05 1.69838e-05 2.44567e-05 3.32883e-05 4.34786e-05 4.89615e-05 4.36711e-05 2.76073e-05 7.70142e-07 -3.68404e-05 -8.52244e-05 -0.000144382 -0.000214312 -0.000295922 -0.000390116 -0.000496895 -0.000616258 -0.000748206 -0.000892739 -0.00104986 -0.00121956 -0.00139422 -0.00156621 -0.00173554 -0.0019022 -0.00206619 -0.00222752 -0.00238618 -0.00254217 -0.00268599 -0.00280813 -0.00290859 -0.00298738 -0.00304448 -0.00307991 -0.00309366 -0.00308573 -0.0030586 -0.00301474 -0.00295416 -0.00287685 -0.00278283 -0.00267207 -0.0025446 -0.00240039 -0.00225461 -0.00212239 -0.00200374 -0.00189865 -0.00180713 -0.00172917 -0.00166477 -0.00161394 -0.00158217 -0.00157494 -0.00159226 -0.00163413 -0.00170054 -0.0017915 -0.00190701 -0.00204706 -0.00220897 -0.00239004 -0.00259027 -0.00280965 -0.0030482 -0.0033059 -0.00358276 -0.00387878 -0.00418705 -0.00450064 -0.00481955 -0.00514379 -0.00547336 -0.00580825 -0.00614847 -0.00649402 -0.00682051 -0.00710355 -0.00734315 -0.00753931 -0.00769203 -0.00780131 -0.00786715 -0.00788954 -0.00786959 -0.00780839 -0.00770595 -0.00756226 -0.00737732 -0.00715114 -0.00688371 -0.00657504 -0.00624781 -0.00592472 -0.00560576 -0.00529095 -0.00498027 -0.00467372 -0.00437132 -0.00407305 -0.00378019 -0.00349402 -0.00321452 -0.00294171 -0.00267557 -0.00241612 -0.00216335 -0.00191726 -0.00168228 -0.00146287 -0.00125902 -0.00107072 -0.000897984 -0.000740806 -0.000599186 -0.000473125 -0.000362237 -0.000266133 -0.000184815 -0.000118281 -6.65333e-05 -2.95703e-05 -7.39259e-06 0 0 9.78268e-07 3.91307e-06 8.80441e-06 1.56523e-05 2.44567e-05 3.52177e-05 4.79351e-05 6.26092e-05 7.05046e-05 6.28864e-05 3.97545e-05 1.109e-06 -5.30502e-05 -0.000122723 -0.00020791 -0.00030861 -0.000426128 -0.000561767 -0.000715529 -0.000887412 -0.00107742 -0.00128554 -0.00151179 -0.00175616 -0.00200767 -0.00225535 -0.00249918 -0.00273917 -0.00297532 -0.00320763 -0.00343609 -0.00366072 -0.00386782 -0.00404371 -0.00418837 -0.00430182 -0.00438405 -0.00443507 -0.00445487 -0.00444345 -0.00440438 -0.00434123 -0.00425399 -0.00414267 -0.00400727 -0.00384778 -0.00366422 -0.00345657 -0.00324664 -0.00305625 -0.00288539 -0.00273406 -0.00260226 -0.00249 -0.00239727 -0.00232408 -0.00227832 -0.00226791 -0.00229285 -0.00235314 -0.00244878 -0.00257976 -0.00274609 -0.00294777 -0.00318092 -0.00344166 -0.00372998 -0.0040459 -0.0043894 -0.00476049 -0.00515918 -0.00558545 -0.00602935 -0.00648092 -0.00694015 -0.00740706 -0.00788164 -0.00836389 -0.0088538 -0.00935139 -0.00982153 -0.0102291 -0.0105741 -0.0108566 -0.0110765 -0.0112339 -0.0113287 -0.0113609 -0.0113322 -0.0112441 -0.0110966 -0.0108897 -0.0106233 -0.0102976 -0.00991254 -0.00946805 -0.00899684 -0.00853159 -0.0080723 -0.00761896 -0.00717158 -0.00673016 -0.0062947 -0.0058652 -0.00544348 -0.00503139 -0.00462891 -0.00423606 -0.00385282 -0.00347921 -0.00311522 -0.00276085 -0.00242249 -0.00210653 -0.00181298 -0.00154184 -0.0012931 -0.00106676 -0.000862828 -0.000681301 -0.000521621 -0.000383232 -0.000266133 -0.000170325 -9.58079e-05 -4.25813e-05 -1.06453e-05 0 0 1.33153e-06 5.32613e-06 1.19838e-05 2.13045e-05 3.32883e-05 4.79351e-05 6.52451e-05 8.5218e-05 9.59646e-05 8.55954e-05 5.41104e-05 1.50948e-06 -7.22072e-05 -0.00016704 -0.000282988 -0.000420052 -0.000580007 -0.000764628 -0.000973914 -0.00120787 -0.00146648 -0.00174977 -0.00205772 -0.00239033 -0.00273267 -0.00306978 -0.00340166 -0.00372831 -0.00404974 -0.00436593 -0.00467691 -0.00498265 -0.00526454 -0.00550393 -0.00570084 -0.00585526 -0.00596718 -0.00603662 -0.00606357 -0.00604803 -0.00599485 -0.00590889 -0.00579015 -0.00563864 -0.00545434 -0.00523726 -0.00498741 -0.00470477 -0.00441904 -0.00415989 -0.00392733 -0.00372136 -0.00354197 -0.00338917 -0.00326296 -0.00316333 -0.00310105 -0.00308688 -0.00312083 -0.00320289 -0.00333306 -0.00351134 -0.00373774 -0.00401225 -0.00432959 -0.00468448 -0.00507692 -0.00550692 -0.00597446 -0.00647956 -0.00702221 -0.00760241 -0.00820661 -0.00882125 -0.00944632 -0.0100818 -0.0107278 -0.0113842 -0.012051 -0.0127283 -0.0133682 -0.013923 -0.0143926 -0.0147771 -0.0150764 -0.0152906 -0.0154196 -0.0154635 -0.0154244 -0.0153044 -0.0151037 -0.014822 -0.0144595 -0.0140162 -0.0134921 -0.0128871 -0.0122457 -0.0116124 -0.0109873 -0.0103703 -0.00976132 -0.0091605 -0.00856779 -0.00798318 -0.00740918 -0.00684827 -0.00630046 -0.00576574 -0.00524412 -0.00473559 -0.00424016 -0.00375782 -0.00329728 -0.00286723 -0.00246767 -0.00209861 -0.00176005 -0.00145198 -0.0011744 -0.000927326 -0.000709984 -0.000521621 -0.000362237 -0.000231831 -0.000130405 -5.79579e-05 -1.44895e-05 0 0 1.73914e-06 6.95657e-06 1.56523e-05 2.78263e-05 4.34786e-05 6.26092e-05 8.5218e-05 0.000111305 0.000125342 0.000111798 7.06747e-05 1.97156e-06 -9.43115e-05 -0.000218174 -0.000369617 -0.00054864 -0.00075756 -0.000998698 -0.00127205 -0.00157762 -0.00191541 -0.00228541 -0.00268763 -0.00312207 -0.0035692 -0.0040095 -0.00444298 -0.00486963 -0.00528945 -0.00570244 -0.00610861 -0.00650795 -0.00687613 -0.00718881 -0.007446 -0.00764768 -0.00779387 -0.00788457 -0.00791976 -0.00789946 -0.00783 -0.00771773 -0.00756265 -0.00736475 -0.00712403 -0.00684051 -0.00651416 -0.00614501 -0.0057718 -0.00543333 -0.00512958 -0.00486055 -0.00462625 -0.00442667 -0.00426182 -0.00413169 -0.00405035 -0.00403184 -0.00407618 -0.00418336 -0.00435338 -0.00458624 -0.00488194 -0.00524048 -0.00565497 -0.0061185 -0.00663108 -0.00719271 -0.00780338 -0.0084631 -0.00917187 -0.00992968 -0.0107188 -0.0115216 -0.0123381 -0.0131681 -0.0140118 -0.0148691 -0.0157401 -0.0166247 -0.0174605 -0.0181851 -0.0187985 -0.0193006 -0.0196916 -0.0199714 -0.0201399 -0.0201972 -0.0201461 -0.0199895 -0.0197272 -0.0193594 -0.0188859 -0.0183069 -0.0176223 -0.0168321 -0.0159944 -0.0151673 -0.0143508 -0.0135448 -0.0127495 -0.0119647 -0.0111906 -0.010427 -0.0096773 -0.00894469 -0.00822918 -0.00753077 -0.00684947 -0.00618526 -0.00553817 -0.00490817 -0.00430665 -0.00374495 -0.00322308 -0.00274104 -0.00229884 -0.00189646 -0.00153392 -0.0012112 -0.000927326 -0.000681301 -0.000473125 -0.0003028 -0.000170325 -7.57001e-05 -1.8925e-05 0 0 1.83316e-06 7.33263e-06 1.64984e-05 2.93305e-05 4.58289e-05 6.59937e-05 8.98247e-05 0.000117322 0.000129403 0.000106983 5.00644e-05 -4.13545e-05 -0.000167273 -0.000327692 -0.00052261 -0.000752028 -0.00101866 -0.00132522 -0.0016717 -0.00205811 -0.00248444 -0.0029507 -0.00345688 -0.004003 -0.00456492 -0.00511853 -0.00566385 -0.00620085 -0.00672956 -0.00724995 -0.00776205 -0.00826584 -0.00873041 -0.00912486 -0.00944918 -0.00970338 -0.00988745 -0.0100014 -0.0100452 -0.0100189 -0.00993078 -0.00978915 -0.00959401 -0.00934536 -0.0090432 -0.00868753 -0.00827835 -0.00781566 -0.00734808 -0.00692422 -0.00654409 -0.00620767 -0.00591498 -0.00566601 -0.00546076 -0.00529924 -0.00519573 -0.00516452 -0.00520562 -0.00531902 -0.00550473 -0.00576274 -0.00609305 -0.00649567 -0.0069597 -0.00747426 -0.00803933 -0.00865493 -0.00932105 -0.0100377 -0.0108049 -0.0116225 -0.0124747 -0.0133451 -0.014234 -0.0151411 -0.0160667 -0.0170106 -0.0179728 -0.0189534 -0.0198816 -0.0206864 -0.021368 -0.0219264 -0.0223615 -0.0226733 -0.0228618 -0.0229271 -0.0228724 -0.0227008 -0.0224125 -0.0220073 -0.0214853 -0.0208465 -0.0200909 -0.0192185 -0.0182947 -0.0173848 -0.016489 -0.0156071 -0.0147392 -0.0138853 -0.0130453 -0.0122194 -0.0114056 -0.0106024 -0.00980967 -0.00902743 -0.00825569 -0.00749444 -0.00674369 -0.00600343 -0.00529042 -0.00462142 -0.00399644 -0.00341547 -0.00287851 -0.00238556 -0.00193662 -0.00153169 -0.0011727 -0.000861575 -0.000598316 -0.000382922 -0.000215394 -9.57306e-05 -2.39326e-05 0 0 1.24563e-06 4.98251e-06 1.12106e-05 1.993e-05 3.11407e-05 4.48426e-05 6.10357e-05 7.97201e-05 7.89152e-05 3.66405e-05 -4.71041e-05 -0.000172318 -0.000339003 -0.000547157 -0.000796781 -0.00108787 -0.00142318 -0.00180542 -0.00223461 -0.00271075 -0.00323383 -0.00380386 -0.00442083 -0.00508474 -0.00576747 -0.00644088 -0.00710496 -0.00775971 -0.00840515 -0.00904126 -0.00966805 -0.0102855 -0.0108552 -0.0113386 -0.0117357 -0.0120466 -0.0122712 -0.0124096 -0.0124617 -0.0124275 -0.0123181 -0.0121445 -0.0119068 -0.0116048 -0.0112387 -0.0108083 -0.0103138 -0.00975513 -0.00919101 -0.00868024 -0.00822283 -0.00781877 -0.00746806 -0.0071707 -0.00692669 -0.00673604 -0.0066067 -0.00654663 -0.00655584 -0.00663432 -0.00678207 -0.0069991 -0.00728541 -0.00764099 -0.00804642 -0.00848227 -0.00894854 -0.00944524 -0.00997236 -0.0105299 -0.0111179 -0.0117363 -0.0123827 -0.0130549 -0.0137527 -0.0144762 -0.0152254 -0.0160004 -0.016801 -0.0176273 -0.0184145 -0.0190979 -0.0196775 -0.0201533 -0.0205253 -0.0207934 -0.0209577 -0.0210183 -0.020978 -0.0208401 -0.0206045 -0.0202713 -0.0198404 -0.0193118 -0.0186856 -0.0179617 -0.0171983 -0.0164539 -0.0157282 -0.0150215 -0.0143335 -0.0136645 -0.0130143 -0.0123829 -0.011752 -0.0111032 -0.0104366 -0.00975205 -0.00904963 -0.00832934 -0.00759116 -0.0068351 -0.00608842 -0.00537838 -0.00470498 -0.00406821 -0.00346809 -0.00290461 -0.00237776 -0.00188755 -0.00144516 -0.00106175 -0.000737325 -0.000471888 -0.000265437 -0.000117972 -2.9493e-05 0 0 -2.34479e-08 -9.37916e-08 -2.11031e-07 -3.75166e-07 -5.86198e-07 -8.44125e-07 -1.14895e-06 -1.50067e-06 -2.61208e-05 -9.92308e-05 -0.000220831 -0.00039092 -0.0006095 -0.00087657 -0.00119213 -0.00155618 -0.00197111 -0.00243932 -0.0029608 -0.00353555 -0.00416358 -0.00484488 -0.00557946 -0.00636732 -0.00717686 -0.00797653 -0.00876631 -0.00954621 -0.0103162 -0.0110764 -0.0118266 -0.012567 -0.0132504 -0.01383 -0.0143057 -0.0146774 -0.0149452 -0.0151092 -0.0151692 -0.0151253 -0.014992 -0.0147839 -0.0145009 -0.0141431 -0.0137104 -0.0132029 -0.0126206 -0.0119634 -0.0113006 -0.0107014 -0.0101658 -0.00969383 -0.00928548 -0.00894073 -0.0086596 -0.00844208 -0.00828325 -0.00817817 -0.00812683 -0.00812925 -0.00818542 -0.00829534 -0.00845901 -0.00867644 -0.00891511 -0.00914254 -0.00935871 -0.00956364 -0.00975731 -0.00993974 -0.0101109 -0.0102709 -0.010443 -0.0106508 -0.0108942 -0.0111733 -0.0114881 -0.0118385 -0.0122245 -0.0126462 -0.0130593 -0.0134196 -0.0137269 -0.0139814 -0.014183 -0.0143317 -0.0144276 -0.0144706 -0.0144631 -0.0144074 -0.0143035 -0.0141515 -0.0139512 -0.0137029 -0.0134063 -0.0130616 -0.0127054 -0.0123744 -0.0120686 -0.011788 -0.0115326 -0.0113024 -0.0110974 -0.0109176 -0.0107164 -0.0104472 -0.0101099 -0.00970461 -0.0092313 -0.00868996 -0.00808059 -0.0074032 -0.00670065 -0.00601582 -0.00534869 -0.00469929 -0.00406759 -0.00345361 -0.00285734 -0.00227879 -0.0017447 -0.00128182 -0.000890152 -0.000569697 -0.000320455 -0.000142424 -3.56061e-05 0 0 -1.97407e-06 -7.89627e-06 -1.77666e-05 -3.15851e-05 -4.93517e-05 -7.10664e-05 -9.67293e-05 -0.00012634 -0.000185705 -0.00030063 -0.000471115 -0.00069716 -0.000978765 -0.00131593 -0.00170865 -0.00215694 -0.00266246 -0.0032269 -0.00385025 -0.00453251 -0.00527369 -0.00607378 -0.00693279 -0.00785071 -0.00879309 -0.0097255 -0.0106479 -0.0115603 -0.0124628 -0.0133553 -0.0142377 -0.0151102 -0.0159162 -0.0165991 -0.017159 -0.0175957 -0.0179094 -0.0181001 -0.0181677 -0.0181122 -0.0179524 -0.0177072 -0.0173765 -0.0169602 -0.0164585 -0.0158713 -0.0151986 -0.0144405 -0.0136768 -0.0129877 -0.012373 -0.0118329 -0.0113672 -0.0109761 -0.0106595 -0.0104174 -0.0102254 -0.0100591 -0.00991861 -0.00980382 -0.00971477 -0.00965145 -0.00961387 -0.00960202 -0.00956579 -0.00945506 -0.00926984 -0.00901012 -0.00867591 -0.00826721 -0.007784 -0.00722631 -0.00665548 -0.00613289 -0.00565854 -0.00523242 -0.00485453 -0.00452489 -0.00424348 -0.0040103 -0.00381603 -0.00365133 -0.0035162 -0.00341065 -0.00333467 -0.00328825 -0.00327141 -0.00328415 -0.00332751 -0.00340256 -0.00350929 -0.00364771 -0.00381782 -0.00401962 -0.0042531 -0.00451827 -0.0048158 -0.00514636 -0.00550996 -0.00590659 -0.00633626 -0.00679896 -0.0072947 -0.00782347 -0.00829879 -0.00863417 -0.00882961 -0.00888511 -0.00880067 -0.0085763 -0.00821198 -0.00770772 -0.00712711 -0.00653373 -0.00592759 -0.00530868 -0.00467701 -0.00403257 -0.00337537 -0.0027054 -0.00207132 -0.00152179 -0.0010568 -0.00067635 -0.000380447 -0.000169088 -4.22719e-05 0 0 -4.60623e-06 -1.84249e-05 -4.14561e-05 -7.36997e-05 -0.000115156 -0.000165824 -0.000225705 -0.000294799 -0.000399838 -0.000567558 -0.000797958 -0.00109104 -0.0014468 -0.00186524 -0.00234636 -0.00289016 -0.00349723 -0.00416817 -0.00490297 -0.00570163 -0.00656416 -0.00749055 -0.0084808 -0.00953492 -0.0106162 -0.0116878 -0.0127498 -0.0138021 -0.0148448 -0.015878 -0.0169014 -0.0179153 -0.0188525 -0.0196459 -0.0202956 -0.0208016 -0.0211639 -0.0213824 -0.0214572 -0.0213883 -0.0211994 -0.0209145 -0.0205334 -0.0200562 -0.0194829 -0.0188135 -0.018048 -0.0171864 -0.0163197 -0.0155391 -0.0148445 -0.0142359 -0.0137133 -0.0132768 -0.0129264 -0.0126619 -0.0124331 -0.0121895 -0.0119312 -0.011658 -0.0113701 -0.0110674 -0.01075 -0.0104177 -0.00999844 -0.00941984 -0.00868193 -0.0077847 -0.00672815 -0.0055123 -0.00413712 -0.00260263 -0.00102021 0.000498782 0.00195433 0.00334644 0.00467512 0.00594035 0.00714215 0.0082805 0.00931538 0.0102067 0.0109546 0.0115589 0.0120197 0.012337 0.0125108 0.0125411 0.0124286 0.0121743 0.0117781 0.0112399 0.0105599 0.0097379 0.00877405 0.00766829 0.00647041 0.00523018 0.0039476 0.00262267 0.00125539 -0.000154237 -0.00160621 -0.00310054 -0.00449923 -0.0056643 -0.00659574 -0.00729357 -0.00775777 -0.00798836 -0.00798532 -0.00774866 -0.00736779 -0.00693212 -0.00644166 -0.0058964 -0.00529634 -0.00464149 -0.00393184 -0.00316739 -0.00242503 -0.00178166 -0.00123726 -0.000791847 -0.000445414 -0.000197962 -4.94904e-05 0 0 -7.91994e-06 -3.16798e-05 -7.12794e-05 -0.000126719 -0.000197998 -0.000285118 -0.000388077 -0.000506876 -0.00066852 -0.000900014 -0.00120136 -0.00157255 -0.0020136 -0.00252449 -0.00310524 -0.00375583 -0.00447542 -0.00526312 -0.00611895 -0.00704291 -0.00803498 -0.00909518 -0.0102235 -0.01142 -0.0126461 -0.0138634 -0.0150718 -0.0162715 -0.0174624 -0.0186444 -0.0198177 -0.0209821 -0.0220592 -0.0229704 -0.0237157 -0.024295 -0.0247085 -0.0249561 -0.0250377 -0.0249535 -0.024733 -0.0244057 -0.0239717 -0.023431 -0.0227836 -0.0220295 -0.0211686 -0.0202011 -0.0192292 -0.0183556 -0.0175801 -0.0169029 -0.0163238 -0.0158429 -0.0154602 -0.0151757 -0.0149064 -0.0145694 -0.0141645 -0.0136919 -0.0131515 -0.0125433 -0.0118673 -0.0111236 -0.0102131 -0.00903688 -0.00759498 -0.00588736 -0.00391404 -0.00167501 0.000829728 0.00360017 0.00646284 0.00924425 0.0119444 0.0145633 0.0171009 0.0195573 0.0219324 0.0242262 0.0263349 0.0281547 0.0296855 0.0309273 0.0318802 0.0325441 0.0329191 0.0330051 0.0328054 0.0323232 0.0315585 0.0305114 0.0291818 0.0275697 0.0256751 0.0234981 0.0211532 0.0187552 0.0163041 0.0137998 0.0112424 0.0086318 0.00596808 0.00325122 0.000682313 -0.00153752 -0.00340828 -0.00492997 -0.00610259 -0.00692614 -0.00740061 -0.00752602 -0.0074227 -0.00721099 -0.00689091 -0.00646244 -0.00592559 -0.00528036 -0.00452675 -0.00366475 -0.00280582 -0.00206142 -0.00143154 -0.000916187 -0.000515355 -0.000229047 -5.72617e-05 0 0 -1.19152e-05 -4.76608e-05 -0.000107237 -0.000190643 -0.00029788 -0.000428947 -0.000583844 -0.000762572 -0.00099175 -0.001298 -0.00168132 -0.00214171 -0.00267917 -0.0032937 -0.0039853 -0.00475397 -0.00559702 -0.00651177 -0.00749821 -0.00855634 -0.00968617 -0.0108877 -0.0121609 -0.0135058 -0.0148828 -0.0162523 -0.0176142 -0.0189686 -0.0203154 -0.0216547 -0.0229865 -0.0243108 -0.0255364 -0.0265725 -0.0274191 -0.028076 -0.0285433 -0.0288211 -0.0289093 -0.0288079 -0.0285531 -0.0281809 -0.0276915 -0.0270847 -0.0263606 -0.0255192 -0.0245605 -0.0234846 -0.0224054 -0.0214372 -0.02058 -0.0198338 -0.0191986 -0.0186743 -0.0182611 -0.0179588 -0.0176453 -0.0171986 -0.0166186 -0.0159054 -0.0150588 -0.014079 -0.0129659 -0.0117195 -0.0102097 -0.00830618 -0.00600898 -0.00331811 -0.00023357 0.00324465 0.00711654 0.0113821 0.0157937 0.0201035 0.0243117 0.0284181 0.0324228 0.0363258 0.0401272 0.0438268 0.0472426 0.0501925 0.0526765 0.0546946 0.0562468 0.057333 0.0579534 0.0581079 0.0578027 0.0570442 0.0558322 0.0541668 0.052048 0.0494758 0.0464501 0.0429711 0.0392327 0.0354288 0.0315595 0.0276248 0.0236247 0.0195592 0.0154282 0.0112318 0.00724583 0.00374616 0.000732776 -0.00179432 -0.00383512 -0.00538964 -0.00645786 -0.0070398 -0.00729183 -0.00737035 -0.00727534 -0.00700681 -0.00656476 -0.00594919 -0.0051601 -0.00419749 -0.0032137 -0.00236109 -0.00163964 -0.00104937 -0.000590272 -0.000262343 -6.55857e-05 0 0 -1.6592e-05 -6.63679e-05 -0.000149328 -0.000265472 -0.0004148 -0.000597311 -0.000813007 -0.00106189 -0.00136953 -0.00176151 -0.00223783 -0.0027985 -0.0034435 -0.00417285 -0.00498653 -0.00588456 -0.00686204 -0.0079141 -0.00904073 -0.0102419 -0.0115177 -0.0128681 -0.014293 -0.0157925 -0.0173264 -0.0188545 -0.0203768 -0.0218932 -0.0234039 -0.0249088 -0.0264079 -0.0279012 -0.0292842 -0.0304524 -0.0314058 -0.0321445 -0.0326684 -0.0329775 -0.0330719 -0.0329515 -0.0326597 -0.0322401 -0.0316926 -0.0310172 -0.0302139 -0.0292828 -0.0282238 -0.0270369 -0.0258482 -0.024784 -0.0238442 -0.0230287 -0.0223377 -0.0217711 -0.0213289 -0.0210111 -0.0206498 -0.0200773 -0.0192935 -0.0182985 -0.0170922 -0.0156746 -0.0140458 -0.0122056 -0.0099883 -0.00722773 -0.00392395 -7.69552e-05 0.00431326 0.00924668 0.0147233 0.0207432 0.0269723 0.0330766 0.0390561 0.0449109 0.0506409 0.0562461 0.0617265 0.0670822 0.0720383 0.0763201 0.0799275 0.0828606 0.0851194 0.0867038 0.0876138 0.0878495 0.0874207 0.0863372 0.084599 0.082206 0.0791584 0.0754561 0.0710991 0.0660874 0.0607088 0.0552509 0.0497139 0.0440977 0.0384024 0.0326278 0.0267741 0.0208412 0.0151913 0.0101867 0.00582742 0.00211339 -0.000955373 -0.00337886 -0.00515707 -0.00629 -0.0069752 -0.00741018 -0.00759494 -0.0075295 -0.00721384 -0.00664797 -0.00583189 -0.0047656 -0.00364866 -0.00268065 -0.00186156 -0.0011914 -0.000670162 -0.00029785 -7.44625e-05 0 0 -2.18653e-05 -8.74613e-05 -0.000196788 -0.000349845 -0.000546633 -0.000787152 -0.0010714 -0.00139938 -0.00179206 -0.0022704 -0.0028344 -0.00348407 -0.0042194 -0.00504039 -0.00594704 -0.00693936 -0.00800755 -0.00914179 -0.0103421 -0.0116085 -0.0129409 -0.0143394 -0.015804 -0.0173346 -0.0188967 -0.0204555 -0.022011 -0.0235633 -0.0251124 -0.0266582 -0.0282008 -0.0297402 -0.0311654 -0.0323655 -0.0333406 -0.0340906 -0.0346156 -0.0349156 -0.0349904 -0.0348403 -0.034517 -0.0340726 -0.033507 -0.0328202 -0.0320123 -0.0310832 -0.030033 -0.0288616 -0.0276984 -0.0266726 -0.0257842 -0.0250333 -0.0244198 -0.0239438 -0.0236053 -0.0234041 -0.0231132 -0.0225053 -0.0215804 -0.0203385 -0.0187796 -0.0169038 -0.0147109 -0.012201 -0.00916957 -0.00541211 -0.000928606 0.00428095 0.0102165 0.0168782 0.0242659 0.0323796 0.0407741 0.049004 0.0570693 0.06497 0.0727061 0.0802776 0.0876845 0.0949269 0.101632 0.107425 0.112308 0.11628 0.119342 0.121492 0.122732 0.12306 0.122493 0.121042 0.11871 0.115495 0.111398 0.106419 0.100557 0.0938135 0.0865736 0.0792239 0.0717646 0.0641956 0.0565168 0.0487283 0.0408301 0.0328223 0.0251753 0.01836 0.0123764 0.00722433 0.00290392 -0.000584859 -0.00324201 -0.00506752 -0.00630548 -0.00719993 -0.00775088 -0.00795834 -0.00782229 -0.00734275 -0.00651971 -0.00535317 -0.00409852 -0.00301116 -0.00209108 -0.00133829 -0.000752789 -0.000334573 -8.36432e-05 0 0 -2.76502e-05 -0.000110601 -0.000248852 -0.000442404 -0.000691256 -0.000995408 -0.00135486 -0.00176961 -0.00224954 -0.0028045 -0.00343451 -0.00413955 -0.00491964 -0.00577476 -0.00670493 -0.00771014 -0.0087706 -0.00986652 -0.0109979 -0.0121648 -0.0133671 -0.0146049 -0.0158781 -0.0171868 -0.0185135 -0.0198407 -0.0211684 -0.0224966 -0.0238253 -0.0251545 -0.0264843 -0.0278145 -0.029043 -0.0300674 -0.0308879 -0.0315044 -0.0319169 -0.0321254 -0.03213 -0.0319305 -0.0315891 -0.0311678 -0.0306666 -0.0300855 -0.0294246 -0.0286838 -0.0278631 -0.0269625 -0.0260965 -0.0253796 -0.0248119 -0.0243932 -0.0241236 -0.0240031 -0.0240318 -0.0242095 -0.0242289 -0.0237826 -0.0228705 -0.0214928 -0.0196493 -0.0173401 -0.0145652 -0.0113246 -0.00737419 -0.00246988 0.00338833 0.0102004 0.0179664 0.0266863 0.03636 0.0469877 0.0579746 0.0687263 0.0792426 0.0895237 0.0995695 0.10938 0.118955 0.128295 0.136931 0.144396 0.150688 0.155809 0.159757 0.162534 0.164138 0.164571 0.163852 0.162 0.159017 0.154901 0.149653 0.143273 0.13576 0.127116 0.117819 0.10835 0.0987089 0.0888953 0.0789094 0.0687512 0.0584207 0.0479179 0.0378544 0.0288419 0.0208803 0.0139697 0.00811002 0.00330131 -0.000456449 -0.00316325 -0.00511536 -0.00660905 -0.00764432 -0.00822116 -0.00833957 -0.00799956 -0.00720113 -0.00594427 -0.00455109 -0.00334365 -0.00232198 -0.00148607 -0.000835914 -0.000371517 -9.28793e-05 0 0 -3.39467e-05 -0.000135787 -0.00030552 -0.000543147 -0.000848667 -0.00122208 -0.00166339 -0.00217259 -0.00274197 -0.00336383 -0.00403815 -0.00476495 -0.00554423 -0.00637597 -0.00726019 -0.00819688 -0.00915119 -0.0100883 -0.0110081 -0.0119108 -0.0127962 -0.0136644 -0.0145153 -0.0153491 -0.0161769 -0.0170102 -0.0178489 -0.0186931 -0.0195427 -0.0203977 -0.0212582 -0.0221241 -0.022917 -0.0235582 -0.0240479 -0.0243859 -0.0245723 -0.0246072 -0.0244904 -0.024222 -0.0238759 -0.0235256 -0.0231714 -0.022813 -0.0224507 -0.0220843 -0.0217139 -0.0213394 -0.0210426 -0.0209052 -0.0209271 -0.0211084 -0.021449 -0.021949 -0.0226084 -0.0234271 -0.0239968 -0.023909 -0.0231639 -0.0217613 -0.0197012 -0.0169838 -0.0136089 -0.00957657 -0.00460217 0.00159897 0.00902685 0.0176815 0.0275628 0.0386709 0.0510058 0.0645673 0.0785738 0.0922435 0.105576 0.118572 0.131231 0.143553 0.155538 0.167187 0.177938 0.187231 0.195067 0.201445 0.206366 0.209829 0.211834 0.212382 0.211498 0.209211 0.205519 0.200422 0.193922 0.186017 0.176708 0.165995 0.154446 0.14263 0.130547 0.118197 0.10558 0.0926964 0.0795457 0.0661281 0.0532285 0.0416323 0.0313392 0.0223495 0.0146629 0.00827964 0.0031996 -0.000577186 -0.00340486 -0.00563754 -0.00727524 -0.00831795 -0.00876567 -0.00861841 -0.00787616 -0.00653892 -0.00500636 -0.00367814 -0.00255427 -0.00163473 -0.000919536 -0.000408683 -0.000102171 0 0 -4.07547e-05 -0.000163019 -0.000366792 -0.000652075 -0.00101887 -0.00146717 -0.00199698 -0.0026083 -0.00326936 -0.00394837 -0.00464534 -0.00536027 -0.00609316 -0.00684401 -0.00761282 -0.00839959 -0.00914934 -0.00980708 -0.0103728 -0.0108465 -0.0112283 -0.011518 -0.0117157 -0.0118214 -0.0118869 -0.0119639 -0.0120525 -0.0121527 -0.0122645 -0.0123878 -0.0125227 -0.0126691 -0.0127874 -0.0128378 -0.0128204 -0.0127351 -0.0125819 -0.0123608 -0.0120718 -0.011715 -0.0113774 -0.0111462 -0.0110213 -0.0110028 -0.0110907 -0.0112849 -0.0115855 -0.0119925 -0.0125367 -0.0132492 -0.0141299 -0.0151789 -0.0163961 -0.0177815 -0.0193351 -0.021057 -0.0224169 -0.0228847 -0.0224604 -0.0211439 -0.0189354 -0.0158347 -0.0118418 -0.00695684 -0.000853512 0.00679442 0.015987 0.0267241 0.0390058 0.0528321 0.0682031 0.0851186 0.102572 0.119556 0.13607 0.152115 0.167691 0.182797 0.197434 0.211602 0.224651 0.235932 0.245445 0.253191 0.259168 0.263377 0.265818 0.266492 0.265432 0.262673 0.258216 0.25206 0.244206 0.234652 0.2234 0.21045 0.196453 0.182063 0.167278 0.152101 0.136529 0.120564 0.104205 0.0874528 0.0712977 0.0567312 0.0437532 0.0323636 0.0225626 0.0143501 0.00772615 0.00269067 -0.00117396 -0.0042854 -0.00664365 -0.00824872 -0.0091006 -0.00919929 -0.00854479 -0.00713711 -0.00546435 -0.00401462 -0.00278793 -0.00178428 -0.00100366 -0.000446