<?xml version="1.0"?> 
<VTKFile type="StructuredGrid" version="0.1"> 
<StructuredGrid WholeExtent="0 128 0 128 0 0"> 
<Piece Extent="0 128 0 128 0 0"> 
<PointData>
<DataArray type="Float32" Name="u" format="ascii" NumberOfComponents="1"> 
0 0 0 0 0 0 0 0 0 0 0 0 0 0 0 0 0 0 0 0 0 0 0 0 0 0 0 0 0 0 0 0 0 0 0 0 0 0 0 0 0 0 0 0 0 0 0 0 0 0 0 0 0 0 0 0 0 0 0 0 0 0 0 0 0 0 0 0 0 0 0 0 0 0 0 0 0 0 0 0 0 0 0 0 0 0 0 0 0 0 0 0 0 0 0 0 0 0 0 0 0 0 0 0 0 0 0 0 0 0 0 0 0 0 0 0 0 0 0 0 0 0 0 0 0 0 0 0 0 0 -7.2256e-09 -2.89024e-08 -6.50304e-08 -1.1561e-07 -1.8064e-07 -2.60122e-07 -3.54055e-07 -4.62439e-07 -7.86497e-07 -1.52745e-06 -2.68531e-06 -4.26006e-06 -6.25171e-06 -8.66026e-06 -1.14857e-05 -1.4728e-05 -1.84391e-05 -2.26708e-05 -2.7423e-05 -3.26958e-05 -3.84891e-05 -4.4803e-05 -5.16375e-05 -5.89925e-05 -6.65611e-05 -7.4036e-05 -8.14174e-05 -8.87051e-05 -9.58993e-05 -0.000103 -0.000110007 -0.00011692 -0.000123312 -0.000128753 -0.000133244 -0.000136785 -0.000139376 -0.000141017 -0.000141708 -0.000141448 -0.00014036 -0.000138563 -0.000136059 -0.000132847 -0.000128927 -0.000124299 -0.000118963 -0.000112919 -0.000106755 -0.000101059 -9.58313e-05 -9.1071e-05 -8.67785e-05 -8.29538e-05 -7.9597e-05 -7.6708e-05 -7.44806e-05 -7.31089e-05 -7.25926e-05 -7.29319e-05 -7.41268e-05 -7.61772e-05 -7.90831e-05 -8.28446e-05 -8.72708e-05 -9.21706e-05 -9.75442e-05 -0.000103392 -0.000109713 -0.000116507 -0.000123776 -0.000131518 -0.000139526 -0.000147593 -0.000155718 -0.000163902 -0.000172144 -0.000180445 -0.000188804 -0.000197222 -0.000205159 -0.000212076 -0.000217974 -0.000222851 -0.000226708 -0.000229545 -0.000231362 -0.00023216 -0.000231945 -0.000230726 -0.000228503 -0.000225275 -0.000221044 -0.000215808 -0.000209568 -0.000202324 -0.000194546 -0.000186704 -0.000178797 -0.000170827 -0.000162792 -0.000154694 -0.000146531 -0.000138305 -0.000130026 -0.000121708 -0.00011335 -0.000104952 -9.65145e-05 -8.80373e-05 -7.95205e-05 -7.09639e-05 -6.26372e-05 -5.48097e-05 -4.74814e-05 -4.06524e-05 -3.43227e-05 -2.84923e-05 -2.31611e-05 -1.83292e-05 -1.40333e-05 -1.03102e-05 -7.15983e-06 -4.58229e-06 -2.57754e-06 -1.14557e-06 -2.86393e-07 0 0 -2.89024e-08 -1.1561e-07 -2.60122e-07 -4.62439e-07 -7.2256e-07 -1.04049e-06 -1.41622e-06 -1.84975e-06 -3.14599e-06 -6.10981e-06 -1.07412e-05 -1.70402e-05 -2.50068e-05 -3.4641e-05 -4.59428e-05 -5.89122e-05 -7.37565e-05 -9.0683e-05 -0.000109692 -0.000130783 -0.000153956 -0.000179212 -0.00020655 -0.00023597 -0.000266244 -0.000296144 -0.000325669 -0.00035482 -0.000383597 -0.000411999 -0.000440027 -0.000467681 -0.000493247 -0.000515012 -0.000532977 -0.000547141 -0.000557505 -0.000564068 -0.00056683 -0.000565792 -0.000561438 -0.000554253 -0.000544235 -0.000531387 -0.000515706 -0.000497195 -0.000475851 -0.000451676 -0.000427021 -0.000404238 -0.000383325 -0.000364284 -0.000347114 -0.000331815 -0.000318388 -0.000306832 -0.000297923 -0.000292435 -0.00029037 -0.000291728 -0.000296507 -0.000304709 -0.000316333 -0.000331379 -0.000349083 -0.000368683 -0.000390177 -0.000413566 -0.00043885 -0.000466029 -0.000495103 -0.000526072 -0.000558105 -0.000590372 -0.000622873 -0.000655608 -0.000688577 -0.000721781 -0.000755218 -0.000788889 -0.000820637 -0.000848306 -0.000871894 -0.000891403 -0.000906831 -0.00091818 -0.000925449 -0.000928638 -0.000927779 -0.000922903 -0.000914011 -0.000901101 -0.000884175 -0.000863232 -0.000838273 -0.000809297 -0.000778184 -0.000746815 -0.00071519 -0.000683308 -0.00065117 -0.000618776 -0.000586125 -0.000553218 -0.000520104 -0.000486831 -0.000453399 -0.000419808 -0.000386058 -0.000352149 -0.000318082 -0.000283856 -0.000250549 -0.000219239 -0.000189926 -0.00016261 -0.000137291 -0.000113969 -9.26443e-05 -7.33166e-05 -5.61331e-05 -4.12406e-05 -2.86393e-05 -1.83292e-05 -1.03102e-05 -4.58229e-06 -1.14557e-06 0 0 -6.50304e-08 -2.60122e-07 -5.85274e-07 -1.04049e-06 -1.62576e-06 -2.3411e-06 -3.18649e-06 -4.16195e-06 -7.07847e-06 -1.37471e-05 -2.41678e-05 -3.83405e-05 -5.62654e-05 -7.79423e-05 -0.000103371 -0.000132552 -0.000165952 -0.000204037 -0.000246807 -0.000294262 -0.000346402 -0.000403227 -0.000464737 -0.000530933 -0.00059905 -0.000666324 -0.000732756 -0.000798346 -0.000863093 -0.000926998 -0.000990061 -0.00105228 -0.0011098 -0.00115878 -0.0011992 -0.00123107 -0.00125439 -0.00126915 -0.00127537 -0.00127303 -0.00126324 -0.00124707 -0.00122453 -0.00119562 -0.00116034 -0.00111869 -0.00107067 -0.00101627 -0.000960798 -0.000909534 -0.000862481 -0.000819639 -0.000781006 -0.000746585 -0.000716373 -0.000690372 -0.000670326 -0.00065798 -0.000653334 -0.000656387 -0.000667141 -0.000685595 -0.000711748 -0.000745602 -0.000785437 -0.000829536 -0.000877898 -0.000930524 -0.000987413 -0.00104857 -0.00111398 -0.00118366 -0.00125574 -0.00132834 -0.00140146 -0.00147512 -0.0015493 -0.00162401 -0.00169924 -0.001775 -0.00184643 -0.00190869 -0.00196176 -0.00200566 -0.00204037 -0.00206591 -0.00208226 -0.00208944 -0.0020875 -0.00207653 -0.00205652 -0.00202748 -0.00198939 -0.00194227 -0.00188611 -0.00182092 -0.00175091 -0.00168033 -0.00160918 -0.00153744 -0.00146513 -0.00139225 -0.00131878 -0.00124474 -0.00117023 -0.00109537 -0.00102015 -0.000944567 -0.00086863 -0.000792336 -0.000715685 -0.000638676 -0.000563735 -0.000493287 -0.000427333 -0.000365872 -0.000308905 -0.00025643 -0.00020845 -0.000164962 -0.000126299 -9.27914e-05 -6.44385e-05 -4.12406e-05 -2.31978e-05 -1.03102e-05 -2.57754e-06 0 0 -1.1561e-07 -4.62439e-07 -1.04049e-06 -1.84975e-06 -2.89024e-06 -4.16195e-06 -5.66487e-06 -7.39902e-06 -1.2584e-05 -2.44393e-05 -4.29649e-05 -6.81609e-05 -0.000100027 -0.000138564 -0.000183771 -0.000235649 -0.000295026 -0.000362732 -0.000438768 -0.000523132 -0.000615826 -0.000716848 -0.0008262 -0.000943881 -0.00106498 -0.00118458 -0.00130268 -0.00141928 -0.00153439 -0.001648 -0.00176011 -0.00187072 -0.00197299 -0.00206005 -0.00213191 -0.00218856 -0.00223002 -0.00225627 -0.00226732 -0.00226317 -0.00224575 -0.00221701 -0.00217694 -0.00212555 -0.00206283 -0.00198878 -0.0019034 -0.00180671 -0.00170809 -0.00161695 -0.0015333 -0.00145714 -0.00138846 -0.00132726 -0.00127355 -0.00122733 -0.00119169 -0.00116974 -0.00116148 -0.00116691 -0.00118603 -0.00121884 -0.00126533 -0.00132551 -0.00139633 -0.00147473 -0.00156071 -0.00165426 -0.0017554 -0.00186412 -0.00198041 -0.00210429 -0.00223242 -0.00236149 -0.00249149 -0.00262243 -0.00275431 -0.00288712 -0.00302087 -0.00315556 -0.00328255 -0.00339322 -0.00348758 -0.00356561 -0.00362733 -0.00367272 -0.0037018 -0.00371455 -0.00371112 -0.00369161 -0.00365604 -0.0036044 -0.0035367 -0.00345293 -0.00335309 -0.00323719 -0.00311274 -0.00298726 -0.00286076 -0.00273323 -0.00260468 -0.0024751 -0.0023445 -0.00221287 -0.00208042 -0.00194732 -0.00181359 -0.00167923 -0.00154423 -0.0014086 -0.00127233 -0.00113542 -0.00100219 -0.000876955 -0.000759703 -0.000650439 -0.000549164 -0.000455876 -0.000370577 -0.000293267 -0.000224532 -0.000164962 -0.000114557 -7.33166e-05 -4.12406e-05 -1.83292e-05 -4.58229e-06 0 0 -1.8064e-07 -7.2256e-07 -1.62576e-06 -2.89024e-06 -4.516e-06 -6.50304e-06 -8.85136e-06 -1.1561e-05 -1.96624e-05 -3.81863e-05 -6.71327e-05 -0.000106501 -0.000156293 -0.000216506 -0.000287142 -0.000368201 -0.000460978 -0.000566769 -0.000685574 -0.000817394 -0.000962227 -0.00112008 -0.00129094 -0.00147481 -0.00166403 -0.0018509 -0.00203543 -0.00221763 -0.00239748 -0.002575 -0.00275017 -0.002923 -0.00308279 -0.00321882 -0.00333111 -0.00341963 -0.0034844 -0.00352542 -0.00354269 -0.0035362 -0.00350899 -0.00346408 -0.00340147 -0.00332117 -0.00322317 -0.00310747 -0.00297407 -0.00282298 -0.00266888 -0.00252648 -0.00239578 -0.00227677 -0.00216946 -0.00207385 -0.00198992 -0.0019177 -0.00186202 -0.00182772 -0.00181482 -0.0018233 -0.00185317 -0.00190443 -0.00197708 -0.00207112 -0.00218177 -0.00230427 -0.00243861 -0.00258479 -0.00274281 -0.00291268 -0.00309439 -0.00328795 -0.00348815 -0.00368982 -0.00389296 -0.00409755 -0.00430361 -0.00451113 -0.00472011 -0.00493056 -0.00512898 -0.00530191 -0.00544934 -0.00557127 -0.0056677 -0.00573863 -0.00578406 -0.00580399 -0.00579862 -0.00576814 -0.00571257 -0.00563188 -0.00552609 -0.0053952 -0.00523921 -0.0050581 -0.00486365 -0.00466759 -0.00446993 -0.00427067 -0.00406981 -0.00386735 -0.00366328 -0.00345761 -0.00325065 -0.00304269 -0.00283374 -0.0026238 -0.00241286 -0.00220093 -0.00198801 -0.0017741 -0.00156593 -0.00137024 -0.00118704 -0.00101631 -0.000858068 -0.000712307 -0.000579027 -0.000458229 -0.000350832 -0.000257754 -0.000178996 -0.000114557 -6.44385e-05 -2.86393e-05 -7.15983e-06 0 0 -2.60122e-07 -1.04049e-06 -2.3411e-06 -4.16195e-06 -6.50304e-06 -9.36438e-06 -1.2746e-05 -1.66478e-05 -2.83139e-05 -5.49883e-05 -9.66711e-05 -0.000153362 -0.000225061 -0.000311769 -0.000413485 -0.00053021 -0.000663808 -0.000816147 -0.000987227 -0.00117705 -0.00138561 -0.00161291 -0.00185895 -0.00212373 -0.0023962 -0.0026653 -0.00293103 -0.00319338 -0.00345237 -0.00370799 -0.00396024 -0.00420913 -0.00443922 -0.00463511 -0.00479679 -0.00492427 -0.00501754 -0.00507661 -0.00510147 -0.00509213 -0.00505294 -0.00498827 -0.00489812 -0.00478248 -0.00464136 -0.00447475 -0.00428266 -0.00406509 -0.00384319 -0.00363814 -0.00344993 -0.00327855 -0.00312403 -0.00298634 -0.00286549 -0.00276149 -0.0026813 -0.00263192 -0.00261333 -0.00262555 -0.00266856 -0.00274238 -0.00284699 -0.00298241 -0.00314175 -0.00331814 -0.00351159 -0.00372209 -0.00394965 -0.00419426 -0.00445593 -0.00473464 -0.00502294 -0.00531335 -0.00560586 -0.00590047 -0.0061972 -0.00649603 -0.00679696 -0.0071 -0.00738574 -0.00763475 -0.00784705 -0.00802262 -0.00816148 -0.00826362 -0.00832904 -0.00835774 -0.00835001 -0.00830613 -0.00822609 -0.00810991 -0.00795758 -0.00776909 -0.00754446 -0.00728367 -0.00700365 -0.00672133 -0.00643671 -0.00614977 -0.00586053 -0.00556898 -0.00527513 -0.00497896 -0.00468093 -0.00438148 -0.00408059 -0.00377827 -0.00347452 -0.00316934 -0.00286274 -0.0025547 -0.00225494 -0.00197315 -0.00170933 -0.00146349 -0.00123562 -0.00102572 -0.000833799 -0.00065985 -0.000505198 -0.000371166 -0.000257754 -0.000164962 -9.27914e-05 -4.12406e-05 -1.03102e-05 0 0 -3.54055e-07 -1.41622e-06 -3.18649e-06 -5.66487e-06 -8.85136e-06 -1.2746e-05 -1.73487e-05 -2.26595e-05 -3.85384e-05 -7.48452e-05 -0.00013158 -0.000208743 -0.000306334 -0.000424353 -0.000562799 -0.000721674 -0.000903517 -0.00111087 -0.00134373 -0.00160209 -0.00188597 -0.00219535 -0.00253024 -0.00289063 -0.00326149 -0.00362777 -0.00398945 -0.00434655 -0.00469906 -0.00504699 -0.00539033 -0.00572909 -0.00604227 -0.0063089 -0.00652897 -0.00670248 -0.00682943 -0.00690983 -0.00694367 -0.00693096 -0.00687762 -0.00678959 -0.00666688 -0.00650949 -0.0063174 -0.00609063 -0.00582918 -0.00553304 -0.00523101 -0.00495191 -0.00469573 -0.00446248 -0.00425215 -0.00406474 -0.00390025 -0.00375869 -0.00364955 -0.00358233 -0.00355704 -0.00357366 -0.00363221 -0.00373268 -0.00387507 -0.00405939 -0.00427627 -0.00451636 -0.00477967 -0.00506618 -0.00537591 -0.00570886 -0.00606501 -0.00644438 -0.00683678 -0.00723206 -0.0076302 -0.0080312 -0.00843507 -0.00884181 -0.00925142 -0.00966389 -0.0100528 -0.0103917 -0.0106807 -0.0109197 -0.0111087 -0.0112477 -0.0113368 -0.0113758 -0.0113653 -0.0113056 -0.0111966 -0.0110385 -0.0108311 -0.0105746 -0.0102688 -0.00991388 -0.00953275 -0.00914848 -0.00876107 -0.00837052 -0.00797683 -0.00758 -0.00718003 -0.00677692 -0.00637127 -0.00596368 -0.00555413 -0.00514264 -0.00472921 -0.00431383 -0.0038965 -0.00347723 -0.00306922 -0.00268567 -0.00232659 -0.00199197 -0.00168181 -0.00139612 -0.00113489 -0.000898129 -0.00068763 -0.000505198 -0.000350832 -0.000224532 -0.000126299 -5.61331e-05 -1.40333e-05 0 0 -4.62439e-07 -1.84975e-06 -4.16195e-06 -7.39902e-06 -1.1561e-05 -1.66478e-05 -2.26595e-05 -2.95961e-05 -5.03358e-05 -9.7757e-05 -0.00017186 -0.000272644 -0.000400109 -0.000554256 -0.000735085 -0.000942595 -0.0011801 -0.00145093 -0.00175507 -0.00209253 -0.0024633 -0.00286739 -0.0033048 -0.00377552 -0.00425991 -0.00473831 -0.00521071 -0.00567713 -0.00613755 -0.00659199 -0.00704043 -0.00748289 -0.00789195 -0.00824019 -0.00852763 -0.00875426 -0.00892008 -0.00902509 -0.00906929 -0.00905268 -0.00898301 -0.00886804 -0.00870777 -0.00850219 -0.0082513 -0.00795511 -0.00761362 -0.00722682 -0.00683234 -0.0064678 -0.0061332 -0.00582854 -0.00555382 -0.00530905 -0.00509421 -0.00490931 -0.00476676 -0.00467897 -0.00464593 -0.00466764 -0.00474411 -0.00487534 -0.00506132 -0.00530206 -0.00558533 -0.00589892 -0.00624283 -0.00661706 -0.0070216 -0.00745647 -0.00792165 -0.00841715 -0.00892968 -0.00944595 -0.00996597 -0.0104897 -0.0110172 -0.0115485 -0.0120835 -0.0126222 -0.0131302 -0.0135729 -0.0139503 -0.0142624 -0.0145093 -0.0146909 -0.0148072 -0.0148582 -0.0148445 -0.0147665 -0.0146242 -0.0144176 -0.0141468 -0.0138117 -0.0134124 -0.0129487 -0.0124509 -0.011949 -0.011443 -0.0109329 -0.0104187 -0.00990041 -0.009378 -0.00885149 -0.00832166 -0.00778929 -0.00725438 -0.00671692 -0.00617693 -0.00563439 -0.00508931 -0.00454169 -0.00400878 -0.00350782 -0.00303881 -0.00260176 -0.00219665 -0.00182351 -0.00148231 -0.00117307 -0.000898129 -0.00065985 -0.000458229 -0.000293267 -0.000164962 -7.33166e-05 -1.83292e-05 0 0 -8.58041e-07 -3.43216e-06 -7.72237e-06 -1.37287e-05 -2.1451e-05 -3.08895e-05 -4.2044e-05 -5.49146e-05 -8.5304e-05 -0.000149015 -0.000246047 -0.000376401 -0.000540077 -0.000737074 -0.000967393 -0.00123103 -0.00153184 -0.00187365 -0.00225648 -0.00268031 -0.00314516 -0.00365101 -0.00419787 -0.00478575 -0.00539034 -0.00598738 -0.00657686 -0.00715878 -0.00773314 -0.00829994 -0.00885917 -0.00941085 -0.00992077 -0.0103547 -0.0107127 -0.0109947 -0.0112008 -0.0113309 -0.011385 -0.0113632 -0.0112754 -0.0111317 -0.0109319 -0.0106762 -0.0103646 -0.00999697 -0.00957338 -0.00909383 -0.00860499 -0.00815352 -0.00773942 -0.00736271 -0.00702337 -0.0067214 -0.00645682 -0.00622961 -0.0060525 -0.00593823 -0.0058868 -0.00589821 -0.00597245 -0.00610953 -0.00630945 -0.0065722 -0.00688013 -0.00721557 -0.00757853 -0.00796901 -0.008387 -0.00883251 -0.00930553 -0.00980607 -0.0103224 -0.0108428 -0.0113672 -0.0118956 -0.0124282 -0.0129647 -0.0135053 -0.01405 -0.014564 -0.0150127 -0.0153961 -0.0157142 -0.0159669 -0.0161544 -0.0162765 -0.0163333 -0.0163251 -0.0162524 -0.0161151 -0.0159132 -0.0156468 -0.0153158 -0.0149202 -0.01446 -0.0139645 -0.0134628 -0.0129549 -0.0124409 -0.0119207 -0.0113944 -0.0108618 -0.0103231 -0.00977461 -0.00921254 -0.00863696 -0.00804785 -0.00744522 -0.00682907 -0.00619939 -0.00555619 -0.00492376 -0.00432638 -0.00376405 -0.00323677 -0.00274454 -0.00228737 -0.00186525 -0.00147818 -0.00113173 -0.000831474 -0.000577413 -0.000369544 -0.000207869 -9.2386e-05 -2.30965e-05 0 0 -1.81363e-06 -7.25451e-06 -1.63227e-05 -2.90181e-05 -4.53407e-05 -6.52906e-05 -8.88678e-05 -0.000116072 -0.000165041 -0.00025391 -0.000382681 -0.000551353 -0.000759926 -0.0010084 -0.00129677 -0.00162505 -0.00199699 -0.00241637 -0.00288317 -0.0033974 -0.00395907 -0.00456817 -0.0052247 -0.00592866 -0.0066517 -0.00736546 -0.00806995 -0.00876517 -0.00945111 -0.0101278 -0.0107952 -0.0114533 -0.0120613 -0.0125782 -0.0130041 -0.0133391 -0.0135829 -0.0137358 -0.0137976 -0.0137685 -0.0136611 -0.0134885 -0.0132505 -0.0129473 -0.0125788 -0.012145 -0.0116459 -0.0110814 -0.0105067 -0.00997676 -0.00949149 -0.00905093 -0.00865509 -0.00830396 -0.00799754 -0.00773584 -0.00752634 -0.00737655 -0.00728646 -0.00725608 -0.0072854 -0.00737443 -0.00752316 -0.00773159 -0.00797185 -0.00821606 -0.00846422 -0.00871633 -0.00897239 -0.0092324 -0.00949637 -0.00976428 -0.0100357 -0.0103102 -0.0105878 -0.0108685 -0.0111523 -0.0114392 -0.0117292 -0.0120222 -0.0123004 -0.0125458 -0.0127584 -0.0129382 -0.0130851 -0.0131993 -0.0132807 -0.0133293 -0.0133448 -0.0133269 -0.0132757 -0.0131912 -0.0130733 -0.012922 -0.0127374 -0.0125195 -0.0122797 -0.0120296 -0.0117692 -0.0114984 -0.0112174 -0.010926 -0.0106244 -0.0103124 -0.00997261 -0.00958766 -0.00915752 -0.00868218 -0.00816164 -0.00759591 -0.00698498 -0.00632885 -0.00566431 -0.00502814 -0.00442035 -0.00384093 -0.00328988 -0.00276721 -0.0022729 -0.00180697 -0.00138346 -0.00101642 -0.000705849 -0.000451744 -0.000254106 -0.000112936 -2.8234e-05 0 0 -3.3292e-06 -1.33168e-05 -2.99628e-05 -5.32672e-05 -8.323e-05 -0.000119851 -0.000163131 -0.000213069 -0.000289546 -0.000412443 -0.00058176 -0.000797498 -0.00105965 -0.00136823 -0.00172323 -0.00212465 -0.00257556 -0.00307906 -0.00363514 -0.0042438 -0.00490504 -0.00561887 -0.00638527 -0.00720426 -0.00804396 -0.00887254 -0.00968999 -0.0104963 -0.0112915 -0.0120755 -0.0128484 -0.0136102 -0.0143134 -0.0149107 -0.0154019 -0.0157872 -0.0160665 -0.0162398 -0.0163071 -0.0162684 -0.0161401 -0.0159385 -0.0156636 -0.0153154 -0.0148939 -0.0143991 -0.013831 -0.0131897 -0.0125376 -0.0119375 -0.0113894 -0.0108932 -0.010449 -0.0100567 -0.00971638 -0.009428 -0.00918828 -0.00899392 -0.00884491 -0.00874126 -0.00868297 -0.00867003 -0.00870245 -0.00878023 -0.0088605 -0.00890039 -0.0088999 -0.00885903 -0.00877778 -0.00865615 -0.00849415 -0.00829176 -0.00806962 -0.00784835 -0.00762793 -0.00740839 -0.0071897 -0.00697188 -0.00675493 -0.00653883 -0.00633931 -0.00617206 -0.00603708 -0.00593438 -0.00586395 -0.00582579 -0.00581991 -0.0058463 -0.00590352 -0.00599014 -0.00610615 -0.00625156 -0.00642636 -0.00663056 -0.00686415 -0.00712713 -0.00739654 -0.0076494 -0.00788572 -0.00810549 -0.00830872 -0.0084954 -0.00866553 -0.00881913 -0.00891566 -0.00891464 -0.00881605 -0.0086199 -0.00832618 -0.0079349 -0.00744606 -0.00685966 -0.00623043 -0.00561312 -0.00500772 -0.00441424 -0.00383267 -0.00326302 -0.00270528 -0.00215946 -0.00165334 -0.0012147 -0.000843539 -0.000539865 -0.000303674 -0.000134966 -3.37415e-05 0 0 -5.40476e-06 -2.1619e-05 -4.86428e-05 -8.64762e-05 -0.000135119 -0.000194571 -0.000264833 -0.000345905 -0.00045882 -0.000624614 -0.000843286 -0.00111484 -0.00143926 -0.00181657 -0.00224676 -0.00272982 -0.00326755 -0.00386175 -0.0045124 -0.00521951 -0.00598308 -0.00680311 -0.00767959 -0.00861254 -0.00956715 -0.0105086 -0.011437 -0.0123522 -0.0132542 -0.0141432 -0.015019 -0.0158816 -0.0166773 -0.0173521 -0.0179061 -0.0183392 -0.0186514 -0.0188429 -0.0189134 -0.0188631 -0.0187124 -0.0184817 -0.0181711 -0.0177805 -0.0173099 -0.0167594 -0.0161289 -0.0154185 -0.0146976 -0.0140358 -0.0134332 -0.0128896 -0.0124051 -0.0119796 -0.0116133 -0.0113061 -0.0110383 -0.0107903 -0.0105621 -0.0103538 -0.0101652 -0.00999635 -0.00984734 -0.00971812 -0.00954607 -0.00926855 -0.00888556 -0.00839709 -0.00780316 -0.00710375 -0.00629888 -0.00538853 -0.00442413 -0.00345712 -0.00248747 -0.00151521 -0.000540316 0.000437199 0.00141734 0.0024001 0.00331922 0.00410844 0.00476774 0.00529715 0.00569665 0.00596624 0.00610592 0.0061157 0.0059987 0.00575803 0.00539369 0.00490569 0.00429403 0.0035587 0.0026997 0.00171704 0.000684982 -0.000322224 -0.00130457 -0.00226206 -0.0031947 -0.00410247 -0.00498539 -0.00584345 -0.00660378 -0.00719348 -0.00761255 -0.00786101 -0.00793885 -0.00784606 -0.00758265 -0.00714862 -0.00662212 -0.0060813 -0.00552616 -0.0049567 -0.00437291 -0.00377481 -0.00316238 -0.00253563 -0.00194134 -0.00142629 -0.000990481 -0.000633908 -0.000356573 -0.000158477 -3.96192e-05 0 0 -8.0403e-06 -3.21612e-05 -7.23627e-05 -0.000128645 -0.000201008 -0.000289451 -0.000393975 -0.000514579 -0.000672862 -0.000890421 -0.00116726 -0.00150337 -0.00189876 -0.00235342 -0.00286736 -0.00344058 -0.00407296 -0.00476442 -0.00551493 -0.00632452 -0.00719317 -0.00812088 -0.00910766 -0.0101535 -0.0112212 -0.0122737 -0.0133109 -0.0143328 -0.0153394 -0.0163307 -0.0173068 -0.0182675 -0.0191528 -0.0199025 -0.0205166 -0.020995 -0.0213378 -0.021545 -0.0216166 -0.0215525 -0.021378 -0.0211181 -0.020773 -0.0203426 -0.0198269 -0.0192259 -0.0185395 -0.0177679 -0.0169867 -0.0162717 -0.0156228 -0.01504 -0.0145233 -0.0140728 -0.0136884 -0.0133701 -0.0130765 -0.0127658 -0.0124382 -0.0120935 -0.0117319 -0.0113534 -0.0109578 -0.0105453 -0.0100286 -0.00932055 -0.00842121 -0.00733053 -0.00604853 -0.00457521 -0.00291055 -0.00105457 0.000900757 0.00286346 0.00483355 0.00681101 0.00879584 0.0107881 0.0127876 0.0147946 0.0166752 0.0182957 0.0196561 0.0207564 0.0215966 0.0221768 0.0224968 0.0225567 0.0223619 0.0219176 0.0212238 0.0202806 0.0190879 0.0176457 0.0159541 0.014013 0.0119649 0.00995193 0.00797426 0.00603184 0.00412467 0.00225275 0.000416079 -0.00138534 -0.00303694 -0.00442418 -0.00554704 -0.00640552 -0.00699964 -0.00732938 -0.00739475 -0.00719574 -0.00683939 -0.00643269 -0.00597566 -0.0054683 -0.0049106 -0.00430257 -0.0036442 -0.00293549 -0.00224749 -0.00165121 -0.00114668 -0.000733873 -0.000412803 -0.000183468 -4.5867e-05 0 0 -1.12358e-05 -4.49433e-05 -0.000101122 -0.000179773 -0.000280896 -0.00040449 -0.000550556 -0.000719093 -0.000931673 -0.00120987 -0.00155367 -0.00196309 -0.00243813 -0.00297877 -0.00358503 -0.00425691 -0.00499179 -0.00578707 -0.00664275 -0.00755883 -0.00853532 -0.0095722 -0.0106695 -0.0118272 -0.0130063 -0.0141678 -0.0153117 -0.0164381 -0.0175469 -0.0186382 -0.0197118 -0.0207679 -0.02174 -0.0225619 -0.0232334 -0.0237547 -0.0241256 -0.0243462 -0.0244166 -0.0243366 -0.0241368 -0.0238478 -0.0234694 -0.0230017 -0.0224447 -0.0217984 -0.0210629 -0.020238 -0.019405 -0.018645 -0.0179582 -0.0173444 -0.0168037 -0.0163361 -0.0159416 -0.0156201 -0.0153027 -0.0149203 -0.014473 -0.0139607 -0.0133834 -0.0127411 -0.0120339 -0.0112617 -0.010308 -0.0090564 -0.00750685 -0.00565935 -0.0035139 -0.00107052 0.00167082 0.0047101 0.00790505 0.0111134 0.0143351 0.0175703 0.0208188 0.0240807 0.027356 0.0306447 0.0337286 0.0363898 0.038628 0.0404435 0.0418361 0.0428058 0.0433527 0.0434768 0.043186 0.0424885 0.0413841 0.039873 0.0379552 0.0356305 0.0328991 0.0297608 0.0264431 0.0231731 0.0199508 0.0167762 0.0136494 0.0105703 0.00753887 0.00455522 0.00178483 -0.00060674 -0.00261949 -0.00425343 -0.00550855 -0.00638486 -0.00688235 -0.00700102 -0.00688222 -0.00666729 -0.00635624 -0.00594905 -0.00544574 -0.0048463 -0.00415073 -0.00335904 -0.00257176 -0.00188946 -0.00131212 -0.000839759 -0.000472365 -0.00020994 -5.2485e-05 0 0 -1.49913e-05 -5.99654e-05 -0.000134922 -0.000239862 -0.000374784 -0.000539688 -0.000734576 -0.000959446 -0.00123525 -0.00158295 -0.00200254 -0.00249401 -0.00305738 -0.00369264 -0.00439978 -0.00517882 -0.00602404 -0.00692971 -0.00789585 -0.00892246 -0.0100095 -0.0111571 -0.0123651 -0.0136335 -0.0149222 -0.0161909 -0.0174395 -0.0186682 -0.0198769 -0.0210655 -0.0222341 -0.0233828 -0.0244389 -0.0253302 -0.0260566 -0.0266182 -0.0270148 -0.0272466 -0.0273134 -0.0272154 -0.026989 -0.0266706 -0.0262602 -0.0257578 -0.0251635 -0.0244772 -0.0236989 -0.0228286 -0.0219523 -0.0211559 -0.0204395 -0.019803 -0.0192463 -0.0187696 -0.0183729 -0.018056 -0.017717 -0.0172539 -0.0166666 -0.0159551 -0.0151194 -0.0141595 -0.0130755 -0.0118673 -0.0103844 -0.00847608 -0.00614247 -0.00338353 -0.000199269 0.00341032 0.00744525 0.0119055 0.0165887 0.0212927 0.0260173 0.0307625 0.0355285 0.0403151 0.0451224 0.0499503 0.0544795 0.0583906 0.0616835 0.0643583 0.0664149 0.0678533 0.0686736 0.0688758 0.0684711 0.0674707 0.0658747 0.0636831 0.0608959 0.0575131 0.0535346 0.0489605 0.0441197 0.0393412 0.034625 0.0299711 0.0253794 0.0208501 0.016383 0.0119782 0.00786155 0.00425884 0.00117007 -0.00140473 -0.00346559 -0.0050125 -0.00604545 -0.00656445 -0.00675062 -0.0067851 -0.00666787 -0.00639895 -0.00597833 -0.00540601 -0.00468199 -0.00380627 -0.00291418 -0.00214103 -0.00148683 -0.000951568 -0.000535257 -0.000237892 -5.9473e-05 0 0 -1.93068e-05 -7.72274e-05 -0.000173762 -0.00030891 -0.000482671 -0.000695046 -0.000946035 -0.00123564 -0.0015836 -0.00200967 -0.00251384 -0.00309613 -0.00375651 -0.00449501 -0.00531161 -0.00620631 -0.0071697 -0.00819234 -0.00927424 -0.0104154 -0.0116158 -0.0128755 -0.0141944 -0.0155725 -0.016969 -0.018343 -0.0196943 -0.021023 -0.0223292 -0.0236127 -0.0248737 -0.0261121 -0.0272495 -0.0282075 -0.0289862 -0.0295855 -0.0300054 -0.030246 -0.0303072 -0.030189 -0.0299345 -0.0295866 -0.0291455 -0.028611 -0.0279832 -0.0272621 -0.0264476 -0.0255399 -0.0246288 -0.0238044 -0.0230666 -0.0224155 -0.0218511 -0.0213734 -0.0209823 -0.0206779 -0.0203195 -0.0197665 -0.0190189 -0.0180768 -0.01694 -0.0156087 -0.0140827 -0.0123622 -0.0102576 -0.0075796 -0.00432808 -0.000503091 0.00389537 0.00886731 0.0144127 0.0205316 0.0269518 0.0334013 0.03988 0.0463878 0.0529249 0.0594912 0.0660868 0.0727115 0.0789279 0.0842982 0.0888225 0.0925008 0.0953331 0.0973194 0.0984596 0.0987539 0.0982171 0.0968644 0.0946956 0.0917109 0.0879101 0.0832934 0.0778606 0.0716119 0.0649946 0.0584563 0.0519969 0.0456164 0.0393148 0.0330922 0.0269484 0.0208837 0.0151932 0.0101725 0.00582167 0.00214057 -0.000870754 -0.00321229 -0.00488405 -0.00588603 -0.0064446 -0.00678611 -0.00691058 -0.006818 -0.00650837 -0.00598169 -0.00523797 -0.00427719 -0.00327473 -0.00240592 -0.00167078 -0.0010693 -0.00060148 -0.000267325 -6.68312e-05 0 0 -2.40529e-05 -9.62117e-05 -0.000216476 -0.000384847 -0.000601323 -0.000865906 -0.00117859 -0.00153939 -0.00196384 -0.00246748 -0.00305033 -0.00371239 -0.00445364 -0.00527409 -0.00617375 -0.0071526 -0.00819446 -0.00928311 -0.0104185 -0.0116008 -0.0128298 -0.0141056 -0.0154283 -0.0167977 -0.0181772 -0.0195303 -0.0208568 -0.0221568 -0.0234303 -0.0246773 -0.0258978 -0.0270918 -0.0281839 -0.029099 -0.029837 -0.0303979 -0.0307816 -0.0309883 -0.0310179 -0.0308704 -0.0305963 -0.0302459 -0.0298192 -0.0293164 -0.0287373 -0.0280819 -0.0273504 -0.0265426 -0.0257419 -0.0250317 -0.024412 -0.0238828 -0.0234441 -0.0230959 -0.0228382 -0.0226709 -0.0224036 -0.0218456 -0.0209969 -0.0198576 -0.0184277 -0.016707 -0.0146958 -0.0123938 -0.00957031 -0.00599427 -0.00166572 0.00341535 0.00924894 0.015835 0.0231737 0.0312648 0.0397443 0.0482481 0.0567762 0.0653285 0.073905 0.0825059 0.091131 0.0997803 0.107891 0.1149 0.120808 0.125614 0.129318 0.131921 0.133422 0.133822 0.133139 0.131394 0.128587 0.124716 0.119783 0.113788 0.10673 0.0986088 0.0899974 0.0814676 0.0730193 0.0646526 0.0563674 0.0481637 0.0400416 0.032001 0.0244269 0.0177041 0.0118327 0.00681256 0.00264378 -0.000673654 -0.00313976 -0.00475452 -0.00579499 -0.00653822 -0.00698421 -0.00713295 -0.00698444 -0.00653869 -0.00579569 -0.00475545 -0.00364089 -0.00267494 -0.0018576 -0.00118886 -0.000668736 -0.000297216 -7.4304e-05 0 0 -2.91002e-05 -0.000116401 -0.000261902 -0.000465604 -0.000727506 -0.00104761 -0.00142591 -0.00186241 -0.00236308 -0.00293385 -0.00357474 -0.00428575 -0.00506687 -0.0059181 -0.00683945 -0.00783091 -0.00886399 -0.00991016 -0.0109694 -0.0120418 -0.0131273 -0.0142259 -0.0153376 -0.0164624 -0.0175772 -0.0186591 -0.019708 -0.0207239 -0.0217068 -0.0226567 -0.0235737 -0.0244577 -0.0252545 -0.0259099 -0.0264239 -0.0267965 -0.0270277 -0.0271175 -0.0270659 -0.0268729 -0.0265974 -0.0262983 -0.0259755 -0.0256292 -0.0252592 -0.0248656 -0.0244484 -0.0240076 -0.0235992 -0.0232794 -0.0230482 -0.0229055 -0.0228514 -0.0228858 -0.0230088 -0.0232204 -0.0232628 -0.0228785 -0.0220673 -0.0208294 -0.0191646 -0.0170731 -0.0145548 -0.0116096 -0.00796482 -0.00334741 0.00224259 0.00880517 0.0163403 0.0248481 0.0343285 0.0447814 0.0557161 0.0666419 0.0775588 0.0884667 0.0993656 0.110256 0.121137 0.132009 0.142186 0.150984 0.158402 0.164439 0.169097 0.172375 0.174273 0.174791 0.173953 0.171786 0.168288 0.16346 0.157302 0.149813 0.140994 0.130845 0.120058 0.109324 0.0986452 0.08802 0.0774489 0.0669318 0.0564688 0.0460598 0.0362097 0.0274233 0.0197005 0.0130413 0.00744585 0.00291402 -0.000554149 -0.00295866 -0.00463267 -0.00590932 -0.00678861 -0.00727054 -0.00735512 -0.00704234 -0.0063322 -0.0052247 -0.00400016 -0.00293889 -0.0020409 -0.00130618 -0.000734724 -0.000326544 -8.1636e-05 0 0 -3.44487e-05 -0.000137795 -0.000310038 -0.000551179 -0.000861218 -0.00124015 -0.00168799 -0.00220472 -0.00278132 -0.00340877 -0.00408707 -0.00481621 -0.0055962 -0.00642703 -0.00730872 -0.00824125 -0.00917829 -0.0100735 -0.0109269 -0.0117385 -0.0125082 -0.0132362 -0.0139223 -0.0145666 -0.015169 -0.0157294 -0.0162478 -0.0167242 -0.0171586 -0.017551 -0.0179014 -0.0182098 -0.0184611 -0.0186401 -0.0187468 -0.0187813 -0.0187435 -0.0186334 -0.018451 -0.0181964 -0.0179379 -0.0177439 -0.0176144 -0.0175495 -0.017549 -0.0176131 -0.0177417 -0.0179349 -0.0182007 -0.0185474 -0.018975 -0.0194835 -0.0200729 -0.0207431 -0.0214943 -0.0223263 -0.0228973 -0.0228652 -0.0222302 -0.0209921 -0.019151 -0.0167069 -0.0136598 -0.0100097 -0.00544118 0.000360978 0.00739683 0.0156664 0.0251696 0.0359065 0.0478771 0.0610814 0.0748673 0.0885828 0.102228 0.115802 0.129307 0.14274 0.156104 0.169397 0.181814 0.19255 0.201604 0.208978 0.21467 0.218681 0.221011 0.22166 0.220659 0.218039 0.2138 0.207942 0.200465 0.191369 0.180654 0.16832 0.155175 0.142027 0.128874 0.115719 0.102559 0.0893965 0.0762301 0.0630601 0.0505417 0.03933 0.0294251 0.0208269 0.0135354 0.00755073 0.00287277 -0.000498457 -0.00295762 -0.00489939 -0.00632378 -0.00723078 -0.0076204 -0.00749263 -0.00684748 -0.00568494 -0.00435253 -0.00319778 -0.00222068 -0.00142123 -0.000799444 -0.000355309 -8.88271e-05 0 0 -4.00984e-05 -0.000160394 -0.000360885 -0.000641574 -0.00100246 -0.00144354 -0.00196482 -0.0025663 -0.00321857 -0.00389224 -0.00458731 -0.00530377 -0.00604163 -0.00680089 -0.00758155 -0.0083836 -0.00913736 -0.00977315 -0.010291 -0.0106908 -0.0109726 -0.0111365 -0.0111824 -0.0111104 -0.0109525 -0.0107411 -0.0104762 -0.0101577 -0.00978563 -0.00936003 -0.00888088 -0.00834817 -0.00780382 -0.00728974 -0.00680593 -0.00635239 -0.00592913 -0.00553613 -0.0051734 -0.00484094 -0.00461771 -0.00458267 -0.00473582 -0.00507716 -0.00560669 -0.00632441 -0.00723032 -0.00832442 -0.00954634 -0.0108357 -0.0121926 -0.0136169 -0.0151086 -0.0166678 -0.0182945 -0.0199887 -0.0213069 -0.0218058 -0.0214854 -0.0203457 -0.0183867 -0.0156084 -0.0120108 -0.00759387 -0.00199939 0.0051309 0.013797 0.0239989 0.0357367 0.0490102 0.0638196 0.0801648 0.0971979 0.114071 0.130783 0.147336 0.163728 0.17996 0.196032 0.211944 0.226773 0.239597 0.250416 0.259229 0.266038 0.27084 0.273638 0.274431 0.273256 0.270153 0.265122 0.258161 0.249272 0.238455 0.225709 0.211035 0.19535 0.179574 0.163707 0.147749 0.131699 0.115558 0.0993255 0.0830018 0.0674228 0.0534243 0.0410065 0.0301692 0.0209126 0.0132365 0.00714099 0.0026261 -0.000769844 -0.00350845 -0.00