<?xml version="1.0"?> 
<VTKFile type="StructuredGrid" version="0.1"> 
<StructuredGrid WholeExtent="0 128 0 128 0 0"> 
<Piece Extent="0 128 0 128 0 0"> 
<PointData>
<DataArray type="Float32" Name="u" format="ascii" NumberOfComponents="1"> 
0 0 0 0 0 0 0 0 0 0 0 0 0 0 0 0 0 0 0 0 0 0 0 0 0 0 0 0 0 0 0 0 0 0 0 0 0 0 0 0 0 0 0 0 0 0 0 0 0 0 0 0 0 0 0 0 0 0 0 0 0 0 0 0 0 0 0 0 0 0 0 0 0 0 0 0 0 0 0 0 0 0 0 0 0 0 0 0 0 0 0 0 0 0 0 0 0 0 0 0 0 0 0 0 0 0 0 0 0 0 0 0 0 0 0 0 0 0 0 0 0 0 0 0 0 0 0 0 0 0 2.25285e-08 9.01141e-08 2.02757e-07 3.60456e-07 5.63213e-07 8.11027e-07 1.1039e-06 1.44183e-06 1.58731e-06 1.30285e-06 5.88455e-07 -5.55887e-07 -2.13017e-06 -4.1344e-06 -6.56857e-06 -9.43268e-06 -1.2766e-05 -1.6608e-05 -2.09585e-05 -2.58176e-05 -3.11852e-05 -3.70614e-05 -4.34462e-05 -5.03395e-05 -5.74353e-05 -6.44273e-05 -7.13154e-05 -7.80999e-05 -8.47805e-05 -9.13574e-05 -9.78304e-05 -0.0001042 -0.000110075 -0.000115066 -0.000119172 -0.000122393 -0.00012473 -0.000126183 -0.000126751 -0.000126435 -0.000125338 -0.000123564 -0.000121115 -0.000117989 -0.000114186 -0.000109708 -0.000104553 -9.87213e-05 -9.28195e-05 -8.74531e-05 -8.26224e-05 -7.83271e-05 -7.45673e-05 -7.13431e-05 -6.86544e-05 -6.65012e-05 -6.50972e-05 -6.4656e-05 -6.51777e-05 -6.66622e-05 -6.91095e-05 -7.25197e-05 -7.68927e-05 -8.22285e-05 -8.84128e-05 -9.53312e-05 -0.000102984 -0.00011137 -0.000120491 -0.000130346 -0.000140935 -0.000152258 -0.000164049 -0.000176041 -0.000188235 -0.000200631 -0.000213228 -0.000226026 -0.000239026 -0.000252227 -0.000264702 -0.00027552 -0.000284684 -0.000292191 -0.000298043 -0.000302239 -0.000304779 -0.000305664 -0.000304933 -0.000302626 -0.000298743 -0.000293285 -0.00028625 -0.00027764 -0.000267454 -0.000255692 -0.000243214 -0.000230881 -0.000218692 -0.000206649 -0.000194749 -0.000182995 -0.000171385 -0.00015992 -0.000148642 -0.000137594 -0.000126776 -0.000116188 -0.00010583 -9.57013e-05 -8.58028e-05 -7.61342e-05 -6.68814e-05 -5.82303e-05 -5.01809e-05 -4.27333e-05 -3.58873e-05 -2.96431e-05 -2.40006e-05 -1.89598e-05 -1.45161e-05 -1.06649e-05 -7.40617e-06 -4.73995e-06 -2.66622e-06 -1.18499e-06 -2.96247e-07 0 0 9.01141e-08 3.60456e-07 8.11027e-07 1.44183e-06 2.25285e-06 3.24411e-06 4.41559e-06 5.7673e-06 6.34924e-06 5.21142e-06 2.35382e-06 -2.22355e-06 -8.52068e-06 -1.65376e-05 -2.62743e-05 -3.77307e-05 -5.10642e-05 -6.64319e-05 -8.38339e-05 -0.00010327 -0.000124741 -0.000148246 -0.000173785 -0.000201358 -0.000229741 -0.000257709 -0.000285262 -0.000312399 -0.000339122 -0.000365429 -0.000391322 -0.000416799 -0.0004403 -0.000460262 -0.000476687 -0.000489573 -0.000498921 -0.000504732 -0.000507004 -0.000505738 -0.000501351 -0.000494257 -0.000484459 -0.000471955 -0.000456746 -0.000438831 -0.000418211 -0.000394885 -0.000371278 -0.000349813 -0.000330489 -0.000313308 -0.000298269 -0.000285372 -0.000274618 -0.000266005 -0.000260389 -0.000258624 -0.000260711 -0.000266649 -0.000276438 -0.000290079 -0.000307571 -0.000328914 -0.000353651 -0.000381325 -0.000411935 -0.000445481 -0.000481964 -0.000521384 -0.00056374 -0.000609032 -0.000656195 -0.000704165 -0.000752941 -0.000802522 -0.00085291 -0.000904104 -0.000956104 -0.00100891 -0.00105881 -0.00110208 -0.00113873 -0.00116876 -0.00119217 -0.00120896 -0.00121912 -0.00122266 -0.00121973 -0.0012105 -0.00119497 -0.00117314 -0.001145 -0.00111056 -0.00106981 -0.00102277 -0.000972855 -0.000923523 -0.000874769 -0.000826594 -0.000778998 -0.00073198 -0.000685541 -0.00063968 -0.000594569 -0.000550377 -0.000507104 -0.000464752 -0.000423319 -0.000382805 -0.000343211 -0.000304537 -0.000267526 -0.000232921 -0.000200724 -0.000170933 -0.000143549 -0.000118572 -9.60023e-05 -7.58391e-05 -5.80643e-05 -4.26595e-05 -2.96247e-05 -1.89598e-05 -1.06649e-05 -4.73995e-06 -1.18499e-06 0 0 2.02757e-07 8.11027e-07 1.82481e-06 3.24411e-06 5.06892e-06 7.29924e-06 9.93508e-06 1.29764e-05 1.42858e-05 1.17257e-05 5.29609e-06 -5.00298e-06 -1.91715e-05 -3.72096e-05 -5.91171e-05 -8.48941e-05 -0.000114894 -0.000149472 -0.000188626 -0.000232358 -0.000280667 -0.000333553 -0.000391016 -0.000453056 -0.000516918 -0.000579845 -0.000641839 -0.000702899 -0.000763024 -0.000822216 -0.000880474 -0.000937798 -0.000990674 -0.00103559 -0.00107254 -0.00110154 -0.00112257 -0.00113565 -0.00114076 -0.00113791 -0.00112804 -0.00111208 -0.00109003 -0.0010619 -0.00102768 -0.00098737 -0.000940974 -0.000888492 -0.000835375 -0.000787078 -0.000743601 -0.000704944 -0.000671106 -0.000642088 -0.00061789 -0.000598511 -0.000585875 -0.000581904 -0.000586599 -0.00059996 -0.000621986 -0.000652677 -0.000692034 -0.000740056 -0.000795715 -0.000857981 -0.000926853 -0.00100233 -0.00108442 -0.00117311 -0.00126841 -0.00137032 -0.00147644 -0.00158437 -0.00169412 -0.00180568 -0.00191905 -0.00203423 -0.00215123 -0.00227005 -0.00238232 -0.00247968 -0.00256215 -0.00262972 -0.00268238 -0.00272015 -0.00274301 -0.00275098 -0.0027444 -0.00272364 -0.00268869 -0.00263956 -0.00257625 -0.00249876 -0.00240708 -0.00230122 -0.00218892 -0.00207793 -0.00196823 -0.00185984 -0.00175274 -0.00164695 -0.00154247 -0.00143928 -0.00133778 -0.00123835 -0.00114099 -0.00104569 -0.000952467 -0.000861311 -0.000772225 -0.000685208 -0.000601932 -0.000524073 -0.000451628 -0.000384599 -0.000322986 -0.000266788 -0.000216005 -0.000170638 -0.000130645 -9.59839e-05 -6.66555e-05 -4.26595e-05 -2.3996e-05 -1.06649e-05 -2.66622e-06 0 0 3.60456e-07 1.44183e-06 3.24411e-06 5.7673e-06 9.01141e-06 1.29764e-05 1.76624e-05 2.30692e-05 2.5397e-05 2.08457e-05 9.41528e-06 -8.89419e-06 -3.40827e-05 -6.61504e-05 -0.000105097 -0.000150923 -0.000204257 -0.000265728 -0.000335336 -0.000413081 -0.000498963 -0.000592983 -0.000695139 -0.000805433 -0.000918965 -0.00103084 -0.00114105 -0.0012496 -0.00135649 -0.00146172 -0.00156529 -0.0016672 -0.0017612 -0.00184105 -0.00190675 -0.00195829 -0.00199569 -0.00201893 -0.00202802 -0.00202295 -0.0020054 -0.00197703 -0.00193784 -0.00188782 -0.00182698 -0.00175532 -0.00167284 -0.00157954 -0.00148511 -0.00139925 -0.00132196 -0.00125323 -0.00119308 -0.00114149 -0.00109847 -0.00106402 -0.00104156 -0.0010345 -0.00104284 -0.00106659 -0.00110575 -0.00116031 -0.00123028 -0.00131566 -0.0014146 -0.0015253 -0.00164774 -0.00178193 -0.00192786 -0.00208553 -0.00225496 -0.00243613 -0.00262478 -0.00281666 -0.00301176 -0.00321009 -0.00341164 -0.00361642 -0.00382441 -0.00403564 -0.00423523 -0.00440833 -0.00455494 -0.00467506 -0.00476868 -0.00483582 -0.00487647 -0.00489063 -0.00487893 -0.00484202 -0.0047799 -0.00469256 -0.00458001 -0.00444224 -0.00427926 -0.00409107 -0.00389142 -0.00369409 -0.00349908 -0.00330638 -0.00311599 -0.00292792 -0.00274216 -0.00255872 -0.00237827 -0.00220151 -0.00202842 -0.00185901 -0.00169327 -0.00153122 -0.00137284 -0.00121815 -0.0010701 -0.000931685 -0.000802895 -0.000683732 -0.000574197 -0.00047429 -0.000384009 -0.000303357 -0.000232257 -0.000170638 -0.000118499 -7.58391e-05 -4.26595e-05 -1.89598e-05 -4.73995e-06 0 0 5.63213e-07 2.25285e-06 5.06892e-06 9.01141e-06 1.40803e-05 2.02757e-05 2.75974e-05 3.60456e-05 3.96828e-05 3.25714e-05 1.47114e-05 -1.38972e-05 -5.32543e-05 -0.00010336 -0.000164214 -0.000235817 -0.000319151 -0.000415199 -0.000523962 -0.000645439 -0.00077963 -0.000926535 -0.00108615 -0.00125849 -0.00143588 -0.00161068 -0.00178289 -0.0019525 -0.00211951 -0.00228393 -0.00244576 -0.00260499 -0.00275187 -0.00287664 -0.00297929 -0.00305983 -0.00311826 -0.00315457 -0.00316877 -0.00316086 -0.00313344 -0.00308911 -0.00302787 -0.00294972 -0.00285466 -0.00274269 -0.00261382 -0.00246803 -0.00232049 -0.00218633 -0.00206556 -0.00195818 -0.00186418 -0.00178358 -0.00171636 -0.00166253 -0.00162743 -0.0016164 -0.00162944 -0.00166655 -0.00172774 -0.00181299 -0.00192232 -0.00205571 -0.00221032 -0.00238328 -0.00257459 -0.00278426 -0.00301228 -0.00325865 -0.00352337 -0.00380645 -0.00410122 -0.00440103 -0.00470588 -0.00501576 -0.00533069 -0.00565065 -0.00597565 -0.00630568 -0.00661754 -0.00688801 -0.00711709 -0.00730477 -0.00745107 -0.00755597 -0.00761948 -0.0076416 -0.00762333 -0.00756566 -0.00746859 -0.00733212 -0.00715626 -0.006941 -0.00668634 -0.00639229 -0.00608035 -0.00577202 -0.00546731 -0.00516621 -0.00486874 -0.00457487 -0.00428463 -0.003998 -0.00371605 -0.00343986 -0.0031694 -0.0029047 -0.00264574 -0.00239253 -0.00214507 -0.00190335 -0.00167203 -0.00145576 -0.00125452 -0.00106833 -0.000897183 -0.000741078 -0.000600015 -0.000473995 -0.000362902 -0.000266622 -0.000185154 -0.000118499 -6.66555e-05 -2.96247e-05 -7.40617e-06 0 0 8.11027e-07 3.24411e-06 7.29924e-06 1.29764e-05 2.02757e-05 2.9197e-05 3.97403e-05 5.19057e-05 5.71432e-05 4.69027e-05 2.11844e-05 -2.00119e-05 -7.66862e-05 -0.000148838 -0.000236468 -0.000339576 -0.000459578 -0.000597887 -0.000754505 -0.000929432 -0.00112267 -0.00133421 -0.00156406 -0.00181222 -0.00206767 -0.00231938 -0.00256736 -0.00281159 -0.0030521 -0.00328886 -0.0035219 -0.00375119 -0.0039627 -0.00414236 -0.00429018 -0.00440616 -0.00449029 -0.00454259 -0.00456304 -0.00455164 -0.00451215 -0.00444832 -0.00436013 -0.0042476 -0.00411071 -0.00394948 -0.0037639 -0.00355397 -0.0033415 -0.00314831 -0.0029744 -0.00281978 -0.00268442 -0.00256835 -0.00247156 -0.00239404 -0.0023435 -0.00232762 -0.0023464 -0.00239984 -0.00248794 -0.00261071 -0.00276814 -0.00296023 -0.00318286 -0.00343192 -0.00370741 -0.00400933 -0.00433768 -0.00469245 -0.00507366 -0.00548129 -0.00590576 -0.00633748 -0.00677647 -0.0072227 -0.00767619 -0.00813693 -0.00860493 -0.00908019 -0.00952926 -0.00991874 -0.0102486 -0.0105189 -0.0107295 -0.0108806 -0.0109721 -0.0110039 -0.0109776 -0.0108945 -0.0107548 -0.0105583 -0.010305 -0.00999504 -0.00962833 -0.0092049 -0.0087557 -0.00831171 -0.00787292 -0.00743935 -0.00701098 -0.00658782 -0.00616987 -0.00575712 -0.00535112 -0.00495339 -0.00456394 -0.00418277 -0.00380987 -0.00344525 -0.0030889 -0.00274083 -0.00240773 -0.00209629 -0.00180651 -0.0015384 -0.00129194 -0.00106715 -0.000864021 -0.000682552 -0.000522579 -0.000383936 -0.000266622 -0.000170638 -9.59839e-05 -4.26595e-05 -1.06649e-05 0 0 1.1039e-06 4.41559e-06 9.93508e-06 1.76624e-05 2.75974e-05 3.97403e-05 5.4091e-05 7.06495e-05 7.77782e-05 6.38399e-05 2.88343e-05 -2.72385e-05 -0.000104378 -0.000202585 -0.00032186 -0.000462201 -0.000625536 -0.000813791 -0.00102697 -0.00126506 -0.00152807 -0.00181601 -0.00212886 -0.00246664 -0.00281433 -0.00315694 -0.00349446 -0.00382689 -0.00415424 -0.00447651 -0.00479369 -0.00510579 -0.00539367 -0.00563821 -0.00583941 -0.00599727 -0.00611179 -0.00618296 -0.0062108 -0.00619529 -0.00614154 -0.00605465 -0.00593462 -0.00578145 -0.00559514 -0.00537568 -0.00512308 -0.00483734 -0.00454815 -0.0042852 -0.0040485 -0.00383803 -0.0036538 -0.00349581 -0.00336407 -0.00325856 -0.00318976 -0.00316815 -0.00319371 -0.00326645 -0.00338637 -0.00355346 -0.00376774 -0.0040292 -0.00433223 -0.00467123 -0.0050462 -0.00545715 -0.00590406 -0.00638695 -0.00690581 -0.00746064 -0.00803839 -0.00862602 -0.00922352 -0.0098309 -0.0104481 -0.0110753 -0.0117123 -0.0123591 -0.0129704 -0.0135005 -0.0139495 -0.0143174 -0.0146041 -0.0148097 -0.0149342 -0.0149775 -0.0149417 -0.0148287 -0.0146384 -0.014371 -0.0140263 -0.0136044 -0.0131052 -0.0125289 -0.0119175 -0.0113132 -0.0107159 -0.0101258 -0.00954272 -0.00896675 -0.00839787 -0.00783608 -0.00728347 -0.00674212 -0.00621203 -0.00569321 -0.00518565 -0.00468936 -0.00420434 -0.00373057 -0.00327719 -0.00285328 -0.00245887 -0.00209393 -0.00175848 -0.00145251 -0.00117603 -0.000929029 -0.000711288 -0.000522579 -0.000362902 -0.000232257 -0.000130645 -5.80643e-05 -1.45161e-05 0 0 1.44183e-06 5.7673e-06 1.29764e-05 2.30692e-05 3.60456e-05 5.19057e-05 7.06495e-05 9.22769e-05 0.000101588 8.33827e-05 3.76611e-05 -3.55768e-05 -0.000136331 -0.000264601 -0.000420388 -0.000603691 -0.000817027 -0.00106291 -0.00134134 -0.00165232 -0.00199585 -0.00237193 -0.00278056 -0.00322173 -0.00367586 -0.00412334 -0.00456419 -0.00499839 -0.00542595 -0.00584687 -0.00626115 -0.00666878 -0.00704479 -0.00736419 -0.00762699 -0.00783317 -0.00798274 -0.00807571 -0.00811206 -0.00809181 -0.00802161 -0.00790812 -0.00775134 -0.00755128 -0.00730793 -0.0070213 -0.00669137 -0.00631816 -0.00594044 -0.005597 -0.00528783 -0.00501293 -0.00477231 -0.00456596 -0.00439388 -0.00425608 -0.00416622 -0.00413799 -0.00417137 -0.00426638 -0.00442301 -0.00464126 -0.00492113 -0.00526262 -0.00565842 -0.0061012 -0.00659096 -0.0071277 -0.00771143 -0.00834214 -0.00901983 -0.00974451 -0.0104991 -0.0112666 -0.012047 -0.0128404 -0.0136466 -0.0144657 -0.0152977 -0.0161426 -0.0169409 -0.0176333 -0.0182197 -0.0187002 -0.0190747 -0.0193433 -0.0195059 -0.0195625 -0.0195157 -0.0193681 -0.0191196 -0.0187702 -0.01832 -0.017769 -0.017117 -0.0163643 -0.0155657 -0.0147764 -0.0139963 -0.0132255 -0.012464 -0.0117117 -0.0109687 -0.0102349 -0.0095131 -0.00880603 -0.00811367 -0.00743603 -0.0067731 -0.00612488 -0.00549138 -0.00487259 -0.00428041 -0.00372674 -0.00321158 -0.00273493 -0.00229679 -0.00189716 -0.00153604 -0.00121343 -0.000929029 -0.000682552 -0.000473995 -0.000303357 -0.000170638 -7.58391e-05 -1.89598e-05 0 0 1.46817e-06 5.8727e-06 1.32136e-05 2.34908e-05 3.67044e-05 5.28543e-05 7.19406e-05 9.39632e-05 0.000100251 7.21311e-05 9.60489e-06 -8.73282e-05 -0.000218668 -0.000384415 -0.000584568 -0.000819129 -0.00109104 -0.00140326 -0.00175578 -0.0021486 -0.00258173 -0.00305516 -0.00356889 -0.00412292 -0.00469305 -0.00525507 -0.00580899 -0.0063548 -0.00689251 -0.0074221 -0.0079436 -0.00845698 -0.00893061 -0.00933282 -0.00966362 -0.009923 -0.010111 -0.0102275 -0.0102727 -0.0102464 -0.0101574 -0.0100144 -0.00981744 -0.00956642 -0.00926139 -0.00890234 -0.00848928 -0.0080222 -0.00754967 -0.00712025 -0.00673394 -0.00639074 -0.00609064 -0.00583366 -0.00561978 -0.00544901 -0.00533522 -0.00529229 -0.00532022 -0.005419 -0.00558864 -0.00582913 -0.00614048 -0.00652269 -0.00696432 -0.00745394 -0.00799155 -0.00857715 -0.00921074 -0.00989231 -0.0106219 -0.0113994 -0.0122096 -0.0130369 -0.0138814 -0.0147431 -0.015622 -0.0165181 -0.0174313 -0.0183617 -0.0192425 -0.0200066 -0.020654 -0.0211849 -0.0215991 -0.0218967 -0.0220777 -0.022142 -0.0220927 -0.0219325 -0.0216615 -0.0212797 -0.0207871 -0.0201836 -0.0194694 -0.0186443 -0.0177699 -0.0169076 -0.0160573 -0.0152192 -0.0143931 -0.0135791 -0.0127772 -0.0119874 -0.0112074 -0.010435 -0.00967014 -0.00891289 -0.00816322 -0.00742112 -0.0066866 -0.00595967 -0.00525775 -0.00459831 -0.00398134 -0.00340684 -0.00287481 -0.00238525 -0.00193816 -0.00153354 -0.00117411 -0.000862615 -0.000599038 -0.000383384 -0.000215654 -9.58461e-05 -2.39615e-05 0 0 8.26308e-07 3.30523e-06 7.43678e-06 1.32209e-05 2.06577e-05 2.97471e-05 4.04891e-05 5.28837e-05 4.54446e-05 -3.31477e-06 -9.33943e-05 -0.000224794 -0.000397514 -0.000611554 -0.000866914 -0.00116359 -0.00150458 -0.00189286 -0.00232842 -0.00281128 -0.00334143 -0.00391887 -0.0045436 -0.00521562 -0.00590669 -0.00658859 -0.0072613 -0.00792484 -0.00857919 -0.00922437 -0.00986036 -0.0104872 -0.0110656 -0.0115566 -0.01196 -0.0122759 -0.0125043 -0.0126452 -0.0126985 -0.0126643 -0.0125541 -0.0123794 -0.0121401 -0.0118362 -0.0114678 -0.0110348 -0.0105373 -0.00997524 -0.00940714 -0.00889151 -0.00842836 -0.00801769 -0.00765949 -0.00735377 -0.00710053 -0.00689976 -0.00675911 -0.00668621 -0.00668106 -0.00674366 -0.00687402 -0.00707212 -0.00733797 -0.00767158 -0.00805282 -0.00846158 -0.00889785 -0.00936164 -0.00985294 -0.0103718 -0.0109181 -0.0114919 -0.0120914 -0.0127144 -0.013361 -0.0140312 -0.014725 -0.0154424 -0.0161834 -0.0169481 -0.0176767 -0.0183096 -0.018847 -0.0192887 -0.0196348 -0.0198853 -0.0200401 -0.0200994 -0.0200656 -0.0199417 -0.0197274 -0.0194229 -0.0190282 -0.0185432 -0.017968 -0.0173025 -0.0165998 -0.0159131 -0.0152423 -0.0145874 -0.0139485 -0.0133256 -0.0127185 -0.0121274 -0.0115337 -0.0109188 -0.0102827 -0.00962547 -0.00894702 -0.0082474 -0.0075266 -0.00678461 -0.00604959 -0.00534966 -0.00468483 -0.0040551 -0.00346047 -0.00290093 -0.00237649 -0.00188716 -0.00144485 -0.00106153 -0.00073717 -0.000471789 -0.000265381 -0.000117947 -2.94868e-05 0 0 -4.83773e-07 -1.93509e-06 -4.35396e-06 -7.74037e-06 -1.20943e-05 -1.74158e-05 -2.37049e-05 -3.09615e-05 -6.28301e-05 -0.000142955 -0.000271337 -0.000447974 -0.000672869 -0.000946019 -0.00126743 -0.00163709 -0.00205764 -0.0025317 -0.00305927 -0.00364036 -0.00427496 -0.00496307 -0.00570469 -0.00649982 -0.00731678 -0.00812388 -0.00892112 -0.0097085 -0.010486 -0.0112537 -0.0120114 -0.0127594 -0.0134499 -0.0140355 -0.0145162 -0.0148919 -0.0151627 -0.0153286 -0.0153896 -0.0153456 -0.0152117 -0.0150029 -0.0147192 -0.0143606 -0.0139271 -0.0134187 -0.0128355 -0.0121773 -0.0115128 -0.0109108 -0.0103711 -0.00989378 -0.00947886 -0.00912631 -0.00883614 -0.00860834 -0.00843789 -0.00831975 -0.00825391 -0.00824038 -0.00827915 -0.00837022 -0.00851361 -0.00870929 -0.00892392 -0.0091241 -0.00930985 -0.00948116 -0.00963804 -0.00978048 -0.00990848 -0.010022 -0.0101445 -0.010299 -0.0104857 -0.0107046 -0.0109556 -0.0112388 -0.0115541 -0.0119015 -0.0122435 -0.0125426 -0.0127987 -0.0130118 -0.0131819 -0.0133091 -0.0133933 -0.0134345 -0.0134346 -0.0133956 -0.0133174 -0.0132 -0.0130434 -0.0128477 -0.0126127 -0.0123386 -0.0120553 -0.0117928 -0.0115512 -0.0113303 -0.0111303 -0.010951 -0.0107926 -0.010655 -0.0104921 -0.0102575 -0.00995142 -0.00957375 -0.00912452 -0.00860372 -0.00801135 -0.00734742 -0.00665591 -0.00598078 -0.00532205 -0.00467971 -0.00405377 -0.00344421 -0.00285105 -0.00227428 -0.00174125 -0.00127928 -0.000888392 -0.000568571 -0.000319821 -0.000142143 -3.55357e-05 0 0 -2.46207e-06 -9.84828e-06 -2.21586e-05 -3.93931e-05 -6.15517e-05 -8.86345e-05 -0.000120641 -0.000157572 -0.000224573 -0.00034679 -0.000524222 -0.000756869 -0.00104473 -0.00138781 -0.0017861 -0.00223961 -0.00275022 -0.00331979 -0.00394832 -0.00463583 -0.00538231 -0.00618775 -0.00705216 -0.00797554 -0.00892333 -0.00986097 -0.0107884 -0.0117058 -0.012613 -0.01351 -0.0143969 -0.0152736 -0.0160834 -0.0167696 -0.0173321 -0.017771 -0.0180863 -0.0182779 -0.0183458 -0.0182901 -0.0181301 -0.017885 -0.0175549 -0.0171397 -0.0166394 -0.0160541 -0.0153837 -0.0146283 -0.0138668 -0.013178 -0.0125621 -0.012019 -0.0115487 -0.0111513 -0.0108266 -0.0105747 -0.0103716 -0.0101929 -0.0100388 -0.00990913 -0.00980403 -0.00972344 -0.00966738 -0.00963583 -0.00957761 -0.00944152 -0.00922756 -0.00893573 -0.00856604 -0.00811848 -0.00759304 -0.00698974 -0.00636892 -0.00579091 -0.00525572 -0.00476335 -0.00431379 -0.00390706 -0.00354314 -0.00322204 -0.00294302 -0.00270534 -0.002509 -0.00235401 -0.00224035 -0.00216804 -0.00213707 -0.00214744 -0.00219969 -0.00229434 -0.0024314 -0.00261087 -0.00283275 -0.00309703 -0.00340372 -0.00375281 -0.00413647 -0.00454685 -0.00498394 -0.00544775 -0.00593828 -0.00645553 -0.0069995 -0.00757018 -0.00808244 -0.00845112 -0.00867622 -0.00875775 -0.0086957 -0.00849007 -0.00814087 -0.0076481 -0.00707671 -0.00649168 -0.005893 -0.00528068 -0.00465471 -0.00401509 -0.00336183 -0.00269492 -0.0020633 -0.00151589 -0.0010527 -0.00067373 -0.000378973 -0.000168433 -4.21081e-05 0 0 -5.10858e-06 -2.04343e-05 -4.59772e-05 -8.17373e-05 -0.000127715 -0.000183909 -0.00025032 -0.000326949 -0.000439785 -0.000614819 -0.00085205 -0.00115148 -0.0015131 -0.00193693 -0.00242295 -0.00297117 -0.00358231 -0.00425712 -0.00499558 -0.0057977 -0.00666348 -0.00759292 -0.00858602 -0.00964277 -0.0107263 -0.0117998 -0.0128633 -0.0139167 -0.01496 -0.0159933 -0.0170166 -0.0180298 -0.0189661 -0.0197588 -0.0204078 -0.0209132 -0.0212749 -0.0214929 -0.0215673 -0.021498 -0.0213094 -0.0210257 -0.0206471 -0.0201734 -0.0196047 -0.0189409 -0.0181821 -0.0173284 -0.0164689 -0.0156933 -0.0150015 -0.0143934 -0.0138691 -0.0134286 -0.0130719 -0.012799 -0.0125601 -0.0123057 -0.0120356 -0.0117499 -0.0114487 -0.0111318 -0.0107993 -0.0104512 -0.0100139 -0.00941383 -0.00865098 -0.00772535 -0.00663694 -0.00538575 -0.00397178 -0.00239503 -0.000764699 0.000810012 0.00232911 0.00379258 0.00520044 0.00655267 0.00784929 0.0090903 0.0102248 0.0112021 0.012022 0.0126846 0.0131898 0.0135378 0.0137285 0.0137618 0.0136392 0.0133622 0.0129306 0.0123445 0.0116039 0.0107087 0.0096591 0.00845496 0.00715674 0.00582487 0.00445936 0.0030602 0.0016274 0.000160951 -0.00133914 -0.00287289 -0.00430485 -0.00549959 -0.00645713 -0.00717745 -0.00766057 -0.00790647 -0.00791516 -0.00768664 -0.007312 -0.00688235 -0.00639768 -0.00585799 -0.00526329 -0.00461356 -0.00390882 -0.00314907 -0.002411 -0.00177135 -0.0012301 -0.000787266 -0.000442837 -0.000196817 -4.92042e-05 0 0 -8.42331e-06 -3.36932e-05 -7.58098e-05 -0.000134773 -0.000210583 -0.000303239 -0.000412742 -0.000539092 -0.000708466 -0.000947042 -0.00125482 -0.0016318 -0.00207799 -0.00259337 -0.00317796 -0.00383175 -0.00455393 -0.0053437 -0.00620104 -0.00712597 -0.00811848 -0.00917858 -0.0103063 -0.0115015 -0.0127258 -0.0139405 -0.0151456 -0.0163412 -0.0175273 -0.0187037 -0.0198706 -0.021028 -0.0220981 -0.0230032 -0.0237433 -0.0243184 -0.0247286 -0.0249738 -0.025054 -0.0249692 -0.0247495 -0.0244251 -0.0239958 -0.0234617 -0.0228228 -0.0220792 -0.0212307 -0.0202774 -0.0193194 -0.0184566 -0.0176891 -0.0170169 -0.01644 -0.0159584 -0.0155721 -0.015281 -0.0150036 -0.0146581 -0.0142445 -0.0137628 -0.013213 -0.0125952 -0.0119093 -0.0111554 -0.0102328 -0.00904103 -0.0075801 -0.00585 -0.00385073 -0.00158229 0.000955318 0.0037621 0.00666819 0.00950373 0.0122687 0.0149632 0.0175871 0.0201404 0.0226233 0.0250355 0.02726 0.0291796 0.0307942 0.0321039 0.0331087 0.0338085 0.0342033 0.0342933 0.0340821 0.0335739 0.0327685 0.031666 0.0302664 0.0285696 0.0265757 0.0242847 0.0218243 0.0193223 0.0167788 0.0141936 0.0115668 0.00889841 0.00618843 0.00343686 0.000840715 -0.00140295 -0.00329415 -0.00483287 -0.00601913 -0.0068529 -0.00733421 -0.00746305 -0.00736178 -0.0071528 -0.00683609 -0.00641166 -0.00587951 -0.00523963 -0.00449204 -0.00363672 -0.00278436 -0.00204565 -0.00142059 -0.00090918 -0.000511414 -0.000227295 -5.68237e-05 0 0 -1.24063e-05 -4.9625e-05 -0.000111656 -0.0001985 -0.000310156 -0.000446625 -0.000607906 -0.000794 -0.00103062 -0.00134346 -0.00173254 -0.00219784 -0.00273938 -0.00335714 -0.00405114 -0.00482136 -0.00566507 -0.00657952 -0.00756471 -0.00862064 -0.00974731 -0.0109447 -0.0122129 -0.0135518 -0.0149217 -0.0162829 -0.0176355 -0.0189794 -0.0203146 -0.0216411 -0.022959 -0.0242682 -0.0254792 -0.0265027 -0.0273385 -0.0279868 -0.0284474 -0.0287204 -0.0288059 -0.0287037 -0.0284505 -0.028083 -0.027601 -0.0270047 -0.026294 -0.0254688 -0.0245293 -0.0234754 -0.022418 -0.0214679 -0.0206251 -0.0198896 -0.0192615 -0.0187406 -0.0183271 -0.0180209 -0.0177019 -0.0172501 -0.0166653 -0.0159477 -0.0150972 -0.0141138 -0.0129975 -0.0117484 -0.0102343 -0.00832311 -0.00601492 -0.00330969 -0.000207421 0.00329189 0.00718824 0.0114816 0.0159297 0.0202902 0.0245631 0.0287484 0.0328461 0.0368562 0.0407787 0.0446136 0.0481626 0.0512273 0.0538078 0.0559041 0.0575162 0.058644 0.0592875 0.0594469 0.059129 0.0583408 0.0570824 0.0553537 0.0531548 0.0504856 0.0473461 0.0437364 0.0398663 0.0359455 0.0319742 0.0279523 0.0238799 0.0197569 0.0155832 0.011359 0.00735425 0.0038388 0.000812721 -0.001724 -0.00377137 -0.00532938 -0.00639803 -0.00697732 -0.00722605 -0.00730302 -0.00720823 -0.00694168 -0.00650337 -0.0058933 -0.00511147 -0.00415788 -0.00318338 -0.00233881 -0.00162417 -0.00103947 -0.000584702 -0.000259868 -6.49669e-05 0 0 -1.70574e-05 -6.82296e-05 -0.000153517 -0.000272919 -0.000426435 -0.000614067 -0.000835813 -0.00109167 -0.00140623 -0.00180407 -0.00228519 -0.00284959 -0.00349727 -0.00422824 -0.00504248 -0.00594 -0.00691573 -0.00796459 -0.00908658 -0.0102817 -0.01155 -0.0128913 -0.0143059 -0.0157935 -0.017314 -0.0188271 -0.0203329 -0.0218312 -0.0233221 -0.0248056 -0.0262817 -0.0277504 -0.0291096 -0.0302573 -0.0311935 -0.0319182 -0.0324313 -0.0327329 -0.032823 -0.0327015 -0.0324124 -0.0319995 -0.0314628 -0.0308023 -0.030018 -0.02911 -0.0280781 -0.0269225 -0.0257649 -0.0247272 -0.0238094 -0.0230114 -0.0223334 -0.0217752 -0.021337 -0.0210186 -0.0206552 -0.0200817 -0.0192982 -0.0183046 -0.0171011 -0.0156875 -0.0140639 -0.0122302 -0.0100183 -0.00726009 -0.00395546 -0.000104428 0.00429299 0.0092368 0.014727 0.0207636 0.02702 0.0331696 0.0392124 0.0451484 0.0509776 0.0567001 0.0623157 0.0678246 0.0729325 0.0773452 0.0810627 0.0840851 0.0864123 0.0880443 0.0889811 0.0892227 0.0887798 0.087663 0.0858723 0.0834077 0.0802691 0.0764567 0.0719703 0.0668101 0.0612825 0.0556945 0.0500458 0.0443365 0.0385667 0.0327363 0.0268453 0.0208937 0.0152357 0.0102257 0.00586348 0.00214915 -0.000917303 -0.00333589 -0.00510661 -0.00622946 -0.0069048 -0.00733302 -0.0075141 -0.00744805 -0.00713488 -0.00657457 -0.00576712 -0.00471255 -0.00360805 -0.00265081 -0.00184084 -0.00117814 -0.000662703 -0.000294535 -7.36336e-05 0 0 -2.22822e-05 -8.91288e-05 -0.00020054 -0.000356515 -0.000557055 -0.000802159 -0.00109183 -0.00142606 -0.00182482 -0.00230805 -0.00287576 -0.00352795 -0.00426461 -0.00508576 -0.00599138 -0.00698148 -0.0080459 -0.00917447 -0.0103672 -0.0116241 -0.0129451 -0.0143303 -0.0157796 -0.0172931 -0.0188359 -0.0203731 -0.0219047 -0.0234308 -0.0249512 -0.0264661 -0.0279754 -0.0294792 -0.03087 -0.0320405 -0.0329907 -0.0337206 -0.0342301 -0.0345194 -0.0345884 -0.0344371 -0.0341177 -0.0336826 -0.0331318 -0.0324653 -0.031683 -0.030785 -0.0297713 -0.0286418 -0.0275203 -0.0265306 -0.0256726 -0.0249464 -0.0243519 -0.0238892 -0.0235582 -0.023359 -0.0230683 -0.0224629 -0.0215429 -0.0203083 -0.0187589 -0.016895 -0.0147163 -0.0122231 -0.00920808 -0.00546438 -0.000991948 0.00420921 0.0101391 0.0167977 0.0241851 0.0323011 0.0407104 0.0489774 0.0571021 0.0650845 0.0729246 0.0806223 0.0881778 0.095591 0.102466 0.108407 0.113413 0.117486 0.120624 0.122828 0.124099 0.124434 0.123851 0.122364 0.119974 0.116679 0.11248 0.107378 0.101372 0.0944616 0.0870561 0.0795635 0.0719839 0.0643173 0.0565638 0.0487232 0.0407956 0.0327811 0.0251398 0.018332 0.0123578 0.00721707 0.0029099 -0.000563742 -0.00320385 -0.00501042 -0.00623079 -0.00711228 -0.0076549 -0.00785864 -0.0077235 -0.00724949 -0.0064366 -0.00528483 -0.0040462 -0.00297272 -0.00206439 -0.00132121 -0.000743179 -0.000330302 -8.25754e-05 0 0 -2.7986e-05 -0.000111944 -0.000251874 -0.000447777 -0.000699651 -0.0010075 -0.00137132 -0.00179111 -0.00227586 -0.00283455 -0.0034672 -0.00417379 -0.00495433 -0.00580881 -0.00673724 -0.00773962 -0.00879558 -0.00988473 -0.0110071 -0.0121626 -0.0133514 -0.0145734 -0.0158285 -0.0171169 -0.0184203 -0.0197207 -0.0210181 -0.0223124 -0.0236036 -0.0248919 -0.026177 -0.0274592 -0.028641 -0.0296254 -0.0304123 -0.0310018 -0.0313938 -0.0315882 -0.0315853 -0.0313848 -0.0310491 -0.0306405 -0.0301589 -0.0296044 -0.0289769 -0.0282764 -0.027503 -0.0266566 -0.0258446 -0.0251742 -0.0246455 -0.0242585 -0.0240131 -0.0239093 -0.0239472 -0.0241268 -0.0241462 -0.0237038 -0.0227994 -0.0214332 -0.019605 -0.017315 -0.014563 -0.0113491 -0.00742655 -0.00254839 0.00328535 0.0100746 0.0178195 0.02652 0.036176 0.0467876 0.0577727 0.0685496 0.0791181 0.0894782 0.09963 0.109573 0.119308 0.128835 0.137659 0.145285 0.151714 0.156945 0.160979 0.163816 0.165454 0.165896 0.16516 0.163269 0.160222 0.156019 0.15066 0.144145 0.136474 0.127647 0.11817 0.108547 0.0987791 0.088866 0.0788077 0.0686042 0.0582555 0.0477615 0.0377209 0.0287321 0.0207952 0.0139102 0.00807705 0.00329577 -0.000433645 -0.00311119 -0.00503677 -0.00651032 -0.00753183 -0.0081013 -0.00821873 -0.00788413 -0.00709748 -0.0058588 -0.00448565 -0.00329558 -0.00228859 -0.0014647 -0.000823894 -0.000366175 -9.15438e-05 0 0 -3.41689e-05 -0.000136676 -0.000307521 -0.000546703 -0.000854224 -0.00123008 -0.00167428 -0.00218681 -0.00275936 -0.00338359 -0.00405951 -0.00478712 -0.00556641 -0.0063974 -0.00728006 -0.00821442 -0.00916476 -0.0100954 -0.0110063 -0.0118974 -0.0127689 -0.0136206 -0.0144526 -0.0152648 -0.0160673 -0.01687 -0.0176729 -0.018476 -0.0192793 -0.0200828 -0.0208865 -0.0216903 -0.0224228 -0.0230122 -0.0234585 -0.0237619 -0.0239221 -0.0239394 -0.0238136 -0.0235448 -0.0232067 -0.0228731 -0.0225441 -0.0222196 -0.0218997 -0.0215843 -0.0212734 -0.020967 -0.0207378 -0.0206581 -0.0207281 -0.0209477 -0.0213169 -0.0218357 -0.0225041 -0.0233221 -0.0238891 -0.0238043 -0.0230677 -0.0216794 -0.0196393 -0.0169474 -0.0136038 -0.00960846 -0.00467374 0.00148789 0.00887642 0.0174919 0.0273342 0.0384035 0.0506997 0.0642228 0.0782069 0.091886 0.10526 0.11833 0.131094 0.143553 0.155708 0.167557 0.178512 0.187981 0.195965 0.202464 0.207477 0.211006 0.213049 0.213607 0.212707 0.210377 0.206617 0.201427 0.194807 0.186757 0.177277 0.166366 0.154623 0.142645 0.130431 0.117983 0.105299 0.0923793 0.0792248 0.065835 0.0529791 0.041426 0.0311758 0.0222286 0.0145841 0.00824263 0.003204 -0.000531743 -0.00332274 -0.00552712 -0.00714488 -0.00817603 -0.00862057 -0.00847849 -0.00774979 -0.00643448 -0.0049264 -0.00361939 -0.00251347 -0.00160862 -0.000904848 -0.000402155 -0.000100539 0 0 -4.08309e-05 -0.000163324 -0.000367478 -0.000653294 -0.00102077 -0.00146991 -0.00200071 -0.00261318 -0.00327532 -0.00395516 -0.0046527 -0.00536794 -0.00610088 -0.00685151 -0.00761984 -0.00840587 -0.00915344 -0.00980638 -0.0103647 -0.0108284 -0.0111975 -0.0114719 -0.0116518 -0.011737 -0.0117769 -0.011821 -0.0118693 -0.0119217 -0.0119782 -0.0120389 -0.0121037 -0.0121727 -0.0122152 -0.0122007 -0.0121292 -0.0120008 -0.0118153 -0.0115728 -0.0112734 -0.0109169 -0.0105903 -0.0103804 -0.0102873 -0.010311 -0.0104514 -0.0107085 -0.0110824 -0.011573 -0.0121998 -0.0129823 -0.0139203 -0.015014 -0.0162633 -0.0176682 -0.0192288 -0.0209449 -0.0222968 -0.0227644 -0.0223478 -0.0210469 -0.0188618 -0.0157924 -0.0118388 -0.007001 -0.000949658 0.00664444 0.0157813 0.0264609 0.0386833 0.0524484 0.0677563 0.0846069 0.102013 0.118987 0.135529 0.151639 0.167316 0.182562 0.197376 0.211757 0.225024 0.236494 0.246166 0.254041 0.260119 0.264399 0.266882 0.267567 0.266491 0.263688 0.259159 0.252904 0.244922 0.235214 0.22378 0.210619 0.196417 0.181857 0.166941 0.151667 0.136036 0.120048 0.103704 0.0870016 0.0709143 0.0564137 0.0434996 0.0321721 0.0224312 0.0142769 0.00770909 0.0027279 -0.00108869 -0.00416268 -0.00649407 -0.00808284 -0.00892901 -0.00903256 -0.00839351 -0.00701185 -0.00536845 -0.00394417 -0.002739 -0.00175296 -0.000986042 -0.000438241 -0.00010956 0 0 -4.797