<?xml version="1.0"?> 
<VTKFile type="StructuredGrid" version="0.1"> 
<StructuredGrid WholeExtent="0 128 0 128 0 0"> 
<Piece Extent="0 128 0 128 0 0"> 
<PointData>
<DataArray type="Float32" Name="u" format="ascii" NumberOfComponents="1"> 
0 0 0 0 0 0 0 0 0 0 0 0 0 0 0 0 0 0 0 0 0 0 0 0 0 0 0 0 0 0 0 0 0 0 0 0 0 0 0 0 0 0 0 0 0 0 0 0 0 0 0 0 0 0 0 0 0 0 0 0 0 0 0 0 0 0 0 0 0 0 0 0 0 0 0 0 0 0 0 0 0 0 0 0 0 0 0 0 0 0 0 0 0 0 0 0 0 0 0 0 0 0 0 0 0 0 0 0 0 0 0 0 0 0 0 0 0 0 0 0 0 0 0 0 0 0 0 0 0 0 9.2465e-08 3.6986e-07 8.32185e-07 1.47944e-06 2.31162e-06 3.32874e-06 4.53078e-06 5.91776e-06 7.20983e-06 8.12717e-06 8.66977e-06 8.83764e-06 8.63077e-06 8.04917e-06 7.09284e-06 5.76177e-06 4.07611e-06 2.05601e-06 -2.9853e-07 -2.98751e-06 -6.01093e-06 -9.36879e-06 -1.30611e-05 -1.70878e-05 -2.11879e-05 -2.51001e-05 -2.88244e-05 -3.23609e-05 -3.57095e-05 -3.88703e-05 -4.18432e-05 -4.46283e-05 -4.71355e-05 -4.92748e-05 -5.10462e-05 -5.24498e-05 -5.34855e-05 -5.41533e-05 -5.44532e-05 -5.43852e-05 -5.39083e-05 -5.29812e-05 -5.16041e-05 -4.97768e-05 -4.74994e-05 -4.4772e-05 -4.15944e-05 -3.79667e-05 -3.43659e-05 -3.12691e-05 -2.86762e-05 -2.65873e-05 -2.50023e-05 -2.39212e-05 -2.33441e-05 -2.3271e-05 -2.41578e-05 -2.64609e-05 -3.018e-05 -3.53153e-05 -4.18667e-05 -4.98342e-05 -5.92179e-05 -7.00177e-05 -8.20952e-05 -9.53117e-05 -0.000109667 -0.000125162 -0.000141796 -0.000159569 -0.000178482 -0.000198533 -0.000219202 -0.000239967 -0.000260829 -0.000281787 -0.000302841 -0.000323992 -0.000345239 -0.000366582 -0.000386619 -0.000403949 -0.000418571 -0.000430485 -0.000439691 -0.00044619 -0.000449981 -0.000451064 -0.00044951 -0.000445393 -0.000438711 -0.000429464 -0.000417653 -0.000403278 -0.000386338 -0.000366833 -0.000346138 -0.000325625 -0.000305294 -0.000285146 -0.000265181 -0.000245398 -0.000225798 -0.000206381 -0.00018747 -0.000169391 -0.000152144 -0.000135729 -0.000120145 -0.000105393 -9.1472e-05 -7.83831e-05 -6.62858e-05 -5.534e-05 -4.55456e-05 -3.69026e-05 -2.94111e-05 -2.30711e-05 -1.78826e-05 -1.38455e-05 -1.06004e-05 -7.78807e-06 -5.40838e-06 -3.46137e-06 -1.94702e-06 -8.65341e-07 -2.16335e-07 0 0 3.6986e-07 1.47944e-06 3.32874e-06 5.91776e-06 9.2465e-06 1.3315e-05 1.81231e-05 2.3671e-05 2.88393e-05 3.25087e-05 3.46791e-05 3.53506e-05 3.45231e-05 3.21967e-05 2.83713e-05 2.30471e-05 1.63044e-05 8.22404e-06 -1.19412e-06 -1.195e-05 -2.40437e-05 -3.74752e-05 -5.22444e-05 -6.83513e-05 -8.47515e-05 -0.0001004 -0.000115298 -0.000129443 -0.000142838 -0.000155481 -0.000167373 -0.000178513 -0.000188542 -0.000197099 -0.000204185 -0.000209799 -0.000213942 -0.000216613 -0.000217813 -0.000217541 -0.000215633 -0.000211925 -0.000206416 -0.000199107 -0.000189998 -0.000179088 -0.000166377 -0.000151867 -0.000137464 -0.000125076 -0.000114705 -0.000106349 -0.000100009 -9.56849e-05 -9.33765e-05 -9.30839e-05 -9.66314e-05 -0.000105843 -0.00012072 -0.000141261 -0.000167467 -0.000199337 -0.000236872 -0.000280071 -0.000328381 -0.000381247 -0.00043867 -0.000500649 -0.000567185 -0.000638278 -0.000713927 -0.000794132 -0.000876808 -0.00095987 -0.00104332 -0.00112715 -0.00121137 -0.00129597 -0.00138096 -0.00146633 -0.00154648 -0.0016158 -0.00167428 -0.00172194 -0.00175876 -0.00178476 -0.00179992 -0.00180425 -0.00179804 -0.00178157 -0.00175484 -0.00171786 -0.00167061 -0.00161311 -0.00154535 -0.00146733 -0.00138455 -0.0013025 -0.00122118 -0.00114059 -0.00106072 -0.000981594 -0.000903193 -0.000825523 -0.000749881 -0.000677565 -0.000608577 -0.000542915 -0.000480579 -0.00042157 -0.000365888 -0.000313533 -0.000265143 -0.00022136 -0.000182182 -0.00014761 -0.000117645 -9.22845e-05 -7.15302e-05 -5.53819e-05 -4.24017e-05 -3.11523e-05 -2.16335e-05 -1.38455e-05 -7.78807e-06 -3.46137e-06 -8.65341e-07 0 0 8.32185e-07 3.32874e-06 7.48966e-06 1.3315e-05 2.08046e-05 2.99587e-05 4.07771e-05 5.32598e-05 6.48885e-05 7.31445e-05 7.80279e-05 7.95388e-05 7.7677e-05 7.24425e-05 6.38355e-05 5.18559e-05 3.6685e-05 1.85041e-05 -2.68677e-06 -2.68876e-05 -5.40984e-05 -8.43191e-05 -0.00011755 -0.000153791 -0.000190691 -0.000225901 -0.000259419 -0.000291248 -0.000321385 -0.000349832 -0.000376589 -0.000401654 -0.000424219 -0.000443473 -0.000459416 -0.000472048 -0.000481369 -0.000487379 -0.000490079 -0.000489467 -0.000485175 -0.000476831 -0.000464437 -0.000447991 -0.000427495 -0.000402948 -0.000374349 -0.0003417 -0.000309293 -0.000281422 -0.000258086 -0.000239285 -0.000225021 -0.000215291 -0.000210097 -0.000209439 -0.000217421 -0.000238148 -0.00027162 -0.000317837 -0.0003768 -0.000448508 -0.000532961 -0.000630159 -0.000738856 -0.000857806 -0.000987007 -0.00112646 -0.00127617 -0.00143612 -0.00160633 -0.0017868 -0.00197282 -0.00215971 -0.00234746 -0.00253608 -0.00272557 -0.00291593 -0.00310715 -0.00329924 -0.00347957 -0.00363554 -0.00376714 -0.00387436 -0.00395722 -0.00401571 -0.00404983 -0.00405957 -0.00404559 -0.00400854 -0.0039484 -0.00386518 -0.00375888 -0.0036295 -0.00347704 -0.0033015 -0.00311524 -0.00293062 -0.00274765 -0.00256632 -0.00238663 -0.00220859 -0.00203218 -0.00185743 -0.00168723 -0.00152452 -0.0013693 -0.00122156 -0.0010813 -0.000948533 -0.000823248 -0.000705448 -0.000596572 -0.00049806 -0.00040991 -0.000332124 -0.0002647 -0.00020764 -0.000160943 -0.000124609 -9.54039e-05 -7.00927e-05 -4.86755e-05 -3.11523e-05 -1.75232e-05 -7.78807e-06 -1.94702e-06 0 0 1.47944e-06 5.91776e-06 1.3315e-05 2.3671e-05 3.6986e-05 5.32598e-05 7.24925e-05 9.46841e-05 0.000115357 0.000130035 0.000138716 0.000141402 0.000138092 0.000128787 0.000113485 9.21883e-05 6.52177e-05 3.28961e-05 -4.77648e-06 -4.78002e-05 -9.61749e-05 -0.000149901 -0.000208978 -0.000273405 -0.000339006 -0.000401601 -0.00046119 -0.000517774 -0.000571352 -0.000621924 -0.000669491 -0.000714052 -0.000754167 -0.000788396 -0.000816739 -0.000839196 -0.000855767 -0.000866452 -0.000871251 -0.000870164 -0.000862532 -0.0008477 -0.000825665 -0.000796429 -0.000759991 -0.000716351 -0.00066551 -0.000607467 -0.000549855 -0.000500305 -0.000458819 -0.000425396 -0.000400037 -0.00038274 -0.000373506 -0.000372335 -0.000386525 -0.000423374 -0.00048288 -0.000565044 -0.000669867 -0.000797348 -0.000947486 -0.00112028 -0.00131352 -0.00152499 -0.00175468 -0.0020026 -0.00226874 -0.00255311 -0.00285571 -0.00317653 -0.00350723 -0.00383948 -0.00417327 -0.00450859 -0.00484546 -0.00518387 -0.00552382 -0.00586531 -0.00618591 -0.00646318 -0.00669713 -0.00688776 -0.00703506 -0.00713904 -0.00719969 -0.00721702 -0.00719217 -0.00712629 -0.00701937 -0.00687143 -0.00668245 -0.00645244 -0.0061814 -0.00586933 -0.0055382 -0.00520999 -0.00488471 -0.00456234 -0.0042429 -0.00392638 -0.00361277 -0.00330209 -0.00299952 -0.00271026 -0.00243431 -0.00217166 -0.00192232 -0.00168628 -0.00146355 -0.00125413 -0.00106057 -0.000885439 -0.000728729 -0.000590442 -0.000470578 -0.000369138 -0.000286121 -0.000221527 -0.000169607 -0.000124609 -8.65341e-05 -5.53819e-05 -3.11523e-05 -1.38455e-05 -3.46137e-06 0 0 2.31162e-06 9.2465e-06 2.08046e-05 3.6986e-05 5.77906e-05 8.32185e-05 0.00011327 0.000147944 0.000180246 0.000203179 0.000216744 0.000220941 0.000215769 0.000201229 0.000177321 0.000144044 0.000101903 5.14002e-05 -7.46325e-06 -7.46878e-05 -0.000150273 -0.00023422 -0.000326527 -0.000427196 -0.000529697 -0.000627501 -0.00072061 -0.000809022 -0.000892737 -0.000971757 -0.00104608 -0.00111571 -0.00117839 -0.00123187 -0.00127616 -0.00131124 -0.00133714 -0.00135383 -0.00136133 -0.00135963 -0.00134771 -0.00132453 -0.0012901 -0.00124442 -0.00118749 -0.0011193 -0.00103986 -0.000949167 -0.000859148 -0.000781727 -0.000716905 -0.000664682 -0.000625057 -0.000598031 -0.000583603 -0.000581774 -0.000603946 -0.000661521 -0.0007545 -0.000882882 -0.00104667 -0.00124586 -0.00148045 -0.00175044 -0.00205238 -0.00238279 -0.00274169 -0.00312906 -0.00354491 -0.00398923 -0.00446204 -0.00496333 -0.00548005 -0.00599919 -0.00652073 -0.00704468 -0.00757103 -0.0080998 -0.00863097 -0.00916455 -0.00966548 -0.0100987 -0.0104643 -0.0107621 -0.0109923 -0.0111547 -0.0112495 -0.0112766 -0.0112378 -0.0111348 -0.0109678 -0.0107366 -0.0104413 -0.0100819 -0.00965844 -0.00917083 -0.00865344 -0.00814062 -0.00763236 -0.00712866 -0.00662953 -0.00613496 -0.00564496 -0.00515952 -0.00468675 -0.00423478 -0.0038036 -0.00339322 -0.00300362 -0.00263481 -0.0022868 -0.00195958 -0.00165715 -0.0013835 -0.00113864 -0.000922565 -0.000735278 -0.000576778 -0.000447064 -0.000346137 -0.000265011 -0.000194702 -0.00013521 -8.65341e-05 -4.86755e-05 -2.16335e-05 -5.40838e-06 0 0 3.32874e-06 1.3315e-05 2.99587e-05 5.32598e-05 8.32185e-05 0.000119835 0.000163108 0.000213039 0.000259554 0.000292578 0.000312112 0.000318155 0.000310708 0.00028977 0.000255342 0.000207424 0.00014674 7.40163e-05 -1.07471e-05 -0.00010755 -0.000216394 -0.000337277 -0.000470199 -0.000615162 -0.000762763 -0.000903602 -0.00103768 -0.00116499 -0.00128554 -0.00139933 -0.00150635 -0.00160662 -0.00169688 -0.00177389 -0.00183766 -0.00188819 -0.00192548 -0.00194952 -0.00196031 -0.00195787 -0.0019407 -0.00190732 -0.00185775 -0.00179196 -0.00170998 -0.00161179 -0.0014974 -0.0013668 -0.00123717 -0.00112569 -0.00103234 -0.000957142 -0.000900082 -0.000861164 -0.000840389 -0.000837755 -0.000869682 -0.000952591 -0.00108648 -0.00127135 -0.0015072 -0.00179403 -0.00213184 -0.00252064 -0.00295543 -0.00343122 -0.00394803 -0.00450584 -0.00510467 -0.0057445 -0.00642534 -0.00714719 -0.00789128 -0.00863883 -0.00938985 -0.0101443 -0.0109023 -0.0116637 -0.0124286 -0.0131969 -0.0139183 -0.0145422 -0.0150685 -0.0154975 -0.0158289 -0.0160628 -0.0161993 -0.0162383 -0.0161824 -0.0160341 -0.0157936 -0.0154607 -0.0150355 -0.014518 -0.0139082 -0.013206 -0.012461 -0.0117225 -0.0109906 -0.0102653 -0.00954652 -0.00883434 -0.00812874 -0.0074297 -0.00674893 -0.00609809 -0.00547719 -0.00488623 -0.00432521 -0.00379413 -0.00329299 -0.00282179 -0.00238629 -0.00199224 -0.00163964 -0.00132849 -0.0010588 -0.00083056 -0.000643772 -0.000498437 -0.000381616 -0.000280371 -0.000194702 -0.000124609 -7.00927e-05 -3.11523e-05 -7.78807e-06 0 0 4.53078e-06 1.81231e-05 4.07771e-05 7.24925e-05 0.00011327 0.000163108 0.000222008 0.00028997 0.000353282 0.000398231 0.000424819 0.000433044 0.000422908 0.000394409 0.000347549 0.000282327 0.000199729 0.000100744 -1.4628e-05 -0.000146388 -0.000294536 -0.000459071 -0.000639994 -0.000837304 -0.00103821 -0.0012299 -0.0014124 -0.00158568 -0.00174977 -0.00190464 -0.00205032 -0.00218678 -0.00230964 -0.00241446 -0.00250126 -0.00257004 -0.00262079 -0.00265351 -0.00266821 -0.00266488 -0.00264151 -0.00259608 -0.0025286 -0.00243906 -0.00232747 -0.00219383 -0.00203812 -0.00186037 -0.00168393 -0.00153219 -0.00140513 -0.00130278 -0.00122511 -0.00117214 -0.00114386 -0.00114028 -0.00118373 -0.00129658 -0.00147882 -0.00173045 -0.00205147 -0.00244188 -0.00290168 -0.00343087 -0.00402266 -0.00467028 -0.00537371 -0.00613295 -0.00694802 -0.0078189 -0.0087456 -0.00972812 -0.0107409 -0.0117584 -0.0127806 -0.0138076 -0.0148392 -0.0158756 -0.0169167 -0.0179625 -0.0189443 -0.0197935 -0.02051 -0.0210938 -0.0215449 -0.0218633 -0.022049 -0.0221021 -0.022026 -0.0218243 -0.0214968 -0.0210437 -0.020465 -0.0197606 -0.0189305 -0.0179748 -0.0169607 -0.0159556 -0.0149594 -0.0139722 -0.0129939 -0.0120245 -0.0110641 -0.0101127 -0.00918604 -0.00830018 -0.00745506 -0.0066507 -0.00588709 -0.00516424 -0.00448213 -0.00384077 -0.003248 -0.00271166 -0.00223173 -0.00180823 -0.00144115 -0.00113048 -0.000876245 -0.000678428 -0.000519421 -0.000381616 -0.000265011 -0.000169607 -9.54039e-05 -4.24017e-05 -1.06004e-05 0 0 5.91776e-06 2.3671e-05 5.32598e-05 9.46841e-05 0.000147944 0.000213039 0.00028997 0.000378737 0.000461429 0.000520139 0.000554865 0.000565609 0.000552369 0.000515147 0.000453942 0.000368753 0.000260871 0.000131585 -1.91059e-05 -0.000191201 -0.0003847 -0.000599603 -0.00083591 -0.00109362 -0.00135602 -0.0016064 -0.00184476 -0.0020711 -0.00228541 -0.0024877 -0.00267796 -0.00285621 -0.00301667 -0.00315359 -0.00326696 -0.00335679 -0.00342307 -0.00346581 -0.003485 -0.00348065 -0.00345013 -0.0033908 -0.00330266 -0.00318572 -0.00303996 -0.00286541 -0.00266204 -0.00242987 -0.00219942 -0.00200122 -0.00183528 -0.00170159 -0.00160015 -0.00153096 -0.00149402 -0.00148934 -0.0015461 -0.00169349 -0.00193152 -0.00226018 -0.00267947 -0.00318939 -0.00378995 -0.00448113 -0.00525409 -0.00609995 -0.00701872 -0.00801039 -0.00907496 -0.0102124 -0.0114228 -0.0127061 -0.0140289 -0.0153579 -0.0166931 -0.0180344 -0.0193818 -0.0207355 -0.0220953 -0.0234612 -0.0247436 -0.0258527 -0.0267885 -0.027551 -0.0281402 -0.0285561 -0.0287988 -0.0288681 -0.0287687 -0.0285051 -0.0280775 -0.0274857 -0.0267298 -0.0258098 -0.0247256 -0.0234773 -0.0221528 -0.02084 -0.0195388 -0.0182494 -0.0169716 -0.0157055 -0.0144511 -0.0132084 -0.0119981 -0.010841 -0.00973723 -0.00868663 -0.00768927 -0.00674512 -0.00585421 -0.00501652 -0.00424229 -0.00354176 -0.00291492 -0.00236177 -0.00188231 -0.00147655 -0.00114448 -0.00088611 -0.000678428 -0.000498437 -0.000346137 -0.000221527 -0.000124609 -5.53819e-05 -1.38455e-05 0 0 7.02754e-06 2.81101e-05 6.32478e-05 0.000112441 0.000175688 0.000252991 0.000344349 0.000449762 0.00054693 0.000613554 0.000649632 0.000655166 0.000630155 0.000574599 0.000488498 0.000371852 0.00022639 5.38391e-05 -0.0001458 -0.000372529 -0.000626345 -0.000907251 -0.00121524 -0.00155033 -0.00189171 -0.0022186 -0.002531 -0.0028289 -0.00311232 -0.00338124 -0.00363567 -0.00387561 -0.00409239 -0.00427734 -0.00443047 -0.00455176 -0.00464122 -0.00469885 -0.00472466 -0.00471863 -0.00467794 -0.00459975 -0.00448405 -0.00433085 -0.00414014 -0.00391193 -0.00364622 -0.00334301 -0.0030418 -0.00278212 -0.00256397 -0.00238734 -0.00225223 -0.00215865 -0.00210659 -0.00209606 -0.0021593 -0.00232856 -0.00260383 -0.00298513 -0.00347244 -0.00406578 -0.00476513 -0.0055705 -0.0064687 -0.00744653 -0.00850401 -0.00964112 -0.0108579 -0.0121543 -0.0135303 -0.014986 -0.016488 -0.0180033 -0.0195317 -0.0210733 -0.0226281 -0.024196 -0.0257771 -0.0273715 -0.028871 -0.0301679 -0.0312621 -0.0321536 -0.0328424 -0.0333285 -0.033612 -0.0336928 -0.0335765 -0.0332686 -0.0327693 -0.0320785 -0.0311961 -0.0301222 -0.0288569 -0.0274 -0.025857 -0.0243333 -0.0228288 -0.0213437 -0.0198779 -0.0184314 -0.0170041 -0.0155962 -0.0142251 -0.0129082 -0.0116457 -0.0104374 -0.00928348 -0.00818384 -0.00713849 -0.00614744 -0.00522588 -0.004389 -0.00363679 -0.00296926 -0.00238641 -0.00188824 -0.00147474 -0.00114592 -0.000877346 -0.000644581 -0.000447626 -0.00028648 -0.000161145 -7.16201e-05 -1.7905e-05 0 0 7.39799e-06 2.95919e-05 6.65819e-05 0.000118368 0.00018495 0.000266328 0.000362501 0.000473471 0.00057272 0.000633729 0.0006565 0.000641032 0.000587326 0.000495381 0.000365197 0.000196774 -7.48814e-06 -0.00024519 -0.000516331 -0.000820912 -0.00115893 -0.00153039 -0.00193529 -0.00237363 -0.00282075 -0.00325198 -0.00366732 -0.00406678 -0.00445034 -0.00481803 -0.00516982 -0.00550573 -0.00581123 -0.00607183 -0.00628751 -0.00645828 -0.00658414 -0.00666509 -0.00670112 -0.00669224 -0.00663631 -0.00653119 -0.00637688 -0.00617339 -0.0059207 -0.00561882 -0.00526775 -0.00486749 -0.00446925 -0.00412422 -0.0038324 -0.0035938 -0.00340842 -0.00327625 -0.00319729 -0.00317155 -0.00322584 -0.003387 -0.00365502 -0.0040299 -0.00451164 -0.00510024 -0.0057957 -0.00659802 -0.00748547 -0.0084363 -0.00945052 -0.0105281 -0.0116691 -0.0128735 -0.0141413 -0.0154724 -0.0168508 -0.0182604 -0.0197011 -0.0211729 -0.0226758 -0.0242099 -0.0257751 -0.0273714 -0.0288813 -0.0301869 -0.0312884 -0.0321856 -0.0328787 -0.0333676 -0.0336523 -0.0337329 -0.0336155 -0.0333066 -0.032806 -0.0321139 -0.0312301 -0.0301548 -0.0288878 -0.0274293 -0.0258931 -0.0243931 -0.0229295 -0.0215021 -0.0201111 -0.0187563 -0.0174378 -0.0161556 -0.0149069 -0.0136892 -0.0125024 -0.0113465 -0.0102215 -0.00912742 -0.00806423 -0.00703194 -0.0060555 -0.00515984 -0.00434496 -0.00361086 -0.00295755 -0.00238502 -0.00189327 -0.0014823 -0.00113489 -0.000833795 -0.000579025 -0.000370576 -0.000208449 -9.26439e-05 -2.3161e-05 0 0 7.02911e-06 2.81165e-05 6.3262e-05 0.000112466 0.000175728 0.000253048 0.000344427 0.000449863 0.000538797 0.000580665 0.000575469 0.000523209 0.000423883 0.000277493 8.40374e-05 -0.000156482 -0.000440764 -0.000765502 -0.0011307 -0.00153635 -0.00198246 -0.00246903 -0.00299606 -0.00356354 -0.00414315 -0.00470655 -0.00525374 -0.00578472 -0.00629949 -0.00679805 -0.0072804 -0.00774654 -0.00817319 -0.00853704 -0.00883809 -0.00907635 -0.00925183 -0.0093645 -0.00941439 -0.00940148 -0.00932524 -0.00918514 -0.00898117 -0.00871333 -0.00838163 -0.00798606 -0.00752663 -0.00700333 -0.00648176 -0.00602751 -0.00564058 -0.00532098 -0.0050687 -0.00488374 -0.00476611 -0.0047158 -0.00474573 -0.00486882 -0.00508507 -0.00539448 -0.00579705 -0.00629278 -0.00688166 -0.00756371 -0.00830441 -0.00906926 -0.00985826 -0.0106714 -0.0115087 -0.0123702 -0.0132558 -0.0141655 -0.0151174 -0.0161293 -0.0172012 -0.0183331 -0.0195251 -0.0207771 -0.0220892 -0.0234612 -0.0247744 -0.0259098 -0.0268674 -0.0276472 -0.0282492 -0.0286734 -0.0289198 -0.0289884 -0.0288859 -0.028619 -0.0281877 -0.027592 -0.0268319 -0.0259074 -0.0248185 -0.0235652 -0.0222611 -0.0210196 -0.0198407 -0.0187245 -0.017671 -0.0166802 -0.015752 -0.0148864 -0.0140437 -0.0131841 -0.0123074 -0.0114139 -0.0105033 -0.00957586 -0.00863142 -0.00767002 -0.00673115 -0.00585428 -0.00503942 -0.00428657 -0.00359573 -0.0029669 -0.00240007 -0.00189525 -0.00145105 -0.00106608 -0.000740333 -0.000473813 -0.00026652 -0.000118453 -2.96133e-05 0 0 5.92092e-06 2.36837e-05 5.32882e-05 9.47347e-05 0.000148023 0.000213153 0.000290125 0.000378939 0.000445162 0.000454362 0.00040654 0.000301694 0.000139826 -7.90655e-05 -0.00035498 -0.000687917 -0.00107344 -0.0015071 -0.0019889 -0.00251885 -0.00309693 -0.00372316 -0.00439754 -0.00512005 -0.00585891 -0.0065823 -0.00729024 -0.00798272 -0.00865975 -0.00932131 -0.00996742 -0.0105981 -0.0111783 -0.011673 -0.0120822 -0.012406 -0.0126443 -0.0127971 -0.0128645 -0.0128463 -0.0127447 -0.0125616 -0.0122969 -0.0119507 -0.0115229 -0.0110137 -0.0104228 -0.00975051 -0.00907932 -0.00849199 -0.0079885 -0.00756887 -0.00723308 -0.00698115 -0.00681306 -0.00672882 -0.00671897 -0.00677403 -0.006894 -0.00707888 -0.00732868 -0.00764339 -0.00802301 -0.00846755 -0.00892551 -0.0093454 -0.00972722 -0.010071 -0.0103766 -0.0106442 -0.0108738 -0.0110653 -0.0112876 -0.0116099 -0.012032 -0.012554 -0.0131759 -0.0138977 -0.0147193 -0.0156408 -0.0165505 -0.0173367 -0.0179993 -0.0185383 -0.0189539 -0.0192459 -0.0194144 -0.0194593 -0.0193875 -0.0192058 -0.0189142 -0.0185127 -0.0180013 -0.0173801 -0.0166489 -0.0158078 -0.014961 -0.0142126 -0.0135626 -0.013011 -0.0125578 -0.0122031 -0.0119467 -0.0117888 -0.0116354 -0.0113927 -0.0110608 -0.0106395 -0.010129 -0.00952917 -0.00884007 -0.00806168 -0.00725282 -0.00647232 -0.00572018 -0.00499639 -0.00430095 -0.00363387 -0.00299514 -0.00238477 -0.00182584 -0.00134143 -0.000931552 -0.000596193 -0.000335359 -0.000149048 -3.72621e-05 0 0 4.07339e-06 1.62936e-05 3.66605e-05 6.51743e-05 0.000101835 0.000146642 0.000199596 0.000260697 0.000291815 0.000254819 0.000149711 -2.35107e-05 -0.000264846 -0.000574293 -0.000951854 -0.00139753 -0.00190551 -0.00246998 -0.00309094 -0.0037684 -0.00450235 -0.00529279 -0.00613973 -0.00704316 -0.00796802 -0.00887924 -0.00977684 -0.0106608 -0.0115311 -0.0123878 -0.0132309 -0.0140603 -0.0148264 -0.0154796 -0.0160199 -0.0164472 -0.0167615 -0.0169629 -0.0170513 -0.0170268 -0.0168948 -0.0166605 -0.0163241 -0.0158854 -0.0153446 -0.0147016 -0.0139564 -0.013109 -0.0122619 -0.0115177 -0.0108762 -0.0103375 -0.00990156 -0.00956845 -0.00933814 -0.00921061 -0.00914555 -0.00910261 -0.00908179 -0.0090831 -0.00910653 -0.00915208 -0.00921976 -0.00930956 -0.00934878 -0.00926473 -0.0090574 -0.00872679 -0.00827291 -0.00769575 -0.00699532 -0.00617161 -0.00536159 -0.00470225 -0.00419357 -0.00383556 -0.00362821 -0.00357153 -0.00366553 -0.00391018 -0.00420948 -0.00446738 -0.00468389 -0.00485901 -0.00499274 -0.00508507 -0.00513602 -0.00514556 -0.00512036 -0.00506706 -0.00498565 -0.00487614 -0.00473853 -0.00457281 -0.00437899 -0.00415706 -0.00399285 -0.00397219 -0.00409507 -0.00436149 -0.00477146 -0.00532497 -0.00602203 -0.00686263 -0.00768196 -0.0083152 -0.00876236 -0.00902344 -0.00909844 -0.00898735 -0.00869017 -0.00820692 -0.00762053 -0.00701397 -0.00638722 -0.00574031 -0.00507321 -0.00438594 -0.00367849 -0.00295086 -0.00225925 -0.00165986 -0.00115268 -0.000737715 -0.000414965 -0.000184429 -4.61072e-05 0 0 1.48654e-06 5.94618e-06 1.33789e-05 2.37847e-05 3.71636e-05 5.35156e-05 7.28407e-05 9.51389e-05 7.87558e-05 -1.79626e-05 -0.000195017 -0.000452406 -0.000790131 -0.00120819 -0.00170659 -0.00228532 -0.00293697 -0.00365414 -0.00443682 -0.005285 -0.0061987 -0.00717791 -0.00822264 -0.00933287 -0.0104705 -0.0115974 -0.0127135 -0.0138189 -0.0149136 -0.0159976 -0.0170708 -0.0181332 -0.0191177 -0.019957 -0.0206511 -0.0211999 -0.0216035 -0.0218619 -0.021975 -0.021943 -0.0217754 -0.021482 -0.0210627 -0.0205176 -0.0198467 -0.0190499 -0.0181273 -0.0170789 -0.0160296 -0.0151045 -0.0143036 -0.0136268 -0.0130741 -0.0126457 -0.0123413 -0.0121612 -0.0120255 -0.0118546 -0.0116485 -0.0114071 -0.0111306 -0.0108188 -0.0104719 -0.0100897 -0.00957422 -0.00882724 -0.0078488 -0.00663889 -0.00519752 -0.00352468 -0.00162037 0.000515407 0.00266072 0.00459363 0.00631413 0.00782224 0.00911794 0.0102012 0.0110722 0.0117307 0.0122486 0.012698 0.0130787 0.0133908 0.0136342 0.013809 0.0139152 0.0139528 0.0139155 0.0137972 0.013598 0.0133178 0.0129566 0.0125144 0.0119912 0.011387 0.0106434 0.00970163 0.00856184 0.00722399 0.00568808 0.00395411 0.00202209 -0.000107993 -0.00218343 -0.00395152 -0.00541226 -0.00656565 -0.00741169 -0.00795039 -0.00818173 -0.00810573 -0.00783427 -0.00747921 -0.00704057 -0.00651833 -0.00591251 -0.0052231 -0.0044501 -0.00359352 -0.00275129 -0.00202135 -0.00140372 -0.00089838 -0.000505339 -0.000224595 -5.61487e-05 0 0 -1.83963e-06 -7.35851e-06 -1.65567e-05 -2.94341e-05 -4.59907e-05 -6.62266e-05 -9.01418e-05 -0.000117736 -0.000194015 -0.000363984 -0.000627643 -0.000984992 -0.00143603 -0.00198076 -0.00261918 -0.00335129 -0.00416784 -0.00505958 -0.00602653 -0.00706867 -0.008186 -0.00937853 -0.0106463 -0.0119892 -0.0133663 -0.0147367 -0.0161003 -0.0174571 -0.0188072 -0.0201505 -0.0214871 -0.0228169 -0.0240521 -0.0251051 -0.0259758 -0.0266642 -0.0271702 -0.027494 -0.0276355 -0.0275947 -0.0273865 -0.0270259 -0.0265128 -0.0258472 -0.0250291 -0.0240586 -0.0229356 -0.0216601 -0.0203824 -0.0192526 -0.0182707 -0.0174368 -0.0167508 -0.0162128 -0.0158227 -0.0155805 -0.0153587 -0.0150299 -0.014594 -0.014051 -0.0134009 -0.0126437 -0.0117794 -0.010808 -0.00960182 -0.00803294 -0.00610143 -0.00380727 -0.00115047 0.00186898 0.00525106 0.00899579 0.0127793 0.0162777 0.0194911 0.0224194 0.0250626 0.0274207 0.0294937 0.0312817 0.0328239 0.0341595 0.0352885 0.0362111 0.036927 0.0374365 0.0377393 0.0378357 0.0377201 0.0373871 0.0368368 0.036069 0.035084 0.0338815 0.0324617 0.0308245 0.0289477 0.0268089 0.0244081 0.0217454 0.0188208 0.0156342 0.0121856 0.00847514 0.0048602 0.00169834 -0.00101044 -0.00326613 -0.00506875 -0.00641829 -0.00731475 -0.00775813 -0.00789403 -0.00786806 -0.0076802 -0.00733047 -0.00681885 -0.00614536 -0.00530999 -0.00431275 -0.00330195 -0.00242592 -0.00168467 -0.00107819 -0.00060648 -0.000269547 -6.73867e-05 0 0 -5.90513e-06 -2.36205e-05 -5.31461e-05 -9.4482e-05 -0.000147628 -0.000212585 -0.000289351 -0.000377928 -0.000526498 -0.000783245 -0.00114817 -0.00162127 -0.00220254 -0.002892 -0.00368963 -0.00459543 -0.0055981 -0.00668631 -0.00786008 -0.00911938 -0.0104642 -0.0118946 -0.0134106 -0.0150121 -0.0166555 -0.0182972 -0.0199372 -0.0215754 -0.023212 -0.0248468 -0.0264799 -0.0281112 -0.0296297 -0.0309239 -0.0319941 -0.03284 -0.0334618 -0.0338594 -0.0340328 -0.0339821 -0.0337283 -0.0332923 -0.0326743 -0.0318742 -0.0308919 -0.0297276 -0.0283812 -0.0268527 -0.0253202 -0.0239618 -0.0227776 -0.0217675 -0.0209316 -0.0202698 -0.0197821 -0.0194686 -0.0191454 -0.0186286 -0.0179184 -0.0170146 -0.0159174 -0.0146266 -0.0131423 -0.0114645 -0.00943159 -0.00688183 -0.00381528 -0.00023192 0.00386824 0.00848521 0.013619 0.0192696 0.0249942 0.0303501 0.0353373 0.0399559 0.0442057 0.0480868 0.0515992 0.054743 0.0575162 0.059917 0.0619456 0.0636018 0.0648856 0.0657972 0.0663364 0.0665032 0.0662934 0.0657025 0.0647306 0.0633776 0.0616436 0.0595286 0.0570325 0.0541553 0.05092 0.0473495 0.0434438 0.0392028 0.0346267 0.0297153 0.0244686 0.0188868 0.0134489 0.00863437 0.00444309 0.000875097 -0.00206962 -0.00439106 -0.00608923 -0.00716411 -0.00779983 -0.0081805 -0.00830613 -0.00817671 -0.00779224 -0.00715272 -0.00625815 -0.00510854 -0.00391123 -0.00287356 -0.00199552 -0.00127714 -0.000718389 -0.000319284 -7.9821e-05 0 0 -1.0928e-05 -4.37121e-05 -9.83521e-05 -0.000174848 -0.0002732 -0.000393409 -0.000535473 -0.000699393 -0.000932087 -0.00128047 -0.00174455 -0.00232432 -0.00301978 -0.00383093 -0.00475778 -0.00580031 -0.0069427 -0.00816909 -0.00947948 -0.0108739 -0.0123523 -0.0139147 -0.0155611 -0.0172915 -0.0190683 -0.0208536 -0.0226475 -0.0244499 -0.026261 -0.0280807 -0.0299089 -0.0317457 -0.0334593 -0.0349178 -0.0361213 -0.0370697 -0.037763 -0.0382012 -0.0383844 -0.0383125 -0.0380142 -0.0375181 -0.0368241 -0.0359323 -0.0348427 -0.0335553 -0.03207 -0.0303869 -0.0287078 -0.0272345 -0.025967 -0.0249052 -0.0240492 -0.0233991 -0.0229546 -0.022716 -0.0224242 -0.0218205 -0.0209048 -0.019677 -0.0181373 -0.0162855 -0.0141218 -0.011646 -0.00865964 -0.00496394 -0.000558944 0.00455536 0.010379 0.0169119 0.0241541 0.0321056 0.0401734 0.0477644 0.0548787 0.0615163 0.0676771 0.0733611 0.0785684 0.083299 0.0875082 0.0911515 0.0942289 0.0967403 0.0986858 0.100065 0.100879 0.101127 0.100806 0.0999144 0.0984521 0.096419 0.0938152 0.0906405 0.0868951 0.0825789 0.0777613 0.072512 0.0668308 0.0607177 0.0541729 0.0471962 0.0397876 0.0319473 0.0243035 0.0174848 0.011491 0.00632227 0.00197853 -0.0015402 -0.00423392 -0.00610263 -0.00737465 -0.00827827 -0.00881349 -0.00898033 -0.00877877 -0.00820882 -0.00727047 -0.00596374 -0.00456599 -0.0033546 -0.00232958 -0.00149093 -0.00083865 -0.000372734 -9.31834e-05 0 0 -1.71264e-05 -6.85054e-05 -0.000154137 -0.000274022 -0.000428159 -0.000616549 -0.000839191 -0.00109609 -0.00142417 -0.00186039 -0.00240475 -0.00305723 -0.00381785 -0.0046866 -0.00566348 -0.00674849 -0.00791657 -0.00914267 -0.0104268 -0.0117689 -0.013169 -0.0146272 -0.0161433 -0.0177175 -0.0193348 -0.0209805 -0.0226545 -0.0243569 -0.0260876 -0.0278466 -0.029634 -0.0314497 -0.03315 -0.0345911 -0.0357729 -0.0366954 -0.0373588 -0.0377629 -0.0379078 -0.0377934 -0.037458 -0.0369399 -0.036239 -0.0353554 -0.034289 -0.0330398 -0.0316079 -0.0299932 -0.0284101 -0.0270728 -0.0259815 -0.0251361 -0.0245365 -0.0241829 -0.0240751 -0.0242133 -0.0242343 -0.0237753 -0.0228362 -0.021417 -0.0195177 -0.0171384 -0.0142789 -0.0109394 -0.0068821 -0.0018693 0.00409898 0.0110228 0.018902 0.0277368 0.037527 0.0482728 0.0591849 0.0694744 0.0791411 0.0881852 0.0966065 0.104405 0.111581 0.118134 0.123983 0.129044 0.133318 0.136804 0.139503 0.141415 0.14254 0.142877 0.142428 0.141194 0.139174 0.136369 0.132778 0.128402 0.123241 0.117294 0.110672 0.103484 0.0957309 0.0874116 0.0785265 0.0690758 0.0590593 0.0484772 0.0381448 0.0288777 0.020676 0.0135396 0.00746855 0.00246282 -0.00147759 -0.00435267 -0.00644147 -0.00802307 -0.00909745 -0.00966461 -0.00972457 -0.00927731 -0.00832284 -0.00686116 -0.00525307 -0.0038594 -0.00268014 -0.00171529 -0.00096485 -0.000428822 -0.000107206 0 0 -2.45002e-05 -9.80006e-05 -0.000220501 -0.000392002 -0.000612504 -0.000882005 -0.00120051 -0.00156801 -0.00200276 -0.00252301 -0.00312876 -0.00382 -0.00459675 -0.00545899 -0.00640672 -0.00743996 -0.00851973 -0.00960706 -0.010702 -0.0118044 -0.0129144 -0.014032 -0.0151572 -0.0162899 -0.0174552 -0.018678 -0.0199584 -0.0212963 -0.0226917 -0.0241447 -0.0256552 -0.0272233 -0.0287018 -0.0299437 -0.0309489 -0.0317174 -0.0322492 -0.0325444 -0.0326029 -0.0324247 -0.0320598 -0.0315579 -0.0309191 -0.0301434 -0.0292308 -0.0281813 -0.0269948 -0.0256715 -0.0244269 -0.0234768 -0.0228212 -0.0224601 -0.0223934 -0.0226213 -0.0231436 -0.0239604 -0.0245756 -0.024493 -0.0237127 -0.0222346 -0.0200587 -0.0171851 -0.0136138 -0.00934464 -0.00409896 0.00240208 0.0101585 0.0191703 0.0294374 0.04096 0.0537379 0.0677711 0.0820288 0.09548 0.108125 0.119963 0.130994 0.141219 0.150637 0.159249 0.16694 0.173594 0.179211 0.183793 0.187338 0.189846 0.191318 0.191754 0.19116 0.18954 0.186896 0.183227 0.178533 0.172814 0.166071 0.158302 0.149653 0.140267 0.130144 0.119284 0.107688 0.0953541 0.0822837 0.0684763 0.0549727 0.0428132 0.0319981 0.0225271 0.0144004 0.00761797 0.00217976 -0.00191421 -0.00500031 -0.0074149 -0.00915798 -0.0102296 -0.0106296 -0.0103582 -0.00941525 -0.0078008 -0.00597249 -0.00438795 -0.00304719 -0.0019502 -0.00109699 -0.00048755 -0.000121888 0 0 -3.30494e-05 -0.000132198 -0.000297445 -0.00052879 -0.000826235 -0.00118978 -0.00161942 -0.00211516 -0.00266785 -0.00326832 -0.00391658 -0.00461263 -0.00535647 -0.0061481 -0.00698752 -0.00787473 -0.00875216 -0.00956226 -0.010305 -0.0109805 -0.0115885 -0.0121293 -0.0126027 -0.0130088 -0.0134293 -0.0139461 -0.014559 -0.0152681 -0.0160734 -0.0169749 -0.0179725 -0.0190664 -0.0201147 -0.0209756 -0.0216492 -0.0221354 -0.0224342 -0.0225457 -0.0224698 -0.0222065 -0.0218194 -0.021372 -0.0208643 -0.0202964 -0.0196681 -0.0189796 -0.0182308 -0.0174218 -0.0167583 -0.0164464 -0.0164861 -0.0168773 -0.01762 -0.0187143 -0.0201601 -0.0219574 -0.023448 -0.0239736 -0.0235342 -0.0221297 -0.0197603 -0.0164258 -0.0121263 -0.00686174 -0.000310233 0.00785022 0.0176196 0.0289979 0.0419852 0.0565814 0.0727866 0.0906007 0.108705 0.125781 0.141829 0.156849 0.17084 0.183803 0.195737 0.206644 0.216379 0.224801 0.231911 0.237707 0.242189 0.245359 0.247215 0.247759 0.247001 0.244954 0.241618 0.236993 0.231079 0.223876 0.215383 0.205602 0.194704 0.18286 0.170071 0.156336 0.141656 0.126031 0.109461 0.0919449 0.0747872 0.0592913 0.0454572 0.0332848 0.0227742 0.0139253 0.00673812 0.00121273 -0.00305116 -0.00645377 -0.0089951 -0.0106752 -0.011494 -0.0114515 -0.0105477 -0.00878268 -0.00672424 -0.00494026 -0.00343073 -0.00219567 -0.00123506 -