<?xml version="1.0"?> 
<VTKFile type="StructuredGrid" version="0.1"> 
<StructuredGrid WholeExtent="0 128 0 128 0 0"> 
<Piece Extent="0 128 0 128 0 0"> 
<PointData>
<DataArray type="Float32" Name="u" format="ascii" NumberOfComponents="1"> 
0 0 0 0 0 0 0 0 0 0 0 0 0 0 0 0 0 0 0 0 0 0 0 0 0 0 0 0 0 0 0 0 0 0 0 0 0 0 0 0 0 0 0 0 0 0 0 0 0 0 0 0 0 0 0 0 0 0 0 0 0 0 0 0 0 0 0 0 0 0 0 0 0 0 0 0 0 0 0 0 0 0 0 0 0 0 0 0 0 0 0 0 0 0 0 0 0 0 0 0 0 0 0 0 0 0 0 0 0 0 0 0 0 0 0 0 0 0 0 0 0 0 0 0 0 0 0 0 0 0 -4.80703e-08 -1.92281e-07 -4.32633e-07 -7.69125e-07 -1.20176e-06 -1.73053e-06 -2.35545e-06 -3.0765e-06 -3.62782e-06 -3.74351e-06 -3.42359e-06 -2.66805e-06 -1.47689e-06 1.49895e-07 2.2123e-06 4.71032e-06 7.91648e-06 1.21033e-05 1.72708e-05 2.34189e-05 3.05477e-05 3.86571e-05 4.77473e-05 5.7818e-05 6.79079e-05 7.70554e-05 8.52605e-05 9.25232e-05 9.88435e-05 0.000104221 0.000108657 0.00011215 0.000114998 0.000117499 0.000119652 0.000121458 0.000122917 0.000124028 0.000124792 0.000125209 0.000125191 0.000124652 0.000123591 0.000122009 0.000119906 0.000117282 0.000114136 0.000110469 0.000106305 0.000101667 9.65556e-05 9.09708e-05 8.49127e-05 7.8381e-05 7.13759e-05 6.38974e-05 5.61456e-05 4.83209e-05 4.04232e-05 3.24526e-05 2.44089e-05 1.62923e-05 8.10269e-06 -1.59882e-07 -1.0033e-05 -2.3054e-05 -3.92231e-05 -5.85402e-05 -8.10054e-05 -0.000106619 -0.00013538 -0.000167289 -0.00019912 -0.000227647 -0.000252869 -0.000274788 -0.000293402 -0.000308712 -0.000320718 -0.00032942 -0.000336027 -0.000341751 -0.000346591 -0.000350546 -0.000353618 -0.000355806 -0.00035711 -0.000357531 -0.000357078 -0.000355765 -0.000353591 -0.000350556 -0.00034666 -0.000341903 -0.000336285 -0.000329806 -0.000321192 -0.000309166 -0.00029373 -0.000274883 -0.000252625 -0.000226956 -0.000197877 -0.000165387 -0.000132949 -0.000104026 -7.8618e-05 -5.67252e-05 -3.83474e-05 -2.34847e-05 -1.2137e-05 -4.30444e-06 1.23473e-06 5.70207e-06 9.0976e-06 1.14213e-05 1.26732e-05 1.28533e-05 1.19615e-05 9.99793e-06 7.65467e-06 5.62384e-06 3.90544e-06 2.49948e-06 1.40596e-06 6.24871e-07 1.56218e-07 0 0 -1.92281e-07 -7.69125e-07 -1.73053e-06 -3.0765e-06 -4.80703e-06 -6.92213e-06 -9.42179e-06 -1.2306e-05 -1.45113e-05 -1.49741e-05 -1.36944e-05 -1.06722e-05 -5.90754e-06 5.99582e-07 8.84918e-06 1.88413e-05 3.16659e-05 4.84132e-05 6.90831e-05 9.36756e-05 0.000122191 0.000154629 0.000190989 0.000231272 0.000271632 0.000308222 0.000341042 0.000370093 0.000395374 0.000416885 0.000434627 0.0004486 0.000459992 0.000469996 0.000478609 0.000485834 0.000491668 0.000496113 0.000499169 0.000500835 0.000500763 0.000498607 0.000494365 0.000488038 0.000479625 0.000469128 0.000456545 0.000441877 0.000425219 0.000406668 0.000386222 0.000363883 0.000339651 0.000313524 0.000285504 0.00025559 0.000224583 0.000193284 0.000161693 0.00012981 9.76356e-05 6.51691e-05 3.24108e-05 -6.3953e-07 -4.01318e-05 -9.22161e-05 -0.000156893 -0.000234161 -0.000324022 -0.000426474 -0.000541519 -0.000669155 -0.00079648 -0.000910587 -0.00101148 -0.00109915 -0.00117361 -0.00123485 -0.00128287 -0.00131768 -0.00134411 -0.001367 -0.00138636 -0.00140219 -0.00141447 -0.00142323 -0.00142844 -0.00143012 -0.00142831 -0.00142306 -0.00141436 -0.00140222 -0.00138664 -0.00136761 -0.00134514 -0.00131923 -0.00128477 -0.00123666 -0.00117492 -0.00109953 -0.0010105 -0.000907826 -0.000791508 -0.000661548 -0.000531795 -0.000416104 -0.000314472 -0.000226901 -0.00015339 -9.39388e-05 -4.85482e-05 -1.72178e-05 4.93891e-06 2.28083e-05 3.63904e-05 4.56852e-05 5.06928e-05 5.1413e-05 4.7846e-05 3.99917e-05 3.06187e-05 2.24953e-05 1.56218e-05 9.99793e-06 5.62384e-06 2.49948e-06 6.24871e-07 0 0 -4.32633e-07 -1.73053e-06 -3.8937e-06 -6.92213e-06 -1.08158e-05 -1.55748e-05 -2.1199e-05 -2.76885e-05 -3.26504e-05 -3.36916e-05 -3.08123e-05 -2.40124e-05 -1.3292e-05 1.34906e-06 1.99107e-05 4.23928e-05 7.12483e-05 0.00010893 0.000155437 0.00021077 0.000274929 0.000347914 0.000429725 0.000520362 0.000611171 0.000693499 0.000767344 0.000832709 0.000889591 0.000937992 0.000977912 0.00100935 0.00103498 0.00105749 0.00107687 0.00109313 0.00110625 0.00111625 0.00112313 0.00112688 0.00112672 0.00112186 0.00111232 0.00109808 0.00107916 0.00105554 0.00102723 0.000994222 0.000956743 0.000915002 0.000869 0.000818738 0.000764214 0.000705429 0.000642383 0.000575076 0.000505311 0.000434888 0.000363809 0.000292073 0.00021968 0.000146631 7.29242e-05 -1.43894e-06 -9.02966e-05 -0.000207486 -0.000353008 -0.000526862 -0.000729048 -0.000959567 -0.00121842 -0.0015056 -0.00179208 -0.00204882 -0.00227583 -0.00247309 -0.00264062 -0.00277841 -0.00288646 -0.00296478 -0.00302424 -0.00307576 -0.00311931 -0.00315492 -0.00318256 -0.00320226 -0.00321399 -0.00321778 -0.00321371 -0.00320189 -0.00318232 -0.003155 -0.00311994 -0.00307713 -0.00302657 -0.00296826 -0.00289072 -0.00278249 -0.00264357 -0.00247395 -0.00227362 -0.00204261 -0.00178089 -0.00148848 -0.00119654 -0.000936233 -0.000707562 -0.000510527 -0.000345127 -0.000211362 -0.000109233 -3.874e-05 1.11125e-05 5.13187e-05 8.18784e-05 0.000102792 0.000114059 0.000115679 0.000107654 8.99814e-05 6.8892e-05 5.06145e-05 3.5149e-05 2.24953e-05 1.26536e-05 5.62384e-06 1.40596e-06 0 0 -7.69125e-07 -3.0765e-06 -6.92213e-06 -1.2306e-05 -1.92281e-05 -2.76885e-05 -3.76871e-05 -4.9224e-05 -5.80451e-05 -5.98962e-05 -5.47774e-05 -4.26888e-05 -2.36302e-05 2.39833e-06 3.53967e-05 7.53651e-05 0.000126664 0.000193653 0.000276332 0.000374702 0.000488763 0.000618514 0.000763956 0.000925088 0.00108653 0.00123289 0.00136417 0.00148037 0.0015815 0.00166754 0.00173851 0.0017944 0.00183997 0.00187998 0.00191444 0.00194333 0.00196667 0.00198445 0.00199667 0.00200334 0.00200305 0.00199443 0.00197746 0.00195215 0.0019185 0.00187651 0.00182618 0.00176751 0.00170088 0.00162667 0.00154489 0.00145553 0.0013586 0.0012541 0.00114201 0.00102236 0.00089833 0.000773135 0.000646772 0.000519241 0.000390543 0.000260677 0.000129643 -2.55812e-06 -0.000160527 -0.000368865 -0.00062757 -0.000936644 -0.00129609 -0.0017059 -0.00216608 -0.00267662 -0.00318592 -0.00364235 -0.00404591 -0.00439661 -0.00469443 -0.0049394 -0.00513149 -0.00527071 -0.00537643 -0.00546801 -0.00554545 -0.00560874 -0.00565789 -0.0056929 -0.00571377 -0.00572049 -0.00571325 -0.00569224 -0.00565746 -0.0056089 -0.00554656 -0.00547045 -0.00538056 -0.0052769 -0.00513907 -0.00494666 -0.00469968 -0.00439812 -0.004042 -0.0036313 -0.00316603 -0.00264619 -0.00212718 -0.00166441 -0.00125789 -0.000907603 -0.000613559 -0.000375755 -0.000194193 -6.8871e-05 1.97556e-05 9.12332e-05 0.000145562 0.000182741 0.000202771 0.000205652 0.000191384 0.000159967 0.000122475 8.99814e-05 6.24871e-05 3.99917e-05 2.24953e-05 9.99793e-06 2.49948e-06 0 0 -1.20176e-06 -4.80703e-06 -1.08158e-05 -1.92281e-05 -3.0044e-05 -4.32633e-05 -5.88862e-05 -7.69125e-05 -9.06954e-05 -9.35878e-05 -8.55898e-05 -6.67012e-05 -3.69221e-05 3.74739e-06 5.53074e-05 0.000117758 0.000197912 0.000302582 0.000431769 0.000585473 0.000763692 0.000966429 0.00119368 0.00144545 0.0016977 0.00192639 0.00213151 0.00231308 0.00247109 0.00260553 0.00271642 0.00280375 0.00287495 0.00293747 0.00299131 0.00303646 0.00307293 0.00310071 0.0031198 0.00313022 0.00312977 0.00311629 0.00308978 0.00305024 0.00299766 0.00293205 0.0028534 0.00276173 0.00265762 0.00254167 0.00241389 0.00227427 0.00212282 0.00195953 0.0017844 0.00159743 0.00140364 0.00120802 0.00101058 0.000811314 0.000610223 0.000407307 0.000202567 -3.99706e-06 -0.000250824 -0.000576351 -0.000980578 -0.00146351 -0.00202513 -0.00266546 -0.00338449 -0.00418222 -0.004978 -0.00569117 -0.00632174 -0.0068697 -0.00733505 -0.0077178 -0.00801795 -0.00823549 -0.00840068 -0.00854377 -0.00866476 -0.00876366 -0.00884046 -0.00889516 -0.00892776 -0.00893826 -0.00892696 -0.00889413 -0.00883978 -0.0087639 -0.0086665 -0.00854758 -0.00840713 -0.00824516 -0.00802979 -0.00772915 -0.00734325 -0.00687207 -0.00631562 -0.00567391 -0.00494693 -0.00413467 -0.00332372 -0.00260065 -0.00196545 -0.00141813 -0.000958686 -0.000587118 -0.000303426 -0.000107611 3.08682e-05 0.000142552 0.00022744 0.000285533 0.00031683 0.000321331 0.000299038 0.000249948 0.000191367 0.000140596 9.76361e-05 6.24871e-05 3.5149e-05 1.56218e-05 3.90544e-06 0 0 -1.73053e-06 -6.92213e-06 -1.55748e-05 -2.76885e-05 -4.32633e-05 -6.22992e-05 -8.47961e-05 -0.000110754 -0.000130601 -0.000134766 -0.000123249 -9.60497e-05 -5.31679e-05 5.39624e-06 7.96427e-05 0.000169571 0.000284993 0.000435719 0.000621748 0.00084308 0.00109972 0.00139166 0.0017189 0.00208145 0.00244468 0.00277399 0.00306938 0.00333083 0.00355837 0.00375197 0.00391165 0.0040374 0.00413993 0.00422996 0.00430748 0.0043725 0.00442501 0.00446502 0.00449252 0.00450751 0.00450687 0.00448746 0.00444928 0.00439234 0.00431663 0.00422215 0.0041089 0.00397689 0.00382697 0.00366001 0.003476 0.00327495 0.00305686 0.00282172 0.00256953 0.00230031 0.00202124 0.00173955 0.00145524 0.00116829 0.000878721 0.000586522 0.000291697 -5.75577e-06 -0.000361186 -0.000829945 -0.00141203 -0.00210745 -0.00291619 -0.00383827 -0.00487367 -0.0060224 -0.00716832 -0.00819529 -0.0091033 -0.00989237 -0.0105625 -0.0111136 -0.0115458 -0.0118591 -0.012097 -0.012303 -0.0124773 -0.0126197 -0.0127303 -0.012809 -0.012856 -0.0128711 -0.0128548 -0.0128075 -0.0127293 -0.01262 -0.0124798 -0.0123085 -0.0121063 -0.011873 -0.0115629 -0.01113 -0.0105743 -0.00989578 -0.0090945 -0.00817043 -0.00712357 -0.00595393 -0.00478616 -0.00374493 -0.00283025 -0.00204211 -0.00138051 -0.000845449 -0.000436934 -0.00015496 4.44502e-05 0.000205275 0.000327514 0.000411167 0.000456235 0.000462717 0.000430614 0.000359926 0.000275568 0.000202458 0.000140596 8.99814e-05 5.06145e-05 2.24953e-05 5.62384e-06 0 0 -2.35545e-06 -9.42179e-06 -2.1199e-05 -3.76871e-05 -5.88862e-05 -8.47961e-05 -0.000115417 -0.000150749 -0.000177763 -0.000183432 -0.000167756 -0.000130734 -7.23674e-05 7.34488e-06 0.000108403 0.000230806 0.000387907 0.000593061 0.000846268 0.00114753 0.00149684 0.0018942 0.00233962 0.00283308 0.00332749 0.00377571 0.00417776 0.00453364 0.00484333 0.00510685 0.00532419 0.00549535 0.00563491 0.00575745 0.00586297 0.00595146 0.00602293 0.00607739 0.00611482 0.00613523 0.00613435 0.00610793 0.00605597 0.00597846 0.00587541 0.00574681 0.00559267 0.00541299 0.00520893 0.00498168 0.00473122 0.00445757 0.00416072 0.00384067 0.00349742 0.00313097 0.00275114 0.00236773 0.00198074 0.00159018 0.00119604 0.000798322 0.000397032 -7.83424e-06 -0.000491615 -0.00112965 -0.00192193 -0.00286847 -0.00396926 -0.00522431 -0.0066336 -0.00819715 -0.00975688 -0.0111547 -0.0123906 -0.0134646 -0.0143767 -0.0151269 -0.0157152 -0.0161416 -0.0164653 -0.0167458 -0.0169829 -0.0171768 -0.0173273 -0.0174345 -0.0174984 -0.017519 -0.0174968 -0.0174325 -0.017326 -0.0171772 -0.0169863 -0.0167532 -0.016478 -0.0161605 -0.0157384 -0.0151491 -0.0143928 -0.0134693 -0.0123786 -0.0111209 -0.00969597 -0.00810396 -0.00651449 -0.00509727 -0.00385228 -0.00277953 -0.00187902 -0.00115075 -0.000594715 -0.000210918 6.05016e-05 0.000279402 0.000445782 0.000559644 0.000620986 0.00062981 0.000586114 0.000489899 0.000375079 0.000275568 0.000191367 0.000122475 6.8892e-05 3.06187e-05 7.65467e-06 0 0 -3.0765e-06 -1.2306e-05 -2.76885e-05 -4.9224e-05 -7.69125e-05 -0.000110754 -0.000150749 -0.000196896 -0.00023218 -0.000239585 -0.00021911 -0.000170755 -9.45207e-05 9.59331e-06 0.000141587 0.00030146 0.000506654 0.000774611 0.00110533 0.00149881 0.00195505 0.00247406 0.00305582 0.00370035 0.00434611 0.00493155 0.00545667 0.00592148 0.00632598 0.00667017 0.00695404 0.0071776 0.00735988 0.00751993 0.00765775 0.00777334 0.00786669 0.00793781 0.0079867 0.00801336 0.00801221 0.00797771 0.00790984 0.0078086 0.007674 0.00750604 0.00730472 0.00707003 0.0068035 0.00650668 0.00617956 0.00582213 0.00543441 0.00501638 0.00456806 0.00408943 0.00359332 0.00309254 0.00258709 0.00207696 0.00156217 0.00104271 0.000518572 -1.02325e-05 -0.000642109 -0.00147546 -0.00251028 -0.00374658 -0.00518434 -0.00682359 -0.0086643 -0.0107065 -0.0127437 -0.0145694 -0.0161836 -0.0175864 -0.0187777 -0.0197576 -0.020526 -0.0210829 -0.0215057 -0.0218721 -0.0221818 -0.022435 -0.0226316 -0.0227716 -0.0228551 -0.022882 -0.022853 -0.022769 -0.0226298 -0.0224356 -0.0221862 -0.0218818 -0.0215222 -0.0211076 -0.0205563 -0.0197866 -0.0187987 -0.0175925 -0.016168 -0.0145252 -0.0126641 -0.0105848 -0.00850873 -0.00665766 -0.00503155 -0.00363041 -0.00245424 -0.00150302 -0.000776771 -0.000275484 7.90226e-05 0.000364933 0.000582246 0.000730964 0.000811084 0.000822609 0.000765536 0.000639868 0.000489899 0.000359926 0.000249948 0.000159967 8.99814e-05 3.99917e-05 9.99793e-06 0 0 -3.60881e-06 -1.44353e-05 -3.24793e-05 -5.7741e-05 -9.02203e-05 -0.000129917 -0.000176832 -0.000230964 -0.000272207 -0.000280452 -0.000255701 -0.000197952 -0.000107206 1.65361e-05 0.000173276 0.000363012 0.000605936 0.000922238 0.00131192 0.00177497 0.00231141 0.00292122 0.00360441 0.00436098 0.00511901 0.0058066 0.00642375 0.00697045 0.0074467 0.00785251 0.00818787 0.00845279 0.00866925 0.00885924 0.00902277 0.00915983 0.00927043 0.00935455 0.00941221 0.0094434 0.00944164 0.00940043 0.00931977 0.00919966 0.00904011 0.00884111 0.00860267 0.00832478 0.00800976 0.00765993 0.00727529 0.00685583 0.00640157 0.0059125 0.00538861 0.00482992 0.00424918 0.00365917 0.00305988 0.00245132 0.00183349 0.00120638 0.000570003 -7.5652e-05 -0.000843303 -0.00184567 -0.00308276 -0.00455457 -0.0062611 -0.00820234 -0.0103783 -0.012789 -0.0151937 -0.0173518 -0.0192632 -0.0209279 -0.0223461 -0.0235175 -0.0244423 -0.0251205 -0.0256405 -0.026091 -0.026472 -0.0267834 -0.0270252 -0.0271975 -0.0273003 -0.0273335 -0.027298 -0.0271946 -0.0270234 -0.0267843 -0.0264773 -0.0261025 -0.0256597 -0.0251492 -0.0244773 -0.0235509 -0.0223699 -0.0209343 -0.0192441 -0.0172993 -0.0150998 -0.0126458 -0.0101958 -0.00800814 -0.006083 -0.00442033 -0.00302013 -0.00188239 -0.00100713 -0.000394329 4.51693e-05 0.000400536 0.00067177 0.000858873 0.000961843 0.000980682 0.000915389 0.000765964 0.000586441 0.000430855 0.000299205 0.000191491 0.000107714 4.78727e-05 1.19682e-05 0 0 -3.6675e-06 -1.467e-05 -3.30075e-05 -5.868e-05 -9.16874e-05 -0.00013203 -0.000179707 -0.00023472 -0.000276195 -0.000283261 -0.000255918 -0.000194165 -9.80033e-05 3.25679e-05 0.000197548 0.000396938 0.000650455 0.000977814 0.00137902 0.00185406 0.00240295 0.00302569 0.00372226 0.00449269 0.00526469 0.005966 0.00659664 0.00715659 0.00764586 0.00806445 0.00841235 0.00868957 0.00891742 0.00911722 0.00928896 0.00943265 0.00954828 0.00963586 0.00969539 0.00972686 0.0097238 0.00967973 0.00959464 0.00946854 0.00930143 0.00909331 0.00884417 0.00855402 0.00822677 0.00786632 0.00747269 0.00704587 0.00658585 0.00609264 0.00556624 0.00500665 0.00442009 0.00381278 0.00318473 0.00253592 0.00186637 0.00117606 0.000465008 -0.000266794 -0.00112583 -0.00221859 -0.00354507 -0.00510526 -0.00689918 -0.00892682 -0.0111882 -0.0136833 -0.016172 -0.0184142 -0.02041 -0.0221593 -0.0236621 -0.0249185 -0.0259284 -0.0266918 -0.0272919 -0.0278119 -0.0282516 -0.0286111 -0.0288904 -0.0290895 -0.0292084 -0.0292472 -0.0292065 -0.0290871 -0.0288892 -0.0286126 -0.0282574 -0.0278236 -0.0273111 -0.02672 -0.0259624 -0.0249505 -0.0236841 -0.0221634 -0.0203883 -0.0183588 -0.0160749 -0.0135367 -0.0110025 -0.00873077 -0.00672158 -0.00497488 -0.00349069 -0.002269 -0.00130981 -0.000613121 -9.59018e-05 0.000324878 0.000649217 0.000877117 0.00100858 0.0010436 0.000982178 0.000824318 0.000631119 0.000463679 0.000321999 0.00020608 0.00011592 5.15199e-05 1.288e-05 0 0 -3.25255e-06 -1.30102e-05 -2.9273e-05 -5.20409e-05 -8.13138e-05 -0.000117092 -0.000159375 -0.000208163 -0.000244146 -0.000248012 -0.000219762 -0.000159395 -6.69112e-05 5.76887e-05 0.000214405 0.000403238 0.000640209 0.00094134 0.00130663 0.00173608 0.00222969 0.00278745 0.00340938 0.00409547 0.00478312 0.00540975 0.00597535 0.00647992 0.00692346 0.00730598 0.00762747 0.00788794 0.00810439 0.00829385 0.00845632 0.00859179 0.00870027 0.00878175 0.00883624 0.00886374 0.00885871 0.00881561 0.00873446 0.00861524 0.00845796 0.00826262 0.00802922 0.00775775 0.00745453 0.00712587 0.00677177 0.00639223 0.00598724 0.00555682 0.00510095 0.00461964 0.00410606 0.00355339 0.00296162 0.00233076 0.0016608 0.000951739 0.000203588 -0.000583659 -0.00148969 -0.0025942 -0.00389719 -0.00539866 -0.0070986 -0.00899702 -0.0110939 -0.0133893 -0.0156785 -0.0177567 -0.019624 -0.0212804 -0.022726 -0.0239605 -0.0249842 -0.025797 -0.02646 -0.0270346 -0.0275206 -0.0279181 -0.0282271 -0.0284475 -0.0285795 -0.0286229 -0.0285784 -0.0284465 -0.0282272 -0.0279206 -0.0275266 -0.0270452 -0.0264764 -0.0258202 -0.0250116 -0.0239853 -0.0227414 -0.0212798 -0.0196006 -0.0177038 -0.0155893 -0.0132572 -0.0109289 -0.00882553 -0.00694727 -0.00529407 -0.00386592 -0.00266284 -0.00168482 -0.000931861 -0.000344191 0.000137959 0.000514589 0.000785698 0.000951287 0.00101136 0.000965903 0.000814931 0.000623931 0.000458398 0.000318332 0.000203733 0.0001146 5.09332e-05 1.27333e-05 0 0 -2.36398e-06 -9.45593e-06 -2.12758e-05 -3.78237e-05 -5.90995e-05 -8.51033e-05 -0.000115835 -0.000151295 -0.000176059 -0.000174705 -0.000147232 -9.36405e-05 -1.39303e-05 9.18985e-05 0.000223846 0.000381912 0.0005752 0.000812814 0.00109475 0.00142102 0.00179161 0.00220652 0.00266576 0.00316933 0.00367432 0.00413783 0.00455987 0.00494043 0.00527951 0.00557711 0.00583324 0.00604789 0.00623016 0.00638915 0.00652484 0.00663725 0.00672638 0.00679221 0.00683477 0.00685403 0.00684636 0.00680809 0.00673922 0.00663976 0.00650971 0.00634906 0.00615781 0.00593597 0.00569305 0.00543857 0.00517253 0.00489493 0.00460576 0.00430503 0.00399274 0.00366888 0.00330709 0.00288098 0.00239056 0.00183583 0.00121678 0.000533418 -0.000214258 -0.00102625 -0.00193489 -0.00297252 -0.00413914 -0.00543475 -0.00685935 -0.00841294 -0.0100955 -0.0119071 -0.0137132 -0.0153792 -0.0169053 -0.0182914 -0.0195375 -0.0206437 -0.0216098 -0.0224359 -0.0231448 -0.0237592 -0.0242791 -0.0247044 -0.0250353 -0.0252716 -0.0254135 -0.0254608 -0.0254138 -0.0252727 -0.0250375 -0.0247082 -0.0242847 -0.0237672 -0.0231555 -0.0224498 -0.0216248 -0.0206554 -0.0195417 -0.0182836 -0.0168811 -0.0153343 -0.0136431 -0.0118076 -0.00997493 -0.00829243 -0.00676008 -0.00537788 -0.00414583 -0.00306392 -0.00213216 -0.00135055 -0.000699698 -0.00016022 0.000267884 0.000584615 0.000789972 0.000883955 0.000866565 0.000737801 0.000564879 0.000415013 0.000288204 0.00018445 0.000103753 4.61126e-05 1.15281e-05 0 0 -1.00178e-06 -4.00713e-06 -9.01604e-06 -1.60285e-05 -2.50446e-05 -3.60642e-05 -4.90874e-05 -6.41141e-05 -7.19348e-05 -6.33397e-05 -3.8329e-05 3.09739e-06 6.09395e-05 0.000135197 0.000225871 0.00033296 0.000455428 0.000592237 0.000743388 0.000908881 0.00108872 0.00128289 0.00149141 0.00171427 0.00193828 0.00215026 0.00235021 0.00253812 0.002714 0.00287785 0.00302966 0.00316944 0.00329473 0.0034031 0.00349453 0.00356904 0.00362661 0.00366725 0.00369096 0.00369774 0.00368674 0.00365714 0.00360892 0.0035421 0.00345666 0.00335261 0.00322995 0.00308868 0.00294233 0.00280442 0.00267497 0.00255395 0.00244139 0.00233727 0.0022416 0.00215437 0.00202317 0.00179556 0.00147155 0.00105114 0.00053432 -7.89024e-05 -0.000788528 -0.00159456 -0.00246142 -0.00335354 -0.00427091 -0.00521355 -0.00618144 -0.00717459 -0.00819299 -0.00923666 -0.0102761 -0.0112818 -0.0122539 -0.0131922 -0.0140969 -0.0149678 -0.0158051 -0.0166086 -0.0173463 -0.0179857 -0.018527 -0.0189701 -0.019315 -0.0195618 -0.0197103 -0.0197608 -0.0197127 -0.0195657 -0.01932 -0.0189754 -0.0185319 -0.0179897 -0.0173485 -0.0166086 -0.0158019 -0.0149607 -0.014085 -0.0131746 -0.0122297 -0.0112503 -0.0102363 -0.00918768 -0.00814069 -0.00713148 -0.00616002 -0.00522633 -0.0043304 -0.00347223 -0.00265183 -0.00186918 -0.00116242 -0.00056966 -9.08967e-05 0.000273867 0.000524632 0.000661397 0.000684164 0.00059293 0.000453962 0.000333523 0.000231613 0.000148233 8.33809e-05 3.70582e-05 9.26454e-06 0 0 8.34044e-07 3.33618e-06 7.5064e-06 1.33447e-05 2.08511e-05 3.00256e-05 4.08682e-05 5.33788e-05 6.82274e-05 8.60836e-05 0.000106947 0.000130819 0.000157698 0.000187585 0.00022048 0.000256382 0.000280892 0.00027961 0.000252536 0.00019967 0.000121011 1.65611e-05 -0.000113681 -0.000269716 -0.000424994 -0.000552969 -0.000653639 -0.000727006 -0.000773068 -0.000791827 -0.000783281 -0.000747432 -0.000701895 -0.000664286 -0.000634607 -0.000612856 -0.000599035 -0.000593142 -0.000595177 -0.000605142 -0.000620127 -0.000637222 -0.000656427 -0.000677744 -0.000701171 -0.000726709 -0.000754357 -0.000784116 -0.000797637 -0.000776573 -0.000720922 -0.000630686 -0.000505864 -0.000346456 -0.000152462 7.6118e-05 0.000254308 0.000297133 0.000204592 -2.33141e-05 -0.000386585 -0.000885222 -0.00151922 -0.00228859 -0.00306928 -0.00373725 -0.00429251 -0.00473504 -0.00506486 -0.00528195 -0.00538633 -0.00537799 -0.00536727 -0.00546451 -0.00566971 -0.00598287 -0.00640399 -0.00693308 -0.00757012 -0.00831512 -0.00906436 -0.00971408 -0.0102643 -0.010715 -0.0110662 -0.0113179 -0.0114701 -0.0115228 -0.011475 -0.0113256 -0.0110747 -0.0107222 -0.0102682 -0.00971258 -0.00905544 -0.00829675 -0.00754317 -0.00690135 -0.0063713 -0.00595302 -0.0056465 -0.00545174 -0.00536875 -0.00539753 -0.00542614 -0.00534266 -0.00514708 -0.00483941 -0.00441964 -0.00388778 -0.00324382 -0.00248777 -0.00173236 -0.00109036 -0.000561754 -0.000146544 0.000155267 0.000343682 0.000418698 0.000380318 0.000291181 0.000213929 0.000148562 9.50794e-05 5.34822e-05 2.37699e-05 5.94247e-06 0 0 3.1435e-06 1.2574e-05 2.82915e-05 5.0296e-05 7.85875e-05 0.000113166 0.000154031 0.000201184 0.000244427 0.000273565 0.000288597 0.000289524 0.000276346 0.000249062 0.000207672 0.000152178 5.15923e-05 -0.000125069 -0.000377805 -0.000706617 -0.0011115 -0.00159247 -0.00214951 -0.00278262 -0.00341551 -0.00397186 -0.00445167 -0.00485495 -0.00518169 -0.0054319 -0.00560557 -0.00570271 -0.00575972 -0.00581301 -0.00586258 -0.00590843 -0.00595055 -0.00598896 -0.00602364 -0.00605461 -0.00607426 -0.006075 -0.00605684 -0.00601977 -0.00596379 -0.00588891 -0.00579512 -0.00568242 -0.00552685 -0.00530442 -0.00501513 -0.00465899 -0.004236 -0.00374615 -0.00318944 -0.00256589 -0.0019995 -0.00161431 -0.00141032 -0.00138753 -0.00154594 -0.00188554 -0.00240635 -0.00310835 -0.00375848 -0.00412367 -0.00420392 -0.00399924 -0.00350961 -0.00273504 -0.00167553 -0.000331083 0.00101334 0.00207277 0.00284722 0.00333668 0.00354114 0.00346062 0.00309511 0.00244461 0.00170087 0.00105564 0.000508924 6.0714e-05 -0.000288987 -0.000540178 -0.00069286 -0.000747032 -0.000700822 -0.000552357 -0.000301639 5.13339e-05 0.000506561 0.00106404 0.00172378 0.00248577 0.00315158 0.00352276 0.00359933 0.00338128 0.0028686 0.00206131 0.000959393 -0.000437141 -0.00183127 -0.00292598 -0.00372126 -0.00421712 -0.00441355 -0.00431056 -0.00390814 -0.0032063 -0.00240952 -0.00172232 -0.00114469 -0.00067662 -0.000318122 -6.91917e-05 7.017e-05 9.99633e-05 7.65344e-05 5.62294e-05 3.90482e-05 2.49908e-05 1.40573e-05 6.24771e-06 1.56193e-06 0 0 5.92658e-06 2.37063e-05 5.33392e-05 9.48253e-05 0.000148165 0.000213357 0.000290402 0.000379301 0.000456665 0.000499104 0.000506621 0.000479213 0.000416882 0.000319628 0.000187449 2.03474e-05 -0.000232471 -0.000621798 -0.00114763 -0.00180998 -0.00260883 -0.0035442 -0.00461607 -0.00582445 -0.00703325 -0.0081064 -0.00904388 -0.00984571 -0.0105119 -0.0110424 -0.0114372 -0.0116964 -0.0118787 -0.0120431 -0.0121894 -0.0123177 -0.0124279 -0.0125202 -0.0125944 -0.0126507 -0.0126756 -0.0126562 -0.0125923 -0.012484 -0.0123312 -0.012134 -0.0118923 -0.0116062 -0.0112453 -0.0107791 -0.0102077 -0.00953097 -0.00874902 -0.00786181 -0.00686935 -0.00577164 -0.00473825 -0.00393876 -0.00337318 -0.00304151 -0.00294373 -0.00307986 -0.00344989 -0.00405383 -0.00452901 -0.00451279 -0.00400516 -0.00300613 -0.00151569 0.000466152 0.0029394 0.00590406 0.00886572 0.01133 0.0132969 0.0147664 0.0157385 0.0162133 0.0161906 0.0156706 0.0149494 0.0143235 0.0137927 0.0133571 0.0130167 0.0127715 0.0126215 0.0125667 0.0126099 0.0127541 0.0129992 0.0133453 0.0137923 0.0143402 0.0149891 0.015739 0.0162823 0.0163116 0.0158269 0.0148282 0.0133156 0.0112889 0.00874818 0.00569349 0.00264391 0.000118559 -0.00188257 -0.00335946 -0.00431213 -0.00474057 -0.00464479 -0.00402477 -0.0031939 -0.00246554 -0.0018397 -0.00131636 -0.000895535 -0.000577223 -0.000361422 -0.000248133 -0.000189977 -0.000139575 -9.69269e-05 -6.20332e-05 -3.48937e-05 -1.55083e-05 -3.87708e-06 0 0 8.40665e-06 3.36266e-05 7.56599e-05 0.000134506 0.000210166 0.000302639 0.000411926 0.000538026 0.000644648 0.000695501 0.000690585 0.0006299 0.000513446 0.000341224 0.000113232 -0.000170528 -0.000573803 -0.00116034 -0.00193013 -0.00288319 -0.00401951 -0.00533908 -0.00684192 -0.00852802 -0.010215 -0.0117204 -0.0130443 -0.0141867 -0.0151476 -0.0159269 -0.0165247 -0.016941 -0.0172505 -0.0175279 -0.0177733 -0.0179866 -0.0181679 -0.0183171 -0.0184342 -0.0185193 -0.0185521 -0.0185125 -0.0184004 -0.0182159 -0.017959 -0.0176296 -0.0172278 -0.0167535 -0.0161814 -0.0154861 -0.0146675 -0.0137257 -0.0126606 -0.0114723 -0.0101608 -0.00872597 -0.00735594 -0.00623868 -0.00537418 -0.00476245 -0.00440349 -0.00429729 -0.00444386 -0.0048432 -0.00498317 -0.00435163 -0.00294859 -0.000774051 0.002172 0.00588955 0.0103786 0.0156392 0.0208933 0.0253632 0.0290487 0.03195 0.034067 0.0353996 0.035948 0.0357121 0.0351227 0.0346108 0.0341764 0.0338195 0.03354 0.033338 0.0332134 0.0331664 0.0332002 0.0333185 0.0335213 0.0338084 0.0341801 0.0346361 0.0351766 0.0358015 0.0360654 0.0355231 0.0341744 0.0320195 0.0290582 0.0252906 0.0207166 0.0153364 0.0099638 0.0054128 0.00168338 -0.00122445 -0.00331068 -0.00457533 -0.00501839 -0.00463985 -0.00388827 -0.0032122 -0.00261162 -0.00208655 -0.00163697 -0.0012629 -0.000964335 -0.000741267 -0.000567533 -0.000416963 -0.000289557 -0.000185317 -0.000104241 -4.63292e-05 -1.15823e-05 0 0 9.80707e-06 3.92283e-05 8.82636e-05 0.000156913 0.000245177 0.000353055 0.000480547 0.000627653 0.000748084 0.000795552 0.000770057 0.000671599 0.000500177 0.000255791 -6.15571e-05 -0.000451869 -0.000974911 -0.00169045 -0.00259849 -0.00369902 -0.00499205 -0.00647758 -0.00815561 -0.0100261 -0.0118974 -0.0135777 -0.0150671 -0.0163654 -0.0174728 -0.0183892 -0.0191146 -0.019649 -0.0200665 -0.0204411 -0.0207726 -0.0210613 -0.021307 -0.0215097 -0.0216696 -0.0217864 -0.0218314 -0.0217755 -0.0216188 -0.0213612 -0.0210027 -0.0205434 -0.0199832 -0.0193222 -0.0185636 -0.0177108 -0.0167636 -0.0157222 -0.0145865 -0.0133565 -0.0120322 -0.0106137 -0.00924656 -0.00807649 -0.0071035 -0.00632758 -0.00574873 -0.00536696 -0.00518226 -0.00519464 -0.00472324 -0.00308723 -0.000286588 0.00367867 0.00880856 0.0151031 0.0225622 0.0311859 0.0397996 0.0472283 0.0534722 0.0585312 0.0624053 0.0650945 0.0665989 0.0669184 0.0666621 0.0664391 0.0662493 0.0660929 0.0659698 0.0658799 0.0658234 0.0658001 0.0658133 0.0658659 0.0659581 0.0660898 0.066261 0.0664718 0.0667221 0.0670119 0.0667175 0.0652151 0.0625048 0.0585864 0.0534602 0.047126 0.0395838 0.0308336 0.0220928 0.0145786 0.00829094 0.00322992 -0.000604509 -0.00321233 -0.00459356 -0.00474818 -0.00429541 -0.00385445 -0.0034253 -0.00300797 -0.00260244 -0.00220873 -0.00182683 -0.00145674 -0.00111531 -0.000819414 -0.000569037 -0.000364184 -0.000204853 -9.1046e-05 -2.27615e-05 0 0 1.01278e-05 4.05114e-05 9.11506e-05 0.000162045 0.000253196 0.000364602 0.000496264 0.000648182 0.000766974 0.000799259 0.000745037 0.000604309 0.000377073 6.33309e-05 -0.000336918 -0.000823674 -0.00143579 -0.00221213 -0.0031527 -0.00425748 -0.00552648 -0.0069597 -0.00855715 -0.0103188 -0.0120806 -0.0136783 -0.0151121 -0.0163818 -0.0174875 -0.0184292 -0.0192068 -0.0198205 -0.0203268 -0.0207824 -0.0211874 -0.0215417 -0.0218453 -0.0220982 -0.0223005 -0.0224521 -0.0225135 -0.0224453 -0.0222473 -0.0219197 -0.0214624 -0.0208754 -0.0201587 -0.0193123 -0.0183919 -0.0174531 -0.016496 -0.0155205 -0.0145266 -0.0135144 -0.0124838 -0.0114349 -0.0104101 -0.00945221 -0.00856113 -0.00773688 -0.00697945 -0.00628886 -0.00566509 -0.00510815 -0.00374924 -0.000719571 0.00398086 0.010352 0.018394 0.0281067 0.0394902 0.0525444 0.0655845 0.0769254 0.0865672 0.0945099 0.100754 0.105298 0.108143 0.10929 0.109568 0.109808 0.110012 0.110177 0.110306 0.110397 0.110451 0.110468 0.110449 0.110396 0.11031 0.110189 0.110035 0.109847 0.109626 0.10937 0.108238 0.105388 0.100818 0.0945292 0.0865216 0.0767951 0.0653496 0.0521852 0.0390309 0.0276159 0.0179401 0.0100036 0.00380639 -0.000651585 -0.0033703 -0.00434976 -0.00441531 -0.0043923 -0.00428074 -0.00408061 -0.00379193 -0.00341469 -0.00294889 -0.00239454 -0.00183332 -0.00134693 -0.000935367 -0.000598635 -0.000336732 -0.000149659 -3.74147e-05 0 0 9.36896e-06 3.74758e-05 8.43206e-05 0.000149903 0.000234224 0.000337283 0.000459079 0.000599614 0.000701317 0.000706621 0.000615526 0.000428031 0.000144136 -0.000236158 -0.000712852 -0.00128594 -0.00195645 -0.00272539 -0.00359276 -0.00455855 -0.00562278 -0.00678544 -0.00804652 -0.00940604 -0.0107644 -0.0120222 -0.0131793 -0.0142358 -0.0151917 -0.0160469 -0.0168014 -0.0174553 -0.0180313 -0.018552 -0.0190175 -0.0194278 -0.0197828 -0.0200825 -0.0203271 -0.0205163 -0.0205985 -0.0205218 -0.0202861 -0.0198915 -0.019338 -0.0186255 -0.0177541 -0.0167238 -0.0156663 -0.0147132 -0.0138647 -0.0131206 -0.0124811 -0.011946 -0.0115155 -0.0111894 -0.0108466 -0.0103658 -0.00974708 -0.00899035 -0.00809566 -0.00706298 -0.00589234 -0.00458372 -0.00206115 0.00275133 0.00985374 0.0192461 0.0309283 0.0449005 0.0611626 0.0797146 0.098248 0.114454 0.128334 0.139886 0.149112 0.15601 0.160581 0.162826 0.163839 0.164718 0.165463 0.166073 0.166549 0.16689 0.167097 0.16717 0.167107 0.166909 0.166576 0.166107 0.165503 0.164763 0.163887 0.162876 0.160628 0.156041 0.149114 0.139848 0.128242 0.114298 0.0980141 0.079391 0.0607781 0.0445247 0.0306309 0.0190967 0.00992202 0.00310692 -0.00134862 -0.00344459 -0.00424798 -0.00482576 -0.00517793 -0.00530449 -0.00520545 -0.0048808 -0.00433054 -0.00355468 -0.00272155 -0.00199951 -0.00138855 -0.000888669 -0.000499876 -0.000222167 -5.55418e-05 0 0 7.53043e-06 3.01217e-05 6.77739e-05 0.000120487 0.000188261 0.000271095 0.000368991 0.000481948 0.000551114 0.0005176