<?xml version="1.0"?> 
<VTKFile type="StructuredGrid" version="0.1"> 
<StructuredGrid WholeExtent="0 128 0 128 0 0"> 
<Piece Extent="0 128 0 128 0 0"> 
<PointData>
<DataArray type="Float32" Name="u" format="ascii" NumberOfComponents="1"> 
0 0 0 0 0 0 0 0 0 0 0 0 0 0 0 0 0 0 0 0 0 0 0 0 0 0 0 0 0 0 0 0 0 0 0 0 0 0 0 0 0 0 0 0 0 0 0 0 0 0 0 0 0 0 0 0 0 0 0 0 0 0 0 0 0 0 0 0 0 0 0 0 0 0 0 0 0 0 0 0 0 0 0 0 0 0 0 0 0 0 0 0 0 0 0 0 0 0 0 0 0 0 0 0 0 0 0 0 0 0 0 0 0 0 0 0 0 0 0 0 0 0 0 0 0 0 0 0 0 0 1.00445e-07 4.0178e-07 9.04005e-07 1.60712e-06 2.51113e-06 3.61602e-06 4.92181e-06 6.42848e-06 7.86947e-06 8.97818e-06 9.75463e-06 1.01988e-05 1.03107e-05 1.00903e-05 9.53771e-06 8.65281e-06 7.46042e-06 5.98534e-06 4.22756e-06 2.18708e-06 -1.36093e-07 -2.74196e-06 -5.63053e-06 -8.80179e-06 -1.20102e-05 -1.50102e-05 -1.78017e-05 -2.03848e-05 -2.27595e-05 -2.49258e-05 -2.68836e-05 -2.8633e-05 -3.01704e-05 -3.14921e-05 -3.25982e-05 -3.34886e-05 -3.41634e-05 -3.46226e-05 -3.48661e-05 -3.4894e-05 -3.46285e-05 -3.39918e-05 -3.29841e-05 -3.16052e-05 -2.98552e-05 -2.77341e-05 -2.52418e-05 -2.23785e-05 -1.9554e-05 -1.71786e-05 -1.52521e-05 -1.37746e-05 -1.2746e-05 -1.21665e-05 -1.20359e-05 -1.23543e-05 -1.36678e-05 -1.65226e-05 -2.09188e-05 -2.68562e-05 -3.43349e-05 -4.3355e-05 -5.39163e-05 -6.60189e-05 -7.94899e-05 -9.41562e-05 -0.000110018 -0.000127075 -0.000145327 -0.000164775 -0.000185417 -0.000207256 -0.000229687 -0.00025211 -0.000274525 -0.000296931 -0.000319328 -0.000341716 -0.000364097 -0.000386468 -0.00040742 -0.000425541 -0.00044083 -0.000453289 -0.000462917 -0.000469713 -0.000473679 -0.000474813 -0.000473184 -0.000468856 -0.00046183 -0.000452106 -0.000439684 -0.000424565 -0.000406747 -0.000386231 -0.000364418 -0.000342707 -0.000321097 -0.000299591 -0.000278186 -0.000256884 -0.000235683 -0.000214585 -0.000194016 -0.000174402 -0.000155743 -0.000138039 -0.00012129 -0.000105496 -9.06567e-05 -7.67728e-05 -6.40236e-05 -5.25884e-05 -4.24674e-05 -3.36605e-05 -2.61677e-05 -1.99889e-05 -1.51243e-05 -1.15738e-05 -8.86121e-06 -6.51028e-06 -4.52102e-06 -2.89346e-06 -1.62757e-06 -7.23364e-07 -1.80841e-07 0 0 4.0178e-07 1.60712e-06 3.61602e-06 6.42848e-06 1.00445e-05 1.44641e-05 1.96872e-05 2.57139e-05 3.14779e-05 3.59127e-05 3.90185e-05 4.07952e-05 4.12428e-05 4.03614e-05 3.81509e-05 3.46112e-05 2.98417e-05 2.39413e-05 1.69102e-05 8.74832e-06 -5.44372e-07 -1.09679e-05 -2.25221e-05 -3.52072e-05 -4.80408e-05 -6.00406e-05 -7.12068e-05 -8.15393e-05 -9.1038e-05 -9.97031e-05 -0.000107534 -0.000114532 -0.000120682 -0.000125968 -0.000130393 -0.000133955 -0.000136654 -0.00013849 -0.000139464 -0.000139576 -0.000138514 -0.000135967 -0.000131936 -0.000126421 -0.000119421 -0.000110936 -0.000100967 -8.95139e-05 -7.82161e-05 -6.87143e-05 -6.10083e-05 -5.50983e-05 -5.09841e-05 -4.86659e-05 -4.81435e-05 -4.94171e-05 -5.46712e-05 -6.60905e-05 -8.36751e-05 -0.000107425 -0.00013734 -0.00017342 -0.000215665 -0.000264076 -0.00031796 -0.000376625 -0.000440071 -0.000508299 -0.000581308 -0.000659098 -0.00074167 -0.000829022 -0.000918749 -0.00100844 -0.0010981 -0.00118772 -0.00127731 -0.00136687 -0.00145639 -0.00154587 -0.00162968 -0.00170216 -0.00176332 -0.00181316 -0.00185167 -0.00187885 -0.00189472 -0.00189925 -0.00189273 -0.00187542 -0.00184732 -0.00180842 -0.00175874 -0.00169826 -0.00162699 -0.00154493 -0.00145767 -0.00137083 -0.00128439 -0.00119836 -0.00111274 -0.00102753 -0.000942734 -0.000858342 -0.000776064 -0.000697607 -0.000622971 -0.000552154 -0.000485158 -0.000421982 -0.000362627 -0.000307091 -0.000256094 -0.000210354 -0.00016987 -0.000134642 -0.000104671 -7.99558e-05 -6.04973e-05 -4.62953e-05 -3.54448e-05 -2.60411e-05 -1.80841e-05 -1.15738e-05 -6.51028e-06 -2.89346e-06 -7.23364e-07 0 0 9.04005e-07 3.61602e-06 8.13605e-06 1.44641e-05 2.26001e-05 3.25442e-05 4.42963e-05 5.78563e-05 7.08252e-05 8.08037e-05 8.77917e-05 9.17893e-05 9.27964e-05 9.08131e-05 8.58394e-05 7.78753e-05 6.71438e-05 5.3868e-05 3.8048e-05 1.96837e-05 -1.22484e-06 -2.46777e-05 -5.06748e-05 -7.92161e-05 -0.000108092 -0.000135091 -0.000160215 -0.000183463 -0.000204836 -0.000224332 -0.000241952 -0.000257697 -0.000271533 -0.000283429 -0.000293384 -0.000301398 -0.000307471 -0.000311603 -0.000313795 -0.000314046 -0.000311656 -0.000305927 -0.000296857 -0.000284447 -0.000268697 -0.000249607 -0.000227177 -0.000201406 -0.000175986 -0.000154607 -0.000137269 -0.000123971 -0.000114714 -0.000109498 -0.000108323 -0.000111188 -0.00012301 -0.000148704 -0.000188269 -0.000241706 -0.000309014 -0.000390195 -0.000485247 -0.000594171 -0.000715409 -0.000847406 -0.00099016 -0.00114367 -0.00130794 -0.00148297 -0.00166876 -0.0018653 -0.00206718 -0.00226899 -0.00247072 -0.00267237 -0.00287395 -0.00307545 -0.00327687 -0.00347821 -0.00366678 -0.00382987 -0.00396747 -0.0040796 -0.00416625 -0.00422742 -0.00426311 -0.00427332 -0.00425865 -0.0042197 -0.00415647 -0.00406895 -0.00395716 -0.00382108 -0.00366072 -0.00347608 -0.00327976 -0.00308436 -0.00288988 -0.00269632 -0.00250367 -0.00231195 -0.00212115 -0.00193127 -0.00174615 -0.00156962 -0.00140168 -0.00124235 -0.00109161 -0.00094946 -0.00081591 -0.000690955 -0.000576212 -0.000473296 -0.000382207 -0.000302944 -0.000235509 -0.000179901 -0.000136119 -0.000104164 -7.97509e-05 -5.85925e-05 -4.06892e-05 -2.60411e-05 -1.46481e-05 -6.51028e-06 -1.62757e-06 0 0 1.60712e-06 6.42848e-06 1.44641e-05 2.57139e-05 4.0178e-05 5.78563e-05 7.87489e-05 0.000102856 0.000125911 0.000143651 0.000156074 0.000163181 0.000164971 0.000161446 0.000152603 0.000138445 0.000119367 9.57654e-05 6.76409e-05 3.49933e-05 -2.17749e-06 -4.38714e-05 -9.00885e-05 -0.000140829 -0.000192163 -0.000240163 -0.000284827 -0.000326157 -0.000364152 -0.000398812 -0.000430138 -0.000458128 -0.000482726 -0.000503874 -0.000521571 -0.000535818 -0.000546615 -0.000553961 -0.000557858 -0.000558304 -0.000554056 -0.000543869 -0.000527745 -0.000505683 -0.000477683 -0.000443745 -0.000403869 -0.000358056 -0.000312865 -0.000274857 -0.000244033 -0.000220393 -0.000203937 -0.000194664 -0.000192574 -0.000197668 -0.000218685 -0.000264362 -0.0003347 -0.000429699 -0.000549359 -0.00069368 -0.000862661 -0.0010563 -0.00127184 -0.0015065 -0.00176028 -0.0020332 -0.00232523 -0.00263639 -0.00296668 -0.00331609 -0.003675 -0.00403376 -0.00439239 -0.00475089 -0.00510924 -0.00546746 -0.00582555 -0.00618349 -0.00651872 -0.00680865 -0.00705328 -0.00725262 -0.00740667 -0.00751541 -0.00757886 -0.00759702 -0.00757094 -0.00750169 -0.00738928 -0.0072337 -0.00703495 -0.00679303 -0.00650795 -0.0061797 -0.00583068 -0.0054833 -0.00513756 -0.00479345 -0.00445098 -0.00411014 -0.00377093 -0.00343337 -0.00310426 -0.00279043 -0.00249188 -0.00220862 -0.00194063 -0.00168793 -0.00145051 -0.00122837 -0.00102438 -0.000841415 -0.000679479 -0.000538568 -0.000418683 -0.000319823 -0.000241989 -0.000185181 -0.000141779 -0.000104164 -7.23364e-05 -4.62953e-05 -2.60411e-05 -1.15738e-05 -2.89346e-06 0 0 2.51113e-06 1.00445e-05 2.26001e-05 4.0178e-05 6.27782e-05 9.04005e-05 0.000123045 0.000160712 0.000196737 0.000224455 0.000243866 0.00025497 0.000257768 0.000252259 0.000238443 0.00021632 0.000186511 0.000149633 0.000105689 5.4677e-05 -3.40233e-06 -6.85491e-05 -0.000140763 -0.000220045 -0.000300255 -0.000375254 -0.000445043 -0.00050962 -0.000568988 -0.000623144 -0.00067209 -0.000715825 -0.000754259 -0.000787303 -0.000814955 -0.000837216 -0.000854086 -0.000865565 -0.000871653 -0.000872349 -0.000865712 -0.000849796 -0.000824602 -0.00079013 -0.00074638 -0.000693352 -0.000631046 -0.000559462 -0.000488851 -0.000429464 -0.000381302 -0.000344364 -0.000318651 -0.000304162 -0.000300897 -0.000308857 -0.000341695 -0.000413066 -0.000522969 -0.000671405 -0.000858373 -0.00108387 -0.00134791 -0.00165047 -0.00198725 -0.0023539 -0.00275044 -0.00317687 -0.00363317 -0.00411936 -0.00463544 -0.00518139 -0.00574218 -0.00630276 -0.00686312 -0.00742326 -0.00798319 -0.00854291 -0.00910242 -0.0096617 -0.0101855 -0.0106385 -0.0110208 -0.0113322 -0.0115729 -0.0117428 -0.011842 -0.0118703 -0.0118296 -0.0117214 -0.0115457 -0.0113027 -0.0109921 -0.0106141 -0.0101687 -0.00965578 -0.00911044 -0.00856766 -0.00802744 -0.00748977 -0.00695465 -0.00642209 -0.00589209 -0.00536464 -0.0048504 -0.00436005 -0.00389357 -0.00345096 -0.00303224 -0.00263739 -0.00226642 -0.00191932 -0.00160059 -0.00131471 -0.00106169 -0.000841512 -0.000654192 -0.000499724 -0.000378108 -0.000289346 -0.00022153 -0.000162757 -0.000113026 -7.23364e-05 -4.06892e-05 -1.80841e-05 -4.52102e-06 0 0 3.61602e-06 1.44641e-05 3.25442e-05 5.78563e-05 9.04005e-05 0.000130177 0.000177185 0.000231425 0.000283301 0.000323215 0.000351167 0.000367157 0.000371186 0.000363252 0.000343358 0.000311501 0.000268575 0.000215472 0.000152192 7.87349e-05 -4.89935e-06 -9.87107e-05 -0.000202699 -0.000316864 -0.000432367 -0.000540366 -0.000640861 -0.000733853 -0.000819342 -0.000897328 -0.00096781 -0.00103079 -0.00108613 -0.00113372 -0.00117353 -0.00120559 -0.00122988 -0.00124641 -0.00125518 -0.00125618 -0.00124662 -0.00122371 -0.00118743 -0.00113779 -0.00107479 -0.000998427 -0.000908706 -0.000805625 -0.000703945 -0.000618428 -0.000549075 -0.000495884 -0.000458857 -0.000437993 -0.000433292 -0.000444754 -0.000492041 -0.000594815 -0.000753076 -0.000966823 -0.00123606 -0.00156078 -0.00194099 -0.00237668 -0.00286164 -0.00338962 -0.00396064 -0.00457469 -0.00523177 -0.00593188 -0.00667503 -0.0074612 -0.00826874 -0.00907597 -0.00988289 -0.0106895 -0.0114958 -0.0123018 -0.0131075 -0.0139129 -0.0146671 -0.0153195 -0.0158699 -0.0163184 -0.016665 -0.0169097 -0.0170524 -0.0170933 -0.0170346 -0.0168788 -0.0166259 -0.0162758 -0.0158286 -0.0152843 -0.0146429 -0.0139043 -0.013119 -0.0123374 -0.0115595 -0.0107853 -0.0100147 -0.00924781 -0.0084846 -0.00772508 -0.00698458 -0.00627847 -0.00560674 -0.00496939 -0.00436642 -0.00379784 -0.00326364 -0.00276382 -0.00230485 -0.00189318 -0.00152883 -0.00121178 -0.000942036 -0.000719602 -0.000544476 -0.000416658 -0.000319004 -0.00023437 -0.000162757 -0.000104164 -5.85925e-05 -2.60411e-05 -6.51028e-06 0 0 4.92181e-06 1.96872e-05 4.42963e-05 7.87489e-05 0.000123045 0.000177185 0.000241169 0.000314996 0.000385604 0.000439931 0.000477977 0.000499741 0.000505225 0.000494427 0.000467348 0.000423988 0.000365561 0.000293282 0.00020715 0.000107167 -6.66856e-06 -0.000134356 -0.000275896 -0.000431288 -0.000588499 -0.000735498 -0.000872283 -0.000998856 -0.00111522 -0.00122136 -0.0013173 -0.00140302 -0.00147835 -0.00154311 -0.00159731 -0.00164094 -0.00167401 -0.00169651 -0.00170844 -0.00170981 -0.00169679 -0.0016656 -0.00161622 -0.00154865 -0.00146291 -0.00135897 -0.00123685 -0.00109655 -0.000958148 -0.00084175 -0.000747352 -0.000674954 -0.000624556 -0.000596157 -0.000589758 -0.00060536 -0.000669723 -0.000809609 -0.00102502 -0.00131595 -0.00168241 -0.00212439 -0.0026419 -0.00323493 -0.00389501 -0.00461365 -0.00539087 -0.00622666 -0.00712102 -0.00807395 -0.00908545 -0.0101555 -0.0112547 -0.0123534 -0.0134517 -0.0145496 -0.0156471 -0.0167441 -0.0178407 -0.0189369 -0.0199636 -0.0208515 -0.0216007 -0.0222112 -0.0226829 -0.0230159 -0.0232103 -0.0232659 -0.023186 -0.0229739 -0.0226297 -0.0221532 -0.0215445 -0.0208037 -0.0199306 -0.0189253 -0.0178565 -0.0167926 -0.0157338 -0.0146799 -0.0136311 -0.0125873 -0.0115485 -0.0105147 -0.00950679 -0.00854569 -0.00763139 -0.00676389 -0.00594319 -0.00516928 -0.00444218 -0.00376187 -0.00313716 -0.00257683 -0.0020809 -0.00164936 -0.00128222 -0.000979458 -0.000741092 -0.000567117 -0.000434199 -0.000319004 -0.00022153 -0.000141779 -7.97509e-05 -3.54448e-05 -8.86121e-06 0 0 6.42848e-06 2.57139e-05 5.78563e-05 0.000102856 0.000160712 0.000231425 0.000314996 0.000411423 0.000503646 0.000574604 0.000624296 0.000652724 0.000659886 0.000645782 0.000610414 0.00055378 0.000477467 0.000383062 0.000270564 0.000139973 -8.70996e-06 -0.000175486 -0.000360354 -0.000563315 -0.000768652 -0.00096065 -0.00113931 -0.00130463 -0.00145661 -0.00159525 -0.00172055 -0.00183251 -0.0019309 -0.00201549 -0.00208628 -0.00214327 -0.00218646 -0.00221585 -0.00223143 -0.00223321 -0.00221622 -0.00217548 -0.00211098 -0.00202273 -0.00191073 -0.00177498 -0.00161548 -0.00143222 -0.00125146 -0.00109943 -0.000976133 -0.000881572 -0.000815746 -0.000778654 -0.000770297 -0.000790674 -0.00087474 -0.00105745 -0.0013388 -0.0017188 -0.00219744 -0.00277472 -0.00345064 -0.00422521 -0.00508735 -0.006026 -0.00704114 -0.00813278 -0.00930092 -0.0105456 -0.0118667 -0.0132644 -0.0147 -0.0161351 -0.0175696 -0.0190036 -0.020437 -0.0218699 -0.0233022 -0.024734 -0.0260749 -0.0272346 -0.0282131 -0.0290105 -0.0296267 -0.0300616 -0.0303154 -0.0303881 -0.0302837 -0.0300068 -0.0295571 -0.0289348 -0.0281398 -0.0271721 -0.0260318 -0.0247188 -0.0233227 -0.0219332 -0.0205502 -0.0191738 -0.0178039 -0.0164406 -0.0150837 -0.0137335 -0.012417 -0.0111617 -0.00996753 -0.00883447 -0.00776253 -0.00675172 -0.00580203 -0.00491346 -0.00409751 -0.00336566 -0.00271791 -0.00215427 -0.00167473 -0.00127929 -0.000967957 -0.000740725 -0.000567117 -0.000416658 -0.000289346 -0.000185181 -0.000104164 -4.62953e-05 -1.15738e-05 0 0 7.68613e-06 3.07445e-05 6.91751e-05 0.000122978 0.000192153 0.000276701 0.00037662 0.000491912 0.000601209 0.000683142 0.000737713 0.00076492 0.000764764 0.000737246 0.000682364 0.000600119 0.000492633 0.000362028 0.000208303 3.14586e-05 -0.000168505 -0.000391589 -0.000637792 -0.000907114 -0.00117992 -0.00143658 -0.00167708 -0.00190144 -0.00210965 -0.0023017 -0.00247761 -0.00263737 -0.00277905 -0.00290075 -0.00300246 -0.00308418 -0.00314591 -0.00318765 -0.0032094 -0.00321116 -0.00318716 -0.00313161 -0.0030445 -0.00292585 -0.00277566 -0.00259391 -0.00238062 -0.00213578 -0.00189383 -0.00168921 -0.00152193 -0.00139198 -0.00129936 -0.00124408 -0.00122613 -0.00124551 -0.0013415 -0.00155338 -0.00188116 -0.00232482 -0.00288437 -0.0035598 -0.00435113 -0.00525835 -0.00626549 -0.00735659 -0.00853166 -0.00979069 -0.0111337 -0.0125606 -0.0140716 -0.0156664 -0.0173062 -0.0189517 -0.0206031 -0.0222602 -0.0239231 -0.0255919 -0.0272664 -0.0289467 -0.0305233 -0.0318869 -0.0330374 -0.0339747 -0.034699 -0.0352101 -0.0355082 -0.0355932 -0.0354703 -0.0351447 -0.0346166 -0.0338858 -0.0329523 -0.0318162 -0.0304775 -0.0289361 -0.0273004 -0.0256785 -0.0240705 -0.0224763 -0.020896 -0.0193295 -0.0177769 -0.0162382 -0.0147383 -0.0133022 -0.0119298 -0.0106213 -0.00937661 -0.0081957 -0.00707858 -0.00602527 -0.00505254 -0.00417717 -0.00339919 -0.00271857 -0.00213532 -0.00164944 -0.00126094 -0.0009698 -0.000742503 -0.000545513 -0.000378828 -0.00024245 -0.000136378 -6.06125e-05 -1.51531e-05 0 0 8.24482e-06 3.29793e-05 7.42034e-05 0.000131917 0.00020612 0.000296813 0.000403996 0.000527668 0.000642074 0.000721455 0.000765813 0.000775148 0.000749458 0.000688745 0.000593009 0.000462248 0.000299399 0.000107396 -0.000113761 -0.000364072 -0.000643536 -0.000952155 -0.00128993 -0.00165685 -0.0020294 -0.00238404 -0.00272076 -0.00303957 -0.00334046 -0.00362344 -0.00388851 -0.00413567 -0.00435804 -0.00454876 -0.00470783 -0.00483525 -0.00493102 -0.00499513 -0.00502759 -0.0050284 -0.00499186 -0.00491225 -0.00478958 -0.00462385 -0.00441506 -0.00416321 -0.0038683 -0.00353033 -0.00319521 -0.00290885 -0.00267125 -0.00248241 -0.00234233 -0.00225102 -0.00220847 -0.00221468 -0.00230442 -0.00251247 -0.00283882 -0.00328348 -0.00384644 -0.0045277 -0.00532727 -0.00624514 -0.00725622 -0.00833539 -0.00948266 -0.010698 -0.0119815 -0.0133331 -0.0147527 -0.0162405 -0.0177748 -0.0193343 -0.0209188 -0.0225284 -0.0241632 -0.025823 -0.0275079 -0.0292179 -0.0308313 -0.0322265 -0.0334035 -0.0343622 -0.0351026 -0.0356248 -0.0359288 -0.0360145 -0.035888 -0.0355553 -0.0350164 -0.0342713 -0.0333199 -0.0321624 -0.0307987 -0.0292288 -0.027572 -0.0259478 -0.0243561 -0.0227969 -0.0212703 -0.0197762 -0.0183146 -0.0168856 -0.0154935 -0.0141426 -0.012833 -0.0115647 -0.0103376 -0.00915179 -0.00800724 -0.00690395 -0.00586886 -0.00492889 -0.00408404 -0.00333432 -0.00267972 -0.00212024 -0.00165589 -0.00128666 -0.000985102 -0.000723748 -0.000502603 -0.000321666 -0.000180937 -8.04165e-05 -2.01041e-05 0 0 8.10456e-06 3.24182e-05 7.2941e-05 0.000129673 0.000202614 0.000291764 0.000397123 0.000518692 0.000626241 0.000689543 0.000708598 0.000683406 0.000613967 0.000500281 0.000342347 0.000140167 -0.000102235 -0.000380833 -0.000695627 -0.00104662 -0.0014338 -0.00185719 -0.00231676 -0.00281254 -0.00331709 -0.00380302 -0.00427033 -0.004719 -0.00514905 -0.00556047 -0.00595326 -0.00632742 -0.00666788 -0.00695954 -0.00720242 -0.0073965 -0.00754179 -0.0076383 -0.00768601 -0.00768494 -0.00763032 -0.00751741 -0.00734622 -0.00711673 -0.00682895 -0.00648288 -0.00607853 -0.00561588 -0.00515559 -0.00475833 -0.00442409 -0.00415287 -0.00394466 -0.00379948 -0.00371732 -0.00369818 -0.0037635 -0.0039347 -0.00421179 -0.00459478 -0.00508365 -0.00567841 -0.00637906 -0.0071856 -0.00805954 -0.00896238 -0.00989413 -0.0108548 -0.0118443 -0.0128628 -0.0139102 -0.0149865 -0.0161059 -0.0172826 -0.0185167 -0.0198082 -0.021157 -0.0225632 -0.0240267 -0.0255476 -0.0269988 -0.0282535 -0.0293115 -0.0301728 -0.0308376 -0.0313057 -0.0315772 -0.031652 -0.0315369 -0.0312384 -0.0307565 -0.0300913 -0.0292427 -0.0282107 -0.0269954 -0.0255967 -0.0241376 -0.022741 -0.021407 -0.0201356 -0.0189268 -0.0177806 -0.0166969 -0.0156757 -0.0146827 -0.0136831 -0.012677 -0.0116645 -0.0106455 -0.00961998 -0.00858799 -0.00754951 -0.00654647 -0.0056208 -0.00477248 -0.00400152 -0.00330793 -0.0026917 -0.00215283 -0.00169132 -0.00129491 -0.000951365 -0.00066067 -0.000422829 -0.000237841 -0.000105707 -2.64268e-05 0 0 7.26534e-06 2.90614e-05 6.53881e-05 0.000116245 0.000181634 0.000261552 0.000356002 0.000464982 0.000553711 0.000587406 0.000566068 0.000489696 0.000358291 0.000171852 -6.96201e-05 -0.000366126 -0.000712271 -0.00110266 -0.0015373 -0.00201618 -0.00253931 -0.00310668 -0.0037183 -0.00437416 -0.005043 -0.00569354 -0.00632579 -0.00693975 -0.00753541 -0.00811278 -0.00867185 -0.00921262 -0.00970855 -0.0101331 -0.0104862 -0.0107679 -0.0109782 -0.0111171 -0.0111847 -0.0111808 -0.0111025 -0.0109471 -0.0107144 -0.0104045 -0.0100173 -0.00955293 -0.00901129 -0.00839242 -0.00777499 -0.00723767 -0.00678045 -0.00640335 -0.00610635 -0.00588946 -0.00575269 -0.00569602 -0.00571873 -0.00582008 -0.00600007 -0.00625872 -0.006596 -0.00701193 -0.0075065 -0.00807972 -0.00867545 -0.00923757 -0.00976608 -0.010261 -0.0107223 -0.0111499 -0.011544 -0.0119044 -0.0122994 -0.0127968 -0.0133969 -0.0140995 -0.0149047 -0.0158125 -0.0168229 -0.0179358 -0.0190259 -0.0199677 -0.0207613 -0.0214067 -0.0219038 -0.0222527 -0.0224534 -0.0225058 -0.022417 -0.0221941 -0.021837 -0.0213459 -0.0207206 -0.0199611 -0.0190675 -0.0180398 -0.016997 -0.0160582 -0.0152234 -0.0144925 -0.0138656 -0.0133426 -0.0129236 -0.0126086 -0.0123058 -0.0119236 -0.0114619 -0.0109208 -0.0103003 -0.00960029 -0.00882085 -0.00796196 -0.00708539 -0.0062529 -0.0054645 -0.00472018 -0.00401995 -0.0033638 -0.00275174 -0.00218376 -0.00167194 -0.00122836 -0.00085303 -0.000545939 -0.000307091 -0.000136485 -3.41212e-05 0 0 5.72717e-06 2.29087e-05 5.15446e-05 9.16348e-05 0.000143179 0.000206178 0.000280631 0.000366539 0.000424483 0.000415043 0.000338221 0.000194017 -1.75706e-05 -0.000296541 -0.000642893 -0.00105663 -0.00153071 -0.00205809 -0.00263877 -0.00327276 -0.00396004 -0.00470063 -0.00549453 -0.00634172 -0.00720711 -0.00805559 -0.00888716 -0.00970181 -0.0104995 -0.0112804 -0.0120443 -0.0127913 -0.0134801 -0.0140694 -0.0145592 -0.0149495 -0.0152403 -0.0154317 -0.0155235 -0.0155159 -0.0154085 -0.0152013 -0.0148942 -0.0144871 -0.0139802 -0.0133733 -0.0126666 -0.01186 -0.0110534 -0.0103469 -0.00974034 -0.00923385 -0.0088274 -0.00852097 -0.00831456 -0.00820819 -0.00817011 -0.0081686 -0.00820367 -0.0082753 -0.00838349 -0.00852826 -0.0087096 -0.0089275 -0.00910396 -0.00916097 -0.00909851 -0.00891659 -0.00861522 -0.00819439 -0.0076541 -0.00699436 -0.00635525 -0.0058769 -0.00555929 -0.00540243 -0.00540631 -0.00557095 -0.00589633 -0.00638245 -0.00691241 -0.00736928 -0.00775307 -0.00806377 -0.00830138 -0.00846591 -0.00855735 -0.0085757 -0.00852826 -0.00842233 -0.0082579 -0.00803497 -0.00775355 -0.00741362 -0.00701521 -0.00655829 -0.00615049 -0.00589941 -0.00580505 -0.00586742 -0.00608651 -0.00646232 -0.00699485 -0.00768411 -0.00836292 -0.00886412 -0.00918769 -0.00933364 -0.00930198 -0.0090927 -0.0087058 -0.00814128 -0.0074856 -0.00682521 -0.00616011 -0.0054903 -0.00481579 -0.00413656 -0.00345263 -0.00276399 -0.00211618 -0.00155474 -0.00107968 -0.000690996 -0.000388685 -0.000172749 -4.31873e-05 0 0 3.49005e-06 1.39602e-05 3.14105e-05 5.58408e-05 8.72513e-05 0.000125642 0.000171013 0.000223363 0.000238557 0.000172456 2.50595e-05 -0.000203631 -0.000513617 -0.000904897 -0.00137747 -0.00193134 -0.00255754 -0.00324711 -0.00400005 -0.00481635 -0.00569602 -0.00663905 -0.00764546 -0.00871523 -0.00980944 -0.0108892 -0.0119544 -0.0130052 -0.0140415 -0.0150632 -0.0160706 -0.0170634 -0.0179824 -0.0187684 -0.0194214 -0.0199413 -0.0203281 -0.0205819 -0.0207026 -0.0206903 -0.0205483 -0.02028 -0.0198855 -0.0193646 -0.0187175 -0.0179441 -0.0170445 -0.0160185 -0.0149908 -0.0140859 -0.0133038 -0.0126444 -0.0121078 -0.011694 -0.011403 -0.0112347 -0.0111177 -0.0109803 -0.0108226 -0.0106445 -0.0104461 -0.0102274 -0.00998834 -0.00972895 -0.00934507 -0.00873255 -0.00789141 -0.00682164 -0.00552324 -0.0039962 -0.00224054 -0.000256247 0.00172642 0.00347721 0.00499611 0.00628313 0.00733827 0.00816153 0.0087529 0.0091124 0.00934154 0.00954184 0.00971331 0.00985594 0.00996975 0.0100547 0.0101109 0.0101382 0.0101293 0.0100768 0.00998089 0.00984138 0.00965834 0.00943176 0.00916164 0.00884798 0.00840212 0.00773543 0.0068479 0.00573953 0.00441032 0.00286027 0.00108938 -0.000902356 -0.00285401 -0.00450465 -0.0058543 -0.00690294 -0.00765058 -0.00809722 -0.00824285 -0.00808748 -0.00774711 -0.00733771 -0.0068593 -0.00631187 -0.00569543 -0.00500997 -0.00425549 -0.003432 -0.00262763 -0.0019305 -0.00134063 -0.000858001 -0.000482625 -0.0002145 -5.3625e-05 0 0 5.53978e-07 2.21591e-06 4.98581e-06 8.86365e-06 1.38495e-05 1.99432e-05 2.71449e-05 3.54546e-05 -4.06658e-06 -0.000140357 -0.000373418 -0.000703248 -0.00112985 -0.00165322 -0.00227336 -0.00299027 -0.00379278 -0.00466973 -0.00562113 -0.00664696 -0.00774723 -0.00892194 -0.0101711 -0.0114947 -0.01285 -0.0141943 -0.0155276 -0.0168499 -0.0181611 -0.0194614 -0.0207507 -0.0220289 -0.0232156 -0.0242303 -0.0250728 -0.0257432 -0.0262415 -0.0265678 -0.0267219 -0.026704 -0.0265218 -0.0261832 -0.0256883 -0.025037 -0.0242293 -0.0232653 -0.0221449 -0.0208681 -0.0195872 -0.0184548 -0.0174707 -0.0166349 -0.0159476 -0.0154085 -0.0150179 -0.0147755 -0.0145614 -0.0142551 -0.0138568 -0.0133664 -0.0127839 -0.0121094 -0.0113427 -0.0104841 -0.00939876 -0.00795234 -0.00614479 -0.00397611 -0.0014463 0.00144464 0.0046967 0.0083099 0.0119457 0.0152655 0.0182693 0.0209571 0.023329 0.0253849 0.0271248 0.0285488 0.029736 0.0307656 0.0316378 0.0323524 0.0329096 0.0333092 0.0335512 0.0336358 0.0335556 0.0333035 0.0328793 0.0322832 0.0315151 0.030575 0.029463 0.028179 0.0266608 0.0248463 0.0227355 0.0203284 0.0176249 0.0146252 0.0113291 0.0077367 0.00422094 0.00115479 -0.00146177 -0.00362873 -0.00534608 -0.00661384 -0.007432 -0.00780057 -0.00786991 -0.00779041 -0.00756208 -0.0071849 -0.00665889 -0.00598403 -0.00516034 -0.00418781 -0.00320629 -0.00235564 -0.00163586 -0.00104695 -0.00058891 -0.000261738 -6.54345e-05 0 0 -3.08105e-06 -1.23242e-05 -2.77294e-05 -4.92968e-05 -7.70262e-05 -0.000110918 -0.000150971 -0.000197187 -0.000303388 -0.000523396 -0.000857211 -0.00130483 -0.00186626 -0.0025415 -0.00333055 -0.0042334 -0.00523642 -0.00632595 -0.00750201 -0.00876458 -0.0101137 -0.0115493 -0.0130714 -0.0146801 -0.0163287 -0.0179709 -0.0196066 -0.0212359 -0.0228586 -0.0244749 -0.0260846 -0.0276879 -0.0291797 -0.0304548 -0.0315134 -0.0323553 -0.0329806 -0.0333894 -0.0335815 -0.033557 -0.0333291 -0.032911 -0.0323027 -0.0315043 -0.0305156 -0.0293368 -0.0279678 -0.0264086 -0.0248427 -0.0234535 -0.0222411 -0.0212055 -0.0203467 -0.0196646 -0.0191593 -0.0188307 -0.0185012 -0.0179931 -0.0173063 -0.0164409 -0.0153968 -0.0141741 -0.0127728 -0.0111928 -0.00926505 -0.00682032 -0.00385864 -0.000380009 0.00361558 0.00812813 0.0131576 0.0187041 0.0243025 0.0294879 0.0342603 0.0386196 0.0425659 0.0460992 0.0492194 0.0519267 0.0542709 0.0563021 0.0580204 0.0594257 0.0605181 0.0612974 0.0617638 0.0619173 0.0617508 0.0612575 0.0604374 0.0592905 0.0578168 0.0560162 0.0538888 0.0514347 0.0486255 0.0454332 0.0418577 0.0378991 0.0335573 0.0288324 0.0237243 0.018233 0.0128619 0.00811421 0.0039899 0.000489003 -0.00238849 -0.00464258 -0.00627326 -0.00728053 -0.00785401 -0.00818331 -0.00826844 -0.00810938 -0.00770615 -0.00705875 -0.00616716 -0.0050314 -0.00385217 -0.00283016 -0.00196539 -0.00125785 -0.000707541 -0.000314463 -7.86157e-05 0 0 -7.73744e-06 -3.09498e-05 -6.9637e-05 -0.000123799 -0.000193436 -0.000278548 -0.000379135 -0.000495196 -0.0006809 -0.000990414 -0.00142374 -0.00198087 -0.00266181 -0.00346657 -0.00439513 -0.0054475 -0.00660505 -0.00784912 -0.00917972 -0.0105968 -0.0121005 -0.0136907 -0.0153674 -0.0171306 -0.0189393 -0.0207522 -0.0225695 -0.0243911 -0.026217 -0.0280472 -0.0298816 -0.0317204 -0.0334359 -0.0349002 -0.0361135 -0.0370758 -0.0377869 -0.0382471 -0.0384561 -0.0384141 -0.0381411 -0.037657 -0.0369618 -0.0360555 -0.0349382 -0.0336099 -0.0320704 -0.03032 -0.02857 -0.0270321 -0.0257063 -0.0245926 -0.023691 -0.0230014 -0.022524 -0.0222586 -0.0219501 -0.0213434 -0.0204383 -0.019235 -0.0177335 -0.0159336 -0.0138354 -0.011439 -0.00853726 -0.00492314 -0.000596657 0.00444219 0.0101934 0.016657 0.023833 0.0317213 0.0396975 0.0471372 0.0540403 0.0604069 0.066237 0.0715305 0.0762874 0.0805079 0.084212 0.0874202 0.0901325 0.0923488 0.0940692 0.0952936 0.096022 0.0962545 0.0959853 0.0952084 0.093924 0.0921321 0.0898325 0.0870254 0.0837107 0.0798884 0.0755648 0.0707461 0.0654323 0.0596234 0.0533194 0.0465203 0.0392261 0.0314368 0.0238149 0.0170229 0.0110608 0.00592866 0.00162644 -0.00184587 -0.00448826 -0.00630073 -0.007518 -0.00837478 -0.00887109 -0.00900691 -0.00878225 -0.00819711 -0.00725149 -0.00594538 -0.00455193 -0.00334428 -0.00232241 -0.00148635 -0.000836069 -0.000371586 -9.28966e-05 0 0 -1.37376e-05 -5.49504e-05 -0.000123638 -0.000219802 -0.00034344 -0.000494554 -0.000673143 -0.000879207 -0.0011581 -0.00155517 -0.00207042 -0.00270384 -0.00345545 -0.00432523 -0.00531319 -0.00641934 -0.00761526 -0.00887257 -0.0101913 -0.0115714 -0.0130128 -0.0145157 -0.01608 -0.0177056 -0.0193752 -0.0210714 -0.0227942 -0.0245435 -0.0263194 -0.0281219 -0.0299509 -0.0318065 -0.0335454 -0.0350244 -0.0362435 -0.0372027 -0.037902 -0.0383413 -0.0385208 -0.0384403 -0.0381288 -0.0376148 -0.0368986 -0.0359799 -0.034859 -0.0335357 -0.03201 -0.030282 -0.028582 -0.0271405 -0.0259573 -0.0250325 -0.0243662 -0.0239582 -0.0238087 -0.0239176 -0.023921 -0.0234552 -0.0225202 -0.0211159 -0.0192424 -0.0168996 -0.0140876 -0.0108064 -0.00680872 -0.00184743 0.00407749 0.010966 0.0188182 0.027634 0.0374134 0.0481564 0.0590313 0.0692061 0.0786809 0.0874556 0.0955303 0.102905 0.10958 0.115554 0.120825 0.125389 0.129245 0.132395 0.134837 0.136572 0.137599 0.13792 0.13753 0.136426 0.134608 0.132077 0.128832 0.124873 0.1202 0.114814 0.108747 0.102035 0.0946769 0.0866729 0.078023 0.0687272 0.0587855 0.0481979 0.0378256 0.02853 0.020311 0.0131687 0.00710293 0.00211382 -0.00179867 -0.00463452 -0.00668046 -0.0082232 -0.00926273 -0.00979906 -0.00983219 -0.00936211 -0.00838883 -0.00691235 -0.00529227 -0.0038882 -0.00270014 -0.00172809 -0.000972049 -0.000432022 -0.000108005 0 0 -2.10815e-05 -8.43262e-05 -0.000189734 -0.000337305 -0.000527039 -0.000758936 -0.001033 -0.00134922 -0.00173498 -0.00221766 -0.00279724 -0.00347375 -0.00424716 -0.00511749 -0.00608474 -0.00714889 -0.00826706 -0.00939632 -0.0105367 -0.0116881 -0.0128507 -0.0140244 -0.0152091 -0.016405 -0.0176366 -0.0189284 -0.0202806 -0.0216931 -0.0231659 -0.024699 -0.0262924 -0.0279461 -0.0295083 -0.0308274 -0.0319034 -0.0327362 -0.0333258 -0.0336722 -0.0337755 -0.0336356 -0.0332921 -0.0327846 -0.0321131 -0.0312775 -0.0302778 -0.0291142 -0.0277865 -0.0262947 -0.0248788 -0.0237786 -0.0229942 -0.0225254 -0.0223724 -0.0225351 -0.0230135 -0.0238076 -0.0244138 -0.0243286 -0.0235517 -0.0220834 -0.0199236 -0.0170722 -0.0135293 -0.00929495 -0.00407943 0.00240682 0.0101638 0.0191915 0.0294899 0.0410591 0.053899 0.0680096 0.0823039 0.0956946 0.108182 0.119766 0.130446 0.140223 0.149096 0.157066 0.16411 0.170208 0.175359 0.179563 0.182821 0.185132 0.186496 0.186913 0.186384 0.184909 0.18249 0.179125 0.174814 0.169558 0.163357 0.15621 0.148173 0.1393 0.129592 0.119048 0.107668 0.0954532 0.0824026 0.0685165 0.0548943 0.0426357 0.0317406 0.022209 0.014041 0.00723649 0.00179552 -0.00228191 -0.00534141 -0.00772857 -0.00944338 -0.0104858 -0.010856 -0.0105538 -0.0095792 -0.0079323 -0.00607316 -0.00446192 -0.00309855 -0.00198307 -0.00111548 -0.000495769 -0.000123942 0 0 -2.97693e-05 -0.000119077 -0.000267923 -0.000476308 -0.000744232 -0.00107169 -0.00145869 -0.00190523 -0.00241155 -0.00297788 -0.00360422 -0.00429059 -0.00503696 -0.00584335 -0.00670976 -0.00763618 -0.00856044 -0.00942036 -0.0102159 -0.0109472 -0.0116141 -0.0122167 -0.0127549 -0.0132288 -0.0137233 -0.0143233 -0.0150288 -0.0158399 -0.0167564 -0.0177785 -0.0189061 -0.0201392 -0.0213247 -0.0223093 -0.0230931 -0.0236761 -0.0240583 -0.0242397 -0.0242202 -0.0239999 -0.0236312 -0.0231663 -0.0226053 -0.0219481 -0.0211948 -0.0203454 -0.0193998 -0.0183581 -0.0174603 -0.0169466 -0.0168169 -0.0170712 -0.0177096 -0.0187319 -0.0201383 -0.0219288 -0.0234286 -0.0239634 -0.0235331 -0.0221376 -0.0197771 -0.0164514 -0.0121606 -0.00690469 -0.000349391 0.00783959 0.0176623 0.0291186 0.0422086 0.0569323 0.0732897 0.0912808 0.109515 0.126603 0.142543 0.157337 0.170984 0.183483 0.194836 0.205042 0.214067 0.221878 0.228474 0.233855 0.238022 0.240974 0.242711 0.243234 0.242548 0.240659 0.237569 0.233275 0.22778 0.221081 0.213181 0.204078 0.193841 0.182541 0.170176 0.156748 0.142255 0.126698 0.110077 0.0923925 0.0750208 0.0593398 0.0453495 0.0330497 0.0224406 0.0135221 0.0062943 0.000757099 -0.00350084 -0.00689088 -0.00941302 -0