<?xml version="1.0"?> 
<VTKFile type="StructuredGrid" version="0.1"> 
<StructuredGrid WholeExtent="0 128 0 128 0 0"> 
<Piece Extent="0 128 0 128 0 0"> 
<PointData>
<DataArray type="Float32" Name="u" format="ascii" NumberOfComponents="1"> 
0 0 0 0 0 0 0 0 0 0 0 0 0 0 0 0 0 0 0 0 0 0 0 0 0 0 0 0 0 0 0 0 0 0 0 0 0 0 0 0 0 0 0 0 0 0 0 0 0 0 0 0 0 0 0 0 0 0 0 0 0 0 0 0 0 0 0 0 0 0 0 0 0 0 0 0 0 0 0 0 0 0 0 0 0 0 0 0 0 0 0 0 0 0 0 0 0 0 0 0 0 0 0 0 0 0 0 0 0 0 0 0 0 0 0 0 0 0 0 0 0 0 0 0 0 0 0 0 0 0 3.00736e-08 1.20294e-07 2.70662e-07 4.81178e-07 7.5184e-07 1.08265e-06 1.47361e-06 1.92471e-06 2.57832e-06 3.57679e-06 4.92013e-06 6.60833e-06 8.64139e-06 1.10193e-05 1.37421e-05 1.68098e-05 2.01421e-05 2.36589e-05 2.73601e-05 3.12459e-05 3.53161e-05 3.95708e-05 4.401e-05 4.86337e-05 5.33612e-05 5.81121e-05 6.28863e-05 6.76838e-05 7.25047e-05 7.73489e-05 8.22164e-05 8.71073e-05 9.16747e-05 9.5572e-05 9.87991e-05 0.000101356 0.000103243 0.00010446 0.000105006 0.000104882 0.000104199 0.000103068 0.000101488 9.9459e-05 9.69818e-05 9.4056e-05 9.06817e-05 8.68588e-05 8.2887e-05 7.90657e-05 7.53951e-05 7.1875e-05 6.85056e-05 6.52868e-05 6.22185e-05 5.93009e-05 5.54502e-05 4.95829e-05 4.16988e-05 3.17981e-05 1.98806e-05 5.94653e-06 -1.00043e-05 -2.79718e-05 -4.78413e-05 -6.94982e-05 -9.29426e-05 -0.000118174 -0.000145194 -0.000174 -0.000204594 -0.000236976 -0.000269442 -0.000300291 -0.000329522 -0.000357136 -0.000383132 -0.000407511 -0.000430272 -0.000451416 -0.000470482 -0.000487012 -0.000501005 -0.000512461 -0.00052138 -0.000527763 -0.000531609 -0.000532918 -0.000531665 -0.000527824 -0.000521395 -0.000512379 -0.000500774 -0.000486582 -0.000469803 -0.000450435 -0.000429019 -0.000406094 -0.00038166 -0.000355717 -0.000328265 -0.000299304 -0.000268833 -0.000236854 -0.000205187 -0.000175656 -0.00014826 -0.000123 -9.98744e-05 -7.88844e-05 -6.00296e-05 -4.33101e-05 -2.87872e-05 -1.65224e-05 -6.51551e-06 1.23334e-06 6.72418e-06 9.95703e-06 1.09319e-05 9.64869e-06 7.38728e-06 5.42739e-06 3.76902e-06 2.41217e-06 1.35685e-06 6.03043e-07 1.50761e-07 0 0 1.20294e-07 4.81178e-07 1.08265e-06 1.92471e-06 3.00736e-06 4.3306e-06 5.89443e-06 7.69884e-06 1.03133e-05 1.43072e-05 1.96805e-05 2.64333e-05 3.45656e-05 4.40773e-05 5.49684e-05 6.7239e-05 8.05683e-05 9.46355e-05 0.000109441 0.000124984 0.000141264 0.000158283 0.00017604 0.000194535 0.000213445 0.000232448 0.000251545 0.000270735 0.000290019 0.000309396 0.000328866 0.000348429 0.000366699 0.000382288 0.000395196 0.000405424 0.000412972 0.000417838 0.000420024 0.00041953 0.000416797 0.000412271 0.000405951 0.000397836 0.000387927 0.000376224 0.000362727 0.000347435 0.000331548 0.000316263 0.00030158 0.0002875 0.000274022 0.000261147 0.000248874 0.000237204 0.000221801 0.000198331 0.000166795 0.000127192 7.95226e-05 2.37861e-05 -4.00171e-05 -0.000111887 -0.000191365 -0.000277993 -0.00037177 -0.000472698 -0.000580774 -0.000696001 -0.000818377 -0.000947903 -0.00107777 -0.00120116 -0.00131809 -0.00142854 -0.00153253 -0.00163004 -0.00172109 -0.00180566 -0.00188193 -0.00194805 -0.00200402 -0.00204984 -0.00208552 -0.00211105 -0.00212644 -0.00213167 -0.00212666 -0.0021113 -0.00208558 -0.00204951 -0.0020031 -0.00194633 -0.00187921 -0.00180174 -0.00171608 -0.00162438 -0.00152664 -0.00142287 -0.00131306 -0.00119721 -0.00107533 -0.000947415 -0.000820749 -0.000702625 -0.000593041 -0.000491999 -0.000399498 -0.000315538 -0.000240118 -0.00017324 -0.000115149 -6.60895e-05 -2.6062e-05 4.93336e-06 2.68967e-05 3.98281e-05 4.37274e-05 3.85948e-05 2.95491e-05 2.17096e-05 1.50761e-05 9.64869e-06 5.42739e-06 2.41217e-06 6.03043e-07 0 0 2.70662e-07 1.08265e-06 2.43596e-06 4.3306e-06 6.76656e-06 9.74385e-06 1.32625e-05 1.73224e-05 2.32049e-05 3.21911e-05 4.42812e-05 5.94749e-05 7.77725e-05 9.91738e-05 0.000123679 0.000151288 0.000181279 0.00021293 0.000246241 0.000281213 0.000317845 0.000356137 0.00039609 0.000437703 0.000480251 0.000523009 0.000565977 0.000609155 0.000652542 0.00069614 0.000739948 0.000783966 0.000825072 0.000860148 0.000889192 0.000912205 0.000929186 0.000940136 0.000945054 0.000943942 0.000937794 0.00092761 0.000913389 0.000895131 0.000872836 0.000846504 0.000816135 0.000781729 0.000745983 0.000711591 0.000678556 0.000646875 0.00061655 0.000587581 0.000559967 0.000533708 0.000499052 0.000446246 0.000375289 0.000286183 0.000178926 5.35188e-05 -9.00384e-05 -0.000251746 -0.000430572 -0.000625484 -0.000836484 -0.00106357 -0.00130674 -0.001566 -0.00184135 -0.00213278 -0.00242498 -0.00270262 -0.0029657 -0.00321422 -0.00344819 -0.0036676 -0.00387245 -0.00406274 -0.00423434 -0.00438311 -0.00450904 -0.00461215 -0.00469242 -0.00474987 -0.00478448 -0.00479626 -0.00478498 -0.00475041 -0.00469256 -0.00461141 -0.00450697 -0.00437924 -0.00422822 -0.00405392 -0.00386117 -0.00365485 -0.00343494 -0.00320146 -0.00295439 -0.00269373 -0.0024195 -0.00213168 -0.00184669 -0.00158091 -0.00133434 -0.001107 -0.00089887 -0.000709959 -0.000540266 -0.000389791 -0.000259085 -0.000148701 -5.86396e-05 1.11001e-05 6.05177e-05 8.96132e-05 9.83867e-05 8.68382e-05 6.64855e-05 4.88465e-05 3.39212e-05 2.17096e-05 1.22116e-05 5.42739e-06 1.35685e-06 0 0 4.81178e-07 1.92471e-06 4.3306e-06 7.69884e-06 1.20294e-05 1.73224e-05 2.35777e-05 3.07954e-05 4.12531e-05 5.72287e-05 7.8722e-05 0.000105733 0.000138262 0.000176309 0.000219874 0.000268956 0.000322273 0.000378542 0.000437762 0.000499934 0.000565058 0.000633133 0.00070416 0.000778138 0.000853779 0.000929793 0.00100618 0.00108294 0.00116008 0.00123758 0.00131546 0.00139372 0.0014668 0.00152915 0.00158079 0.0016217 0.00165189 0.00167135 0.0016801 0.00167812 0.00166719 0.00164908 0.0016238 0.00159134 0.00155171 0.0015049 0.00145091 0.00138974 0.00132619 0.00126505 0.00120632 0.00115 0.00109609 0.00104459 0.000995496 0.000948814 0.000887203 0.000793326 0.000667181 0.000508769 0.00031809 9.51445e-05 -0.000160068 -0.000447548 -0.000765461 -0.00111197 -0.00148708 -0.00189079 -0.0023231 -0.002784 -0.00327351 -0.00379161 -0.00431107 -0.00480466 -0.00527236 -0.00571418 -0.00613012 -0.00652018 -0.00688435 -0.00722265 -0.00752772 -0.00779219 -0.00801608 -0.00819938 -0.00834209 -0.00844421 -0.00850574 -0.00852669 -0.00850664 -0.00844518 -0.00834232 -0.00819806 -0.00801239 -0.00778532 -0.00751684 -0.00720696 -0.00686431 -0.00649751 -0.00610657 -0.00569148 -0.00525224 -0.00478886 -0.00430133 -0.00378966 -0.003283 -0.0028105 -0.00237217 -0.001968 -0.00159799 -0.00126215 -0.000960474 -0.000692961 -0.000460596 -0.000264358 -0.000104248 1.97334e-05 0.000107587 0.000159312 0.00017491 0.000154379 0.000118196 8.68382e-05 6.03043e-05 3.85948e-05 2.17096e-05 9.64869e-06 2.41217e-06 0 0 7.5184e-07 3.00736e-06 6.76656e-06 1.20294e-05 1.8796e-05 2.70662e-05 3.68402e-05 4.81178e-05 6.4458e-05 8.94198e-05 0.000123003 0.000165208 0.000216035 0.000275483 0.000343553 0.000420244 0.000503552 0.000591472 0.000684004 0.000781147 0.000882903 0.00098927 0.00110025 0.00121584 0.00133403 0.0014528 0.00157216 0.0016921 0.00181262 0.00193372 0.00205541 0.00217768 0.00229187 0.0023893 0.00246998 0.0025339 0.00258107 0.00261149 0.00262515 0.00262206 0.00260498 0.0025767 0.00253719 0.00248648 0.00242454 0.0023514 0.00226704 0.00217147 0.00207217 0.00197664 0.00188488 0.00179688 0.00171264 0.00163217 0.00155546 0.00148252 0.00138626 0.00123957 0.00104247 0.000794952 0.000497016 0.000148663 -0.000250107 -0.000699294 -0.00119603 -0.00173746 -0.00232357 -0.00295436 -0.00362984 -0.00435001 -0.00511486 -0.00592439 -0.00673605 -0.00750727 -0.00823806 -0.0089284 -0.00957831 -0.0101878 -0.0107568 -0.0112854 -0.0117621 -0.0121753 -0.0125251 -0.0128115 -0.0130345 -0.0131941 -0.0132902 -0.0133229 -0.0132916 -0.0131956 -0.0130349 -0.0128095 -0.0125194 -0.0121646 -0.0117451 -0.0112609 -0.0107255 -0.0101524 -0.00954151 -0.00889293 -0.00820663 -0.00748259 -0.00672083 -0.00592134 -0.00512968 -0.00439141 -0.00370651 -0.00307499 -0.00249686 -0.00197211 -0.00150074 -0.00108275 -0.000719681 -0.000413059 -0.000162888 3.08335e-05 0.000168105 0.000248926 0.000273297 0.000241217 0.000184682 0.000135685 9.42255e-05 6.03043e-05 3.39212e-05 1.50761e-05 3.76902e-06 0 0 1.08265e-06 4.3306e-06 9.74385e-06 1.73224e-05 2.70662e-05 3.89754e-05 5.30498e-05 6.92896e-05 9.28195e-05 0.000128765 0.000177125 0.0002379 0.00031109 0.000396695 0.000494716 0.000605151 0.000725115 0.000851719 0.000984965 0.00112485 0.00127138 0.00142455 0.00158436 0.00175081 0.001921 0.00209204 0.00226391 0.00243662 0.00261017 0.00278456 0.00295979 0.00313586 0.00330029 0.00344059 0.00355677 0.00364882 0.00371674 0.00376054 0.00378022 0.00377577 0.00375118 0.00371044 0.00365356 0.00358052 0.00349134 0.00338602 0.00326454 0.00312692 0.00298393 0.00284637 0.00271422 0.0025875 0.0024662 0.00235032 0.00223987 0.00213483 0.00199621 0.00178498 0.00150116 0.00114473 0.000715703 0.000214075 -0.000360154 -0.00100698 -0.00172229 -0.00250194 -0.00334593 -0.00425428 -0.00522697 -0.00626401 -0.00736539 -0.00853113 -0.00969992 -0.0108105 -0.0118628 -0.0128569 -0.0137928 -0.0146704 -0.0154898 -0.016251 -0.0169374 -0.0175324 -0.0180362 -0.0184486 -0.0187697 -0.0189995 -0.0191379 -0.019185 -0.0191399 -0.0190017 -0.0187702 -0.0184456 -0.0180279 -0.017517 -0.0169129 -0.0162157 -0.0154447 -0.0146194 -0.0137398 -0.0128058 -0.0118175 -0.0107749 -0.009678 -0.00852674 -0.00738675 -0.00632362 -0.00533737 -0.00442799 -0.00359548 -0.00283984 -0.00216107 -0.00155916 -0.00103634 -0.000594805 -0.000234558 4.44002e-05 0.000242071 0.000358453 0.000393547 0.000347353 0.000265942 0.000195386 0.000135685 8.68382e-05 4.88465e-05 2.17096e-05 5.42739e-06 0 0 1.47361e-06 5.89443e-06 1.32625e-05 2.35777e-05 3.68402e-05 5.30498e-05 7.22067e-05 9.43108e-05 0.000126338 0.000175263 0.000241086 0.000323808 0.000423428 0.000539946 0.000673363 0.000823678 0.000986962 0.00115928 0.00134065 0.00153105 0.00173049 0.00193897 0.00215649 0.00238305 0.0026147 0.00284749 0.00308143 0.00331651 0.00355273 0.0037901 0.00402861 0.00426826 0.00449206 0.00468303 0.00484116 0.00496645 0.0050589 0.00511852 0.0051453 0.00513924 0.00510577 0.00505032 0.0049729 0.00487349 0.00475211 0.00460875 0.0044434 0.00425608 0.00406146 0.00387422 0.00369436 0.00352188 0.00335677 0.00319905 0.00304871 0.00290574 0.00271706 0.00242956 0.00204324 0.00155811 0.000974151 0.00029138 -0.000490209 -0.00137062 -0.00234422 -0.00340541 -0.00455419 -0.00579055 -0.00711449 -0.00852601 -0.0100251 -0.0116118 -0.0132027 -0.0147143 -0.0161466 -0.0174997 -0.0187735 -0.019968 -0.0210833 -0.0221194 -0.0230536 -0.0238636 -0.0245492 -0.0251106 -0.0255476 -0.0258604 -0.0260488 -0.026113 -0.0260516 -0.0258634 -0.0255484 -0.0251066 -0.0245379 -0.0238425 -0.0230203 -0.0220713 -0.021022 -0.0198986 -0.0187014 -0.0174301 -0.016085 -0.0146659 -0.0131728 -0.0116058 -0.0100542 -0.00860716 -0.00726476 -0.00602699 -0.00489385 -0.00386533 -0.00294145 -0.00212219 -0.00141057 -0.000809596 -0.00031926 6.04336e-05 0.000329485 0.000487894 0.000535661 0.000472786 0.000361977 0.000265942 0.000184682 0.000118196 6.64855e-05 2.95491e-05 7.38728e-06 0 0 1.92471e-06 7.69884e-06 1.73224e-05 3.07954e-05 4.81178e-05 6.92896e-05 9.43108e-05 0.000123181 0.000165012 0.000228915 0.000314888 0.000422933 0.000553049 0.000705236 0.000879494 0.00107582 0.00128909 0.00151417 0.00175105 0.00199974 0.00226023 0.00253253 0.00281664 0.00311255 0.00341512 0.00371917 0.00402472 0.00433177 0.0046403 0.00495033 0.00526185 0.00557487 0.00586718 0.00611661 0.00632314 0.00648679 0.00660755 0.00668541 0.00672039 0.00671247 0.00666876 0.00659634 0.00649521 0.00636538 0.00620684 0.00601959 0.00580363 0.00555896 0.00530477 0.00506021 0.00482528 0.0046 0.00438436 0.00417835 0.00398199 0.00379526 0.00354881 0.0031733 0.00266872 0.00203508 0.00127236 0.000380578 -0.000640273 -0.00179019 -0.00306184 -0.00444789 -0.00594833 -0.00756316 -0.00929239 -0.011136 -0.013094 -0.0151664 -0.0172443 -0.0192186 -0.0210894 -0.0228567 -0.0245205 -0.0260807 -0.0275374 -0.0288906 -0.0301109 -0.0311688 -0.0320643 -0.0327975 -0.0333683 -0.0337768 -0.034023 -0.0341067 -0.0340265 -0.0337807 -0.0333693 -0.0327922 -0.0320496 -0.0311413 -0.0300674 -0.0288279 -0.0274572 -0.02599 -0.0244263 -0.0227659 -0.021009 -0.0191554 -0.0172053 -0.0151586 -0.013132 -0.011242 -0.00948866 -0.00787198 -0.00639196 -0.0050486 -0.00384189 -0.00277185 -0.00184238 -0.00105743 -0.000416993 7.89337e-05 0.000430348 0.00063725 0.000699639 0.000617516 0.000472786 0.000347353 0.000241217 0.000154379 8.68382e-05 3.85948e-05 9.64869e-06 0 0 2.48857e-06 9.95427e-06 2.23971e-05 3.98171e-05 6.22142e-05 8.95884e-05 0.00012194 0.000159268 0.000211482 0.000288489 0.000390289 0.000516882 0.000668268 0.000844447 0.00104542 0.00127119 0.00151558 0.00177245 0.00204178 0.00232358 0.00261785 0.00292459 0.00324379 0.00357547 0.00391496 0.00425763 0.00460346 0.00495247 0.00530465 0.00565999 0.00601851 0.0063802 0.00671849 0.0070068 0.00724514 0.00743351 0.0075719 0.00766032 0.00769877 0.00768724 0.00763476 0.00755032 0.00743392 0.00728558 0.00710528 0.00689303 0.00664883 0.00637268 0.00608584 0.00580959 0.00554392 0.00528884 0.00504434 0.00481043 0.0045871 0.00437436 0.00408889 0.00364738 0.00304983 0.00229624 0.00138661 0.000320945 -0.000900762 -0.00227851 -0.00379874 -0.0054479 -0.00722599 -0.00913301 -0.011169 -0.0133338 -0.0156277 -0.0180504 -0.02048 -0.0227945 -0.0249938 -0.027078 -0.029047 -0.0309009 -0.0326396 -0.0342632 -0.0357315 -0.0370043 -0.0380818 -0.0389639 -0.0396505 -0.0401417 -0.0404376 -0.040538 -0.0404411 -0.0401451 -0.03965 -0.0389558 -0.0380624 -0.0369699 -0.0356783 -0.0341876 -0.0325439 -0.0307936 -0.0289365 -0.0269728 -0.0249024 -0.0227253 -0.0204416 -0.0180511 -0.0156845 -0.0134721 -0.0114141 -0.00951041 -0.00776101 -0.00616592 -0.00472513 -0.00343866 -0.00231584 -0.00136605 -0.000589277 1.44782e-05 0.000445215 0.000702933 0.000787633 0.000699314 0.000535412 0.000393364 0.000273169 0.000174828 9.8341e-05 4.37071e-05 1.09268e-05 0 0 3.21778e-06 1.28711e-05 2.896e-05 5.14845e-05 8.04445e-05 0.00011584 0.000157671 0.000205938 0.000268384 0.000352753 0.000459046 0.000587262 0.000737401 0.000909463 0.00110345 0.00131936 0.0015505 0.0017902 0.00203845 0.00229524 0.00256059 0.00283449 0.00311694 0.00340794 0.00370694 0.00401341 0.00432732 0.0046487 0.00497753 0.00531382 0.00565757 0.00600877 0.00633881 0.00661908 0.00684956 0.00703027 0.0071612 0.00724235 0.00727373 0.00725532 0.00719836 0.00711407 0.00700245 0.00686349 0.0066972 0.00650358 0.00628262 0.00603433 0.00577668 0.00552764 0.00528719 0.00505535 0.00483212 0.00461749 0.00441146 0.00421404 0.00393471 0.00348296 0.00285879 0.0020622 0.00109319 -4.82417e-05 -0.00136209 -0.00284836 -0.00447851 -0.006224 -0.00808482 -0.010061 -0.0121525 -0.0143593 -0.0166815 -0.0191191 -0.0215651 -0.0239129 -0.0261624 -0.0283136 -0.0303665 -0.0323212 -0.0341775 -0.0359356 -0.0375378 -0.0389267 -0.0401021 -0.0410642 -0.0418128 -0.042348 -0.0426699 -0.0427783 -0.0426716 -0.0423481 -0.0418077 -0.0410504 -0.0400763 -0.0388853 -0.0374775 -0.0358528 -0.0340753 -0.0322091 -0.0302542 -0.0282106 -0.0260783 -0.0238573 -0.0215476 -0.0191492 -0.0167759 -0.0145416 -0.0124462 -0.0104897 -0.00867217 -0.00699356 -0.00545389 -0.00405316 -0.00281504 -0.0017632 -0.000897635 -0.000218355 0.000274642 0.000581359 0.000701794 0.000635948 0.000486897 0.000357721 0.000248417 0.000158987 8.94301e-05 3.97467e-05 9.93668e-06 0 0 4.11235e-06 1.64494e-05 3.70111e-05 6.57976e-05 0.000102809 0.000148045 0.000201505 0.00026319 0.000335719 0.000421708 0.00052116 0.000634073 0.000760447 0.000900283 0.00105358 0.00122034 0.00139386 0.00156743 0.00174105 0.00191473 0.00208846 0.00226224 0.00243608 0.00260997 0.00279106 0.0029865 0.0031963 0.00342045 0.00365895 0.00391181 0.00417902 0.00446057 0.00472816 0.00495344 0.00513641 0.00527708 0.00537544 0.0054315 0.00544526 0.00541671 0.00535958 0.00528761 0.00520079 0.00509911 0.00498259 0.00485122 0.004705 0.00454394 0.00437729 0.00421435 0.0040551 0.00389954 0.00374768 0.00359952 0.00345506 0.00331429 0.00308627 0.00268004 0.00209559 0.00133294 0.000392085 -0.000726983 -0.00202426 -0.00349975 -0.00510115 -0.00677617 -0.00852482 -0.0103471 -0.012243 -0.0142125 -0.0162556 -0.0183724 -0.0204995 -0.0225737 -0.024595 -0.0265634 -0.0284789 -0.0303415 -0.0321511 -0.0339079 -0.03553 -0.0369358 -0.0381253 -0.0390984 -0.0398552 -0.0403957 -0.0407199 -0.0408277 -0.040718 -0.0403895 -0.0398422 -0.039076 -0.0380911 -0.0368874 -0.0354648 -0.0338234 -0.0320514 -0.0302366 -0.0283793 -0.0264793 -0.0245367 -0.0225514 -0.0205235 -0.018453 -0.0164064 -0.0144503 -0.0125848 -0.0108099 -0.00912543 -0.00753154 -0.00602818 -0.00461536 -0.00333996 -0.00224886 -0.00134206 -0.000619567 -8.13698e-05 0.000272527 0.000442123 0.000427419 0.000327242 0.000240423 0.00016696 0.000106855 6.01057e-05 2.67137e-05 6.67842e-06 0 0 5.17227e-06 2.06891e-05 4.65505e-05 8.27564e-05 0.000129307 0.000186202 0.000253441 0.000331025 0.000413486 0.000495354 0.000576631 0.000657315 0.000737407 0.000816907 0.000895816 0.000974132 0.00104564 0.00110413 0.00114959 0.00118203 0.00120144 0.00120783 0.0012012 0.00118155 0.00116731 0.00117693 0.0012104 0.00126773 0.00134892 0.00145396 0.00158286 0.00173561 0.00188652 0.00200988 0.00210568 0.00217393 0.00221462 0.00222777 0.00221336 0.0021714 0.00211841 0.00207093 0.00202894 0.00199245 0.00196146 0.00193597 0.00191597 0.00190148 0.00188767 0.00186972 0.00184763 0.0018214 0.00179104 0.00175654 0.0017179 0.00167512 0.00154357 0.00123862 0.000760253 0.000108483 -0.000716694 -0.00171528 -0.00288727 -0.00423267 -0.00566666 -0.00710443 -0.00854598 -0.00999132 -0.0114404 -0.0128933 -0.01435 -0.0158105 -0.0172833 -0.0187771 -0.0202918 -0.0218275 -0.0233842 -0.0249618 -0.0265604 -0.02818 -0.0297079 -0.0310317 -0.0321512 -0.0330666 -0.0337778 -0.0342848 -0.0345876 -0.0346863 -0.0345803 -0.0342694 -0.0337536 -0.0330327 -0.0321069 -0.0309761 -0.0296403 -0.0280996 -0.0264722 -0.0248762 -0.0233118 -0.0217789 -0.0202775 -0.0188076 -0.0173692 -0.0159624 -0.0145758 -0.0131984 -0.0118301 -0.0104709 -0.00912081 -0.00777984 -0.00644799 -0.00512526 -0.00389062 -0.00282305 -0.00192257 -0.00118916 -0.000622822 -0.000223563 8.61963e-06 7.37261e-05 5.64466e-05 4.1471e-05 2.87993e-05 1.84315e-05 1.03677e-05 4.60788e-06 1.15197e-06 0 0 6.39756e-06 2.55902e-05 5.7578e-05 0.000102361 0.000159939 0.000230312 0.00031348 0.000409444 0.000501686 0.000573691 0.000625458 0.000656988 0.000668281 0.000659336 0.000630154 0.000580735 0.000505857 0.0004003 0.000264062 9.71457e-05 -0.000100451 -0.000328727 -0.000587683 -0.000877318 -0.00116431 -0.00141533 -0.00163038 -0.00180947 -0.00195258 -0.00205973 -0.0021309 -0.00216611 -0.0021861 -0.0022116 -0.00224263 -0.00227918 -0.00232125 -0.00236885 -0.00242196 -0.0024806 -0.00252514 -0.00253597 -0.0025131 -0.0024565 -0.0023662 -0.00224219 -0.00208446 -0.00189303 -0.00169219 -0.00150624 -0.0013352 -0.00117906 -0.00103781 -0.000911465 -0.000800018 -0.00070347 -0.000693379 -0.000841301 -0.00114724 -0.00161119 -0.00223315 -0.00301313 -0.00395112 -0.00504712 -0.00617504 -0.00720877 -0.00814831 -0.00899366 -0.00974483 -0.0104018 -0.0109646 -0.0114332 -0.0119164 -0.0125229 -0.0132527 -0.0141059 -0.0150824 -0.0161822 -0.0174054 -0.0187519 -0.0200716 -0.0212143 -0.02218 -0.0229688 -0.0235805 -0.0240153 -0.0242731 -0.0243539 -0.0242586 -0.0239879 -0.0235418 -0.0229204 -0.0221236 -0.0211515 -0.0200041 -0.0186813 -0.0173377 -0.0161278 -0.0150517 -0.0141093 -0.0133007 -0.0126258 -0.0120847 -0.0116774 -0.0112842 -0.0107857 -0.0101819 -0.00947277 -0.00865829 -0.00773848 -0.00671333 -0.00558285 -0.004467 -0.00348577 -0.00263914 -0.00192712 -0.00134971 -0.000906911 -0.000598716 -0.00042513 -0.00032549 -0.000239135 -0.000166066 -0.000106282 -5.97838e-05 -2.65706e-05 -6.64265e-06 0 0 7.78819e-06 3.11528e-05 7.00937e-05 0.000124611 0.000194705 0.000280375 0.000381621 0.000498444 0.000600318 0.000656718 0.000667642 0.000633093 0.000553068 0.00042757 0.000256596 4.01486e-05 -0.000225494 -0.000544053 -0.000915526 -0.00133992 -0.00181722 -0.00234744 -0.00293058 -0.00356663 -0.00420379 -0.00479026 -0.00532605 -0.00581114 -0.00624554 -0.00662925 -0.00696227 -0.0072446 -0.00748969 -0.007711 -0.00790851 -0.00808224 -0.00823219 -0.00835834 -0.00846071 -0.00853929 -0.00857109 -0.00853309 -0.00842531 -0.00824775 -0.00800039 -0.00768325 -0.00729631 -0.0068396 -0.00636228 -0.00591354 -0.0054934 -0.00510184 -0.00473887 -0.00440449 -0.0040987 -0.00382149 -0.00362459 -0.00355972 -0.00362688 -0.00382607 -0.00415728 -0.00462053 -0.00521581 -0.00594312 -0.0066263 -0.00708919 -0.00733181 -0.00735414 -0.00715618 -0.00673795 -0.00609943 -0.00524062 -0.00439878 -0.00381115 -0.00347772 -0.0033985 -0.00357349 -0.00400268 -0.00468609 -0.00562369 -0.00662105 -0.0074837 -0.00821163 -0.00880486 -0.00926337 -0.00958717 -0.00977626 -0.00983064 -0.00975269 -0.00954479 -0.00920694 -0.00873913 -0.00814138 -0.00741367 -0.00655602 -0.00556841 -0.00464786 -0.00399139 -0.00359898 -0.00347065 -0.00360639 -0.0040062 -0.00467008 -0.00559803 -0.00653161 -0.00721239 -0.00764036 -0.00781553 -0.00773789 -0.00740744 -0.00682419 -0.00598814 -0.00506912 -0.00423701 -0.00349179 -0.00283347 -0.00226204 -0.00177752 -0.00137988 -0.00106915 -0.000818567 -0.000601396 -0.000417636 -0.000267287 -0.000150349 -6.68218e-05 -1.67054e-05 0 0 9.34419e-06 3.73768e-05 8.40977e-05 0.000149507 0.000233605 0.000336391 0.000457865 0.000598028 0.000709383 0.000744435 0.000703183 0.000585628 0.00039177 0.000121607 -0.000224858 -0.000647627 -0.00114841 -0.00172893 -0.00238918 -0.00312916 -0.00394887 -0.00484831 -0.00582748 -0.00688638 -0.00795114 -0.00894788 -0.00987659 -0.0107373 -0.01153 -0.0122546 -0.0129112 -0.0134999 -0.0140243 -0.0144883 -0.014892 -0.0152353 -0.0155182 -0.0157407 -0.0159029 -0.0160047 -0.0160194 -0.0159204 -0.0157077 -0.0153813 -0.0149411 -0.0143872 -0.0137196 -0.0129382 -0.0121226 -0.0113522 -0.010627 -0.00994695 -0.00931214 -0.00872254 -0.00817813 -0.00767893 -0.00725005 -0.00691663 -0.00667867 -0.00653615 -0.00648909 -0.00653749 -0.00668134 -0.00692064 -0.00702042 -0.0067457 -0.00609647 -0.00507273 -0.00367449 -0.00190175 0.000245496 0.00276725 0.00526946 0.00735809 0.00903314 0.0102946 0.0111425 0.0115768 0.0115975 0.0112047 0.0106437 0.0101601 0.00975392 0.00942509 0.00917364 0.00899956 0.00890286 0.00888353 0.00893727 0.00905978 0.00925106 0.00951111 0.00983992 0.0102375 0.0107038 0.011239 0.0115972 0.011533 0.0110463 0.0101371 0.00880549 0.00705137 0.00487476 0.00227569 -0.000317976 -0.00247834 -0.00420539 -0.00549914 -0.00635959 -0.00678674 -0.00678058 -0.00634112 -0.00569697 -0.00507677 -0.00448051 -0.00390819 -0.00335982 -0.00283538 -0.00233488 -0.00185833 -0.00142278 -0.00104531 -0.00072591 -0.000464583 -0.000261328 -0.000116146 -2.90364e-05 0 0 1.10655e-05 4.42622e-05 9.95899e-05 0.000177049 0.000276638 0.000398359 0.000542211 0.000708195 0.000828881 0.000836843 0.000732081 0.000514595 0.000184384 -0.00025855 -0.00081421 -0.00148259 -0.0022629 -0.00315434 -0.0041569 -0.00527058 -0.00649539 -0.00783133 -0.00927839 -0.0108366 -0.0124064 -0.0138882 -0.015282 -0.0165879 -0.0178058 -0.0189358 -0.0199778 -0.0209319 -0.0217898 -0.0225435 -0.023193 -0.0237382 -0.0241792 -0.024516 -0.0247485 -0.0248768 -0.0248701 -0.024698 -0.0243603 -0.0238571 -0.0231883 -0.0223541 -0.0213542 -0.0201889 -0.0189732 -0.0178222 -0.0167359 -0.0157144 -0.0147576 -0.0138656 -0.0130383 -0.0122758 -0.0115698 -0.010912 -0.0103026 -0.00974145 -0.00922858 -0.008764 -0.00834771 -0.00797971 -0.00735742 -0.00617828 -0.00444229 -0.00214945 0.000700239 0.00410678 0.00807018 0.0125904 0.0170884 0.0209849 0.0242799 0.0269735 0.0290656 0.0305562 0.0314455 0.0317332 0.0317227 0.0317172 0.0317167 0.0317211 0.0317305 0.0317449 0.0317643 0.0317886 0.0318113 0.0318259 0.0318322 0.0318303 0.0318203 0.031802 0.0317755 0.0317408 0.0313976 0.0304454 0.0288842 0.026714 0.0239349 0.0205468 0.0165498 0.0119438 0.00735668 0.00341642 0.000122982 -0.00252363 -0.00452341 -0.00587636 -0.00658249 -0.0066418 -0.00635056 -0.00600506 -0.00560531 -0.00515129 -0.00464303 -0.0040805 -0.00346372 -0.00279268 -0.00213814 -0.00157088 -0.00109089 -0.000698169 -0.00039272 -0.000174542 -4.36356e-05 0 0 1.17826e-05 4.71304e-05 0.000106043 0.000188522 0.000294565 0.000424174 0.000577348 0.000754087 0.000870417 0.000842365 0.000669929 0.000353111 -0.00010809 -0.000713674 -0.00146364 -0.00235799 -0.00338874 -0.00454791 -0.0058355 -0.0072515 -0.00879593 -0.0104688 -0.01227 -0.0141997 -0.016146 -0.0179971 -0.0197531 -0.0214139 -0.0229794 -0.0244499 -0.0258251 -0.0271052 -0.0282655 -0.0292816 -0.0301535 -0.0308811 -0.0314645 -0.0319036 -0.0321985 -0.0323492 -0.0323211 -0.0320797 -0.0316252 -0.0309574 -0.0300764 -0.0289821 -0.0276746 -0.0261539 -0.0245777 -0.0231038 -0.0217322 -0.0204628 -0.0192957 -0.0182309 -0.0172684 -0.0164082 -0.0155801 -0.0147143 -0.0138105 -0.0128689 -0.0118895 -0.0108722 -0.00981705 -0.00872404 -0.00721648 -0.00491766 -0.00182758 0.00205374 0.00672633 0.0121902 0.0184453 0.0254916 0.0325156 0.0387035 0.0440554 0.0485713 0.0522512 0.055095 0.0571028 0.0582746 0.0589834 0.0596023 0.0601311 0.06057 0.060919 0.061178 0.061347 0.0614261 0.0614062 0.0612783 0.0610423 0.0606984 0.0602465 0.0596866 0.0590186 0.0582427 0.0569931 0.0549041 0.0519757 0.0482079 0.0436008 0.0381543 0.0318684 0.0247432 0.0176517 0.0114673 0.00618992 0.00181954 -0.00164382 -0.00420016 -0.00584949 -0.0065918 -0.00680202 -0.0068551 -0.00675103 -0.00648981 -0.00607145 -0.00549595 -0.00476329 -0.00387349 -0.00296564 -0.00217884 -0.00151308 -0.000968373 -0.00054471 -0.000242093 -6.05233e-05 0 0 1.03258e-05 4.1303e-05 9.29318e-05 0.000165212 0.000258144 0.000371727 0.000505962 0.000660848 0.000745597 0.000669422 0.000432321 3.42942e-05 -0.000524657 -0.00124453 -0.00212534 -0.00316706 -0.00434572 -0.0056373 -0.0070418 -0.00855924 -0.0101896 -0.0119329 -0.0137891 -0.0157582 -0.0177467 -0.0196608 -0.0215005 -0.023266 -0.0249571 -0.0265738 -0.0281162 -0.0295843 -0.0309306 -0.0321076 -0.0331154 -0.0339539 -0.0346232 -0.0351232 -0.035454 -0.0356156 -0.0355701 -0.0352797 -0.0347445 -0.0339644 -0.0329395 -0.0316697 -0.030155 -0.0283955 -0.0266 -0.0249774 -0.0235277 -0.0222508 -0.0211468 -0.0202157 -0.0194575 -0.0188721 -0.0182776 -0.0174916 -0.0165143 -0.0153456 -0.0139856 -0.0124342 -0.0106915 -0.00875737 -0.00617677 -0.00249453 0.00228937 0.0081749 0.0151621 0.0232509 0.0324414 0.0427335 0.0530087 0.0621484 0.0701527 0.0770215 0.0827547 0.0873525 0.0908149 0.0931417 0.0947933 0.0962301 0.0974519 0.0984589 0.0992509 0.099828 0.10019 0.100338 0.100259 0.0999418 0.0993874 0.0985954 0.0975656 0.0962981 0.0947929 0.09305 0.0906235 0.0870674 0.0823818 0.0765667 0.0696221 0.0615479 0.0523441 0.0420109 0.0317266 0.0226698 0.0148406 0.00823887 0.00286468 -0.00128198 -0.00420112 -0.00589274 -0.00682351 -0.00746011 -0.00780254 -0.00785079 -0.00760487 -0.00706478 -0.00623052 -0.00510208 -0.00390628 -0.00286992 -0.001993 -0.00127552 -0.000717481 -0.00031888 -7.97201e-05 0 0 6.69497e-06 2.67799e-05 6.02548e-05 0.00010712 0.000167374 0.000241019 0.000328054 0.000428478 0.000454422 0.000318014 1.92554e-05 -0.000441855 -0.00106532 -0.00185113 -0.0027993 -0.00390981 -0.00513383 -0.0064225 -0.00777582 -0.00919379 -0.0106764 -0.0122237 -0.0138356 -0.0155122 -0.0172084 -0.0188791 -0.0205244 -0.0221442 -0.0237387 -0.0253076 -0.0268511 -0.0283692 -0.0297849 -0.0310214 -0.0320786 -0.0329566 -0.0336553 -0.0341748 -0.034515 -0.0346759 -0.0346171 -0.0342978 -0.0337181 -0.0328781 -0.0317776 -0.0304167 -0.0287954 -0.0269137 -0.0250401 -0.023443 -0.0221225 -0.0210785 -0.020311 -0.01982 -0.0196056 -0.0196677 -0.019662 -0.019244 -0.0184139 -0.0171715 -0.0155169 -0.01345 -0.010971 -0.00807971 -0.00423831 0.00109111 0.00790855 0.016214 0.0260075 0.037289 0.0500586 0.0643161 0.0785678 0.0913196 0.102572 0.112324 0.120576 0.127329 0.132582 0.136334 0.139152 0.141601 0.143679 0.145388 0.146726 0.147695 0.148294 0.148523 0.148368 0.147817 0.146867 0.145521 0.143777 0.141636 0.139098 0.136163 0.132289 0.126935 0.120103 0.11179 0.101999 0.0907275 0.0779769 0.0637468 0.0495812 0.0370239 0.026075 0.0167344 0.00900211 0.00287819 -0.00163739 -0.00454463 -0.00641503 -0.0078201 -0.00875983 -0.00923423 -0.00924329 -0.00878701 -0.0078654 -0.00647845 -0.00496007 -0.00364413 -0.00253065 -0.00161961 -0.000911033 -0.000404903 -0.000101226 0 0 8.9027e-07 3.56108e-06 8.01243e-06 1.42443e-05 2.22568e-05 3.20497e-05 4.36232e-05 5.69773e-05 -3.10912e-06 -0.000211857 -0.000569266 -0.00107534 -0.00173007 -0.00253346 -0.00348552 -0.00458623 -0.00575308 -0.00690351 -0.00803754 -0.00915516 -0.0102564 -0.0113412 -0.0124096 -0.0134615 -0.0145311 -0.0156521 -0.0168247 -0.0180487 -0.0193242 -0.0206513 -0.0220299 -0.0234599 -0.0248286 -0.026023 -0.0270432 -0.0278891 -0.0285608 -0.0290582 -0.0293814 -0.0295303 -0.0294621 -0.0291341 -0.0285462 -0.0276984 -0.0265908 -0.0252232 -0.0235958 -0.0217086 -0.019898 -0.0185006 -0.0175165 -0.0169457 -0.0167881 -0.0170438 -0.0177127 -0.0187949 -0.0197335 -0.0199716 -0.0195093 -0.0183465 -0.0164833 -0.0139197 -0.0106556 -0.00669105 -0.0014011 0.00583925 0.01503 0.0261711 0.0392626 0.0543045 0.0712968 0.0902395 0.109193 0.126217 0.141312 0.154479 0.165716 0.175024 0.182403 0.187853 0.192061 0.195714 0.198812 0.201356 0.203345 0.204779 0.205658 0.205982 0.205736 0.204902 0.203482 0.201476 0.198882 0.195702 0.191935 0.187581 0.181989 0.174508 0.165138 0.153879 0.140731 0.125693 0.108767 0.0899511 0.0712156 0.0545296 0.0398931 0.027306 0.0167684 0.00828034 0.0018417 -0.00254747 -0.00557659 -0.00793507 -0.00962291 -0.0106401 -0.0109867 -0.0106626 -0.00966793 -0.0080026 -0.00612699 -0.00450146 -0.00312602 -0.00200065 -0.00112537 -0.000500163 -0.000125041 0 0 -7.08836e-06 -2.83534e-05 -6.37952e-05 -0.000113414 -0.000177209 -0.000255181 -0.000347329 -0.000453655 -0.000626996 -0.000920193 -0.00133324 -0.00186615 -0.00251891 -0.00329153 -0.004184 -0.00519633 -0.00620346 -0.00708034 -0.00782696 -0.00844334 -0.00892946 -0.00928533 -0.00951095 -0.00960631 -0.0097148 -0.0099798 -0.0104013 -0.0109793 -0.0117138 -0.0126049 -0.0136524 -0.0148564 -0.0160616 -0.0171125 -0.0180092 -0.0187516 -0.0193397 -0.0197736 -0.0200532 -0.0201786 -0.0201052 -0.01978