<?xml version="1.0"?> 
<VTKFile type="StructuredGrid" version="0.1"> 
<StructuredGrid WholeExtent="0 128 0 128 0 0"> 
<Piece Extent="0 128 0 128 0 0"> 
<PointData>
<DataArray type="Float32" Name="u" format="ascii" NumberOfComponents="1"> 
0 0 0 0 0 0 0 0 0 0 0 0 0 0 0 0 0 0 0 0 0 0 0 0 0 0 0 0 0 0 0 0 0 0 0 0 0 0 0 0 0 0 0 0 0 0 0 0 0 0 0 0 0 0 0 0 0 0 0 0 0 0 0 0 0 0 0 0 0 0 0 0 0 0 0 0 0 0 0 0 0 0 0 0 0 0 0 0 0 0 0 0 0 0 0 0 0 0 0 0 0 0 0 0 0 0 0 0 0 0 0 0 0 0 0 0 0 0 0 0 0 0 0 0 0 0 0 0 0 0 9.87059e-08 3.94823e-07 8.88353e-07 1.57929e-06 2.46765e-06 3.55341e-06 4.83659e-06 6.31717e-06 7.83815e-06 9.24249e-06 1.05302e-05 1.17013e-05 1.27557e-05 1.36935e-05 1.45146e-05 1.52191e-05 1.58063e-05 1.62755e-05 1.66267e-05 1.68598e-05 1.6975e-05 1.69721e-05 1.68512e-05 1.66123e-05 1.64321e-05 1.64873e-05 1.67778e-05 1.73038e-05 1.80651e-05 1.90618e-05 2.02939e-05 2.17614e-05 2.32239e-05 2.44409e-05 2.54126e-05 2.61389e-05 2.66197e-05 2.68551e-05 2.68452e-05 2.65898e-05 2.62451e-05 2.59672e-05 2.57561e-05 2.56119e-05 2.55344e-05 2.55238e-05 2.55799e-05 2.57029e-05 2.57602e-05 2.56195e-05 2.52807e-05 2.47439e-05 2.4009e-05 2.30761e-05 2.19451e-05 2.0616e-05 1.82338e-05 1.39434e-05 7.7448e-06 -3.62052e-07 -1.03771e-05 -2.23004e-05 -3.61319e-05 -5.18717e-05 -6.92421e-05 -8.79657e-05 -0.000108042 -0.000129472 -0.000152256 -0.000176392 -0.000201881 -0.000228724 -0.000255996 -0.000282773 -0.000309056 -0.000334843 -0.000360137 -0.000384935 -0.000409239 -0.000433048 -0.000455125 -0.000474233 -0.000490371 -0.00050354 -0.000513739 -0.000520968 -0.000525228 -0.000526518 -0.00052487 -0.000520312 -0.000512846 -0.000502471 -0.000489188 -0.000472995 -0.000453894 -0.000431884 -0.000408253 -0.000384285 -0.000359982 -0.000335344 -0.00031037 -0.000285061 -0.000259416 -0.000233436 -0.000207962 -0.000183838 -0.000161062 -0.000139636 -0.000119558 -0.00010083 -8.34505e-05 -6.742e-05 -5.2977e-05 -4.03598e-05 -2.95684e-05 -2.06028e-05 -1.34629e-05 -8.1489e-06 -4.66065e-06 -2.9982e-06 -2.2955e-06 -1.68649e-06 -1.17117e-06 -7.49551e-07 -4.21623e-07 -1.87388e-07 -4.68469e-08 0 0 3.94823e-07 1.57929e-06 3.55341e-06 6.31717e-06 9.87059e-06 1.42136e-05 1.93463e-05 2.52687e-05 3.13526e-05 3.697e-05 4.21208e-05 4.6805e-05 5.10227e-05 5.47739e-05 5.80585e-05 6.08766e-05 6.32254e-05 6.51021e-05 6.65067e-05 6.74393e-05 6.78999e-05 6.78884e-05 6.74048e-05 6.64492e-05 6.57283e-05 6.5949e-05 6.71113e-05 6.9215e-05 7.22603e-05 7.62472e-05 8.11756e-05 8.70456e-05 9.28955e-05 9.77638e-05 0.00010165 0.000104555 0.000106479 0.000107421 0.000107381 0.000106359 0.00010498 0.000103869 0.000103025 0.000102447 0.000102138 0.000102095 0.00010232 0.000102812 0.000103041 0.000102478 0.000101123 9.89756e-05 9.60361e-05 9.23043e-05 8.77804e-05 8.24642e-05 7.29354e-05 5.57737e-05 3.09792e-05 -1.44821e-06 -4.15085e-05 -8.92017e-05 -0.000144528 -0.000207487 -0.000276968 -0.000351863 -0.00043217 -0.00051789 -0.000609022 -0.000705567 -0.000807525 -0.000914896 -0.00102398 -0.00113109 -0.00123622 -0.00133937 -0.00144055 -0.00153974 -0.00163696 -0.00173219 -0.0018205 -0.00189693 -0.00196148 -0.00201416 -0.00205495 -0.00208387 -0.00210091 -0.00210607 -0.00209948 -0.00208125 -0.00205138 -0.00200988 -0.00195675 -0.00189198 -0.00181558 -0.00172754 -0.00163301 -0.00153714 -0.00143993 -0.00134138 -0.00124148 -0.00114024 -0.00103766 -0.000933743 -0.000831849 -0.000735351 -0.000644249 -0.000558543 -0.000478233 -0.00040332 -0.000333802 -0.00026968 -0.000211908 -0.000161439 -0.000118274 -8.24111e-05 -5.38517e-05 -3.25956e-05 -1.86426e-05 -1.19928e-05 -9.182e-06 -6.74596e-06 -4.68469e-06 -2.9982e-06 -1.68649e-06 -7.49551e-07 -1.87388e-07 0 0 8.88353e-07 3.55341e-06 7.99517e-06 1.42136e-05 2.22088e-05 3.19807e-05 4.35293e-05 5.68546e-05 7.05434e-05 8.31824e-05 9.47717e-05 0.000105311 0.000114801 0.000123241 0.000130632 0.000136972 0.000142257 0.00014648 0.00014964 0.000151739 0.000152775 0.000152749 0.000151661 0.000149511 0.000147889 0.000148385 0.000151 0.000155734 0.000162586 0.000171556 0.000182645 0.000195853 0.000209015 0.000219969 0.000228713 0.00023525 0.000239577 0.000241696 0.000241606 0.000239308 0.000236206 0.000233705 0.000231805 0.000230507 0.00022981 0.000229714 0.000230219 0.000231326 0.000231842 0.000230576 0.000227527 0.000222695 0.000216081 0.000207685 0.000197506 0.000185544 0.000164105 0.000125491 6.97032e-05 -3.25846e-06 -9.33941e-05 -0.000200704 -0.000325187 -0.000466845 -0.000623179 -0.000791691 -0.000972382 -0.00116525 -0.0013703 -0.00158753 -0.00181693 -0.00205852 -0.00230396 -0.00254496 -0.0027815 -0.00301359 -0.00324123 -0.00346442 -0.00368315 -0.00389744 -0.00409613 -0.0042681 -0.00441334 -0.00453186 -0.00462365 -0.00468871 -0.00472705 -0.00473867 -0.00472383 -0.00468281 -0.00461561 -0.00452224 -0.00440269 -0.00425696 -0.00408505 -0.00388696 -0.00367427 -0.00345857 -0.00323984 -0.0030181 -0.00279333 -0.00256555 -0.00233474 -0.00210092 -0.00187166 -0.00165454 -0.00144956 -0.00125672 -0.00107603 -0.000907469 -0.000751054 -0.00060678 -0.000476793 -0.000363238 -0.000266116 -0.000185425 -0.000121166 -7.33401e-05 -4.19459e-05 -2.69838e-05 -2.06595e-05 -1.51784e-05 -1.05406e-05 -6.74596e-06 -3.7946e-06 -1.68649e-06 -4.21623e-07 0 0 1.57929e-06 6.31717e-06 1.42136e-05 2.52687e-05 3.94823e-05 5.68546e-05 7.73854e-05 0.000101075 0.00012541 0.00014788 0.000168483 0.00018722 0.000204091 0.000219096 0.000232234 0.000243506 0.000252901 0.000260408 0.000266027 0.000269757 0.0002716 0.000271554 0.000269619 0.000265797 0.000262913 0.000263796 0.000268445 0.00027686 0.000289041 0.000304989 0.000324703 0.000348182 0.000371582 0.000391055 0.000406602 0.000418222 0.000425915 0.000429682 0.000429522 0.000425436 0.000419921 0.000415475 0.000412098 0.00040979 0.00040855 0.00040838 0.000409279 0.000411246 0.000412164 0.000409912 0.000404492 0.000395903 0.000384144 0.000369217 0.000351121 0.000329857 0.000291742 0.000223095 0.000123917 -5.79283e-06 -0.000166034 -0.000356807 -0.000578111 -0.000829947 -0.00110787 -0.00140745 -0.00172868 -0.00207156 -0.00243609 -0.00282227 -0.0032301 -0.00365958 -0.00409593 -0.00452437 -0.00494489 -0.0053575 -0.00576219 -0.00615896 -0.00654783 -0.00692877 -0.00728201 -0.00758773 -0.00784594 -0.00805663 -0.00821982 -0.00833549 -0.00840365 -0.00842429 -0.00839791 -0.008325 -0.00820554 -0.00803954 -0.007827 -0.00756792 -0.00726231 -0.00691015 -0.00653204 -0.00614856 -0.00575972 -0.0053655 -0.00496592 -0.00456097 -0.00415066 -0.00373497 -0.0033274 -0.0029414 -0.002577 -0.00223417 -0.00191293 -0.00161328 -0.00133521 -0.00107872 -0.000847633 -0.000645757 -0.000473094 -0.000329644 -0.000215407 -0.000130382 -7.45704e-05 -4.79713e-05 -3.6728e-05 -2.69838e-05 -1.87388e-05 -1.19928e-05 -6.74596e-06 -2.9982e-06 -7.49551e-07 0 0 2.46765e-06 9.87059e-06 2.22088e-05 3.94823e-05 6.16912e-05 8.88353e-05 0.000120915 0.000157929 0.000195954 0.000231062 0.000263255 0.000292531 0.000318892 0.000342337 0.000362866 0.000380479 0.000395159 0.000406888 0.000415667 0.000421496 0.000424374 0.000424302 0.00042128 0.000415308 0.000410802 0.000412181 0.000419445 0.000432594 0.000451627 0.000476545 0.000507348 0.000544035 0.000580597 0.000611024 0.000635315 0.000653471 0.000665492 0.000671378 0.000671129 0.000664744 0.000656127 0.00064918 0.000643903 0.000640297 0.00063836 0.000638094 0.000639498 0.000642572 0.000644006 0.000640488 0.000632018 0.000618598 0.000600226 0.000576902 0.000548627 0.000515401 0.000455846 0.000348586 0.00019362 -9.05129e-06 -0.000259428 -0.000557511 -0.000903298 -0.00129679 -0.00173105 -0.00219914 -0.00270106 -0.00323681 -0.00380639 -0.0044098 -0.00504703 -0.0057181 -0.0063999 -0.00706933 -0.00772639 -0.00837109 -0.00900342 -0.00962338 -0.010231 -0.0108262 -0.0113781 -0.0118558 -0.0122593 -0.0125885 -0.0128435 -0.0130242 -0.0131307 -0.013163 -0.0131217 -0.0130078 -0.0128212 -0.0125618 -0.0122297 -0.0118249 -0.0113474 -0.0107971 -0.0102063 -0.00960713 -0.00899956 -0.0083836 -0.00775925 -0.00712652 -0.0064854 -0.00583589 -0.00519906 -0.00459594 -0.00402656 -0.00349089 -0.00298896 -0.00252075 -0.00208626 -0.0016855 -0.00132443 -0.001009 -0.00073921 -0.000515069 -0.000336573 -0.000203722 -0.000116516 -7.49551e-05 -5.73875e-05 -4.21623e-05 -2.92793e-05 -1.87388e-05 -1.05406e-05 -4.68469e-06 -1.17117e-06 0 0 3.55341e-06 1.42136e-05 3.19807e-05 5.68546e-05 8.88353e-05 0.000127923 0.000174117 0.000227418 0.000282173 0.00033273 0.000379087 0.000421245 0.000459205 0.000492965 0.000522527 0.000547889 0.000569028 0.000585919 0.000598561 0.000606954 0.000611099 0.000610996 0.000606643 0.000598043 0.000591555 0.000593541 0.000604001 0.000622935 0.000650343 0.000686225 0.000730581 0.00078341 0.00083606 0.000879874 0.000914854 0.000940999 0.000958309 0.000966785 0.000966426 0.000957232 0.000944823 0.000934819 0.000927221 0.000922027 0.000919239 0.000918855 0.000920877 0.000925304 0.000927368 0.000922302 0.000910107 0.000890781 0.000864325 0.000830739 0.000790023 0.000742177 0.000656418 0.000501964 0.000278813 -1.30339e-05 -0.000373577 -0.000802815 -0.00130075 -0.00186738 -0.00249272 -0.00316677 -0.00388953 -0.00466101 -0.0054812 -0.00635011 -0.00726773 -0.00823406 -0.00921585 -0.0101798 -0.011126 -0.0120544 -0.0129649 -0.0138577 -0.0147326 -0.0155897 -0.0163845 -0.0170724 -0.0176534 -0.0181274 -0.0184946 -0.0187549 -0.0189082 -0.0189547 -0.0188953 -0.0187312 -0.0184625 -0.018089 -0.0176108 -0.0170278 -0.0163402 -0.0155478 -0.0146971 -0.0138343 -0.0129594 -0.0120724 -0.0111733 -0.0102622 -0.00933898 -0.00840369 -0.00748664 -0.00661816 -0.00579824 -0.00502689 -0.0043041 -0.00362988 -0.00300422 -0.00242712 -0.00190717 -0.00145295 -0.00106446 -0.0007417 -0.000484666 -0.00029336 -0.000167784 -0.000107935 -8.2638e-05 -6.07136e-05 -4.21623e-05 -2.69838e-05 -1.51784e-05 -6.74596e-06 -1.68649e-06 0 0 4.83659e-06 1.93463e-05 4.35293e-05 7.73854e-05 0.000120915 0.000174117 0.000236993 0.000309542 0.000384069 0.000452882 0.000515979 0.000573362 0.000625029 0.00067098 0.000711217 0.000745738 0.000774511 0.0007975 0.000814708 0.000826132 0.000831774 0.000831633 0.000825709 0.000814003 0.000805172 0.000807876 0.000822113 0.000847884 0.000885189 0.000934028 0.000994401 0.00106631 0.00113797 0.00119761 0.00124522 0.0012808 0.00130437 0.0013159 0.00131541 0.0013029 0.00128601 0.00127239 0.00126205 0.00125498 0.00125119 0.00125066 0.00125342 0.00125944 0.00126225 0.00125536 0.00123876 0.00121245 0.00117644 0.00113073 0.00107531 0.00101019 0.000893459 0.000683228 0.000379495 -1.77405e-05 -0.000508479 -0.00109272 -0.00177046 -0.00254171 -0.00339286 -0.00431032 -0.00529408 -0.00634415 -0.00746052 -0.0086432 -0.00989218 -0.0112075 -0.0125438 -0.0138559 -0.0151437 -0.0164073 -0.0176467 -0.0188618 -0.0200527 -0.0212194 -0.0223011 -0.0232374 -0.0240282 -0.0246734 -0.0251732 -0.0255274 -0.0257362 -0.0257994 -0.0257186 -0.0254953 -0.0251295 -0.0246211 -0.0239702 -0.0231768 -0.0222408 -0.0211623 -0.0200044 -0.01883 -0.0176391 -0.0164319 -0.0152081 -0.013968 -0.0127114 -0.0114384 -0.0101902 -0.00900805 -0.00789205 -0.00684215 -0.00585836 -0.00494066 -0.00408907 -0.00330358 -0.00259587 -0.00197763 -0.00144885 -0.00100954 -0.000659684 -0.000399296 -0.000228372 -0.000146912 -0.00011248 -8.2638e-05 -5.73875e-05 -3.6728e-05 -2.06595e-05 -9.182e-06 -2.2955e-06 0 0 6.31717e-06 2.52687e-05 5.68546e-05 0.000101075 0.000157929 0.000227418 0.000309542 0.000404299 0.000501642 0.000591519 0.000673932 0.00074888 0.000816364 0.000876382 0.000928936 0.000974025 0.00101161 0.00104163 0.00106411 0.00107903 0.0010864 0.00108621 0.00107848 0.00106319 0.00105165 0.00105518 0.00107378 0.00110744 0.00115617 0.00121996 0.00129881 0.00139273 0.00148633 0.00156422 0.00162641 0.00167289 0.00170366 0.00171873 0.00171809 0.00170175 0.00167969 0.0016619 0.00164839 0.00163916 0.0016342 0.00163352 0.00163711 0.00164498 0.00164865 0.00163965 0.00161797 0.00158361 0.00153658 0.00147687 0.00140449 0.00131943 0.00116697 0.00089238 0.000495667 -2.31713e-05 -0.000664136 -0.00142723 -0.00231244 -0.00331979 -0.00443149 -0.00562981 -0.00691472 -0.00828624 -0.00974436 -0.0112891 -0.0129204 -0.0146383 -0.0163837 -0.0180975 -0.0197796 -0.02143 -0.0230487 -0.0246359 -0.0261913 -0.0277151 -0.029128 -0.0303509 -0.0313837 -0.0322265 -0.0328793 -0.033342 -0.0336146 -0.0336972 -0.0335917 -0.0333 -0.0328221 -0.0321582 -0.031308 -0.0302717 -0.0290492 -0.0276406 -0.0261282 -0.0245943 -0.0230389 -0.021462 -0.0198637 -0.0182439 -0.0166026 -0.0149399 -0.0133096 -0.0117656 -0.010308 -0.00893669 -0.00765173 -0.00645311 -0.00534083 -0.00431488 -0.00339053 -0.00258303 -0.00189238 -0.00131858 -0.000861628 -0.000521529 -0.000298282 -0.000191885 -0.000146912 -0.000107935 -7.49551e-05 -4.79713e-05 -2.69838e-05 -1.19928e-05 -2.9982e-06 0 0 7.67494e-06 3.06998e-05 6.90744e-05 0.000122799 0.000191873 0.000276298 0.000376072 0.000491196 0.000608527 0.000714923 0.000810382 0.000894906 0.000968495 0.00103115 0.00108286 0.00112364 0.0011537 0.00117324 0.00118227 0.00118078 0.00116878 0.00114626 0.00111323 0.00106969 0.0010302 0.00100933 0.00100709 0.00102348 0.00105849 0.00111212 0.00118439 0.00127527 0.00136742 0.00144347 0.00150341 0.00154725 0.00157499 0.00158663 0.00158217 0.0015616 0.00153712 0.00152091 0.00151296 0.00151328 0.00152187 0.00153873 0.00156386 0.00159725 0.00162591 0.00163684 0.00163003 0.00160549 0.00156321 0.0015032 0.00142546 0.00132997 0.00115301 0.000830799 0.000363354 -0.000249331 -0.00100725 -0.00191042 -0.00295882 -0.00415246 -0.00546669 -0.00687685 -0.00838295 -0.00998498 -0.0116829 -0.0134769 -0.0153667 -0.0173525 -0.0193712 -0.0213601 -0.0233189 -0.0252479 -0.0271469 -0.0290159 -0.030855 -0.0326642 -0.0343452 -0.0358001 -0.0370288 -0.0380313 -0.0388076 -0.0393576 -0.0396815 -0.0397792 -0.0396532 -0.039306 -0.0387377 -0.0379481 -0.0369374 -0.0357055 -0.0342525 -0.0325782 -0.0307844 -0.0289727 -0.027143 -0.0252954 -0.0234298 -0.0215463 -0.0196449 -0.0177255 -0.0158441 -0.0140568 -0.0123634 -0.010764 -0.00925856 -0.00784714 -0.0065297 -0.00530625 -0.00419864 -0.0032287 -0.00239643 -0.00170184 -0.00114492 -0.000725679 -0.000444112 -0.000300219 -0.000229855 -0.000168873 -0.000117273 -7.50548e-05 -4.22183e-05 -1.87637e-05 -4.69093e-06 0 0 8.58964e-06 3.43586e-05 7.73068e-05 0.000137434 0.000214741 0.000309227 0.000420892 0.000549737 0.000678363 0.000789373 0.000882767 0.000958544 0.0010167 0.00105725 0.00108018 0.00108549 0.00107418 0.00104725 0.0010047 0.000946523 0.000872723 0.000783301 0.000678255 0.000557586 0.000439994 0.000344175 0.000270132 0.000217863 0.000187369 0.00017865 0.000191705 0.000226535 0.000267534 0.000299097 0.000321223 0.000333912 0.000337165 0.000330981 0.000315361 0.000290304 0.000269582 0.000266969 0.000282464 0.000316067 0.000367779 0.000437598 0.000525525 0.00063156 0.000733363 0.000808591 0.000857245 0.000879325 0.000874831 0.000843763 0.000786121 0.000701904 0.000527643 0.000199868 -0.000281421 -0.000916224 -0.00170454 -0.00264637 -0.00374172 -0.00499058 -0.00635652 -0.00780308 -0.00933027 -0.0109381 -0.0126266 -0.0143956 -0.0162454 -0.0181757 -0.0201419 -0.0220991 -0.0240473 -0.0259866 -0.0279168 -0.0298381 -0.0317505 -0.0336538 -0.0354329 -0.0369723 -0.0382721 -0.0393323 -0.0401528 -0.0407338 -0.041075 -0.0411767 -0.041042 -0.0406741 -0.0400731 -0.0392389 -0.0381716 -0.0368711 -0.0353375 -0.0335708 -0.0316891 -0.0298109 -0.027936 -0.0260645 -0.0241964 -0.0223317 -0.0204703 -0.0186124 -0.016793 -0.0150474 -0.0133755 -0.0117775 -0.0102532 -0.00880264 -0.0074259 -0.00612292 -0.00492769 -0.00387418 -0.0029624 -0.00219233 -0.00156399 -0.00107736 -0.00073246 -0.00052928 -0.00040523 -0.00029772 -0.00020675 -0.00013232 -7.44299e-05 -3.308e-05 -8.26999e-06 0 0 9.06128e-06 3.62451e-05 8.15515e-05 0.000144981 0.000226532 0.000326206 0.000444003 0.000579922 0.000711149 0.00081487 0.000891085 0.000939793 0.000960995 0.00095469 0.000920879 0.000859562 0.000773053 0.000663664 0.000531398 0.000376253 0.00019823 -2.67176e-06 -0.000226452 -0.00047311 -0.000718951 -0.00094028 -0.0011371 -0.0013094 -0.00145719 -0.00158047 -0.00167923 -0.00175348 -0.00181333 -0.00186889 -0.00192016 -0.00196714 -0.00200983 -0.00204823 -0.00208233 -0.00211215 -0.00212293 -0.00209991 -0.00204309 -0.00195248 -0.00182808 -0.00166988 -0.00147788 -0.00125209 -0.001029 -0.000845099 -0.000700395 -0.000594885 -0.000528569 -0.000501447 -0.000513518 -0.000564784 -0.000709122 -0.00100041 -0.00143866 -0.00202385 -0.002756 -0.0036351 -0.00466115 -0.00583416 -0.00710098 -0.00840849 -0.00975669 -0.0111456 -0.0125752 -0.0140454 -0.0155564 -0.017108 -0.0186956 -0.0203145 -0.0219646 -0.023646 -0.0253586 -0.0271025 -0.0288777 -0.0306841 -0.0323909 -0.0338675 -0.0351137 -0.0361295 -0.0369151 -0.0374703 -0.0377951 -0.0378897 -0.037758 -0.0374043 -0.0368285 -0.0360306 -0.0350106 -0.0337686 -0.0323045 -0.0306183 -0.0288423 -0.0271088 -0.0254178 -0.0237694 -0.0221634 -0.0205999 -0.019079 -0.0176005 -0.0161561 -0.0147374 -0.0133445 -0.0119772 -0.0106356 -0.00931964 -0.00802942 -0.00676488 -0.00557769 -0.00451949 -0.00359028 -0.00279005 -0.00211882 -0.00157658 -0.00116333 -0.000879066 -0.000673035 -0.000494475 -0.000343385 -0.000219766 -0.000123619 -5.49416e-05 -1.37354e-05 0 0 9.08986e-06 3.63594e-05 8.18088e-05 0.000145438 0.000227247 0.000327235 0.000445403 0.000581751 0.000706886 0.000791415 0.000835337 0.000838654 0.000801365 0.000723469 0.000604968 0.00044586 0.000250309 2.24776e-05 -0.000237635 -0.000530027 -0.000854701 -0.00121165 -0.00160089 -0.0020224 -0.00244664 -0.00284404 -0.00321459 -0.00355831 -0.00387519 -0.00416522 -0.00442842 -0.00466478 -0.00487518 -0.0050605 -0.00522074 -0.0053559 -0.00546598 -0.00555099 -0.00561092 -0.00564577 -0.00564041 -0.00557973 -0.00546371 -0.00529237 -0.00506569 -0.00478369 -0.00444636 -0.0040537 -0.00366117 -0.00332423 -0.00304289 -0.00281714 -0.00264699 -0.00253243 -0.00247346 -0.00247009 -0.00255729 -0.00277005 -0.00310835 -0.00357221 -0.00416163 -0.00487659 -0.00571711 -0.00668318 -0.00770008 -0.00869309 -0.00966221 -0.0106074 -0.0115288 -0.0124262 -0.0132998 -0.0141495 -0.0150325 -0.0160064 -0.017071 -0.0182263 -0.0194723 -0.0208091 -0.0222366 -0.0237549 -0.0252194 -0.0264856 -0.0275535 -0.028423 -0.0290943 -0.0295672 -0.0298418 -0.0299181 -0.0298013 -0.0294965 -0.0290038 -0.0283231 -0.0274544 -0.0263978 -0.0251532 -0.0237207 -0.0222439 -0.0208665 -0.0195885 -0.01841 -0.0173308 -0.0163511 -0.0154708 -0.0146899 -0.0139336 -0.013127 -0.0122702 -0.0113631 -0.0104057 -0.00939813 -0.00834027 -0.00723215 -0.00614864 -0.00516461 -0.00428007 -0.00349501 -0.00280943 -0.00222333 -0.00173671 -0.00134958 -0.00103327 -0.000759138 -0.000527179 -0.000337395 -0.000189784 -8.43486e-05 -2.10872e-05 0 0 8.67538e-06 3.47015e-05 7.80784e-05 0.000138806 0.000216885 0.000312314 0.000425094 0.000555224 0.000665573 0.000719006 0.000715524 0.000655127 0.000537814 0.000363586 0.000132443 -0.000155616 -0.000494047 -0.000876308 -0.0013024 -0.00177232 -0.00228607 -0.00284365 -0.00344506 -0.0040903 -0.00474307 -0.00536709 -0.00596236 -0.00652887 -0.00706662 -0.00757562 -0.00805586 -0.00850735 -0.008918 -0.00927572 -0.00958051 -0.00983237 -0.0100313 -0.0101773 -0.0102704 -0.0103105 -0.0102829 -0.0101725 -0.00997939 -0.00970359 -0.00934507 -0.00890385 -0.00837991 -0.00777326 -0.00716314 -0.0066288 -0.00617023 -0.00578744 -0.00548042 -0.00524918 -0.00509371 -0.00501401 -0.00501686 -0.00510903 -0.00529051 -0.00556131 -0.00592142 -0.00637085 -0.00690959 -0.00753765 -0.00815382 -0.00865688 -0.00904683 -0.00932367 -0.00948741 -0.00953804 -0.00947557 -0.00929998 -0.00915259 -0.00917468 -0.00936625 -0.00972731 -0.0102578 -0.0109579 -0.0118274 -0.0128664 -0.0139183 -0.0148267 -0.0155915 -0.0162127 -0.0166904 -0.0170245 -0.0172151 -0.017262 -0.0171718 -0.0169508 -0.016599 -0.0161164 -0.015503 -0.0147588 -0.0138839 -0.0128781 -0.0118939 -0.0110839 -0.0104481 -0.00998631 -0.00969868 -0.00958518 -0.0096458 -0.00988055 -0.0101253 -0.010216 -0.0101526 -0.0099352 -0.00956369 -0.0090381 -0.00835844 -0.00752471 -0.00664054 -0.00580956 -0.00503178 -0.0043072 -0.00363581 -0.00301762 -0.00245262 -0.00194082 -0.00148594 -0.00109171 -0.000758131 -0.000485204 -0.000272927 -0.000121301 -3.03253e-05 0 0 7.81784e-06 3.12714e-05 7.03606e-05 0.000125085 0.000195446 0.000281442 0.000383074 0.000500342 0.00058721 0.000597644 0.000531645 0.000389211 0.000170343 -0.000124959 -0.000496696 -0.000944866 -0.00146002 -0.00203269 -0.00266289 -0.00335062 -0.00409587 -0.00489865 -0.00575896 -0.00667678 -0.00760825 -0.00850945 -0.00938039 -0.0102211 -0.0110315 -0.0118117 -0.0125616 -0.0132812 -0.0139418 -0.0145146 -0.0149995 -0.0153965 -0.0157058 -0.0159272 -0.0160607 -0.0161065 -0.0160503 -0.0158782 -0.0155901 -0.0151861 -0.0146662 -0.0140303 -0.0132785 -0.0124108 -0.0115349 -0.0107588 -0.0100824 -0.00950579 -0.00902888 -0.0086517 -0.00837426 -0.00819655 -0.00808784 -0.00801736 -0.00798513 -0.00799114 -0.00803538 -0.00811787 -0.00823861 -0.00839758 -0.00846219 -0.00829985 -0.00791054 -0.00729427 -0.00645105 -0.00538086 -0.00408372 -0.00255961 -0.00105577 0.000180593 0.00114947 0.00185087 0.00228478 0.00245121 0.00235016 0.00198162 0.00151239 0.00110926 0.000772235 0.000501305 0.000296473 0.00015774 8.51067e-05 7.85719e-05 0.000130383 0.000232785 0.000385779 0.000589366 0.000843544 0.00114831 0.00150368 0.00190963 0.00220757 0.00223887 0.00200355 0.0015016 0.000733028 -0.000302176 -0.00160401 -0.00317247 -0.00473137 -0.00600451 -0.0069919 -0.00769354 -0.00810943 -0.00823956 -0.00808394 -0.00764256 -0.00705338 -0.00645433 -0.00584541 -0.00522662 -0.00459796 -0.00395943 -0.00331104 -0.00265278 -0.00203104 -0.00149219 -0.00103624 -0.000663195 -0.000373047 -0.000165799 -4.14497e-05 0 0 6.51724e-06 2.6069e-05 5.86551e-05 0.000104276 0.000162931 0.000234621 0.000319345 0.000417103 0.000471798 0.00042733 0.000283699 4.09066e-05 -0.000301049 -0.000742167 -0.00128245 -0.00192189 -0.0026476 -0.00344667 -0.00431912 -0.00526493 -0.00628411 -0.00737667 -0.00854258 -0.00978187 -0.0110422 -0.0122711 -0.0134687 -0.0146349 -0.0157698 -0.0168733 -0.0179455 -0.0189863 -0.0199466 -0.020777 -0.0214776 -0.0220484 -0.0224894 -0.0228006 -0.022982 -0.0230335 -0.0229427 -0.0226968 -0.0222959 -0.02174 -0.0210291 -0.0201632 -0.0191422 -0.0179663 -0.0167765 -0.0157143 -0.0147795 -0.0139722 -0.0132923 -0.01274 -0.0123151 -0.0120177 -0.0117702 -0.011495 -0.0111922 -0.0108617 -0.0105035 -0.0101177 -0.00970415 -0.00926295 -0.0086252 -0.007622 -0.00625335 -0.00451925 -0.00241969 4.53086e-05 0.00287576 0.00607166 0.00925792 0.0120594 0.0144762 0.0165083 0.0181555 0.0194181 0.0202959 0.020789 0.0210727 0.0213222 0.0215377 0.0217191 0.0218664 0.0219796 0.0220587 0.0221037 0.0221054 0.0220543 0.0219507 0.0217943 0.0215853 0.0213237 0.0210094 0.0206424 0.0200606 0.0191019 0.0177663 0.0160538 0.0139643 0.0114979 0.00865459 0.00543435 0.00224829 -0.000492474 -0.00278793 -0.00463809 -0.00604295 -0.00700251 -0.00751676 -0.00758572 -0.00738717 -0.00709891 -0.00672094 -0.00625327 -0.00569588 -0.00504879 -0.00431198 -0.00348547 -0.00266856 -0.00196058 -0.00136151 -0.000871368 -0.000490144 -0.000217842 -5.44605e-05 0 0 4.77357e-06 1.90943e-05 4.29622e-05 7.63772e-05 0.000119339 0.000171849 0.000233905 0.000305509 0.000319336 0.000208062 -2.83116e-05 -0.000389786 -0.000876361 -0.00148804 -0.00222481 -0.00308669 -0.00405679 -0.00511826 -0.00627108 -0.00751526 -0.00885079 -0.0102777 -0.0117959 -0.0134056 -0.0150448 -0.0166521 -0.0182273 -0.0197704 -0.0212816 -0.0227607 -0.0242077 -0.0256228 -0.0269323 -0.0280631 -0.029015 -0.029788 -0.0303822 -0.0307976 -0.0310341 -0.0310918 -0.0309601 -0.0306284 -0.0300968 -0.0293653 -0.0284338 -0.0273024 -0.025971 -0.0244397 -0.0228879 -0.0214952 -0.0202614 -0.0191866 -0.0182708 -0.0175141 -0.0169163 -0.0164775 -0.016064 -0.0155421 -0.0149117 -0.014173 -0.0133258 -0.0123702 -0.0113062 -0.0101338 -0.00864285 -0.00662334 -0.00407525 -0.000998589 0.00260665 0.00674047 0.0114029 0.0165938 0.0217885 0.0264619 0.030614 0.0342449 0.0373545 0.0399428 0.0420099 0.0435558 0.0447625 0.0458122 0.0467049 0.0474406 0.0480193 0.048441 0.0487057 0.0488134 0.0487531 0.0485138 0.0480956 0.0474984 0.0467223 0.0457672 0.0446332 0.0433202 0.0416652 0.0395052 0.0368402 0.0336702 0.0299952 0.0258151 0.02113 0.0159399 0.0108136 0.00632009 0.00245926 -0.000768854 -0.00336426 -0.00532694 -0.00665691 -0.00735417 -0.00764191 -0.00774332 -0.0076584 -0.00738715 -0.00692958 -0.00628568 -0.00545545 -0.00443889 -0.00339852 -0.00249687 -0.00173394 -0.00110972 -0.000624219 -0.00027743 -6.93576e-05 0 0 1.89841e-06 7.59363e-06 1.70857e-05 3.03745e-05 4.74602e-05 6.83426e-05 9.30219e-05 0.000121498 7.97172e-05 -0.000106374 -0.000436776 -0.000911489 -0.00153051 -0.00229385 -0.00320149 -0.00425345 -0.00542584 -0.0066948 -0.00806033 -0.00952242 -0.0110811 -0.0127363 -0.0144881 -0.0163365 -0.0182213 -0.0200827 -0.0219205 -0.0237347 -0.0255255 -0.0272926 -0.0290363 -0.0307564 -0.0323545 -0.0337321 -0.0348892 -0.0358258 -0.036542 -0.0370376 -0.0373128 -0.0373675 -0.0371943 -0.0367859 -0.0361423 -0.0352635 -0.0341495 -0.0328002 -0.0312157 -0.029396 -0.0275597 -0.0259255 -0.0244934 -0.0232634 -0.0222354 -0.0214095 -0.0207857 -0.0203639 -0.0199306 -0.0192721 -0.0183884 -0.0172796 -0.0159456 -0.0143864 -0.0126021 -0.0105925 -0.00810264 -0.00487728 -0.00091642 0.00377993 0.00921177 0.0153791 0.0222819 0.0299203 0.0375807 0.0445499 0.0508278 0.0564145 0.0613099 0.0655141 0.069027 0.0718487 0.0741718 0.0761888 0.0778997 0.0793047 0.0804035 0.0811964 0.0816832 0.081864 0.0817266 0.0812587 0.0804604 0.0793317 0.0778726 0.0760831 0.0739631 0.0715128 0.0685649 0.0649527 0.0606759 0.0557346 0.0501289 0.0438587 0.036924 0.0293248 0.021822 0.0151764 0.00938786 0.00445651 0.000382319 -0.00283472 -0.00519459 -0.00669731 -0.00761843 -0.0082335 -0.00854252 -0.0085455 -0.00824243 -0.00763331 -0.00671815 -0.00549694 -0.00420859 -0.00309203 -0.00214724 -0.00137423 -0.000773007 -0.000343558 -8.58896e-05 0 0 -2.79671e-06 -1.11868e-05 -2.51704e-05 -4.47474e-05 -6.99178e-05 -0.000100682 -0.000137039 -0.000178989 -0.000297165 -0.000562195 -0.000974082 -0.00153282 -0.00223842 -0.00309088 -0.00409018 -0.00523635 -0.00649298 -0.00782367 -0.00922843 -0.0107073 -0.0122602 -0.0138871 -0.0155881 -0.0173632 -0.0191768 -0.0209933 -0.0228127 -0.024635 -0.0264602 -0.0282883 -0.0301193 -0.0319532 -0.0336684 -0.0351433 -0.0363779 -0.0373723 -0.0381264 -0.0386402 -0.0389137 -0.038947 -0.0387374 -0.0382824 -0.0375821 -0.0366364 -0.0354454 -0.034009 -0.0323273 -0.0304001 -0.0284826 -0.0268295 -0.0254409 -0.0243167 -0.0234571 -0.0228619 -0.0225312 -0.022465 -0.0223314 -0.0217988 -0.020867 -0.0195361 -0.0178062 -0.0156771 -0.0131489 -0.0102216 -0.00659209 -0.00195723 0.00368299 0.0103285 0.0179795 0.0266357 0.0362973 0.0469642 0.0576794 0.0674855 0.0763828 0.084371 0.0914503 0.0976207 0.102882 0.107235 0.11089 0.114061 0.116748 0.11895 0.120667 0.1219 0.122648 0.122912 0.122679 0.121937 0.120685 0.118924 0.116654 0.113875 0.110587 0.10679 0.102303 0.096948 0.0907238 0.0836308 0.0756688 0.0668381 0.0571384 0.0465699 0.0361308 0.0268195 0.018636 0.0115803 0.00565243 0.000852323 -0.00282 -0.00536452 -0.00711756 -0.00841541 -0.00925806 -0.00964553 -0.00957781 -0.00905491 -0.00807681 -0.00664352 -0.00508645 -0.00373698 -0.00259513 -0.00166088 -0.000934245 -0.00041522 -0.000103805 0 0 -9.31178e-06 -3.72471e-05 -8.3806e-05 -0.000148988 -0.000232794 -0.000335224 -0.000456277 -0.000595954 -0.00081131 -0.0011594 -0.00164023 -0.00225379 -0.00300009 -0.00387912 -0.00489089 -0.0060354 -0.0072582 -0.00850486 -0.00977538 -0.0110698 -0.012388 -0.0137301 -0.0150961 -0.0164859 -0.0179113 -0.0193839 -0.0209039 -0.0224712 -0.0240857 -0.0257475 -0.0274567 -0.0292131 -0.030874 -0.0322967 -0.0334812 -0.0344275 -0.0351355 -0.0356053 -0.0358369 -0.0358302 -0.0355892 -0.0351179 -0.0344162 -0.0334841 -0.0323216 -0.0309288 -0.0293056 -0.027452 -0.0256564 -0.0242069 -0.0231037 -0.0223467 -0.0219358 -0.0218712 -0.0221528 -0.0227807 -0.0232665 -0.0231221 -0.0223474 -0.0209426 -0.0189075 -0.0162423 -0.0129468 -0.00902108 -0.0041112 0.00213681 0.00972297 0.0186473 0.0289097 0.0405103 0.053449 0.0677258 0.0820845 0.0952689 0.107279 0.118114 0.127776 0.136263 0.143575 0.149713 0.154918 0.15943 0.163249 0.166376 0.16881 0.170552 0.171601 0.171957 0.17161 0.170547 0.168769 0.166276 0.163068 0.159144 0.154505 0.149151 0.14288 0.135491 0.126984 0.117359 0.106615 0.0947532 0.0817732 0.067675 0.0537399 0.0412496 0.0302038 0.0206026 0.0124461 0.00573417 0.000466874 -0.00335581 -0.0061393 -0.00828904 -0.00980503 -0.0106873 -0.0109357 -0.0105505 -0.00953143 -0.00787865 -0.00603209 -0.00443174 -0.0030776 -0.00196966 -0.00110793 -0.000492415 -0.000123104 0 0 -1.76468e-05 -7.05872e-05 -0.000158821 -0.000282349 -0.00044117 -0.000635284 -0.000864693 -0.00112939 -0.00146272 -0.00189799 -0.00243522 -0.00307439 -0.00381552 -0.00465859 -0.00560362 -0.0066506 -0.00772152 -0.00873838 -0.00970119 -0.0106099 -0.0114646 -0.0122653 -0.0130118 -0.0137044 -0.0144247 -0.0152546 -0.0161941 -0.0172433 -0.0184021 -0.0196705 -0.0210485 -0.0225362 -0.0239715 -0.0251924 -0.026199 -0.0269913 -0.0275693 -0.0279329 -0.0280822 -0.0280172 -0.0277499 -0.0272923 -0.0266445 -0.0258064 -0.0247781 -0.0235596 -0.0221508 -0.0205517 -0.0190812 -0.0180579 -0.0174819 -0.0173532 -0.0176717 -0.0184376 -0.0196506 -0.021311 -0.0227357 -0.023242 -0.0228297 -0.021499 -0.0192497 -0.0160819 -0.0119957 -0.00699091 -0.000659969 0.00740484 0.0172035 0.0287361 0.0420025 0.0570028 0.0737369 0.0922049 0.110796 0.1279 0.143516 0.157645 0.170286 0.18144 0.191106 0.199285 0.206255 0.212294 0.217404 0.221584 0.224833 0.227152 0.228541 0.229 0.22852 0.227091 0.224713 0.221387 0.217112 0.211889 0.205717 0.198597 0.190296 0.180582 0.169457 0.156918 0.142967 0.127604 0.110828 0.0926401 0.0746495 0.0584665 0.0440911 0.0315234 0.0207633 0.0118108 0.00466602 -0.000671165 -0.00468366 -0.00785441 -0.0101834 -0.0116707 -0.0123162 -0.01212 -0.011082 -0.00920231 -0.00704552 -0.0051763 -0.00359465 -0.00230058 -0.00129407 -0.000575144 -0.000143786 0 0 -2.78018e-05 -0.000111207 -0.000250216 -0.000444828 -0.000695044 -0.00100086 -0.00136229 -0.00177931 -0.00225139 -0.00277797 -0.00335905 -0.00399463 -0.0046847 -0.00542928 -0.006228