<?xml version="1.0"?> 
<VTKFile type="StructuredGrid" version="0.1"> 
<StructuredGrid WholeExtent="0 128 0 128 0 0"> 
<Piece Extent="0 128 0 128 0 0"> 
<PointData>
<DataArray type="Float32" Name="u" format="ascii" NumberOfComponents="1"> 
0 0 0 0 0 0 0 0 0 0 0 0 0 0 0 0 0 0 0 0 0 0 0 0 0 0 0 0 0 0 0 0 0 0 0 0 0 0 0 0 0 0 0 0 0 0 0 0 0 0 0 0 0 0 0 0 0 0 0 0 0 0 0 0 0 0 0 0 0 0 0 0 0 0 0 0 0 0 0 0 0 0 0 0 0 0 0 0 0 0 0 0 0 0 0 0 0 0 0 0 0 0 0 0 0 0 0 0 0 0 0 0 0 0 0 0 0 0 0 0 0 0 0 0 0 0 0 0 0 0 5.55537e-08 2.22215e-07 4.99983e-07 8.88859e-07 1.38884e-06 1.99993e-06 2.72213e-06 3.55543e-06 4.22994e-06 4.47573e-06 4.2928e-06 3.68117e-06 2.64082e-06 1.17176e-06 -7.26015e-07 -3.0525e-06 -5.82099e-06 -9.04476e-06 -1.27238e-05 -1.68582e-05 -2.14478e-05 -2.64928e-05 -3.1993e-05 -3.79485e-05 -4.4066e-05 -5.0052e-05 -5.59066e-05 -6.16298e-05 -6.72216e-05 -7.26819e-05 -7.80108e-05 -8.32083e-05 -8.79797e-05 -9.20301e-05 -9.53597e-05 -9.79683e-05 -9.98561e-05 -0.000101023 -0.000101469 -0.000101194 -0.000100254 -9.87061e-05 -9.65495e-05 -9.37845e-05 -9.0411e-05 -8.6429e-05 -8.18385e-05 -7.66396e-05 -7.14188e-05 -6.67625e-05 -6.26708e-05 -5.91438e-05 -5.61813e-05 -5.37835e-05 -5.19502e-05 -5.06815e-05 -5.02551e-05 -5.09487e-05 -5.27621e-05 -5.56954e-05 -5.97487e-05 -6.49219e-05 -7.1215e-05 -7.8628e-05 -8.70703e-05 -9.64513e-05 -0.000106771 -0.000118029 -0.000130226 -0.000143362 -0.000157436 -0.000172449 -0.000188048 -0.000203884 -0.000219954 -0.000236259 -0.0002528 -0.000269576 -0.000286588 -0.000303834 -0.000320105 -0.000334188 -0.000346085 -0.000355795 -0.000363317 -0.000368653 -0.000371802 -0.000372763 -0.000371601 -0.000368379 -0.000363098 -0.000355756 -0.000346355 -0.000334893 -0.000321372 -0.00030579 -0.000289301 -0.000273053 -0.000257049 -0.000241287 -0.000225768 -0.000210492 -0.000195458 -0.000180667 -0.000166242 -0.000152307 -0.000138862 -0.000125907 -0.000113441 -0.000101465 -8.99786e-05 -7.89821e-05 -6.86213e-05 -5.90423e-05 -5.02453e-05 -4.223e-05 -3.49966e-05 -2.85451e-05 -2.28754e-05 -1.79876e-05 -1.37718e-05 -1.0118e-05 -7.02641e-06 -4.4969e-06 -2.52951e-06 -1.12423e-06 -2.81056e-07 0 0 2.22215e-07 8.88859e-07 1.99993e-06 3.55543e-06 5.55537e-06 7.99973e-06 1.08885e-05 1.42217e-05 1.69197e-05 1.79029e-05 1.71712e-05 1.47247e-05 1.05633e-05 4.68703e-06 -2.90406e-06 -1.221e-05 -2.3284e-05 -3.61791e-05 -5.08953e-05 -6.74327e-05 -8.57913e-05 -0.000105971 -0.000127972 -0.000151794 -0.000176264 -0.000200208 -0.000223626 -0.000246519 -0.000268886 -0.000290728 -0.000312043 -0.000332833 -0.000351919 -0.000368121 -0.000381439 -0.000391873 -0.000399424 -0.000404092 -0.000405875 -0.000404776 -0.000401017 -0.000394824 -0.000386198 -0.000375138 -0.000361644 -0.000345716 -0.000327354 -0.000306558 -0.000285675 -0.00026705 -0.000250683 -0.000236575 -0.000224725 -0.000215134 -0.000207801 -0.000202726 -0.000201021 -0.000203795 -0.000211048 -0.000222782 -0.000238995 -0.000259688 -0.00028486 -0.000314512 -0.000348281 -0.000385805 -0.000427083 -0.000472116 -0.000520904 -0.000573446 -0.000629743 -0.000689795 -0.000752194 -0.000815534 -0.000879815 -0.000945037 -0.0010112 -0.0010783 -0.00114635 -0.00121534 -0.00128042 -0.00133675 -0.00138434 -0.00142318 -0.00145327 -0.00147461 -0.00148721 -0.00149105 -0.0014864 -0.00147352 -0.00145239 -0.00142302 -0.00138542 -0.00133957 -0.00128549 -0.00122316 -0.0011572 -0.00109221 -0.0010282 -0.000965148 -0.000903072 -0.000841967 -0.000781832 -0.000722669 -0.00066497 -0.00060923 -0.000555449 -0.000503627 -0.000453764 -0.00040586 -0.000359915 -0.000315928 -0.000274485 -0.000236169 -0.000200981 -0.00016892 -0.000139987 -0.00011418 -9.15017e-05 -7.19504e-05 -5.5087e-05 -4.04721e-05 -2.81056e-05 -1.79876e-05 -1.0118e-05 -4.4969e-06 -1.12423e-06 0 0 4.99983e-07 1.99993e-06 4.49985e-06 7.99973e-06 1.24996e-05 1.79994e-05 2.44992e-05 3.19989e-05 3.80694e-05 4.02815e-05 3.86352e-05 3.31305e-05 2.37674e-05 1.05458e-05 -6.53413e-06 -2.74725e-05 -5.23889e-05 -8.14029e-05 -0.000114514 -0.000151724 -0.00019303 -0.000238435 -0.000287937 -0.000341537 -0.000396594 -0.000450468 -0.000503159 -0.000554668 -0.000604994 -0.000654137 -0.000702097 -0.000748875 -0.000791817 -0.000828271 -0.000858237 -0.000881715 -0.000898705 -0.000909206 -0.00091322 -0.000910745 -0.000902288 -0.000888355 -0.000868946 -0.00084406 -0.000813699 -0.000777861 -0.000736547 -0.000689756 -0.000642769 -0.000600862 -0.000564038 -0.000532294 -0.000505632 -0.000484051 -0.000467552 -0.000456134 -0.000452296 -0.000458538 -0.000474859 -0.000501259 -0.000537738 -0.000584297 -0.000640935 -0.000707652 -0.000783633 -0.000868061 -0.000960938 -0.00106226 -0.00117203 -0.00129025 -0.00141692 -0.00155204 -0.00169244 -0.00183495 -0.00197958 -0.00212633 -0.0022752 -0.00242619 -0.00257929 -0.00273451 -0.00288094 -0.0030077 -0.00311477 -0.00320215 -0.00326986 -0.00331788 -0.00334621 -0.00335487 -0.00334441 -0.00331542 -0.00326788 -0.0032018 -0.00311719 -0.00301404 -0.00289235 -0.00275211 -0.0026037 -0.00245748 -0.00231344 -0.00217158 -0.00203191 -0.00189443 -0.00175912 -0.001626 -0.00149618 -0.00137077 -0.00124976 -0.00113316 -0.00102097 -0.000913184 -0.000809808 -0.000710839 -0.000617591 -0.000531381 -0.000452207 -0.00038007 -0.00031497 -0.000256906 -0.000205879 -0.000161888 -0.000123946 -9.10622e-05 -6.32377e-05 -4.04721e-05 -2.27656e-05 -1.0118e-05 -2.52951e-06 0 0 8.88859e-07 3.55543e-06 7.99973e-06 1.42217e-05 2.22215e-05 3.19989e-05 4.35541e-05 5.68869e-05 6.7679e-05 7.16116e-05 6.86848e-05 5.88987e-05 4.22531e-05 1.87481e-05 -1.16162e-05 -4.884e-05 -9.31358e-05 -0.000144716 -0.000203581 -0.000269731 -0.000343165 -0.000423884 -0.000511888 -0.000607176 -0.000705055 -0.000800832 -0.000894506 -0.000986077 -0.00107554 -0.00116291 -0.00124817 -0.00133133 -0.00140767 -0.00147248 -0.00152575 -0.00156749 -0.0015977 -0.00161637 -0.0016235 -0.0016191 -0.00160407 -0.0015793 -0.00154479 -0.00150055 -0.00144658 -0.00138286 -0.00130942 -0.00122623 -0.0011427 -0.0010682 -0.00100273 -0.000946301 -0.000898901 -0.000860535 -0.000831203 -0.000810905 -0.000804082 -0.000815178 -0.000844193 -0.000891127 -0.000955979 -0.00103875 -0.00113944 -0.00125805 -0.00139312 -0.00154322 -0.00170833 -0.00188847 -0.00208362 -0.00229379 -0.00251897 -0.00275918 -0.00300878 -0.00326214 -0.00351926 -0.00378015 -0.0040448 -0.00431322 -0.0045854 -0.00486135 -0.00512168 -0.00534702 -0.00553736 -0.00569272 -0.00581308 -0.00589845 -0.00594882 -0.00596421 -0.00594562 -0.00589407 -0.00580956 -0.0056921 -0.00554167 -0.00535829 -0.00514195 -0.00489265 -0.00462881 -0.00436885 -0.00411278 -0.00386059 -0.00361229 -0.00336787 -0.00312733 -0.00289067 -0.00265988 -0.00243692 -0.0022218 -0.00201451 -0.00181506 -0.00162344 -0.00143966 -0.00126371 -0.00109794 -0.000944677 -0.000803924 -0.00067568 -0.000559946 -0.000456722 -0.000366007 -0.000287802 -0.000220348 -0.000161888 -0.000112423 -7.19504e-05 -4.04721e-05 -1.79876e-05 -4.4969e-06 0 0 1.38884e-06 5.55537e-06 1.24996e-05 2.22215e-05 3.4721e-05 4.99983e-05 6.80532e-05 8.88859e-05 0.000105748 0.000111893 0.00010732 9.20292e-05 6.60205e-05 2.9294e-05 -1.81504e-05 -7.63125e-05 -0.000145525 -0.000226119 -0.000318096 -0.000421455 -0.000536196 -0.000662319 -0.000799825 -0.000948713 -0.00110165 -0.0012513 -0.00139766 -0.00154074 -0.00168054 -0.00181705 -0.00195027 -0.00208021 -0.00219949 -0.00230075 -0.00238399 -0.00244921 -0.0024964 -0.00252557 -0.00253672 -0.00252985 -0.00250636 -0.00246765 -0.00241374 -0.00234461 -0.00226027 -0.00216072 -0.00204596 -0.00191599 -0.00178547 -0.00166906 -0.00156677 -0.00147859 -0.00140453 -0.00134459 -0.00129876 -0.00126704 -0.00125638 -0.00127372 -0.00131905 -0.00139239 -0.00149372 -0.00162305 -0.00178037 -0.0019657 -0.00217676 -0.00241128 -0.00266927 -0.00295073 -0.00325565 -0.00358404 -0.00393589 -0.00431122 -0.00470121 -0.00509709 -0.00549885 -0.00590648 -0.00632 -0.00673941 -0.00716469 -0.00759585 -0.00800262 -0.00835471 -0.00865213 -0.00889487 -0.00908293 -0.00921632 -0.00929504 -0.00931908 -0.00929003 -0.00920949 -0.00907744 -0.0088939 -0.00865886 -0.00837233 -0.00803429 -0.00764476 -0.00723251 -0.00682633 -0.00642622 -0.00603218 -0.0056442 -0.00526229 -0.00488645 -0.00451668 -0.00415606 -0.00380769 -0.00347156 -0.00314767 -0.00283602 -0.00253662 -0.00224947 -0.00197455 -0.00171553 -0.00147606 -0.00125613 -0.00105575 -0.000874916 -0.000713628 -0.000571886 -0.00044969 -0.000344294 -0.000252951 -0.00017566 -0.000112423 -6.32377e-05 -2.81056e-05 -7.02641e-06 0 0 1.99993e-06 7.99973e-06 1.79994e-05 3.19989e-05 4.99983e-05 7.19975e-05 9.79967e-05 0.000127996 0.000152278 0.000161126 0.000154541 0.000132522 9.50695e-05 4.21833e-05 -2.61365e-05 -0.00010989 -0.000209556 -0.000325612 -0.000458058 -0.000606895 -0.000772122 -0.00095374 -0.00115175 -0.00136615 -0.00158637 -0.00180187 -0.00201264 -0.00221867 -0.00241998 -0.00261655 -0.00280839 -0.0029955 -0.00316727 -0.00331308 -0.00343295 -0.00352686 -0.00359482 -0.00363682 -0.00365288 -0.00364298 -0.00360915 -0.00355342 -0.00347578 -0.00337624 -0.00325479 -0.00311144 -0.00294619 -0.00275903 -0.00257108 -0.00240345 -0.00225615 -0.00212918 -0.00202253 -0.0019362 -0.00187021 -0.00182454 -0.00180918 -0.00183415 -0.00189943 -0.00200504 -0.00215095 -0.00233719 -0.00256374 -0.00283061 -0.00313453 -0.00347225 -0.00384375 -0.00424905 -0.00468814 -0.00516102 -0.00566769 -0.00620815 -0.00676974 -0.00733981 -0.00791834 -0.00850534 -0.00910081 -0.00970474 -0.0103172 -0.010938 -0.0115238 -0.0120308 -0.0124591 -0.0128086 -0.0130794 -0.0132715 -0.0133849 -0.0134195 -0.0133776 -0.0132617 -0.0130715 -0.0128072 -0.0124688 -0.0120562 -0.0115694 -0.0110085 -0.0104148 -0.00982992 -0.00925376 -0.00868633 -0.00812765 -0.0075777 -0.00703649 -0.00650402 -0.00598473 -0.00548307 -0.00499904 -0.00453264 -0.00408388 -0.00365274 -0.00323923 -0.00284335 -0.00247037 -0.00212552 -0.00180883 -0.00152028 -0.00125988 -0.00102762 -0.000823516 -0.000647554 -0.000495783 -0.000364249 -0.000252951 -0.000161888 -9.10622e-05 -4.04721e-05 -1.0118e-05 0 0 2.72213e-06 1.08885e-05 2.44992e-05 4.35541e-05 6.80532e-05 9.79967e-05 0.000133384 0.000174216 0.000207267 0.000219311 0.000210347 0.000180377 0.0001294 5.74162e-05 -3.55747e-05 -0.000149573 -0.000285228 -0.000443193 -0.000623468 -0.000826051 -0.00105094 -0.00129815 -0.00156766 -0.00185948 -0.00215923 -0.00245255 -0.00273942 -0.00301986 -0.00329386 -0.00356141 -0.00382253 -0.00407721 -0.004311 -0.00450948 -0.00467262 -0.00480045 -0.00489295 -0.00495012 -0.00497197 -0.0049585 -0.00491246 -0.0048366 -0.00473093 -0.00459544 -0.00443014 -0.00423502 -0.00401009 -0.00375534 -0.00349952 -0.00327136 -0.00307087 -0.00289805 -0.00275288 -0.00263539 -0.00254556 -0.0024834 -0.0024625 -0.00249648 -0.00258534 -0.00272908 -0.00292769 -0.00318117 -0.00348953 -0.00385277 -0.00426645 -0.00472611 -0.00523177 -0.00578343 -0.00638108 -0.00702472 -0.00771435 -0.00844998 -0.00921437 -0.00999029 -0.0107777 -0.0115767 -0.0123872 -0.0132092 -0.0140428 -0.0148879 -0.0156851 -0.0163752 -0.0169582 -0.0174339 -0.0178026 -0.018064 -0.0182183 -0.0182654 -0.0182085 -0.0180506 -0.0177918 -0.017432 -0.0169714 -0.0164098 -0.0157472 -0.0149837 -0.0141757 -0.0133796 -0.0125954 -0.0118231 -0.0110626 -0.0103141 -0.00957744 -0.00885269 -0.00814588 -0.00746307 -0.00680425 -0.00616943 -0.00555861 -0.00497178 -0.00440895 -0.00387012 -0.00336244 -0.00289307 -0.00246202 -0.00206927 -0.00171484 -0.00139871 -0.0011209 -0.000881393 -0.000674816 -0.000495783 -0.000344294 -0.000220348 -0.000123946 -5.5087e-05 -1.37718e-05 0 0 3.55543e-06 1.42217e-05 3.19989e-05 5.68869e-05 8.88859e-05 0.000127996 0.000174216 0.000227548 0.000270716 0.000286446 0.000274739 0.000235595 0.000169012 7.49925e-05 -4.64649e-05 -0.00019536 -0.000372543 -0.000578865 -0.000814325 -0.00107892 -0.00137266 -0.00169554 -0.00204755 -0.0024287 -0.00282022 -0.00320333 -0.00357802 -0.00394431 -0.00430218 -0.00465164 -0.00499269 -0.00532533 -0.0056307 -0.00588993 -0.00610302 -0.00626997 -0.00639079 -0.00646547 -0.00649401 -0.00647641 -0.00641627 -0.00631719 -0.00617917 -0.00600221 -0.0057863 -0.00553145 -0.00523767 -0.00490493 -0.0045708 -0.0042728 -0.00401093 -0.0037852 -0.0035956 -0.00344214 -0.00332481 -0.00324362 -0.00321633 -0.00326071 -0.00337677 -0.00356451 -0.00382392 -0.004155 -0.00455776 -0.00503219 -0.0055725 -0.00617288 -0.00683334 -0.00755386 -0.00833447 -0.00917514 -0.0100759 -0.0110367 -0.0120351 -0.0130485 -0.014077 -0.0151206 -0.0161792 -0.0172529 -0.0183416 -0.0194454 -0.0204867 -0.0213881 -0.0221494 -0.0227709 -0.0232523 -0.0235938 -0.0237953 -0.0238568 -0.0237825 -0.0235763 -0.0232383 -0.0227684 -0.0221667 -0.0214332 -0.0205678 -0.0195706 -0.0185152 -0.0174754 -0.0164511 -0.0154424 -0.0144492 -0.0134715 -0.0125093 -0.0115627 -0.0106395 -0.00974768 -0.00888718 -0.00805803 -0.00726022 -0.00649376 -0.00575863 -0.00505485 -0.00439176 -0.00377871 -0.0032157 -0.00270272 -0.00223978 -0.00182689 -0.00146403 -0.00115121 -0.000881393 -0.000647554 -0.00044969 -0.000287802 -0.000161888 -7.19504e-05 -1.79876e-05 0 0 4.07291e-06 1.62916e-05 3.66562e-05 6.51666e-05 0.000101823 0.000146625 0.000199573 0.000260666 0.000308606 0.000322093 0.000301126 0.000245706 0.000155833 3.15064e-05 -0.000127273 -0.000320507 -0.000549128 -0.000814072 -0.00111534 -0.00145293 -0.00182684 -0.00223708 -0.00268364 -0.00316652 -0.00366251 -0.00414838 -0.00462415 -0.00508981 -0.00554536 -0.0059908 -0.00642613 -0.00685135 -0.00724199 -0.00757355 -0.00784606 -0.0080595 -0.00821388 -0.0083092 -0.00834545 -0.00832263 -0.00824568 -0.00811951 -0.00794412 -0.00771951 -0.00744569 -0.00712265 -0.00675039 -0.00632891 -0.00590573 -0.00552836 -0.00519679 -0.00491103 -0.00467108 -0.00447693 -0.0043286 -0.00422606 -0.00418789 -0.00423261 -0.00436024 -0.00457078 -0.00486421 -0.00524055 -0.00569979 -0.00624194 -0.00685755 -0.00753719 -0.00828087 -0.00908857 -0.0099603 -0.0108961 -0.0118959 -0.0129597 -0.0140664 -0.0151947 -0.0163447 -0.0175164 -0.0187098 -0.0199248 -0.0211615 -0.0224198 -0.0236091 -0.0246387 -0.0255084 -0.0262184 -0.0267686 -0.027159 -0.0273896 -0.0274604 -0.0273763 -0.027142 -0.0267577 -0.0262231 -0.0255385 -0.0247037 -0.0237188 -0.0225838 -0.0213845 -0.0202068 -0.0190507 -0.0179161 -0.0168032 -0.0157119 -0.0146422 -0.013594 -0.0125706 -0.011575 -0.0106072 -0.00966729 -0.00875518 -0.00787089 -0.00701443 -0.0061858 -0.00539913 -0.00466857 -0.00399411 -0.00337577 -0.00281353 -0.0023074 -0.00185737 -0.00146346 -0.00112046 -0.000823194 -0.000571662 -0.000365864 -0.000205798 -9.1466e-05 -2.28665e-05 0 0 3.84763e-06 1.53905e-05 3.46286e-05 6.1562e-05 9.61906e-05 0.000138515 0.000188534 0.000246248 0.000286919 0.000285809 0.000242917 0.000158243 3.17884e-05 -0.000136448 -0.000346467 -0.000598266 -0.00089261 -0.00123026 -0.00161122 -0.00203548 -0.00250305 -0.00301393 -0.00356811 -0.00416561 -0.00477925 -0.00538189 -0.00597353 -0.00655418 -0.00712382 -0.00768246 -0.0082301 -0.00876674 -0.00926049 -0.00967947 -0.0100237 -0.0102931 -0.0104878 -0.0106077 -0.0106528 -0.0106231 -0.0105258 -0.0103679 -0.0101494 -0.00987033 -0.0095307 -0.00913051 -0.00866973 -0.00814839 -0.00762513 -0.00715864 -0.0067489 -0.00639592 -0.0060997 -0.00586024 -0.00567754 -0.00555159 -0.0054944 -0.00551796 -0.00562227 -0.00580733 -0.00607314 -0.0064197 -0.00684702 -0.00735508 -0.00792646 -0.00854369 -0.0092068 -0.00991576 -0.0106706 -0.0114713 -0.0123178 -0.0132103 -0.0141426 -0.0151089 -0.0161092 -0.0171435 -0.0182118 -0.0193141 -0.0204503 -0.0216205 -0.0227331 -0.0236965 -0.0245106 -0.0251755 -0.0256911 -0.0260575 -0.0262747 -0.0263427 -0.0262665 -0.0260512 -0.0256967 -0.0252032 -0.0245706 -0.0237988 -0.022888 -0.0218381 -0.0207346 -0.0196631 -0.0186237 -0.0176162 -0.0166408 -0.0156974 -0.014786 -0.0139067 -0.0130441 -0.0121831 -0.0113238 -0.0104661 -0.00960994 -0.00875542 -0.0079025 -0.0070512 -0.00622535 -0.00544879 -0.00472152 -0.00404355 -0.00341487 -0.00283549 -0.0023054 -0.0018246 -0.00139696 -0.00102634 -0.000712734 -0.00045615 -0.000256584 -0.000114038 -2.85094e-05 0 0 2.87958e-06 1.15183e-05 2.59162e-05 4.60732e-05 7.19894e-05 0.000103665 0.000141099 0.000184293 0.000205655 0.000177595 0.000100112 -2.67936e-05 -0.000203121 -0.000428872 -0.000704044 -0.00102864 -0.00140299 -0.00182743 -0.00230196 -0.00282658 -0.00340129 -0.0040261 -0.00470099 -0.00542597 -0.00617045 -0.00690385 -0.00762617 -0.0083374 -0.00903755 -0.00972662 -0.0104046 -0.0110715 -0.0116862 -0.0122077 -0.0126359 -0.0129708 -0.0132124 -0.0133608 -0.013416 -0.0133778 -0.0132565 -0.0130623 -0.012795 -0.0124547 -0.0120413 -0.011555 -0.0109957 -0.0103634 -0.009729 -0.00916364 -0.00866726 -0.00823988 -0.00788147 -0.00759206 -0.00737164 -0.0072202 -0.00713586 -0.00711674 -0.00716285 -0.00727417 -0.0074507 -0.00769246 -0.00799943 -0.00837163 -0.00877922 -0.00919238 -0.00961112 -0.0100354 -0.0104653 -0.0109008 -0.0113418 -0.0117884 -0.0122638 -0.0127912 -0.0133706 -0.014002 -0.0146853 -0.0154207 -0.016208 -0.0170474 -0.0178586 -0.0185614 -0.019156 -0.0196422 -0.02002 -0.0202896 -0.0204508 -0.0205037 -0.020453 -0.0203036 -0.0200555 -0.0197086 -0.0192629 -0.0187185 -0.0180754 -0.0173335 -0.0165656 -0.0158445 -0.0151702 -0.0145427 -0.013962 -0.0134281 -0.0129409 -0.0125006 -0.01206 -0.0115721 -0.0110369 -0.0104543 -0.00982449 -0.00914733 -0.00842285 -0.00765106 -0.00687042 -0.00611937 -0.00539792 -0.00470607 -0.00404381 -0.00341116 -0.0028081 -0.00223464 -0.0017109 -0.00125698 -0.000872906 -0.00055866 -0.000314246 -0.000139665 -3.49162e-05 0 0 1.16877e-06 4.67507e-06 1.05189e-05 1.87003e-05 2.92192e-05 4.20756e-05 5.72696e-05 7.48011e-05 6.48134e-05 -2.55016e-06 -0.00012729 -0.000309405 -0.000548896 -0.000845763 -0.00120001 -0.00161163 -0.00208027 -0.00260558 -0.00318757 -0.00382623 -0.00452157 -0.00527357 -0.00608225 -0.0069476 -0.00783611 -0.00871426 -0.00958205 -0.0104395 -0.0112866 -0.0121233 -0.0129496 -0.0137656 -0.0145192 -0.0151582 -0.0156826 -0.0160925 -0.0163879 -0.0165688 -0.016635 -0.0165868 -0.016438 -0.0162027 -0.0158809 -0.0154725 -0.0149776 -0.0143962 -0.0137283 -0.0129738 -0.0122173 -0.0115434 -0.0109519 -0.0104429 -0.0100164 -0.0096724 -0.00941089 -0.00923189 -0.00911228 -0.00902897 -0.00898198 -0.00897128 -0.0089969 -0.00905882 -0.00915704 -0.00929157 -0.00941583 -0.00948326 -0.00949384 -0.00944759 -0.0093445 -0.00918456 -0.0089678 -0.00869419 -0.00843001 -0.00824154 -0.00812877 -0.00809171 -0.00813035 -0.0082447 -0.00843475 -0.0087005 -0.00898558 -0.00923359 -0.00944455 -0.00961844 -0.00975527 -0.00985504 -0.00991775 -0.0099434 -0.00993598 -0.00989948 -0.00983392 -0.00973927 -0.00961556 -0.00946276 -0.0092809 -0.00906996 -0.00887744 -0.00875086 -0.0086902 -0.00869547 -0.00876667 -0.0089038 -0.00910685 -0.00937584 -0.00961832 -0.00974186 -0.00974646 -0.00963213 -0.00939885 -0.00904664 -0.00857548 -0.00798539 -0.00733434 -0.00668031 -0.0060233 -0.00536331 -0.00470035 -0.0040344 -0.00336548 -0.00269357 -0.00206227 -0.00151514 -0.00105218 -0.000673393 -0.000378784 -0.000168348 -4.20871e-05 0 0 -1.28481e-06 -5.13923e-06 -1.15633e-05 -2.05569e-05 -3.21202e-05 -4.6253e-05 -6.29555e-05 -8.22276e-05 -0.000135605 -0.000254625 -0.000439287 -0.000689591 -0.00100554 -0.00138712 -0.00183435 -0.00234722 -0.00292444 -0.00356472 -0.00426805 -0.00503443 -0.00586387 -0.00675636 -0.00771191 -0.00873051 -0.00977623 -0.0108131 -0.0118412 -0.0128604 -0.0138708 -0.0148724 -0.0158652 -0.0168491 -0.0177593 -0.018531 -0.019164 -0.0196584 -0.0200142 -0.0202314 -0.02031 -0.02025 -0.0200701 -0.0197892 -0.0194071 -0.0189238 -0.0183395 -0.017654 -0.0168675 -0.0159798 -0.0150901 -0.0142978 -0.0136027 -0.013005 -0.0125045 -0.0121012 -0.0117953 -0.0115867 -0.0114236 -0.0112546 -0.0110797 -0.0108987 -0.0107117 -0.0105188 -0.0103198 -0.0101149 -0.0098363 -0.00941632 -0.00885496 -0.00815222 -0.00730812 -0.00632263 -0.00519578 -0.00392754 -0.00264118 -0.00145993 -0.000383795 0.000587226 0.00145313 0.00221393 0.00286961 0.00342018 0.0038859 0.00428707 0.00462366 0.0048957 0.00510316 0.00524607 0.0053244 0.00533818 0.0052847 0.00516131 0.00496798 0.00470473 0.00437155 0.00396844 0.00349541 0.00295246 0.00232983 0.00161777 0.000816299 -7.45962e-05 -0.00105491 -0.00212465 -0.00328381 -0.00453239 -0.00571905 -0.00669244 -0.00745256 -0.00799942 -0.00833301 -0.00845333 -0.00836039 -0.00805418 -0.00761712 -0.00713162 -0.00659768 -0.0060153 -0.00538448 -0.00470523 -0.00397753 -0.0032014 -0.00245107 -0.00180079 -0.00125055 -0.000800351 -0.000450197 -0.000200088 -5.00219e-05 0 0 -4.48114e-06 -1.79246e-05 -4.03303e-05 -7.16983e-05 -0.000112029 -0.000161321 -0.000219576 -0.000286793 -0.000395602 -0.000578631 -0.00083588 -0.00116735 -0.00157304 -0.00205295 -0.00260708 -0.00323544 -0.00393552 -0.00470484 -0.00554339 -0.00645118 -0.0074282 -0.00847447 -0.00958996 -0.0107747 -0.0119908 -0.0132004 -0.0144036 -0.0156002 -0.0167904 -0.0179741 -0.0191513 -0.020322 -0.0214067 -0.022326 -0.0230799 -0.0236683 -0.0240912 -0.0243488 -0.0244408 -0.0243675 -0.024153 -0.0238217 -0.0233736 -0.0228087 -0.022127 -0.0213285 -0.0204133 -0.0193812 -0.0183474 -0.017427 -0.0166199 -0.0159261 -0.0153457 -0.0148786 -0.0145249 -0.0142845 -0.01407 -0.0137938 -0.0134559 -0.0130564 -0.0125952 -0.0120723 -0.0114878 -0.0108416 -0.0100406 -0.00899156 -0.00769447 -0.00614934 -0.00435618 -0.00231499 -2.57585e-05 0.00251151 0.00510267 0.00755362 0.00986435 0.0120348 0.0140651 0.0159552 0.017705 0.0193146 0.0207559 0.0220005 0.0230487 0.0239002 0.0245553 0.0250137 0.0252757 0.025341 0.025209 0.0248787 0.0243502 0.0236234 0.0226984 0.0215751 0.0202536 0.0187338 0.0170562 0.0152614 0.0133493 0.0113199 0.0091733 0.00690939 0.00452821 0.00202976 -0.000362185 -0.00242383 -0.00415517 -0.00555622 -0.00662697 -0.00736742 -0.00777757 -0.00785743 -0.00771874 -0.00747328 -0.00712104 -0.00666202 -0.00609621 -0.00542363 -0.00464427 -0.00375813 -0.00287732 -0.00211395 -0.00146802 -0.000939532 -0.000528487 -0.000234883 -5.87207e-05 0 0 -8.42024e-06 -3.3681e-05 -7.57822e-05 -0.000134724 -0.000210506 -0.000303129 -0.000412592 -0.000538895 -0.000715175 -0.000974567 -0.00131707 -0.00174268 -0.00225141 -0.00284325 -0.0035182 -0.00427626 -0.00511349 -0.00602593 -0.00701359 -0.00807647 -0.00921457 -0.0104279 -0.0117164 -0.0130802 -0.0144798 -0.0158762 -0.0172692 -0.0186589 -0.0200452 -0.0214282 -0.0228079 -0.0241842 -0.0254613 -0.0265434 -0.0274304 -0.0281223 -0.0286191 -0.0289209 -0.0290275 -0.0289392 -0.0286865 -0.0283002 -0.0277804 -0.0271271 -0.0263402 -0.0254197 -0.0243657 -0.0231781 -0.0219891 -0.0209308 -0.0200032 -0.0192063 -0.01854 -0.0180045 -0.0175996 -0.0173254 -0.0170512 -0.0166463 -0.0161107 -0.0154443 -0.0146473 -0.0137195 -0.012661 -0.0114718 -0.0100288 -0.008209 -0.00601238 -0.00343895 -0.000488696 0.00283837 0.00654226 0.010623 0.0148016 0.0187991 0.0226157 0.0262512 0.0297056 0.0329791 0.0360715 0.0389829 0.0416243 0.0439068 0.0458305 0.0473952 0.048601 0.049448 0.049936 0.0500652 0.0498369 0.0492528 0.0483127 0.0470168 0.0453649 0.0433572 0.0409935 0.038274 0.0353017 0.03218 0.0289088 0.0254881 0.021918 0.0181983 0.0143292 0.0103106 0.00645227 0.00306397 0.000145706 -0.00230253 -0.00428073 -0.0057889 -0.00682703 -0.00739514 -0.00763922 -0.00770531 -0.00759339 -0.00730347 -0.00683554 -0.00618961 -0.00536568 -0.00436375 -0.00334099 -0.00245461 -0.00170459 -0.00109094 -0.000613652 -0.000272734 -6.81835e-05 0 0 -1.31021e-05 -5.24084e-05 -0.000117919 -0.000209634 -0.000327553 -0.000471676 -0.000642003 -0.000838535 -0.00109433 -0.00144243 -0.00188286 -0.00241559 -0.00304065 -0.00375802 -0.0045677 -0.0054697 -0.00645836 -0.00752801 -0.00867867 -0.00991031 -0.011223 -0.0126166 -0.0140913 -0.0156469 -0.0172433 -0.0188404 -0.0204381 -0.0220364 -0.0236353 -0.0252349 -0.026835 -0.0284358 -0.0299232 -0.031183 -0.0322154 -0.0330203 -0.0335977 -0.0339477 -0.0340701 -0.0339651 -0.0336707 -0.0332248 -0.0326276 -0.0318789 -0.0309789 -0.0299275 -0.0287247 -0.0273706 -0.0260153 -0.0248094 -0.0237528 -0.0228455 -0.0220876 -0.0214789 -0.0210195 -0.0207094 -0.0203675 -0.0198123 -0.019044 -0.0180626 -0.016868 -0.0154603 -0.0138394 -0.0120053 -0.00980083 -0.00706862 -0.00380869 -2.10316e-05 0.00429435 0.00913745 0.0145083 0.0204068 0.0264555 0.0322766 0.0378701 0.0432362 0.0483746 0.0532856 0.057969 0.0624249 0.0664912 0.0700059 0.072969 0.0753806 0.0772405 0.0785488 0.0793055 0.0795106 0.0791685 0.0782835 0.0768556 0.0748849 0.0723712 0.0693147 0.0657154 0.0615731 0.0570664 0.0523736 0.0474948 0.04243 0.0371791 0.0317421 0.0261192 0.0203101 0.0147243 0.00977096 0.00545007 0.00176166 -0.00129429 -0.00371776 -0.00550877 -0.00666731 -0.00737856 -0.0078277 -0.00801473 -0.00793965 -0.00760247 -0.00700317 -0.00614177 -0.00501826 -0.00384211 -0.00282277 -0.00196026 -0.00125457 -0.000705693 -0.000313641 -7.84103e-05 0 0 -1.8525e-05 -7.41001e-05 -0.000166725 -0.0002964 -0.000463126 -0.000666901 -0.000907727 -0.0011856 -0.00152953 -0.00196852 -0.00250257 -0.00313168 -0.00385585 -0.00467509 -0.00558938 -0.00659873 -0.00769323 -0.00886297 -0.010108 -0.0114282 -0.0128236 -0.0142943 -0.0158403 -0.0174615 -0.0191238 -0.0207933 -0.0224698 -0.0241534 -0.0258441 -0.0275419 -0.0292468 -0.0309588 -0.0325511 -0.033897 -0.0349963 -0.0358492 -0.0364557 -0.0368157 -0.0369292 -0.0367962 -0.0364635 -0.0359777 -0.0353389 -0.034547 -0.033602 -0.032504 -0.0312528 -0.0298487 -0.0284528 -0.0272265 -0.02617 -0.025283 -0.0245657 -0.0240181 -0.0236401 -0.0234318 -0.0231458 -0.0225348 -0.0215989 -0.0203381 -0.0187523 -0.0168415 -0.0146058 -0.0120452 -0.00896515 -0.00517134 -0.000663736 0.00455765 0.0104928 0.0171418 0.0245045 0.0325811 0.0408678 0.0488609 0.0565606 0.0639668 0.0710794 0.0778986 0.0844242 0.0906564 0.0963555 0.101282 0.105437 0.108818 0.111428 0.113265 0.114329 0.114621 0.114149 0.112921 0.110936 0.108196 0.104699 0.100446 0.095437 0.0896718 0.0834078 0.076902 0.0701546 0.0631655 0.0559347 0.0484623 0.0407481 0.0327923 0.0251275 0.0182863 0.0122689 0.0070752 0.00270519 -0.000841123 -0.00356373 -0.00546263 -0.0067676 -0.00770838 -0.008285 -0.00849743 -0.00834569 -0.00782978 -0.00694969 -0.00570542 -0.00436821 -0.0032093 -0.00222868 -0.00142635 -0.000802325 -0.000356589 -8.91472e-05 0 0 -2.46873e-05 -9.87493e-05 -0.000222186 -0.000394997 -0.000617183 -0.000888744 -0.00120968 -0.00157999 -0.00201727 -0.00253913 -0.00314556 -0.00383656 -0.00461214 -0.00547229 -0.00641702 -0.00744631 -0.0085412 -0.0096827 -0.0108708 -0.0121055 -0.0133869 -0.0147148 -0.0160893 -0.0175105 -0.0189638 -0.020435 -0.0219239 -0.0234306 -0.0249551 -0.0264974 -0.0280575 -0.0296353 -0.0311041 -0.0323372 -0.0333344 -0.0340958 -0.0346214 -0.0349112 -0.0349652 -0.0347834 -0.0344231 -0.0339413 -0.0333382 -0.0326138 -0.0317681 -0.0308009 -0.0297125 -0.0285026 -0.0273282 -0.026346 -0.0255559 -0.0249579 -0.0245521 -0.0243385 -0.024317 -0.0244876 -0.0245133 -0.0240569 -0.0231184 -0.0216978 -0.0197951 -0.0174102 -0.0145433 -0.0111943 -0.0071302 -0.00211806 0.00384213 0.0107504 0.0186066 0.027411 0.0371633 0.0478637 0.0588418 0.0694272 0.0796199 0.0894199 0.0988272 0.107842 0.116464 0.124693 0.132216 0.13872 0.144205 0.148671 0.152117 0.154544 0.155952 0.156341 0.155724 0.154114 0.151512 0.147917 0.14333 0.137749 0.131176 0.123611 0.115384 0.106825 0.0979355 0.0887148 0.079163 0.0692801 0.0590661 0.048521 0.0383352 0.0291993 0.0211132 0.014077 0.00809052 0.00315392 -0.000732856 -0.0035698 -0.0056372 -0.0072153 -0.00830413 -0.00890366 -0.00901392 -0.00863489 -0.00776657 -0.00640897 -0.00490687 -0.00360505 -0.0025035 -0.00160224 -0.000901261 -0.000400561 -0.00010014 0 0 -3.1589e-05 -0.000126356 -0.000284301 -0.000505424 -0.000789725 -0.0011372 -0.00154786 -0.0020217 -0.00255755 -0.00315425 -0.00381182 -0.00453023 -0.00530951 -0.00614964 -0.00705062 -0.00801246 -0.00900228 -0.0099872 -0.0109672 -0.0119424 -0.0129126 -0.0138779 -0.0148384 -0.0157939 -0.0167634 -0.0177656 -0.0188004 -0.019868 -0.0209682 -0.0221012 -0.0232669 -0.0244652 -0.0255822 -0.0265037 -0.0272296 -0.0277601 -0.028095 -0.0282344 -0.0281783 -0.0279267 -0.0275493 -0.0271156 -0.0266256 -0.0260795 -0.0254771 -0.0248184 -0.0241036 -0.0233325 -0.0226417 -0.0221677 -0.0219105 -0.0218702 -0.0220467 -0.02244 -0.0230501 -0.0238771 -0.0244701 -0.0243786 -0.0236024 -0.0221417 -0.0199963 -0.0171664 -0.0136518 -0.00945268 -0.00429598 0.00209121 0.0097089 0.0185571 0.0286358 0.039945 0.0524846 0.0662548 0.0803777 0.0939754 0.107048 0.119596 0.131618 0.143115 0.154087 0.164535 0.174073 0.18232 0.189275 0.194938 0.199309 0.202388 0.204175 0.20467 0.203894 0.201865 0.198583 0.194049 0.188263 0.181225 0.172934 0.16339 0.152994 0.142143 0.130837 0.119078 0.106864 0.0941956 0.0810731 0.0674962 0.0543476 0.0425099 0.031983 0.0227669 0.0148617 0.00826737 0.00298385 -0.000988824 -0.00398736 -0.00634846 -0.00807212 -0.00915835 -0.00960714 -0.0094185 -0.00859242 -0.00712891 -0.00545807 -0.00401001 -0.00278473 -0.00178223 -0.0010025 -0.000445557 -0.000111389 0 0 -3.923e-05 -0.00015692 -0.00035307 -0.000627681 -0.000980751 -0.00141228 -0.00192227 -0.00251072 -0.00315036 -0.0038139 -0.00450134 -0.00521269 -0.00594795 -0.00670712 -0.00749019 -0.00829716 -0.00907646 -0.00977647 -0.0103972 -0.0109387 -0.0114009 -0.0117838 -0.0120875 -0.0123118 -0.0125225 -0.012785 -0.0130993 -0.0134655 -0.0138835 -0.0143534 -0.0148751 -0.0154486 -0.0159853 -0.0163964 -0.016682 -0.016842 -0.0168764 -0.0167852 -0.0165684 -0.0162261 -0.0158421 -0.0155005 -0.015201 -0.0149439 -0.0147291 -0.0145565 -0.0144262 -0.0143382 -0.0143932 -0.0146918 -0.015234 -0.0160199 -0.0170495 -0.0183227 -0.0198395 -0.0216 -0.0230161 -0.0234998 -0.023051 -0.0216697 -0.0193561 -0.0161099 -0.0119313 -0.00682031 -0.000462493 0.00745647 0.0169366 0.0279778 0.0405802 0.0547438 0.0704685 0.0877543 0.105475 0.122506 0.138845 0.154494 0.169452 0.183719 0.197296 0.210181 0.221926 0.232081 0.240645 0.247619 0.253002 0.256795 0.258997 0.259609 0.258658 0.256171 0.252149 0.246592 0.2395 0.230872 0.220709 0.20901 0.196238 0.182855 0.16886 0.154254 0.139037 0.123209 0.106769 0.089718 0.0731646 0.0582181 0.0448782 0.0331451 0.0230188 0.0144992 0.00758639 0.00228031 -0.00181808 -0.00510784 -0.00758898 -0.00926148 -0.0101254 -0.0101806 -0.00942725 -0.00786525 -0.00602183 -0.0044242 -0.00307236 -0.00196631 -0.00110605 -0.000491578 -0.000122895 0 0