<?xml version="1.0"?> 
<VTKFile type="StructuredGrid" version="0.1"> 
<StructuredGrid WholeExtent="0 128 0 128 0 0"> 
<Piece Extent="0 128 0 128 0 0"> 
<PointData>
<DataArray type="Float32" Name="u" format="ascii" NumberOfComponents="1"> 
0 0 0 0 0 0 0 0 0 0 0 0 0 0 0 0 0 0 0 0 0 0 0 0 0 0 0 0 0 0 0 0 0 0 0 0 0 0 0 0 0 0 0 0 0 0 0 0 0 0 0 0 0 0 0 0 0 0 0 0 0 0 0 0 0 0 0 0 0 0 0 0 0 0 0 0 0 0 0 0 0 0 0 0 0 0 0 0 0 0 0 0 0 0 0 0 0 0 0 0 0 0 0 0 0 0 0 0 0 0 0 0 0 0 0 0 0 0 0 0 0 0 0 0 0 0 0 0 0 0 3.18879e-08 1.27552e-07 2.86991e-07 5.10206e-07 7.97197e-07 1.14796e-06 1.56251e-06 2.04082e-06 2.71912e-06 3.73358e-06 5.08421e-06 6.77101e-06 8.79399e-06 1.11531e-05 1.38484e-05 1.68799e-05 2.01678e-05 2.36324e-05 2.72737e-05 3.10916e-05 3.50862e-05 3.92574e-05 4.36053e-05 4.81299e-05 5.27588e-05 5.74197e-05 6.21125e-05 6.68373e-05 7.15941e-05 7.63828e-05 8.12034e-05 8.60561e-05 9.05913e-05 9.44597e-05 9.76614e-05 0.000100196 0.000102064 0.000103266 0.0001038 0.000103668 0.000102983 0.000101858 0.000100293 9.82893e-05 9.58456e-05 9.29625e-05 8.96397e-05 8.58774e-05 8.19691e-05 7.82084e-05 7.45952e-05 7.11295e-05 6.78115e-05 6.4641e-05 6.1618e-05 5.87426e-05 5.49288e-05 4.90905e-05 4.12277e-05 3.13405e-05 1.94288e-05 5.49265e-06 -1.0468e-05 -2.8453e-05 -4.83372e-05 -6.99953e-05 -9.34273e-05 -0.000118633 -0.000145613 -0.000174366 -0.000204894 -0.000237195 -0.000269587 -0.000300388 -0.000329598 -0.000357217 -0.000383244 -0.00040768 -0.000430524 -0.000451777 -0.000470958 -0.000487587 -0.000501663 -0.000513186 -0.000522158 -0.000528576 -0.000532442 -0.000533756 -0.000532492 -0.000528626 -0.000522157 -0.000513086 -0.000501413 -0.000487137 -0.000470259 -0.000450778 -0.000429256 -0.000406254 -0.000381772 -0.000355809 -0.000328366 -0.000299443 -0.00026904 -0.000237157 -0.000205591 -0.000176142 -0.000148808 -0.00012359 -0.000100488 -7.95017e-05 -6.06314e-05 -4.38771e-05 -2.93094e-05 -1.69992e-05 -6.94649e-06 8.48693e-07 6.38637e-06 9.66654e-06 1.06892e-05 9.45437e-06 7.2385e-06 5.31808e-06 3.69311e-06 2.36359e-06 1.32952e-06 5.90898e-07 1.47724e-07 0 0 1.27552e-07 5.10206e-07 1.14796e-06 2.04082e-06 3.18879e-06 4.59186e-06 6.25003e-06 8.1633e-06 1.08765e-05 1.49343e-05 2.03368e-05 2.70841e-05 3.51759e-05 4.46125e-05 5.53938e-05 6.75197e-05 8.06713e-05 9.45296e-05 0.000109095 0.000124366 0.000140345 0.00015703 0.000174421 0.00019252 0.000211035 0.000229679 0.00024845 0.000267349 0.000286376 0.000305531 0.000324814 0.000344224 0.000362365 0.000377839 0.000390646 0.000400785 0.000408258 0.000413063 0.000415201 0.000414672 0.000411931 0.000407431 0.000401173 0.000393157 0.000383383 0.00037185 0.000358559 0.00034351 0.000327876 0.000312833 0.000298381 0.000284518 0.000271246 0.000258564 0.000246472 0.00023497 0.000219715 0.000196362 0.000164911 0.000125362 7.77152e-05 2.19706e-05 -4.18718e-05 -0.000113812 -0.000193349 -0.000279981 -0.000373709 -0.000474532 -0.000582451 -0.000697465 -0.000819574 -0.000948779 -0.00107835 -0.00120155 -0.00131839 -0.00142887 -0.00153298 -0.00163072 -0.0017221 -0.00180711 -0.00188383 -0.00195035 -0.00200665 -0.00205275 -0.00208863 -0.0021143 -0.00212977 -0.00213502 -0.00212997 -0.0021145 -0.00208863 -0.00205235 -0.00200565 -0.00194855 -0.00188104 -0.00180311 -0.00171702 -0.00162502 -0.00152709 -0.00142324 -0.00131346 -0.00119777 -0.00107616 -0.000948627 -0.000822365 -0.000704566 -0.000595231 -0.000494359 -0.000401951 -0.000318007 -0.000242526 -0.000175508 -0.000117237 -6.79967e-05 -2.7786e-05 3.39477e-06 2.55455e-05 3.86662e-05 4.27568e-05 3.78175e-05 2.8954e-05 2.12723e-05 1.47724e-05 9.45437e-06 5.31808e-06 2.36359e-06 5.90898e-07 0 0 2.86991e-07 1.14796e-06 2.58292e-06 4.59186e-06 7.17477e-06 1.03317e-05 1.40626e-05 1.83674e-05 2.4472e-05 3.36022e-05 4.57579e-05 6.09391e-05 7.91459e-05 0.000100378 0.000124636 0.000151919 0.000181511 0.000212692 0.000245463 0.000279824 0.000315775 0.000353317 0.000392448 0.000433169 0.000474829 0.000516777 0.000559013 0.000601536 0.000644347 0.000687445 0.000730831 0.000774505 0.000815321 0.000850137 0.000878953 0.000901767 0.00091858 0.000929392 0.000934203 0.000933013 0.000926845 0.00091672 0.00090264 0.000884603 0.000862611 0.000836662 0.000806757 0.000772897 0.000737722 0.000703875 0.000671357 0.000640166 0.000610303 0.000581769 0.000554562 0.000528683 0.000494359 0.000441814 0.000371049 0.000282064 0.000174859 4.94338e-05 -9.42116e-05 -0.000256077 -0.000435035 -0.000629958 -0.000840845 -0.0010677 -0.00131051 -0.0015693 -0.00184404 -0.00213475 -0.00242629 -0.0027035 -0.00296638 -0.00321495 -0.00344919 -0.00366912 -0.00387472 -0.00406599 -0.00423862 -0.00438828 -0.00451497 -0.00461868 -0.00469942 -0.00475719 -0.00479198 -0.0048038 -0.00479243 -0.00475763 -0.00469942 -0.00461778 -0.00451272 -0.00438423 -0.00423233 -0.004057 -0.00386331 -0.00365629 -0.00343594 -0.00320228 -0.0029553 -0.00269499 -0.00242136 -0.00213441 -0.00185032 -0.00158527 -0.00133927 -0.00111231 -0.000904391 -0.000715515 -0.000545683 -0.000394894 -0.000263784 -0.000152993 -6.25184e-05 7.63824e-06 5.74773e-05 8.69989e-05 9.62029e-05 8.50893e-05 6.51465e-05 4.78627e-05 3.3238e-05 2.12723e-05 1.19657e-05 5.31808e-06 1.32952e-06 0 0 5.10206e-07 2.04082e-06 4.59186e-06 8.1633e-06 1.27552e-05 1.83674e-05 2.50001e-05 3.26532e-05 4.35059e-05 5.97372e-05 8.13474e-05 0.000108336 0.000140704 0.00017845 0.000221575 0.000270079 0.000322685 0.000378119 0.000436378 0.000497465 0.000561378 0.000628118 0.000697685 0.000770079 0.000844141 0.000918715 0.0009938 0.0010694 0.0011455 0.00122212 0.00129925 0.0013769 0.00144946 0.00151136 0.00156258 0.00160314 0.00163303 0.00165225 0.00166081 0.00165869 0.00164772 0.00162973 0.00160469 0.00157263 0.00153353 0.0014874 0.00143424 0.00137404 0.00131151 0.00125133 0.00119352 0.00113807 0.00108498 0.00103426 0.000985888 0.000939882 0.00087886 0.000785447 0.000659643 0.000501448 0.000310861 8.78824e-05 -0.000167487 -0.000455248 -0.000773396 -0.00111993 -0.00149484 -0.00189813 -0.0023298 -0.00278986 -0.0032783 -0.00379512 -0.0043134 -0.00480622 -0.00527357 -0.00571547 -0.0061319 -0.00652287 -0.00688838 -0.00722843 -0.00753533 -0.00780139 -0.0080266 -0.00821098 -0.00835452 -0.00845722 -0.00851908 -0.0085401 -0.00851988 -0.00845802 -0.00835452 -0.00820938 -0.00802261 -0.00779419 -0.00752414 -0.00721245 -0.0068681 -0.00650006 -0.00610834 -0.00569294 -0.00525386 -0.00479109 -0.00430464 -0.00379451 -0.00328946 -0.00281826 -0.00238092 -0.00197744 -0.00160781 -0.00127203 -0.000970103 -0.000702033 -0.00046895 -0.000271987 -0.000111144 1.35791e-05 0.000102182 0.000154665 0.000171027 0.00015127 0.000115816 8.50893e-05 5.90898e-05 3.78175e-05 2.12723e-05 9.45437e-06 2.36359e-06 0 0 7.97197e-07 3.18879e-06 7.17477e-06 1.27552e-05 1.99299e-05 2.86991e-05 3.90627e-05 5.10206e-05 6.79779e-05 9.33394e-05 0.000127105 0.000169275 0.00021985 0.000278828 0.000346211 0.000421998 0.000504196 0.00059081 0.000681841 0.000777289 0.000877154 0.000981435 0.00109013 0.00120325 0.00131897 0.00143549 0.00155281 0.00167093 0.00178985 0.00190957 0.00203009 0.0021514 0.00226478 0.00236149 0.00244153 0.00250491 0.00255161 0.00258164 0.00259501 0.0025917 0.00257457 0.00254645 0.00250733 0.00245723 0.00239614 0.00232406 0.00224099 0.00214694 0.00204923 0.00195521 0.00186488 0.00177824 0.00169529 0.00161602 0.00154045 0.00146857 0.00137322 0.00122726 0.00103069 0.000783512 0.00048572 0.000137316 -0.000261699 -0.000711325 -0.00120843 -0.00174988 -0.00233568 -0.00296583 -0.00364032 -0.00435916 -0.00512234 -0.00592987 -0.00673968 -0.00750971 -0.00823996 -0.00893042 -0.00958109 -0.010192 -0.0107631 -0.0112944 -0.011774 -0.0121897 -0.0125416 -0.0128297 -0.0130539 -0.0132144 -0.0133111 -0.0133439 -0.0133123 -0.0132157 -0.0130539 -0.0128272 -0.0125353 -0.0121784 -0.0117565 -0.0112695 -0.0107314 -0.0101563 -0.00954429 -0.00889522 -0.00820915 -0.00748608 -0.006726 -0.00592892 -0.00513978 -0.00440354 -0.00372019 -0.00308975 -0.0025122 -0.00198754 -0.00151579 -0.00109693 -0.000732734 -0.000424979 -0.000173662 2.12173e-05 0.000159659 0.000241663 0.00026723 0.000236359 0.000180962 0.000132952 9.23278e-05 5.90898e-05 3.3238e-05 1.47724e-05 3.69311e-06 0 0 1.14796e-06 4.59186e-06 1.03317e-05 1.83674e-05 2.86991e-05 4.13267e-05 5.62502e-05 7.34697e-05 9.78882e-05 0.000134409 0.000183032 0.000243756 0.000316584 0.000401513 0.000498544 0.000607677 0.000726042 0.000850767 0.000981852 0.0011193 0.0012631 0.00141327 0.00156979 0.00173268 0.00189932 0.00206711 0.00223605 0.00240614 0.00257739 0.00274978 0.00292332 0.00309802 0.00326129 0.00340055 0.00351581 0.00360707 0.00367432 0.00371757 0.00373681 0.00373205 0.00370738 0.00366688 0.00361056 0.00353841 0.00345044 0.00334665 0.00322703 0.00309159 0.00295089 0.0028155 0.00268543 0.00256066 0.00244121 0.00232707 0.00221825 0.00211473 0.00197744 0.00176726 0.0014842 0.00112826 0.000699436 0.000197735 -0.000376846 -0.00102431 -0.00174014 -0.00251983 -0.00336338 -0.00427079 -0.00524206 -0.00627718 -0.00737617 -0.00853901 -0.00970514 -0.010814 -0.0118655 -0.0128598 -0.0137968 -0.0146765 -0.0154989 -0.016264 -0.0169545 -0.0175531 -0.0180599 -0.0184747 -0.0187977 -0.0190287 -0.0191679 -0.0192152 -0.0191697 -0.0190305 -0.0187977 -0.0184711 -0.0180509 -0.0175369 -0.0169293 -0.016228 -0.0154532 -0.0146251 -0.0137438 -0.0128091 -0.0118212 -0.01078 -0.00968544 -0.00853764 -0.00740128 -0.00634109 -0.00535708 -0.00444924 -0.00361756 -0.00286206 -0.00218273 -0.00157957 -0.00105514 -0.00061197 -0.000250074 3.05529e-05 0.000229909 0.000347995 0.000384811 0.000340357 0.000260586 0.000191451 0.000132952 8.50893e-05 4.78627e-05 2.12723e-05 5.31808e-06 0 0 1.56251e-06 6.25003e-06 1.40626e-05 2.50001e-05 3.90627e-05 5.62502e-05 7.65628e-05 0.0001 0.000133237 0.000182945 0.000249126 0.00033178 0.000430905 0.000546503 0.000678574 0.000827117 0.000988224 0.00115799 0.00133641 0.00152349 0.00171922 0.00192361 0.00213666 0.00235837 0.00258518 0.00281357 0.00304351 0.00327503 0.00350811 0.00374276 0.00397897 0.00421675 0.00443897 0.00462853 0.00478541 0.00490962 0.00500116 0.00506002 0.00508622 0.00507974 0.00504615 0.00499103 0.00491437 0.00481617 0.00469644 0.00455516 0.00439235 0.00420799 0.00401649 0.00383221 0.00365516 0.00348535 0.00332276 0.00316741 0.00301928 0.00287839 0.00269151 0.00240543 0.00202016 0.00153568 0.000952011 0.00026914 -0.00051293 -0.0013942 -0.00236852 -0.00342977 -0.00457794 -0.00581302 -0.00713502 -0.00854395 -0.0100398 -0.0116225 -0.0132098 -0.014719 -0.0161503 -0.0175036 -0.0187789 -0.0199763 -0.0210957 -0.0221371 -0.0230769 -0.0238917 -0.0245815 -0.0251461 -0.0255857 -0.0259002 -0.0260897 -0.026154 -0.0260921 -0.0259027 -0.0255857 -0.0251412 -0.0245692 -0.0238697 -0.0230427 -0.0220881 -0.0210336 -0.0199064 -0.0187068 -0.0174346 -0.0160899 -0.0146727 -0.013183 -0.0116207 -0.010074 -0.00863093 -0.00729158 -0.0060559 -0.0049239 -0.00389558 -0.00297094 -0.00214998 -0.00143616 -0.00083296 -0.000340378 4.15859e-05 0.000312932 0.00047366 0.000523771 0.000463264 0.000354686 0.000260586 0.000180962 0.000115816 6.51465e-05 2.8954e-05 7.2385e-06 0 0 2.04082e-06 8.1633e-06 1.83674e-05 3.26532e-05 5.10206e-05 7.34697e-05 0.0001 0.000130613 0.000174023 0.000238949 0.000325389 0.000433345 0.000562815 0.0007138 0.0008863 0.00108032 0.00129074 0.00151247 0.00174551 0.00198986 0.00224551 0.00251247 0.00279074 0.00308031 0.00337657 0.00367486 0.0039752 0.00427759 0.00458202 0.0048885 0.00519702 0.00550759 0.00579784 0.00604542 0.00625033 0.00641256 0.00653212 0.00660901 0.00664322 0.00663476 0.0065909 0.0065189 0.00641877 0.00629051 0.00613412 0.0059496 0.00573694 0.00549615 0.00524602 0.00500534 0.00477409 0.00455229 0.00433993 0.00413702 0.00394355 0.00375953 0.00351544 0.00314179 0.00263857 0.00200579 0.00124344 0.00035153 -0.000669949 -0.00182099 -0.00309358 -0.0044797 -0.00597934 -0.00759252 -0.00931921 -0.0111594 -0.0131132 -0.0151805 -0.0172536 -0.0192249 -0.0210943 -0.0228619 -0.0245276 -0.0260915 -0.0275535 -0.0289137 -0.0301413 -0.0312055 -0.0321064 -0.0328439 -0.0334181 -0.0338289 -0.0340763 -0.0341604 -0.0340795 -0.0338321 -0.0334181 -0.0328375 -0.0320904 -0.0311768 -0.0300966 -0.0288498 -0.0274724 -0.0260003 -0.0244334 -0.0227718 -0.0210154 -0.0191644 -0.0172186 -0.015178 -0.0131578 -0.0112731 -0.0095237 -0.00790975 -0.00643122 -0.00508811 -0.00388041 -0.00280813 -0.0018758 -0.00108795 -0.000444575 5.43163e-05 0.000408728 0.000618659 0.000684109 0.000605079 0.000463264 0.000340357 0.000236359 0.00015127 8.50893e-05 3.78175e-05 9.45437e-06 0 0 2.62761e-06 1.05104e-05 2.36485e-05 4.20418e-05 6.56903e-05 9.4594e-05 0.000128753 0.000168167 0.000222266 0.000300478 0.000402803 0.000529243 0.000679795 0.000854461 0.00105324 0.00127613 0.00151702 0.00176979 0.00203442 0.00231094 0.00259933 0.0028996 0.00321174 0.00353575 0.00386762 0.0042033 0.0045428 0.00488611 0.00523324 0.00558419 0.00593896 0.00629754 0.00663319 0.00691915 0.00715542 0.007342 0.00747889 0.00756609 0.0076036 0.00759142 0.00753878 0.0074549 0.00733978 0.00719341 0.00701581 0.00680697 0.00656688 0.00629556 0.00601377 0.0057423 0.00548113 0.00523028 0.00498974 0.0047595 0.00453959 0.00432998 0.00404723 0.0036079 0.00301199 0.0022595 0.00135041 0.000284749 -0.0009375 -0.00231633 -0.0038374 -0.00548637 -0.00726323 -0.00916797 -0.0112006 -0.0133612 -0.0156496 -0.0180659 -0.0204896 -0.0228001 -0.0249975 -0.0270818 -0.0290529 -0.0309109 -0.0326557 -0.0342874 -0.0357642 -0.0370444 -0.0381281 -0.0390152 -0.0397056 -0.0401996 -0.0404969 -0.0405976 -0.0405 -0.0402021 -0.039704 -0.0390057 -0.0381072 -0.0370085 -0.0357096 -0.0342104 -0.0325589 -0.0308029 -0.0289425 -0.0269776 -0.0249082 -0.0227343 -0.0204559 -0.0180731 -0.0157145 -0.0135086 -0.0114556 -0.00955538 -0.00780799 -0.0062134 -0.00477164 -0.00348268 -0.00235661 -0.00140346 -0.000623256 -1.59839e-05 0.000418353 0.000679754 0.000768219 0.00068375 0.000523496 0.000384609 0.00026709 0.000170937 9.61523e-05 4.27344e-05 1.06836e-05 0 0 3.36756e-06 1.34702e-05 3.03081e-05 5.3881e-05 8.41891e-05 0.000121232 0.000165011 0.000215524 0.000279981 0.00036559 0.000472351 0.000600263 0.000749328 0.000919545 0.00111091 0.00132343 0.00155049 0.00178548 0.0020284 0.00227925 0.00253802 0.00280472 0.00307936 0.00336192 0.00365249 0.00395118 0.00425798 0.00457289 0.00489591 0.00522703 0.00556627 0.00591362 0.00624032 0.00651762 0.00674552 0.00692403 0.00705313 0.00713283 0.00716313 0.00714404 0.00708699 0.00700345 0.0068934 0.00675686 0.00659382 0.00640428 0.00618824 0.0059457 0.00569401 0.00545051 0.00521521 0.00498809 0.00476917 0.00455844 0.00435591 0.00416156 0.00388489 0.00343535 0.00281296 0.00201771 0.00104961 -9.13563e-05 -0.00140518 -0.00289186 -0.00452208 -0.00626652 -0.0081252 -0.0100981 -0.0121852 -0.0143866 -0.0167021 -0.0191319 -0.0215708 -0.0239135 -0.0261602 -0.0283107 -0.030365 -0.0323233 -0.0341855 -0.0359515 -0.0375622 -0.0389583 -0.0401399 -0.0411069 -0.0418593 -0.0423972 -0.0427204 -0.0428292 -0.0427216 -0.0423962 -0.0418529 -0.0410916 -0.0401124 -0.0389153 -0.0375003 -0.0358673 -0.0340823 -0.0322109 -0.0302531 -0.028209 -0.0260786 -0.0238619 -0.0215588 -0.0191694 -0.0168054 -0.0145788 -0.0124894 -0.0105374 -0.00872267 -0.00704523 -0.0055051 -0.00410227 -0.00286113 -0.00180604 -0.00093701 -0.000254043 0.000242864 0.00055371 0.000678495 0.00061722 0.000472559 0.000347186 0.000241102 0.000154305 8.67966e-05 3.85763e-05 9.64407e-06 0 0 4.26068e-06 1.70427e-05 3.83461e-05 6.81708e-05 0.000106517 0.000153384 0.000208773 0.000272683 0.000347169 0.000434285 0.000534031 0.000646407 0.000771414 0.00090905 0.00105932 0.00122221 0.00139116 0.00155957 0.00172744 0.00189478 0.00206159 0.00222786 0.0023936 0.0025588 0.00273119 0.00291851 0.00312075 0.00333792 0.00357001 0.00381702 0.00407895 0.00435581 0.00461923 0.00484084 0.00502064 0.00515864 0.00525484 0.00530923 0.00532182 0.0052926 0.00523552 0.00516454 0.00507965 0.00498085 0.00486814 0.00474153 0.00460101 0.00444658 0.00428674 0.00412999 0.00397632 0.00382574 0.00367825 0.00353384 0.00339252 0.00325429 0.00302841 0.00262414 0.00204149 0.00128045 0.000341023 -0.000776787 -0.00207298 -0.00354756 -0.0051476 -0.00682017 -0.00856526 -0.0103829 -0.012273 -0.0142357 -0.0162709 -0.0183786 -0.0204972 -0.0225651 -0.0245821 -0.0265485 -0.028464 -0.0303288 -0.0321428 -0.0339061 -0.0355353 -0.0369472 -0.0381418 -0.0391191 -0.039879 -0.0404217 -0.040747 -0.040855 -0.0407445 -0.0404144 -0.0398645 -0.0390951 -0.0381059 -0.0368971 -0.0354687 -0.0338206 -0.0320425 -0.030224 -0.0283653 -0.0264662 -0.0245268 -0.0225471 -0.0205271 -0.0184668 -0.0164307 -0.0144835 -0.0126252 -0.0108558 -0.00917527 -0.0075836 -0.00608081 -0.0046669 -0.00338936 -0.00229567 -0.00138584 -0.00065986 -0.000117739 0.000240527 0.000414937 0.000405492 0.000310455 0.000228089 0.000158395 0.000101373 5.70223e-05 2.53432e-05 6.33581e-06 0 0 5.30695e-06 2.12278e-05 4.77626e-05 8.49112e-05 0.000132674 0.00019105 0.000260041 0.000339645 0.00042383 0.000506564 0.000587845 0.000667674 0.000746052 0.000822978 0.000898452 0.000972473 0.00103901 0.00109204 0.00113155 0.00115755 0.00117003 0.001169 0.00115446 0.0011264 0.00110371 0.00110529 0.00113112 0.0011812 0.00125555 0.00135415 0.001477 0.00162412 0.00176991 0.0018888 0.00198078 0.00204585 0.00208403 0.00209529 0.00207965 0.00203711 0.00198438 0.00193818 0.00189852 0.00186539 0.00183879 0.00181872 0.00180519 0.00179819 0.00179195 0.00178071 0.00176447 0.00174321 0.00171696 0.00168569 0.00164942 0.00160815 0.00147779 0.00117426 0.000697562 4.76959e-05 -0.000775339 -0.00177154 -0.00294092 -0.00428346 -0.00571398 -0.0071473 -0.00858341 -0.0100223 -0.011464 -0.0129085 -0.0143558 -0.0158059 -0.0172688 -0.0187547 -0.0202635 -0.0217952 -0.0233498 -0.0249273 -0.0265278 -0.0281511 -0.0296836 -0.0310111 -0.0321339 -0.0330518 -0.0337649 -0.0342731 -0.0345765 -0.0346751 -0.0345686 -0.0342566 -0.0337391 -0.0330162 -0.0320878 -0.030954 -0.0296148 -0.0280701 -0.0264395 -0.0248424 -0.023279 -0.0217491 -0.0202528 -0.01879 -0.0173609 -0.0159653 -0.0145903 -0.0132229 -0.011863 -0.0105106 -0.00916578 -0.0078285 -0.00649876 -0.00517657 -0.0039413 -0.00287236 -0.00196974 -0.00123344 -0.000663456 -0.000259795 -2.24555e-05 4.85638e-05 3.71817e-05 2.73172e-05 1.89702e-05 1.2141e-05 6.82929e-06 3.03524e-06 7.5881e-07 0 0 6.50639e-06 2.60256e-05 5.85575e-05 0.000104102 0.00016266 0.00023423 0.000318813 0.000416409 0.000509964 0.000582425 0.000633792 0.000664065 0.000673243 0.000661328 0.000628318 0.000574214 0.000494058 0.000382894 0.000240721 6.75394e-05 -0.000136651 -0.00037185 -0.000638058 -0.000935275 -0.00122994 -0.00148849 -0.00171093 -0.00189726 -0.00204748 -0.00216158 -0.00223957 -0.00228145 -0.00230763 -0.0023385 -0.00237407 -0.00241434 -0.00245932 -0.00250899 -0.00256336 -0.00262243 -0.00266644 -0.00267563 -0.00264999 -0.00258953 -0.00249425 -0.00236414 -0.00219921 -0.00199946 -0.00179034 -0.00159731 -0.00142035 -0.00125948 -0.0011147 -0.000985999 -0.000873383 -0.000776851 -0.000766965 -0.000914284 -0.00121881 -0.00168054 -0.00229948 -0.00307562 -0.00400898 -0.00509953 -0.00622121 -0.00724791 -0.00817965 -0.00901642 -0.00975822 -0.010405 -0.0109569 -0.0114138 -0.0118857 -0.0124825 -0.0132042 -0.0140508 -0.0150224 -0.0161189 -0.0173403 -0.0186867 -0.0200069 -0.02115 -0.0221161 -0.022905 -0.0235168 -0.0239515 -0.0242091 -0.0242895 -0.0241938 -0.0239228 -0.0234765 -0.022855 -0.0220581 -0.021086 -0.0199386 -0.018616 -0.0172733 -0.0160661 -0.0149942 -0.0140576 -0.0132564 -0.0125906 -0.0120602 -0.0116651 -0.0112843 -0.0107968 -0.0102027 -0.00950179 -0.00869421 -0.00777994 -0.00675895 -0.00563127 -0.00451696 -0.00353611 -0.00268871 -0.00197477 -0.00139429 -0.000947256 -0.000633682 -0.000453564 -0.00034726 -0.00025513 -0.000177173 -0.000113391 -6.37824e-05 -2.83477e-05 -7.08693e-06 0 0 7.85899e-06 3.1436e-05 7.07309e-05 0.000125744 0.000196475 0.000282924 0.000385091 0.000502975 0.000605571 0.00066187 0.000671872 0.000635578 0.000552987 0.000424099 0.000248915 2.74343e-05 -0.000243705 -0.000567863 -0.000945042 -0.00137524 -0.00185846 -0.0023947 -0.00298395 -0.00362623 -0.00426977 -0.00486283 -0.00540539 -0.00589747 -0.00633906 -0.00673017 -0.00707078 -0.00736091 -0.00761339 -0.00784105 -0.00804391 -0.00822195 -0.00837519 -0.00850361 -0.00860722 -0.00868602 -0.00871694 -0.00867689 -0.00856588 -0.0083839 -0.00813097 -0.00780707 -0.00741221 -0.00694638 -0.00646015 -0.00600407 -0.00557813 -0.00518235 -0.00481672 -0.00448123 -0.0041759 -0.00390072 -0.00370586 -0.00364149 -0.00370763 -0.00390426 -0.0042314 -0.00468903 -0.00527716 -0.00599579 -0.00666929 -0.00712202 -0.00735398 -0.00736518 -0.00715561 -0.00672528 -0.00607418 -0.00520232 -0.0043477 -0.00374834 -0.00340424 -0.0033154 -0.00348182 -0.0039035 -0.00458043 -0.00551262 -0.00650537 -0.00736396 -0.00808839 -0.00867867 -0.0091348 -0.00945677 -0.00964458 -0.00969824 -0.00962025 -0.00941311 -0.00907682 -0.00861138 -0.00801679 -0.00729306 -0.00644017 -0.00545814 -0.00454404 -0.00389496 -0.00351091 -0.00339187 -0.00353786 -0.00394888 -0.00462491 -0.00556597 -0.00651261 -0.00720538 -0.0076443 -0.00782936 -0.00776056 -0.00743791 -0.00686139 -0.00603101 -0.00511633 -0.00428692 -0.00354276 -0.00288387 -0.00231023 -0.00182186 -0.00141874 -0.00110089 -0.000842869 -0.000619251 -0.000430035 -0.000275223 -0.000154813 -6.88056e-05 -1.72014e-05 0 0 9.36476e-06 3.7459e-05 8.42828e-05 0.000149836 0.000234119 0.000337131 0.000458873 0.000599344 0.000710651 0.000744898 0.000702086 0.000582214 0.000385284 0.000111293 -0.000239756 -0.000667865 -0.00117428 -0.00176023 -0.00242574 -0.00317079 -0.00399539 -0.00489953 -0.00588322 -0.00694646 -0.00801578 -0.00901771 -0.00995226 -0.0108194 -0.0116192 -0.0123516 -0.0130166 -0.0136142 -0.0141474 -0.0146189 -0.0150287 -0.015377 -0.0156636 -0.0158886 -0.0160519 -0.0161537 -0.0161671 -0.0160656 -0.0158491 -0.0155177 -0.0150714 -0.0145101 -0.0138338 -0.0130426 -0.0122175 -0.0114396 -0.0107089 -0.0100254 -0.0093891 -0.00880001 -0.00825813 -0.00776344 -0.00733888 -0.00700737 -0.0067689 -0.00662347 -0.0065711 -0.00661176 -0.00674548 -0.00697223 -0.00705822 -0.00676961 -0.0061064 -0.0050686 -0.00365621 -0.00186922 0.000292361 0.00282854 0.00534505 0.00744765 0.00913633 0.0104111 0.0112719 0.0117189 0.0117519 0.0113709 0.0108211 0.0103471 0.00994916 0.00962715 0.00938111 0.00921103 0.00911691 0.00909876 0.00915211 0.00927253 0.00946002 0.00971456 0.0100362 0.0104248 0.0108806 0.0114034 0.0117484 0.0116709 0.0111708 0.0102482 0.00890298 0.00713521 0.00494488 0.00233198 -0.000275238 -0.00244853 -0.00418789 -0.00549332 -0.00636483 -0.00680241 -0.00680606 -0.00637579 -0.00573942 -0.00512478 -0.00453188 -0.00396072 -0.00341129 -0.0028836 -0.00237764 -0.00189342 -0.00144965 -0.00106505 -0.000739616 -0.000473354 -0.000266262 -0.000118339 -2.95846e-05 0 0 1.10237e-05 4.40947e-05 9.92132e-05 0.000176379 0.000275592 0.000396853 0.00054016 0.000705516 0.000825204 0.000831509 0.000724433 0.000503974 0.000170133 -0.00027709 -0.000837696 -0.00151168 -0.00229766 -0.00319422 -0.00420137 -0.00531911 -0.00654744 -0.00788636 -0.00933587 -0.010896 -0.012468 -0.0139532 -0.0153515 -0.0166631 -0.0178879 -0.0190259 -0.0200771 -0.0210415 -0.0219096 -0.0226719 -0.0233285 -0.0238794 -0.0243245 -0.0246639 -0.0248975 -0.0250254 -0.025017 -0.0248418 -0.0244998 -0.023991 -0.0233154 -0.0224731 -0.0214639 -0.020288 -0.0190623 -0.0179038 -0.0168126 -0.0157886 -0.0148318 -0.0139423 -0.0131201 -0.012365 -0.011666 -0.0110119 -0.0104026 -0.00983817 -0.00931857 -0.00884382 -0.00841392 -0.00802886 -0.007388 -0.00619069 -0.00443692 -0.00212669 0.000739994 0.00416313 0.00814273 0.0126788 0.0171926 0.0211055 0.0244175 0.0271286 0.0292389 0.0307482 0.0316566 0.031964 0.0319724 0.0319832 0.0319966 0.0320125 0.0320309 0.0320519 0.0320754 0.0321015 0.0321233 0.0321341 0.032134 0.0321229 0.0321008 0.0320677 0.0320236 0.0319686 0.0316041 0.0306315 0.029051 0.0268626 0.0240661 0.0206616 0.0166492 0.0120288 0.0074278 0.00347373 0.000166577 -0.00249367 -0.00450701 -0.00587345 -0.00659298 -0.0066656 -0.00638621 -0.00604971 -0.00565608 -0.00520533 -0.00469746 -0.00413247 -0.00351037 -0.00283114 -0.00216759 -0.00159252 -0.00110591 -0.000707786 -0.000398129 -0.000176946 -4.42366e-05 0 0 1.16722e-05 4.66888e-05 0.00010505 0.000186755 0.000291805 0.000420199 0.000571938 0.000747021 0.000861333 0.000830758 0.000655297 0.000334948 -0.000130287 -0.000740408 -0.00149542 -0.00239531 -0.00343143 -0.0045951 -0.00588632 -0.0073051 -0.00885143 -0.0105253 -0.0123268 -0.0142558 -0.0162018 -0.0180542 -0.0198131 -0.0214784 -0.0230502 -0.0245285 -0.0259132 -0.0272043 -0.0283757 -0.0294011 -0.0302806 -0.0310142 -0.0316018 -0.0320435 -0.0323392 -0.032489 -0.0324586 -0.0322138 -0.0317546 -0.0310809 -0.0301929 -0.0290904 -0.0277736 -0.0262423 -0.0246564 -0.0231756 -0.0218001 -0.0205297 -0.0193644 -0.0183043 -0.0173494 -0.0164996 -0.0156813 -0.0148207 -0.0139177 -0.0129725 -0.011985 -0.0109552 -0.00988306 -0.00876864 -0.00723799 -0.00491716 -0.00180617 0.002095 0.00678634 0.0122678 0.0185395 0.0256014 0.0326412 0.0388467 0.0442179 0.0487549 0.0524576 0.055326 0.0573601 0.0585599 0.0592959 0.0599383 0.0604872 0.0609426 0.0613044 0.0615728 0.0617476 0.0618289 0.0618075 0.0616741 0.0614289 0.0610717 0.0606025 0.0600215 0.0593285 0.0585236 0.0572442 0.0551278 0.0521743 0.0483839 0.0437564 0.0382919 0.0319903 0.0248518 0.0177478 0.0115502 0.0062589 0.0018739 -0.00160479 -0.00417718 -0.00584325 -0.00660301 -0.00682929 -0.00689491 -0.00679987 -0.00654416 -0.0061278 -0.00555077 -0.00481308 -0.00391473 -0.00299721 -0.00220203 -0.00152919 -0.000978682 -0.000550509 -0.00024467 -6.11676e-05 0 0 1.01467e-05 4.0587e-05 9.13207e-05 0.000162348 0.000253669 0.000365283 0.00049719 0.000649392 0.000731142 0.000651699 0.000411062 9.23012e-06 -0.000553796 -0.00127802 -0.00216343 -0.00321004 -0.00439317 -0.00568814 -0.00709497 -0.00861364 -0.0102442 -0.0119865 -0.0138407 -0.0158068 -0.0177926 -0.0197059 -0.0215468 -0.0233152 -0.0250112 -0.0266347 -0.0281858 -0.0296645 -0.0310214 -0.0322073 -0.0332223 -0.0340663 -0.0347393 -0.0352413 -0.0355723 -0.0357324 -0.035684 -0.03539 -0.0348502 -0.0340646 -0.0330333 -0.0317563 -0.0302335 -0.028465 -0.0266615 -0.0250339 -0.0235821 -0.0223062 -0.0212062 -0.0202821 -0.0195338 -0.0189614 -0.0183786 -0.0175992 -0.0166233 -0.0154507 -0.0140816 -0.0125158 -0.0107535 -0.00879454 -0.00618752 -0.00248095 0.00232519 0.00823089 0.0152362 0.023341 0.0325454 0.0428493 0.053137 0.0622926 0.070316 0.0772074 0.0829666 0.0875938 0.0910888 0.0934518 0.0951389 0.0966064 0.0978543 0.0988826 0.0996914 0.100281 0.10065 0.1008 0.100719 0.100395 0.0998284 0.0990191 0.097967 0.0966722 0.0951347 0.0933545 0.0908902 0.0873005 0.0825853 0.0767448 0.0697788 0.0616874 0.0524706 0.0421283 0.0318362 0.0227697 0.0149289 0.00831369 0.00292416 -0.00123973 -0.00417798 -0.00589057 -0.00684122 -0.00749363 -0.00784778 -0.00790369 -0.00766134 -0.00712076 -0.00628192 -0.00514483 -0.00393901 -0.00289397 -0.0020097 -0.00128621 -0.000723492 -0.000321552 -8.0388e-05 0 0 6.44731e-06 2.57892e-05 5.80257e-05 0.000103157 0.000161183 0.000232103 0.000315918 0.000412628 0.000434632 0.000294332 -8.27212e-06 -0.000473181 -0.00110039 -0.00188991 -0.00284173 -0.00395586 -0.00518288 -0.00647336 -0.00782732 -0.00924474 -0.0107256 -0.01227 -0.0138778 -0.0155491 -0.0172404 -0.0189083 -0.0205526 -0.0221734 -0.0237708 -0.0253447 -0.0268951 -0.028422 -0.0298467 -0.0310905 -0.0321535 -0.0330357 -0.0337369 -0.0342573 -0.0345969 -0.0347555 -0.0346934 -0.0343704 -0.0337867 -0.0329421 -0.0318368 -0.0304707 -0.0288437 -0.026956 -0.0250776 -0.0234785 -0.0221587 -0.0211184 -0.0203573 -0.0198756 -0.0196733 -0.0197503 -0.019758 -0.0193476 -0.0185192 -0.0172727 -0.0156083 -0.0135257 -0.0110252 -0.00810655 -0.00423661 0.00111796 0.00795716 0.016281 0.0260894 0.0373825 0.0501602 0.0644226 0.07868 0.0914431 0.102712 0.112486 0.120766 0.127552 0.132843 0.13664 0.139501 0.141987 0.144098 0.145833 0.147192 0.148175 0.148783 0.149015 0.148858 0.148297 0.147333 0.145965 0.144194 0.14202 0.139442 0.136461 0.132542 0.12715 0.120284 0.111945 0.102133 0.0908482 0.0780899 0.0638584 0.0496929 0.0371322 0.0261765 0.0168257 0.00907984 0.00293887 -0.00159717 -0.00452828 -0.006422 -0.00784585 -0.00879981 -0.0092839 -0.0092981 -0.00884243 -0.00791689 -0.00652146 -0.00499299 -0.00366832 -0.00254745 -0.00163037 -0.00091708 -0.000407591 -0.000101898 0 0 5.73888e-07 2.29555e-06 5.16499e-06 9.18221e-06 1.43472e-05 2.066e-05 2.81205e-05 3.67288e-05 -2.81979e-05 -0.000241342 -0.000602705 -0.00111229 -0.00177008 -0.0025761 -0.00353033 -0.00463278 -0.00580056 -0.00695075 -0.00808336 -0.00919839 -0.0102958 -0.0113757 -0.012438 -0.0134827 -0.0145453 -0.0156613 -0.0168305 -0.0180531 -0.019329 -0.0206583 -0.0220409 -0.0234768 -0.0248516 -0.0260508 -0.0270744 -0.0279224 -0.0285948 -0.0290916 -0.0294129 -0.0295585 -0.0294866 -0.0291551 -0.028564 -0.0277134 -0.0266033 -0.0252335 -0.0236043 -0.0217155 -0.0199047 -0.0185095 -0.0175299 -0.016966 -0.0168177 -0.017085 -0.0177679 -0.0188664 -0.0198194 -0.0200658 -0.0196055 -0.0184386 -0.0165651 -0.0139849 -0.0106981 -0.00670468 -0.00138525 0.00587956 0.0150897 0.0262453 0.0393462 0.0543925 0.0713842 0.0903212 0.10927 0.126298 0.141405 0.154591 0.165856 0.1752 0.182622 0.188123 0.192383 0.196082 0.199218 0.201793 0.203806 0.205257 0.206146 0.206474 0.206223 0.205379 0.203942 0.20191 0.199284 0.196065 0.192251 0.187844 0.1822 0.174675 0.16527 0.153985 0.14082 0.125774 0.108848 0.0900421 0.0713179 0.0546378 0.0400018 0.02741 0.0168622 0.00835865 0.00189919 -0.00251614 -0.00557164 -0.00795158 -0.00965596 -0.0106848 -0.0110381 -0.0107158 -0.00971798 -0.00804461 -0.00615915 -0.00452509 -0.00314243 -0.00201115 -0.00113127 -0.000502788 -0.000125697 0 0 -7.47351e-06 -2.9894e-05 -6.72616e-05 -0.000119576 -0.000186838 -0.000269046 -0.000366202 -0.000478304 -0.000657348 -0.000955325 -0.00137224 -0.00190808 -0.00256286 -0.00333658 -0.00422922 -0.00524081 -0.0062462 -0.0071203 -0.0078631 -0.0084746 -0.0089548 -0.0093037 -0.0095213 -0.0096076 -0.00970726 -0.00996491 -0.0103806 -0.0109542 -0.0116859 -0.0125756 -0.0136233 -0.014829 -0.0160361 -0.017088 -0.0179848 -0.0187264 -0.0193129 -0.0197441 -0.0200203 -0.0201412 -0.0200636 -0.0197439 -0.0191822