<?xml version="1.0"?> 
<VTKFile type="StructuredGrid" version="0.1"> 
<StructuredGrid WholeExtent="0 128 0 128 0 0"> 
<Piece Extent="0 128 0 128 0 0"> 
<PointData>
<DataArray type="Float32" Name="u" format="ascii" NumberOfComponents="1"> 
0 0 0 0 0 0 0 0 0 0 0 0 0 0 0 0 0 0 0 0 0 0 0 0 0 0 0 0 0 0 0 0 0 0 0 0 0 0 0 0 0 0 0 0 0 0 0 0 0 0 0 0 0 0 0 0 0 0 0 0 0 0 0 0 0 0 0 0 0 0 0 0 0 0 0 0 0 0 0 0 0 0 0 0 0 0 0 0 0 0 0 0 0 0 0 0 0 0 0 0 0 0 0 0 0 0 0 0 0 0 0 0 0 0 0 0 0 0 0 0 0 0 0 0 0 0 0 0 0 0 2.39465e-08 9.57858e-08 2.15518e-07 3.83143e-07 5.98662e-07 8.62073e-07 1.17338e-06 1.53257e-06 1.70058e-06 1.43831e-06 7.45756e-07 -3.77071e-07 -1.93018e-06 -3.91356e-06 -6.32722e-06 -9.17115e-06 -1.24838e-05 -1.63034e-05 -2.06302e-05 -2.5464e-05 -3.08049e-05 -3.66528e-05 -4.30078e-05 -4.98699e-05 -5.69332e-05 -6.38919e-05 -7.07459e-05 -7.74954e-05 -8.41401e-05 -9.06803e-05 -9.71158e-05 -0.000103447 -0.000109286 -0.000114245 -0.000118325 -0.000121526 -0.000123847 -0.000125289 -0.000125852 -0.000125535 -0.000124441 -0.000122673 -0.000120231 -0.000117115 -0.000113324 -0.00010886 -0.000103721 -9.79083e-05 -9.20272e-05 -8.66839e-05 -8.18783e-05 -7.76105e-05 -7.38805e-05 -7.06883e-05 -6.80338e-05 -6.59171e-05 -6.45535e-05 -6.41586e-05 -6.47322e-05 -6.62743e-05 -6.87851e-05 -7.22644e-05 -7.67122e-05 -8.21286e-05 -8.84014e-05 -9.54183e-05 -0.000103179 -0.000111684 -0.000120934 -0.000130927 -0.000141664 -0.000153146 -0.000165102 -0.000177264 -0.000189631 -0.000202203 -0.00021498 -0.000227963 -0.000241151 -0.000254544 -0.000267199 -0.000278173 -0.000287467 -0.000295079 -0.00030101 -0.00030526 -0.00030783 -0.000308718 -0.000307966 -0.000305616 -0.000301666 -0.000296118 -0.000288972 -0.000280226 -0.000269882 -0.000257939 -0.000245273 -0.000232757 -0.000220393 -0.00020818 -0.000196119 -0.000184209 -0.00017245 -0.000160842 -0.000149431 -0.000138261 -0.000127332 -0.000116645 -0.000106199 -9.59946e-05 -8.60315e-05 -7.63097e-05 -6.70125e-05 -5.83232e-05 -5.02417e-05 -4.27682e-05 -3.59025e-05 -2.96446e-05 -2.39947e-05 -1.89526e-05 -1.45106e-05 -1.06608e-05 -7.40336e-06 -4.73815e-06 -2.66521e-06 -1.18454e-06 -2.96134e-07 0 0 9.57858e-08 3.83143e-07 8.62073e-07 1.53257e-06 2.39465e-06 3.44829e-06 4.69351e-06 6.13029e-06 6.80231e-06 5.75322e-06 2.98302e-06 -1.50828e-06 -7.7207e-06 -1.56542e-05 -2.53089e-05 -3.66846e-05 -4.9935e-05 -6.52137e-05 -8.25207e-05 -0.000101856 -0.000123219 -0.000146611 -0.000172031 -0.00019948 -0.000227733 -0.000255568 -0.000282984 -0.000309981 -0.000336561 -0.000362721 -0.000388463 -0.000413787 -0.000437143 -0.000456981 -0.000473301 -0.000486104 -0.000495389 -0.000501156 -0.000503406 -0.000502139 -0.000497764 -0.000490692 -0.000480924 -0.000468459 -0.000453298 -0.00043544 -0.000414885 -0.000391633 -0.000368109 -0.000346735 -0.000327513 -0.000310442 -0.000295522 -0.000282753 -0.000272135 -0.000263668 -0.000258214 -0.000256634 -0.000258929 -0.000265097 -0.00027514 -0.000289057 -0.000306849 -0.000328515 -0.000353606 -0.000381673 -0.000412717 -0.000446738 -0.000483734 -0.000523708 -0.000566658 -0.000612584 -0.000660409 -0.000709055 -0.000758522 -0.000808811 -0.00085992 -0.000911851 -0.000964603 -0.00101818 -0.0010688 -0.00111269 -0.00114987 -0.00118032 -0.00120404 -0.00122104 -0.00123132 -0.00123487 -0.00123186 -0.00122246 -0.00120667 -0.00118447 -0.00115589 -0.00112091 -0.00107953 -0.00103176 -0.000981091 -0.000931029 -0.000881573 -0.000832722 -0.000784476 -0.000736835 -0.000689799 -0.000643369 -0.000597723 -0.000553043 -0.000509329 -0.00046658 -0.000424797 -0.000383978 -0.000344126 -0.000305239 -0.00026805 -0.000233293 -0.000200967 -0.000171073 -0.00014361 -0.000118579 -9.59788e-05 -7.58104e-05 -5.80423e-05 -4.26434e-05 -2.96134e-05 -1.89526e-05 -1.06608e-05 -4.73815e-06 -1.18454e-06 0 0 2.15518e-07 8.62073e-07 1.93966e-06 3.44829e-06 5.38795e-06 7.75865e-06 1.05604e-05 1.37932e-05 1.53052e-05 1.29448e-05 6.7118e-06 -3.39364e-06 -1.73716e-05 -3.5222e-05 -5.69449e-05 -8.25404e-05 -0.000112354 -0.000146731 -0.000185672 -0.000229176 -0.000277244 -0.000329875 -0.00038707 -0.000448829 -0.000512399 -0.000575027 -0.000636713 -0.000697458 -0.000757261 -0.000816123 -0.000874043 -0.000931021 -0.000983571 -0.00102821 -0.00106493 -0.00109373 -0.00111462 -0.0011276 -0.00113266 -0.00112981 -0.00111997 -0.00110406 -0.00108208 -0.00105403 -0.00101992 -0.000979739 -0.000933491 -0.000881175 -0.000828245 -0.000780155 -0.000736905 -0.000698495 -0.000664924 -0.000636194 -0.000612304 -0.000593254 -0.000580982 -0.000577427 -0.00058259 -0.000596469 -0.000619066 -0.000650379 -0.00069041 -0.000739158 -0.000795613 -0.000858765 -0.000928614 -0.00100516 -0.0010884 -0.00117834 -0.00127498 -0.00137831 -0.00148592 -0.00159537 -0.00170668 -0.00181982 -0.00193482 -0.00205166 -0.00217036 -0.00229089 -0.00240479 -0.00250356 -0.0025872 -0.00265571 -0.00270909 -0.00274734 -0.00277047 -0.00277846 -0.00277169 -0.00275054 -0.002715 -0.00266507 -0.00260075 -0.00252204 -0.00242894 -0.00232145 -0.00220745 -0.00209482 -0.00198354 -0.00187362 -0.00176507 -0.00165788 -0.00155205 -0.00144758 -0.00134488 -0.00124435 -0.00114599 -0.00104981 -0.000955792 -0.000863952 -0.000774283 -0.000686787 -0.000603112 -0.000524909 -0.000452176 -0.000384914 -0.000323122 -0.000266802 -0.000215952 -0.000170573 -0.000130595 -9.59476e-05 -6.66302e-05 -4.26434e-05 -2.39869e-05 -1.06608e-05 -2.66521e-06 0 0 3.83143e-07 1.53257e-06 3.44829e-06 6.13029e-06 9.57858e-06 1.37932e-05 1.8774e-05 2.45212e-05 2.72093e-05 2.30129e-05 1.19321e-05 -6.03314e-06 -3.08828e-05 -6.26169e-05 -0.000101235 -0.000146738 -0.00019974 -0.000260855 -0.000330083 -0.000407424 -0.000492878 -0.000586445 -0.000688125 -0.000797919 -0.000910931 -0.00102227 -0.00113194 -0.00123993 -0.00134624 -0.00145088 -0.00155385 -0.00165515 -0.00174857 -0.00182792 -0.0018932 -0.00194441 -0.00198156 -0.00200463 -0.00201363 -0.00200855 -0.00199106 -0.00196277 -0.0019237 -0.00187384 -0.00181319 -0.00174176 -0.00165954 -0.00156653 -0.00147243 -0.00138694 -0.00131005 -0.00124177 -0.00118209 -0.00113101 -0.00108854 -0.00105467 -0.00103286 -0.00102654 -0.00103571 -0.00106039 -0.00110056 -0.00115623 -0.0012274 -0.00131406 -0.00141442 -0.00152669 -0.00165087 -0.00178695 -0.00193494 -0.00209483 -0.00226663 -0.00245034 -0.00264164 -0.00283622 -0.00303409 -0.00323524 -0.00343968 -0.0036474 -0.00385841 -0.0040727 -0.00427519 -0.00445078 -0.00459947 -0.00472126 -0.00481616 -0.00488417 -0.00492527 -0.00493948 -0.00492746 -0.00488985 -0.00482666 -0.00473789 -0.00462355 -0.00448362 -0.00431811 -0.00412703 -0.00392436 -0.00372412 -0.00352629 -0.00333089 -0.0031379 -0.00294734 -0.0027592 -0.00257347 -0.00239089 -0.00221217 -0.00203732 -0.00186632 -0.00169919 -0.00153591 -0.0013765 -0.00122095 -0.0010722 -0.000933171 -0.000803868 -0.000684291 -0.00057444 -0.000474314 -0.000383915 -0.000303242 -0.000232169 -0.000170573 -0.000118454 -7.58104e-05 -4.26434e-05 -1.89526e-05 -4.73815e-06 0 0 5.98662e-07 2.39465e-06 5.38795e-06 9.57858e-06 1.49665e-05 2.15518e-05 2.93344e-05 3.83143e-05 4.25145e-05 3.59576e-05 1.86439e-05 -9.42677e-06 -4.82544e-05 -9.78389e-05 -0.00015818 -0.000229279 -0.000312094 -0.000407586 -0.000515754 -0.0006366 -0.000770122 -0.00091632 -0.0010752 -0.00124675 -0.00142333 -0.0015973 -0.00176865 -0.00193738 -0.0021035 -0.00226701 -0.0024279 -0.00258617 -0.00273214 -0.00285613 -0.00295813 -0.00303815 -0.00309618 -0.00313223 -0.00314629 -0.00313837 -0.00311102 -0.00306683 -0.00300578 -0.00292787 -0.00283311 -0.0027215 -0.00259303 -0.00244771 -0.00230068 -0.0021671 -0.00204696 -0.00194026 -0.00184701 -0.00176721 -0.00170084 -0.00164793 -0.00161384 -0.00160396 -0.0016183 -0.00165686 -0.00171963 -0.00180661 -0.00191781 -0.00205322 -0.00221004 -0.00238546 -0.00257948 -0.00279211 -0.00302334 -0.00327317 -0.00354161 -0.00382865 -0.00412756 -0.00443159 -0.00474076 -0.00505507 -0.0053745 -0.00569907 -0.00602877 -0.0063636 -0.00667998 -0.00695434 -0.00718667 -0.00737698 -0.00752526 -0.00763151 -0.00769574 -0.00771794 -0.00769915 -0.00764039 -0.00754166 -0.00740296 -0.00722429 -0.00700566 -0.00674705 -0.00644848 -0.00613182 -0.00581893 -0.00550983 -0.00520451 -0.00490297 -0.00460522 -0.00431125 -0.00402105 -0.00373577 -0.00345652 -0.00318331 -0.00291613 -0.00265498 -0.00239987 -0.00215079 -0.00190774 -0.00167531 -0.00145808 -0.00125604 -0.0010692 -0.000897562 -0.000741116 -0.000599867 -0.000473815 -0.000362765 -0.000266521 -0.000185084 -0.000118454 -6.66302e-05 -2.96134e-05 -7.40336e-06 0 0 8.62073e-07 3.44829e-06 7.75865e-06 1.37932e-05 2.15518e-05 3.10346e-05 4.22416e-05 5.51726e-05 6.12208e-05 5.1779e-05 2.68472e-05 -1.35746e-05 -6.94863e-05 -0.000140888 -0.00022778 -0.000330161 -0.000449415 -0.000586924 -0.000742686 -0.000916704 -0.00110898 -0.0013195 -0.00154828 -0.00179532 -0.0020496 -0.00230011 -0.00254685 -0.00278983 -0.00302905 -0.00326449 -0.00349617 -0.00372408 -0.00393428 -0.00411282 -0.00425971 -0.00437493 -0.0044585 -0.00451041 -0.00453066 -0.00451925 -0.00447987 -0.00441623 -0.00432832 -0.00421613 -0.00407968 -0.00391896 -0.00373396 -0.0035247 -0.00331298 -0.00312062 -0.00294762 -0.00279398 -0.0026597 -0.00254478 -0.00244922 -0.00237301 -0.00232393 -0.00230971 -0.00233036 -0.00238588 -0.00247626 -0.00260152 -0.00276164 -0.00295663 -0.00318245 -0.00343506 -0.00371445 -0.00402064 -0.00435361 -0.00471337 -0.00509992 -0.00551326 -0.00594368 -0.0063815 -0.0068267 -0.0072793 -0.00773928 -0.00820666 -0.00868142 -0.00916358 -0.00961917 -0.0100142 -0.0103488 -0.0106228 -0.0108364 -0.0109894 -0.0110819 -0.0111138 -0.0110868 -0.0110022 -0.01086 -0.0106603 -0.010403 -0.0100881 -0.00971576 -0.00928581 -0.00882981 -0.00837926 -0.00793416 -0.0074945 -0.00706028 -0.00663151 -0.00620819 -0.00579032 -0.00537951 -0.00497739 -0.00458396 -0.00419922 -0.00382317 -0.00345581 -0.00309713 -0.00274715 -0.00241245 -0.00209963 -0.0018087 -0.00153965 -0.00129249 -0.00106721 -0.000863809 -0.000682294 -0.000522381 -0.00038379 -0.000266521 -0.000170573 -9.59476e-05 -4.26434e-05 -1.06608e-05 0 0 1.17338e-06 4.69351e-06 1.05604e-05 1.8774e-05 2.93344e-05 4.22416e-05 5.74955e-05 7.50961e-05 8.33283e-05 7.0477e-05 3.6542e-05 -1.84765e-05 -9.45786e-05 -0.000191764 -0.000310034 -0.000449386 -0.000611704 -0.000798868 -0.00101088 -0.00124774 -0.00150944 -0.00179599 -0.00210738 -0.00244363 -0.00278973 -0.0031307 -0.00346655 -0.00379727 -0.00412287 -0.00444334 -0.00475868 -0.00506889 -0.005355 -0.00559801 -0.00579794 -0.00595477 -0.00606851 -0.00613917 -0.00616673 -0.0061512 -0.00609761 -0.00601098 -0.00589132 -0.00573863 -0.0055529 -0.00533414 -0.00508234 -0.00479751 -0.00450933 -0.00424751 -0.00401204 -0.00380292 -0.00362014 -0.00346372 -0.00333366 -0.00322994 -0.00316312 -0.00314377 -0.00317188 -0.00324744 -0.00337047 -0.00354095 -0.0037589 -0.0040243 -0.00433167 -0.0046755 -0.00505579 -0.00547254 -0.00592575 -0.00641542 -0.00694156 -0.00750415 -0.00809001 -0.00868593 -0.0092919 -0.00990793 -0.010534 -0.0111702 -0.0118164 -0.0124726 -0.0130928 -0.0136305 -0.0140859 -0.0144589 -0.0147495 -0.0149578 -0.0150837 -0.0151272 -0.0150903 -0.0149752 -0.0147817 -0.0145098 -0.0141596 -0.0137311 -0.0132242 -0.012639 -0.0120184 -0.0114051 -0.0107993 -0.0102008 -0.00960983 -0.00902623 -0.00845004 -0.00788127 -0.00732211 -0.00677478 -0.00623928 -0.00571561 -0.00520376 -0.00470374 -0.00421554 -0.00373917 -0.00328361 -0.00285784 -0.00246185 -0.00209564 -0.00175922 -0.00145259 -0.00117574 -0.000928678 -0.000711019 -0.000522381 -0.000362765 -0.000232169 -0.000130595 -5.80423e-05 -1.45106e-05 0 0 1.53257e-06 6.13029e-06 1.37932e-05 2.45212e-05 3.83143e-05 5.51726e-05 7.50961e-05 9.80847e-05 0.000108837 9.20516e-05 4.77284e-05 -2.41325e-05 -0.000123531 -0.000250468 -0.000404942 -0.000586954 -0.000798961 -0.00104342 -0.00132033 -0.0016297 -0.00197151 -0.00234578 -0.0027525 -0.00319167 -0.00364373 -0.00408908 -0.00452774 -0.0049597 -0.00538497 -0.00580354 -0.00621541 -0.00662059 -0.00699428 -0.00731169 -0.00757281 -0.00777766 -0.00792622 -0.0080185 -0.0080545 -0.00803422 -0.00796422 -0.00785108 -0.00769479 -0.00749535 -0.00725277 -0.00696703 -0.00663816 -0.00626613 -0.00588974 -0.00554777 -0.00524021 -0.00496707 -0.00472835 -0.00452405 -0.00435416 -0.00421869 -0.00413143 -0.00410615 -0.00414286 -0.00424156 -0.00440224 -0.00462492 -0.00490958 -0.00525623 -0.00565769 -0.00610677 -0.00660347 -0.0071478 -0.00773975 -0.00837933 -0.00906652 -0.00980134 -0.0105665 -0.0113449 -0.0121364 -0.012941 -0.0137587 -0.0145896 -0.0154336 -0.0162908 -0.0171007 -0.0178031 -0.0183979 -0.0188851 -0.0192647 -0.0195367 -0.0197011 -0.0197579 -0.0197098 -0.0195594 -0.0193066 -0.0189516 -0.0184942 -0.0179345 -0.0172725 -0.0165081 -0.0156974 -0.0148965 -0.0141052 -0.0133235 -0.0125516 -0.0117894 -0.0110368 -0.0102939 -0.00956357 -0.0088487 -0.00814926 -0.00746528 -0.00679674 -0.00614366 -0.00550601 -0.00488382 -0.0042888 -0.00373268 -0.00321547 -0.00273716 -0.00229776 -0.00189726 -0.00153566 -0.00121297 -0.000928678 -0.000682294 -0.000473815 -0.000303242 -0.000170573 -7.58104e-05 -1.89526e-05 0 0 1.57953e-06 6.31811e-06 1.42158e-05 2.52724e-05 3.94882e-05 5.6863e-05 7.73969e-05 0.00010109 0.000109143 8.27596e-05 2.19381e-05 -7.33208e-05 -0.000203017 -0.000367151 -0.000565723 -0.000798732 -0.00106906 -0.00137958 -0.00173029 -0.0021212 -0.0025523 -0.00302359 -0.00353508 -0.00408676 -0.00465446 -0.005214 -0.00576537 -0.00630857 -0.00684361 -0.00737049 -0.0078892 -0.00839975 -0.0088707 -0.00927062 -0.0095995 -0.00985734 -0.0100442 -0.0101599 -0.0102047 -0.0101784 -0.0100896 -0.00994701 -0.00975054 -0.00950019 -0.00919599 -0.00883792 -0.00842598 -0.00796018 -0.0074891 -0.00706132 -0.00667684 -0.00633567 -0.0060378 -0.00578324 -0.00557197 -0.00540402 -0.00529335 -0.00525398 -0.00528591 -0.00538912 -0.00556362 -0.00580942 -0.00612651 -0.00651489 -0.0069633 -0.00746049 -0.00800645 -0.00860119 -0.0092447 -0.00993699 -0.0106781 -0.0114679 -0.0122909 -0.0131315 -0.0139896 -0.0148653 -0.0157585 -0.0166693 -0.0175977 -0.0185437 -0.019439 -0.0202157 -0.0208738 -0.0214131 -0.0218338 -0.0221358 -0.0223191 -0.0223837 -0.0223327 -0.022169 -0.0218927 -0.0215036 -0.0210019 -0.0203876 -0.0196606 -0.0188209 -0.0179312 -0.0170542 -0.0161899 -0.0153383 -0.0144993 -0.0136731 -0.0128595 -0.0120586 -0.0112683 -0.0104865 -0.00971313 -0.00894824 -0.00819184 -0.00744391 -0.00670445 -0.00597347 -0.00526819 -0.00460583 -0.00398641 -0.00340992 -0.00287636 -0.00238572 -0.00193802 -0.00153324 -0.00117389 -0.000862449 -0.000598923 -0.000383311 -0.000215612 -9.58277e-05 -2.39569e-05 0 0 9.54105e-07 3.81642e-06 8.58694e-06 1.52657e-05 2.38526e-05 3.43478e-05 4.67511e-05 6.10627e-05 5.56443e-05 8.85783e-06 -7.92968e-05 -0.000208819 -0.00037971 -0.000591969 -0.000845596 -0.00114059 -0.00147987 -0.00186634 -0.0023 -0.00278085 -0.0033089 -0.00388414 -0.00450657 -0.0051762 -0.00586481 -0.0065442 -0.00721437 -0.00787533 -0.00852706 -0.00916957 -0.00980287 -0.0104269 -0.0110028 -0.0114916 -0.0118931 -0.0122076 -0.0124348 -0.0125749 -0.0126279 -0.0125937 -0.0124837 -0.0123093 -0.0120704 -0.0117671 -0.0113993 -0.010967 -0.0104704 -0.00990926 -0.0093423 -0.00882809 -0.00836663 -0.00795793 -0.00760198 -0.00729878 -0.00704833 -0.00685064 -0.00671342 -0.00664442 -0.00664362 -0.00671103 -0.00684664 -0.00705047 -0.0073225 -0.00766274 -0.00805129 -0.00846826 -0.00891365 -0.00938745 -0.00988967 -0.0104203 -0.0109794 -0.0115669 -0.0121807 -0.0128188 -0.0134811 -0.0141677 -0.0148786 -0.0156137 -0.0163731 -0.0171568 -0.0179035 -0.0185521 -0.0191025 -0.0195547 -0.0199088 -0.0201648 -0.0203225 -0.0203822 -0.0203464 -0.0202182 -0.0199973 -0.019684 -0.0192781 -0.0187796 -0.0181886 -0.0175051 -0.0167837 -0.0160791 -0.0153915 -0.0147206 -0.0140666 -0.0134295 -0.0128092 -0.0122058 -0.0116007 -0.0109755 -0.0103301 -0.0096645 -0.00897875 -0.00827283 -0.00754675 -0.0068005 -0.00606195 -0.00535895 -0.0046915 -0.00405961 -0.00346327 -0.00290249 -0.00237726 -0.00188759 -0.00144518 -0.00106177 -0.000737339 -0.000471897 -0.000265442 -0.000117974 -2.94936e-05 0 0 -3.43697e-07 -1.37479e-06 -3.09327e-06 -5.49915e-06 -8.59242e-06 -1.23731e-05 -1.68411e-05 -2.19966e-05 -5.16604e-05 -0.000129654 -0.000255976 -0.000430628 -0.00065361 -0.000924921 -0.00124456 -0.00161253 -0.00203139 -0.0025037 -0.00302945 -0.00360866 -0.00424131 -0.00492742 -0.00566697 -0.00645997 -0.00727476 -0.00807969 -0.00887476 -0.00965996 -0.0104353 -0.0112008 -0.0119564 -0.0127022 -0.0133907 -0.0139745 -0.0144537 -0.0148283 -0.0150983 -0.0152636 -0.0153242 -0.0152802 -0.0151465 -0.0149379 -0.0146543 -0.0142959 -0.0138626 -0.0133544 -0.0127713 -0.0121134 -0.0114493 -0.0108481 -0.0103096 -0.00983384 -0.00942087 -0.00907067 -0.00878323 -0.00855856 -0.00839164 -0.00827745 -0.008216 -0.00820728 -0.0082513 -0.00834806 -0.00849755 -0.00869978 -0.00892165 -0.00913008 -0.00932506 -0.00950659 -0.00967467 -0.00982931 -0.0099705 -0.0100982 -0.0102359 -0.0104068 -0.0106109 -0.0108483 -0.0111189 -0.0114228 -0.0117599 -0.0121303 -0.0124942 -0.0128122 -0.0130841 -0.01331 -0.0134898 -0.0136236 -0.0137114 -0.0137532 -0.013751 -0.0137068 -0.0136207 -0.0134926 -0.0133226 -0.0131106 -0.0128566 -0.0125607 -0.0122549 -0.0119713 -0.0117099 -0.0114706 -0.0112536 -0.0110587 -0.010886 -0.0107355 -0.0105609 -0.0103157 -0.0100001 -0.00961403 -0.00915747 -0.00863043 -0.00803292 -0.00736493 -0.00667009 -0.00599202 -0.00533074 -0.00468623 -0.00405851 -0.00344756 -0.00285339 -0.002276 -0.00174256 -0.00128025 -0.000889063 -0.000569 -0.000320063 -0.00014225 -3.55625e-05 0 0 -2.31388e-06 -9.2555e-06 -2.08249e-05 -3.7022e-05 -5.78469e-05 -8.32995e-05 -0.00011338 -0.000148088 -0.000212771 -0.000332775 -0.000508101 -0.000738748 -0.00102472 -0.00136601 -0.00176262 -0.00221455 -0.00272362 -0.00329166 -0.00391866 -0.00460462 -0.00534954 -0.00615343 -0.00701627 -0.00793808 -0.00888433 -0.00982047 -0.0107465 -0.0116625 -0.0125684 -0.0134641 -0.0143498 -0.0152254 -0.0160342 -0.0167195 -0.0172813 -0.0177196 -0.0180344 -0.0182258 -0.0182936 -0.018238 -0.018078 -0.0178328 -0.0175024 -0.0170868 -0.016586 -0.0160001 -0.0153289 -0.0145725 -0.0138102 -0.0131213 -0.0125057 -0.0119634 -0.0114945 -0.0110989 -0.0107767 -0.0105278 -0.010328 -0.0101531 -0.010003 -0.00987788 -0.0097776 -0.0097022 -0.00965167 -0.00962602 -0.00957439 -0.00944595 -0.00924068 -0.0089586 -0.00859969 -0.00816396 -0.00765142 -0.00706205 -0.00645653 -0.00589551 -0.00537899 -0.00490698 -0.00447948 -0.00409648 -0.00375799 -0.003464 -0.00321112 -0.00299595 -0.0028185 -0.00267876 -0.00257672 -0.00251241 -0.0024858 -0.0024969 -0.00254641 -0.00263503 -0.00276274 -0.00292955 -0.00313546 -0.00338047 -0.00366458 -0.0039878 -0.0043449 -0.00473068 -0.00514515 -0.00558829 -0.00606012 -0.00656062 -0.00708981 -0.00764768 -0.00814866 -0.00850718 -0.00872325 -0.00879686 -0.00872801 -0.00851671 -0.00816295 -0.00766674 -0.0070926 -0.00650506 -0.00590412 -0.00528979 -0.00466206 -0.00402093 -0.00336641 -0.00269848 -0.00206603 -0.0015179 -0.0010541 -0.000674621 -0.000379474 -0.000168655 -4.21638e-05 0 0 -4.95643e-06 -1.98257e-05 -4.46079e-05 -7.93029e-05 -0.000123911 -0.000178432 -0.000242865 -0.000317212 -0.000427687 -0.000600506 -0.000835669 -0.00113318 -0.00149303 -0.00191523 -0.00239977 -0.00294665 -0.00355657 -0.00423023 -0.00496762 -0.00576874 -0.00663359 -0.00756217 -0.00855449 -0.00961054 -0.0106935 -0.0117665 -0.0128297 -0.0138829 -0.0149262 -0.0159596 -0.0169831 -0.0179967 -0.0189334 -0.0197265 -0.0203758 -0.0208814 -0.0212434 -0.0214616 -0.0215361 -0.0214669 -0.0212781 -0.020994 -0.0206145 -0.0201397 -0.0195695 -0.0189039 -0.018143 -0.0172867 -0.016425 -0.0156477 -0.0149549 -0.0143467 -0.0138228 -0.0133835 -0.0130287 -0.0127583 -0.0125225 -0.0122713 -0.0120048 -0.0117228 -0.0114255 -0.0111129 -0.0107848 -0.0104414 -0.0100095 -0.00941587 -0.00866053 -0.00774348 -0.00666473 -0.00542428 -0.00402213 -0.00245828 -0.000842597 0.000715042 0.00221464 0.00365619 0.0050397 0.00636516 0.00763258 0.00884195 0.00994578 0.0108965 0.0116942 0.0123389 0.0128304 0.013169 0.0133544 0.0133868 0.0132673 0.0129972 0.0125765 0.0120052 0.0112833 0.0104107 0.00938749 0.00821367 0.00694636 0.00564272 0.00430273 0.0029264 0.00151373 6.47178e-05 -0.00142064 -0.00294233 -0.00436415 -0.00554986 -0.00649947 -0.00721297 -0.00769037 -0.00793166 -0.00793685 -0.00770594 -0.00732948 -0.00689806 -0.00641166 -0.00587028 -0.00527393 -0.00462261 -0.00391631 -0.00315504 -0.00241557 -0.00177471 -0.00123244 -0.000788759 -0.000443677 -0.00019719 -4.92974e-05 0 0 -8.27137e-06 -3.30855e-05 -7.44423e-05 -0.000132342 -0.000206784 -0.000297769 -0.000405297 -0.000529368 -0.000696408 -0.000932847 -0.00123868 -0.00161392 -0.00205855 -0.00257258 -0.00315601 -0.00380883 -0.00453023 -0.0053194 -0.00617632 -0.00710101 -0.00809345 -0.00915365 -0.0102816 -0.0114773 -0.0127023 -0.0139179 -0.0151242 -0.0163212 -0.0175089 -0.0186872 -0.0198562 -0.0210159 -0.0220883 -0.0229955 -0.0237373 -0.0243138 -0.024725 -0.024971 -0.0250516 -0.024967 -0.024747 -0.0244216 -0.0239908 -0.0234546 -0.022813 -0.0220661 -0.0212137 -0.0202559 -0.0192936 -0.0184274 -0.0176574 -0.0169835 -0.0164059 -0.0159245 -0.0155392 -0.0152501 -0.0149751 -0.0146321 -0.0142211 -0.0137421 -0.0131951 -0.0125801 -0.0118971 -0.0111461 -0.010227 -0.00903984 -0.00758459 -0.00586124 -0.0038698 -0.00161027 0.000917354 0.00371307 0.0066059 0.00942487 0.01217 0.0148412 0.0174386 0.0199621 0.0224118 0.0247876 0.0269765 0.0288653 0.0304541 0.0317429 0.0327317 0.0334204 0.0338091 0.0338978 0.0336902 0.03319 0.0323971 0.0313117 0.0299336 0.0282629 0.0262996 0.0240437 0.0216189 0.0191489 0.0166338 0.0140734 0.011468 0.00881732 0.00612151 0.00338053 0.000792671 -0.00144376 -0.00332877 -0.00486237 -0.00604454 -0.00687529 -0.00735461 -0.00748252 -0.00738075 -0.00717102 -0.00685333 -0.0064277 -0.00589412 -0.00525258 -0.0045031 -0.00364566 -0.00279121 -0.00205068 -0.00142408 -0.000911414 -0.000512671 -0.000227854 -5.69634e-05 0 0 -1.22587e-05 -4.90347e-05 -0.000110328 -0.000196139 -0.000306467 -0.000441312 -0.000600675 -0.000784556 -0.00101894 -0.0013298 -0.00171714 -0.00218097 -0.00272128 -0.00333807 -0.00403134 -0.00480109 -0.00564461 -0.00655917 -0.00754478 -0.00860143 -0.00972912 -0.0109279 -0.0121976 -0.0135385 -0.0149107 -0.0162746 -0.0176301 -0.0189774 -0.0203163 -0.0216469 -0.0229693 -0.0242833 -0.025499 -0.0265265 -0.0273657 -0.0280167 -0.0284795 -0.028754 -0.0288402 -0.0287383 -0.0284845 -0.0281155 -0.0276312 -0.0270315 -0.0263166 -0.0254864 -0.024541 -0.0234802 -0.022416 -0.0214602 -0.0206129 -0.0198741 -0.0192437 -0.0187218 -0.0183083 -0.0180032 -0.0176859 -0.0172356 -0.0166522 -0.0159358 -0.0150863 -0.0141039 -0.0129884 -0.0117399 -0.0102269 -0.00831786 -0.00601286 -0.00331187 -0.00021489 0.00327808 0.00716705 0.011452 0.015889 0.020234 0.024487 0.0286481 0.0327173 0.0366945 0.0405797 0.044373 0.047881 0.0509104 0.0534612 0.0555334 0.057127 0.058242 0.0588784 0.0590363 0.0587223 0.0579432 0.0566991 0.0549898 0.0528156 0.0501762 0.0470718 0.0435023 0.0396726 0.0357879 0.0318479 0.0278528 0.0238026 0.0196972 0.0155366 0.0113209 0.0073218 0.00381111 0.000788828 -0.00174505 -0.00379052 -0.00534759 -0.00641624 -0.0069965 -0.00724638 -0.00732394 -0.00722916 -0.00696206 -0.00652262 -0.00591086 -0.00512677 -0.00417035 -0.00319292 -0.00234582 -0.00162904 -0.00104259 -0.000586455 -0.000260647 -6.51617e-05 0 0 -1.69184e-05 -6.76735e-05 -0.000152265 -0.000270694 -0.000422959 -0.000609061 -0.000829 -0.00108278 -0.00139527 -0.00179136 -0.00227104 -0.00283433 -0.00348121 -0.00421169 -0.00502576 -0.00592343 -0.0068997 -0.00794955 -0.00907298 -0.01027 -0.0115406 -0.0128848 -0.0143026 -0.015794 -0.0173187 -0.0188365 -0.0203474 -0.0218514 -0.0233486 -0.0248388 -0.0263222 -0.0277986 -0.0291653 -0.0303195 -0.0312611 -0.0319901 -0.0325066 -0.0328106 -0.0329019 -0.0327807 -0.0324907 -0.0320757 -0.0315356 -0.0308705 -0.0300803 -0.0291651 -0.0281248 -0.0269595 -0.0257923 -0.0247463 -0.0238217 -0.0230183 -0.0223362 -0.0217754 -0.0213359 -0.0210177 -0.0206548 -0.0200816 -0.0192979 -0.0183038 -0.0170992 -0.0156842 -0.0140588 -0.0122229 -0.0100091 -0.00724993 -0.00394536 -9.53784e-05 0.0043 0.00924077 0.0147269 0.0207585 0.0270066 0.0331424 0.0391658 0.0450769 0.0508757 0.0565621 0.0621362 0.067598 0.0726592 0.0770317 0.0807154 0.0837103 0.0860164 0.0876337 0.0885623 0.0888021 0.0883635 0.0872569 0.0854823 0.0830397 0.0799291 0.0761505 0.071704 0.0665894 0.0611076 0.0555596 0.0499452 0.0442646 0.0385176 0.0327043 0.0268247 0.0208788 0.0152232 0.0102148 0.00585334 0.00213898 -0.000928322 -0.00334856 -0.00512174 -0.00624786 -0.00692639 -0.00735682 -0.00753914 -0.00747335 -0.00715945 -0.00659744 -0.00578733 -0.00472911 -0.00362072 -0.00266012 -0.00184731 -0.00118228 -0.00066503 -0.000295569 -7.38923e-05 0 0 -2.21587e-05 -8.86347e-05 -0.000199428 -0.000354539 -0.000553967 -0.000797712 -0.00108577 -0.00141816 -0.00181511 -0.00229689 -0.00286351 -0.00351495 -0.00425122 -0.00507232 -0.00597826 -0.00696902 -0.00803457 -0.00916488 -0.0103599 -0.0116197 -0.0129443 -0.0143336 -0.0157877 -0.0173065 -0.0188553 -0.0203992 -0.0219383 -0.0234725 -0.0250019 -0.0265265 -0.0280462 -0.0295611 -0.0309626 -0.0321424 -0.0331003 -0.0338365 -0.0343509 -0.0346434 -0.0347142 -0.0345632 -0.0342426 -0.0338046 -0.0332491 -0.0325763 -0.0317861 -0.0308785 -0.0298534 -0.028711 -0.0275766 -0.0265758 -0.0257084 -0.0249745 -0.0243742 -0.0239073 -0.023574 -0.0233741 -0.0230833 -0.0224771 -0.0215555 -0.0203184 -0.018766 -0.0168982 -0.014715 -0.0122163 -0.00919606 -0.0054479 -0.000971847 0.00423209 0.0101639 0.0168236 0.0242112 0.0323267 0.0407316 0.0489873 0.0570938 0.0650511 0.0728593 0.0805183 0.0880282 0.0953889 0.102211 0.108107 0.113076 0.117117 0.120232 0.12242 0.12368 0.124014 0.123436 0.12196 0.119587 0.116317 0.11215 0.107085 0.101123 0.0942642 0.0869095 0.0794609 0.0719183 0.0642816 0.056551 0.0487264 0.0408078 0.0327953 0.0251521 0.018342 0.0123647 0.00722039 0.002909 -0.00056945 -0.00321497 -0.00502756 -0.00625352 -0.00713915 -0.00768445 -0.00788942 -0.00775407 -0.00727838 -0.00646237 -0.00530603 -0.00406243 -0.00298464 -0.00207267 -0.00132651 -0.00074616 -0.000331627 -8.29067e-05 0 0 -2.78878e-05 -0.000111551 -0.00025099 -0.000446205 -0.000697195 -0.00100396 -0.0013665 -0.00178482 -0.00226816 -0.00282577 -0.00345764 -0.00416378 -0.00494419 -0.00579886 -0.00672781 -0.00773102 -0.00878831 -0.00987952 -0.0110046 -0.0121637 -0.0133566 -0.0145834 -0.0158442 -0.0171389 -0.0184495 -0.0197582 -0.021065 -0.0223698 -0.0236727 -0.0249737 -0.0262727 -0.0275698 -0.0287662 -0.029763 -0.0305604 -0.0311582 -0.0315565 -0.0317553 -0.0317546 -0.0315544 -0.0312169 -0.0308043 -0.0303166 -0.0297539 -0.0291161 -0.0284031 -0.0276151 -0.0267521 -0.0259234 -0.0252387 -0.0246979 -0.0243011 -0.0240482 -0.0239393 -0.0239743 -0.0241533 -0.0241727 -0.0237289 -0.0228221 -0.0214522 -0.0196192 -0.017323 -0.0145638 -0.0113414 -0.00741004 -0.00252359 0.00331788 0.0101144 0.0178659 0.0265725 0.0362341 0.0468508 0.0578366 0.0686058 0.0791584 0.0894943 0.0996136 0.109516 0.119202 0.128672 0.137438 0.145014 0.151401 0.156598 0.160606 0.163424 0.165052 0.165491 0.164761 0.162881 0.159854 0.155677 0.150352 0.143879 0.136257 0.127486 0.118064 0.108489 0.0987595 0.088877 0.0788409 0.0686513 0.0583081 0.0478113 0.0377636 0.0287675 0.0208229 0.0139298 0.00808839 0.00329851 -0.000439806 -0.00312655 -0.0050605 -0.00654041 -0.00756629 -0.00813814 -0.00825595 -0.00791974 -0.00712949 -0.0058852 -0.00450586 -0.00331043 -0.00229891 -0.0014713 -0.000827606 -0.000367825 -9.19563e-05 0 0 -3.41058e-05 -0.000136423 -0.000306952 -0.000545693 -0.000852645 -0.00122781 -0.00167118 -0.00218277 -0.00275442 -0.00337798 -0.00405344 -0.00478082 -0.00556011 -0.0063913 -0.00727441 -0.00820942 -0.00916092 -0.0100935 -0.0110071 -0.0119018 -0.0127775 -0.0136343 -0.0144721 -0.015291 -0.0161014 -0.0169135 -0.0177275 -0.0185433 -0.0193609 -0.0201804 -0.0210017 -0.0218248 -0.0225759 -0.0231814 -0.0236412 -0.0239552 -0.0241236 -0.0241462 -0.0240232 -0.0237544 -0.0234137 -0.023075 -0.0227382 -0.0224032 -0.0220702 -0.0217391 -0.0214099 -0.0210826 -0.0208326 -0.0207351 -0.0207903 -0.0209981 -0.0213585 -0.0218714 -0.022537 -0.0233552 -0.023923 -0.0238372 -0.0230979 -0.021705 -0.0196586 -0.0169587 -0.0136052 -0.00959822 -0.00465104 0.00152298 0.00892383 0.0175515 0.027406 0.0384874 0.0507956 0.0643306 0.0783217 0.091998 0.10536 0.118406 0.131138 0.143556 0.155658 0.167446 0.178338 0.187753 0.195692 0.202154 0.207139 0.210647 0.212678 0.213233 0.212338 0.210021 0.206282 0.201121 0.194537 0.186532 0.177104 0.166254 0.154571 0.142642 0.130469 0.118051 0.105387 0.0924789 0.0793255 0.0659271 0.0530577 0.0414913 0.0312278 0.0222674 0.0146099 0.00825532 0.00320375 -0.000544838 -0.00334733 -0.00556061 -0.00718467 -0.0082195 -0.00866511 -0.00852151 -0.00778868 -0.00646663 -0.00495102 -0.00363748 -0.00252603 -0.00161666 -0.00090937 -0.000404165 -0.000101041 0 0 -4.08127e-05 -0.000163251 -0.000367314 -0.000653002 -0.00102032 -0.00146926 -0.00199982 -0.00261201 -0.00327389 -0.00395353 -0.00465092 -0.00536607 -0.00609898 -0.00684964 -0.00761806 -0.00840424 -0.00915239 -0.00980674 -0.0103673 -0.010834 -0.011207 -0.0114861 -0.0116714 -0.011763 -0.0118108 -0.0118651 -0.0119258 -0.011993 -0.0120666 -0.0121466 -0.0122331 -0.012326 -0.012392 -0.0123975 -0.0123427 -0.0122276 -0.012052 -0.0118161 -0.0115198 -0.0111632 -0.0108331 -0.0106166 -0.0105137 -0.0105243 -0.0106485 -0.0108863 -0.0112377 -0.0117026 -0.0123041 -0.013065 -0.0139855 -0.0150654 -0.0163048 -0.0177037 -0.0192621 -0.0209799 -0.0223342 -0.0228018 -0.0223827 -0.0210769 -0.0188843 -0.0158051 -0.0118392 -0.00698665 -0.000919066 0.00669182 0.015846 0.0265435 0.0387842 0.0525683 0.0678957 0.0847664 0.102187 0.119164 0.135697 0.151787 0.167434 0.182637 0.197396 0.211712 0.224912 0.236324 0.245948 0.253783 0.259829 0.264088 0.266558 0.26724 0.266168 0.263379 0.258872 0.252648 0.244705 0.235044 0.223666 0.21057 0.19643 0.181923 0.167047 0.151803 0.13619 0.120209 0.10386 0.0871425 0.0710344 0.0565134 0.0435796 0.0322329 0.0224734 0.014301 0.00771571 0.00271759 -0.00111402 -0.00419974 -0.00653957 -0.0081335 -0.00898154 -0.00908369 -0.00843995 -0.00705032 -0.0053979 -0.0039658 -0.00275403 -0.00176258 -0.000991451 -0.000440645 -