<?xml version="1.0"?> 
<VTKFile type="StructuredGrid" version="0.1"> 
<StructuredGrid WholeExtent="0 128 0 128 0 0"> 
<Piece Extent="0 128 0 128 0 0"> 
<PointData>
<DataArray type="Float32" Name="u" format="ascii" NumberOfComponents="1"> 
0 0 0 0 0 0 0 0 0 0 0 0 0 0 0 0 0 0 0 0 0 0 0 0 0 0 0 0 0 0 0 0 0 0 0 0 0 0 0 0 0 0 0 0 0 0 0 0 0 0 0 0 0 0 0 0 0 0 0 0 0 0 0 0 0 0 0 0 0 0 0 0 0 0 0 0 0 0 0 0 0 0 0 0 0 0 0 0 0 0 0 0 0 0 0 0 0 0 0 0 0 0 0 0 0 0 0 0 0 0 0 0 0 0 0 0 0 0 0 0 0 0 0 0 0 0 0 0 0 0 6.8762e-08 2.75048e-07 6.18858e-07 1.10019e-06 1.71905e-06 2.47543e-06 3.36934e-06 4.40077e-06 5.29089e-06 5.76088e-06 5.81072e-06 5.44043e-06 4.65e-06 3.43943e-06 1.80872e-06 -2.42123e-07 -2.7142e-06 -5.60862e-06 -8.92536e-06 -1.26644e-05 -1.68258e-05 -2.14096e-05 -2.64156e-05 -3.1844e-05 -3.74098e-05 -4.28281e-05 -4.80988e-05 -5.32219e-05 -5.81975e-05 -6.30255e-05 -6.7706e-05 -7.22389e-05 -7.63858e-05 -7.9908e-05 -8.28056e-05 -8.50785e-05 -8.67269e-05 -8.77506e-05 -8.81496e-05 -8.79241e-05 -8.71023e-05 -8.57126e-05 -8.3755e-05 -8.12296e-05 -7.81363e-05 -7.44751e-05 -7.02461e-05 -6.54491e-05 -6.06481e-05 -5.64065e-05 -5.27245e-05 -4.9602e-05 -4.70391e-05 -4.50357e-05 -4.35919e-05 -4.27076e-05 -4.27045e-05 -4.3904e-05 -4.63062e-05 -4.99111e-05 -5.47188e-05 -6.07291e-05 -6.79421e-05 -7.63579e-05 -8.58799e-05 -9.64119e-05 -0.000107954 -0.000120506 -0.000134067 -0.000148639 -0.00016422 -0.000180812 -0.000198016 -0.000215435 -0.00023307 -0.00025092 -0.000268985 -0.000287265 -0.000305761 -0.000324472 -0.000342102 -0.000357356 -0.000370234 -0.000380735 -0.000388861 -0.00039461 -0.000397982 -0.000398978 -0.000397668 -0.00039412 -0.000388334 -0.000380312 -0.000370052 -0.000357554 -0.000342819 -0.000325847 -0.00030788 -0.000290162 -0.000272692 -0.000255472 -0.000238499 -0.000221776 -0.000205301 -0.000189075 -0.000173272 -0.000158066 -0.000143458 -0.000129447 -0.000116034 -0.000103218 -9.10002e-05 -7.93794e-05 -6.84987e-05 -5.85006e-05 -4.93851e-05 -4.11521e-05 -3.38017e-05 -2.73338e-05 -2.17485e-05 -1.70458e-05 -1.30507e-05 -9.58825e-06 -6.65851e-06 -4.26144e-06 -2.39706e-06 -1.06536e-06 -2.6634e-07 0 0 2.75048e-07 1.10019e-06 2.47543e-06 4.40077e-06 6.8762e-06 9.90173e-06 1.34774e-05 1.76031e-05 2.11636e-05 2.30435e-05 2.32429e-05 2.17617e-05 1.86e-05 1.37577e-05 7.23489e-06 -9.68492e-07 -1.08568e-05 -2.24345e-05 -3.57014e-05 -5.06577e-05 -6.73034e-05 -8.56383e-05 -0.000105663 -0.000127376 -0.000149639 -0.000171312 -0.000192395 -0.000212888 -0.00023279 -0.000252102 -0.000270824 -0.000288956 -0.000305543 -0.000319632 -0.000331222 -0.000340314 -0.000346907 -0.000351002 -0.000352599 -0.000351696 -0.000348409 -0.00034285 -0.00033502 -0.000324918 -0.000312545 -0.0002979 -0.000280984 -0.000261797 -0.000242592 -0.000225626 -0.000210898 -0.000198408 -0.000188156 -0.000180143 -0.000174368 -0.00017083 -0.000170818 -0.000175616 -0.000185225 -0.000199645 -0.000218875 -0.000242916 -0.000271769 -0.000305432 -0.00034352 -0.000385648 -0.000431815 -0.000482022 -0.000536269 -0.000594556 -0.000656882 -0.000723248 -0.000792064 -0.000861741 -0.00093228 -0.00100368 -0.00107594 -0.00114906 -0.00122304 -0.00129789 -0.00136841 -0.00142942 -0.00148094 -0.00152294 -0.00155544 -0.00157844 -0.00159193 -0.00159591 -0.00159067 -0.00157648 -0.00155334 -0.00152125 -0.00148021 -0.00143022 -0.00137128 -0.00130339 -0.00123152 -0.00116065 -0.00109077 -0.00102189 -0.000953998 -0.000887104 -0.000821204 -0.0007563 -0.000693087 -0.000632264 -0.000573832 -0.000517789 -0.000464136 -0.000412873 -0.000364001 -0.000317518 -0.000273995 -0.000234003 -0.00019754 -0.000164608 -0.000135207 -0.000109335 -8.6994e-05 -6.81831e-05 -5.22027e-05 -3.8353e-05 -2.6634e-05 -1.70458e-05 -9.58825e-06 -4.26144e-06 -1.06536e-06 0 0 6.18858e-07 2.47543e-06 5.56972e-06 9.90173e-06 1.54715e-05 2.22789e-05 3.03241e-05 3.96069e-05 4.7618e-05 5.18479e-05 5.22965e-05 4.89639e-05 4.185e-05 3.09549e-05 1.62785e-05 -2.17911e-06 -2.44278e-05 -5.04776e-05 -8.03282e-05 -0.00011398 -0.000151433 -0.000192686 -0.000237741 -0.000286596 -0.000336689 -0.000385453 -0.000432889 -0.000478997 -0.000523777 -0.00056723 -0.000609354 -0.00065015 -0.000687472 -0.000719172 -0.00074525 -0.000765707 -0.000780542 -0.000789755 -0.000793347 -0.000791317 -0.00078392 -0.000771413 -0.000753795 -0.000731066 -0.000703227 -0.000670276 -0.000632215 -0.000589042 -0.000545832 -0.000507659 -0.000474521 -0.000446418 -0.000423352 -0.000405322 -0.000392327 -0.000384369 -0.00038434 -0.000395136 -0.000416756 -0.0004492 -0.000492469 -0.000546562 -0.000611479 -0.000687221 -0.000772919 -0.000867707 -0.000971584 -0.00108455 -0.00120661 -0.00133775 -0.00147798 -0.00162731 -0.00178214 -0.00193892 -0.00209763 -0.00225828 -0.00242086 -0.00258539 -0.00275185 -0.00292025 -0.00307892 -0.00321621 -0.00333211 -0.00342662 -0.00349975 -0.00355149 -0.00358184 -0.00359081 -0.00357901 -0.00354708 -0.00349501 -0.0034228 -0.00333046 -0.00321799 -0.00308537 -0.00293262 -0.00277092 -0.00261146 -0.00245423 -0.00229924 -0.0021465 -0.00199598 -0.00184771 -0.00170167 -0.00155945 -0.00142259 -0.00129112 -0.00116503 -0.00104431 -0.000928965 -0.000819001 -0.000714415 -0.000616489 -0.000526506 -0.000444466 -0.000370369 -0.000304215 -0.000246004 -0.000195737 -0.000153412 -0.000117456 -8.62942e-05 -5.99266e-05 -3.8353e-05 -2.15736e-05 -9.58825e-06 -2.39706e-06 0 0 1.10019e-06 4.40077e-06 9.90173e-06 1.76031e-05 2.75048e-05 3.96069e-05 5.39094e-05 7.04123e-05 8.46543e-05 9.2174e-05 9.29716e-05 8.70469e-05 7.44e-05 5.50309e-05 2.89396e-05 -3.87397e-06 -4.34273e-05 -8.97379e-05 -0.000142806 -0.000202631 -0.000269213 -0.000342553 -0.00042265 -0.000509505 -0.000598557 -0.000685249 -0.00076958 -0.00085155 -0.00093116 -0.00100841 -0.0010833 -0.00115582 -0.00122217 -0.00127853 -0.00132489 -0.00136126 -0.00138763 -0.00140401 -0.00141039 -0.00140679 -0.00139364 -0.0013714 -0.00134008 -0.00129967 -0.00125018 -0.0011916 -0.00112394 -0.00104719 -0.000970369 -0.000902504 -0.000843592 -0.000793633 -0.000752626 -0.000720572 -0.000697471 -0.000683322 -0.000683271 -0.000702464 -0.000740899 -0.000798578 -0.0008755 -0.000971666 -0.00108707 -0.00122173 -0.00137408 -0.00154259 -0.00172726 -0.00192809 -0.00214508 -0.00237822 -0.00262753 -0.00289299 -0.00316826 -0.00344697 -0.00372912 -0.00401472 -0.00430376 -0.00459624 -0.00489217 -0.00519155 -0.00547363 -0.0057177 -0.00592374 -0.00609177 -0.00622177 -0.00631375 -0.00636771 -0.00638365 -0.00636268 -0.00630592 -0.00621335 -0.00608499 -0.00592082 -0.00572086 -0.0054851 -0.00521355 -0.00492608 -0.00464259 -0.00436308 -0.00408755 -0.00381599 -0.00354842 -0.00328482 -0.0030252 -0.00277235 -0.00252906 -0.00229533 -0.00207116 -0.00185654 -0.00165149 -0.001456 -0.00127007 -0.00109598 -0.00093601 -0.000790161 -0.000658433 -0.000540827 -0.000437341 -0.000347976 -0.000272732 -0.000208811 -0.000153412 -0.000106536 -6.81831e-05 -3.8353e-05 -1.70458e-05 -4.26144e-06 0 0 1.71905e-06 6.8762e-06 1.54715e-05 2.75048e-05 4.29763e-05 6.18858e-05 8.42335e-05 0.000110019 0.000132272 0.000144022 0.000145268 0.000136011 0.00011625 8.59858e-05 4.52181e-05 -6.05307e-06 -6.78551e-05 -0.000140215 -0.000223134 -0.000316611 -0.000420646 -0.000535239 -0.000660391 -0.000796101 -0.000935246 -0.0010707 -0.00120247 -0.00133055 -0.00145494 -0.00157564 -0.00169265 -0.00180597 -0.00190964 -0.0019977 -0.00207014 -0.00212696 -0.00216817 -0.00219376 -0.00220374 -0.0021981 -0.00217756 -0.00214281 -0.00209388 -0.00203074 -0.00195341 -0.00186188 -0.00175615 -0.00163623 -0.0015162 -0.00141016 -0.00131811 -0.00124005 -0.00117598 -0.00112589 -0.0010898 -0.00106769 -0.00106761 -0.0010976 -0.00115766 -0.00124778 -0.00136797 -0.00151823 -0.00169855 -0.00190895 -0.002147 -0.0024103 -0.00269884 -0.00301264 -0.00335168 -0.00371597 -0.00410551 -0.0045203 -0.0049504 -0.00538588 -0.00582675 -0.00627299 -0.00672462 -0.00718163 -0.00764402 -0.00811179 -0.00855255 -0.00893391 -0.00925585 -0.00951839 -0.00972152 -0.00986524 -0.00994955 -0.00997446 -0.00994169 -0.009853 -0.00970836 -0.00950779 -0.00925129 -0.00893885 -0.00857047 -0.00814617 -0.007697 -0.00725405 -0.00681731 -0.00638679 -0.00596249 -0.0055444 -0.00513253 -0.00472687 -0.00433179 -0.00395165 -0.00358645 -0.00323618 -0.00290085 -0.00258046 -0.002275 -0.00198449 -0.00171247 -0.00146252 -0.00123463 -0.0010288 -0.000845041 -0.000683345 -0.000543713 -0.000426144 -0.000326267 -0.000239706 -0.000166463 -0.000106536 -5.99266e-05 -2.6634e-05 -6.65851e-06 0 0 2.47543e-06 9.90173e-06 2.22789e-05 3.96069e-05 6.18858e-05 8.91156e-05 0.000121296 0.000158428 0.000190472 0.000207392 0.000209186 0.000195856 0.0001674 0.00012382 6.5114e-05 -8.71643e-06 -9.77114e-05 -0.00020191 -0.000321313 -0.00045592 -0.00060573 -0.000770745 -0.000950963 -0.00114639 -0.00134675 -0.00154181 -0.00173156 -0.00191599 -0.00209511 -0.00226892 -0.00243742 -0.0026006 -0.00274989 -0.00287669 -0.002981 -0.00306283 -0.00312217 -0.00315902 -0.00317339 -0.00316527 -0.00313568 -0.00308565 -0.00301518 -0.00292427 -0.00281291 -0.0026811 -0.00252886 -0.00235617 -0.00218333 -0.00203063 -0.00189808 -0.00178567 -0.00169341 -0.00162129 -0.00156931 -0.00153747 -0.00153736 -0.00158054 -0.00166702 -0.0017968 -0.00196988 -0.00218625 -0.00244592 -0.00274888 -0.00309168 -0.00347083 -0.00388634 -0.0043382 -0.00482642 -0.005351 -0.00591194 -0.00650923 -0.00712858 -0.00775567 -0.00839052 -0.00903311 -0.00968346 -0.0103415 -0.0110074 -0.011681 -0.0123157 -0.0128648 -0.0133284 -0.0137065 -0.013999 -0.0142059 -0.0143274 -0.0143632 -0.014316 -0.0141883 -0.01398 -0.0136912 -0.0133219 -0.0128719 -0.0123415 -0.0117305 -0.0110837 -0.0104458 -0.00981693 -0.00919698 -0.00858598 -0.00798393 -0.00739084 -0.0068067 -0.00623778 -0.00569038 -0.00516449 -0.0046601 -0.00417723 -0.00371586 -0.00327601 -0.00285766 -0.00246595 -0.00210602 -0.00177786 -0.00148147 -0.00121686 -0.000984017 -0.000782946 -0.000613648 -0.000469824 -0.000345177 -0.000239706 -0.000153412 -8.62942e-05 -3.8353e-05 -9.58825e-06 0 0 3.36934e-06 1.34774e-05 3.03241e-05 5.39094e-05 8.42335e-05 0.000121296 0.000165098 0.000215638 0.000259254 0.000282283 0.000284725 0.000266581 0.00022785 0.000168532 8.86275e-05 -1.1864e-05 -0.000132996 -0.000274822 -0.000437343 -0.000620557 -0.000824466 -0.00104907 -0.00129437 -0.00156036 -0.00183308 -0.00209858 -0.00235684 -0.00260787 -0.00285168 -0.00308825 -0.00331759 -0.00353971 -0.0037429 -0.00391549 -0.00405747 -0.00416885 -0.00424962 -0.00429978 -0.00431933 -0.00430828 -0.00426801 -0.00419992 -0.004104 -0.00398025 -0.00382868 -0.00364928 -0.00344206 -0.00320701 -0.00297175 -0.00276392 -0.0025835 -0.0024305 -0.00230492 -0.00220675 -0.002136 -0.00209267 -0.00209252 -0.0021513 -0.002269 -0.00244565 -0.00268122 -0.00297573 -0.00332917 -0.00374154 -0.00420812 -0.00472418 -0.00528973 -0.00590477 -0.0065693 -0.00728331 -0.0080468 -0.00885978 -0.00970278 -0.0105563 -0.0114204 -0.0122951 -0.0131803 -0.014076 -0.0149823 -0.0158991 -0.016763 -0.0175105 -0.0181415 -0.018656 -0.0190542 -0.0193359 -0.0195011 -0.0195499 -0.0194857 -0.0193119 -0.0190284 -0.0186353 -0.0181325 -0.0175201 -0.0167981 -0.0159665 -0.0150861 -0.0142179 -0.0133619 -0.0125181 -0.0116865 -0.010867 -0.0100598 -0.00926467 -0.00849032 -0.00774524 -0.00702944 -0.00634291 -0.00568567 -0.0050577 -0.00445901 -0.00388959 -0.00335644 -0.00286653 -0.00241987 -0.00201645 -0.00165628 -0.00133936 -0.00106568 -0.000835243 -0.000639483 -0.000469824 -0.000326267 -0.000208811 -0.000117456 -5.22027e-05 -1.30507e-05 0 0 4.40077e-06 1.76031e-05 3.96069e-05 7.04123e-05 0.000110019 0.000158428 0.000215638 0.000281649 0.000338617 0.000368696 0.000371886 0.000348188 0.0002976 0.000220124 0.000115758 -1.54959e-05 -0.000173709 -0.000358951 -0.000571223 -0.000810524 -0.00107685 -0.00137021 -0.0016906 -0.00203802 -0.00239423 -0.002741 -0.00307832 -0.0034062 -0.00372464 -0.00403363 -0.00433318 -0.00462329 -0.00488869 -0.00511411 -0.00529956 -0.00544503 -0.00555052 -0.00561604 -0.00564158 -0.00562714 -0.00557455 -0.00548561 -0.00536032 -0.00519869 -0.00500072 -0.00476641 -0.00449575 -0.00418875 -0.00388148 -0.00361002 -0.00337437 -0.00317453 -0.0030105 -0.00288229 -0.00278988 -0.00273329 -0.00273309 -0.00280986 -0.0029636 -0.00319431 -0.003502 -0.00388666 -0.0043483 -0.0048869 -0.00549632 -0.00617036 -0.00690904 -0.00771236 -0.00858031 -0.00951289 -0.0105101 -0.011572 -0.012673 -0.0137879 -0.0149165 -0.0160589 -0.017215 -0.018385 -0.0195687 -0.0207662 -0.0218945 -0.0228708 -0.023695 -0.0243671 -0.0248871 -0.025255 -0.0254709 -0.0255346 -0.0254507 -0.0252237 -0.0248534 -0.0243399 -0.0236833 -0.0228835 -0.0219404 -0.0208542 -0.0197043 -0.0185704 -0.0174523 -0.0163502 -0.015264 -0.0141937 -0.0131393 -0.0121008 -0.0110894 -0.0101162 -0.00918131 -0.00828462 -0.00742618 -0.00660598 -0.00582401 -0.00508028 -0.00438392 -0.00374404 -0.00316064 -0.00263373 -0.00216331 -0.00174936 -0.0013919 -0.00109093 -0.000835243 -0.000613648 -0.000426144 -0.000272732 -0.000153412 -6.81831e-05 -1.70458e-05 0 0 5.12247e-06 2.04899e-05 4.61023e-05 8.19596e-05 0.000128062 0.000184409 0.000251001 0.000327838 0.000392864 0.000424024 0.000421316 0.000384742 0.0003143 0.000209992 7.1817e-05 -0.000100225 -0.000306108 -0.000545807 -0.000819322 -0.00112665 -0.0014678 -0.00184276 -0.00225154 -0.00269413 -0.00314796 -0.00359046 -0.00402162 -0.00444144 -0.00484993 -0.00524708 -0.00563289 -0.00600737 -0.00635034 -0.00664162 -0.00688123 -0.00706915 -0.0072054 -0.00728996 -0.00732284 -0.00730404 -0.00723627 -0.00712224 -0.00696195 -0.00675541 -0.00650261 -0.00620355 -0.00585823 -0.00546666 -0.00507475 -0.0047284 -0.00442764 -0.00417245 -0.00396284 -0.0037988 -0.00368034 -0.00360745 -0.00360201 -0.00368589 -0.0038591 -0.00412164 -0.00447349 -0.00491467 -0.00544517 -0.006065 -0.00676428 -0.00753317 -0.00837166 -0.00927974 -0.0102574 -0.0113047 -0.0124216 -0.0136081 -0.0148398 -0.0160924 -0.0173658 -0.0186601 -0.0199753 -0.0213113 -0.0226682 -0.024046 -0.0253466 -0.0264719 -0.0274219 -0.0281966 -0.0287961 -0.0292204 -0.0294694 -0.0295431 -0.0294468 -0.029186 -0.0287605 -0.0281704 -0.0274157 -0.0264964 -0.0254125 -0.0241639 -0.0228445 -0.0215478 -0.020274 -0.019023 -0.0177949 -0.0165895 -0.015407 -0.0142473 -0.0131171 -0.0120231 -0.0109653 -0.00994369 -0.00895826 -0.00800903 -0.00709599 -0.00621915 -0.00539232 -0.00462933 -0.00393019 -0.00329488 -0.00272342 -0.0022158 -0.00177202 -0.00139208 -0.00106581 -0.000783043 -0.00054378 -0.000348019 -0.000195761 -8.70048e-05 -2.17512e-05 0 0 5.0872e-06 2.03488e-05 4.57848e-05 8.13951e-05 0.00012718 0.000183139 0.000249273 0.000325581 0.000386297 0.000405658 0.000383662 0.00032031 0.000215601 6.95357e-05 -0.000117886 -0.000346664 -0.000616451 -0.000926898 -0.00127801 -0.00166978 -0.00210221 -0.0025753 -0.00308905 -0.00364346 -0.00421205 -0.00476835 -0.00531236 -0.00584407 -0.00636348 -0.0068706 -0.00736542 -0.00784795 -0.00829093 -0.0086671 -0.00897646 -0.00921902 -0.00939476 -0.0095037 -0.00954583 -0.00952116 -0.00943416 -0.00928934 -0.00908669 -0.00882622 -0.00850791 -0.00813178 -0.00769782 -0.00720603 -0.00671382 -0.00627856 -0.00590027 -0.00557895 -0.00531458 -0.00510719 -0.00495675 -0.00486328 -0.00484224 -0.00490908 -0.00506382 -0.00530644 -0.00563695 -0.00605536 -0.00656165 -0.00715582 -0.00782004 -0.00853642 -0.00930499 -0.0101257 -0.0109986 -0.0119237 -0.012901 -0.0139305 -0.0150036 -0.016112 -0.0172556 -0.0184345 -0.0196486 -0.0208979 -0.0221825 -0.0235023 -0.0247553 -0.0258396 -0.0267551 -0.0275018 -0.0280798 -0.028489 -0.0287294 -0.0288011 -0.0287097 -0.0284611 -0.0280551 -0.0274919 -0.0267713 -0.0258935 -0.0248584 -0.023666 -0.0224128 -0.0211951 -0.020013 -0.0188665 -0.0177556 -0.0166803 -0.0156406 -0.0146365 -0.0136556 -0.0126856 -0.0117266 -0.0107786 -0.00984143 -0.00891522 -0.00799994 -0.0070956 -0.00622556 -0.0054132 -0.0046585 -0.00396147 -0.00332211 -0.00274042 -0.0022164 -0.00175005 -0.00133988 -0.000984405 -0.000683615 -0.000437513 -0.000246101 -0.000109378 -2.73446e-05 0 0 4.29494e-06 1.71798e-05 3.86545e-05 6.8719e-05 0.000107374 0.000154618 0.000210452 0.000274876 0.000318916 0.000313599 0.000258924 0.000154892 1.50189e-06 -0.000201246 -0.000453351 -0.000754813 -0.00110474 -0.00150222 -0.00194728 -0.00243989 -0.00298007 -0.00356782 -0.00420313 -0.004886 -0.0055865 -0.00627467 -0.00695053 -0.00761407 -0.00826529 -0.0089042 -0.00953078 -0.010145 -0.0107105 -0.0111905 -0.0115853 -0.0118946 -0.0121186 -0.0122573 -0.0123106 -0.0122785 -0.0121682 -0.0119869 -0.0117345 -0.0114111 -0.0110166 -0.0105511 -0.0100145 -0.00940687 -0.00879869 -0.00826049 -0.00779226 -0.00739402 -0.00706574 -0.00680745 -0.00661913 -0.00650079 -0.00645378 -0.00647943 -0.00657775 -0.00674874 -0.0069924 -0.00730872 -0.00769772 -0.00815938 -0.00866357 -0.00918012 -0.00970903 -0.0102503 -0.010804 -0.01137 -0.0119484 -0.0125391 -0.0131645 -0.0138467 -0.0145859 -0.015382 -0.0162349 -0.0171447 -0.0181115 -0.0191351 -0.0201209 -0.0209741 -0.0216946 -0.0222826 -0.022738 -0.0230609 -0.0232511 -0.0233087 -0.0232394 -0.0230489 -0.0227372 -0.0223043 -0.0217502 -0.0210748 -0.0202782 -0.0193605 -0.0184092 -0.0175121 -0.0166693 -0.0158807 -0.0151462 -0.014466 -0.01384 -0.0132683 -0.0127048 -0.0121038 -0.0114653 -0.0107893 -0.0100757 -0.00932453 -0.00853586 -0.00770965 -0.00688365 -0.00609562 -0.00534557 -0.00463349 -0.00395937 -0.00332323 -0.00272506 -0.00216486 -0.00165747 -0.00121773 -0.000845648 -0.000541215 -0.000304433 -0.000135304 -3.38259e-05 0 0 2.74571e-06 1.09828e-05 2.47113e-05 4.39313e-05 6.86426e-05 9.88454e-05 0.00013454 0.000175725 0.000190721 0.000147847 4.71028e-05 -0.000111512 -0.000327997 -0.000602352 -0.000934577 -0.00132467 -0.00177097 -0.00227179 -0.00282713 -0.00343701 -0.0041014 -0.00482033 -0.00559378 -0.00642176 -0.0072713 -0.00810942 -0.00893615 -0.00975146 -0.0105554 -0.0113479 -0.012129 -0.0128986 -0.013609 -0.014212 -0.0147076 -0.015096 -0.015377 -0.0155507 -0.015617 -0.0155761 -0.0154385 -0.0152149 -0.0149055 -0.0145101 -0.0140288 -0.0134615 -0.0128083 -0.0120692 -0.0113294 -0.0106742 -0.0101036 -0.00961766 -0.00921632 -0.00889959 -0.00866748 -0.00851998 -0.00843662 -0.00839692 -0.00840089 -0.00844852 -0.00853981 -0.00867477 -0.00885339 -0.00907568 -0.00929488 -0.00946425 -0.00958379 -0.0096535 -0.00967337 -0.00964341 -0.00956362 -0.00943399 -0.00932237 -0.00929658 -0.00935663 -0.00950252 -0.00973423 -0.0100518 -0.0104552 -0.0109444 -0.0114432 -0.0118752 -0.0122405 -0.0125391 -0.0127709 -0.0129359 -0.0130343 -0.0130659 -0.0130359 -0.0129496 -0.0128068 -0.0126077 -0.0123522 -0.0120403 -0.011672 -0.0112473 -0.0108338 -0.010499 -0.0102428 -0.0100654 -0.00996668 -0.00994665 -0.0100053 -0.0101427 -0.0102648 -0.0102777 -0.0101813 -0.00997578 -0.00966099 -0.00923698 -0.00870374 -0.00806128 -0.00736658 -0.00667662 -0.00599141 -0.00531094 -0.00463521 -0.00396423 -0.00329799 -0.00263649 -0.00201857 -0.00148303 -0.00102988 -0.000659123 -0.000370757 -0.000164781 -4.11952e-05 0 0 4.39491e-07 1.75796e-06 3.95542e-06 7.03185e-06 1.09873e-05 1.58217e-05 2.1535e-05 2.81274e-05 1.71199e-06 -9.15979e-05 -0.000251802 -0.000478901 -0.000772895 -0.00113378 -0.00156157 -0.00205624 -0.00261514 -0.00323558 -0.00391758 -0.00466111 -0.0054662 -0.00633283 -0.00726101 -0.00825073 -0.00926645 -0.0102726 -0.0112692 -0.0122562 -0.0132337 -0.0142016 -0.01516 -0.0161087 -0.0169864 -0.0177313 -0.0183435 -0.018823 -0.0191698 -0.0193839 -0.0194652 -0.0194139 -0.0192449 -0.0189734 -0.0185995 -0.0181232 -0.0175443 -0.016863 -0.0160792 -0.0151929 -0.0143058 -0.0135196 -0.0128343 -0.0122499 -0.0117663 -0.0113836 -0.0111018 -0.0109208 -0.0107908 -0.0106616 -0.0105332 -0.0104058 -0.0102792 -0.0101535 -0.0100287 -0.00990471 -0.00971398 -0.00938883 -0.00892926 -0.00833527 -0.00760687 -0.00674405 -0.00574681 -0.00461515 -0.00347731 -0.00246153 -0.00156782 -0.000796174 -0.000146589 0.000380933 0.000786392 0.00106979 0.00127776 0.00145693 0.00160732 0.00172891 0.00182171 0.00188571 0.00192093 0.00192735 0.00190079 0.00183703 0.00173608 0.00159795 0.00142262 0.00121011 0.000960406 0.000673512 0.000313503 -0.00015555 -0.000733645 -0.00142078 -0.00221696 -0.00312219 -0.00413645 -0.00525976 -0.00633553 -0.00720718 -0.0078747 -0.0083381 -0.00859739 -0.00865255 -0.00850358 -0.0081505 -0.00767435 -0.00715618 -0.00659601 -0.00599382 -0.00534962 -0.00466341 -0.00393519 -0.00316496 -0.00242317 -0.00178029 -0.00123631 -0.000791239 -0.000445072 -0.00019781 -4.94525e-05 0 0 -2.6237e-06 -1.04948e-05 -2.36133e-05 -4.19793e-05 -6.55926e-05 -9.44533e-05 -0.000128561 -0.000167917 -0.000248111 -0.000404736 -0.000637791 -0.000947277 -0.00133319 -0.00179554 -0.00233432 -0.00294952 -0.00363726 -0.00439362 -0.0052186 -0.00611222 -0.00707445 -0.00810532 -0.0092048 -0.0103729 -0.011572 -0.0127642 -0.0139497 -0.0151284 -0.0163003 -0.0174654 -0.0186238 -0.0197754 -0.0208428 -0.0217487 -0.022493 -0.0230758 -0.0234971 -0.0237569 -0.0238552 -0.0237919 -0.0235875 -0.0232624 -0.0228167 -0.0222503 -0.0215633 -0.0207555 -0.0198272 -0.0187781 -0.0177281 -0.0167969 -0.0159844 -0.0152907 -0.0147157 -0.0142595 -0.0139221 -0.0137034 -0.0135162 -0.0132734 -0.0129748 -0.0126205 -0.0122106 -0.0117449 -0.0112235 -0.0106465 -0.00992085 -0.00895385 -0.00774545 -0.00629565 -0.00460447 -0.00267189 -0.000497919 0.00191744 0.00437071 0.00665841 0.00878053 0.0107371 0.012528 0.0141534 0.0156132 0.0169075 0.0180419 0.0190224 0.0198488 0.0205213 0.0210397 0.0214041 0.0216146 0.021671 0.0215707 0.0213108 0.0208915 0.0203126 0.0195742 0.0186763 0.0176189 0.016402 0.0150326 0.0135181 0.0118583 0.0100532 0.00810291 0.00600736 0.00376657 0.00138053 -0.000917013 -0.00289232 -0.0045454 -0.00587625 -0.00688486 -0.00757124 -0.00793539 -0.00797731 -0.00780696 -0.00753431 -0.00715938 -0.00668214 -0.00610261 -0.00542079 -0.00463667 -0.00375025 -0.00287129 -0.00210952 -0.00146494 -0.000937563 -0.000527379 -0.000234391 -5.85977e-05 0 0 -6.44388e-06 -2.57755e-05 -5.79949e-05 -0.000103102 -0.000161097 -0.00023198 -0.00031575 -0.000412408 -0.000558749 -0.000791568 -0.00111086 -0.00151664 -0.00200889 -0.00258762 -0.00325283 -0.00400451 -0.00483732 -0.00574589 -0.00673022 -0.00779031 -0.00892617 -0.0101378 -0.0114252 -0.0127883 -0.0141878 -0.0155842 -0.0169776 -0.0183679 -0.0197552 -0.0211393 -0.0225204 -0.0238985 -0.0251781 -0.026264 -0.0271561 -0.0278544 -0.028359 -0.0286698 -0.0287868 -0.0287101 -0.0284662 -0.0280819 -0.027557 -0.0268916 -0.0260856 -0.0251392 -0.0240522 -0.0228248 -0.0215962 -0.0205059 -0.0195538 -0.01874 -0.0180645 -0.0175273 -0.0171283 -0.0168676 -0.016613 -0.0162323 -0.0157256 -0.0150928 -0.0143339 -0.013449 -0.012438 -0.011301 -0.00991551 -0.00815931 -0.00603234 -0.00353463 -0.000666158 0.00257307 0.00618304 0.0101638 0.0142217 0.0180632 0.0216884 0.0250972 0.0282896 0.0312657 0.0340254 0.0365687 0.0388493 0.0408211 0.042484 0.043838 0.0448831 0.0456193 0.0460466 0.0461651 0.0459738 0.0454719 0.0446594 0.0435363 0.0421026 0.0403583 0.0383035 0.035938 0.0333236 0.0305219 0.0275329 0.0243566 0.0209929 0.017442 0.0137037 0.00977819 0.00599075 0.00266687 -0.000193446 -0.00259021 -0.00452342 -0.00599307 -0.00699917 -0.0075417 -0.00776441 -0.00781101 -0.00768151 -0.00737589 -0.00689417 -0.00623635 -0.00540241 -0.00439237 -0.00336291 -0.00247071 -0.00171577 -0.00109809 -0.000617678 -0.000274523 -6.86308e-05 0 0 -1.1021e-05 -4.40841e-05 -9.91893e-05 -0.000176336 -0.000275526 -0.000396757 -0.00054003 -0.000705346 -0.000930201 -0.00125209 -0.00167102 -0.00218699 -0.00279999 -0.00351003 -0.0043171 -0.00522121 -0.00621532 -0.00729239 -0.00845242 -0.0096954 -0.0110213 -0.0124303 -0.0139221 -0.0154969 -0.017114 -0.0187327 -0.020353 -0.0219748 -0.0235983 -0.0252233 -0.0268499 -0.0284781 -0.0299924 -0.0312772 -0.0323327 -0.0331587 -0.0337553 -0.0341225 -0.0342602 -0.0341685 -0.0338812 -0.0334318 -0.0328203 -0.0320469 -0.0311114 -0.0300139 -0.0287544 -0.0273329 -0.0259101 -0.0246466 -0.0235426 -0.022598 -0.0218128 -0.0211869 -0.0207205 -0.0204135 -0.020081 -0.0195384 -0.0187856 -0.0178225 -0.0166492 -0.0152658 -0.0136721 -0.0118682 -0.00969795 -0.00700521 -0.00378996 -5.22014e-05 0.00420806 0.00899082 0.0142961 0.0201238 0.0260756 0.031753 0.0371558 0.0422843 0.0471382 0.0517177 0.0560228 0.0600534 0.0637 0.0668532 0.0695129 0.0716791 0.0733519 0.0745313 0.0752171 0.0754096 0.0751101 0.0743201 0.0730398 0.071269 0.0690078 0.0662562 0.0630142 0.0592817 0.0551865 0.050856 0.0462903 0.0414893 0.0364531 0.0311817 0.0256751 0.0199332 0.0143878 0.00947042 0.00518117 0.00152001 -0.00151305 -0.00391803 -0.0056949 -0.00684369 -0.00754671 -0.00798628 -0.0081624 -0.00807508 -0.00772431 -0.0071101 -0.00623243 -0.00509133 -0.00389805 -0.00286387 -0.0019888 -0.00127283 -0.000715968 -0.000318208 -7.9552e-05 0 0 -1.64107e-05 -6.56427e-05 -0.000147696 -0.000262571 -0.000410267 -0.000590784 -0.000804123 -0.00105028 -0.00136332 -0.00177729 -0.00229218 -0.00290801 -0.00362477 -0.00444247 -0.00536109 -0.00638064 -0.00748992 -0.00867773 -0.00994406 -0.0112889 -0.0127123 -0.0142142 -0.0157946 -0.0174536 -0.0191566 -0.0208692 -0.0225915 -0.0243233 -0.0260647 -0.0278158 -0.0295764 -0.0313466 -0.0329955 -0.0343919 -0.0355359 -0.0364276 -0.0370668 -0.0374536 -0.037588 -0.03747 -0.0371418 -0.0366455 -0.0359813 -0.0351491 -0.0341488 -0.0329806 -0.0316443 -0.03014 -0.0286434 -0.0273302 -0.0262003 -0.0252538 -0.0244906 -0.0239109 -0.0235144 -0.0233014 -0.0230177 -0.0224095 -0.0214768 -0.0202195 -0.0186376 -0.0167312 -0.0145003 -0.0119448 -0.0088719 -0.0050886 -0.000594932 0.00460911 0.0105235 0.0171483 0.0244834 0.032529 0.0407529 0.0486234 0.0561405 0.0633041 0.0701143 0.076571 0.0826742 0.088424 0.093644 0.0981579 0.101966 0.105067 0.107463 0.109152 0.110135 0.110412 0.109988 0.108868 0.10705 0.104537 0.101327 0.0974199 0.0928168 0.0875172 0.0817177 0.0756146 0.0692081 0.0624982 0.0554847 0.0481679 0.0405475 0.0326237 0.0249593 0.0181171 0.0120971 0.0068993 0.00252372 -0.00102966 -0.00376082 -0.00566977 -0.0069829 -0.0079266 -0.00850085 -0.00870567 -0.00854106 -0.008007 -0.00710351 -0.00583058 -0.00446404 -0.0032797 -0.00227757 -0.00145765 -0.000819926 -0.000364412 -9.11029e-05 0 0 -2.26683e-05 -9.06732e-05 -0.000204015 -0.000362693 -0.000566707 -0.000816059 -0.00111075 -0.00145077 -0.00185896 -0.00235813 -0.00294828 -0.00362942 -0.00440154 -0.00526465 -0.00621875 -0.00726382 -0.00837978 -0.00954651 -0.010764 -0.0120323 -0.0133513 -0.0147212 -0.0161418 -0.0176131 -0.0191216 -0.0206535 -0.0222088 -0.0237875 -0.0253896 -0.0270152 -0.0286641 -0.0303365 -0.0318973 -0.0332114 -0.0342789 -0.0350998 -0.0356741 -0.0360017 -0.0360827 -0.0359171 -0.0355575 -0.0350566 -0.0344144 -0.0336309 -0.032706 -0.0316399 -0.0304324 -0.0290836 -0.0277699 -0.0266675 -0.0257764 -0.0250967 -0.0246284 -0.0243715 -0.0243258 -0.0244916 -0.0245203 -0.0240635 -0.0231212 -0.0216934 -0.0197802 -0.0173815 -0.0144973 -0.0111276 -0.0070411 -0.00200655 0.00397608 0.0109068 0.0187856 0.0276124 0.0373874 0.0481104 0.0590739 0.0695705 0.0796001 0.0891627 0.0982583 0.106887 0.115048 0.122743 0.129732 0.135775 0.140872 0.145025 0.148232 0.150494 0.15181 0.152182 0.151617 0.150126 0.147709 0.144365 0.140096 0.1349 0.128777 0.121729 0.114014 0.105892 0.0973643 0.0884299 0.0790891 0.0693418 0.0591881 0.0486279 0.0383907 0.0292057 0.021073 0.0139925 0.00796437 0.00298849 -0.000935123 -0.00380646 -0.00590206 -0.00749845 -0.00859565 -0.00919364 -0.00929244 -0.00889204 -0.00799243 -0.00659362 -0.00504824 -0.00370891 -0.00257563 -0.00164841 -0.000927228 -0.000412102 -0.000103025 0 0 -2.97939e-05 -0.000119176 -0.000268145 -0.000476703 -0.000744848 -0.00107258 -0.0014599 -0.00190681 -0.00241711 -0.00299461 -0.00363931 -0.0043512 -0.00513029 -0.00597658 -0.00689007 -0.00787075 -0.00888489 -0.00989873 -0.0109123 -0.0119255 -0.0129385 -0.0139511 -0.0149635 -0.0159755 -0.017009 -0.0180854 -0.0192049 -0.0203674 -0.0215729 -0.0228215 -0.0241131 -0.0254477 -0.0266978 -0.0277358 -0.0285617 -0.0291755 -0.0295773 -0.0297669 -0.0297445 -0.02951 -0.0291285 -0.028665 -0.0281196 -0.0274923 -0.0267831 -0.0259919 -0.0251188 -0.0241638 -0.0232895 -0.0226585 -0.022271 -0.0221269 -0.0222261 -0.0225687 -0.0231547 -0.0239841 -0.0245887 -0.0245003 -0.0237189 -0.0222444 -0.0200769 -0.0172164 -0.0136629 -0.00941639 -0.00420553 0.00224095 0.00992307 0.0188408 0.0289942 0.0403832 0.0530079 0.0668681 0.0810387 0.0945942 0.107535 0.11986 0.13157 0.142665 0.153146 0.163011 0.171963 0.179704 0.186233 0.191552 0.19566 0.198557 0.200243 0.200717 0.199996 0.198096 0.195015 0.190755 0.185315 0.178695 0.170895 0.161916 0.152074 0.141689 0.130759 0.119284 0.107266 0.0947035 0.0815968 0.0679458 0.0546818 0.0427362 0.0321088 0.0227997 0.0148089 0.0081364 0.00278219 -0.00125375 -0.00430416 -0.00670184 -0.00844679 -0.00953899 -0.00997846 -0.0097652 -0.00889919 -0.00738045 -0.00565065 -0.0041515 -0.00288299 -0.00184511 -0.00103788 -0.000461278 -0.000115319 0 0 -3.77875e-05 -0.00015115 -0.000340088 -0.000604601 -0.000944688 -0.00136035 -0.00185159 -0.0024184 -0.00303779 -0.00368674 -0.00436527 -0.00507336 -0.00581103 -0.00657826 -0.00737506 -0.00820144 -0.00900525 -0.00973438 -0.0103888 -0.0109686 -0.0114737 -0.0119041 -0.0122598 -0.0125408 -0.0128187 -0.0131651 -0.0135798 -0.014063 -0.0146147 -0.0152347 -0.0159233 -0.0166802 -0.017397 -0.017965 -0.0183842 -0.0186546 -0.0187763 -0.0187491 -0.0185732 -0.0182486 -0.0178546 -0.0174707 -0.017097 -0.0167334 -0.0163799 -0.0160366 -0.0157034 -0.0153804 -0.0152021 -0.0153033 -0.015684 -0.0163441 -0.0172837 -0.0185027 -0.0200011 -0.021779 -0.0232231 -0.02372 -0.0232698 -0.0218724 -0.0195278 -0.0162361 -0.0119973 -0.00681129 -0.000365214 0.0076539 0.017246 0.0284112 0.0411494 0.0554606 0.0713449 0.0888022 0.106647 0.123694 0.139944 0.155396 0.17005 0.183907 0.196965 0.209227 0.220337 0.229945 0.238049 0.244649 0.249747 0.253341 0.255432 0.256019 0.255126 0.252777 0.24897 0.243706 0.236985 0.228807 0.219171 0.208079 0.1959 0.183004 0.169391 0.155062 0.140016 0.124253 0.107774 0.0905773 0.0738328 0.0587086 0.0452046 0.0333208 0.0230573 0.0144141 0.00739111 0.00198836 -0.00218923 -0.00553677 -0.00805427 -0.00974172 -0.0105991 -0.0106265 -0.00982379 -0.00819105 -0.00627127 -0.00460747 -0.00319963 -0.00204776 -0.00115187 -0.000511941 -0.000127985 0 0 -4.66491e-05 -0.000186597 -0.000419