<?xml version="1.0"?> 
<VTKFile type="StructuredGrid" version="0.1"> 
<StructuredGrid WholeExtent="0 128 0 128 0 0"> 
<Piece Extent="0 128 0 128 0 0"> 
<PointData>
<DataArray type="Float32" Name="u" format="ascii" NumberOfComponents="1"> 
0 0 0 0 0 0 0 0 0 0 0 0 0 0 0 0 0 0 0 0 0 0 0 0 0 0 0 0 0 0 0 0 0 0 0 0 0 0 0 0 0 0 0 0 0 0 0 0 0 0 0 0 0 0 0 0 0 0 0 0 0 0 0 0 0 0 0 0 0 0 0 0 0 0 0 0 0 0 0 0 0 0 0 0 0 0 0 0 0 0 0 0 0 0 0 0 0 0 0 0 0 0 0 0 0 0 0 0 0 0 0 0 0 0 0 0 0 0 0 0 0 0 0 0 0 0 0 0 0 0 5.51634e-08 2.20654e-07 4.9647e-07 8.82614e-07 1.37908e-06 1.98588e-06 2.70301e-06 3.53046e-06 4.19863e-06 4.43794e-06 4.24838e-06 3.62995e-06 2.58264e-06 1.10647e-06 -7.98577e-07 -3.13249e-06 -5.90892e-06 -9.1415e-06 -1.28302e-05 -1.69751e-05 -2.15761e-05 -2.66333e-05 -3.21466e-05 -3.81161e-05 -4.42481e-05 -5.02492e-05 -5.61193e-05 -6.18583e-05 -6.74664e-05 -7.29435e-05 -7.82896e-05 -8.35047e-05 -8.82926e-05 -9.23571e-05 -9.56981e-05 -9.83157e-05 -0.00010021 -0.000101381 -0.000101828 -0.000101552 -0.000100609 -9.90571e-05 -9.68955e-05 -9.41244e-05 -9.07437e-05 -8.67536e-05 -8.21539e-05 -7.69447e-05 -7.1713e-05 -6.70459e-05 -6.29434e-05 -5.94054e-05 -5.6432e-05 -5.40232e-05 -5.2179e-05 -5.08994e-05 -5.04608e-05 -5.114e-05 -5.29369e-05 -5.58515e-05 -5.98837e-05 -6.50337e-05 -7.13014e-05 -7.86867e-05 -8.70992e-05 -9.64481e-05 -0.000106734 -0.000117955 -0.000130114 -0.000143209 -0.00015724 -0.000172208 -0.000187762 -0.000203551 -0.000219576 -0.000235837 -0.000252332 -0.000269064 -0.000286031 -0.000303233 -0.000319463 -0.000333511 -0.000345378 -0.000355064 -0.000362569 -0.000367892 -0.000371034 -0.000371994 -0.000370837 -0.000367625 -0.000362358 -0.000355037 -0.000345662 -0.000334231 -0.000320746 -0.000305207 -0.000288761 -0.000272558 -0.000256596 -0.000240877 -0.0002254 -0.000210166 -0.000195173 -0.000180423 -0.000166038 -0.000152138 -0.000138726 -0.0001258 -0.000113361 -0.000101408 -8.99426e-05 -7.89633e-05 -6.8617e-05 -5.90498e-05 -5.02618e-05 -4.2253e-05 -3.50234e-05 -2.8573e-05 -2.29018e-05 -1.80098e-05 -1.37887e-05 -1.01305e-05 -7.03506e-06 -4.50244e-06 -2.53262e-06 -1.12561e-06 -2.81402e-07 0 0 2.20654e-07 8.82614e-07 1.98588e-06 3.53046e-06 5.51634e-06 7.94353e-06 1.0812e-05 1.41218e-05 1.67945e-05 1.77518e-05 1.69935e-05 1.45198e-05 1.03306e-05 4.42587e-06 -3.19431e-06 -1.253e-05 -2.36357e-05 -3.6566e-05 -5.13209e-05 -6.79004e-05 -8.63045e-05 -0.000106533 -0.000128586 -0.000152464 -0.000176993 -0.000200997 -0.000224477 -0.000247433 -0.000269866 -0.000291774 -0.000313158 -0.000334019 -0.00035317 -0.000369428 -0.000382792 -0.000393263 -0.000400839 -0.000405522 -0.000407312 -0.000406207 -0.000402437 -0.000396229 -0.000387582 -0.000376498 -0.000362975 -0.000347014 -0.000328615 -0.000307779 -0.000286852 -0.000268184 -0.000251773 -0.000237622 -0.000225728 -0.000216093 -0.000208716 -0.000203597 -0.000201843 -0.00020456 -0.000211748 -0.000223406 -0.000239535 -0.000260135 -0.000285205 -0.000314747 -0.000348397 -0.000385792 -0.000426934 -0.000471822 -0.000520455 -0.000572835 -0.00062896 -0.000688832 -0.000751047 -0.000814205 -0.000878305 -0.000943346 -0.00100933 -0.00107626 -0.00114412 -0.00121293 -0.00127785 -0.00133405 -0.00138151 -0.00142026 -0.00145027 -0.00147157 -0.00148413 -0.00148798 -0.00148335 -0.0014705 -0.00144943 -0.00142015 -0.00138265 -0.00133693 -0.00128299 -0.00122083 -0.00115504 -0.00109023 -0.00102639 -0.000963509 -0.000901602 -0.000840663 -0.000780694 -0.000721693 -0.00066415 -0.000608554 -0.000554904 -0.000503201 -0.000453444 -0.000405634 -0.00035977 -0.000315853 -0.000274468 -0.000236199 -0.000201047 -0.000169012 -0.000140094 -0.000114292 -9.16072e-05 -7.2039e-05 -5.51549e-05 -4.0522e-05 -2.81402e-05 -1.80098e-05 -1.01305e-05 -4.50244e-06 -1.12561e-06 0 0 4.9647e-07 1.98588e-06 4.46823e-06 7.94353e-06 1.24118e-05 1.78729e-05 2.4327e-05 3.17741e-05 3.77877e-05 3.99415e-05 3.82354e-05 3.26695e-05 2.32438e-05 9.95821e-06 -7.18719e-06 -2.81924e-05 -5.31803e-05 -8.22735e-05 -0.000115472 -0.000152776 -0.000194185 -0.0002397 -0.00028932 -0.000343045 -0.000398233 -0.000452243 -0.000505073 -0.000556725 -0.000607198 -0.000656492 -0.000704606 -0.000751542 -0.000794633 -0.000831213 -0.000861283 -0.000884841 -0.000901889 -0.000912425 -0.000916451 -0.000913966 -0.000905483 -0.000891514 -0.00087206 -0.000847119 -0.000816694 -0.000780782 -0.000739385 -0.000692502 -0.000645417 -0.000603413 -0.00056649 -0.000534649 -0.000507888 -0.000486209 -0.000469611 -0.000458094 -0.000454148 -0.00046026 -0.000476432 -0.000502663 -0.000538954 -0.000585303 -0.000641712 -0.00070818 -0.000783892 -0.000868033 -0.000960602 -0.0010616 -0.00117102 -0.00128888 -0.00141516 -0.00154987 -0.00168986 -0.00183196 -0.00197619 -0.00212253 -0.00227099 -0.00242158 -0.00257428 -0.0027291 -0.00287517 -0.0030016 -0.0031084 -0.00319558 -0.00326312 -0.00331103 -0.0033393 -0.00334795 -0.00333753 -0.00330863 -0.00326123 -0.00319534 -0.00311095 -0.00300808 -0.00288672 -0.00274686 -0.00259885 -0.00245302 -0.00230937 -0.0021679 -0.0020286 -0.00189149 -0.00175656 -0.00162381 -0.00149434 -0.00136925 -0.00124853 -0.0011322 -0.00102025 -0.000912676 -0.000809483 -0.00071067 -0.000617553 -0.000531448 -0.000452356 -0.000380277 -0.000315211 -0.000257157 -0.000206116 -0.000162088 -0.000124098 -9.11744e-05 -6.33156e-05 -4.0522e-05 -2.27936e-05 -1.01305e-05 -2.53262e-06 0 0 8.82614e-07 3.53046e-06 7.94353e-06 1.41218e-05 2.20654e-05 3.17741e-05 4.32481e-05 5.64873e-05 6.71782e-05 7.10071e-05 6.79741e-05 5.80792e-05 4.13223e-05 1.77035e-05 -1.27772e-05 -5.01199e-05 -9.45427e-05 -0.000146264 -0.000205284 -0.000271602 -0.000345218 -0.000426133 -0.000514346 -0.000609857 -0.00070797 -0.000803987 -0.000897908 -0.000989733 -0.00107946 -0.0011671 -0.00125263 -0.00133608 -0.00141268 -0.00147771 -0.00153117 -0.00157305 -0.00160336 -0.00162209 -0.00162925 -0.00162483 -0.00160975 -0.00158491 -0.00155033 -0.00150599 -0.0014519 -0.00138806 -0.00131446 -0.00123111 -0.00114741 -0.00107273 -0.00100709 -0.000950487 -0.000902913 -0.000864372 -0.000834864 -0.00081439 -0.000807373 -0.00081824 -0.00084699 -0.000893623 -0.00095814 -0.00104054 -0.00114082 -0.00125899 -0.00139359 -0.00154317 -0.00170774 -0.00188729 -0.00208182 -0.00229134 -0.00251584 -0.00275533 -0.00300419 -0.00325682 -0.00351322 -0.00377338 -0.00403732 -0.00430502 -0.00457649 -0.00485173 -0.00511141 -0.00533618 -0.00552605 -0.00568103 -0.0058011 -0.00588627 -0.00593654 -0.00595191 -0.00593339 -0.005882 -0.00579774 -0.0056806 -0.00553059 -0.0053477 -0.00513194 -0.00488331 -0.00462018 -0.00436092 -0.00410554 -0.00385404 -0.00360641 -0.00336265 -0.00312278 -0.00288677 -0.0026566 -0.00243422 -0.00221962 -0.0020128 -0.00181378 -0.00162254 -0.00143908 -0.00126341 -0.00109787 -0.000944797 -0.000804189 -0.000676048 -0.000560375 -0.000457168 -0.000366429 -0.000288156 -0.00022062 -0.000162088 -0.000112561 -7.2039e-05 -4.0522e-05 -1.80098e-05 -4.50244e-06 0 0 1.37908e-06 5.51634e-06 1.24118e-05 2.20654e-05 3.44771e-05 4.9647e-05 6.75751e-05 8.82614e-05 0.000104966 0.000110949 0.00010621 9.07487e-05 6.45661e-05 2.76617e-05 -1.99644e-05 -7.83123e-05 -0.000147723 -0.000228537 -0.000320756 -0.000424377 -0.000539403 -0.000665832 -0.000803665 -0.000952902 -0.0011062 -0.00125623 -0.00140298 -0.00154646 -0.00168666 -0.00182359 -0.00195724 -0.00208762 -0.00220731 -0.00230893 -0.00239245 -0.00245789 -0.00250525 -0.00253452 -0.0025457 -0.0025388 -0.00251523 -0.00247643 -0.00242239 -0.00235311 -0.00226859 -0.00216884 -0.00205385 -0.00192362 -0.00179282 -0.00167615 -0.00157358 -0.00148514 -0.0014108 -0.00135058 -0.00130448 -0.00127248 -0.00126152 -0.0012785 -0.00132342 -0.00139629 -0.00149709 -0.00162584 -0.00178253 -0.00196717 -0.00217748 -0.0024112 -0.00266834 -0.00294889 -0.00325285 -0.00358022 -0.003931 -0.0043052 -0.00469405 -0.00508878 -0.0054894 -0.00589591 -0.00630831 -0.0067266 -0.00715077 -0.00758083 -0.00798657 -0.00833778 -0.00863446 -0.0088766 -0.00906421 -0.00919729 -0.00927584 -0.00929986 -0.00927092 -0.00919063 -0.00905896 -0.00887593 -0.00864154 -0.00835578 -0.00801866 -0.00763017 -0.00721903 -0.00681394 -0.00641491 -0.00602193 -0.00563501 -0.00525415 -0.00487934 -0.00451058 -0.00415094 -0.00380346 -0.00346815 -0.00314501 -0.00283403 -0.00253521 -0.00224856 -0.00197408 -0.00171542 -0.00147624 -0.00125655 -0.00105633 -0.000875586 -0.000714325 -0.000572545 -0.000450244 -0.000344718 -0.000253262 -0.000175877 -0.000112561 -6.33156e-05 -2.81402e-05 -7.03506e-06 0 0 1.98588e-06 7.94353e-06 1.78729e-05 3.17741e-05 4.9647e-05 7.14917e-05 9.73082e-05 0.000127096 0.000151151 0.000159766 0.000152942 0.000130678 9.29751e-05 3.98329e-05 -2.87488e-05 -0.00011277 -0.000212721 -0.000329094 -0.000461888 -0.000611103 -0.00077674 -0.000958799 -0.00115728 -0.00137218 -0.00159293 -0.00180897 -0.00202029 -0.0022269 -0.00242879 -0.00262597 -0.00281843 -0.00300617 -0.00317853 -0.00332485 -0.00344513 -0.00353936 -0.00360756 -0.0036497 -0.00366581 -0.00365587 -0.00362193 -0.00356606 -0.00348824 -0.00338848 -0.00326677 -0.00312313 -0.00295754 -0.00277001 -0.00258167 -0.00241365 -0.00226596 -0.0021386 -0.00203155 -0.00194484 -0.00187844 -0.00183238 -0.00181659 -0.00184104 -0.00190573 -0.00201065 -0.00215581 -0.00234121 -0.00256685 -0.00283272 -0.00313557 -0.00347213 -0.00384241 -0.0042464 -0.0046841 -0.00515551 -0.00566064 -0.00619949 -0.00675943 -0.00732784 -0.00790474 -0.00849012 -0.00908397 -0.0096863 -0.0102971 -0.0109164 -0.0115007 -0.0120064 -0.0124336 -0.0127823 -0.0130525 -0.0132441 -0.0133572 -0.0133918 -0.0133501 -0.0132345 -0.0130449 -0.0127813 -0.0124438 -0.0120323 -0.0115469 -0.0109874 -0.0103954 -0.00981207 -0.00923747 -0.00867158 -0.00811442 -0.00756597 -0.00702624 -0.00649524 -0.00597735 -0.00547699 -0.00499414 -0.00452881 -0.004081 -0.00365071 -0.00323793 -0.00284268 -0.00247021 -0.00212579 -0.00180943 -0.00152111 -0.00126084 -0.00102863 -0.000824464 -0.000648351 -0.000496394 -0.000364698 -0.000253262 -0.000162088 -9.11744e-05 -4.0522e-05 -1.01305e-05 0 0 2.70301e-06 1.0812e-05 2.4327e-05 4.32481e-05 6.75751e-05 9.73082e-05 0.000132447 0.000172992 0.000205733 0.000217459 0.000208171 0.000177867 0.00012655 5.42169e-05 -3.91303e-05 -0.000153492 -0.000289537 -0.000447933 -0.000628681 -0.00083178 -0.00105723 -0.00130503 -0.00157518 -0.00186769 -0.00216816 -0.00246221 -0.00274984 -0.00303106 -0.00330585 -0.00357423 -0.00383619 -0.00409173 -0.00432634 -0.0045255 -0.00468921 -0.00481747 -0.00491028 -0.00496765 -0.00498957 -0.00497604 -0.00492985 -0.0048538 -0.00474788 -0.00461209 -0.00444644 -0.00425092 -0.00402554 -0.00377029 -0.00351394 -0.00328525 -0.00308423 -0.00291087 -0.00276517 -0.00264714 -0.00255677 -0.00249407 -0.00247258 -0.00250586 -0.00259391 -0.00273672 -0.0029343 -0.00318665 -0.00349377 -0.00385565 -0.00426786 -0.00472596 -0.00522994 -0.00577982 -0.00637558 -0.00701723 -0.00770477 -0.00843819 -0.00920033 -0.00997401 -0.0107592 -0.011556 -0.0123643 -0.0131841 -0.0140155 -0.0148584 -0.0156537 -0.0163421 -0.0169235 -0.0173981 -0.0177659 -0.0180267 -0.0181806 -0.0182277 -0.018171 -0.0180136 -0.0177556 -0.0173968 -0.0169374 -0.0163773 -0.0157166 -0.0149551 -0.0141493 -0.0133553 -0.0125732 -0.011803 -0.0110446 -0.0102981 -0.0095635 -0.00884074 -0.00813584 -0.00745479 -0.00679757 -0.00616421 -0.00555469 -0.00496902 -0.00440719 -0.0038692 -0.00336223 -0.00289344 -0.00246283 -0.0020704 -0.00171615 -0.00140008 -0.00112219 -0.000882478 -0.000675647 -0.000496394 -0.000344718 -0.00022062 -0.000124098 -5.51549e-05 -1.37887e-05 0 0 3.53046e-06 1.41218e-05 3.17741e-05 5.64873e-05 8.82614e-05 0.000127096 0.000172992 0.000225949 0.000268713 0.000284028 0.000271896 0.000232317 0.000165289 7.0814e-05 -5.11089e-05 -0.00020048 -0.000378171 -0.000585056 -0.000821134 -0.00108641 -0.00138087 -0.00170453 -0.00205738 -0.00243943 -0.00283188 -0.00321595 -0.00359163 -0.00395893 -0.00431785 -0.00466838 -0.00501053 -0.0053443 -0.00565073 -0.00591085 -0.00612468 -0.0062922 -0.00641343 -0.00648836 -0.00651699 -0.00649932 -0.00643899 -0.00633966 -0.00620131 -0.00602396 -0.0058076 -0.00555223 -0.00525785 -0.00492446 -0.00458963 -0.00429094 -0.00402838 -0.00380195 -0.00361165 -0.00345749 -0.00333946 -0.00325756 -0.00322949 -0.00327296 -0.00338796 -0.00357449 -0.00383256 -0.00416216 -0.00456329 -0.00503595 -0.00557435 -0.00617268 -0.00683095 -0.00754915 -0.00832729 -0.00916536 -0.0100634 -0.0110213 -0.0120168 -0.0130273 -0.0140529 -0.0150935 -0.0161493 -0.0172201 -0.018306 -0.0194069 -0.0204456 -0.0213447 -0.0221042 -0.0227241 -0.0232044 -0.0235451 -0.0237462 -0.0238076 -0.0237336 -0.023528 -0.0231909 -0.0227224 -0.0221223 -0.0213908 -0.0205278 -0.0195332 -0.0184807 -0.0174437 -0.0164222 -0.0154161 -0.0144256 -0.0134506 -0.0124911 -0.0115471 -0.0106264 -0.00973686 -0.00887847 -0.00805121 -0.00725511 -0.00649014 -0.00575632 -0.00505365 -0.00439149 -0.00377919 -0.00321676 -0.00270419 -0.0022415 -0.00182867 -0.00146571 -0.00115262 -0.000882478 -0.000648351 -0.000450244 -0.000288156 -0.000162088 -7.2039e-05 -1.80098e-05 0 0 4.04198e-06 1.61679e-05 3.63778e-05 6.46717e-05 0.000101049 0.000145511 0.000198057 0.000258687 0.000306127 0.000319103 0.000297616 0.000241666 0.000151252 2.63744e-05 -0.000132966 -0.000326771 -0.000556001 -0.000821619 -0.00112363 -0.00146202 -0.0018368 -0.00224797 -0.00269553 -0.00317948 -0.00367658 -0.0041636 -0.00464055 -0.00510742 -0.00556421 -0.00601093 -0.00644756 -0.00687412 -0.00726601 -0.00759865 -0.00787202 -0.00808615 -0.00824101 -0.00833662 -0.00837297 -0.00835006 -0.00827288 -0.0081464 -0.00797064 -0.00774557 -0.00747122 -0.00714757 -0.00677463 -0.00635239 -0.00592841 -0.00555023 -0.00521785 -0.00493127 -0.00469049 -0.00449551 -0.00434633 -0.00424295 -0.00420383 -0.00424745 -0.0043738 -0.00458288 -0.00487469 -0.00524923 -0.00570651 -0.00624651 -0.00685982 -0.00753698 -0.00827801 -0.00908289 -0.00995164 -0.0108842 -0.0118807 -0.012941 -0.0140441 -0.0151689 -0.0163153 -0.0174834 -0.0186732 -0.0198847 -0.0211178 -0.0223725 -0.0235585 -0.0245851 -0.0254524 -0.0261605 -0.0267092 -0.0270985 -0.0273286 -0.0273994 -0.0273156 -0.0270822 -0.026699 -0.0261662 -0.0254836 -0.0246514 -0.0236695 -0.0225378 -0.0213421 -0.0201679 -0.0190153 -0.0178842 -0.0167746 -0.0156866 -0.0146201 -0.0135751 -0.0125547 -0.0115619 -0.0105966 -0.00965899 -0.00874893 -0.00786646 -0.00701157 -0.00618427 -0.00539871 -0.00466906 -0.00399531 -0.00337747 -0.00281553 -0.00230949 -0.00185935 -0.00146512 -0.00112173 -0.00082413 -0.000572313 -0.00036628 -0.000206033 -9.157e-05 -2.28925e-05 0 0 3.81132e-06 1.52453e-05 3.43019e-05 6.09811e-05 9.5283e-05 0.000137208 0.000186755 0.000243925 0.000284012 0.000282313 0.000238827 0.000153555 2.6495e-05 -0.000142351 -0.000352985 -0.000605405 -0.000900406 -0.00123878 -0.00162053 -0.00204566 -0.00251416 -0.00302603 -0.00358128 -0.00417991 -0.00479473 -0.00539859 -0.00599149 -0.00657341 -0.00714437 -0.00770436 -0.00825338 -0.00879143 -0.00928651 -0.00970661 -0.0100517 -0.0103219 -0.010517 -0.0106372 -0.0106824 -0.0106526 -0.010555 -0.0103968 -0.0101779 -0.00989843 -0.00955828 -0.00915748 -0.00869604 -0.00817397 -0.00764993 -0.00718264 -0.00677208 -0.00641826 -0.00612117 -0.00588082 -0.00569721 -0.00557033 -0.0055121 -0.00553444 -0.00563733 -0.00582079 -0.00608481 -0.00642939 -0.00685453 -0.00736024 -0.00792906 -0.00854355 -0.00920371 -0.00990955 -0.0106611 -0.0114582 -0.0123011 -0.0131896 -0.0141179 -0.0150802 -0.0160763 -0.0171064 -0.0181704 -0.0192683 -0.0204001 -0.0215659 -0.0226742 -0.023634 -0.0244451 -0.0251075 -0.0256213 -0.0259864 -0.0262029 -0.0262708 -0.026195 -0.0259807 -0.0256278 -0.0251364 -0.0245064 -0.0237378 -0.0228307 -0.021785 -0.020686 -0.0196188 -0.0185836 -0.0175802 -0.0166087 -0.0156691 -0.0147614 -0.0138856 -0.0130263 -0.0121685 -0.0113119 -0.0104567 -0.00960285 -0.00875033 -0.00789914 -0.0070493 -0.00622466 -0.0054491 -0.00472261 -0.0040452 -0.00341686 -0.0028376 -0.00230741 -0.0018263 -0.00139826 -0.00102729 -0.000713397 -0.000456574 -0.000256823 -0.000114144 -2.85359e-05 0 0 2.83848e-06 1.13539e-05 2.55463e-05 4.54157e-05 7.0962e-05 0.000102185 0.000139086 0.000181663 0.00020237 0.000173659 9.55298e-05 -3.20168e-05 -0.000208981 -0.000435363 -0.000711164 -0.00103638 -0.00141138 -0.00183654 -0.00231185 -0.00283732 -0.00341294 -0.00403871 -0.00471463 -0.00544071 -0.00618634 -0.00692092 -0.00764444 -0.00835691 -0.00905832 -0.00974867 -0.010428 -0.0110962 -0.0117122 -0.0122347 -0.0126638 -0.0129994 -0.0132415 -0.0133901 -0.0134453 -0.013407 -0.0132855 -0.0130909 -0.0128232 -0.0124825 -0.0120688 -0.011582 -0.0110221 -0.0103892 -0.0097542 -0.00918816 -0.00869107 -0.00826291 -0.0079037 -0.00761343 -0.0073921 -0.00723971 -0.0071543 -0.00713392 -0.00717856 -0.00728822 -0.00746291 -0.00770262 -0.00800736 -0.00837711 -0.00878206 -0.00919238 -0.00960807 -0.0100291 -0.0104555 -0.0108873 -0.0113245 -0.011767 -0.0122381 -0.012761 -0.0133358 -0.0139624 -0.0146408 -0.015371 -0.016153 -0.0169869 -0.0177929 -0.0184913 -0.019082 -0.0195652 -0.0199408 -0.0202087 -0.0203691 -0.0204218 -0.0203717 -0.0202236 -0.0199773 -0.019633 -0.0191905 -0.01865 -0.0180114 -0.0172747 -0.0165123 -0.0157964 -0.015127 -0.0145042 -0.013928 -0.0133983 -0.0129151 -0.0124785 -0.0120414 -0.0115566 -0.0110243 -0.0104444 -0.00981688 -0.00914176 -0.00841905 -0.00764874 -0.00686932 -0.00611929 -0.00539864 -0.00470738 -0.00404549 -0.003413 -0.00280988 -0.00223615 -0.00171205 -0.00125784 -0.000873497 -0.000559038 -0.000314459 -0.00013976 -3.49399e-05 0 0 1.12346e-06 4.49384e-06 1.01111e-05 1.79754e-05 2.80865e-05 4.04446e-05 5.50496e-05 7.19015e-05 6.11987e-05 -6.86059e-06 -0.000132276 -0.000315048 -0.000555177 -0.000852662 -0.0012075 -0.0016197 -0.00208894 -0.0026149 -0.00319759 -0.003837 -0.00453314 -0.005286 -0.00609559 -0.0069619 -0.00785141 -0.00873058 -0.00959941 -0.0104579 -0.0113061 -0.0121439 -0.0129714 -0.0137885 -0.0145431 -0.015183 -0.0157082 -0.0161187 -0.0164144 -0.0165954 -0.0166617 -0.0166133 -0.0164642 -0.0162286 -0.0159065 -0.0154979 -0.0150027 -0.014421 -0.0137528 -0.012998 -0.0122412 -0.0115668 -0.0109748 -0.0104652 -0.0100381 -0.00969333 -0.009431 -0.00925109 -0.00913044 -0.0090459 -0.00899748 -0.00898518 -0.009009 -0.00906893 -0.00916498 -0.00929715 -0.00941884 -0.00948348 -0.00949107 -0.0094416 -0.00933508 -0.0091715 -0.00895087 -0.00867318 -0.00840465 -0.00821151 -0.00809375 -0.00805137 -0.00808437 -0.00819275 -0.00837652 -0.00863566 -0.00891441 -0.00915697 -0.00936336 -0.00953356 -0.00966758 -0.00976542 -0.00982708 -0.00985256 -0.00984581 -0.00981079 -0.0097475 -0.00965595 -0.00953613 -0.00938804 -0.00921168 -0.00900705 -0.00882105 -0.00870058 -0.00864564 -0.00865623 -0.00873235 -0.008874 -0.00908119 -0.0093539 -0.00959976 -0.0097264 -0.00973382 -0.00962202 -0.009391 -0.00904075 -0.00857128 -0.00798259 -0.0073327 -0.00667964 -0.00602341 -0.00536401 -0.00470143 -0.00403569 -0.00336677 -0.00269469 -0.00206312 -0.00151576 -0.00105261 -0.000673672 -0.000378941 -0.000168418 -4.21045e-05 0 0 -1.33374e-06 -5.33497e-06 -1.20037e-05 -2.13399e-05 -3.33435e-05 -4.80147e-05 -6.53533e-05 -8.53595e-05 -0.000139501 -0.000259244 -0.000444591 -0.00069554 -0.00101209 -0.00139425 -0.001842 -0.00235536 -0.00293307 -0.00357386 -0.00427774 -0.00504471 -0.00587477 -0.00676792 -0.00772415 -0.00874347 -0.00978993 -0.0108276 -0.0118564 -0.0128764 -0.0138876 -0.01489 -0.0158835 -0.0168683 -0.0177793 -0.0185515 -0.019185 -0.0196797 -0.0200357 -0.020253 -0.0203315 -0.0202713 -0.0200912 -0.0198101 -0.0194278 -0.0189445 -0.0183601 -0.0176746 -0.0168881 -0.0160005 -0.015111 -0.0143186 -0.0136233 -0.0130252 -0.0125243 -0.0121205 -0.0118139 -0.0116045 -0.0114405 -0.0112704 -0.0110941 -0.0109117 -0.0107231 -0.0105283 -0.0103274 -0.0101203 -0.00983939 -0.00941685 -0.00885272 -0.008147 -0.00729968 -0.00631078 -0.00518028 -0.00390819 -0.00261761 -0.00143162 -0.000350221 0.000626582 0.00149879 0.0022664 0.00292942 0.00348784 0.00396116 0.00436886 0.00471094 0.0049874 0.00519824 0.00534347 0.00542307 0.00543706 0.0053828 0.00525764 0.0050616 0.00479467 0.00445685 0.00404815 0.00356855 0.00301807 0.00238773 0.00166857 0.00086058 -3.62359e-05 -0.00102188 -0.00209635 -0.00325964 -0.00451176 -0.00570152 -0.00667775 -0.00744044 -0.0079896 -0.00832521 -0.0084473 -0.00835584 -0.00805085 -0.00761479 -0.00713015 -0.00659692 -0.00601509 -0.00538468 -0.00470568 -0.00397809 -0.0032019 -0.00245146 -0.00180107 -0.00125074 -0.000800476 -0.000450268 -0.000200119 -5.00298e-05 0 0 -4.53313e-06 -1.81325e-05 -4.07981e-05 -7.253e-05 -0.000113328 -0.000163193 -0.000222123 -0.00029012 -0.000399728 -0.000583493 -0.000841414 -0.00117349 -0.00157973 -0.00206012 -0.00261466 -0.00324337 -0.00394377 -0.00471342 -0.00555231 -0.00646044 -0.00743782 -0.00848445 -0.00960031 -0.0107854 -0.0120019 -0.0132119 -0.0144154 -0.0156124 -0.0168029 -0.017987 -0.0191645 -0.0203356 -0.0214206 -0.0223401 -0.0230941 -0.0236826 -0.0241055 -0.024363 -0.0244549 -0.0243812 -0.0241665 -0.0238351 -0.0233871 -0.0228223 -0.0221409 -0.0213428 -0.0204281 -0.0193966 -0.0183635 -0.0174434 -0.0166366 -0.0159429 -0.0153624 -0.014895 -0.0145408 -0.0142998 -0.0140845 -0.0138074 -0.0134684 -0.0130677 -0.0126051 -0.0120808 -0.0114946 -0.0108467 -0.0100437 -0.00899248 -0.00769301 -0.0061453 -0.00434935 -0.00230516 -1.27147e-05 0.00252797 0.00512304 0.00757866 0.00989481 0.0120715 0.0141087 0.0160065 0.0177648 0.0193836 0.0208338 0.0220863 0.0231409 0.0239977 0.0246567 0.0251179 0.0253814 0.025447 0.0253141 0.0249817 0.02445 0.0237189 0.0227884 0.0216585 0.0203293 0.0188006 0.0171141 0.0153111 0.0133916 0.0113558 0.00920346 0.00693472 0.00454953 0.00204791 -0.000346655 -0.00241068 -0.00414417 -0.00554712 -0.00661953 -0.0073614 -0.00777273 -0.00785352 -0.0077156 -0.00747082 -0.00711916 -0.00666063 -0.00609523 -0.00542296 -0.00464381 -0.0037578 -0.00287707 -0.00211376 -0.00146789 -0.00093945 -0.000528441 -0.000234862 -5.87156e-05 0 0 -8.47469e-06 -3.38988e-05 -7.62722e-05 -0.000135595 -0.000211867 -0.000305089 -0.00041526 -0.00054238 -0.000719484 -0.000979606 -0.00132275 -0.0017489 -0.00225808 -0.00285027 -0.00352549 -0.00428371 -0.00512105 -0.00603358 -0.00702129 -0.0080842 -0.0092223 -0.0104356 -0.0117241 -0.0130878 -0.0144873 -0.0158836 -0.0172764 -0.0186659 -0.0200521 -0.0214348 -0.0228143 -0.0241903 -0.0254671 -0.0265489 -0.0274356 -0.0281272 -0.0286238 -0.0289252 -0.0290316 -0.028943 -0.0286901 -0.0283039 -0.0277843 -0.0271314 -0.0263452 -0.0254256 -0.0243727 -0.0231864 -0.0219987 -0.0209414 -0.0200146 -0.0192182 -0.0185523 -0.0180168 -0.0176118 -0.0173372 -0.0170624 -0.0166568 -0.0161204 -0.0154532 -0.0146552 -0.0137263 -0.0126667 -0.0114762 -0.0100318 -0.00821038 -0.00601196 -0.00343653 -0.000484084 0.00284537 0.00655184 0.0106353 0.0148173 0.0188193 0.0226413 0.0262834 0.0297454 0.0330275 0.0361296 0.0390517 0.0417036 0.0439952 0.0459264 0.0474973 0.0487078 0.049558 0.0500478 0.0501773 0.049948 0.0493615 0.0484177 0.0471167 0.0454585 0.0434431 0.0410705 0.0383406 0.0353579 0.0322269 0.0289475 0.0255198 0.0219437 0.0182192 0.0143463 0.0103251 0.00646485 0.0030748 0.000154985 -0.0022946 -0.00427395 -0.00578306 -0.00682195 -0.0073906 -0.00763513 -0.00770164 -0.00759014 -0.00730062 -0.00683308 -0.00618753 -0.00536396 -0.00436238 -0.00333994 -0.00245384 -0.00170405 -0.00109059 -0.000613459 -0.000272648 -6.81621e-05 0 0 -1.31584e-05 -5.26338e-05 -0.000118426 -0.000210535 -0.000328961 -0.000473704 -0.000644763 -0.00084214 -0.00109877 -0.00144758 -0.00188859 -0.00242178 -0.00304715 -0.00376472 -0.00457447 -0.00547641 -0.0064649 -0.00753433 -0.00868469 -0.00991598 -0.0112282 -0.0126214 -0.0140954 -0.0156505 -0.0172462 -0.0188426 -0.0204395 -0.022037 -0.023635 -0.0252336 -0.0268328 -0.0284326 -0.0299189 -0.0311779 -0.0322094 -0.0330136 -0.0335904 -0.0339398 -0.0340619 -0.0339565 -0.033662 -0.0332163 -0.0326196 -0.0318718 -0.0309729 -0.0299229 -0.0287219 -0.0273698 -0.0260167 -0.0248125 -0.0237574 -0.0228512 -0.0220941 -0.0214859 -0.0210267 -0.0207165 -0.0203743 -0.0198188 -0.0190501 -0.0180683 -0.0168732 -0.0154649 -0.0138435 -0.0120088 -0.00980363 -0.00707054 -0.00380955 -2.06606e-05 0.00429612 0.0091408 0.0145134 0.0204138 0.0264652 0.0322904 0.0378894 0.0432622 0.0484089 0.0533294 0.0580238 0.062492 0.0665705 0.0700957 0.0730676 0.0754863 0.0773516 0.0786637 0.0794225 0.0796279 0.0792846 0.0783968 0.0769647 0.0749882 0.0724672 0.0694019 0.0657921 0.061638 0.0571194 0.0524161 0.0475283 0.0424558 0.0371987 0.031757 0.0261308 0.0203199 0.014733 0.0097787 0.00545703 0.00176798 -0.00128846 -0.00371228 -0.0055035 -0.00666209 -0.00737337 -0.00782263 -0.00800986 -0.00793506 -0.00759824 -0.0069994 -0.00613853 -0.00501563 -0.00384009 -0.00282129 -0.00195923 -0.00125391 -0.000705323 -0.000313477 -7.83692e-05 0 0 -1.85812e-05 -7.43248e-05 -0.000167231 -0.000297299 -0.00046453 -0.000668923 -0.000910479 -0.0011892 -0.00153395 -0.0019736 -0.00250816 -0.00313762 -0.00386198 -0.00468125 -0.00559542 -0.00660449 -0.00769858 -0.00886781 -0.0101122 -0.0114317 -0.0128263 -0.0142961 -0.015841 -0.0174611 -0.0191222 -0.0207903 -0.0224654 -0.0241475 -0.0258366 -0.0275326 -0.0292357 -0.0309458 -0.0325362 -0.0338804 -0.0349783 -0.03583 -0.0364354 -0.0367946 -0.0369076 -0.0367743 -0.0364415 -0.0359561 -0.0353181 -0.0345275 -0.0335842 -0.0324883 -0.0312397 -0.0298386 -0.0284457 -0.0272221 -0.0261677 -0.0252825 -0.0245666 -0.0240199 -0.0236424 -0.0234342 -0.0231481 -0.0225371 -0.0216012 -0.0203403 -0.0187546 -0.0168439 -0.0146083 -0.0120478 -0.00896784 -0.00517399 -0.00066624 0.00455543 0.010491 0.0171405 0.0245039 0.0325812 0.0408696 0.0488662 0.0565711 0.0639842 0.0711055 0.0779351 0.0844729 0.090719 0.096432 0.101371 0.105535 0.108925 0.111541 0.113382 0.114449 0.114741 0.114268 0.113036 0.111047 0.1083 0.104795 0.100532 0.095511 0.0897324 0.0834549 0.0769375 0.0701803 0.0631831 0.0559461 0.0484692 0.0407524 0.0327957 0.025131 0.01829 0.0122728 0.00707932 0.00270965 -0.000836251 -0.00355838 -0.00545674 -0.00676123 -0.00770174 -0.00827828 -0.00849084 -0.00833942 -0.00782403 -0.00694467 -0.00570132 -0.00436508 -0.00320699 -0.00222708 -0.00142533 -0.000801748 -0.000356333 -8.90832e-05 0 0 -2.47398e-05 -9.89592e-05 -0.000222658 -0.000395837 -0.000618495 -0.000890632 -0.00121225 -0.00158335 -0.00202139 -0.00254383 -0.00315068 -0.00384194 -0.0046176 -0.00547767 -0.00642214 -0.00745102 -0.00854535 -0.00968615 -0.0108734 -0.0121072 -0.0133874 -0.0147142 -0.0160874 -0.017507 -0.0189588 -0.0204281 -0.021915 -0.0234195 -0.0249416 -0.0264813 -0.0280386 -0.0296134 -0.0310794 -0.0323099 -0.033305 -0.0340646 -0.0345887 -0.0348774 -0.0349307 -0.0347485 -0.0343882 -0.0339071 -0.0333052 -0.0325826 -0.0317392 -0.0307751 -0.0296901 -0.0284844 -0.0273141 -0.0263354 -0.0255483 -0.0249527 -0.0245487 -0.0243363 -0.0243155 -0.0244863 -0.0245119 -0.0240555 -0.0231171 -0.0216968 -0.0197946 -0.0174104 -0.0145442 -0.0111961 -0.00713298 -0.00212177 0.00383751 0.0107449 0.0186003 0.0274038 0.0371554 0.047855 0.0588334 0.0694213 0.0796186 0.0894254 0.0988416 0.107867 0.116502 0.124747 0.132286 0.138803 0.144299 0.148774 0.152227 0.154659 0.15607 0.156459 0.155841 0.154227 0.15162 0.148018 0.143421 0.13783 0.131244 0.123663 0.115421 0.10685 0.0979501 0.0887211 0.0791633 0.0692765 0.0590608 0.0485162 0.038332 0.0291976 0.021113 0.0140781 0.0080931 0.00315785 -0.000727616 -0.00356329 -0.0056296 -0.00720696 -0.00829537 -0.00889483 -0.00900535 -0.00862691 -0.00775953 -0.00640321 -0.00490245 -0.0036018 -0.00250125 -0.0016008 -0.000900451 -0.0004002 -0.00010005 0 0 -3.16342e-05 -0.000126537 -0.000284708 -0.000506148 -0.000790856 -0.00113883 -0.00155008 -0.00202459 -0.00256109 -0.00315827 -0.00381616 -0.00453474 -0.00531401 -0.00615398 -0.00705465 -0.00801601 -0.00900519 -0.00998934 -0.0109684 -0.0119425 -0.0129115 -0.0138755 -0.0148345 -0.0157884 -0.016756 -0.0177559 -0.0187883 -0.019853 -0.0209501 -0.0220795 -0.0232414 -0.0244356 -0.0255485 -0.0264664 -0.0271893 -0.0277173 -0.0280502 -0.0281882 -0.0281312 -0.0278792 -0.0275019 -0.0270692 -0.026581 -0.0260372 -0.025438 -0.0247833 -0.0240731 -0.0233074 -0.0226219 -0.0221525 -0.0218991 -0.0218618 -0.0220405 -0.0224353 -0.0230461 -0.0238729 -0.0244656 -0.024374 -0.0235981 -0.0221378 -0.0199933 -0.0171645 -0.0136513 -0.00945386 -0.00429906 0.00208613 0.0097017 0.0185477 0.028624 0.0399307 0.0524678 0.0662353 0.0803567 0.0939557 0.107032 0.119586 0.131617 0.143126 0.154112 0.164576 0.174132 0.182393 0.18936 0.195033 0.199411 0.202496 0.204286 0.204782 0.204004 0.201971 0.198684 0.194142 0.188346 0.181295 0.17299 0.163431 0.153018 0.142154 0.130838 0.11907 0.10685 0.094179 0.081056 0.0674813 0.0543361 0.0425015 0.0319777 0.0227644 0.0148619 0.00827001 0.0029888 -0.000981739 -0.00397847 -0.00633827 -0.00806112 -0.00914704 -0.00959601 -0.00940804 -0.00858313 -0.00712128 -0.00545223 -0.00400572 -0.00278175 -0.00178032 -0.00100143 -0.00044508 -0.00011127 0 0 -3.92645e-05 -0.000157058 -0.00035338 -0.000628232 -0.000981612 -0.00141352 -0.00192396 -0.00251293 -0.00315304 -0.00381693 -0.00450459 -0.00521602 -0.00595122 -0.00671019 -0.00749293 -0.00829944 -0.00907812 -0.00977739 -0.0103972 -0.0109377 -0.0113987 -0.0117802 -0.0120824 -0.0123052 -0.0125139 -0.0127739 -0.0130853 -0.013448 -0.013862 -0.0143274 -0.0148441 -0.0154122 -0.0159434 -0.0163499 -0.0166314 -0.0167881 -0.01682 -0.016727 -0.0165091 -0.0161664 -0.0157828 -0.0154425 -0.0151453 -0.0148913 -0.0146806 -0.014513 -0.0143886 -0.0143074 -0.0143691 -0.0146734 -0.0152203 -0.0160098 -0.017042 -0.0183167 -0.0198341 -0.021594 -0.0230093 -0.0234926 -0.0230439 -0.0216633 -0.0193507 -0.0161061 -0.0119295 -0.00682102 -0.000466074 0.00744971 0.0169263 0.0279638 0.0405621 0.0547213 0.0704413 0.0877221 0.10544 0.122469 0.138811 0.154466 0.169432 0.183711 0.197303 0.210206 0.22197 0.23214 0.240717 0.247702 0.253093 0.256892 0.259097 0.25971 0.258757 0.256267 0.252239 0.246673 0.23957 0.230929 0.220751 0.209035 0.196246 0.182848 0.168843 0.154229 0.139007 0.123177 0.106738 0.0896911 0.0731433 0.0582018 0.0448668 0.0331382 0.023016 0.0145002 0.00759087 0.00228791 -0.00180786 -0.00509568 -0.00757555 -0.00924746 -0.0101114 -0.0101674 -0.00941546 -0.00785555 -0.0060144 -0.00441874 -0.00306857 -0.00196389 -0.00110469 -0.000490972 -0.000122743 0 0 -4.76