<?xml version="1.0"?> 
<VTKFile type="StructuredGrid" version="0.1"> 
<StructuredGrid WholeExtent="0 128 0 128 0 0"> 
<Piece Extent="0 128 0 128 0 0"> 
<PointData>
<DataArray type="Float32" Name="u" format="ascii" NumberOfComponents="1"> 
0 0 0 0 0 0 0 0 0 0 0 0 0 0 0 0 0 0 0 0 0 0 0 0 0 0 0 0 0 0 0 0 0 0 0 0 0 0 0 0 0 0 0 0 0 0 0 0 0 0 0 0 0 0 0 0 0 0 0 0 0 0 0 0 0 0 0 0 0 0 0 0 0 0 0 0 0 0 0 0 0 0 0 0 0 0 0 0 0 0 0 0 0 0 0 0 0 0 0 0 0 0 0 0 0 0 0 0 0 0 0 0 0 0 0 0 0 0 0 0 0 0 0 0 0 0 0 0 0 0 -2.4221e-08 -9.68838e-08 -2.17989e-07 -3.87535e-07 -6.05524e-07 -8.71954e-07 -1.18683e-06 -1.55014e-06 -1.66716e-06 -1.24314e-06 -2.78093e-07 1.22799e-06 3.27511e-06 5.86326e-06 8.99245e-06 1.26627e-05 1.68516e-05 2.15369e-05 2.67186e-05 3.23967e-05 3.85712e-05 4.5242e-05 5.24093e-05 6.00729e-05 6.78072e-05 7.51865e-05 8.22108e-05 8.888e-05 9.51942e-05 0.000101153 0.000106758 0.000112007 0.000116754 0.000120851 0.0001243 0.000127099 0.000129248 0.000130749 0.0001316 0.000131802 0.000131357 0.000130267 0.000128534 0.000126156 0.000123134 0.000119467 0.000115156 0.000110201 0.000104964 9.98083e-05 9.47331e-05 8.97388e-05 8.48253e-05 7.99926e-05 7.52409e-05 7.05699e-05 6.52066e-05 5.83779e-05 5.00836e-05 4.03239e-05 2.90986e-05 1.64079e-05 2.25172e-06 -1.337e-05 -3.08994e-05 -5.07789e-05 -7.30084e-05 -9.7588e-05 -0.000124518 -0.000153797 -0.000185427 -0.000219406 -0.000253318 -0.000284745 -0.000313686 -0.000340141 -0.000364111 -0.000385595 -0.000404594 -0.000421107 -0.000435428 -0.000447849 -0.000458371 -0.000466993 -0.000473716 -0.000478539 -0.000481463 -0.000482487 -0.000481589 -0.000478746 -0.000473958 -0.000467225 -0.000458547 -0.000447924 -0.000435356 -0.000420843 -0.000404114 -0.000384898 -0.000363194 -0.000339003 -0.000312325 -0.000283159 -0.000251507 -0.000217367 -0.000183393 -0.000152241 -0.000123909 -9.8397e-05 -7.57062e-05 -5.58359e-05 -3.87862e-05 -2.45572e-05 -1.27484e-05 -2.95933e-06 4.80988e-06 1.05593e-05 1.42889e-05 1.59987e-05 1.56887e-05 1.33589e-05 1.02279e-05 7.51437e-06 5.21831e-06 3.33972e-06 1.87859e-06 8.3493e-07 2.08732e-07 0 0 -9.68838e-08 -3.87535e-07 -8.71954e-07 -1.55014e-06 -2.4221e-06 -3.48782e-06 -4.74731e-06 -6.20056e-06 -6.66864e-06 -4.97257e-06 -1.11237e-06 4.91196e-06 1.31004e-05 2.3453e-05 3.59698e-05 5.06507e-05 6.74064e-05 8.61477e-05 0.000106874 0.000129587 0.000154285 0.000180968 0.000209637 0.000240292 0.000271229 0.000300746 0.000328843 0.00035552 0.000380777 0.000404614 0.00042703 0.000448027 0.000467015 0.000483405 0.000497199 0.000508395 0.000516994 0.000522995 0.0005264 0.000527207 0.000525427 0.00052107 0.000514135 0.000504623 0.000492535 0.000477868 0.000460625 0.000440805 0.000419857 0.000399233 0.000378932 0.000358955 0.000339301 0.000319971 0.000300963 0.00028228 0.000260827 0.000233511 0.000200334 0.000161296 0.000116395 6.56317e-05 9.00687e-06 -5.34799e-05 -0.000123598 -0.000203116 -0.000292034 -0.000390352 -0.00049807 -0.000615189 -0.000741707 -0.000877626 -0.00101327 -0.00113898 -0.00125474 -0.00136056 -0.00145644 -0.00154238 -0.00161838 -0.00168443 -0.00174171 -0.0017914 -0.00183348 -0.00186797 -0.00189486 -0.00191416 -0.00192585 -0.00192995 -0.00192636 -0.00191498 -0.00189583 -0.0018689 -0.00183419 -0.0017917 -0.00174142 -0.00168337 -0.00161646 -0.00153959 -0.00145278 -0.00135601 -0.0012493 -0.00113264 -0.00100603 -0.000869467 -0.000733574 -0.000608963 -0.000495634 -0.000393588 -0.000302825 -0.000223344 -0.000155145 -9.82288e-05 -5.09934e-05 -1.18373e-05 1.92395e-05 4.22372e-05 5.71556e-05 6.39948e-05 6.27548e-05 5.34355e-05 4.09116e-05 3.00575e-05 2.08732e-05 1.33589e-05 7.51437e-06 3.33972e-06 8.3493e-07 0 0 -2.17989e-07 -8.71954e-07 -1.9619e-06 -3.48782e-06 -5.44971e-06 -7.84759e-06 -1.06814e-05 -1.39513e-05 -1.50044e-05 -1.11883e-05 -2.50284e-06 1.10519e-05 2.9476e-05 5.27693e-05 8.0932e-05 0.000113964 0.000151664 0.000193832 0.000240468 0.00029157 0.000347141 0.000407178 0.000471684 0.000540656 0.000610265 0.000676679 0.000739897 0.00079992 0.000856748 0.000910381 0.000960818 0.00100806 0.00105078 0.00108766 0.0011187 0.00114389 0.00116324 0.00117674 0.0011844 0.00118622 0.00118221 0.00117241 0.0011568 0.0011354 0.0011082 0.0010752 0.00103641 0.00099181 0.000944679 0.000898274 0.000852598 0.000807649 0.000763428 0.000719934 0.000677168 0.000635129 0.00058686 0.000525401 0.000450753 0.000362915 0.000261888 0.000147671 2.02654e-05 -0.00012033 -0.000278095 -0.00045701 -0.000657076 -0.000878292 -0.00112066 -0.00138417 -0.00166884 -0.00197466 -0.00227987 -0.0025627 -0.00282317 -0.00306127 -0.003277 -0.00347036 -0.00364135 -0.00378997 -0.00391885 -0.00403064 -0.00412534 -0.00420294 -0.00426344 -0.00430685 -0.00433317 -0.00434238 -0.0043343 -0.00430871 -0.00426562 -0.00420502 -0.00412692 -0.00403132 -0.0039182 -0.00378759 -0.00363703 -0.00346408 -0.00326875 -0.00305103 -0.00281092 -0.00254844 -0.00226356 -0.0019563 -0.00165054 -0.00137017 -0.00111518 -0.000885573 -0.000681355 -0.000502523 -0.000349076 -0.000221015 -0.000114735 -2.6634e-05 4.3289e-05 9.50337e-05 0.0001286 0.000143988 0.000141198 0.00012023 9.2051e-05 6.76293e-05 4.69648e-05 3.00575e-05 1.69073e-05 7.51437e-06 1.87859e-06 0 0 -3.87535e-07 -1.55014e-06 -3.48782e-06 -6.20056e-06 -9.68838e-06 -1.39513e-05 -1.89892e-05 -2.48023e-05 -2.66745e-05 -1.98903e-05 -4.44949e-06 1.96478e-05 5.24017e-05 9.38122e-05 0.000143879 0.000202603 0.000269626 0.000344591 0.000427498 0.000518347 0.000617139 0.000723873 0.000838549 0.000961167 0.00108492 0.00120298 0.00131537 0.00142208 0.00152311 0.00161845 0.00170812 0.00179211 0.00186806 0.00193362 0.00198879 0.00203358 0.00206797 0.00209198 0.0021056 0.00210883 0.00210171 0.00208428 0.00205654 0.00201849 0.00197014 0.00191147 0.0018425 0.00176322 0.00167943 0.00159693 0.00151573 0.00143582 0.0013572 0.00127988 0.00120385 0.00112912 0.00104331 0.000934046 0.000801338 0.000645182 0.000465578 0.000262527 3.60275e-05 -0.00021392 -0.000494391 -0.000812463 -0.00116814 -0.00156141 -0.00199228 -0.00246075 -0.00296683 -0.0035105 -0.00405309 -0.00455592 -0.00501897 -0.00544226 -0.00582577 -0.00616952 -0.0064735 -0.00673772 -0.00696685 -0.00716559 -0.00733394 -0.00747189 -0.00757946 -0.00765663 -0.00770341 -0.00771979 -0.00770542 -0.00765994 -0.00758333 -0.0074756 -0.00733675 -0.00716678 -0.0069657 -0.00673349 -0.00646582 -0.00615836 -0.0058111 -0.00542405 -0.0049972 -0.00453055 -0.00402411 -0.00347787 -0.00293429 -0.00243585 -0.00198254 -0.00157435 -0.0012113 -0.000893374 -0.00062058 -0.000392915 -0.000203974 -4.73494e-05 7.69581e-05 0.000168949 0.000228622 0.000255979 0.000251019 0.000213742 0.000163646 0.00012023 8.3493e-05 5.34355e-05 3.00575e-05 1.33589e-05 3.33972e-06 0 0 -6.05524e-07 -2.4221e-06 -5.44971e-06 -9.68838e-06 -1.51381e-05 -2.17989e-05 -2.96707e-05 -3.87535e-05 -4.1679e-05 -3.10786e-05 -6.95234e-06 3.06998e-05 8.18777e-05 0.000146582 0.000224811 0.000316567 0.00042129 0.000538423 0.000667965 0.000809918 0.00096428 0.00113105 0.00131023 0.00150182 0.00169518 0.00187966 0.00205527 0.002222 0.00237986 0.00252884 0.00266894 0.00280017 0.00291884 0.00302128 0.00310749 0.00317747 0.00323121 0.00326872 0.00329 0.00329504 0.00328392 0.00325669 0.00321334 0.0031539 0.00307834 0.00298668 0.00287891 0.00275503 0.00262411 0.00249521 0.00236833 0.00224347 0.00212063 0.00199982 0.00188102 0.00176425 0.00163017 0.00145945 0.00125209 0.0010081 0.000727466 0.000410198 5.62929e-05 -0.00033425 -0.000772486 -0.00126947 -0.00182521 -0.0024397 -0.00311294 -0.00384493 -0.00463567 -0.00548516 -0.00633296 -0.00711862 -0.00784214 -0.00850353 -0.00910277 -0.00963988 -0.0101149 -0.0105277 -0.0108857 -0.0111962 -0.0114593 -0.0116748 -0.0118429 -0.0119635 -0.0120366 -0.0120622 -0.0120397 -0.0119686 -0.0118489 -0.0116806 -0.0114637 -0.0111981 -0.0108839 -0.0105211 -0.0101028 -0.00962244 -0.00907985 -0.00847508 -0.00780812 -0.00707899 -0.00628767 -0.00543417 -0.00458483 -0.00380602 -0.00309771 -0.00245993 -0.00189265 -0.0013959 -0.000969656 -0.00061393 -0.000318709 -7.39834e-05 0.000120247 0.000263982 0.000357223 0.000399967 0.000392217 0.000333972 0.000255697 0.000187859 0.000130458 8.3493e-05 4.69648e-05 2.08732e-05 5.21831e-06 0 0 -8.71954e-07 -3.48782e-06 -7.84759e-06 -1.39513e-05 -2.17989e-05 -3.13904e-05 -4.27258e-05 -5.58051e-05 -6.00177e-05 -4.47532e-05 -1.00114e-05 4.42077e-05 0.000117904 0.000211077 0.000323728 0.000455856 0.000606657 0.000775329 0.00096187 0.00116628 0.00138856 0.00162871 0.00188673 0.00216263 0.00244106 0.00270672 0.00295959 0.00319968 0.00342699 0.00364152 0.00384327 0.00403224 0.00420313 0.00435065 0.00447479 0.00457555 0.00465294 0.00470696 0.0047376 0.00474486 0.00472884 0.00468963 0.00462722 0.00454161 0.00443281 0.00430082 0.00414563 0.00396724 0.00377871 0.0035931 0.00341039 0.0032306 0.00305371 0.00287974 0.00270867 0.00254052 0.00234744 0.0021016 0.00180301 0.00145166 0.00104755 0.000590685 8.10618e-05 -0.000481319 -0.00111238 -0.00182804 -0.0026283 -0.00351317 -0.00448263 -0.0055367 -0.00667536 -0.00789863 -0.00911946 -0.0102508 -0.0112927 -0.0122451 -0.013108 -0.0138814 -0.0145654 -0.0151599 -0.0156754 -0.0161226 -0.0165014 -0.0168118 -0.0170538 -0.0172274 -0.0173327 -0.0173695 -0.0173372 -0.0172349 -0.0170625 -0.0168201 -0.0165077 -0.0161253 -0.0156728 -0.0151503 -0.0145481 -0.0138563 -0.013075 -0.0122041 -0.0112437 -0.0101937 -0.00905424 -0.0078252 -0.00660216 -0.00548066 -0.00446071 -0.00354229 -0.00272542 -0.00201009 -0.0013963 -0.000884059 -0.000458941 -0.000106536 0.000173156 0.000380135 0.0005144 0.000575953 0.000564793 0.000480919 0.000368204 0.000270517 0.000187859 0.00012023 6.76293e-05 3.00575e-05 7.51437e-06 0 0 -1.18683e-06 -4.74731e-06 -1.06814e-05 -1.89892e-05 -2.96707e-05 -4.27258e-05 -5.81545e-05 -7.59569e-05 -8.16908e-05 -6.0914e-05 -1.36266e-05 6.01715e-05 0.00016048 0.0002873 0.00044063 0.000620471 0.000825728 0.00105531 0.00130921 0.00158744 0.00188999 0.00221686 0.00256806 0.00294357 0.00332256 0.00368414 0.00402833 0.00435512 0.00466452 0.00495652 0.00523112 0.00548833 0.00572093 0.00592171 0.00609068 0.00622784 0.00633317 0.00640669 0.0064484 0.00645828 0.00643648 0.0063831 0.00629816 0.00618164 0.00603355 0.00585389 0.00564266 0.00539986 0.00514325 0.00489061 0.00464192 0.0043972 0.00415644 0.00391964 0.0036868 0.00345793 0.00319512 0.00286052 0.0024541 0.00197587 0.00142583 0.000803988 0.000110334 -0.000655129 -0.00151407 -0.00248817 -0.00357741 -0.00478181 -0.00610136 -0.00753606 -0.00908591 -0.0107509 -0.0124126 -0.0139525 -0.0153706 -0.0166669 -0.0178414 -0.0188942 -0.0198251 -0.0206343 -0.021336 -0.0219446 -0.0224602 -0.0228827 -0.0232121 -0.0234484 -0.0235917 -0.0236419 -0.0235979 -0.0234586 -0.0232239 -0.022894 -0.0224688 -0.0219483 -0.0213324 -0.0206213 -0.0198016 -0.01886 -0.0177965 -0.0166112 -0.0153039 -0.0138748 -0.0123238 -0.010651 -0.00898628 -0.00745979 -0.00607152 -0.00482146 -0.0037096 -0.00273596 -0.00190053 -0.0012033 -0.00062467 -0.000145007 0.000235684 0.000517405 0.000700156 0.000783936 0.000768746 0.000654585 0.000501167 0.000368204 0.000255697 0.000163646 9.2051e-05 4.09116e-05 1.02279e-05 0 0 -1.55014e-06 -6.20056e-06 -1.39513e-05 -2.48023e-05 -3.87535e-05 -5.58051e-05 -7.59569e-05 -9.9209e-05 -0.000106698 -7.95612e-05 -1.7798e-05 7.85914e-05 0.000209607 0.000375249 0.000575517 0.000810411 0.0010785 0.00137836 0.00170999 0.00207339 0.00246856 0.00289549 0.00335419 0.00384467 0.00433966 0.00481194 0.00526149 0.00568832 0.00609243 0.00647382 0.00683249 0.00716843 0.00747224 0.00773448 0.00795518 0.00813432 0.0082719 0.00836793 0.0084224 0.00843531 0.00840683 0.00833711 0.00822616 0.00807398 0.00788055 0.0076459 0.00737 0.00705287 0.00671771 0.00638773 0.00606292 0.00574328 0.00542882 0.00511953 0.00481541 0.00451647 0.00417322 0.00373618 0.00320535 0.00258073 0.00186231 0.00105011 0.00014411 -0.000855679 -0.00197756 -0.00324985 -0.00467254 -0.00624563 -0.00796912 -0.00984302 -0.0118673 -0.014042 -0.0162124 -0.0182237 -0.0200759 -0.021769 -0.0233031 -0.0246781 -0.025894 -0.0269509 -0.0278674 -0.0286624 -0.0293358 -0.0298876 -0.0303178 -0.0306265 -0.0308136 -0.0308792 -0.0308217 -0.0306397 -0.0303333 -0.0299024 -0.029347 -0.0286671 -0.0278628 -0.026934 -0.0258633 -0.0246334 -0.0232444 -0.0216962 -0.0199888 -0.0181222 -0.0160964 -0.0139115 -0.0117372 -0.0097434 -0.00793015 -0.00629741 -0.00484519 -0.0035735 -0.00248232 -0.00157166 -0.000815895 -0.000189397 0.000307833 0.000675795 0.00091449 0.00102392 0.00100408 0.000854968 0.000654585 0.000480919 0.000333972 0.000213742 0.00012023 5.34355e-05 1.33589e-05 0 0 -1.70062e-06 -6.80248e-06 -1.53056e-05 -2.72099e-05 -4.25155e-05 -6.12223e-05 -8.33303e-05 -0.00010884 -0.000115872 -8.25491e-05 -8.87103e-06 0.000105162 0.000259551 0.000454294 0.000689393 0.000964847 0.00127858 0.00162854 0.0020147 0.00243708 0.00289567 0.00339047 0.00392149 0.00448872 0.00506133 0.0056085 0.00613022 0.00662649 0.00709731 0.00754269 0.00796262 0.0083571 0.00871433 0.00902248 0.00928155 0.00949155 0.00965248 0.00976434 0.00982712 0.00984082 0.00980609 0.00972356 0.00959322 0.00941508 0.00918914 0.00891539 0.00859384 0.00822449 0.00783451 0.00745106 0.00707415 0.00670378 0.00633995 0.00598265 0.00563189 0.00528767 0.00488909 0.00437527 0.0037462 0.00300187 0.0021423 0.00116748 7.74152e-05 -0.0011279 -0.00247697 -0.0039983 -0.00569189 -0.00755774 -0.00959584 -0.0118062 -0.0141888 -0.0167437 -0.0192937 -0.0216615 -0.0238472 -0.0258507 -0.0276721 -0.0293114 -0.0307686 -0.0320437 -0.033154 -0.034117 -0.0349327 -0.0356012 -0.0361223 -0.0364962 -0.0367227 -0.0368019 -0.0367322 -0.0365116 -0.0361403 -0.0356182 -0.0349454 -0.0341217 -0.0331473 -0.0320222 -0.0307307 -0.0292571 -0.0276016 -0.0257641 -0.0237446 -0.0215431 -0.0191597 -0.0165942 -0.0140415 -0.0116961 -0.0095582 -0.00762767 -0.00590456 -0.00438885 -0.00308055 -0.00197966 -0.0010605 -0.000297373 0.000309713 0.000760758 0.00105576 0.00119473 0.00117765 0.00100454 0.000769101 0.000565054 0.000392398 0.000251135 0.000141263 6.27837e-05 1.56959e-05 0 0 -1.37698e-06 -5.50793e-06 -1.23928e-05 -2.20317e-05 -3.44246e-05 -4.95714e-05 -6.74721e-05 -8.81269e-05 -9.0044e-05 -5.17322e-05 2.68088e-05 0.000145579 0.000304578 0.000503806 0.000743263 0.00102295 0.00133958 0.00168988 0.00207383 0.00249145 0.00294273 0.00342767 0.00394627 0.00449854 0.00505651 0.00559221 0.00610565 0.00659683 0.00706574 0.0075124 0.00793679 0.00833892 0.00870449 0.00901921 0.00928308 0.00949611 0.00965828 0.00976961 0.00983008 0.00983971 0.00980046 0.00971433 0.00958132 0.00940141 0.00917462 0.00890094 0.00858037 0.00821291 0.00782603 0.00744719 0.00707639 0.00671364 0.00635892 0.00601225 0.00567362 0.00534303 0.00495009 0.00442443 0.00376605 0.00297495 0.00205111 0.000994557 -0.000194724 -0.00151673 -0.00298641 -0.00461872 -0.00641366 -0.00837123 -0.0104914 -0.0127743 -0.0152197 -0.0178278 -0.0204313 -0.0228631 -0.0251231 -0.0272113 -0.0291278 -0.0308725 -0.0324454 -0.0338466 -0.03508 -0.0361498 -0.0370558 -0.0377982 -0.0383768 -0.0387918 -0.0390431 -0.0391307 -0.0390527 -0.0388074 -0.0383946 -0.0378145 -0.0370669 -0.036152 -0.0350696 -0.0338199 -0.0324011 -0.0308115 -0.029051 -0.0271198 -0.0250177 -0.0227449 -0.0203012 -0.0176867 -0.0150858 -0.0126826 -0.0104773 -0.00846976 -0.00666006 -0.00504817 -0.0036341 -0.00241785 -0.00138636 -0.000526599 0.000161438 0.000677752 0.00102234 0.00119521 0.00119635 0.00102577 0.000785355 0.000576996 0.000400692 0.000256443 0.000144249 6.41106e-05 1.60277e-05 0 0 -5.79231e-07 -2.31692e-06 -5.21308e-06 -9.26769e-06 -1.44808e-05 -2.08523e-05 -2.83823e-05 -3.70708e-05 -2.92145e-05 1.28896e-05 8.92415e-05 0.000199841 0.000344689 0.000523785 0.000737128 0.000984719 0.00126149 0.00156238 0.00188738 0.0022365 0.00260974 0.00300709 0.00342855 0.00387413 0.00432518 0.00476307 0.00518779 0.00559934 0.00599772 0.00638293 0.00675498 0.00711386 0.00744272 0.00772469 0.00795977 0.00814798 0.0082893 0.00838374 0.00843129 0.00843196 0.00838995 0.00830944 0.00819045 0.00803296 0.00783699 0.00760252 0.00732957 0.00701813 0.00669228 0.00637612 0.00606965 0.00577286 0.00548575 0.00520833 0.00494059 0.00468254 0.00435622 0.00388368 0.00326492 0.00249994 0.00158875 0.000531329 -0.000672307 -0.00202216 -0.00350589 -0.00511112 -0.00683787 -0.00868613 -0.0106559 -0.0127472 -0.01496 -0.0172943 -0.0196254 -0.0218285 -0.0239036 -0.0258507 -0.0276699 -0.0293611 -0.0309244 -0.0323596 -0.0336455 -0.0347606 -0.035705 -0.0364786 -0.0370814 -0.0375135 -0.0377748 -0.0378654 -0.0377833 -0.037527 -0.0370962 -0.0364911 -0.0357117 -0.0347579 -0.0336297 -0.0323272 -0.0308746 -0.0292965 -0.0275926 -0.0257632 -0.0238081 -0.0217274 -0.019521 -0.017189 -0.0148701 -0.0127029 -0.0106874 -0.00882367 -0.00711169 -0.00555145 -0.00414296 -0.0028862 -0.00179348 -0.000877078 -0.000136992 0.000426775 0.000814223 0.00102535 0.00106017 0.00091866 0.000703349 0.000516746 0.000358852 0.000229665 0.000129187 5.74163e-05 1.43541e-05 0 0 6.92635e-07 2.77054e-06 6.23372e-06 1.10822e-05 1.73159e-05 2.49349e-05 3.39391e-05 4.43286e-05 6.66166e-05 0.000111316 0.000178427 0.00026795 0.000379884 0.00051423 0.000670987 0.000850156 0.00104432 0.00124605 0.00145536 0.00167224 0.00189669 0.00212872 0.00236832 0.00261549 0.00286737 0.00312108 0.00337663 0.00363402 0.00389324 0.00415431 0.00441721 0.00468194 0.00492901 0.0051389 0.00531162 0.00544717 0.00554553 0.00560673 0.00563074 0.00561759 0.00557454 0.00550888 0.00542061 0.00530974 0.00517625 0.00502016 0.00484146 0.00464015 0.00443326 0.00423785 0.00405391 0.00388143 0.00372042 0.00357088 0.00343281 0.00330621 0.00310747 0.00275301 0.0022428 0.00157687 0.000755201 -0.000222201 -0.00135534 -0.0026442 -0.00403539 -0.00547549 -0.00696449 -0.00850241 -0.0100892 -0.011725 -0.0134096 -0.0151432 -0.0168758 -0.0185576 -0.0201887 -0.0217691 -0.0232987 -0.0247775 -0.0262055 -0.0275828 -0.0288505 -0.0299496 -0.0308803 -0.0316424 -0.0322361 -0.0326612 -0.0329179 -0.033006 -0.0329241 -0.0326704 -0.0322452 -0.0316482 -0.0308797 -0.0299394 -0.0288275 -0.0275439 -0.0261512 -0.0247121 -0.0232265 -0.0216944 -0.0201158 -0.0184907 -0.0168191 -0.0151011 -0.0133944 -0.0117569 -0.0101885 -0.0086894 -0.00725945 -0.00589869 -0.00460712 -0.00338474 -0.00228186 -0.00134881 -0.000585578 7.82719e-06 0.000431409 0.000685166 0.0007691 0.00068321 0.000523082 0.000384305 0.000266879 0.000170802 9.60763e-05 4.27006e-05 1.06751e-05 0 0 2.43862e-06 9.75446e-06 2.19475e-05 3.90179e-05 6.09654e-05 8.77902e-05 0.000119492 0.000156071 0.000197449 0.000243547 0.000294366 0.000349904 0.000410162 0.000475141 0.00054484 0.000619259 0.000688055 0.000740887 0.000777754 0.000798656 0.000803593 0.000792566 0.000765573 0.000722616 0.000683052 0.000666241 0.000672181 0.000700873 0.000752317 0.000826513 0.000923461 0.00104316 0.00116337 0.00126186 0.00133863 0.00139367 0.00142698 0.00143857 0.00142844 0.00139658 0.00135424 0.00131265 0.00127182 0.00123174 0.00119241 0.00115384 0.00111603 0.00107896 0.00104898 0.00103238 0.00102918 0.00103936 0.00106295 0.00109992 0.00115028 0.00121404 0.00120386 0.00103241 0.000699698 0.00020572 -0.000449523 -0.00126603 -0.00224381 -0.00338285 -0.00457493 -0.00571183 -0.00679355 -0.00782009 -0.00879144 -0.00970762 -0.0105686 -0.0113744 -0.0121826 -0.0130506 -0.0139785 -0.0149663 -0.0160139 -0.0171215 -0.0182889 -0.0195161 -0.0206949 -0.0217167 -0.0225816 -0.0232897 -0.0238408 -0.0242349 -0.0244722 -0.0245526 -0.0244748 -0.0242378 -0.0238414 -0.0232858 -0.0225708 -0.0216966 -0.020663 -0.0194701 -0.0182309 -0.0170584 -0.0159525 -0.0149133 -0.0139407 -0.0130348 -0.0121955 -0.0114229 -0.0106587 -0.00984461 -0.00898071 -0.00806695 -0.00710335 -0.0060899 -0.0050266 -0.00391345 -0.0028515 -0.00194179 -0.00118432 -0.000579091 -0.000126102 0.000174645 0.000323152 0.000319418 0.000244554 0.000179673 0.000124773 7.98545e-05 4.49182e-05 1.99636e-05 4.99091e-06 0 0 4.65871e-06 1.86348e-05 4.19284e-05 7.45394e-05 0.000116468 0.000167714 0.000228277 0.000298157 0.000363284 0.000409584 0.000437057 0.000445704 0.000435525 0.000406519 0.000358687 0.000292029 0.000192708 4.68893e-05 -0.000145428 -0.000384243 -0.000669557 -0.00100137 -0.00137968 -0.00180449 -0.00222776 -0.00260145 -0.00292556 -0.0032001 -0.00342506 -0.00360045 -0.00372626 -0.00380249 -0.00385419 -0.00390643 -0.00395921 -0.00401251 -0.00406635 -0.00412072 -0.00417562 -0.00423105 -0.00427095 -0.00427925 -0.00425595 -0.00420104 -0.00411454 -0.00399643 -0.00384673 -0.00366542 -0.00346058 -0.00324029 -0.00300454 -0.00275334 -0.00248668 -0.00220457 -0.001907 -0.00159398 -0.00135463 -0.00127811 -0.0013644 -0.0016135 -0.00202543 -0.00260017 -0.00333772 -0.0042381 -0.0051245 -0.00582015 -0.00632503 -0.00663916 -0.00676253 -0.00669514 -0.00643699 -0.00598808 -0.00554575 -0.00530736 -0.0052729 -0.00544238 -0.00581578 -0.00639311 -0.00717438 -0.00815958 -0.00917874 -0.0100619 -0.0108091 -0.0114203 -0.0118955 -0.0122347 -0.0124379 -0.0125051 -0.0124357 -0.012229 -0.011885 -0.0114038 -0.0107852 -0.0100294 -0.00913626 -0.00810585 -0.00711369 -0.00633531 -0.00577072 -0.0054199 -0.00528287 -0.00535961 -0.00565014 -0.00615445 -0.00666297 -0.00696612 -0.00706391 -0.00695633 -0.00664338 -0.00612507 -0.00540139 -0.00447234 -0.0035024 -0.00265602 -0.00193322 -0.00133398 -0.00085831 -0.000506209 -0.000277677 -0.000172714 -0.000132234 -9.71519e-05 -6.74666e-05 -4.31786e-05 -2.4288e-05 -1.07947e-05 -2.69866e-06 0 0 7.35292e-06 2.94117e-05 6.61763e-05 0.000117647 0.000183823 0.000264705 0.000360293 0.000470587 0.00056412 0.000609424 0.000606501 0.00055535 0.000455971 0.000308364 0.000112529 -0.000131534 -0.000441725 -0.000835943 -0.00131419 -0.00187646 -0.00252276 -0.00325309 -0.00406744 -0.00496582 -0.00586506 -0.00668199 -0.0074166 -0.0080689 -0.0086389 -0.00912657 -0.00953194 -0.009855 -0.0101237 -0.010366 -0.0105819 -0.0107714 -0.0109345 -0.0110711 -0.0111814 -0.0112653 -0.011301 -0.0112668 -0.0111627 -0.0109886 -0.0107446 -0.0104307 -0.0100468 -0.009593 -0.00909541 -0.00858016 -0.00804726 -0.00749669 -0.00692847 -0.00634258 -0.00573904 -0.00511783 -0.00456799 -0.00417854 -0.00394948 -0.0038808 -0.00397251 -0.0042246 -0.00463708 -0.00520995 -0.00568411 -0.00580043 -0.00555894 -0.00495962 -0.00400248 -0.00268752 -0.00101473 0.00101588 0.00303469 0.00467209 0.00592808 0.00680266 0.00729582 0.00740757 0.00713791 0.00648684 0.00569793 0.00501476 0.00443734 0.00396566 0.00359972 0.00333952 0.00318507 0.00313636 0.00319332 0.00335588 0.00362405 0.00399782 0.00447719 0.00506217 0.00575275 0.00654893 0.00720046 0.0074571 0.00731885 0.00678571 0.00585767 0.00453474 0.00281692 0.000704204 -0.00140728 -0.00312139 -0.00443814 -0.00535752 -0.00587954 -0.0060042 -0.00573149 -0.00506141 -0.00423456 -0.00349151 -0.00283227 -0.00225684 -0.00176521 -0.0013574 -0.00103339 -0.000793188 -0.000607284 -0.000446168 -0.000309839 -0.000198297 -0.000111542 -4.95742e-05 -1.23936e-05 0 0 1.05212e-05 4.2085e-05 9.46912e-05 0.00016834 0.000263031 0.000378765 0.000515541 0.00067336 0.000799957 0.00084307 0.000802698 0.000678842 0.000471501 0.000180675 -0.000193636 -0.000651431 -0.00121524 -0.00190761 -0.00272853 -0.00367799 -0.00475601 -0.00596259 -0.00729771 -0.00876139 -0.0102289 -0.0115754 -0.0128009 -0.0139055 -0.0148892 -0.0157519 -0.0164936 -0.0171144 -0.0176451 -0.0181168 -0.0185294 -0.0188829 -0.0191774 -0.0194127 -0.019589 -0.0197062 -0.019736 -0.0196501 -0.0194484 -0.0191309 -0.0186978 -0.0181488 -0.0174842 -0.0167038 -0.0158555 -0.0149872 -0.014099 -0.0131907 -0.0122624 -0.0113141 -0.0103458 -0.00935753 -0.00843623 -0.0076689 -0.00705554 -0.00659617 -0.00629077 -0.00613934 -0.00614189 -0.00629842 -0.00625374 -0.0056527 -0.00449528 -0.00278148 -0.000511312 0.00231523 0.00569815 0.00963744 0.0135588 0.0168878 0.0196244 0.0217688 0.0233209 0.0242806 0.024648 0.0244231 0.0239351 0.0235133 0.0231577 0.0228682 0.0226449 0.0224877 0.0223967 0.0223719 0.0224123 0.0225169 0.0226858 0.022919 0.0232164 0.0235781 0.024004 0.0244942 0.0247115 0.0243189 0.0233162 0.0217036 0.0194809 0.0166483 0.0132057 0.0091531 0.00510842 0.00168959 -0.0011034 -0.00327054 -0.00481184 -0.00572729 -0.0060169 -0.00568066 -0.00504797 -0.00444824 -0.00388148 -0.00334767 -0.00284681 -0.00237892 -0.00194398 -0.001542 -0.0011806 -0.000867376 -0.000602344 -0.0003855 -0.000216844 -9.63751e-05 -2.40938e-05 0 0 1.29502e-05 5.18009e-05 0.000116552 0.000207204 0.000323756 0.000466208 0.000634562 0.000828815 0.000977993 0.00101112 0.000928192 0.000729214 0.000414184 -1.68982e-05 -0.000564032 -0.00122722 -0.00202766 -0.00298654 -0.00410388 -0.00537967 -0.00681391 -0.0084066 -0.0101577 -0.0120673 -0.0139833 -0.0157537 -0.0173784 -0.0188574 -0.0201908 -0.0213786 -0.0224207 -0.0233172 -0.0240959 -0.0247849 -0.0253841 -0.0258935 -0.0263132 -0.026643 -0.0268831 -0.0270334 -0.0270583 -0.0269224 -0.0266255 -0.0261677 -0.0255491 -0.0247695 -0.0238291 -0.0227277 -0.0215451 -0.0203608 -0.0191749 -0.0179873 -0.016798 -0.0156071 -0.0144145 -0.0132203 -0.0120796 -0.0110478 -0.0101248 -0.00931062 -0.00860528 -0.00800877 -0.0075211 -0.00714225 -0.00641047 -0.00486403 -0.0025029 0.000672894 0.00466337 0.00946851 0.0150883 0.0215228 0.0279343 0.0334849 0.0381747 0.0420038 0.044972 0.0470795 0.0483261 0.048712 0.0486711 0.0486374 0.0486109 0.0485917 0.0485797 0.048575 0.0485774 0.0485872 0.0486019 0.0486193 0.0486395 0.0486624 0.048688 0.0487164 0.0487475 0.0487813 0.0483765 0.0470916 0.0449266 0.0418816 0.0379564 0.0331513 0.027466 0.0209007 0.0143505 0.00871078 0.00398141 0.00016245 -0.00274612 -0.00474429 -0.00583206 -0.00600943 -0.00571071 -0.00537017 -0.00498784 -0.00456369 -0.00409774 -0.00358999 -0.00304043 -0.00244907 -0.00187507 -0.0013776 -0.000956667 -0.000612267 -0.0003444 -0.000153067 -3.82667e-05 0 0 1.34264e-05 5.37058e-05 0.000120838 0.000214823 0.000335661 0.000483352 0.000657896 0.000859292 0.00100542 0.00101417 0.000885527 0.000619501 0.00021609 -0.000324706 -0.00100289 -0.00181846 -0.00277877 -0.00389118 -0.00515569 -0.00657231 -0.00814102 -0.00986184 -0.0117348 -0.0137598 -0.0157926 -0.0176889 -0.0194487 -0.021072 -0.0225587 -0.023909 -0.0251228 -0.0262 -0.0271536 -0.0279964 -0.0287284 -0.0293496 -0.02986 -0.0302596 -0.0305484 -0.0307264 -0.0307504 -0.0305771 -0.0302066 -0.0296387 -0.0288737 -0.0279113 -0.0267517 -0.0253948 -0.0239684 -0.0226002 -0.0212902 -0.0200384 -0.0188448 -0.0177094 -0.0166322 -0.0156132 -0.0146184 -0.0136138 -0.0125994 -0.0115752 -0.0105411 -0.0094973 -0.00844366 -0.0073802 -0.00573135 -0.00292151 0.00104931 0.00618113 0.0124739 0.0199277 0.0285425 0.0383183 0.048069 0.0566088 0.0639375 0.0700553 0.074962 0.0786578 0.0811425 0.0824162 0.0830439 0.0835905 0.084056 0.0844405 0.0847439 0.0849663 0.0851076 0.0851678 0.0851427 0.0850282 0.0848242 0.0845306 0.0841476 0.0836751 0.0831131 0.0824615 0.0811522 0.0786168 0.0748552 0.0698675 0.0636537 0.0562138 0.0475477 0.0376555 0.0277855 0.0191862 0.0118574 0.00579929 0.00101178 -0.00250513 -0.00475142 -0.0057271 -0.00599082 -0.00610123 -0.00605834 -0.00586214 -0.00551264 -0.00500983 -0.00435372 -0.0035443 -0.0027136 -0.00199367 -0.00138449 -0.000886074 -0.000498417 -0.000221518 -5.53796e-05 0 0 1.19499e-05 4.77995e-05 0.000107549 0.000191198 0.000298747 0.000430195 0.000585543 0.000764791 0.000882247 0.000852217 0.000674703 0.000349704 -0.00012278 -0.00074275 -0.0015102 -0.00242514 -0.00346858 -0.00462152 -0.00588396 -0.00725591 -0.00873736 -0.0103283 -0.0120288 -0.0138388 -0.0156567 -0.0173811 -0.0190119 -0.0205492 -0.0219929 -0.0233431 -0.0245998 -0.0257628 -0.0268181 -0.0277512 -0.0285622 -0.0292511 -0.0298178 -0.0302624 -0.030585 -0.0307853 -0.0308123 -0.0306143 -0.0301916 -0.0295439 -0.0286715 -0.0275742 -0.0262521 -0.0247051 -0.0231255 -0.0217055 -0.020445 -0.0193441 -0.0184028 -0.0176211 -0.016999 -0.0165364 -0.0160527 -0.015367 -0.0144794 -0.0133898 -0.0120983 -0.0106049 -0.00890958 -0.00701229 -0.00421639 0.000174834 0.00616137 0.0137432 0.0229204 0.0336929 0.0460607 0.0600238 0.0739631 0.0862594 0.0969128 0.105923 0.113291 0.119015 0.123097 0.125536 0.127054 0.128373 0.129493 0.130415 0.131138 0.131662 0.131987 0.132114 0.132035 0.131744 0.13124 0.130524 0.129595 0.128454 0.127101 0.125535 0.123039 0.118895 0.113102 0.105661 0.0965727 0.0858358 0.0734507 0.0594174 0.0454133 0.0331157 0.0225246 0.01364 0.00646184 0.000990187 -0.00277498 -0.00483365 -0.00588831 -0.00664142 -0.00709299 -0.00724302 -0.0070915 -0.00663844 -0.00588384 -0.00482769 -0.0036962 -0.00271557 -0.00188581 -0.00120692 -0.000678893 -0.00030173 -7.54326e-05 0 0 8.52051e-06 3.4082e-05 7.66846e-05 0.000136328 0.000213013 0.000306738 0.000417505 0.000545313 0.000608465 0.000525268 0.00029572 -8.0179e-05 -0.000602428 -0.00127103 -0.00208598 -0.00304728 -0.00409709 -0.00517755 -0.00628868 -0.00743047 -0.00860292 -0.00980603 -0.0110398 -0.0123042 -0.0135756 -0.0148302 -0.0160681 -0.0172891 -0.0184934 -0.0196809 -0.0208517 -0.0220057 -0.0230894 -0.0240493 -0.0248855 -0.025598 -0.0261867 -0.0266516 -0.0269928 -0.0272102 -0.0272439 -0.027034 -0.0265805 -0.0258833 -0.0249426 -0.0237582 -0.0223301 -0.0206585 -0.0190163 -0.0176765 -0.0166392 -0.0159044 -0.015472 -0.0153422 -0.0155147 -0.0159898 -0.0163823 -0.0163073 -0.0157647 -0.0147546 -0.0132769 -0.0113316 -0.00891885 -0.00603851 -0.00186557 0.00442502 0.0128333 0.0233592 0.0360027 0.0507639 0.0676428 0.0866393 0.105616 0.122437 0.137101 0.149608 0.159958 0.168152 0.17419 0.178071 0.1807 0.182984 0.184922 0.186514 0.187761 0.188661 0.189216 0.189425 0.189278 0.188766 0.187887 0.186642 0.185031 0.183054 0.180711 0.178001 0.174036 0.167925 0.159667 0.149263 0.136713 0.122017 0.105175 0.0861865 0.067234 0.0504995 0.035983 0.0236845 0.0136041 0.00574166 9.72693e-05 -0.00332909 -0.00540318 -0.00699075 -0.00809179 -0.00870632 -0.00883433 -0.00847582 -0.00763079 -0.00629924 -0.00482286 -0.00354332 -0.00246064 -0.00157481 -0.000885831 -0.000393702 -9.84256e-05 0 0 3.13837e-06 1.25535e-05 2.82453e-05 5.02139e-05 7.84592e-05 0.000112981 0.00015378 0.000200855 0.000184078 3.33188e-05 -0.000251423 -0.000670147 -0.00122285 -0.00190954 -0.00273021 -0.00368486 -0.00466429 -0.00555929 -0.00636986 -0.007096 -0.0077377 -0.00829498 -0.00876783 -0.00915624 -0.00954936 -0.0100363 -0.0106171 -0.0112917 -0.0120602 -0.0129224 -0.0138786 -0.0149285 -0.01596