<?xml version="1.0"?> 
<VTKFile type="StructuredGrid" version="0.1"> 
<StructuredGrid WholeExtent="0 128 0 128 0 0"> 
<Piece Extent="0 128 0 128 0 0"> 
<PointData>
<DataArray type="Float32" Name="u" format="ascii" NumberOfComponents="1"> 
0 0 0 0 0 0 0 0 0 0 0 0 0 0 0 0 0 0 0 0 0 0 0 0 0 0 0 0 0 0 0 0 0 0 0 0 0 0 0 0 0 0 0 0 0 0 0 0 0 0 0 0 0 0 0 0 0 0 0 0 0 0 0 0 0 0 0 0 0 0 0 0 0 0 0 0 0 0 0 0 0 0 0 0 0 0 0 0 0 0 0 0 0 0 0 0 0 0 0 0 0 0 0 0 0 0 0 0 0 0 0 0 0 0 0 0 0 0 0 0 0 0 0 0 0 0 0 0 0 0 3.60138e-09 1.44055e-08 3.24124e-08 5.76221e-08 9.00345e-08 1.2965e-07 1.76468e-07 2.30488e-07 5.17022e-07 1.26138e-06 2.46356e-06 4.12356e-06 6.24139e-06 8.81704e-06 1.18505e-05 1.53418e-05 1.92179e-05 2.34058e-05 2.79054e-05 3.27169e-05 3.78401e-05 4.32751e-05 4.90218e-05 5.50804e-05 6.12317e-05 6.72569e-05 7.31561e-05 7.8929e-05 8.45759e-05 9.00966e-05 9.54912e-05 0.00010076 0.000105619 0.000109787 0.000113264 0.000116048 0.000118142 0.000119543 0.000120253 0.000120271 0.000119662 0.00011849 0.000116754 0.000114455 0.000111592 0.000108166 0.000104176 9.96233e-05 9.48697e-05 9.0278e-05 8.58483e-05 8.15806e-05 7.74748e-05 7.3531e-05 6.97491e-05 6.61292e-05 6.16705e-05 5.53722e-05 4.72342e-05 3.72567e-05 2.54395e-05 1.17827e-05 -3.71369e-06 -2.10497e-05 -4.03129e-05 -6.15908e-05 -8.48835e-05 -0.000110191 -0.000137513 -0.00016685 -0.000198202 -0.000231568 -0.000264936 -0.000296293 -0.000325638 -0.000352972 -0.000378294 -0.000401605 -0.000422905 -0.000442193 -0.000459338 -0.000474206 -0.000486798 -0.000497114 -0.000505154 -0.000510918 -0.000514406 -0.000515618 -0.000514524 -0.000511097 -0.000505336 -0.000497241 -0.000486812 -0.000474048 -0.000458951 -0.00044152 -0.000421948 -0.000400426 -0.000376956 -0.000351536 -0.000324167 -0.000294849 -0.000263583 -0.000230367 -0.000197394 -0.000166858 -0.000138758 -0.000113095 -8.98673e-05 -6.90762e-05 -5.07212e-05 -3.48026e-05 -2.12083e-05 -9.82656e-06 -6.57411e-07 6.29917e-06 1.10432e-05 1.35746e-05 1.38935e-05 1.19998e-05 9.18738e-06 6.74991e-06 4.68744e-06 2.99996e-06 1.68748e-06 7.4999e-07 1.87498e-07 0 0 1.44055e-08 5.76221e-08 1.2965e-07 2.30488e-07 3.60138e-07 5.18599e-07 7.05871e-07 9.21953e-07 2.06809e-06 5.04552e-06 9.85424e-06 1.64943e-05 2.49656e-05 3.52682e-05 4.7402e-05 6.13672e-05 7.68716e-05 9.36231e-05 0.000111622 0.000130867 0.00015136 0.0001731 0.000196087 0.000220321 0.000244927 0.000269028 0.000292624 0.000315716 0.000338303 0.000360386 0.000381965 0.000403038 0.000422477 0.000439149 0.000453054 0.000464193 0.000472566 0.000478172 0.000481012 0.000481086 0.000478649 0.000473959 0.000467016 0.000457818 0.000446367 0.000432663 0.000416705 0.000398493 0.000379479 0.000361112 0.000343393 0.000326322 0.000309899 0.000294124 0.000278996 0.000264517 0.000246682 0.000221489 0.000188937 0.000149027 0.000101758 4.71308e-05 -1.48548e-05 -8.41988e-05 -0.000161252 -0.000246363 -0.000339534 -0.000440764 -0.000550052 -0.0006674 -0.000792807 -0.000926272 -0.00105974 -0.00118517 -0.00130255 -0.00141189 -0.00151318 -0.00160642 -0.00169162 -0.00176877 -0.00183735 -0.00189682 -0.00194719 -0.00198846 -0.00202062 -0.00204367 -0.00205762 -0.00206247 -0.0020581 -0.00204439 -0.00202134 -0.00198896 -0.00194725 -0.00189619 -0.00183581 -0.00176608 -0.00168779 -0.00160171 -0.00150782 -0.00140614 -0.00129667 -0.0011794 -0.00105433 -0.000921467 -0.000789577 -0.000667433 -0.000555033 -0.000452379 -0.000359469 -0.000276305 -0.000202885 -0.00013921 -8.48331e-05 -3.93062e-05 -2.62964e-06 2.51967e-05 4.41728e-05 5.42986e-05 5.55741e-05 4.79994e-05 3.67495e-05 2.69997e-05 1.87498e-05 1.19998e-05 6.74991e-06 2.99996e-06 7.4999e-07 0 0 3.24124e-08 1.2965e-07 2.91712e-07 5.18599e-07 8.10311e-07 1.16685e-06 1.58821e-06 2.07439e-06 4.6532e-06 1.13524e-05 2.2172e-05 3.71121e-05 5.61725e-05 7.93534e-05 0.000106655 0.000138076 0.000172961 0.000210652 0.000251149 0.000294452 0.000340561 0.000389475 0.000441196 0.000495723 0.000551085 0.000605313 0.000658404 0.000710361 0.000761183 0.000810869 0.00085942 0.000906837 0.000950573 0.000988085 0.00101937 0.00104444 0.00106327 0.00107589 0.00108228 0.00108244 0.00107696 0.00106641 0.00105078 0.00103009 0.00100433 0.000973492 0.000937586 0.00089661 0.000853827 0.000812502 0.000772635 0.000734225 0.000697273 0.000661779 0.000627742 0.000595163 0.000555035 0.00049835 0.000425108 0.00033531 0.000228955 0.000106044 -3.34232e-05 -0.000189447 -0.000362816 -0.000554317 -0.000763952 -0.000991718 -0.00123762 -0.00150165 -0.00178381 -0.00208411 -0.00238443 -0.00266664 -0.00293074 -0.00317675 -0.00340465 -0.00361445 -0.00380614 -0.00397974 -0.00413404 -0.00426785 -0.00438118 -0.00447403 -0.00454639 -0.00459826 -0.00462965 -0.00464056 -0.00463072 -0.00459987 -0.00454802 -0.00447517 -0.0043813 -0.00426644 -0.00413056 -0.00397368 -0.00379753 -0.00360384 -0.0033926 -0.00316382 -0.00291751 -0.00265365 -0.00237224 -0.0020733 -0.00177655 -0.00150172 -0.00124883 -0.00101785 -0.000808806 -0.000621685 -0.000456491 -0.000313223 -0.000190874 -8.8439e-05 -5.9167e-06 5.66925e-05 9.93887e-05 0.000122172 0.000125042 0.000107999 8.26865e-05 6.07492e-05 4.2187e-05 2.69997e-05 1.51873e-05 6.74991e-06 1.68748e-06 0 0 5.76221e-08 2.30488e-07 5.18599e-07 9.21953e-07 1.44055e-06 2.07439e-06 2.82348e-06 3.68781e-06 8.27235e-06 2.01821e-05 3.94169e-05 6.5977e-05 9.98622e-05 0.000141073 0.000189608 0.000245469 0.000307486 0.000374492 0.000446487 0.00052347 0.000605441 0.000692401 0.000784349 0.000881286 0.000979707 0.00107611 0.0011705 0.00126286 0.00135321 0.00144155 0.00152786 0.00161215 0.00168991 0.0017566 0.00181222 0.00185677 0.00189026 0.00191269 0.00192405 0.00192434 0.0019146 0.00189584 0.00186806 0.00183127 0.00178547 0.00173065 0.00166682 0.00159397 0.00151791 0.00144445 0.00137357 0.00130529 0.0012396 0.0011765 0.00111599 0.00105807 0.000986728 0.000885955 0.000755748 0.000596107 0.000407032 0.000188523 -5.94191e-05 -0.000336795 -0.000645006 -0.000985453 -0.00135814 -0.00176305 -0.00220021 -0.0026696 -0.00317123 -0.00370509 -0.00423898 -0.00474068 -0.00521021 -0.00564755 -0.00605271 -0.00642569 -0.00676648 -0.00707509 -0.0073494 -0.00758729 -0.00778877 -0.00795383 -0.00808247 -0.00817469 -0.0082305 -0.00824988 -0.00823239 -0.00817755 -0.00808537 -0.00795585 -0.00778898 -0.00758478 -0.00734322 -0.00706433 -0.00675117 -0.00640682 -0.00603129 -0.00562458 -0.00518668 -0.00471759 -0.00421732 -0.00368587 -0.00315831 -0.00266973 -0.00222013 -0.00180952 -0.00143788 -0.00110522 -0.00081154 -0.000556841 -0.000339332 -0.000157225 -1.05186e-05 0.000100787 0.000176691 0.000217194 0.000222296 0.000191998 0.000146998 0.000107999 7.4999e-05 4.79994e-05 2.69997e-05 1.19998e-05 2.99996e-06 0 0 9.00345e-08 3.60138e-07 8.10311e-07 1.44055e-06 2.25086e-06 3.24124e-06 4.41169e-06 5.76221e-06 1.29256e-05 3.15345e-05 6.1589e-05 0.000103089 0.000156035 0.000220426 0.000296263 0.000383545 0.000480448 0.000585144 0.000697636 0.000817922 0.000946002 0.00108188 0.00122555 0.00137701 0.00153079 0.00168142 0.0018289 0.00197323 0.0021144 0.00225241 0.00238728 0.00251899 0.00264048 0.00274468 0.00283159 0.00290121 0.00295354 0.00298858 0.00300633 0.00300679 0.00299156 0.00296224 0.00291885 0.00286136 0.0027898 0.00270414 0.00260441 0.00249058 0.00237174 0.00225695 0.00214621 0.00203951 0.00193687 0.00183827 0.00174373 0.00165323 0.00154176 0.0013843 0.00118086 0.000931417 0.000635987 0.000294568 -9.28423e-05 -0.000526243 -0.00100782 -0.00153977 -0.00212209 -0.00275477 -0.00343783 -0.00417125 -0.00495504 -0.0057892 -0.0066234 -0.00740732 -0.00814095 -0.0088243 -0.00945736 -0.0100401 -0.0105726 -0.0110548 -0.0114834 -0.0118551 -0.01217 -0.0124279 -0.0126289 -0.012773 -0.0128601 -0.0128904 -0.0128631 -0.0127774 -0.0126334 -0.012431 -0.0121703 -0.0118512 -0.0114738 -0.011038 -0.0105487 -0.0100107 -0.00942389 -0.0087884 -0.00810418 -0.00737124 -0.00658956 -0.00575917 -0.00493486 -0.00417146 -0.00346896 -0.00282737 -0.00224668 -0.0017269 -0.00126803 -0.000870064 -0.000530207 -0.000245664 -1.64353e-05 0.000157479 0.00027608 0.000339366 0.000347338 0.000299996 0.000229685 0.000168748 0.000117186 7.4999e-05 4.2187e-05 1.87498e-05 4.68744e-06 0 0 1.2965e-07 5.18599e-07 1.16685e-06 2.07439e-06 3.24124e-06 4.66739e-06 6.35283e-06 8.29758e-06 1.86128e-05 4.54096e-05 8.86881e-05 0.000148448 0.00022469 0.000317413 0.000426618 0.000552305 0.000691845 0.000842608 0.0010046 0.00117781 0.00136224 0.0015579 0.00176479 0.00198289 0.00220434 0.00242125 0.00263362 0.00284144 0.00304473 0.00324348 0.00343768 0.00362735 0.00380229 0.00395234 0.00407749 0.00417774 0.0042531 0.00430355 0.00432911 0.00432977 0.00430784 0.00426563 0.00420314 0.00412036 0.00401731 0.00389397 0.00375034 0.00358644 0.00341531 0.00325001 0.00309054 0.0029369 0.00278909 0.00264711 0.00251097 0.00238065 0.00222014 0.0019934 0.00170043 0.00134124 0.000915822 0.000424177 -0.000133693 -0.000757789 -0.00145126 -0.00221727 -0.00305581 -0.00396687 -0.00495047 -0.0060066 -0.00713526 -0.00833645 -0.0095377 -0.0106665 -0.011723 -0.012707 -0.0136186 -0.0144578 -0.0152246 -0.015919 -0.0165362 -0.0170714 -0.0175247 -0.0178961 -0.0181856 -0.0183931 -0.0185186 -0.0185622 -0.0185229 -0.0183995 -0.0181921 -0.0179007 -0.0175252 -0.0170657 -0.0165223 -0.0158947 -0.0151901 -0.0144153 -0.0135704 -0.0126553 -0.01167 -0.0106146 -0.00948897 -0.0082932 -0.0071062 -0.0060069 -0.0049953 -0.00407141 -0.00323522 -0.00248674 -0.00182596 -0.00125289 -0.000763498 -0.000353756 -2.36668e-05 0.00022677 0.000397555 0.000488687 0.000500167 0.000431995 0.000330746 0.000242997 0.000168748 0.000107999 6.07492e-05 2.69997e-05 6.74991e-06 0 0 1.76468e-07 7.05871e-07 1.58821e-06 2.82348e-06 4.41169e-06 6.35283e-06 8.64691e-06 1.12939e-05 2.53341e-05 6.18076e-05 0.000120714 0.000202055 0.000305828 0.000432035 0.000580675 0.000751749 0.000941677 0.00114688 0.00136737 0.00160313 0.00185416 0.00212048 0.00240207 0.00269894 0.00300035 0.00329559 0.00358465 0.00386752 0.00414422 0.00441473 0.00467907 0.00493722 0.00517534 0.00537957 0.00554992 0.00568637 0.00578894 0.00585761 0.0058924 0.0058933 0.00586345 0.005806 0.00572094 0.00560827 0.005468 0.00530012 0.00510463 0.00488154 0.00464861 0.00442362 0.00420657 0.00399745 0.00379626 0.00360302 0.00341771 0.00324033 0.00302185 0.00271324 0.00231448 0.00182558 0.00124654 0.000577353 -0.000181971 -0.00103144 -0.00197533 -0.00301795 -0.00415929 -0.00539936 -0.00673814 -0.00817565 -0.00971188 -0.0113468 -0.0129819 -0.0145183 -0.0159563 -0.0172956 -0.0185364 -0.0196787 -0.0207223 -0.0216675 -0.0225075 -0.0232361 -0.0238531 -0.0243586 -0.0247526 -0.025035 -0.0252059 -0.0252653 -0.0252117 -0.0250438 -0.0247615 -0.0243648 -0.0238538 -0.0232284 -0.0224886 -0.0216345 -0.0206754 -0.0196209 -0.0184708 -0.0172253 -0.0158842 -0.0144476 -0.0129155 -0.011288 -0.00967232 -0.00817605 -0.00679916 -0.00554164 -0.0044035 -0.00338473 -0.00248534 -0.00170533 -0.00103921 -0.000481501 -3.22132e-05 0.000308659 0.000541116 0.000665157 0.000680783 0.000587993 0.000450182 0.000330746 0.000229685 0.000146998 8.26865e-05 3.67495e-05 9.18738e-06 0 0 2.30488e-07 9.21953e-07 2.07439e-06 3.68781e-06 5.76221e-06 8.29758e-06 1.12939e-05 1.47513e-05 3.30894e-05 8.07283e-05 0.000157668 0.000263908 0.000399449 0.000564291 0.000758433 0.000981876 0.00122995 0.00149797 0.00178595 0.00209388 0.00242176 0.0027696 0.0031374 0.00352514 0.00391883 0.00430444 0.00468199 0.00505146 0.00541286 0.00576618 0.00611143 0.00644862 0.00675963 0.00702638 0.00724887 0.00742709 0.00756106 0.00765076 0.0076962 0.00769737 0.00765839 0.00758335 0.00747225 0.00732509 0.00714188 0.00692261 0.00666728 0.00637589 0.00607166 0.00577779 0.00549429 0.00522116 0.00495839 0.00470598 0.00446394 0.00423227 0.00394691 0.00354382 0.00302299 0.00238443 0.00162813 0.000754093 -0.000237676 -0.00134718 -0.00258003 -0.00394181 -0.00543254 -0.00705222 -0.00880084 -0.0106784 -0.0126849 -0.0148204 -0.0169559 -0.0189627 -0.0208408 -0.0225902 -0.0242108 -0.0257027 -0.0270659 -0.0283004 -0.0293976 -0.0303492 -0.0311551 -0.0318153 -0.0323299 -0.0326988 -0.032922 -0.0329995 -0.0329296 -0.0327102 -0.0323415 -0.0318234 -0.0311559 -0.0303391 -0.0293729 -0.0282573 -0.0270047 -0.0256273 -0.0241252 -0.0224983 -0.0207467 -0.0188704 -0.0168693 -0.0147435 -0.0126332 -0.0106789 -0.00888053 -0.00723806 -0.00575151 -0.00442087 -0.00324616 -0.00222736 -0.00135733 -0.0006289 -4.20743e-05 0.000403147 0.000706764 0.000868777 0.000889186 0.00076799 0.000587993 0.000431995 0.000299996 0.000191998 0.000107999 4.79994e-05 1.19998e-05 0 0 4.53275e-07 1.8131e-06 4.07948e-06 7.2524e-06 1.13319e-05 1.63179e-05 2.22105e-05 2.90096e-05 5.30975e-05 0.000110856 0.000202286 0.000327387 0.000486158 0.000678601 0.000904714 0.0011645 0.00145219 0.00176203 0.002094 0.00244813 0.00282439 0.0032228 0.00364336 0.00408605 0.00453578 0.00497743 0.00541099 0.00583647 0.00625387 0.00666319 0.00706442 0.00745758 0.00782071 0.00813188 0.00839108 0.00859833 0.00875362 0.00885694 0.0089083 0.0089077 0.00886057 0.00877231 0.00864293 0.00847244 0.00826083 0.00800809 0.00771424 0.00737927 0.00702977 0.00669233 0.00636694 0.0060536 0.00575232 0.0054631 0.00518593 0.00492081 0.00459013 0.00411626 0.00349921 0.00273897 0.00183554 0.000788921 -0.000400882 -0.00173387 -0.00321165 -0.0048358 -0.00660633 -0.00852325 -0.0105865 -0.0127962 -0.0151523 -0.0176547 -0.0201576 -0.0225151 -0.0247271 -0.0267937 -0.0287148 -0.0304905 -0.0321208 -0.0336056 -0.0349298 -0.0360781 -0.0370506 -0.0378472 -0.0384681 -0.038913 -0.0391822 -0.0392755 -0.0391908 -0.0389259 -0.0384808 -0.0378556 -0.0370502 -0.0360647 -0.034899 -0.0335531 -0.0320469 -0.0304003 -0.0286132 -0.0266857 -0.0246178 -0.0224094 -0.0200606 -0.0175713 -0.0151007 -0.0128075 -0.010692 -0.00875394 -0.00699348 -0.00541058 -0.00400523 -0.00277744 -0.00172351 -0.000839752 -0.000126157 0.00041727 0.00079053 0.000993622 0.00102655 0.000889305 0.000680874 0.000500234 0.000347385 0.000222326 0.000125058 5.55815e-05 1.38954e-05 0 0 1.00639e-06 4.02556e-06 9.05752e-06 1.61023e-05 2.51598e-05 3.62301e-05 4.93132e-05 6.4409e-05 9.65769e-05 0.000160876 0.000257307 0.000385868 0.000546562 0.000739386 0.000964342 0.00122143 0.00150395 0.00180521 0.0021252 0.00246393 0.0028214 0.0031976 0.00359254 0.00400622 0.00442722 0.00484416 0.00525701 0.00566579 0.00607049 0.00647112 0.00686767 0.00726015 0.00762412 0.00793517 0.00819329 0.00839849 0.00855076 0.0086501 0.00869652 0.00869001 0.0086379 0.00854752 0.00841886 0.00825193 0.00804673 0.00780325 0.0075215 0.00720148 0.00686829 0.00654704 0.00623773 0.00594036 0.00565494 0.00538145 0.00511991 0.0048703 0.00454633 0.00406169 0.00341637 0.00261037 0.0016437 0.000516358 -0.000771662 -0.00222036 -0.0038165 -0.00554686 -0.00741143 -0.00941023 -0.0115432 -0.0138105 -0.0162119 -0.0187476 -0.0212848 -0.0236907 -0.0259655 -0.028109 -0.0301213 -0.0320025 -0.0337524 -0.0353711 -0.0368274 -0.0380902 -0.0391596 -0.0400354 -0.0407177 -0.0412065 -0.0415017 -0.0416035 -0.0415096 -0.0412178 -0.0407281 -0.0400406 -0.0391552 -0.0380719 -0.0367908 -0.0353117 -0.0336712 -0.0319055 -0.0300147 -0.0279987 -0.0258576 -0.0235913 -0.0211998 -0.0186832 -0.0161863 -0.0138539 -0.011686 -0.00968256 -0.00784366 -0.00616927 -0.00465938 -0.003314 -0.0021434 -0.00115786 -0.000357368 0.000258066 0.000688445 0.000933769 0.000994038 0.000869253 0.000665522 0.000488955 0.000339552 0.000217313 0.000122239 5.43283e-05 1.35821e-05 0 0 1.88984e-06 7.55934e-06 1.70085e-05 3.02374e-05 4.72459e-05 6.80341e-05 9.2602e-05 0.00012095 0.000163528 0.000230788 0.00032273 0.000439354 0.000580659 0.000746647 0.000937316 0.00115267 0.00138522 0.00162752 0.00187954 0.00214129 0.00241278 0.002694 0.00298495 0.00328563 0.00359316 0.00390463 0.00422004 0.00453941 0.00486272 0.00518998 0.00552118 0.00585633 0.00616988 0.00643627 0.0066555 0.00682758 0.00695249 0.00703025 0.00706085 0.00704429 0.0069904 0.00690898 0.00680004 0.00666357 0.00649959 0.00630808 0.00608905 0.0058425 0.0055872 0.00534192 0.00510667 0.00488144 0.00466623 0.00446104 0.00426588 0.00408074 0.00381552 0.00338009 0.00277447 0.00199864 0.00105262 -6.35971e-05 -0.00135001 -0.00280663 -0.00439458 -0.00607498 -0.00784784 -0.00971316 -0.0116709 -0.0137212 -0.0158639 -0.018099 -0.0203374 -0.0224897 -0.024556 -0.0265362 -0.0284304 -0.0302386 -0.0319607 -0.0335968 -0.0350906 -0.0363856 -0.037482 -0.0383797 -0.0390787 -0.039579 -0.0398807 -0.0399836 -0.039886 -0.0395859 -0.0390834 -0.0383783 -0.0374708 -0.0363608 -0.0350483 -0.0335333 -0.0318776 -0.0301431 -0.0283296 -0.0264373 -0.0244661 -0.022416 -0.020287 -0.0180791 -0.0158901 -0.013818 -0.0118625 -0.0100239 -0.00830203 -0.00669693 -0.0052086 -0.00383704 -0.00261699 -0.00158322 -0.000735708 -7.4466e-05 0.000400509 0.000689218 0.000791659 0.000707834 0.000541936 0.000398157 0.000276498 0.000176959 9.95392e-05 4.42396e-05 1.10599e-05 0 0 3.10361e-06 1.24144e-05 2.79325e-05 4.96578e-05 7.75903e-05 0.00011173 0.000152077 0.000198631 0.00025395 0.000320592 0.000398556 0.000487842 0.000588451 0.000700382 0.000823636 0.000958212 0.00109602 0.00122895 0.00135701 0.00148021 0.00159854 0.00171199 0.00182058 0.0019243 0.00203358 0.00215884 0.00230009 0.00245733 0.00263055 0.00281976 0.00302495 0.00324613 0.00345798 0.00363517 0.00377771 0.00388559 0.00395881 0.00399738 0.00400129 0.00397055 0.00391805 0.00385669 0.00378646 0.00370736 0.00361941 0.00352258 0.0034169 0.00330235 0.00318652 0.00307699 0.00297376 0.00287683 0.0027862 0.00270188 0.00262385 0.00255213 0.00239768 0.00207147 0.00157351 0.000903781 6.2298e-05 -0.000950943 -0.00213594 -0.0034927 -0.00494588 -0.00642017 -0.00791555 -0.00943203 -0.0109696 -0.0125283 -0.0141081 -0.0157089 -0.0173154 -0.018912 -0.0204986 -0.0220753 -0.0236421 -0.0251989 -0.0267458 -0.0282828 -0.0297192 -0.0309642 -0.0320179 -0.0328802 -0.0335512 -0.0340307 -0.034319 -0.0344159 -0.0343201 -0.0340303 -0.0335465 -0.0328688 -0.031997 -0.0309312 -0.0296715 -0.0282177 -0.0266662 -0.0251129 -0.0235581 -0.0220016 -0.0204434 -0.0188836 -0.0173221 -0.015759 -0.0142122 -0.0126998 -0.0112217 -0.00977798 -0.0083686 -0.00699357 -0.00565288 -0.00434655 -0.00314429 -0.00211583 -0.00126118 -0.000580325 -7.32769e-05 0.000259968 0.00041941 0.000405049 0.000310116 0.00022784 0.000158222 0.000101262 5.69601e-05 2.53156e-05 6.3289e-06 0 0 4.64771e-06 1.85909e-05 4.18294e-05 7.43634e-05 0.000116193 0.000167318 0.000227738 0.000297454 0.000367844 0.000430287 0.000484784 0.000531333 0.000569937 0.000600593 0.000623303 0.000638065 0.000636321 0.000609509 0.00055763 0.000480683 0.000378669 0.000251587 9.94381e-05 -7.77786e-05 -0.000251508 -0.000393197 -0.000502843 -0.000580449 -0.000626012 -0.000639535 -0.000621015 -0.000570454 -0.000511583 -0.00046813 -0.000440096 -0.000427481 -0.000430286 -0.000448509 -0.000482152 -0.000531213 -0.000579135 -0.000609356 -0.000621878 -0.000616699 -0.000593821 -0.000553243 -0.000494964 -0.000418986 -0.00033377 -0.000247778 -0.00016101 -7.34663e-05 1.48537e-05 0.00010395 0.000193822 0.00028447 0.000292829 0.000135834 -0.000186514 -0.000674216 -0.00132727 -0.00214568 -0.00312944 -0.00427856 -0.00547042 -0.00658243 -0.00761457 -0.00856686 -0.00943929 -0.0102319 -0.0109446 -0.0115774 -0.0122189 -0.0129575 -0.0137933 -0.0147262 -0.0157562 -0.0168834 -0.0181077 -0.0194291 -0.0207134 -0.0218261 -0.0227673 -0.0235369 -0.024135 -0.0245616 -0.0248167 -0.0249002 -0.0248118 -0.0245509 -0.0241176 -0.0235119 -0.0227338 -0.0217833 -0.0206604 -0.0193651 -0.0180368 -0.0168151 -0.0157 -0.0146914 -0.0137894 -0.012994 -0.0123052 -0.0117229 -0.0111525 -0.0104993 -0.00976345 -0.00894479 -0.00804337 -0.00705918 -0.00599224 -0.00484254 -0.00372529 -0.0027557 -0.00193377 -0.00125951 -0.000732914 -0.00035398 -0.000122709 -3.91016e-05 -2.99372e-05 -2.19947e-05 -1.52741e-05 -9.77541e-06 -5.49867e-06 -2.44385e-06 -6.10963e-07 0 0 6.52215e-06 2.60886e-05 5.86993e-05 0.000104354 0.000163054 0.000234797 0.000319585 0.000417417 0.000505209 0.000559875 0.000581414 0.000569828 0.000525116 0.000447279 0.000336315 0.000192226 6.14239e-06 -0.000230804 -0.000518614 -0.000857287 -0.00124682 -0.00168722 -0.00217848 -0.00272061 -0.00326211 -0.00375149 -0.00418876 -0.00457392 -0.00490697 -0.0051879 -0.00541672 -0.00559343 -0.0057388 -0.00587363 -0.0059979 -0.00611162 -0.00621479 -0.00630741 -0.00638948 -0.006461 -0.00650116 -0.00648915 -0.00642497 -0.00630861 -0.00614009 -0.0059194 -0.00564653 -0.0053215 -0.00497366 -0.00463237 -0.00429763 -0.00396945 -0.00364782 -0.00333274 -0.00302421 -0.00272224 -0.00249904 -0.00242682 -0.00250559 -0.00273535 -0.00311608 -0.00364781 -0.00433052 -0.00516421 -0.00596819 -0.00656175 -0.0069449 -0.00711764 -0.00707996 -0.00683186 -0.00637335 -0.00570442 -0.00504786 -0.00462643 -0.00444013 -0.00448898 -0.00477295 -0.00529206 -0.00604631 -0.00703569 -0.00807304 -0.00897118 -0.00973011 -0.0103498 -0.0108303 -0.0111717 -0.0113738 -0.0114366 -0.0113611 -0.0111477 -0.0107967 -0.0103079 -0.00968134 -0.00891706 -0.00801504 -0.00697528 -0.00598953 -0.00524955 -0.00475534 -0.00450689 -0.00450421 -0.00474729 -0.00523615 -0.00597077 -0.00671099 -0.00721666 -0.00748777 -0.00752433 -0.00732633 -0.00689378 -0.00622667 -0.00532501 -0.00435999 -0.00350282 -0.0027535 -0.00211203 -0.0015784 -0.00115263 -0.000834698 -0.000624619 -0.000478224 -0.000351348 -0.000243992 -0.000156155 -8.78371e-05 -3.90387e-05 -9.75967e-06 0 0 8.72691e-06 3.49076e-05 7.85422e-05 0.000139631 0.000218173 0.000314169 0.000427619 0.000558522 0.000666045 0.000709354 0.000688447 0.000603326 0.00045399 0.00024044 -3.73255e-05 -0.000379306 -0.000794521 -0.00129199 -0.00187172 -0.0025337 -0.00327794 -0.00410443 -0.00501318 -0.00600418 -0.00699821 -0.00791604 -0.00875767 -0.0095231 -0.0102123 -0.0108253 -0.0113622 -0.0118228 -0.0122237 -0.0125813 -0.0128957 -0.0131668 -0.0133947 -0.0135793 -0.0137207 -0.0138188 -0.013848 -0.0137827 -0.0136228 -0.0133684 -0.0130194 -0.0125759 -0.0120378 -0.0114052 -0.0107331 -0.0100768 -0.0094361 -0.00881111 -0.00820181 -0.00760819 -0.00703026 -0.00646801 -0.00597793 -0.0056165 -0.00538373 -0.00527961 -0.00530414 -0.00545733 -0.00573916 -0.00614965 -0.00643919 -0.00635815 -0.00590654 -0.00508436 -0.00389162 -0.0023283 -0.000394412 0.00191004 0.00419775 0.00608137 0.00756092 0.00863639 0.00930778 0.00957509 0.00943833 0.00889749 0.0082018 0.0076005 0.00709359 0.00668106 0.00636292 0.00613916 0.0060098 0.00597481 0.00603201 0.00617918 0.00641632 0.00674344 0.00716052 0.00766758 0.00826461 0.00895161 0.00947563 0.0095837 0.00927583 0.00855202 0.00741226 0.00585656 0.00388492 0.00149733 -0.000887707 -0.00285171 -0.00439467 -0.0055166 -0.0062175 -0.00649735 -0.00635617 -0.00579395 -0.00504839 -0.00435719 -0.00372035 -0.00313787 -0.00260974 -0.00213597 -0.00171656 -0.0013515 -0.00103474 -0.00076022 -0.000527931 -0.000337876 -0.000190055 -8.44689e-05 -2.11172e-05 0 0 1.1262e-05 4.5048e-05 0.000101358 0.000180192 0.00028155 0.000405432 0.000551838 0.000720768 0.000850353 0.000878725 0.000805883 0.000631828 0.000356559 -1.99239e-05 -0.00049762 -0.00107653 -0.00176567 -0.00257405 -0.00350168 -0.00454856 -0.00571468 -0.00700004 -0.00840465 -0.00992851 -0.0114598 -0.0128869 -0.0142096 -0.015428 -0.0165421 -0.0175519 -0.0184574 -0.0192585 -0.0199662 -0.0205912 -0.0211335 -0.0215931 -0.0219701 -0.0222643 -0.0224758 -0.0226047 -0.0226197 -0.02249 -0.0222154 -0.021796 -0.0212318 -0.0205227 -0.0196688 -0.0186701 -0.0176122 -0.016581 -0.0155764 -0.0145985 -0.0136471 -0.0127224 -0.0118243 -0.0109528 -0.0101438 -0.0094332 -0.00882093 -0.00830701 -0.00789145 -0.00757424 -0.00735539 -0.00723489 -0.00688341 -0.00597161 -0.00449949 -0.00246704 0.000125733 0.00327883 0.00699224 0.011266 0.0155179 0.0191659 0.0222099 0.0246499 0.026486 0.0277181 0.0283462 0.0283704 0.0281111 0.0278889 0.0277038 0.0275558 0.0274448 0.0273708 0.027334 0.0273342 0.0273675 0.0274299 0.0275214 0.027642 0.0277917 0.0279706 0.0281785 0.0284156 0.0283587 0.0276847 0.0263935 0.0244853 0.02196 0.0188176 0.015058 0.0106814 0.00631736 0.0025955 -0.000484157 -0.00292161 -0.00471686 -0.0058699 -0.00638074 -0.00624937 -0.0057905 -0.00531882 -0.00483433 -0.00433704 -0.00382693 -0.00330401 -0.00276829 -0.00221975 -0.0016995 -0.00124861 -0.000867091 -0.000554938 -0.000312153 -0.000138735 -3.46836e-05 0 0 1.28983e-05 5.15931e-05 0.000116084 0.000206372 0.000322457 0.000464338 0.000632015 0.000825489 0.000964691 0.000969553 0.000840076 0.000576258 0.0001781 -0.000354397 -0.00102124 -0.00182241 -0.00276167 -0.00384274 -0.00506563 -0.00643033 -0.00793685 -0.00958519 -0.0113753 -0.0133073 -0.0152507 -0.0170751 -0.0187805 -0.020367 -0.0218344 -0.0231829 -0.0244124 -0.025523 -0.0265144 -0.0273867 -0.0281398 -0.0287738 -0.0292885 -0.0296841 -0.0299605 -0.0301177 -0.0301191 -0.0299278 -0.0295438 -0.0289673 -0.028198 -0.0272362 -0.0260817 -0.0247346 -0.0233197 -0.0219617 -0.0206608 -0.0194169 -0.01823 -0.0171001 -0.0160273 -0.0150114 -0.0140385 -0.0130944 -0.0121793 -0.0112931 -0.0104357 -0.00960724 -0.00880767 -0.00803698 -0.00687807 -0.00491382 -0.00214423 0.00143069 0.00581096 0.0109966 0.0169875 0.0237838 0.0305551 0.0364712 0.0415321 0.0457377 0.0490881 0.0515832 0.0532231 0.0540078 0.0543441 0.0546391 0.0548925 0.0551046 0.0552753 0.0554045 0.0554924 0.0555388 0.0555377 0.0554831 0.055375 0.0552134 0.0549983 0.0547297 0.0544076 0.0540319 0.0531961 0.0514934 0.0489237 0.0454873 0.0411839 0.0360137 0.0299765 0.0230725 0.0161921 0.0102256 0.00517301 0.00103441 -0.00219024 -0.00450094 -0.00589769 -0.00638048 -0.00635403 -0.00622304 -0.00598752 -0.00564746 -0.00520286 -0.00465373 -0.00400007 -0.00324187 -0.00248206 -0.00182355 -0.00126636 -0.000810467 -0.000455888 -0.000202617 -5.06542e-05 0 0 1.24065e-05 4.96262e-05 0.000111659 0.000198505 0.000310164 0.000446636 0.000607921 0.000794019 0.000915618 0.000883405 0.00069738 0.000357543 -0.000136105 -0.000783565 -0.00158484 -0.00253992 -0.00363689 -0.0048638 -0.00622067 -0.0077075 -0.00932427 -0.011071 -0.0129477 -0.0149543 -0.0169745 -0.018892 -0.0207067 -0.0224186 -0.0240277 -0.025534 -0.0269376 -0.0282384 -0.0294163 -0.0304512 -0.0313431 -0.032092 -0.0326978 -0.0331607 -0.0334805 -0.0336573 -0.0336488 -0.0334128 -0.0329492 -0.0322579 -0.0313391 -0.0301928 -0.0288188 -0.0272173 -0.0255642 -0.0240356 -0.0226315 -0.0213519 -0.0201968 -0.0191662 -0.0182601 -0.0174784 -0.0167036 -0.0158178 -0.014821 -0.0137133 -0.0124946 -0.011165 -0.00972449 -0.00817298 -0.00600037 -0.00269647 0.00173872 0.00730518 0.0140029 0.021832 0.0307923 0.0408839 0.0509519 0.0598416 0.067553 0.074086 0.0794406 0.0836169 0.0866148 0.0884344 0.0895899 0.0905957 0.0914518 0.0921581 0.0927146 0.0931214 0.0933785 0.0934859 0.0934351 0.0932177 0.0928337 0.0922833 0.0915662 0.0906826 0.0896324 0.0884157 0.0865242 0.0834498 0.0791925 0.0737522 0.067129 0.0593228 0.0503337 0.0401617 0.0300243 0.0211391 0.0135061 0.0071252 0.00199651 -0.00187999 -0.00450432 -0.00587647 -0.00650667 -0.00690518 -0.00707197 -0.00700706 -0.00671044 -0.00618212 -0.00542209 -0.00443035 -0.00339199 -0.00249207 -0.00173061 -0.00110759 -0.000623018 -0.000276897 -6.92243e-05 0 0 9.78684e-06 3.91474e-05 8.80815e-05 0.000156589 0.000244671 0.000352326 0.000479555 0.000626358 0.000703133 0.000620279 0.000377796 -2.43164e-05 -0.000586057 -0.00130743 -0.00218843 -0.00322905 -0.00439132 -0.00563725 -0.00696682 -0.00838005 -0.00987694 -0.0114575 -0.0131217 -0.0148695 -0.0166313 -0.0183375 -0.0199879 -0.0215827 -0.0231218 -0.0246051 -0.0260328 -0.0274048 -0.0286719 -0.0297847 -0.0307434 -0.0315478 -0.032198 -0.032694 -0.0330358 -0.0332234 -0.033209 -0.032945 -0.0324314 -0.031668 -0.030655 -0.0293924 -0.0278801 -0.0261181 -0.0243458 -0.0228026 -0.0214885 -0.0204034 -0.0195474 -0.0189205 -0.0185227 -0.0183539 -0.0181391 -0.0176031 -0.016746 -0.0155677 -0.0140683 -0.0122476 -0.0101058 -0.0076429 -0.0042503 0.000680459 0.00714937 0.0151564 0.0247016 0.035785 0.0484065 0.0625662 0.0767083 0.0892771 0.100273 0.109695 0.117544 0.123819 0.128521 0.13165 0.133849 0.135759 0.137381 0.138716 0.139763 0.140522 0.140992 0.141176 0.14106 0.140634 0.139898 0.138852 0.137495 0.135829 0.133853 0.131567 0.128343 0.123554 0.1172 0.10928 0.0997952 0.0887451 0.0761297 0.061949 0.0478141 0.0353361 0.024515 0.0153508 0.00784342 0.00199295 -0.00220064 -0.00473734 -0.00624845 -0.00736523 -0.0080877 -0.00841584 -0.00834966 -0.00788916 -0.00703434 -0.0057852 -0.0044293 -0.00325418 -0.00225984 -0.0014463 -0.000813544 -0.000361575 -9.03938e-05 0 0 5.03915e-06 2.01566e-05 4.53523e-05 8.06264e-05 0.000125979 0.000181409 0.000246918 0.000322505 0.000327236 0.000180175 -0.000118677 -0.000569321 -0.00117176 -0.00192598 -0.002832 -0.00388981 -0.00502498 -0.00616307 -0.00730407 -0.008448 -0.00959485 -0.0107446 -0.0118973 -0.0130529 -0.0142211 -0.0154116 -0.0166244 -0.0178594 -0.0191167 -0.0203963 -0.0216981 -0.0230223 -0.0242811 -0.0253872 -0.0263406 -0.0271412 -0.027789 -0.0282841 -0.0286264 -0.0288159 -0.0287997 -0.0285245 -0.0279905 -0.0271975 -0.0261457 -0.024835 -0.0232655 -0.021437 -0.0196645 -0.0182628 -0.0172317 -0.0165715 -0.016282 -0.0163632 -0.0168152 -0.0176379 -0.0183451 -0.0184506 -0.0179543 -0.0168563 -0.0151565 -0.012855 -0.00995175 -0.00644674 -0.00162787 0.00521695 0.0140877 0.0249844 0.0379071 0.0528557 0.0698303 0.0888308 0.107824 0.124778 0.139691 0.152564 0.163397 0.17219 0.178943 0.183655 0.18712 0.190129 0.192682 0.194779 0.19642 0.197605 0.198334 0.198608 0.198411 0.197731 0.196566 0.194918 0.192786 0.19017 0.18707 0.183486 0.178653 0.171806 0.162945 0.152071 0.139183 0.12428 0.107364 0.0884343 0.0695614 0.0528166 0.0381998 0.0257111 0.0153505 0.00711789 0.00101336 -0.0029631 -0.00557934 -0.00760321 -0.00903469 -0.0098738 -0.0101205 -0.00977487 -0.00883683 -0.00730642 -0.00559398 -0.00410986 -0.00285407 -0.0018266 -0.00102747 -0.000456651 -0.000114163 0 0 -1.83653e-06 -7.34611e-06 -1.65287e-05 -2.93844e-05 -4.59132e-05 -6.6115e-05 -8.99898e-05 -0.000117538 -0.000212072 -0.000436905 -0.000792039 -0.00127747 -0.0018932 -0.00263923 -0.00351557 -0.0045222 -0.00553785 -0.00644126 -0.00723243 -0.00791134 -0.00847801 -0.00893244 -0.00927462 -0.00950455 -0.00974391 -0.0101144 -0.010616 -0.0112487 -0.0120125 -0.0129074 -0.0139335 -0.0150907 -0.016244 -0.0172588 -0.0181348 -0.0188722 -0.0194709