<?xml version="1.0"?> 
<VTKFile type="StructuredGrid" version="0.1"> 
<StructuredGrid WholeExtent="0 128 0 128 0 0"> 
<Piece Extent="0 128 0 128 0 0"> 
<PointData>
<DataArray type="Float32" Name="u" format="ascii" NumberOfComponents="1"> 
0 0 0 0 0 0 0 0 0 0 0 0 0 0 0 0 0 0 0 0 0 0 0 0 0 0 0 0 0 0 0 0 0 0 0 0 0 0 0 0 0 0 0 0 0 0 0 0 0 0 0 0 0 0 0 0 0 0 0 0 0 0 0 0 0 0 0 0 0 0 0 0 0 0 0 0 0 0 0 0 0 0 0 0 0 0 0 0 0 0 0 0 0 0 0 0 0 0 0 0 0 0 0 0 0 0 0 0 0 0 0 0 0 0 0 0 0 0 0 0 0 0 0 0 0 0 0 0 0 0 -3.12202e-08 -1.24881e-07 -2.80982e-07 -4.99523e-07 -7.80505e-07 -1.12393e-06 -1.52979e-06 -1.99809e-06 -2.39486e-06 -2.58613e-06 -2.57188e-06 -2.35213e-06 -1.92688e-06 -1.29612e-06 -4.59847e-07 5.81928e-07 2.29793e-06 5.15689e-06 9.1588e-06 1.43037e-05 2.05915e-05 2.80222e-05 3.65959e-05 4.63126e-05 5.60369e-05 6.46335e-05 7.21024e-05 7.84436e-05 8.3657e-05 8.77428e-05 9.07009e-05 9.25312e-05 9.37326e-05 9.48037e-05 9.57444e-05 9.65548e-05 9.7235e-05 9.77848e-05 9.82043e-05 9.84935e-05 9.85828e-05 9.84026e-05 9.79529e-05 9.72336e-05 9.62448e-05 9.49866e-05 9.34588e-05 9.16615e-05 8.93043e-05 8.60969e-05 8.20392e-05 7.71312e-05 7.1373e-05 6.47645e-05 5.73058e-05 4.89968e-05 4.06468e-05 3.30651e-05 2.62516e-05 2.02064e-05 1.49294e-05 1.04207e-05 6.68024e-06 3.70803e-06 -5.02192e-07 -7.95669e-06 -1.86555e-05 -3.25985e-05 -4.97859e-05 -7.02175e-05 -9.38933e-05 -0.000120814 -0.000147723 -0.000171366 -0.000191742 -0.000208853 -0.000222697 -0.000233275 -0.000240586 -0.000244632 -0.00024689 -0.00024884 -0.000250481 -0.000251815 -0.00025284 -0.000253557 -0.000253966 -0.000254067 -0.000253879 -0.000253422 -0.000252696 -0.0002517 -0.000250436 -0.000248903 -0.0002471 -0.000245028 -0.000241143 -0.000233902 -0.000223303 -0.000209347 -0.000192034 -0.000171364 -0.000147337 -0.000119953 -9.26004e-05 -6.8667e-05 -4.81531e-05 -3.10585e-05 -1.73833e-05 -7.12756e-06 -2.91185e-07 3.12579e-06 4.64858e-06 5.80243e-06 6.58731e-06 7.00325e-06 7.05023e-06 6.72825e-06 6.03732e-06 4.97744e-06 3.81085e-06 2.79981e-06 1.94431e-06 1.24436e-06 6.99952e-07 3.1109e-07 7.77725e-08 0 0 -1.24881e-07 -4.99523e-07 -1.12393e-06 -1.99809e-06 -3.12202e-06 -4.49571e-06 -6.11916e-06 -7.99237e-06 -9.57945e-06 -1.03445e-05 -1.02875e-05 -9.40853e-06 -7.70751e-06 -5.18446e-06 -1.83939e-06 2.32771e-06 9.19173e-06 2.06275e-05 3.66352e-05 5.72146e-05 8.23659e-05 0.000112089 0.000146384 0.00018525 0.000224148 0.000258534 0.00028841 0.000313774 0.000334628 0.000350971 0.000362804 0.000370125 0.00037493 0.000379215 0.000382978 0.000386219 0.00038894 0.000391139 0.000392817 0.000393974 0.000394331 0.00039361 0.000391811 0.000388934 0.000384979 0.000379946 0.000373835 0.000366646 0.000357217 0.000344387 0.000328157 0.000308525 0.000285492 0.000259058 0.000229223 0.000195987 0.000162587 0.00013226 0.000105006 8.08256e-05 5.97177e-05 4.16828e-05 2.6721e-05 1.48321e-05 -2.00877e-06 -3.18268e-05 -7.46219e-05 -0.000130394 -0.000199143 -0.00028087 -0.000375573 -0.000483254 -0.000590891 -0.000685462 -0.000766969 -0.00083541 -0.000890787 -0.000933098 -0.000962345 -0.000978526 -0.000987558 -0.000995358 -0.00100192 -0.00100726 -0.00101136 -0.00101423 -0.00101586 -0.00101627 -0.00101552 -0.00101369 -0.00101078 -0.0010068 -0.00100174 -0.00099561 -0.0009884 -0.000980113 -0.000964574 -0.000935606 -0.000893211 -0.000837387 -0.000768136 -0.000685456 -0.000589348 -0.000479813 -0.000370402 -0.000274668 -0.000192612 -0.000124234 -6.95333e-05 -2.85102e-05 -1.16474e-06 1.25032e-05 1.85943e-05 2.32097e-05 2.63493e-05 2.8013e-05 2.82009e-05 2.6913e-05 2.41493e-05 1.99098e-05 1.52434e-05 1.11992e-05 7.77725e-06 4.97744e-06 2.79981e-06 1.24436e-06 3.1109e-07 0 0 -2.80982e-07 -1.12393e-06 -2.52884e-06 -4.49571e-06 -7.02454e-06 -1.01153e-05 -1.37681e-05 -1.79828e-05 -2.15538e-05 -2.32751e-05 -2.31469e-05 -2.11692e-05 -1.73419e-05 -1.1665e-05 -4.13862e-06 5.23735e-06 2.06814e-05 4.6412e-05 8.24292e-05 0.000128733 0.000185323 0.0002522 0.000329364 0.000416814 0.000504332 0.000581701 0.000648921 0.000705992 0.000752913 0.000789685 0.000816308 0.000832781 0.000843593 0.000853233 0.0008617 0.000868994 0.000875115 0.000880063 0.000883839 0.000886442 0.000887245 0.000885623 0.000881576 0.000875102 0.000866204 0.000854879 0.000841129 0.000824953 0.000803739 0.000774872 0.000738352 0.000694181 0.000642357 0.000582881 0.000515752 0.000440971 0.000365821 0.000297586 0.000236265 0.000181858 0.000134365 9.37864e-05 6.01222e-05 3.33723e-05 -4.51973e-06 -7.16102e-05 -0.000167899 -0.000293387 -0.000448073 -0.000631957 -0.00084504 -0.00108732 -0.0013295 -0.00154229 -0.00172568 -0.00187967 -0.00200427 -0.00209947 -0.00216528 -0.00220168 -0.00222201 -0.00223956 -0.00225433 -0.00226633 -0.00227556 -0.00228201 -0.00228569 -0.0022866 -0.00228491 -0.0022808 -0.00227426 -0.0022653 -0.00225392 -0.00224012 -0.0022239 -0.00220525 -0.00217029 -0.00210511 -0.00200972 -0.00188412 -0.00172831 -0.00154228 -0.00132603 -0.00107958 -0.000833404 -0.000618003 -0.000433378 -0.000279526 -0.00015645 -6.4148e-05 -2.62066e-06 2.81321e-05 4.18373e-05 5.22218e-05 5.92858e-05 6.30292e-05 6.3452e-05 6.05543e-05 5.43359e-05 4.4797e-05 3.42977e-05 2.51983e-05 1.74988e-05 1.11992e-05 6.29957e-06 2.79981e-06 6.99952e-07 0 0 -4.99523e-07 -1.99809e-06 -4.49571e-06 -7.99237e-06 -1.24881e-05 -1.79828e-05 -2.44766e-05 -3.19695e-05 -3.83178e-05 -4.1378e-05 -4.11501e-05 -3.76341e-05 -3.083e-05 -2.07379e-05 -7.35756e-06 9.31084e-06 3.67669e-05 8.25102e-05 0.000146541 0.000228858 0.000329463 0.000448356 0.000585535 0.000741002 0.00089659 0.00103414 0.00115364 0.0012551 0.00133851 0.00140388 0.00145121 0.0014805 0.00149972 0.00151686 0.00153191 0.00154488 0.00155576 0.00156456 0.00157127 0.0015759 0.00157732 0.00157444 0.00156725 0.00155574 0.00153992 0.00151979 0.00149534 0.00146658 0.00142887 0.00137755 0.00131263 0.0012341 0.00114197 0.00103623 0.000916893 0.000783949 0.000650349 0.000529042 0.000420026 0.000323302 0.000238871 0.000166731 0.000106884 5.93285e-05 -8.03507e-06 -0.000127307 -0.000298488 -0.000521576 -0.000796574 -0.00112348 -0.00150229 -0.00193302 -0.00236356 -0.00274185 -0.00306788 -0.00334164 -0.00356315 -0.00373239 -0.00384938 -0.0039141 -0.00395023 -0.00398143 -0.0040077 -0.00402904 -0.00404544 -0.00405691 -0.00406346 -0.00406507 -0.00406206 -0.00405475 -0.00404313 -0.00402721 -0.00400698 -0.00398244 -0.0039536 -0.00392045 -0.00385829 -0.00374242 -0.00357284 -0.00334955 -0.00307254 -0.00274182 -0.00235739 -0.00191925 -0.00148161 -0.00109867 -0.000770449 -0.000496936 -0.000278133 -0.000114041 -4.65895e-06 5.00126e-05 7.43773e-05 9.28388e-05 0.000105397 0.000112052 0.000112804 0.000107652 9.65972e-05 7.9639e-05 6.09736e-05 4.4797e-05 3.1109e-05 1.99098e-05 1.11992e-05 4.97744e-06 1.24436e-06 0 0 -7.80505e-07 -3.12202e-06 -7.02454e-06 -1.24881e-05 -1.95126e-05 -2.80982e-05 -3.82447e-05 -4.99523e-05 -5.98716e-05 -6.46531e-05 -6.42971e-05 -5.88033e-05 -4.81719e-05 -3.24029e-05 -1.14962e-05 1.45482e-05 5.74483e-05 0.000128922 0.00022897 0.000357591 0.000514787 0.000700556 0.000914899 0.00115782 0.00140092 0.00161584 0.00180256 0.00196109 0.00209143 0.00219357 0.00226752 0.00231328 0.00234332 0.00237009 0.00239361 0.00241387 0.00243087 0.00244462 0.00245511 0.00246234 0.00246457 0.00246006 0.00244882 0.00243084 0.00240612 0.00237466 0.00233647 0.00229154 0.00223261 0.00215242 0.00205098 0.00192828 0.00178432 0.00161911 0.00143265 0.00122492 0.00101617 0.000826628 0.000656291 0.00050516 0.000373236 0.000260518 0.000167006 9.27008e-05 -1.25548e-05 -0.000198917 -0.000466387 -0.000814963 -0.00124465 -0.00175544 -0.00234733 -0.00302034 -0.00369307 -0.00428414 -0.00479356 -0.00522131 -0.00556742 -0.00583186 -0.00601465 -0.00611579 -0.00617224 -0.00622099 -0.00626203 -0.00629537 -0.006321 -0.00633893 -0.00634915 -0.00635167 -0.00634697 -0.00633555 -0.00631739 -0.00629251 -0.0062609 -0.00622256 -0.0061775 -0.0061257 -0.00602858 -0.00584754 -0.00558257 -0.00523367 -0.00480085 -0.0042841 -0.00368343 -0.00299883 -0.00231501 -0.00171668 -0.00120383 -0.000776462 -0.000434583 -0.000178189 -7.27962e-06 7.81447e-05 0.000116215 0.000145061 0.000164683 0.000175081 0.000176256 0.000168206 0.000150933 0.000124436 9.52713e-05 6.99952e-05 4.86078e-05 3.1109e-05 1.74988e-05 7.77725e-06 1.94431e-06 0 0 -1.12393e-06 -4.49571e-06 -1.01153e-05 -1.79828e-05 -2.80982e-05 -4.04614e-05 -5.50724e-05 -7.19313e-05 -8.6215e-05 -9.31005e-05 -9.25878e-05 -8.46768e-05 -6.93676e-05 -4.66602e-05 -1.65545e-05 2.09494e-05 8.27255e-05 0.000185648 0.000329717 0.000514932 0.000741293 0.0010088 0.00131745 0.00166725 0.00201733 0.00232681 0.00259569 0.00282397 0.00301165 0.00315874 0.00326523 0.00333112 0.00337437 0.00341293 0.0034468 0.00347597 0.00350046 0.00352025 0.00353535 0.00354577 0.00354898 0.00354249 0.0035263 0.00350041 0.00346481 0.00341952 0.00336452 0.00329981 0.00321495 0.00309949 0.00295341 0.00277672 0.00256943 0.00233152 0.00206301 0.00176389 0.00146329 0.00119034 0.000945058 0.00072743 0.000537459 0.000375146 0.000240489 0.000133489 -1.80789e-05 -0.000286441 -0.000671597 -0.00117355 -0.00179229 -0.00252783 -0.00338016 -0.00434929 -0.00531802 -0.00616916 -0.00690272 -0.00751869 -0.00801708 -0.00839788 -0.0086611 -0.00880673 -0.00888803 -0.00895822 -0.00901732 -0.00906533 -0.00910224 -0.00912806 -0.00914278 -0.00914641 -0.00913964 -0.00912319 -0.00909705 -0.00906122 -0.0090157 -0.00896049 -0.0088956 -0.00882101 -0.00868116 -0.00842046 -0.0080389 -0.00753649 -0.00691322 -0.00616911 -0.00530414 -0.00431831 -0.00333361 -0.00247201 -0.00173351 -0.00111811 -0.0006258 -0.000256592 -1.04826e-05 0.000112528 0.000167349 0.000208887 0.000237143 0.000252117 0.000253808 0.000242217 0.000217344 0.000179188 0.000137191 0.000100793 6.99952e-05 4.4797e-05 2.51983e-05 1.11992e-05 2.79981e-06 0 0 -1.52979e-06 -6.11916e-06 -1.37681e-05 -2.44766e-05 -3.82447e-05 -5.50724e-05 -7.49597e-05 -9.79065e-05 -0.000117348 -0.00012672 -0.000126022 -0.000115255 -9.4417e-05 -6.35097e-05 -2.25325e-05 2.85145e-05 0.000112599 0.000252687 0.000448781 0.000700879 0.00100898 0.00137309 0.0017932 0.00226932 0.00274581 0.00316704 0.00353302 0.00384373 0.00409919 0.0042994 0.00444434 0.00453403 0.0045929 0.00464538 0.00469148 0.00473119 0.00476451 0.00479145 0.00481201 0.00482618 0.00483056 0.00482173 0.00479969 0.00476445 0.004716 0.00465434 0.00457948 0.00449141 0.00437591 0.00421875 0.00401992 0.00377943 0.00349728 0.00317346 0.00280798 0.00240084 0.00199169 0.00162019 0.00128633 0.000990114 0.000731542 0.000510615 0.000327332 0.000181694 -2.46074e-05 -0.000389878 -0.000914118 -0.00159733 -0.00243951 -0.00344066 -0.00460077 -0.00591986 -0.00723841 -0.00839691 -0.00939537 -0.0102338 -0.0109121 -0.0114305 -0.0117887 -0.0119869 -0.0120976 -0.0121931 -0.0122736 -0.0123389 -0.0123892 -0.0124243 -0.0124443 -0.0124493 -0.0124401 -0.0124177 -0.0123821 -0.0123333 -0.0122714 -0.0121962 -0.0121079 -0.0120064 -0.011816 -0.0114612 -0.0109418 -0.010258 -0.00940966 -0.00839684 -0.00721952 -0.0058777 -0.00453742 -0.00336468 -0.0023595 -0.00152187 -0.000851783 -0.00034925 -1.4268e-05 0.000153164 0.000227781 0.000284319 0.000322778 0.000343159 0.000345461 0.000329684 0.000295829 0.000243895 0.000186732 0.000137191 9.52713e-05 6.09736e-05 3.42977e-05 1.52434e-05 3.81085e-06 0 0 -1.99809e-06 -7.99237e-06 -1.79828e-05 -3.19695e-05 -4.99523e-05 -7.19313e-05 -9.79065e-05 -0.000127878 -0.000153271 -0.000165512 -0.0001646 -0.000150537 -0.00012332 -8.29514e-05 -2.94302e-05 3.72434e-05 0.000147068 0.000330041 0.000586163 0.000915434 0.00131785 0.00179342 0.00234214 0.00296401 0.00358636 0.00413654 0.00461455 0.00502039 0.00535405 0.00561554 0.00580486 0.005922 0.00599889 0.00606743 0.00612764 0.00617951 0.00622304 0.00625823 0.00628508 0.00630358 0.0063093 0.00629777 0.00626898 0.00622295 0.00615967 0.00607914 0.00598136 0.00586634 0.00571548 0.0055102 0.00525051 0.0049364 0.00456787 0.00414493 0.00366757 0.0031358 0.0026014 0.00211617 0.0016801 0.00129321 0.000955483 0.000666925 0.000427536 0.000237314 -3.21403e-05 -0.000509228 -0.00119395 -0.00208631 -0.00318629 -0.00449392 -0.00600917 -0.00773206 -0.00945425 -0.0109674 -0.0122715 -0.0133666 -0.0142526 -0.0149296 -0.0153975 -0.0156564 -0.0158009 -0.0159257 -0.0160308 -0.0161161 -0.0161818 -0.0162277 -0.0162538 -0.0162603 -0.0162482 -0.016219 -0.0161725 -0.0161088 -0.0160279 -0.0159298 -0.0158144 -0.0156818 -0.0154332 -0.0149697 -0.0142914 -0.0133982 -0.0122902 -0.0109673 -0.00942958 -0.007677 -0.00592643 -0.00439469 -0.0030818 -0.00198774 -0.00111253 -0.000456164 -1.86358e-05 0.00020005 0.000297509 0.000371355 0.000421588 0.000448208 0.000451214 0.000430608 0.000386389 0.000318556 0.000243895 0.000179188 0.000124436 7.9639e-05 4.4797e-05 1.99098e-05 4.97744e-06 0 0 -2.36408e-06 -9.45631e-06 -2.12767e-05 -3.78252e-05 -5.91019e-05 -8.51068e-05 -0.00011584 -0.000151301 -0.000181285 -0.000195588 -0.00019421 -0.00017715 -0.000144408 -9.59854e-05 -3.18809e-05 4.79051e-05 0.000178588 0.000395383 0.00069829 0.00108731 0.00156244 0.00212369 0.00277104 0.00350451 0.00423855 0.00488764 0.00545177 0.00593093 0.00632514 0.00663439 0.00685868 0.00699801 0.00708987 0.00717175 0.00724366 0.00730559 0.00735754 0.00739952 0.00743152 0.00745355 0.00746029 0.00744643 0.00741198 0.00735693 0.00728128 0.00718504 0.0070682 0.00693077 0.00675125 0.00650815 0.00620148 0.00583123 0.0053974 0.0049 0.00433902 0.00371446 0.00308592 0.002513 0.00199569 0.00153401 0.00112794 0.000777488 0.000482654 0.000243438 -8.97792e-05 -0.000666615 -0.00148707 -0.00255114 -0.00385884 -0.00541015 -0.00720508 -0.00924363 -0.0112813 -0.0130734 -0.0146202 -0.0159214 -0.0169772 -0.0177876 -0.0183525 -0.018672 -0.0188561 -0.0190152 -0.0191492 -0.0192581 -0.0193419 -0.0194007 -0.0194343 -0.0194428 -0.0194278 -0.0193905 -0.0193311 -0.0192496 -0.0191459 -0.01902 -0.018872 -0.0187018 -0.0183944 -0.0178348 -0.0170228 -0.0159585 -0.0146419 -0.0130731 -0.0112519 -0.00917846 -0.00710734 -0.00529314 -0.00373588 -0.00243554 -0.00139214 -0.000605676 -7.61404e-05 0.000196463 0.000325553 0.000424547 0.000493446 0.000532249 0.000540957 0.000519569 0.000468085 0.000386507 0.000295919 0.00021741 0.000150979 9.66266e-05 5.43525e-05 2.41567e-05 6.03917e-06 0 0 -2.46298e-06 -9.85193e-06 -2.21668e-05 -3.94077e-05 -6.15746e-05 -8.86674e-05 -0.000120686 -0.000157631 -0.000188692 -0.000203061 -0.000200738 -0.000181722 -0.000146013 -9.36115e-05 -2.45177e-05 6.12686e-05 0.000199615 0.000426389 0.000741591 0.00114522 0.00163728 0.00221776 0.00288667 0.00364401 0.00440195 0.00507266 0.00565613 0.00615237 0.00656138 0.00688316 0.00711771 0.00726502 0.00736336 0.00745099 0.00752789 0.00759408 0.00764955 0.0076943 0.00772833 0.00775165 0.0077586 0.00774354 0.00770647 0.00764738 0.00756628 0.00746317 0.00733804 0.00719091 0.00700084 0.00674692 0.00642915 0.00604753 0.00560206 0.00509273 0.00451956 0.00388254 0.00323878 0.0026454 0.00210241 0.0016098 0.00116756 0.000775711 0.000434241 0.000143152 -0.000246626 -0.000884161 -0.00176946 -0.00290251 -0.00428332 -0.00591189 -0.00778821 -0.0099123 -0.0120352 -0.0139079 -0.0155304 -0.0169027 -0.0180249 -0.0188969 -0.0195187 -0.0198904 -0.0201212 -0.0203208 -0.0204891 -0.020626 -0.0207316 -0.0208058 -0.0208488 -0.0208604 -0.0208421 -0.0207956 -0.0207207 -0.0206174 -0.0204858 -0.0203259 -0.0201376 -0.019921 -0.0195616 -0.0189451 -0.0180713 -0.0169403 -0.0155521 -0.0139067 -0.0120041 -0.00984435 -0.00768685 -0.00579114 -0.00415722 -0.00278507 -0.00167471 -0.000826132 -0.000239336 8.56761e-05 0.000260929 0.000398445 0.000498225 0.000560269 0.000584576 0.000571147 0.000519982 0.00043108 0.000330045 0.000242482 0.000168391 0.00010777 6.06206e-05 2.69425e-05 6.73562e-06 0 0 -2.29481e-06 -9.17925e-06 -2.06533e-05 -3.6717e-05 -5.73703e-05 -8.26133e-05 -0.000112446 -0.000146868 -0.000175492 -0.000187931 -0.000184184 -0.000164252 -0.000128133 -7.58299e-05 -7.34077e-06 7.73339e-05 0.000210149 0.000423059 0.000716065 0.00108917 0.00154236 0.00207565 0.00268904 0.00338252 0.00407655 0.0046916 0.00522765 0.00568471 0.00606278 0.00636186 0.00658195 0.00672305 0.00681938 0.00690514 0.00698033 0.00704497 0.00709904 0.00714255 0.0071755 0.00719789 0.00720424 0.0071891 0.00715245 0.00709431 0.00701467 0.00691353 0.00679089 0.00664675 0.00646424 0.00622649 0.00593351 0.00558529 0.00518183 0.00472314 0.00420921 0.00364004 0.00305999 0.00251339 0.00200025 0.00152057 0.00107436 0.000661597 0.000282297 -6.35434e-05 -0.00050268 -0.00116187 -0.00204111 -0.00314039 -0.00445974 -0.00599913 -0.00775857 -0.00973806 -0.011716 -0.0134707 -0.0150022 -0.0163105 -0.0173956 -0.0182575 -0.0188962 -0.0193116 -0.0195963 -0.0198425 -0.0200503 -0.0202197 -0.0203506 -0.0204431 -0.0204972 -0.0205129 -0.0204914 -0.0204342 -0.0203412 -0.0202124 -0.0200478 -0.0198474 -0.0196113 -0.0193394 -0.0189348 -0.0183006 -0.0174369 -0.0163436 -0.0150207 -0.0134683 -0.0116862 -0.00967465 -0.00766498 -0.0058887 -0.00434582 -0.00303633 -0.00196023 -0.00111753 -0.000508224 -0.000132311 0.000103637 0.000293049 0.000435926 0.000532267 0.000582073 0.000585343 0.000542077 0.000452276 0.000346274 0.000254405 0.00017667 0.000113069 6.36013e-05 2.82672e-05 7.06681e-06 0 0 -1.85956e-06 -7.43826e-06 -1.67361e-05 -2.9753e-05 -4.64891e-05 -6.69443e-05 -9.11187e-05 -0.000119012 -0.000141685 -0.000150197 -0.000144549 -0.00012474 -9.07705e-05 -4.26405e-05 1.965e-05 9.6101e-05 0.00021019 0.000385393 0.000621712 0.000919145 0.00127769 0.00169736 0.00217813 0.00272003 0.00326236 0.00374445 0.00416632 0.00452794 0.00482933 0.00507049 0.00525141 0.00537209 0.00545791 0.00553421 0.00560099 0.00565827 0.00570604 0.00574429 0.00577303 0.00579226 0.00579721 0.0057831 0.00574994 0.00569772 0.00562644 0.00553611 0.00542673 0.00529829 0.00514145 0.00494688 0.00471457 0.00444452 0.00413674 0.00379122 0.00340796 0.00298697 0.00254954 0.00211695 0.00168922 0.00126634 0.000848319 0.000435144 2.6822e-05 -0.000376648 -0.000857941 -0.00149973 -0.00230202 -0.00326481 -0.00438809 -0.00567187 -0.00711615 -0.00872093 -0.0103237 -0.0117619 -0.0130356 -0.0141447 -0.0150893 -0.0158693 -0.0164848 -0.0169358 -0.0172813 -0.0175803 -0.017833 -0.0180393 -0.0181992 -0.0183126 -0.0183797 -0.0184003 -0.0183756 -0.0183063 -0.0181926 -0.0180344 -0.0178317 -0.0175846 -0.017293 -0.0169569 -0.0165139 -0.0159014 -0.0151196 -0.0141684 -0.0130477 -0.0117577 -0.0102982 -0.00866938 -0.00704171 -0.00558581 -0.00430168 -0.00318931 -0.00224871 -0.00147987 -0.000882802 -0.000457497 -0.000146322 0.00010836 0.000306548 0.000448244 0.000533446 0.000562156 0.000534372 0.000450095 0.000344604 0.000253178 0.000175818 0.000112524 6.32946e-05 2.81309e-05 7.03273e-06 0 0 -1.15724e-06 -4.62896e-06 -1.04151e-05 -1.85158e-05 -2.8931e-05 -4.16606e-05 -5.67047e-05 -7.40633e-05 -8.72704e-05 -8.98599e-05 -8.1832e-05 -6.31866e-05 -3.39237e-05 5.95667e-06 5.64546e-05 0.00011757 0.000199737 0.000313391 0.000458532 0.000635159 0.000843273 0.00108287 0.00135396 0.00165653 0.00195937 0.00223123 0.00247214 0.00268207 0.00286104 0.00300904 0.00312608 0.00321215 0.00327895 0.00333819 0.00338987 0.00343398 0.00347052 0.0034995 0.00352092 0.00353477 0.0035375 0.00352555 0.00349892 0.0034576 0.0034016 0.00333093 0.00324557 0.00314553 0.00303247 0.00290807 0.00277232 0.00262521 0.00246676 0.00229696 0.00211582 0.00192332 0.00170743 0.00145609 0.00116932 0.000847105 0.00048945 9.63532e-05 -0.000332184 -0.000796163 -0.00131241 -0.00189776 -0.0025522 -0.00327574 -0.00406839 -0.00493012 -0.00586096 -0.0068609 -0.00785829 -0.00878149 -0.00963051 -0.0104053 -0.011106 -0.0117324 -0.0122847 -0.0127628 -0.0131761 -0.0135343 -0.0138371 -0.0140847 -0.0142771 -0.0144143 -0.0144962 -0.0145228 -0.0144946 -0.014412 -0.014275 -0.0140835 -0.0138377 -0.0135374 -0.0131827 -0.0127736 -0.0122989 -0.0117475 -0.0111194 -0.0104146 -0.00963315 -0.00877497 -0.0078401 -0.00682853 -0.00581705 -0.00488248 -0.0040248 -0.00324402 -0.00254014 -0.00191316 -0.00136307 -0.000889884 -0.000488949 -0.000155624 0.000110092 0.000308199 0.000438697 0.000501586 0.000496866 0.000424536 0.000325036 0.000238802 0.000165834 0.000106134 5.97004e-05 2.65335e-05 6.63338e-06 0 0 -1.87836e-07 -7.51343e-07 -1.69052e-06 -3.00537e-06 -4.69589e-06 -6.76208e-06 -9.20395e-06 -1.20215e-05 -1.22487e-05 -6.91941e-06 3.96624e-06 2.04083e-05 4.24068e-05 6.99616e-05 0.000103073 0.000141741 0.000178792 0.000207053 0.000226525 0.000237208 0.000239101 0.000232205 0.000216518 0.000192043 0.000167581 0.000151935 0.000145107 0.000147094 0.000157899 0.00017752 0.000205958 0.000243212 0.000282514 0.000317094 0.000346952 0.000372089 0.000392504 0.000408198 0.000419169 0.00042542 0.00042512 0.000416444 0.000399391 0.000373961 0.000340154 0.00029797 0.00024741 0.000188472 0.000137308 0.000110071 0.000106759 0.000127373 0.000171914 0.00024038 0.000332771 0.000449089 0.00053366 0.000530812 0.000440544 0.000262857 -2.25e-06 -0.000354776 -0.000794722 -0.00132209 -0.00186609 -0.00235594 -0.00279165 -0.00317321 -0.00350062 -0.00377388 -0.003993 -0.00415796 -0.00431979 -0.00452947 -0.00478702 -0.00509243 -0.00544569 -0.00584682 -0.0062958 -0.00679265 -0.00728094 -0.00770428 -0.00806267 -0.00835609 -0.00858456 -0.00874807 -0.00884663 -0.00888023 -0.00884854 -0.00875123 -0.0085883 -0.00835975 -0.00806559 -0.0077058 -0.0072804 -0.00678938 -0.00628982 -0.0058388 -0.00543633 -0.00508239 -0.00477701 -0.00452016 -0.00431186 -0.0041521 -0.003991 -0.0037787 -0.00351519 -0.00320046 -0.00283453 -0.00241739 -0.00194903 -0.00142947 -0.000924244 -0.000498901 -0.000153442 0.000112133 0.000297825 0.000403634 0.000429559 0.000375601 0.000287569 0.000211275 0.000146719 9.39002e-05 5.28188e-05 2.3475e-05 5.86876e-06 0 0 1.04864e-06 4.19458e-06 9.4378e-06 1.67783e-05 2.62161e-05 3.77512e-05 5.13836e-05 6.71133e-05 8.33802e-05 9.86245e-05 0.000112846 0.000126045 0.000138221 0.000149374 0.000159505 0.000168613 0.000147353 6.63793e-05 -7.43078e-05 -0.000274708 -0.000534823 -0.00085465 -0.00123419 -0.00167345 -0.002113 -0.00249344 -0.00281477 -0.00307699 -0.00328009 -0.00342408 -0.00350895 -0.00353471 -0.00353141 -0.00352909 -0.00352775 -0.00352739 -0.00352802 -0.00352963 -0.00353222 -0.0035358 -0.00353993 -0.00354421 -0.00354864 -0.0035532 -0.00355791 -0.00356276 -0.00356775 -0.00357288 -0.00354404 -0.00344712 -0.0032821 -0.003049 -0.00274781 -0.00237853 -0.00194117 -0.00143572 -0.000971763 -0.000658893 -0.000497105 -0.000486401 -0.000626781 -0.000918244 -0.00136079 -0.00195442 -0.00251897 -0.00287428 -0.00302036 -0.00295719 -0.00268479 -0.00220314 -0.00151226 -0.000612133 0.000291811 0.000994154 0.0014949 0.00179404 0.00189158 0.00178753 0.00148187 0.000974614 0.000404326 -9.0424e-05 -0.000509636 -0.00085331 -0.00112145 -0.00131404 -0.0014311 -0.00147263 -0.00143734 -0.00132399 -0.00113256 -0.000863068 -0.000515499 -8.98593e-05 0.000413852 0.000995636 0.00151329 0.00182463 0.00192965 0.00182834 0.00152072 0.00100677 0.000286501 -0.000640088 -0.00156356 -0.00227447 -0.00277283 -0.00305863 -0.00313187 -0.00299256 -0.00264069 -0.00207626 -0.00145221 -0.000921473 -0.000484055 -0.000139954 0.000110831 0.000268299 0.000332452 0.000303288 0.000232205 0.000170599 0.000118472 7.5822e-05 4.26499e-05 1.89555e-05 4.73887e-06 0 0 2.5522e-06 1.02088e-05 2.29698e-05 4.08352e-05 6.38051e-05 9.18793e-05 0.000125058 0.000163341 0.000199616 0.000226772 0.000244807 0.000253723 0.000253519 0.000244195 0.000225751 0.000198187 0.000105421 -0.000108631 -0.000443968 -0.00090059 -0.0014785 -0.00217769 -0.00299817 -0.00393993 -0.00488238 -0.0057049 -0.0064075 -0.00699017 -0.00745292 -0.00779574 -0.00801865 -0.00812162 -0.00816281 -0.00820035 -0.00823423 -0.00826447 -0.00829105 -0.00831398 -0.00833325 -0.00834888 -0.00835766 -0.00835643 -0.00834517 -0.00832389 -0.00829258 -0.00825126 -0.00819991 -0.00813853 -0.00801158 -0.0077635 -0.00739427 -0.00690391 -0.00629241 -0.00555978 -0.00470601 -0.0037311 -0.00280884 -0.00211302 -0.00164363 -0.00140067 -0.00138414 -0.00159405 -0.00203039 -0.00269316 -0.00327106 -0.00345279 -0.00323833 -0.0026277 -0.00162089 -0.000217906 0.00158126 0.0037766 0.00597651 0.0077894 0.00921525 0.0102541 0.0109058 0.0111706 0.0110483 0.010539 0.00987967 0.00930733 0.00882197 0.0084236 0.00811222 0.00788782 0.00775042 0.0077 0.00773896 0.00786971 0.00809223 0.00840652 0.0088126 0.00931045 0.00990008 0.0105815 0.0111105 0.0112428 0.0109785 0.0103176 0.00926002 0.00780581 0.00595497 0.0037075 0.00146528 -0.000369802 -0.00179774 -0.00281853 -0.00343217 -0.00363867 -0.00343803 -0.00283024 -0.00207284 -0.00142334 -0.000881747 -0.000448063 -0.000122287 9.55821e-05 0.000205544 0.000207598 0.000158942 0.000116774 8.10929e-05 5.18995e-05 2.91934e-05 1.29749e-05 3.24372e-06 0 0 3.98872e-06 1.59549e-05 3.58985e-05 6.38195e-05 9.9718e-05 0.000143594 0.000195447 0.000255278 0.000309909 0.000346162 0.000364037 0.000363536 0.000344656 0.000307399 0.000251764 0.000177752 8.85493e-06 -0.000331435 -0.000843118 -0.00152619 -0.00238066 -0.00340652 -0.00460378 -0.00597243 -0.00734192 -0.00854171 -0.0095718 -0.0104322 -0.0111229 -0.0116439 -0.0119952 -0.0121768 -0.0122692 -0.012353 -0.0124282 -0.0124948 -0.0125528 -0.0126022 -0.012643 -0.0126752 -0.0126914 -0.0126842 -0.0126537 -0.0125998 -0.0125226 -0.0124219 -0.012298 -0.0121506 -0.0119131 -0.0115187 -0.0109674 -0.0102591 -0.00939392 -0.0083718 -0.00719275 -0.00585677 -0.00457963 -0.00357707 -0.0028491 -0.00239572 -0.00221693 -0.00231272 -0.0026831 -0.00332808 -0.0037761 -0.00355565 -0.00266671 -0.0011093 0.00111659 0.00401096 0.00757381 0.0118051 0.0160409 0.0196171 0.0225336 0.0247905 0.0263879 0.0273256 0.0276037 0.0272221 0.0265547 0.025975 0.025483 0.0250788 0.0247624 0.0245337 0.0243927 0.0243395 0.0243773 0.0245094 0.0247359 0.0250566 0.0254717 0.0259811 0.0265848 0.0272828 0.0276913 0.0274264 0.0264883 0.0248767 0.0225919 0.0196336 0.0160021 0.0116972 0.00739927 0.00378871 0.000865497 -0.00137037 -0.00291889 -0.00378007 -0.0039539 -0.00344038 -0.00263668 -0.00193994 -0.00135017 -0.000867364 -0.000491527 -0.000222656 -6.07522e-05 -5.81503e-06 -4.45213e-06 -3.27096e-06 -2.2715e-06 -1.45376e-06 -8.17739e-07 -3.63439e-07 -9.08599e-08 0 0 5.02407e-06 2.00963e-05 4.52166e-05 8.03851e-05 0.000125602 0.000180867 0.000246179 0.000321541 0.000387707 0.000425434 0.000434724 0.000415575 0.000367988 0.000291962 0.000187499 5.45966e-05 -0.000186486 -0.000615493 -0.00123242 -0.00203728 -0.00303005 -0.00421075 -0.00557938 -0.00713592 -0.00869298 -0.0100632 -0.0112464 -0.0122428 -0.0130523 -0.0136749 -0.0141105 -0.0143593 -0.014508 -0.0146434 -0.0147655 -0.0148742 -0.0149697 -0.0150518 -0.0151206 -0.0151762 -0.0152045 -0.0151917 -0.0151377 -0.0150427 -0.0149065 -0.0147292 -0.0145108 -0.0142513 -0.0138965 -0.0133925 -0.0127391 -0.0119364 -0.0109844 -0.00988304 -0.0086324 -0.00723244 -0.00588616 -0.00479655 -0.0039636 -0.00338733 -0.00306772 -0.00300478 -0.00319852 -0.00364892 -0.00368782 -0.00264706 -0.00052664 0.00267344 0.00695319 0.0123126 0.0187517 0.0262704 0.0337916 0.040238 0.0456096 0.0499064 0.0531284 0.0552756 0.056348 0.0563456 0.055839 0.0553986 0.0550245 0.0547166 0.054475 0.0542996 0.0541905 0.0541477 0.0541746 0.0542747 0.0544481 0.0546948 0.0550147 0.0554079 0.0558744 0.0564141 0.0564453 0.0553862 0.0532368 0.0499972 0.0456672 0.0402469 0.0337363 0.0261354 0.0185422 0.0120545 0.00667227 0.00239562 -0.000775499 -0.00284108 -0.00380112 -0.00365563 -0.00299427 -0.00240672 -0.00189297 -0.00145303 -0.00108689 -0.000794553 -0.000576023 -0.000431296 -0.000330211 -0.000242604 -0.000168475 -0.000107824 -6.06511e-05 -2.6956e-05 -6.73901e-06 0 0 5.65826e-06 2.2633e-05 5.09243e-05 9.05322e-05 0.000141457 0.000203697 0.000277255 0.000362129 0.00043301 0.000464589 0.000456866 0.000409841 0.000323514 0.000197885 3.29537e-05 -0.00017128 -0.000480602 -0.000960803 -0.00161188 -0.00243384 -0.00342667 -0.00459038 -0.00592496 -0.00743043 -0.00893558 -0.0102692 -0.0114313 -0.012422 -0.0132411 -0.0138887 -0.0143648 -0.0146694 -0.0148793 -0.0150715 -0.0152459 -0.0154026 -0.0155415 -0.0156627 -0.0157661 -0.0158518 -0.0158969 -0.0158787 -0.0157972 -0.0156525 -0.0154444 -0.0151731 -0.0148384 -0.0144405 -0.0139617 -0.0133847 -0.0127093 -0.0119357 -0.0110638 -0.0100935 -0.00902495 -0.0078581 -0.00672844 -0.00577145 -0.00498713 -0.00437549 -0.00393653 -0.00367024 -0.00357663 -0.00365569 -0.00300623 -0.000727033 0.00318189 0.00872054 0.0158889 0.024687 0.0351149 0.0471724 0.0592286 0.0696521 0.0784431 0.0856015 0.0911274 0.0950207 0.0972814 0.0979095 0.0977326 0.0975782 0.0974463 0.0973369 0.0972501 0.0971857 0.0971439 0.0971245 0.0971307 0.0971656 0.097229 0.0973211 0.0974418 0.0975911 0.097769 0.0979755 0.0973726 0.0951222 0.0912243 0.0856789 0.078486 0.0696456 0.0591577 0.0470223 0.034894 0.0244274 0.0156226 0.00847943 0.00299801 -0.000821707 -0.00297971 -0.00347599 -0.00314562 -0.00282368 -0.00251016 -0.00220506 -0.00190837 -0.00162011 -0.00134027 -0.00106885 -0.000818336 -0.000601226 -0.000417518 -0.000267212 -0.000150307 -6.68029e-05 -1.67007e-05 0 0 5.89129e-06 2.35651e-05 5.30216e-05 9.42606e-05 0.000147282 0.000212086 0.000288673 0.000377042 0.000445819 0.000463626 0.000430464 0.000346334 0.000211235 2.51666e-05 -0.00021187 -0.000499876 -0.000873494 -0.00136737 -0.00198149 -0.00271587 -0.00357051 -0.0045454 -0.00564054 -0.00685594 -0.0080697 -0.00915991 -0.0101266 -0.0109697 -0.0116893 -0.0122854 -0.0127579 -0.0131068 -0.0133831 -0.0136373 -0.0138697 -0.01408 -0.0142684 -0.0144349 -0.0145794 -0.014702 -0.0147686 -0.0147454 -0.0146322 -0.0144292 -0.0141363 -0.0137535 -0.0132808 -0.0127182 -0.0121088 -0.0114954 -0.0108782 -0.0102571 -0.00963208 -0.00900319 -0.00837042 -0.00773376 -0.00710646 -0.00650177 -0.00591969 -0.00536022 -0.00482335 -0.00430909 -0.00381744 -0.00334839 -0.00173131 0.00220444 0.00845887 0.017032 0.0279238 0.0411342 0.0566633 0.0745111 0.0923518 0.10786 0.121034 0.131876 0.140385 0.146561 0.150404 0.151914 0.152235 0.152514 0.152748 0.15294 0.153088 0.153192 0.153253 0.15327 0.153246 0.153182 0.153079 0.152935 0.152753 0.15253 0.152269 0.151967 0.150473 0.146634 0.140451 0.131922 0.121048 0.10783 0.0922662 0.0743577 0.0564547 0.0409076 0.0277164 0.0168811 0.00840162 0.00227805 -0.00148965 -0.00290146 -0.00309073 -0.00319082 -0.00320173 -0.00312344 -0.0029559