<?xml version="1.0"?> 
<VTKFile type="StructuredGrid" version="0.1"> 
<StructuredGrid WholeExtent="0 128 0 128 0 0"> 
<Piece Extent="0 128 0 128 0 0"> 
<PointData>
<DataArray type="Float32" Name="u" format="ascii" NumberOfComponents="1"> 
0 0 0 0 0 0 0 0 0 0 0 0 0 0 0 0 0 0 0 0 0 0 0 0 0 0 0 0 0 0 0 0 0 0 0 0 0 0 0 0 0 0 0 0 0 0 0 0 0 0 0 0 0 0 0 0 0 0 0 0 0 0 0 0 0 0 0 0 0 0 0 0 0 0 0 0 0 0 0 0 0 0 0 0 0 0 0 0 0 0 0 0 0 0 0 0 0 0 0 0 0 0 0 0 0 0 0 0 0 0 0 0 0 0 0 0 0 0 0 0 0 0 0 0 0 0 0 0 0 0 3.69838e-08 1.47935e-07 3.32854e-07 5.91741e-07 9.24596e-07 1.33142e-06 1.81221e-06 2.36696e-06 3.11426e-06 4.17267e-06 5.54219e-06 7.22283e-06 9.21457e-06 1.15174e-05 1.41314e-05 1.70565e-05 2.02147e-05 2.35281e-05 2.69967e-05 3.06204e-05 3.43993e-05 3.83334e-05 4.24227e-05 4.66671e-05 5.10168e-05 5.54217e-05 5.98819e-05 6.43973e-05 6.8968e-05 7.3594e-05 7.82752e-05 8.30116e-05 8.74478e-05 9.1228e-05 9.43523e-05 9.68207e-05 9.86331e-05 9.97897e-05 0.00010029 0.000100135 9.94449e-05 9.83413e-05 9.68242e-05 9.48936e-05 9.25495e-05 8.97918e-05 8.66205e-05 8.30358e-05 7.93131e-05 7.57279e-05 7.22804e-05 6.89704e-05 6.5798e-05 6.27632e-05 5.9866e-05 5.71063e-05 5.33937e-05 4.76374e-05 3.98375e-05 2.9994e-05 1.81068e-05 4.17602e-06 -1.17984e-05 -2.98164e-05 -4.97247e-05 -7.13699e-05 -9.47519e-05 -0.000119871 -0.000146727 -0.000175319 -0.000205649 -0.000237715 -0.000269891 -0.000300549 -0.000329689 -0.000357311 -0.000383415 -0.000408001 -0.000431069 -0.000452619 -0.000472112 -0.00048901 -0.000503312 -0.000515019 -0.000524131 -0.000530647 -0.000534568 -0.000535893 -0.0005346 -0.000530665 -0.000524087 -0.000514868 -0.000503007 -0.000488503 -0.000471358 -0.000451571 -0.000429763 -0.000406555 -0.000381948 -0.000355941 -0.000328535 -0.00029973 -0.000269525 -0.00023792 -0.000206646 -0.000177435 -0.000150285 -0.000125197 -0.000102172 -8.12079e-05 -6.2306e-05 -4.54661e-05 -3.0784e-05 -1.83557e-05 -8.18114e-06 -2.60385e-07 5.4066e-06 8.81981e-06 9.97924e-06 8.8849e-06 6.80251e-06 4.99776e-06 3.47067e-06 2.22123e-06 1.24944e-06 5.55307e-07 1.38827e-07 0 0 1.47935e-07 5.91741e-07 1.33142e-06 2.36696e-06 3.69838e-06 5.32567e-06 7.24883e-06 9.46786e-06 1.2457e-05 1.66907e-05 2.21688e-05 2.88913e-05 3.68583e-05 4.60697e-05 5.65256e-05 6.82259e-05 8.08588e-05 9.41124e-05 0.000107987 0.000122482 0.000137597 0.000153334 0.000169691 0.000186669 0.000204067 0.000221687 0.000239528 0.000257589 0.000275872 0.000294376 0.000313101 0.000332047 0.000349791 0.000364912 0.000377409 0.000387283 0.000394532 0.000399159 0.000401161 0.00040054 0.00039778 0.000393365 0.000387297 0.000379574 0.000370198 0.000359167 0.000346482 0.000332143 0.000317252 0.000302912 0.000289122 0.000275882 0.000263192 0.000251053 0.000239464 0.000228425 0.000213575 0.00019055 0.00015935 0.000119976 7.24272e-05 1.67041e-05 -4.71935e-05 -0.000119266 -0.000198899 -0.000285479 -0.000379008 -0.000479483 -0.000586907 -0.000701278 -0.000822596 -0.000950862 -0.00107957 -0.0012022 -0.00131876 -0.00142924 -0.00153366 -0.001632 -0.00172428 -0.00181048 -0.00188845 -0.00195604 -0.00201325 -0.00206008 -0.00209652 -0.00212259 -0.00213827 -0.00214357 -0.0021384 -0.00212266 -0.00209635 -0.00205947 -0.00201203 -0.00195401 -0.00188543 -0.00180628 -0.00171905 -0.00162622 -0.00152779 -0.00142377 -0.00131414 -0.00119892 -0.0010781 -0.000951679 -0.000826585 -0.000709739 -0.000601141 -0.00050079 -0.000408687 -0.000324832 -0.000249224 -0.000181864 -0.000123136 -7.34227e-05 -3.27246e-05 -1.04154e-06 2.16264e-05 3.52792e-05 3.9917e-05 3.55396e-05 2.721e-05 1.9991e-05 1.38827e-05 8.8849e-06 4.99776e-06 2.22123e-06 5.55307e-07 0 0 3.32854e-07 1.33142e-06 2.99569e-06 5.32567e-06 8.32136e-06 1.19828e-05 1.63099e-05 2.13027e-05 2.80284e-05 3.7554e-05 4.98797e-05 6.50054e-05 8.29312e-05 0.000103657 0.000127183 0.000153508 0.000181932 0.000211753 0.00024297 0.000275584 0.000309594 0.000345001 0.000381804 0.000420004 0.000459151 0.000498795 0.000538937 0.000579576 0.000620712 0.000662346 0.000704477 0.000747105 0.00078703 0.000821052 0.000849171 0.000871386 0.000887698 0.000898107 0.000902612 0.000901215 0.000895004 0.000885072 0.000871418 0.000854043 0.000832945 0.000808126 0.000779585 0.000747322 0.000713818 0.000681551 0.000650523 0.000620734 0.000592182 0.000564869 0.000538794 0.000513957 0.000480543 0.000428737 0.000358537 0.000269946 0.000162961 3.75842e-05 -0.000106185 -0.000268348 -0.000447522 -0.000642329 -0.000852767 -0.00107884 -0.00132054 -0.00157787 -0.00185084 -0.00213944 -0.00242902 -0.00270494 -0.0029672 -0.0032158 -0.00345074 -0.00367201 -0.00387962 -0.00407357 -0.00424901 -0.00440109 -0.00452981 -0.00463517 -0.00471718 -0.00477582 -0.00481111 -0.00482304 -0.0048114 -0.00477598 -0.00471678 -0.00463381 -0.00452706 -0.00439653 -0.00424222 -0.00406414 -0.00386786 -0.003659 -0.00343753 -0.00320347 -0.00295682 -0.00269757 -0.00242572 -0.00214128 -0.00185982 -0.00159691 -0.00135257 -0.00112678 -0.000919545 -0.000730871 -0.000560754 -0.000409195 -0.000277056 -0.000165201 -7.36303e-05 -2.34347e-06 4.86594e-05 7.93783e-05 8.98132e-05 7.99641e-05 6.12225e-05 4.49798e-05 3.1236e-05 1.9991e-05 1.1245e-05 4.99776e-06 1.24944e-06 0 0 5.91741e-07 2.36696e-06 5.32567e-06 9.46786e-06 1.47935e-05 2.13027e-05 2.89953e-05 3.78714e-05 4.98282e-05 6.67627e-05 8.86751e-05 0.000115565 0.000147433 0.000184279 0.000226102 0.000272904 0.000323435 0.00037645 0.000431947 0.000489927 0.000550389 0.000613335 0.000678763 0.000746674 0.000816269 0.000886747 0.00095811 0.00103036 0.00110349 0.0011775 0.0012524 0.00132819 0.00139916 0.00145965 0.00150964 0.00154913 0.00157813 0.00159663 0.00160464 0.00160216 0.00159112 0.00157346 0.00154919 0.0015183 0.00148079 0.00143667 0.00138593 0.00132857 0.00126901 0.00121165 0.00115649 0.00110353 0.00105277 0.00100421 0.000957856 0.000913702 0.000854299 0.000762198 0.0006374 0.000479903 0.000289709 6.68164e-05 -0.000188774 -0.000477063 -0.000795595 -0.00114192 -0.00151603 -0.00191793 -0.00234763 -0.00280511 -0.00329038 -0.00380345 -0.00431826 -0.00480879 -0.00527503 -0.00571698 -0.00613464 -0.00652802 -0.0068971 -0.0072419 -0.0075538 -0.00782416 -0.008053 -0.00824031 -0.0083861 -0.00849035 -0.00855309 -0.00857429 -0.0085536 -0.00849063 -0.00838539 -0.00823789 -0.0080481 -0.00781605 -0.00754173 -0.00722513 -0.0068762 -0.00650488 -0.00611117 -0.00569506 -0.00525657 -0.00479568 -0.00431239 -0.00380672 -0.00330634 -0.00283896 -0.00240456 -0.00200316 -0.00163475 -0.00129933 -0.000996896 -0.000727457 -0.000492544 -0.000293691 -0.000130898 -4.16617e-06 8.65056e-05 0.000141117 0.000159668 0.000142158 0.00010884 7.99641e-05 5.55307e-05 3.55396e-05 1.9991e-05 8.8849e-06 2.22123e-06 0 0 9.24596e-07 3.69838e-06 8.32136e-06 1.47935e-05 2.31149e-05 3.32854e-05 4.53052e-05 5.91741e-05 7.78566e-05 0.000104317 0.000138555 0.000180571 0.000230364 0.000287936 0.000353285 0.000426412 0.000505368 0.000588203 0.000674917 0.000765511 0.000859984 0.000958336 0.00106057 0.00116668 0.00127542 0.00138554 0.00149705 0.00160993 0.0017242 0.00183985 0.00195688 0.00207529 0.00218619 0.0022807 0.00235881 0.00242052 0.00246583 0.00249474 0.00250726 0.00250337 0.00248612 0.00245853 0.00242061 0.00237234 0.00231374 0.00224479 0.00216551 0.00207589 0.00198283 0.0018932 0.00180701 0.00172426 0.00164495 0.00156908 0.00149665 0.00142766 0.00133484 0.00119094 0.000995937 0.000749849 0.00045267 0.000104401 -0.00029496 -0.00074541 -0.00124312 -0.00178425 -0.0023688 -0.00299677 -0.00366817 -0.00438298 -0.00514122 -0.00594289 -0.00674728 -0.00751373 -0.00824223 -0.00893278 -0.00958538 -0.0102 -0.0107767 -0.0113155 -0.0118028 -0.0122253 -0.0125828 -0.0128755 -0.0131033 -0.0132662 -0.0133642 -0.0133973 -0.013365 -0.0132666 -0.0131022 -0.0128717 -0.0125752 -0.0122126 -0.0117839 -0.0112893 -0.0107441 -0.0101639 -0.0095487 -0.00889854 -0.00821338 -0.00749324 -0.00673811 -0.005948 -0.00516616 -0.00443587 -0.00375713 -0.00312994 -0.00255429 -0.0020302 -0.00155765 -0.00113665 -0.0007696 -0.000458892 -0.000204529 -6.50964e-06 0.000135165 0.000220495 0.000249481 0.000222123 0.000170063 0.000124944 8.67666e-05 5.55307e-05 3.1236e-05 1.38827e-05 3.47067e-06 0 0 1.33142e-06 5.32567e-06 1.19828e-05 2.13027e-05 3.32854e-05 4.7931e-05 6.52395e-05 8.52107e-05 0.000112113 0.000150216 0.000199519 0.000260022 0.000331725 0.000414628 0.00050873 0.000614033 0.00072773 0.000847012 0.00097188 0.00110234 0.00123838 0.00138 0.00152722 0.00168002 0.0018366 0.00199518 0.00215575 0.0023183 0.00248285 0.00264938 0.00281791 0.00298842 0.00314812 0.00328421 0.00339668 0.00348554 0.00355079 0.00359243 0.00361045 0.00360486 0.00358002 0.00354029 0.00348567 0.00341617 0.00333178 0.0032325 0.00311834 0.00298929 0.00285527 0.00272621 0.00260209 0.00248293 0.00236873 0.00225948 0.00215518 0.00205583 0.00192217 0.00171495 0.00143415 0.00107978 0.000651845 0.000150337 -0.000424742 -0.00107339 -0.00179009 -0.00256932 -0.00341107 -0.00431535 -0.00528216 -0.0063115 -0.00740336 -0.00855776 -0.00971609 -0.0108198 -0.0118688 -0.0128632 -0.0138029 -0.014688 -0.0155185 -0.0162943 -0.016996 -0.0176044 -0.0181192 -0.0185407 -0.0188687 -0.0191033 -0.0192444 -0.0192922 -0.0192456 -0.0191039 -0.0188671 -0.0185352 -0.0181082 -0.0175861 -0.0169689 -0.0162565 -0.0154715 -0.014636 -0.0137501 -0.0128139 -0.0118273 -0.0107903 -0.00970288 -0.00856511 -0.00743927 -0.00638765 -0.00541026 -0.00450711 -0.00367818 -0.00292348 -0.00224302 -0.00163678 -0.00110822 -0.000660804 -0.000294521 -9.37388e-06 0.000194638 0.000317513 0.000359253 0.000319857 0.00024489 0.000179919 0.000124944 7.99641e-05 4.49798e-05 1.9991e-05 4.99776e-06 0 0 1.81221e-06 7.24883e-06 1.63099e-05 2.89953e-05 4.53052e-05 6.52395e-05 8.87982e-05 0.000115981 0.000152599 0.000204461 0.000271567 0.000353919 0.000451514 0.000564354 0.000692439 0.000835768 0.000990521 0.00115288 0.00132284 0.0015004 0.00168557 0.00187834 0.00207871 0.00228669 0.00249982 0.00271566 0.00293421 0.00315547 0.00337943 0.0036061 0.00383548 0.00406757 0.00428494 0.00447017 0.00462326 0.00474421 0.00483302 0.00488969 0.00491422 0.00490661 0.0048728 0.00481873 0.00474439 0.00464979 0.00453492 0.0043998 0.00424441 0.00406875 0.00388634 0.00371067 0.00354174 0.00337955 0.0032241 0.0030754 0.00293343 0.00279821 0.00261629 0.00233423 0.00195204 0.0014697 0.000887233 0.000204625 -0.000578121 -0.001461 -0.00243651 -0.00349712 -0.00464284 -0.00587367 -0.00718961 -0.00859065 -0.0100768 -0.0116481 -0.0132247 -0.0147269 -0.0161548 -0.0175082 -0.0187873 -0.0199921 -0.0211224 -0.0221783 -0.0231335 -0.0239615 -0.0246623 -0.025236 -0.0256824 -0.0260017 -0.0261938 -0.0262588 -0.0261954 -0.0260026 -0.0256803 -0.0252285 -0.0246473 -0.0239367 -0.0230965 -0.022127 -0.0210584 -0.0199212 -0.0187155 -0.0174411 -0.0160982 -0.0146868 -0.0132067 -0.0116581 -0.0101257 -0.0086943 -0.00736397 -0.00613467 -0.00500641 -0.00397919 -0.00305299 -0.00222784 -0.00150842 -0.000899428 -0.000400876 -1.27589e-05 0.000264923 0.000432171 0.000488983 0.00043536 0.000333323 0.00024489 0.000170063 0.00010884 6.12225e-05 2.721e-05 6.80251e-06 0 0 2.36696e-06 9.46786e-06 2.13027e-05 3.78714e-05 5.91741e-05 8.52107e-05 0.000115981 0.000151486 0.000199313 0.000267051 0.0003547 0.000462261 0.000589733 0.000737116 0.00090441 0.00109161 0.00129374 0.0015058 0.00172779 0.00195971 0.00220156 0.00245334 0.00271505 0.0029867 0.00326507 0.00354699 0.00383244 0.00412143 0.00441395 0.00471001 0.00500961 0.00531274 0.00559666 0.00583859 0.00603855 0.00619652 0.00631252 0.00638654 0.00641858 0.00640864 0.00636447 0.00629385 0.00619675 0.00607319 0.00592317 0.00574667 0.00554372 0.00531429 0.00507604 0.00484659 0.00462594 0.00441411 0.00421107 0.00401685 0.00383142 0.00365481 0.0034172 0.00304879 0.0025496 0.00191961 0.00115884 0.000267266 -0.000755096 -0.00190825 -0.00318238 -0.00456767 -0.00606412 -0.00767173 -0.00939051 -0.0112204 -0.0131615 -0.0152138 -0.017273 -0.0192352 -0.0211001 -0.0228679 -0.0245386 -0.0261121 -0.0275884 -0.0289676 -0.0302152 -0.0312966 -0.032212 -0.0329612 -0.0335444 -0.0339614 -0.0342123 -0.0342972 -0.0342144 -0.0339625 -0.0335416 -0.0329515 -0.0321924 -0.0312642 -0.0301669 -0.0289005 -0.0275048 -0.0260195 -0.0244447 -0.0227803 -0.0210263 -0.0191827 -0.0172496 -0.0152269 -0.0132254 -0.0113558 -0.00961825 -0.00801264 -0.00653899 -0.0051973 -0.00398758 -0.00290983 -0.00197017 -0.00117476 -0.000523593 -1.66647e-05 0.000346022 0.000564468 0.000638672 0.000568634 0.00043536 0.000319857 0.000222123 0.000142158 7.99641e-05 3.55396e-05 8.8849e-06 0 0 3.01784e-06 1.20714e-05 2.71606e-05 4.82855e-05 7.54461e-05 0.000108642 0.000147874 0.000193142 0.000252506 0.000334026 0.000437702 0.000563535 0.000711525 0.000881671 0.00107397 0.00128843 0.00151909 0.00175999 0.00201114 0.00227253 0.00254416 0.00282604 0.00311816 0.00342053 0.00373079 0.00404662 0.00436801 0.00469495 0.00502746 0.00536553 0.00570915 0.00605834 0.00638591 0.0066647 0.00689469 0.00707591 0.00720833 0.00729197 0.00732682 0.00731288 0.00725996 0.00717786 0.00706658 0.00692611 0.00675647 0.00655764 0.00632962 0.00607243 0.00580536 0.00554773 0.00529953 0.00506077 0.00483144 0.00461154 0.00440108 0.00420006 0.0039248 0.00349163 0.00290055 0.00215156 0.00124467 0.000179865 -0.00104285 -0.00242347 -0.00394557 -0.00559274 -0.00736497 -0.00926227 -0.0112846 -0.0134321 -0.0157046 -0.0181021 -0.0205084 -0.0228072 -0.0249985 -0.0270823 -0.0290585 -0.0309272 -0.0326884 -0.034342 -0.035842 -0.0371422 -0.0382427 -0.0391434 -0.0398443 -0.0403454 -0.0406467 -0.0407483 -0.0406484 -0.0403454 -0.0398392 -0.0391299 -0.0382175 -0.0371019 -0.0357832 -0.0342614 -0.0325888 -0.0308179 -0.0289487 -0.0269812 -0.0249154 -0.0227513 -0.0204889 -0.0181281 -0.0157926 -0.0136057 -0.0115674 -0.00967782 -0.00793689 -0.00634462 -0.00490101 -0.00360606 -0.0024717 -0.00150986 -0.000720541 -0.000103746 0.000340526 0.000612277 0.000711507 0.000638214 0.000488633 0.000358995 0.000249302 0.000159553 8.97488e-05 3.98884e-05 9.97209e-06 0 0 3.787e-06 1.5148e-05 3.4083e-05 6.0592e-05 9.4675e-05 0.000136332 0.000185563 0.000242368 0.000312428 0.000401425 0.000509359 0.000636229 0.000782035 0.000946778 0.00113046 0.00133307 0.00154827 0.00176968 0.0019973 0.00223114 0.0024712 0.00271747 0.00296996 0.00322867 0.00349541 0.00377202 0.00405848 0.00435481 0.004661 0.00497705 0.00530297 0.00563874 0.00595534 0.00622371 0.00644386 0.00661579 0.0067395 0.00681499 0.00684226 0.00682131 0.0067642 0.00668299 0.00657769 0.00644828 0.00629478 0.00611719 0.00591549 0.0056897 0.00545532 0.00522786 0.00500732 0.0047937 0.004587 0.00438722 0.00419436 0.00400842 0.003739 0.00329573 0.0026786 0.0018876 0.000922747 -0.00021597 -0.00152855 -0.00301498 -0.00464395 -0.00638411 -0.00823547 -0.010198 -0.0122718 -0.0144567 -0.0167528 -0.0191602 -0.0215781 -0.0239059 -0.0261437 -0.0282913 -0.030349 -0.0323165 -0.034194 -0.0359814 -0.0376149 -0.0390307 -0.0402288 -0.0412091 -0.0419717 -0.0425165 -0.0428437 -0.0429531 -0.0428432 -0.0425127 -0.0419613 -0.0411893 -0.0401965 -0.038983 -0.0375487 -0.0358937 -0.0340884 -0.0322034 -0.0302386 -0.0281941 -0.0260698 -0.0238658 -0.021582 -0.0192185 -0.0168815 -0.0146772 -0.0126058 -0.010667 -0.00886109 -0.0071879 -0.00564748 -0.00423982 -0.00299117 -0.00192776 -0.00104959 -0.000356659 0.000151028 0.000473473 0.000610676 0.000562637 0.000430769 0.000316484 0.00021978 0.000140659 7.91209e-05 3.51648e-05 8.79121e-06 0 0 4.67443e-06 1.86977e-05 4.20699e-05 7.47909e-05 0.000116861 0.00016828 0.000229047 0.000299164 0.00037908 0.000469249 0.000569669 0.00068034 0.000801263 0.000932438 0.00107386 0.00122554 0.00138127 0.00153485 0.00168627 0.00183554 0.00198267 0.00212763 0.00227045 0.00241112 0.00255893 0.00272318 0.00290387 0.00310101 0.00331458 0.0035446 0.00379106 0.00405396 0.00430494 0.00451563 0.00468605 0.00481618 0.00490604 0.00495561 0.0049649 0.00493391 0.00487718 0.00480923 0.00473007 0.0046397 0.00453812 0.00442533 0.00430132 0.00416611 0.00402591 0.00388698 0.00374931 0.0036129 0.00347776 0.00334387 0.00321124 0.00307987 0.00285981 0.0024611 0.00188374 0.00112773 0.000193072 -0.000920238 -0.0022122 -0.00368281 -0.00527752 -0.00694178 -0.0086756 -0.010479 -0.0123519 -0.0142944 -0.0163064 -0.018388 -0.0204819 -0.0225311 -0.0245355 -0.0264952 -0.02841 -0.0302801 -0.0321053 -0.0338858 -0.0355339 -0.0369621 -0.0381703 -0.0391585 -0.0399267 -0.0404749 -0.0408032 -0.0409115 -0.0407989 -0.0404644 -0.039908 -0.0391296 -0.0381294 -0.0369073 -0.0354633 -0.0337974 -0.0320036 -0.0301759 -0.0283143 -0.0264188 -0.0244894 -0.0225262 -0.020529 -0.018498 -0.0164922 -0.0145706 -0.0127333 -0.0109803 -0.0093116 -0.00772716 -0.00622701 -0.00481113 -0.0035286 -0.00242846 -0.00151073 -0.000775403 -0.000222474 0.000148053 0.000336179 0.000341904 0.00026177 0.000192321 0.000133556 8.5476e-05 4.80802e-05 2.1369e-05 5.34225e-06 0 0 5.68014e-06 2.27206e-05 5.11213e-05 9.08823e-05 0.000142004 0.000204485 0.000278327 0.000363529 0.000452462 0.000537497 0.000618633 0.000695871 0.00076921 0.00083865 0.000904193 0.000965837 0.0010181 0.00105551 0.00107805 0.00108574 0.00107856 0.00105653 0.00101964 0.000967882 0.000921348 0.000900113 0.000904178 0.000933541 0.000988203 0.00106816 0.00117343 0.00130399 0.00143471 0.00154047 0.00162126 0.00167708 0.00170794 0.00171382 0.00169474 0.0016507 0.0015989 0.00155658 0.00152374 0.00150037 0.00148648 0.00148206 0.00148711 0.00150164 0.00151714 0.00152509 0.00152551 0.00151838 0.00150371 0.00148149 0.00145174 0.00141444 0.00128723 0.000987746 0.000515988 -0.000128046 -0.000944355 -0.00193294 -0.0030938 -0.00442694 -0.00584628 -0.00726576 -0.00868538 -0.0101051 -0.011525 -0.0129451 -0.0143652 -0.0157855 -0.0172201 -0.018683 -0.0201742 -0.0216937 -0.0232416 -0.0248178 -0.0264223 -0.0280552 -0.029599 -0.0309363 -0.0320671 -0.0329914 -0.0337092 -0.0342205 -0.0345253 -0.0346236 -0.0345154 -0.0342005 -0.033679 -0.032951 -0.0320163 -0.030875 -0.0295271 -0.0279725 -0.0263343 -0.0247354 -0.0231758 -0.0216554 -0.0201743 -0.0187324 -0.0173299 -0.0159666 -0.0146245 -0.0132857 -0.0119501 -0.0106176 -0.00928842 -0.0079624 -0.00663959 -0.00531998 -0.00408398 -0.00301198 -0.00210398 -0.00135998 -0.000779979 -0.000363981 -0.000111983 -2.39862e-05 -1.83645e-05 -1.34923e-05 -9.36962e-06 -5.99656e-06 -3.37306e-06 -1.49914e-06 -3.74785e-07 0 0 6.80413e-06 2.72165e-05 6.12372e-05 0.000108866 0.000170103 0.000244949 0.000333402 0.000435464 0.000532574 0.000606169 0.000656251 0.000682819 0.000685874 0.000665415 0.000621443 0.000553956 0.000458759 0.000331654 0.000172641 -1.82797e-05 -0.000241109 -0.000495846 -0.000782491 -0.00110104 -0.00141733 -0.00169719 -0.00194061 -0.00214759 -0.00231814 -0.00245225 -0.00254993 -0.00261118 -0.00265534 -0.00270179 -0.00275051 -0.00280152 -0.00285481 -0.00291037 -0.00296822 -0.00302835 -0.00307063 -0.00307496 -0.00304132 -0.00296972 -0.00286015 -0.00271263 -0.00252714 -0.00230369 -0.002071 -0.0018578 -0.0016641 -0.00148988 -0.00133515 -0.00119991 -0.00108416 -0.000987898 -0.000978751 -0.00112434 -0.00142467 -0.00187973 -0.00248954 -0.00325408 -0.00417335 -0.00524737 -0.00635023 -0.00735604 -0.00826479 -0.0090765 -0.00979116 -0.0104088 -0.0109293 -0.0113528 -0.0117925 -0.0123614 -0.0130595 -0.013887 -0.0148437 -0.0159298 -0.0171451 -0.0184896 -0.0198102 -0.0209534 -0.0219194 -0.022708 -0.0233193 -0.0237533 -0.02401 -0.0240894 -0.0239927 -0.0237211 -0.0232746 -0.0226533 -0.0218571 -0.020886 -0.01974 -0.0184191 -0.0170807 -0.015882 -0.014823 -0.0139038 -0.0131243 -0.0124846 -0.0119846 -0.0116243 -0.0112787 -0.0108226 -0.010256 -0.009579 -0.00879153 -0.00789361 -0.00688522 -0.00576637 -0.00465731 -0.0036783 -0.00282932 -0.00211038 -0.00152149 -0.00106263 -0.000733811 -0.000535033 -0.000409635 -0.000300956 -0.000208997 -0.000133758 -7.5239e-05 -3.34396e-05 -8.35989e-06 0 0 8.04639e-06 3.21856e-05 7.24175e-05 0.000128742 0.00020116 0.00028967 0.000394273 0.000514969 0.000619414 0.000675266 0.000682523 0.000641187 0.000551257 0.000412732 0.000225614 -1.00977e-05 -0.000296755 -0.000636709 -0.00102996 -0.00147651 -0.00197635 -0.00252949 -0.00313593 -0.00379566 -0.00445712 -0.00506872 -0.00563048 -0.00614239 -0.00660445 -0.00701665 -0.00737901 -0.00769152 -0.00796522 -0.00821113 -0.00842926 -0.00861961 -0.00878218 -0.00891697 -0.00902398 -0.00910321 -0.00913142 -0.00908538 -0.00896509 -0.00877055 -0.00850176 -0.00815872 -0.00774143 -0.00724989 -0.00673851 -0.00626171 -0.0058195 -0.00541186 -0.00503881 -0.00470033 -0.00439644 -0.00412713 -0.00393813 -0.00387516 -0.00393823 -0.00412733 -0.00444247 -0.00488365 -0.00545086 -0.00614411 -0.00678937 -0.00721261 -0.00741385 -0.00739308 -0.00715029 -0.0066855 -0.00599869 -0.00508987 -0.00419908 -0.00356634 -0.00319165 -0.00307502 -0.00321644 -0.00361591 -0.00427344 -0.00518903 -0.00616744 -0.00701343 -0.00772702 -0.0083082 -0.00875698 -0.00907334 -0.00925729 -0.00930884 -0.00923082 -0.00902611 -0.0086947 -0.00823659 -0.00765178 -0.00694026 -0.00610205 -0.00513713 -0.00424262 -0.00361561 -0.0032561 -0.00316409 -0.00333959 -0.00378259 -0.00449309 -0.0054711 -0.0064545 -0.00718119 -0.00765116 -0.00786441 -0.00782096 -0.00752079 -0.0069639 -0.0061503 -0.0052486 -0.00442742 -0.00368676 -0.00302662 -0.002447 -0.00194789 -0.00152931 -0.00119124 -0.000912041 -0.000670071 -0.000465327 -0.000297809 -0.000167518 -7.44523e-05 -1.86131e-05 0 0 9.40693e-06 3.76277e-05 8.46624e-05 0.000150511 0.000235173 0.00033865 0.00046094 0.000602044 0.000712985 0.000744787 0.00069745 0.000570973 0.000365357 8.0602e-05 -0.000283292 -0.000726326 -0.00124844 -0.00184958 -0.00252975 -0.00328894 -0.00412716 -0.0050444 -0.00604067 -0.00711596 -0.008198 -0.00921449 -0.0101654 -0.0110508 -0.0118707 -0.012625 -0.0133138 -0.0139371 -0.0144949 -0.0149876 -0.015415 -0.0157772 -0.0160742 -0.016306 -0.0164725 -0.0165739 -0.0165835 -0.0164747 -0.0162476 -0.0159021 -0.0154384 -0.0148562 -0.0141558 -0.013337 -0.0124854 -0.0116866 -0.0109407 -0.0102476 -0.00960727 -0.00901979 -0.00848511 -0.00800326 -0.0075909 -0.00726471 -0.00702469 -0.00687084 -0.00680316 -0.00682165 -0.00692631 -0.00711715 -0.00716369 -0.0068355 -0.00613255 -0.00505486 -0.00360243 -0.00177525 0.000426671 0.00300334 0.00556005 0.0077021 0.00942949 0.0107422 0.0116403 0.0121237 0.0121925 0.0118466 0.0113292 0.0108837 0.0105099 0.010208 0.00997781 0.00981944 0.00973286 0.00971807 0.00977022 0.00988444 0.0100607 0.0102991 0.0105996 0.0109621 0.0113867 0.0118734 0.0121799 0.0120637 0.011525 0.0105638 0.00917992 0.00737351 0.00514454 0.00249299 -0.000152068 -0.00236156 -0.0041355 -0.00547387 -0.00637669 -0.00684394 -0.00687564 -0.00647177 -0.00585785 -0.00525936 -0.0046763 -0.00410869 -0.00355651 -0.00301977 -0.00249847 -0.0019926 -0.00152558 -0.00112084 -0.000778358 -0.000498149 -0.000280209 -0.000124537 -3.11343e-05 0 0 1.08857e-05 4.3543e-05 9.79717e-05 0.000174172 0.000272144 0.000391887 0.000533402 0.000696688 0.000813285 0.000814732 0.00070103 0.000472178 0.000128176 -0.000330976 -0.000905277 -0.00159473 -0.0023963 -0.00330697 -0.00432673 -0.00545559 -0.00669354 -0.00804058 -0.00949672 -0.011062 -0.01264 -0.0141345 -0.0155455 -0.016873 -0.0181169 -0.0192774 -0.0203544 -0.0213478 -0.0222444 -0.0230311 -0.0237077 -0.0242743 -0.0247309 -0.0250774 -0.0253139 -0.0254404 -0.0254268 -0.0252429 -0.0248888 -0.0243645 -0.0236699 -0.0228051 -0.0217701 -0.0205649 -0.0193116 -0.0181326 -0.0170277 -0.015997 -0.0150405 -0.0141583 -0.0133502 -0.0126163 -0.0119371 -0.011293 -0.010684 -0.0101103 -0.0095716 -0.00906809 -0.00859972 -0.00816649 -0.00747321 -0.00622468 -0.00442089 -0.00206186 0.000852432 0.00432197 0.00834676 0.0129268 0.0174849 0.021444 0.0248039 0.0275647 0.0297265 0.0312891 0.0322527 0.0326172 0.0326798 0.0327379 0.0327915 0.0328405 0.032885 0.032925 0.0329604 0.0329913 0.0330104 0.0330106 0.0329917 0.0329538 0.032897 0.0328212 0.0327263 0.0326125 0.0321867 0.031156 0.0295204 0.0272798 0.0244342 0.0209837 0.0169283 0.012268 0.00762864 0.0036363 0.000290967 -0.00240737 -0.00445872 -0.00586307 -0.00662042 -0.00673078 -0.00648504 -0.0061741 -0.00579795 -0.00535659 -0.00485003 -0.00427826 -0.00364129 -0.00293911 -0.00225026 -0.00165325 -0.00114809 -0.000734779 -0.000413313 -0.000183695 -4.59237e-05 0 0 1.13376e-05 4.53505e-05 0.000102039 0.000181402 0.000283441 0.000408154 0.000555544 0.000725608 0.000833917 0.000796039 0.000611975 0.000281725 -0.000194712 -0.000817335 -0.00158614 -0.00250114 -0.00355181 -0.00472763 -0.00602861 -0.00745475 -0.00900604 -0.0106825 -0.0124841 -0.0144109 -0.0163557 -0.0182116 -0.0199785 -0.0216564 -0.0232453 -0.0247453 -0.0261563 -0.0274783 -0.0286804 -0.0297319 -0.0306326 -0.0313825 -0.0319818 -0.0324303 -0.0327281 -0.0328752 -0.0328381 -0.0325835 -0.0321112 -0.0314214 -0.030514 -0.029389 -0.0280465 -0.0264863 -0.0248739 -0.0233747 -0.0219886 -0.0207157 -0.0195559 -0.0185092 -0.0175757 -0.0167553 -0.0159641 -0.0151182 -0.0142176 -0.0132621 -0.012252 -0.0111871 -0.0100674 -0.00889304 -0.00729774 -0.0049154 -0.00174601 0.00221043 0.00695393 0.0124845 0.0188021 0.0259067 0.0329904 0.0392449 0.0446704 0.0492669 0.0530343 0.0559726 0.0580818 0.059362 0.0601758 0.0608858 0.0614921 0.0619947 0.0623935 0.0626886 0.0628799 0.0629675 0.0629417 0.0627927 0.0625206 0.0621253 0.0616069 0.0609654 0.0602007 0.0593128 0.0579484 0.0557538 0.0527292 0.0488745 0.0441897 0.0386748 0.0323298 0.0251547 0.0180167 0.0117828 0.00645318 0.00202768 -0.00149364 -0.00411079 -0.00582376 -0.00663256 -0.00690401 -0.00700495 -0.00693537 -0.00669527 -0.00628465 -0.00570352 -0.00495187 -0.0040297 -0.00308524 -0.00226671 -0.0015741 -0.00100743 -0.000566677 -0.000251856 -6.29641e-05 0 0 9.61734e-06 3.84694e-05 8.6556e-05 0.000153877 0.000240433 0.000346224 0.00047125 0.00061551 0.000688482 0.000599644 0.000348996 -6.34616e-05 -0.00063773 -0.00137381 -0.0022717 -0.00333139 -0.00452643 -0.00583033 -0.00724309 -0.00876472 -0.0103952 -0.0121346 -0.0139828 -0.0159399 -0.0179178 -0.0198286 -0.0216722 -0.0234487 -0.0251581 -0.0268002 -0.0283753 -0.0298831 -0.0312695 -0.0324801 -0.0335148 -0.0343736 -0.0350567 -0.0355639 -0.0358953 -0.0360508 -0.0359944 -0.0356899 -0.0351374 -0.0343368 -0.0332882 -0.0319915 -0.0304467 -0.0286539 -0.0268291 -0.0251883 -0.0237317 -0.0224591 -0.0213706 -0.0204661 -0.0197458 -0.0192095 -0.0186597 -0.0178987 -0.0169265 -0.0157431 -0.0143485 -0.0127427 -0.0109258 -0.00889767 -0.00621712 -0.00244291 0.00242497 0.0083865 0.0154417 0.0235906 0.0328331 0.0431693 0.0534911 0.0626907 0.070768 0.077723 0.0835558 0.0882662 0.0918544 0.0943203 0.0961086 0.0976639 0.0989862 0.100076 0.100932 0.101555 0.101946 0.102103 0.102016 0.101671 0.10107 0.100211 0.0990958 0.0977232 0.0960936 0.0942069 0.091635 0.0879497 0.0831508 0.0772384 0.0702126 0.0620733 0.0528204 0.0424541 0.0321412 0.0230485 0.0151761 0.0085239 0.00309197 -0.00111971 -0.00411114 -0.00588232 -0.00688858 -0.00758522 -0.00797225 -0.00804967 -0.00781749 -0.00727569 -0.00642429 -0.00526327 -0.00402969 -0.00296059 -0.00205597 -0.00131582 -0.000740148 -0.000328955 -8.22387e-05 0 0 5.7249e-06 2.28996e-05 5.15241e-05 9.15983e-05 0.000143122 0.000206096 0.00028052 0.000366393 0.000376981 0.000225548 -8.79064e-05 -0.000563382 -0.00120088 -0.0020004 -0.00296193 -0.00408549 -0.00532017 -0.00661507 -0.00797018 -0.00938551 -0.0108611 -0.0123968 -0.0139928 -0.015649 -0.0173263 -0.0189856 -0.0206268 -0.02225 -0.0238551 -0.0254422 -0.0270113 -0.0285623 -0.0300117 -0.0312757 -0.0323543 -0.0332476 -0.0339555 -0.0344781 -0.0348153 -0.0349672 -0.0348956 -0.0345623 -0.0339673 -0.0331107 -0.0319924 -0.0306125 -0.0289709 -0.0270676 -0.025177 -0.0235734 -0.0222568 -0.0212272 -0.0204846 -0.020029 -0.0198604 -0.0199788 -0.0200236 -0.0196343 -0.0188107 -0.017553 -0.0158611 -0.0137351 -0.0111748 -0.00818039 -0.00423133 0.00119281 0.00809203 0.0164663 0.0263157 0.0376402 0.0504398 0.0647144 0.0789872 0.0917813 0.103097 0.112933 0.121291 0.12817 0.133571 0.137492 0.140478 0.143072 0.145274 0.147083 0.148501 0.149526 0.150158 0.150399 0.150233 0.149647 0.14864 0.147212 0.145364 0.143095 0.140405 0.137295 0.133247 0.127744 0.120785 0.112372 0.102503 0.0911792 0.0784003 0.0641662 0.0500021 0.0374333 0.0264597 0.0170813 0.00929811 0.00311016 -0.00148257 -0.00448008 -0.00643873 -0.00791491 -0.0089086 -0.00941981 -0.00944853 -0.00899478 -0.00805855 -0.00663983 -0.00508362 -0.0037349 -0.00259368 -0.00165996 -0.000933726 -0.000414989 -0.000103747 0 0 -3.39708e-07 -1.35883e-06 -3.05737e-06 -5.43532e-06 -8.49269e-06 -1.22295e-05 -1.66457e-05 -2.17413e-05 -0.000100586 -0.00032625 -0.000698733 -0.00121804 -0.00188416 -0.0026971 -0.00365686 -0.00476343 -0.00593303 -0.00708184 -0.00820987 -0.00931712 -0.0104036 -0.0114693 -0.0125142 -0.0135383 -0.0145812 -0.0156825 -0.0168421 -0.0180601 -0.0193365 -0.0206713 -0.0220644 -0.0235159 -0.0249069 -0.0261187 -0.0271512 -0.0280044 -0.0286783 -0.0291729 -0.0294883 -0.0296244 -0.0295416 -0.0292005 -0.0286009 -0.027743 -0.0266267 -0.025252 -0.0236189 -0.0217274 -0.0199177 -0.0185299 -0.017564 -0.01702 -0.016898 -0.0171978 -0.0179196 -0.0190633 -0.020056 -0.0203251 -0.0198704 -0.018692 -0.0167899 -0.0141641 -0.0108145 -0.0067412 -0.00134038 0.00599175 0.0152552 0.02645 0.039576 0.0546335 0.0716222 0.0905422 0.109479 0.126517 0.141656 0.154897 0.16624 0.175684 0.18323 0.188877 0.193285 0.197111 0.200355 0.203018 0.205099 0.206599 0.207517 0.207854 0.207593 0.206718 0.20523 0.203127 0.20041 0.19708 0.193135 0.188577 0.182784 0.175136 0.165632 0.154274 0.141061 0.125993 0.109069 0.0902909 0.0715995 0.0549372 0.040304 0.0276998 0.0171248 0.00857882 0.00206195 -0.00242582 -0.00555448 -0.00799401 -0.00974441 -0.0108057 -0.0111778 -0.0108608 -0.00985465 -0.00815937 -0.00624702 -0.00458965 -0.00318725 -0.00203984 -0.00114741 -0.000509961 -0.00012749 0 0 -8.57647e-06 -3.43059e-05 -7.71882e-05 -0.000137224 -0.000214412 -0.000308753 -0.000420247 -0.000548894 -0.00074422 -0.00105575 -0.00148348 -0.00202742 -0.00268757 -0.00346391 -0.00435646 -0.00536522 -0.00636501 -0.00723066 -0.00796217 -0.00855955 -0.00902278 -0.00935188 -0.00954684 -0.00960766 -0.00968244 -0.00991929 -0.0103182 -0.0108792 -0.0116022 -0.0124874 -0.0135346 -0.0147438 -0.0159553 -0.0170091 -0.0179054 -0.018644 -0.019225 -0.0196484 -0.0199142 -0.0200223 -0.0199325 -0.0196045 -0.0190383 