<?xml version="1.0"?> 
<VTKFile type="StructuredGrid" version="0.1"> 
<StructuredGrid WholeExtent="0 128 0 128 0 0"> 
<Piece Extent="0 128 0 128 0 0"> 
<PointData>
<DataArray type="Float32" Name="u" format="ascii" NumberOfComponents="1"> 
0 0 0 0 0 0 0 0 0 0 0 0 0 0 0 0 0 0 0 0 0 0 0 0 0 0 0 0 0 0 0 0 0 0 0 0 0 0 0 0 0 0 0 0 0 0 0 0 0 0 0 0 0 0 0 0 0 0 0 0 0 0 0 0 0 0 0 0 0 0 0 0 0 0 0 0 0 0 0 0 0 0 0 0 0 0 0 0 0 0 0 0 0 0 0 0 0 0 0 0 0 0 0 0 0 0 0 0 0 0 0 0 0 0 0 0 0 0 0 0 0 0 0 0 0 0 0 0 0 0 1.0318e-07 4.12721e-07 9.28622e-07 1.65088e-06 2.5795e-06 3.71449e-06 5.05583e-06 6.60353e-06 8.16151e-06 9.53367e-06 1.072e-05 1.17206e-05 1.25353e-05 1.31642e-05 1.36073e-05 1.38646e-05 1.39478e-05 1.38686e-05 1.3627e-05 1.32231e-05 1.26567e-05 1.1928e-05 1.10368e-05 9.9833e-06 8.96679e-06 8.1867e-06 7.64303e-06 7.33579e-06 7.26496e-06 7.43056e-06 7.83258e-06 8.47102e-06 9.16303e-06 9.72575e-06 1.01592e-05 1.04633e-05 1.06382e-05 1.06838e-05 1.06001e-05 1.03871e-05 1.01871e-05 1.01427e-05 1.02536e-05 1.052e-05 1.09419e-05 1.15192e-05 1.22519e-05 1.31401e-05 1.39695e-05 1.45258e-05 1.48091e-05 1.48193e-05 1.45564e-05 1.40205e-05 1.32115e-05 1.21295e-05 1.0001e-05 6.05272e-06 2.84589e-07 -7.30336e-06 -1.67111e-05 -2.79387e-05 -4.09862e-05 -5.58534e-05 -7.22852e-05 -9.00261e-05 -0.000109076 -0.000129435 -0.000151104 -0.000174081 -0.000198368 -0.000223964 -0.000250043 -0.00027578 -0.000301173 -0.000326224 -0.000350933 -0.000375298 -0.000399321 -0.000423001 -0.000445027 -0.000464084 -0.000480174 -0.000493297 -0.000503452 -0.00051064 -0.00051486 -0.000516112 -0.00051444 -0.000509883 -0.000502444 -0.000492121 -0.000478915 -0.000462826 -0.000443853 -0.000421997 -0.000398603 -0.000375018 -0.000351242 -0.000327275 -0.000303115 -0.000278765 -0.000254223 -0.00022949 -0.00020528 -0.00018231 -0.00016058 -0.000140089 -0.000120837 -0.000102824 -8.60512e-05 -7.05174e-05 -5.64507e-05 -4.40785e-05 -3.34008e-05 -2.44177e-05 -1.71291e-05 -1.15351e-05 -7.6356e-06 -5.43066e-06 -4.15785e-06 -3.05475e-06 -2.12135e-06 -1.35767e-06 -7.63687e-07 -3.39416e-07 -8.48541e-08 0 0 4.12721e-07 1.65088e-06 3.71449e-06 6.60353e-06 1.0318e-05 1.48579e-05 2.02233e-05 2.64141e-05 3.2646e-05 3.81347e-05 4.28801e-05 4.68823e-05 5.01412e-05 5.26569e-05 5.44293e-05 5.54585e-05 5.57913e-05 5.54745e-05 5.45082e-05 5.28923e-05 5.06268e-05 4.77118e-05 4.41473e-05 3.99332e-05 3.58672e-05 3.27468e-05 3.05721e-05 2.93432e-05 2.90599e-05 2.97222e-05 3.13303e-05 3.38841e-05 3.66521e-05 3.8903e-05 4.06367e-05 4.18533e-05 4.25528e-05 4.27351e-05 4.24002e-05 4.15482e-05 4.07486e-05 4.05707e-05 4.10145e-05 4.20802e-05 4.37676e-05 4.60768e-05 4.90078e-05 5.25605e-05 5.5878e-05 5.81033e-05 5.92363e-05 5.92771e-05 5.82257e-05 5.6082e-05 5.28461e-05 4.8518e-05 4.00041e-05 2.42109e-05 1.13835e-06 -2.92135e-05 -6.68446e-05 -0.000111755 -0.000163945 -0.000223414 -0.000289141 -0.000360104 -0.000436305 -0.000517742 -0.000604415 -0.000696325 -0.000793472 -0.000895856 -0.00100017 -0.00110312 -0.00120469 -0.0013049 -0.00140373 -0.00150119 -0.00159728 -0.00169201 -0.00178011 -0.00185634 -0.0019207 -0.00197319 -0.00201381 -0.00204256 -0.00205944 -0.00206445 -0.00205776 -0.00203953 -0.00200978 -0.00196848 -0.00191566 -0.0018513 -0.00177541 -0.00168799 -0.00159441 -0.00150007 -0.00140497 -0.0013091 -0.00121246 -0.00111506 -0.00101689 -0.000917959 -0.000821121 -0.000729241 -0.000642319 -0.000560354 -0.000483347 -0.000411297 -0.000344205 -0.00028207 -0.000225803 -0.000176314 -0.000133603 -9.76708e-05 -6.85165e-05 -4.61403e-05 -3.05424e-05 -2.17226e-05 -1.66314e-05 -1.2219e-05 -8.48541e-06 -5.43066e-06 -3.05475e-06 -1.35767e-06 -3.39416e-07 0 0 9.28622e-07 3.71449e-06 8.35759e-06 1.48579e-05 2.32155e-05 3.34304e-05 4.55025e-05 5.94318e-05 7.34536e-05 8.58031e-05 9.64802e-05 0.000105485 0.000112818 0.000118478 0.000122466 0.000124782 0.00012553 0.000124818 0.000122643 0.000119008 0.00011391 0.000107352 9.93314e-05 8.98497e-05 8.07011e-05 7.36803e-05 6.87873e-05 6.60221e-05 6.53847e-05 6.6875e-05 7.04932e-05 7.62392e-05 8.24672e-05 8.75317e-05 9.14326e-05 9.417e-05 9.57437e-05 9.61539e-05 9.54005e-05 9.34835e-05 9.16843e-05 9.1284e-05 9.22827e-05 9.46804e-05 9.84771e-05 0.000103673 0.000110267 0.000118261 0.000125726 0.000130732 0.000133282 0.000133374 0.000131008 0.000126185 0.000118904 0.000109165 9.00092e-05 5.44744e-05 2.5613e-06 -6.57303e-05 -0.0001504 -0.000251449 -0.000368876 -0.000502681 -0.000650567 -0.000810235 -0.000981685 -0.00116492 -0.00135993 -0.00156673 -0.00178531 -0.00201568 -0.00225039 -0.00248202 -0.00271056 -0.00293602 -0.00315839 -0.00337768 -0.00359389 -0.00380701 -0.00400524 -0.00417676 -0.00432157 -0.00443967 -0.00453107 -0.00459576 -0.00463374 -0.00464501 -0.00462996 -0.00458895 -0.004522 -0.00442909 -0.00431024 -0.00416543 -0.00399468 -0.00379797 -0.00358743 -0.00337517 -0.00316118 -0.00294547 -0.00272804 -0.00250888 -0.00228801 -0.00206541 -0.00184752 -0.00164079 -0.00144522 -0.0012608 -0.00108753 -0.000925418 -0.00077446 -0.000634657 -0.000508056 -0.000396706 -0.000300607 -0.000219759 -0.000154162 -0.000103816 -6.87204e-05 -4.8876e-05 -3.74207e-05 -2.74927e-05 -1.90922e-05 -1.2219e-05 -6.87318e-06 -3.05475e-06 -7.63687e-07 0 0 1.65088e-06 6.60353e-06 1.48579e-05 2.64141e-05 4.12721e-05 5.94318e-05 8.08933e-05 0.000105656 0.000130584 0.000152539 0.00017152 0.000187529 0.000200565 0.000210627 0.000217717 0.000221834 0.000223165 0.000221898 0.000218033 0.000211569 0.000202507 0.000190847 0.000176589 0.000159733 0.000143469 0.000130987 0.000122289 0.000117373 0.000116239 0.000118889 0.000125321 0.000135536 0.000146608 0.000155612 0.000162547 0.000167413 0.000170211 0.00017094 0.000169601 0.000166193 0.000162994 0.000162283 0.000164058 0.000168321 0.00017507 0.000184307 0.000196031 0.000210242 0.000223512 0.000232413 0.000236945 0.000237108 0.000232903 0.000224328 0.000211384 0.000194072 0.000160016 9.68435e-05 4.55342e-06 -0.000116854 -0.000267378 -0.00044702 -0.000655779 -0.000893655 -0.00115656 -0.00144042 -0.00174522 -0.00207097 -0.00241766 -0.0027853 -0.00317389 -0.00358342 -0.00400069 -0.00441247 -0.00481877 -0.00521959 -0.00561492 -0.00600477 -0.00638914 -0.00676802 -0.00712042 -0.00742535 -0.00768279 -0.00789275 -0.00805523 -0.00817023 -0.00823776 -0.0082578 -0.00823103 -0.00815814 -0.0080391 -0.00787394 -0.00766264 -0.00740521 -0.00710165 -0.00675195 -0.00637765 -0.0060003 -0.00561988 -0.00523639 -0.00484985 -0.00446024 -0.00406757 -0.00367183 -0.00328449 -0.00291697 -0.00256928 -0.00224142 -0.00193339 -0.00164519 -0.00137682 -0.00112828 -0.000903211 -0.000705256 -0.000534413 -0.000390683 -0.000274066 -0.000184561 -0.00012217 -8.68906e-05 -6.65256e-05 -4.8876e-05 -3.39416e-05 -2.17226e-05 -1.2219e-05 -5.43066e-06 -1.35767e-06 0 0 2.5795e-06 1.0318e-05 2.32155e-05 4.12721e-05 6.44876e-05 9.28622e-05 0.000126396 0.000165088 0.000204038 0.000238342 0.000268001 0.000293014 0.000313382 0.000329105 0.000340183 0.000346615 0.000348695 0.000346716 0.000340676 0.000330577 0.000316418 0.000298199 0.000275921 0.000249582 0.00022417 0.000204668 0.000191076 0.000183395 0.000181624 0.000185764 0.000195814 0.000211775 0.000229076 0.000243144 0.00025398 0.000261583 0.000265955 0.000267094 0.000265001 0.000259677 0.000254679 0.000253567 0.000256341 0.000263001 0.000273548 0.00028798 0.000306299 0.000328503 0.000349238 0.000363145 0.000370227 0.000370482 0.000363911 0.000350513 0.000330288 0.000303237 0.000250025 0.000151318 7.11472e-06 -0.000182584 -0.000417779 -0.000698469 -0.00102465 -0.00139634 -0.00180713 -0.00225065 -0.0027269 -0.00323588 -0.0037776 -0.00435203 -0.0049592 -0.0055991 -0.00625108 -0.00689449 -0.00752933 -0.00815561 -0.00877332 -0.00938246 -0.00998303 -0.010575 -0.0111257 -0.0116021 -0.0120044 -0.0123324 -0.0125863 -0.012766 -0.0128715 -0.0129028 -0.012861 -0.0127471 -0.0125611 -0.012303 -0.0119729 -0.0115706 -0.0110963 -0.0105499 -0.00996508 -0.00937546 -0.00878106 -0.00818186 -0.00757789 -0.00696912 -0.00635558 -0.00573724 -0.00513201 -0.00455776 -0.00401449 -0.00350221 -0.00302092 -0.00257061 -0.00215128 -0.00176294 -0.00141127 -0.00110196 -0.00083502 -0.000610442 -0.000428228 -0.000288377 -0.00019089 -0.000135767 -0.000103946 -7.63687e-05 -5.30338e-05 -3.39416e-05 -1.90922e-05 -8.48541e-06 -2.12135e-06 0 0 3.71449e-06 1.48579e-05 3.34304e-05 5.94318e-05 9.28622e-05 0.000133721 0.00018201 0.000237727 0.000293814 0.000343212 0.000385921 0.00042194 0.000451271 0.000473912 0.000489864 0.000499126 0.000502121 0.00049927 0.000490573 0.00047603 0.000455641 0.000429407 0.000397326 0.000359399 0.000322804 0.000294721 0.000275149 0.000264088 0.000261539 0.0002675 0.000281973 0.000304957 0.000329869 0.000350127 0.000365731 0.00037668 0.000382975 0.000384616 0.000381602 0.000373934 0.000366737 0.000365136 0.000369131 0.000378722 0.000393908 0.000414691 0.00044107 0.000473044 0.000502902 0.000522929 0.000533127 0.000533494 0.000524031 0.000504738 0.000475615 0.000436662 0.000360037 0.000217898 1.02452e-05 -0.000262921 -0.000601601 -0.00100579 -0.0014755 -0.00201072 -0.00260227 -0.00324094 -0.00392674 -0.00465967 -0.00543974 -0.00626693 -0.00714125 -0.0080627 -0.00900155 -0.00992806 -0.0108422 -0.0117441 -0.0126336 -0.0135107 -0.0143756 -0.0152281 -0.016021 -0.016707 -0.0172863 -0.0177587 -0.0181243 -0.018383 -0.018535 -0.01858 -0.0185198 -0.0183558 -0.018088 -0.0177164 -0.0172409 -0.0166617 -0.0159787 -0.0151919 -0.0143497 -0.0135007 -0.0126447 -0.0117819 -0.0109122 -0.0100355 -0.00915203 -0.00826163 -0.00739009 -0.00656317 -0.00578087 -0.00504319 -0.00435012 -0.00370167 -0.00309784 -0.00253863 -0.00203222 -0.00158683 -0.00120243 -0.000879037 -0.000616648 -0.000415263 -0.000274882 -0.000195504 -0.000149683 -0.000109971 -7.63687e-05 -4.8876e-05 -2.74927e-05 -1.2219e-05 -3.05475e-06 0 0 5.05583e-06 2.02233e-05 4.55025e-05 8.08933e-05 0.000126396 0.00018201 0.000247736 0.000323573 0.000399914 0.00046715 0.000525281 0.000574308 0.00061423 0.000645047 0.000666759 0.000679366 0.000683443 0.000679562 0.000667725 0.00064793 0.000620179 0.00058447 0.000540804 0.000489182 0.000439373 0.000401148 0.000374509 0.000359454 0.000355983 0.000364097 0.000383796 0.00041508 0.000448988 0.000476562 0.0004978 0.000512703 0.000521271 0.000523505 0.000519403 0.000508966 0.00049917 0.000496991 0.000502428 0.000515482 0.000536153 0.000564441 0.000600345 0.000643866 0.000684506 0.000711765 0.000725645 0.000726145 0.000713265 0.000687005 0.000647365 0.000594345 0.00049005 0.000296583 1.39448e-05 -0.000357865 -0.000818846 -0.001369 -0.00200832 -0.00273682 -0.00354197 -0.00441128 -0.00534473 -0.00634233 -0.00740409 -0.00852999 -0.00972004 -0.0109742 -0.0122521 -0.0135132 -0.0147575 -0.015985 -0.0171957 -0.0183896 -0.0195667 -0.0207271 -0.0218063 -0.0227401 -0.0235285 -0.0241715 -0.0246691 -0.0250213 -0.0252281 -0.0252895 -0.0252075 -0.0249843 -0.0246198 -0.0241139 -0.0234668 -0.0226785 -0.0217488 -0.0206778 -0.0195316 -0.0183759 -0.0172109 -0.0160365 -0.0148527 -0.0136595 -0.0124569 -0.011245 -0.0100587 -0.00893321 -0.00786841 -0.00686434 -0.005921 -0.00503839 -0.00421651 -0.00345535 -0.00276608 -0.00215985 -0.00163664 -0.00119647 -0.000839327 -0.000565219 -0.000374144 -0.000266102 -0.000203735 -0.000149683 -0.000103946 -6.65256e-05 -3.74207e-05 -1.66314e-05 -4.15785e-06 0 0 6.60353e-06 2.64141e-05 5.94318e-05 0.000105656 0.000165088 0.000237727 0.000323573 0.000422626 0.000522336 0.000610155 0.000686082 0.000750116 0.000802259 0.00084251 0.000870869 0.000887336 0.00089266 0.000887592 0.00087213 0.000846276 0.000810029 0.000763389 0.000706357 0.000638931 0.000573874 0.000523949 0.000489154 0.00046949 0.000464958 0.000475556 0.000501285 0.000542145 0.000586434 0.000622448 0.000650188 0.000669653 0.000680844 0.000683761 0.000678404 0.000664772 0.000651977 0.000649131 0.000656233 0.000673283 0.000700282 0.000737229 0.000784124 0.000840968 0.000894048 0.000929652 0.000947781 0.000948434 0.000931611 0.000897312 0.000845538 0.000776288 0.000640065 0.000387374 1.82137e-05 -0.000467415 -0.00106951 -0.00178808 -0.00262312 -0.00357462 -0.00462625 -0.00576167 -0.00698087 -0.00828387 -0.00967064 -0.0111412 -0.0126956 -0.0143337 -0.0160028 -0.0176499 -0.0192751 -0.0208784 -0.0224597 -0.0240191 -0.0255566 -0.0270721 -0.0284817 -0.0297014 -0.0307312 -0.031571 -0.0322209 -0.0326809 -0.032951 -0.0330312 -0.0329241 -0.0326325 -0.0321564 -0.0314958 -0.0306506 -0.0296208 -0.0284066 -0.0270078 -0.0255106 -0.0240012 -0.0224795 -0.0209456 -0.0193994 -0.017841 -0.0162703 -0.0146873 -0.0131379 -0.0116679 -0.0102771 -0.00896567 -0.00773355 -0.00658075 -0.00550727 -0.00451312 -0.00361284 -0.00282102 -0.00213765 -0.00156273 -0.00109626 -0.000738245 -0.000488678 -0.000347562 -0.000266102 -0.000195504 -0.000135767 -8.68906e-05 -4.8876e-05 -2.17226e-05 -5.43066e-06 0 0 7.98996e-06 3.19598e-05 7.19097e-05 0.000127839 0.000199749 0.000287639 0.000391508 0.000511358 0.00063108 0.000734568 0.000821823 0.000892843 0.00094763 0.000986182 0.0010085 0.00101459 0.0010056 0.000982714 0.000945923 0.000895228 0.000830631 0.000752129 0.000659725 0.000553417 0.000449446 0.000364052 0.000297235 0.000248996 0.000219334 0.000208249 0.000215742 0.000241812 0.000273681 0.000298572 0.000316485 0.00032742 0.000331377 0.000328356 0.000318356 0.000301379 0.000288457 0.000290626 0.000307886 0.000340237 0.000387678 0.00045021 0.000527833 0.000620546 0.000708982 0.000773775 0.000814924 0.000832429 0.00082629 0.000796508 0.000743081 0.000666011 0.000508075 0.00021205 -0.000222062 -0.000794262 -0.00150455 -0.00235293 -0.00333939 -0.00446394 -0.00570385 -0.00703637 -0.0084615 -0.00997925 -0.0115896 -0.0132926 -0.0150882 -0.0169764 -0.0189016 -0.0208082 -0.0226962 -0.0245655 -0.0264162 -0.0282482 -0.0300617 -0.0318565 -0.0335293 -0.0349766 -0.0361984 -0.0371948 -0.0379657 -0.0385112 -0.0388313 -0.0389258 -0.0387983 -0.0384522 -0.0378874 -0.037104 -0.0361019 -0.0348812 -0.0334418 -0.0317838 -0.0300128 -0.0282345 -0.0264489 -0.024656 -0.0228559 -0.0210484 -0.0192336 -0.0174116 -0.0156287 -0.0139314 -0.0123197 -0.0107936 -0.00935304 -0.00799814 -0.00672883 -0.00554512 -0.00446785 -0.00351785 -0.00269514 -0.0019997 -0.00143154 -0.000990665 -0.000677063 -0.000490739 -0.000375722 -0.000276041 -0.000191695 -0.000122685 -6.90101e-05 -3.06712e-05 -7.66779e-06 0 0 8.84749e-06 3.539e-05 7.96274e-05 0.00014156 0.000221187 0.00031851 0.000433527 0.000566239 0.000696142 0.000802731 0.000886005 0.000945966 0.000982612 0.000995945 0.000985963 0.000952667 0.000898095 0.000824284 0.000731234 0.000618946 0.00048742 0.000336655 0.000166651 -2.25912e-05 -0.000210777 -0.000377613 -0.000523098 -0.000647232 -0.000750015 -0.000831448 -0.00089153 -0.000930262 -0.000957794 -0.000984278 -0.00100972 -0.00103411 -0.00105745 -0.00107974 -0.00110099 -0.00112119 -0.00112809 -0.00110945 -0.00106527 -0.000995542 -0.000900273 -0.00077946 -0.000633104 -0.000461205 -0.000293239 -0.000158684 -5.75382e-05 1.01971e-05 4.45222e-05 4.54372e-05 1.29419e-05 -5.29635e-05 -0.00020793 -0.000507607 -0.000951996 -0.0015411 -0.00227491 -0.00315343 -0.00417666 -0.00534461 -0.00662351 -0.00797963 -0.00941295 -0.0109235 -0.0125112 -0.0141762 -0.0159183 -0.0177377 -0.0195968 -0.0214582 -0.0233218 -0.0251877 -0.0270558 -0.0289261 -0.0307988 -0.0326736 -0.0344311 -0.0359514 -0.0372346 -0.0382807 -0.0390897 -0.0396616 -0.0399964 -0.0400941 -0.0399588 -0.0395949 -0.0390022 -0.0381808 -0.0371306 -0.0358517 -0.0343441 -0.0326078 -0.030764 -0.0289338 -0.0271174 -0.0253146 -0.0235256 -0.0217502 -0.0199886 -0.0182406 -0.0165319 -0.0148879 -0.0133088 -0.0117944 -0.0103448 -0.00895991 -0.00763985 -0.00638456 -0.00522643 -0.00419784 -0.00329878 -0.00252925 -0.00188926 -0.0013788 -0.000997876 -0.000746487 -0.000571529 -0.000419899 -0.000291596 -0.000186622 -0.000104975 -4.66554e-05 -1.16639e-05 0 0 9.17612e-06 3.67045e-05 8.2585e-05 0.000146818 0.000229403 0.00033034 0.00044963 0.000587271 0.000717523 0.000814643 0.00087863 0.000909484 0.000907207 0.000871797 0.000803255 0.00070158 0.00057014 0.000412302 0.000228065 1.74302e-05 -0.000219603 -0.000483035 -0.000772865 -0.00108909 -0.0014068 -0.00170105 -0.00197185 -0.00221919 -0.00244309 -0.00264354 -0.00282053 -0.00297407 -0.00310799 -0.0032261 -0.00332841 -0.00341492 -0.00348563 -0.00354053 -0.00357963 -0.00360293 -0.00359767 -0.0035511 -0.00346323 -0.00333406 -0.00316357 -0.00295178 -0.00269869 -0.00240428 -0.00211262 -0.00186772 -0.00166961 -0.00151826 -0.00141369 -0.0013559 -0.00134488 -0.00138064 -0.00150795 -0.0017716 -0.00217159 -0.00270792 -0.00338058 -0.00418959 -0.00513493 -0.00621661 -0.00738525 -0.00859145 -0.00983522 -0.0111166 -0.0124355 -0.013792 -0.015186 -0.0166176 -0.0180884 -0.0195998 -0.021152 -0.0227449 -0.0243785 -0.0260528 -0.0277678 -0.0295235 -0.0311871 -0.0326259 -0.0338398 -0.0348288 -0.0355929 -0.0361321 -0.0364465 -0.036536 -0.0364057 -0.0360606 -0.0355007 -0.0347261 -0.0337367 -0.0325325 -0.0311136 -0.0294799 -0.0277642 -0.0260992 -0.0244849 -0.0229214 -0.0214085 -0.0199464 -0.0185351 -0.0171744 -0.0158476 -0.0145376 -0.0132444 -0.0119681 -0.0107087 -0.00946608 -0.00824034 -0.00703145 -0.0058886 -0.00486097 -0.00394856 -0.00315137 -0.0024694 -0.00190265 -0.00145112 -0.00111481 -0.000853524 -0.000627079 -0.000435471 -0.000278702 -0.00015677 -6.96754e-05 -1.74189e-05 0 0 8.97584e-06 3.59034e-05 8.07826e-05 0.000143613 0.000224396 0.00032313 0.000439816 0.000574454 0.000695223 0.000770303 0.000799695 0.000783398 0.000721413 0.000613739 0.000460376 0.000261325 2.17377e-05 -0.000253232 -0.000563585 -0.00090932 -0.00129044 -0.00170694 -0.00215882 -0.00264609 -0.00313861 -0.00360625 -0.00404901 -0.00446689 -0.00485989 -0.00522802 -0.00557126 -0.00588963 -0.00617691 -0.00642691 -0.00663961 -0.00681503 -0.00695317 -0.00705401 -0.00711757 -0.00714384 -0.00712027 -0.00703433 -0.006886 -0.0066753 -0.00640222 -0.00606676 -0.00566891 -0.00520869 -0.00474915 -0.00435334 -0.00402128 -0.00375295 -0.00354835 -0.0034075 -0.00333038 -0.003317 -0.00339198 -0.00357992 -0.00388084 -0.00429472 -0.00482158 -0.0054614 -0.00621419 -0.00707996 -0.00798905 -0.00887184 -0.00972832 -0.0105585 -0.0113624 -0.0121399 -0.0128912 -0.0136161 -0.0143763 -0.0152332 -0.0161868 -0.0172372 -0.0183843 -0.0196282 -0.0209688 -0.0224061 -0.0237975 -0.025 -0.0260139 -0.0268389 -0.0274752 -0.0279228 -0.0281816 -0.0282516 -0.0281388 -0.0278493 -0.027383 -0.02674 -0.0259202 -0.0249236 -0.0237502 -0.0224 -0.0210134 -0.0197305 -0.0185515 -0.0174762 -0.0165047 -0.015637 -0.0148731 -0.014213 -0.0135757 -0.0128803 -0.0121266 -0.0113148 -0.0104448 -0.00951664 -0.0085303 -0.00748579 -0.00645436 -0.00550726 -0.0046445 -0.00386607 -0.00317198 -0.00256221 -0.00203679 -0.0015957 -0.00122171 -0.00089758 -0.000623319 -0.000398924 -0.000224395 -9.97311e-05 -2.49328e-05 0 0 8.24666e-06 3.29866e-05 7.42199e-05 0.000131947 0.000206167 0.00029688 0.000404086 0.000527786 0.000629241 0.000669713 0.000649202 0.000567708 0.000425231 0.000221771 -4.26724e-05 -0.000368099 -0.000747112 -0.00117232 -0.00164372 -0.0021613 -0.00272509 -0.00333506 -0.00399122 -0.00469358 -0.00540621 -0.00609322 -0.00675458 -0.00739032 -0.00800042 -0.00858489 -0.00914372 -0.00967692 -0.0101646 -0.0105867 -0.0109433 -0.0112344 -0.0114601 -0.0116202 -0.0117148 -0.0117439 -0.0116959 -0.0115591 -0.0113336 -0.0110193 -0.0106162 -0.0101244 -0.00954379 -0.00887443 -0.00820284 -0.00761555 -0.00711255 -0.00669386 -0.00635946 -0.00610937 -0.00594357 -0.00586207 -0.00586002 -0.00593258 -0.00607975 -0.00630151 -0.00659789 -0.00696887 -0.00741445 -0.00793464 -0.00843492 -0.00882078 -0.00909223 -0.00924926 -0.00929186 -0.00922005 -0.00903383 -0.00873318 -0.0084605 -0.00835816 -0.00842618 -0.00866455 -0.00907326 -0.00965232 -0.0104017 -0.0113215 -0.0122621 -0.0130739 -0.0137569 -0.0143112 -0.0147367 -0.0150335 -0.0152015 -0.0152408 -0.0151583 -0.0149611 -0.0146491 -0.0142224 -0.013681 -0.0130248 -0.0122539 -0.0113682 -0.0105116 -0.00982793 -0.00931712 -0.00897921 -0.00881418 -0.00882205 -0.0090028 -0.00935645 -0.00971639 -0.00991603 -0.00995537 -0.00983441 -0.00955315 -0.00911159 -0.00850973 -0.00774757 -0.0069237 -0.0061367 -0.00538658 -0.00467334 -0.00399698 -0.0033575 -0.00275489 -0.00218916 -0.00167608 -0.0012314 -0.000855141 -0.00054729 -0.000307851 -0.000136823 -3.42056e-05 0 0 6.98858e-06 2.79543e-05 6.28972e-05 0.000111817 0.000174714 0.000251589 0.00034244 0.000447269 0.000519578 0.000512872 0.000427151 0.000262414 1.86609e-05 -0.000304107 -0.000705891 -0.00118669 -0.00173641 -0.00234496 -0.00301233 -0.00373852 -0.00452354 -0.00536739 -0.00627006 -0.00723156 -0.00820962 -0.00916195 -0.0100886 -0.0109895 -0.0118647 -0.0127141 -0.0135379 -0.014336 -0.0150709 -0.0157054 -0.0162395 -0.0166731 -0.0170063 -0.017239 -0.0173713 -0.0174032 -0.0173246 -0.0171255 -0.016806 -0.016366 -0.0158056 -0.0151247 -0.0143233 -0.0134015 -0.0124737 -0.0116543 -0.0109434 -0.010341 -0.00984702 -0.0094615 -0.00918444 -0.00901583 -0.00891208 -0.00882957 -0.00876831 -0.00872829 -0.00870952 -0.00871199 -0.0087357 -0.00878066 -0.00872286 -0.00843829 -0.00792696 -0.00718887 -0.00622401 -0.00503238 -0.003614 -0.00196884 -0.000341073 0.00102516 0.00212987 0.00297304 0.00355467 0.00387478 0.00393335 0.00373039 0.0034191 0.00315267 0.00293111 0.00275442 0.0026226 0.00253564 0.00249355 0.00249633 0.00253588 0.0026041 0.00270099 0.00282656 0.00298079 0.0031637 0.00337528 0.00361553 0.00374111 0.00360865 0.00321817 0.00256966 0.00166312 0.000498559 -0.000924034 -0.00260465 -0.00426953 -0.00564487 -0.00673068 -0.00752696 -0.00803371 -0.00825093 -0.00817863 -0.00781679 -0.00729662 -0.00674929 -0.00617482 -0.00557319 -0.00494442 -0.00428849 -0.00360542 -0.00289519 -0.00221663 -0.00162855 -0.00113094 -0.000723799 -0.000407137 -0.00018095 -4.52374e-05 0 0 5.20159e-06 2.08064e-05 4.68143e-05 8.32255e-05 0.00013004 0.000187257 0.000254878 0.000332902 0.000366234 0.000299781 0.000133541 -0.000132485 -0.000498297 -0.000963896 -0.00152928 -0.00219445 -0.00294616 -0.00377115 -0.00466942 -0.00564098 -0.00668582 -0.00780394 -0.00899535 -0.01026 -0.0115488 -0.0128125 -0.014051 -0.0152644 -0.0164527 -0.0176158 -0.0187538 -0.0198667 -0.020896 -0.0217832 -0.0225282 -0.0231311 -0.0235919 -0.0239106 -0.0240872 -0.0241216 -0.0240063 -0.0237334 -0.0233032 -0.0227154 -0.0219702 -0.0210676 -0.0200075 -0.0187899 -0.0175617 -0.0164697 -0.0155139 -0.0146944 -0.014011 -0.0134639 -0.013053 -0.0127783 -0.0125482 -0.0122709 -0.0119465 -0.0115751 -0.0111565 -0.0106908 -0.010178 -0.00961802 -0.00885287 -0.00772437 -0.00623252 -0.00437732 -0.00215879 0.000423099 0.00336833 0.0066769 0.00998201 0.0129168 0.0154813 0.0176756 0.0194995 0.0209531 0.0220365 0.0227495 0.023246 0.0236795 0.0240502 0.0243579 0.0246028 0.0247847 0.0249037 0.0249598 0.0249438 0.0248463 0.0246673 0.024407 0.0240652 0.023642 0.0231373 0.0225512 0.0217448 0.0205792 0.0190544 0.0171704 0.0149272 0.0123248 0.00936316 0.00604234 0.00276486 -6.67676e-05 -0.00245253 -0.00439244 -0.00588648 -0.00693467 -0.007537 -0.00769346 -0.00757312 -0.00734504 -0.0070092 -0.00656562 -0.00601428 -0.00535521 -0.00458838 -0.0037138 -0.00284338 -0.00208901 -0.0014507 -0.00092845 -0.000522253 -0.000232113 -5.80281e-05 0 0 2.8857e-06 1.15428e-05 2.59713e-05 4.61713e-05 7.21426e-05 0.000103885 0.0001414 0.000184685 0.000169209 3.0438e-05 -0.000231628 -0.000616988 -0.00112564 -0.00175759 -0.00251284 -0.00339138 -0.00437635 -0.00545089 -0.00661499 -0.00786866 -0.0092119 -0.0106447 -0.0121671 -0.013779 -0.0154238 -0.0170447 -0.0186418 -0.020215 -0.0217644 -0.0232898 -0.0247915 -0.0262692 -0.0276398 -0.0288199 -0.0298094 -0.0306084 -0.0312169 -0.0316348 -0.0318623 -0.0318992 -0.031741 -0.031383 -0.0308252 -0.0300676 -0.0291103 -0.0279532 -0.0265963 -0.0250396 -0.0234668 -0.0220616 -0.020824 -0.019754 -0.0188515 -0.0181166 -0.0175492 -0.0171495 -0.0167682 -0.0162566 -0.0156144 -0.0148418 -0.0139387 -0.0129052 -0.0117412 -0.0104467 -0.00882494 -0.006679 -0.00400889 -0.000814626 0.0029038 0.00714639 0.0119131 0.0172041 0.0225087 0.0273168 0.0316282 0.035443 0.0387612 0.0415827 0.0439076 0.0457359 0.0472186 0.0485068 0.0496003 0.0504993 0.0512037 0.0517136 0.0520289 0.0521496 0.0520653 0.0517654 0.0512499 0.0505189 0.0495722 0.04841 0.0470322 0.0454389 0.0434995 0.0410838 0.0381916 0.034823 0.030978 0.0266566 0.0218588 0.0165845 0.0113868 0.00681826 0.00287906 -0.000430852 -0.00311147 -0.0051628 -0.00658483 -0.00737757 -0.00775321 -0.00792393 -0.00788973 -0.00765062 -0.00720658 -0.00655763 -0.00570376 -0.00464498 -0.00355631 -0.0026128 -0.00181444 -0.00116124 -0.0006532 -0.000290311 -7.25778e-05 0 0 -5.46565e-07 -2.18626e-06 -4.91908e-06 -8.74503e-06 -1.36641e-05 -1.96763e-05 -2.67817e-05 -3.49801e-05 -0.000113683 -0.000332303 -0.000690839 -0.00118929 -0.00182766 -0.00260595 -0.00352415 -0.00458227 -0.00575698 -0.00702498 -0.00838626 -0.00984081 -0.0113887 -0.0130298 -0.0147642 -0.0165918 -0.0184591 -0.0203122 -0.0221511 -0.0239758 -0.0257864 -0.0275828 -0.0293651 -0.0311332 -0.0327787 -0.0341935 -0.0353774 -0.0363304 -0.0370526 -0.037544 -0.0378045 -0.0378342 -0.0376327 -0.0371996 -0.0365351 -0.035639 -0.0345113 -0.0331522 -0.0315615 -0.0297393 -0.027906 -0.0262818 -0.024867 -0.0236614 -0.022665 -0.0218778 -0.0213 -0.0209313 -0.0205427 -0.0199051 -0.0190184 -0.0178825 -0.0164976 -0.0148637 -0.0129806 -0.0108484 -0.00822795 -0.00487988 -0.000804236 0.00399899 0.00952981 0.0157882 0.0227742 0.0304877 0.0382379 0.0453335 0.0517747 0.0575614 0.0626937 0.0671715 0.0709948 0.0741637 0.0768289 0.0791414 0.081101 0.0827079 0.083962 0.0848633 0.0854118 0.0856075 0.0854392 0.0848958 0.0839773 0.0826836 0.0810148 0.0789709 0.0765518 0.0737576 0.0704642 0.0665477 0.0620079 0.056845 0.0510588 0.0446495 0.037617 0.0299613 0.0224182 0.0157236 0.00987749 0.00487986 0.000730717 -0.00256995 -0.00502213 -0.00662583 -0.00764295 -0.00833539 -0.00870316 -0.00874625 -0.00846466 -0.00785839 -0.00692745 -0.00567183 -0.0043425 -0.00319041 -0.00221556 -0.00141796 -0.000797601 -0.000354489 -8.86224e-05 0 0 -5.68269e-06 -2.27308e-05 -5.11442e-05 -9.09231e-05 -0.000142067 -0.000204577 -0.000278452 -0.000363692 -0.000524628 -0.00082559 -0.00126658 -0.00184759 -0.00256863 -0.00342969 -0.00443079 -0.0055719 -0.00681805 -0.00813422 -0.00952043 -0.0109767 -0.0125029 -0.0140992 -0.0157656 -0.0175019 -0.0192792 -0.0210681 -0.0228688 -0.0246812 -0.0265054 -0.0283412 -0.0301888 -0.0320481 -0.0337892 -0.0352819 -0.0365264 -0.0375226 -0.0382706 -0.0387703 -0.0390216 -0.0390248 -0.0387853 -0.038309 -0.0375959 -0.0366459 -0.0354591 -0.0340354 -0.032375 -0.0304776 -0.0285958 -0.026982 -0.0256361 -0.0245581 -0.0237482 -0.0232061 -0.022932 -0.0229259 -0.0228421 -0.022335 -0.0214048 -0.0200513 -0.0182745 -0.0160745 -0.0134513 -0.0104048 -0.00665076 -0.00190471 0.00383331 0.0105633 0.0182853 0.0269992 0.0367051 0.047403 0.0581681 0.0680753 0.0771249 0.0853168 0.0926509 0.0991273 0.104746 0.109507 0.113569 0.117091 0.120072 0.122513 0.124414 0.125775 0.126595 0.126875 0.126604 0.125772 0.124378 0.122423 0.119906 0.116828 0.113188 0.108987 0.104098 0.0983963 0.0918816 0.0845538 0.0764129 0.0674589 0.0576919 0.0471118 0.0366811 0.0273626 0.0191561 0.0120618 0.00607947 0.00120925 -0.00254887 -0.00519492 -0.0070484 -0.00842883 -0.00933622 -0.00977056 -0.00973186 -0.0092201 -0.00823531 -0.00677746 -0.005189 -0.00381232 -0.00264745 -0.00169437 -0.000953081 -0.000423592 -0.000105898 0 0 -1.25227e-05 -5.00907e-05 -0.000112704 -0.000200363 -0.000313067 -0.000450817 -0.000613611 -0.000801452 -0.00106363 -0.00144942 -0.00195884 -0.00259189 -0.00334855 -0.00422884 -0.00523275 -0.00636029 -0.00755954 -0.00877861 -0.0100175 -0.0112762 -0.0125547 -0.0138531 -0.0151713 -0.0165092 -0.017884 -0.0193126 -0.0207951 -0.0223313 -0.0239213 -0.0255651 -0.0272628 -0.0290142 -0.0306711 -0.0320853 -0.0332566 -0.0341851 -0.0348708 -0.0353136 -0.0355137 -0.0354709 -0.0351989 -0.0347111 -0.0340077 -0.0330885 -0.0319536 -0.0306029 -0.0290366 -0.0272545 -0.0255365 -0.0241621 -0.0231313 -0.0224443 -0.022101 -0.0221013 -0.0224454 -0.0231331 -0.0236662 -0.0235464 -0.0227736 -0.0213479 -0.0192693 -0.0165378 -0.0131533 -0.0091159 -0.00409336 0.00224652 0.00990374 0.0188783 0.0291702 0.0407794 0.053706 0.06795 0.0822993 0.0955423 0.107679 0.118709 0.128633 0.13745 0.145161 0.151766 0.157438 0.162354 0.166513 0.169915 0.17256 0.174447 0.175578 0.175952 0.17556 0.174393 0.172452 0.169736 0.166245 0.16198 0.15694 0.151126 0.144401 0.13663 0.127813 0.117949 0.10704 0.0950849 0.0820835 0.0680361 0.0541756 0.0417353 0.030715 0.0211148 0.0129348 0.00617481 0.000834932 -0.00308484 -0.00596956 -0.00820425 -0.00978891 -0.0107236 -0.0110082 -0.0106428 -0.00962733 -0.00796188 -0.00609581 -0.00447856 -0.00311011 -0.00199047 -0.00111964 -0.000497617 -0.000124404 0 0 -2.10665e-05 -8.42661e-05 -0.000189599 -0.000337065 -0.000526663 -0.000758395 -0.00103226 -0.00134826 -0.00173068 -0.0022038 -0.00276764 -0.00342218 -0.00416743 -0.00500338 -0.00593005 -0.00694742 -0.00798146 -0.00895815 -0.00987749 -0.0107395 -0.0115441 -0.0122913 -0.0129812 -0.0136138 -0.0142737 -0.0150457 -0.0159298 -0.0169259 -0.0180342 -0.0192545 -0.0205869 -0.0220313 -0.0234246 -0.0246034 -0.0255678 -0.0263177 -0.0268531 -0.0271741 -0.0272806 -0.0271727 -0.0268734 -0.026406 -0.0257704 -0.0249666 -0.0239947 -0.0228547 -0.0215464 -0.0200701 -0.0187278 -0.0178221 -0.0173528 -0.0173199 -0.0177235 -0.0185636 -0.0198401 -0.021553 -0.0230152 -0.0235391 -0.023125 -0.0217726 -0.0194821 -0.0162534 -0.0120866 -0.00698165 -0.000555761 0.00757381 0.0174071 0.028944 0.0421846 0.0571289 0.0737769 0.0921285 0.110632 0.127734 0.143437 0.157738 0.170639 0.18214 0.19224 0.20094 0.208437 0.214932 0.220424 0.224913 0.228399 0.230882 0.232362 0.232839 0.232307 0.23076 0.228199 0.224624 0.220033 0.214429 0.207809 0.200175 0.191373 0.181248 0.169801 0.157032 0.142941 0.127527 0.110792 0.0927342 0.0749016 0.0588416 0.0445541 0.0320391 0.0212966 0.0123267 0.00512929 -0.000295606 -0.00440643 -0.00766165 -0.0100612 -0.0116052 -0.0122936 -0.0121264 -0.0111035 -0.00922507 -0.00706294 -0.0051891 -0.00360354 -0.00230627 -0.00129728 -0.000576567 -0.000144142 0 0 -3.13142e-05 -0.000125257 -0.000281828 -0.000501028 -0.000782856 -0.00112731 -0.0015344 