<?xml version="1.0"?> 
<VTKFile type="StructuredGrid" version="0.1"> 
<StructuredGrid WholeExtent="0 128 0 128 0 0"> 
<Piece Extent="0 128 0 128 0 0"> 
<PointData>
<DataArray type="Float32" Name="u" format="ascii" NumberOfComponents="1"> 
0 0 0 0 0 0 0 0 0 0 0 0 0 0 0 0 0 0 0 0 0 0 0 0 0 0 0 0 0 0 0 0 0 0 0 0 0 0 0 0 0 0 0 0 0 0 0 0 0 0 0 0 0 0 0 0 0 0 0 0 0 0 0 0 0 0 0 0 0 0 0 0 0 0 0 0 0 0 0 0 0 0 0 0 0 0 0 0 0 0 0 0 0 0 0 0 0 0 0 0 0 0 0 0 0 0 0 0 0 0 0 0 0 0 0 0 0 0 0 0 0 0 0 0 0 0 0 0 0 0 -1.64709e-08 -6.58836e-08 -1.48238e-07 -2.63534e-07 -4.11772e-07 -5.92952e-07 -8.07074e-07 -1.05414e-06 -1.52259e-06 -2.40086e-06 -3.68897e-06 -5.38691e-06 -7.49468e-06 -1.00123e-05 -1.29397e-05 -1.6277e-05 -2.00757e-05 -2.43876e-05 -2.92126e-05 -3.45508e-05 -4.04021e-05 -4.67665e-05 -5.36441e-05 -6.10348e-05 -6.86349e-05 -7.61404e-05 -8.35514e-05 -9.08679e-05 -9.80898e-05 -0.000105217 -0.00011225 -0.000119189 -0.000125605 -0.000131074 -0.000135594 -0.000139166 -0.000141789 -0.000143464 -0.000144191 -0.000143969 -0.000142919 -0.000141158 -0.000138689 -0.00013551 -0.000131621 -0.000127023 -0.000121716 -0.000115699 -0.000109545 -0.000103829 -9.85484e-05 -9.37049e-05 -8.9298e-05 -8.53277e-05 -8.1794e-05 -7.8697e-05 -7.62308e-05 -7.45896e-05 -7.37734e-05 -7.37822e-05 -7.4616e-05 -7.62749e-05 -7.87587e-05 -8.20676e-05 -8.59663e-05 -9.02197e-05 -9.48278e-05 -9.97906e-05 -0.000105108 -0.00011078 -0.000116807 -0.000123189 -0.000129734 -0.000136253 -0.000142744 -0.000149208 -0.000155645 -0.000162055 -0.000168437 -0.000174793 -0.000180762 -0.000185986 -0.000190465 -0.000194199 -0.000197188 -0.000199431 -0.000200929 -0.000201682 -0.000201685 -0.000200932 -0.000199424 -0.00019716 -0.00019414 -0.000190365 -0.000185835 -0.000180549 -0.000174798 -0.000168872 -0.000162773 -0.000156499 -0.000150052 -0.00014343 -0.000136634 -0.000129663 -0.000122531 -0.00011525 -0.000107819 -0.000100239 -9.25094e-05 -8.46304e-05 -7.6602e-05 -6.84243e-05 -6.04109e-05 -5.28758e-05 -4.58188e-05 -3.92401e-05 -3.31396e-05 -2.75172e-05 -2.23731e-05 -1.77072e-05 -1.35571e-05 -9.96031e-06 -6.91688e-06 -4.42681e-06 -2.49008e-06 -1.1067e-06 -2.76675e-07 0 0 -6.58836e-08 -2.63534e-07 -5.92952e-07 -1.05414e-06 -1.64709e-06 -2.37181e-06 -3.2283e-06 -4.21655e-06 -6.09035e-06 -9.60346e-06 -1.47559e-05 -2.15476e-05 -2.99787e-05 -4.00491e-05 -5.17588e-05 -6.51078e-05 -8.03028e-05 -9.75503e-05 -0.00011685 -0.000138203 -0.000161608 -0.000187066 -0.000214576 -0.000244139 -0.000274539 -0.000304562 -0.000334206 -0.000363471 -0.000392359 -0.000420869 -0.000449001 -0.000476754 -0.000502422 -0.000524296 -0.000542377 -0.000556664 -0.000567157 -0.000573858 -0.000576764 -0.000575877 -0.000571674 -0.000564634 -0.000554755 -0.000542039 -0.000526485 -0.000508093 -0.000486863 -0.000462795 -0.000438181 -0.000415314 -0.000394194 -0.000374819 -0.000357192 -0.000341311 -0.000327176 -0.000314788 -0.000304923 -0.000298358 -0.000295094 -0.000295129 -0.000298464 -0.000305099 -0.000315035 -0.00032827 -0.000343865 -0.000360879 -0.000379311 -0.000399163 -0.000420433 -0.000443122 -0.000467229 -0.000492756 -0.000518938 -0.000545011 -0.000570975 -0.000596832 -0.000622579 -0.000648218 -0.000673749 -0.000699171 -0.000723048 -0.000743945 -0.00076186 -0.000776796 -0.00078875 -0.000797724 -0.000803717 -0.000806729 -0.00080674 -0.000803729 -0.000797695 -0.00078864 -0.000776562 -0.000761461 -0.000743339 -0.000722194 -0.00069919 -0.00067549 -0.000651092 -0.000625998 -0.000600207 -0.000573719 -0.000546535 -0.000518654 -0.000490126 -0.000461 -0.000431277 -0.000400956 -0.000370037 -0.000338522 -0.000306408 -0.000273697 -0.000241644 -0.000211503 -0.000183275 -0.00015696 -0.000132558 -0.000110069 -8.94925e-05 -7.08289e-05 -5.42284e-05 -3.98413e-05 -2.76675e-05 -1.77072e-05 -9.96031e-06 -4.42681e-06 -1.1067e-06 0 0 -1.48238e-07 -5.92952e-07 -1.33414e-06 -2.37181e-06 -3.70595e-06 -5.33657e-06 -7.26366e-06 -9.48724e-06 -1.37033e-05 -2.16078e-05 -3.32008e-05 -4.84822e-05 -6.74521e-05 -9.01105e-05 -0.000116457 -0.000146493 -0.000180681 -0.000219488 -0.000262913 -0.000310957 -0.000363619 -0.000420899 -0.000482797 -0.000549314 -0.000617714 -0.000685264 -0.000751962 -0.000817811 -0.000882808 -0.000946955 -0.00101025 -0.0010727 -0.00113045 -0.00117967 -0.00122035 -0.00125249 -0.0012761 -0.00129118 -0.00129772 -0.00129572 -0.00128627 -0.00127043 -0.0012482 -0.00121959 -0.00118459 -0.00114321 -0.00109544 -0.00104129 -0.000985908 -0.000934457 -0.000886935 -0.000843344 -0.000803682 -0.000767949 -0.000736146 -0.000708273 -0.000686077 -0.000671306 -0.00066396 -0.00066404 -0.000671544 -0.000686474 -0.000708828 -0.000738608 -0.000773696 -0.000811977 -0.00085345 -0.000898116 -0.000945974 -0.000997024 -0.00105127 -0.0011087 -0.00116761 -0.00122627 -0.00128469 -0.00134287 -0.0014008 -0.00145849 -0.00151593 -0.00157313 -0.00162686 -0.00167388 -0.00171419 -0.00174779 -0.00177469 -0.00179488 -0.00180836 -0.00181514 -0.00181517 -0.00180839 -0.00179481 -0.00177444 -0.00174726 -0.00171329 -0.00167251 -0.00162494 -0.00157318 -0.00151985 -0.00146496 -0.0014085 -0.00135047 -0.00129087 -0.0012297 -0.00116697 -0.00110278 -0.00103725 -0.000970372 -0.000902151 -0.000832584 -0.000761673 -0.000689418 -0.000615818 -0.000543698 -0.000475882 -0.000412369 -0.000353161 -0.000298256 -0.000247655 -0.000201358 -0.000159365 -0.000122014 -8.96428e-05 -6.2252e-05 -3.98413e-05 -2.24107e-05 -9.96031e-06 -2.49008e-06 0 0 -2.63534e-07 -1.05414e-06 -2.37181e-06 -4.21655e-06 -6.58836e-06 -9.48724e-06 -1.29132e-05 -1.68662e-05 -2.43614e-05 -3.84138e-05 -5.90236e-05 -8.61906e-05 -0.000119915 -0.000160196 -0.000207035 -0.000260431 -0.000321211 -0.000390201 -0.000467402 -0.000552812 -0.000646433 -0.000748264 -0.000858306 -0.000976557 -0.00109816 -0.00121825 -0.00133682 -0.00145389 -0.00156944 -0.00168348 -0.001796 -0.00190702 -0.00200969 -0.00209718 -0.00216951 -0.00222666 -0.00226863 -0.00229543 -0.00230706 -0.00230351 -0.0022867 -0.00225853 -0.00221902 -0.00216816 -0.00210594 -0.00203237 -0.00194745 -0.00185118 -0.00175272 -0.00166126 -0.00157677 -0.00149928 -0.00142877 -0.00136524 -0.0013087 -0.00125915 -0.00121969 -0.00119343 -0.00118037 -0.00118052 -0.00119386 -0.0012204 -0.00126014 -0.00131308 -0.00137546 -0.00144352 -0.00151724 -0.00159665 -0.00168173 -0.00177249 -0.00186892 -0.00197102 -0.00207575 -0.00218004 -0.0022839 -0.00238733 -0.00249032 -0.00259287 -0.00269499 -0.00279668 -0.00289219 -0.00297578 -0.00304744 -0.00310718 -0.003155 -0.0031909 -0.00321487 -0.00322692 -0.00322696 -0.00321492 -0.00319078 -0.00315456 -0.00310625 -0.00304585 -0.00297336 -0.00288878 -0.00279676 -0.00270196 -0.00260437 -0.00250399 -0.00240083 -0.00229488 -0.00218614 -0.00207462 -0.0019605 -0.001844 -0.00172511 -0.00160382 -0.00148015 -0.00135409 -0.00122563 -0.00109479 -0.000966575 -0.000846012 -0.000733101 -0.000627842 -0.000530233 -0.000440276 -0.00035797 -0.000283316 -0.000216914 -0.000159365 -0.00011067 -7.08289e-05 -3.98413e-05 -1.77072e-05 -4.42681e-06 0 0 -4.11772e-07 -1.64709e-06 -3.70595e-06 -6.58836e-06 -1.02943e-05 -1.48238e-05 -2.01768e-05 -2.63534e-05 -3.80647e-05 -6.00216e-05 -9.22243e-05 -0.000134673 -0.000187367 -0.000250307 -0.000323492 -0.000406924 -0.000501892 -0.000609689 -0.000730315 -0.000863769 -0.00101005 -0.00116916 -0.0013411 -0.00152587 -0.00171587 -0.00190351 -0.00208878 -0.0022717 -0.00245225 -0.00263043 -0.00280625 -0.00297971 -0.00314014 -0.00327685 -0.00338985 -0.00347915 -0.00354473 -0.00358661 -0.00360478 -0.00359923 -0.00357296 -0.00352896 -0.00346722 -0.00338774 -0.00329053 -0.00317558 -0.00304289 -0.00289247 -0.00273863 -0.00259571 -0.00246371 -0.00234262 -0.00223245 -0.00213319 -0.00204485 -0.00196743 -0.00190577 -0.00186474 -0.00184433 -0.00184455 -0.0018654 -0.00190687 -0.00196897 -0.00205169 -0.00214916 -0.00225549 -0.0023707 -0.00249477 -0.0026277 -0.00276951 -0.00292018 -0.00307972 -0.00324336 -0.00340632 -0.0035686 -0.0037302 -0.00389112 -0.00405136 -0.00421093 -0.00436982 -0.00451905 -0.00464965 -0.00476163 -0.00485497 -0.00492969 -0.00498577 -0.00502323 -0.00504206 -0.00504213 -0.00502331 -0.0049856 -0.004929 -0.00485351 -0.00475913 -0.00464587 -0.00451372 -0.00436994 -0.00422181 -0.00406933 -0.00391249 -0.00375129 -0.00358575 -0.00341584 -0.00324159 -0.00306329 -0.00288125 -0.00269548 -0.00250597 -0.00231273 -0.00211576 -0.00191505 -0.00171061 -0.00151027 -0.00132189 -0.00114547 -0.000981002 -0.000828489 -0.000687931 -0.000559328 -0.000442681 -0.000338927 -0.000249008 -0.000172922 -0.00011067 -6.2252e-05 -2.76675e-05 -6.91688e-06 0 0 -5.92952e-07 -2.37181e-06 -5.33657e-06 -9.48724e-06 -1.48238e-05 -2.13463e-05 -2.90547e-05 -3.79489e-05 -5.48131e-05 -8.64311e-05 -0.000132803 -0.000193929 -0.000269808 -0.000360442 -0.000465829 -0.00058597 -0.000722725 -0.000877953 -0.00105165 -0.00124383 -0.00145447 -0.00168359 -0.00193119 -0.00219725 -0.00247086 -0.00274105 -0.00300785 -0.00327124 -0.00353123 -0.00378782 -0.00404101 -0.00429079 -0.0045218 -0.00471867 -0.00488139 -0.00500998 -0.00510442 -0.00516472 -0.00519088 -0.00518289 -0.00514507 -0.0050817 -0.0049928 -0.00487835 -0.00473836 -0.00457283 -0.00438176 -0.00416515 -0.00394363 -0.00373783 -0.00354774 -0.00337338 -0.00321473 -0.0030718 -0.00294459 -0.00283309 -0.00274431 -0.00268522 -0.00265584 -0.00265616 -0.00268618 -0.00274589 -0.00283531 -0.00295443 -0.00309479 -0.00324791 -0.0034138 -0.00359246 -0.00378389 -0.00398809 -0.00420506 -0.0044348 -0.00467044 -0.0049051 -0.00513878 -0.00537148 -0.00560321 -0.00583396 -0.00606374 -0.00629254 -0.00650743 -0.0066955 -0.00685674 -0.00699116 -0.00709875 -0.00717952 -0.00723345 -0.00726056 -0.00726066 -0.00723356 -0.00717926 -0.00709776 -0.00698906 -0.00685315 -0.00669005 -0.00649975 -0.00629271 -0.00607941 -0.00585983 -0.00563398 -0.00540186 -0.00516347 -0.00491881 -0.00466788 -0.00441113 -0.004149 -0.00388149 -0.0036086 -0.00333034 -0.00304669 -0.00275767 -0.00246327 -0.00217479 -0.00190353 -0.00164948 -0.00141264 -0.00119302 -0.000990621 -0.000805433 -0.00063746 -0.000488055 -0.000358571 -0.000249008 -0.000159365 -8.96428e-05 -3.98413e-05 -9.96031e-06 0 0 -8.07074e-07 -3.2283e-06 -7.26366e-06 -1.29132e-05 -2.01768e-05 -2.90547e-05 -3.95466e-05 -5.16527e-05 -7.46067e-05 -0.000117642 -0.00018076 -0.000263959 -0.000367239 -0.000490601 -0.000634045 -0.000797571 -0.000983709 -0.00119499 -0.00143142 -0.00169299 -0.0019797 -0.00229156 -0.00262856 -0.00299071 -0.00336311 -0.00373088 -0.00409402 -0.00445253 -0.0048064 -0.00515565 -0.00550026 -0.00584024 -0.00615467 -0.00642263 -0.00664412 -0.00681913 -0.00694768 -0.00702976 -0.00706536 -0.00705449 -0.00700301 -0.00691676 -0.00679575 -0.00663998 -0.00644944 -0.00622413 -0.00596407 -0.00566924 -0.00536772 -0.0050876 -0.00482887 -0.00459154 -0.0043756 -0.00418106 -0.00400791 -0.00385615 -0.00373531 -0.00365489 -0.0036149 -0.00361533 -0.00365619 -0.00373747 -0.00385918 -0.00402131 -0.00421235 -0.00442076 -0.00464656 -0.00488974 -0.0051503 -0.00542824 -0.00572356 -0.00603626 -0.00635699 -0.00667638 -0.00699445 -0.00731119 -0.00762659 -0.00794067 -0.00825342 -0.00856484 -0.00885734 -0.00911332 -0.00933279 -0.00951575 -0.00966219 -0.00977212 -0.00984553 -0.00988243 -0.00988257 -0.00984568 -0.00977177 -0.00966084 -0.00951288 -0.0093279 -0.0091059 -0.00884688 -0.00856508 -0.00827475 -0.00797588 -0.00766847 -0.00735253 -0.00702806 -0.00669505 -0.00635351 -0.00600404 -0.00564725 -0.00528314 -0.00491171 -0.00453296 -0.00414689 -0.0037535 -0.00335279 -0.00296013 -0.00259091 -0.00224512 -0.00192276 -0.00162384 -0.00134835 -0.00109628 -0.000867654 -0.000664298 -0.000488055 -0.000338927 -0.000216914 -0.000122014 -5.42284e-05 -1.35571e-05 0 0 -1.05414e-06 -4.21655e-06 -9.48724e-06 -1.68662e-05 -2.63534e-05 -3.79489e-05 -5.16527e-05 -6.74648e-05 -9.74455e-05 -0.000153655 -0.000236094 -0.000344762 -0.000479659 -0.000640785 -0.000828141 -0.00104173 -0.00128484 -0.0015608 -0.00186961 -0.00221125 -0.00258573 -0.00299306 -0.00343322 -0.00390623 -0.00439263 -0.00487299 -0.00534729 -0.00581554 -0.00627775 -0.0067339 -0.00718401 -0.00762807 -0.00803875 -0.00838874 -0.00867803 -0.00890662 -0.00907452 -0.00918172 -0.00922823 -0.00921403 -0.00914679 -0.00903414 -0.00887608 -0.00867262 -0.00842375 -0.00812948 -0.0077898 -0.00740472 -0.0070109 -0.00664503 -0.0063071 -0.00599711 -0.00571507 -0.00546097 -0.00523482 -0.00503661 -0.00487877 -0.00477373 -0.0047215 -0.00472206 -0.00477543 -0.00488159 -0.00504056 -0.00525232 -0.00550184 -0.00577406 -0.00606898 -0.0063866 -0.00672692 -0.00708995 -0.00747567 -0.0078841 -0.008303 -0.00872017 -0.00913561 -0.00954931 -0.00996127 -0.0103715 -0.01078 -0.0111867 -0.0115688 -0.0119031 -0.0121898 -0.0124287 -0.01262 -0.0127636 -0.0128595 -0.0129077 -0.0129078 -0.0128597 -0.0127631 -0.0126182 -0.012425 -0.0121834 -0.0118934 -0.0115551 -0.011187 -0.0108078 -0.0104175 -0.010016 -0.00960331 -0.00917951 -0.00874456 -0.00829846 -0.00784201 -0.007376 -0.00690043 -0.00641529 -0.0059206 -0.00541634 -0.00490253 -0.00437915 -0.0038663 -0.00338405 -0.0029324 -0.00251137 -0.00212093 -0.0017611 -0.00143188 -0.00113326 -0.000867654 -0.00063746 -0.000442681 -0.000283316 -0.000159365 -7.08289e-05 -1.77072e-05 0 0 -1.57546e-06 -6.30183e-06 -1.41791e-05 -2.52073e-05 -3.93865e-05 -5.67165e-05 -7.71975e-05 -0.000100829 -0.000142418 -0.000216768 -0.00032388 -0.000463754 -0.000636389 -0.000841787 -0.00107995 -0.00135087 -0.00165833 -0.00200612 -0.00239422 -0.00282265 -0.0032914 -0.00380047 -0.00434987 -0.00493958 -0.00554559 -0.00614384 -0.00673434 -0.00731709 -0.00789209 -0.00845934 -0.00901884 -0.00957059 -0.0100807 -0.0105152 -0.0108742 -0.0111576 -0.0113654 -0.0114977 -0.0115544 -0.0115356 -0.011451 -0.0113106 -0.0111143 -0.010862 -0.0105539 -0.0101899 -0.00977006 -0.00929429 -0.00880797 -0.00835642 -0.00793965 -0.00755764 -0.0072104 -0.00689794 -0.00662024 -0.00637732 -0.0061821 -0.0060475 -0.00597354 -0.0059602 -0.00600749 -0.00611541 -0.00628396 -0.00651313 -0.0067817 -0.00706842 -0.00737329 -0.00769631 -0.00803749 -0.00839682 -0.00877431 -0.00916995 -0.00957293 -0.00997246 -0.0103685 -0.0107611 -0.0111503 -0.011536 -0.0119182 -0.012297 -0.0126525 -0.0129647 -0.0132337 -0.0134595 -0.0136421 -0.0137815 -0.0138777 -0.0139306 -0.0139397 -0.0139043 -0.0138244 -0.0137 -0.0135311 -0.0133177 -0.0130597 -0.0127573 -0.0124248 -0.0120768 -0.0117132 -0.011334 -0.0109393 -0.010529 -0.0101031 -0.00966166 -0.00920137 -0.00871895 -0.00821441 -0.00768773 -0.00713893 -0.006568 -0.00597495 -0.00535976 -0.00475035 -0.00417462 -0.00363256 -0.00312417 -0.00264946 -0.00220843 -0.00180107 -0.00142738 -0.00109284 -0.000802904 -0.000557572 -0.000356846 -0.000200726 -8.92115e-05 -2.23029e-05 0 0 -2.61235e-06 -1.04494e-05 -2.35112e-05 -4.17976e-05 -6.53088e-05 -9.40447e-05 -0.000128005 -0.000167191 -0.000228611 -0.000329277 -0.000469189 -0.000648347 -0.00086675 -0.0011244 -0.00142129 -0.00175743 -0.00213637 -0.00256165 -0.00303327 -0.00355124 -0.00411555 -0.0047262 -0.0053832 -0.00608654 -0.00680813 -0.0075199 -0.00822184 -0.00891396 -0.00959624 -0.0102687 -0.0109313 -0.0115841 -0.0121871 -0.0127003 -0.0131236 -0.0134572 -0.0137009 -0.0138549 -0.013919 -0.0138933 -0.0137904 -0.0136229 -0.0133907 -0.013094 -0.0127326 -0.0123066 -0.0118159 -0.0112607 -0.0106937 -0.0101681 -0.00968374 -0.00924066 -0.00883886 -0.00847835 -0.00815911 -0.00788116 -0.0076527 -0.00748195 -0.00736891 -0.00731359 -0.00731597 -0.00737607 -0.00749388 -0.00766939 -0.00787035 -0.00806446 -0.00825173 -0.00843215 -0.00860574 -0.00877249 -0.00893239 -0.00908546 -0.00923122 -0.00936924 -0.00949949 -0.009622 -0.00973675 -0.00984374 -0.00994299 -0.0100345 -0.0101191 -0.0101978 -0.0102706 -0.0103375 -0.0103984 -0.0104535 -0.0105025 -0.0105457 -0.0105815 -0.0106085 -0.0106268 -0.0106362 -0.0106369 -0.0106289 -0.010612 -0.0105864 -0.0105447 -0.0104798 -0.0103916 -0.0102802 -0.0101455 -0.00998762 -0.00980645 -0.00960202 -0.00935844 -0.00905981 -0.00870614 -0.00829741 -0.00783364 -0.00731481 -0.00674094 -0.00611202 -0.00546936 -0.00485429 -0.00426681 -0.0037069 -0.00317458 -0.00266984 -0.00219269 -0.00174312 -0.00133457 -0.000980504 -0.000680905 -0.000435779 -0.000245126 -0.000108945 -2.72362e-05 0 0 -4.16482e-06 -1.66593e-05 -3.74834e-05 -6.66371e-05 -0.000104121 -0.000149934 -0.000204076 -0.000266549 -0.000356026 -0.000491184 -0.000672023 -0.000898542 -0.00117074 -0.00148862 -0.00185218 -0.00226142 -0.00271896 -0.0032274 -0.00378675 -0.004397 -0.00505816 -0.00577023 -0.0065332 -0.00734708 -0.00818027 -0.00900118 -0.00980981 -0.0106061 -0.0113902 -0.012162 -0.0129215 -0.0136687 -0.014358 -0.0149439 -0.0154264 -0.0158054 -0.016081 -0.0162532 -0.0163219 -0.0162871 -0.0161649 -0.015971 -0.0157055 -0.0153684 -0.0149597 -0.0144794 -0.0139274 -0.0133039 -0.0126682 -0.0120801 -0.0115394 -0.0110462 -0.0106005 -0.0102022 -0.00985142 -0.00954811 -0.00929057 -0.00907707 -0.00890763 -0.00878223 -0.00870087 -0.00866357 -0.00867032 -0.00872111 -0.00876779 -0.00876218 -0.00870429 -0.00859412 -0.00843167 -0.00821694 -0.00794992 -0.00763062 -0.00727787 -0.0069105 -0.0065285 -0.00613187 -0.00572063 -0.00529475 -0.00485426 -0.00439913 -0.00396878 -0.00360259 -0.00330056 -0.00306269 -0.00288899 -0.00277945 -0.00273407 -0.00275285 -0.00283312 -0.00297223 -0.00317016 -0.00342692 -0.00374251 -0.00411693 -0.00455017 -0.00504224 -0.00554663 -0.0060168 -0.00645277 -0.00685454 -0.0072221 -0.00755546 -0.0078546 -0.00811955 -0.00831323 -0.00839858 -0.00837561 -0.00824432 -0.00800471 -0.00765677 -0.00720051 -0.00663592 -0.00602334 -0.00542308 -0.00483516 -0.00425956 -0.00369629 -0.00314535 -0.00260674 -0.00208046 -0.00159285 -0.00117026 -0.000812681 -0.000520116 -0.000292565 -0.000130029 -3.25072e-05 0 0 -6.23286e-06 -2.49315e-05 -5.60958e-05 -9.97258e-05 -0.000155822 -0.000224383 -0.00030541 -0.000398903 -0.000524662 -0.000702488 -0.00093238 -0.00121434 -0.00154836 -0.00193446 -0.00237261 -0.00286284 -0.0034061 -0.00400337 -0.00465466 -0.00535995 -0.00611925 -0.00693257 -0.00779989 -0.00872122 -0.00966201 -0.0105877 -0.0114982 -0.0123937 -0.013274 -0.0141392 -0.0149893 -0.0158242 -0.0165934 -0.0172462 -0.0177825 -0.0182023 -0.0185057 -0.0186926 -0.0187631 -0.0187171 -0.0185745 -0.018355 -0.0180586 -0.0176854 -0.0172353 -0.0167083 -0.0161045 -0.0154238 -0.0147314 -0.0140923 -0.0135066 -0.0129742 -0.0124952 -0.0120695 -0.0116972 -0.0113782 -0.0110957 -0.0108329 -0.0105897 -0.0103661 -0.0101622 -0.00997791 -0.00981328 -0.00966828 -0.00947402 -0.00916159 -0.00873099 -0.00818222 -0.00751528 -0.00673017 -0.00582689 -0.00480545 -0.00371288 -0.00259625 -0.00145554 -0.000290771 0.000898073 0.00211099 0.00334797 0.00460902 0.00579858 0.00682108 0.00767652 0.00836491 0.00888624 0.00924052 0.00942774 0.0094479 0.00930538 0.00900455 0.00854541 0.00792795 0.00715219 0.00621811 0.00512573 0.00387503 0.00256938 0.00131216 0.00010337 -0.001057 -0.00216895 -0.00323247 -0.00424757 -0.00521424 -0.00606573 -0.00673526 -0.00722284 -0.00752847 -0.00765215 -0.00759387 -0.00735364 -0.00693146 -0.00641227 -0.00588098 -0.0053376 -0.00478214 -0.00421459 -0.00363496 -0.00304323 -0.00243942 -0.00186768 -0.00137217 -0.000952899 -0.000609855 -0.000343044 -0.000152464 -3.81159e-05 0 0 -8.81648e-06 -3.52659e-05 -7.93483e-05 -0.000141064 -0.000220412 -0.000317393 -0.000432007 -0.000564255 -0.00073452 -0.000963189 -0.00125026 -0.00159574 -0.00199962 -0.0024619 -0.00298259 -0.00356168 -0.00419779 -0.00488957 -0.005637 -0.00644008 -0.00729882 -0.00821321 -0.00918326 -0.010209 -0.0112533 -0.0122794 -0.0132871 -0.0142765 -0.0152476 -0.0162003 -0.0171347 -0.0180508 -0.0188933 -0.019607 -0.0201918 -0.0206478 -0.0209749 -0.0211732 -0.0212426 -0.0211832 -0.0210191 -0.0207747 -0.02045 -0.0200448 -0.0195593 -0.0189935 -0.0183472 -0.0176206 -0.0168833 -0.0162049 -0.0155853 -0.0150247 -0.014523 -0.0140802 -0.0136964 -0.0133714 -0.0130681 -0.0127493 -0.0124151 -0.0120652 -0.0116999 -0.0113191 -0.0109228 -0.0105109 -0.00998904 -0.00926268 -0.00833181 -0.00719644 -0.00585657 -0.00431219 -0.00256331 -0.00060993 0.00146375 0.00357351 0.00571937 0.00790131 0.0101193 0.0123735 0.0146637 0.01699 0.0191829 0.0210732 0.0226606 0.0239453 0.0249273 0.0256064 0.0259829 0.0260566 0.025834 0.0253218 0.0245199 0.0234284 0.0220472 0.0203763 0.0184157 0.0161655 0.0138033 0.0115071 0.0092768 0.00711241 0.00501392 0.00298134 0.00101467 -0.000886097 -0.00261594 -0.00406984 -0.00524782 -0.00614985 -0.00677596 -0.00712612 -0.00720036 -0.00699866 -0.00663615 -0.00622799 -0.00577415 -0.00527465 -0.00472949 -0.00413865 -0.00350215 -0.00281999 -0.00215905 -0.00158624 -0.00110156 -0.000704997 -0.000396561 -0.000176249 -4.40623e-05 0 0 -1.19157e-05 -4.76627e-05 -0.000107241 -0.000190651 -0.000297892 -0.000428964 -0.000583868 -0.000762603 -0.000985599 -0.00127329 -0.00162567 -0.00204274 -0.0025245 -0.00307095 -0.0036821 -0.00435794 -0.00509404 -0.00588598 -0.00673377 -0.00763739 -0.00859686 -0.00961216 -0.0106833 -0.0118103 -0.0129542 -0.0140763 -0.0151764 -0.0162546 -0.017311 -0.0183454 -0.0193578 -0.0203484 -0.0212577 -0.0220264 -0.0226545 -0.0231419 -0.0234887 -0.0236949 -0.0237605 -0.0236854 -0.0234989 -0.0232304 -0.0228797 -0.0224468 -0.0219319 -0.0213348 -0.0206555 -0.0198942 -0.0191239 -0.0184177 -0.0177756 -0.0171977 -0.016684 -0.0162344 -0.015849 -0.0155277 -0.0152078 -0.0148265 -0.0143838 -0.0138796 -0.0133141 -0.0126871 -0.0119988 -0.011249 -0.0103129 -0.00906545 -0.00750676 -0.00563679 -0.00345553 -0.000962993 0.00184083 0.00495593 0.00825202 0.0115988 0.0149962 0.0184444 0.0219432 0.0254927 0.0290929 0.0327438 0.0361843 0.0391537 0.0416517 0.0436785 0.0452341 0.0463183 0.0469314 0.0470731 0.0467528 0.0459796 0.0447534 0.0430744 0.0409424 0.0383575 0.0353197 0.031829 0.0281552 0.024568 0.0210675 0.0176537 0.0143265 0.011086 0.00793209 0.00486488 0.00203614 -0.000402337 -0.00245054 -0.00410847 -0.00537613 -0.00625352 -0.00674064 -0.00683749 -0.006695 -0.0064641 -0.0061448 -0.00573709 -0.00524097 -0.00465644 -0.00398351 -0.00322217 -0.00246697 -0.00181247 -0.00125866 -0.000805543 -0.000453118 -0.000201386 -5.03464e-05 0 0 -1.55304e-05 -6.21217e-05 -0.000139774 -0.000248487 -0.000388261 -0.000559095 -0.000760991 -0.000993948 -0.0012779 -0.00163278 -0.0020586 -0.00255534 -0.00312301 -0.00376162 -0.00447115 -0.00525162 -0.00609484 -0.00699262 -0.00794497 -0.00895188 -0.0100134 -0.0111294 -0.0123 -0.0135252 -0.0147648 -0.0159784 -0.0171662 -0.0183281 -0.0194642 -0.0205743 -0.0216586 -0.022717 -0.0236866 -0.0245044 -0.0251704 -0.0256847 -0.0260471 -0.0262578 -0.0263166 -0.0262237 -0.0260138 -0.0257218 -0.0253476 -0.0248913 -0.0243529 -0.0237322 -0.0230295 -0.0222446 -0.0214531 -0.0207308 -0.0200775 -0.0194933 -0.0189781 -0.0185321 -0.0181551 -0.0178472 -0.0175148 -0.0170643 -0.0164958 -0.0158093 -0.0150047 -0.014082 -0.0130413 -0.0118825 -0.0104455 -0.0085699 -0.00625584 -0.00350326 -0.000312176 0.00331742 0.00738552 0.0118921 0.0166519 0.0214796 0.0263751 0.0313384 0.0363696 0.0414687 0.0466356 0.0518703 0.0568027 0.0610626 0.0646498 0.0675645 0.0698066 0.0713762 0.0722732 0.0724976 0.0720617 0.0709778 0.0692459 0.0668659 0.0638379 0.0601619 0.0558378 0.0508658 0.045625 0.0404949 0.0354755 0.0305668 0.0257688 0.0210814 0.0165047 0.0120387 0.0078905 0.00426726 0.00116899 -0.00140433 -0.00345268 -0.00497607 -0.0059745 -0.00644797 -0.00658881 -0.00658933 -0.00644954 -0.00616945 -0.00574904 -0.00518833 -0.0044873 -0.00364596 -0.00279144 -0.00205086 -0.0014242 -0.000911491 -0.000512714 -0.000227873 -5.69682e-05 0 0 -1.96608e-05 -7.86431e-05 -0.000176947 -0.000314572 -0.000491519 -0.000707788 -0.000963378 -0.00125829 -0.00161142 -0.00204167 -0.00254905 -0.00313354 -0.00379516 -0.00453389 -0.00534975 -0.00624273 -0.00720018 -0.00820947 -0.0092706 -0.0103836 -0.0115484 -0.012765 -0.0140335 -0.0153538 -0.0166849 -0.0179858 -0.0192564 -0.0204969 -0.0217072 -0.0228872 -0.024037 -0.0251566 -0.02618 -0.027041 -0.0277397 -0.028276 -0.0286501 -0.0288618 -0.0289111 -0.0287982 -0.0285639 -0.0282491 -0.0278539 -0.0273783 -0.0268223 -0.0261859 -0.025469 -0.0246718 -0.0238711 -0.0231442 -0.0224909 -0.0219113 -0.0214054 -0.0209731 -0.0206146 -0.0203297 -0.019989 -0.0194628 -0.0187512 -0.0178541 -0.0167716 -0.0155037 -0.0140503 -0.0124115 -0.0103869 -0.00777604 -0.00457904 -0.000795863 0.0035735 0.00852905 0.0140708 0.0201987 0.0266635 0.0332159 0.0398559 0.0465834 0.0533986 0.0603014 0.0672918 0.0743697 0.0810381 0.0867999 0.0916549 0.0956033 0.098645 0.10078 0.102008 0.10233 0.101761 0.100317 0.0979973 0.094803 0.0907337 0.0857894 0.07997 0.0732757 0.0662128 0.0592878 0.0525008 0.0458518 0.0393408 0.0329677 0.0267325 0.0206353 0.0149471 0.00993896 0.00561077 0.00196259 -0.00100559 -0.00329377 -0.00490193 -0.0058301 -0.00631757 -0.00660367 -0.00668839 -0.00657174 -0.00625371 -0.0057343 -0.00501352 -0.00409137 -0.00313246 -0.0023014 -0.00159819 -0.00102284 -0.000575349 -0.000255711 -6.39277e-05 0 0 -2.4179e-05 -9.67161e-05 -0.000217611 -0.000386864 -0.000604476 -0.000870445 -0.00118477 -0.00154746 -0.00197357 -0.00247819 -0.00306132 -0.00372295 -0.00446308 -0.00528172 -0.00617886 -0.0071545 -0.00818835 -0.00926008 -0.0103697 -0.0115172 -0.0127026 -0.0139259 -0.0151871 -0.0164862 -0.0177859 -0.019049 -0.0202755 -0.0214653 -0.0226185 -0.0237352 -0.0248151 -0.0258585 -0.0268058 -0.0275976 -0.0282339 -0.0287146 -0.0290399 -0.0292096 -0.0292238 -0.0290824 -0.0288334 -0.0285243 -0.0281553 -0.0277262 -0.0272372 -0.0266882 -0.0260792 -0.0254102 -0.0247486 -0.0241614 -0.0236488 -0.0232107 -0.0228472 -0.0225582 -0.0223437 -0.0222038 -0.0219622 -0.021443 -0.0206459 -0.0195712 -0.0182187 -0.0165885 -0.0146805 -0.0124947 -0.00978819 -0.0063177 -0.00208328 0.00291506 0.00867735 0.0152036 0.0224937 0.0305478 0.0390313 0.0476097 0.056283 0.0650513 0.0739144 0.0828725 0.0919255 0.101073 0.109685 0.117127 0.123402 0.128508 0.132446 0.135216 0.136817 0.13725 0.136534 0.13469 0.131719 0.127618 0.12239 0.116033 0.108548 0.0999348 0.0908334 0.0818842 0.0730872 0.0644422 0.0559494 0.0476088 0.0394203 0.0313839 0.0238537 0.0171838 0.0113742 0.00642477 0.00233564 -0.000893218 -0.00326182 -0.00477015 -0.00571001 -0.00637317 -0.00675963 -0.00686939 -0.00670246 -0.00625883 -0.00553851 -0.00454148 -0.00347707 -0.00255458 -0.00177402 -0.00113537 -0.000638646 -0.000283843 -7.09607e-05 0 0 -2.89575e-05 -0.00011583 -0.000260618 -0.000463321 -0.000723939 -0.00104247 -0.00141892 -0.00185328 -0.00235176 -0.00292057 -0.0035597 -0.00426915 -0.00504893 -0.00589902 -0.00681944 -0.00781019 -0.00883758 -0.00986796 -0.0109013 -0.0119377 -0.012977 -0.0140193 -0.0150645 -0.0161128 -0.0171392 -0.0181187 -0.0190515 -0.0199376 -0.0207768 -0.0215693 -0.022315 -0.0230139 -0.0236321 -0.0241357 -0.0245247 -0.024799 -0.0249587 -0.0250038 -0.0249343 -0.0247501 -0.0245067 -0.0242594 -0.0240083 -0.0237533 -0.0234944 -0.0232317 -0.022965 -0.0226945 -0.0224562 -0.0222861 -0.0221842 -0.0221504 -0.0221849 -0.0222876 -0.0224585 -0.0226976 -0.0227662 -0.0224257 -0.0216761 -0.0205173 -0.0189494 -0.0169724 -0.0145863 -0.0117911 -0.0083006 -0.00382873 0.00162453 0.00805918 0.0154752 0.0238726 0.0332514 0.0436116 0.0544999 0.065463 0.0765009 0.0876137 0.0988012 0.110064 0.121401 0.132813 0.143536 0.152807 0.160626 0.166992 0.171907 0.175369 0.177379 0.177936 0.177066 0.174794 0.171121 0.166044 0.159566 0.151686 0.142404 0.131719 0.120402 0.109222 0.0981782 0.0872716 0.0765018 0.0658688 0.0553727 0.0450134 0.0352579 0.0265729 0.0189585 0.0124147 0.00694155 0.00253896 -0.000793027 -0.00305442 -0.00459483 -0.00576387 -0.00656155 -0.00698786 -0.00704279 -0.00672636 -0.00603857 -0.0049794 -0.00381235 -0.00280091 -0.00194508 -0.00124485 -0.000700228 -0.000311213 -7.78031e-05 0 0 -3.39963e-05 -0.000135985 -0.000305967 -0.000543941 -0.000849908 -0.00122387 -0.00166582 -0.00217576 -0.00274599 -0.0033688 -0.00404419 -0.00477215 -0.00555269 -0.00638581 -0.00727151 -0.00820979 -0.0091479 -0.0100331 -0.0108654 -0.0116449 -0.0123714 -0.013045 -0.0136658 -0.0142336 -0.0147447 -0.015195 -0.0155847 -0.0159137 -0.016182 -0.0163896 -0.0165365 -0.0166228 -0.0166588 -0.0166553 -0.016612 -0.0165292 -0.0164066 -0.0162445 -0.0160427 -0.0158012 -0.0155839 -0.0154545 -0.0154131 -0.0154596 -0.0155939 -0.0158162 -0.0161265 -0.0165246 -0.0169941 -0.0175182 -0.018097 -0.0187305 -0.0194187 -0.0201615 -0.020959 -0.0218112 -0.0224009 -0.022411 -0.0218416 -0.0206925 -0.0189639 -0.0166557 -0.0137679 -0.0103005 -0.00592409 -0.00030911 0.00654441 0.0146365 0.0239671 0.0345362 0.0463439 0.0593902 0.0730693 0.0867758 0.10051 0.114271 0.128059 0.141875 0.155718 0.169588 0.182593 0.193839 0.203327 0.211056 0.217027 0.22124 0.223694 0.224389 0.223357 0.220628 0.216203 0.210082 0.202263 0.192748 0.181537 0.168629 0.154918 0.1413 0.127774 0.11434 0.100998 0.0877478 0.0745898 0.0615239 0.0491596 0.0381062 0.0283638 0.0199325 0.0128121 0.00700278 0.00250443 -0.000682903 -0.00297204 -0.00477579 -0.00609416 -0.00692713 -0.00727471 -0.0071369 -0.00651371 -0.00540512 -0.0041383 -0.00304038 -0.00211138 -0.00135128 -0.000760095 -0.00033782 -8.4455e-05 0 0 -3.92954e-05 -0.000157181 -0.000353658 -0.000628726 -0.000982384 -0.00141463 -0.00192547 -0.0025149 -0.00315626 -0.00382289 -0.00451479 -0.00523195 -0.00597439 -0.00674209 -0.00753506 -0.00835329 -0.00911929 -0.00975556 -0.0102621 -0.0106389 -0.0108859 -0.0110032 -0.0109908 -0.0108487 -0.0106024 -0.0102779 -0.00987498 -0.00939371 -0.00883409 -0.00819612 -0.0074798 -0.00668513 -0.00588599 -0.00515627 -0.00449597 -0.00390509 -0.00338363 -0.0029316 -0.00254898 -0.00223579 -0.002065 -0.00210961 -0.00236961 -0.00284501 -0.0035358 -0.00444199 -0.00556357 -0.00690054 -0.00836219 -0.00985779 -0.0113874 -0.0129509 -0.0145484 -0.0161798 -0.0178452 -0.0195445 -0.0208663 -0.0213989 -0.0211424 -0.0200968 -0.0182621 -0.0156382 -0.0122252 -0.00802305 -0.00265866 0.00424115 0.0126764 0.022647 0.034153 0.0471944 0.0617712 0.0778835 0.0947396 0.111548 0.128309 0.145022 0.161688 0.178306 0.194876 0.211399 0.226854 0.240223 0.251505 0.260699 0.267807 0.272828 0.275762 0.276609 0.275406 0.272192 0.266967 0.259729 0.25048 0.23922 0.225948 0.210664 0.194383 0.17812 0.161875 0.145647 0.129438 0.113246 0.0970717 0.0809154 0.0655588 0.0517837 0.0395901 0.028978 0.0199474 0.0124982 0.00663057 0.0023