<?xml version="1.0"?> 
<VTKFile type="StructuredGrid" version="0.1"> 
<StructuredGrid WholeExtent="0 128 0 128 0 0"> 
<Piece Extent="0 128 0 128 0 0"> 
<PointData>
<DataArray type="Float32" Name="u" format="ascii" NumberOfComponents="1"> 
0 0 0 0 0 0 0 0 0 0 0 0 0 0 0 0 0 0 0 0 0 0 0 0 0 0 0 0 0 0 0 0 0 0 0 0 0 0 0 0 0 0 0 0 0 0 0 0 0 0 0 0 0 0 0 0 0 0 0 0 0 0 0 0 0 0 0 0 0 0 0 0 0 0 0 0 0 0 0 0 0 0 0 0 0 0 0 0 0 0 0 0 0 0 0 0 0 0 0 0 0 0 0 0 0 0 0 0 0 0 0 0 0 0 0 0 0 0 0 0 0 0 0 0 0 0 0 0 0 0 4.54226e-08 1.8169e-07 4.08804e-07 7.26762e-07 1.13557e-06 1.63521e-06 2.22571e-06 2.90705e-06 3.6409e-06 4.38893e-06 5.15115e-06 5.92754e-06 6.71812e-06 7.52287e-06 8.34181e-06 9.17492e-06 1.00222e-05 1.08835e-05 1.17589e-05 1.26484e-05 1.35519e-05 1.44695e-05 1.54012e-05 1.6347e-05 1.73006e-05 1.82557e-05 1.92124e-05 2.01707e-05 2.11305e-05 2.20919e-05 2.30548e-05 2.40193e-05 2.49794e-05 2.59289e-05 2.6868e-05 2.77966e-05 2.87147e-05 2.96223e-05 3.05194e-05 3.1406e-05 3.22767e-05 3.31257e-05 3.39533e-05 3.47593e-05 3.55438e-05 3.63068e-05 3.70482e-05 3.7768e-05 3.84616e-05 3.91242e-05 3.97556e-05 4.03561e-05 4.09254e-05 4.14638e-05 4.1971e-05 4.24472e-05 4.28888e-05 4.32921e-05 4.36572e-05 4.39841e-05 4.42727e-05 4.45231e-05 4.47352e-05 4.49091e-05 4.50428e-05 4.51344e-05 4.51839e-05 4.51912e-05 4.51563e-05 4.50794e-05 4.49602e-05 4.4799e-05 4.45957e-05 4.43505e-05 4.40635e-05 4.37345e-05 4.33637e-05 4.29509e-05 4.24963e-05 4.19997e-05 4.14638e-05 4.0891e-05 4.02813e-05 3.96348e-05 3.89513e-05 3.8231e-05 3.74738e-05 3.66798e-05 3.58539e-05 3.50012e-05 3.41216e-05 3.32153e-05 3.22822e-05 3.13223e-05 3.03355e-05 2.9322e-05 2.82891e-05 2.72445e-05 2.61881e-05 2.51199e-05 2.404e-05 2.29482e-05 2.18447e-05 2.07294e-05 1.96118e-05 1.85017e-05 1.73989e-05 1.63034e-05 1.52153e-05 1.41346e-05 1.30612e-05 1.19952e-05 1.09388e-05 9.8941e-06 8.86118e-06 7.84001e-06 6.83061e-06 5.83297e-06 4.84709e-06 3.87296e-06 2.96524e-06 2.17854e-06 1.51288e-06 9.68241e-07 5.44636e-07 2.4206e-07 6.05151e-08 0 0 1.8169e-07 7.26762e-07 1.63521e-06 2.90705e-06 4.54226e-06 6.54086e-06 8.90283e-06 1.16282e-05 1.45636e-05 1.75557e-05 2.06046e-05 2.37102e-05 2.68725e-05 3.00915e-05 3.33672e-05 3.66997e-05 4.00887e-05 4.3534e-05 4.70355e-05 5.05934e-05 5.42076e-05 5.78781e-05 6.16049e-05 6.53879e-05 6.92023e-05 7.30229e-05 7.68497e-05 8.06827e-05 8.4522e-05 8.83676e-05 9.22193e-05 9.60773e-05 9.99175e-05 0.000103716 0.000107472 0.000111186 0.000114859 0.000118489 0.000122078 0.000125624 0.000129107 0.000132503 0.000135813 0.000139037 0.000142175 0.000145227 0.000148193 0.000151072 0.000153847 0.000156497 0.000159023 0.000161424 0.000163702 0.000165855 0.000167884 0.000169789 0.000171555 0.000173168 0.000174629 0.000175936 0.000177091 0.000178092 0.000178941 0.000179637 0.000180171 0.000180538 0.000180735 0.000180765 0.000180625 0.000180317 0.000179841 0.000179196 0.000178383 0.000177402 0.000176254 0.000174938 0.000173455 0.000171804 0.000169985 0.000167999 0.000165855 0.000163564 0.000161125 0.000158539 0.000155805 0.000152924 0.000149895 0.000146719 0.000143415 0.000140005 0.000136487 0.000132861 0.000129129 0.000125289 0.000121342 0.000117288 0.000113157 0.000108978 0.000104753 0.00010048 9.61599e-05 9.17929e-05 8.73788e-05 8.29175e-05 7.84474e-05 7.40067e-05 6.95955e-05 6.52137e-05 6.08614e-05 5.65384e-05 5.2245e-05 4.79809e-05 4.37552e-05 3.95764e-05 3.54447e-05 3.13601e-05 2.73224e-05 2.33319e-05 1.93883e-05 1.54919e-05 1.1861e-05 8.71417e-06 6.05151e-06 3.87296e-06 2.17854e-06 9.68241e-07 2.4206e-07 0 0 4.08804e-07 1.63521e-06 3.67923e-06 6.54086e-06 1.02201e-05 1.47169e-05 2.00314e-05 2.61634e-05 3.27681e-05 3.95004e-05 4.63603e-05 5.33479e-05 6.0463e-05 6.77058e-05 7.50763e-05 8.25743e-05 9.01995e-05 9.79514e-05 0.00010583 0.000113835 0.000121967 0.000130226 0.000138611 0.000147123 0.000155705 0.000164301 0.000172912 0.000181536 0.000190175 0.000198827 0.000207494 0.000216174 0.000224814 0.00023336 0.000241812 0.000250169 0.000258432 0.0002666 0.000274675 0.000282654 0.00029049 0.000298132 0.00030558 0.000312834 0.000319894 0.000326761 0.000333433 0.000339912 0.000346155 0.000352117 0.000357801 0.000363205 0.000368329 0.000373174 0.000377739 0.000382025 0.000385999 0.000389629 0.000392915 0.000395857 0.000398454 0.000400708 0.000402617 0.000404182 0.000405386 0.00040621 0.000406655 0.000406721 0.000406407 0.000405714 0.000404642 0.000403191 0.000401361 0.000399155 0.000396571 0.000393611 0.000390273 0.000386558 0.000382466 0.000377997 0.000373174 0.000368019 0.000362532 0.000356713 0.000350562 0.000344079 0.000337264 0.000330118 0.000322685 0.00031501 0.000307095 0.000298938 0.00029054 0.0002819 0.00027302 0.000263898 0.000254602 0.000245201 0.000235693 0.000226079 0.00021636 0.000206534 0.000196602 0.000186564 0.000176507 0.000166515 0.00015659 0.000146731 0.000136938 0.000127212 0.000117551 0.000107957 9.84491e-05 8.90469e-05 7.97506e-05 7.05601e-05 6.14755e-05 5.24967e-05 4.36238e-05 3.48567e-05 2.66871e-05 1.96069e-05 1.36159e-05 8.71417e-06 4.90172e-06 2.17854e-06 5.44636e-07 0 0 7.26762e-07 2.90705e-06 6.54086e-06 1.16282e-05 1.8169e-05 2.61634e-05 3.56113e-05 4.65128e-05 5.82544e-05 7.02229e-05 8.24183e-05 9.48406e-05 0.00010749 0.000120366 0.000133469 0.000146799 0.000160355 0.000174136 0.000188142 0.000202374 0.00021683 0.000231512 0.000246419 0.000261552 0.000276809 0.000292091 0.000307399 0.000322731 0.000338088 0.00035347 0.000368877 0.000384309 0.00039967 0.000414863 0.000429888 0.000444745 0.000459435 0.000473956 0.00048831 0.000502496 0.000516426 0.000530012 0.000543253 0.000556149 0.000568701 0.000580908 0.000592771 0.000604289 0.000615386 0.000625987 0.00063609 0.000645697 0.000654807 0.00066342 0.000671536 0.000679156 0.000686221 0.000692674 0.000698515 0.000703745 0.000708363 0.000712369 0.000715763 0.000718546 0.000720686 0.000722151 0.000722942 0.000723059 0.000722501 0.00072127 0.000719364 0.000716784 0.000713531 0.000709609 0.000705016 0.000699752 0.000693819 0.000687214 0.00067994 0.000671996 0.000663421 0.000654256 0.000644501 0.000634156 0.000623221 0.000611696 0.000599581 0.000586876 0.000573662 0.000560019 0.000545946 0.000531445 0.000516515 0.000501156 0.000485368 0.000469152 0.000452626 0.000435912 0.00041901 0.000401919 0.00038464 0.000367172 0.000349515 0.00033167 0.00031379 0.000296027 0.000278382 0.000260855 0.000243445 0.000226154 0.00020898 0.000191924 0.000175021 0.000158306 0.000141779 0.00012544 0.00010929 9.33275e-05 7.75534e-05 6.19674e-05 4.74438e-05 3.48567e-05 2.4206e-05 1.54919e-05 8.71417e-06 3.87296e-06 9.68241e-07 0 0 1.13557e-06 4.54226e-06 1.02201e-05 1.8169e-05 2.83891e-05 4.08804e-05 5.56427e-05 7.26762e-05 9.10225e-05 0.000109723 0.000128779 0.000148189 0.000167953 0.000188072 0.000208545 0.000229373 0.000250554 0.000272087 0.000293972 0.000316209 0.000338797 0.000361738 0.00038503 0.000408675 0.000432514 0.000456393 0.000480311 0.000504267 0.000528263 0.000552297 0.000576371 0.000600483 0.000624484 0.000648223 0.0006717 0.000694914 0.000717867 0.000740557 0.000762985 0.000785151 0.000806916 0.000828144 0.000848832 0.000868983 0.000888595 0.000907669 0.000926204 0.000944201 0.000961541 0.000978104 0.000993891 0.0010089 0.00102314 0.00103659 0.00104928 0.00106118 0.00107222 0.0010823 0.00109143 0.0010996 0.00110682 0.00111308 0.00111838 0.00112273 0.00112607 0.00112836 0.0011296 0.00112978 0.00112891 0.00112698 0.00112401 0.00111997 0.00111489 0.00110876 0.00110159 0.00109336 0.00108409 0.00107377 0.00106241 0.00104999 0.00103659 0.00102227 0.00100703 0.000990869 0.000973783 0.000955775 0.000936846 0.000916994 0.000896347 0.000875029 0.000853041 0.000830383 0.000807055 0.000783057 0.000758388 0.00073305 0.000707229 0.000681113 0.000654703 0.000627999 0.000600999 0.000573706 0.000546117 0.000518234 0.000490296 0.000462542 0.000434972 0.000407586 0.000380383 0.000353365 0.000326531 0.000299881 0.00027347 0.000247353 0.000221529 0.000196 0.000170765 0.000145824 0.000121177 9.68241e-05 7.41309e-05 5.44636e-05 3.78219e-05 2.4206e-05 1.36159e-05 6.05151e-06 1.51288e-06 0 0 1.63521e-06 6.54086e-06 1.47169e-05 2.61634e-05 4.08804e-05 5.88677e-05 8.01255e-05 0.000104654 0.000131072 0.000158002 0.000185441 0.000213391 0.000241852 0.000270823 0.000300305 0.000330297 0.000360798 0.000391806 0.00042332 0.000455341 0.000487868 0.000520903 0.000554444 0.000588491 0.000622821 0.000657206 0.000691647 0.000726145 0.000760698 0.000795308 0.000829974 0.000864696 0.000899257 0.000933441 0.000967248 0.00100068 0.00103373 0.0010664 0.0010987 0.00113062 0.00116196 0.00119253 0.00122232 0.00125134 0.00127958 0.00130704 0.00133373 0.00135965 0.00138462 0.00140847 0.0014312 0.00145282 0.00147332 0.0014927 0.00151096 0.0015281 0.001544 0.00155852 0.00157166 0.00158343 0.00159382 0.00160283 0.00161047 0.00161673 0.00162154 0.00162484 0.00162662 0.00162688 0.00162563 0.00162286 0.00161857 0.00161276 0.00160545 0.00159662 0.00158629 0.00157444 0.00156109 0.00154623 0.00152987 0.00151199 0.0014927 0.00147208 0.00145013 0.00142685 0.00140225 0.00137632 0.00134906 0.00132047 0.00129074 0.00126004 0.00122838 0.00119575 0.00116216 0.0011276 0.00109208 0.00105559 0.00101841 0.000980803 0.000942773 0.000904318 0.000865439 0.000826136 0.000786409 0.000746257 0.000706027 0.000666061 0.000626359 0.000586923 0.000547752 0.000508846 0.000470205 0.000431829 0.000393796 0.000356188 0.000319002 0.000282241 0.000245902 0.000209987 0.000174495 0.000139427 0.000106749 7.84275e-05 5.44636e-05 3.48567e-05 1.96069e-05 8.71417e-06 2.17854e-06 0 0 2.22571e-06 8.90283e-06 2.00314e-05 3.56113e-05 5.56427e-05 8.01255e-05 0.00010906 0.000142445 0.000178404 0.000215058 0.000252406 0.000290449 0.000329188 0.000368621 0.000408749 0.000449571 0.000491086 0.000533291 0.000576185 0.000619769 0.000664043 0.000709006 0.000754659 0.000801002 0.000847728 0.00089453 0.000941409 0.000988364 0.00103539 0.0010825 0.00112969 0.00117695 0.00122399 0.00127052 0.00131653 0.00136203 0.00140702 0.00145149 0.00149545 0.0015389 0.00158156 0.00162316 0.00166371 0.00170321 0.00174165 0.00177903 0.00181536 0.00185063 0.00188462 0.00191708 0.00194803 0.00197745 0.00200535 0.00203172 0.00205658 0.00207991 0.00210155 0.00212131 0.0021392 0.00215522 0.00216936 0.00218163 0.00219203 0.00220055 0.0022071 0.00221159 0.00221401 0.00221437 0.00221266 0.00220889 0.00220305 0.00219515 0.00218519 0.00217318 0.00215911 0.00214299 0.00212482 0.00210459 0.00208232 0.00205799 0.00203173 0.00200366 0.00197378 0.0019421 0.00190861 0.00187332 0.00183622 0.00179731 0.00175684 0.00171506 0.00167196 0.00162755 0.00158183 0.00153479 0.00148644 0.00143678 0.00138617 0.00133498 0.00128322 0.00123088 0.00117796 0.00112446 0.00107039 0.00101574 0.000960981 0.000906582 0.000852545 0.000798868 0.000745552 0.000692596 0.000640001 0.000587767 0.000536001 0.000484811 0.000434198 0.000384161 0.0003347 0.000285815 0.000237507 0.000189775 0.000145297 0.000106749 7.41309e-05 4.74438e-05 2.66871e-05 1.1861e-05 2.96524e-06 0 0 2.90705e-06 1.16282e-05 2.61634e-05 4.65128e-05 7.26762e-05 0.000104654 0.000142445 0.000186051 0.000233018 0.000280892 0.000329673 0.000379363 0.000429959 0.000481464 0.000533876 0.000587195 0.000641419 0.000696543 0.000752569 0.000809495 0.000867321 0.000926049 0.000985678 0.00104621 0.00110724 0.00116837 0.00122959 0.00129092 0.00135235 0.00141388 0.00147551 0.00153724 0.00159868 0.00165945 0.00171955 0.00177898 0.00183774 0.00189583 0.00195324 0.00200999 0.00206571 0.00212005 0.00217301 0.0022246 0.0022748 0.00232363 0.00237108 0.00241715 0.00246154 0.00250395 0.00254436 0.00258279 0.00261923 0.00265368 0.00268614 0.00271662 0.00274488 0.0027707 0.00279406 0.00281498 0.00283345 0.00284948 0.00286305 0.00287418 0.00288274 0.0028886 0.00289177 0.00289224 0.00289001 0.00288508 0.00287746 0.00286713 0.00285413 0.00283843 0.00282006 0.00279901 0.00277527 0.00274886 0.00271976 0.00268798 0.00265368 0.00261702 0.002578 0.00253662 0.00249288 0.00244679 0.00239833 0.00234751 0.00229465 0.00224007 0.00218379 0.00212578 0.00206606 0.00200463 0.00194147 0.00187661 0.00181051 0.00174365 0.00167604 0.00160768 0.00153856 0.00146869 0.00139806 0.00132668 0.00125516 0.00118411 0.00111353 0.00104342 0.000973782 0.000904615 0.00083592 0.000767695 0.000700083 0.000633223 0.000567115 0.000501761 0.000437159 0.00037331 0.000310213 0.00024787 0.000189775 0.000139427 9.68241e-05 6.19674e-05 3.48567e-05 1.54919e-05 3.87296e-06 0 0 3.64039e-06 1.45616e-05 3.27636e-05 5.82463e-05 9.10099e-05 0.000131054 0.000178379 0.000232985 0.000291798 0.000351742 0.000412819 0.000475028 0.000538369 0.000602843 0.000668449 0.000735187 0.000803053 0.000872046 0.000942164 0.00101341 0.00108578 0.00115927 0.00123389 0.00130964 0.00138601 0.00146251 0.00153912 0.00161587 0.00169273 0.00176972 0.00184684 0.00192408 0.00200096 0.002077 0.00215219 0.00222655 0.00230007 0.00237275 0.00244459 0.00251559 0.0025853 0.00265329 0.00271956 0.0027841 0.00284691 0.002908 0.00296737 0.00302501 0.00308054 0.00313359 0.00318415 0.00323223 0.00327782 0.00332092 0.00336153 0.00339966 0.00343501 0.0034673 0.00349653 0.0035227 0.0035458 0.00356585 0.00358283 0.00359675 0.00360745 0.00361477 0.00361873 0.00361931 0.00361651 0.00361034 0.0036008 0.00358788 0.0035716 0.00355196 0.00352897 0.00350262 0.00347292 0.00343986 0.00340345 0.00336369 0.00332077 0.0032749 0.00322608 0.0031743 0.00311957 0.00306189 0.00300126 0.00293767 0.00287154 0.00280326 0.00273283 0.00266025 0.00258553 0.00250867 0.00242965 0.00234849 0.00226579 0.00218214 0.00209754 0.00201201 0.00192553 0.0018381 0.00174973 0.00166042 0.00157093 0.00148202 0.00139371 0.00130598 0.00121884 0.00113229 0.00104633 0.000960955 0.000876343 0.000792668 0.000709932 0.000628133 0.000547272 0.000467349 0.000388363 0.000310315 0.000237585 0.000174552 0.000121217 7.75788e-05 4.36381e-05 1.93947e-05 4.84868e-06 0 0 4.38691e-06 1.75477e-05 3.94822e-05 7.01906e-05 0.000109673 0.000157929 0.000214959 0.000280762 0.000351629 0.000423848 0.00049742 0.000572344 0.00064862 0.000726249 0.00080523 0.000885563 0.000967248 0.00105028 0.00113467 0.0012204 0.00130748 0.00139592 0.0014857 0.00157683 0.00166871 0.00176074 0.00185291 0.00194523 0.0020377 0.00213031 0.00222307 0.00231597 0.00240844 0.0024999 0.00259035 0.00267978 0.0027682 0.00285561 0.00294201 0.00302739 0.00311123 0.00319299 0.00327268 0.0033503 0.00342583 0.0034993 0.00357068 0.00363999 0.00370677 0.00377056 0.00383135 0.00388916 0.00394397 0.00399579 0.00404462 0.00409045 0.00413295 0.00417177 0.0042069 0.00423836 0.00426613 0.00429021 0.00431062 0.00432734 0.00434019 0.00434899 0.00435372 0.0043544 0.00435102 0.00434359 0.00433209 0.00431654 0.00429694 0.00427331 0.00424565 0.00421395 0.00417822 0.00413845 0.00409465 0.00404682 0.0039952 0.00394002 0.0038813 0.00381902 0.0037532 0.00368382 0.0036109 0.00353443 0.00345489 0.00337277 0.00328806 0.00320078 0.00311092 0.00301847 0.00292345 0.00282584 0.00272638 0.00262577 0.00252404 0.00242116 0.00231715 0.002212 0.00210572 0.0019983 0.00189066 0.00178372 0.00167749 0.00157196 0.00146714 0.00136302 0.0012596 0.00115689 0.00105508 0.000954394 0.000854823 0.000756368 0.000659031 0.00056281 0.000467705 0.000373717 0.000286127 0.000210216 0.000145983 9.34294e-05 5.2554e-05 2.33573e-05 5.83934e-06 0 0 5.1466e-06 2.05864e-05 4.63194e-05 8.23456e-05 0.000128665 0.000185278 0.000252183 0.000329382 0.000412512 0.00049721 0.000583476 0.000671309 0.000760711 0.000851681 0.000944219 0.00103833 0.001134 0.00123125 0.00133008 0.00143047 0.00153244 0.00163598 0.0017411 0.00184779 0.00195535 0.00206307 0.00217097 0.00227903 0.00238725 0.00249564 0.0026042 0.00271293 0.00282114 0.00292817 0.00303401 0.00313866 0.00324213 0.00334441 0.0034455 0.0035454 0.0036435 0.00373916 0.00383239 0.0039232 0.00401157 0.00409752 0.00418103 0.00426211 0.00434023 0.00441484 0.00448596 0.00455357 0.00461768 0.00467829 0.0047354 0.00478901 0.00483871 0.0048841 0.00492519 0.00496196 0.00499443 0.00502258 0.00504643 0.00506597 0.00508098 0.00509124 0.00509675 0.00509752 0.00509354 0.00508482 0.00507134 0.00505312 0.00503017 0.00500249 0.0049701 0.00493299 0.00489117 0.00484462 0.00479336 0.00473737 0.00467696 0.00461239 0.00454366 0.00447079 0.00439376 0.00431258 0.00422725 0.00413776 0.00404469 0.0039486 0.00384949 0.00374736 0.00364221 0.00353405 0.00342286 0.00330866 0.00319227 0.00307456 0.00295552 0.00283514 0.00271343 0.00259039 0.00246602 0.00234031 0.00221435 0.0020892 0.00196487 0.00184136 0.00171867 0.00159679 0.00147573 0.00135549 0.0012363 0.0011184 0.00100179 0.000886467 0.000772435 0.000659693 0.00054824 0.000438076 0.000335402 0.000246418 0.000171123 0.000109519 6.16044e-05 2.73798e-05 6.84494e-06 0 0 5.91946e-06 2.36778e-05 5.32752e-05 9.47114e-05 0.000147987 0.000213101 0.000290054 0.000378846 0.000474447 0.000571827 0.000670986 0.000771925 0.000874643 0.00097914 0.00108542 0.00119347 0.00130332 0.00141496 0.00152839 0.00164362 0.00176065 0.00187947 0.00200009 0.00212251 0.00224591 0.0023695 0.00249328 0.00261724 0.00274139 0.00286572 0.00299024 0.00311494 0.00323905 0.0033618 0.00348318 0.0036032 0.00372185 0.00383914 0.00395506 0.00406962 0.0041821 0.00429179 0.00439869 0.0045028 0.00460412 0.00470266 0.0047984 0.00489136 0.00498091 0.00506645 0.00514797 0.00522547 0.00529896 0.00536843 0.00543388 0.00549532 0.00555228 0.0056043 0.00565137 0.00569351 0.0057307 0.00576295 0.00579026 0.00581263 0.0058298 0.00584153 0.00584782 0.00584867 0.00584407 0.00583403 0.00581855 0.00579762 0.00577127 0.00573951 0.00570234 0.00565976 0.00561177 0.00555837 0.00549957 0.00543535 0.00536605 0.00529199 0.00521317 0.00512959 0.00504126 0.00494816 0.0048503 0.00474768 0.00464095 0.00453076 0.00441711 0.0043 0.00417943 0.00405539 0.00392789 0.00379693 0.00366348 0.0035285 0.00339198 0.00325394 0.00311436 0.00297326 0.00283063 0.00268646 0.002542 0.00239846 0.00225586 0.00211418 0.00197343 0.00183361 0.00169473 0.00155676 0.00142 0.00128469 0.00115083 0.00101843 0.000887486 0.000757999 0.000629967 0.000503391 0.000385409 0.000283157 0.000196637 0.000125848 7.07894e-05 3.14619e-05 7.86549e-06 0 0 6.70549e-06 2.6822e-05 6.03494e-05 0.000107288 0.000167637 0.000241398 0.000328569 0.000429151 0.000537432 0.000647699 0.000759952 0.000874191 0.000990415 0.00110863 0.00122882 0.00135101 0.00147519 0.00160139 0.00172961 0.00185985 0.00199211 0.00212638 0.00226267 0.00240099 0.00254041 0.00268003 0.00281985 0.00295988 0.00310011 0.00324054 0.00338117 0.00352201 0.00366217 0.00380079 0.00393786 0.00407339 0.00420737 0.0043398 0.00447069 0.00460004 0.00472703 0.00485088 0.00497157 0.0050891 0.00520349 0.00531473 0.00542281 0.00552774 0.00562882 0.00572537 0.00581738 0.00590486 0.0059878 0.0060662 0.00614006 0.00620939 0.00627366 0.00633235 0.00638547 0.006433 0.00647495 0.00651132 0.00654211 0.00656732 0.00658666 0.00659987 0.00660693 0.00660784 0.00660261 0.00659123 0.00657371 0.00655004 0.00652025 0.00648435 0.00644235 0.00639424 0.00634002 0.00627971 0.00621328 0.00614075 0.00606248 0.00597884 0.00588983 0.00579544 0.00569569 0.00559056 0.00548006 0.00536419 0.00524367 0.00511925 0.00499093 0.00485869 0.00472255 0.0045825 0.00443854 0.00429068 0.00414 0.00398758 0.00383344 0.00367756 0.00351996 0.00336062 0.00319955 0.00303675 0.00287361 0.00271151 0.00255044 0.00239042 0.00223143 0.00207348 0.00191658 0.00176071 0.00160617 0.00145325 0.00130195 0.00115226 0.00100418 0.000857727 0.000712886 0.000569663 0.000436148 0.000320435 0.000222524 0.000142416 8.01088e-05 3.56039e-05 8.90098e-06 0 0 7.50469e-06 3.00188e-05 6.75422e-05 0.000120075 0.000187617 0.000270169 0.00036773 0.0004803 0.00060147 0.000724827 0.000850373 0.000978106 0.00110803 0.00124014 0.00137444 0.00151092 0.00164962 0.00179056 0.00193374 0.00207916 0.00222682 0.00237671 0.00252885 0.00268323 0.00283883 0.00299465 0.00315069 0.00330694 0.00346342 0.0036201 0.00377701 0.00393414 0.0040905 0.00424514 0.00439805 0.00454923 0.00469869 0.00484641 0.0049924 0.00513667 0.00527831 0.00541643 0.00555103 0.00568211 0.00580967 0.00593372 0.00605424 0.00617125 0.00628396 0.00639161 0.0064942 0.00659173 0.0066842 0.0067716 0.00685395 0.00693123 0.00700286 0.00706828 0.00712746 0.00718043 0.00722717 0.00726768 0.00730197 0.00733004 0.00735157 0.00736624 0.00737406 0.00737503 0.00736915 0.00735641 0.00733682 0.00731038 0.0072771 0.00723702 0.00719013 0.00713644 0.00707593 0.00700862 0.0069345 0.00685357 0.00676625 0.00667293 0.00657363 0.00646834 0.00635706 0.00623978 0.00611652 0.00598727 0.00585285 0.00571407 0.00557093 0.00542344 0.00527159 0.00511538 0.00495481 0.00478989 0.00462182 0.00445182 0.00427988 0.00410601 0.0039302 0.00375246 0.00357279 0.00339118 0.00320918 0.00302833 0.00284862 0.00267007 0.00249266 0.0023164 0.00214129 0.00196733 0.00179483 0.0016241 0.00145514 0.00128795 0.00112253 0.000958877 0.000796998 0.000636891 0.000487619 0.000358251 0.000248785 0.000159223 8.95627e-05 3.98057e-05 9.95141e-06 0 0 8.31706e-06 3.32683e-05 7.48536e-05 0.000133073 0.000207927 0.000299414 0.000407536 0.000532292 0.000666558 0.00080321 0.000942248 0.00108367 0.00122748 0.00137368 0.00152226 0.00167323 0.00182662 0.00198247 0.00214078 0.00230155 0.00246478 0.00263047 0.00279862 0.00296923 0.00314118 0.00331337 0.00348578 0.00365843 0.00383131 0.00400441 0.00417775 0.00435132 0.00452405 0.00469486 0.00486375 0.00503073 0.0051958 0.00535895 0.00552018 0.0056795 0.00583591 0.00598844 0.00613707 0.00628182 0.00642267 0.00655963 0.0066927 0.00682189 0.00694633 0.00706518 0.00717843 0.00728609 0.00738816 0.00748464 0.00757553 0.00766082 0.00773988 0.00781206 0.00787737 0.0079358 0.00798736 0.00803205 0.00806986 0.0081008 0.00812451 0.00814066 0.00814924 0.00815025 0.0081437 0.00812958 0.00810789 0.00807863 0.00804184 0.00799752 0.0079457 0.00788635 0.00781949 0.00774512 0.00766323 0.00757382 0.00747735 0.00737427 0.00726458 0.00714827 0.00702536 0.00689583 0.00675969 0.00661694 0.00646848 0.00631521 0.00615713 0.00599424 0.00582654 0.00565402 0.0054767 0.00529456 0.00510895 0.0049212 0.00473131 0.00453928 0.00434511 0.0041488 0.00395034 0.00374975 0.00354871 0.00334893 0.00315041 0.00295314 0.00275713 0.00256237 0.00236887 0.00217662 0.00198596 0.00179722 0.0016104 0.0014255 0.00124252 0.00106145 0.000882303 0.000705075 0.000539823 0.000396605 0.00027542 0.000176269 9.91512e-05 4.40672e-05 1.10168e-05 0 0 9.14261e-06 3.65704e-05 8.22835e-05 0.000146282 0.000228565 0.000329134 0.000447988 0.000585127 0.000732698 0.000882849 0.00103558 0.00119089 0.00134878 0.00150924 0.00167229 0.00183792 0.00200617 0.00217711 0.00235072 0.00252702 0.00270599 0.00288764 0.00307198 0.00325899 0.00344747 0.00363618 0.00382514 0.00401434 0.00420378 0.00439347 0.0045834 0.00477357 0.0049628 0.00514994 0.00533496 0.00551789 0.00569871 0.00587742 0.00605403 0.00622854 0.00639986 0.00656691 0.0067297 0.00688822 0.00704248 0.00719247 0.0073382 0.00747966 0.00761592 0.00774606 0.00787006 0.00798794 0.00809969 0.00820531 0.00830481 0.00839817 0.00848471 0.00856371 0.00863518 0.00869912 0.00875554 0.00880442 0.00884577 0.00887958 0.00890549 0.00892312 0.00893245 0.0089335 0.00892626 0.00891073 0.00888691 0.00885481 0.00881445 0.00876586 0.00870903 0.00864398 0.00857071 0.0084892 0.00839946 0.00830149 0.00819579 0.00808285 0.00796267 0.00783525 0.0077006 0.0075587 0.00740957 0.0072532 0.00709058 0.00692268 0.00674952 0.00657109 0.0063874 0.00619843 0.0060042 0.0058047 0.0056014 0.00539574 0.00518773 0.00497737 0.00476467 0.00454961 0.00433221 0.00411245 0.0038922 0.00367332 0.00345579 0.00323963 0.00302482 0.00281138 0.0025993 0.00238858 0.00217958 0.00197263 0.00176774 0.00156492 0.00136415 0.00116544 0.0009688 0.000774216 0.000592759 0.000435496 0.000302428 0.000193554 0.000108874 4.83885e-05 1.20971e-05 0 0 9.98079e-06 3.99231e-05 8.98271e-05 0.000159693 0.00024952 0.000359308 0.000489059 0.00063877 0.000799848 0.000963695 0.00113031 0.0012997 0.00147186 0.00164678 0.00182448 0.00200495 0.00218825 0.00237445 0.00256355 0.00275555 0.00295045 0.00314824 0.00334894 0.00355254 0.00375771 0.00396314 0.00416881 0.00437474 0.00458092 0.00478735 0.00499403 0.00520097 0.00540688 0.00561049 0.00581181 0.00601083 0.00620756 0.00640198 0.00659411 0.00678395 0.00697031 0.00715203 0.0073291 0.00750152 0.00766931 0.00783244 0.00799093 0.00814478 0.00829297 0.00843448 0.00856933 0.00869751 0.00881902 0.00893386 0.00904203 0.00914353 0.0092376 0.00932348 0.00940116 0.00947065 0.00953194 0.00958504 0.00962995 0.00966667 0.00969478 0.00971388 0.00972396 0.00972503 0.00971709 0.00970013 0.00967415 0.00963916 0.00959519 0.00954228 0.00948041 0.00940959 0.00932982 0.00924111 0.00914344 0.00903682 0.0089218 0.0087989 0.00866813 0.0085295 0.00838299 0.00822861 0.00806635 0.00789623 0.00771931 0.00753666 0.00734827 0.00715416 0.00695432 0.00674875 0.00653746 0.00632043 0.00609925 0.00587552 0.00564922 0.00542037 0.00518895 0.00495497 0.00471842 0.00447932 0.00423967 0.00400148 0.00376477 0.00352951 0.00329573 0.0030634 0.00283255 0.00260316 0.0023756 0.00215025 0.00192709 0.00170613 0.00148736 0.0012708 0.00105644 0.000844269 0.000646394 0.000474901 0.000329793 0.000211067 0.000118725 5.27668e-05 1.31917e-05 0 0 1.08311e-05 4.33243e-05 9.74796e-05 0.000173297 0.000270777 0.000389918 0.000530722 0.000693188 0.000867965 0.0010457 0.0012264 0.00141005 0.00159667 0.00178625 0.00197878 0.00217428 0.00237281 0.00257446 0.00277924 0.00298713 0.00319814 0.00341227 0.00362952 0.00384989 0.00407195 0.00429427 0.00451685 0.00473969 0.00496278 0.00518614 0.00540975 0.00563363 0.00585639 0.00607665 0.00629442 0.0065097 0.00672249 0.00693278 0.00714059 0.0073459 0.00754744 0.00774396 0.00793545 0.00812191 0.00830334 0.00847975 0.00865112 0.00881746 0.00897768 0.00913068 0.00927647 0.00941504 0.00954639 0.00967053 0.00978745 0.00989715 0.00999881 0.0100916 0.0101756 0.0102506 0.0103168 0.0103742 0.0104227 0.0104623 0.0104926 0.0105132 0.010524 0.0105251 0.0105165 0.010498 0.0104699 0.010432 0.0103843 0.010327 0.0102601 0.0101834 0.0100971 0.0100011 0.00989541 0.00978006 0.00965561 0.00952266 0.00938119 0.00923122 0.00907273 0.00890574 0.00873024 0.00854623 0.00835487 0.00815731 0.00795356 0.00774361 0.00752746 0.00730512 0.00707659 0.00684186 0.00660264 0.00636065 0.00611588 0.00586833 0.00561801 0.00536491 0.00510903 0.00485038 0.00459112 0.00433344 0.00407732 0.00382278 0.0035698 0.0033184 0.00306856 0.0028203 0.00257399 0.00233001 0.00208837 0.00184906 0.00161209 0.00137746 0.00114516 0.000915191 0.000700693 0.000514795 0.000357496 0.000228798 0.000128699 5.71994e-05 1.42999e-05 0 0 1.16935e-05 4.67738e-05 0.000105241 0.000187095 0.000292336 0.000420964 0.000572979 0.000748381 0.00093705 0.00112887 0.00132384 0.00152195 0.00172322 0.00192763 0.00213519 0.0023459 0.00255986 0.00277716 0.00299779 0.00322176 0.00344908 0.00367973 0.00391372 0.00415106 0.00439019 0.00462959 0.00486925 0.00510918 0.00534938 0.00558984 0.00583056 0.00607155 0.00631132 0.00654841 0.0067828 0.0070145 0.00724351 0.00746982 0.00769345 0.00791438 0.00813126 0.00834272 0.00854877 0.00874939 0.0089446 0.00913438 0.00931875 0.00949771 0.00967006 0.00983465 0.00999147 0.0101405 0.0102818 0.0104153 0.0105411 0.010659 0.0107683 0.0108681 0.0109584 0.0110391 0.0111102 0.0111719 0.011224 0.0112665 0.0112991 0.0113211 0.0113327 0.0113338 0.0113244 0.0113045 0.0112741 0.0112332 0.0111819 0.0111202 0.011048 0.0109655 0.0108725 0.0107692 0.0106554 0.0105312 0.0103972 0.0102541 0.0101018 0.00994042 0.00976984 0.00959012 0.00940123 0.0092032 0.00899725 0.00878464 0.00856536 0.00833942 0.00810681 0.00786754 0.00762159 0.00736899 0.00711155 0.00685111 0.00658769 0.00632126 0.00605185 0.00577943 0.00550403 0.00522563 0.00494656 0.00466918 0.00439346 0.00411942 0.00384705 0.00357636 0.00330734 0.00304 0.00277472 0.00251192 0.00225159 0.00199372 0.00173833 0.00148541 0.00123496 0.000986981 0.000755657 0.000555177 0.000385539 0.000246745 0.000138794 6.16863e-05 1.54216e-05 0 0 1.25679e-05 5.02717e-05 0.000113111 0.000201087 0.000314198 0.000452446 0.000615829 0.000804348 0.0010071 0.0012132 0.00142263 0.00163539 0.0018515 0.00207094 0.00229372 0.00251983 0.0027494 0.00298252 0.0032192 0.00345945 0.00370325 0.00395062 0.00420154 0.00445603 0.00471242 0.00496909 0.00522602 0.00548323 0.0057407 0.00599844 0.00625645 0.00651473 0.00677169 0.00702576 0.00727694 0.00752522 0.00777061 0.0080131 0.0082527 0.00848941 0.00872176 0.00894831 0.00916904 0.00938396 0.00959306 0.00979636 0.00999384 0.0101855 0.0103701 0.0105464 0.0107143 0.010874 0.0110252 0.0111682 0.0113028 0.0114292 0.0115462 0.011653 0.0117496 0.011836 0.0119121 0.0119781 0.0120338 0.0120793 0.0121141 0.0121376 0.0121499 0.012151 0.0121408 0.0121194 0.0120868 0.0120429 0.0119878 0.0119216 0.0118443 0.0117558 0.0116561 0.0115453 0.0114233 0.0112902 0.0111467 0.0109933 0.0108301 0.0106571 0.0104743 0.0102817 0.0100793 0.00986713 0.00964646 0.00941865 0.0091837 0.00894161 0.00869237 0.008436 0.00817248 0.00790182 0.00762598 0.00734693 0.00706466 0.00677917 0.00649047 0.00619855 0.00590341 0.00560506 0.00530599 0.0050087 0.00471318 0.00441944 0.00412748 0.00383729 0.00354888 0.00326225 0.00297781 0.00269597 0.00241674 0.00214011 0.00186609 0.00159467 0.00132585 0.00105964 0.000811286 0.000596047 0.000413922 0.00026491 0.000149012 6.62275e-05 1.65569e-05 0 0 1.34545e-05 5.38181e-05 0.000121091 0.000215272 0.000336363 0.000484363 0.000659271 0.000861089 0.00107812 0.00129868 0.00152277 0.00175038 0.00198151 0.00221617 0.00245435 0.00269606 0.00294142 0.00319056 0.00344348 0.00370018 0.00396067 0.00422493 0.00449298 0.0047648 0.00503865 0.00531277 0.00558716 0.00586182 0.00613675 0.00641195 0.00668742 0.00696316 0.00723749 0.00750872 0.00777684 0.00804187 0.00830379 0.00856262 0.00881835 0.00907098 0.00931895 0.00956071 0.00979626 0.0100256 0.0102487 0.0104657 0.0106764 0.0108809 0.0110778 0.0112659 0.0114451 0.0116154 0.0117767 0.0119292 0.0120728 0.0122076 0.0123324 0.0124463 0.0125493 0.0126414 0.0127225 0.0127928 0.0128522 0.0129006 0.0129376 0.0129627 0.0129757 0.0129767 0.0129658 0.0129429 0.0129079 0.012861 0.0128022 0.0127314 0.0126488 0.0125543 0.0124478 0.0123