<?xml version="1.0"?> 
<VTKFile type="StructuredGrid" version="0.1"> 
<StructuredGrid WholeExtent="0 128 0 128 0 0"> 
<Piece Extent="0 128 0 128 0 0"> 
<PointData>
<DataArray type="Float32" Name="u" format="ascii" NumberOfComponents="1"> 
0 0 0 0 0 0 0 0 0 0 0 0 0 0 0 0 0 0 0 0 0 0 0 0 0 0 0 0 0 0 0 0 0 0 0 0 0 0 0 0 0 0 0 0 0 0 0 0 0 0 0 0 0 0 0 0 0 0 0 0 0 0 0 0 0 0 0 0 0 0 0 0 0 0 0 0 0 0 0 0 0 0 0 0 0 0 0 0 0 0 0 0 0 0 0 0 0 0 0 0 0 0 0 0 0 0 0 0 0 0 0 0 0 0 0 0 0 0 0 0 0 0 0 0 0 0 0 0 0 0 3.88727e-08 1.55491e-07 3.49854e-07 6.21963e-07 9.71817e-07 1.39942e-06 1.90476e-06 2.48785e-06 3.11734e-06 3.76188e-06 4.42147e-06 5.09611e-06 5.78581e-06 6.49055e-06 7.21035e-06 7.94519e-06 8.69576e-06 9.46271e-06 1.0246e-05 1.10458e-05 1.18619e-05 1.26944e-05 1.35433e-05 1.44085e-05 1.52852e-05 1.61682e-05 1.70575e-05 1.79531e-05 1.88551e-05 1.97634e-05 2.06781e-05 2.15991e-05 2.2521e-05 2.34382e-05 2.43507e-05 2.52586e-05 2.61618e-05 2.70604e-05 2.79543e-05 2.88435e-05 2.97224e-05 3.05853e-05 3.1432e-05 3.22628e-05 3.30774e-05 3.3876e-05 3.46586e-05 3.54251e-05 3.617e-05 3.68879e-05 3.75786e-05 3.82423e-05 3.88789e-05 3.94884e-05 4.00709e-05 4.06263e-05 4.11498e-05 4.16369e-05 4.20875e-05 4.25016e-05 4.28793e-05 4.32204e-05 4.3525e-05 4.37932e-05 4.40217e-05 4.42074e-05 4.43504e-05 4.44505e-05 4.45078e-05 4.45223e-05 4.44941e-05 4.4423e-05 4.43082e-05 4.41489e-05 4.39449e-05 4.36964e-05 4.34032e-05 4.30655e-05 4.26831e-05 4.22562e-05 4.17865e-05 4.1276e-05 4.07247e-05 4.01325e-05 3.94995e-05 3.88256e-05 3.81109e-05 3.73554e-05 3.6564e-05 3.57415e-05 3.48881e-05 3.40036e-05 3.30881e-05 3.21417e-05 3.11642e-05 3.01557e-05 2.91242e-05 2.80774e-05 2.70155e-05 2.59384e-05 2.48461e-05 2.37386e-05 2.2616e-05 2.14781e-05 2.03355e-05 1.91985e-05 1.8067e-05 1.69411e-05 1.58208e-05 1.4706e-05 1.35969e-05 1.24933e-05 1.13981e-05 1.03141e-05 9.24129e-06 8.17967e-06 7.12924e-06 6.08999e-06 5.06194e-06 4.04507e-06 3.09701e-06 2.27535e-06 1.58011e-06 1.01127e-06 5.68839e-07 2.52817e-07 6.32043e-08 0 0 1.55491e-07 6.21963e-07 1.39942e-06 2.48785e-06 3.88727e-06 5.59767e-06 7.61905e-06 9.95141e-06 1.24694e-05 1.50475e-05 1.76859e-05 2.03845e-05 2.31432e-05 2.59622e-05 2.88414e-05 3.17808e-05 3.4783e-05 3.78508e-05 4.09842e-05 4.41831e-05 4.74476e-05 5.07775e-05 5.41731e-05 5.76342e-05 6.11407e-05 6.46726e-05 6.82299e-05 7.18125e-05 7.54205e-05 7.90538e-05 8.27124e-05 8.63965e-05 9.00839e-05 9.37526e-05 9.74028e-05 0.000101034 0.000104647 0.000108241 0.000111817 0.000115374 0.00011889 0.000122341 0.000125728 0.000129051 0.00013231 0.000135504 0.000138634 0.0001417 0.00014468 0.000147551 0.000150315 0.000152969 0.000155516 0.000157954 0.000160284 0.000162505 0.000164599 0.000166548 0.00016835 0.000170007 0.000171517 0.000172882 0.0001741 0.000175173 0.000176087 0.00017683 0.000177401 0.000177802 0.000178031 0.000178089 0.000177976 0.000177692 0.000177233 0.000176596 0.00017578 0.000174785 0.000173613 0.000172262 0.000170732 0.000169025 0.000167146 0.000165104 0.000162899 0.00016053 0.000157998 0.000155303 0.000152444 0.000149422 0.000146256 0.000142966 0.000139552 0.000136014 0.000132353 0.000128567 0.000124657 0.000120623 0.000116497 0.00011231 0.000108062 0.000103754 9.93844e-05 9.49545e-05 9.04639e-05 8.59126e-05 8.13421e-05 7.67938e-05 7.22679e-05 6.77644e-05 6.32831e-05 5.88242e-05 5.43875e-05 4.99732e-05 4.55924e-05 4.12564e-05 3.69652e-05 3.27187e-05 2.85169e-05 2.436e-05 2.02478e-05 1.61803e-05 1.2388e-05 9.10142e-06 6.32043e-06 4.04507e-06 2.27535e-06 1.01127e-06 2.52817e-07 0 0 3.49854e-07 1.39942e-06 3.14869e-06 5.59767e-06 8.74635e-06 1.25947e-05 1.71429e-05 2.23907e-05 2.80561e-05 3.38569e-05 3.97932e-05 4.5865e-05 5.20723e-05 5.8415e-05 6.48931e-05 7.15067e-05 7.82618e-05 8.51644e-05 9.22144e-05 9.9412e-05 0.000106757 0.000114249 0.000121889 0.000129677 0.000137567 0.000145513 0.000153517 0.000161578 0.000169696 0.000177871 0.000186103 0.000194392 0.000202689 0.000210943 0.000219156 0.000227327 0.000235456 0.000243543 0.000251588 0.000259592 0.000267502 0.000275267 0.000282888 0.000290365 0.000297697 0.000304884 0.000311927 0.000318826 0.00032553 0.000331991 0.000338208 0.000344181 0.00034991 0.000355396 0.000360638 0.000365636 0.000370348 0.000374732 0.000378788 0.000382515 0.000385913 0.000388984 0.000391725 0.000394139 0.000396195 0.000397867 0.000399153 0.000400054 0.00040057 0.000400701 0.000400447 0.000399807 0.000398774 0.00039734 0.000395504 0.000393267 0.000390629 0.000387589 0.000384148 0.000380306 0.000376079 0.000371484 0.000366522 0.000361192 0.000355495 0.000349431 0.000342998 0.000336199 0.000329076 0.000321674 0.000313992 0.000306032 0.000297793 0.000289275 0.000280478 0.000271402 0.000262117 0.000252697 0.000243139 0.000233445 0.000223615 0.000213648 0.000203544 0.000193303 0.00018302 0.000172786 0.000162603 0.00015247 0.000142387 0.000132354 0.000122372 0.00011244 0.000102583 9.2827e-05 8.31716e-05 7.3617e-05 6.41631e-05 5.48099e-05 4.55574e-05 3.64057e-05 2.78731e-05 2.04782e-05 1.4221e-05 9.10142e-06 5.11955e-06 2.27535e-06 5.68839e-07 0 0 6.21963e-07 2.48785e-06 5.59767e-06 9.95141e-06 1.55491e-05 2.23907e-05 3.04762e-05 3.98056e-05 4.98774e-05 6.01901e-05 7.07435e-05 8.15378e-05 9.25729e-05 0.000103849 0.000115366 0.000127123 0.000139132 0.000151403 0.000163937 0.000176732 0.00018979 0.00020311 0.000216692 0.000230537 0.000244563 0.000258691 0.00027292 0.00028725 0.000301682 0.000316215 0.00033085 0.000345586 0.000360335 0.000375011 0.000389611 0.000404137 0.000418589 0.000432966 0.000447268 0.000461496 0.000475559 0.000489364 0.000502913 0.000516204 0.000529239 0.000542017 0.000554537 0.000566801 0.00057872 0.000590206 0.000601258 0.000611877 0.000622063 0.000631815 0.000641134 0.00065002 0.000658397 0.000666191 0.0006734 0.000680026 0.000686068 0.000691526 0.000696401 0.000700691 0.000704348 0.000707319 0.000709606 0.000711208 0.000712125 0.000712357 0.000711905 0.000710768 0.000708932 0.000706382 0.000703119 0.000699142 0.000694451 0.000689047 0.00068293 0.000676099 0.000668584 0.000660416 0.000651595 0.00064212 0.000631992 0.00062121 0.000609775 0.000597687 0.000585023 0.000571864 0.000558209 0.000544058 0.00052941 0.000514267 0.000498627 0.000482492 0.000465987 0.000449239 0.000432248 0.000415014 0.000397537 0.000379818 0.000361856 0.00034365 0.000325368 0.000307175 0.000289072 0.000271057 0.000253132 0.000235297 0.00021755 0.000199893 0.00018237 0.000165026 0.000147861 0.000130875 0.000114068 9.74399e-05 8.0991e-05 6.47212e-05 4.95522e-05 3.64057e-05 2.52817e-05 1.61803e-05 9.10142e-06 4.04507e-06 1.01127e-06 0 0 9.71817e-07 3.88727e-06 8.74635e-06 1.55491e-05 2.42954e-05 3.49854e-05 4.7619e-05 6.21963e-05 7.79335e-05 9.4047e-05 0.000110537 0.000127403 0.000144645 0.000162264 0.000180259 0.00019863 0.000217394 0.000236568 0.000256151 0.000276144 0.000296547 0.00031736 0.000338582 0.000360214 0.00038213 0.000404204 0.000426437 0.000448828 0.000471378 0.000494086 0.000516953 0.000539978 0.000563024 0.000585954 0.000608767 0.000631464 0.000654045 0.000676509 0.000698857 0.000721088 0.00074306 0.000764631 0.000785801 0.000806569 0.000826936 0.000846901 0.000866465 0.000885627 0.00090425 0.000922197 0.000939466 0.000956058 0.000971973 0.000987211 0.00100177 0.00101566 0.00102875 0.00104092 0.00105219 0.00106254 0.00107198 0.00108051 0.00108813 0.00109483 0.00110054 0.00110519 0.00110876 0.00111126 0.0011127 0.00111306 0.00111235 0.00111058 0.00110771 0.00110372 0.00109862 0.00109241 0.00108508 0.00107664 0.00106708 0.0010564 0.00104466 0.0010319 0.00101812 0.00100331 0.000987487 0.000970641 0.000952773 0.000933885 0.000914099 0.000893538 0.000872201 0.00085009 0.000827203 0.000803542 0.000779105 0.000753893 0.000728104 0.000701935 0.000675387 0.00064846 0.000621152 0.000593466 0.000565399 0.000536954 0.000508388 0.000479962 0.000451675 0.000423527 0.000395519 0.000367651 0.000339922 0.000312333 0.000284953 0.000257853 0.000231032 0.000204492 0.000178231 0.00015225 0.000126548 0.000101127 7.74252e-05 5.68839e-05 3.95027e-05 2.52817e-05 1.4221e-05 6.32043e-06 1.58011e-06 0 0 1.39942e-06 5.59767e-06 1.25947e-05 2.23907e-05 3.49854e-05 5.0379e-05 6.85714e-05 8.95627e-05 0.000112224 0.000135428 0.000159173 0.00018346 0.000208289 0.00023366 0.000259572 0.000286027 0.000313047 0.000340658 0.000368858 0.000397648 0.000427028 0.000456998 0.000487558 0.000518708 0.000550267 0.000582054 0.000614069 0.000646312 0.000678784 0.000711484 0.000744412 0.000777568 0.000810755 0.000843774 0.000876625 0.000909309 0.000941824 0.000974173 0.00100635 0.00103837 0.00107001 0.00110107 0.00113155 0.00116146 0.00119079 0.00121954 0.00124771 0.0012753 0.00130212 0.00132796 0.00135283 0.00137672 0.00139964 0.00142158 0.00144255 0.00146255 0.00148139 0.00149893 0.00151515 0.00153006 0.00154365 0.00155593 0.0015669 0.00157656 0.00158478 0.00159147 0.00159661 0.00160022 0.00160228 0.0016028 0.00160179 0.00159923 0.0015951 0.00158936 0.00158202 0.00157307 0.00156252 0.00155036 0.00153659 0.00152122 0.00150431 0.00148594 0.00146609 0.00144477 0.00142198 0.00139772 0.00137199 0.00134479 0.0013163 0.00128669 0.00125597 0.00122413 0.00119117 0.0011571 0.00112191 0.00108561 0.00104847 0.00101079 0.000972558 0.000933782 0.000894459 0.00085459 0.000814175 0.000773213 0.000732078 0.000691145 0.000650412 0.000609879 0.000569548 0.000529417 0.000489488 0.000449759 0.000410332 0.000371308 0.000332687 0.000294468 0.000256652 0.00021924 0.00018223 0.000145623 0.000111492 8.19128e-05 5.68839e-05 3.64057e-05 2.04782e-05 9.10142e-06 2.27535e-06 0 0 1.90476e-06 7.61905e-06 1.71429e-05 3.04762e-05 4.7619e-05 6.85714e-05 9.33333e-05 0.000121905 0.00015275 0.000184332 0.000216652 0.00024971 0.000283504 0.000318037 0.000353307 0.000389314 0.000426092 0.000463673 0.000502056 0.000541243 0.000581233 0.000622025 0.00066362 0.000706019 0.000748974 0.00079224 0.000835816 0.000879703 0.000923901 0.000968409 0.00101323 0.00105836 0.00110353 0.00114847 0.00119318 0.00123767 0.00128193 0.00132596 0.00136976 0.00141333 0.0014564 0.00149868 0.00154017 0.00158088 0.00162079 0.00165993 0.00169827 0.00173583 0.00177233 0.00180751 0.00184135 0.00187387 0.00190507 0.00193493 0.00196347 0.00199069 0.00201634 0.00204021 0.00206229 0.00208258 0.00210108 0.0021178 0.00213273 0.00214587 0.00215706 0.00216616 0.00217317 0.00217807 0.00218088 0.00218159 0.00218021 0.00217673 0.0021711 0.0021633 0.0021533 0.00214112 0.00212676 0.00211021 0.00209147 0.00207055 0.00204754 0.00202252 0.00199551 0.00196649 0.00193547 0.00190246 0.00186744 0.00183042 0.00179163 0.00175133 0.00170951 0.00166618 0.00162132 0.00157494 0.00152705 0.00147763 0.00142708 0.00137579 0.00132376 0.00127098 0.00121746 0.00116319 0.00110818 0.00105243 0.00099644 0.000940725 0.000885282 0.000830114 0.000775218 0.000720596 0.000666247 0.000612172 0.000558507 0.000505391 0.000452823 0.000400804 0.000349333 0.00029841 0.000248035 0.000198209 0.000151753 0.000111492 7.74252e-05 4.95522e-05 2.78731e-05 1.2388e-05 3.09701e-06 0 0 2.48785e-06 9.95141e-06 2.23907e-05 3.98056e-05 6.21963e-05 8.95627e-05 0.000121905 0.000159223 0.00019951 0.00024076 0.000282974 0.000326151 0.000370292 0.000415395 0.000461462 0.000508492 0.000556528 0.000605613 0.000655747 0.00070693 0.000759161 0.000812441 0.00086677 0.000922147 0.000978252 0.00103476 0.00109168 0.001149 0.00120673 0.00126486 0.0013234 0.00138234 0.00144134 0.00150004 0.00155844 0.00161655 0.00167435 0.00173186 0.00178907 0.00184599 0.00190223 0.00195746 0.00201165 0.00206482 0.00211696 0.00216807 0.00221815 0.00226721 0.00231488 0.00236082 0.00240503 0.00244751 0.00248825 0.00252726 0.00256454 0.00260008 0.00263359 0.00266476 0.0026936 0.0027201 0.00274427 0.00276611 0.0027856 0.00280277 0.00281739 0.00282928 0.00283842 0.00284483 0.0028485 0.00284943 0.00284762 0.00284307 0.00283573 0.00282553 0.00281247 0.00279657 0.00277781 0.00275619 0.00273172 0.00270439 0.00267434 0.00264166 0.00260638 0.00256848 0.00252797 0.00248484 0.0024391 0.00239075 0.00234009 0.00228746 0.00223284 0.00217623 0.00211764 0.00205707 0.00199451 0.00192997 0.00186395 0.00179695 0.00172899 0.00166006 0.00159015 0.00151927 0.00144742 0.0013746 0.00130147 0.0012287 0.00115629 0.00108423 0.00101253 0.000941187 0.000870201 0.000799571 0.000729479 0.000660103 0.000591443 0.000523499 0.000456271 0.000389759 0.000323964 0.000258885 0.000198209 0.000145623 0.000101127 6.47212e-05 3.64057e-05 1.61803e-05 4.04507e-06 0 0 3.11653e-06 1.24661e-05 2.80487e-05 4.98644e-05 7.79132e-05 0.000112195 0.00015271 0.000199458 0.000249923 0.000301591 0.000354461 0.000408533 0.000463808 0.000520284 0.000577963 0.000636844 0.000696982 0.00075843 0.000821189 0.000885259 0.00095064 0.00101733 0.00108533 0.00115465 0.00122487 0.0012956 0.00136683 0.00143857 0.00151082 0.00158357 0.00165683 0.0017306 0.00180443 0.00187789 0.00195097 0.00202368 0.00209602 0.00216798 0.00223957 0.00231078 0.00238117 0.00245026 0.00251808 0.0025846 0.00264984 0.00271379 0.00277645 0.00283783 0.00289748 0.00295496 0.00301027 0.00306341 0.00311439 0.00316319 0.00320982 0.00325429 0.00329621 0.00333521 0.00337128 0.00340443 0.00343466 0.00346197 0.00348636 0.00350782 0.00352611 0.00354097 0.00355241 0.00356041 0.00356499 0.00356615 0.00356387 0.00355817 0.00354897 0.0035362 0.00351986 0.00349994 0.00347646 0.0034494 0.00341878 0.00338458 0.00334696 0.00330607 0.00326191 0.00321448 0.00316379 0.00310982 0.00305258 0.00299207 0.00292869 0.00286282 0.00279447 0.00272364 0.00265033 0.00257453 0.00249625 0.00241549 0.00233288 0.00224905 0.00216401 0.00207775 0.00199027 0.00190158 0.00181167 0.00172055 0.00162904 0.00153797 0.00144735 0.00135718 0.00126745 0.00117817 0.00108933 0.00100094 0.00091322 0.000826389 0.00074045 0.000655403 0.000571247 0.000487984 0.000405613 0.000324133 0.000248165 0.000182325 0.000126615 8.10334e-05 4.55813e-05 2.02583e-05 5.06459e-06 0 0 3.75863e-06 1.50345e-05 3.38276e-05 6.0138e-05 9.39657e-05 0.000135311 0.000184173 0.000240552 0.000301409 0.000363703 0.000427435 0.000492604 0.00055921 0.000627254 0.000696735 0.000767654 0.000840078 0.000914074 0.000989643 0.00106678 0.0011455 0.00122578 0.00130764 0.00139107 0.0014756 0.00156072 0.00164645 0.00173279 0.00181973 0.00190728 0.00199543 0.00208419 0.00217302 0.0022614 0.00234933 0.00243681 0.00252383 0.0026104 0.00269652 0.00278218 0.00286685 0.00294996 0.00303152 0.00311154 0.00319 0.00326692 0.00334228 0.0034161 0.00348783 0.00355696 0.00362347 0.00368737 0.00374866 0.00380734 0.00386342 0.00391687 0.00396727 0.00401415 0.00405752 0.00409737 0.0041337 0.00416652 0.00419582 0.00422161 0.00424358 0.00426142 0.00427515 0.00428475 0.00429023 0.00429159 0.00428882 0.00428193 0.00427084 0.00425545 0.00423576 0.00421179 0.00418351 0.00415095 0.00411408 0.00407293 0.00402766 0.00397846 0.00392532 0.00386826 0.00380726 0.00374233 0.00367347 0.00360067 0.00352442 0.00344518 0.00336296 0.00327775 0.00318956 0.00309838 0.00300422 0.00290707 0.00280769 0.00270685 0.00260455 0.00250078 0.00239555 0.00228886 0.0021807 0.00207108 0.00196099 0.00185144 0.00174241 0.00163392 0.00152596 0.00141853 0.00131164 0.00120527 0.0010997 0.000995195 0.000891749 0.000789364 0.000688041 0.000587778 0.000488577 0.000390437 0.000298929 0.000219621 0.000152515 9.76093e-05 5.49053e-05 2.44023e-05 6.10058e-06 0 0 4.41415e-06 1.76566e-05 3.97274e-05 7.06264e-05 0.000110354 0.00015891 0.000216293 0.000282506 0.000353967 0.000427096 0.000501895 0.000578363 0.000656499 0.000736304 0.000817779 0.000900922 0.000985816 0.00107254 0.00116111 0.0012515 0.00134373 0.0014378 0.0015337 0.00163143 0.00173043 0.00183013 0.00193054 0.00203165 0.00213346 0.00223597 0.00233919 0.00244311 0.00254712 0.00265058 0.00275352 0.00285592 0.00295779 0.00305912 0.00315992 0.00326018 0.00335927 0.00345654 0.003552 0.00364564 0.00373745 0.00382746 0.00391564 0.00400201 0.00408594 0.00416681 0.00424463 0.00431938 0.00439108 0.00445973 0.00452531 0.00458784 0.00464678 0.0047016 0.00475231 0.00479891 0.00484139 0.00487975 0.004914 0.00494413 0.00496979 0.00499063 0.00500664 0.00501783 0.0050242 0.00502574 0.00502246 0.00501436 0.00500133 0.00498328 0.0049602 0.0049321 0.00489897 0.00486082 0.00481764 0.00476944 0.00471643 0.00465882 0.00459661 0.0045298 0.00445839 0.00438237 0.00430176 0.00421655 0.0041273 0.00403455 0.00393831 0.00383857 0.00373534 0.00362862 0.00351841 0.0034047 0.00328839 0.00317037 0.00305063 0.00292917 0.002806 0.00268112 0.00255452 0.00242621 0.00229734 0.00216909 0.00204146 0.00191445 0.00178805 0.00166227 0.0015371 0.00141255 0.00128893 0.00116652 0.00104534 0.000925384 0.000806651 0.000689142 0.000572857 0.000457796 0.0003505 0.00025751 0.000178827 0.000114449 6.43776e-05 2.86123e-05 7.15307e-06 0 0 5.0831e-06 2.03324e-05 4.57479e-05 8.13296e-05 0.000127078 0.000182992 0.000249072 0.000325319 0.000407597 0.000491771 0.000577842 0.00066581 0.000755674 0.000847436 0.000941093 0.00103665 0.0011342 0.00123384 0.00133558 0.00143942 0.00154535 0.00165337 0.0017635 0.00187571 0.00198937 0.00210384 0.00221909 0.00233515 0.00245201 0.00256967 0.00268812 0.00280737 0.00292671 0.00304544 0.00316354 0.00328103 0.0033979 0.00351415 0.00362978 0.00374479 0.00385845 0.00397002 0.0040795 0.00418689 0.00429219 0.00439541 0.00449653 0.00459557 0.0046918 0.00478453 0.00487375 0.00495945 0.00504165 0.00512034 0.00519551 0.00526718 0.00533473 0.00539756 0.00545567 0.00550905 0.00555771 0.00560166 0.00564088 0.00567538 0.00570475 0.00572859 0.0057469 0.00575967 0.00576691 0.00576862 0.0057648 0.00575545 0.00574045 0.00571968 0.00569316 0.00566088 0.00562283 0.00557902 0.00552946 0.00547413 0.00541328 0.00534716 0.00527577 0.0051991 0.00511717 0.00502995 0.00493747 0.00483971 0.00473731 0.00463091 0.0045205 0.00440609 0.00428768 0.00416525 0.00403883 0.0039084 0.00377498 0.0036396 0.00350224 0.00336291 0.00322162 0.00307836 0.00293312 0.00278592 0.00263808 0.00249094 0.0023445 0.00219876 0.00205372 0.00190938 0.00176574 0.0016228 0.00148089 0.00134037 0.00120123 0.00106346 0.000927079 0.000792076 0.000658453 0.00052621 0.00040288 0.000295993 0.000205551 0.000131553 7.39983e-05 3.28882e-05 8.22204e-06 0 0 5.76548e-06 2.30619e-05 5.18893e-05 9.22477e-05 0.000144137 0.000207557 0.000282508 0.000368991 0.000462299 0.000557727 0.000655276 0.000754946 0.000856736 0.000960647 0.00106668 0.00117483 0.00128522 0.00139797 0.00151307 0.00163053 0.00175034 0.00187251 0.00199704 0.00212392 0.00225243 0.00238183 0.00251212 0.0026433 0.00277538 0.00290835 0.00304221 0.00317697 0.00331182 0.00344596 0.0035794 0.00371213 0.00384415 0.00397547 0.00410609 0.004236 0.00436437 0.00449038 0.00461402 0.0047353 0.00485421 0.00497076 0.00508495 0.00519677 0.00530542 0.00541011 0.00551083 0.00560758 0.00570036 0.00578917 0.00587402 0.0059549 0.00603112 0.00610202 0.00616758 0.0062278 0.00628269 0.00633225 0.00637647 0.00641536 0.00644845 0.0064753 0.0064959 0.00651026 0.00651836 0.00652022 0.00651583 0.0065052 0.00648818 0.00646467 0.00643465 0.00639812 0.00635509 0.00630556 0.00624952 0.00618698 0.00611821 0.00604349 0.00596281 0.00587618 0.0057836 0.00568507 0.00558058 0.00547014 0.00535447 0.00523427 0.00510955 0.00498032 0.00484656 0.00470828 0.00456548 0.00441815 0.00426746 0.00411453 0.00395938 0.003802 0.0036424 0.00348057 0.00331651 0.00315022 0.00298321 0.00281698 0.00265154 0.00248687 0.00232298 0.00215987 0.00199754 0.00183599 0.0016756 0.00151674 0.0013594 0.0012036 0.00104932 0.000896579 0.000745364 0.00059568 0.000456067 0.00033507 0.000232687 0.00014892 8.37674e-05 3.723e-05 9.30749e-06 0 0 6.46128e-06 2.58451e-05 5.81515e-05 0.00010338 0.000161532 0.000232606 0.000316603 0.000413522 0.000518073 0.000624964 0.000734197 0.00084577 0.000959684 0.00107594 0.00119454 0.00131547 0.00143889 0.00156492 0.00169357 0.00182483 0.00195871 0.00209521 0.00223433 0.00237606 0.00251959 0.0026641 0.00280961 0.00295609 0.00310357 0.00325203 0.00340147 0.0035519 0.00370242 0.00385215 0.00400108 0.00414922 0.00429656 0.0044431 0.00458885 0.0047338 0.00487704 0.00501762 0.00515557 0.00529087 0.00542352 0.00555353 0.00568089 0.00580561 0.00592679 0.00604355 0.00615586 0.00626375 0.00636721 0.00646623 0.00656083 0.00665099 0.00673596 0.00681498 0.00688804 0.00695516 0.00701631 0.00707152 0.00712077 0.00716407 0.00720091 0.00723077 0.00725367 0.0072696 0.00727856 0.00728054 0.00727556 0.00726361 0.00724455 0.00721823 0.00718466 0.00714383 0.00709576 0.00704042 0.00697784 0.006908 0.00683121 0.00674779 0.00665773 0.00656103 0.00645769 0.00634772 0.0062311 0.00610785 0.00597877 0.00584463 0.00570546 0.00556125 0.00541199 0.00525769 0.00509835 0.00493396 0.00476582 0.00459518 0.00442206 0.00424644 0.00406834 0.00388776 0.00370468 0.00351912 0.00333274 0.00314722 0.00296256 0.00277876 0.00259582 0.00241373 0.00223251 0.00205215 0.00187305 0.00169562 0.00151987 0.00134579 0.00117339 0.00100265 0.000833591 0.000666204 0.000510062 0.00037474 0.000260236 0.000166551 9.36849e-05 4.16377e-05 1.04094e-05 0 0 7.1705e-06 2.8682e-05 6.45345e-05 0.000114728 0.000179263 0.000258138 0.000351355 0.000458912 0.000574919 0.000693483 0.000814604 0.000938283 0.00106452 0.00119331 0.00132466 0.00145857 0.0015952 0.0017347 0.00187708 0.00202233 0.00217046 0.00232147 0.00247536 0.00263212 0.00279086 0.00295067 0.00311156 0.00327353 0.00343658 0.0036007 0.00376589 0.00393217 0.00409853 0.00426401 0.0044286 0.0045923 0.00475511 0.00491703 0.00507807 0.00523822 0.00539645 0.00555176 0.00570414 0.00585359 0.00600011 0.0061437 0.00628437 0.0064221 0.00655592 0.00668484 0.00680886 0.00692798 0.0070422 0.00715152 0.00725594 0.00735546 0.00744924 0.00753645 0.00761707 0.00769111 0.00775858 0.00781947 0.00787378 0.00792151 0.0079621 0.007995 0.00802019 0.00803769 0.00804749 0.00804958 0.00804399 0.00803069 0.00800953 0.00798037 0.0079432 0.00789802 0.00784482 0.00778362 0.00771441 0.00763718 0.00755229 0.00746007 0.00736052 0.00725364 0.00713943 0.0070179 0.00688903 0.00675284 0.0066102 0.00646199 0.00630822 0.00614888 0.00598397 0.00581349 0.00563745 0.00545583 0.00527006 0.00508154 0.00489026 0.00469623 0.00449945 0.00429992 0.00409764 0.0038926 0.00368665 0.00348165 0.00327757 0.00307444 0.00287224 0.00267097 0.00247065 0.00227126 0.00207324 0.00187703 0.00168263 0.00149004 0.00129926 0.00111029 0.000923134 0.000737783 0.000564865 0.000415003 0.000288197 0.000184446 0.000103751 4.61115e-05 1.15279e-05 0 0 7.89315e-06 3.15726e-05 7.10384e-05 0.00012629 0.000197329 0.000284154 0.000386765 0.000505162 0.000632837 0.000763283 0.000896499 0.00103248 0.00117124 0.00131277 0.00145706 0.00160413 0.00175415 0.0019073 0.0020636 0.00222303 0.00238559 0.00255129 0.00272013 0.00289211 0.00306624 0.00324153 0.00341799 0.00359561 0.0037744 0.00395436 0.00413548 0.00431777 0.00450015 0.00468154 0.00486195 0.00504137 0.00521981 0.00539727 0.00557374 0.00574923 0.00592261 0.00609278 0.00625974 0.00642347 0.00658399 0.00674129 0.00689537 0.00704624 0.00719281 0.007334 0.00746982 0.00760027 0.00772534 0.00784504 0.00795936 0.00806831 0.00817097 0.00826642 0.00835465 0.00843568 0.0085095 0.0085761 0.0086355 0.00868768 0.00873205 0.00876797 0.00879547 0.00881453 0.00882515 0.00882735 0.0088211 0.00880643 0.00878315 0.00875109 0.00871026 0.00866066 0.00860229 0.00853515 0.00845923 0.00837454 0.00828144 0.00818033 0.00807119 0.00795402 0.00782883 0.00769561 0.00755437 0.00740511 0.00724878 0.00708636 0.00691783 0.00674321 0.0065625 0.00637568 0.00618277 0.00598376 0.0057802 0.00557361 0.005364 0.00515138 0.00493573 0.00471706 0.00449538 0.00427067 0.00404496 0.00382027 0.00359658 0.0033739 0.00315224 0.00293159 0.00271195 0.00249332 0.00227617 0.00206096 0.00184769 0.00163635 0.00142696 0.00121951 0.00101399 0.000810418 0.000620476 0.00045586 0.00031657 0.000202604 0.000113965 5.06511e-05 1.26628e-05 0 0 8.62911e-06 3.45165e-05 7.7662e-05 0.000138066 0.000215728 0.000310648 0.000422827 0.000552263 0.00069182 0.000834357 0.000979874 0.00112837 0.00127985 0.00143431 0.00159175 0.00175217 0.00191578 0.00208279 0.0022532 0.002427 0.00260419 0.00278479 0.00296878 0.00315617 0.00334588 0.00353685 0.00372907 0.00392254 0.00411727 0.00431325 0.00451048 0.00470897 0.00490754 0.00510503 0.00530143 0.00549675 0.00569099 0.00588415 0.00607622 0.00626721 0.0064559 0.00664109 0.00682276 0.00700092 0.00717557 0.00734671 0.00751435 0.00767847 0.00783791 0.00799149 0.00813922 0.0082811 0.00841712 0.00854728 0.0086716 0.00879005 0.00890166 0.00900542 0.00910132 0.00918938 0.00926959 0.00934196 0.00940647 0.00946313 0.00951128 0.00955026 0.00958005 0.00960067 0.00961211 0.00961438 0.00960746 0.00959137 0.00956592 0.00953093 0.00948639 0.00943231 0.00936869 0.00929552 0.00921281 0.00912056 0.00901917 0.00890906 0.00879022 0.00866264 0.00852635 0.00838132 0.00822756 0.00806508 0.00789492 0.00771812 0.00753469 0.00734463 0.00714794 0.00694461 0.00673465 0.00651806 0.00629651 0.00607167 0.00584353 0.00561211 0.00537739 0.00513938 0.00489809 0.0046535 0.00440781 0.0041632 0.00391968 0.00367725 0.0034359 0.00319564 0.00295646 0.00271837 0.00248185 0.0022474 0.00201502 0.0017847 0.00155645 0.00133026 0.00110614 0.000884089 0.00067688 0.0004973 0.000345347 0.000221022 0.000124325 5.52555e-05 1.38139e-05 0 0 9.37827e-06 3.75131e-05 8.44045e-05 0.000150052 0.000234457 0.000337618 0.000459535 0.000600209 0.000751857 0.000906696 0.00106473 0.00122595 0.00139036 0.00155796 0.00172876 0.00190274 0.00208015 0.00226122 0.00244594 0.00263433 0.00282637 0.00302206 0.00322142 0.00342443 0.00362994 0.00383679 0.00404498 0.00425451 0.00446538 0.00467758 0.00489113 0.00510602 0.00532098 0.00553476 0.00574735 0.00595876 0.00616898 0.00637801 0.00658586 0.00679253 0.0069967 0.00719706 0.00739361 0.00758635 0.00777529 0.00796042 0.00814174 0.00831925 0.00849169 0.00865778 0.00881754 0.00897095 0.00911803 0.00925876 0.00939315 0.0095212 0.00964183 0.00975397 0.00985761 0.00995276 0.0100394 0.0101176 0.0101872 0.0102484 0.0103004 0.0103424 0.0103745 0.0103967 0.0104089 0.0104112 0.0104036 0.0103861 0.0103584 0.0103204 0.0102721 0.0102135 0.0101445 0.0100653 0.00997568 0.00987577 0.00976598 0.00964675 0.00951809 0.00937998 0.00923244 0.00907546 0.00890904 0.00873319 0.00854903 0.00835769 0.00815918 0.0079535 0.00774065 0.00752062 0.00729342 0.00705904 0.0068193 0.00657599 0.00632911 0.00607867 0.00582466 0.00556708 0.00530594 0.00504124 0.00477533 0.00451058 0.00424699 0.00398455 0.00372328 0.00346317 0.00320421 0.00294642 0.0026903 0.00243637 0.00218463 0.00193507 0.00168771 0.00144255 0.00119957 0.000958776 0.000734063 0.000539312 0.000374522 0.000239694 0.000134828 5.99235e-05 1.49809e-05 0 0 1.01406e-05 4.05625e-05 9.12657e-05 0.00016225 0.000253516 0.000365063 0.000496891 0.000649 0.000812951 0.000980302 0.00115105 0.00132521 0.00150276 0.00168372 0.00186807 0.00205583 0.00224725 0.00244258 0.00264184 0.00284501 0.00305211 0.00326312 0.00347805 0.0036969 0.00391842 0.00414137 0.00436573 0.00459152 0.00481874 0.00504738 0.00527744 0.00550892 0.00574047 0.00597073 0.0061997 0.00642738 0.00665377 0.00687886 0.00710267 0.00732518 0.00754499 0.00776069 0.00797229 0.00817977 0.00838314 0.00858239 0.00877754 0.00896858 0.00915414 0.00933287 0.00950477 0.00966983 0.00982806 0.00997946 0.010124 0.0102617 0.0103915 0.0105121 0.0106235 0.0107258 0.010819 0.010903 0.0109778 0.0110435 0.0110993 0.0111444 0.0111788 0.0112025 0.0112155 0.0112179 0.0112096 0.0111905 0.0111606 0.0111196 0.0110674 0.0110042 0.0109298 0.0108444 0.0107478 0.0106402 0.0105219 0.0103934 0.0102548 0.010106 0.00994712 0.00977804 0.00959881 0.00940943 0.00921111 0.00900507 0.00879131 0.00856983 0.00834062 0.0081037 0.00785906 0.0076067 0.00734856 0.00708657 0.00682074 0.00655106 0.00627753 0.00600017 0.00571895 0.00543389 0.00514753 0.0048624 0.00457849 0.00429583 0.00401439 0.00373418 0.00345521 0.00317747 0.0029015 0.00262784 0.0023565 0.00208747 0.00182075 0.00155635 0.00129426 0.00103448 0.000792025 0.000581896 0.000404094 0.00025862 0.000145474 6.46551e-05 1.61638e-05 0 0 1.09162e-05 4.36647e-05 9.82456e-05 0.000174659 0.000272905 0.000392983 0.000534893 0.000698636 0.0008751 0.00105517 0.00123886 0.00142615 0.00161706 0.00181158 0.0020097 0.00221144 0.00241707 0.00262689 0.00284088 0.00305906 0.00328142 0.00350795 0.00373867 0.00397357 0.00421132 0.00445057 0.00469132 0.00493358 0.00517735 0.00542262 0.0056694 0.00591768 0.00616602 0.00641295 0.00665849 0.00690263 0.00714536 0.0073867 0.00762663 0.00786517 0.00810079 0.008332 0.00855879 0.00878116 0.00899911 0.00921265 0.00942176 0.00962646 0.00982528 0.0100168 0.0102009 0.0103777 0.0105472 0.0107094 0.0108642 0.0110117 0.0111506 0.0112797 0.011399 0.0115085 0.0116082 0.0116981 0.0117782 0.0118484 0.011908 0.0119562 0.0119929 0.0120182 0.012032 0.0120344 0.0120253 0.0120047 0.0119725 0.0119284 0.0118724 0.0118044 0.0117246 0.0116329 0.0115293 0.0114137 0.0112868 0.011149 0.0110004 0.0108408 0.0106704 0.0104891 0.0102969 0.0100938 0.00988117 0.00966025 0.00943107 0.00919361 0.00894787 0.00869387 0.00843159 0.00816104 0.00788429 0.00760342 0.00731841 0.00702928 0.00673602 0.00643863 0.00613711 0.00583147 0.00552441 0.00521866 0.00491421 0.00461106 0.00430922 0.00400868 0.00370945 0.00341152 0.00311546 0.00282183 0.00253064 0.00224188 0.00195556 0.00167167 0.00139022 0.0011112 0.000850765 0.000625052 0.000434064 0.000277801 0.000156263 6.94502e-05 1.73626e-05 0 0 1.17049e-05 4.68197e-05 0.000105344 0.000187279 0.000292623 0.000421378 0.000573542 0.000749116 0.000938304 0.00113131 0.00132814 0.00152879 0.00173325 0.00194154 0.00215365 0.00236957 0.00258963 0.00281413 0.00304307 0.00327646 0.00351429 0.00375657 0.00400329 0.00425446 0.00450863 0.0047644 0.00502175 0.00528069 0.00554121 0.00580332 0.00606702 0.0063323 0.00659761 0.00686142 0.00712371 0.00738449 0.00764376 0.00790152 0.00815776 0.00841249 0.0086641 0.00891098 0.00915312 0.00939054 0.00962322 0.00985117 0.0100744 0.0102929 0.0105051 0.0107095 0.010906 0.0110947 0.0112755 0.0114485 0.0116137 0.0117711 0.0119192 0.0120569 0.0121842 0.0123009 0.0124072 0.012503 0.0125883 0.0126632 0.0127266 0.0127779 0.0128169 0.0128437 0.0128583 0.0128607 0.0128508 0.0128287 0.0127941 0.0127468 0.0126869 0.0126142