<?xml version="1.0"?> 
<VTKFile type="StructuredGrid" version="0.1"> 
<StructuredGrid WholeExtent="0 128 0 128 0 0"> 
<Piece Extent="0 128 0 128 0 0"> 
<PointData>
<DataArray type="Float32" Name="u" format="ascii" NumberOfComponents="1"> 
0 0 0 0 0 0 0 0 0 0 0 0 0 0 0 0 0 0 0 0 0 0 0 0 0 0 0 0 0 0 0 0 0 0 0 0 0 0 0 0 0 0 0 0 0 0 0 0 0 0 0 0 0 0 0 0 0 0 0 0 0 0 0 0 0 0 0 0 0 0 0 0 0 0 0 0 0 0 0 0 0 0 0 0 0 0 0 0 0 0 0 0 0 0 0 0 0 0 0 0 0 0 0 0 0 0 0 0 0 0 0 0 0 0 0 0 0 0 0 0 0 0 0 0 0 0 0 0 0 0 -1.7288e-08 -6.91521e-08 -1.55592e-07 -2.76609e-07 -4.32201e-07 -6.22369e-07 -8.47114e-07 -1.10643e-06 -1.37083e-06 -1.61082e-06 -1.82639e-06 -2.01755e-06 -2.18429e-06 -2.32661e-06 -2.44452e-06 -2.53801e-06 -2.60121e-06 -2.62822e-06 -2.61905e-06 -2.57369e-06 -2.49215e-06 -2.37443e-06 -2.22052e-06 -2.03043e-06 -1.80104e-06 -1.52922e-06 -1.21498e-06 -8.58312e-07 -4.59223e-07 -1.77115e-08 4.66224e-07 9.92583e-07 1.5568e-06 2.15429e-06 2.78507e-06 3.44914e-06 4.14649e-06 4.87712e-06 5.64103e-06 6.43823e-06 7.25826e-06 8.09066e-06 8.93542e-06 9.79256e-06 1.06621e-05 1.15439e-05 1.24382e-05 1.33448e-05 1.42508e-05 1.51431e-05 1.60217e-05 1.68866e-05 1.77379e-05 1.85755e-05 1.93994e-05 2.02096e-05 2.09946e-05 2.17427e-05 2.2454e-05 2.31283e-05 2.37658e-05 2.43665e-05 2.49303e-05 2.54572e-05 2.59405e-05 2.63734e-05 2.67559e-05 2.7088e-05 2.73697e-05 2.76011e-05 2.7782e-05 2.79126e-05 2.79926e-05 2.80217e-05 2.8e-05 2.79275e-05 2.78042e-05 2.763e-05 2.74049e-05 2.71291e-05 2.68083e-05 2.64483e-05 2.60492e-05 2.5611e-05 2.51336e-05 2.46171e-05 2.40615e-05 2.34667e-05 2.28425e-05 2.21985e-05 2.15347e-05 2.08512e-05 2.01478e-05 1.94247e-05 1.86818e-05 1.79191e-05 1.71471e-05 1.63761e-05 1.56063e-05 1.48375e-05 1.40698e-05 1.33032e-05 1.25376e-05 1.17732e-05 1.1018e-05 1.02802e-05 9.55973e-06 8.85668e-06 8.17103e-06 7.50277e-06 6.85189e-06 6.2184e-06 5.6036e-06 5.00878e-06 4.43395e-06 3.87911e-06 3.34426e-06 2.82939e-06 2.33451e-06 1.85961e-06 1.42376e-06 1.04603e-06 7.2641e-07 4.64902e-07 2.61508e-07 1.16226e-07 2.90564e-08 0 0 -6.91521e-08 -2.76609e-07 -6.22369e-07 -1.10643e-06 -1.7288e-06 -2.48948e-06 -3.38845e-06 -4.42574e-06 -5.48334e-06 -6.44328e-06 -7.30556e-06 -8.07018e-06 -8.73714e-06 -9.30644e-06 -9.77808e-06 -1.01521e-05 -1.04048e-05 -1.05129e-05 -1.04762e-05 -1.02948e-05 -9.9686e-06 -9.4977e-06 -8.88208e-06 -8.12172e-06 -7.20414e-06 -6.11687e-06 -4.85991e-06 -3.43325e-06 -1.83689e-06 -7.0846e-08 1.8649e-06 3.97033e-06 6.22719e-06 8.61717e-06 1.11403e-05 1.37966e-05 1.65859e-05 1.95085e-05 2.25641e-05 2.57529e-05 2.9033e-05 3.23626e-05 3.57417e-05 3.91702e-05 4.26483e-05 4.61758e-05 4.97528e-05 5.33792e-05 5.70031e-05 6.05722e-05 6.40867e-05 6.75465e-05 7.09515e-05 7.43019e-05 7.75976e-05 8.08386e-05 8.39784e-05 8.69709e-05 8.98158e-05 9.25133e-05 9.50634e-05 9.74659e-05 9.9721e-05 0.000101829 0.000103762 0.000105493 0.000107023 0.000108352 0.000109479 0.000110404 0.000111128 0.00011165 0.00011197 0.000112087 0.000112 0.00011171 0.000111217 0.00011052 0.00010962 0.000108516 0.000107233 0.000105793 0.000104197 0.000102444 0.000100534 9.84685e-05 9.6246e-05 9.38669e-05 9.13701e-05 8.87941e-05 8.6139e-05 8.34047e-05 8.05914e-05 7.76988e-05 7.47272e-05 7.16764e-05 6.85883e-05 6.55045e-05 6.2425e-05 5.93499e-05 5.62791e-05 5.32126e-05 5.01505e-05 4.70927e-05 4.40719e-05 4.11206e-05 3.82389e-05 3.54267e-05 3.26841e-05 3.00111e-05 2.74076e-05 2.48736e-05 2.24144e-05 2.00351e-05 1.77358e-05 1.55164e-05 1.3377e-05 1.13176e-05 9.33802e-06 7.43844e-06 5.69505e-06 4.18412e-06 2.90564e-06 1.85961e-06 1.04603e-06 4.64902e-07 1.16226e-07 0 0 -1.55592e-07 -6.22369e-07 -1.40033e-06 -2.48948e-06 -3.88981e-06 -5.60132e-06 -7.62402e-06 -9.95791e-06 -1.23375e-05 -1.44974e-05 -1.64375e-05 -1.81579e-05 -1.96586e-05 -2.09395e-05 -2.20007e-05 -2.28421e-05 -2.34109e-05 -2.3654e-05 -2.35714e-05 -2.31632e-05 -2.24293e-05 -2.13698e-05 -1.99847e-05 -1.82739e-05 -1.62093e-05 -1.3763e-05 -1.09348e-05 -7.72481e-06 -4.13301e-06 -1.59404e-07 4.19602e-06 8.93325e-06 1.40112e-05 1.93886e-05 2.50657e-05 3.10422e-05 3.73184e-05 4.38941e-05 5.07693e-05 5.79441e-05 6.53243e-05 7.28159e-05 8.04188e-05 8.8133e-05 9.59586e-05 0.000103895 0.000111944 0.000120103 0.000128257 0.000136288 0.000144195 0.00015198 0.000159641 0.000167179 0.000174595 0.000181887 0.000188952 0.000195684 0.000202086 0.000208155 0.000213893 0.000219298 0.000224372 0.000229115 0.000233464 0.00023736 0.000240803 0.000243792 0.000246328 0.00024841 0.000250038 0.000251214 0.000251933 0.000252196 0.000252 0.000251348 0.000250237 0.00024867 0.000246645 0.000244162 0.000241274 0.000238035 0.000234443 0.000230499 0.000226203 0.000221554 0.000216553 0.000211201 0.000205583 0.000199787 0.000193813 0.000187661 0.000181331 0.000174822 0.000168136 0.000161272 0.000154324 0.000147385 0.000140456 0.000133537 0.000126628 0.000119728 0.000112839 0.000105959 9.91618e-05 9.25214e-05 8.60375e-05 7.97102e-05 7.35393e-05 6.75249e-05 6.1667e-05 5.59656e-05 5.04324e-05 4.5079e-05 3.99056e-05 3.4912e-05 3.00983e-05 2.54645e-05 2.10105e-05 1.67365e-05 1.28139e-05 9.41427e-06 6.53769e-06 4.18412e-06 2.35357e-06 1.04603e-06 2.61508e-07 0 0 -2.76609e-07 -1.10643e-06 -2.48948e-06 -4.42574e-06 -6.91521e-06 -9.95791e-06 -1.35538e-05 -1.77029e-05 -2.19334e-05 -2.57731e-05 -2.92223e-05 -3.22807e-05 -3.49486e-05 -3.72258e-05 -3.91123e-05 -4.06082e-05 -4.16193e-05 -4.20515e-05 -4.19047e-05 -4.1179e-05 -3.98744e-05 -3.79908e-05 -3.55283e-05 -3.24869e-05 -2.88166e-05 -2.44675e-05 -1.94396e-05 -1.3733e-05 -7.34758e-06 -2.83384e-07 7.45959e-06 1.58813e-05 2.49087e-05 3.44687e-05 4.45612e-05 5.51862e-05 6.63438e-05 7.80339e-05 9.02565e-05 0.000103012 0.000116132 0.00012945 0.000142967 0.000156681 0.000170593 0.000184703 0.000199011 0.000213517 0.000228012 0.000242289 0.000256347 0.000270186 0.000283806 0.000297208 0.00031039 0.000323354 0.000335914 0.000347883 0.000359263 0.000370053 0.000380253 0.000389864 0.000398884 0.000407315 0.000415047 0.000421974 0.000428094 0.000433408 0.000437916 0.000441617 0.000444513 0.000446602 0.000447881 0.000448348 0.000448001 0.00044684 0.000444866 0.000442079 0.000438479 0.000434066 0.000428932 0.000423173 0.000416787 0.000409776 0.000402138 0.000393874 0.000384984 0.000375468 0.00036548 0.000355176 0.000344556 0.000333619 0.000322365 0.000310795 0.000298909 0.000286706 0.000274353 0.000262018 0.0002497 0.000237399 0.000225116 0.00021285 0.000200602 0.000188371 0.000176288 0.000164483 0.000152956 0.000141707 0.000130736 0.000120044 0.00010963 9.94944e-05 8.96576e-05 8.01405e-05 7.09433e-05 6.20658e-05 5.35081e-05 4.52702e-05 3.73521e-05 2.97538e-05 2.27802e-05 1.67365e-05 1.16226e-05 7.43844e-06 4.18412e-06 1.85961e-06 4.64902e-07 0 0 -4.32201e-07 -1.7288e-06 -3.88981e-06 -6.91521e-06 -1.0805e-05 -1.55592e-05 -2.11778e-05 -2.76609e-05 -3.42709e-05 -4.02705e-05 -4.56598e-05 -5.04386e-05 -5.46071e-05 -5.81652e-05 -6.1113e-05 -6.34503e-05 -6.50302e-05 -6.57054e-05 -6.54761e-05 -6.43422e-05 -6.23037e-05 -5.93606e-05 -5.5513e-05 -5.07607e-05 -4.50259e-05 -3.82304e-05 -3.03744e-05 -2.14578e-05 -1.14806e-05 -4.42788e-07 1.16556e-05 2.48146e-05 3.89199e-05 5.38573e-05 6.96268e-05 8.62284e-05 0.000103662 0.000121928 0.000141026 0.000160956 0.000181456 0.000202266 0.000223386 0.000244814 0.000266552 0.000288599 0.000310955 0.00033362 0.000356269 0.000378577 0.000400542 0.000422165 0.000443447 0.000464387 0.000484985 0.000505241 0.000524865 0.000543568 0.000561349 0.000578208 0.000594146 0.000609162 0.000623257 0.000636429 0.000648511 0.000659334 0.000668897 0.0006772 0.000684243 0.000690027 0.000694551 0.000697815 0.000699815 0.000700543 0.000700001 0.000698188 0.000695104 0.000690749 0.000685124 0.000678227 0.000670207 0.000661208 0.00065123 0.000640274 0.00062834 0.000615428 0.000601537 0.000586668 0.000571063 0.000554963 0.000538369 0.00052128 0.000503696 0.000485618 0.000467045 0.000447978 0.000428677 0.000409403 0.000390156 0.000370937 0.000351744 0.000332579 0.000313441 0.00029433 0.000275449 0.000257004 0.000238993 0.000221417 0.000204276 0.000187569 0.000171297 0.00015546 0.00014009 0.00012522 0.000110849 9.69778e-05 8.36064e-05 7.07347e-05 5.83626e-05 4.64902e-05 3.55941e-05 2.61508e-05 1.81602e-05 1.16226e-05 6.53769e-06 2.90564e-06 7.2641e-07 0 0 -6.22369e-07 -2.48948e-06 -5.60132e-06 -9.95791e-06 -1.55592e-05 -2.24053e-05 -3.04961e-05 -3.98316e-05 -4.93501e-05 -5.79895e-05 -6.57501e-05 -7.26316e-05 -7.86343e-05 -8.37579e-05 -8.80027e-05 -9.13685e-05 -9.36434e-05 -9.46158e-05 -9.42856e-05 -9.26528e-05 -8.97174e-05 -8.54793e-05 -7.99387e-05 -7.30954e-05 -6.48373e-05 -5.50518e-05 -4.37392e-05 -3.08992e-05 -1.6532e-05 -6.37614e-07 1.67841e-05 3.5733e-05 5.60447e-05 7.75545e-05 0.000100263 0.000124169 0.000149273 0.000175576 0.000203077 0.000231776 0.000261297 0.000291264 0.000321675 0.000352532 0.000383834 0.000415582 0.000447775 0.000480413 0.000513028 0.00054515 0.00057678 0.000607918 0.000638564 0.000668717 0.000698378 0.000727547 0.000755806 0.000782738 0.000808343 0.00083262 0.00085557 0.000877193 0.000897489 0.000916458 0.000933856 0.000949441 0.000963211 0.000975168 0.00098531 0.000993639 0.00100015 0.00100485 0.00100773 0.00100878 0.001008 0.00100539 0.00100095 0.000994679 0.000986578 0.000976648 0.000965098 0.000952139 0.000937771 0.000921995 0.00090481 0.000886216 0.000866214 0.000844803 0.000822331 0.000799147 0.000775251 0.000750643 0.000725322 0.00069929 0.000672545 0.000645088 0.000617295 0.00058954 0.000561825 0.000534149 0.000506512 0.000478914 0.000451355 0.000423835 0.000396647 0.000370086 0.00034415 0.000318841 0.000294157 0.0002701 0.000246668 0.000223862 0.000201729 0.000180316 0.000159622 0.000139648 0.000120393 0.000101858 8.40422e-05 6.69459e-05 5.12555e-05 3.76571e-05 2.61508e-05 1.67365e-05 9.41427e-06 4.18412e-06 1.04603e-06 0 0 -8.47114e-07 -3.38845e-06 -7.62402e-06 -1.35538e-05 -2.11778e-05 -3.04961e-05 -4.15086e-05 -5.42153e-05 -6.71709e-05 -7.89302e-05 -8.94931e-05 -9.88597e-05 -0.00010703 -0.000114004 -0.000119781 -0.000124363 -0.000127459 -0.000128783 -0.000128333 -0.000126111 -0.000122115 -0.000116347 -0.000108805 -9.9491e-05 -8.82507e-05 -7.49317e-05 -5.95339e-05 -4.20573e-05 -2.2502e-05 -8.67864e-07 2.2845e-05 4.86366e-05 7.6283e-05 0.00010556 0.000136469 0.000169008 0.000203178 0.000238979 0.000276411 0.000315473 0.000355655 0.000396442 0.000437836 0.000479835 0.000522441 0.000565653 0.000609471 0.000653896 0.000698288 0.00074201 0.000785062 0.000827444 0.000869156 0.000910198 0.00095057 0.000990272 0.00102874 0.00106539 0.00110024 0.00113329 0.00116453 0.00119396 0.00122158 0.0012474 0.00127108 0.00129229 0.00131104 0.00132731 0.00134112 0.00135245 0.00136132 0.00136772 0.00137164 0.00137306 0.001372 0.00136845 0.0013624 0.00135387 0.00134284 0.00132933 0.00131361 0.00129597 0.00127641 0.00125494 0.00123155 0.00120624 0.00117901 0.00114987 0.00111928 0.00108773 0.0010552 0.00102171 0.000987244 0.000951811 0.000915408 0.000878036 0.000840207 0.00080243 0.000764706 0.000727036 0.000689419 0.000651855 0.000614344 0.000576886 0.000539881 0.000503728 0.000468427 0.000433978 0.000400381 0.000367635 0.000335743 0.000304702 0.000274576 0.00024543 0.000217264 0.000190076 0.000163869 0.00013864 0.000114391 9.11209e-05 6.97644e-05 5.12555e-05 3.55941e-05 2.27802e-05 1.28139e-05 5.69505e-06 1.42376e-06 0 0 -1.10643e-06 -4.42574e-06 -9.95791e-06 -1.77029e-05 -2.76609e-05 -3.98316e-05 -5.42153e-05 -7.08118e-05 -8.77334e-05 -0.000103093 -0.000116889 -0.000129123 -0.000139794 -0.000148903 -0.000156449 -0.000162433 -0.000166477 -0.000168206 -0.000167619 -0.000164716 -0.000159498 -0.000151963 -0.000142113 -0.000129947 -0.000115266 -9.78699e-05 -7.77585e-05 -5.4932e-05 -2.93903e-05 -1.13354e-06 2.98383e-05 6.35253e-05 9.9635e-05 0.000137875 0.000178245 0.000220745 0.000265375 0.000312136 0.000361026 0.000412047 0.000464529 0.000517802 0.000571867 0.000626724 0.000682372 0.000738812 0.000796044 0.000854068 0.000912049 0.000969156 0.00102539 0.00108074 0.00113522 0.00118883 0.00124156 0.00129342 0.00134366 0.00139153 0.00143705 0.00148021 0.00152101 0.00155945 0.00159554 0.00162926 0.00166019 0.00168789 0.00171238 0.00173363 0.00175166 0.00176647 0.00177805 0.00178641 0.00179153 0.00179339 0.001792 0.00178736 0.00177947 0.00176832 0.00175392 0.00173626 0.00171573 0.00169269 0.00166715 0.0016391 0.00160855 0.0015755 0.00153994 0.00150187 0.00146192 0.00142071 0.00137822 0.00133448 0.00128946 0.00124318 0.00119564 0.00114682 0.00109741 0.00104807 0.0009988 0.000949598 0.000900465 0.000851402 0.000802408 0.000753484 0.00070515 0.00065793 0.000611822 0.000566828 0.000522946 0.000480177 0.000438521 0.000397978 0.00035863 0.000320562 0.000283773 0.000248263 0.000214032 0.000181081 0.000149408 0.000119015 9.11209e-05 6.69459e-05 4.64902e-05 2.97538e-05 1.67365e-05 7.43844e-06 1.85961e-06 0 0 -1.37215e-06 -5.48859e-06 -1.23493e-05 -2.19544e-05 -3.43037e-05 -4.93973e-05 -6.72352e-05 -8.78174e-05 -0.000108794 -0.000127816 -0.000144884 -0.000159996 -0.000173154 -0.000184356 -0.000193604 -0.000200897 -0.000205764 -0.000207734 -0.000206806 -0.000202982 -0.00019626 -0.000186641 -0.000174125 -0.000158712 -0.000140153 -0.0001182 -9.28521e-05 -6.411e-05 -3.19736e-05 3.55726e-06 4.24825e-05 8.48021e-05 0.00013015 0.000178158 0.000228829 0.00028216 0.000338153 0.000396808 0.000458124 0.000522101 0.000587902 0.000654689 0.000722463 0.000791223 0.000860969 0.000931702 0.00100342 0.00107613 0.00114877 0.00122032 0.00129077 0.00136012 0.00142837 0.00149552 0.00156158 0.00162653 0.00168945 0.00174942 0.00180643 0.00186048 0.00191158 0.00195972 0.0020049 0.00204713 0.00208586 0.00212054 0.00215119 0.0021778 0.00220036 0.00221889 0.00223338 0.00224382 0.00225021 0.00225252 0.00225076 0.00224492 0.002235 0.00222101 0.00220294 0.00218079 0.00215504 0.00212614 0.0020941 0.00205893 0.00202061 0.00197916 0.00193456 0.00188682 0.00183672 0.00178503 0.00173174 0.00167687 0.0016204 0.00156235 0.0015027 0.00144146 0.00137947 0.00131755 0.00125572 0.00119397 0.0011323 0.00107071 0.0010092 0.000947777 0.000887085 0.000827782 0.000769868 0.000713344 0.000658208 0.000604462 0.000552105 0.000501137 0.000451662 0.000403782 0.000357499 0.000312811 0.00026972 0.000228225 0.000188325 0.000150022 0.00011486 8.43872e-05 5.86022e-05 3.75054e-05 2.10968e-05 9.37636e-06 2.34409e-06 0 0 -1.61607e-06 -6.46427e-06 -1.45446e-05 -2.58571e-05 -4.04017e-05 -5.81785e-05 -7.91874e-05 -0.000103428 -0.00012811 -0.000150442 -0.000170423 -0.000188054 -0.000203334 -0.000216264 -0.000226844 -0.000235073 -0.000240386 -0.000242214 -0.00024056 -0.000235421 -0.000226799 -0.000214694 -0.000199105 -0.000180032 -0.000157181 -0.000130255 -9.92538e-05 -6.41783e-05 -2.50283e-05 1.81964e-05 6.54957e-05 0.00011687 0.000171876 0.000230072 0.000291458 0.000356034 0.000423801 0.000494757 0.000568903 0.000646239 0.000725758 0.00080645 0.000888317 0.000971358 0.00105557 0.00114096 0.00122753 0.00131527 0.00140292 0.00148925 0.00157424 0.00165789 0.00174021 0.00182119 0.00190084 0.00197916 0.00205502 0.00212731 0.00219603 0.00226119 0.00232277 0.00238079 0.00243523 0.00248611 0.00253276 0.00257454 0.00261145 0.00264348 0.00267064 0.00269292 0.00271033 0.00272287 0.00273051 0.00273323 0.00273103 0.00272391 0.00271187 0.00269492 0.00267304 0.00264624 0.00261509 0.00258014 0.0025414 0.00249886 0.00245252 0.00240239 0.00234847 0.00229075 0.00223016 0.00216764 0.00210319 0.00203681 0.0019685 0.00189825 0.00182607 0.00175196 0.00167692 0.00160197 0.00152709 0.00145229 0.00137758 0.00130294 0.00122839 0.00115392 0.00108031 0.00100837 0.000938095 0.000869478 0.000802523 0.000737229 0.000673597 0.000611627 0.000551441 0.000493162 0.00043679 0.000382325 0.000329767 0.000279116 0.000230371 0.000183534 0.000140518 0.000103238 7.16931e-05 4.58836e-05 2.58095e-05 1.14709e-05 2.86772e-06 0 0 -1.8382e-06 -7.3528e-06 -1.65438e-05 -2.94112e-05 -4.5955e-05 -6.61752e-05 -9.00717e-05 -0.000117645 -0.000145681 -0.000170969 -0.000193507 -0.000213296 -0.000230336 -0.000244627 -0.000256169 -0.000264962 -0.000270342 -0.000271648 -0.000268878 -0.000262034 -0.000251115 -0.000236121 -0.000217052 -0.000193908 -0.000166349 -0.000134034 -9.69634e-05 -5.51368e-05 -8.55432e-06 4.27839e-05 9.8878e-05 0.000159728 0.000224814 0.000293616 0.000366133 0.000442367 0.000522317 0.000605983 0.000693364 0.000784462 0.000878096 0.000973085 0.00106943 0.00116713 0.00126619 0.0013666 0.00146837 0.00157149 0.0016745 0.00177593 0.00187578 0.00197404 0.00207073 0.00216583 0.00225936 0.0023513 0.00244035 0.00252521 0.00260586 0.00268233 0.00275459 0.00282265 0.00288652 0.00294619 0.0030009 0.00304989 0.00309314 0.00313068 0.00316248 0.00318856 0.00320891 0.00322354 0.00323242 0.00323551 0.00323282 0.00322434 0.00321009 0.00319005 0.00316423 0.00313262 0.00309589 0.00305469 0.00300903 0.00295889 0.00290428 0.0028452 0.00278165 0.00271364 0.00264224 0.00256855 0.00249257 0.0024143 0.00233374 0.00225089 0.00216575 0.00207832 0.00198978 0.00190131 0.0018129 0.00172456 0.0016363 0.0015481 0.00145996 0.0013719 0.00128484 0.0011997 0.0011165 0.00103523 0.000955888 0.000878477 0.000802996 0.000729446 0.000657967 0.0005887 0.000521645 0.000456803 0.000394172 0.000333754 0.000275547 0.000219553 0.000168095 0.000123499 8.57629e-05 5.48882e-05 3.08746e-05 1.37221e-05 3.43051e-06 0 0 -2.03854e-06 -8.15415e-06 -1.83468e-05 -3.26166e-05 -5.09634e-05 -7.33874e-05 -9.98884e-05 -0.000130466 -0.000161507 -0.000189397 -0.000214136 -0.000235724 -0.00025416 -0.000269445 -0.000281579 -0.000290562 -0.000295633 -0.000296034 -0.000291763 -0.000282821 -0.000269208 -0.000250923 -0.000227967 -0.00020034 -0.000167658 -0.000129539 -8.59811e-05 -3.69854e-05 1.74482e-05 7.73198e-05 0.000142629 0.000213377 0.000288963 0.000368789 0.000452854 0.000541158 0.000633702 0.000730485 0.000831508 0.00093677 0.00104492 0.00115459 0.0012658 0.00137854 0.00149281 0.00160861 0.00172593 0.00184479 0.0019635 0.00208037 0.00219539 0.00230858 0.00241994 0.00252945 0.00263712 0.00274296 0.00284545 0.00294311 0.00303592 0.0031239 0.00320703 0.00328532 0.00335878 0.00342739 0.00349028 0.00354658 0.00359628 0.00363939 0.0036759 0.00370581 0.00372912 0.00374584 0.00375593 0.00375936 0.00375611 0.00374621 0.00372964 0.0037064 0.0036765 0.00363993 0.00359745 0.0035498 0.00349699 0.00343902 0.00337588 0.00330758 0.00323412 0.0031555 0.00307296 0.00298775 0.00289988 0.00280934 0.00271614 0.00262028 0.00252174 0.00242055 0.00231804 0.00221558 0.00211316 0.00201078 0.00190845 0.00180617 0.00170393 0.00160173 0.00150066 0.00140178 0.00130509 0.0012106 0.00111831 0.00102821 0.000940304 0.000854596 0.000771241 0.000690398 0.000612066 0.000536246 0.000462937 0.000392139 0.000323852 0.000258077 0.000197591 0.000145169 0.000100811 6.45193e-05 3.62921e-05 1.61298e-05 4.03246e-06 0 0 -2.21709e-06 -8.86834e-06 -1.99538e-05 -3.54734e-05 -5.54271e-05 -7.98151e-05 -0.000108637 -0.000141893 -0.000175589 -0.000205727 -0.00023231 -0.000255335 -0.000274805 -0.000290718 -0.000303074 -0.000311874 -0.00031626 -0.000315373 -0.000309213 -0.000297781 -0.000281076 -0.000259099 -0.00023185 -0.000199327 -0.000161108 -0.000116768 -6.63067e-05 -9.72427e-06 5.29793e-05 0.000121804 0.00019675 0.000277817 0.000364325 0.000455592 0.00055162 0.000652408 0.000757956 0.000868265 0.000983333 0.00110316 0.00122622 0.00135098 0.00147743 0.00160558 0.00173544 0.00186699 0.00200023 0.00213518 0.00226993 0.00240256 0.00253309 0.00266151 0.00278783 0.00291204 0.00303414 0.00315413 0.00327032 0.00338101 0.00348621 0.0035859 0.0036801 0.0037688 0.003852 0.0039297 0.0040009 0.00406463 0.00412086 0.00416962 0.00421088 0.00424467 0.00427096 0.00428978 0.00430106 0.00430478 0.00430093 0.00428951 0.00427052 0.00424397 0.00420985 0.00416816 0.00411975 0.00406546 0.00400529 0.00393925 0.00386733 0.00378954 0.00370587 0.00361632 0.00352231 0.00342524 0.00332512 0.00322193 0.00311569 0.0030064 0.00289404 0.00277863 0.0026617 0.00254477 0.00242786 0.00231095 0.00219405 0.00207716 0.00196028 0.00184341 0.00172777 0.00161459 0.00150386 0.00139559 0.00128978 0.00118642 0.00108552 0.000987076 0.000891263 0.000798255 0.000708052 0.000620654 0.00053606 0.000454271 0.000375287 0.000299108 0.000229004 0.000168248 0.000116839 7.47769e-05 4.2062e-05 1.86942e-05 4.67356e-06 0 0 -2.37384e-06 -9.49537e-06 -2.13646e-05 -3.79815e-05 -5.93461e-05 -8.54583e-05 -0.000116318 -0.000151926 -0.000187925 -0.000219959 -0.000248028 -0.000272132 -0.000292271 -0.000308445 -0.000320654 -0.000328899 -0.000332221 -0.000329664 -0.000321229 -0.000306915 -0.000286722 -0.00026065 -0.0002287 -0.00019087 -0.000146699 -9.57223e-05 -3.79404e-05 2.66467e-05 9.80391e-05 0.000176237 0.00026124 0.000353048 0.000450898 0.000554026 0.000662432 0.000776117 0.00089508 0.00101932 0.00114884 0.00128364 0.001422 0.00156223 0.00170432 0.00184826 0.00199407 0.00214174 0.00229127 0.00244265 0.00259378 0.00274251 0.00288886 0.00303283 0.00317441 0.0033136 0.0034504 0.00358482 0.00371496 0.00383893 0.00395672 0.00406834 0.00417379 0.00427307 0.00436618 0.00445311 0.00453276 0.00460402 0.00466689 0.00472136 0.00476744 0.00480513 0.00483443 0.00485533 0.0048678 0.00487177 0.00486725 0.00485425 0.00483275 0.00480276 0.00476428 0.00471731 0.00466279 0.00460167 0.00453393 0.00445959 0.00437863 0.00429107 0.0041969 0.00409612 0.00399031 0.00388103 0.00376828 0.00365207 0.0035324 0.00340926 0.00328265 0.00315258 0.00302076 0.0028889 0.002757 0.00262507 0.00249309 0.00236108 0.00222902 0.00209693 0.00196618 0.00183813 0.00171281 0.0015902 0.0014703 0.00135311 0.00123864 0.00112689 0.00101803 0.000912272 0.000809603 0.000710027 0.000613543 0.000520151 0.000429851 0.000342644 0.000262337 0.000192737 0.000133845 8.5661e-05 4.81843e-05 2.14153e-05 5.35381e-06 0 0 -2.50881e-06 -1.00352e-05 -2.25793e-05 -4.01409e-05 -6.27202e-05 -9.03171e-05 -0.000122932 -0.000160564 -0.000198516 -0.000232092 -0.000261291 -0.000286113 -0.000306559 -0.000322628 -0.00033432 -0.000341635 -0.000343517 -0.000338909 -0.00032781 -0.000310222 -0.000286144 -0.000255576 -0.000218517 -0.000174969 -0.00012443 -6.64014e-05 -8.82108e-07 7.21275e-05 0.000152627 0.000240618 0.000336098 0.000439069 0.000548682 0.000664089 0.000785289 0.000912284 0.00104507 0.00118365 0.00132803 0.0014782 0.00163227 0.00178836 0.00194646 0.00210658 0.00226872 0.00243286 0.00259903 0.0027672 0.00293505 0.00310022 0.00326271 0.00342253 0.00357967 0.00373413 0.00388592 0.00403502 0.00417936 0.00431684 0.00444746 0.00457122 0.00468811 0.00479815 0.00490132 0.00499763 0.00508586 0.00516476 0.00523435 0.00529462 0.00534557 0.00538721 0.00541952 0.00544252 0.00545615 0.00546034 0.00545509 0.00544042 0.00541631 0.00538277 0.0053398 0.00528739 0.00522659 0.00515843 0.00508291 0.00500002 0.00490978 0.00481218 0.00470721 0.00459489 0.00447694 0.0043551 0.00422938 0.00409976 0.00396625 0.00382886 0.00368757 0.00354239 0.00339523 0.00324796 0.00310059 0.00295313 0.00280557 0.00265791 0.00251015 0.0023623 0.00221588 0.00207242 0.00193194 0.00179442 0.00165987 0.00152829 0.00139967 0.00127403 0.00115155 0.00103245 0.000916719 0.000804364 0.000695384 0.000589777 0.000487545 0.000388686 0.000297588 0.000218636 0.000151831 9.71716e-05 5.4659e-05 2.42929e-05 6.07322e-06 0 0 -2.62198e-06 -1.04879e-05 -2.35978e-05 -4.19517e-05 -6.55495e-05 -9.43913e-05 -0.000128477 -0.000167807 -0.000207363 -0.000242127 -0.000272099 -0.000297279 -0.000317668 -0.000333265 -0.00034407 -0.000350083 -0.000350148 -0.000343106 -0.000328958 -0.000307703 -0.000279343 -0.000243876 -0.000201303 -0.000151623 -9.43024e-05 -2.88053e-05 4.48682e-05 0.000126718 0.000216744 0.000314947 0.000421326 0.000535882 0.000657679 0.000785782 0.000920192 0.00106091 0.00120793 0.00136126 0.0015209 0.00168684 0.00185702 0.00202936 0.00220387 0.00238054 0.00255937 0.00274036 0.00292352 0.00310884 0.00329375 0.00347569 0.00365464 0.00383062 0.00400362 0.00417364 0.00434068 0.00450474 0.00466354 0.00481476 0.00495842 0.00509452 0.00522305 0.00534402 0.00545743 0.00556326 0.00566019 0.00574685 0.00582326 0.0058894 0.00594527 0.00599089 0.00602625 0.00605134 0.0060661 0.00607047 0.00606445 0.00604803 0.00602121 0.005984 0.0059364 0.0058784 0.00581114 0.00573574 0.00565222 0.00556056 0.00546077 0.00535286 0.00523681 0.00511263 0.00498221 0.00484747 0.0047084 0.00456499 0.00441726 0.00426519 0.0041088 0.00394807 0.00378509 0.00362194 0.00345863 0.00329514 0.00313149 0.00296766 0.00280367 0.00263951 0.00247687 0.00231745 0.00216125 0.00200826 0.0018585 0.00171194 0.00156861 0.0014285 0.00129181 0.00115878 0.0010294 0.000903667 0.000781584 0.000663151 0.000548368 0.000437235 0.000334758 0.000245944 0.000170795 0.000109309 6.14861e-05 2.73272e-05 6.83179e-06 0 0 -2.70897e-06 -1.08359e-05 -2.43808e-05 -4.33436e-05 -6.77244e-05 -9.75231e-05 -0.00013274 -0.000173374 -0.000214113 -0.00024964 -0.000279957 -0.000305063 -0.000324958 -0.000339643 -0.000349117 -0.00035338 -0.000351174 -0.000341239 -0.000323574 -0.000298181 -0.000265059 -0.000224207 -0.000175627 -0.000119318 -5.47126e-05 1.87574e-05 0.000101092 0.000192291 0.000292354 0.000401281 0.000519073 0.000645729 0.000780226 0.00092154 0.00106967 0.00122462 0.00138638 0.00155496 0.00173036 0.00191258 0.00209935 0.00228843 0.00247982 0.0026735 0.00286949 0.00306779 0.00326838 0.00347128 0.00367369 0.0038728 0.00406862 0.00426114 0.00445037 0.00463631 0.00481895 0.0049983 0.00517186 0.00533713 0.00549411 0.00564281 0.00578322 0.00591534 0.00603917 0.00615472 0.0062605 0.00635506 0.00643839 0.00651049 0.00657136 0.006621 0.00665942 0.0066866 0.00670248 0.00670698 0.0067001 0.00668183 0.00665218 0.00661115 0.00655874 0.00649495 0.006421 0.00633812 0.00624633 0.0061456 0.00603595 0.00591737 0.00578987 0.00565344 0.00551015 0.00536207 0.0052092 0.00505153 0.00488907 0.00472182 0.00454978 0.00437294 0.00419359 0.00401397 0.00383411 0.00365399 0.00347361 0.00329298 0.0031121 0.00293096 0.00275143 0.00257536 0.00240275 0.00223361 0.00206793 0.00190572 0.00174697 0.00159169 0.00144009 0.00129242 0.00114867 0.00100884 0.000872934 0.000740947 0.000612881 0.000488736 0.000374189 0.000274914 0.000190913 0.000122184 6.87285e-05 3.0546e-05 7.63651e-06 0 0 -2.76539e-06 -1.10616e-05 -2.48886e-05 -4.42463e-05 -6.91349e-05 -9.95542e-05 -0.000135504 -0.000176985 -0.000218415 -0.00025421 -0.000284371 -0.000308897 -0.00032779 -0.000341048 -0.000348673 -0.000350663 -0.000345656 -0.00033229 -0.000310564 -0.000280478 -0.000242033 -0.000195228 -0.000140064 -7.65398e-05 -4.05838e-06 7.79782e-05 0.00016957 0.000270717 0.000381419 0.000501677 0.000631489 0.000770857 0.000918665 0.0010738 0.00123625 0.00140604 0.00158314 0.00176757 0.00195933 0.00215841 0.00236237 0.00256876 0.00277759 0.00298886 0.00320256 0.00341869 0.00363726 0.00385826 0.00407867 0.00429546 0.00450861 0.00471815 0.00492405 0.00512633 0.00532499 0.00552002 0.00570872 0.00588839 0.00605903 0.00622063 0.00637319 0.00651673 0.00665123 0.00677669 0.00689153 0.00699414 0.00708453 0.0071627 0.00722864 0.00728236 0.00732386 0.00735313 0.00737009 0.00737465 0.00736682 0.00734658 0.00731395 0.00726891 0.00721148 0.00714165 0.00706074 0.00697009 0.00686969 0.00675953 0.00663963 0.00650998 0.00637058 0.00622143 0.00606477 0.00590283 0.00573561 0.00556312 0.00538535 0.00520229 0.00501397 0.00482036 0.00462394 0.00442716 0.00423003 0.00403254 0.00383469 0.0036365 0.00343794 0.00323904 0.00304181 0.00284828 0.00265846 0.00247235 0.00228995 0.00211126 0.00193627 0.00176499 0.00159766 0.00143451 0.00127556 0.0011208 0.000970223 0.000823839 0.000681644 0.00054364 0.000416224 0.000305797 0.000212359 0.00013591 7.64493e-05 3.39775e-05 8.49437e-06 0 0 -2.79124e-06 -1.1165e-05 -2.51212e-05 -4.46599e-05 -6.97811e-05 -0.000100485 -0.000136771 -0.00017864 -0.000220268 -0.000255835 -0.00028534 -0.000308782 -0.000326162 -0.000337481 -0.000342737 -0.00034193 -0.000333594 -0.000316259 -0.000289927 -0.000254595 -0.000210266 -0.000156938 -9.4612e-05 -2.32876e-05 5.76604e-05 0.000148857 0.000250303 0.000361997 0.000483941 0.000616133 0.000758574 0.000911264 0.00107299 0.00124255 0.00141994 0.00160516 0.00179821 0.00199909 0.0022078 0.00242434 0.00264607 0.00287036 0.0030972 0.0033266 0.00355856 0.00379308 0.00403015 0.00426978 0.0045087 0.00474365 0.00497463 0.00520163 0.00542466 0.00564371 0.0058588 0.00606991 0.00627413 0.00646855 0.00665316 0.00682797 0.00699299 0.00714819 0.0072936 0.0074292 0.00755328 0.00766411 0.00776169 0.00784603 0.00791712 0.00797497 0.00801957 0.00805092 0.00806893 0.00807349 0.00806461 0.00804228 0.00800651 0.00795729 0.00789462 0.00781851 0.00773037 0.00763164 0.0075223 0.00740237 0.00727183 0.00713069 0.00697895 0.00681661 0.00664608 0.00646976 0.00628765 0.00609976 0.00590608 0.00570661 0.00550136 0.00529031 0.00507614 0.0048615 0.00464639 0.0044308 0.00421474 0.00399821 0.00378121 0.00356374 0.00334801 0.00313622 0.00292838 0.00272449 0.00252455 0.00232855 0.0021365 0.0019484 0.0017645 0.00158505 0.00141006 0.00123953 0.00107345 0.000911827 0.000754658 0.000601944 0.000460864 0.000338594 0.000235134 0.000150486 8.46484e-05 3.76215e-05 9.40538e-06 0 0 -2.78652e-06 -1.11461e-05 -2.50787e-05 -4.45843e-05 -6.9663e-05 -0.000100315 -0.00013654 -0.000178337 -0.000219674 -0.000254517 -0.000282864 -0.000304717 -0.000320076 -0.00032894 -0.000331309 -0.000327183 -0.000314988 -0.000293148 -0.000261662 -0.000220532 -0.000169757 -0.000109337 -3.92718e-05 4.04383e-05 0.000130444 0.000231394 0.00034329 0.000466132 0.000599919 0.000744651 0.000900329 0.00106695 0.00124321 0.00142781 0.00162074 0.001822 0.00203159 0.00224951 0.00247577 0.00271036 0.00295045 0.00319321 0.00343864 0.00368674 0.00393751 0.00419095 0.00444706 0.00470583 0.00496378 0.00521739 0.00546666 0.00571159 0.00595219 0.00618845 0.00642037 0.00664795 0.00686807 0.00707759 0.00727652 0.00746485 0.00764259 0.00780973 0.00796628 0.00811223 0.00824574 0.00836495 0.00846987 0.00856048 0.0086368 0.00869883 0.00874655 0.00877998 0.008799 0.0088035 0.00879348 0.00876893 0.00872986 0.00867627 0.00860816 0.00852552 0.00842989 0.00832277 0.00820418 0.0080741 0.00793254 0.0077795 0.00761498 0.00743898 0.00725408 0.00706285 0.00686531 0.00666145 0.00645127 0.00623477 0.00601195 0.00578281 0.0055502