<?xml version="1.0"?> 
<VTKFile type="StructuredGrid" version="0.1"> 
<StructuredGrid WholeExtent="0 128 0 128 0 0"> 
<Piece Extent="0 128 0 128 0 0"> 
<PointData>
<DataArray type="Float32" Name="u" format="ascii" NumberOfComponents="1"> 
0 0 0 0 0 0 0 0 0 0 0 0 0 0 0 0 0 0 0 0 0 0 0 0 0 0 0 0 0 0 0 0 0 0 0 0 0 0 0 0 0 0 0 0 0 0 0 0 0 0 0 0 0 0 0 0 0 0 0 0 0 0 0 0 0 0 0 0 0 0 0 0 0 0 0 0 0 0 0 0 0 0 0 0 0 0 0 0 0 0 0 0 0 0 0 0 0 0 0 0 0 0 0 0 0 0 0 0 0 0 0 0 0 0 0 0 0 0 0 0 0 0 0 0 0 0 0 0 0 0 8.51739e-09 3.40696e-08 7.66566e-08 1.36278e-07 2.12935e-07 3.06626e-07 4.17352e-07 5.45113e-07 6.91359e-07 8.5754e-07 1.04366e-06 1.24971e-06 1.4757e-06 1.72162e-06 1.98747e-06 2.27327e-06 2.58262e-06 2.91918e-06 3.28292e-06 3.67387e-06 4.092e-06 4.53734e-06 5.00986e-06 5.50958e-06 6.03621e-06 6.58945e-06 7.1693e-06 7.77576e-06 8.40883e-06 9.06852e-06 9.75482e-06 1.04677e-05 1.12027e-05 1.19554e-05 1.27256e-05 1.35135e-05 1.43189e-05 1.5142e-05 1.59827e-05 1.6841e-05 1.77091e-05 1.85792e-05 1.94514e-05 2.03256e-05 2.12018e-05 2.20801e-05 2.29604e-05 2.38427e-05 2.47177e-05 2.5576e-05 2.64176e-05 2.72425e-05 2.80507e-05 2.88422e-05 2.9617e-05 3.03752e-05 3.11078e-05 3.18063e-05 3.24706e-05 3.31006e-05 3.36965e-05 3.42582e-05 3.47856e-05 3.52789e-05 3.57319e-05 3.61386e-05 3.64989e-05 3.68129e-05 3.70805e-05 3.73018e-05 3.74768e-05 3.76054e-05 3.76857e-05 3.77156e-05 3.76952e-05 3.76244e-05 3.75033e-05 3.73319e-05 3.71101e-05 3.6838e-05 3.65179e-05 3.61525e-05 3.57417e-05 3.52855e-05 3.47839e-05 3.42368e-05 3.36444e-05 3.30066e-05 3.23298e-05 3.16204e-05 3.08785e-05 3.01041e-05 2.92972e-05 2.84577e-05 2.75857e-05 2.66811e-05 2.57533e-05 2.48115e-05 2.38558e-05 2.28861e-05 2.19025e-05 2.09049e-05 1.98933e-05 1.88678e-05 1.78389e-05 1.68172e-05 1.58028e-05 1.47956e-05 1.37957e-05 1.2803e-05 1.18175e-05 1.08392e-05 9.8713e-06 8.91674e-06 7.97556e-06 7.04776e-06 6.13334e-06 5.2323e-06 4.34464e-06 3.47036e-06 2.657e-06 1.95208e-06 1.35561e-06 8.67591e-07 4.8802e-07 2.16898e-07 5.42244e-08 0 0 3.40696e-08 1.36278e-07 3.06626e-07 5.45113e-07 8.51739e-07 1.2265e-06 1.66941e-06 2.18045e-06 2.76544e-06 3.43016e-06 4.17463e-06 4.99883e-06 5.90278e-06 6.88647e-06 7.9499e-06 9.09307e-06 1.03305e-05 1.16767e-05 1.31317e-05 1.46955e-05 1.6368e-05 1.81493e-05 2.00394e-05 2.20383e-05 2.41448e-05 2.63578e-05 2.86772e-05 3.1103e-05 3.36353e-05 3.62741e-05 3.90193e-05 4.18709e-05 4.4811e-05 4.78215e-05 5.09025e-05 5.40539e-05 5.72757e-05 6.0568e-05 6.39307e-05 6.73638e-05 7.08363e-05 7.43168e-05 7.78055e-05 8.13023e-05 8.48072e-05 8.83203e-05 9.18415e-05 9.53708e-05 9.88708e-05 0.000102304 0.00010567 0.00010897 0.000112203 0.000115369 0.000118468 0.000121501 0.000124431 0.000127225 0.000129882 0.000132403 0.000134786 0.000137033 0.000139143 0.000141116 0.000142928 0.000144554 0.000145996 0.000147251 0.000148322 0.000149207 0.000149907 0.000150422 0.000150743 0.000150862 0.000150781 0.000150498 0.000150013 0.000149328 0.00014844 0.000147352 0.000146072 0.00014461 0.000142967 0.000141142 0.000139135 0.000136947 0.000134578 0.000132026 0.000129319 0.000126482 0.000123514 0.000120416 0.000117189 0.000113831 0.000110343 0.000106724 0.000103013 9.92462e-05 9.54233e-05 9.15445e-05 8.76099e-05 8.36195e-05 7.95732e-05 7.54711e-05 7.13555e-05 6.72689e-05 6.32112e-05 5.91825e-05 5.51827e-05 5.12118e-05 4.72699e-05 4.33569e-05 3.94852e-05 3.5667e-05 3.19022e-05 2.81911e-05 2.45334e-05 2.09292e-05 1.73786e-05 1.38815e-05 1.0628e-05 7.80832e-06 5.42244e-06 3.47036e-06 1.95208e-06 8.67591e-07 2.16898e-07 0 0 7.66566e-08 3.06626e-07 6.89909e-07 1.2265e-06 1.91641e-06 2.75964e-06 3.75617e-06 4.90602e-06 6.22223e-06 7.71786e-06 9.39291e-06 1.12474e-05 1.32813e-05 1.54946e-05 1.78873e-05 2.04594e-05 2.32436e-05 2.62726e-05 2.95463e-05 3.30648e-05 3.6828e-05 4.0836e-05 4.50888e-05 4.95863e-05 5.43259e-05 5.9305e-05 6.45237e-05 6.99818e-05 7.56795e-05 8.16167e-05 8.77933e-05 9.42095e-05 0.000100825 0.000107598 0.000114531 0.000121621 0.00012887 0.000136278 0.000143844 0.000151569 0.000159382 0.000167213 0.000175062 0.00018293 0.000190816 0.000198721 0.000206643 0.000214584 0.000222459 0.000230184 0.000237758 0.000245183 0.000252456 0.00025958 0.000266553 0.000273376 0.00027997 0.000286257 0.000292235 0.000297906 0.000303269 0.000308324 0.000313071 0.00031751 0.000321587 0.000325247 0.00032849 0.000331316 0.000333725 0.000335716 0.000337291 0.000338448 0.000339171 0.00033944 0.000339257 0.00033862 0.00033753 0.000335987 0.000333991 0.000331542 0.000328662 0.000325373 0.000321675 0.000317569 0.000313055 0.000308132 0.0003028 0.000297059 0.000290968 0.000284584 0.000277907 0.000270937 0.000263675 0.000256119 0.000248271 0.00024013 0.00023178 0.000223304 0.000214702 0.000205975 0.000197122 0.000188144 0.00017904 0.00016981 0.00016055 0.000151355 0.000142225 0.000133161 0.000124161 0.000115227 0.000106357 9.75531e-05 8.88417e-05 8.02507e-05 7.17801e-05 6.34299e-05 5.52001e-05 4.70907e-05 3.91018e-05 3.12333e-05 2.3913e-05 1.75687e-05 1.22005e-05 7.80832e-06 4.39218e-06 1.95208e-06 4.8802e-07 0 0 1.36278e-07 5.45113e-07 1.2265e-06 2.18045e-06 3.40696e-06 4.90602e-06 6.67764e-06 8.72181e-06 1.10617e-05 1.37206e-05 1.66985e-05 1.99953e-05 2.36111e-05 2.75459e-05 3.17996e-05 3.63723e-05 4.1322e-05 4.67068e-05 5.25268e-05 5.87819e-05 6.54721e-05 7.25974e-05 8.01578e-05 8.81534e-05 9.65794e-05 0.000105431 0.000114709 0.000124412 0.000134541 0.000145096 0.000156077 0.000167484 0.000179244 0.000191286 0.00020361 0.000216215 0.000229103 0.000242272 0.000255723 0.000269455 0.000283345 0.000297267 0.000311222 0.000325209 0.000339229 0.000353281 0.000367366 0.000381483 0.000395483 0.000409216 0.000422682 0.00043588 0.000448811 0.000461476 0.000473873 0.000486003 0.000497725 0.000508901 0.000519529 0.00052961 0.000539144 0.000548131 0.00055657 0.000564463 0.000571711 0.000578217 0.000583982 0.000589006 0.000593288 0.000596829 0.000599628 0.000601686 0.000602971 0.00060345 0.000603123 0.000601991 0.000600053 0.00059731 0.000593762 0.000589407 0.000584287 0.000578441 0.000571867 0.000564568 0.000556542 0.000547789 0.00053831 0.000528105 0.000517276 0.000505927 0.000494057 0.000481666 0.000468755 0.000455323 0.000441371 0.000426898 0.000412053 0.000396985 0.000381693 0.000366178 0.00035044 0.000334478 0.000318293 0.000301884 0.000285422 0.000269076 0.000252845 0.00023673 0.000220731 0.000204847 0.00018908 0.000173428 0.000157941 0.000142668 0.000127609 0.000112764 9.81335e-05 8.37169e-05 6.95143e-05 5.55258e-05 4.2512e-05 3.12333e-05 2.16898e-05 1.38815e-05 7.80832e-06 3.47036e-06 8.67591e-07 0 0 2.12935e-07 8.51739e-07 1.91641e-06 3.40696e-06 5.32337e-06 7.66566e-06 1.04338e-05 1.36278e-05 1.7284e-05 2.14385e-05 2.60914e-05 3.12427e-05 3.68924e-05 4.30404e-05 4.96869e-05 5.68317e-05 6.45656e-05 7.29794e-05 8.20731e-05 9.18467e-05 0.0001023 0.000113433 0.000125247 0.00013774 0.000150905 0.000164736 0.000179232 0.000194394 0.000210221 0.000226713 0.00024387 0.000261693 0.000280069 0.000298884 0.00031814 0.000337837 0.000357973 0.00037855 0.000399567 0.000421024 0.000442727 0.00046448 0.000486284 0.000508139 0.000530045 0.000552002 0.000574009 0.000596068 0.000617942 0.0006394 0.00066044 0.000681063 0.000701268 0.000721056 0.000740426 0.000759379 0.000777696 0.000795158 0.000811764 0.000827516 0.000842413 0.000856454 0.000869641 0.000881973 0.000893298 0.000903464 0.000912472 0.000920322 0.000927013 0.000932545 0.000936919 0.000940135 0.000942142 0.00094289 0.00094238 0.000940611 0.000937583 0.000933297 0.000927752 0.000920949 0.000912949 0.000903813 0.000893543 0.000882137 0.000869597 0.000855921 0.00084111 0.000825164 0.000808244 0.00079051 0.000771963 0.000752603 0.000732429 0.000711442 0.000689642 0.000667028 0.000643833 0.000620288 0.000596395 0.000572153 0.000547562 0.000522622 0.000497333 0.000471694 0.000445972 0.000420431 0.00039507 0.000369891 0.000344892 0.000320074 0.000295437 0.000270981 0.000246782 0.000222918 0.000199389 0.000176194 0.000153334 0.000130808 0.000108616 8.67591e-05 6.64249e-05 4.8802e-05 3.38903e-05 2.16898e-05 1.22005e-05 5.42244e-06 1.35561e-06 0 0 3.06626e-07 1.2265e-06 2.75964e-06 4.90602e-06 7.66566e-06 1.10385e-05 1.50247e-05 1.96241e-05 2.48889e-05 3.08715e-05 3.75716e-05 4.49895e-05 5.3125e-05 6.19782e-05 7.15491e-05 8.18376e-05 9.29745e-05 0.00010509 0.000118185 0.000132259 0.000147312 0.000163344 0.000180355 0.000198345 0.000217304 0.00023722 0.000258095 0.000279927 0.000302718 0.000326467 0.000351173 0.000376838 0.000403299 0.000430394 0.000458122 0.000486485 0.000515481 0.000545112 0.000575376 0.000606274 0.000637526 0.000668851 0.00070025 0.000731721 0.000763265 0.000794883 0.000826573 0.000858337 0.000889837 0.000920736 0.000951034 0.00098073 0.00100983 0.00103832 0.00106621 0.00109351 0.00111988 0.00114503 0.00116894 0.00119162 0.00121307 0.00123329 0.00125228 0.00127004 0.00128635 0.00130099 0.00131396 0.00132526 0.0013349 0.00134287 0.00134916 0.00135379 0.00135668 0.00135776 0.00135703 0.00135448 0.00135012 0.00134395 0.00133596 0.00132617 0.00131465 0.00130149 0.0012867 0.00127028 0.00125222 0.00123253 0.0012112 0.00118824 0.00116387 0.00113833 0.00111163 0.00108375 0.0010547 0.00102448 0.000993084 0.00096052 0.000927119 0.000893215 0.000858809 0.000823901 0.000788489 0.000752575 0.000716159 0.00067924 0.0006422 0.00060542 0.000568901 0.000532642 0.000496644 0.000460906 0.000425429 0.000390212 0.000355367 0.000321003 0.00028712 0.000253719 0.0002208 0.000188363 0.000156407 0.000124933 9.56519e-05 7.02749e-05 4.8802e-05 3.12333e-05 1.75687e-05 7.80832e-06 1.95208e-06 0 0 4.17352e-07 1.66941e-06 3.75617e-06 6.67764e-06 1.04338e-05 1.50247e-05 2.04503e-05 2.67106e-05 3.38766e-05 4.20195e-05 5.11392e-05 6.12357e-05 7.23091e-05 8.43592e-05 9.73862e-05 0.00011139 0.000126549 0.00014304 0.000160863 0.000180019 0.000200508 0.000222329 0.000245483 0.00026997 0.000295774 0.000322883 0.000351296 0.000381012 0.000412033 0.000444357 0.000477986 0.000512919 0.000548935 0.000585813 0.000623555 0.00066216 0.000701627 0.000741958 0.000783151 0.000825207 0.000867744 0.000910381 0.000953117 0.000995953 0.00103889 0.00108192 0.00112506 0.00116829 0.00121117 0.00125322 0.00129446 0.00133488 0.00137449 0.00141327 0.00145124 0.00148838 0.00152428 0.00155851 0.00159106 0.00162193 0.00165113 0.00167865 0.0017045 0.00172867 0.00175086 0.00177079 0.00178845 0.00180383 0.00181694 0.00182779 0.00183636 0.00184266 0.0018466 0.00184806 0.00184706 0.0018436 0.00183766 0.00182926 0.00181839 0.00180506 0.00178938 0.00177147 0.00175134 0.00172899 0.00170441 0.00167761 0.00164858 0.00161732 0.00158416 0.0015494 0.00151305 0.0014751 0.00143556 0.00139443 0.0013517 0.00130737 0.00126191 0.00121577 0.00116893 0.00112142 0.00107322 0.00102434 0.000974772 0.000924521 0.000874105 0.000824044 0.000774338 0.000724986 0.000675988 0.000627345 0.000579056 0.000531122 0.000483694 0.00043692 0.000390803 0.00034534 0.000300534 0.000256383 0.000212888 0.000170048 0.000130193 9.56519e-05 6.64249e-05 4.2512e-05 2.3913e-05 1.0628e-05 2.657e-06 0 0 5.45113e-07 2.18045e-06 4.90602e-06 8.72181e-06 1.36278e-05 1.96241e-05 2.67106e-05 3.48872e-05 4.4247e-05 5.48826e-05 6.6794e-05 7.99813e-05 9.44445e-05 0.000110183 0.000127198 0.000145489 0.000165288 0.000186827 0.000210107 0.000235127 0.000261888 0.000290389 0.000320631 0.000352613 0.000386317 0.000421725 0.000458835 0.000497649 0.000538165 0.000580385 0.000624308 0.000669934 0.000716976 0.000765144 0.000814439 0.000864862 0.000916411 0.000969087 0.00102289 0.00107782 0.00113338 0.00118907 0.00124489 0.00130084 0.00135692 0.00141312 0.00146946 0.00152593 0.00158193 0.00163686 0.00169073 0.00174352 0.00179525 0.0018459 0.00189549 0.00194401 0.0019909 0.0020356 0.00207812 0.00211844 0.00215658 0.00219252 0.00222628 0.00225785 0.00228684 0.00231287 0.00233593 0.00235602 0.00237315 0.00238732 0.00239851 0.00240674 0.00241188 0.0024138 0.00241249 0.00240796 0.00240021 0.00238924 0.00237505 0.00235763 0.00233715 0.00231376 0.00228747 0.00225827 0.00222617 0.00219116 0.00215324 0.00211242 0.0020691 0.00202371 0.00197623 0.00192666 0.00187502 0.00182129 0.00176548 0.00170759 0.00164821 0.00158794 0.00152677 0.00146471 0.00140176 0.00133791 0.00127317 0.00120754 0.00114169 0.0010763 0.00101138 0.00094692 0.000882923 0.000819389 0.000756319 0.000693711 0.000631763 0.000570671 0.000510436 0.000451057 0.000392534 0.000334868 0.000278057 0.000222103 0.000170048 0.000124933 8.67591e-05 5.55258e-05 3.12333e-05 1.38815e-05 3.47036e-06 0 0 6.89989e-07 2.75996e-06 6.2099e-06 1.10398e-05 1.72497e-05 2.48396e-05 3.38095e-05 4.41593e-05 5.59964e-05 6.94282e-05 8.44545e-05 0.000101075 0.000119291 0.000139101 0.000160506 0.000183505 0.00020839 0.000235451 0.000264688 0.000296103 0.000329693 0.00036546 0.000403403 0.000443523 0.000485795 0.000530196 0.000576725 0.000625383 0.000676169 0.000729083 0.000784126 0.000841298 0.000900237 0.000960583 0.00102234 0.0010855 0.00115007 0.00121604 0.00128342 0.00135221 0.00142178 0.00149152 0.00156141 0.00163146 0.00170167 0.00177204 0.00184258 0.00191327 0.00198337 0.00205213 0.00211955 0.00218563 0.00225038 0.00231378 0.00237584 0.00243657 0.00249525 0.00255119 0.0026044 0.00265486 0.00270258 0.00274756 0.00278979 0.00282929 0.00286556 0.00289812 0.00292696 0.00295209 0.00297351 0.00299122 0.00300521 0.00301549 0.0030219 0.00302427 0.00302261 0.00301692 0.00300719 0.00299343 0.00297563 0.00295381 0.00292814 0.00289884 0.0028659 0.00282932 0.00278911 0.00274526 0.00269776 0.00264663 0.00259238 0.00253552 0.00247605 0.00241398 0.0023493 0.002282 0.00221211 0.0021396 0.00206523 0.00198974 0.00191313 0.0018354 0.00175655 0.00167657 0.00159548 0.00151327 0.00143078 0.00134888 0.00126755 0.0011868 0.00110662 0.00102702 0.000948004 0.000869561 0.000791941 0.000715387 0.000639901 0.000565481 0.000492129 0.000419843 0.000348624 0.000278473 0.000213206 0.000156641 0.000108778 6.96182e-05 3.91602e-05 1.74045e-05 4.35114e-06 0 0 8.52061e-07 3.40824e-06 7.66855e-06 1.3633e-05 2.13015e-05 3.06742e-05 4.1751e-05 5.45319e-05 6.91213e-05 8.56236e-05 0.000104039 0.000124367 0.000146608 0.000170761 0.000196828 0.000224808 0.000255051 0.000287908 0.000323379 0.000361464 0.000402163 0.000445477 0.000491404 0.000539946 0.000591071 0.000644748 0.000700979 0.000759762 0.000821098 0.000884986 0.000951427 0.00102042 0.00109153 0.00116433 0.00123881 0.00131497 0.00139282 0.00147235 0.00155357 0.00163647 0.00172031 0.00180433 0.00188853 0.00197291 0.00205749 0.00214224 0.00222718 0.0023123 0.00239671 0.0024795 0.00256067 0.00264022 0.00271815 0.00279446 0.00286916 0.00294224 0.00301285 0.00308017 0.00314418 0.00320488 0.00326229 0.00331639 0.00336719 0.00341468 0.00345829 0.00349743 0.0035321 0.00356229 0.00358801 0.00360927 0.00362605 0.00363836 0.003646 0.00364879 0.00364672 0.0036398 0.00362801 0.00361137 0.00358988 0.00356353 0.00353255 0.0034972 0.00345746 0.00341335 0.00336485 0.00331197 0.00325471 0.00319307 0.00312766 0.00305911 0.00298742 0.00291259 0.00283462 0.0027535 0.00266924 0.00258183 0.00249218 0.00240117 0.00230881 0.0022151 0.00212003 0.0020236 0.00192583 0.00182669 0.00172723 0.00162845 0.00153036 0.00143296 0.00133625 0.00124023 0.0011449 0.00105026 0.000956593 0.000864199 0.000773077 0.000683226 0.000594645 0.000507336 0.000421297 0.000336529 0.000257655 0.000189298 0.000131457 8.41323e-05 4.73244e-05 2.10331e-05 5.25827e-06 0 0 1.03133e-06 4.12531e-06 9.28196e-06 1.65013e-05 2.57832e-05 3.71278e-05 5.05351e-05 6.6005e-05 8.36216e-05 0.000103469 0.000125547 0.000149856 0.000176395 0.000205165 0.000236166 0.000269397 0.000305271 0.000344198 0.000386178 0.000431212 0.000479299 0.00053044 0.000584634 0.000641881 0.000702144 0.000765382 0.000831595 0.000900785 0.000972951 0.00104809 0.00112621 0.0012073 0.00129086 0.00137638 0.00146386 0.00155329 0.00164468 0.00173803 0.00183334 0.0019306 0.00202895 0.00212749 0.00222624 0.0023252 0.00242435 0.00252371 0.00262328 0.00272304 0.00282196 0.00291896 0.00301407 0.00310727 0.00319856 0.00328795 0.00337543 0.00346101 0.0035437 0.00362252 0.00369746 0.00376852 0.00383571 0.00389902 0.00395847 0.00401403 0.00406504 0.0041108 0.00415133 0.00418661 0.00421666 0.00424146 0.00426102 0.00427534 0.00428419 0.00428735 0.00428482 0.0042766 0.00426268 0.00424308 0.00421778 0.00418679 0.00415038 0.00410884 0.00406216 0.00401034 0.00395339 0.0038913 0.00382408 0.00375172 0.00367494 0.00359448 0.00351034 0.0034225 0.00333098 0.00323577 0.00313687 0.00303429 0.00292906 0.00282224 0.00271382 0.00260381 0.0024922 0.002379 0.0022642 0.00214781 0.00203102 0.00191502 0.00179983 0.00168543 0.00157182 0.00145902 0.00134701 0.0012358 0.00112572 0.00101711 0.000909965 0.00080429 0.000700084 0.000597345 0.000496075 0.000396273 0.000303396 0.000222903 0.000154794 9.90682e-05 5.57259e-05 2.47671e-05 6.19176e-06 0 0 1.22779e-06 4.91117e-06 1.10501e-05 1.96447e-05 3.06948e-05 4.42005e-05 6.01618e-05 7.85786e-05 9.94973e-05 0.000122964 0.000148979 0.000177542 0.000208653 0.000242312 0.000278519 0.000317274 0.000359051 0.000404321 0.000453087 0.000505346 0.000561101 0.000620349 0.000683092 0.00074933 0.000819014 0.000892095 0.000968575 0.00104845 0.00113173 0.0012184 0.00130848 0.00140195 0.00149823 0.00159674 0.00169748 0.00180045 0.00190564 0.00201307 0.00212272 0.0022346 0.00234771 0.00246102 0.00257456 0.00268831 0.00280228 0.00291646 0.00303086 0.00314548 0.00325911 0.00337053 0.00347976 0.00358679 0.00369161 0.00379424 0.00389467 0.0039929 0.0040878 0.00417825 0.00426424 0.00434577 0.00442284 0.00449546 0.00456363 0.00462733 0.0046858 0.00473824 0.00478467 0.00482507 0.00485944 0.0048878 0.00491013 0.00492644 0.00493647 0.00493997 0.00493692 0.00492733 0.0049112 0.00488854 0.00485933 0.00482359 0.00478162 0.00473375 0.00467998 0.00462031 0.00455473 0.00448325 0.00440587 0.00432259 0.00423423 0.00414163 0.00404479 0.00394371 0.00383839 0.00372882 0.00361501 0.00349696 0.00337587 0.00325294 0.00312816 0.00300154 0.00287307 0.00274277 0.00261062 0.00247662 0.00234216 0.0022086 0.00207594 0.00194418 0.00181333 0.00168338 0.00155433 0.00142618 0.00129932 0.00117411 0.00105056 0.000928675 0.000808445 0.000689873 0.000572959 0.000457704 0.000350429 0.000257458 0.00017879 0.000114426 6.43646e-05 2.86065e-05 7.15162e-06 0 0 1.44145e-06 5.7658e-06 1.2973e-05 2.30632e-05 3.60362e-05 5.18922e-05 7.0631e-05 9.22528e-05 0.000116748 0.000144109 0.000174335 0.000207425 0.000243381 0.000282202 0.000323887 0.000368438 0.000416389 0.000468278 0.000524104 0.000583867 0.000647567 0.000715205 0.000786779 0.000862291 0.000941681 0.00102489 0.00111192 0.00120277 0.00129743 0.00139592 0.00149822 0.00160435 0.00171363 0.00182541 0.00193968 0.00205645 0.00217571 0.00229747 0.00242172 0.00254847 0.00267658 0.00280491 0.00293347 0.00306225 0.00319126 0.00332049 0.00344994 0.00357962 0.00370816 0.0038342 0.00395774 0.00407877 0.00419731 0.00431334 0.00442687 0.0045379 0.00464515 0.00474736 0.00484452 0.00493663 0.00502369 0.0051057 0.00518267 0.00525459 0.00532057 0.00537974 0.0054321 0.00547764 0.00551637 0.00554829 0.00557338 0.00559167 0.00560284 0.00560662 0.005603 0.00559199 0.00557357 0.00554775 0.00551454 0.00547393 0.00542627 0.00537194 0.00531093 0.00524324 0.00516887 0.00508782 0.00500008 0.00490567 0.00480552 0.00470056 0.00459079 0.00447622 0.00435684 0.00423265 0.00410366 0.00396986 0.00383262 0.00369327 0.00355182 0.00340828 0.00326264 0.0031149 0.00296506 0.00281313 0.00266064 0.00250917 0.00235869 0.00220923 0.00206077 0.00191331 0.00176686 0.00162141 0.00147739 0.00133521 0.00119488 0.00105638 0.000919728 0.000784917 0.000651948 0.000520822 0.000398754 0.000292962 0.000203446 0.000130205 7.32405e-05 3.25514e-05 8.13784e-06 0 0 1.6723e-06 6.68922e-06 1.50507e-05 2.67569e-05 4.18076e-05 6.02029e-05 8.19429e-05 0.000107027 0.000135375 0.000166904 0.000201615 0.000239506 0.00028058 0.000324835 0.000372271 0.000422889 0.000477288 0.000536068 0.000599231 0.000666775 0.0007387 0.000815007 0.000895695 0.000980765 0.00107015 0.00116377 0.00126162 0.00136372 0.00147006 0.00158064 0.00169545 0.00181451 0.00193706 0.00206238 0.00219045 0.00232128 0.00245488 0.00259123 0.00273034 0.00287221 0.00301558 0.00315917 0.00330298 0.00344703 0.0035913 0.00373579 0.00388052 0.00402547 0.00416912 0.00430997 0.004448 0.00458323 0.00471564 0.00484524 0.00497203 0.00509601 0.00521575 0.00532985 0.0054383 0.0055411 0.00563824 0.00572974 0.00581559 0.0058958 0.00596936 0.00603531 0.00609364 0.00614435 0.00618744 0.00622292 0.00625077 0.00627101 0.0062833 0.00628733 0.00628308 0.00627057 0.00624978 0.00622073 0.0061834 0.00613781 0.00608435 0.00602341 0.00595501 0.00587914 0.00579581 0.005705 0.00560672 0.00550098 0.00538881 0.00527126 0.00514833 0.00502002 0.00488633 0.00474726 0.00460281 0.00445299 0.00429929 0.00414323 0.00398482 0.00382404 0.0036609 0.0034954 0.00332754 0.00315732 0.00298648 0.00281673 0.0026481 0.00248057 0.00231414 0.00214882 0.0019846 0.00182149 0.00165994 0.00150041 0.0013429 0.00118741 0.00103393 0.000882478 0.000733043 0.000585627 0.00044837 0.000329415 0.00022876 0.000146407 8.23538e-05 3.66017e-05 9.15042e-06 0 0 1.92035e-06 7.68142e-06 1.72832e-05 3.07257e-05 4.80088e-05 6.91327e-05 9.40973e-05 0.000122903 0.000155377 0.000191349 0.000230818 0.000273785 0.000320249 0.000370211 0.00042367 0.000480626 0.000541745 0.000607692 0.000678466 0.000754068 0.000834498 0.000919755 0.00100984 0.00110475 0.00120441 0.00130872 0.00141769 0.00153132 0.00164961 0.00177256 0.00190017 0.00203243 0.00216853 0.00230766 0.0024498 0.00259496 0.00274315 0.00289435 0.00304858 0.00320582 0.00336469 0.00352378 0.00368309 0.00384263 0.00400239 0.00416237 0.00432258 0.00448301 0.00464199 0.00479784 0.00495056 0.00510015 0.00524661 0.00538995 0.00553015 0.00566722 0.0057996 0.00592572 0.00604558 0.00615918 0.00626651 0.00636759 0.0064624 0.00655096 0.00663216 0.00670494 0.00676928 0.00682518 0.00687266 0.0069117 0.0069423 0.00696447 0.00697785 0.00698208 0.00697715 0.00696307 0.00693984 0.00690746 0.00686592 0.00681523 0.00675583 0.00668816 0.00661223 0.00652802 0.00643554 0.0063348 0.00622578 0.0061085 0.0059841 0.00585374 0.00571741 0.00557512 0.00542687 0.00527265 0.00511247 0.00494633 0.0047759 0.00460283 0.00442713 0.00424881 0.00406785 0.00388427 0.00369806 0.00350921 0.00331966 0.0031313 0.00294415 0.0027582 0.00257345 0.0023899 0.00220756 0.00202641 0.00184696 0.0016697 0.00149463 0.00132175 0.00115106 0.000982557 0.000816243 0.000652119 0.000499279 0.000366817 0.000254734 0.00016303 9.17042e-05 4.07574e-05 1.01894e-05 0 0 2.1856e-06 8.7424e-06 1.96704e-05 3.49696e-05 5.464e-05 7.86816e-05 0.000107094 0.000139878 0.000176754 0.000217444 0.000261946 0.000310261 0.000362389 0.00041833 0.000478084 0.000541651 0.000609762 0.000683149 0.000761811 0.000845748 0.000934961 0.00102945 0.00112921 0.00123425 0.00134447 0.00145976 0.00158013 0.00170557 0.00183609 0.00197169 0.00211236 0.00225811 0.00240804 0.00256124 0.00271772 0.00287748 0.00304052 0.00320684 0.00337643 0.0035493 0.00372392 0.00389875 0.0040738 0.00424906 0.00442454 0.00460023 0.00477614 0.00495226 0.00512676 0.00529781 0.0054654 0.00562954 0.00579023 0.00594746 0.00610123 0.00625155 0.0063967 0.00653497 0.00666636 0.00679087 0.00690849 0.00701923 0.00712309 0.00722007 0.00730898 0.00738863 0.00745902 0.00752015 0.00757201 0.00761462 0.00764797 0.00767205 0.00768649 0.00769087 0.00768521 0.0076695 0.00764375 0.00760794 0.00756209 0.0075062 0.00744073 0.00736619 0.00728257 0.00718986 0.00708808 0.00697721 0.00685727 0.00672824 0.00659139 0.00644799 0.00629803 0.00614152 0.00597845 0.00580882 0.00563264 0.0054499 0.00526243 0.00507206 0.00487878 0.00468259 0.0044835 0.00428151 0.0040766 0.0038688 0.00366019 0.00345287 0.00324685 0.00304212 0.00283869 0.00263656 0.00243572 0.00223618 0.00203846 0.00184309 0.00165008 0.00145942 0.00127111 0.00108515 0.000901549 0.000720298 0.000551478 0.000405168 0.000281366 0.000180075 0.000101292 4.50186e-05 1.12547e-05 0 0 2.47025e-06 9.88098e-06 2.22322e-05 3.95239e-05 6.17561e-05 8.89289e-05 0.000121042 0.000158096 0.000199684 0.000245402 0.000295248 0.000349224 0.000407328 0.000469562 0.000535925 0.000606416 0.000681835 0.00076298 0.00084985 0.000942446 0.00104077 0.00114481 0.00125459 0.00137008 0.00149119 0.00161779 0.00174989 0.00188748 0.00203056 0.00217913 0.0023332 0.00249276 0.00265684 0.00282445 0.00299558 0.00317025 0.00334846 0.00353019 0.00371546 0.00390425 0.00409492 0.00428578 0.00447684 0.00466811 0.00485957 0.00505123 0.0052431 0.00543516 0.00562543 0.00581191 0.0059946 0.0061735 0.00634861 0.00651994 0.00668747 0.00685121 0.0070093 0.00715988 0.00730294 0.00743849 0.00756653 0.00768704 0.00780005 0.00790554 0.00800222 0.0080888 0.00816528 0.00823166 0.00828794 0.00833412 0.0083702 0.00839618 0.00841163 0.00841612 0.00840966 0.00839224 0.00836387 0.00832454 0.00827425 0.00821301 0.00814133 0.00805975 0.00796826 0.00786687 0.00775557 0.00763436 0.00750325 0.00736223 0.00721268 0.00705597 0.0068921 0.00672107 0.00654287 0.00635752 0.006165 0.00596533 0.00576048 0.00555243 0.0053412 0.00512678 0.00490917 0.00468837 0.00446439 0.00423721 0.00400913 0.00378243 0.00355713 0.00333321 0.00311068 0.00288953 0.00266977 0.0024514 0.00223498 0.00202107 0.00180967 0.00160078 0.00139441 0.00119054 0.000989187 0.000790345 0.000605108 0.000444569 0.000308728 0.000197586 0.000111142 4.93966e-05 1.23491e-05 0 0 2.7765e-06 1.1106e-05 2.49885e-05 4.4424e-05 6.94125e-05 9.9954e-05 0.000136048 0.000177696 0.000224343 0.000275437 0.000330977 0.000390964 0.000455397 0.000524277 0.000597603 0.000675375 0.000758461 0.000847725 0.000943168 0.00104479 0.00115259 0.00126657 0.00138673 0.00151307 0.00164545 0.00178374 0.00192795 0.00207806 0.00223408 0.00239601 0.00256385 0.00273761 0.0029162 0.00309858 0.00328474 0.00347469 0.00366841 0.00386592 0.00406721 0.00427228 0.00447933 0.00468656 0.00489396 0.00510155 0.00530931 0.00551725 0.00572537 0.00593366 0.00613998 0.00634217 0.00654021 0.00673413 0.00692391 0.00710955 0.00729106 0.00746844 0.00763966 0.00780273 0.00795763 0.00810438 0.00824296 0.00837338 0.00849564 0.00860974 0.00871427 0.00880786 0.00889048 0.00896215 0.00902287 0.00907263 0.00911143 0.00913927 0.0091557 0.00916024 0.0091529 0.00913368 0.00910257 0.00905959 0.00900472 0.00893797 0.0088599 0.00877109 0.00867153 0.00856122 0.00844017 0.00830837 0.00816582 0.00801252 0.00784996 0.00767963 0.00750151 0.00731561 0.00712194 0.00692048 0.00671125 0.00649424 0.0062716 0.00604547 0.00581586 0.00558277 0.0053462 0.00510614 0.0048626 0.00461557 0.00436755 0.004121 0.00387592 0.00363232 0.0033902 0.00314956 0.00291039 0.00267269 0.00243707 0.00220412 0.00197384 0.00174622 0.00152127 0.00129899 0.00107938 0.000862439 0.000660305 0.000485122 0.00033689 0.00021561 0.000121281 5.39025e-05 1.34756e-05 0 0 3.10436e-06 1.24174e-05 2.79393e-05 4.96698e-05 7.7609e-05 0.000111757 0.000152114 0.000198679 0.000250732 0.000307549 0.000369133 0.000435481 0.000506595 0.000582474 0.000663119 0.000748528 0.000839639 0.000937385 0.00104177 0.00115278 0.00127044 0.00139472 0.00152565 0.0016632 0.00180724 0.00195761 0.0021143 0.00227732 0.00244666 0.00262232 0.00280432 0.00299264 0.00318613 0.00338365 0.00358521 0.00379078 0.00400039 0.00421403 0.00443169 0.00465338 0.00487716 0.00510109 0.00532516 0.00554939 0.00577376 0.00599828 0.00622295 0.00644777 0.00667042 0.00688858 0.00710224 0.00731142 0.00751611 0.0077163 0.007912 0.00810322 0.00828778 0.00846351 0.00863043 0.00878852 0.00893779 0.00907824 0.00920987 0.00933267 0.00944515 0.00954581 0.00963463 0.00971163 0.0097768 0.00983014 0.00987165 0.00990133 0.00991869 0.00992322 0.00991493 0.00989381 0.00985986 0.0098131 0.0097535 0.00968108 0.00959645 0.00950022 0.00939237 0.00927293 0.00914188 0.00899922 0.00884497 0.0086791 0.00850323 0.00831895 0.00812626 0.00792516 0.00771564 0.00749772 0.00727139 0.00703664 0.0067958 0.00655117 0.00630276 0.00605056 0.00579457 0.0055348 0.00527124 0.0050039 0.00473545 0.00446856 0.00420323 0.00393947 0.00367727 0.00341663 0.00315756 0.00290006 0.00264475 0.00239226 0.00214259 0.00189574 0.00165172 0.00141052 0.00117214 0.000936581 0.00071707 0.000526827 0.000365852 0.000234145 0.000131707 5.85363e-05 1.46341e-05 0 0 3.45383e-06 1.38153e-05 3.10845e-05 5.52613e-05 8.63457e-05 0.000124338 0.000169238 0.000221045 0.000278849 0.000341739 0.000409714 0.000482775 0.000560922 0.000644154 0.000732472 0.000825876 0.00092537 0.00103196 0.00114564 0.00126642 0.0013943 0.00152927 0.00167133 0.00182049 0.00197657 0.00213939 0.00230895 0.00248525 0.00266829 0.00285807 0.00305459 0.00325785 0.00346662 0.00367966 0.00389696 0.00411854 0.00434439 0.00457451 0.0048089 0.00504755 0.0052884 0.00552936 0.00577044 0.00601162 0.00625292 0.00649433 0.00673585 0.00697748 0.00721674 0.00745115 0.00768069 0.00790538 0.00812521 0.00834018 0.0085503 0.00875556 0.00895364 0.00914223 0.00932132 0.00949092 0.00965102 0.00980162 0.00994273 0.0100743 0.0101949 0.0103026 0.0103977 0.0104801 0.0105497 0.0106067 0.0106509 0.0106824 0.0107006 0.0107051 0.0106957 0.0106726 0.0106357 0.0105851 0.0105206 0.0104424 0.010351 0.0102471 0.0101308 0.010002 0.0098607 0.00970693 0.00954069 0.00936197 0.00917249 0.00897395 0.00876635 0.0085497 0.00832399 0.00808923 0.00784541 0.00759254 0.00733308 0.00706954 0.00680189 0.00653014 0.0062543 0.00597436 0.00569032 0.00540218 0.00511282 0.00482511 0.00453905 0.00425464 0.00397188 0.00369077 0.0034113 0.00313349 0.00285799 0.00258547 0.00231591 0.00204934 0.00178573 0.0015251 0.00126745 0.00101277 0.000775403 0.000569684 0.000395614 0.000253193 0.000142421 6.32982e-05 1.58245e-05 0 0 3.82491e-06 1.52996e-05 3.44241e-05 6.11985e-05 9.56226e-05 0.000137697 0.00018742 0.000244794 0.000308696 0.000378006 0.000452722 0.000532847 0.000618378 0.000709317 0.000805663 0.000907417 0.00101565 0.00113145 0.0012548 0.00138571 0.00152418 0.00167021 0.00182379 0.00198493 0.00215343 0.00232909 0.0025119 0.00270186 0.00289898 0.00310325 0.00331468 0.00353326 0.00375767 0.00398659 0.00422002 0.00445796 0.00470041 0.00494737 0.00519883 0.0054548 0.00571306 0.00597139 0.00622979 0.00648826 0.00674679 0.00700539 0.00726406 0.00