<?xml version="1.0"?> 
<VTKFile type="StructuredGrid" version="0.1"> 
<StructuredGrid WholeExtent="0 128 0 128 0 0"> 
<Piece Extent="0 128 0 128 0 0"> 
<PointData>
<DataArray type="Float32" Name="u" format="ascii" NumberOfComponents="1"> 
0 0 0 0 0 0 0 0 0 0 0 0 0 0 0 0 0 0 0 0 0 0 0 0 0 0 0 0 0 0 0 0 0 0 0 0 0 0 0 0 0 0 0 0 0 0 0 0 0 0 0 0 0 0 0 0 0 0 0 0 0 0 0 0 0 0 0 0 0 0 0 0 0 0 0 0 0 0 0 0 0 0 0 0 0 0 0 0 0 0 0 0 0 0 0 0 0 0 0 0 0 0 0 0 0 0 0 0 0 0 0 0 0 0 0 0 0 0 0 0 0 0 0 0 0 0 0 0 0 0 2.13237e-08 8.52949e-08 1.91914e-07 3.4118e-07 5.33093e-07 7.67654e-07 1.04486e-06 1.36472e-06 1.71472e-06 2.08235e-06 2.46761e-06 2.87052e-06 3.29105e-06 3.72922e-06 4.18503e-06 4.65847e-06 5.15197e-06 5.66795e-06 6.20641e-06 6.76735e-06 7.35078e-06 7.95668e-06 8.58507e-06 9.23594e-06 9.90717e-06 1.05966e-05 1.13043e-05 1.20302e-05 1.27744e-05 1.35367e-05 1.43173e-05 1.51162e-05 1.59286e-05 1.67499e-05 1.75801e-05 1.84193e-05 1.92673e-05 2.01243e-05 2.09902e-05 2.1865e-05 2.27421e-05 2.36148e-05 2.44831e-05 2.5347e-05 2.62066e-05 2.70617e-05 2.79125e-05 2.87589e-05 2.95933e-05 3.04081e-05 3.12032e-05 3.19787e-05 3.27346e-05 3.34709e-05 3.41875e-05 3.48845e-05 3.55547e-05 3.6191e-05 3.67932e-05 3.73614e-05 3.78957e-05 3.83959e-05 3.88622e-05 3.92944e-05 3.96875e-05 4.0036e-05 4.03399e-05 4.05994e-05 4.08144e-05 4.09848e-05 4.11108e-05 4.11922e-05 4.12269e-05 4.12129e-05 4.115e-05 4.10382e-05 4.08777e-05 4.06683e-05 4.04101e-05 4.01031e-05 3.97488e-05 3.93489e-05 3.89034e-05 3.84122e-05 3.78754e-05 3.72929e-05 3.66648e-05 3.59911e-05 3.52771e-05 3.45283e-05 3.37446e-05 3.29261e-05 3.20727e-05 3.11844e-05 3.02613e-05 2.93034e-05 2.83193e-05 2.73179e-05 2.6299e-05 2.52628e-05 2.42092e-05 2.31382e-05 2.20499e-05 2.09441e-05 1.9832e-05 1.87247e-05 1.76221e-05 1.65243e-05 1.54312e-05 1.43429e-05 1.32593e-05 1.21804e-05 1.11097e-05 1.00505e-05 9.00284e-06 7.96669e-06 6.94206e-06 5.92894e-06 4.92734e-06 3.93727e-06 3.01447e-06 2.21471e-06 1.53799e-06 9.84317e-07 5.53678e-07 2.46079e-07 6.15198e-08 0 0 8.52949e-08 3.4118e-07 7.67654e-07 1.36472e-06 2.13237e-06 3.07062e-06 4.17945e-06 5.45887e-06 6.85886e-06 8.32939e-06 9.87046e-06 1.14821e-05 1.31642e-05 1.49169e-05 1.67401e-05 1.86339e-05 2.06079e-05 2.26718e-05 2.48256e-05 2.70694e-05 2.94031e-05 3.18267e-05 3.43403e-05 3.69438e-05 3.96287e-05 4.23865e-05 4.52172e-05 4.81209e-05 5.10974e-05 5.41469e-05 5.72693e-05 6.04646e-05 6.37142e-05 6.69995e-05 7.03204e-05 7.3677e-05 7.70693e-05 8.04972e-05 8.39607e-05 8.746e-05 9.09683e-05 9.44591e-05 9.79323e-05 0.000101388 0.000104826 0.000108247 0.00011165 0.000115036 0.000118373 0.000121632 0.000124813 0.000127915 0.000130939 0.000133884 0.00013675 0.000139538 0.000142219 0.000144764 0.000147173 0.000149446 0.000151583 0.000153584 0.000155449 0.000157178 0.00015875 0.000160144 0.00016136 0.000162398 0.000163258 0.000163939 0.000164443 0.000164769 0.000164908 0.000164851 0.0001646 0.000164153 0.000163511 0.000162673 0.00016164 0.000160412 0.000158995 0.000157396 0.000155613 0.000153649 0.000151501 0.000149172 0.000146659 0.000143964 0.000141108 0.000138113 0.000134978 0.000131704 0.000128291 0.000124738 0.000121045 0.000117214 0.000113277 0.000109272 0.000105196 0.000101051 9.68369e-05 9.2553e-05 8.81995e-05 8.37764e-05 7.93281e-05 7.48988e-05 7.04885e-05 6.60972e-05 6.17248e-05 5.73715e-05 5.30371e-05 4.87217e-05 4.44388e-05 4.02021e-05 3.60114e-05 3.18668e-05 2.77682e-05 2.37158e-05 1.97094e-05 1.57491e-05 1.20579e-05 8.85885e-06 6.15198e-06 3.93727e-06 2.21471e-06 9.84317e-07 2.46079e-07 0 0 1.91914e-07 7.67654e-07 1.72722e-06 3.07062e-06 4.79784e-06 6.90889e-06 9.40376e-06 1.22825e-05 1.54324e-05 1.87411e-05 2.22085e-05 2.58346e-05 2.96195e-05 3.3563e-05 3.76653e-05 4.19262e-05 4.63677e-05 5.10115e-05 5.58577e-05 6.09062e-05 6.6157e-05 7.16102e-05 7.72656e-05 8.31235e-05 8.91645e-05 9.53696e-05 0.000101739 0.000108272 0.000114969 0.000121831 0.000128856 0.000136045 0.000143357 0.000150749 0.000158221 0.000165773 0.000173406 0.000181119 0.000188912 0.000196785 0.000204679 0.000212533 0.000220348 0.000228123 0.000235859 0.000243555 0.000251213 0.00025883 0.00026634 0.000273673 0.000280829 0.000287809 0.000294612 0.000301238 0.000307688 0.000313961 0.000319993 0.000325719 0.000331139 0.000336253 0.000341061 0.000345563 0.00034976 0.00035365 0.000357187 0.000360324 0.00036306 0.000365395 0.000367329 0.000368864 0.000369997 0.00037073 0.000371042 0.000370916 0.00037035 0.000369344 0.000367899 0.000366015 0.000363691 0.000360928 0.000357739 0.00035414 0.00035013 0.00034571 0.000340878 0.000335636 0.000329983 0.00032392 0.000317494 0.000310755 0.000303701 0.000296335 0.000288654 0.00028066 0.000272352 0.000263731 0.000254874 0.000245861 0.000236691 0.000227365 0.000217883 0.000208244 0.000198449 0.000188497 0.000178488 0.000168522 0.000158599 0.000148719 0.000138881 0.000129086 0.000119333 0.000109624 9.99874e-05 9.04547e-05 8.10256e-05 7.17002e-05 6.24785e-05 5.33605e-05 4.43461e-05 3.54354e-05 2.71302e-05 1.99324e-05 1.3842e-05 8.85885e-06 4.9831e-06 2.21471e-06 5.53678e-07 0 0 3.4118e-07 1.36472e-06 3.07062e-06 5.45887e-06 8.52949e-06 1.22825e-05 1.67178e-05 2.18355e-05 2.74354e-05 3.33176e-05 3.94818e-05 4.59282e-05 5.26568e-05 5.96676e-05 6.69605e-05 7.45355e-05 8.24315e-05 9.06872e-05 9.93026e-05 0.000108278 0.000117612 0.000127307 0.000137361 0.000147775 0.000158515 0.000169546 0.000180869 0.000192483 0.00020439 0.000216588 0.000229077 0.000241859 0.000254857 0.000267998 0.000281282 0.000294708 0.000308277 0.000321989 0.000335843 0.00034984 0.000363873 0.000377836 0.000391729 0.000405552 0.000419305 0.000432987 0.0004466 0.000460142 0.000473493 0.000486529 0.000499251 0.00051166 0.000523754 0.000535534 0.000547001 0.000558153 0.000568876 0.000579055 0.000588691 0.000597783 0.000606331 0.000614335 0.000621795 0.000628711 0.000634999 0.000640575 0.000645439 0.000649591 0.00065303 0.000655757 0.000657772 0.000659075 0.000659631 0.000659406 0.000658399 0.000656612 0.000654043 0.000650693 0.000646562 0.000641649 0.000635981 0.000629582 0.000622454 0.000614595 0.000606006 0.000596687 0.000586637 0.000575857 0.000564434 0.000552453 0.000539914 0.000526817 0.000513163 0.000498951 0.000484182 0.000468854 0.000453109 0.000437086 0.000420785 0.000404205 0.000387348 0.000370212 0.000352798 0.000335106 0.000317313 0.000299595 0.000281954 0.000264389 0.000246899 0.000229486 0.000212148 0.000194887 0.000177755 0.000160808 0.000144046 0.000127467 0.000111073 9.4863e-05 7.88375e-05 6.29963e-05 4.82315e-05 3.54354e-05 2.46079e-05 1.57491e-05 8.85885e-06 3.93727e-06 9.84317e-07 0 0 5.33093e-07 2.13237e-06 4.79784e-06 8.52949e-06 1.33273e-05 1.91914e-05 2.61216e-05 3.4118e-05 4.28679e-05 5.20587e-05 6.16903e-05 7.17629e-05 8.22763e-05 9.32306e-05 0.000104626 0.000116462 0.000128799 0.000141699 0.00015516 0.000169184 0.000183769 0.000198917 0.000214627 0.000230899 0.000247679 0.000264915 0.000282608 0.000300755 0.000319359 0.000338418 0.000357933 0.000377904 0.000398214 0.000418747 0.000439503 0.000460481 0.000481683 0.000503107 0.000524755 0.000546625 0.000568552 0.000590369 0.000612077 0.000633675 0.000655164 0.000676543 0.000697813 0.000718973 0.000739833 0.000760202 0.00078008 0.000799468 0.000818366 0.000836772 0.000854688 0.000872114 0.000888869 0.000904774 0.00091983 0.000934035 0.000947391 0.000959898 0.000971554 0.000982361 0.000992186 0.0010009 0.0010085 0.00101499 0.00102036 0.00102462 0.00102777 0.0010298 0.00103067 0.00103032 0.00102875 0.00102596 0.00102194 0.00101671 0.00101025 0.00100258 0.00099372 0.000983723 0.000972584 0.000960305 0.000946884 0.000932323 0.000916621 0.000899777 0.000881928 0.000863207 0.000843615 0.000823152 0.000801817 0.000779611 0.000756534 0.000732585 0.000707983 0.000682947 0.000657476 0.000631571 0.000605231 0.000578456 0.000551247 0.000523603 0.000495801 0.000468118 0.000440553 0.000413107 0.00038578 0.000358572 0.000331482 0.000304511 0.000277743 0.000251263 0.000225071 0.000199167 0.000173551 0.000148223 0.000123184 9.84317e-05 7.53618e-05 5.53678e-05 3.84499e-05 2.46079e-05 1.3842e-05 6.15198e-06 1.53799e-06 0 0 7.67654e-07 3.07062e-06 6.90889e-06 1.22825e-05 1.91914e-05 2.76355e-05 3.76151e-05 4.91299e-05 6.17298e-05 7.49645e-05 8.88341e-05 0.000103339 0.000118478 0.000134252 0.000150661 0.000167705 0.000185471 0.000204046 0.000223431 0.000243625 0.000264628 0.000286441 0.000309063 0.000332494 0.000356658 0.000381478 0.000406955 0.000433088 0.000459877 0.000487322 0.000515424 0.000544182 0.000573428 0.000602995 0.000632884 0.000663093 0.000693623 0.000724475 0.000755647 0.00078714 0.000818715 0.000850131 0.000881391 0.000912492 0.000943436 0.000974222 0.00100485 0.00103532 0.00106536 0.00109469 0.00112332 0.00115123 0.00117845 0.00120495 0.00123075 0.00125584 0.00127997 0.00130287 0.00132455 0.00134501 0.00136424 0.00138225 0.00139904 0.0014146 0.00142875 0.00144129 0.00145224 0.00146158 0.00146932 0.00147545 0.00147999 0.00148292 0.00148417 0.00148366 0.0014814 0.00147738 0.0014716 0.00146406 0.00145476 0.00144371 0.00143096 0.00141656 0.00140052 0.00138284 0.00136351 0.00134254 0.00131993 0.00129568 0.00126998 0.00124302 0.00121481 0.00118534 0.00115462 0.00112264 0.00108941 0.00105492 0.0010195 0.000983444 0.000946766 0.000909462 0.000871532 0.000832977 0.000793795 0.000753988 0.000713953 0.000674089 0.000634397 0.000594875 0.000555523 0.000516343 0.000477334 0.000438495 0.00039995 0.000361819 0.000324102 0.000286801 0.000249914 0.000213442 0.000177384 0.000141742 0.000108521 7.97297e-05 5.53678e-05 3.54354e-05 1.99324e-05 8.85885e-06 2.21471e-06 0 0 1.04486e-06 4.17945e-06 9.40376e-06 1.67178e-05 2.61216e-05 3.76151e-05 5.11983e-05 6.68712e-05 8.40211e-05 0.000102035 0.000120913 0.000140655 0.000161262 0.000182732 0.000205066 0.000228265 0.000252446 0.000277729 0.000304114 0.0003316 0.000360188 0.000389878 0.000420669 0.000452561 0.000485451 0.000519234 0.000553911 0.000589481 0.000625943 0.0006633 0.000701549 0.000740692 0.000780499 0.000820744 0.000861425 0.000902543 0.000944098 0.00098609 0.00102852 0.00107138 0.00111436 0.00115712 0.00119967 0.001242 0.00128412 0.00132602 0.00136771 0.00140919 0.00145007 0.00149 0.00152896 0.00156696 0.001604 0.00164007 0.00167519 0.00170934 0.00174218 0.00177336 0.00180287 0.00183071 0.00185689 0.0018814 0.00190425 0.00192543 0.00194469 0.00196176 0.00197666 0.00198937 0.0019999 0.00200826 0.00201443 0.00201842 0.00202012 0.00201943 0.00201635 0.00201087 0.00200301 0.00199275 0.00198009 0.00196505 0.00194769 0.0019281 0.00190626 0.0018822 0.00185589 0.00182735 0.00179658 0.00176356 0.00172858 0.00169189 0.00165349 0.00161338 0.00157156 0.00152804 0.00148281 0.00143587 0.00138765 0.00133858 0.00128865 0.00123788 0.00118625 0.00113377 0.00108044 0.00102626 0.00097177 0.000917511 0.000863484 0.00080969 0.000756129 0.0007028 0.000649704 0.000596841 0.000544376 0.000492475 0.000441139 0.000390368 0.000340161 0.000290518 0.00024144 0.000192926 0.000147709 0.000108521 7.53618e-05 4.82315e-05 2.71302e-05 1.20579e-05 3.01447e-06 0 0 1.36472e-06 5.45887e-06 1.22825e-05 2.18355e-05 3.4118e-05 4.91299e-05 6.68712e-05 8.7342e-05 0.000109742 0.00013327 0.000157927 0.000183713 0.000210627 0.00023867 0.000267842 0.000298142 0.000329726 0.000362749 0.00039721 0.000433111 0.00047045 0.000509228 0.000549445 0.0005911 0.000634059 0.000678184 0.000723475 0.000769934 0.000817559 0.000866351 0.000916309 0.000967434 0.00101943 0.00107199 0.00112513 0.00117883 0.00123311 0.00128795 0.00134337 0.00139936 0.00145549 0.00151134 0.00156692 0.00162221 0.00167722 0.00173195 0.0017864 0.00184057 0.00189397 0.00194612 0.00199701 0.00204664 0.00209502 0.00214214 0.002188 0.00223261 0.0022755 0.00231622 0.00235476 0.00239113 0.00242532 0.00245734 0.00248718 0.00251484 0.00254 0.0025623 0.00258176 0.00259836 0.00261212 0.00262303 0.00263109 0.0026363 0.00263852 0.00263762 0.0026336 0.00262645 0.00261617 0.00260277 0.00258625 0.0025666 0.00254392 0.00251833 0.00248982 0.00245838 0.00242402 0.00238675 0.00234655 0.00230343 0.00225774 0.00220981 0.00215965 0.00210727 0.00205265 0.0019958 0.00193673 0.00187542 0.00181244 0.00174834 0.00168314 0.00161682 0.00154939 0.00148085 0.00141119 0.00134042 0.00126925 0.00119838 0.00112782 0.00105755 0.000987597 0.000917943 0.000848593 0.000779547 0.000711022 0.000643233 0.000576182 0.000509868 0.000444292 0.000379452 0.00031535 0.000251985 0.000192926 0.000141742 9.84317e-05 6.29963e-05 3.54354e-05 1.57491e-05 3.93727e-06 0 0 1.71345e-06 6.85378e-06 1.5421e-05 2.74151e-05 4.28361e-05 6.1684e-05 8.39588e-05 0.000109661 0.000137781 0.00016731 0.00019825 0.0002306 0.000264359 0.000299529 0.000336108 0.000374097 0.00041369 0.000455083 0.000498274 0.000543264 0.000590053 0.000638641 0.000689028 0.000741213 0.000795027 0.000850299 0.000907029 0.000965216 0.00102486 0.00108596 0.00114852 0.00121254 0.00127764 0.00134346 0.00140998 0.00147722 0.00154517 0.00161383 0.00168321 0.00175329 0.00182355 0.00189347 0.00196302 0.00203223 0.00210108 0.00216958 0.00223773 0.00230552 0.00237235 0.00243761 0.00250129 0.0025634 0.00262394 0.0026829 0.00274029 0.00279611 0.00284977 0.00290072 0.00294894 0.00299444 0.00303721 0.00307727 0.00311459 0.0031492 0.00318066 0.00320856 0.00323288 0.00325365 0.00327085 0.00328448 0.00329455 0.00330105 0.00330381 0.00330266 0.00329761 0.00328864 0.00327576 0.00325897 0.00323827 0.00321366 0.00318526 0.00315321 0.00311751 0.00307814 0.00303513 0.00298846 0.00293813 0.00288415 0.00282694 0.00276695 0.00270416 0.00263858 0.0025702 0.00249904 0.00242508 0.00234834 0.0022695 0.00218926 0.00210764 0.00202461 0.0019402 0.00185439 0.00176719 0.0016786 0.0015895 0.00150078 0.00141243 0.00132447 0.00123688 0.00114967 0.00106284 0.000976388 0.000890585 0.000805699 0.000721732 0.000638684 0.000556553 0.00047534 0.000395046 0.000315669 0.000241684 0.000177564 0.000123308 7.89173e-05 4.4391e-05 1.97293e-05 4.93233e-06 0 0 2.07727e-06 8.30907e-06 1.86954e-05 3.32363e-05 5.19317e-05 7.47816e-05 0.000101786 0.000132945 0.000167026 0.000202796 0.000240255 0.000279404 0.000320242 0.000362769 0.000406985 0.00045289 0.00050072 0.00055071 0.000602859 0.000657169 0.000713638 0.000772266 0.000833055 0.000896003 0.000960905 0.00102755 0.00109595 0.00116609 0.00123799 0.00131162 0.00138701 0.00146414 0.00154258 0.00162186 0.00170199 0.00178297 0.00186481 0.00194749 0.00203102 0.0021154 0.00219999 0.00228415 0.00236788 0.00245118 0.00253405 0.00261649 0.0026985 0.00278008 0.0028605 0.00293902 0.00301564 0.00309036 0.00316319 0.00323412 0.00330315 0.00337029 0.00343483 0.0034961 0.00355409 0.0036088 0.00366023 0.00370838 0.00375325 0.00379484 0.00383265 0.00386617 0.00389539 0.00392032 0.00394097 0.00395732 0.00396937 0.00397714 0.00398041 0.00397897 0.00397283 0.00396198 0.00394643 0.00392617 0.0039012 0.00387153 0.00383731 0.00379869 0.00375567 0.00370825 0.00365643 0.00360022 0.0035396 0.00347459 0.0034057 0.00333345 0.00325784 0.00317887 0.00309654 0.00301085 0.0029218 0.00282938 0.00273445 0.00263784 0.00253955 0.00243958 0.00233794 0.00223461 0.0021296 0.00202292 0.00191562 0.00180877 0.00170237 0.00159642 0.00149092 0.00138588 0.00128128 0.00117714 0.00107376 0.000971482 0.000870293 0.000770196 0.000671191 0.000573278 0.000476458 0.000380729 0.000291496 0.00021416 0.000148722 9.51823e-05 5.354e-05 2.37956e-05 5.94889e-06 0 0 2.45618e-06 9.82473e-06 2.21056e-05 3.92989e-05 6.14046e-05 8.84226e-05 0.000120353 0.000157196 0.000197478 0.000239727 0.000283943 0.000330125 0.000378275 0.00042839 0.000480473 0.000534523 0.000590816 0.000649631 0.000710967 0.000774825 0.000841204 0.000910104 0.000981525 0.00105547 0.00113169 0.00120995 0.00129024 0.00137257 0.00145694 0.00154334 0.00163177 0.00172225 0.00181423 0.0019072 0.00200115 0.00209609 0.00219201 0.00228892 0.00238681 0.00248569 0.00258481 0.00268341 0.0027815 0.00287908 0.00297614 0.0030727 0.00316874 0.00326426 0.00335842 0.00345035 0.00354006 0.00362753 0.00371278 0.0037958 0.00387659 0.00395516 0.00403068 0.00410237 0.00417021 0.00423421 0.00429437 0.00435068 0.00440315 0.00445178 0.00449597 0.00453514 0.00456927 0.00459839 0.00462248 0.00464154 0.00465557 0.00466458 0.00466832 0.00466655 0.00465927 0.00464649 0.00462819 0.00460438 0.00457506 0.00454023 0.00450007 0.00445476 0.0044043 0.00434869 0.00428794 0.00422203 0.00415097 0.00407476 0.00399401 0.00390932 0.0038207 0.00372814 0.00363165 0.00353122 0.00342686 0.00331856 0.00320731 0.00309409 0.00297889 0.00286173 0.0027426 0.00262149 0.00249842 0.00237337 0.0022476 0.00212236 0.00199763 0.00187342 0.00174973 0.00162656 0.00150392 0.00138179 0.00126056 0.00114058 0.00102186 0.000904404 0.000788206 0.000673266 0.000559586 0.000447165 0.000342361 0.00025153 0.000174674 0.000111791 6.28826e-05 2.79478e-05 6.98695e-06 0 0 2.85019e-06 1.14008e-05 2.56517e-05 4.56031e-05 7.12548e-05 0.000102607 0.000139659 0.000182412 0.000229137 0.000278103 0.000329312 0.000382764 0.000438458 0.000496394 0.000556573 0.000618994 0.000683978 0.000751845 0.000822597 0.000896232 0.000972751 0.00105215 0.00113444 0.00121961 0.00130738 0.00139748 0.0014899 0.00158464 0.00168171 0.0017811 0.00188281 0.00198684 0.0020926 0.00219947 0.00230746 0.00241657 0.00252679 0.00263813 0.00275059 0.00286416 0.002978 0.00309123 0.00320387 0.0033159 0.00342734 0.00353818 0.00364842 0.00375806 0.00386612 0.00397161 0.00407454 0.0041749 0.0042727 0.00436793 0.0044606 0.00455071 0.00463732 0.00471952 0.00479731 0.00487068 0.00493963 0.00500417 0.00506429 0.00512 0.00517062 0.00521546 0.00525454 0.00528784 0.00531538 0.00533714 0.00535314 0.00536337 0.00536755 0.0053654 0.00535693 0.00534214 0.00532103 0.00529359 0.00525983 0.00521975 0.00517354 0.00512143 0.00506341 0.00499948 0.00492964 0.00485389 0.00477223 0.00468465 0.00459187 0.00449456 0.00439274 0.0042864 0.00417555 0.00406017 0.00394028 0.00381587 0.00368806 0.00355799 0.00342566 0.00329105 0.00315418 0.00301505 0.00287364 0.00272997 0.00258546 0.00244154 0.00229821 0.00215546 0.0020133 0.00187173 0.00173075 0.00159036 0.00145096 0.00131299 0.00117644 0.00104131 0.000907597 0.000775304 0.00064443 0.000514977 0.000394279 0.000289674 0.000201163 0.000128744 7.24186e-05 3.2186e-05 8.04651e-06 0 0 3.2593e-06 1.30372e-05 2.93337e-05 5.21488e-05 8.14825e-05 0.000117335 0.000159706 0.000208595 0.000262002 0.000317925 0.000376364 0.00043732 0.000500791 0.000566779 0.000635283 0.000706303 0.000780205 0.000857353 0.000937749 0.00102139 0.00110828 0.00119842 0.0012918 0.00138843 0.00148799 0.00159015 0.00169493 0.00180231 0.00191231 0.00202491 0.00214012 0.00225794 0.00237769 0.00249868 0.00262092 0.00274441 0.00286914 0.00299512 0.00312234 0.00325082 0.00337957 0.00350762 0.00363499 0.00376167 0.00388766 0.00401295 0.00413755 0.00426147 0.00438358 0.00450279 0.00461908 0.00473247 0.00484295 0.00495053 0.00505519 0.00515695 0.00525475 0.00534756 0.00543537 0.00551819 0.00559602 0.00566884 0.00573668 0.00579951 0.00585659 0.00590714 0.00595118 0.00598869 0.00601967 0.00604414 0.00606208 0.0060735 0.00607808 0.00607552 0.00606581 0.00604896 0.00602496 0.00599381 0.00595552 0.00591008 0.00585773 0.0057987 0.00573299 0.0056606 0.00558154 0.00549579 0.00540337 0.00530427 0.00519928 0.00508917 0.00497396 0.00485365 0.00472822 0.00459769 0.00446205 0.0043213 0.00417672 0.00402956 0.00387984 0.00372755 0.00357269 0.00341527 0.00325527 0.00309271 0.00292919 0.00276632 0.00260411 0.00244255 0.00228164 0.00212138 0.00196178 0.00180283 0.00164499 0.00148872 0.00133403 0.00118091 0.00102937 0.000879392 0.000730991 0.000584164 0.00044725 0.000328592 0.000228189 0.000146041 8.2148e-05 3.65102e-05 9.12756e-06 0 0 3.6835e-06 1.4734e-05 3.31515e-05 5.8936e-05 9.20875e-05 0.000132606 0.000180491 0.000235744 0.000296074 0.000359192 0.000425098 0.000493793 0.000565275 0.000639546 0.000716605 0.000796451 0.000879498 0.000966155 0.00105642 0.0011503 0.00124779 0.00134889 0.0014536 0.00156192 0.0016735 0.00178796 0.00190532 0.00202558 0.00214873 0.00227477 0.0024037 0.00253553 0.00266949 0.00280483 0.00294153 0.00307961 0.00321906 0.00335988 0.00350208 0.00364565 0.00378951 0.00393258 0.00407487 0.00421637 0.00435708 0.00449701 0.00463614 0.00477449 0.00491082 0.00504389 0.0051737 0.00530025 0.00542354 0.00554358 0.00566035 0.00577387 0.00588297 0.00598648 0.00608441 0.00617676 0.00626352 0.0063447 0.0064203 0.00649031 0.00655389 0.00661018 0.00665919 0.00670092 0.00673536 0.00676251 0.00678239 0.00679497 0.00679993 0.00679691 0.00678591 0.00676693 0.00673997 0.00670504 0.00666212 0.00661123 0.00655263 0.00648656 0.00641304 0.00633207 0.00624364 0.00614775 0.00604441 0.00593361 0.00581623 0.00569315 0.00556436 0.00542987 0.00528968 0.00514378 0.00499217 0.00483486 0.00467327 0.0045088 0.00434145 0.00417123 0.00399813 0.00382216 0.00364331 0.00346159 0.00327879 0.0030967 0.00291533 0.00273468 0.00255474 0.00237551 0.002197 0.00201921 0.00184263 0.00166777 0.00149463 0.00132321 0.00115351 0.00098553 0.000819269 0.000654727 0.000501275 0.000368284 0.000255753 0.000163682 9.2071e-05 4.09204e-05 1.02301e-05 0 0 4.12279e-06 1.64912e-05 3.71051e-05 6.59647e-05 0.00010307 0.000148421 0.000202017 0.000263859 0.000331353 0.000401905 0.000475515 0.000552183 0.00063191 0.000714694 0.000800537 0.000889438 0.000981856 0.00107825 0.00117862 0.00128296 0.00139128 0.00150358 0.00161985 0.00174009 0.00186392 0.00199091 0.00212109 0.00225444 0.00239097 0.00253068 0.00267356 0.00281962 0.00296802 0.00311791 0.00326929 0.00342218 0.00357655 0.00373243 0.0038898 0.00404866 0.00420783 0.00436611 0.0045235 0.00468001 0.00483562 0.00499035 0.00514418 0.00529713 0.00544783 0.00559491 0.00573838 0.00587823 0.00601446 0.00614709 0.00627609 0.00640148 0.00652198 0.00663629 0.00674443 0.00684638 0.00694216 0.00703175 0.00711517 0.0071924 0.00726252 0.00732458 0.00737859 0.00742454 0.00746244 0.00749228 0.00751406 0.00752779 0.00753309 0.00752956 0.00751722 0.00749605 0.00746607 0.00742727 0.00737965 0.00732321 0.00725824 0.00718502 0.00710357 0.00701387 0.00691594 0.00680976 0.00669534 0.00657268 0.00644274 0.00630649 0.00616394 0.00601508 0.00585991 0.00569843 0.00553065 0.00535656 0.00517772 0.00499569 0.00481048 0.00462208 0.00443049 0.00423572 0.00403776 0.00383661 0.00363426 0.00343268 0.00323188 0.00303185 0.0028326 0.00263412 0.00243642 0.00223949 0.00204388 0.00185013 0.00165824 0.00146821 0.00128003 0.00109372 0.000909262 0.000726666 0.000556354 0.00040875 0.000283854 0.000181666 0.000102187 4.54166e-05 1.13542e-05 0 0 4.57718e-06 1.83087e-05 4.11946e-05 7.32349e-05 0.00011443 0.000164779 0.000224282 0.00029294 0.000367838 0.000446062 0.000527613 0.000612491 0.000700694 0.000792225 0.000887081 0.000985264 0.00108728 0.00119364 0.00130434 0.00141938 0.00153876 0.00166248 0.00179054 0.00192294 0.00205924 0.002199 0.00234222 0.0024889 0.00263904 0.00279264 0.00294969 0.00311021 0.00327326 0.00343792 0.00360421 0.0037721 0.00394162 0.00411275 0.0042855 0.00445986 0.00463453 0.00480821 0.00498089 0.00515258 0.00532327 0.00549297 0.00566168 0.00582939 0.00599461 0.00615585 0.00631312 0.00646641 0.00661572 0.00676105 0.00690241 0.00703978 0.00717178 0.00729699 0.00741541 0.00752705 0.00763191 0.00772999 0.00782127 0.00790578 0.00798248 0.00805034 0.00810936 0.00815955 0.00820091 0.00823343 0.00825711 0.00827196 0.00827756 0.00827349 0.00825975 0.00823634 0.00820326 0.00816051 0.00810809 0.008046 0.00797456 0.00789408 0.00780457 0.00770602 0.00759843 0.00748181 0.00735616 0.00722146 0.0070788 0.00692921 0.0067727 0.00660927 0.00643893 0.00626166 0.00607748 0.00588638 0.00569007 0.00549025 0.00528693 0.00508011 0.00486978 0.00465595 0.00443861 0.00421777 0.0039956 0.00377426 0.00355375 0.00333407 0.00311523 0.00289721 0.00268003 0.00246369 0.00224875 0.00203581 0.00182486 0.0016159 0.00140893 0.00120396 0.00100097 0.000799981 0.000612485 0.000449989 0.000312492 0.000199995 0.000112497 4.99988e-05 1.24997e-05 0 0 5.04782e-06 2.01913e-05 4.54304e-05 8.07651e-05 0.000126195 0.000181721 0.000247343 0.00032306 0.000405622 0.000491778 0.000581528 0.000674872 0.00077181 0.000872342 0.000976468 0.00108419 0.00119606 0.00131264 0.00143392 0.00155992 0.00169062 0.00182603 0.00196614 0.00211097 0.00226001 0.0024128 0.00256933 0.00272959 0.0028936 0.00306134 0.00323283 0.00340805 0.00358601 0.0037657 0.00394713 0.00413029 0.00431518 0.0045018 0.00469016 0.00488025 0.00507065 0.00525994 0.00544813 0.00563521 0.00582119 0.00600606 0.00618983 0.00637248 0.00655242 0.006728 0.00689923 0.00706611 0.00722865 0.00738684 0.00754067 0.00769016 0.00783377 0.00796999 0.00809881 0.00822023 0.00833426 0.00844088 0.00854011 0.00863194 0.00871526 0.00878895 0.00885302 0.00890747 0.00895228 0.00898747 0.00901304 0.00902898 0.00903485 0.00903018 0.00901498 0.00898925 0.00895299 0.00890621 0.00884889 0.00878104 0.008703 0.00861513 0.00851741 0.00840985 0.00829246 0.00816522 0.00802815 0.00788123 0.00772562 0.00756248 0.0073918 0.00721358 0.00702782 0.00683452 0.00663369 0.00642531 0.00621126 0.00599338 0.00577167 0.00554613 0.00531677 0.00508358 0.00484657 0.00460573 0.00436342 0.004122 0.00388146 0.00364182 0.00340306 0.00316519 0.0029282 0.00269211 0.00245752 0.00222505 0.0019947 0.00176647 0.00154036 0.00131637 0.0010945 0.000874751 0.000669731 0.000492047 0.0003417 0.000218688 0.000123012 5.46719e-05 1.3668e-05 0 0 5.53585e-06 2.21434e-05 4.98226e-05 8.85736e-05 0.000138396 0.000199291 0.000271257 0.000354294 0.000444799 0.000539166 0.000637395 0.000739486 0.000845439 0.000955254 0.00106893 0.00118647 0.00130848 0.00143556 0.00156773 0.00170496 0.00184728 0.00199467 0.00214713 0.00230467 0.00246676 0.00263287 0.002803 0.00297715 0.00315531 0.0033375 0.0035237 0.00371392 0.00390708 0.00410208 0.00429893 0.00449762 0.00469815 0.00490054 0.00510477 0.00531084 0.00551723 0.00572239 0.00592633 0.00612904 0.00633053 0.0065308 0.00672984 0.00692766 0.0071225 0.00731262 0.00749801 0.00767866 0.0078546 0.0080258 0.00819227 0.00835402 0.00850939 0.00865674 0.00879607 0.00892737 0.00905066 0.00916592 0.00927316 0.00937238 0.00946237 0.00954194 0.00961108 0.00966979 0.00971808 0.00975593 0.00978336 0.00980036 0.00980645 0.00980113 0.00978441 0.00975628 0.00971675 0.00966582 0.00960349 0.00952975 0.00944498 0.00934955 0.00924347 0.00912673 0.00899933 0.00886128 0.00871258 0.00855322 0.00838444 0.0082075 0.00802239 0.00782912 0.00762768 0.00741807 0.00720029 0.00697435 0.00674224 0.00650598 0.00626556 0.00602099 0.00577226 0.00551937 0.00526233 0.00500113 0.00473833 0.00447647 0.00421555 0.00395557 0.00369653 0.00343843 0.00318128 0.00292507 0.00267046 0.00241809 0.00216796 0.00192009 0.00167446 0.00143108 0.00118994 0.000951057 0.000728153 0.000534969 0.000371507 0.000237764 0.000133742 5.9441e-05 1.48603e-05 0 0 6.04128e-06 2.41651e-05 5.43715e-05 9.66605e-05 0.000151032 0.000217486 0.000296023 0.000386642 0.000485368 0.000588224 0.000695212 0.00080633 0.000921579 0.00104096 0.00116447 0.00129211 0.00142454 0.00156242 0.00170574 0.00185451 0.00200873 0.0021684 0.00233351 0.00250407 0.0026795 0.00285922 0.00304325 0.00323157 0.00342419 0.0036211 0.00382231 0.00402782 0.00423646 0.00444705 0.00465959 0.00487409 0.00509055 0.00530896 0.00552932 0.00575164 0.00597427 0.00619555 0.00641547 0.00663406 0.00685129 0.00706718 0.00728172 0.00749491 0.00770487 0.00790972 0.00810945 0.00830406 0.00849356 0.00867794 0.00885721 0.00903136 0.00919862 0.00935723 0.00950718 0.00964848 0.00978111 0.0099051 0.0100204 0.0101271 0.0102238 0.0103093 0.0103835 0.0104465 0.0104983 0.0105388 0.0105681 0.0105861 0.0105924 0.0105863 0.010568 0.0105374 0.0104945 0.0104394 0.0103719 0.0102921 0.0102005 0.0100974 0.00998274 0.00985664 0.00971906 0.00957 0.00940946 0.00923743 0.00905525 0.00886427 0.00866449 0.0084559 0.0082385 0.0080123 0.00777729 0.00753348 0.00728302 0.00702806 0.00676861 0.00650467 0.00623624 0.00596332 0.0056859 0.00540399 0.00512033 0.00483767 0.004556 0.00427532 0.00399565 0.00371696 0.00343927 0.00316258 0.00288757 0.00261493 0.00234466 0.00207677 0.00181124 0.00154809 0.00128731 0.0010289 0.00078775 0.000578755 0.000401913 0.000257224 0.000144689 6.43061e-05 1.60765e-05 0 0 6.56411e-06 2.62564e-05 5.9077e-05 0.000105026 0.000164103 0.000236308 0.000321641 0.000420103 0.000527329 0.000638954 0.00075498 0.000875406 0.00100023 0.00112946 0.00126308 0.00140111 0.00154425 0.0016932 0.00184798 0.00200857 0.00217498 0.00234722 0.00252527 0.00270914 0.00289821 0.00309185 0.00329006 0.00349285 0.00370021 0.00391215 0.00412866 0.00434974 0.00457415 0.00480061 0.00502913 0.00525971 0.00549236 0.00572706 0.00596383 0.00620265 0.00644177 0.00667941 0.00691558 0.00715026 0.00738347 0.00761521 0.00784546 0.00807424 0.00829952 0.00851929 0.00873355 0.0089423 0.00914554 0.00934326 0.00953547 0.00972217 0.00990147 0.0100715 0.0102322 0.0103835 0.0105256 0.0106584 0.0107819 0.0108961 0.0109996 0.011091 0.0111704 0.0112377 0.0112929 0.0113361 0.0113672 0.0113862 0.0113926 0.0113858 0.0113658 0.0113327 0.0112863 0.0112268 0.0111541 0.0110682 0.0109695 0.0108585 0.0107352 0.0105996 0.0104516 0.0102914 0.0101188 0.00993386 0.00973806 0.0095328 0.00931808 0.00909392 0.0088603 0.00861722 0.00836469 0.00810271 0.00783358 0.00755962 0.00728082 0.00699718 0.00670871 0.00641541 0.00611727 0.00581429 0.00550942 0.0052056 0.00490282 0.00460109 0.00430041 0.00400077 0.00370218 0.00340463 0.00310886 0.00281558 0.00252479 0.0022365 0.0019507 0.0016674 0.00138659 0.00110827 0.000848523 0.000623404 0.00043292 0.000277069 0.000155851 6.92671e-05 1.73168e-05 0 0 7.10433e-06 2.84173e-05 6.3939e-05 0.000113669 0.000177608 0.000255756 0.000348112 0.000454677 0.000570681 0.000691356 0.0008167 0.000946714 0.0010814 0.00122075 0.00136477 0.00151347 0.00166759 0.00182791 0.00199443 0.00216713 0.00234603 0.00253113 0.00272241 0.00291989 0.0031229 0.00333075 0.00354345 0.003761 0.0039834 0.00421065 0.00444275 0.00467969 0.00492015 0.00516276 0.00540754 0.00565448 0.00590359 0.00615485 0.00640828 0.00666387 0.00691974 0.00717399 0.00742663 0.00767766 0.00792708 0.00817488 0.00842107 0.00866564 0.00890645 0.00914135 0.00937033 0.00959339 0.00981053 0.0100218 0.0102271 0.0104265 0.0106179 0.0107994 0.010971 0.