<?xml version="1.0"?> 
<VTKFile type="StructuredGrid" version="0.1"> 
<StructuredGrid WholeExtent="0 128 0 128 0 0"> 
<Piece Extent="0 128 0 128 0 0"> 
<PointData>
<DataArray type="Float32" Name="u" format="ascii" NumberOfComponents="1"> 
0 0 0 0 0 0 0 0 0 0 0 0 0 0 0 0 0 0 0 0 0 0 0 0 0 0 0 0 0 0 0 0 0 0 0 0 0 0 0 0 0 0 0 0 0 0 0 0 0 0 0 0 0 0 0 0 0 0 0 0 0 0 0 0 0 0 0 0 0 0 0 0 0 0 0 0 0 0 0 0 0 0 0 0 0 0 0 0 0 0 0 0 0 0 0 0 0 0 0 0 0 0 0 0 0 0 0 0 0 0 0 0 0 0 0 0 0 0 0 0 0 0 0 0 0 0 0 0 0 0 4.04513e-08 1.61805e-07 3.64062e-07 6.47221e-07 1.01128e-06 1.45625e-06 1.98211e-06 2.58888e-06 3.24353e-06 3.91302e-06 4.59737e-06 5.29656e-06 6.01061e-06 6.7395e-06 7.48325e-06 8.24184e-06 9.01579e-06 9.80558e-06 1.06112e-05 1.14327e-05 1.22701e-05 1.31233e-05 1.39923e-05 1.48772e-05 1.57726e-05 1.66733e-05 1.75791e-05 1.84902e-05 1.94065e-05 2.03281e-05 2.12548e-05 2.21868e-05 2.31184e-05 2.4044e-05 2.49635e-05 2.58771e-05 2.67846e-05 2.76861e-05 2.85817e-05 2.94712e-05 3.0349e-05 3.12095e-05 3.20527e-05 3.28786e-05 3.36871e-05 3.44784e-05 3.52523e-05 3.60089e-05 3.67428e-05 3.74487e-05 3.81267e-05 3.87767e-05 3.93986e-05 3.99926e-05 4.05586e-05 4.10966e-05 4.16021e-05 4.20708e-05 4.25026e-05 4.28975e-05 4.32554e-05 4.35765e-05 4.38607e-05 4.4108e-05 4.43156e-05 4.44804e-05 4.46026e-05 4.46822e-05 4.4719e-05 4.47132e-05 4.46647e-05 4.45736e-05 4.44391e-05 4.42606e-05 4.4038e-05 4.37714e-05 4.34608e-05 4.31062e-05 4.27075e-05 4.22648e-05 4.17801e-05 4.12553e-05 4.06906e-05 4.00858e-05 3.94411e-05 3.87563e-05 3.80315e-05 3.72667e-05 3.64668e-05 3.56368e-05 3.47766e-05 3.38863e-05 3.29659e-05 3.20153e-05 3.10346e-05 3.00237e-05 2.89906e-05 2.79429e-05 2.68808e-05 2.58041e-05 2.4713e-05 2.36074e-05 2.24873e-05 2.13527e-05 2.02138e-05 1.90809e-05 1.79539e-05 1.68328e-05 1.57177e-05 1.46086e-05 1.35054e-05 1.24081e-05 1.13195e-05 1.02421e-05 9.17609e-06 8.12136e-06 7.07793e-06 6.04581e-06 5.02499e-06 4.01547e-06 3.07434e-06 2.2587e-06 1.56854e-06 1.00387e-06 5.64675e-07 2.50967e-07 6.27417e-08 0 0 1.61805e-07 6.47221e-07 1.45625e-06 2.58888e-06 4.04513e-06 5.82499e-06 7.92845e-06 1.03555e-05 1.29741e-05 1.56521e-05 1.83895e-05 2.11863e-05 2.40424e-05 2.6958e-05 2.9933e-05 3.29674e-05 3.60632e-05 3.92223e-05 4.24449e-05 4.57309e-05 4.90802e-05 5.2493e-05 5.59692e-05 5.95087e-05 6.30904e-05 6.6693e-05 7.03165e-05 7.39609e-05 7.76261e-05 8.13123e-05 8.50193e-05 8.87472e-05 9.24736e-05 9.61759e-05 9.98541e-05 0.000103508 0.000107138 0.000110745 0.000114327 0.000117885 0.000121396 0.000124838 0.000128211 0.000131514 0.000134749 0.000137913 0.000141009 0.000144035 0.000146971 0.000149795 0.000152507 0.000155107 0.000157595 0.00015997 0.000162234 0.000164386 0.000166409 0.000168283 0.00017001 0.00017159 0.000173022 0.000174306 0.000175443 0.000176432 0.000177262 0.000177922 0.000178411 0.000178729 0.000178876 0.000178853 0.000178659 0.000178294 0.000177756 0.000177042 0.000176152 0.000175086 0.000173843 0.000172425 0.00017083 0.000169059 0.00016712 0.000165021 0.000162762 0.000160343 0.000157764 0.000155025 0.000152126 0.000149067 0.000145867 0.000142547 0.000139107 0.000135545 0.000131864 0.000128061 0.000124138 0.000120095 0.000115962 0.000111772 0.000107523 0.000103216 9.8852e-05 9.44295e-05 8.9949e-05 8.54106e-05 8.08551e-05 7.63234e-05 7.18155e-05 6.73313e-05 6.28709e-05 5.84343e-05 5.40215e-05 4.96324e-05 4.52779e-05 4.09685e-05 3.67044e-05 3.24854e-05 2.83117e-05 2.41832e-05 2.00999e-05 1.60619e-05 1.22974e-05 9.0348e-06 6.27417e-06 4.01547e-06 2.2587e-06 1.00387e-06 2.50967e-07 0 0 3.64062e-07 1.45625e-06 3.27656e-06 5.82499e-06 9.10154e-06 1.31062e-05 1.7839e-05 2.32999e-05 2.91918e-05 3.52172e-05 4.13763e-05 4.76691e-05 5.40955e-05 6.06555e-05 6.73492e-05 7.41766e-05 8.11421e-05 8.82502e-05 9.5501e-05 0.000102894 0.000110431 0.000118109 0.000125931 0.000133895 0.000141953 0.000150059 0.000158212 0.000166412 0.000174659 0.000182953 0.000191293 0.000199681 0.000208066 0.000216396 0.000224672 0.000232894 0.000241062 0.000249175 0.000257235 0.00026524 0.000273141 0.000280886 0.000288474 0.000295907 0.000303184 0.000310305 0.000317271 0.00032408 0.000330685 0.000337039 0.00034314 0.00034899 0.000354588 0.000359933 0.000365027 0.000369869 0.000374419 0.000378637 0.000382523 0.000386077 0.000389299 0.000392189 0.000394747 0.000396972 0.00039884 0.000400324 0.000401424 0.000402139 0.000402471 0.000402419 0.000401982 0.000401162 0.000399952 0.000398345 0.000396342 0.000393943 0.000391147 0.000387955 0.000384367 0.000380383 0.000376021 0.000371298 0.000366215 0.000360773 0.00035497 0.000348807 0.000342283 0.0003354 0.000328201 0.000320731 0.00031299 0.000304977 0.000296693 0.000288138 0.000279311 0.000270214 0.000260915 0.000251486 0.000241927 0.000232237 0.000222417 0.000212466 0.000202385 0.000192174 0.000181924 0.000171728 0.000161585 0.000151495 0.00014146 0.000131477 0.000121548 0.000111673 0.000101875 9.21792e-05 8.25848e-05 7.30923e-05 6.37014e-05 5.44123e-05 4.52249e-05 3.61392e-05 2.76691e-05 2.03283e-05 1.41169e-05 9.0348e-06 5.08208e-06 2.2587e-06 5.64675e-07 0 0 6.47221e-07 2.58888e-06 5.82499e-06 1.03555e-05 1.61805e-05 2.32999e-05 3.17138e-05 4.14221e-05 5.18965e-05 6.26084e-05 7.35579e-05 8.4745e-05 9.61698e-05 0.000107832 0.000119732 0.000131869 0.000144253 0.000156889 0.00016978 0.000182923 0.000196321 0.000209972 0.000223877 0.000238035 0.000252362 0.000266772 0.000281266 0.000295844 0.000310505 0.000325249 0.000340077 0.000354989 0.000369894 0.000384703 0.000399416 0.000414033 0.000428554 0.000442978 0.000457307 0.000471539 0.000485584 0.000499352 0.000512843 0.000526057 0.000538994 0.000551654 0.000564036 0.000576142 0.000587885 0.00059918 0.000610027 0.000620427 0.000630378 0.000639882 0.000648937 0.000657545 0.000665634 0.000673133 0.000680041 0.000686359 0.000692087 0.000697225 0.000701772 0.000705729 0.000709049 0.000711687 0.000713642 0.000714914 0.000715504 0.000715411 0.000714636 0.000713177 0.000711025 0.000708169 0.000704608 0.000700343 0.000695373 0.000689699 0.00068332 0.000676237 0.000668481 0.000660085 0.000651049 0.000641373 0.000631057 0.000620101 0.000608504 0.000596267 0.000583469 0.000570189 0.000556426 0.000542181 0.000527454 0.000512245 0.000496554 0.00048038 0.000463849 0.000447087 0.000430092 0.000412866 0.000395408 0.000377718 0.000359796 0.000341643 0.000323421 0.000305294 0.000287262 0.000269325 0.000251484 0.000233737 0.000216086 0.00019853 0.000181111 0.000163874 0.000146817 0.000129942 0.000113247 9.67329e-05 8.03998e-05 6.42475e-05 4.91895e-05 3.61392e-05 2.50967e-05 1.60619e-05 9.0348e-06 4.01547e-06 1.00387e-06 0 0 1.01128e-06 4.04513e-06 9.10154e-06 1.61805e-05 2.52821e-05 3.64062e-05 4.95528e-05 6.47221e-05 8.10882e-05 9.78256e-05 0.000114934 0.000132414 0.000150265 0.000168488 0.000187081 0.000206046 0.000225395 0.00024514 0.000265281 0.000285818 0.000306751 0.000328081 0.000349807 0.00037193 0.000394315 0.000416831 0.000439478 0.000462255 0.000485163 0.000508202 0.000531371 0.00055467 0.00057796 0.000601099 0.000624088 0.000646927 0.000669615 0.000692154 0.000714541 0.000736779 0.000758725 0.000780238 0.000801318 0.000821965 0.000842178 0.000861959 0.000881307 0.000900222 0.00091857 0.000936219 0.000953167 0.000969416 0.000984966 0.000999815 0.00101396 0.00102741 0.00104005 0.00105177 0.00106256 0.00107244 0.00108139 0.00108941 0.00109652 0.0011027 0.00110789 0.00111201 0.00111507 0.00111705 0.00111798 0.00111783 0.00111662 0.00111434 0.00111098 0.00110651 0.00110095 0.00109429 0.00108652 0.00107765 0.00106769 0.00105662 0.0010445 0.00103138 0.00101726 0.00100215 0.000986027 0.000968907 0.000950787 0.000931667 0.00091167 0.00089092 0.000869416 0.000847159 0.000824148 0.000800383 0.000775865 0.000750594 0.000724764 0.000698573 0.000672019 0.000645103 0.000617825 0.000590184 0.000562181 0.000533816 0.000505345 0.000477021 0.000448847 0.000420821 0.000392943 0.000365215 0.000337634 0.000310203 0.000282987 0.000256053 0.000229402 0.000203034 0.000176948 0.000151145 0.000125625 0.000100387 7.68586e-05 5.64675e-05 3.92136e-05 2.50967e-05 1.41169e-05 6.27417e-06 1.56854e-06 0 0 1.45625e-06 5.82499e-06 1.31062e-05 2.32999e-05 3.64062e-05 5.24249e-05 7.13561e-05 9.31998e-05 0.000116767 0.000140869 0.000165505 0.000190676 0.000216382 0.000242622 0.000269397 0.000296706 0.000324568 0.000353001 0.000382004 0.000411578 0.000441722 0.000472437 0.000503722 0.000535579 0.000567814 0.000600237 0.000632849 0.000665648 0.000698635 0.00073181 0.000765174 0.000798725 0.000832262 0.000865583 0.000898687 0.000931575 0.000964246 0.000996701 0.00102894 0.00106096 0.00109256 0.00112354 0.0011539 0.00118363 0.00121274 0.00124122 0.00126908 0.00129632 0.00132274 0.00134815 0.00137256 0.00139596 0.00141835 0.00143973 0.00146011 0.00147948 0.00149768 0.00151455 0.00153009 0.00154431 0.0015572 0.00156876 0.00157899 0.00158789 0.00159536 0.0016013 0.00160569 0.00160856 0.00160988 0.00160968 0.00160793 0.00160465 0.00159981 0.00159338 0.00158537 0.00157577 0.00156459 0.00155182 0.00153747 0.00152153 0.00150408 0.00148519 0.00146486 0.00144309 0.00141988 0.00139523 0.00136913 0.0013416 0.00131281 0.00128292 0.00125196 0.00121991 0.00118677 0.00115255 0.00111725 0.00108085 0.00104366 0.00100594 0.000967707 0.000928948 0.000889668 0.000849865 0.000809541 0.000768696 0.000727696 0.000686911 0.000646339 0.000605982 0.000565838 0.000525909 0.000486193 0.000446692 0.000407501 0.000368717 0.000330339 0.000292369 0.000254806 0.000217649 0.0001809 0.000144557 0.000110676 8.13132e-05 5.64675e-05 3.61392e-05 2.03283e-05 9.0348e-06 2.2587e-06 0 0 1.98211e-06 7.92845e-06 1.7839e-05 3.17138e-05 4.95528e-05 7.13561e-05 9.71236e-05 0.000126855 0.000158933 0.000191738 0.000225271 0.000259532 0.00029452 0.000330236 0.000366679 0.00040385 0.000441774 0.000480473 0.00051995 0.000560203 0.000601233 0.000643039 0.000685622 0.000728982 0.000772858 0.00081699 0.000861377 0.000906021 0.00095092 0.000996075 0.00104149 0.00108715 0.0011328 0.00117815 0.00122321 0.00126798 0.00131245 0.00135662 0.0014005 0.00144409 0.0014871 0.00152927 0.00157058 0.00161105 0.00165067 0.00168944 0.00172736 0.00176443 0.0018004 0.00183499 0.00186821 0.00190006 0.00193053 0.00195964 0.00198737 0.00201373 0.0020385 0.00206147 0.00208263 0.00210198 0.00211952 0.00213525 0.00214918 0.00216129 0.00217146 0.00217954 0.00218553 0.00218943 0.00219123 0.00219095 0.00218857 0.00218411 0.00217751 0.00216877 0.00215786 0.0021448 0.00212958 0.0021122 0.00209267 0.00207097 0.00204722 0.00202151 0.00199384 0.00196421 0.00193261 0.00189906 0.00186354 0.00182607 0.00178687 0.0017462 0.00170406 0.00166043 0.00161533 0.00156875 0.0015207 0.00147116 0.00142054 0.0013692 0.00131716 0.0012644 0.00121094 0.00115676 0.00110188 0.00104628 0.000990475 0.000934962 0.00087974 0.000824809 0.000770169 0.00071582 0.000661763 0.000607997 0.000554654 0.000501864 0.000449629 0.000397947 0.000346819 0.000296245 0.000246224 0.000196758 0.000150643 0.000110676 7.68586e-05 4.91895e-05 2.76691e-05 1.22974e-05 3.07434e-06 0 0 2.58888e-06 1.03555e-05 2.32999e-05 4.14221e-05 6.47221e-05 9.31998e-05 0.000126855 0.000165689 0.000207586 0.000250434 0.000294232 0.00033898 0.000384679 0.000431328 0.000478928 0.000527478 0.00057701 0.000627557 0.000679118 0.000731694 0.000785284 0.000839888 0.000895507 0.00095214 0.00100945 0.00106709 0.00112506 0.00118337 0.00124202 0.001301 0.00136031 0.00141996 0.00147958 0.00153881 0.00159767 0.00165613 0.00171422 0.00177191 0.00182923 0.00188615 0.00194234 0.00199741 0.00205137 0.00210423 0.00215598 0.00220662 0.00225615 0.00230457 0.00235154 0.00239672 0.00244011 0.00248171 0.00252151 0.00255953 0.00259575 0.00263018 0.00266254 0.00269253 0.00272016 0.00274544 0.00276835 0.0027889 0.00280709 0.00282291 0.0028362 0.00284675 0.00285457 0.00285966 0.00286202 0.00286164 0.00285854 0.00285271 0.0028441 0.00283268 0.00281843 0.00280137 0.00278149 0.00275879 0.00273328 0.00270495 0.00267392 0.00264034 0.0026042 0.00256549 0.00252423 0.0024804 0.00243402 0.00238507 0.00233388 0.00228076 0.0022257 0.00216873 0.00210982 0.00204898 0.00198621 0.00192152 0.0018554 0.00178835 0.00172037 0.00165146 0.00158163 0.00151087 0.00143918 0.00136657 0.00129368 0.00122117 0.00114905 0.0010773 0.00100593 0.000934949 0.000864344 0.000794119 0.000724446 0.000655496 0.00058727 0.000519767 0.000452988 0.000386932 0.000321599 0.00025699 0.000196758 0.000144557 0.000100387 6.42475e-05 3.61392e-05 1.60619e-05 4.01547e-06 0 0 3.24278e-06 1.29711e-05 2.9185e-05 5.18845e-05 8.10696e-05 0.00011674 0.000158896 0.000207538 0.000260016 0.000313679 0.000368529 0.000424564 0.000481786 0.000540194 0.000599787 0.000660567 0.000722574 0.000785848 0.00085039 0.0009162 0.000983278 0.00105162 0.00112124 0.00119212 0.00126384 0.00133598 0.00140854 0.00148151 0.0015549 0.00162871 0.00170294 0.00177758 0.00185219 0.00192631 0.00199996 0.00207312 0.0021458 0.002218 0.00228971 0.00236095 0.00243124 0.00250015 0.00256767 0.00263381 0.00269856 0.00276191 0.00282389 0.00288447 0.00294324 0.00299976 0.00305405 0.00310609 0.00315589 0.00320345 0.00324877 0.00329184 0.00333232 0.00336984 0.0034044 0.00343602 0.00346468 0.00349038 0.00351313 0.00353292 0.00354953 0.00356272 0.0035725 0.00357886 0.0035818 0.00358133 0.00357743 0.00357013 0.00355935 0.00354504 0.00352721 0.00350586 0.00348097 0.00345257 0.00342063 0.00338518 0.00334635 0.00330433 0.0032591 0.00321066 0.00315902 0.00310418 0.00304614 0.00298489 0.00292083 0.00285436 0.00278548 0.00271418 0.00264047 0.00256434 0.00248581 0.00240486 0.00232212 0.00223822 0.00215316 0.00206694 0.00197956 0.00189102 0.00180132 0.00171045 0.00161925 0.00152851 0.00143826 0.00134848 0.00125917 0.00117033 0.00108198 0.000994092 0.000906896 0.000820601 0.000735207 0.000650714 0.000567123 0.000484432 0.000402642 0.000321753 0.000246342 0.000180986 0.000125685 8.04383e-05 4.52465e-05 2.01096e-05 5.02739e-06 0 0 3.91004e-06 1.56402e-05 3.51904e-05 6.25606e-05 9.7751e-05 0.000140761 0.000191592 0.000250243 0.000313512 0.000378199 0.000444304 0.000511827 0.000580768 0.000651126 0.000722902 0.000796096 0.000870759 0.000946942 0.00102465 0.00110387 0.00118462 0.00126688 0.00135067 0.00143598 0.0015223 0.00160911 0.00169643 0.00178424 0.00187255 0.00196136 0.00205066 0.00214047 0.00223023 0.00231941 0.002408 0.00249602 0.00258345 0.00267029 0.00275656 0.00284224 0.00292679 0.00300968 0.00309089 0.00317043 0.0032483 0.0033245 0.00339903 0.00347189 0.00354256 0.00361053 0.00367581 0.00373839 0.00379827 0.00385545 0.00390994 0.00396172 0.00401038 0.00405549 0.00409704 0.00413504 0.00416948 0.00420037 0.00422771 0.00425149 0.00427144 0.00428728 0.00429901 0.00430663 0.00431014 0.00430955 0.00430484 0.00429602 0.00428303 0.0042658 0.00424433 0.00421862 0.00418867 0.00415449 0.00411606 0.00407339 0.00402668 0.00397611 0.00392169 0.00386342 0.0038013 0.00373532 0.0036655 0.00359182 0.00351476 0.0034348 0.00335194 0.00326618 0.00317751 0.00308595 0.00299148 0.00289411 0.00279458 0.00269367 0.00259135 0.00248764 0.00238253 0.00227602 0.00216812 0.00205881 0.0019491 0.00183995 0.00173136 0.00162335 0.0015159 0.00140902 0.0013027 0.00119695 0.00109202 0.000988169 0.000885385 0.000783673 0.000683033 0.000583466 0.000484971 0.000387548 0.000296716 0.000217996 0.000151386 9.68869e-05 5.44989e-05 2.42217e-05 6.05543e-06 0 0 4.59066e-06 1.83626e-05 4.13159e-05 7.34505e-05 0.000114766 0.000165264 0.000224942 0.000293802 0.000368075 0.000443994 0.000521558 0.000600768 0.000681624 0.000764125 0.000848271 0.000934063 0.00102156 0.00111084 0.00120189 0.00129471 0.0013893 0.00148567 0.00158381 0.00168373 0.00178482 0.00188649 0.00198873 0.00209156 0.00219496 0.00229893 0.00240349 0.00250862 0.0026137 0.00271809 0.0028218 0.00292482 0.00302715 0.0031288 0.00322976 0.00333004 0.00342899 0.00352599 0.00362102 0.0037141 0.00380522 0.00389438 0.00398158 0.00406682 0.00414951 0.00422903 0.0043054 0.0043786 0.00444865 0.00451554 0.00457926 0.00463983 0.00469674 0.00474949 0.00479808 0.00484251 0.00488277 0.00491888 0.00495083 0.00497862 0.00500192 0.00502042 0.0050341 0.00504298 0.00504705 0.00504631 0.00504076 0.0050304 0.00501516 0.00499496 0.0049698 0.00493967 0.00490459 0.00486455 0.00481955 0.00476959 0.00471489 0.00465569 0.00459198 0.00452377 0.00445105 0.00437382 0.00429209 0.00420585 0.00411566 0.00402208 0.0039251 0.00382472 0.00372095 0.00361378 0.00350322 0.00338927 0.0032728 0.00315469 0.00303494 0.00291356 0.00279054 0.00266588 0.00253959 0.00241165 0.00228323 0.00215547 0.00202836 0.00190192 0.00177613 0.00165099 0.00152652 0.0014027 0.00127983 0.0011582 0.0010378 0.000918642 0.00080072 0.000684034 0.000568585 0.000454373 0.00034788 0.000255585 0.00017749 0.000113593 6.38963e-05 2.83983e-05 7.09958e-06 0 0 5.28463e-06 2.11385e-05 4.75617e-05 8.45541e-05 0.000132116 0.000190247 0.000258947 0.000338216 0.000423705 0.000511063 0.000600291 0.000691388 0.000784354 0.00087919 0.000975896 0.00107447 0.00117499 0.00127754 0.00138211 0.00148871 0.00159734 0.00170799 0.00182066 0.00193536 0.00205141 0.0021681 0.00228545 0.00240346 0.00252212 0.00264144 0.00276142 0.00288204 0.0030026 0.00312237 0.00324135 0.00335953 0.00347692 0.00359352 0.00370933 0.00382434 0.00393784 0.00404908 0.00415807 0.00426481 0.00436931 0.00447155 0.00457154 0.00466928 0.00476408 0.00485526 0.00494281 0.00502673 0.00510703 0.0051837 0.00525675 0.00532617 0.00539139 0.00545184 0.00550751 0.00555841 0.00560455 0.0056459 0.00568249 0.0057143 0.00574097 0.00576213 0.00577777 0.0057879 0.00579251 0.00579161 0.00578519 0.00577326 0.00575573 0.00573251 0.0057036 0.00566901 0.00562873 0.00558276 0.00553111 0.00547377 0.005411 0.00534307 0.00526997 0.00519171 0.00510828 0.00501968 0.00492592 0.00482699 0.00472354 0.00461619 0.00450494 0.00438981 0.00427078 0.00414786 0.00402105 0.00389034 0.00375675 0.00362128 0.00348393 0.0033447 0.00320359 0.0030606 0.00291572 0.00276897 0.00262166 0.00247509 0.00232926 0.00218418 0.00203985 0.00189627 0.00175343 0.00161134 0.00147032 0.00133069 0.00119246 0.00105562 0.000920182 0.000786136 0.000653486 0.00052223 0.000399833 0.000293755 0.000203996 0.000130558 7.34387e-05 3.26394e-05 8.15985e-06 0 0 5.99196e-06 2.39678e-05 5.39276e-05 9.58714e-05 0.000149799 0.000215711 0.000293606 0.000383485 0.000480401 0.000579407 0.000680502 0.000783686 0.00088896 0.000996323 0.00110578 0.00121732 0.00133104 0.00144704 0.00156532 0.00168588 0.00180872 0.00193383 0.00206122 0.00219088 0.00232206 0.00245396 0.00258659 0.00271996 0.00285405 0.00298888 0.00312444 0.00326073 0.00339694 0.00353224 0.00366665 0.00380015 0.00393275 0.00406445 0.00419525 0.00432515 0.00445333 0.00457895 0.00470204 0.00482257 0.00494056 0.005056 0.0051689 0.00527925 0.00538628 0.00548921 0.00558804 0.00568278 0.00577341 0.00585995 0.00594239 0.00602073 0.00609432 0.00616253 0.00622534 0.00628277 0.0063348 0.00638144 0.00642269 0.00645855 0.0064886 0.00651242 0.00653002 0.00654139 0.00654653 0.00654545 0.00653814 0.0065246 0.00650474 0.00647845 0.00644575 0.00640663 0.00636109 0.00630912 0.00625074 0.00618594 0.00611501 0.00603825 0.00595566 0.00586724 0.00577299 0.0056729 0.00556699 0.00545524 0.00533838 0.00521713 0.00509148 0.00496144 0.00482701 0.00468817 0.00454495 0.00439733 0.00424645 0.00409345 0.00393832 0.00378106 0.00362168 0.00346017 0.00329653 0.00313077 0.00296437 0.00279879 0.00263406 0.00247015 0.00230708 0.00214484 0.00198343 0.00182286 0.00166348 0.00150564 0.00134935 0.00119461 0.00104142 0.000889772 0.000739672 0.000591119 0.000452575 0.000332504 0.000230906 0.00014778 8.31261e-05 3.69449e-05 9.23623e-06 0 0 6.71265e-06 2.68506e-05 6.04138e-05 0.000107402 0.000167816 0.000241655 0.00032892 0.00042961 0.000538165 0.000649025 0.000762191 0.000877663 0.000995439 0.00111552 0.00123791 0.0013626 0.00148971 0.00161935 0.00175152 0.00188622 0.00202344 0.0021632 0.00230548 0.00245029 0.00259677 0.00274405 0.00289214 0.00304104 0.00319074 0.00334125 0.00349257 0.00364469 0.0037967 0.00394771 0.0040977 0.00424668 0.00439464 0.0045416 0.00468754 0.00483246 0.00497546 0.00511561 0.00525292 0.00538737 0.00551899 0.00564775 0.00577367 0.00589674 0.0060161 0.00613089 0.0062411 0.00634673 0.00644779 0.00654427 0.00663618 0.00672351 0.00680555 0.00688157 0.00695157 0.00701556 0.00707353 0.00712549 0.00717143 0.00721136 0.0072448 0.0072713 0.00729085 0.00730346 0.00730912 0.00730783 0.0072996 0.00728442 0.00726218 0.00723279 0.00719624 0.00715253 0.00710166 0.00704363 0.00697844 0.00690609 0.00682691 0.00674123 0.00664904 0.00655036 0.00644517 0.00633348 0.00621529 0.0060906 0.0059602 0.00582491 0.00568471 0.00553962 0.00538962 0.00523473 0.00507493 0.00491023 0.0047419 0.00457119 0.0043981 0.00422264 0.00404481 0.0038646 0.00368201 0.00349705 0.00331136 0.00312659 0.00294274 0.00275981 0.0025778 0.0023967 0.00221653 0.00203727 0.00185932 0.00168306 0.00150849 0.00133562 0.00116443 0.000994943 0.000827144 0.000661039 0.000506108 0.000371834 0.000258218 0.00016526 9.29586e-05 4.13149e-05 1.03287e-05 0 0 7.4467e-06 2.97868e-05 6.70203e-05 0.000119147 0.000186167 0.000268081 0.000364888 0.000476588 0.000596994 0.000719918 0.000845359 0.000973317 0.00110379 0.00123679 0.0013723 0.00151033 0.001651 0.00179446 0.0019407 0.00208972 0.00224151 0.00239609 0.00255345 0.00271358 0.00287555 0.00303839 0.00320211 0.00336672 0.0035322 0.00369855 0.00386579 0.00403391 0.0042019 0.00436877 0.0045345 0.00469911 0.00486259 0.00502495 0.00518618 0.00534628 0.00550424 0.00565905 0.00581071 0.00595922 0.00610458 0.00624679 0.00638584 0.00652175 0.00665355 0.0067803 0.00690198 0.00701861 0.00713017 0.00723668 0.00733813 0.00743452 0.00752506 0.00760895 0.0076862 0.0077568 0.00782075 0.00787805 0.00792871 0.00797272 0.00800957 0.00803875 0.00806026 0.00807409 0.00808026 0.00807875 0.00806957 0.00805272 0.00802807 0.00799553 0.00795507 0.00790672 0.00785045 0.00778628 0.00771421 0.00763423 0.0075467 0.007452 0.00735013 0.00724107 0.00712483 0.00700142 0.00687083 0.00673306 0.006589 0.00643952 0.00628464 0.00612434 0.00595863 0.00578751 0.00561098 0.00542904 0.00524309 0.0050545 0.00486329 0.00466944 0.00447298 0.00427388 0.00407216 0.00386781 0.00366265 0.00345849 0.00325533 0.00305317 0.00285202 0.00265187 0.00245272 0.00225457 0.00205784 0.00186294 0.00166987 0.00147863 0.00128922 0.00110165 0.000915903 0.00073199 0.00056043 0.000411744 0.000285933 0.000182997 0.000102936 4.57494e-05 1.14373e-05 0 0 8.1941e-06 3.27764e-05 7.37469e-05 0.000131106 0.000204852 0.000294988 0.000401511 0.000524422 0.000656891 0.000792085 0.000930005 0.00107065 0.00121402 0.00136012 0.00150894 0.00166049 0.00181492 0.00197238 0.00213286 0.00229638 0.00246293 0.00263251 0.00280512 0.00298076 0.00315839 0.00333697 0.0035165 0.00369698 0.00387841 0.00406079 0.00424412 0.0044284 0.00461253 0.00479542 0.00497706 0.00515746 0.00533661 0.00551452 0.00569118 0.0058666 0.00603967 0.00620927 0.00637542 0.00653811 0.00669734 0.00685311 0.00700542 0.00715428 0.00729863 0.00743743 0.00757069 0.0076984 0.00782056 0.00793717 0.00804824 0.00815376 0.00825286 0.00834469 0.00842922 0.00850647 0.00857644 0.00863913 0.00869453 0.00874264 0.00878292 0.00881478 0.00883825 0.00885331 0.00885996 0.00885821 0.00884805 0.00882949 0.0088024 0.00876665 0.00872225 0.00866918 0.00860746 0.00853708 0.00845804 0.00837035 0.00827439 0.00817058 0.0080589 0.00793937 0.00781198 0.00767672 0.00753361 0.00738263 0.00722476 0.00706097 0.00689125 0.00671561 0.00653404 0.00634654 0.00615312 0.00595377 0.00575002 0.00554339 0.00533387 0.00512147 0.00490619 0.00468802 0.00446698 0.00424305 0.00401822 0.00379447 0.00357181 0.00335023 0.00312974 0.00291032 0.002692 0.00247475 0.00225903 0.00204528 0.00183348 0.00162365 0.00141579 0.00120989 0.00100595 0.000803972 0.000615541 0.000452234 0.000314052 0.000200993 0.000113059 5.02482e-05 1.25621e-05 0 0 8.95465e-06 3.58186e-05 8.05918e-05 0.000143274 0.000223866 0.000322367 0.000438778 0.000573097 0.000717838 0.00086551 0.00101611 0.00116965 0.00132612 0.00148552 0.00164785 0.00181311 0.00198148 0.00215313 0.00232806 0.00250627 0.00268777 0.00287254 0.0030606 0.00325193 0.00344542 0.00363993 0.00383545 0.004032 0.00422956 0.00442815 0.00462775 0.00482837 0.00502882 0.00522791 0.00542562 0.00562198 0.00581697 0.00601059 0.00620285 0.00639374 0.00658207 0.00676662 0.0069474 0.00712441 0.00729764 0.00746711 0.0076328 0.00779472 0.00795173 0.0081027 0.00824763 0.00838652 0.00851937 0.00864618 0.00876695 0.00888167 0.00898941 0.00908922 0.00918111 0.00926506 0.00934109 0.00940919 0.00946936 0.0095216 0.00956531 0.00959987 0.00962529 0.00964157 0.0096487 0.00964669 0.00963553 0.00961523 0.00958565 0.00954665 0.00949823 0.0094404 0.00937315 0.00929648 0.0092104 0.00911489 0.00901041 0.00889738 0.0087758 0.00864567 0.00850699 0.00835977 0.008204 0.00803968 0.00786786 0.0076896 0.00750489 0.00731374 0.00711614 0.0069121 0.00670161 0.00648467 0.00626295 0.00603808 0.00581007 0.00557891 0.00534462 0.00510719 0.00486661 0.00462289 0.00437818 0.00413464 0.00389226 0.00365105 0.003411 0.00317211 0.00293439 0.00269783 0.0024629 0.00223006 0.00199931 0.00177066 0.00154409 0.00131962 0.00109725 0.00087696 0.000671423 0.00049329 0.000342563 0.00021924 0.000123323 5.481e-05 1.37025e-05 0 0 9.72812e-06 3.89125e-05 8.75531e-05 0.00015565 0.000243203 0.000350212 0.000476678 0.0006226 0.000779818 0.000940174 0.00110367 0.0012703 0.00144007 0.00161297 0.00178901 0.00196819 0.00215071 0.00233675 0.00252633 0.00271944 0.00291609 0.00311626 0.00331997 0.00352721 0.00373676 0.0039474 0.00415913 0.00437194 0.00458584 0.00480082 0.0050169 0.00523405 0.00545101 0.00566648 0.00588046 0.00609295 0.00630395 0.00651347 0.00672149 0.00692802 0.00713177 0.00733142 0.00752699 0.00771846 0.00790585 0.00808914 0.00826835 0.00844346 0.00861326 0.00877652 0.00893324 0.00908341 0.00922705 0.00936414 0.00949469 0.0096187 0.00973515 0.00984302 0.00994231 0.010033 0.0101152 0.0101887 0.0102537 0.0103101 0.0103572 0.0103945 0.0104219 0.0104394 0.010447 0.0104447 0.0104325 0.0104104 0.0103783 0.010336 0.0102835 0.0102208 0.010148 0.0100649 0.00997171 0.00986831 0.00975519 0.00963283 0.00950123 0.00936038 0.00921029 0.00905096 0.00888239 0.00870457 0.00851865 0.00832576 0.00812589 0.00791906 0.00770525 0.00748448 0.00725673 0.00702202 0.00678211 0.0065388 0.00629209 0.00604198 0.00578846 0.00553153 0.0052712 0.00500747 0.00474266 0.00447909 0.00421676 0.00395568 0.00369585 0.00343725 0.0031799 0.0029238 0.00266942 0.00241726 0.00216733 0.00191961 0.00167411 0.00143083 0.00118977 0.000950929 0.000728055 0.000534897 0.000371456 0.000237732 0.000133724 5.9433e-05 1.48583e-05 0 0 1.05145e-05 4.20581e-05 9.46307e-05 0.000168232 0.000262863 0.000378523 0.000515211 0.000672929 0.000842833 0.00101608 0.00119267 0.0013726 0.00155587 0.00174248 0.00193244 0.00212574 0.0023226 0.00252325 0.00272768 0.0029359 0.0031479 0.00336368 0.00358325 0.0038066 0.00403242 0.0042594 0.00448752 0.0047168 0.00494723 0.00517882 0.00541156 0.00564545 0.0058791 0.00611114 0.00634157 0.00657038 0.00679757 0.00702314 0.0072471 0.00746944 0.00768877 0.00790369 0.00811419 0.00832028 0.00852196 0.00871922 0.00891208 0.00910052 0.00928323 0.00945889 0.0096275 0.00978907 0.00994359 0.0100911 0.0102315 0.0103649 0.0104901 0.0106061 0.0107128 0.0108104 0.0108986 0.0109777 0.0110475 0.0111081 0.0111587 0.0111987 0.011228 0.0112467 0.0112547 0.0112521 0.0112389 0.011215 0.0111803 0.0111346 0.011078 0.0110104 0.0109319 0.0108424 0.010742 0.0106306 0.0105087 0.0103769 0.0102352 0.0100835 0.00992187 0.0097503 0.00956878 0.00937731 0.00917713 0.00896944 0.00875425 0.00853156 0.00830137 0.00806368 0.00781849 0.0075658 0.00730752 0.00704557 0.00677995 0.00651066 0.00623769 0.00596106 0.00568076 0.00539679 0.00511164 0.00482782 0.00454532 0.00426414 0.00398428 0.00370575 0.00342854 0.00315265 0.0028786 0.00260689 0.00233753 0.00207051 0.00180584 0.0015435 0.00128352 0.00102588 0.000785437 0.000577056 0.000400733 0.000256469 0.000144264 6.41173e-05 1.60293e-05 0 0 1.13138e-05 4.52554e-05 0.000101825 0.000181022 0.000282846 0.000407298 0.000554378 0.000724086 0.000906881 0.00109322 0.00128311 0.00147655 0.00167353 0.00187406 0.00207813 0.00228576 0.00249717 0.00271262 0.00293211 0.00315564 0.0033832 0.0036148 0.00385043 0.0040901 0.0043324 0.00457591 0.00482064 0.00506659 0.00531375 0.00556213 0.00581173 0.00606254 0.00631309 0.00656189 0.00680895 0.00705425 0.00729781 0.00753962 0.00777969 0.008018 0.00825308 0.00848341 0.008709 0.00892986 0.00914597 0.00935735 0.00956398 0.00976588 0.00996162 0.0101498 0.0103304 0.0105035 0.010669 0.0108269 0.0109773 0.0111201 0.0112542 0.0113784 0.0114927 0.0115971 0.0116915 0.0117761 0.0118508 0.0119156 0.0119697 0.0120124 0.0120437 0.0120636 0.012072 0.0120691 0.0120548 0.012029 0.0119917 0.0119426 0.0118818 0.0118093 0.011725 0.011629 0.0115212 0.0114017 0.011271 0.0111297 0.0109777 0.010815 0.0106417 0.0104578 0.0102632 0.0100579 0.0098433 0.00962065 0.00938997 0.00915126 0.0089045 0.00864971 0.00838688 0.00811602 0.00783916 0.00755837 0.00727363 0.00698495 0.00669234 0.00639578 0.00609528 0.00579084 0.00548513 0.00518082 0.00487792 0.00457641 0.00427631 0.00397761 0.0036803 0.00338441 0.00309044 0.00279895 0.00250992 0.00222336 0.00193927 0.00165765 0.00137849 0.00110181 0.000843571 0.000619766 0.000430393 0.000275452 0.000154942 6.88629e-05 1.72157e-05 0 0 1.21261e-05 4.85044e-05 0.000109135 0.000194018 0.000303152 0.00043654 0.000594179 0.00077607 0.000971963 0.00117161 0.001375 0.00158215 0.00179304 0.00200769 0.00222609 0.00244824 0.00267441 0.00290487 0.00313962 0.00337866 0.00362198 0.0038696 0.00412151 0.00437771 0.00463669 0.00489695 0.00515848 0.0054213 0.00568539 0.00595077 0.00621742 0.00648535 0.00675298 0.00701873 0.00728259 0.00754458 0.00780468 0.0080629 0.00831924 0.0085737 0.00882469 0.0090706 0.00931143 0.0095472 0.00977789 0.0100035 0.0102241 0.0104395 0.0106484 0.0108493 0.011042 0.0112267 0.0114033 0.0115718 0.0117322 0.0118845 0.0120276 0.01216 0.0122819 0.0123932 0.0124939 0.012584 0.0126636 0.0127326 0.0127902 0.0128356 0.0128689 0.0128899 0.0128988 0.0128956 0.0128801 0.0128525 0.0128125 0.01276 0.0126949 0.0126173 0.0125272 0