<?xml version="1.0"?> 
<VTKFile type="StructuredGrid" version="0.1"> 
<StructuredGrid WholeExtent="0 128 0 128 0 0"> 
<Piece Extent="0 128 0 128 0 0"> 
<PointData>
<DataArray type="Float32" Name="u" format="ascii" NumberOfComponents="1"> 
0 0 0 0 0 0 0 0 0 0 0 0 0 0 0 0 0 0 0 0 0 0 0 0 0 0 0 0 0 0 0 0 0 0 0 0 0 0 0 0 0 0 0 0 0 0 0 0 0 0 0 0 0 0 0 0 0 0 0 0 0 0 0 0 0 0 0 0 0 0 0 0 0 0 0 0 0 0 0 0 0 0 0 0 0 0 0 0 0 0 0 0 0 0 0 0 0 0 0 0 0 0 0 0 0 0 0 0 0 0 0 0 0 0 0 0 0 0 0 0 0 0 0 0 0 0 0 0 0 0 5.04381e-08 2.01753e-07 4.53943e-07 8.0701e-07 1.26095e-06 1.81577e-06 2.47147e-06 3.22804e-06 4.04113e-06 4.86639e-06 5.70381e-06 6.55339e-06 7.41513e-06 8.28904e-06 9.17511e-06 1.00733e-05 1.09828e-05 1.19025e-05 1.28324e-05 1.37725e-05 1.47229e-05 1.56836e-05 1.66545e-05 1.76356e-05 1.86195e-05 1.95989e-05 2.05738e-05 2.1544e-05 2.25097e-05 2.34708e-05 2.44274e-05 2.53793e-05 2.63204e-05 2.72443e-05 2.81509e-05 2.90403e-05 2.99125e-05 3.07675e-05 3.16052e-05 3.24257e-05 3.3224e-05 3.39952e-05 3.47391e-05 3.54558e-05 3.61454e-05 3.68077e-05 3.74428e-05 3.80508e-05 3.8628e-05 3.91711e-05 3.96799e-05 4.01544e-05 4.05948e-05 4.10009e-05 4.13728e-05 4.17105e-05 4.2012e-05 4.22755e-05 4.2501e-05 4.26884e-05 4.28377e-05 4.2949e-05 4.30222e-05 4.30574e-05 4.30544e-05 4.30129e-05 4.29329e-05 4.28145e-05 4.26576e-05 4.24623e-05 4.22285e-05 4.19562e-05 4.16471e-05 4.13026e-05 4.09227e-05 4.05075e-05 4.00569e-05 3.9571e-05 3.90497e-05 3.8493e-05 3.79043e-05 3.72868e-05 3.66405e-05 3.59654e-05 3.52615e-05 3.45288e-05 3.37673e-05 3.2977e-05 3.21628e-05 3.13297e-05 3.04777e-05 2.96068e-05 2.87169e-05 2.78081e-05 2.68804e-05 2.59338e-05 2.49747e-05 2.40096e-05 2.30386e-05 2.20616e-05 2.10786e-05 2.00897e-05 1.90948e-05 1.80939e-05 1.70949e-05 1.61053e-05 1.51254e-05 1.41549e-05 1.3194e-05 1.22426e-05 1.13007e-05 1.03684e-05 9.44685e-06 8.53717e-06 7.6394e-06 6.75354e-06 5.87958e-06 5.01752e-06 4.16738e-06 3.32914e-06 2.54887e-06 1.87264e-06 1.30045e-06 8.32285e-07 4.6816e-07 2.08071e-07 5.20178e-08 0 0 2.01753e-07 8.0701e-07 1.81577e-06 3.22804e-06 5.04381e-06 7.26309e-06 9.88588e-06 1.29122e-05 1.61645e-05 1.94656e-05 2.28152e-05 2.62135e-05 2.96605e-05 3.31562e-05 3.67004e-05 4.02934e-05 4.39311e-05 4.76098e-05 5.13295e-05 5.50901e-05 5.88917e-05 6.27343e-05 6.66178e-05 7.05423e-05 7.44782e-05 7.83957e-05 8.2295e-05 8.6176e-05 9.00388e-05 9.38832e-05 9.77094e-05 0.000101517 0.000105282 0.000108977 0.000112604 0.000116161 0.00011965 0.00012307 0.000126421 0.000129703 0.000132896 0.000135981 0.000138956 0.000141823 0.000144581 0.000147231 0.000149771 0.000152203 0.000154512 0.000156684 0.000158719 0.000160618 0.000162379 0.000164004 0.000165491 0.000166842 0.000168048 0.000169102 0.000170004 0.000170753 0.000171351 0.000171796 0.000172089 0.00017223 0.000172218 0.000172052 0.000171732 0.000171258 0.00017063 0.000169849 0.000168914 0.000167825 0.000166588 0.00016521 0.000163691 0.00016203 0.000160228 0.000158284 0.000156199 0.000153972 0.000151617 0.000149147 0.000146562 0.000143861 0.000141046 0.000138115 0.000135069 0.000131908 0.000128651 0.000125319 0.000121911 0.000118427 0.000114868 0.000111233 0.000107522 0.000103735 9.98987e-05 9.60384e-05 9.21543e-05 8.82463e-05 8.43145e-05 8.03588e-05 7.63792e-05 7.23758e-05 6.83795e-05 6.44214e-05 6.05014e-05 5.66196e-05 5.27759e-05 4.89704e-05 4.5203e-05 4.14738e-05 3.77874e-05 3.41487e-05 3.05576e-05 2.70141e-05 2.35183e-05 2.00701e-05 1.66695e-05 1.33166e-05 1.01955e-05 7.49056e-06 5.20178e-06 3.32914e-06 1.87264e-06 8.32285e-07 2.08071e-07 0 0 4.53943e-07 1.81577e-06 4.08549e-06 7.26309e-06 1.13486e-05 1.6342e-05 2.22432e-05 2.90524e-05 3.63702e-05 4.37975e-05 5.13343e-05 5.89805e-05 6.67362e-05 7.46013e-05 8.2576e-05 9.06601e-05 9.8845e-05 0.000107122 0.000115491 0.000123953 0.000132506 0.000141152 0.00014989 0.00015872 0.000167576 0.00017639 0.000185164 0.000193896 0.000202587 0.000211237 0.000219846 0.000228414 0.000236884 0.000245198 0.000253358 0.000261363 0.000269213 0.000276907 0.000284447 0.000291832 0.000299016 0.000305956 0.000312652 0.000319102 0.000325308 0.000331269 0.000336986 0.000342457 0.000347652 0.00035254 0.000357119 0.00036139 0.000365353 0.000369008 0.000372355 0.000375394 0.000378108 0.00038048 0.000382509 0.000384195 0.000385539 0.000386541 0.0003872 0.000387517 0.000387489 0.000387116 0.000386396 0.00038533 0.000383918 0.00038216 0.000380056 0.000377606 0.000374824 0.000371723 0.000368304 0.000364567 0.000360512 0.000356139 0.000351447 0.000346437 0.000341139 0.000335581 0.000329764 0.000323688 0.000317353 0.000310759 0.000303905 0.000296793 0.000289465 0.000281968 0.0002743 0.000266461 0.000258452 0.000250273 0.000241924 0.000233404 0.000224772 0.000216086 0.000207347 0.000198554 0.000189708 0.000180807 0.000171853 0.000162846 0.000153854 0.000144948 0.000136128 0.000127394 0.000118746 0.000110183 0.000101707 9.3316e-05 8.50217e-05 7.68346e-05 6.87546e-05 6.07818e-05 5.29162e-05 4.51577e-05 3.75064e-05 2.99623e-05 2.29399e-05 1.68538e-05 1.1704e-05 7.49056e-06 4.21344e-06 1.87264e-06 4.6816e-07 0 0 8.0701e-07 3.22804e-06 7.26309e-06 1.29122e-05 2.01753e-05 2.90524e-05 3.95435e-05 5.16487e-05 6.46581e-05 7.78622e-05 9.12609e-05 0.000104854 0.000118642 0.000132625 0.000146802 0.000161173 0.000175724 0.000190439 0.000205318 0.00022036 0.000235567 0.000250937 0.000266471 0.000282169 0.000297913 0.000313583 0.00032918 0.000344704 0.000360155 0.000375533 0.000390838 0.000406069 0.000421127 0.000435908 0.000450415 0.000464645 0.0004786 0.00049228 0.000505683 0.000518812 0.000531585 0.000543923 0.000555825 0.000567293 0.000578326 0.000588923 0.000599086 0.000608813 0.000618049 0.000626737 0.000634878 0.000642471 0.000649517 0.000656015 0.000661965 0.000667368 0.000672192 0.000676408 0.000680015 0.000683014 0.000685403 0.000687184 0.000688356 0.000688919 0.00068887 0.000688206 0.000686927 0.000685032 0.000682522 0.000679396 0.000675656 0.0006713 0.000666353 0.000660841 0.000654763 0.00064812 0.00064091 0.000633135 0.000624795 0.000615888 0.000606469 0.000596589 0.000586248 0.000575446 0.000564183 0.00055246 0.000540276 0.000527632 0.000514605 0.000501276 0.000487644 0.000473709 0.000459471 0.00044493 0.000430087 0.00041494 0.000399595 0.000384154 0.000368617 0.000352985 0.000337258 0.000321435 0.000305517 0.000289503 0.000273518 0.000257686 0.000242006 0.000226478 0.000211104 0.000195882 0.000180812 0.000165895 0.00015115 0.000136595 0.00012223 0.000108057 9.40732e-05 8.02804e-05 6.66781e-05 5.32662e-05 4.0782e-05 2.99623e-05 2.08071e-05 1.33166e-05 7.49056e-06 3.32914e-06 8.32285e-07 0 0 1.26095e-06 5.04381e-06 1.13486e-05 2.01753e-05 3.15238e-05 4.53943e-05 6.17867e-05 8.0701e-05 0.000101028 0.00012166 0.000142595 0.000163835 0.000185378 0.000207226 0.000229378 0.000251834 0.000274569 0.000297561 0.000320809 0.000344313 0.000368073 0.000392089 0.000416361 0.00044089 0.000465489 0.000489973 0.000514344 0.0005386 0.000562742 0.00058677 0.000610684 0.000634483 0.00065801 0.000681107 0.000703773 0.000726008 0.000747813 0.000769187 0.00079013 0.000810643 0.000830601 0.000849879 0.000868477 0.000886395 0.000903634 0.000920192 0.000936071 0.00095127 0.000965701 0.000979277 0.000991997 0.00100386 0.00101487 0.00102502 0.00103432 0.00104276 0.0010503 0.00105689 0.00106252 0.00106721 0.00107094 0.00107372 0.00107556 0.00107644 0.00107636 0.00107532 0.00107332 0.00107036 0.00106644 0.00106156 0.00105571 0.00104891 0.00104118 0.00103256 0.00102307 0.00101269 0.00100142 0.000989274 0.000976242 0.000962326 0.000947608 0.00093217 0.000916012 0.000899134 0.000881537 0.000863219 0.000844182 0.000824425 0.000804071 0.000783244 0.000761943 0.00074017 0.000717923 0.000695203 0.00067201 0.000648344 0.000624367 0.00060024 0.000575964 0.000551539 0.000526965 0.000502242 0.00047737 0.000452349 0.000427372 0.000402634 0.000378134 0.000353872 0.000329849 0.000306065 0.000282519 0.000259211 0.000236171 0.000213429 0.000190985 0.000168838 0.000146989 0.000125438 0.000104184 8.32285e-05 6.37218e-05 4.6816e-05 3.25111e-05 2.08071e-05 1.1704e-05 5.20178e-06 1.30045e-06 0 0 1.81577e-06 7.26309e-06 1.6342e-05 2.90524e-05 4.53943e-05 6.53678e-05 8.89729e-05 0.000116209 0.000145481 0.00017519 0.000205337 0.000235922 0.000266945 0.000298405 0.000330304 0.00036264 0.00039538 0.000428488 0.000461965 0.000495811 0.000530026 0.000564609 0.00059956 0.000634881 0.000670304 0.000705562 0.000740655 0.000775584 0.000810349 0.000844949 0.000879385 0.000913656 0.000947535 0.000980794 0.00101343 0.00104545 0.00107685 0.00110763 0.00113779 0.00116733 0.00119607 0.00122383 0.00125061 0.00127641 0.00130123 0.00132508 0.00134794 0.00136983 0.00139061 0.00141016 0.00142848 0.00144556 0.00146141 0.00147603 0.00148942 0.00150158 0.00151243 0.00152192 0.00153003 0.00153678 0.00154216 0.00154616 0.0015488 0.00155007 0.00154996 0.00154846 0.00154558 0.00154132 0.00153567 0.00152864 0.00152023 0.00151042 0.00149929 0.00148689 0.00147322 0.00145827 0.00144205 0.00142455 0.00140579 0.00138575 0.00136455 0.00134232 0.00131906 0.00129475 0.00126941 0.00124304 0.00121562 0.00118717 0.00115786 0.00112787 0.0010972 0.00106584 0.00103381 0.00100109 0.000967695 0.000933615 0.000899088 0.000864346 0.000829389 0.000794217 0.00075883 0.000723229 0.000687413 0.000651382 0.000615416 0.000579793 0.000544513 0.000509576 0.000474983 0.000440733 0.000406827 0.000373264 0.000340087 0.000307338 0.000275018 0.000243127 0.000211665 0.000180631 0.000150026 0.000119849 9.17594e-05 6.74151e-05 4.6816e-05 2.99623e-05 1.68538e-05 7.49056e-06 1.87264e-06 0 0 2.47147e-06 9.88588e-06 2.22432e-05 3.95435e-05 6.17867e-05 8.89729e-05 0.000121102 0.000158174 0.000198016 0.000238453 0.000279486 0.000321116 0.000363341 0.000406163 0.00044958 0.000493594 0.000538156 0.00058322 0.000628786 0.000674854 0.000721424 0.000768495 0.000816068 0.000864144 0.000912358 0.000960348 0.00100811 0.00105566 0.00110298 0.00115007 0.00119694 0.00124359 0.0012897 0.00133497 0.00137939 0.00142298 0.00146571 0.00150761 0.00154866 0.00158886 0.00162798 0.00166576 0.00170222 0.00173734 0.00177112 0.00180358 0.0018347 0.00186449 0.00189277 0.00191938 0.00194431 0.00196757 0.00198914 0.00200904 0.00202727 0.00204381 0.00205859 0.0020715 0.00208255 0.00209173 0.00209905 0.0021045 0.00210809 0.00210981 0.00210966 0.00210763 0.00210371 0.00209791 0.00209022 0.00208065 0.0020692 0.00205586 0.00204071 0.00202383 0.00200521 0.00198487 0.00196279 0.00193898 0.00191343 0.00188616 0.00185731 0.00182705 0.00179538 0.0017623 0.00172781 0.00169191 0.0016546 0.00161587 0.00157598 0.00153516 0.00149341 0.00145073 0.00140713 0.0013626 0.00131714 0.00127075 0.00122376 0.00117647 0.00112889 0.00108102 0.00103285 0.000984395 0.000935645 0.000886604 0.000837649 0.000789162 0.000741142 0.00069359 0.000646505 0.000599887 0.000553737 0.000508054 0.000462896 0.000418322 0.000374331 0.000330923 0.000288099 0.000245859 0.000204202 0.000163128 0.000124895 9.17594e-05 6.37218e-05 4.0782e-05 2.29399e-05 1.01955e-05 2.54887e-06 0 0 3.22804e-06 1.29122e-05 2.90524e-05 5.16487e-05 8.0701e-05 0.000116209 0.000158174 0.000206595 0.000258633 0.000311449 0.000365044 0.000419417 0.000474568 0.000530498 0.000587207 0.000644694 0.000702898 0.000761757 0.000821272 0.000881442 0.000942268 0.00100375 0.00106589 0.00112868 0.00119165 0.00125433 0.00131672 0.00137882 0.00144062 0.00150213 0.00156335 0.00162428 0.00168451 0.00174363 0.00180166 0.00185858 0.0019144 0.00196912 0.00202273 0.00207525 0.00212634 0.00217569 0.0022233 0.00226917 0.0023133 0.00235569 0.00239634 0.00243525 0.00247219 0.00250695 0.00253951 0.00256988 0.00259807 0.00262406 0.00264786 0.00266947 0.00268877 0.00270563 0.00272006 0.00273205 0.00274161 0.00274874 0.00275342 0.00275568 0.00275548 0.00275282 0.00274771 0.00274013 0.00273009 0.00271759 0.00270262 0.0026852 0.00266541 0.00264336 0.00261905 0.00259248 0.00256364 0.00253254 0.00249918 0.00246355 0.00242588 0.00238635 0.00234499 0.00230178 0.00225673 0.00220984 0.00216111 0.00211053 0.00205842 0.0020051 0.00195058 0.00189484 0.00183788 0.00177972 0.00172035 0.00165976 0.00159838 0.00153661 0.00147447 0.00141194 0.00134903 0.00128574 0.00122207 0.00115801 0.00109407 0.00103074 0.000968023 0.000905914 0.000844415 0.000783526 0.000723248 0.00066358 0.000604599 0.000546379 0.000488922 0.000432226 0.000376293 0.000321122 0.000266712 0.000213065 0.000163128 0.000119849 8.32285e-05 5.32662e-05 2.99623e-05 1.33166e-05 3.32914e-06 0 0 4.04108e-06 1.61643e-05 3.63697e-05 6.46573e-05 0.000101027 0.000145479 0.000198013 0.000258629 0.000323772 0.000389885 0.000456968 0.000525022 0.000594047 0.000664042 0.000735007 0.000806943 0.000879774 0.000953423 0.00102789 0.00110318 0.00117928 0.00125621 0.00133395 0.00141251 0.0014913 0.00156972 0.00164778 0.00172547 0.00180279 0.00187974 0.00195633 0.00203255 0.0021079 0.00218187 0.00225447 0.00232568 0.00239551 0.00246396 0.00253104 0.00259673 0.00266065 0.00272239 0.00278195 0.00283934 0.00289455 0.00294758 0.00299843 0.00304711 0.00309332 0.0031368 0.00317754 0.00321553 0.00325079 0.00328331 0.00331308 0.00334012 0.00336426 0.00338535 0.0034034 0.00341841 0.00343036 0.00343927 0.00344514 0.00344796 0.00344771 0.00344439 0.00343798 0.0034285 0.00341594 0.0034003 0.00338158 0.00335978 0.00333503 0.00330745 0.00327703 0.00324379 0.00320771 0.0031688 0.00312707 0.0030825 0.00303536 0.00298592 0.00293417 0.00288012 0.00282376 0.0027651 0.00270413 0.00264085 0.00257567 0.00250896 0.00244075 0.00237102 0.00229977 0.002227 0.00215272 0.00207693 0.00200014 0.00192287 0.00184512 0.00176689 0.00168818 0.001609 0.00152934 0.0014492 0.0013692 0.00128997 0.00121149 0.00113378 0.00105684 0.00098065 0.000905226 0.000830565 0.00075676 0.000683905 0.000612 0.000541045 0.000471039 0.000401984 0.000333878 0.000266723 0.00020421 0.000150031 0.000104189 6.66807e-05 3.75079e-05 1.66702e-05 4.16754e-06 0 0 4.86618e-06 1.94647e-05 4.37956e-05 7.78589e-05 0.000121654 0.000175182 0.000238443 0.000311435 0.000389873 0.000469468 0.000550221 0.00063213 0.000715198 0.000799423 0.000884805 0.000971345 0.00105895 0.00114754 0.00123711 0.00132767 0.0014192 0.00151171 0.00160521 0.00169968 0.00179442 0.00188873 0.00198259 0.002076 0.00216898 0.00226151 0.0023536 0.00244525 0.00253584 0.00262478 0.00271206 0.00279768 0.00288164 0.00296394 0.00304459 0.00312357 0.00320042 0.00327465 0.00334626 0.00341525 0.00348163 0.00354538 0.00360652 0.00366504 0.00372061 0.00377288 0.00382186 0.00386754 0.00390992 0.00394902 0.00398481 0.00401732 0.00404634 0.0040717 0.0040934 0.00411144 0.00412581 0.00413652 0.00414357 0.00414696 0.00414666 0.00414266 0.00413496 0.00412356 0.00410846 0.00408965 0.00406715 0.00404094 0.00401118 0.00397801 0.00394144 0.00390147 0.0038581 0.00381132 0.00376114 0.00370755 0.00365088 0.00359144 0.00352922 0.00346423 0.00339647 0.00332594 0.00325264 0.00317656 0.00309819 0.003018 0.00293598 0.00285214 0.00276647 0.00267899 0.00258968 0.00249855 0.00240622 0.00231331 0.00221983 0.00212576 0.00203113 0.00193591 0.00184012 0.00174376 0.00164756 0.00155227 0.0014579 0.00136444 0.00127189 0.00118026 0.00108954 0.00099973 0.000910945 0.000823293 0.000736774 0.000651386 0.000567132 0.00048401 0.00040202 0.000321163 0.000245891 0.000180654 0.000125454 8.02908e-05 4.51636e-05 2.00727e-05 5.01817e-06 0 0 5.70333e-06 2.28133e-05 5.133e-05 9.12534e-05 0.000142583 0.00020532 0.000279463 0.000365013 0.000456936 0.000550199 0.0006448 0.000740741 0.000838021 0.000936641 0.0010366 0.0011379 0.00124044 0.00134412 0.00144894 0.0015549 0.00166201 0.00177026 0.00187965 0.00199018 0.00210102 0.00221134 0.00232115 0.00243043 0.00253919 0.00264743 0.00275515 0.00286235 0.00296832 0.00307235 0.00317444 0.00327459 0.00337279 0.00346906 0.00356338 0.00365576 0.00374564 0.00383246 0.00391622 0.00399691 0.00407454 0.00414911 0.00422062 0.00428907 0.00435405 0.00441519 0.00447247 0.0045259 0.00457547 0.00462119 0.00466306 0.00470107 0.00473502 0.00476468 0.00479005 0.00481115 0.00482796 0.00484048 0.00484872 0.00485268 0.00485233 0.00484765 0.00483865 0.00482531 0.00480764 0.00478564 0.00475932 0.00472866 0.00469385 0.00465506 0.00461229 0.00456553 0.0045148 0.00446009 0.00440139 0.00433872 0.00427243 0.00420291 0.00413014 0.00405413 0.00397487 0.00389238 0.00380664 0.00371766 0.003626 0.0035322 0.00343627 0.0033382 0.00323801 0.00313568 0.00303122 0.00292462 0.00281662 0.00270795 0.0025986 0.00248857 0.00237786 0.00226648 0.00215442 0.00204168 0.00192913 0.00181765 0.00170723 0.00159788 0.00148958 0.00138235 0.00127618 0.00117107 0.00106715 0.000964543 0.000863243 0.000763252 0.000664571 0.0005672 0.000471138 0.000376387 0.000288171 0.000211717 0.000147026 9.40966e-05 5.29294e-05 2.35242e-05 5.88104e-06 0 0 6.55255e-06 2.62102e-05 5.89729e-05 0.000104841 0.000163814 0.000235892 0.000321075 0.000419363 0.000524962 0.000632077 0.000740708 0.000850855 0.000962518 0.0010757 0.00119039 0.0013066 0.00142422 0.00154314 0.00166337 0.00178489 0.00190772 0.00203185 0.00215728 0.00228401 0.00241109 0.00253758 0.00266346 0.00278874 0.00291343 0.00303751 0.00316099 0.00328387 0.00340534 0.00352459 0.00364161 0.0037564 0.00386896 0.0039793 0.00408742 0.0041933 0.00429632 0.00439583 0.00449183 0.00458432 0.0046733 0.00475877 0.00484073 0.00491917 0.00499366 0.00506373 0.00512938 0.00519061 0.00524743 0.00529983 0.00534781 0.00539138 0.00543028 0.00546428 0.00549336 0.00551753 0.0055368 0.00555115 0.00556059 0.00556513 0.00556472 0.00555936 0.00554903 0.00553374 0.00551349 0.00548827 0.00545809 0.00542295 0.00538305 0.00533859 0.00528956 0.00523597 0.00517782 0.00511511 0.00504783 0.004976 0.00490002 0.00482033 0.00473692 0.0046498 0.00455896 0.00446441 0.00436614 0.00426415 0.00415908 0.00405157 0.00394161 0.00382921 0.00371436 0.00359707 0.00347733 0.00335515 0.00323136 0.00310678 0.00298143 0.0028553 0.00272838 0.00260069 0.00247222 0.00234297 0.00221394 0.00208611 0.0019595 0.0018341 0.00170991 0.00158693 0.00146516 0.0013446 0.00122539 0.00110766 0.000991407 0.000876641 0.000763356 0.000651553 0.000541232 0.000432393 0.000331051 0.000243221 0.000168903 0.000108098 6.08052e-05 2.70246e-05 6.75614e-06 0 0 7.41382e-06 2.96553e-05 6.67244e-05 0.000118621 0.000185346 0.000266898 0.000363277 0.000474485 0.00059395 0.000715102 0.000837943 0.000962471 0.00108869 0.00121659 0.00134618 0.00147746 0.00161031 0.00174463 0.0018804 0.00201763 0.00215633 0.00229648 0.0024381 0.00258117 0.00272464 0.00286742 0.00300952 0.00315095 0.00329168 0.00343174 0.00357112 0.00370981 0.00384691 0.00398149 0.00411356 0.00424311 0.00437015 0.00449468 0.0046167 0.0047362 0.00485246 0.00496476 0.0050731 0.00517747 0.00527789 0.00537434 0.00546683 0.00555536 0.00563942 0.00571849 0.00579258 0.00586168 0.0059258 0.00598493 0.00603908 0.00608824 0.00613215 0.0061705 0.00620332 0.0062306 0.00625234 0.00626853 0.00627918 0.0062843 0.00628384 0.00627778 0.00626612 0.00624886 0.006226 0.00619754 0.00616348 0.00612382 0.00607878 0.0060286 0.00597327 0.00591279 0.00584716 0.00577638 0.00570046 0.00561939 0.00553364 0.00544371 0.00534958 0.00525125 0.00514873 0.00504202 0.00493112 0.00481602 0.00469745 0.00457611 0.00445202 0.00432516 0.00419554 0.00406317 0.00392803 0.00379013 0.00365041 0.00350981 0.00336832 0.00322595 0.0030827 0.00293856 0.00279354 0.00264763 0.00250196 0.00235765 0.0022147 0.0020731 0.00193287 0.00179399 0.00165647 0.0015203 0.00138564 0.00125263 0.00112127 0.000991553 0.000863487 0.00073707 0.000612302 0.000489182 0.00037453 0.000275165 0.000191087 0.000122295 6.87912e-05 3.05739e-05 7.64347e-06 0 0 8.28715e-06 3.31486e-05 7.45844e-05 0.000132594 0.000207179 0.000298337 0.00040607 0.000530378 0.000663899 0.000799275 0.000936505 0.00107559 0.00121653 0.00135932 0.00150397 0.00165047 0.00179871 0.00194856 0.00210004 0.00225313 0.00240784 0.00256416 0.00272211 0.00288167 0.00304166 0.00320088 0.00335934 0.00351704 0.00367397 0.00383013 0.00398553 0.00414016 0.00429301 0.00444305 0.0045903 0.00473473 0.00487636 0.00501519 0.00515122 0.00528444 0.00541405 0.00553924 0.00566002 0.00577637 0.00588832 0.00599584 0.00609895 0.00619764 0.00629134 0.00637949 0.00646207 0.00653911 0.00661058 0.0066765 0.00673686 0.00679166 0.0068406 0.00688336 0.00691994 0.00695034 0.00697457 0.00699262 0.00700449 0.00701019 0.00700967 0.00700291 0.00698991 0.00697066 0.00694517 0.00691344 0.00687547 0.00683125 0.00678104 0.00672509 0.00666341 0.00659598 0.00652282 0.00644391 0.00635927 0.00626889 0.0061733 0.00607304 0.0059681 0.00585848 0.0057442 0.00562523 0.00550159 0.00537328 0.00524109 0.00510582 0.00496748 0.00482605 0.00468155 0.00453397 0.00438331 0.00422957 0.00407379 0.00391703 0.00375928 0.00360053 0.0034408 0.00328008 0.00311836 0.00295566 0.00279321 0.00263227 0.00247283 0.00231489 0.00215846 0.00200353 0.00185011 0.00169819 0.00154792 0.00139947 0.00125282 0.00110799 0.000964965 0.000823751 0.000684348 0.000546754 0.000418609 0.000307549 0.000213576 0.000136688 7.68873e-05 3.41721e-05 8.54303e-06 0 0 9.17254e-06 3.66902e-05 8.25529e-05 0.000146761 0.000229314 0.000330212 0.000449455 0.000587043 0.000734811 0.000884595 0.0010364 0.00119021 0.00134604 0.00150389 0.00166375 0.00182563 0.0019894 0.00215495 0.00232227 0.00249137 0.00266224 0.00283489 0.0030093 0.0031855 0.00336215 0.00353796 0.00371291 0.00388702 0.00406027 0.00423267 0.00440423 0.00457493 0.00474365 0.00490929 0.00507182 0.00523126 0.0053876 0.00554084 0.00569098 0.00583803 0.00598109 0.00611928 0.00625259 0.00638102 0.00650458 0.00662326 0.00673707 0.00684599 0.00694942 0.00704671 0.00713786 0.00722289 0.00730178 0.00737453 0.00744115 0.00750164 0.00755565 0.00760284 0.00764321 0.00767677 0.0077035 0.00772342 0.00773652 0.0077428 0.00774222 0.00773476 0.0077204 0.00769915 0.00767101 0.00763598 0.00759406 0.00754525 0.00748983 0.00742807 0.00735998 0.00728555 0.00720479 0.0071177 0.00702427 0.0069245 0.00681899 0.00670832 0.00659249 0.00647149 0.00634534 0.00621403 0.00607756 0.00593593 0.00579002 0.00564071 0.005488 0.00533189 0.00517238 0.00500947 0.00484316 0.00467345 0.0045015 0.00432845 0.00415429 0.00397904 0.00380269 0.00362525 0.0034467 0.00326706 0.00308769 0.00290997 0.00273389 0.00255947 0.00238669 0.00221556 0.00204608 0.00187825 0.00171223 0.00154817 0.00138607 0.00122595 0.00106779 0.000911596 0.000757369 0.000605109 0.000463286 0.000340374 0.000236371 0.000151277 8.50934e-05 3.78193e-05 9.45483e-06 0 0 1.007e-05 4.028e-05 9.06299e-05 0.00016112 0.00025175 0.00036252 0.000493429 0.000644479 0.000806685 0.000971063 0.00113761 0.00130634 0.00147723 0.0016503 0.00182553 0.00200294 0.0021824 0.0023638 0.00254712 0.00273236 0.00291954 0.00310865 0.00329969 0.00349266 0.00368612 0.00387865 0.00407024 0.00426089 0.0044506 0.00463937 0.00482721 0.00501411 0.00519884 0.00538018 0.00555813 0.00573269 0.00590385 0.00607162 0.00623599 0.00639698 0.0065536 0.00670488 0.00685082 0.00699142 0.00712668 0.0072566 0.00738119 0.00750044 0.00761366 0.00772016 0.00781995 0.00791302 0.00799938 0.00807902 0.00815195 0.00821816 0.00827729 0.00832894 0.00837314 0.00840987 0.00843913 0.00846093 0.00847526 0.00848213 0.00848149 0.00847332 0.00845759 0.00843433 0.00840352 0.00836516 0.00831927 0.00826582 0.00820514 0.00813753 0.00806298 0.0079815 0.00789308 0.00779773 0.00769544 0.00758622 0.00747071 0.00734955 0.00722274 0.00709028 0.00695218 0.00680842 0.00665901 0.00650396 0.00634422 0.00618076 0.00601357 0.00584266 0.00566803 0.00548968 0.0053076 0.0051218 0.00493353 0.00474405 0.00455337 0.00436148 0.00416838 0.00397407 0.00377855 0.00358182 0.00338539 0.00319074 0.00299789 0.00280683 0.00261756 0.00243008 0.00224439 0.00206049 0.00187855 0.00169873 0.00152102 0.00134543 0.00117196 0.0010006 0.000831367 0.000664247 0.000508564 0.000373639 0.000259471 0.000166062 9.34097e-05 4.15154e-05 1.03789e-05 0 0 1.09785e-05 4.39139e-05 9.88064e-05 0.000175656 0.000274462 0.000395225 0.000537946 0.000702623 0.000879441 0.00105859 0.00124005 0.00142385 0.00160997 0.00179841 0.00198918 0.00218228 0.00237758 0.00257496 0.00277443 0.00297598 0.00317962 0.00338534 0.00359314 0.00380303 0.00401345 0.00422284 0.0044312 0.00463854 0.00484484 0.00505013 0.00525438 0.00545761 0.00565848 0.00585565 0.00604914 0.00623893 0.00642504 0.00660745 0.00678617 0.00696119 0.00713147 0.00729595 0.00745462 0.00760748 0.00775454 0.0078958 0.00803125 0.00816089 0.00828398 0.00839977 0.00850826 0.00860944 0.00870333 0.00878991 0.0088692 0.00894118 0.00900545 0.00906161 0.00910965 0.00914957 0.00918138 0.00920508 0.00922065 0.00922812 0.00922742 0.00921852 0.00920142 0.00917612 0.00914262 0.00910091 0.009051 0.0089929 0.00892692 0.0088534 0.00877235 0.00868375 0.00858762 0.00848395 0.00837274 0.00825399 0.0081284 0.00799667 0.00785879 0.00771478 0.00756462 0.00740832 0.00724588 0.0070773 0.00690363 0.0067259 0.00654412 0.0063583 0.00616842 0.0059745 0.00577652 0.0055745 0.00536979 0.00516376 0.00495641 0.00474773 0.00453774 0.00432643 0.00411379 0.00389983 0.00368618 0.00347447 0.00326469 0.00305684 0.00285092 0.00264694 0.0024449 0.00224478 0.00204677 0.00185102 0.00165754 0.00146632 0.00127737 0.00109068 0.000906259 0.000724101 0.00055439 0.000407307 0.000282852 0.000181025 0.000101827 4.52563e-05 1.13141e-05 0 0 1.1897e-05 4.75881e-05 0.000107073 0.000190352 0.000297425 0.000428293 0.000582954 0.000761409 0.000953 0.00114707 0.00134361 0.00154264 0.00174414 0.00194811 0.00215457 0.0023635 0.00257479 0.00278832 0.00300409 0.00322209 0.00344234 0.00366482 0.00388954 0.0041165 0.00434402 0.00457042 0.0047957 0.00501986 0.00524291 0.00546483 0.00568564 0.00590533 0.00612247 0.00633561 0.00654476 0.00674991 0.00695107 0.00714824 0.00734142 0.0075306 0.00771465 0.00789243 0.00806392 0.00822915 0.00838809 0.00854076 0.00868716 0.00882728 0.00896032 0.00908546 0.00920272 0.00931208 0.00941355 0.00950712 0.00959281 0.0096706 0.00974007 0.00980076 0.00985268 0.00989582 0.0099302 0.0099558 0.00997263 0.00998069 0.00997992 0.0099703 0.00995181 0.00992446 0.00988824 0.00984316 0.00978921 0.0097264 0.00965508 0.00957562 0.00948801 0.00939224 0.00928834 0.00917628 0.00905607 0.00892772 0.00879197 0.00864959 0.00850057 0.0083449 0.0081826 0.00801367 0.00783809 0.00765587 0.00746815 0.00727605 0.00707957 0.0068787 0.00667346 0.00646384 0.00624984 0.00603146 0.00581018 0.00558745 0.0053633 0.0051377 0.00491067 0.00468221 0.00445231 0.00422098 0.00398996 0.00376102 0.00353416 0.00330937 0.00308666 0.00286603 0.00264747 0.00243099 0.00221675 0.00200492 0.00179551 0.00158851 0.00138391 0.00118173 0.000981964 0.000784607 0.000600715 0.000441341 0.000306487 0.000196152 0.000110335 4.90379e-05 1.22595e-05 0 0 1.28256e-05 5.13023e-05 0.00011543 0.000205209 0.00032064 0.000461721 0.000628454 0.000820838 0.00102736 0.00123651 0.00144829 0.0016627 0.00187974 0.0020994 0.0023217 0.00254662 0.00277405 0.00300387 0.00323609 0.0034707 0.0037077 0.00394709 0.00418888 0.00443306 0.00467783 0.00492138 0.00516373 0.00540486 0.00564479 0.0058835 0.00612099 0.00635728 0.00659081 0.00682005 0.00704498 0.00726562 0.00748196 0.00769401 0.00790175 0.0081052 0.00830313 0.0084943 0.00867873 0.00885641 0.00902733 0.00919151 0.00934893 0.00949961 0.00964267 0.00977724 0.00990333 0.0100209 0.01013 0.0102307 0.0103228 0.0104064 0.0104811 0.0105464 0.0106022 0.0106486 0.0106856 0.0107131 0.0107312 0.0107398 0.010739 0.0107287 0.0107088 0.0106793 0.0106404 0.0105919 0.0105339 0.0104663 0.0103896 0.0103042 0.01021 0.010107 0.00999523 0.00987472 0.00974545 0.00960742 0.00946144 0.00930832 0.00914806 0.00898066 0.00880612 0.00862445 0.00843563 0.00823968 0.0080378 0.0078312 0.0076199 0.00740388 0.00718315 0.00695771 0.00672756 0.00649269 0.00625469 0.00601514 0.00577404 0.00553139 0.00528718 0.00504142 0.00479411 0.00454525 0.00429671 0.0040504 0.00380631 0.00356443 0.00332477 0.00308733 0.00285211 0.00261911 0.00238849 0.00216043 0.00193493 0.00171198 0.00149159 0.00127376 0.00105848 0.000845763 0.000647538 0.000475742 0.000330376 0.000211441 0.000118935 5.28602e-05 1.32151e-05 0 0 1.37642e-05 5.50568e-05 0.000123878 0.000220227 0.000344105 0.000495511 0.000674445 0.000880908 0.00110252 0.00132692 0.00155409 0.00178404 0.00201677 0.00225227 0.00249056 0.00273162 0.00297534 0.00322162 0.00347043 0.0037218 0.0039757 0.00423216 0.00449116 0.00475271 0.00501488 0.00527574 0.0055353 0.00579354 0.00605048 0.00630611 0.00656044 0.00681345 0.00706352 0.00730897 0.00754982 0.00778607 0.00801771 0.00824474 0.00846717 0.008685 0.0088969 0.00910158 0.00929904 0.00948926 0.00967226 0.00984803 0.0100166 0.0101779 0.010331 0.0104751 0.0106101 0.010736 0.0108528 0.0109605 0.0110592 0.0111487 0.0112287 0.0112985 0.0113583 0.0114079 0.0114475 0.011477 0.0114963 0.0115056 0.0115047 0.0114936 0.0114723 0.0114408 0.0113991 0.0113472 0.011285 0.0112127 0.0111306 0.0110391 0.0109382 0.0108279 0.0107083 0.0105793 0.0104409 0.0102931 0.0101368 0.00997286 0.00980128 0.00962205 0.00943518 0.00924067 0.00903851 0.00882871 0.00861256 0.00839137 0.00816513 0.00793383 0.00769749 0.00745611 0.00720967 0.00695819 0.00670334 0.00644683 0.00618864 0.00592878 0.00566726 0.00540406 0.00513919 0.00487264 0.00460645 0.00434261 0.00408113 0.00382201 0.00356525 0.00331086 0.00305882 0.00280914 0.00256199 0.00231754 0.00207579 0.00183675 0.0016004 0.00136676 0.00113581 0.000907571 0.000694859 0.000510509 0.00035452 0.000226893 0.000127627 5.67232e-05 1.41808e-05 0 0 1.47128e-05 5.88514e-05 0.000132416 0.000235405 0.000367821 0.000529662 0.000720929 0.000941622 0.00117849 0.00141829 0.00166101 0.00190666 0.00215523 0.00240673 0.00266116 0.00291852 0.00317868 0.00344155 0.00370712 0.00397539 0.00424636 0.00452002 0.00479639 0.00507546 0.00535518 0.00563349 0.00591039 0.00618589 0.00645999 0.00673268 0.00700397 0.00727385 0.00754057 0.00780238 0.00805927 0.00831124 0.0085583 0.00880044 0.00903767 0.00926998 0.00949598 0.00971427 0.00992484 0.0101277 0.0103229 0.0105103 0.0106901 0.0108621 0.0110254 0.0111791 0.011323 0.0114573 0.0115818 0.0116967 0.0118019 0.0118974 0.0119826 0.0120571 0.0121208 0.0121738 0.012216 0.0122474 0.012268 0.0122779 0.0122769 0.0122651 0.0122424 0.0122088 0.0121643 0.0121089 0.0120426 0.0119655 0.0118779 0.0117803 0