<?xml version="1.0"?> 
<VTKFile type="StructuredGrid" version="0.1"> 
<StructuredGrid WholeExtent="0 128 0 128 0 0"> 
<Piece Extent="0 128 0 128 0 0"> 
<PointData>
<DataArray type="Float32" Name="u" format="ascii" NumberOfComponents="1"> 
0 0 0 0 0 0 0 0 0 0 0 0 0 0 0 0 0 0 0 0 0 0 0 0 0 0 0 0 0 0 0 0 0 0 0 0 0 0 0 0 0 0 0 0 0 0 0 0 0 0 0 0 0 0 0 0 0 0 0 0 0 0 0 0 0 0 0 0 0 0 0 0 0 0 0 0 0 0 0 0 0 0 0 0 0 0 0 0 0 0 0 0 0 0 0 0 0 0 0 0 0 0 0 0 0 0 0 0 0 0 0 0 0 0 0 0 0 0 0 0 0 0 0 0 0 0 0 0 0 0 5.08127e-08 2.03251e-07 4.57315e-07 8.13004e-07 1.27032e-06 1.82926e-06 2.48982e-06 3.25201e-06 4.07143e-06 4.90367e-06 5.74873e-06 6.60661e-06 7.47731e-06 8.36084e-06 9.25718e-06 1.01664e-05 1.10875e-05 1.20199e-05 1.29634e-05 1.3918e-05 1.48839e-05 1.58609e-05 1.68491e-05 1.78485e-05 1.88516e-05 1.98512e-05 2.08471e-05 2.18394e-05 2.28281e-05 2.38132e-05 2.47947e-05 2.57726e-05 2.67405e-05 2.76918e-05 2.86267e-05 2.95452e-05 3.04471e-05 3.13326e-05 3.22016e-05 3.30542e-05 3.3885e-05 3.4689e-05 3.54661e-05 3.62163e-05 3.69396e-05 3.76361e-05 3.83056e-05 3.89483e-05 3.95602e-05 4.01377e-05 4.06806e-05 4.11889e-05 4.16628e-05 4.21021e-05 4.25069e-05 4.28771e-05 4.32106e-05 4.35051e-05 4.37605e-05 4.39769e-05 4.41542e-05 4.42925e-05 4.43918e-05 4.4452e-05 4.44727e-05 4.44533e-05 4.43939e-05 4.42944e-05 4.41548e-05 4.39752e-05 4.37555e-05 4.34957e-05 4.31973e-05 4.28614e-05 4.24882e-05 4.20776e-05 4.16296e-05 4.11443e-05 4.06216e-05 4.00614e-05 3.94672e-05 3.8842e-05 3.81859e-05 3.74989e-05 3.6781e-05 3.60321e-05 3.52524e-05 3.44417e-05 3.36052e-05 3.27479e-05 3.18698e-05 3.0971e-05 3.00514e-05 2.91111e-05 2.81499e-05 2.7168e-05 2.61722e-05 2.51693e-05 2.41592e-05 2.3142e-05 2.21177e-05 2.10863e-05 2.00477e-05 1.9002e-05 1.79575e-05 1.69224e-05 1.58966e-05 1.48803e-05 1.38734e-05 1.28758e-05 1.18877e-05 1.0909e-05 9.94101e-06 8.98525e-06 8.04166e-06 7.11025e-06 6.19102e-06 5.28397e-06 4.3891e-06 3.50641e-06 2.68459e-06 1.97235e-06 1.36969e-06 8.76602e-07 4.93089e-07 2.19151e-07 5.47876e-08 0 0 2.03251e-07 8.13004e-07 1.82926e-06 3.25201e-06 5.08127e-06 7.31703e-06 9.95929e-06 1.30081e-05 1.62857e-05 1.96147e-05 2.29949e-05 2.64264e-05 2.99092e-05 3.34433e-05 3.70287e-05 4.06654e-05 4.43501e-05 4.80794e-05 5.18535e-05 5.56722e-05 5.95356e-05 6.34437e-05 6.73964e-05 7.13939e-05 7.54065e-05 7.94046e-05 8.33883e-05 8.73576e-05 9.13125e-05 9.52529e-05 9.91789e-05 0.00010309 0.000106962 0.000110767 0.000114507 0.000118181 0.000121789 0.00012533 0.000128807 0.000132217 0.00013554 0.000138756 0.000141864 0.000144865 0.000147758 0.000150544 0.000153222 0.000155793 0.000158241 0.000160551 0.000162722 0.000164756 0.000166651 0.000168408 0.000170028 0.000171509 0.000172843 0.00017402 0.000175042 0.000175907 0.000176617 0.00017717 0.000177567 0.000177808 0.000177891 0.000177813 0.000177575 0.000177177 0.000176619 0.000175901 0.000175022 0.000173983 0.000172789 0.000171446 0.000169953 0.00016831 0.000166519 0.000164577 0.000162486 0.000160246 0.000157869 0.000155368 0.000152744 0.000149996 0.000147124 0.000144129 0.00014101 0.000137767 0.000134421 0.000130992 0.000127479 0.000123884 0.000120206 0.000116444 0.0001126 0.000108672 0.000104689 0.000100677 9.66368e-05 9.2568e-05 8.84708e-05 8.4345e-05 8.01908e-05 7.60081e-05 7.183e-05 6.76895e-05 6.35865e-05 5.95212e-05 5.54935e-05 5.15033e-05 4.75508e-05 4.36358e-05 3.97641e-05 3.5941e-05 3.21666e-05 2.8441e-05 2.47641e-05 2.11359e-05 1.75564e-05 1.40256e-05 1.07384e-05 7.88942e-06 5.47876e-06 3.50641e-06 1.97235e-06 8.76602e-07 2.19151e-07 0 0 4.57315e-07 1.82926e-06 4.11583e-06 7.31703e-06 1.14329e-05 1.64633e-05 2.24084e-05 2.92681e-05 3.66429e-05 4.4133e-05 5.17385e-05 5.94595e-05 6.72958e-05 7.52475e-05 8.33146e-05 9.14972e-05 9.97877e-05 0.000108179 0.00011667 0.000125262 0.000133955 0.000142748 0.000151642 0.000160636 0.000169665 0.00017866 0.000187624 0.000196555 0.000205453 0.000214319 0.000223153 0.000231954 0.000240664 0.000249227 0.000257641 0.000265907 0.000274024 0.000281994 0.000289815 0.000297488 0.000304965 0.000312201 0.000319195 0.000325947 0.000332457 0.000338724 0.00034475 0.000350534 0.000356042 0.000361239 0.000366125 0.0003707 0.000374965 0.000378919 0.000382562 0.000385894 0.000388896 0.000391546 0.000393844 0.000395792 0.000397388 0.000398632 0.000399526 0.000400068 0.000400254 0.00040008 0.000399545 0.000398649 0.000397393 0.000395777 0.000393799 0.000391462 0.000388775 0.000385753 0.000382394 0.000378699 0.000374667 0.000370299 0.000365594 0.000360553 0.000355205 0.000349578 0.000343673 0.00033749 0.000331029 0.000324289 0.000317271 0.000309975 0.000302447 0.000294731 0.000286828 0.000278739 0.000270463 0.000262 0.000253349 0.000244512 0.00023555 0.000226523 0.000217433 0.000208278 0.000199059 0.000189776 0.000180429 0.000171018 0.000161618 0.000152301 0.00014307 0.000133923 0.00012486 0.000115882 0.000106989 9.81806e-05 8.94691e-05 8.08672e-05 7.23749e-05 6.39923e-05 5.57192e-05 4.75557e-05 3.95019e-05 3.15577e-05 2.41613e-05 1.77512e-05 1.23272e-05 7.88942e-06 4.4378e-06 1.97235e-06 4.93089e-07 0 0 8.13004e-07 3.25201e-06 7.31703e-06 1.30081e-05 2.03251e-05 2.92681e-05 3.98372e-05 5.20322e-05 6.51429e-05 7.84587e-05 9.19796e-05 0.000105706 0.000119637 0.000133773 0.000148115 0.000162662 0.0001774 0.000192318 0.000207414 0.000222689 0.000238142 0.000253775 0.000269586 0.000285576 0.000301626 0.000317618 0.000333553 0.00034943 0.00036525 0.000381012 0.000396716 0.000412362 0.000427847 0.000443069 0.000458028 0.000472723 0.000487154 0.000501322 0.000515226 0.000528867 0.00054216 0.000555024 0.000567457 0.000579461 0.000591034 0.000602177 0.00061289 0.000623172 0.000632964 0.000642203 0.000650889 0.000659023 0.000666604 0.000673634 0.00068011 0.000686034 0.00069137 0.000696081 0.000700168 0.00070363 0.000706467 0.00070868 0.000710268 0.000711232 0.000711563 0.000711253 0.000710302 0.00070871 0.000706477 0.000703603 0.000700088 0.000695932 0.000691156 0.000685783 0.000679811 0.000673242 0.000666074 0.000658309 0.000649945 0.000640983 0.000631475 0.000621472 0.000610975 0.000599983 0.000588496 0.000576514 0.000564038 0.000551067 0.000537683 0.000523966 0.000509917 0.000495536 0.000480823 0.000465777 0.000450399 0.000434689 0.000418755 0.000402708 0.000386547 0.000370272 0.000353883 0.00033738 0.000320763 0.000304033 0.00028732 0.000270758 0.000254346 0.000238085 0.000221974 0.000206013 0.000190203 0.000174543 0.000159056 0.000143764 0.000128667 0.000113764 9.90563e-05 8.45435e-05 7.02256e-05 5.61025e-05 4.29535e-05 3.15577e-05 2.19151e-05 1.40256e-05 7.88942e-06 3.50641e-06 8.76602e-07 0 0 1.27032e-06 5.08127e-06 1.14329e-05 2.03251e-05 3.1758e-05 4.57315e-05 6.22456e-05 8.13004e-05 0.000101786 0.000122592 0.000143718 0.000165165 0.000186933 0.000209021 0.00023143 0.000254159 0.000277188 0.000300496 0.000324084 0.000347951 0.000372097 0.000396523 0.000421228 0.000446212 0.00047129 0.000496279 0.000521177 0.000545985 0.000570703 0.000595331 0.000619868 0.000644315 0.000668512 0.000692296 0.000715669 0.000738629 0.000761178 0.000783316 0.000805041 0.000826354 0.000847126 0.000867225 0.000886652 0.000905407 0.00092349 0.000940901 0.00095764 0.000973707 0.000989006 0.00100344 0.00101701 0.00102972 0.00104157 0.00105255 0.00106267 0.00107193 0.00108027 0.00108763 0.00109401 0.00109942 0.00110385 0.00110731 0.00110979 0.0011113 0.00111182 0.00111133 0.00110985 0.00110736 0.00110387 0.00109938 0.00109389 0.00108739 0.00107993 0.00107154 0.00106221 0.00105194 0.00104074 0.00102861 0.00101554 0.00100154 0.00098668 0.00097105 0.000954648 0.000937473 0.000919525 0.000900804 0.000881309 0.000861042 0.000840129 0.000818697 0.000796746 0.000774275 0.000751285 0.000727776 0.000703748 0.000679201 0.000654305 0.000629232 0.00060398 0.00057855 0.000552942 0.000527157 0.000501193 0.000475051 0.000448938 0.000423059 0.000397416 0.000372008 0.000346834 0.000321896 0.000297192 0.000272724 0.000248525 0.000224631 0.000201041 0.000177756 0.000154776 0.000132099 0.000109727 8.76602e-05 6.71148e-05 4.93089e-05 3.42423e-05 2.19151e-05 1.23272e-05 5.47876e-06 1.36969e-06 0 0 1.82926e-06 7.31703e-06 1.64633e-05 2.92681e-05 4.57315e-05 6.58533e-05 8.96337e-05 0.000117073 0.000146571 0.000176532 0.000206954 0.000237838 0.000269183 0.00030099 0.000333259 0.000365989 0.000399151 0.000432715 0.000466681 0.00050105 0.00053582 0.000570993 0.000606568 0.000642545 0.000678658 0.000714642 0.000750495 0.000786219 0.000821812 0.000857276 0.00089261 0.000927814 0.000962657 0.000996906 0.00103056 0.00106363 0.0010961 0.00112797 0.00115926 0.00118995 0.00121986 0.0012488 0.00127678 0.00130379 0.00132983 0.0013549 0.001379 0.00140214 0.00142417 0.00144496 0.0014645 0.0014828 0.00149986 0.00151568 0.00153025 0.00154358 0.00155558 0.00156618 0.00157538 0.00158317 0.00158955 0.00159453 0.0015981 0.00160027 0.00160102 0.00160032 0.00159818 0.0015946 0.00158957 0.00158311 0.0015752 0.00156585 0.0015551 0.00154301 0.00152958 0.00151479 0.00149867 0.00148119 0.00146238 0.00144221 0.00142082 0.00139831 0.00137469 0.00134996 0.00132412 0.00129716 0.00126909 0.0012399 0.00120979 0.00117892 0.00114731 0.00111496 0.00108185 0.001048 0.0010134 0.00097805 0.0009422 0.000906094 0.000869731 0.000833112 0.000796237 0.000759105 0.000721718 0.000684073 0.00064647 0.000609205 0.000572279 0.000535691 0.000499441 0.00046353 0.000427957 0.000392723 0.000357876 0.000323469 0.0002895 0.000255969 0.000222877 0.000190223 0.000158008 0.000126231 9.66454e-05 7.10048e-05 4.93089e-05 3.15577e-05 1.77512e-05 7.88942e-06 1.97235e-06 0 0 2.48982e-06 9.95929e-06 2.24084e-05 3.98372e-05 6.22456e-05 8.96337e-05 0.000122001 0.000159349 0.0001995 0.00024028 0.000281688 0.000323724 0.000366388 0.000409681 0.000453602 0.000498151 0.000543288 0.000588973 0.000635205 0.000681984 0.000729311 0.000777185 0.000825606 0.000874575 0.000923729 0.000972706 0.00102151 0.00107013 0.00111858 0.00116685 0.00121494 0.00126286 0.00131028 0.0013569 0.00140271 0.00144771 0.00149191 0.0015353 0.00157788 0.00161965 0.00166037 0.00169976 0.00173784 0.0017746 0.00181004 0.00184417 0.00187697 0.00190847 0.00193845 0.00196675 0.00199335 0.00201826 0.00204148 0.002063 0.00208284 0.00210098 0.00211732 0.00213175 0.00214426 0.00215487 0.00216356 0.00217033 0.0021752 0.00217815 0.00217916 0.00217821 0.0021753 0.00217042 0.00216359 0.00215478 0.00214402 0.00213129 0.00211667 0.00210021 0.00208192 0.0020618 0.00203985 0.00201607 0.00199046 0.00196301 0.00193389 0.00190326 0.00187111 0.00183745 0.00180227 0.00176558 0.00172737 0.00168764 0.00164665 0.00160465 0.00156162 0.00151758 0.00147252 0.00142644 0.00137935 0.00133123 0.00128244 0.00123329 0.0011838 0.00113396 0.00108377 0.00103323 0.000982338 0.0009311 0.000879918 0.000829196 0.000778935 0.000729135 0.000679795 0.000630916 0.000582497 0.000534539 0.00048711 0.000440277 0.000394041 0.000348402 0.00030336 0.000258915 0.000215066 0.000171814 0.000131545 9.66454e-05 6.71148e-05 4.29535e-05 2.41613e-05 1.07384e-05 2.68459e-06 0 0 3.25201e-06 1.30081e-05 2.92681e-05 5.20322e-05 8.13004e-05 0.000117073 0.000159349 0.000208129 0.000260571 0.000313835 0.000367918 0.000422823 0.000478548 0.000535093 0.00059246 0.000650647 0.000709601 0.000769271 0.000829655 0.000890755 0.000952569 0.0010151 0.00107834 0.0011423 0.0012065 0.00127047 0.00133421 0.00139772 0.001461 0.00152405 0.00158686 0.00164945 0.00171139 0.00177228 0.00183211 0.00189089 0.00194862 0.00200529 0.0020609 0.00211547 0.00216864 0.0022201 0.00226983 0.00231784 0.00236414 0.00240871 0.00245156 0.00249269 0.00253185 0.00256881 0.00260356 0.00263609 0.00266642 0.00269453 0.00272044 0.00274414 0.00276548 0.00278432 0.00280067 0.00281452 0.00282587 0.00283472 0.00284107 0.00284493 0.00284625 0.00284501 0.00284121 0.00283484 0.00282591 0.00281441 0.00280035 0.00278373 0.00276463 0.00274313 0.00271925 0.00269297 0.0026643 0.00263323 0.00259978 0.00256393 0.0025259 0.00248589 0.0024439 0.00239993 0.00235398 0.00230606 0.00225615 0.00220427 0.00215073 0.00209586 0.00203967 0.00198214 0.00192329 0.00186311 0.0018016 0.00173876 0.00167502 0.00161083 0.00154619 0.00148109 0.00141553 0.00134952 0.00128305 0.00121613 0.00114928 0.00108303 0.00101738 0.000952339 0.000887895 0.000824053 0.000760813 0.000698173 0.000636225 0.000575056 0.000514666 0.000455056 0.000396225 0.000338174 0.000280902 0.00022441 0.000171814 0.000126231 8.76602e-05 5.61025e-05 3.15577e-05 1.40256e-05 3.50641e-06 0 0 4.0713e-06 1.62852e-05 3.66417e-05 6.51408e-05 0.000101782 0.000146567 0.000199494 0.000260563 0.000326215 0.000392891 0.00046059 0.000529312 0.000599057 0.000669825 0.000741617 0.000814432 0.000888205 0.000962871 0.00103843 0.00111488 0.00119223 0.00127047 0.0013496 0.00142962 0.00150995 0.00158999 0.00166973 0.00174919 0.00182836 0.00190724 0.00198583 0.00206413 0.00214162 0.0022178 0.00229266 0.00236619 0.00243841 0.00250931 0.00257889 0.00264715 0.00271368 0.00277805 0.00284027 0.00290033 0.00295825 0.00301401 0.00306762 0.00311907 0.00316807 0.0032143 0.00325777 0.00329847 0.00333641 0.00337158 0.00340399 0.00343364 0.00346034 0.00348391 0.00350436 0.00352168 0.00353588 0.00354695 0.0035549 0.00355972 0.00356137 0.00355982 0.00355506 0.00354709 0.00353592 0.00352153 0.00350394 0.00348314 0.00345925 0.00343235 0.00340247 0.00336959 0.00333372 0.00329486 0.00325301 0.00320816 0.00316058 0.00311052 0.00305799 0.00300298 0.0029455 0.00288554 0.00282311 0.0027582 0.00269122 0.00262258 0.00255228 0.00248031 0.00240668 0.00233139 0.00225443 0.00217581 0.00209608 0.00201577 0.0019349 0.00185345 0.00177143 0.00168884 0.00160568 0.00152195 0.00143832 0.00135543 0.00127329 0.0011919 0.00111127 0.00103139 0.000952256 0.000873876 0.000796357 0.00071981 0.000644234 0.00056963 0.000495997 0.000423336 0.000351647 0.000280929 0.000215086 0.000158022 0.000109738 7.02322e-05 3.95056e-05 1.7558e-05 4.38951e-06 0 0 4.90314e-06 1.96126e-05 4.41282e-05 7.84502e-05 0.000122578 0.000176513 0.000240254 0.000313801 0.000392861 0.000473143 0.000554645 0.000637367 0.000721311 0.000806475 0.000892859 0.000980465 0.00106922 0.00115904 0.00124993 0.00134189 0.00143492 0.00152902 0.00162419 0.00172044 0.00181704 0.00191329 0.00200919 0.00210475 0.00219995 0.0022948 0.0023893 0.00248345 0.00257663 0.00266823 0.00275824 0.00284666 0.00293349 0.00301874 0.0031024 0.00318447 0.00326446 0.00334186 0.00341666 0.00348888 0.00355851 0.00362556 0.00369001 0.00375188 0.00381078 0.00386637 0.00391863 0.00396757 0.00401318 0.00405546 0.00409443 0.00413007 0.00416217 0.00419051 0.00421509 0.00423591 0.00425298 0.00426629 0.00427584 0.00428163 0.00428362 0.00428174 0.00427602 0.00426643 0.00425299 0.00423569 0.00421454 0.00418953 0.00416079 0.00412846 0.00409252 0.00405299 0.00400986 0.00396313 0.00391281 0.00385888 0.00380167 0.00374148 0.00367832 0.00361218 0.00354306 0.00347097 0.0033959 0.00331786 0.00323733 0.00315479 0.00307026 0.00298373 0.0028952 0.00280467 0.00271214 0.00261761 0.00252174 0.00242518 0.00232793 0.00222999 0.00213136 0.00203205 0.00193205 0.00183136 0.00173078 0.0016311 0.00153232 0.00143443 0.00133745 0.00124137 0.00114618 0.0010519 0.000958641 0.000866544 0.000775604 0.000685823 0.0005972 0.000509735 0.000423428 0.000338279 0.000258995 0.000190282 0.00013214 8.45698e-05 4.75705e-05 2.11425e-05 5.28561e-06 0 0 5.74754e-06 2.29902e-05 5.17278e-05 9.19606e-05 0.000143688 0.000206911 0.000281629 0.000367842 0.00046051 0.00055459 0.000650083 0.000746989 0.000845308 0.000945041 0.00104619 0.00114874 0.00125263 0.00135777 0.00146415 0.00157177 0.00168065 0.00179077 0.00190213 0.00201474 0.00212777 0.00224039 0.00235259 0.00246438 0.00257576 0.00268672 0.00279727 0.00290741 0.00301641 0.00312356 0.00322885 0.00333228 0.00343386 0.00353357 0.00363143 0.00372743 0.00382099 0.00391152 0.00399902 0.00408349 0.00416494 0.00424335 0.00431874 0.0043911 0.00446 0.00452501 0.00458614 0.00464337 0.00469672 0.00474618 0.00479175 0.00483343 0.00487097 0.00490411 0.00493286 0.00495721 0.00497717 0.00499273 0.00500389 0.00501066 0.00501298 0.00501078 0.00500408 0.00499286 0.00497713 0.00495689 0.00493214 0.00490288 0.00486926 0.00483144 0.0047894 0.00474316 0.0046927 0.00463804 0.00457917 0.00451609 0.00444917 0.00437877 0.00430488 0.00422752 0.00414667 0.00406234 0.00397454 0.00388325 0.00378905 0.00369251 0.00359363 0.00349241 0.00338885 0.00328296 0.00317472 0.00306414 0.002952 0.00283904 0.00272528 0.00261071 0.00249533 0.00237915 0.00226215 0.00214436 0.00202668 0.00191005 0.00179446 0.00167992 0.00156643 0.00145398 0.00134259 0.00123224 0.00112308 0.00101526 0.000908777 0.000803636 0.000699834 0.000597371 0.000496247 0.000396462 0.000303541 0.00022301 0.000154868 9.91155e-05 5.57524e-05 2.47789e-05 6.19472e-06 0 0 6.6045e-06 2.6418e-05 5.94405e-05 0.000105672 0.000165112 0.000237762 0.00032362 0.000422688 0.00052916 0.000637232 0.000746905 0.000858178 0.000971051 0.00108552 0.0012016 0.00131927 0.00143846 0.00155906 0.00168109 0.00180454 0.00192941 0.0020557 0.00218341 0.00231254 0.00244214 0.00257127 0.00269992 0.00282809 0.00295579 0.00308301 0.00320975 0.00333601 0.00346097 0.0035838 0.0037045 0.00382307 0.0039395 0.00405381 0.00416598 0.00427603 0.00438327 0.00448704 0.00458734 0.00468416 0.00477752 0.0048674 0.00495381 0.00503675 0.00511572 0.00519024 0.00526029 0.00532589 0.00538704 0.00544372 0.00549595 0.00554372 0.00558674 0.00562473 0.00565767 0.00568558 0.00570844 0.00572627 0.00573906 0.00574681 0.00574946 0.00574693 0.00573924 0.00572637 0.00570834 0.00568513 0.00565675 0.00562321 0.00558466 0.0055413 0.0054931 0.00544009 0.00538225 0.00531959 0.00525211 0.0051798 0.00510308 0.00502238 0.00493768 0.004849 0.00475632 0.00465966 0.004559 0.00445436 0.00434638 0.00423572 0.00412237 0.00400635 0.00388764 0.00376625 0.00364217 0.00351542 0.00338686 0.00325737 0.00312695 0.0029956 0.00286333 0.00273013 0.00259599 0.00246093 0.002326 0.00219227 0.00205972 0.00192837 0.00179821 0.00166925 0.00154147 0.00141489 0.00128966 0.00116595 0.00104375 0.000923069 0.000803899 0.000686244 0.000570103 0.000455476 0.000348724 0.000256205 0.00017792 0.000113869 6.40514e-05 2.84673e-05 7.11682e-06 0 0 7.47401e-06 2.9896e-05 6.72661e-05 0.000119584 0.00018685 0.000269064 0.000366227 0.000478337 0.000598812 0.00072107 0.00084511 0.000970933 0.00109854 0.00122792 0.00135909 0.00149205 0.00162669 0.00176292 0.00190075 0.00204018 0.0021812 0.00232381 0.00246802 0.00261383 0.00276016 0.00290595 0.00305119 0.00319589 0.00334004 0.00348366 0.00362673 0.00376925 0.0039103 0.00404894 0.00418518 0.00431901 0.00445043 0.00457945 0.00470606 0.00483026 0.00495129 0.00506841 0.00518161 0.00529089 0.00539625 0.00549769 0.00559521 0.00568881 0.00577794 0.00586203 0.0059411 0.00601513 0.00608413 0.0061481 0.00620704 0.00626094 0.00630949 0.00635235 0.00638952 0.00642101 0.00644681 0.00646692 0.00648134 0.00649008 0.00649306 0.0064902 0.0064815 0.00646697 0.00644661 0.00642041 0.00638837 0.0063505 0.00630699 0.00625803 0.00620364 0.00614379 0.00607851 0.00600778 0.00593161 0.00584999 0.0057634 0.00567231 0.00557672 0.00547662 0.00537202 0.00526292 0.00514931 0.0050312 0.00490933 0.00478443 0.0046565 0.00452554 0.00439155 0.00425454 0.0041145 0.00397143 0.00382632 0.00368016 0.00353294 0.00338468 0.00323536 0.00308499 0.00293357 0.00278109 0.00262876 0.00247777 0.00232811 0.00217978 0.0020328 0.00188715 0.00174284 0.00159987 0.0014584 0.00131863 0.00118053 0.00104412 0.000909395 0.000776353 0.000644996 0.000515323 0.000394544 0.000289869 0.000201298 0.000128831 7.24673e-05 3.22077e-05 8.05192e-06 0 0 8.35609e-06 3.34243e-05 7.52048e-05 0.000133697 0.000208902 0.000300819 0.000409448 0.000534789 0.000669467 0.000806103 0.000944699 0.00108525 0.00122777 0.00137224 0.00151868 0.00166707 0.00181733 0.00196935 0.00212314 0.0022787 0.00243603 0.00259512 0.00275598 0.00291861 0.00308182 0.00324441 0.00340639 0.00356776 0.00372852 0.00388867 0.00404821 0.00420713 0.00436441 0.00451899 0.0046709 0.00482011 0.00496665 0.00511049 0.00525165 0.00539012 0.00552507 0.00565564 0.00578185 0.00590368 0.00602114 0.00613423 0.00624295 0.0063473 0.00644666 0.00654041 0.00662855 0.00671108 0.006788 0.00685931 0.00692501 0.0069851 0.00703921 0.00708698 0.00712842 0.00716351 0.00719226 0.00721467 0.00723074 0.00724047 0.00724378 0.00724058 0.00723087 0.00721466 0.00719195 0.00716272 0.007127 0.00708476 0.00703624 0.00698165 0.00692099 0.00685427 0.00678147 0.00670261 0.00661768 0.00652668 0.00643014 0.00632857 0.00622199 0.00611038 0.00599376 0.00587212 0.00574546 0.00561377 0.00547789 0.00533864 0.005196 0.00504999 0.0049006 0.00474784 0.0045917 0.00443218 0.00427039 0.00410741 0.00394326 0.00377793 0.00361143 0.00344374 0.00327488 0.00310484 0.00293495 0.00276654 0.00259961 0.00243416 0.00227019 0.0021077 0.00194669 0.00178716 0.0016293 0.00147328 0.00131911 0.00116679 0.00101632 0.0008677 0.000720926 0.000576002 0.000441001 0.000324001 0.000225001 0.000144 8.10002e-05 3.60001e-05 9.00003e-06 0 0 9.25072e-06 3.70029e-05 8.32565e-05 0.000148011 0.000231268 0.000333026 0.000453285 0.000592046 0.000741123 0.000892331 0.00104567 0.00120114 0.00135874 0.00151848 0.00168034 0.00184434 0.00201037 0.00217834 0.00234825 0.0025201 0.00269388 0.00286961 0.00304728 0.00322688 0.00340712 0.00358667 0.00376554 0.00394372 0.00412123 0.00429805 0.00447419 0.00464965 0.00482328 0.00499395 0.00516165 0.00532638 0.00548814 0.00564694 0.00580277 0.00595563 0.00610459 0.00624873 0.00638804 0.00652253 0.00665219 0.00677702 0.00689703 0.00701221 0.00712188 0.00722536 0.00732265 0.00741374 0.00749864 0.00757735 0.00764986 0.00771618 0.0077759 0.00782863 0.00787435 0.00791308 0.0079448 0.00796953 0.00798725 0.00799798 0.00800162 0.00799807 0.00798734 0.00796944 0.00794435 0.00791208 0.00787263 0.00782599 0.00777242 0.00771215 0.00764518 0.00757151 0.00749114 0.00740408 0.00731032 0.00720986 0.00710328 0.00699116 0.00687349 0.00675029 0.00662155 0.00648726 0.00634744 0.00620207 0.00605207 0.00589834 0.00574089 0.0055797 0.00541478 0.00524614 0.00507377 0.00489767 0.00471905 0.00453913 0.0043579 0.00417536 0.00399152 0.00380638 0.00361992 0.00343217 0.00324457 0.00305859 0.00287423 0.0026915 0.00251038 0.00233089 0.00215302 0.00197677 0.00180234 0.00162991 0.00145949 0.00129108 0.00112468 0.000960283 0.000797894 0.000637512 0.000488095 0.000358601 0.000249028 0.000159378 8.96502e-05 3.98445e-05 9.96113e-06 0 0 1.01579e-05 4.06316e-05 9.14212e-05 0.000162527 0.000253948 0.000365685 0.000497738 0.000650106 0.000813782 0.000979755 0.00114803 0.0013186 0.00149146 0.00166663 0.00184409 0.00202386 0.00220582 0.0023899 0.00257608 0.00276437 0.00295478 0.00314729 0.00334191 0.00353865 0.00373606 0.00393271 0.00412861 0.00432376 0.00451815 0.00471179 0.00490468 0.00509681 0.00528694 0.00547381 0.00565743 0.00583781 0.00601492 0.00618879 0.00635941 0.00652677 0.00668986 0.00684767 0.0070002 0.00714744 0.00728939 0.00742606 0.00755744 0.00768354 0.00780361 0.00791689 0.0080234 0.00812312 0.00821606 0.00830222 0.0083816 0.0084542 0.00851957 0.00857728 0.00862733 0.00866971 0.00870443 0.00873149 0.00875088 0.00876261 0.00876657 0.00876268 0.00875092 0.0087313 0.00870382 0.00866847 0.00862526 0.00857419 0.00851552 0.00844952 0.00837619 0.00829552 0.00820752 0.00811219 0.00800953 0.00789953 0.00778283 0.00766006 0.00753123 0.00739634 0.00725538 0.00710835 0.00695526 0.0067961 0.00663187 0.00646355 0.00629115 0.00611466 0.0059341 0.00574945 0.00556071 0.0053679 0.00517232 0.00497531 0.00477686 0.00457697 0.00437565 0.0041729 0.00396871 0.00376308 0.00355761 0.00335391 0.00315197 0.00295179 0.00275338 0.00255672 0.00236183 0.0021687 0.00197753 0.00178853 0.00160168 0.00141699 0.00123447 0.0010541 0.000875899 0.000699855 0.000535827 0.000393668 0.000273381 0.000174964 9.84171e-05 4.37409e-05 1.09352e-05 0 0 1.10767e-05 4.43068e-05 9.96904e-05 0.000177227 0.000276918 0.000398761 0.000542759 0.000708909 0.000887367 0.00106829 0.00125167 0.00143751 0.00162582 0.00181658 0.00200981 0.0022055 0.00240356 0.0026039 0.00280652 0.00301142 0.0032186 0.00342805 0.00363979 0.00385381 0.00406855 0.00428246 0.00449555 0.0047078 0.00491923 0.00512983 0.0053396 0.00554854 0.0057553 0.00595852 0.0061582 0.00635434 0.00654694 0.006736 0.00692153 0.00710351 0.00728085 0.00745244 0.00761828 0.00777837 0.00793272 0.00808132 0.00822417 0.00836127 0.00849181 0.00861498 0.00873077 0.00883919 0.00894024 0.00903391 0.0091202 0.00919912 0.00927019 0.00933293 0.00938733 0.0094334 0.00947114 0.00950054 0.00952161 0.00953434 0.00953864 0.00953439 0.00952158 0.00950023 0.00947034 0.00943189 0.00938489 0.00932935 0.00926554 0.00919376 0.00911401 0.00902629 0.00893059 0.00882692 0.00871528 0.00859567 0.00846877 0.00833528 0.00819519 0.0080485 0.00789523 0.00773535 0.00756888 0.00739582 0.00721724 0.00703421 0.00684675 0.00665484 0.00645849 0.0062577 0.00605247 0.0058428 0.00563012 0.00541588 0.00520007 0.00498268 0.00476373 0.00454322 0.00432113 0.00409748 0.00387399 0.0036524 0.00343272 0.00321494 0.00299906 0.00278508 0.002573 0.00236283 0.00215476 0.001949 0.00174555 0.00154441 0.00134559 0.00114907 0.000954862 0.000762966 0.000584146 0.000429168 0.000298034 0.000190741 0.000107292 4.76854e-05 1.19213e-05 0 0 1.20062e-05 4.80246e-05 0.000108055 0.000192099 0.000300154 0.000432222 0.000588302 0.000768394 0.000961805 0.00115784 0.0013565 0.00155778 0.00176169 0.00196822 0.00217738 0.00238916 0.00260347 0.00282024 0.00303945 0.00326112 0.00348523 0.00371179 0.0039408 0.00417226 0.0044045 0.00463582 0.00486625 0.00509577 0.00532438 0.00555209 0.00577889 0.00600479 0.00622833 0.00644803 0.0066639 0.00687594 0.00708415 0.00728853 0.00748909 0.00768581 0.0078775 0.00806299 0.00824226 0.00841531 0.00858215 0.00874277 0.00889718 0.00904537 0.00918647 0.0093196 0.00944476 0.00956194 0.00967115 0.00977239 0.00986566 0.00995095 0.0100278 0.0100956 0.0101543 0.0102041 0.0102449 0.0102767 0.0102994 0.0103132 0.0103178 0.0103132 0.0102993 0.0102762 0.0102439 0.0102023 0.0101515 0.0100914 0.0100225 0.00994485 0.00985863 0.00976379 0.00966034 0.00954826 0.00942757 0.00929826 0.00916108 0.00901677 0.00886533 0.00870676 0.00854106 0.00836824 0.00818828 0.0080012 0.00780815 0.0076103 0.00740764 0.00720018 0.00698792 0.00677086 0.00654899 0.00632232 0.0060924 0.00586078 0.00562745 0.00539242 0.00515568 0.00491724 0.0046771 0.00443526 0.00419359 0.00395396 0.00371636 0.00348081 0.0032473 0.00301584 0.00278641 0.00255902 0.00233389 0.00211121 0.00189099 0.00167323 0.00145793 0.00124509 0.00103471 0.000826781 0.000633004 0.000465064 0.000322961 0.000206695 0.000116266 5.16738e-05 1.29184e-05 0 0 1.29463e-05 5.17851e-05 0.000116516 0.00020714 0.000323657 0.000466066 0.000634367 0.000828561 0.00103709 0.00124841 0.00146252 0.00167941 0.00189908 0.00212154 0.00234679 0.00257482 0.00280556 0.00303891 0.00327488 0.00351347 0.00375468 0.00399851 0.00424495 0.00449402 0.0047439 0.0049928 0.00524072 0.00548765 0.0057336 0.00597857 0.00622255 0.00646556 0.006706 0.00694233 0.00717453 0.0074026 0.00762655 0.00784638 0.00806209 0.00827367 0.00847984 0.00867933 0.00887213 0.00905825 0.00923768 0.00941042 0.00957648 0.00973585 0.00988759 0.0100308 0.0101653 0.0102914 0.0104088 0.0105177 0.010618 0.0107097 0.0107923 0.0108652 0.0109284 0.0109819 0.0110257 0.0110599 0.0110843 0.0110991 0.0111041 0.0110991 0.0110841 0.0110593 0.0110245 0.0109798 0.0109251 0.0108605 0.0107863 0.0107028 0.01061 0.010508 0.0103968 0.0102762 0.0101464 0.0100073 0.00985976 0.00970454 0.00954166 0.00937111 0.00919289 0.00900701 0.00881346 0.00861224 0.0084046 0.0081918 0.00797383 0.00775069 0.00752239 0.00728891 0.00705027 0.00680646 0.00655915 0.00630999 0.006059 0.00580617 0.00555149 0.00529498 0.00503663 0.00477643 0.00451641 0.00425857 0.0040029 0.00374942 0.00349812 0.003249 0.00300205 0.00275729 0.00251492 0.00227516 0.002038 0.00180345 0.0015715 0.00134216 0.00111543 0.000891299 0.000682401 0.000501356 0.000348164 0.000222825 0.000125339 5.57062e-05 1.39266e-05 0 0 1.3897e-05 5.55881e-05 0.000125073 0.000222353 0.000347426 0.000500293 0.000680955 0.00088941 0.00111324 0.00134001 0.00156972 0.00180239 0.002038 0.00227655 0.00251805 0.0027625 0.00300981 0.00325991 0.0035128 0.00376848 0.00402695 0.0042882 0.00455224 0.00481907 0.00508677 0.00535339 0.00561896 0.00588346 0.0061469 0.00640927 0.00667058 0.00693083 0.00718834 0.00744142 0.00769008 0.00793433 0.00817415 0.00840955 0.00864053 0.00886709 0.00908785 0.00930146 0.0095079 0.00970719 0.00989931 0.0100843 0.0102621 0.0104327 0.0105952 0.0107484 0.0108925 0.0110275 0.0111532 0.0112697 0.0113771 0.0114753 0.0115637 0.0116418 0.0117094 0.0117667 0.0118136 0.0118502 0.0118763 0.0118921 0.0118974 0.011892 0.011876 0.0118494 0.0118121 0.0117642 0.0117057 0.0116365 0.011557 0.0114676 0.0113683 0.011259 0.0111398 0.0110108 0.0108717 0.0107228 0.0105648 0.0103986 0.0102242 0.0100415 0.00985071 0.00965166 0.0094444 0.00922894 0.0090066 0.00877873 0.00854532 0.00830637 0.00806189 0.00781187 0.00755631 0.00729522 0.00703037 0.00676354 0.00649473 0.00622394 0.00595117 0.00567643 0.0053997 0.00512099 0.00484246 0.00456624 0.00429234 0.00402076 0.0037515 0.00348456 0.00321993 0.00295763 0.00269786 0.00244084 0.00218657 0.00193506 0.0016863 0.00144029 0.00119703 0.000956522 0.000732337 0.000538044 0.000373642 0.000239131 0.000134511 5.97827e-05 1.49457e-05 0 0 1.48585e-05 5.94338e-05 0.000133726 0.000237735 0.000371461 0.000534905 0.000728064 0.000950941 0.00119023 0.00143262 0.00167812 0.00192672 0.00217843 0.00243324 0.00269116 0.00295219 0.00321624 0.00348325 0.00375322 0.00402615 0.00430203 0.00458087 0.00486267 0.00514743 0.00543309 0.0057176 0.00600097 0.00628319 0.00656427 0.0068442 0.00712298 0.00740062 0.00767533 0.00794531 0.00821057 0.00847111 0.00872693 0.00897803 0.00922441 0.00946607 0.00970154 0.00992938 0.0101496 0.0103621 0.010567 0.0107643 0.0109539 0.0111359 0.0113092 0.0114727 0.0116264 0.0117702 0.0119043 0.0120286 0.0121431 0.0122478 0.0123421 0.0124253 0.0124975 0.0125585 0.0126086 0.0126475 0.0126754 0.0126922 0.0126978 0.0126921 0.012675 0.0126466 0.0126068 0.0125557 0.0124932 0.0124194 0.0123346 0.0122392 0.0121333 0.0120167 0.0118896 0.0117519 0.0116036 0