<?xml version="1.0"?> 
<VTKFile type="StructuredGrid" version="0.1"> 
<StructuredGrid WholeExtent="0 128 0 128 0 0"> 
<Piece Extent="0 128 0 128 0 0"> 
<PointData>
<DataArray type="Float32" Name="u" format="ascii" NumberOfComponents="1"> 
0 0 0 0 0 0 0 0 0 0 0 0 0 0 0 0 0 0 0 0 0 0 0 0 0 0 0 0 0 0 0 0 0 0 0 0 0 0 0 0 0 0 0 0 0 0 0 0 0 0 0 0 0 0 0 0 0 0 0 0 0 0 0 0 0 0 0 0 0 0 0 0 0 0 0 0 0 0 0 0 0 0 0 0 0 0 0 0 0 0 0 0 0 0 0 0 0 0 0 0 0 0 0 0 0 0 0 0 0 0 0 0 0 0 0 0 0 0 0 0 0 0 0 0 0 0 0 0 0 0 3.66041e-08 1.46416e-07 3.29437e-07 5.85666e-07 9.15103e-07 1.31775e-06 1.7936e-06 2.34266e-06 2.936e-06 3.54468e-06 4.16871e-06 4.80807e-06 5.46278e-06 6.13284e-06 6.81823e-06 7.51897e-06 8.23596e-06 8.97011e-06 9.7214e-06 1.04899e-05 1.12755e-05 1.20782e-05 1.28981e-05 1.37352e-05 1.45848e-05 1.54423e-05 1.63077e-05 1.71811e-05 1.80624e-05 1.89516e-05 1.98487e-05 2.07537e-05 2.16614e-05 2.25662e-05 2.34684e-05 2.43677e-05 2.52643e-05 2.61582e-05 2.70493e-05 2.79376e-05 2.88174e-05 2.96829e-05 3.05341e-05 3.1371e-05 3.21936e-05 3.30019e-05 3.37959e-05 3.45756e-05 3.53352e-05 3.6069e-05 3.67769e-05 3.7459e-05 3.81153e-05 3.87457e-05 3.93503e-05 3.9929e-05 4.04769e-05 4.09888e-05 4.14647e-05 4.19047e-05 4.23088e-05 4.26769e-05 4.3009e-05 4.33052e-05 4.3562e-05 4.37757e-05 4.39465e-05 4.40743e-05 4.41591e-05 4.4201e-05 4.41999e-05 4.41558e-05 4.40675e-05 4.39339e-05 4.3755e-05 4.35307e-05 4.3261e-05 4.2946e-05 4.25857e-05 4.218e-05 4.17308e-05 4.12396e-05 4.07065e-05 4.01315e-05 3.95146e-05 3.88558e-05 3.81552e-05 3.74126e-05 3.6633e-05 3.58214e-05 3.49776e-05 3.41018e-05 3.31939e-05 3.22539e-05 3.12818e-05 3.02776e-05 2.92494e-05 2.82052e-05 2.71449e-05 2.60686e-05 2.49762e-05 2.38679e-05 2.27435e-05 2.16031e-05 2.04572e-05 1.93165e-05 1.81809e-05 1.70504e-05 1.59251e-05 1.48049e-05 1.36899e-05 1.258e-05 1.14782e-05 1.03874e-05 9.30774e-06 8.23913e-06 7.18157e-06 6.13508e-06 5.09966e-06 4.0753e-06 3.12015e-06 2.29236e-06 1.59192e-06 1.01883e-06 5.7309e-07 2.54706e-07 6.36766e-08 0 0 1.46416e-07 5.85666e-07 1.31775e-06 2.34266e-06 3.66041e-06 5.27099e-06 7.17441e-06 9.37065e-06 1.1744e-05 1.41787e-05 1.66748e-05 1.92323e-05 2.18511e-05 2.45313e-05 2.72729e-05 3.00759e-05 3.29439e-05 3.58804e-05 3.88856e-05 4.19594e-05 4.51018e-05 4.83128e-05 5.15925e-05 5.49407e-05 5.83391e-05 6.17692e-05 6.5231e-05 6.87244e-05 7.22495e-05 7.58063e-05 7.93948e-05 8.3015e-05 8.66455e-05 9.0265e-05 9.38734e-05 9.74709e-05 0.000101057 0.000104633 0.000108197 0.00011175 0.00011527 0.000118732 0.000122137 0.000125484 0.000128775 0.000132008 0.000135184 0.000138302 0.000141341 0.000144276 0.000147108 0.000149836 0.000152461 0.000154983 0.000157401 0.000159716 0.000161908 0.000163955 0.000165859 0.000167619 0.000169235 0.000170708 0.000172036 0.000173221 0.000174248 0.000175103 0.000175786 0.000176297 0.000176637 0.000176804 0.000176799 0.000176623 0.00017627 0.000175736 0.00017502 0.000174123 0.000173044 0.000171784 0.000170343 0.00016872 0.000166923 0.000164958 0.000162826 0.000160526 0.000158058 0.000155423 0.000152621 0.00014965 0.000146532 0.000143285 0.00013991 0.000136407 0.000132776 0.000129016 0.000125127 0.000121111 0.000116998 0.000112821 0.00010858 0.000104274 9.9905e-05 9.54715e-05 9.0974e-05 8.64123e-05 8.18289e-05 7.7266e-05 7.27236e-05 6.82018e-05 6.37005e-05 5.92198e-05 5.47596e-05 5.03199e-05 4.59127e-05 4.15497e-05 3.7231e-05 3.29565e-05 2.87263e-05 2.45403e-05 2.03986e-05 1.63012e-05 1.24806e-05 9.16943e-06 6.36766e-06 4.0753e-06 2.29236e-06 1.01883e-06 2.54706e-07 0 0 3.29437e-07 1.31775e-06 2.96493e-06 5.27099e-06 8.23593e-06 1.18597e-05 1.61424e-05 2.1084e-05 2.6424e-05 3.19021e-05 3.75183e-05 4.32727e-05 4.9165e-05 5.51955e-05 6.13641e-05 6.76708e-05 7.41237e-05 8.0731e-05 8.74926e-05 9.44087e-05 0.000101479 0.000108704 0.000116083 0.000123617 0.000131263 0.000138981 0.00014677 0.00015463 0.000162561 0.000170564 0.000178638 0.000186784 0.000194952 0.000203096 0.000211215 0.000219309 0.000227379 0.000235424 0.000243443 0.000251439 0.000259357 0.000267146 0.000274807 0.000282339 0.000289743 0.000297017 0.000304163 0.00031118 0.000318017 0.000324621 0.000330992 0.000337131 0.000343037 0.000348711 0.000354152 0.000359361 0.000364292 0.000368899 0.000373183 0.000377143 0.000380779 0.000384092 0.000387081 0.000389747 0.000392058 0.000393982 0.000395519 0.000396669 0.000397432 0.000397809 0.000397799 0.000397402 0.000396608 0.000395405 0.000393795 0.000391776 0.000389349 0.000386514 0.000383271 0.00037962 0.000375577 0.000371156 0.000366358 0.000361183 0.000355631 0.000349702 0.000343396 0.000336713 0.000329697 0.000322392 0.000314799 0.000306916 0.000298745 0.000290285 0.000281536 0.000272499 0.000263245 0.000253847 0.000244304 0.000234617 0.000224786 0.000214811 0.000204691 0.000194428 0.000184115 0.000173848 0.000163628 0.000153454 0.000143326 0.000133244 0.000123209 0.00011322 0.000103304 9.34868e-05 8.37697e-05 7.41521e-05 6.46342e-05 5.52158e-05 4.5897e-05 3.66777e-05 2.80814e-05 2.06312e-05 1.43272e-05 9.16943e-06 5.15781e-06 2.29236e-06 5.7309e-07 0 0 5.85666e-07 2.34266e-06 5.27099e-06 9.37065e-06 1.46416e-05 2.1084e-05 2.86976e-05 3.74826e-05 4.6976e-05 5.67149e-05 6.66993e-05 7.69292e-05 8.74045e-05 9.81254e-05 0.000109092 0.000120304 0.000131775 0.000143522 0.000155542 0.000167838 0.000180407 0.000193251 0.00020637 0.000219763 0.000233356 0.000247077 0.000260924 0.000274898 0.000288998 0.000303225 0.000317579 0.00033206 0.000346582 0.00036106 0.000375494 0.000389884 0.000404229 0.000418531 0.000432788 0.000447002 0.000461079 0.000474927 0.000488546 0.000501937 0.000515098 0.000528031 0.000540735 0.000553209 0.000565363 0.000577104 0.000588431 0.000599344 0.000609844 0.000619931 0.000629604 0.000638864 0.00064763 0.00065582 0.000663436 0.000670476 0.000676941 0.00068283 0.000688145 0.000692884 0.000696991 0.000700412 0.000703144 0.000705189 0.000706546 0.000707216 0.000707198 0.000706492 0.00070508 0.000702943 0.000700079 0.000696491 0.000692176 0.000687137 0.000681371 0.000674881 0.000667692 0.000659833 0.000651304 0.000642104 0.000632234 0.000621693 0.000610482 0.000598601 0.000586128 0.000573142 0.000559642 0.000545629 0.000531102 0.000516062 0.000500509 0.000484442 0.000467991 0.000451283 0.000434318 0.000417097 0.00039962 0.000381886 0.000363896 0.000345649 0.000327315 0.000309064 0.000290894 0.000272807 0.000254802 0.000236879 0.000219038 0.00020128 0.000183651 0.000166199 0.000148924 0.000131826 0.000114905 9.81614e-05 8.15946e-05 6.52049e-05 4.99225e-05 3.66777e-05 2.54706e-05 1.63012e-05 9.16943e-06 4.0753e-06 1.01883e-06 0 0 9.15103e-07 3.66041e-06 8.23593e-06 1.46416e-05 2.28776e-05 3.29437e-05 4.484e-05 5.85666e-05 7.34e-05 8.8617e-05 0.000104218 0.000120202 0.00013657 0.000153321 0.000170456 0.000187974 0.000205899 0.000224253 0.000243035 0.000262246 0.000281886 0.000301955 0.000322453 0.000343379 0.000364619 0.000386057 0.000407693 0.000429527 0.00045156 0.00047379 0.000496218 0.000518844 0.000541534 0.000564156 0.000586709 0.000609193 0.000631608 0.000653954 0.000676232 0.00069844 0.000720436 0.000742073 0.000763354 0.000784276 0.000804841 0.000825048 0.000844898 0.00086439 0.00088338 0.000901724 0.000919423 0.000936475 0.000952882 0.000968642 0.000983757 0.000998226 0.00101192 0.00102472 0.00103662 0.00104762 0.00105772 0.00106692 0.00107523 0.00108263 0.00108905 0.00109439 0.00109866 0.00110186 0.00110398 0.00110502 0.001105 0.00110389 0.00110169 0.00109835 0.00109387 0.00108827 0.00108153 0.00107365 0.00106464 0.0010545 0.00104327 0.00103099 0.00101766 0.00100329 0.000987865 0.000971396 0.000953879 0.000935314 0.000915825 0.000895534 0.000874441 0.000852545 0.000829847 0.000806347 0.000782045 0.000756941 0.000731235 0.000705129 0.000678622 0.000651715 0.000624406 0.000596697 0.000568587 0.000540077 0.00051143 0.000482912 0.000454523 0.000426261 0.000398128 0.000370124 0.000342247 0.0003145 0.000286954 0.000259686 0.000232694 0.000205978 0.000179539 0.000153377 0.000127492 0.000101883 7.80039e-05 5.7309e-05 3.97979e-05 2.54706e-05 1.43272e-05 6.36766e-06 1.59192e-06 0 0 1.31775e-06 5.27099e-06 1.18597e-05 2.1084e-05 3.29437e-05 4.74389e-05 6.45697e-05 8.43359e-05 0.000105696 0.000127609 0.000150073 0.000173091 0.00019666 0.000220782 0.000245456 0.000270683 0.000296495 0.000322924 0.00034997 0.000377635 0.000405916 0.000434815 0.000464332 0.000494466 0.000525052 0.000555923 0.000587079 0.00061852 0.000650246 0.000682257 0.000714553 0.000747135 0.000779809 0.000812385 0.000844861 0.000877238 0.000909516 0.000941694 0.000973774 0.00100575 0.00103743 0.00106859 0.00109923 0.00112936 0.00115897 0.00118807 0.00121665 0.00124472 0.00127207 0.00129848 0.00132397 0.00134852 0.00137215 0.00139484 0.00141661 0.00143744 0.00145717 0.0014756 0.00149273 0.00150857 0.00152312 0.00153637 0.00154833 0.00155899 0.00156823 0.00157593 0.00158207 0.00158668 0.00158973 0.00159124 0.0015912 0.00158961 0.00158643 0.00158162 0.00157518 0.0015671 0.0015574 0.00154606 0.00153309 0.00151848 0.00150231 0.00148462 0.00146543 0.00144473 0.00142253 0.00139881 0.00137359 0.00134685 0.00131879 0.00128957 0.00125919 0.00122766 0.00119498 0.00116114 0.00112615 0.00109 0.00105298 0.00101539 0.000977216 0.000938469 0.000899145 0.000859244 0.000818766 0.000777711 0.00073646 0.000695394 0.000654512 0.000613816 0.000573305 0.000532978 0.000492836 0.000452879 0.000413214 0.000373947 0.000335079 0.000296609 0.000258537 0.000220863 0.000183588 0.000146711 0.000112326 8.25249e-05 5.7309e-05 3.66777e-05 2.06312e-05 9.16943e-06 2.29236e-06 0 0 1.7936e-06 7.17441e-06 1.61424e-05 2.86976e-05 4.484e-05 6.45697e-05 8.78865e-05 0.00011479 0.000143864 0.000173689 0.000204267 0.000235596 0.000267676 0.000300509 0.000334093 0.00036843 0.000403562 0.000439535 0.000476349 0.000514003 0.000552497 0.000591832 0.000632008 0.000673024 0.000714654 0.000756673 0.000799079 0.000841874 0.000885057 0.000928628 0.000972587 0.00101693 0.00106141 0.00110575 0.00114995 0.00119402 0.00123795 0.00128175 0.00132541 0.00136894 0.00141205 0.00145446 0.00149617 0.00153718 0.00157749 0.00161709 0.001656 0.0016942 0.00173142 0.00176738 0.00180207 0.00183549 0.00186765 0.00189854 0.00192816 0.00195652 0.00198337 0.00200845 0.00203177 0.00205333 0.00207313 0.00209117 0.00210744 0.00212196 0.00213454 0.00214501 0.00215338 0.00215964 0.0021638 0.00216585 0.00216579 0.00216363 0.00215931 0.00215276 0.00214399 0.002133 0.00211979 0.00210436 0.0020867 0.00206682 0.00204481 0.00202074 0.00199462 0.00196644 0.00193622 0.00190394 0.0018696 0.00183322 0.00179502 0.00175525 0.0017139 0.00167099 0.0016265 0.00158044 0.00153281 0.0014836 0.00143322 0.00138205 0.0013301 0.00127736 0.00122384 0.00116953 0.00111443 0.00105855 0.0010024 0.000946508 0.000890864 0.000835472 0.000780331 0.000725442 0.000670805 0.000616419 0.00056243 0.000508984 0.000456079 0.000403717 0.000351897 0.000300619 0.000249883 0.00019969 0.000152888 0.000112326 7.80039e-05 4.99225e-05 2.80814e-05 1.24806e-05 3.12015e-06 0 0 2.34266e-06 9.37065e-06 2.1084e-05 3.74826e-05 5.85666e-05 8.43359e-05 0.00011479 0.00014993 0.000187904 0.00022686 0.000266797 0.000307717 0.000349618 0.000392502 0.000436367 0.000481214 0.000527102 0.000574087 0.00062217 0.00067135 0.000721629 0.000773005 0.00082548 0.000879052 0.000933426 0.000988307 0.0010437 0.00109959 0.00115599 0.0012129 0.00127032 0.00132824 0.00138633 0.00144424 0.00150197 0.00155953 0.00161692 0.00167412 0.00173115 0.00178801 0.00184432 0.00189971 0.00195418 0.00200775 0.00206039 0.00211212 0.00216294 0.00221284 0.00226145 0.00230841 0.00235372 0.00239738 0.00243938 0.00247972 0.00251842 0.00255546 0.00259052 0.00262328 0.00265374 0.0026819 0.00270776 0.00273132 0.00275258 0.00277153 0.00278797 0.00280165 0.00281258 0.00282076 0.00282619 0.00282886 0.00282879 0.00282597 0.00282032 0.00281177 0.00280032 0.00278596 0.00276871 0.00274855 0.00272549 0.00269952 0.00267077 0.00263933 0.00260521 0.00256842 0.00252894 0.00248677 0.00244193 0.00239441 0.00234451 0.00229257 0.00223857 0.00218252 0.00212441 0.00206425 0.00200204 0.00193777 0.00187196 0.00180513 0.00173727 0.00166839 0.00159848 0.00152754 0.00145558 0.0013826 0.00130926 0.00123626 0.00116358 0.00109123 0.00101921 0.000947516 0.000876153 0.000805119 0.000734603 0.000664795 0.000595696 0.000527304 0.000459621 0.000392645 0.000326378 0.000260819 0.00019969 0.000146711 0.000101883 6.52049e-05 3.66777e-05 1.63012e-05 4.0753e-06 0 0 2.9351e-06 1.17404e-05 2.64159e-05 4.69616e-05 7.33775e-05 0.000105664 0.00014382 0.000187846 0.000235421 0.000284221 0.000334247 0.000385498 0.000437976 0.000491679 0.000546608 0.000602762 0.000660215 0.000719041 0.000779239 0.000840809 0.000903751 0.000968065 0.00103375 0.00110081 0.00116887 0.00123757 0.00130689 0.00137685 0.00144745 0.00151867 0.00159053 0.00166302 0.00173572 0.00180819 0.00188045 0.00195248 0.00202429 0.00209588 0.00216724 0.00223839 0.00230885 0.00237816 0.00244633 0.00251335 0.00257922 0.00264395 0.00270753 0.00276997 0.00283079 0.00288955 0.00294624 0.00300085 0.0030534 0.00310388 0.00315229 0.00319863 0.00324249 0.00328347 0.00332158 0.0033568 0.00338915 0.00341862 0.0034452 0.00346891 0.00348946 0.00350657 0.00352023 0.00353046 0.00353724 0.00354058 0.00354047 0.00353693 0.00352985 0.00351914 0.0035048 0.00348683 0.00346522 0.00343999 0.00341112 0.00337862 0.00334263 0.00330329 0.00326059 0.00321454 0.00316513 0.00311236 0.00305625 0.00299677 0.00293434 0.00286933 0.00280176 0.00273161 0.0026589 0.00258362 0.00250577 0.00242535 0.002343 0.00225937 0.00217446 0.00208826 0.00200078 0.00191201 0.00182196 0.00173062 0.00163885 0.00154749 0.00145654 0.001366 0.00127586 0.00118614 0.00109683 0.00100793 0.000919672 0.000832297 0.000745805 0.000660194 0.000575465 0.000491618 0.000408653 0.000326569 0.00025003 0.000183695 0.000127566 8.16424e-05 4.59238e-05 2.04106e-05 5.10265e-06 0 0 3.54108e-06 1.41643e-05 3.18697e-05 5.66572e-05 8.85269e-05 0.000127479 0.000173513 0.000226629 0.000284019 0.000342875 0.000403197 0.000464985 0.00052824 0.00059296 0.000659146 0.000726798 0.000796006 0.00086686 0.000939361 0.00101351 0.0010893 0.00116674 0.00124583 0.00132656 0.0014085 0.00149119 0.00157464 0.00165885 0.00174381 0.00182953 0.00191601 0.00200324 0.00209072 0.00217793 0.00226487 0.00235154 0.00243794 0.00252407 0.00260993 0.00269552 0.00278028 0.00286366 0.00294566 0.00302628 0.00310551 0.00318337 0.00325984 0.00333493 0.00340808 0.00347875 0.00354692 0.0036126 0.00367579 0.00373648 0.00379469 0.0038504 0.00390314 0.00395241 0.00399821 0.00404056 0.00407943 0.00411485 0.0041468 0.00417528 0.00419996 0.00422051 0.00423691 0.00424917 0.0042573 0.00426128 0.00426112 0.00425683 0.00424828 0.00423536 0.00421808 0.00419643 0.00417042 0.00414003 0.00410528 0.00406617 0.00402285 0.0039755 0.00392411 0.00386869 0.00380924 0.00374575 0.00367823 0.00360667 0.00353155 0.00345334 0.00337205 0.00328766 0.00320018 0.00310961 0.00301595 0.00291921 0.00282014 0.00271953 0.00261737 0.00251367 0.00240842 0.00230163 0.00219329 0.0020834 0.00197299 0.00186307 0.00175363 0.00164469 0.00153623 0.00142826 0.00132079 0.0012138 0.00110758 0.00100241 0.000898284 0.000795211 0.000693187 0.000592212 0.000492287 0.00039341 0.000301204 0.000221293 0.000153676 9.83524e-05 5.53232e-05 2.45881e-05 6.14703e-06 0 0 4.16059e-06 1.66424e-05 3.74453e-05 6.65695e-05 0.000104015 0.000149781 0.000203869 0.000266278 0.000333699 0.000402822 0.000473649 0.000546178 0.000620409 0.000696344 0.000773981 0.000853321 0.000934473 0.00101754 0.00110254 0.00118945 0.00127828 0.00136904 0.00146171 0.00155631 0.0016523 0.00174918 0.00184693 0.00194557 0.00204508 0.00214548 0.00224675 0.00234891 0.00245135 0.00255346 0.00265525 0.00275672 0.00285788 0.0029587 0.00305921 0.0031594 0.00325862 0.00335621 0.00345218 0.00354654 0.00363927 0.00373038 0.00381986 0.00390773 0.00399333 0.00407601 0.00415577 0.00423261 0.00430653 0.00437753 0.00444562 0.00451078 0.00457246 0.00463008 0.00468365 0.00473316 0.00477861 0.00482001 0.00485735 0.00489064 0.00491947 0.00494347 0.00496261 0.00497691 0.00498637 0.00499098 0.00499074 0.00498566 0.00497561 0.00496044 0.00494017 0.00491478 0.00488429 0.00484869 0.00480797 0.00476215 0.00471141 0.00465596 0.00459578 0.00453089 0.00446127 0.00438693 0.00430788 0.0042241 0.00413616 0.0040446 0.00394943 0.00385064 0.00374824 0.00364222 0.00353259 0.00341934 0.00330338 0.0031856 0.00306602 0.00294462 0.00282142 0.0026964 0.00256958 0.00244094 0.00231168 0.00218299 0.00205486 0.0019273 0.00180031 0.00167388 0.00154802 0.00142272 0.00129832 0.00117512 0.00105313 0.000932356 0.000812788 0.000694429 0.00057728 0.00046134 0.000353214 0.000259504 0.000180211 0.000115335 6.4876e-05 2.88338e-05 7.20844e-06 0 0 4.79365e-06 1.91746e-05 4.31428e-05 7.66984e-05 0.000119841 0.000172571 0.000234889 0.000306793 0.00038446 0.000464062 0.000545601 0.000629075 0.000714486 0.000801832 0.000891114 0.000982333 0.00107562 0.00117109 0.00126877 0.00136863 0.00147069 0.00157495 0.0016814 0.00179004 0.00190029 0.00201153 0.00212377 0.00223702 0.00235127 0.00246652 0.00258277 0.00270002 0.00281758 0.00293477 0.00305159 0.00316803 0.00328409 0.00339978 0.0035151 0.00363004 0.00374385 0.00385581 0.0039659 0.00407412 0.00418048 0.00428498 0.00438761 0.00448837 0.00458653 0.00468133 0.00477278 0.00486088 0.00494563 0.00502703 0.00510508 0.00517977 0.00525046 0.0053165 0.00537788 0.00543461 0.00548669 0.00553411 0.00557687 0.00561499 0.00564799 0.00567544 0.00569733 0.00571367 0.00572445 0.00572967 0.00572933 0.00572344 0.00571184 0.00569438 0.00567106 0.00564188 0.00560684 0.00556595 0.00551919 0.00546658 0.00540833 0.00534467 0.0052756 0.00520111 0.00512122 0.00503591 0.0049452 0.00484907 0.00474816 0.00464311 0.00453391 0.00442057 0.00430308 0.00418145 0.00405567 0.00392574 0.00379271 0.00365759 0.0035204 0.00338112 0.00323977 0.00309633 0.00295082 0.00280323 0.00265492 0.00250725 0.00236022 0.00221384 0.00206809 0.00192299 0.00177853 0.00163471 0.0014919 0.00135044 0.00121035 0.00107163 0.000934267 0.000798268 0.000663633 0.000530361 0.000406058 0.000298328 0.000207172 0.00013259 7.4582e-05 3.31476e-05 8.28689e-06 0 0 5.44024e-06 2.1761e-05 4.89622e-05 8.70439e-05 0.000136006 0.000195849 0.000266572 0.000348176 0.000436302 0.000526595 0.000619054 0.000713678 0.000810468 0.000909424 0.00101055 0.00111383 0.00121944 0.00132751 0.00143805 0.00155106 0.00166653 0.00178448 0.00190489 0.00202777 0.00215245 0.00227825 0.00240516 0.0025332 0.00266236 0.00279264 0.00292405 0.00305657 0.00318944 0.00332188 0.00345388 0.00358545 0.00371659 0.0038473 0.00397758 0.00410742 0.004236 0.00436246 0.0044868 0.00460904 0.00472916 0.00484717 0.00496306 0.00507685 0.00518768 0.00529472 0.00539797 0.00549743 0.0055931 0.00568498 0.00577307 0.00585737 0.00593714 0.00601166 0.00608092 0.00614492 0.00620366 0.00625714 0.00630536 0.00634832 0.00638552 0.00641644 0.00644108 0.00645945 0.00647154 0.00647735 0.00647689 0.00647015 0.00645696 0.00643716 0.00641075 0.00637772 0.00633807 0.00629181 0.00623893 0.00617944 0.00611359 0.00604163 0.00596355 0.00587937 0.00578908 0.00569269 0.00559018 0.00548156 0.00536755 0.00524886 0.00512549 0.00499744 0.00486471 0.00472729 0.0045852 0.00443843 0.00428814 0.0041355 0.00398051 0.00382316 0.00366347 0.00350142 0.00333702 0.00317027 0.0030027 0.00283585 0.00266971 0.00250429 0.00233959 0.00217559 0.00201232 0.00184976 0.00168831 0.00152837 0.00136995 0.00121303 0.00105762 0.000903729 0.000751345 0.000600472 0.000459736 0.000337765 0.000234559 0.000150118 8.44414e-05 3.75295e-05 9.38237e-06 0 0 6.10038e-06 2.44015e-05 5.49034e-05 9.76061e-05 0.00015251 0.000219614 0.000298919 0.000390424 0.000489227 0.000590421 0.000694007 0.000799986 0.000908356 0.00101912 0.00113227 0.00124782 0.00136593 0.00148679 0.00161039 0.00173672 0.0018658 0.00199763 0.00213219 0.0022695 0.00240879 0.00254933 0.0026911 0.00283411 0.00297837 0.00312386 0.00327059 0.00341856 0.00356691 0.00371476 0.00386213 0.004009 0.00415538 0.00430126 0.00444666 0.00459157 0.00473504 0.00487615 0.0050149 0.00515128 0.0052853 0.00541695 0.00554624 0.00567316 0.00579678 0.00591617 0.00603132 0.00614224 0.00624892 0.00635137 0.00644959 0.00654357 0.0066325 0.00671556 0.00679275 0.00686407 0.00692952 0.0069891 0.00704281 0.00709065 0.00713205 0.00716645 0.00719385 0.00721424 0.00722764 0.00723403 0.00723341 0.0072258 0.00721099 0.00718881 0.00715924 0.0071223 0.00707798 0.00702628 0.00696721 0.00690075 0.0068272 0.00674684 0.00665966 0.00656567 0.00646487 0.00635726 0.00624283 0.00612159 0.00599434 0.00586186 0.00572416 0.00558125 0.00543311 0.00527976 0.00512118 0.00495739 0.00478967 0.00461932 0.00444635 0.00427075 0.00409252 0.00391166 0.00372818 0.00354207 0.00335504 0.0031688 0.00298334 0.00279867 0.00261479 0.00243169 0.00224938 0.00206786 0.00188756 0.00170891 0.00153191 0.00135656 0.00118286 0.00101081 0.000840417 0.000671673 0.00051425 0.000377816 0.000262372 0.000167918 9.44541e-05 4.19796e-05 1.04949e-05 0 0 6.77406e-06 2.70962e-05 6.09665e-05 0.000108385 0.000169351 0.000243866 0.000331929 0.00043354 0.000543232 0.000655539 0.000770462 0.000887999 0.00100815 0.00113092 0.0012563 0.0013843 0.00151511 0.00164893 0.00178578 0.00192563 0.0020685 0.00221439 0.00236329 0.00251521 0.00266931 0.00282477 0.00298158 0.00313976 0.00329928 0.00346017 0.0036224 0.003786 0.00395 0.00411344 0.00427633 0.00443866 0.00460044 0.00476167 0.00492234 0.00508246 0.00524099 0.0053969 0.00555019 0.00570085 0.0058489 0.00599432 0.00613712 0.00627731 0.00641383 0.00654568 0.00667284 0.00679531 0.00691311 0.00702622 0.00713464 0.00723838 0.00733654 0.00742821 0.00751339 0.00759208 0.00766428 0.00773 0.00778923 0.00784197 0.00788759 0.00792549 0.00795564 0.00797806 0.00799275 0.00799969 0.00799891 0.00799038 0.00797392 0.0079493 0.00791654 0.00787563 0.00782657 0.00776936 0.007704 0.0076305 0.00754916 0.0074603 0.00736391 0.00726 0.00714857 0.00702962 0.00690315 0.00676915 0.00662851 0.00648211 0.00632994 0.006172 0.0060083 0.00583884 0.00566361 0.00548262 0.00529729 0.00510906 0.00491792 0.00472387 0.00452692 0.00432706 0.00412429 0.00391862 0.00371193 0.00350609 0.0033011 0.00309697 0.0028937 0.00269129 0.00248973 0.00228903 0.00208964 0.00189205 0.00169624 0.00150221 0.00130997 0.00111952 0.000930849 0.000743965 0.000569598 0.00041848 0.000290611 0.000185991 0.00010462 4.64978e-05 1.16245e-05 0 0 7.46128e-06 2.98451e-05 6.71515e-05 0.00011938 0.000186532 0.000268606 0.000365603 0.000477522 0.000598319 0.000721951 0.000848417 0.000977717 0.00110985 0.00124482 0.00138262 0.00152326 0.00166696 0.00181394 0.00196422 0.00211778 0.00227463 0.00243477 0.0025982 0.00276492 0.00293401 0.00310458 0.00327662 0.00345013 0.00362511 0.00380156 0.00397948 0.00415888 0.0043387 0.0045179 0.00469648 0.00487444 0.00505179 0.00522851 0.00540462 0.00558011 0.00575384 0.00592469 0.00609267 0.00625776 0.00641996 0.00657929 0.00673573 0.00688929 0.00703884 0.00718325 0.00732252 0.00745666 0.00758565 0.00770951 0.00782822 0.0079418 0.00804925 0.00814959 0.00824282 0.00832893 0.00840794 0.00847983 0.0085446 0.00860227 0.00865214 0.00869354 0.00872646 0.0087509 0.00876686 0.00877435 0.00877337 0.00876391 0.00874574 0.00871865 0.00868264 0.0086377 0.00858384 0.00852105 0.00844933 0.00836869 0.00827947 0.00818201 0.00807631 0.00796237 0.0078402 0.00770978 0.00757113 0.00742424 0.00727008 0.0071096 0.00694281 0.0067697 0.00659028 0.00640454 0.00621249 0.00601413 0.00581102 0.00560471 0.00539522 0.00518254 0.00496667 0.00474761 0.00452537 0.00429993 0.00407336 0.00384772 0.00362299 0.0033992 0.00317632 0.00295438 0.00273335 0.00251325 0.00229457 0.0020778 0.00186294 0.00165 0.00143896 0.00122985 0.00102264 0.000817347 0.000625781 0.000459758 0.000319276 0.000204337 0.000114939 5.10842e-05 1.2771e-05 0 0 8.16207e-06 3.26483e-05 7.34586e-05 0.000130593 0.000204052 0.000293834 0.000399941 0.000522372 0.000654491 0.000789662 0.000927884 0.00106916 0.00121348 0.00136086 0.00151129 0.00166477 0.00182156 0.00198191 0.00214582 0.00231329 0.00248432 0.00265892 0.00283708 0.0030188 0.00320309 0.00338897 0.00357643 0.00376548 0.00395611 0.00414833 0.00434213 0.00453751 0.00473335 0.0049285 0.00512296 0.00531673 0.00550981 0.00570221 0.00589392 0.00608494 0.00627405 0.00646001 0.00664281 0.00682248 0.00699899 0.00717236 0.00734258 0.00750965 0.00767235 0.00782945 0.00798095 0.00812685 0.00826714 0.00840184 0.00853094 0.00865444 0.00877126 0.00888034 0.00898168 0.00907528 0.00916113 0.00923923 0.0093096 0.00937222 0.00942635 0.00947126 0.00950695 0.00953341 0.00955065 0.00955866 0.00955745 0.00954702 0.00952712 0.0094975 0.00945818 0.00940915 0.00935041 0.00928196 0.0092038 0.00911593 0.00901872 0.00891256 0.00879743 0.00867334 0.00854029 0.00839829 0.00824732 0.00808739 0.00791954 0.00774483 0.00756325 0.00737479 0.00717947 0.00697729 0.00676823 0.0065523 0.0063312 0.00610663 0.00587858 0.00564706 0.00541206 0.00517358 0.00493163 0.00468621 0.00443954 0.00419386 0.00394917 0.00370547 0.00346277 0.00322105 0.00298032 0.00274059 0.00250236 0.00226617 0.00203202 0.00179991 0.00156983 0.00134179 0.00111578 0.00089181 0.000682792 0.000501643 0.000348363 0.000222952 0.000125411 5.57381e-05 1.39345e-05 0 0 8.87647e-06 3.55059e-05 7.98882e-05 0.000142024 0.000221912 0.000319553 0.000434947 0.000568094 0.000711752 0.000858679 0.00100887 0.00116234 0.00131907 0.00147907 0.00164234 0.00180888 0.00197898 0.0021529 0.00233067 0.00251227 0.00269771 0.00288698 0.00308009 0.00327703 0.00347674 0.00367815 0.00388126 0.00408606 0.00429256 0.00450075 0.00471064 0.00492223 0.00513428 0.00534558 0.00555612 0.00576589 0.00597491 0.00618317 0.00639067 0.00659741 0.00680206 0.0070033 0.00720111 0.00739551 0.00758649 0.00777405 0.0079582 0.00813893 0.00831491 0.00848483 0.00864868 0.00880646 0.00895817 0.00910381 0.00924339 0.0093769 0.00950319 0.00962109 0.0097306 0.00983174 0.00992449 0.0100089 0.0100848 0.0101524 0.0102109 0.0102593 0.0102978 0.0103262 0.0103447 0.0103533 0.0103518 0.0103404 0.0103187 0.0102865 0.0102438 0.0101906 0.0101269 0.0100527 0.00996802 0.00987282 0.00976752 0.00965254 0.00952786 0.00939349 0.00924942 0.00909567 0.00893223 0.0087591 0.0085774 0.00838828 0.00819173 0.00798775 0.00777633 0.00755749 0.00733122 0.00709752 0.00685822 0.00661515 0.00636832 0.00611772 0.00586336 0.00560523 0.00534333 0.00507767 0.00481065 0.00454469 0.00427978 0.00401593 0.00375314 0.0034914 0.00323071 0.00297109 0.00271307 0.0024572 0.0022035 0.00195195 0.00170256 0.00145533 0.00121026 0.000967345 0.000740624 0.000544132 0.000377869 0.000241836 0.000136033 6.04591e-05 1.51148e-05 0 0 9.60448e-06 3.84179e-05 8.64404e-05 0.000153672 0.000240112 0.000345761 0.00047062 0.000614687 0.000770102 0.000929002 0.00109139 0.00125726 0.00142662 0.00159946 0.00177579 0.0019556 0.00213922 0.00232694 0.00251878 0.00271472 0.00291478 0.00311895 0.00332723 0.00353962 0.00375497 0.00397213 0.0041911 0.00441187 0.00463444 0.00485883 0.00508502 0.00531301 0.0055415 0.00576914 0.00599596 0.00622194 0.00644708 0.00667139 0.00689487 0.00711751 0.00733789 0.00755457 0.00776756 0.00797686 0.00818246 0.00838437 0.00858259 0.00877712 0.00896652 0.00914939 0.00932571 0.00949549 0.00965873 0.00981543 0.00996558 0.0101092 0.010245 0.0103718 0.0104896 0.0105983 0.010698 0.0107887 0.0108704 0.010943 0.0110057 0.0110577 0.0110989 0.0111294 0.0111492 0.0111582 0.0111564 0.0111439 0.0111204 0.0110856 0.0110395 0.0109821 0.0109134 0.0108333 0.010742 0.0106394 0.0105259 0.0104019 0.0102676 0.0101228 0.00996759 0.00980195 0.00962588 0.00943938 0.00924367 0.00903996 0.00882825 0.00860855 0.00838085 0.00814516 0.00790146 0.00764977 0.00739206 0.00713028 0.00686443 0.00659453 0.00632057 0.00604254 0.00576046 0.00547431 0.0051867 0.0049002 0.00461482 0.00433057 0.00404743 0.00376542 0.00348453 0.00320475 0.00292668 0.00265089 0.00237737 0.00210613 0.00183717 0.00157049 0.00130608 0.00104395 0.000799276 0.000587224 0.000407794 0.000260988 0.000146806 6.52471e-05 1.63118e-05 0 0 1.03461e-05 4.13844e-05 9.3115e-05 0.000165538 0.000258653 0.00037246 0.000506959 0.000662151 0.00082954 0.00100063 0.00117542 0.00135392 0.00153612 0.00172202 0.00191162 0.00210493 0.00230228 0.00250401 0.00271014 0.00292065 0.00313555 0.00335483 0.00357851 0.00380657 0.00403778 0.00427091 0.00450595 0.00474291 0.00498178 0.00522256 0.00546526 0.00570988 0.00595499 0.0061992 0.00644249 0.00668486 0.00692633 0.00716688 0.00740651 0.00764524 0.00788152 0.00811382 0.00834216 0.00856652 0.0087869 0.00900332 0.00921575 0.00942422 0.00962719 0.00982313 0.0100121 0.010194 0.0103688 0.0105367 0.0106975 0.0108513 0.0109968 0.0111325 0.0112586 0.011375 0.0114817 0.0115788 0.0116661 0.0117438 0.0118108 0.0118664 0.0119104 0.0119429 0.0119639 0.0119734 0.0119713 0.0119578 0.0119324 0.0118949 0.0118453 0.0117836 0.0117097 0.0116238 0.0115257 0.0114156 0.0112938 0.0111608 0.0110166 0.0108613 0.0106948 0.0105171 0.0103283 0.0101282 0.00991833 0.00969986 0.00947282 0.00923721 0.00899304 0.00874029 0.00847897 0.00820908 0.00793272 0.007652 0.00736693 0.00707749 0.00678369 0.00648554 0.00618302 0.00587614 0.00556768 0.0052604 0.0049543 0.00464939 0.00434566 0.00404312 0.00374176 0.00344159 0.00314321 0.00284722 0.00255363 0.00226244 0.00197364 0.00168724 0.00140324 0.00112163 0.00085875 0.000630919 0.000438138 0.000280408 0.00015773 7.01021e-05 1.75255e-05 0 0 1.11013e-05 4.44054e-05 9.99121e-05 0.000177621 0.000277534 0.000399648 0.000543966 0.000710486 0.000890067 0.00107357 0.00126098 0.00145232 0.00164758 0.00184675 0.00204984 0.00225685 0.00246815 0.00268412 0.00290475 0.00313005 0.00336001 0.00359463 0.00383392 0.00407787 0.00432516 0.00457448 0.00482581 0.00507917 0.00533455 0.00559195 0.00585137 0.00611282 0.00637477 0.00663573 0.0068957 0.00715467 0.00741264 0.00766962 0.00792561 0.00818059 0.00843296 0.00868106 0.0089249 0.00916449 0.00939981 0.00963088 0.00985769 0.0100802 0.0102969 0.0105061 0.0107077 0.0109018 0.0110885 0.0112676 0.0114392 0.0116033 0.0117584 0.0119032 0.0120377 0.0121618 0.0122756 0.0123791 0.0124721 0.0125549 0.0126263 0.0126854 0.0127322 0.0127667 0.012789 0.0127989 0.0127965 0.0127818 0.0127545 0.0127143 0.01