<?xml version="1.0"?> 
<VTKFile type="StructuredGrid" version="0.1"> 
<StructuredGrid WholeExtent="0 128 0 128 0 0"> 
<Piece Extent="0 128 0 128 0 0"> 
<PointData>
<DataArray type="Float32" Name="u" format="ascii" NumberOfComponents="1"> 
0 0 0 0 0 0 0 0 0 0 0 0 0 0 0 0 0 0 0 0 0 0 0 0 0 0 0 0 0 0 0 0 0 0 0 0 0 0 0 0 0 0 0 0 0 0 0 0 0 0 0 0 0 0 0 0 0 0 0 0 0 0 0 0 0 0 0 0 0 0 0 0 0 0 0 0 0 0 0 0 0 0 0 0 0 0 0 0 0 0 0 0 0 0 0 0 0 0 0 0 0 0 0 0 0 0 0 0 0 0 0 0 0 0 0 0 0 0 0 0 0 0 0 0 0 0 0 0 0 0 1.67091e-08 6.68364e-08 1.50382e-07 2.67346e-07 4.17728e-07 6.01528e-07 8.18746e-07 1.06938e-06 1.34595e-06 1.64095e-06 1.95439e-06 2.28627e-06 2.63659e-06 3.00535e-06 3.39254e-06 3.79818e-06 4.22512e-06 4.67622e-06 5.15149e-06 5.65092e-06 6.17452e-06 6.72229e-06 7.29423e-06 7.89033e-06 8.50915e-06 9.14924e-06 9.81062e-06 1.04933e-05 1.11972e-05 1.19224e-05 1.26689e-05 1.34366e-05 1.42211e-05 1.50177e-05 1.58264e-05 1.66473e-05 1.74803e-05 1.83254e-05 1.91827e-05 2.00521e-05 2.09266e-05 2.17992e-05 2.26699e-05 2.35387e-05 2.44056e-05 2.52705e-05 2.61335e-05 2.69946e-05 2.78456e-05 2.86781e-05 2.94923e-05 3.02881e-05 3.10655e-05 3.18245e-05 3.25651e-05 3.32874e-05 3.39834e-05 3.46456e-05 3.52738e-05 3.58682e-05 3.64286e-05 3.69551e-05 3.74476e-05 3.79063e-05 3.83254e-05 3.86994e-05 3.90283e-05 3.93121e-05 3.95507e-05 3.97442e-05 3.98925e-05 3.99958e-05 4.00517e-05 4.00581e-05 4.00151e-05 3.99225e-05 3.97805e-05 3.9589e-05 3.9348e-05 3.90575e-05 3.87193e-05 3.83353e-05 3.79055e-05 3.74298e-05 3.69083e-05 3.6341e-05 3.57278e-05 3.50688e-05 3.43697e-05 3.36362e-05 3.28682e-05 3.20659e-05 3.12291e-05 3.0358e-05 2.94524e-05 2.85125e-05 2.7547e-05 2.6565e-05 2.55665e-05 2.45515e-05 2.35199e-05 2.24718e-05 2.14071e-05 2.03259e-05 1.92391e-05 1.81578e-05 1.70818e-05 1.60113e-05 1.49461e-05 1.38864e-05 1.2832e-05 1.17831e-05 1.07429e-05 9.7147e-06 8.69861e-06 7.69458e-06 6.70261e-06 5.72269e-06 4.75484e-06 3.79905e-06 2.90865e-06 2.13697e-06 1.484e-06 9.49762e-07 5.34241e-07 2.37441e-07 5.93601e-08 0 0 6.68364e-08 2.67346e-07 6.01528e-07 1.06938e-06 1.67091e-06 2.40611e-06 3.27498e-06 4.27753e-06 5.38379e-06 6.5638e-06 7.81757e-06 9.14509e-06 1.05464e-05 1.20214e-05 1.35702e-05 1.51927e-05 1.69005e-05 1.87049e-05 2.0606e-05 2.26037e-05 2.46981e-05 2.68892e-05 2.91769e-05 3.15613e-05 3.40366e-05 3.6597e-05 3.92425e-05 4.19731e-05 4.47887e-05 4.76895e-05 5.06754e-05 5.37464e-05 5.68842e-05 6.00706e-05 6.33055e-05 6.6589e-05 6.9921e-05 7.33016e-05 7.67307e-05 8.02084e-05 8.37065e-05 8.7197e-05 9.06798e-05 9.41549e-05 9.76223e-05 0.000101082 0.000104534 0.000107979 0.000111382 0.000114713 0.000117969 0.000121152 0.000124262 0.000127298 0.00013026 0.000133149 0.000135934 0.000138582 0.000141095 0.000143473 0.000145714 0.00014782 0.000149791 0.000151625 0.000153302 0.000154798 0.000156113 0.000157248 0.000158203 0.000158977 0.00015957 0.000159983 0.000160207 0.000160232 0.00016006 0.00015969 0.000159122 0.000158356 0.000157392 0.00015623 0.000154877 0.000153341 0.000151622 0.000149719 0.000147633 0.000145364 0.000142911 0.000140275 0.000137479 0.000134545 0.000131473 0.000128264 0.000124917 0.000121432 0.00011781 0.00011405 0.000110188 0.00010626 0.000102266 9.82059e-05 9.40795e-05 8.98871e-05 8.56284e-05 8.13036e-05 7.69566e-05 7.26311e-05 6.83273e-05 6.40451e-05 5.97844e-05 5.55454e-05 5.13281e-05 4.71323e-05 4.29714e-05 3.88588e-05 3.47944e-05 3.07783e-05 2.68104e-05 2.28908e-05 1.90194e-05 1.51962e-05 1.16346e-05 8.54786e-06 5.93601e-06 3.79905e-06 2.13697e-06 9.49762e-07 2.37441e-07 0 0 1.50382e-07 6.01528e-07 1.35344e-06 2.40611e-06 3.75955e-06 5.41375e-06 7.36871e-06 9.62444e-06 1.21135e-05 1.47686e-05 1.75895e-05 2.05765e-05 2.37293e-05 2.70481e-05 3.05329e-05 3.41836e-05 3.8026e-05 4.2086e-05 4.63634e-05 5.08583e-05 5.55707e-05 6.05006e-05 6.5648e-05 7.10129e-05 7.65823e-05 8.23432e-05 8.82955e-05 9.44394e-05 0.000100775 0.000107301 0.00011402 0.000120929 0.00012799 0.000135159 0.000142437 0.000149825 0.000157322 0.000164929 0.000172644 0.000180469 0.00018834 0.000196193 0.000204029 0.000211848 0.00021965 0.000227435 0.000235202 0.000242952 0.00025061 0.000258103 0.000265431 0.000272593 0.000279589 0.000286421 0.000293086 0.000299586 0.000305851 0.00031181 0.000317464 0.000322813 0.000327857 0.000332596 0.000337029 0.000341157 0.000344929 0.000348295 0.000351255 0.000353808 0.000355956 0.000357697 0.000359033 0.000359962 0.000360465 0.000360523 0.000360136 0.000359303 0.000358024 0.000356301 0.000354132 0.000351517 0.000348474 0.000345018 0.000341149 0.000336868 0.000332175 0.000327069 0.00032155 0.000315619 0.000309327 0.000302725 0.000295814 0.000288593 0.000281062 0.000273222 0.000265072 0.000256612 0.000247923 0.000239085 0.000230099 0.000220963 0.000211679 0.000202246 0.000192664 0.000182933 0.000173152 0.00016342 0.000153736 0.000144101 0.000134515 0.000124977 0.000115488 0.000106048 9.66857e-05 8.74323e-05 7.82875e-05 6.92512e-05 6.03235e-05 5.15042e-05 4.27936e-05 3.41914e-05 2.61778e-05 1.92327e-05 1.3356e-05 8.54786e-06 4.80817e-06 2.13697e-06 5.34241e-07 0 0 2.67346e-07 1.06938e-06 2.40611e-06 4.27753e-06 6.68364e-06 9.62444e-06 1.30999e-05 1.71101e-05 2.15352e-05 2.62552e-05 3.12703e-05 3.65804e-05 4.21855e-05 4.80856e-05 5.42807e-05 6.07709e-05 6.76019e-05 7.48195e-05 8.24238e-05 9.04148e-05 9.87924e-05 0.000107557 0.000116708 0.000126245 0.000136146 0.000146388 0.00015697 0.000167892 0.000179155 0.000190758 0.000202702 0.000214986 0.000227537 0.000240282 0.000253222 0.000266356 0.000279684 0.000293206 0.000306923 0.000320834 0.000334826 0.000348788 0.000362719 0.000376619 0.000390489 0.000404328 0.000418136 0.000431914 0.000445529 0.00045885 0.000471877 0.00048461 0.000497048 0.000509192 0.000521042 0.000532598 0.000543735 0.000554329 0.000564381 0.000573891 0.000582857 0.000591281 0.000599162 0.000606501 0.000613207 0.000619191 0.000624453 0.000628993 0.000632811 0.000635907 0.00063828 0.000639932 0.000640827 0.00064093 0.000640241 0.00063876 0.000636488 0.000633423 0.000629567 0.000624919 0.000619509 0.000613365 0.000606488 0.000598877 0.000590533 0.000581456 0.000571645 0.000561101 0.000549915 0.000538179 0.000525892 0.000513054 0.000499666 0.000485728 0.000471239 0.000456199 0.000440752 0.000425041 0.000409064 0.000392824 0.000376318 0.000359548 0.000342514 0.000325214 0.000307826 0.000290524 0.000273309 0.00025618 0.000239138 0.000222182 0.000205312 0.000188529 0.000171886 0.000155435 0.000139178 0.000123113 0.000107242 9.15631e-05 7.60775e-05 6.07848e-05 4.65384e-05 3.41914e-05 2.37441e-05 1.51962e-05 8.54786e-06 3.79905e-06 9.49762e-07 0 0 4.17728e-07 1.67091e-06 3.75955e-06 6.68364e-06 1.04432e-05 1.50382e-05 2.04686e-05 2.67346e-05 3.36487e-05 4.10238e-05 4.88598e-05 5.71568e-05 6.59148e-05 7.51337e-05 8.48136e-05 9.49545e-05 0.000105628 0.000116905 0.000128787 0.000141273 0.000154363 0.000168057 0.000182356 0.000197258 0.000212729 0.000228731 0.000245265 0.000262332 0.00027993 0.00029806 0.000316721 0.000335915 0.000355527 0.000375441 0.00039566 0.000416181 0.000437007 0.000458135 0.000479567 0.000501303 0.000523166 0.000544981 0.000566748 0.000588468 0.000610139 0.000631763 0.000653338 0.000674866 0.00069614 0.000716954 0.000737308 0.000757202 0.000776637 0.000795613 0.000814128 0.000832184 0.000849586 0.00086614 0.000881846 0.000896704 0.000910714 0.000923876 0.000936191 0.000947657 0.000958136 0.000967486 0.000975708 0.000982801 0.000988767 0.000993604 0.000997313 0.000999894 0.00100129 0.00100145 0.00100038 0.000998063 0.000994512 0.000989724 0.000983699 0.000976436 0.000967982 0.000958383 0.000947637 0.000935745 0.000922708 0.000908524 0.000893195 0.00087672 0.000859242 0.000840904 0.000821706 0.000801647 0.000780728 0.00075895 0.000736311 0.000712811 0.000688675 0.000664126 0.000639163 0.000613787 0.000587997 0.000561794 0.000535178 0.000508148 0.000480979 0.000453944 0.000427046 0.000400282 0.000373653 0.000347159 0.0003208 0.000294577 0.000268571 0.000242868 0.000217465 0.000192364 0.000167565 0.000143067 0.000118871 9.49762e-05 7.27162e-05 5.34241e-05 3.71001e-05 2.37441e-05 1.3356e-05 5.93601e-06 1.484e-06 0 0 6.01528e-07 2.40611e-06 5.41375e-06 9.62444e-06 1.50382e-05 2.1655e-05 2.94749e-05 3.84978e-05 4.84541e-05 5.90742e-05 7.03581e-05 8.23058e-05 9.49173e-05 0.000108193 0.000122132 0.000136734 0.000152104 0.000168344 0.000185454 0.000203433 0.000222283 0.000242003 0.000262592 0.000284052 0.000306329 0.000329373 0.000353182 0.000377757 0.000403099 0.000429206 0.000456079 0.000483718 0.000511958 0.000540636 0.00056975 0.000599301 0.000629289 0.000659715 0.000690577 0.000721876 0.000753359 0.000784773 0.000816118 0.000847394 0.0008786 0.000909738 0.000940807 0.000971807 0.00100244 0.00103241 0.00106172 0.00109037 0.00111836 0.00114568 0.00117234 0.00119834 0.0012234 0.00124724 0.00126986 0.00129125 0.00131143 0.00133038 0.00134811 0.00136463 0.00137972 0.00139318 0.00140502 0.00141523 0.00142382 0.00143079 0.00143613 0.00143985 0.00144186 0.00144209 0.00144054 0.00143721 0.0014321 0.0014252 0.00141653 0.00140607 0.00139389 0.00138007 0.0013646 0.00134747 0.0013287 0.00130828 0.0012862 0.00126248 0.00123731 0.0012109 0.00118326 0.00115437 0.00112425 0.00109289 0.00106029 0.00102645 0.000991693 0.000956341 0.000920395 0.000883853 0.000846716 0.000808983 0.000770656 0.000731733 0.000692609 0.00065368 0.000614946 0.000576406 0.00053806 0.000499909 0.000461953 0.000424191 0.000386743 0.000349729 0.00031315 0.000277005 0.000241294 0.000206017 0.000171174 0.000136766 0.000104711 7.69307e-05 5.34241e-05 3.41914e-05 1.92327e-05 8.54786e-06 2.13697e-06 0 0 8.18746e-07 3.27498e-06 7.36871e-06 1.30999e-05 2.04686e-05 2.94749e-05 4.01186e-05 5.23997e-05 6.59514e-05 8.04066e-05 9.57652e-05 0.000112027 0.000129193 0.000147262 0.000166235 0.000186111 0.000207031 0.000229135 0.000252423 0.000276895 0.000302552 0.000329392 0.000357417 0.000386626 0.000416948 0.000448313 0.00048072 0.00051417 0.000548662 0.000584197 0.000620774 0.000658394 0.000696832 0.000735865 0.000775493 0.000815716 0.000856533 0.000897945 0.000939952 0.000982553 0.00102541 0.00106816 0.00111083 0.0011534 0.00119587 0.00123825 0.00128054 0.00132274 0.00136443 0.00140523 0.00144512 0.00148412 0.00152221 0.0015594 0.00159569 0.00163108 0.00166519 0.00169763 0.00172842 0.00175754 0.001785 0.0018108 0.00183493 0.00185741 0.00187795 0.00189627 0.00191239 0.00192629 0.00193798 0.00194746 0.00195473 0.00195979 0.00196253 0.00196285 0.00196074 0.0019562 0.00194924 0.00193986 0.00192805 0.00191382 0.00189725 0.00187843 0.00185737 0.00183406 0.00180851 0.00178071 0.00175066 0.00171837 0.00168411 0.00164817 0.00161054 0.00157123 0.00153023 0.00148754 0.00144317 0.00139711 0.0013498 0.00130169 0.00125276 0.00120302 0.00115247 0.00110112 0.00104895 0.000995969 0.000942718 0.000889731 0.000837009 0.000784552 0.000732359 0.000680432 0.000628769 0.00057737 0.0005264 0.000476021 0.000426232 0.000377034 0.000328428 0.000280412 0.000232987 0.000186153 0.000142524 0.000104711 7.27162e-05 4.65384e-05 2.61778e-05 1.16346e-05 2.90865e-06 0 0 1.06938e-06 4.27753e-06 9.62444e-06 1.71101e-05 2.67346e-05 3.84978e-05 5.23997e-05 6.84405e-05 8.61406e-05 0.000105021 0.000125081 0.000146321 0.000168742 0.000192342 0.000217123 0.000243083 0.000270407 0.000299278 0.000329695 0.000361659 0.00039517 0.000430227 0.00046683 0.000504981 0.000544585 0.000585552 0.000627879 0.000671569 0.00071662 0.000763033 0.000810807 0.000859943 0.000910148 0.00096113 0.00101289 0.00106542 0.00111874 0.00117283 0.00122769 0.00128333 0.0013393 0.00139515 0.00145088 0.00150648 0.00156196 0.00161731 0.00167255 0.00172766 0.00178212 0.0018354 0.00188751 0.00193844 0.00198819 0.00203677 0.00208417 0.00213039 0.00217494 0.00221732 0.00225753 0.00229556 0.00233143 0.00236512 0.00239665 0.002426 0.00245283 0.00247676 0.00249781 0.00251597 0.00253124 0.00254363 0.00255312 0.00255973 0.00256331 0.00256372 0.00256096 0.00255504 0.00254595 0.00253369 0.00251827 0.00249968 0.00247803 0.00245346 0.00242595 0.00239551 0.00236213 0.00232582 0.00228658 0.0022444 0.00219966 0.00215271 0.00210357 0.00205222 0.00199866 0.00194291 0.00188496 0.0018248 0.00176301 0.00170016 0.00163626 0.00157129 0.00150527 0.00143819 0.00137005 0.00130086 0.0012313 0.0011621 0.00109324 0.00102472 0.000956551 0.000888727 0.000821249 0.000754116 0.000687543 0.000621741 0.000556711 0.000492453 0.000428967 0.000366252 0.00030431 0.000243139 0.000186153 0.000136766 9.49762e-05 6.07848e-05 3.41914e-05 1.51962e-05 3.79905e-06 0 0 1.34463e-06 5.3785e-06 1.21016e-05 2.1514e-05 3.36157e-05 4.84065e-05 6.58867e-05 8.60561e-05 0.000108307 0.000132033 0.000157233 0.000183907 0.000212056 0.000241679 0.000272777 0.000305349 0.000339625 0.000375835 0.000413979 0.000454056 0.000496068 0.000540013 0.000585892 0.000633705 0.000683336 0.000734667 0.000787701 0.000842436 0.000898872 0.00095701 0.00101685 0.00107839 0.00114127 0.00120511 0.00126993 0.00133571 0.00140246 0.00147019 0.00153888 0.00160854 0.00167861 0.00174852 0.00181828 0.00188788 0.00195733 0.00202662 0.00209575 0.00216473 0.00223289 0.00229958 0.00236479 0.00242853 0.00249079 0.00255158 0.0026109 0.00266874 0.00272448 0.00277751 0.00282782 0.00287541 0.00292028 0.00296243 0.00300187 0.00303859 0.00307215 0.00310208 0.00312841 0.00315112 0.00317021 0.00318569 0.00319755 0.0032058 0.00321025 0.00321075 0.00320728 0.00319984 0.00318844 0.00317308 0.00315375 0.00313046 0.00310335 0.00307257 0.00303812 0.00299999 0.0029582 0.00291273 0.00286359 0.00281078 0.00275476 0.00269598 0.00263444 0.00257015 0.0025031 0.00243329 0.00236073 0.00228541 0.00220805 0.00212936 0.00204935 0.00196801 0.00188535 0.00180136 0.00171604 0.0016294 0.00154231 0.00145566 0.00136943 0.00128363 0.00119827 0.00111333 0.00102883 0.000944757 0.00086138 0.000778965 0.000697512 0.00061702 0.000537489 0.000458919 0.000381311 0.000304664 0.000233259 0.000171374 0.000119009 7.61661e-05 4.28434e-05 1.90415e-05 4.76038e-06 0 0 1.63567e-06 6.54266e-06 1.4721e-05 2.61706e-05 4.08916e-05 5.8884e-05 8.01476e-05 0.000104683 0.000131737 0.000160559 0.000191148 0.000223504 0.000257628 0.000293519 0.000331178 0.000370603 0.000412074 0.000455867 0.000501981 0.000550418 0.000601177 0.000654258 0.000709662 0.000767387 0.000827293 0.000889239 0.000953226 0.00101925 0.00108732 0.00115742 0.00122957 0.00130376 0.00137954 0.00145649 0.00153459 0.00161385 0.00169428 0.00177586 0.0018586 0.0019425 0.00202688 0.00211107 0.00219506 0.00227886 0.00236246 0.00244587 0.00252909 0.00261211 0.00269415 0.0027744 0.00285288 0.00292958 0.0030045 0.00307764 0.003149 0.00321858 0.00328563 0.00334941 0.00340992 0.00346716 0.00352112 0.00357181 0.00361922 0.00366336 0.00370369 0.00373967 0.00377129 0.00379856 0.00382148 0.00384005 0.00385427 0.00386414 0.00386944 0.00386997 0.00386573 0.00385672 0.00384294 0.00382439 0.00380107 0.00377297 0.00374028 0.00370317 0.00366165 0.0036157 0.00356533 0.00351055 0.00345134 0.00338772 0.00332023 0.00324942 0.00317529 0.00309784 0.00301707 0.00293298 0.00284558 0.00275485 0.00266167 0.00256689 0.00247051 0.00237252 0.00227294 0.00217176 0.00206899 0.00196461 0.00185969 0.00175528 0.00165139 0.00154801 0.00144514 0.00134279 0.00124095 0.00113962 0.00103912 0.000939768 0.000841558 0.000744492 0.000648571 0.000553793 0.000460159 0.00036767 0.000281497 0.000206814 0.000143621 9.19175e-05 5.17036e-05 2.29794e-05 5.74484e-06 0 0 1.9425e-06 7.77e-06 1.74825e-05 3.108e-05 4.85625e-05 6.993e-05 9.51825e-05 0.00012432 0.00015643 0.000190598 0.000226825 0.000265112 0.000305457 0.000347861 0.000392325 0.000438847 0.000487754 0.000539373 0.000593704 0.000650745 0.000710498 0.000772963 0.000838139 0.000906026 0.000976458 0.00104927 0.00112445 0.00120202 0.00128196 0.00136428 0.00144897 0.00153605 0.00162498 0.00171526 0.00180689 0.00189986 0.00199418 0.00208984 0.00218685 0.0022852 0.00238411 0.00248278 0.00258121 0.0026794 0.00277736 0.00287508 0.00297256 0.00306981 0.00316589 0.00325988 0.00335178 0.00344159 0.00352931 0.00361493 0.00369847 0.00377992 0.0038584 0.00393304 0.00400385 0.00407081 0.00413394 0.00419324 0.00424869 0.00430031 0.00434746 0.00438951 0.00442646 0.00445831 0.00448507 0.00450673 0.00452329 0.00453475 0.00454086 0.00454139 0.00453633 0.00452568 0.00450945 0.00448762 0.00446021 0.00442721 0.00438883 0.00434527 0.00429653 0.00424262 0.00418353 0.00411927 0.00404983 0.00397522 0.00389607 0.00381303 0.0037261 0.00363529 0.00354058 0.00344198 0.0033395 0.00323313 0.00312387 0.00301273 0.00289972 0.00278483 0.00266806 0.00254941 0.00242888 0.00230648 0.00218343 0.00206097 0.00193911 0.00181784 0.00169717 0.00157709 0.0014576 0.00133871 0.00122077 0.00110415 0.00098885 0.000874872 0.000762213 0.000650874 0.000540855 0.000432156 0.00033087 0.000243088 0.000168811 0.000108039 6.0772e-05 2.70098e-05 6.75244e-06 0 0 2.26513e-06 9.06053e-06 2.03862e-05 3.62421e-05 5.66283e-05 8.15448e-05 0.000110991 0.000144968 0.000182385 0.000222151 0.000264266 0.00030873 0.000355544 0.000404707 0.000456219 0.00051008 0.000566666 0.000626355 0.000689145 0.000755037 0.000824031 0.000896127 0.000971324 0.00104962 0.00113083 0.00121475 0.00130138 0.00139073 0.00148279 0.00157757 0.00167506 0.00177526 0.00187758 0.00198143 0.00208681 0.00219372 0.00230216 0.00241213 0.00252362 0.00263665 0.0027503 0.00286366 0.00297673 0.00308952 0.00320202 0.00331424 0.00342618 0.00353782 0.00364812 0.00375601 0.00386149 0.00396456 0.00406522 0.00416347 0.00425932 0.00435275 0.00444277 0.00452838 0.00460959 0.00468638 0.00475876 0.00482673 0.00489029 0.00494943 0.00500345 0.00505161 0.00509392 0.00513037 0.00516097 0.00518571 0.0052046 0.00521763 0.00522453 0.00522501 0.00521907 0.00520673 0.00518796 0.00516278 0.00513119 0.00509318 0.00504899 0.00499885 0.00494278 0.00488076 0.0048128 0.0047389 0.00465905 0.00457327 0.00448227 0.00438681 0.00428689 0.00418249 0.00407363 0.00396029 0.0038425 0.00372023 0.00359465 0.0034669 0.00333699 0.00320492 0.00307069 0.00293429 0.00279573 0.002655 0.00251353 0.00237273 0.0022326 0.00209314 0.00195436 0.00181624 0.00167879 0.00154201 0.00140632 0.00127211 0.00113939 0.00100816 0.000878415 0.000750162 0.000623398 0.000498123 0.000381375 0.000280194 0.000194579 0.000124531 7.00486e-05 3.11327e-05 7.78317e-06 0 0 2.60356e-06 1.04142e-05 2.3432e-05 4.16569e-05 6.5089e-05 9.37281e-05 0.000127574 0.000166628 0.000209604 0.000255218 0.00030347 0.00035436 0.000407888 0.000464055 0.000522859 0.000584302 0.00064881 0.000716811 0.000788306 0.000863294 0.000941775 0.00102375 0.00110922 0.00119818 0.00129041 0.00138569 0.00148402 0.0015854 0.00168982 0.0017973 0.00190782 0.00202139 0.00213734 0.002255 0.00237437 0.00249544 0.00261823 0.00274273 0.00286893 0.00299685 0.00312545 0.00325371 0.00338163 0.00350921 0.00363645 0.00376336 0.00388992 0.00401615 0.00414084 0.00426279 0.00438201 0.00449849 0.00461224 0.00472326 0.00483154 0.00493708 0.00503876 0.00513545 0.00522714 0.00531385 0.00539556 0.00547228 0.005544 0.00561074 0.00567167 0.00572598 0.00577366 0.00581473 0.00584917 0.005877 0.0058982 0.00591278 0.00592043 0.00592082 0.00591396 0.00589985 0.00587848 0.00584986 0.00581399 0.00577087 0.00572076 0.00566393 0.00560039 0.00553012 0.00545314 0.00536944 0.00527902 0.00518188 0.00507885 0.00497077 0.00485764 0.00473945 0.00461621 0.00448791 0.00435456 0.00421616 0.004074 0.00392939 0.00378233 0.00363281 0.00348083 0.00332641 0.00316953 0.00301019 0.00285 0.00269056 0.00253186 0.00237391 0.0022167 0.00206023 0.00190452 0.00174954 0.00159577 0.00144364 0.00129317 0.00114435 0.000997178 0.000851658 0.000707789 0.000565571 0.000433015 0.000318133 0.000220926 0.000141393 7.95334e-05 3.53482e-05 8.83704e-06 0 0 2.95778e-06 1.18311e-05 2.662e-05 4.73245e-05 7.39446e-05 0.00010648 0.000144931 0.000189298 0.000238085 0.000289798 0.000344437 0.000402001 0.00046249 0.000525905 0.000592246 0.000661512 0.000734184 0.000810742 0.000891186 0.000975515 0.00106373 0.00115583 0.00125182 0.00135169 0.0014552 0.00156209 0.00167236 0.00178601 0.00190305 0.00202346 0.00214726 0.00227444 0.00240426 0.00253596 0.00266955 0.00280503 0.00294239 0.00308164 0.00322277 0.00336579 0.00350956 0.00365292 0.00379589 0.00393847 0.00408064 0.00422242 0.0043638 0.00450479 0.00464404 0.00478022 0.00491334 0.00504339 0.00517037 0.00529428 0.00541513 0.00553291 0.00564636 0.00575423 0.00585652 0.00595322 0.00604435 0.00612989 0.00620985 0.00628422 0.00635211 0.0064126 0.00646569 0.00651139 0.00654969 0.00658059 0.0066041 0.00662021 0.00662857 0.00662883 0.00662099 0.00660505 0.00658101 0.00654887 0.00650863 0.00646029 0.00640415 0.0063405 0.00626935 0.0061907 0.00610454 0.00601088 0.00590971 0.00580104 0.0056858 0.0055649 0.00543836 0.00530617 0.00516833 0.00502484 0.0048757 0.00472092 0.00456194 0.0044002 0.00423572 0.00406848 0.0038985 0.00372576 0.00355028 0.00337204 0.00319284 0.00301445 0.00283688 0.00266013 0.0024842 0.00230908 0.00213478 0.0019613 0.00178912 0.00161876 0.0014502 0.00128345 0.0011185 0.000955361 0.000794026 0.000634499 0.000485788 0.000356906 0.000247851 0.000158625 8.92264e-05 3.96562e-05 9.91404e-06 0 0 3.3278e-06 1.33112e-05 2.99502e-05 5.32448e-05 8.3195e-05 0.000119801 0.000163062 0.000212979 0.00026783 0.000325892 0.000387166 0.000451652 0.00051935 0.000590259 0.00066438 0.000741712 0.000822791 0.000908148 0.000997785 0.0010917 0.0011899 0.00129237 0.00139913 0.00151016 0.00162519 0.00174394 0.0018664 0.00199257 0.00212246 0.00225607 0.00239339 0.00253442 0.00267834 0.00282432 0.00297236 0.00312247 0.00327463 0.00342885 0.00358514 0.00374348 0.00390263 0.00406131 0.00421953 0.0043773 0.0045346 0.00469144 0.00484782 0.00500374 0.00515772 0.0053083 0.00545547 0.00559924 0.0057396 0.00587655 0.00601009 0.00614023 0.00626557 0.00638473 0.00649771 0.00660451 0.00670512 0.00679956 0.00688781 0.00696989 0.00704478 0.00711148 0.00717001 0.00722035 0.00726251 0.00729649 0.00732229 0.0073399 0.00734895 0.00734903 0.00734016 0.00732233 0.00729555 0.0072598 0.0072151 0.00716144 0.00709915 0.00702857 0.00694968 0.0068625 0.00676701 0.00666323 0.00655115 0.00643077 0.00630311 0.00616921 0.00602905 0.00588264 0.00572998 0.00557108 0.00540592 0.00523451 0.00505845 0.00487934 0.00469717 0.00451195 0.00432368 0.00413236 0.00393798 0.00374055 0.00354204 0.00334441 0.00314767 0.00295182 0.00275685 0.00256277 0.00236958 0.00217727 0.00198638 0.00179745 0.00161047 0.00142545 0.00124238 0.00106127 0.000882112 0.000704907 0.000539695 0.00039651 0.000275354 0.000176227 9.91276e-05 4.40567e-05 1.10142e-05 0 0 3.71362e-06 1.48545e-05 3.34225e-05 5.94179e-05 9.28404e-05 0.00013369 0.000181967 0.000237671 0.000298837 0.0003635 0.000431659 0.000503315 0.000578467 0.000657115 0.00073926 0.000824901 0.000914628 0.00100903 0.0011081 0.00121185 0.00132028 0.00143337 0.00155114 0.00167359 0.00180039 0.00193125 0.00206614 0.00220509 0.00234807 0.00249511 0.00264619 0.00280132 0.00295958 0.00312008 0.00328281 0.00344777 0.00361496 0.00378438 0.00395604 0.00412992 0.00430466 0.00447887 0.00465255 0.0048257 0.00499832 0.00517041 0.00534197 0.00551301 0.0056819 0.00584704 0.00600842 0.00616605 0.00631993 0.00647006 0.00661643 0.00675905 0.00689639 0.00702695 0.00715072 0.0072677 0.00737789 0.00748129 0.0075779 0.00766773 0.00774967 0.00782263 0.00788661 0.00794162 0.00798765 0.0080247 0.00805278 0.00807187 0.00808157 0.00808144 0.00807148 0.0080517 0.00802209 0.00798266 0.0079334 0.00787432 0.00780577 0.00772812 0.00764137 0.00754551 0.00744055 0.00732649 0.00720332 0.00707105 0.0069308 0.00678368 0.00662971 0.00646887 0.00630118 0.00612662 0.00594521 0.00575693 0.00556354 0.00536679 0.00516668 0.00496321 0.00475638 0.00454619 0.00433263 0.00411572 0.0038976 0.00368044 0.00346423 0.00324897 0.00303467 0.00282131 0.00260892 0.00239747 0.00218755 0.00197972 0.001774 0.00157036 0.00136883 0.00116939 0.000972044 0.000776797 0.000594735 0.000436948 0.000303436 0.000194199 0.000109237 4.85498e-05 1.21374e-05 0 0 4.11675e-06 1.6467e-05 3.70507e-05 6.5868e-05 0.000102919 0.000148203 0.000201721 0.000263472 0.00033123 0.00040277 0.00047809 0.000557192 0.000640074 0.000726738 0.000817182 0.000911407 0.00101006 0.00111378 0.00122257 0.00133643 0.00145537 0.00157937 0.00170844 0.00184259 0.00198146 0.0021247 0.00227232 0.00242431 0.00258068 0.00274143 0.00290656 0.00307605 0.00324894 0.00342423 0.00360191 0.003782 0.00396448 0.00414936 0.00433664 0.00452633 0.0047169 0.00490688 0.00509625 0.00528502 0.00547319 0.00566075 0.00584771 0.00603406 0.00621806 0.00639795 0.00657374 0.00674541 0.00691298 0.00707644 0.00723579 0.00739104 0.00754052 0.0076826 0.00781728 0.00794454 0.0080644 0.00817686 0.0082819 0.00837954 0.00846859 0.00854785 0.00861732 0.00867701 0.00872692 0.00876704 0.00879738 0.00881793 0.00882824 0.00882784 0.00881673 0.00879493 0.00876241 0.0087192 0.00866528 0.00860065 0.00852571 0.00844085 0.00834608 0.00824138 0.00812676 0.00800223 0.00786778 0.0077234 0.00757033 0.00740978 0.00724175 0.00706623 0.00688324 0.00669277 0.00649481 0.00628938 0.00607837 0.00586368 0.00564532 0.00542328 0.00519756 0.00496818 0.00473511 0.00449837 0.0042603 0.00402325 0.00378721 0.0035522 0.0033182 0.00308522 0.00285325 0.00262231 0.00239299 0.0021659 0.00194105 0.00171843 0.00149804 0.00127989 0.00106397 0.00085028 0.000650996 0.000478283 0.000332141 0.00021257 0.000119571 5.31425e-05 1.32856e-05 0 0 4.53873e-06 1.81549e-05 4.08485e-05 7.26196e-05 0.000113468 0.000163394 0.000222398 0.000290478 0.000365131 0.00044385 0.000526636 0.000613488 0.000704406 0.00079939 0.000898441 0.00100156 0.00110944 0.0012228 0.00134162 0.00146591 0.00159567 0.0017309 0.0018716 0.00201777 0.00216903 0.00232499 0.00248565 0.00265102 0.0028211 0.00299588 0.00317536 0.00335955 0.00354738 0.00373777 0.00393072 0.00412623 0.0043243 0.00452494 0.00472814 0.00493391 0.00514061 0.00534663 0.00555197 0.00575662 0.00596059 0.00616387 0.00636647 0.00656839 0.00676773 0.00696259 0.00715299 0.00733891 0.00752036 0.00769734 0.00786985 0.00803789 0.00819967 0.00835341 0.00849912 0.0086368 0.00876644 0.00888804 0.00900161 0.00910714 0.00920335 0.00928896 0.00936396 0.00942835 0.00948215 0.00952533 0.00955792 0.00957989 0.00959077 0.00959005 0.00957773 0.00955381 0.00951829 0.00947118 0.00941246 0.00934215 0.00926067 0.00916844 0.00906546 0.00895173 0.00882726 0.00869204 0.00854607 0.00838935 0.0082232 0.00804895 0.00786658 0.0076761 0.00747751 0.00727081 0.00705599 0.00683307 0.00660409 0.00637112 0.00613414 0.00589317 0.0056482 0.00539924 0.00514627 0.00488931 0.00463089 0.00437355 0.00411729 0.00386211 0.00360801 0.00335499 0.00310306 0.0028522 0.00260307 0.00235631 0.00211191 0.00186989 0.00163023 0.00139294 0.00115802 0.000925471 0.000708564 0.000520577 0.000361512 0.000231368 0.000130144 5.78419e-05 1.44605e-05 0 0 4.97954e-06 1.99182e-05 4.48159e-05 7.96727e-05 0.000124489 0.000179264 0.000243998 0.000318691 0.00040054 0.000486741 0.000577295 0.000672202 0.000771461 0.000875073 0.000983037 0.00109535 0.00121278 0.00133608 0.00146525 0.00160029 0.00174119 0.00188797 0.00204062 0.00219914 0.00236311 0.00253211 0.00270615 0.00288522 0.00306932 0.00325845 0.00345262 0.00365182 0.00385489 0.00406069 0.00426921 0.00448046 0.00469443 0.00491112 0.00513053 0.00535267 0.00557578 0.00579812 0.00601969 0.00624049 0.00646052 0.00667978 0.00689826 0.00711598 0.00733089 0.00754095 0.00774617 0.00794654 0.00814207 0.00833275 0.00851859 0.00869959 0.00887382 0.00903938 0.00919626 0.00934446 0.00948399 0.00961484 0.00973701 0.00985051 0.00995395 0.010046 0.0101265 0.0101956 0.0102533 0.0102996 0.0103344 0.0103578 0.0103692 0.0103681 0.0103545 0.0103283 0.0102897 0.0102386 0.010175 0.0100988 0.0100107 0.00991088 0.00979952 0.00967658 0.00954204 0.00939591 0.00923819 0.00906889 0.00888941 0.00870118 0.0085042 0.00829846 0.00808397 0.00786073 0.00762874 0.007388 0.00714071 0.0068891 0.00663316 0.00637289 0.00610829 0.00583937 0.00556612 0.00528854 0.00500937 0.00473134 0.00445445 0.00417871 0.0039041 0.00363064 0.00335833 0.00308715 0.0028178 0.00255095 0.0022866 0.00202475 0.0017654 0.00150856 0.00125421 0.00100237 0.000767439 0.000563833 0.000391551 0.000250592 0.000140958 6.26481e-05 1.5662e-05 0 0 5.4392e-06 2.17568e-05 4.89528e-05 8.70272e-05 0.00013598 0.000195811 0.000266521 0.000348109 0.000437456 0.000531443 0.000630069 0.000733335 0.00084124 0.000953785 0.00107097 0.00119279 0.00132007 0.00145363 0.00159346 0.00173956 0.00189193 0.00205058 0.0022155 0.00238669 0.0025637 0.00274607 0.0029338 0.00312689 0.00332534 0.00352915 0.00373831 0.00395284 0.00417148 0.00439301 0.00461741 0.00484469 0.00507485 0.00530789 0.00554381 0.00578261 0.00602242 0.00626136 0.00649943 0.00673664 0.00697299 0.00720847 0.00744309 0.00767684 0.00790755 0.00813303 0.00835328 0.0085683 0.0087781 0.00898268 0.00918202 0.00937614 0.00956298 0.00974049 0.00990868 0.0100675 0.0102171 0.0103573 0.0104881 0.0106097 0.0107204 0.0108188 0.010905 0.0109789 0.0110405 0.0110898 0.0111268 0.0111515 0.0111634 0.0111619 0.0111469 0.0111185 0.0110767 0.0110215 0.0109528 0.0108707 0.0107757 0.0106682 0.0105483 0.0104159 0.0102711 0.0101138 0.00994415 0.00976201 0.00956895 0.00936648 0.0091546 0.00893332 0.00870264 0.00846255 0.00821306 0.00795416 0.00768823 0.00741763 0.00714236 0.00686243 0.00657784 0.00628858 0.00599465 0.00569606 0.00539574 0.00509662 0.00479871 0.00450199 0.00420648 0.00391217 0.00361907 0.00332716 0.00303718 0.00274982 0.0024651 0.00218301 0.00190355 0.00162673 0.00135254 0.00108098 0.000827622 0.000608049 0.000422256 0.000270244 0.000152012 6.7561e-05 1.68902e-05 0 0 5.9177e-06 2.36708e-05 5.32593e-05 9.46833e-05 0.000147943 0.000213037 0.000289968 0.000378733 0.00047588 0.000577955 0.000684957 0.000796886 0.000913743 0.00103553 0.00116224 0.00129388 0.00143132 0.00157544 0.00172624 0.00188372 0.00204788 0.00221872 0.00239623 0.00258043 0.00277081 0.00296687 0.00316862 0.00337605 0.00358916 0.00380797 0.00403245 0.00426262 0.00449715 0.00473471 0.0049753 0.00521893 0.00546558 0.00571527 0.00596798 0.00622373 0.00648051 0.00673633 0.00699118 0.00724507 0.00749799 0.00774995 0.00800094 0.00825097 0.0084977 0.00873882 0.00897432 0.0092042 0.00942847 0.00964711 0.