<?xml version="1.0"?> 
<VTKFile type="StructuredGrid" version="0.1"> 
<StructuredGrid WholeExtent="0 128 0 128 0 0"> 
<Piece Extent="0 128 0 128 0 0"> 
<PointData>
<DataArray type="Float32" Name="u" format="ascii" NumberOfComponents="1"> 
0 0 0 0 0 0 0 0 0 0 0 0 0 0 0 0 0 0 0 0 0 0 0 0 0 0 0 0 0 0 0 0 0 0 0 0 0 0 0 0 0 0 0 0 0 0 0 0 0 0 0 0 0 0 0 0 0 0 0 0 0 0 0 0 0 0 0 0 0 0 0 0 0 0 0 0 0 0 0 0 0 0 0 0 0 0 0 0 0 0 0 0 0 0 0 0 0 0 0 0 0 0 0 0 0 0 0 0 0 0 0 0 0 0 0 0 0 0 0 0 0 0 0 0 0 0 0 0 0 0 4.41495e-08 1.76598e-07 3.97345e-07 7.06391e-07 1.10374e-06 1.58938e-06 2.16332e-06 2.82557e-06 3.53914e-06 4.26707e-06 5.00937e-06 5.76603e-06 6.53706e-06 7.32245e-06 8.1222e-06 8.93631e-06 9.76488e-06 1.0608e-05 1.14657e-05 1.23379e-05 1.32247e-05 1.4126e-05 1.50419e-05 1.59723e-05 1.69112e-05 1.78527e-05 1.87967e-05 1.97433e-05 2.06923e-05 2.16439e-05 2.2598e-05 2.35547e-05 2.45079e-05 2.54519e-05 2.63865e-05 2.73118e-05 2.82279e-05 2.91346e-05 3.0032e-05 3.09202e-05 3.17934e-05 3.26462e-05 3.34787e-05 3.42907e-05 3.50822e-05 3.58534e-05 3.66041e-05 3.73344e-05 3.80394e-05 3.87141e-05 3.93586e-05 3.99728e-05 4.05568e-05 4.11105e-05 4.1634e-05 4.21273e-05 4.25865e-05 4.30077e-05 4.33911e-05 4.37366e-05 4.40443e-05 4.4314e-05 4.45458e-05 4.47397e-05 4.48936e-05 4.50051e-05 4.50743e-05 4.51013e-05 4.50859e-05 4.50282e-05 4.49282e-05 4.47859e-05 4.46012e-05 4.4374e-05 4.41043e-05 4.37921e-05 4.34373e-05 4.30401e-05 4.26004e-05 4.21182e-05 4.15958e-05 4.10356e-05 4.04377e-05 3.98021e-05 3.91286e-05 3.84174e-05 3.76685e-05 3.68817e-05 3.60622e-05 3.5215e-05 3.434e-05 3.34372e-05 3.25067e-05 3.15485e-05 3.05625e-05 2.95487e-05 2.85148e-05 2.74683e-05 2.64092e-05 2.53377e-05 2.42535e-05 2.31568e-05 2.20476e-05 2.09258e-05 1.98012e-05 1.86836e-05 1.75729e-05 1.64692e-05 1.53724e-05 1.42827e-05 1.31998e-05 1.2124e-05 1.10574e-05 1.00025e-05 8.9592e-06 7.92754e-06 6.90751e-06 5.89912e-06 4.90236e-06 3.91724e-06 2.99913e-06 2.20345e-06 1.53017e-06 9.79309e-07 5.50861e-07 2.44827e-07 6.12068e-08 0 0 1.76598e-07 7.06391e-07 1.58938e-06 2.82557e-06 4.41495e-06 6.35752e-06 8.65329e-06 1.13023e-05 1.41566e-05 1.70683e-05 2.00375e-05 2.30641e-05 2.61482e-05 2.92898e-05 3.24888e-05 3.57453e-05 3.90595e-05 4.2432e-05 4.58627e-05 4.93516e-05 5.28987e-05 5.65039e-05 6.01674e-05 6.38891e-05 6.76449e-05 7.14108e-05 7.51869e-05 7.8973e-05 8.27693e-05 8.65756e-05 9.03921e-05 9.42186e-05 9.80317e-05 0.000101807 0.000105546 0.000109247 0.000112912 0.000116538 0.000120128 0.000123681 0.000127174 0.000130585 0.000133915 0.000137163 0.000140329 0.000143413 0.000146416 0.000149338 0.000152158 0.000154856 0.000157434 0.000159891 0.000162227 0.000164442 0.000166536 0.000168509 0.000170346 0.000172031 0.000173565 0.000174947 0.000176177 0.000177256 0.000178183 0.000178959 0.000179574 0.00018002 0.000180297 0.000180405 0.000180344 0.000180113 0.000179713 0.000179144 0.000178405 0.000177496 0.000176417 0.000175168 0.000173749 0.00017216 0.000170402 0.000168473 0.000166383 0.000164143 0.000161751 0.000159208 0.000156515 0.00015367 0.000150674 0.000147527 0.000144249 0.00014086 0.00013736 0.000133749 0.000130027 0.000126194 0.00012225 0.000118195 0.000114059 0.000109873 0.000105637 0.000101351 9.70141e-05 9.26273e-05 8.81903e-05 8.37031e-05 7.92047e-05 7.47342e-05 7.02915e-05 6.58767e-05 6.14897e-05 5.71306e-05 5.27993e-05 4.84959e-05 4.42297e-05 4.001e-05 3.58368e-05 3.17102e-05 2.76301e-05 2.35965e-05 1.96095e-05 1.56689e-05 1.19965e-05 8.81378e-06 6.12068e-06 3.91724e-06 2.20345e-06 9.79309e-07 2.44827e-07 0 0 3.97345e-07 1.58938e-06 3.57611e-06 6.35752e-06 9.93363e-06 1.43044e-05 1.94699e-05 2.54301e-05 3.18522e-05 3.84037e-05 4.50844e-05 5.18943e-05 5.88335e-05 6.5902e-05 7.30998e-05 8.04268e-05 8.7884e-05 9.5472e-05 0.000103191 0.000111041 0.000119022 0.000127134 0.000135377 0.00014375 0.000152201 0.000160674 0.00016917 0.000177689 0.000186231 0.000194795 0.000203382 0.000211992 0.000220571 0.000229067 0.000237479 0.000245807 0.000254051 0.000262212 0.000270288 0.000278281 0.000286141 0.000293816 0.000301308 0.000308616 0.00031574 0.00032268 0.000329437 0.00033601 0.000342354 0.000348427 0.000354227 0.000359755 0.000365011 0.000369995 0.000374706 0.000379146 0.000383278 0.00038707 0.00039052 0.00039363 0.000396398 0.000398826 0.000400912 0.000402658 0.000404042 0.000405046 0.000405669 0.000405911 0.000405773 0.000405254 0.000404354 0.000403073 0.000401411 0.000399366 0.000396938 0.000394129 0.000390936 0.000387361 0.000383403 0.000379063 0.000374362 0.000369321 0.00036394 0.000358219 0.000352158 0.000345757 0.000339016 0.000331936 0.00032456 0.000316935 0.00030906 0.000300935 0.000292561 0.000283936 0.000275062 0.000265938 0.000256633 0.000247214 0.000237683 0.000228039 0.000218282 0.000208411 0.000198428 0.000188332 0.000178211 0.000168152 0.000158156 0.000148223 0.000138352 0.000128544 0.000118798 0.000109116 9.95167e-05 9.00224e-05 8.06328e-05 7.13479e-05 6.21676e-05 5.30921e-05 4.41213e-05 3.52551e-05 2.69922e-05 1.9831e-05 1.37715e-05 8.81378e-06 4.95775e-06 2.20345e-06 5.50861e-07 0 0 7.06391e-07 2.82557e-06 6.35752e-06 1.13023e-05 1.76598e-05 2.54301e-05 3.46132e-05 4.5209e-05 5.66262e-05 6.82732e-05 8.015e-05 9.22566e-05 0.000104593 0.000117159 0.000129955 0.000142981 0.000156238 0.000169728 0.000183451 0.000197406 0.000211595 0.000226016 0.00024067 0.000255556 0.00027058 0.000285643 0.000300747 0.000315892 0.000331077 0.000346302 0.000361568 0.000376875 0.000392127 0.00040723 0.000422184 0.00043699 0.000451646 0.000466154 0.000480513 0.000494722 0.000508695 0.00052234 0.000535659 0.00054865 0.000561316 0.000573654 0.000585666 0.00059735 0.00060863 0.000619426 0.000629737 0.000639565 0.000648909 0.000657769 0.000666145 0.000674036 0.000681383 0.000688124 0.000694258 0.000699786 0.000704708 0.000709024 0.000712733 0.000715836 0.000718297 0.000720082 0.00072119 0.00072162 0.000721374 0.000720451 0.000718851 0.000716574 0.000713619 0.000709984 0.000705668 0.000700673 0.000694997 0.000688642 0.000681606 0.00067389 0.000665533 0.00065657 0.000647004 0.000636833 0.000626058 0.000614679 0.000602696 0.000590108 0.000576996 0.00056344 0.00054944 0.000534996 0.000520108 0.000504776 0.000488999 0.000472779 0.000456236 0.000439492 0.000422548 0.000405403 0.000388056 0.000370509 0.000352761 0.000334812 0.000316819 0.000298937 0.000281166 0.000263507 0.000245959 0.000228522 0.000211197 0.000193984 0.000176919 0.00016004 0.000143347 0.000126841 0.00011052 9.43859e-05 7.84378e-05 6.26758e-05 4.79862e-05 3.52551e-05 2.44827e-05 1.56689e-05 8.81378e-06 3.91724e-06 9.79309e-07 0 0 1.10374e-06 4.41495e-06 9.93363e-06 1.76598e-05 2.75934e-05 3.97345e-05 5.40831e-05 7.06391e-05 8.84784e-05 0.000106677 0.000125234 0.000144151 0.000163426 0.000183061 0.000203055 0.000223408 0.000244122 0.0002652 0.000286642 0.000308447 0.000330617 0.00035315 0.000376046 0.000399307 0.000422781 0.000446318 0.000469918 0.000493581 0.000517308 0.000541098 0.00056495 0.000588867 0.000612698 0.000636297 0.000659663 0.000682796 0.000705697 0.000728365 0.000750801 0.000773004 0.000794835 0.000816156 0.000836967 0.000857266 0.000877056 0.000896334 0.000915102 0.00093336 0.000950984 0.000967853 0.000983965 0.00099932 0.00101392 0.00102776 0.00104085 0.00105318 0.00106466 0.00107519 0.00108478 0.00109342 0.00110111 0.00110785 0.00111365 0.00111849 0.00112234 0.00112513 0.00112686 0.00112753 0.00112715 0.0011257 0.00112321 0.00111965 0.00111503 0.00110935 0.00110261 0.0010948 0.00108593 0.001076 0.00106501 0.00105295 0.00103989 0.00102589 0.00101094 0.000995052 0.000978216 0.000960436 0.000941712 0.000922044 0.000901556 0.000880375 0.0008585 0.000835931 0.000812668 0.000788712 0.000764061 0.000738717 0.000712869 0.000686707 0.000660231 0.000633441 0.000606338 0.000578921 0.000551189 0.000523145 0.00049503 0.000467089 0.000439322 0.000411729 0.000384311 0.000357066 0.000329996 0.000303099 0.000276435 0.000250062 0.00022398 0.000198188 0.000172688 0.000147478 0.000122559 9.79309e-05 7.49784e-05 5.50861e-05 3.82543e-05 2.44827e-05 1.37715e-05 6.12068e-06 1.53017e-06 0 0 1.58938e-06 6.35752e-06 1.43044e-05 2.54301e-05 3.97345e-05 5.72177e-05 7.78796e-05 0.00010172 0.000127409 0.000153615 0.000180337 0.000207577 0.000235334 0.000263608 0.000292399 0.000321707 0.000351536 0.000381888 0.000412764 0.000444164 0.000476088 0.000508535 0.000541507 0.000575002 0.000608804 0.000642697 0.000676682 0.000710757 0.000744923 0.000779181 0.000813529 0.000847968 0.000882285 0.000916267 0.000949914 0.000983227 0.0010162 0.00104885 0.00108115 0.00111313 0.00114456 0.00117526 0.00120523 0.00123446 0.00126296 0.00129072 0.00131775 0.00134404 0.00136942 0.00139371 0.00141691 0.00143902 0.00146004 0.00147998 0.00149883 0.00151658 0.00153311 0.00154828 0.00156208 0.00157452 0.00158559 0.0015953 0.00160365 0.00161063 0.00161617 0.00162018 0.00162268 0.00162365 0.00162309 0.00162102 0.00161742 0.00161229 0.00160564 0.00159746 0.00158775 0.00157651 0.00156374 0.00154944 0.00153361 0.00151625 0.00149745 0.00147728 0.00145576 0.00143287 0.00140863 0.00138303 0.00135607 0.00132774 0.00129824 0.00126774 0.00123624 0.00120374 0.00117024 0.00113574 0.00110025 0.00106375 0.00102653 0.000988858 0.000950733 0.000912156 0.000873127 0.000833646 0.000793713 0.000753328 0.000712843 0.000672608 0.000632624 0.00059289 0.000553408 0.000514175 0.000475194 0.000436463 0.000398067 0.00036009 0.000322531 0.000285391 0.000248671 0.000212368 0.000176485 0.000141021 0.000107969 7.9324e-05 5.50861e-05 3.52551e-05 1.9831e-05 8.81378e-06 2.20345e-06 0 0 2.16332e-06 8.65329e-06 1.94699e-05 3.46132e-05 5.40831e-05 7.78796e-05 0.000106003 0.000138453 0.000173418 0.000209087 0.000245459 0.000282536 0.000320316 0.0003588 0.000397988 0.000437879 0.000478479 0.000519792 0.000561818 0.000604557 0.000648009 0.000692173 0.000737051 0.000782641 0.00082865 0.000874783 0.000921039 0.000967419 0.00101392 0.00106055 0.0011073 0.00115418 0.00120089 0.00124714 0.00129294 0.00133828 0.00138317 0.0014276 0.00147157 0.00151509 0.00155788 0.00159967 0.00164045 0.00168024 0.00171903 0.00175682 0.0017936 0.00182939 0.00186393 0.00189699 0.00192857 0.00195867 0.00198728 0.00201442 0.00204007 0.00206424 0.00208674 0.00210738 0.00212617 0.0021431 0.00215817 0.00217138 0.00218274 0.00219225 0.00219979 0.00220525 0.00220864 0.00220996 0.00220921 0.00220638 0.00220148 0.00219451 0.00218546 0.00217433 0.00216111 0.00214581 0.00212843 0.00210897 0.00208742 0.00206379 0.00203819 0.00201075 0.00198145 0.0019503 0.0019173 0.00188245 0.00184576 0.00180721 0.00176705 0.00172554 0.00168266 0.00163842 0.00159283 0.00154587 0.00149756 0.00144789 0.00139722 0.00134595 0.00129405 0.00124155 0.00118842 0.00113468 0.00108033 0.00102536 0.000970258 0.000915494 0.000861071 0.00080699 0.000753249 0.00069985 0.000646792 0.000594075 0.000541813 0.000490122 0.000439001 0.000388449 0.000338468 0.000289057 0.000240216 0.000191945 0.000146958 0.000107969 7.49784e-05 4.79862e-05 2.69922e-05 1.19965e-05 2.99913e-06 0 0 2.82557e-06 1.13023e-05 2.54301e-05 4.5209e-05 7.06391e-05 0.00010172 0.000138453 0.000180836 0.000226505 0.000273093 0.0003206 0.000369026 0.000418372 0.000468637 0.000519821 0.000571924 0.000624953 0.000678912 0.000733803 0.000789625 0.000846378 0.000904063 0.000962678 0.00102223 0.00108232 0.00114257 0.00120299 0.00126357 0.00132431 0.00138521 0.00144627 0.0015075 0.00156851 0.00162892 0.00168874 0.00174796 0.00180658 0.00186462 0.00192205 0.00197889 0.00203478 0.00208936 0.00214263 0.0021946 0.00224526 0.00229462 0.00234266 0.0023894 0.00243452 0.0024777 0.00251895 0.00255826 0.00259564 0.00263107 0.00266458 0.00269615 0.00272553 0.0027525 0.00277703 0.00279915 0.00281883 0.00283609 0.00285093 0.00286334 0.00287319 0.00288033 0.00288476 0.00288648 0.0028855 0.0028818 0.0028754 0.0028663 0.00285448 0.00283994 0.00282267 0.00280269 0.00277999 0.00275457 0.00272642 0.00269556 0.00266213 0.00262628 0.00258802 0.00254733 0.00250423 0.00245872 0.00241078 0.00236043 0.00230798 0.00225376 0.00219776 0.00213998 0.00208043 0.0020191 0.001956 0.00189112 0.00182494 0.00175797 0.00169019 0.00162161 0.00155223 0.00148204 0.00141105 0.00133925 0.00126728 0.00119575 0.00112466 0.00105403 0.000983836 0.00091409 0.000844789 0.000775934 0.000707675 0.000640159 0.000573389 0.000507363 0.000442081 0.000377544 0.000313751 0.000250703 0.000191945 0.000141021 9.79309e-05 6.26758e-05 3.52551e-05 1.56689e-05 3.91724e-06 0 0 3.53857e-06 1.41543e-05 3.18471e-05 5.66171e-05 8.84642e-05 0.000127388 0.00017339 0.000226468 0.000283659 0.000341996 0.00040148 0.000462112 0.00052389 0.000586814 0.000650886 0.000716105 0.000782479 0.000850016 0.000918718 0.000988583 0.00105961 0.0011318 0.00120516 0.00127968 0.00135488 0.00143028 0.00150589 0.00158169 0.0016577 0.00173391 0.00181032 0.00188693 0.00196327 0.00203886 0.00211371 0.00218781 0.00226116 0.00233377 0.00240564 0.00247675 0.00254668 0.00261497 0.00268163 0.00274665 0.00281003 0.00287178 0.00293189 0.00299037 0.00304682 0.00310084 0.00315244 0.00320162 0.00324838 0.00329272 0.00333463 0.00337412 0.00341089 0.00344461 0.00347531 0.00350297 0.00352759 0.00354918 0.00356774 0.00358326 0.00359558 0.0036045 0.00361004 0.00361219 0.00361095 0.00360632 0.00359831 0.0035869 0.00357211 0.00355391 0.0035323 0.0035073 0.00347889 0.00344707 0.00341186 0.00337324 0.0033314 0.00328655 0.00323866 0.00318776 0.00313383 0.00307688 0.0030169 0.0029539 0.00288828 0.00282043 0.00275036 0.00267807 0.00260356 0.00252682 0.00244786 0.00236668 0.00228389 0.00220009 0.00211529 0.00202948 0.00194266 0.00185484 0.00176601 0.00167618 0.00158612 0.00149662 0.00140767 0.00131928 0.00123145 0.00114417 0.00105745 0.000971282 0.000885859 0.000801363 0.000717795 0.000635154 0.000553441 0.000472656 0.000392797 0.000313867 0.000240304 0.00017655 0.000122604 7.84667e-05 4.41375e-05 1.96167e-05 4.90417e-06 0 0 4.26479e-06 1.70592e-05 3.83831e-05 6.82366e-05 0.00010662 0.000153532 0.000208975 0.000272947 0.000341868 0.00041216 0.000483822 0.000556854 0.000631257 0.00070703 0.000784172 0.000862685 0.000942581 0.00102387 0.00110656 0.00119064 0.00127612 0.00136299 0.00145126 0.00154093 0.00163141 0.00172213 0.00181309 0.00190429 0.00199572 0.0020874 0.00217932 0.00227147 0.0023633 0.00245422 0.00254425 0.00263338 0.00272161 0.00280894 0.00289537 0.0029809 0.003065 0.00314713 0.00322729 0.00330548 0.00338171 0.00345596 0.00352825 0.00359857 0.00366644 0.00373141 0.00379345 0.00385259 0.00390881 0.00396211 0.0040125 0.00405998 0.00410418 0.00414472 0.00418162 0.00421486 0.00424446 0.00427041 0.00429271 0.00431135 0.00432614 0.00433685 0.00434349 0.00434606 0.00434455 0.00433896 0.00432931 0.00431558 0.00429776 0.00427586 0.00424986 0.00421977 0.00418558 0.00414731 0.00410494 0.00405848 0.00400816 0.0039542 0.0038966 0.00383537 0.0037705 0.003702 0.00362986 0.00355409 0.00347516 0.00339356 0.00330928 0.00322234 0.00313272 0.00304043 0.00294547 0.00284784 0.00274826 0.00264747 0.00254548 0.00244227 0.00233785 0.00223222 0.00212538 0.00201733 0.001909 0.00180134 0.00169435 0.00158802 0.00148236 0.00137736 0.00127303 0.00116936 0.00106657 0.000964894 0.000864319 0.000764848 0.000666481 0.000569219 0.000473061 0.000378007 0.000289412 0.000212629 0.000147659 9.45017e-05 5.31572e-05 2.36254e-05 5.90636e-06 0 0 5.00423e-06 2.00169e-05 4.50381e-05 8.00677e-05 0.000125106 0.000180152 0.000245207 0.000320271 0.000401133 0.000483585 0.000567625 0.000653255 0.000740474 0.000829282 0.000919679 0.00101167 0.00110526 0.00120048 0.00129733 0.0013958 0.0014959 0.00159763 0.00170099 0.00180597 0.0019119 0.00201811 0.00212459 0.00223135 0.00233838 0.00244569 0.00255327 0.00266113 0.0027686 0.00287501 0.00298037 0.00308467 0.00318792 0.00329011 0.00339125 0.00349133 0.00358974 0.00368583 0.00377963 0.00387111 0.00396029 0.00404717 0.00413174 0.004214 0.0042934 0.0043694 0.00444198 0.00451115 0.00457691 0.00463926 0.00469819 0.00475372 0.00480541 0.00485282 0.00489596 0.00493483 0.00496944 0.00499977 0.00502583 0.00504761 0.00506488 0.00507739 0.00508512 0.00508809 0.0050863 0.00507974 0.00506841 0.00505231 0.00503144 0.00500578 0.00497533 0.0049401 0.00490008 0.00485527 0.00480568 0.00475129 0.00469239 0.00462924 0.00456183 0.00449017 0.00441425 0.00433408 0.00424967 0.00416099 0.00406863 0.00397314 0.00387453 0.00377279 0.00366792 0.00355993 0.00344881 0.00333457 0.00321805 0.00310011 0.00298076 0.00285999 0.00273779 0.00261418 0.00248915 0.00236271 0.00223594 0.00210994 0.00198471 0.00186026 0.00173657 0.00161366 0.00149153 0.00137016 0.00124982 0.00113075 0.00101296 0.000896444 0.000781201 0.000667234 0.000554541 0.000443123 0.000339266 0.000249257 0.000173095 0.000110781 6.23141e-05 2.76952e-05 6.92379e-06 0 0 5.7569e-06 2.30276e-05 5.18121e-05 9.21104e-05 0.000143922 0.000207248 0.000282088 0.000368441 0.000461454 0.00055627 0.000652889 0.000751313 0.00085154 0.000953571 0.00105741 0.00116304 0.00127051 0.00137984 0.00149102 0.00160407 0.00171896 0.00183572 0.00195433 0.0020748 0.00219636 0.00231822 0.00244039 0.00256288 0.00268567 0.00280877 0.00293218 0.0030559 0.00317916 0.00330122 0.00342206 0.00354168 0.0036601 0.00377729 0.00389328 0.00400805 0.00412089 0.00423108 0.00433863 0.00444353 0.00454578 0.00464539 0.00474235 0.00483666 0.00492769 0.00501481 0.00509802 0.00517731 0.00525269 0.00532415 0.0053917 0.00545534 0.00551457 0.00556891 0.00561834 0.00566288 0.00570252 0.00573726 0.0057671 0.00579204 0.00581181 0.0058261 0.00583493 0.0058383 0.0058362 0.00582864 0.00581561 0.00579711 0.00577314 0.00574368 0.00570874 0.0056683 0.00562238 0.00557096 0.00551406 0.00545168 0.00538411 0.00531166 0.00523434 0.00515215 0.00506508 0.00497313 0.00487631 0.00477462 0.0046687 0.00455919 0.0044461 0.00432942 0.00420916 0.00408532 0.00395789 0.00382688 0.00369326 0.00355801 0.00342114 0.00328263 0.0031425 0.00300073 0.00285734 0.00271231 0.00256691 0.00242239 0.00227875 0.00213598 0.00199409 0.00185308 0.00171295 0.00157369 0.0014356 0.00129894 0.00116372 0.00102994 0.000897601 0.0007667 0.000637238 0.000509215 0.000389868 0.000286433 0.000198912 0.000127304 7.16083e-05 3.18259e-05 7.95648e-06 0 0 6.52278e-06 2.60911e-05 5.8705e-05 0.000104365 0.00016307 0.00023482 0.000319616 0.000417458 0.00052283 0.000630215 0.000739615 0.000851029 0.000964456 0.0010799 0.00119735 0.00131682 0.00143834 0.00156195 0.00168765 0.00181543 0.0019453 0.00207726 0.0022113 0.00234743 0.00248478 0.00262247 0.0027605 0.00289887 0.00303758 0.00317664 0.00331604 0.00345578 0.003595 0.00373285 0.00386932 0.00400442 0.00413814 0.00427048 0.00440145 0.00453105 0.00465846 0.00478288 0.00490431 0.00502274 0.00513818 0.00525063 0.00536009 0.00546656 0.00556932 0.00566765 0.00576157 0.00585107 0.00593614 0.0060168 0.00609303 0.00616484 0.00623168 0.00629298 0.00634875 0.00639899 0.0064437 0.00648288 0.00651653 0.00654464 0.00656691 0.006583 0.00659292 0.00659667 0.00659426 0.00658567 0.00657091 0.00654998 0.00652287 0.00648956 0.00645006 0.00640436 0.00635247 0.00629438 0.0062301 0.00615963 0.0060833 0.00600147 0.00591414 0.00582131 0.00572298 0.00561914 0.0055098 0.00539496 0.00527535 0.00515169 0.00502399 0.00489223 0.00475644 0.0046166 0.00447271 0.00432477 0.0041739 0.00402117 0.00386661 0.0037102 0.00355195 0.00339186 0.00322992 0.00306614 0.00290193 0.0027387 0.00257646 0.00241519 0.00225491 0.00209561 0.00193729 0.00177995 0.0016239 0.00146945 0.0013166 0.00116534 0.00101568 0.000867618 0.000721152 0.000576283 0.000441217 0.000324159 0.000225111 0.000144071 8.10398e-05 3.60177e-05 9.00442e-06 0 0 7.30189e-06 2.92076e-05 6.5717e-05 0.00011683 0.000182547 0.000262868 0.000357793 0.000467321 0.000585261 0.000705421 0.000827802 0.000952402 0.00107922 0.00120826 0.00133952 0.001473 0.00160875 0.00174682 0.0018872 0.0020299 0.00217491 0.00232224 0.00247189 0.00262386 0.00277717 0.00293085 0.00308491 0.00323933 0.00339413 0.00354931 0.00370485 0.00386077 0.00401611 0.0041699 0.00432216 0.00447287 0.00462205 0.00476968 0.00491578 0.00506033 0.00520245 0.00534122 0.00547665 0.00560874 0.00573749 0.0058629 0.00598496 0.00610368 0.00621827 0.00632792 0.00643264 0.00653242 0.00662728 0.00671719 0.00680217 0.00688222 0.00695672 0.00702505 0.0070872 0.00714318 0.007193 0.00723664 0.00727411 0.00730541 0.00733018 0.00734808 0.00735909 0.00736321 0.00736046 0.00735083 0.00733431 0.00731091 0.00728062 0.00724342 0.00719931 0.00714829 0.00709037 0.00702553 0.00695379 0.00687515 0.00678998 0.00669867 0.00660124 0.00649766 0.00638796 0.00627212 0.00615014 0.00602203 0.0058886 0.00575065 0.0056082 0.00546123 0.00530975 0.00515376 0.00499326 0.00482825 0.00465995 0.00448959 0.00431718 0.0041427 0.00396617 0.00378757 0.00360692 0.0034242 0.003241 0.00305888 0.00287785 0.0026979 0.00251903 0.00234125 0.00216455 0.00198894 0.00181474 0.00164229 0.00147159 0.00130264 0.00113544 0.000969988 0.000806283 0.000644327 0.000493313 0.000362434 0.00025169 0.000161082 9.06085e-05 4.02704e-05 1.00676e-05 0 0 8.09421e-06 3.23769e-05 7.28479e-05 0.000129507 0.000202355 0.000291392 0.000396617 0.00051803 0.000648748 0.000781888 0.000917449 0.00105543 0.00119584 0.00133866 0.00148391 0.00163158 0.00178173 0.00193443 0.00208968 0.00224747 0.0024078 0.00257068 0.00273611 0.00290408 0.00307352 0.00324337 0.00341361 0.00358426 0.00375532 0.00392677 0.00409862 0.00427088 0.00444248 0.00461238 0.00478057 0.00494705 0.00511182 0.00527489 0.00543625 0.0055959 0.00575285 0.00590611 0.00605567 0.00620153 0.0063437 0.00648218 0.00661696 0.00674804 0.00687456 0.00699562 0.00711122 0.00722138 0.00732609 0.00742534 0.00751914 0.00760749 0.0076897 0.0077651 0.00783368 0.00789545 0.0079504 0.00799853 0.00803985 0.00807435 0.00810164 0.00812133 0.00813343 0.00813792 0.00813482 0.00812411 0.00810581 0.00807991 0.00804639 0.00800525 0.00795648 0.00790008 0.00783606 0.00776441 0.00768514 0.00759823 0.00750413 0.00740326 0.00729562 0.0071812 0.00706001 0.00693205 0.00679732 0.00665581 0.00650843 0.00635607 0.00619873 0.00603641 0.0058691 0.00569682 0.00551955 0.0053373 0.00515143 0.00496327 0.00477284 0.00458013 0.00438513 0.00418786 0.00398831 0.00378649 0.00358411 0.00338292 0.00318292 0.00298409 0.00278646 0.00259001 0.00239474 0.00220066 0.00200811 0.00181746 0.00162871 0.00144185 0.00125688 0.00107381 0.000892631 0.000713347 0.000546156 0.000401258 0.000278651 0.000178337 0.000100314 4.45842e-05 1.11461e-05 0 0 8.89976e-06 3.55991e-05 8.00979e-05 0.000142396 0.000222494 0.000320391 0.000436088 0.000569585 0.00071329 0.000859615 0.00100856 0.00116012 0.0013143 0.0014711 0.00163052 0.00179256 0.00195729 0.0021248 0.00229508 0.00246814 0.00264396 0.00282257 0.00300394 0.00318809 0.00337384 0.00356002 0.00374662 0.00393366 0.00412113 0.00430902 0.00449735 0.0046861 0.00487413 0.00506028 0.00524455 0.00542695 0.00560746 0.0057861 0.00596287 0.00613775 0.00630967 0.00647754 0.00664135 0.00680111 0.00695682 0.00710848 0.00725608 0.00739964 0.00753817 0.00767074 0.00779732 0.00791794 0.00803257 0.00814123 0.00824392 0.00834063 0.00843062 0.00851314 0.0085882 0.00865578 0.0087159 0.00876856 0.00881374 0.00885146 0.00888128 0.00890277 0.00891595 0.0089208 0.00891732 0.00890553 0.00888541 0.00885697 0.00882019 0.00877505 0.00872157 0.00865974 0.00858955 0.00851102 0.00842413 0.00832889 0.00822577 0.00811523 0.00799728 0.00787192 0.00773914 0.00759895 0.00745134 0.00729632 0.00713486 0.00696795 0.00679558 0.00661776 0.00643449 0.00624576 0.00605158 0.00585194 0.00564833 0.00544221 0.00523359 0.00502248 0.00480886 0.00459274 0.00437412 0.004153 0.00393127 0.00371082 0.00349166 0.00327378 0.00305718 0.00284187 0.00262784 0.0024151 0.00220401 0.00199496 0.00178794 0.00158295 0.00138 0.00117908 0.000980196 0.000783343 0.000599747 0.000440631 0.000305994 0.000195836 0.000110158 4.8959e-05 1.22397e-05 0 0 9.71808e-06 3.88723e-05 8.74627e-05 0.000155489 0.000242952 0.000349851 0.000476186 0.000621957 0.000778853 0.000938563 0.00110109 0.00126642 0.00143457 0.00160554 0.00177932 0.00195591 0.00213541 0.00231791 0.00250341 0.00269191 0.00288342 0.00307792 0.00327543 0.00347594 0.00367818 0.00388087 0.00408402 0.00428762 0.00449167 0.00469618 0.00490114 0.00510656 0.00531118 0.00551375 0.00571427 0.00591273 0.00610915 0.00630351 0.00649583 0.00668609 0.00687312 0.00705574 0.00723394 0.00740772 0.00757709 0.00774205 0.00790259 0.00805872 0.00820939 0.00835355 0.00849122 0.00862237 0.00874702 0.00886517 0.00897682 0.00908196 0.00917978 0.00926948 0.00935106 0.00942451 0.00948983 0.00954703 0.0095961 0.00963705 0.00966941 0.00969271 0.00970696 0.00971216 0.0097083 0.00969539 0.00967343 0.00964241 0.00960232 0.00955315 0.0094949 0.00942757 0.00935115 0.00926565 0.00917107 0.00906741 0.00895517 0.00883488 0.00870652 0.00857009 0.00842561 0.00827306 0.00811245 0.00794378 0.00776811 0.00758651 0.00739897 0.0072055 0.00700611 0.00680077 0.00658951 0.00637232 0.00615079 0.00592654 0.00569956 0.00546986 0.00523743 0.00500228 0.00476439 0.00452379 0.00428251 0.00404261 0.00380409 0.00356696 0.0033312 0.00309683 0.00286384 0.00263223 0.00240239 0.00217473 0.00194923 0.0017259 0.00150474 0.00128575 0.00106893 0.000854276 0.000654055 0.00048053 0.000333702 0.000213569 0.000120133 5.33923e-05 1.33481e-05 0 0 1.05487e-05 4.21948e-05 9.49384e-05 0.000168779 0.000263718 0.000379754 0.000516887 0.000675118 0.000845401 0.00101869 0.00119499 0.0013743 0.00155661 0.00174193 0.00193026 0.0021216 0.00231606 0.00251374 0.00271466 0.0029188 0.00312618 0.00333678 0.00355062 0.00376768 0.0039866 0.00420599 0.00442587 0.00464622 0.00486705 0.00508835 0.00531014 0.0055324 0.00575379 0.00597295 0.00618988 0.00640458 0.00661706 0.00682731 0.00703533 0.00724112 0.00744341 0.00764092 0.00783365 0.00802159 0.00820476 0.00838314 0.00855674 0.00872556 0.00888847 0.00904435 0.00919318 0.00933497 0.00946973 0.00959745 0.00971812 0.00983176 0.00993749 0.0100344 0.0101226 0.0102019 0.0102725 0.0103343 0.0103873 0.0104315 0.0104664 0.0104915 0.0105068 0.0105123 0.0105081 0.010494 0.0104702 0.0104365 0.0103931 0.0103398 0.0102768 0.0102039 0.0101212 0.0100286 0.00992625 0.00981407 0.00969263 0.00956246 0.00942358 0.00927598 0.00911967 0.00895464 0.00878089 0.00859843 0.0084084 0.00821196 0.0080091 0.00779983 0.00758414 0.00736203 0.00713351 0.00689858 0.00665896 0.00641639 0.00617086 0.00592238 0.00567094 0.00541655 0.00515921 0.00489891 0.00463787 0.00437831 0.00412023 0.00386362 0.0036085 0.00335486 0.00310269 0.002852 0.00260321 0.00235671 0.00211252 0.00187063 0.00163105 0.00139376 0.00115878 0.000926106 0.00070905 0.000520935 0.00036176 0.000231527 0.000130234 5.78816e-05 1.44704e-05 0 0 1.13917e-05 4.55666e-05 0.000102525 0.000182267 0.000284792 0.0004101 0.000558191 0.000729066 0.000912933 0.0011 0.00129027 0.00148374 0.00168041 0.00188029 0.00208336 0.00228963 0.00249924 0.0027123 0.00292882 0.0031488 0.00337224 0.00359914 0.00382949 0.0040633 0.00429909 0.00453538 0.00477217 0.00500946 0.00524725 0.00548554 0.00572433 0.00596361 0.00620195 0.00643787 0.00667139 0.0069025 0.0071312 0.00735749 0.00758138 0.00780285 0.00802055 0.00823309 0.00844049 0.00864273 0.00883981 0.00903175 0.00921853 0.00940016 0.00957542 0.00974311 0.00990321 0.0100557 0.0102007 0.0103381 0.0104678 0.0105901 0.0107037 0.010808 0.0109027 0.010988 0.0110639 0.0111303 0.0111872 0.0112347 0.0112721 0.0112991 0.0113155 0.0113213 0.0113166 0.0113014 0.0112757 0.0112394 0.0111925 0.0111351 0.0110672 0.0109887 0.0108996 0.0107999 0.0106897 0.0105689 0.0104381 0.010298 0.0101485 0.0099896 0.00982133 0.00964369 0.00945667 0.00926028 0.00905574 0.00884431 0.00862597 0.00840073 0.00816858 0.00792954 0.00768359 0.00743074 0.00717284 0.00691176 0.00664749 0.00638004 0.0061094 0.00583557 0.00555855 0.00527835 0.00499735 0.00471792 0.00444006 0.00416378 0.00388908 0.00361595 0.0033444 0.00307442 0.00280645 0.00254091 0.00227781 0.00201715 0.00175892 0.00150312 0.00124976 0.000998833 0.000764731 0.000561843 0.000390169 0.000249708 0.000140461 6.24271e-05 1.56068e-05 0 0 1.22469e-05 4.89877e-05 0.000110222 0.000195951 0.000306173 0.000440889 0.000600099 0.000783803 0.000981451 0.00118249 0.00138693 0.00159476 0.00180598 0.0020206 0.00223861 0.00246001 0.00268495 0.00291359 0.00314591 0.00338191 0.00362161 0.00386499 0.00411205 0.00436281 0.00461567 0.00486905 0.00512294 0.00537736 0.00563229 0.00588774 0.00614371 0.0064002 0.00665566 0.00690852 0.00715879 0.00740647 0.00765156 0.00789406 0.00813396 0.00837128 0.00860453 0.00883226 0.00905445 0.00927112 0.00948226 0.00968788 0.00988796 0.0100825 0.0102702 0.0104498 0.0106213 0.0107847 0.0109399 0.011087 0.011226 0.0113568 0.0114785 0.0115901 0.0116916 0.0117829 0.011864 0.011935 0.0119959 0.0120467 0.0120867 0.0121155 0.0121329 0.0121391 0.012134 0.0121176 0.0120899 0.0120509 0.0120006 0.011939 0.0118661 0.0117819 0.0116864 0.0115795 0.0114613 0.0113319 0.0111917 0.0110415 0.0108812 0.0107109 0.0105306 0.0103402 0.0101398 0.00992932 0.00971013 0.00948356 0.00924958 0.00900821 0.00875945 0.00850329 0.00823974 0.00796879 0.00769243 0.00741265 0.00712945 0.00684283 0.00655279 0.00625932 0.00596244 0.00566213 0.00536095 0.00506144 0.0047636 0.00446743 0.00417294 0.00388012 0.00358896 0.00329949 0.00301213 0.00272733 0.0024451 0.00216544 0.00188835 0.00161382 0.00134185 0.00107246 0.0008211 0.000603257 0.000418928 0.000268114 0.000150814 6.70285e-05 1.67571e-05 0 0 1.31145e-05 5.2458e-05 0.000118031 0.000209832 0.000327863 0.000472122 0.000642611 0.000839329 0.00105095 0.00126616 0.00148496 0.00170734 0.00193331 0.00216286 0.002396 0.00263273 0.00287321 0.0031176 0.00336591 0.00361813 0.00387428 0.00413434 0.00439831 0.0046662 0.00493632 0.00520698 0.00547817 0.0057499 0.00602216 0.00629496 0.0065683 0.00684217 0.00711492 0.00738489 0.00765209 0.00791651 0.00817815 0.00843701 0.00869309 0.00894639 0.00919535 0.00943841 0.00967555 0.00990678 0.0101321 0.0103515 0.010565 0.0107726 0.0109729 0.0111645 0.0113475 0.0115218 0.0116874 0.0118443 0.0119925 0.0121321 0.0122619 0.0123809 0.012489 0.0125864 0.0126729 0.0127486 0.0128135 0.0128675 0.0129101 0.0129407 0.0129592 0.0129657 0.0129601 0.0129425 0.0129129 0.0128711 0.0128174 0.0127515 0.0126736 0.0125836 0.0124816 0.01236