<?xml version="1.0"?> 
<VTKFile type="StructuredGrid" version="0.1"> 
<StructuredGrid WholeExtent="0 128 0 128 0 0"> 
<Piece Extent="0 128 0 128 0 0"> 
<PointData>
<DataArray type="Float32" Name="u" format="ascii" NumberOfComponents="1"> 
0 0 0 0 0 0 0 0 0 0 0 0 0 0 0 0 0 0 0 0 0 0 0 0 0 0 0 0 0 0 0 0 0 0 0 0 0 0 0 0 0 0 0 0 0 0 0 0 0 0 0 0 0 0 0 0 0 0 0 0 0 0 0 0 0 0 0 0 0 0 0 0 0 0 0 0 0 0 0 0 0 0 0 0 0 0 0 0 0 0 0 0 0 0 0 0 0 0 0 0 0 0 0 0 0 0 0 0 0 0 0 0 0 0 0 0 0 0 0 0 0 0 0 0 0 0 0 0 0 0 3.55031e-08 1.42012e-07 3.19528e-07 5.68049e-07 8.87577e-07 1.27811e-06 1.73965e-06 2.2722e-06 2.84799e-06 3.43927e-06 4.04604e-06 4.6683e-06 5.30604e-06 5.95927e-06 6.62799e-06 7.3122e-06 8.01292e-06 8.73116e-06 9.46692e-06 1.02202e-05 1.0991e-05 1.17794e-05 1.25852e-05 1.34086e-05 1.42451e-05 1.50903e-05 1.59442e-05 1.68067e-05 1.76779e-05 1.85578e-05 1.94464e-05 2.03436e-05 2.12443e-05 2.21431e-05 2.30401e-05 2.39352e-05 2.48285e-05 2.57199e-05 2.66095e-05 2.74972e-05 2.83773e-05 2.92439e-05 3.0097e-05 3.09366e-05 3.17627e-05 3.25754e-05 3.33745e-05 3.41602e-05 3.49265e-05 3.56676e-05 3.63834e-05 3.70739e-05 3.77392e-05 3.83792e-05 3.89939e-05 3.95834e-05 4.01423e-05 4.06656e-05 4.11532e-05 4.1605e-05 4.20212e-05 4.24016e-05 4.27463e-05 4.30553e-05 4.33249e-05 4.35515e-05 4.3735e-05 4.38754e-05 4.39728e-05 4.40271e-05 4.40383e-05 4.40065e-05 4.39303e-05 4.38084e-05 4.36408e-05 4.34276e-05 4.31687e-05 4.28641e-05 4.25138e-05 4.21178e-05 4.16778e-05 4.11955e-05 4.06708e-05 4.01037e-05 3.94943e-05 3.88425e-05 3.81484e-05 3.74119e-05 3.66379e-05 3.58314e-05 3.49924e-05 3.41208e-05 3.32167e-05 3.228e-05 3.13108e-05 3.03091e-05 2.92828e-05 2.82402e-05 2.71813e-05 2.61059e-05 2.50142e-05 2.39061e-05 2.27816e-05 2.16408e-05 2.04942e-05 1.93526e-05 1.8216e-05 1.70843e-05 1.59576e-05 1.48358e-05 1.3719e-05 1.26072e-05 1.15033e-05 1.04104e-05 9.32863e-06 8.25782e-06 7.19804e-06 6.14928e-06 5.11154e-06 4.08483e-06 3.12745e-06 2.29772e-06 1.59564e-06 1.02121e-06 5.74429e-07 2.55302e-07 6.38254e-08 0 0 1.42012e-07 5.68049e-07 1.27811e-06 2.2722e-06 3.55031e-06 5.11244e-06 6.9586e-06 9.08878e-06 1.1392e-05 1.37571e-05 1.61842e-05 1.86732e-05 2.12242e-05 2.38371e-05 2.6512e-05 2.92488e-05 3.20517e-05 3.49246e-05 3.78677e-05 4.08809e-05 4.39641e-05 4.71175e-05 5.0341e-05 5.36345e-05 5.69805e-05 6.03612e-05 6.37766e-05 6.72268e-05 7.07117e-05 7.42312e-05 7.77856e-05 8.13746e-05 8.49773e-05 8.85726e-05 9.21605e-05 9.5741e-05 9.93141e-05 0.00010288 0.000106438 0.000109989 0.000113509 0.000116975 0.000120388 0.000123746 0.000127051 0.000130301 0.000133498 0.000136641 0.000139706 0.00014267 0.000145533 0.000148296 0.000150957 0.000153517 0.000155976 0.000158333 0.000160569 0.000162662 0.000164613 0.00016642 0.000168085 0.000169606 0.000170985 0.000172221 0.0001733 0.000174206 0.00017494 0.000175502 0.000175891 0.000176108 0.000176153 0.000176026 0.000175721 0.000175234 0.000174563 0.00017371 0.000172675 0.000171456 0.000170055 0.000168471 0.000166711 0.000164782 0.000162683 0.000160415 0.000157977 0.00015537 0.000152594 0.000149648 0.000146552 0.000143326 0.00013997 0.000136483 0.000132867 0.00012912 0.000125243 0.000121236 0.000117131 0.000112961 0.000108725 0.000104424 0.000100057 9.56245e-05 9.11266e-05 8.65632e-05 8.1977e-05 7.74106e-05 7.2864e-05 6.83373e-05 6.38304e-05 5.93433e-05 5.48761e-05 5.04286e-05 4.60132e-05 4.16418e-05 3.73145e-05 3.30313e-05 2.87922e-05 2.45971e-05 2.04462e-05 1.63393e-05 1.25098e-05 9.19086e-06 6.38254e-06 4.08483e-06 2.29772e-06 1.02121e-06 2.55302e-07 0 0 3.19528e-07 1.27811e-06 2.87575e-06 5.11244e-06 7.98819e-06 1.1503e-05 1.56568e-05 2.04498e-05 2.56319e-05 3.09534e-05 3.64143e-05 4.20147e-05 4.77544e-05 5.36335e-05 5.96519e-05 6.58098e-05 7.21163e-05 7.85804e-05 8.52023e-05 9.19819e-05 9.89193e-05 0.000106014 0.000113267 0.000120678 0.000128206 0.000135813 0.000143497 0.00015126 0.000159101 0.00016702 0.000175018 0.000183093 0.000191199 0.000199288 0.000207361 0.000215417 0.000223457 0.000231479 0.000239486 0.000247475 0.000255396 0.000263195 0.000270873 0.000278429 0.000285864 0.000293178 0.000300371 0.000307442 0.000314339 0.000321008 0.00032745 0.000333665 0.000339652 0.000345412 0.000350945 0.00035625 0.000361281 0.00036599 0.000370378 0.000374445 0.00037819 0.000381614 0.000384717 0.000387498 0.000389924 0.000391963 0.000393615 0.000394879 0.000395755 0.000396244 0.000396345 0.000396058 0.000395372 0.000394276 0.000392767 0.000390848 0.000388518 0.000385777 0.000382624 0.00037906 0.000375101 0.000370759 0.000366037 0.000360934 0.000355449 0.000349583 0.000343335 0.000336707 0.000329741 0.000322483 0.000314932 0.000307087 0.00029895 0.00029052 0.000281797 0.000272781 0.000263546 0.000254162 0.000244631 0.000234953 0.000225128 0.000215155 0.000205035 0.000194767 0.000184448 0.000174174 0.000163944 0.000153759 0.000143618 0.000133522 0.000123471 0.000113464 0.00010353 9.3694e-05 8.39576e-05 7.43204e-05 6.47824e-05 5.53435e-05 4.60039e-05 3.67634e-05 2.8147e-05 2.06794e-05 1.43607e-05 9.19086e-06 5.16986e-06 2.29772e-06 5.74429e-07 0 0 5.68049e-07 2.2722e-06 5.11244e-06 9.08878e-06 1.42012e-05 2.04498e-05 2.78344e-05 3.63551e-05 4.55678e-05 5.50283e-05 6.47366e-05 7.46927e-05 8.48966e-05 9.53484e-05 0.000106048 0.000116995 0.000128207 0.000139699 0.000151471 0.000163523 0.000175857 0.00018847 0.000201364 0.000214538 0.000227922 0.000241445 0.000255107 0.000268907 0.000282847 0.000296925 0.000311142 0.000325498 0.000339909 0.00035429 0.000368642 0.000382964 0.000397256 0.000411519 0.000425752 0.000439956 0.000454037 0.000467902 0.000481551 0.000494985 0.000508203 0.000521206 0.000533993 0.000546564 0.000558825 0.000570681 0.000582134 0.000593182 0.000603827 0.000614066 0.000623902 0.000633334 0.000642277 0.00065065 0.000658451 0.00066568 0.000672338 0.000678425 0.000683941 0.000688885 0.000693199 0.000696824 0.00069976 0.000702006 0.000703564 0.000704433 0.000704613 0.000704104 0.000702884 0.000700934 0.000698253 0.000694841 0.000690699 0.000685825 0.00068022 0.000673885 0.000666845 0.000659128 0.000650733 0.00064166 0.000631909 0.00062148 0.000610374 0.00059859 0.000586207 0.000573303 0.000559878 0.000545933 0.000531467 0.00051648 0.000500973 0.000484945 0.000468525 0.000451844 0.0004349 0.000417695 0.000400227 0.000382498 0.000364506 0.000346253 0.000327908 0.000309642 0.000291456 0.000273349 0.000255322 0.000237373 0.000219504 0.000201715 0.000184053 0.000166567 0.000149258 0.000132125 0.000115169 9.83885e-05 8.17847e-05 6.53572e-05 5.00391e-05 3.67634e-05 2.55302e-05 1.63393e-05 9.19086e-06 4.08483e-06 1.02121e-06 0 0 8.87577e-07 3.55031e-06 7.98819e-06 1.42012e-05 2.21894e-05 3.19528e-05 4.34912e-05 5.68049e-05 7.11997e-05 8.59817e-05 0.000101151 0.000116707 0.000132651 0.000148982 0.0001657 0.000182805 0.000200323 0.000218279 0.000236673 0.000255505 0.000274776 0.000294484 0.000314631 0.000335216 0.000356128 0.000377258 0.000398604 0.000420167 0.000441948 0.000463945 0.00048616 0.000508591 0.000531108 0.000553579 0.000576003 0.000598381 0.000620713 0.000642999 0.000665238 0.000687431 0.000709432 0.000731097 0.000752424 0.000773415 0.000794068 0.000814384 0.000834363 0.000854006 0.000873163 0.00089169 0.000909584 0.000926847 0.000943479 0.000959479 0.000974847 0.000989584 0.00100356 0.00101664 0.00102883 0.00104013 0.00105053 0.00106004 0.00106866 0.00107638 0.00108312 0.00108879 0.00109337 0.00109689 0.00109932 0.00110068 0.00110096 0.00110016 0.00109826 0.00109521 0.00109102 0.00108569 0.00107922 0.0010716 0.00106284 0.00105295 0.00104195 0.00102989 0.00101677 0.00100259 0.000987358 0.000971063 0.00095371 0.000935297 0.000915948 0.000895786 0.00087481 0.00085302 0.000830417 0.000807001 0.00078277 0.000757726 0.000732071 0.000706006 0.000679532 0.000652648 0.000625355 0.000597653 0.000569541 0.00054102 0.000512356 0.000483816 0.0004554 0.000427108 0.00039894 0.000370896 0.000342975 0.000315179 0.000287582 0.000260261 0.000233216 0.000206446 0.000179951 0.000153732 0.000127789 0.000102121 7.81861e-05 5.74429e-05 3.98909e-05 2.55302e-05 1.43607e-05 6.38254e-06 1.59564e-06 0 0 1.27811e-06 5.11244e-06 1.1503e-05 2.04498e-05 3.19528e-05 4.6012e-05 6.26274e-05 8.17991e-05 0.000102528 0.000123814 0.000145657 0.000168059 0.000191017 0.000214534 0.000238608 0.000263239 0.000288465 0.000314322 0.000340809 0.000367928 0.000395677 0.000424057 0.000453069 0.000482711 0.000512825 0.000543251 0.00057399 0.000605041 0.000636405 0.000668081 0.00070007 0.000732371 0.000764796 0.000797153 0.000829444 0.000861669 0.000893827 0.000925918 0.000957942 0.000989901 0.00102158 0.00105278 0.00108349 0.00111372 0.00114346 0.00117271 0.00120148 0.00122977 0.00125736 0.00128403 0.0013098 0.00133466 0.00135861 0.00138165 0.00140378 0.001425 0.00144512 0.00146396 0.00148151 0.00149778 0.00151276 0.00152646 0.00153887 0.00154999 0.0015597 0.00156785 0.00157446 0.00157951 0.00158302 0.00158497 0.00158538 0.00158423 0.00158149 0.0015771 0.00157107 0.00156339 0.00155407 0.00154311 0.0015305 0.00151624 0.0015004 0.00148304 0.00146415 0.00144373 0.0014218 0.00139833 0.00137334 0.00134683 0.00131897 0.00128993 0.00125973 0.00122835 0.0011958 0.00116208 0.00112719 0.00109113 0.00105418 0.00101665 0.000978526 0.000939813 0.000900512 0.00086062 0.000820139 0.000779069 0.000737793 0.000696695 0.000655776 0.000615036 0.000574474 0.00053409 0.000493885 0.000453858 0.000414119 0.000374776 0.000335831 0.000297282 0.00025913 0.000221374 0.000184016 0.000147054 0.000112588 8.27177e-05 5.74429e-05 3.67634e-05 2.06794e-05 9.19086e-06 2.29772e-06 0 0 1.73965e-06 6.9586e-06 1.56568e-05 2.78344e-05 4.34912e-05 6.26274e-05 8.52428e-05 0.000111338 0.000139551 0.000168524 0.000198256 0.000228746 0.000259996 0.000292004 0.000324772 0.000358298 0.000392633 0.000427827 0.000463879 0.000500791 0.000538561 0.000577189 0.000616677 0.000657023 0.000698011 0.000739425 0.000781264 0.000823528 0.000866218 0.000909333 0.000952873 0.000996839 0.00104097 0.00108501 0.00112897 0.00117283 0.0012166 0.00126028 0.00130387 0.00134736 0.00139049 0.00143295 0.00147475 0.00151589 0.00155637 0.00159619 0.00163535 0.00167385 0.0017114 0.00174771 0.00178279 0.00181662 0.00184922 0.00188058 0.0019107 0.00193958 0.00196697 0.00199261 0.00201651 0.00203865 0.00205904 0.00207768 0.00209457 0.00210971 0.00212292 0.00213402 0.00214301 0.00214989 0.00215467 0.00215733 0.00215788 0.00215632 0.00215258 0.00214661 0.0021384 0.00212795 0.00211526 0.00210034 0.00208318 0.00206377 0.00204221 0.00201858 0.00199287 0.00196508 0.00193522 0.00190328 0.00186927 0.00183318 0.00179526 0.00175574 0.00171463 0.00167192 0.00162762 0.00158172 0.00153423 0.00148514 0.00143486 0.00138377 0.00133188 0.00127919 0.0012257 0.0011714 0.0011163 0.0010604 0.00100422 0.00094828 0.000892584 0.000837132 0.000781922 0.000726956 0.000672232 0.000617751 0.000563661 0.000510112 0.000457103 0.000404633 0.000352704 0.000301315 0.000250466 0.000200157 0.000153245 0.000112588 7.81861e-05 5.00391e-05 2.8147e-05 1.25098e-05 3.12745e-06 0 0 2.2722e-06 9.08878e-06 2.04498e-05 3.63551e-05 5.68049e-05 8.17991e-05 0.000111338 0.000145421 0.000182271 0.000220113 0.000258946 0.000298771 0.000339587 0.000381393 0.000424192 0.000467981 0.000512827 0.000558794 0.000605883 0.000654094 0.000703426 0.00075388 0.000805455 0.000858152 0.000911688 0.000965779 0.00102043 0.00107563 0.00113139 0.0011877 0.00124457 0.00130199 0.00135964 0.00141716 0.00147457 0.00153186 0.00158903 0.00164608 0.00170301 0.00175982 0.00181615 0.00187161 0.00192621 0.00197994 0.00203281 0.00208482 0.00213597 0.00218625 0.0022353 0.00228273 0.00232854 0.00237273 0.00241531 0.00245627 0.00249561 0.00253333 0.00256911 0.0026026 0.0026338 0.00266272 0.00268935 0.0027137 0.00273576 0.00275554 0.0027728 0.00278729 0.00279904 0.00280803 0.00281426 0.00281773 0.00281845 0.00281641 0.00281154 0.00280374 0.00279301 0.00277937 0.00276279 0.0027433 0.00272088 0.00269554 0.00266738 0.00263651 0.00260293 0.00256664 0.00252764 0.00248592 0.0024415 0.00239436 0.00234483 0.00229321 0.00223951 0.00218373 0.00212587 0.00206592 0.00200389 0.00193978 0.0018741 0.00180738 0.0017396 0.00167078 0.00160091 0.00152999 0.00145803 0.00138501 0.00131163 0.00123857 0.00116582 0.0010934 0.00102129 0.000949493 0.000878017 0.000806858 0.000736211 0.000666269 0.000597032 0.000528501 0.000460675 0.000393554 0.000327139 0.000261429 0.000200157 0.000147054 0.000102121 6.53572e-05 3.67634e-05 1.63393e-05 4.08483e-06 0 0 2.84705e-06 1.13882e-05 2.56234e-05 4.55528e-05 7.11762e-05 0.000102494 0.000139505 0.000182211 0.000228382 0.000275791 0.000324437 0.000374321 0.000425442 0.0004778 0.000531396 0.000586228 0.000642381 0.000699936 0.000758892 0.000819251 0.000881011 0.000944173 0.00100874 0.0010747 0.00114172 0.00120943 0.00127783 0.00134692 0.00141671 0.00148719 0.00155837 0.00163024 0.00170238 0.00177438 0.00184622 0.00191791 0.00198946 0.00206085 0.0021321 0.00220319 0.00227368 0.00234308 0.0024114 0.00247864 0.00254479 0.00260987 0.00267387 0.00273679 0.00279815 0.00285749 0.00291481 0.0029701 0.00302337 0.00307461 0.00312383 0.00317103 0.00321579 0.00325768 0.00329671 0.00333289 0.0033662 0.00339666 0.00342425 0.00344899 0.00347056 0.0034887 0.00350338 0.00351461 0.0035224 0.00352673 0.00352762 0.00352506 0.00351894 0.00350917 0.00349574 0.00347865 0.0034579 0.0034335 0.00340544 0.00337372 0.00333847 0.00329983 0.0032578 0.00321238 0.00316357 0.00311137 0.00305577 0.00299678 0.00293479 0.0028702 0.002803 0.0027332 0.00266079 0.00258577 0.00250815 0.00242792 0.00234573 0.00226223 0.00217742 0.00209129 0.00200386 0.00191511 0.00182505 0.00173368 0.00164185 0.00155042 0.00145938 0.00136874 0.00127849 0.00118864 0.00109919 0.00101013 0.000921705 0.000834161 0.000747495 0.000661707 0.000576798 0.000492767 0.000409614 0.00032734 0.00025062 0.000184129 0.000127867 8.1835e-05 4.60322e-05 2.04588e-05 5.11469e-06 0 0 3.43551e-06 1.3742e-05 3.09195e-05 5.49681e-05 8.58876e-05 0.000123678 0.00016834 0.000219872 0.00027558 0.000332769 0.000391437 0.000451586 0.000513214 0.000576323 0.000640912 0.00070698 0.00077463 0.000843963 0.000914977 0.000987674 0.00106205 0.00113811 0.00121586 0.00129528 0.00137597 0.00145748 0.00153982 0.00162299 0.001707 0.00179183 0.00187749 0.00196399 0.0020508 0.00213744 0.00222389 0.00231016 0.00239624 0.00248214 0.00256786 0.0026534 0.00273819 0.00282168 0.00290386 0.00298475 0.00306433 0.00314261 0.00321958 0.00329525 0.00336906 0.00344042 0.00350935 0.00357584 0.0036399 0.00370152 0.0037607 0.00381745 0.00387126 0.00392163 0.00396855 0.00401203 0.00405208 0.00408868 0.00412184 0.00415155 0.00417748 0.00419925 0.00421687 0.00423035 0.00423968 0.00424486 0.00424589 0.00424278 0.00423539 0.0042236 0.00420741 0.00418682 0.00416183 0.00413244 0.00409866 0.00406047 0.00401805 0.00397154 0.00392096 0.0038663 0.00380756 0.00374474 0.00367784 0.00360686 0.00353228 0.00345456 0.00337371 0.00328972 0.0032026 0.00311235 0.00301896 0.00292244 0.00282356 0.0027231 0.00262107 0.00251745 0.00241225 0.00230548 0.00219713 0.00208719 0.0019767 0.00186669 0.00175715 0.00164807 0.00153948 0.00143135 0.00132369 0.00121651 0.00111008 0.0010047 0.000900367 0.000797076 0.00069483 0.000593628 0.000493471 0.000394359 0.000301931 0.000221827 0.000154047 9.85898e-05 5.54567e-05 2.46474e-05 6.16186e-06 0 0 4.03757e-06 1.61503e-05 3.63381e-05 6.46011e-05 0.000100939 0.000145352 0.000197841 0.000258404 0.000323865 0.000391046 0.000459945 0.000530565 0.000602904 0.000676962 0.00075274 0.000830237 0.000909575 0.000990876 0.00107414 0.00115936 0.00124655 0.0013357 0.00142681 0.00151989 0.00161443 0.00170993 0.0018064 0.00190384 0.00200224 0.0021016 0.00220193 0.00230323 0.0024049 0.00250635 0.00260758 0.00270859 0.00280938 0.00290995 0.0030103 0.00311043 0.00320968 0.00330741 0.00340361 0.00349827 0.00359141 0.00368302 0.0037731 0.00386166 0.00394802 0.00403152 0.00411217 0.00418997 0.00426491 0.00433699 0.00440622 0.0044726 0.00453553 0.00459444 0.00464931 0.00470016 0.00474697 0.00478976 0.00482851 0.00486324 0.00489353 0.00491896 0.00493953 0.00495525 0.00496611 0.00497212 0.00497327 0.00496957 0.00496087 0.00494702 0.00492802 0.00490387 0.00487458 0.00484013 0.00480055 0.00475581 0.00470611 0.00465164 0.0045924 0.00452839 0.0044596 0.00438604 0.00430771 0.00422461 0.00413729 0.0040463 0.00395164 0.00385332 0.00375132 0.00364567 0.00353634 0.00342335 0.0033076 0.00319 0.00307055 0.00294925 0.00282609 0.00270109 0.00257424 0.00244554 0.00231618 0.00218738 0.00205911 0.0019314 0.00180423 0.00167761 0.00155153 0.001426 0.00130135 0.00117789 0.00105565 0.000934607 0.00081477 0.000696138 0.00057871 0.000462486 0.000354091 0.000260148 0.000180659 0.000115621 6.50371e-05 2.89054e-05 7.22634e-06 0 0 4.65324e-06 1.8613e-05 4.18791e-05 7.44518e-05 0.000116331 0.000167517 0.000228009 0.000297807 0.000373237 0.000450622 0.000529962 0.000611259 0.00069451 0.000779717 0.00086688 0.000955998 0.00104721 0.00114067 0.00123638 0.00133432 0.00143451 0.00153694 0.00164161 0.00174852 0.00185711 0.00196679 0.00207758 0.00218946 0.00230244 0.00241652 0.0025317 0.00264797 0.00276467 0.00288111 0.00299729 0.00311321 0.00322887 0.00334427 0.00345941 0.00357429 0.00368816 0.00380028 0.00391063 0.00401922 0.00412605 0.00423113 0.00433444 0.004436 0.00453503 0.00463079 0.00472326 0.00481246 0.00489838 0.00498102 0.00506039 0.00513647 0.0052086 0.00527611 0.00533899 0.00539725 0.00545089 0.0054999 0.00554429 0.00558405 0.00561872 0.00564782 0.00567134 0.0056893 0.00570169 0.00570851 0.00570976 0.00570545 0.00569539 0.00567943 0.00565757 0.00562981 0.00559614 0.00555657 0.0055111 0.00545972 0.00540266 0.00534013 0.00527212 0.00519864 0.00511969 0.00503527 0.00494538 0.00485001 0.00474981 0.0046454 0.00453679 0.00442397 0.00430695 0.00418572 0.00406028 0.00393065 0.00379784 0.00366291 0.00352586 0.00338668 0.00324538 0.00310195 0.0029564 0.00280872 0.00266029 0.00251248 0.00236529 0.00221871 0.00207276 0.00192742 0.0017827 0.0016386 0.00149549 0.00135374 0.00121334 0.0010743 0.00093662 0.000800296 0.00066533 0.000531721 0.000407099 0.000299093 0.000207703 0.00013293 7.47732e-05 3.32325e-05 8.30813e-06 0 0 5.28251e-06 2.11301e-05 4.75426e-05 8.45202e-05 0.000132063 0.00019017 0.000258843 0.000338081 0.000423695 0.000511498 0.000601488 0.000693667 0.000788034 0.000884589 0.000983332 0.00108426 0.00118755 0.00129336 0.00140169 0.00151254 0.00162592 0.00174182 0.00186024 0.00198118 0.002104 0.00222806 0.00235334 0.00247985 0.0026076 0.00273657 0.00286678 0.00299821 0.00313012 0.00326172 0.00339302 0.00352401 0.00365471 0.0037851 0.00391519 0.00404498 0.00417363 0.00430027 0.00442493 0.00454758 0.00466825 0.00478692 0.00490359 0.00501827 0.0051301 0.00523822 0.00534263 0.00544333 0.00554033 0.00563362 0.00572319 0.00580906 0.00589047 0.00596665 0.0060376 0.00610333 0.00616383 0.00621911 0.00626916 0.00631398 0.00635305 0.00638583 0.00641232 0.00643251 0.00644642 0.00645404 0.00645536 0.0064504 0.00643895 0.00642085 0.00639607 0.00636463 0.00632653 0.00628176 0.00623032 0.00617222 0.0061077 0.006037 0.00596012 0.00587707 0.00578784 0.00569243 0.00559084 0.00548308 0.00536985 0.00525188 0.00512916 0.00500169 0.00486947 0.0047325 0.00459079 0.00444433 0.00429429 0.00414185 0.003987 0.00382976 0.00367011 0.00350806 0.0033436 0.00317674 0.00300903 0.002842 0.00267566 0.00251002 0.00234506 0.00218079 0.00201721 0.00185432 0.00169252 0.00153223 0.00137344 0.00121616 0.00106038 0.000906103 0.000753331 0.000602063 0.000460955 0.000338661 0.000235181 0.000150516 8.46651e-05 3.76289e-05 9.40724e-06 0 0 5.9254e-06 2.37016e-05 5.33286e-05 9.48063e-05 0.000148135 0.000213314 0.000290344 0.000379225 0.00047524 0.000573673 0.000674523 0.00077779 0.000883475 0.000991577 0.0011021 0.00121503 0.00133058 0.00144893 0.00157008 0.00169403 0.00182079 0.00195035 0.00208271 0.00221787 0.00235512 0.00249372 0.00263369 0.00277502 0.00291771 0.00306176 0.00320718 0.00335395 0.00350124 0.00364817 0.00379476 0.00394101 0.0040869 0.00423245 0.00437765 0.00452251 0.00466607 0.0048074 0.0049465 0.00508336 0.00521799 0.00535039 0.00548055 0.00560848 0.00573322 0.00585382 0.00597027 0.00608258 0.00619075 0.00629477 0.00639465 0.00649039 0.00658113 0.00666605 0.00674513 0.00681838 0.00688579 0.00694737 0.00700312 0.00705304 0.00709653 0.007133 0.00716245 0.00718488 0.0072003 0.00720869 0.00721007 0.00720443 0.00719156 0.00717125 0.00714351 0.00710834 0.00706573 0.00701569 0.00695821 0.0068933 0.00682122 0.00674226 0.00665641 0.00656367 0.00646404 0.00635751 0.00624411 0.00612381 0.00599742 0.00586573 0.00572875 0.00558647 0.00543889 0.00528602 0.00512786 0.00496439 0.00479694 0.0046268 0.00445398 0.00427847 0.00410028 0.00391941 0.00373585 0.0035496 0.00336239 0.00317594 0.00299025 0.00280531 0.00262113 0.00243771 0.00225505 0.00207314 0.00189243 0.00171337 0.00153595 0.00136018 0.00118605 0.00101356 0.000842714 0.000673514 0.000515659 0.000378851 0.000263091 0.000168378 9.47128e-05 4.20946e-05 1.05236e-05 0 0 6.58188e-06 2.63275e-05 5.92369e-05 0.00010531 0.000164547 0.000236948 0.000322512 0.00042124 0.000527872 0.000637147 0.000749066 0.000863627 0.000980833 0.00110068 0.00122317 0.00134831 0.00147631 0.00160739 0.00174155 0.00187879 0.00201912 0.00216253 0.00230902 0.00245859 0.00261045 0.0027638 0.00291864 0.00307497 0.00323279 0.0033921 0.0035529 0.00371519 0.00387803 0.00404048 0.00420253 0.00436418 0.00452545 0.00468631 0.00484678 0.00500686 0.0051655 0.00532167 0.00547535 0.00562656 0.00577529 0.00592155 0.00606533 0.00620663 0.0063444 0.00647758 0.00660618 0.0067302 0.00684964 0.00696448 0.00707475 0.00718043 0.0072806 0.00737431 0.00746158 0.0075424 0.00761678 0.0076847 0.00774618 0.00780121 0.00784914 0.00788932 0.00792174 0.00794641 0.00796332 0.00797248 0.00797388 0.00796753 0.0079532 0.00793065 0.0078999 0.00786093 0.00781376 0.00775837 0.00769477 0.00762296 0.00754324 0.00745591 0.00736098 0.00725843 0.00714829 0.00703053 0.00690517 0.0067722 0.0066325 0.00648695 0.00633555 0.00617831 0.00601522 0.00584628 0.00567148 0.00549085 0.0053058 0.00511778 0.00492679 0.00473283 0.0045359 0.004336 0.00413314 0.0039273 0.00372039 0.0035143 0.00330903 0.00310459 0.00290098 0.00269819 0.00249622 0.00229507 0.00209523 0.00189716 0.00170087 0.00150636 0.00131362 0.00112266 0.000933478 0.000746072 0.000571211 0.000419665 0.000291434 0.000186518 0.000104916 4.66295e-05 1.16574e-05 0 0 7.25197e-06 2.90079e-05 6.52678e-05 0.000116032 0.000181299 0.000261071 0.000355347 0.000464126 0.000581591 0.000701921 0.000825118 0.00095118 0.00108011 0.0012119 0.00134656 0.00148409 0.00162473 0.00176873 0.00191609 0.00206681 0.0022209 0.00237835 0.00253916 0.00270333 0.00286999 0.00303827 0.00320817 0.00337969 0.00355282 0.00372757 0.00390394 0.00408193 0.0042605 0.00443863 0.00461631 0.00479355 0.00497034 0.00514669 0.00532259 0.00549805 0.00567192 0.00584306 0.00601148 0.00617718 0.00634015 0.00650039 0.00665791 0.00681271 0.00696363 0.00710952 0.00725037 0.0073862 0.007517 0.00764276 0.0077635 0.0078792 0.00798886 0.00809144 0.00818696 0.00827541 0.00835679 0.0084311 0.00849834 0.00855851 0.0086109 0.00865479 0.00869019 0.00871709 0.00873549 0.00874539 0.0087468 0.00873971 0.00872388 0.00869905 0.00866523 0.00862241 0.0085706 0.00850979 0.00843999 0.0083612 0.00827374 0.00817795 0.00807383 0.00796137 0.00784059 0.00771147 0.00757403 0.00742825 0.0072751 0.00711554 0.00694958 0.00677722 0.00659844 0.00641326 0.00622168 0.00602368 0.00582086 0.00561477 0.00540543 0.00519283 0.00497697 0.00475785 0.00453547 0.00430983 0.00408301 0.00385707 0.00363203 0.00340787 0.0031846 0.00296222 0.00274072 0.00252012 0.00230091 0.0020836 0.0018682 0.0016547 0.00144311 0.00123341 0.00102562 0.000819738 0.000627612 0.000461103 0.00032021 0.000204934 0.000115276 5.12336e-05 1.28084e-05 0 0 7.93578e-06 3.17431e-05 7.1422e-05 0.000126973 0.000198395 0.000285688 0.000388853 0.00050789 0.000636406 0.000768008 0.000902697 0.00104047 0.00118134 0.00132528 0.00147232 0.00162244 0.00177593 0.00193306 0.00209383 0.00225824 0.00242629 0.00259799 0.00277332 0.0029523 0.00313398 0.00331739 0.00350255 0.00368945 0.0038781 0.00406849 0.00426063 0.00445451 0.00464901 0.00484301 0.00503651 0.00522952 0.00542202 0.00561403 0.00580553 0.00599654 0.0061858 0.00637209 0.00655541 0.00673574 0.0069131 0.00708748 0.00725888 0.00742731 0.00759151 0.00775022 0.00790345 0.0080512 0.00819346 0.00833024 0.00846154 0.00858736 0.00870658 0.00881811 0.00892194 0.00901807 0.00910651 0.00918725 0.00926029 0.00932563 0.0093825 0.00943012 0.0094685 0.00949763 0.00951751 0.00952815 0.00952953 0.00952168 0.0095043 0.00947714 0.00944019 0.00939346 0.00933694 0.00927064 0.00919455 0.00910867 0.00901337 0.00890901 0.00879559 0.0086731 0.00854155 0.00840094 0.00825126 0.00809252 0.00792577 0.00775204 0.00757135 0.00738368 0.00718905 0.00698745 0.00677887 0.00656333 0.00634253 0.00611817 0.00589026 0.0056588 0.00542379 0.00518523 0.00494311 0.00469744 0.00445048 0.00420446 0.00395939 0.00371528 0.00347212 0.00322991 0.00298865 0.00274834 0.00250952 0.00227273 0.00203796 0.00180522 0.0015745 0.00134581 0.00111915 0.000894508 0.000684858 0.000503161 0.000349417 0.000223627 0.00012579 5.59068e-05 1.39767e-05 0 0 8.63341e-06 3.45337e-05 7.77007e-05 0.000138135 0.000215835 0.000310803 0.000423037 0.000552538 0.000692327 0.000835422 0.000981824 0.00113153 0.00128455 0.00144087 0.00160051 0.00176344 0.00193 0.00210047 0.00227487 0.00245319 0.00263544 0.0028216 0.00301169 0.00320571 0.00340261 0.00360139 0.00380203 0.00400455 0.00420893 0.00441517 0.00462329 0.00483328 0.00504391 0.005254 0.00546352 0.00567249 0.00588091 0.00608876 0.00629606 0.00650281 0.00670765 0.00690927 0.00710764 0.00730279 0.00749469 0.00768337 0.00786881 0.00805101 0.00822863 0.0084003 0.00856603 0.00872582 0.00887967 0.00902757 0.00916953 0.00930555 0.00943444 0.00955499 0.0096672 0.00977108 0.00986663 0.00995385 0.0100327 0.0101033 0.0101647 0.010216 0.0102574 0.0102887 0.0103101 0.0103214 0.0103228 0.0103141 0.0102952 0.0102656 0.0102255 0.0101748 0.0101135 0.0100416 0.0099591 0.00986604 0.00976279 0.00964974 0.00952688 0.00939423 0.00925177 0.00909951 0.00893745 0.00876558 0.00858505 0.00839698 0.00820136 0.00799821 0.00778752 0.00756928 0.00734351 0.0071102 0.0068712 0.00662834 0.00638164 0.00613108 0.00587668 0.00561843 0.00535633 0.00509038 0.00482301 0.00455665 0.00429131 0.00402699 0.00376367 0.00350137 0.00324009 0.00297982 0.00272112 0.00246458 0.00221018 0.00195793 0.00170782 0.00145986 0.00121405 0.000970378 0.000742946 0.000545838 0.000379054 0.000242595 0.000136459 6.06486e-05 1.51622e-05 0 0 9.34487e-06 3.73795e-05 8.41038e-05 0.000149518 0.000233622 0.000336415 0.000457898 0.000598071 0.000749353 0.000904162 0.0010625 0.00122436 0.00138975 0.00155867 0.00173112 0.00190709 0.00208693 0.00227098 0.00245923 0.00265168 0.00284834 0.0030492 0.00325427 0.00346354 0.00367591 0.00389027 0.00410662 0.00432496 0.00454529 0.00476762 0.00499193 0.00521823 0.00544522 0.00567159 0.00589735 0.00612248 0.006347 0.00657091 0.00679419 0.00701686 0.00723747 0.00745458 0.00766819 0.00787831 0.00808493 0.00828806 0.00848768 0.00868381 0.00887499 0.00905975 0.00923811 0.00941007 0.00957561 0.00973475 0.00988748 0.0100338 0.0101724 0.0103021 0.0104227 0.0105344 0.0106372 0.0107309 0.0108157 0.0108914 0.0109574 0.0110125 0.0110568 0.0110904 0.0111132 0.0111253 0.0111266 0.011117 0.0110965 0.0110645 0.0110211 0.0109663 0.0109002 0.0108226 0.0107337 0.0106333 0.010522 0.0104001 0.0102677 0.0101248 0.00997125 0.00980719 0.00963259 0.00944743 0.00925295 0.00905034 0.00883963 0.00862079 0.00839384 0.00815878 0.0079156 0.0076643 0.00740687 0.00714529 0.00687956 0.00660967 0.00633564 0.00605745 0.00577512 0.00548863 0.0052006 0.00491366 0.00462778 0.00434298 0.00405926 0.00377661 0.00349504 0.00321454 0.00293571 0.00265915 0.00238485 0.00211282 0.00184305 0.00157555 0.00131032 0.00104735 0.000801876 0.000589134 0.000409121 0.000261837 0.000147283 6.54593e-05 1.63648e-05 0 0 1.00701e-05 4.02806e-05 9.06313e-05 0.000161122 0.000251754 0.000362525 0.000493437 0.000644489 0.000807485 0.000974229 0.00114472 0.00131896 0.00149694 0.00167868 0.00186416 0.00205339 0.00224673 0.00244457 0.00264689 0.0028537 0.00306499 0.00328078 0.00350105 0.0037258 0.00395386 0.00418403 0.00441631 0.0046507 0.0048872 0.00512581 0.00536654 0.00560937 0.00585292 0.00609579 0.00633798 0.00657948 0.00682031 0.00706045 0.00729991 0.00753869 0.00777524 0.00800803 0.00823706 0.00846232 0.00868381 0.00890154 0.00911551 0.00932571 0.00953059 0.00972858 0.0099197 0.0101039 0.0102813 0.0104518 0.0106154 0.0107721 0.0109205 0.0110594 0.0111886 0.0113081 0.0114181 0.0115184 0.0116091 0.0116901 0.0117606 0.0118195 0.0118669 0.0119027 0.011927 0.0119397 0.0119408 0.0119305 0.0119082 0.0118737 0.011827 0.0117681 0.011697 0.0116137 0.0115182 0.0114105 0.011291 0.0111602 0.0110181 0.0108647 0.0107 0.010524 0.0103367 0.0101381 0.00992946 0.00971215 0.00948614 0.00925143 0.00900803 0.00875593 0.00849513 0.00822563 0.00794955 0.00766901 0.00738402 0.00709457 0.00680067 0.0065023 0.00619948 0.0058922 0.00558327 0.00527546 0.0049688 0.00466327 0.00435887 0.00405562 0.00375349 0.00345251 0.00315328 0.00285644 0.00256198 0.0022699 0.00198021 0.00169289 0.00140797 0.00112542 0.000861649 0.000633048 0.000439617 0.000281355 0.000158262 7.03387e-05 1.75847e-05 0 0 1.08092e-05 4.3237e-05 9.72832e-05 0.000172948 0.000270231 0.000389133 0.000529653 0.000691792 0.000866723 0.00104562 0.00122849 0.00141532 0.00160612 0.00180089 0.00199963 0.00220233 0.0024094 0.00262125 0.00283786 0.00305925 0.0032854 0.00351633 0.00375203 0.0039925 0.00423647 0.00448267 0.0047311 0.00498176 0.00523465 0.00548977 0.00574712 0.00600671 0.00626703 0.0065266 0.00678542 0.0070435 0.00730082 0.0075574 0.00781322 0.0080683 0.00832098 0.00856963 0.00881424 0.0090548 0.00929134 0.00952383 0.00975229 0.00997671 0.0101954 0.0104068 0.0106108 0.0108074 0.0109967 0.0111786 0.0113532 0.0115204 0.0116788 0.0118269 0.0119647 0.0120922 0.0122094 0.0123164 0.012413 0.0124994 0.0125744 0.0126371 0.0126875 0.0127255 0.0127512 0.0127646 0.0127656 0.0127543 0.0127304 0.0126934 0.0126433 0.0125802 