<?xml version="1.0"?> 
<VTKFile type="StructuredGrid" version="0.1"> 
<StructuredGrid WholeExtent="0 128 0 128 0 0"> 
<Piece Extent="0 128 0 128 0 0"> 
<PointData>
<DataArray type="Float32" Name="u" format="ascii" NumberOfComponents="1"> 
0 0 0 0 0 0 0 0 0 0 0 0 0 0 0 0 0 0 0 0 0 0 0 0 0 0 0 0 0 0 0 0 0 0 0 0 0 0 0 0 0 0 0 0 0 0 0 0 0 0 0 0 0 0 0 0 0 0 0 0 0 0 0 0 0 0 0 0 0 0 0 0 0 0 0 0 0 0 0 0 0 0 0 0 0 0 0 0 0 0 0 0 0 0 0 0 0 0 0 0 0 0 0 0 0 0 0 0 0 0 0 0 0 0 0 0 0 0 0 0 0 0 0 0 0 0 0 0 0 0 2.97041e-08 1.18817e-07 2.67337e-07 4.75266e-07 7.42603e-07 1.06935e-06 1.4555e-06 1.90106e-06 2.38448e-06 2.8842e-06 3.40021e-06 3.93252e-06 4.48113e-06 5.04605e-06 5.62726e-06 6.22477e-06 6.84018e-06 7.4751e-06 8.12953e-06 8.80346e-06 9.49691e-06 1.02099e-05 1.09423e-05 1.16943e-05 1.24623e-05 1.3243e-05 1.40363e-05 1.48422e-05 1.56607e-05 1.64919e-05 1.73357e-05 1.81922e-05 1.90563e-05 1.99231e-05 2.07927e-05 2.1665e-05 2.25401e-05 2.34179e-05 2.42984e-05 2.51816e-05 2.60616e-05 2.6932e-05 2.77931e-05 2.86447e-05 2.94868e-05 3.03195e-05 3.11428e-05 3.19566e-05 3.27544e-05 3.35297e-05 3.42824e-05 3.50125e-05 3.572e-05 3.64049e-05 3.70673e-05 3.7707e-05 3.83182e-05 3.88946e-05 3.94363e-05 3.99434e-05 4.04157e-05 4.08533e-05 4.12563e-05 4.16245e-05 4.19536e-05 4.22391e-05 4.24811e-05 4.26794e-05 4.28342e-05 4.29455e-05 4.30131e-05 4.30372e-05 4.30159e-05 4.29474e-05 4.28316e-05 4.26687e-05 4.24586e-05 4.22013e-05 4.18967e-05 4.1545e-05 4.11475e-05 4.07058e-05 4.02198e-05 3.96895e-05 3.9115e-05 3.84962e-05 3.78331e-05 3.71258e-05 3.63793e-05 3.55984e-05 3.47834e-05 3.39341e-05 3.30505e-05 3.21327e-05 3.11806e-05 3.01943e-05 2.9182e-05 2.81523e-05 2.7105e-05 2.60402e-05 2.49578e-05 2.38579e-05 2.27405e-05 2.16056e-05 2.0464e-05 1.9327e-05 1.81943e-05 1.7066e-05 1.59422e-05 1.48227e-05 1.37077e-05 1.25971e-05 1.14943e-05 1.04024e-05 9.32146e-06 8.25154e-06 7.19262e-06 6.14469e-06 5.10775e-06 4.08181e-06 3.12513e-06 2.29602e-06 1.59446e-06 1.02045e-06 5.74004e-07 2.55113e-07 6.37782e-08 0 0 1.18817e-07 4.75266e-07 1.06935e-06 1.90106e-06 2.97041e-06 4.2774e-06 5.82201e-06 7.60426e-06 9.53792e-06 1.15368e-05 1.36008e-05 1.57301e-05 1.79245e-05 2.01842e-05 2.2509e-05 2.48991e-05 2.73607e-05 2.99004e-05 3.25181e-05 3.52139e-05 3.79876e-05 4.08394e-05 4.37693e-05 4.67772e-05 4.98493e-05 5.2972e-05 5.61451e-05 5.93688e-05 6.2643e-05 6.59677e-05 6.93429e-05 7.27686e-05 7.62251e-05 7.96924e-05 8.31708e-05 8.66601e-05 9.01603e-05 9.36714e-05 9.71935e-05 0.000100727 0.000104246 0.000107728 0.000111172 0.000114579 0.000117947 0.000121278 0.000124571 0.000127826 0.000131018 0.000134119 0.000137129 0.00014005 0.00014288 0.00014562 0.000148269 0.000150828 0.000153273 0.000155578 0.000157745 0.000159774 0.000161663 0.000163413 0.000165025 0.000166498 0.000167814 0.000168956 0.000169924 0.000170718 0.000171337 0.000171782 0.000172052 0.000172149 0.000172064 0.000171789 0.000171327 0.000170675 0.000169834 0.000168805 0.000167587 0.00016618 0.00016459 0.000162823 0.000160879 0.000158758 0.00015646 0.000153985 0.000151333 0.000148503 0.000145517 0.000142394 0.000139133 0.000135736 0.000132202 0.000128531 0.000124722 0.000120777 0.000116728 0.000112609 0.00010842 0.000104161 9.98313e-05 9.54317e-05 9.0962e-05 8.64222e-05 8.18562e-05 7.73078e-05 7.27771e-05 6.82641e-05 6.37687e-05 5.9291e-05 5.4831e-05 5.03886e-05 4.5977e-05 4.16094e-05 3.72858e-05 3.30062e-05 2.87705e-05 2.45788e-05 2.0431e-05 1.63272e-05 1.25005e-05 9.18406e-06 6.37782e-06 4.08181e-06 2.29602e-06 1.02045e-06 2.55113e-07 0 0 2.67337e-07 1.06935e-06 2.40603e-06 4.2774e-06 6.68343e-06 9.62414e-06 1.30995e-05 1.71096e-05 2.14603e-05 2.59578e-05 3.06019e-05 3.53927e-05 4.03302e-05 4.54144e-05 5.06453e-05 5.60229e-05 6.15616e-05 6.72759e-05 7.31657e-05 7.92312e-05 8.54722e-05 9.18887e-05 9.84809e-05 0.000105249 0.000112161 0.000119187 0.000126327 0.00013358 0.000140947 0.000148427 0.000156021 0.000163729 0.000171506 0.000179308 0.000187134 0.000194985 0.000202861 0.000210761 0.000218685 0.000226635 0.000234554 0.000242388 0.000250138 0.000257802 0.000265381 0.000272876 0.000280285 0.00028761 0.00029479 0.000301767 0.000308541 0.000315112 0.00032148 0.000327644 0.000333605 0.000339363 0.000344864 0.000350051 0.000354927 0.00035949 0.000363741 0.00036768 0.000371306 0.000374621 0.000377582 0.000380152 0.00038233 0.000384115 0.000385508 0.000386509 0.000387118 0.000387335 0.000387143 0.000386526 0.000385485 0.000384019 0.000382127 0.000379811 0.00037707 0.000373905 0.000370327 0.000366352 0.000361978 0.000357205 0.000352035 0.000346466 0.000340498 0.000334132 0.000327413 0.000320386 0.00031305 0.000305406 0.000297454 0.000289194 0.000280625 0.000271748 0.000262638 0.00025337 0.000243945 0.000234362 0.00022462 0.000214721 0.000204665 0.00019445 0.000184176 0.000173943 0.000163748 0.000153594 0.00014348 0.000133405 0.00012337 0.000113374 0.000103448 9.36213e-05 8.38931e-05 7.42639e-05 6.47336e-05 5.53022e-05 4.59698e-05 3.67363e-05 2.81262e-05 2.06641e-05 1.43501e-05 9.18406e-06 5.16604e-06 2.29602e-06 5.74004e-07 0 0 4.75266e-07 1.90106e-06 4.2774e-06 7.60426e-06 1.18817e-05 1.71096e-05 2.3288e-05 3.0417e-05 3.81517e-05 4.61471e-05 5.44033e-05 6.29204e-05 7.16981e-05 8.07367e-05 9.00361e-05 9.95962e-05 0.000109443 0.000119602 0.000130072 0.000140855 0.000151951 0.000163358 0.000175077 0.000187109 0.000199397 0.000211888 0.00022458 0.000237475 0.000250572 0.000263871 0.000277372 0.000291074 0.0003049 0.00031877 0.000332683 0.00034664 0.000360641 0.000374686 0.000388774 0.000402906 0.000416985 0.000430912 0.000444689 0.000458314 0.000471789 0.000485112 0.000498285 0.000511306 0.000524071 0.000536475 0.000548518 0.000560199 0.000571519 0.000582478 0.000593076 0.000603313 0.000613091 0.000622314 0.000630982 0.000639094 0.000646651 0.000653654 0.0006601 0.000665992 0.000671258 0.000675826 0.000679697 0.000682871 0.000685348 0.000687127 0.00068821 0.000688595 0.000688254 0.000687158 0.000685306 0.0006827 0.000679337 0.00067522 0.000670347 0.00066472 0.00065836 0.000651292 0.000643516 0.000635032 0.000625839 0.000615939 0.00060533 0.000594013 0.000582068 0.000569575 0.000556534 0.000542945 0.000528808 0.000514123 0.000498889 0.000483108 0.000466912 0.000450436 0.00043368 0.000416643 0.000399325 0.000381727 0.000363848 0.000345689 0.000327425 0.000309231 0.000291108 0.000273056 0.000255075 0.000237164 0.000219324 0.000201554 0.000183908 0.000166438 0.000149143 0.000132025 0.000115082 9.83151e-05 8.17241e-05 6.53089e-05 5.00021e-05 3.67363e-05 2.55113e-05 1.63272e-05 9.18406e-06 4.08181e-06 1.02045e-06 0 0 7.42603e-07 2.97041e-06 6.68343e-06 1.18817e-05 1.85651e-05 2.67337e-05 3.63876e-05 4.75266e-05 5.9612e-05 7.21049e-05 8.50052e-05 9.8313e-05 0.000112028 0.000126151 0.000140681 0.000155619 0.000171004 0.000186877 0.000203238 0.000220087 0.000237423 0.000255247 0.000273558 0.000292357 0.000311558 0.000331075 0.000350907 0.000371055 0.000391519 0.000412298 0.000433393 0.000454804 0.000476407 0.000498078 0.000519817 0.000541625 0.000563502 0.000585446 0.00060746 0.000629541 0.000651539 0.000673301 0.000694827 0.000716116 0.00073717 0.000757988 0.00077857 0.000798916 0.000818861 0.000838242 0.000857059 0.000875311 0.000892999 0.000910122 0.000926681 0.000942676 0.000957954 0.000972365 0.000985909 0.000998584 0.00101039 0.00102133 0.00103141 0.00104061 0.00104884 0.00105598 0.00106203 0.00106699 0.00107086 0.00107364 0.00107533 0.00107593 0.0010754 0.00107368 0.00107079 0.00106672 0.00106146 0.00105503 0.00104742 0.00103862 0.00102869 0.00101764 0.00100549 0.000992237 0.000977874 0.000962404 0.000945828 0.000928146 0.000909482 0.000889961 0.000869584 0.000848351 0.000826262 0.000803316 0.000779514 0.000754856 0.000729551 0.000703807 0.000677625 0.000651004 0.000623945 0.000596448 0.000568513 0.000540139 0.000511601 0.000483174 0.000454857 0.00042665 0.000398554 0.000370569 0.000342693 0.000314929 0.000287356 0.000260059 0.000233036 0.000206289 0.000179816 0.000153617 0.000127694 0.000102045 7.81283e-05 5.74004e-05 3.98614e-05 2.55113e-05 1.43501e-05 6.37782e-06 1.59446e-06 0 0 1.06935e-06 4.2774e-06 9.62414e-06 1.71096e-05 2.67337e-05 3.84966e-05 5.23981e-05 6.84383e-05 8.58413e-05 0.000103831 0.000122408 0.000141571 0.000161321 0.000181658 0.000202581 0.000224092 0.000246246 0.000269104 0.000292663 0.000316925 0.000341889 0.000367555 0.000393924 0.000420994 0.000448644 0.000476748 0.000505306 0.000534319 0.000563787 0.000593709 0.000624086 0.000654917 0.000686025 0.000717232 0.000748537 0.00077994 0.000811442 0.000843043 0.000874742 0.000906539 0.000938216 0.000969553 0.00100055 0.00103121 0.00106152 0.0010915 0.00112114 0.00115044 0.00117916 0.00120707 0.00123416 0.00126045 0.00128592 0.00131058 0.00133442 0.00135745 0.00137945 0.00140021 0.00141971 0.00143796 0.00145497 0.00147072 0.00148523 0.00149848 0.00151033 0.00152061 0.00152932 0.00153646 0.00154203 0.00154604 0.00154847 0.00154934 0.00154857 0.00154611 0.00154194 0.00153607 0.00152851 0.00151925 0.00150828 0.00149562 0.00148131 0.00146541 0.00144791 0.00142882 0.00140814 0.00138586 0.00136199 0.00133653 0.00130965 0.00128154 0.0012522 0.00122163 0.00118982 0.00115678 0.0011225 0.00108699 0.00105055 0.00101348 0.00097578 0.000937446 0.000898481 0.000858885 0.000818658 0.0007778 0.000736706 0.00069577 0.000654994 0.000614377 0.000573918 0.000533619 0.000493479 0.000453497 0.000413793 0.000374485 0.000335572 0.000297056 0.000258934 0.000221209 0.000183879 0.000146945 0.000112505 8.26566e-05 5.74004e-05 3.67363e-05 2.06641e-05 9.18406e-06 2.29602e-06 0 0 1.4555e-06 5.82201e-06 1.30995e-05 2.3288e-05 3.63876e-05 5.23981e-05 7.13196e-05 9.31522e-05 0.00011684 0.000141326 0.00016661 0.000192694 0.000219576 0.000247256 0.000275736 0.000305013 0.000335169 0.00036628 0.000398347 0.00043137 0.000465349 0.000500283 0.000536174 0.00057302 0.000610654 0.000648906 0.000687778 0.000727268 0.000767376 0.000808104 0.00084945 0.000891415 0.000933757 0.000976232 0.00101884 0.00106159 0.00110446 0.00114748 0.00119062 0.0012339 0.00127702 0.00131967 0.00136186 0.00140359 0.00144485 0.00148566 0.001526 0.00156587 0.00160497 0.00164295 0.00167984 0.00171561 0.00175028 0.00178384 0.0018163 0.00184764 0.00187759 0.00190584 0.00193238 0.00195723 0.00198037 0.00200181 0.00202156 0.0020396 0.00205573 0.00206972 0.00208157 0.00209129 0.00209888 0.00210433 0.00210764 0.00210882 0.00210778 0.00210442 0.00209875 0.00209077 0.00208047 0.00206786 0.00205294 0.0020357 0.00201623 0.00199458 0.00197077 0.00194478 0.00191663 0.00188631 0.00185382 0.00181917 0.00178258 0.00174432 0.00170439 0.00166277 0.00161947 0.0015745 0.00152785 0.00147952 0.00142992 0.00137946 0.00132814 0.00127597 0.00122293 0.00116904 0.00111428 0.00105867 0.00100274 0.000947021 0.00089152 0.000836235 0.000781167 0.000726315 0.000671679 0.00061726 0.000563219 0.000509716 0.000456751 0.000404326 0.000352438 0.00030109 0.00025028 0.000200008 0.000153132 0.000112505 7.81283e-05 5.00021e-05 2.81262e-05 1.25005e-05 3.12513e-06 0 0 1.90106e-06 7.60426e-06 1.71096e-05 3.0417e-05 4.75266e-05 6.84383e-05 9.31522e-05 0.000121668 0.000152607 0.000184588 0.000217613 0.000251681 0.000286793 0.000322947 0.000360144 0.000398385 0.000437771 0.000478406 0.00052029 0.000563422 0.000607802 0.000653431 0.000700309 0.000748434 0.000797589 0.000847551 0.000898322 0.000949901 0.00100229 0.00105548 0.00110949 0.0011643 0.0012196 0.00127508 0.00133073 0.00138656 0.00144256 0.00149874 0.0015551 0.00161163 0.00166794 0.00172365 0.00177876 0.00183326 0.00188716 0.00194045 0.00199314 0.00204522 0.00209628 0.0021459 0.00219407 0.0022408 0.00228608 0.00232991 0.0023723 0.00241325 0.00245236 0.00248925 0.00252393 0.00255638 0.00258661 0.00261461 0.0026404 0.00266397 0.00268503 0.0027033 0.00271879 0.00273148 0.00274139 0.00274851 0.00275284 0.00275438 0.00275302 0.00274863 0.00274123 0.0027308 0.00271735 0.00270088 0.00268139 0.00265888 0.00263344 0.00260517 0.00257406 0.00254013 0.00250336 0.00246376 0.00242132 0.00237605 0.00232827 0.0022783 0.00222614 0.00217178 0.00211523 0.00205649 0.00199556 0.00193243 0.00186765 0.00180175 0.00173472 0.00166657 0.0015973 0.00152691 0.00145539 0.00138276 0.0013097 0.00123692 0.00116443 0.00109223 0.0010203 0.000948656 0.000877295 0.000806217 0.000735633 0.000665751 0.000596573 0.000528099 0.000460328 0.00039326 0.000326896 0.000261236 0.000200008 0.000146945 0.000102045 6.53089e-05 3.67363e-05 1.63272e-05 4.08181e-06 0 0 2.38337e-06 9.53347e-06 2.14503e-05 3.81339e-05 5.95842e-05 8.58012e-05 0.000116785 0.000152535 0.000191321 0.000231408 0.000272799 0.000315491 0.000359487 0.000404785 0.000451385 0.000499288 0.000548623 0.000599518 0.000651975 0.000705992 0.000761569 0.000818708 0.000877407 0.000937667 0.000999212 0.00106177 0.00112533 0.0011899 0.00125549 0.00132208 0.00138968 0.00145829 0.00152752 0.00159696 0.00166662 0.0017365 0.00180659 0.00187691 0.00194744 0.00201818 0.00208866 0.00215838 0.00222734 0.00229555 0.002363 0.00242969 0.00249562 0.0025608 0.00262469 0.00268677 0.00274704 0.00280551 0.00286216 0.00291701 0.00297005 0.00302128 0.00307021 0.00311636 0.00315974 0.00320033 0.00323814 0.00327318 0.00330544 0.00333491 0.00336125 0.0033841 0.00340346 0.00341934 0.00343172 0.00344061 0.00344601 0.00344792 0.0034462 0.0034407 0.00343141 0.00341835 0.00340151 0.00338088 0.00335648 0.00332829 0.00329645 0.00326106 0.00322212 0.00317964 0.00313361 0.00308404 0.00303093 0.00297427 0.00291447 0.00285193 0.00278664 0.00271861 0.00264783 0.00257431 0.00249805 0.00241905 0.00233797 0.00225549 0.00217161 0.00208631 0.00199962 0.00191152 0.00182201 0.0017311 0.00163967 0.00154858 0.00145785 0.00136747 0.00127744 0.00118777 0.00109845 0.00100947 0.000921118 0.000833637 0.000747033 0.000661304 0.000576451 0.000492474 0.000409373 0.000327148 0.000250473 0.000184021 0.000127792 8.17871e-05 4.60052e-05 2.04468e-05 5.11169e-06 0 0 2.87974e-06 1.1519e-05 2.59177e-05 4.60759e-05 7.19936e-05 0.000103671 0.000141107 0.000184303 0.000231159 0.000279574 0.000329548 0.000381081 0.000434173 0.000488825 0.000545036 0.000602806 0.000662292 0.000723652 0.000786884 0.00085199 0.00091897 0.000987822 0.00105855 0.00113115 0.00120529 0.00128064 0.0013572 0.00143497 0.00151394 0.00159413 0.00167553 0.00175814 0.00184147 0.00192507 0.00200893 0.00209304 0.0021774 0.00226203 0.00234691 0.00243205 0.00251686 0.00260075 0.00268373 0.00276579 0.00284694 0.00292718 0.00300649 0.0030849 0.00316175 0.00323643 0.00330893 0.00337925 0.00344738 0.00351334 0.00357712 0.00363873 0.00369756 0.00375306 0.0038052 0.003854 0.00389946 0.00394157 0.00398033 0.00401575 0.0040474 0.00407485 0.0040981 0.00411715 0.004132 0.00414265 0.00414911 0.00415136 0.00414925 0.00414258 0.00413137 0.00411561 0.00409531 0.00407045 0.00404105 0.0040071 0.00396875 0.00392613 0.00387925 0.00382811 0.0037727 0.00371303 0.0036491 0.0035809 0.00350893 0.00343365 0.00335507 0.0032732 0.00318802 0.00309954 0.00300777 0.00291269 0.00281512 0.00271586 0.00261491 0.00251226 0.00240793 0.0023019 0.00219418 0.00208477 0.00197472 0.00186509 0.00175588 0.00164709 0.00153873 0.00143078 0.00132325 0.00121614 0.00110976 0.00100442 0.000900124 0.00079687 0.000694657 0.000593486 0.000493357 0.000394269 0.000301862 0.000221776 0.000154011 9.85672e-05 5.5444e-05 2.46418e-05 6.16045e-06 0 0 3.39019e-06 1.35608e-05 3.05117e-05 5.4243e-05 8.47547e-05 0.000122047 0.000166119 0.000216972 0.000272122 0.000329085 0.00038786 0.000448449 0.000510852 0.000575067 0.000641096 0.000708937 0.000778778 0.000850806 0.000925019 0.00100142 0.00108 0.00116077 0.00124373 0.00132888 0.00141582 0.00150416 0.00159392 0.00168508 0.00177766 0.00187164 0.00196702 0.00206382 0.00216147 0.00225941 0.00235764 0.00245617 0.00255499 0.0026541 0.00275351 0.00285321 0.00295252 0.00305076 0.00314791 0.00324399 0.00333899 0.00343291 0.00352576 0.00361753 0.00370748 0.00379488 0.00387972 0.00396201 0.00404174 0.00411892 0.00419354 0.0042656 0.00433443 0.00439934 0.00446033 0.0045174 0.00457055 0.00461978 0.0046651 0.0047065 0.00474348 0.00477554 0.00480269 0.00482492 0.00484224 0.00485464 0.00486213 0.0048647 0.00486215 0.00485428 0.00484109 0.00482258 0.00479874 0.00476959 0.00473511 0.0046953 0.00465035 0.0046004 0.00454546 0.00448554 0.00442063 0.00435072 0.00427583 0.00419595 0.00411164 0.00402347 0.00393144 0.00383555 0.0037358 0.00363218 0.0035247 0.00341336 0.0032991 0.00318285 0.00306462 0.00294441 0.00282222 0.00269804 0.00257189 0.00244374 0.00231486 0.00218645 0.00205853 0.0019311 0.00180415 0.00167768 0.0015517 0.00142621 0.00130155 0.0011781 0.00105585 0.000934797 0.000814946 0.000696296 0.000578846 0.000462597 0.000354176 0.000260211 0.000180702 0.000115649 6.50527e-05 2.89123e-05 7.22807e-06 0 0 3.91471e-06 1.56588e-05 3.52324e-05 6.26354e-05 9.78677e-05 0.00014093 0.000191821 0.000250541 0.000314209 0.000379941 0.000447737 0.000517598 0.000589522 0.000663512 0.000739565 0.000817683 0.000898082 0.000980981 0.00106638 0.00115427 0.00124467 0.00133756 0.00143296 0.00153085 0.0016308 0.00173235 0.0018355 0.00194026 0.00204662 0.00215459 0.00226417 0.00237535 0.0024875 0.00259997 0.00271277 0.0028259 0.00293935 0.00305314 0.00316725 0.00328169 0.00339566 0.0035084 0.00361989 0.00373014 0.00383914 0.0039469 0.00405342 0.00415869 0.00426188 0.00436212 0.00445943 0.0045538 0.00464523 0.00473372 0.00481928 0.0049019 0.0049808 0.0050552 0.00512511 0.00519051 0.00525142 0.00530782 0.00535973 0.00540714 0.00544948 0.00548618 0.00551724 0.00554266 0.00556244 0.00557658 0.00558507 0.00558793 0.00558492 0.0055758 0.00556058 0.00553925 0.00551182 0.00547829 0.00543864 0.0053929 0.00534124 0.00528386 0.00522075 0.00515193 0.00507738 0.00499711 0.00491112 0.00481941 0.00472262 0.0046214 0.00451575 0.00440567 0.00429116 0.00417222 0.00404885 0.00392105 0.00378989 0.00365646 0.00352075 0.00338277 0.0032425 0.00309996 0.00295514 0.00280804 0.00266008 0.00251266 0.0023658 0.00221948 0.00207371 0.00192848 0.00178381 0.00163968 0.0014965 0.00135468 0.0012142 0.00107509 0.000937318 0.000800904 0.000665842 0.000532132 0.000407414 0.000299324 0.000207864 0.000133033 7.48311e-05 3.32583e-05 8.31457e-06 0 0 4.4533e-06 1.78132e-05 4.00797e-05 7.12528e-05 0.000111333 0.000160319 0.000218212 0.000285011 0.000357421 0.000432143 0.000509177 0.000588525 0.000670185 0.000754158 0.000840444 0.000929043 0.0010202 0.00111418 0.00121096 0.00131056 0.00141297 0.00151819 0.00162623 0.00173707 0.00185023 0.00196518 0.00208194 0.00220049 0.00232085 0.00244301 0.00256696 0.00269272 0.00281956 0.00294676 0.00307431 0.00320223 0.0033305 0.00345913 0.00358811 0.00371746 0.00384628 0.00397368 0.00409967 0.00422424 0.0043474 0.00446914 0.00458947 0.00470839 0.00482493 0.00493815 0.00504804 0.00515461 0.00525785 0.00535777 0.00545436 0.00554763 0.00563669 0.00572066 0.00579955 0.00587335 0.00594206 0.00600569 0.00606423 0.00611768 0.00616541 0.00620676 0.00624174 0.00627035 0.00629259 0.00630845 0.00631794 0.00632106 0.00631755 0.00630714 0.00628984 0.00626564 0.00623454 0.00619655 0.00615167 0.00609988 0.00604143 0.0059765 0.00590512 0.00582728 0.00574297 0.0056522 0.00555497 0.00545128 0.00534185 0.00522742 0.00510799 0.00498355 0.00485411 0.00471966 0.00458021 0.00443576 0.00428752 0.0041367 0.0039833 0.00382732 0.00366877 0.00350764 0.00334394 0.00317765 0.00301038 0.00284373 0.00267768 0.00251223 0.0023474 0.00218318 0.00201956 0.00185656 0.00169461 0.00153415 0.00137519 0.00121773 0.00106177 0.000907309 0.000754343 0.000602876 0.000461577 0.000339117 0.000235498 0.000150719 8.47794e-05 3.76797e-05 9.41993e-06 0 0 5.00597e-06 2.00239e-05 4.50537e-05 8.00955e-05 0.000125149 0.000180215 0.000245292 0.000320382 0.000401757 0.00048569 0.000572182 0.000661232 0.00075284 0.000847007 0.000943733 0.00104302 0.00114514 0.00125039 0.00135877 0.00147028 0.0015849 0.00170266 0.00182354 0.00194755 0.00207411 0.00220267 0.00233323 0.00246578 0.00260033 0.00273687 0.00287541 0.00301594 0.00315766 0.00329977 0.00344227 0.00358515 0.00372842 0.00387207 0.00401611 0.00416054 0.00430437 0.0044466 0.00458724 0.0047263 0.00486376 0.00499964 0.00513392 0.00526661 0.00539665 0.00552297 0.00564557 0.00576445 0.00587961 0.00599105 0.00609877 0.00620278 0.00630208 0.0063957 0.00648364 0.0065659 0.00664248 0.00671338 0.00677859 0.00683813 0.00689127 0.00693729 0.00697621 0.00700801 0.0070327 0.00705028 0.00706074 0.00706409 0.00706004 0.00704829 0.00702886 0.00700172 0.0069669 0.00692438 0.00687417 0.00681626 0.00675091 0.00667834 0.00659857 0.00651158 0.00641739 0.00631599 0.00620738 0.00609156 0.00596934 0.00584155 0.00570816 0.0055692 0.00542465 0.00527451 0.0051188 0.0049575 0.00479196 0.00462355 0.00445226 0.00427808 0.00410103 0.00392109 0.00373828 0.00355258 0.00336578 0.00317964 0.00299417 0.00280937 0.00262524 0.00244177 0.00225897 0.00207684 0.00189586 0.00171652 0.00153881 0.00136274 0.00118831 0.00101551 0.000844351 0.000674826 0.000516664 0.00037959 0.000263604 0.000168707 9.48975e-05 4.21767e-05 1.05442e-05 0 0 5.57271e-06 2.22908e-05 5.01544e-05 8.91633e-05 0.000139318 0.000200617 0.000273063 0.000356653 0.000447217 0.000540583 0.000636749 0.000735718 0.000837487 0.000942058 0.00104943 0.0011596 0.0012729 0.00138963 0.00150981 0.00163342 0.00176047 0.00189096 0.00202489 0.00216226 0.00230245 0.00244482 0.00258938 0.00273613 0.00288507 0.00303619 0.0031895 0.003345 0.0035018 0.00365902 0.00381664 0.00397467 0.00413312 0.00429198 0.00445124 0.00461092 0.00476993 0.00492716 0.00508262 0.00523631 0.00538823 0.00553838 0.00568676 0.00583337 0.00597703 0.00611658 0.00625201 0.00638332 0.0065105 0.00663357 0.00675252 0.00686735 0.00697698 0.00708033 0.00717739 0.00726817 0.00735267 0.00743089 0.00750282 0.00756847 0.00762705 0.00767777 0.00772063 0.00775563 0.00778277 0.00780204 0.00781346 0.00781701 0.00781239 0.00779927 0.00777764 0.00774752 0.0077089 0.00766178 0.00760616 0.00754204 0.00746968 0.00738937 0.00730109 0.00720485 0.00710065 0.00698848 0.00686835 0.00674026 0.0066051 0.00646377 0.00631627 0.00616261 0.00600277 0.00583677 0.00566459 0.00548625 0.00530323 0.00511703 0.00492763 0.00473504 0.00453927 0.00434031 0.00413816 0.00393282 0.00372625 0.00352041 0.00331529 0.00311089 0.00290721 0.00270426 0.00250204 0.00230053 0.00210028 0.00190179 0.00170507 0.00151011 0.00131693 0.00112551 0.000935865 0.000747985 0.000572676 0.000420742 0.000292182 0.000186996 0.000105185 4.67491e-05 1.16873e-05 0 0 6.15352e-06 2.46141e-05 5.53817e-05 9.84563e-05 0.000153838 0.000221527 0.000301522 0.000393825 0.000493802 0.000596821 0.000702881 0.000811983 0.000924127 0.00103931 0.00115754 0.00127881 0.00140347 0.00153189 0.00166406 0.00179999 0.00193967 0.0020831 0.00223029 0.00238123 0.00253524 0.00269162 0.00285039 0.00301154 0.00317506 0.00334096 0.00350925 0.00367991 0.00385198 0.00402448 0.00419742 0.00437079 0.0045446 0.00471884 0.00489351 0.00506861 0.00524296 0.00541535 0.00558579 0.00575427 0.0059208 0.00608537 0.00624799 0.00640866 0.00656608 0.00671898 0.00686736 0.00701121 0.00715053 0.00728533 0.0074156 0.00754135 0.00766139 0.00777454 0.0078808 0.00798017 0.00807264 0.00815823 0.00823692 0.00830872 0.00837277 0.0084282 0.00847501 0.00851321 0.00854279 0.00856375 0.0085761 0.00857983 0.0085746 0.00856006 0.0085362 0.00850302 0.00846054 0.00840874 0.00834763 0.0082772 0.00819776 0.00810959 0.00801269 0.00790708 0.00779274 0.00766967 0.00753788 0.00739736 0.00724911 0.00709409 0.00693231 0.00676378 0.00658848 0.00640643 0.00621761 0.00602203 0.00582133 0.00561712 0.00540942 0.00519821 0.0049835 0.0047653 0.00454359 0.00431838 0.00409182 0.00386603 0.00364101 0.00341678 0.00319332 0.00297065 0.00274875 0.00252763 0.00230784 0.00208995 0.00187395 0.00165985 0.00144763 0.00123731 0.00102889 0.000822351 0.000629613 0.000462572 0.000321231 0.000205588 0.000115643 5.13969e-05 1.28492e-05 0 0 6.74891e-06 2.69957e-05 6.07402e-05 0.000107983 0.000168723 0.000242961 0.000330697 0.000431931 0.000541553 0.000654457 0.000770641 0.000890105 0.00101285 0.00113888 0.00126818 0.00140077 0.00153703 0.00167736 0.00182175 0.00197022 0.00212275 0.00227935 0.00244002 0.00260476 0.00277282 0.00294345 0.00311664 0.00329241 0.00347074 0.00365165 0.00383512 0.00402117 0.00420872 0.00439673 0.00458519 0.0047741 0.00496347 0.00515329 0.00534356 0.00553428 0.00572416 0.0059119 0.00609749 0.00628094 0.00646224 0.00664141 0.00681842 0.0069933 0.00716463 0.00733103 0.00749249 0.00764901 0.00780059 0.00794724 0.00808894 0.00822571 0.00835626 0.0084793 0.00859483 0.00870285 0.00880337 0.00889637 0.00898187 0.00905986 0.00912941 0.00918957 0.00924035 0.00928176 0.00931378 0.00933642 0.00934968 0.00935355 0.00934767 0.00933166 0.0093055 0.00926922 0.00922279 0.00916623 0.00909953 0.0090227 0.00893606 0.00883991 0.00873428 0.00861915 0.00849453 0.00836042 0.00821681 0.0080637 0.00790218 0.00773329 0.00755705 0.00737345 0.00718249 0.00698417 0.0067785 0.00656547 0.00634685 0.00612442 0.00589816 0.0056681 0.00543421 0.00519651 0.00495499 0.00470965 0.00446283 0.00421683 0.00397166 0.00372732 0.00348382 0.00324115 0.0029993 0.00275829 0.0025187 0.00228112 0.00204556 0.00181201 0.00158048 0.00135095 0.00112345 0.000897951 0.000687494 0.000505098 0.000350762 0.000224488 0.000126274 5.6122e-05 1.40305e-05 0 0 7.35941e-06 2.94376e-05 6.62347e-05 0.000117751 0.000183985 0.000264939 0.000360611 0.000471002 0.000590513 0.000713542 0.000840092 0.00097016 0.00110375 0.00124086 0.00138148 0.00152563 0.00167373 0.00182621 0.00198308 0.00214433 0.00230996 0.00247998 0.00265439 0.00283318 0.00301554 0.00320065 0.00338853 0.00357916 0.00377255 0.0039687 0.00416761 0.00436927 0.00457255 0.0047763 0.00498051 0.0051852 0.00539035 0.00559597 0.00580206 0.00600862 0.00621424 0.00641752 0.00661847 0.00681708 0.00701335 0.00720728 0.00739887 0.00758813 0.00777353 0.00795358 0.00812827 0.00829761 0.00846159 0.00862021 0.00877347 0.00892137 0.00906253 0.00919556 0.00932045 0.00943721 0.00954583 0.00964632 0.00973868 0.0098229 0.00989798 0.0099629 0.0100177 0.0100623 0.0100967 0.010121 0.0101352 0.0101392 0.0101326 0.0101151 0.0100866 0.0100471 0.00999663 0.00993522 0.00986284 0.00977949 0.00968551 0.00958127 0.00946675 0.00934197 0.00920691 0.00906158 0.00890597 0.0087401 0.0085651 0.00838215 0.00819123 0.00799235 0.0077855 0.00757069 0.00734792 0.00711719 0.0068804 0.00663948 0.00639442 0.00614522 0.00589188 0.0056344 0.00537278 0.00510703 0.00483965 0.00457315 0.00430753 0.00404279 0.00377894 0.00351597 0.00325388 0.00299268 0.00273298 0.00247542 0.00221998 0.00196669 0.00171552 0.00146648 0.00121958 0.000974812 0.000746341 0.000548332 0.000380786 0.000243703 0.000137083 6.09258e-05 1.52314e-05 0 0 7.98501e-06 3.194e-05 7.18651e-05 0.00012776 0.000199625 0.00028746 0.000391266 0.000511041 0.00064068 0.000774078 0.000911235 0.00105215 0.00119682 0.00134526 0.00149745 0.0016534 0.00181357 0.00197845 0.00214804 0.00232232 0.00250131 0.00268499 0.00287338 0.00306647 0.00326339 0.00346324 0.00366605 0.0038718 0.00408049 0.00429213 0.00450671 0.00472424 0.00494348 0.0051632 0.0053834 0.00560408 0.00582524 0.00604688 0.00626901 0.00649161 0.00671319 0.00693222 0.00714872 0.00736268 0.0075741 0.00778298 0.00798933 0.00819313 0.00839278 0.00858664 0.00877472 0.00895701 0.00913351 0.00930424 0.00946918 0.00962833 0.00978021 0.00992332 0.0100577 0.0101832 0.0103 0.0104081 0.0105073 0.0105978 0.0106785 0.0107482 0.010807 0.0108548 0.0108917 0.0109176 0.0109326 0.0109367 0.0109294 0.0109103 0.0108794 0.0108366 0.0107821 0.0107157 0.0106375 0.0105475 0.0104461 0.0103337 0.0102101 0.0100755 0.00992986 0.00977315 0.00960537 0.00942654 0.00923789 0.00904066 0.00883485 0.00862047 0.00839752 0.00816598 0.00792587 0.00767719 0.00742199 0.00716232 0.00689818 0.00662958 0.00635651 0.00607898 0.00579698 0.00551051 0.00522228 0.00493498 0.00464861 0.00436318 0.00407869 0.00379512 0.00351249 0.00323079 0.00295069 0.00267283 0.00239722 0.00212387 0.00185276 0.0015839 0.00131729 0.00105293 0.000806153 0.000592275 0.000411302 0.000263234 0.000148069 6.58084e-05 1.64521e-05 0 0 8.62571e-06 3.45028e-05 7.76314e-05 0.000138011 0.000215643 0.000310526 0.00042266 0.000552045 0.000692056 0.000836064 0.000984069 0.00113607 0.00129207 0.00145207 0.00161607 0.00178406 0.00195657 0.00213409 0.00231663 0.0025042 0.00269678 0.00289438 0.00309701 0.00330465 0.00351637 0.00373122 0.0039492 0.00417031 0.00439455 0.00462192 0.00485242 0.00508605 0.00532149 0.00555742 0.00579384 0.00603075 0.00626814 0.00650603 0.0067444 0.00698327 0.007221 0.007456 0.00768824 0.00791775 0.00814451 0.00836853 0.0085898 0.00880833 0.00902237 0.0092302 0.00943181 0.0096272 0.00981638 0.00999933 0.0101761 0.0103466 0.0105093 0.0106626 0.0108065 0.0109409 0.011066 0.0111816 0.0112879 0.0113847 0.0114709 0.0115454 0.0116082 0.0116593 0.0116986 0.0117262 0.011742 0.0117461 0.011738 0.0117173 0.0116839 0.0116378 0.0115791 0.0115077 0.0114236 0.0113269 0.0112179 0.0110971 0.0109644 0.0108198 0.0106634 0.0104951 0.010315 0.010123 0.00992052 0.00970882 0.00948792 0.00925783 0.00901853 0.00877004 0.00851236 0.00824548 0.0079716 0.00769292 0.00740945 0.00712117 0.0068281 0.00653023 0.00622756 0.0059201 0.00561072 0.00530233 0.00499492 0.0046885 0.00438306 0.0040786 0.00377512 0.00347263 0.00317182 0.00287336 0.00257728 0.00228355 0.0019922 0.00170321 0.00141658 0.00113232 0.00086693 0.000636928 0.000442311 0.000283079 0.000159232 7.07698e-05 1.76924e-05 0 0 9.28151e-06 3.7126e-05 8.35336e-05 0.000148504 0.000232038 0.000334134 0.000454794 0.000594017 0.000744639 0.000899499 0.0010586 0.00122193 0.0013895 0.00156131 0.00173735 0.00191763 0.0021027 0.00229311 0.00248886 0.00268995 0.00289638 0.00310815 0.00332526 0.00354771 0.00377449 0.00400458 0.00423798 0.0044747 0.00471474 0.00495808 0.00520474 0.00545472 0.0057066 0.00595897 0.00621184 0.0064652 0.00671905 0.0069734 0.00722825 0.00748358 0.00773769 0.00798884 0.00823704 0.00848228 0.00872457 0.0089639 0.00920028 0.0094337 0.00966232 0.00988427 0.0100996 0.0103082 0.0105102 0.0107055 0.0108941 0.0110761 0.0112498 0.0114133 0.0115668 0.0117103 0.0118437 0.011967 0.0120802 0.0121834 0.0122753 0.0123546 0.0124215 0.0124757 0.0125175 0.0125467 