<?xml version="1.0"?> 
<VTKFile type="StructuredGrid" version="0.1"> 
<StructuredGrid WholeExtent="0 64 0 64 0 0"> 
<Piece Extent="0 64 0 64 0 0"> 
<PointData>
<DataArray type="Float32" Name="u" format="ascii" NumberOfComponents="1"> 
0 0 0 0 0 0 0 0 0 0 0 0 0 0 0 0 0 0 0 0 0 0 0 0 0 0 0 0 0 0 0 0 0 0 -0 -0 -0 -0 -0 -0 -0 -0 -0 -0 -0 -0 -0 -0 -0 -0 -0 -0 -0 -0 -0 -0 -0 -0 -0 -0 -0 -0 -0 -0 -0 0 0.00605599 0.012112 0.0179352 0.0237585 0.0291253 0.034492 0.039196 0.0439 0.0477605 0.0516209 0.0544895 0.0573581 0.0591246 0.0608911 0.0614875 0.062084 0.0614875 0.0608911 0.0591246 0.0573581 0.0544895 0.0516209 0.0477605 0.0439 0.039196 0.034492 0.0291253 0.0237585 0.0179352 0.012112 0.00605599 2.89293e-17 -0.00605599 -0.012112 -0.0179352 -0.0237585 -0.0291253 -0.034492 -0.039196 -0.0439 -0.0477605 -0.0516209 -0.0544895 -0.0573581 -0.0591246 -0.0608911 -0.0614875 -0.062084 -0.0614875 -0.0608911 -0.0591246 -0.0573581 -0.0544895 -0.0516209 -0.0477605 -0.0439 -0.039196 -0.034492 -0.0291253 -0.0237585 -0.0179352 -0.012112 -0.00605599 -3.23339e-18 0 0.012112 0.024224 0.0358705 0.047517 0.0582505 0.068984 0.078392 0.0878 0.095521 0.103242 0.108979 0.114716 0.118249 0.121782 0.122975 0.124168 0.122975 0.121782 0.118249 0.114716 0.108979 0.103242 0.095521 0.0878 0.078392 0.068984 0.0582505 0.047517 0.0358705 0.024224 0.012112 5.78585e-17 -0.012112 -0.024224 -0.0358705 -0.047517 -0.0582505 -0.068984 -0.078392 -0.0878 -0.095521 -0.103242 -0.108979 -0.114716 -0.118249 -0.121782 -0.122975 -0.124168 -0.122975 -0.121782 -0.118249 -0.114716 -0.108979 -0.103242 -0.095521 -0.0878 -0.078392 -0.068984 -0.0582505 -0.047517 -0.0358705 -0.024224 -0.012112 -6.46677e-18 0 0.0179352 0.0358705 0.0531165 0.0703625 0.0862565 0.102151 0.116082 0.130013 0.141446 0.152879 0.161375 0.16987 0.175102 0.180333 0.1821 0.183866 0.1821 0.180333 0.175102 0.16987 0.161375 0.152879 0.141446 0.130013 0.116082 0.102151 0.0862565 0.0703625 0.0531165 0.0358705 0.0179352 9.21281e-17 -0.0179352 -0.0358705 -0.0531165 -0.0703625 -0.0862565 -0.102151 -0.116082 -0.130013 -0.141446 -0.152879 -0.161375 -0.16987 -0.175102 -0.180333 -0.1821 -0.183866 -0.1821 -0.180333 -0.175102 -0.16987 -0.161375 -0.152879 -0.141446 -0.130013 -0.116082 -0.102151 -0.0862565 -0.0703625 -0.0531165 -0.0358705 -0.0179352 -9.5759e-18 0 0.0237585 0.047517 0.0703625 0.093208 0.114263 0.135317 0.153771 0.172226 0.187371 0.202516 0.21377 0.225024 0.231954 0.238884 0.241224 0.243564 0.241224 0.238884 0.231954 0.225024 0.21377 0.202516 0.187371 0.172226 0.153771 0.135317 0.114263 0.093208 0.0703625 0.047517 0.0237585 1.26398e-16 -0.0237585 -0.047517 -0.0703625 -0.093208 -0.114263 -0.135317 -0.153771 -0.172226 -0.187371 -0.202516 -0.21377 -0.225024 -0.231954 -0.238884 -0.241224 -0.243564 -0.241224 -0.238884 -0.231954 -0.225024 -0.21377 -0.202516 -0.187371 -0.172226 -0.153771 -0.135317 -0.114263 -0.093208 -0.0703625 -0.047517 -0.0237585 -1.2685e-17 0 0.0291253 0.0582505 0.0862565 0.114263 0.140073 0.165883 0.188507 0.21113 0.229696 0.248262 0.262058 0.275854 0.28435 0.292845 0.295714 0.298582 0.295714 0.292845 0.28435 0.275854 0.262058 0.248262 0.229696 0.21113 0.188507 0.165883 0.140073 0.114263 0.0862565 0.0582505 0.0291253 1.57516e-16 -0.0291253 -0.0582505 -0.0862565 -0.114263 -0.140073 -0.165883 -0.188507 -0.21113 -0.229696 -0.248262 -0.262058 -0.275854 -0.28435 -0.292845 -0.295714 -0.298582 -0.295714 -0.292845 -0.28435 -0.275854 -0.262058 -0.248262 -0.229696 -0.21113 -0.188507 -0.165883 -0.140073 -0.114263 -0.0862565 -0.0582505 -0.0291253 -1.55504e-17 0 0.034492 0.068984 0.102151 0.135317 0.165883 0.19645 0.223242 0.250033 0.272021 0.294008 0.310346 0.326684 0.336745 0.346806 0.350203 0.3536 0.350203 0.346806 0.336745 0.326684 0.310346 0.294008 0.272021 0.250033 0.223242 0.19645 0.165883 0.135317 0.102151 0.068984 0.034492 1.88634e-16 -0.034492 -0.068984 -0.102151 -0.135317 -0.165883 -0.19645 -0.223242 -0.250033 -0.272021 -0.294008 -0.310346 -0.326684 -0.336745 -0.346806 -0.350203 -0.3536 -0.350203 -0.346806 -0.336745 -0.326684 -0.310346 -0.294008 -0.272021 -0.250033 -0.223242 -0.19645 -0.165883 -0.135317 -0.102151 -0.068984 -0.034492 -1.84158e-17 0 0.039196 0.078392 0.116082 0.153771 0.188507 0.223242 0.253687 0.284133 0.309119 0.334105 0.352671 0.371237 0.38267 0.394103 0.397964 0.401824 0.397964 0.394103 0.38267 0.371237 0.352671 0.334105 0.309119 0.284133 0.253687 0.223242 0.188507 0.153771 0.116082 0.078392 0.039196 2.23838e-16 -0.039196 -0.078392 -0.116082 -0.153771 -0.188507 -0.223242 -0.253687 -0.284133 -0.309119 -0.334105 -0.352671 -0.371237 -0.38267 -0.394103 -0.397964 -0.401824 -0.397964 -0.394103 -0.38267 -0.371237 -0.352671 -0.334105 -0.309119 -0.284133 -0.253687 -0.223242 -0.188507 -0.153771 -0.116082 -0.078392 -0.039196 -2.09273e-17 0 0.0439 0.0878 0.130013 0.172226 0.21113 0.250033 0.284133 0.318232 0.346217 0.374201 0.394996 0.41579 0.428595 0.4414 0.445724 0.450048 0.445724 0.4414 0.428595 0.41579 0.394996 0.374201 0.346217 0.318232 0.284133 0.250033 0.21113 0.172226 0.130013 0.0878 0.0439 2.59041e-16 -0.0439 -0.0878 -0.130013 -0.172226 -0.21113 -0.250033 -0.284133 -0.318232 -0.346217 -0.374201 -0.394996 -0.41579 -0.428595 -0.4414 -0.445724 -0.450048 -0.445724 -0.4414 -0.428595 -0.41579 -0.394996 -0.374201 -0.346217 -0.318232 -0.284133 -0.250033 -0.21113 -0.172226 -0.130013 -0.0878 -0.0439 -2.34389e-17 0 0.0477605 0.095521 0.141446 0.187371 0.229696 0.272021 0.309119 0.346217 0.376662 0.407108 0.429731 0.452354 0.466285 0.480216 0.48492 0.489624 0.48492 0.480216 0.466285 0.452354 0.429731 0.407108 0.376662 0.346217 0.309119 0.272021 0.229696 0.187371 0.141446 0.095521 0.0477605 2.90829e-16 -0.0477605 -0.095521 -0.141446 -0.187371 -0.229696 -0.272021 -0.309119 -0.346217 -0.376662 -0.407108 -0.429731 -0.452354 -0.466285 -0.480216 -0.48492 -0.489624 -0.48492 -0.480216 -0.466285 -0.452354 -0.429731 -0.407108 -0.376662 -0.346217 -0.309119 -0.272021 -0.229696 -0.187371 -0.141446 -0.095521 -0.0477605 -2.55e-17 0 0.0516209 0.103242 0.152879 0.202516 0.248262 0.294008 0.334105 0.374201 0.407108 0.440014 0.464466 0.488918 0.503975 0.519032 0.524116 0.5292 0.524116 0.519032 0.503975 0.488918 0.464466 0.440014 0.407108 0.374201 0.334105 0.294008 0.248262 0.202516 0.152879 0.103242 0.0516209 3.22616e-16 -0.0516209 -0.103242 -0.152879 -0.202516 -0.248262 -0.294008 -0.334105 -0.374201 -0.407108 -0.440014 -0.464466 -0.488918 -0.503975 -0.519032 -0.524116 -0.5292 -0.524116 -0.519032 -0.503975 -0.488918 -0.464466 -0.440014 -0.407108 -0.374201 -0.334105 -0.294008 -0.248262 -0.202516 -0.152879 -0.103242 -0.0516209 -2.75612e-17 0 0.0544895 0.108979 0.161375 0.21377 0.262058 0.310346 0.352671 0.394996 0.429731 0.464466 0.490276 0.516087 0.531981 0.547875 0.553242 0.558608 0.553242 0.547875 0.531981 0.516087 0.490276 0.464466 0.429731 0.394996 0.352671 0.310346 0.262058 0.21377 0.161375 0.108979 0.0544895 3.38374e-16 -0.0544895 -0.108979 -0.161375 -0.21377 -0.262058 -0.310346 -0.352671 -0.394996 -0.429731 -0.464466 -0.490276 -0.516087 -0.531981 -0.547875 -0.553242 -0.558608 -0.553242 -0.547875 -0.531981 -0.516087 -0.490276 -0.464466 -0.429731 -0.394996 -0.352671 -0.310346 -0.262058 -0.21377 -0.161375 -0.108979 -0.0544895 -2.90928e-17 0 0.0573581 0.114716 0.16987 0.225024 0.275854 0.326684 0.371237 0.41579 0.452354 0.488918 0.516087 0.543256 0.559987 0.576718 0.582367 0.588016 0.582367 0.576718 0.559987 0.543256 0.516087 0.488918 0.452354 0.41579 0.371237 0.326684 0.275854 0.225024 0.16987 0.114716 0.0573581 3.54132e-16 -0.0573581 -0.114716 -0.16987 -0.225024 -0.275854 -0.326684 -0.371237 -0.41579 -0.452354 -0.488918 -0.516087 -0.543256 -0.559987 -0.576718 -0.582367 -0.588016 -0.582367 -0.576718 -0.559987 -0.543256 -0.516087 -0.488918 -0.452354 -0.41579 -0.371237 -0.326684 -0.275854 -0.225024 -0.16987 -0.114716 -0.0573581 -3.06244e-17 0 0.0591246 0.118249 0.175102 0.231954 0.28435 0.336745 0.38267 0.428595 0.466285 0.503975 0.531981 0.559987 0.577233 0.594479 0.600302 0.606125 0.600302 0.594479 0.577233 0.559987 0.531981 0.503975 0.466285 0.428595 0.38267 0.336745 0.28435 0.231954 0.175102 0.118249 0.0591246 3.76495e-16 -0.0591246 -0.118249 -0.175102 -0.231954 -0.28435 -0.336745 -0.38267 -0.428595 -0.466285 -0.503975 -0.531981 -0.559987 -0.577233 -0.594479 -0.600302 -0.606125 -0.600302 -0.594479 -0.577233 -0.559987 -0.531981 -0.503975 -0.466285 -0.428595 -0.38267 -0.336745 -0.28435 -0.231954 -0.175102 -0.118249 -0.0591246 -3.15675e-17 0 0.0608911 0.121782 0.180333 0.238884 0.292845 0.346806 0.394103 0.4414 0.480216 0.519032 0.547875 0.576718 0.594479 0.61224 0.618237 0.624235 0.618237 0.61224 0.594479 0.576718 0.547875 0.519032 0.480216 0.4414 0.394103 0.346806 0.292845 0.238884 0.180333 0.121782 0.0608911 3.98857e-16 -0.0608911 -0.121782 -0.180333 -0.238884 -0.292845 -0.346806 -0.394103 -0.4414 -0.480216 -0.519032 -0.547875 -0.576718 -0.594479 -0.61224 -0.618237 -0.624235 -0.618237 -0.61224 -0.594479 -0.576718 -0.547875 -0.519032 -0.480216 -0.4414 -0.394103 -0.346806 -0.292845 -0.238884 -0.180333 -0.121782 -0.0608911 -3.25107e-17 0 0.0614875 0.122975 0.1821 0.241224 0.295714 0.350203 0.397964 0.445724 0.48492 0.524116 0.553242 0.582367 0.600302 0.618237 0.624293 0.630349 0.624293 0.618237 0.600302 0.582367 0.553242 0.524116 0.48492 0.445724 0.397964 0.350203 0.295714 0.241224 0.1821 0.122975 0.0614875 4.07582e-16 -0.0614875 -0.122975 -0.1821 -0.241224 -0.295714 -0.350203 -0.397964 -0.445724 -0.48492 -0.524116 -0.553242 -0.582367 -0.600302 -0.618237 -0.624293 -0.630349 -0.624293 -0.618237 -0.600302 -0.582367 -0.553242 -0.524116 -0.48492 -0.445724 -0.397964 -0.350203 -0.295714 -0.241224 -0.1821 -0.122975 -0.0614875 -3.28291e-17 0 0.062084 0.124168 0.183866 0.243564 0.298582 0.3536 0.401824 0.450048 0.489624 0.5292 0.558608 0.588016 0.606125 0.624235 0.630349 0.636464 0.630349 0.624235 0.606125 0.588016 0.558608 0.5292 0.489624 0.450048 0.401824 0.3536 0.298582 0.243564 0.183866 0.124168 0.062084 4.16307e-16 -0.062084 -0.124168 -0.183866 -0.243564 -0.298582 -0.3536 -0.401824 -0.450048 -0.489624 -0.5292 -0.558608 -0.588016 -0.606125 -0.624235 -0.630349 -0.636464 -0.630349 -0.624235 -0.606125 -0.588016 -0.558608 -0.5292 -0.489624 -0.450048 -0.401824 -0.3536 -0.298582 -0.243564 -0.183866 -0.124168 -0.062084 -3.31476e-17 0 0.0614875 0.122975 0.1821 0.241224 0.295714 0.350203 0.397964 0.445724 0.48492 0.524116 0.553242 0.582367 0.600302 0.618237 0.624293 0.630349 0.624293 0.618237 0.600302 0.582367 0.553242 0.524116 0.48492 0.445724 0.397964 0.350203 0.295714 0.241224 0.1821 0.122975 0.0614875 4.38334e-16 -0.0614875 -0.122975 -0.1821 -0.241224 -0.295714 -0.350203 -0.397964 -0.445724 -0.48492 -0.524116 -0.553242 -0.582367 -0.600302 -0.618237 -0.624293 -0.630349 -0.624293 -0.618237 -0.600302 -0.582367 -0.553242 -0.524116 -0.48492 -0.445724 -0.397964 -0.350203 -0.295714 -0.241224 -0.1821 -0.122975 -0.0614875 -3.28291e-17 0 0.0608911 0.121782 0.180333 0.238884 0.292845 0.346806 0.394103 0.4414 0.480216 0.519032 0.547875 0.576718 0.594479 0.61224 0.618237 0.624235 0.618237 0.61224 0.594479 0.576718 0.547875 0.519032 0.480216 0.4414 0.394103 0.346806 0.292845 0.238884 0.180333 0.121782 0.0608911 4.60361e-16 -0.0608911 -0.121782 -0.180333 -0.238884 -0.292845 -0.346806 -0.394103 -0.4414 -0.480216 -0.519032 -0.547875 -0.576718 -0.594479 -0.61224 -0.618237 -0.624235 -0.618237 -0.61224 -0.594479 -0.576718 -0.547875 -0.519032 -0.480216 -0.4414 -0.394103 -0.346806 -0.292845 -0.238884 -0.180333 -0.121782 -0.0608911 -3.25107e-17 0 0.0591246 0.118249 0.175102 0.231954 0.28435 0.336745 0.38267 0.428595 0.466285 0.503975 0.531981 0.559987 0.577233 0.594479 0.600302 0.606125 0.600302 0.594479 0.577233 0.559987 0.531981 0.503975 0.466285 0.428595 0.38267 0.336745 0.28435 0.231954 0.175102 0.118249 0.0591246 4.44282e-16 -0.0591246 -0.118249 -0.175102 -0.231954 -0.28435 -0.336745 -0.38267 -0.428595 -0.466285 -0.503975 -0.531981 -0.559987 -0.577233 -0.594479 -0.600302 -0.606125 -0.600302 -0.594479 -0.577233 -0.559987 -0.531981 -0.503975 -0.466285 -0.428595 -0.38267 -0.336745 -0.28435 -0.231954 -0.175102 -0.118249 -0.0591246 -3.15675e-17 0 0.0573581 0.114716 0.16987 0.225024 0.275854 0.326684 0.371237 0.41579 0.452354 0.488918 0.516087 0.543256 0.559987 0.576718 0.582367 0.588016 0.582367 0.576718 0.559987 0.543256 0.516087 0.488918 0.452354 0.41579 0.371237 0.326684 0.275854 0.225024 0.16987 0.114716 0.0573581 4.28202e-16 -0.0573581 -0.114716 -0.16987 -0.225024 -0.275854 -0.326684 -0.371237 -0.41579 -0.452354 -0.488918 -0.516087 -0.543256 -0.559987 -0.576718 -0.582367 -0.588016 -0.582367 -0.576718 -0.559987 -0.543256 -0.516087 -0.488918 -0.452354 -0.41579 -0.371237 -0.326684 -0.275854 -0.225024 -0.16987 -0.114716 -0.0573581 -3.06244e-17 0 0.0544895 0.108979 0.161375 0.21377 0.262058 0.310346 0.352671 0.394996 0.429731 0.464466 0.490276 0.516087 0.531981 0.547875 0.553242 0.558608 0.553242 0.547875 0.531981 0.516087 0.490276 0.464466 0.429731 0.394996 0.352671 0.310346 0.262058 0.21377 0.161375 0.108979 0.0544895 4.00523e-16 -0.0544895 -0.108979 -0.161375 -0.21377 -0.262058 -0.310346 -0.352671 -0.394996 -0.429731 -0.464466 -0.490276 -0.516087 -0.531981 -0.547875 -0.553242 -0.558608 -0.553242 -0.547875 -0.531981 -0.516087 -0.490276 -0.464466 -0.429731 -0.394996 -0.352671 -0.310346 -0.262058 -0.21377 -0.161375 -0.108979 -0.0544895 -2.90928e-17 0 0.0516209 0.103242 0.152879 0.202516 0.248262 0.294008 0.334105 0.374201 0.407108 0.440014 0.464466 0.488918 0.503975 0.519032 0.524116 0.5292 0.524116 0.519032 0.503975 0.488918 0.464466 0.440014 0.407108 0.374201 0.334105 0.294008 0.248262 0.202516 0.152879 0.103242 0.0516209 3.72843e-16 -0.0516209 -0.103242 -0.152879 -0.202516 -0.248262 -0.294008 -0.334105 -0.374201 -0.407108 -0.440014 -0.464466 -0.488918 -0.503975 -0.519032 -0.524116 -0.5292 -0.524116 -0.519032 -0.503975 -0.488918 -0.464466 -0.440014 -0.407108 -0.374201 -0.334105 -0.294008 -0.248262 -0.202516 -0.152879 -0.103242 -0.0516209 -2.75612e-17 0 0.0477605 0.095521 0.141446 0.187371 0.229696 0.272021 0.309119 0.346217 0.376662 0.407108 0.429731 0.452354 0.466285 0.480216 0.48492 0.489624 0.48492 0.480216 0.466285 0.452354 0.429731 0.407108 0.376662 0.346217 0.309119 0.272021 0.229696 0.187371 0.141446 0.095521 0.0477605 3.37463e-16 -0.0477605 -0.095521 -0.141446 -0.187371 -0.229696 -0.272021 -0.309119 -0.346217 -0.376662 -0.407108 -0.429731 -0.452354 -0.466285 -0.480216 -0.48492 -0.489624 -0.48492 -0.480216 -0.466285 -0.452354 -0.429731 -0.407108 -0.376662 -0.346217 -0.309119 -0.272021 -0.229696 -0.187371 -0.141446 -0.095521 -0.0477605 -2.55e-17 0 0.0439 0.0878 0.130013 0.172226 0.21113 0.250033 0.284133 0.318232 0.346217 0.374201 0.394996 0.41579 0.428595 0.4414 0.445724 0.450048 0.445724 0.4414 0.428595 0.41579 0.394996 0.374201 0.346217 0.318232 0.284133 0.250033 0.21113 0.172226 0.130013 0.0878 0.0439 3.02082e-16 -0.0439 -0.0878 -0.130013 -0.172226 -0.21113 -0.250033 -0.284133 -0.318232 -0.346217 -0.374201 -0.394996 -0.41579 -0.428595 -0.4414 -0.445724 -0.450048 -0.445724 -0.4414 -0.428595 -0.41579 -0.394996 -0.374201 -0.346217 -0.318232 -0.284133 -0.250033 -0.21113 -0.172226 -0.130013 -0.0878 -0.0439 -2.34389e-17 0 0.039196 0.078392 0.116082 0.153771 0.188507 0.223242 0.253687 0.284133 0.309119 0.334105 0.352671 0.371237 0.38267 0.394103 0.397964 0.401824 0.397964 0.394103 0.38267 0.371237 0.352671 0.334105 0.309119 0.284133 0.253687 0.223242 0.188507 0.153771 0.116082 0.078392 0.039196 2.75544e-16 -0.039196 -0.078392 -0.116082 -0.153771 -0.188507 -0.223242 -0.253687 -0.284133 -0.309119 -0.334105 -0.352671 -0.371237 -0.38267 -0.394103 -0.397964 -0.401824 -0.397964 -0.394103 -0.38267 -0.371237 -0.352671 -0.334105 -0.309119 -0.284133 -0.253687 -0.223242 -0.188507 -0.153771 -0.116082 -0.078392 -0.039196 -2.09273e-17 0 0.034492 0.068984 0.102151 0.135317 0.165883 0.19645 0.223242 0.250033 0.272021 0.294008 0.310346 0.326684 0.336745 0.346806 0.350203 0.3536 0.350203 0.346806 0.336745 0.326684 0.310346 0.294008 0.272021 0.250033 0.223242 0.19645 0.165883 0.135317 0.102151 0.068984 0.034492 2.49006e-16 -0.034492 -0.068984 -0.102151 -0.135317 -0.165883 -0.19645 -0.223242 -0.250033 -0.272021 -0.294008 -0.310346 -0.326684 -0.336745 -0.346806 -0.350203 -0.3536 -0.350203 -0.346806 -0.336745 -0.326684 -0.310346 -0.294008 -0.272021 -0.250033 -0.223242 -0.19645 -0.165883 -0.135317 -0.102151 -0.068984 -0.034492 -1.84158e-17 0 0.0291253 0.0582505 0.0862565 0.114263 0.140073 0.165883 0.188507 0.21113 0.229696 0.248262 0.262058 0.275854 0.28435 0.292845 0.295714 0.298582 0.295714 0.292845 0.28435 0.275854 0.262058 0.248262 0.229696 0.21113 0.188507 0.165883 0.140073 0.114263 0.0862565 0.0582505 0.0291253 2.16932e-16 -0.0291253 -0.0582505 -0.0862565 -0.114263 -0.140073 -0.165883 -0.188507 -0.21113 -0.229696 -0.248262 -0.262058 -0.275854 -0.28435 -0.292845 -0.295714 -0.298582 -0.295714 -0.292845 -0.28435 -0.275854 -0.262058 -0.248262 -0.229696 -0.21113 -0.188507 -0.165883 -0.140073 -0.114263 -0.0862565 -0.0582505 -0.0291253 -1.55504e-17 0 0.0237585 0.047517 0.0703625 0.093208 0.114263 0.135317 0.153771 0.172226 0.187371 0.202516 0.21377 0.225024 0.231954 0.238884 0.241224 0.243564 0.241224 0.238884 0.231954 0.225024 0.21377 0.202516 0.187371 0.172226 0.153771 0.135317 0.114263 0.093208 0.0703625 0.047517 0.0237585 1.84858e-16 -0.0237585 -0.047517 -0.0703625 -0.093208 -0.114263 -0.135317 -0.153771 -0.172226 -0.187371 -0.202516 -0.21377 -0.225024 -0.231954 -0.238884 -0.241224 -0.243564 -0.241224 -0.238884 -0.231954 -0.225024 -0.21377 -0.202516 -0.187371 -0.172226 -0.153771 -0.135317 -0.114263 -0.093208 -0.0703625 -0.047517 -0.0237585 -1.2685e-17 0 0.0179352 0.0358705 0.0531165 0.0703625 0.0862565 0.102151 0.116082 0.130013 0.141446 0.152879 0.161375 0.16987 0.175102 0.180333 0.1821 0.183866 0.1821 0.180333 0.175102 0.16987 0.161375 0.152879 0.141446 0.130013 0.116082 0.102151 0.0862565 0.0703625 0.0531165 0.0358705 0.0179352 1.52683e-16 -0.0179352 -0.0358705 -0.0531165 -0.0703625 -0.0862565 -0.102151 -0.116082 -0.130013 -0.141446 -0.152879 -0.161375 -0.16987 -0.175102 -0.180333 -0.1821 -0.183866 -0.1821 -0.180333 -0.175102 -0.16987 -0.161375 -0.152879 -0.141446 -0.130013 -0.116082 -0.102151 -0.0862565 -0.0703625 -0.0531165 -0.0358705 -0.0179352 -9.5759e-18 0 0.012112 0.024224 0.0358705 0.047517 0.0582505 0.068984 0.078392 0.0878 0.095521 0.103242 0.108979 0.114716 0.118249 0.121782 0.122975 0.124168 0.122975 0.121782 0.118249 0.114716 0.108979 0.103242 0.095521 0.0878 0.078392 0.068984 0.0582505 0.047517 0.0358705 0.024224 0.012112 1.20508e-16 -0.012112 -0.024224 -0.0358705 -0.047517 -0.0582505 -0.068984 -0.078392 -0.0878 -0.095521 -0.103242 -0.108979 -0.114716 -0.118249 -0.121782 -0.122975 -0.124168 -0.122975 -0.121782 -0.118249 -0.114716 -0.108979 -0.103242 -0.095521 -0.0878 -0.078392 -0.068984 -0.0582505 -0.047517 -0.0358705 -0.024224 -0.012112 -6.46677e-18 0 0.00605599 0.012112 0.0179352 0.0237585 0.0291253 0.034492 0.039196 0.0439 0.0477605 0.0516209 0.0544895 0.0573581 0.0591246 0.0608911 0.0614875 0.062084 0.0614875 0.0608911 0.0591246 0.0573581 0.0544895 0.0516209 0.0477605 0.0439 0.039196 0.034492 0.0291253 0.0237585 0.0179352 0.012112 0.00605599 1.02393e-16 -0.00605599 -0.012112 -0.0179352 -0.0237585 -0.0291253 -0.034492 -0.039196 -0.0439 -0.0477605 -0.0516209 -0.0544895 -0.0573581 -0.0591246 -0.0608911 -0.0614875 -0.062084 -0.0614875 -0.0608911 -0.0591246 -0.0573581 -0.0544895 -0.0516209 -0.0477605 -0.0439 -0.039196 -0.034492 -0.0291253 -0.0237585 -0.0179352 -0.012112 -0.00605599 -3.23339e-18 0 3.00934e-17 6.01867e-17 9.83389e-17 1.36491e-16 1.6558e-16 1.9467e-16 2.33571e-16 2.72473e-16 2.90274e-16 3.08075e-16 3.31137e-16 3.54198e-16 3.68354e-16 3.8251e-16 3.93289e-16 4.04067e-16 3.83804e-16 3.63542e-16 3.66541e-16 3.69541e-16 3.49041e-16 3.28542e-16 3.04944e-16 2.81347e-16 2.65663e-16 2.4998e-16 2.24431e-16 1.98881e-16 1.67308e-16 1.35734e-16 1.10006e-16 8.42776e-17 5.17069e-17 1.91362e-17 -2.21953e-17 -6.35268e-17 -8.37343e-17 -1.03942e-16 -1.44232e-16 -1.84523e-16 -1.98338e-16 -2.12152e-16 -2.25503e-16 -2.38853e-16 -2.55587e-16 -2.72322e-16 -2.88439e-16 -3.04557e-16 -2.8994e-16 -2.75324e-16 -2.71041e-16 -2.66759e-16 -2.44501e-16 -2.22243e-16 -2.12677e-16 -2.0311e-16 -1.81399e-16 -1.59688e-16 -1.32845e-16 -1.06003e-16 -8.03043e-17 -5.4606e-17 -2.7303e-17 -4.05941e-33 0 -0.00605599 -0.012112 -0.0179352 -0.0237585 -0.0291253 -0.034492 -0.039196 -0.0439 -0.0477605 -0.0516209 -0.0544895 -0.0573581 -0.0591246 -0.0608911 -0.0614875 -0.062084 -0.0614875 -0.0608911 -0.0591246 -0.0573581 -0.0544895 -0.0516209 -0.0477605 -0.0439 -0.039196 -0.034492 -0.0291253 -0.0237585 -0.0179352 -0.012112 -0.00605599 6.07425e-17 0.00605599 0.012112 0.0179352 0.0237585 0.0291253 0.034492 0.039196 0.0439 0.0477605 0.0516209 0.0544895 0.0573581 0.0591246 0.0608911 0.0614875 0.062084 0.0614875 0.0608911 0.0591246 0.0573581 0.0544895 0.0516209 0.0477605 0.0439 0.039196 0.034492 0.0291253 0.0237585 0.0179352 0.012112 0.00605599 3.23339e-18 -0 -0.012112 -0.024224 -0.0358705 -0.047517 -0.0582505 -0.068984 -0.078392 -0.0878 -0.095521 -0.103242 -0.108979 -0.114716 -0.118249 -0.121782 -0.122975 -0.124168 -0.122975 -0.121782 -0.118249 -0.114716 -0.108979 -0.103242 -0.095521 -0.0878 -0.078392 -0.068984 -0.0582505 -0.047517 -0.0358705 -0.024224 -0.012112 3.72074e-17 0.012112 0.024224 0.0358705 0.047517 0.0582505 0.068984 0.078392 0.0878 0.095521 0.103242 0.108979 0.114716 0.118249 0.121782 0.122975 0.124168 0.122975 0.121782 0.118249 0.114716 0.108979 0.103242 0.095521 0.0878 0.078392 0.068984 0.0582505 0.047517 0.0358705 0.024224 0.012112 6.46677e-18 -0 -0.0179352 -0.0358705 -0.0531165 -0.0703625 -0.0862565 -0.102151 -0.116082 -0.130013 -0.141446 -0.152879 -0.161375 -0.16987 -0.175102 -0.180333 -0.1821 -0.183866 -0.1821 -0.180333 -0.175102 -0.16987 -0.161375 -0.152879 -0.141446 -0.130013 -0.116082 -0.102151 -0.0862565 -0.0703625 -0.0531165 -0.0358705 -0.0179352 1.84238e-17 0.0179352 0.0358705 0.0531165 0.0703625 0.0862565 0.102151 0.116082 0.130013 0.141446 0.152879 0.161375 0.16987 0.175102 0.180333 0.1821 0.183866 0.1821 0.180333 0.175102 0.16987 0.161375 0.152879 0.141446 0.130013 0.116082 0.102151 0.0862565 0.0703625 0.0531165 0.0358705 0.0179352 9.5759e-18 -0 -0.0237585 -0.047517 -0.0703625 -0.093208 -0.114263 -0.135317 -0.153771 -0.172226 -0.187371 -0.202516 -0.21377 -0.225024 -0.231954 -0.238884 -0.241224 -0.243564 -0.241224 -0.238884 -0.231954 -0.225024 -0.21377 -0.202516 -0.187371 -0.172226 -0.153771 -0.135317 -0.114263 -0.093208 -0.0703625 -0.047517 -0.0237585 -3.5978e-19 0.0237585 0.047517 0.0703625 0.093208 0.114263 0.135317 0.153771 0.172226 0.187371 0.202516 0.21377 0.225024 0.231954 0.238884 0.241224 0.243564 0.241224 0.238884 0.231954 0.225024 0.21377 0.202516 0.187371 0.172226 0.153771 0.135317 0.114263 0.093208 0.0703625 0.047517 0.0237585 1.2685e-17 -0 -0.0291253 -0.0582505 -0.0862565 -0.114263 -0.140073 -0.165883 -0.188507 -0.21113 -0.229696 -0.248262 -0.262058 -0.275854 -0.28435 -0.292845 -0.295714 -0.298582 -0.295714 -0.292845 -0.28435 -0.275854 -0.262058 -0.248262 -0.229696 -0.21113 -0.188507 -0.165883 -0.140073 -0.114263 -0.0862565 -0.0582505 -0.0291253 -1.80163e-17 0.0291253 0.0582505 0.0862565 0.114263 0.140073 0.165883 0.188507 0.21113 0.229696 0.248262 0.262058 0.275854 0.28435 0.292845 0.295714 0.298582 0.295714 0.292845 0.28435 0.275854 0.262058 0.248262 0.229696 0.21113 0.188507 0.165883 0.140073 0.114263 0.0862565 0.0582505 0.0291253 1.55504e-17 -0 -0.034492 -0.068984 -0.102151 -0.135317 -0.165883 -0.19645 -0.223242 -0.250033 -0.272021 -0.294008 -0.310346 -0.326684 -0.336745 -0.346806 -0.350203 -0.3536 -0.350203 -0.346806 -0.336745 -0.326684 -0.310346 -0.294008 -0.272021 -0.250033 -0.223242 -0.19645 -0.165883 -0.135317 -0.102151 -0.068984 -0.034492 -3.56727e-17 0.034492 0.068984 0.102151 0.135317 0.165883 0.19645 0.223242 0.250033 0.272021 0.294008 0.310346 0.326684 0.336745 0.346806 0.350203 0.3536 0.350203 0.346806 0.336745 0.326684 0.310346 0.294008 0.272021 0.250033 0.223242 0.19645 0.165883 0.135317 0.102151 0.068984 0.034492 1.84158e-17 -0 -0.039196 -0.078392 -0.116082 -0.153771 -0.188507 -0.223242 -0.253687 -0.284133 -0.309119 -0.334105 -0.352671 -0.371237 -0.38267 -0.394103 -0.397964 -0.401824 -0.397964 -0.394103 -0.38267 -0.371237 -0.352671 -0.334105 -0.309119 -0.284133 -0.253687 -0.223242 -0.188507 -0.153771 -0.116082 -0.078392 -0.039196 -5.18105e-17 0.039196 0.078392 0.116082 0.153771 0.188507 0.223242 0.253687 0.284133 0.309119 0.334105 0.352671 0.371237 0.38267 0.394103 0.397964 0.401824 0.397964 0.394103 0.38267 0.371237 0.352671 0.334105 0.309119 0.284133 0.253687 0.223242 0.188507 0.153771 0.116082 0.078392 0.039196 2.09273e-17 -0 -0.0439 -0.0878 -0.130013 -0.172226 -0.21113 -0.250033 -0.284133 -0.318232 -0.346217 -0.374201 -0.394996 -0.41579 -0.428595 -0.4414 -0.445724 -0.450048 -0.445724 -0.4414 -0.428595 -0.41579 -0.394996 -0.374201 -0.346217 -0.318232 -0.284133 -0.250033 -0.21113 -0.172226 -0.130013 -0.0878 -0.0439 -6.79483e-17 0.0439 0.0878 0.130013 0.172226 0.21113 0.250033 0.284133 0.318232 0.346217 0.374201 0.394996 0.41579 0.428595 0.4414 0.445724 0.450048 0.445724 0.4414 0.428595 0.41579 0.394996 0.374201 0.346217 0.318232 0.284133 0.250033 0.21113 0.172226 0.130013 0.0878 0.0439 2.34389e-17 -0 -0.0477605 -0.095521 -0.141446 -0.187371 -0.229696 -0.272021 -0.309119 -0.346217 -0.376662 -0.407108 -0.429731 -0.452354 -0.466285 -0.480216 -0.48492 -0.489624 -0.48492 -0.480216 -0.466285 -0.452354 -0.429731 -0.407108 -0.376662 -0.346217 -0.309119 -0.272021 -0.229696 -0.187371 -0.141446 -0.095521 -0.0477605 -6.87626e-17 0.0477605 0.095521 0.141446 0.187371 0.229696 0.272021 0.309119 0.346217 0.376662 0.407108 0.429731 0.452354 0.466285 0.480216 0.48492 0.489624 0.48492 0.480216 0.466285 0.452354 0.429731 0.407108 0.376662 0.346217 0.309119 0.272021 0.229696 0.187371 0.141446 0.095521 0.0477605 2.55e-17 -0 -0.0516209 -0.103242 -0.152879 -0.202516 -0.248262 -0.294008 -0.334105 -0.374201 -0.407108 -0.440014 -0.464466 -0.488918 -0.503975 -0.519032 -0.524116 -0.5292 -0.524116 -0.519032 -0.503975 -0.488918 -0.464466 -0.440014 -0.407108 -0.374201 -0.334105 -0.294008 -0.248262 -0.202516 -0.152879 -0.103242 -0.0516209 -6.95769e-17 0.0516209 0.103242 0.152879 0.202516 0.248262 0.294008 0.334105 0.374201 0.407108 0.440014 0.464466 0.488918 0.503975 0.519032 0.524116 0.5292 0.524116 0.519032 0.503975 0.488918 0.464466 0.440014 0.407108 0.374201 0.334105 0.294008 0.248262 0.202516 0.152879 0.103242 0.0516209 2.75612e-17 -0 -0.0544895 -0.108979 -0.161375 -0.21377 -0.262058 -0.310346 -0.352671 -0.394996 -0.429731 -0.464466 -0.490276 -0.516087 -0.531981 -0.547875 -0.553242 -0.558608 -0.553242 -0.547875 -0.531981 -0.516087 -0.490276 -0.464466 -0.429731 -0.394996 -0.352671 -0.310346 -0.262058 -0.21377 -0.161375 -0.108979 -0.0544895 -8.04352e-17 0.0544895 0.108979 0.161375 0.21377 0.262058 0.310346 0.352671 0.394996 0.429731 0.464466 0.490276 0.516087 0.531981 0.547875 0.553242 0.558608 0.553242 0.547875 0.531981 0.516087 0.490276 0.464466 0.429731 0.394996 0.352671 0.310346 0.262058 0.21377 0.161375 0.108979 0.0544895 2.90928e-17 -0 -0.0573581 -0.114716 -0.16987 -0.225024 -0.275854 -0.326684 -0.371237 -0.41579 -0.452354 -0.488918 -0.516087 -0.543256 -0.559987 -0.576718 -0.582367 -0.588016 -0.582367 -0.576718 -0.559987 -0.543256 -0.516087 -0.488918 -0.452354 -0.41579 -0.371237 -0.326684 -0.275854 -0.225024 -0.16987 -0.114716 -0.0573581 -9.12935e-17 0.0573581 0.114716 0.16987 0.225024 0.275854 0.326684 0.371237 0.41579 0.452354 0.488918 0.516087 0.543256 0.559987 0.576718 0.582367 0.588016 0.582367 0.576718 0.559987 0.543256 0.516087 0.488918 0.452354 0.41579 0.371237 0.326684 0.275854 0.225024 0.16987 0.114716 0.0573581 3.06244e-17 -0 -0.0591246 -0.118249 -0.175102 -0.231954 -0.28435 -0.336745 -0.38267 -0.428595 -0.466285 -0.503975 -0.531981 -0.559987 -0.577233 -0.594479 -0.600302 -0.606125 -0.600302 -0.594479 -0.577233 -0.559987 -0.531981 -0.503975 -0.466285 -0.428595 -0.38267 -0.336745 -0.28435 -0.231954 -0.175102 -0.118249 -0.0591246 -1.11766e-16 0.0591246 0.118249 0.175102 0.231954 0.28435 0.336745 0.38267 0.428595 0.466285 0.503975 0.531981 0.559987 0.577233 0.594479 0.600302 0.606125 0.600302 0.594479 0.577233 0.559987 0.531981 0.503975 0.466285 0.428595 0.38267 0.336745 0.28435 0.231954 0.175102 0.118249 0.0591246 3.15675e-17 -0 -0.0608911 -0.121782 -0.180333 -0.238884 -0.292845 -0.346806 -0.394103 -0.4414 -0.480216 -0.519032 -0.547875 -0.576718 -0.594479 -0.61224 -0.618237 -0.624235 -0.618237 -0.61224 -0.594479 -0.576718 -0.547875 -0.519032 -0.480216 -0.4414 -0.394103 -0.346806 -0.292845 -0.238884 -0.180333 -0.121782 -0.0608911 -1.32239e-16 0.0608911 0.121782 0.180333 0.238884 0.292845 0.346806 0.394103 0.4414 0.480216 0.519032 0.547875 0.576718 0.594479 0.61224 0.618237 0.624235 0.618237 0.61224 0.594479 0.576718 0.547875 0.519032 0.480216 0.4414 0.394103 0.346806 0.292845 0.238884 0.180333 0.121782 0.0608911 3.25107e-17 -0 -0.0614875 -0.122975 -0.1821 -0.241224 -0.295714 -0.350203 -0.397964 -0.445724 -0.48492 -0.524116 -0.553242 -0.582367 -0.600302 -0.618237 -0.624293 -0.630349 -0.624293 -0.618237 -0.600302 -0.582367 -0.553242 -0.524116 -0.48492 -0.445724 -0.397964 -0.350203 -0.295714 -0.241224 -0.1821 -0.122975 -0.0614875 -1.36301e-16 0.0614875 0.122975 0.1821 0.241224 0.295714 0.350203 0.397964 0.445724 0.48492 0.524116 0.553242 0.582367 0.600302 0.618237 0.624293 0.630349 0.624293 0.618237 0.600302 0.582367 0.553242 0.524116 0.48492 0.445724 0.397964 0.350203 0.295714 0.241224 0.1821 0.122975 0.0614875 3.28291e-17 -0 -0.062084 -0.124168 -0.183866 -0.243564 -0.298582 -0.3536 -0.401824 -0.450048 -0.489624 -0.5292 -0.558608 -0.588016 -0.606125 -0.624235 -0.630349 -0.636464 -0.630349 -0.624235 -0.606125 -0.588016 -0.558608 -0.5292 -0.489624 -0.450048 -0.401824 -0.3536 -0.298582 -0.243564 -0.183866 -0.124168 -0.062084 -1.40362e-16 0.062084 0.124168 0.183866 0.243564 0.298582 0.3536 0.401824 0.450048 0.489624 0.5292 0.558608 0.588016 0.606125 0.624235 0.630349 0.636464 0.630349 0.624235 0.606125 0.588016 0.558608 0.5292 0.489624 0.450048 0.401