<?xml version="1.0"?> 
<VTKFile type="StructuredGrid" version="0.1"> 
<StructuredGrid WholeExtent="0 64 0 64 0 0"> 
<Piece Extent="0 64 0 64 0 0"> 
<PointData>
<DataArray type="Float32" Name="u" format="ascii" NumberOfComponents="1"> 
0 0 0 0 0 0 0 0 0 0 0 0 0 0 0 0 0 0 0 0 0 0 0 0 0 0 0 0 0 0 0 0 0 0 -0 -0 -0 -0 -0 -0 -0 -0 -0 -0 -0 -0 -0 -0 -0 -0 -0 -0 -0 -0 -0 -0 -0 -0 -0 -0 -0 -0 -0 -0 -0 0 0.0063984 0.0127968 0.0189493 0.0251018 0.030772 0.0364422 0.0414122 0.0463821 0.0504609 0.0545396 0.0575704 0.0606012 0.0624675 0.0643339 0.0649641 0.0655943 0.0649641 0.0643339 0.0624675 0.0606012 0.0575704 0.0545396 0.0504609 0.0463821 0.0414122 0.0364422 0.030772 0.0251018 0.0189493 0.0127968 0.0063984 3.62089e-17 -0.0063984 -0.0127968 -0.0189493 -0.0251018 -0.030772 -0.0364422 -0.0414122 -0.0463821 -0.0504609 -0.0545396 -0.0575704 -0.0606012 -0.0624675 -0.0643339 -0.0649641 -0.0655943 -0.0649641 -0.0643339 -0.0624675 -0.0606012 -0.0575704 -0.0545396 -0.0504609 -0.0463821 -0.0414122 -0.0364422 -0.030772 -0.0251018 -0.0189493 -0.0127968 -0.0063984 -3.23339e-18 0 0.0127968 0.0255936 0.0378986 0.0502037 0.061544 0.0728844 0.0828244 0.0927643 0.100922 0.109079 0.115141 0.121202 0.124935 0.128668 0.129928 0.131189 0.129928 0.128668 0.124935 0.121202 0.115141 0.109079 0.100922 0.0927643 0.0828244 0.0728844 0.061544 0.0502037 0.0378986 0.0255936 0.0127968 7.24179e-17 -0.0127968 -0.0255936 -0.0378986 -0.0502037 -0.061544 -0.0728844 -0.0828244 -0.0927643 -0.100922 -0.109079 -0.115141 -0.121202 -0.124935 -0.128668 -0.129928 -0.131189 -0.129928 -0.128668 -0.124935 -0.121202 -0.115141 -0.109079 -0.100922 -0.0927643 -0.0828244 -0.0728844 -0.061544 -0.0502037 -0.0378986 -0.0255936 -0.0127968 -6.46677e-18 0 0.0189493 0.0378986 0.0561197 0.0743409 0.0911335 0.107926 0.122645 0.137364 0.149443 0.161523 0.170499 0.179475 0.185002 0.190529 0.192396 0.194262 0.192396 0.190529 0.185002 0.179475 0.170499 0.161523 0.149443 0.137364 0.122645 0.107926 0.0911335 0.0743409 0.0561197 0.0378986 0.0189493 1.08874e-16 -0.0189493 -0.0378986 -0.0561197 -0.0743409 -0.0911335 -0.107926 -0.122645 -0.137364 -0.149443 -0.161523 -0.170499 -0.179475 -0.185002 -0.190529 -0.192396 -0.194262 -0.192396 -0.190529 -0.185002 -0.179475 -0.170499 -0.161523 -0.149443 -0.137364 -0.122645 -0.107926 -0.0911335 -0.0743409 -0.0561197 -0.0378986 -0.0189493 -9.5759e-18 0 0.0251018 0.0502037 0.0743409 0.098478 0.120723 0.142968 0.162466 0.181964 0.197965 0.213967 0.225857 0.237747 0.245069 0.252391 0.254863 0.257336 0.254863 0.252391 0.245069 0.237747 0.225857 0.213967 0.197965 0.181964 0.162466 0.142968 0.120723 0.098478 0.0743409 0.0502037 0.0251018 1.45331e-16 -0.0251018 -0.0502037 -0.0743409 -0.098478 -0.120723 -0.142968 -0.162466 -0.181964 -0.197965 -0.213967 -0.225857 -0.237747 -0.245069 -0.252391 -0.254863 -0.257336 -0.254863 -0.252391 -0.245069 -0.237747 -0.225857 -0.213967 -0.197965 -0.181964 -0.162466 -0.142968 -0.120723 -0.098478 -0.0743409 -0.0502037 -0.0251018 -1.2685e-17 0 0.030772 0.061544 0.0911335 0.120723 0.147993 0.175263 0.199165 0.223067 0.242683 0.262299 0.276875 0.291451 0.300427 0.309403 0.312434 0.315464 0.312434 0.309403 0.300427 0.291451 0.276875 0.262299 0.242683 0.223067 0.199165 0.175263 0.147993 0.120723 0.0911335 0.061544 0.030772 1.85505e-16 -0.030772 -0.061544 -0.0911335 -0.120723 -0.147993 -0.175263 -0.199165 -0.223067 -0.242683 -0.262299 -0.276875 -0.291451 -0.300427 -0.309403 -0.312434 -0.315464 -0.312434 -0.309403 -0.300427 -0.291451 -0.276875 -0.262299 -0.242683 -0.223067 -0.199165 -0.175263 -0.147993 -0.120723 -0.0911335 -0.061544 -0.030772 -1.55504e-17 0 0.0364422 0.0728844 0.107926 0.142968 0.175263 0.207557 0.235864 0.26417 0.287401 0.310631 0.327893 0.345155 0.355785 0.366415 0.370004 0.373593 0.370004 0.366415 0.355785 0.345155 0.327893 0.310631 0.287401 0.26417 0.235864 0.207557 0.175263 0.142968 0.107926 0.0728844 0.0364422 2.2568e-16 -0.0364422 -0.0728844 -0.107926 -0.142968 -0.175263 -0.207557 -0.235864 -0.26417 -0.287401 -0.310631 -0.327893 -0.345155 -0.355785 -0.366415 -0.370004 -0.373593 -0.370004 -0.366415 -0.355785 -0.345155 -0.327893 -0.310631 -0.287401 -0.26417 -0.235864 -0.207557 -0.175263 -0.142968 -0.107926 -0.0728844 -0.0364422 -1.84158e-17 0 0.0414122 0.0828244 0.122645 0.162466 0.199165 0.235864 0.268031 0.300198 0.326596 0.352995 0.372611 0.392227 0.404307 0.416386 0.420465 0.424544 0.420465 0.416386 0.404307 0.392227 0.372611 0.352995 0.326596 0.300198 0.268031 0.235864 0.199165 0.162466 0.122645 0.0828244 0.0414122 2.64571e-16 -0.0414122 -0.0828244 -0.122645 -0.162466 -0.199165 -0.235864 -0.268031 -0.300198 -0.326596 -0.352995 -0.372611 -0.392227 -0.404307 -0.416386 -0.420465 -0.424544 -0.420465 -0.416386 -0.404307 -0.392227 -0.372611 -0.352995 -0.326596 -0.300198 -0.268031 -0.235864 -0.199165 -0.162466 -0.122645 -0.0828244 -0.0414122 -2.09273e-17 0 0.0463821 0.0927643 0.137364 0.181964 0.223067 0.26417 0.300198 0.336225 0.365792 0.395359 0.417329 0.439299 0.452828 0.466358 0.470926 0.475494 0.470926 0.466358 0.452828 0.439299 0.417329 0.395359 0.365792 0.336225 0.300198 0.26417 0.223067 0.181964 0.137364 0.0927643 0.0463821 3.03461e-16 -0.0463821 -0.0927643 -0.137364 -0.181964 -0.223067 -0.26417 -0.300198 -0.336225 -0.365792 -0.395359 -0.417329 -0.439299 -0.452828 -0.466358 -0.470926 -0.475494 -0.470926 -0.466358 -0.452828 -0.439299 -0.417329 -0.395359 -0.365792 -0.336225 -0.300198 -0.26417 -0.223067 -0.181964 -0.137364 -0.0927643 -0.0463821 -2.34389e-17 0 0.0504609 0.100922 0.149443 0.197965 0.242683 0.287401 0.326596 0.365792 0.397959 0.430126 0.454028 0.47793 0.492649 0.507368 0.512338 0.517308 0.512338 0.507368 0.492649 0.47793 0.454028 0.430126 0.397959 0.365792 0.326596 0.287401 0.242683 0.197965 0.149443 0.100922 0.0504609 3.27978e-16 -0.0504609 -0.100922 -0.149443 -0.197965 -0.242683 -0.287401 -0.326596 -0.365792 -0.397959 -0.430126 -0.454028 -0.47793 -0.492649 -0.507368 -0.512338 -0.517308 -0.512338 -0.507368 -0.492649 -0.47793 -0.454028 -0.430126 -0.397959 -0.365792 -0.326596 -0.287401 -0.242683 -0.197965 -0.149443 -0.100922 -0.0504609 -2.55e-17 0 0.0545396 0.109079 0.161523 0.213967 0.262299 0.310631 0.352995 0.395359 0.430126 0.464893 0.490727 0.516561 0.53247 0.548378 0.55375 0.559122 0.55375 0.548378 0.53247 0.516561 0.490727 0.464893 0.430126 0.395359 0.352995 0.310631 0.262299 0.213967 0.161523 0.109079 0.0545396 3.52494e-16 -0.0545396 -0.109079 -0.161523 -0.213967 -0.262299 -0.310631 -0.352995 -0.395359 -0.430126 -0.464893 -0.490727 -0.516561 -0.53247 -0.548378 -0.55375 -0.559122 -0.55375 -0.548378 -0.53247 -0.516561 -0.490727 -0.464893 -0.430126 -0.395359 -0.352995 -0.310631 -0.262299 -0.213967 -0.161523 -0.109079 -0.0545396 -2.75612e-17 0 0.0575704 0.115141 0.170499 0.225857 0.276875 0.327893 0.372611 0.417329 0.454028 0.490727 0.517997 0.545267 0.562059 0.578852 0.584522 0.590192 0.584522 0.578852 0.562059 0.545267 0.517997 0.490727 0.454028 0.417329 0.372611 0.327893 0.276875 0.225857 0.170499 0.115141 0.0575704 3.84705e-16 -0.0575704 -0.115141 -0.170499 -0.225857 -0.276875 -0.327893 -0.372611 -0.417329 -0.454028 -0.490727 -0.517997 -0.545267 -0.562059 -0.578852 -0.584522 -0.590192 -0.584522 -0.578852 -0.562059 -0.545267 -0.517997 -0.490727 -0.454028 -0.417329 -0.372611 -0.327893 -0.276875 -0.225857 -0.170499 -0.115141 -0.0575704 -2.90928e-17 0 0.0606012 0.121202 0.179475 0.237747 0.291451 0.345155 0.392227 0.439299 0.47793 0.516561 0.545267 0.573972 0.591649 0.609325 0.615294 0.621263 0.615294 0.609325 0.591649 0.573972 0.545267 0.516561 0.47793 0.439299 0.392227 0.345155 0.291451 0.237747 0.179475 0.121202 0.0606012 4.16917e-16 -0.0606012 -0.121202 -0.179475 -0.237747 -0.291451 -0.345155 -0.392227 -0.439299 -0.47793 -0.516561 -0.545267 -0.573972 -0.591649 -0.609325 -0.615294 -0.621263 -0.615294 -0.609325 -0.591649 -0.573972 -0.545267 -0.516561 -0.47793 -0.439299 -0.392227 -0.345155 -0.291451 -0.237747 -0.179475 -0.121202 -0.0606012 -3.06244e-17 0 0.0624675 0.124935 0.185002 0.245069 0.300427 0.355785 0.404307 0.452828 0.492649 0.53247 0.562059 0.591649 0.60987 0.628091 0.634244 0.640396 0.634244 0.628091 0.60987 0.591649 0.562059 0.53247 0.492649 0.452828 0.404307 0.355785 0.300427 0.245069 0.185002 0.124935 0.0624675 4.43731e-16 -0.0624675 -0.124935 -0.185002 -0.245069 -0.300427 -0.355785 -0.404307 -0.452828 -0.492649 -0.53247 -0.562059 -0.591649 -0.60987 -0.628091 -0.634244 -0.640396 -0.634244 -0.628091 -0.60987 -0.591649 -0.562059 -0.53247 -0.492649 -0.452828 -0.404307 -0.355785 -0.300427 -0.245069 -0.185002 -0.124935 -0.0624675 -3.15675e-17 0 0.0643339 0.128668 0.190529 0.252391 0.309403 0.366415 0.416386 0.466358 0.507368 0.548378 0.578852 0.609325 0.628091 0.646856 0.653193 0.659529 0.653193 0.646856 0.628091 0.609325 0.578852 0.548378 0.507368 0.466358 0.416386 0.366415 0.309403 0.252391 0.190529 0.128668 0.0643339 4.70546e-16 -0.0643339 -0.128668 -0.190529 -0.252391 -0.309403 -0.366415 -0.416386 -0.466358 -0.507368 -0.548378 -0.578852 -0.609325 -0.628091 -0.646856 -0.653193 -0.659529 -0.653193 -0.646856 -0.628091 -0.609325 -0.578852 -0.548378 -0.507368 -0.466358 -0.416386 -0.366415 -0.309403 -0.252391 -0.190529 -0.128668 -0.0643339 -3.25107e-17 0 0.0649641 0.129928 0.192396 0.254863 0.312434 0.370004 0.420465 0.470926 0.512338 0.55375 0.584522 0.615294 0.634244 0.653193 0.659591 0.66599 0.659591 0.653193 0.634244 0.615294 0.584522 0.55375 0.512338 0.470926 0.420465 0.370004 0.312434 0.254863 0.192396 0.129928 0.0649641 4.98769e-16 -0.0649641 -0.129928 -0.192396 -0.254863 -0.312434 -0.370004 -0.420465 -0.470926 -0.512338 -0.55375 -0.584522 -0.615294 -0.634244 -0.653193 -0.659591 -0.66599 -0.659591 -0.653193 -0.634244 -0.615294 -0.584522 -0.55375 -0.512338 -0.470926 -0.420465 -0.370004 -0.312434 -0.254863 -0.192396 -0.129928 -0.0649641 -3.28291e-17 0 0.0655943 0.131189 0.194262 0.257336 0.315464 0.373593 0.424544 0.475494 0.517308 0.559122 0.590192 0.621263 0.640396 0.659529 0.66599 0.67245 0.66599 0.659529 0.640396 0.621263 0.590192 0.559122 0.517308 0.475494 0.424544 0.373593 0.315464 0.257336 0.194262 0.131189 0.0655943 5.26991e-16 -0.0655943 -0.131189 -0.194262 -0.257336 -0.315464 -0.373593 -0.424544 -0.475494 -0.517308 -0.559122 -0.590192 -0.621263 -0.640396 -0.659529 -0.66599 -0.67245 -0.66599 -0.659529 -0.640396 -0.621263 -0.590192 -0.559122 -0.517308 -0.475494 -0.424544 -0.373593 -0.315464 -0.257336 -0.194262 -0.131189 -0.0655943 -3.31476e-17 0 0.0649641 0.129928 0.192396 0.254863 0.312434 0.370004 0.420465 0.470926 0.512338 0.55375 0.584522 0.615294 0.634244 0.653193 0.659591 0.66599 0.659591 0.653193 0.634244 0.615294 0.584522 0.55375 0.512338 0.470926 0.420465 0.370004 0.312434 0.254863 0.192396 0.129928 0.0649641 5.20282e-16 -0.0649641 -0.129928 -0.192396 -0.254863 -0.312434 -0.370004 -0.420465 -0.470926 -0.512338 -0.55375 -0.584522 -0.615294 -0.634244 -0.653193 -0.659591 -0.66599 -0.659591 -0.653193 -0.634244 -0.615294 -0.584522 -0.55375 -0.512338 -0.470926 -0.420465 -0.370004 -0.312434 -0.254863 -0.192396 -0.129928 -0.0649641 -3.28291e-17 0 0.0643339 0.128668 0.190529 0.252391 0.309403 0.366415 0.416386 0.466358 0.507368 0.548378 0.578852 0.609325 0.628091 0.646856 0.653193 0.659529 0.653193 0.646856 0.628091 0.609325 0.578852 0.548378 0.507368 0.466358 0.416386 0.366415 0.309403 0.252391 0.190529 0.128668 0.0643339 5.13572e-16 -0.0643339 -0.128668 -0.190529 -0.252391 -0.309403 -0.366415 -0.416386 -0.466358 -0.507368 -0.548378 -0.578852 -0.609325 -0.628091 -0.646856 -0.653193 -0.659529 -0.653193 -0.646856 -0.628091 -0.609325 -0.578852 -0.548378 -0.507368 -0.466358 -0.416386 -0.366415 -0.309403 -0.252391 -0.190529 -0.128668 -0.0643339 -3.25107e-17 0 0.0624675 0.124935 0.185002 0.245069 0.300427 0.355785 0.404307 0.452828 0.492649 0.53247 0.562059 0.591649 0.60987 0.628091 0.634244 0.640396 0.634244 0.628091 0.60987 0.591649 0.562059 0.53247 0.492649 0.452828 0.404307 0.355785 0.300427 0.245069 0.185002 0.124935 0.0624675 4.96315e-16 -0.0624675 -0.124935 -0.185002 -0.245069 -0.300427 -0.355785 -0.404307 -0.452828 -0.492649 -0.53247 -0.562059 -0.591649 -0.60987 -0.628091 -0.634244 -0.640396 -0.634244 -0.628091 -0.60987 -0.591649 -0.562059 -0.53247 -0.492649 -0.452828 -0.404307 -0.355785 -0.300427 -0.245069 -0.185002 -0.124935 -0.0624675 -3.15675e-17 0 0.0606012 0.121202 0.179475 0.237747 0.291451 0.345155 0.392227 0.439299 0.47793 0.516561 0.545267 0.573972 0.591649 0.609325 0.615294 0.621263 0.615294 0.609325 0.591649 0.573972 0.545267 0.516561 0.47793 0.439299 0.392227 0.345155 0.291451 0.237747 0.179475 0.121202 0.0606012 4.79059e-16 -0.0606012 -0.121202 -0.179475 -0.237747 -0.291451 -0.345155 -0.392227 -0.439299 -0.47793 -0.516561 -0.545267 -0.573972 -0.591649 -0.609325 -0.615294 -0.621263 -0.615294 -0.609325 -0.591649 -0.573972 -0.545267 -0.516561 -0.47793 -0.439299 -0.392227 -0.345155 -0.291451 -0.237747 -0.179475 -0.121202 -0.0606012 -3.06244e-17 0 0.0575704 0.115141 0.170499 0.225857 0.276875 0.327893 0.372611 0.417329 0.454028 0.490727 0.517997 0.545267 0.562059 0.578852 0.584522 0.590192 0.584522 0.578852 0.562059 0.545267 0.517997 0.490727 0.454028 0.417329 0.372611 0.327893 0.276875 0.225857 0.170499 0.115141 0.0575704 4.60209e-16 -0.0575704 -0.115141 -0.170499 -0.225857 -0.276875 -0.327893 -0.372611 -0.417329 -0.454028 -0.490727 -0.517997 -0.545267 -0.562059 -0.578852 -0.584522 -0.590192 -0.584522 -0.578852 -0.562059 -0.545267 -0.517997 -0.490727 -0.454028 -0.417329 -0.372611 -0.327893 -0.276875 -0.225857 -0.170499 -0.115141 -0.0575704 -2.90928e-17 0 0.0545396 0.109079 0.161523 0.213967 0.262299 0.310631 0.352995 0.395359 0.430126 0.464893 0.490727 0.516561 0.53247 0.548378 0.55375 0.559122 0.55375 0.548378 0.53247 0.516561 0.490727 0.464893 0.430126 0.395359 0.352995 0.310631 0.262299 0.213967 0.161523 0.109079 0.0545396 4.41359e-16 -0.0545396 -0.109079 -0.161523 -0.213967 -0.262299 -0.310631 -0.352995 -0.395359 -0.430126 -0.464893 -0.490727 -0.516561 -0.53247 -0.548378 -0.55375 -0.559122 -0.55375 -0.548378 -0.53247 -0.516561 -0.490727 -0.464893 -0.430126 -0.395359 -0.352995 -0.310631 -0.262299 -0.213967 -0.161523 -0.109079 -0.0545396 -2.75612e-17 0 0.0504609 0.100922 0.149443 0.197965 0.242683 0.287401 0.326596 0.365792 0.397959 0.430126 0.454028 0.47793 0.492649 0.507368 0.512338 0.517308 0.512338 0.507368 0.492649 0.47793 0.454028 0.430126 0.397959 0.365792 0.326596 0.287401 0.242683 0.197965 0.149443 0.100922 0.0504609 4.14686e-16 -0.0504609 -0.100922 -0.149443 -0.197965 -0.242683 -0.287401 -0.326596 -0.365792 -0.397959 -0.430126 -0.454028 -0.47793 -0.492649 -0.507368 -0.512338 -0.517308 -0.512338 -0.507368 -0.492649 -0.47793 -0.454028 -0.430126 -0.397959 -0.365792 -0.326596 -0.287401 -0.242683 -0.197965 -0.149443 -0.100922 -0.0504609 -2.55e-17 0 0.0463821 0.0927643 0.137364 0.181964 0.223067 0.26417 0.300198 0.336225 0.365792 0.395359 0.417329 0.439299 0.452828 0.466358 0.470926 0.475494 0.470926 0.466358 0.452828 0.439299 0.417329 0.395359 0.365792 0.336225 0.300198 0.26417 0.223067 0.181964 0.137364 0.0927643 0.0463821 3.88013e-16 -0.0463821 -0.0927643 -0.137364 -0.181964 -0.223067 -0.26417 -0.300198 -0.336225 -0.365792 -0.395359 -0.417329 -0.439299 -0.452828 -0.466358 -0.470926 -0.475494 -0.470926 -0.466358 -0.452828 -0.439299 -0.417329 -0.395359 -0.365792 -0.336225 -0.300198 -0.26417 -0.223067 -0.181964 -0.137364 -0.0927643 -0.0463821 -2.34389e-17 0 0.0414122 0.0828244 0.122645 0.162466 0.199165 0.235864 0.268031 0.300198 0.326596 0.352995 0.372611 0.392227 0.404307 0.416386 0.420465 0.424544 0.420465 0.416386 0.404307 0.392227 0.372611 0.352995 0.326596 0.300198 0.268031 0.235864 0.199165 0.162466 0.122645 0.0828244 0.0414122 3.41986e-16 -0.0414122 -0.0828244 -0.122645 -0.162466 -0.199165 -0.235864 -0.268031 -0.300198 -0.326596 -0.352995 -0.372611 -0.392227 -0.404307 -0.416386 -0.420465 -0.424544 -0.420465 -0.416386 -0.404307 -0.392227 -0.372611 -0.352995 -0.326596 -0.300198 -0.268031 -0.235864 -0.199165 -0.162466 -0.122645 -0.0828244 -0.0414122 -2.09273e-17 0 0.0364422 0.0728844 0.107926 0.142968 0.175263 0.207557 0.235864 0.26417 0.287401 0.310631 0.327893 0.345155 0.355785 0.366415 0.370004 0.373593 0.370004 0.366415 0.355785 0.345155 0.327893 0.310631 0.287401 0.26417 0.235864 0.207557 0.175263 0.142968 0.107926 0.0728844 0.0364422 2.95959e-16 -0.0364422 -0.0728844 -0.107926 -0.142968 -0.175263 -0.207557 -0.235864 -0.26417 -0.287401 -0.310631 -0.327893 -0.345155 -0.355785 -0.366415 -0.370004 -0.373593 -0.370004 -0.366415 -0.355785 -0.345155 -0.327893 -0.310631 -0.287401 -0.26417 -0.235864 -0.207557 -0.175263 -0.142968 -0.107926 -0.0728844 -0.0364422 -1.84158e-17 0 0.030772 0.061544 0.0911335 0.120723 0.147993 0.175263 0.199165 0.223067 0.242683 0.262299 0.276875 0.291451 0.300427 0.309403 0.312434 0.315464 0.312434 0.309403 0.300427 0.291451 0.276875 0.262299 0.242683 0.223067 0.199165 0.175263 0.147993 0.120723 0.0911335 0.061544 0.030772 2.60704e-16 -0.030772 -0.061544 -0.0911335 -0.120723 -0.147993 -0.175263 -0.199165 -0.223067 -0.242683 -0.262299 -0.276875 -0.291451 -0.300427 -0.309403 -0.312434 -0.315464 -0.312434 -0.309403 -0.300427 -0.291451 -0.276875 -0.262299 -0.242683 -0.223067 -0.199165 -0.175263 -0.147993 -0.120723 -0.0911335 -0.061544 -0.030772 -1.55504e-17 0 0.0251018 0.0502037 0.0743409 0.098478 0.120723 0.142968 0.162466 0.181964 0.197965 0.213967 0.225857 0.237747 0.245069 0.252391 0.254863 0.257336 0.254863 0.252391 0.245069 0.237747 0.225857 0.213967 0.197965 0.181964 0.162466 0.142968 0.120723 0.098478 0.0743409 0.0502037 0.0251018 2.25449e-16 -0.0251018 -0.0502037 -0.0743409 -0.098478 -0.120723 -0.142968 -0.162466 -0.181964 -0.197965 -0.213967 -0.225857 -0.237747 -0.245069 -0.252391 -0.254863 -0.257336 -0.254863 -0.252391 -0.245069 -0.237747 -0.225857 -0.213967 -0.197965 -0.181964 -0.162466 -0.142968 -0.120723 -0.098478 -0.0743409 -0.0502037 -0.0251018 -1.2685e-17 0 0.0189493 0.0378986 0.0561197 0.0743409 0.0911335 0.107926 0.122645 0.137364 0.149443 0.161523 0.170499 0.179475 0.185002 0.190529 0.192396 0.194262 0.192396 0.190529 0.185002 0.179475 0.170499 0.161523 0.149443 0.137364 0.122645 0.107926 0.0911335 0.0743409 0.0561197 0.0378986 0.0189493 2.01336e-16 -0.0189493 -0.0378986 -0.0561197 -0.0743409 -0.0911335 -0.107926 -0.122645 -0.137364 -0.149443 -0.161523 -0.170499 -0.179475 -0.185002 -0.190529 -0.192396 -0.194262 -0.192396 -0.190529 -0.185002 -0.179475 -0.170499 -0.161523 -0.149443 -0.137364 -0.122645 -0.107926 -0.0911335 -0.0743409 -0.0561197 -0.0378986 -0.0189493 -9.5759e-18 0 0.0127968 0.0255936 0.0378986 0.0502037 0.061544 0.0728844 0.0828244 0.0927643 0.100922 0.109079 0.115141 0.121202 0.124935 0.128668 0.129928 0.131189 0.129928 0.128668 0.124935 0.121202 0.115141 0.109079 0.100922 0.0927643 0.0828244 0.0728844 0.061544 0.0502037 0.0378986 0.0255936 0.0127968 1.77222e-16 -0.0127968 -0.0255936 -0.0378986 -0.0502037 -0.061544 -0.0728844 -0.0828244 -0.0927643 -0.100922 -0.109079 -0.115141 -0.121202 -0.124935 -0.128668 -0.129928 -0.131189 -0.129928 -0.128668 -0.124935 -0.121202 -0.115141 -0.109079 -0.100922 -0.0927643 -0.0828244 -0.0728844 -0.061544 -0.0502037 -0.0378986 -0.0255936 -0.0127968 -6.46677e-18 0 0.0063984 0.0127968 0.0189493 0.0251018 0.030772 0.0364422 0.0414122 0.0463821 0.0504609 0.0545396 0.0575704 0.0606012 0.0624675 0.0643339 0.0649641 0.0655943 0.0649641 0.0643339 0.0624675 0.0606012 0.0575704 0.0545396 0.0504609 0.0463821 0.0414122 0.0364422 0.030772 0.0251018 0.0189493 0.0127968 0.0063984 1.42635e-16 -0.0063984 -0.0127968 -0.0189493 -0.0251018 -0.030772 -0.0364422 -0.0414122 -0.0463821 -0.0504609 -0.0545396 -0.0575704 -0.0606012 -0.0624675 -0.0643339 -0.0649641 -0.0655943 -0.0649641 -0.0643339 -0.0624675 -0.0606012 -0.0575704 -0.0545396 -0.0504609 -0.0463821 -0.0414122 -0.0364422 -0.030772 -0.0251018 -0.0189493 -0.0127968 -0.0063984 -3.23339e-18 0 3.00124e-17 6.00249e-17 9.097e-17 1.21915e-16 1.63572e-16 2.05228e-16 2.58707e-16 3.12187e-16 3.00929e-16 2.89671e-16 3.20524e-16 3.51377e-16 3.68463e-16 3.85548e-16 3.96063e-16 4.06577e-16 4.15513e-16 4.24449e-16 4.106e-16 3.96751e-16 3.51132e-16 3.05512e-16 3.06766e-16 3.08021e-16 2.78683e-16 2.49345e-16 2.28489e-16 2.07633e-16 1.85943e-16 1.64253e-16 1.3615e-16 1.08047e-16 8.06647e-17 5.32825e-17 1.72091e-17 -1.88643e-17 -5.18593e-17 -8.48543e-17 -9.513e-17 -1.05406e-16 -1.49901e-16 -1.94396e-16 -2.20239e-16 -2.46081e-16 -2.62072e-16 -2.78063e-16 -2.54656e-16 -2.31249e-16 -2.42948e-16 -2.54647e-16 -2.30842e-16 -2.07038e-16 -2.08985e-16 -2.10932e-16 -1.98444e-16 -1.85957e-16 -1.47381e-16 -1.08804e-16 -9.24339e-17 -7.60636e-17 -5.72294e-17 -3.83952e-17 -1.91976e-17 -4.05941e-33 0 -0.0063984 -0.0127968 -0.0189493 -0.0251018 -0.030772 -0.0364422 -0.0414122 -0.0463821 -0.0504609 -0.0545396 -0.0575704 -0.0606012 -0.0624675 -0.0643339 -0.0649641 -0.0655943 -0.0649641 -0.0643339 -0.0624675 -0.0606012 -0.0575704 -0.0545396 -0.0504609 -0.0463821 -0.0414122 -0.0364422 -0.030772 -0.0251018 -0.0189493 -0.0127968 -0.0063984 8.07844e-17 0.0063984 0.0127968 0.0189493 0.0251018 0.030772 0.0364422 0.0414122 0.0463821 0.0504609 0.0545396 0.0575704 0.0606012 0.0624675 0.0643339 0.0649641 0.0655943 0.0649641 0.0643339 0.0624675 0.0606012 0.0575704 0.0545396 0.0504609 0.0463821 0.0414122 0.0364422 0.030772 0.0251018 0.0189493 0.0127968 0.0063984 3.23339e-18 -0 -0.0127968 -0.0255936 -0.0378986 -0.0502037 -0.061544 -0.0728844 -0.0828244 -0.0927643 -0.100922 -0.109079 -0.115141 -0.121202 -0.124935 -0.128668 -0.129928 -0.131189 -0.129928 -0.128668 -0.124935 -0.121202 -0.115141 -0.109079 -0.100922 -0.0927643 -0.0828244 -0.0728844 -0.061544 -0.0502037 -0.0378986 -0.0255936 -0.0127968 5.35217e-17 0.0127968 0.0255936 0.0378986 0.0502037 0.061544 0.0728844 0.0828244 0.0927643 0.100922 0.109079 0.115141 0.121202 0.124935 0.128668 0.129928 0.131189 0.129928 0.128668 0.124935 0.121202 0.115141 0.109079 0.100922 0.0927643 0.0828244 0.0728844 0.061544 0.0502037 0.0378986 0.0255936 0.0127968 6.46677e-18 -0 -0.0189493 -0.0378986 -0.0561197 -0.0743409 -0.0911335 -0.107926 -0.122645 -0.137364 -0.149443 -0.161523 -0.170499 -0.179475 -0.185002 -0.190529 -0.192396 -0.194262 -0.192396 -0.190529 -0.185002 -0.179475 -0.170499 -0.161523 -0.149443 -0.137364 -0.122645 -0.107926 -0.0911335 -0.0743409 -0.0561197 -0.0378986 -0.0189493 2.78328e-17 0.0189493 0.0378986 0.0561197 0.0743409 0.0911335 0.107926 0.122645 0.137364 0.149443 0.161523 0.170499 0.179475 0.185002 0.190529 0.192396 0.194262 0.192396 0.190529 0.185002 0.179475 0.170499 0.161523 0.149443 0.137364 0.122645 0.107926 0.0911335 0.0743409 0.0561197 0.0378986 0.0189493 9.5759e-18 -0 -0.0251018 -0.0502037 -0.0743409 -0.098478 -0.120723 -0.142968 -0.162466 -0.181964 -0.197965 -0.213967 -0.225857 -0.237747 -0.245069 -0.252391 -0.254863 -0.257336 -0.254863 -0.252391 -0.245069 -0.237747 -0.225857 -0.213967 -0.197965 -0.181964 -0.162466 -0.142968 -0.120723 -0.098478 -0.0743409 -0.0502037 -0.0251018 2.14379e-18 0.0251018 0.0502037 0.0743409 0.098478 0.120723 0.142968 0.162466 0.181964 0.197965 0.213967 0.225857 0.237747 0.245069 0.252391 0.254863 0.257336 0.254863 0.252391 0.245069 0.237747 0.225857 0.213967 0.197965 0.181964 0.162466 0.142968 0.120723 0.098478 0.0743409 0.0502037 0.0251018 1.2685e-17 -0 -0.030772 -0.061544 -0.0911335 -0.120723 -0.147993 -0.175263 -0.199165 -0.223067 -0.242683 -0.262299 -0.276875 -0.291451 -0.300427 -0.309403 -0.312434 -0.315464 -0.312434 -0.309403 -0.300427 -0.291451 -0.276875 -0.262299 -0.242683 -0.223067 -0.199165 -0.175263 -0.147993 -0.120723 -0.0911335 -0.061544 -0.030772 -2.56725e-17 0.030772 0.061544 0.0911335 0.120723 0.147993 0.175263 0.199165 0.223067 0.242683 0.262299 0.276875 0.291451 0.300427 0.309403 0.312434 0.315464 0.312434 0.309403 0.300427 0.291451 0.276875 0.262299 0.242683 0.223067 0.199165 0.175263 0.147993 0.120723 0.0911335 0.061544 0.030772 1.55504e-17 -0 -0.0364422 -0.0728844 -0.107926 -0.142968 -0.175263 -0.207557 -0.235864 -0.26417 -0.287401 -0.310631 -0.327893 -0.345155 -0.355785 -0.366415 -0.370004 -0.373593 -0.370004 -0.366415 -0.355785 -0.345155 -0.327893 -0.310631 -0.287401 -0.26417 -0.235864 -0.207557 -0.175263 -0.142968 -0.107926 -0.0728844 -0.0364422 -5.34888e-17 0.0364422 0.0728844 0.107926 0.142968 0.175263 0.207557 0.235864 0.26417 0.287401 0.310631 0.327893 0.345155 0.355785 0.366415 0.370004 0.373593 0.370004 0.366415 0.355785 0.345155 0.327893 0.310631 0.287401 0.26417 0.235864 0.207557 0.175263 0.142968 0.107926 0.0728844 0.0364422 1.84158e-17 -0 -0.0414122 -0.0828244 -0.122645 -0.162466 -0.199165 -0.235864 -0.268031 -0.300198 -0.326596 -0.352995 -0.372611 -0.392227 -0.404307 -0.416386 -0.420465 -0.424544 -0.420465 -0.416386 -0.404307 -0.392227 -0.372611 -0.352995 -0.326596 -0.300198 -0.268031 -0.235864 -0.199165 -0.162466 -0.122645 -0.0828244 -0.0414122 -7.9187e-17 0.0414122 0.0828244 0.122645 0.162466 0.199165 0.235864 0.268031 0.300198 0.326596 0.352995 0.372611 0.392227 0.404307 0.416386 0.420465 0.424544 0.420465 0.416386 0.404307 0.392227 0.372611 0.352995 0.326596 0.300198 0.268031 0.235864 0.199165 0.162466 0.122645 0.0828244 0.0414122 2.09273e-17 -0 -0.0463821 -0.0927643 -0.137364 -0.181964 -0.223067 -0.26417 -0.300198 -0.336225 -0.365792 -0.395359 -0.417329 -0.439299 -0.452828 -0.466358 -0.470926 -0.475494 -0.470926 -0.466358 -0.452828 -0.439299 -0.417329 -0.395359 -0.365792 -0.336225 -0.300198 -0.26417 -0.223067 -0.181964 -0.137364 -0.0927643 -0.0463821 -1.04885e-16 0.0463821 0.0927643 0.137364 0.181964 0.223067 0.26417 0.300198 0.336225 0.365792 0.395359 0.417329 0.439299 0.452828 0.466358 0.470926 0.475494 0.470926 0.466358 0.452828 0.439299 0.417329 0.395359 0.365792 0.336225 0.300198 0.26417 0.223067 0.181964 0.137364 0.0927643 0.0463821 2.34389e-17 -0 -0.0504609 -0.100922 -0.149443 -0.197965 -0.242683 -0.287401 -0.326596 -0.365792 -0.397959 -0.430126 -0.454028 -0.47793 -0.492649 -0.507368 -0.512338 -0.517308 -0.512338 -0.507368 -0.492649 -0.47793 -0.454028 -0.430126 -0.397959 -0.365792 -0.326596 -0.287401 -0.242683 -0.197965 -0.149443 -0.100922 -0.0504609 -1.24227e-16 0.0504609 0.100922 0.149443 0.197965 0.242683 0.287401 0.326596 0.365792 0.397959 0.430126 0.454028 0.47793 0.492649 0.507368 0.512338 0.517308 0.512338 0.507368 0.492649 0.47793 0.454028 0.430126 0.397959 0.365792 0.326596 0.287401 0.242683 0.197965 0.149443 0.100922 0.0504609 2.55e-17 -0 -0.0545396 -0.109079 -0.161523 -0.213967 -0.262299 -0.310631 -0.352995 -0.395359 -0.430126 -0.464893 -0.490727 -0.516561 -0.53247 -0.548378 -0.55375 -0.559122 -0.55375 -0.548378 -0.53247 -0.516561 -0.490727 -0.464893 -0.430126 -0.395359 -0.352995 -0.310631 -0.262299 -0.213967 -0.161523 -0.109079 -0.0545396 -1.43569e-16 0.0545396 0.109079 0.161523 0.213967 0.262299 0.310631 0.352995 0.395359 0.430126 0.464893 0.490727 0.516561 0.53247 0.548378 0.55375 0.559122 0.55375 0.548378 0.53247 0.516561 0.490727 0.464893 0.430126 0.395359 0.352995 0.310631 0.262299 0.213967 0.161523 0.109079 0.0545396 2.75612e-17 -0 -0.0575704 -0.115141 -0.170499 -0.225857 -0.276875 -0.327893 -0.372611 -0.417329 -0.454028 -0.490727 -0.517997 -0.545267 -0.562059 -0.578852 -0.584522 -0.590192 -0.584522 -0.578852 -0.562059 -0.545267 -0.517997 -0.490727 -0.454028 -0.417329 -0.372611 -0.327893 -0.276875 -0.225857 -0.170499 -0.115141 -0.0575704 -1.58006e-16 0.0575704 0.115141 0.170499 0.225857 0.276875 0.327893 0.372611 0.417329 0.454028 0.490727 0.517997 0.545267 0.562059 0.578852 0.584522 0.590192 0.584522 0.578852 0.562059 0.545267 0.517997 0.490727 0.454028 0.417329 0.372611 0.327893 0.276875 0.225857 0.170499 0.115141 0.0575704 2.90928e-17 -0 -0.0606012 -0.121202 -0.179475 -0.237747 -0.291451 -0.345155 -0.392227 -0.439299 -0.47793 -0.516561 -0.545267 -0.573972 -0.591649 -0.609325 -0.615294 -0.621263 -0.615294 -0.609325 -0.591649 -0.573972 -0.545267 -0.516561 -0.47793 -0.439299 -0.392227 -0.345155 -0.291451 -0.237747 -0.179475 -0.121202 -0.0606012 -1.72444e-16 0.0606012 0.121202 0.179475 0.237747 0.291451 0.345155 0.392227 0.439299 0.47793 0.516561 0.545267 0.573972 0.591649 0.609325 0.615294 0.621263 0.615294 0.609325 0.591649 0.573972 0.545267 0.516561 0.47793 0.439299 0.392227 0.345155 0.291451 0.237747 0.179475 0.121202 0.0606012 3.06244e-17 -0 -0.0624675 -0.124935 -0.185002 -0.245069 -0.300427 -0.355785 -0.404307 -0.452828 -0.492649 -0.53247 -0.562059 -0.591649 -0.60987 -0.628091 -0.634244 -0.640396 -0.634244 -0.628091 -0.60987 -0.591649 -0.562059 -0.53247 -0.492649 -0.452828 -0.404307 -0.355785 -0.300427 -0.245069 -0.185002 -0.124935 -0.0624675 -1.87978e-16 0.0624675 0.124935 0.185002 0.245069 0.300427 0.355785 0.404307 0.452828 0.492649 0.53247 0.562059 0.591649 0.60987 0.628091 0.634244 0.640396 0.634244 0.628091 0.60987 0.591649 0.562059 0.53247 0.492649 0.452828 0.404307 0.355785 0.300427 0.245069 0.185002 0.124935 0.0624675 3.15675e-17 -0 -0.0643339 -0.128668 -0.190529 -0.252391 -0.309403 -0.366415 -0.416386 -0.466358 -0.507368 -0.548378 -0.578852 -0.609325 -0.628091 -0.646856 -0.653193 -0.659529 -0.653193 -0.646856 -0.628091 -0.609325 -0.578852 -0.548378 -0.507368 -0.466358 -0.416386 -0.366415 -0.309403 -0.252391 -0.190529 -0.128668 -0.0643339 -2.03512e-16 0.0643339 0.128668 0.190529 0.252391 0.309403 0.366415 0.416386 0.466358 0.507368 0.548378 0.578852 0.609325 0.628091 0.646856 0.653193 0.659529 0.653193 0.646856 0.628091 0.609325 0.578852 0.548378 0.507368 0.466358 0.416386 0.366415 0.309403 0.252391 0.190529 0.128668 0.0643339 3.25107e-17 -0 -0.0649641 -0.129928 -0.192396 -0.254863 -0.312434 -0.370004 -0.420465 -0.470926 -0.512338 -0.55375 -0.584522 -0.615294 -0.634244 -0.653193 -0.659591 -0.66599 -0.659591 -0.653193 -0.634244 -0.615294 -0.584522 -0.55375 -0.512338 -0.470926 -0.420465 -0.370004 -0.312434 -0.254863 -0.192396 -0.129928 -0.0649641 -2.31103e-16 0.0649641 0.129928 0.192396 0.254863 0.312434 0.370004 0.420465 0.470926 0.512338 0.55375 0.584522 0.615294 0.634244 0.653193 0.659591 0.66599 0.659591 0.653193 0.634244 0.615294 0.584522 0.55375 0.512338 0.470926 0.420465 0.370004 0.312434 0.254863 0.192396 0.129928 0.0649641 3.28291e-17 -0 -0.0655943 -0.131189 -0.194262 -0.257336 -0.315464 -0.373593 -0.424544 -0.