<?xml version="1.0"?> 
<VTKFile type="StructuredGrid" version="0.1"> 
<StructuredGrid WholeExtent="0 64 0 64 0 0"> 
<Piece Extent="0 64 0 64 0 0"> 
<PointData>
<DataArray type="Float32" Name="u" format="ascii" NumberOfComponents="1"> 
0 0 0 0 0 0 0 0 0 0 0 0 0 0 0 0 0 0 0 0 0 0 0 0 0 0 0 0 0 0 0 0 0 0 -0 -0 -0 -0 -0 -0 -0 -0 -0 -0 -0 -0 -0 -0 -0 -0 -0 -0 -0 -0 -0 -0 -0 -0 -0 -0 -0 -0 -0 -0 -0 0 0.00912446 0.0182489 0.0270227 0.0357965 0.0438825 0.0519685 0.059056 0.0661434 0.0719599 0.0777764 0.0820985 0.0864205 0.089082 0.0917435 0.0926422 0.0935409 0.0926422 0.0917435 0.089082 0.0864205 0.0820985 0.0777764 0.0719599 0.0661434 0.059056 0.0519685 0.0438825 0.0357965 0.0270227 0.0182489 0.00912446 4.66497e-17 -0.00912446 -0.0182489 -0.0270227 -0.0357965 -0.0438825 -0.0519685 -0.059056 -0.0661434 -0.0719599 -0.0777764 -0.0820985 -0.0864205 -0.089082 -0.0917435 -0.0926422 -0.0935409 -0.0926422 -0.0917435 -0.089082 -0.0864205 -0.0820985 -0.0777764 -0.0719599 -0.0661434 -0.059056 -0.0519685 -0.0438825 -0.0357965 -0.0270227 -0.0182489 -0.00912446 -3.23339e-18 0 0.0182489 0.0364978 0.0540455 0.0715931 0.0877651 0.103937 0.118112 0.132287 0.14392 0.155553 0.164197 0.172841 0.178164 0.183487 0.185284 0.187082 0.185284 0.183487 0.178164 0.172841 0.164197 0.155553 0.14392 0.132287 0.118112 0.103937 0.0877651 0.0715931 0.0540455 0.0364978 0.0182489 9.32995e-17 -0.0182489 -0.0364978 -0.0540455 -0.0715931 -0.0877651 -0.103937 -0.118112 -0.132287 -0.14392 -0.155553 -0.164197 -0.172841 -0.178164 -0.183487 -0.185284 -0.187082 -0.185284 -0.183487 -0.178164 -0.172841 -0.164197 -0.155553 -0.14392 -0.132287 -0.118112 -0.103937 -0.0877651 -0.0715931 -0.0540455 -0.0364978 -0.0182489 -6.46677e-18 0 0.0270227 0.0540455 0.0800297 0.106014 0.129961 0.153908 0.174898 0.195888 0.213114 0.23034 0.24314 0.25594 0.263823 0.271705 0.274366 0.277028 0.274366 0.271705 0.263823 0.25594 0.24314 0.23034 0.213114 0.195888 0.174898 0.153908 0.129961 0.106014 0.0800297 0.0540455 0.0270227 1.38305e-16 -0.0270227 -0.0540455 -0.0800297 -0.106014 -0.129961 -0.153908 -0.174898 -0.195888 -0.213114 -0.23034 -0.24314 -0.25594 -0.263823 -0.271705 -0.274366 -0.277028 -0.274366 -0.271705 -0.263823 -0.25594 -0.24314 -0.23034 -0.213114 -0.195888 -0.174898 -0.153908 -0.129961 -0.106014 -0.0800297 -0.0540455 -0.0270227 -9.5759e-18 0 0.0357965 0.0715931 0.106014 0.140435 0.172157 0.20388 0.231685 0.25949 0.282309 0.305128 0.322084 0.33904 0.349481 0.359923 0.363448 0.366974 0.363448 0.359923 0.349481 0.33904 0.322084 0.305128 0.282309 0.25949 0.231685 0.20388 0.172157 0.140435 0.106014 0.0715931 0.0357965 1.8331e-16 -0.0357965 -0.0715931 -0.106014 -0.140435 -0.172157 -0.20388 -0.231685 -0.25949 -0.282309 -0.305128 -0.322084 -0.33904 -0.349481 -0.359923 -0.363448 -0.366974 -0.363448 -0.359923 -0.349481 -0.33904 -0.322084 -0.305128 -0.282309 -0.25949 -0.231685 -0.20388 -0.172157 -0.140435 -0.106014 -0.0715931 -0.0357965 -1.2685e-17 0 0.0438825 0.0877651 0.129961 0.172157 0.211046 0.249934 0.28402 0.318105 0.346079 0.374052 0.394839 0.415625 0.428425 0.441225 0.445547 0.449869 0.445547 0.441225 0.428425 0.415625 0.394839 0.374052 0.346079 0.318105 0.28402 0.249934 0.211046 0.172157 0.129961 0.0877651 0.0438825 2.33819e-16 -0.0438825 -0.0877651 -0.129961 -0.172157 -0.211046 -0.249934 -0.28402 -0.318105 -0.346079 -0.374052 -0.394839 -0.415625 -0.428425 -0.441225 -0.445547 -0.449869 -0.445547 -0.441225 -0.428425 -0.415625 -0.394839 -0.374052 -0.346079 -0.318105 -0.28402 -0.249934 -0.211046 -0.172157 -0.129961 -0.0877651 -0.0438825 -1.55504e-17 0 0.0519685 0.103937 0.153908 0.20388 0.249934 0.295988 0.336354 0.376721 0.409849 0.442977 0.467593 0.49221 0.507368 0.522527 0.527645 0.532764 0.527645 0.522527 0.507368 0.49221 0.467593 0.442977 0.409849 0.376721 0.336354 0.295988 0.249934 0.20388 0.153908 0.103937 0.0519685 2.84328e-16 -0.0519685 -0.103937 -0.153908 -0.20388 -0.249934 -0.295988 -0.336354 -0.376721 -0.409849 -0.442977 -0.467593 -0.49221 -0.507368 -0.522527 -0.527645 -0.532764 -0.527645 -0.522527 -0.507368 -0.49221 -0.467593 -0.442977 -0.409849 -0.376721 -0.336354 -0.295988 -0.249934 -0.20388 -0.153908 -0.103937 -0.0519685 -1.84158e-17 0 0.059056 0.118112 0.174898 0.231685 0.28402 0.336354 0.382226 0.428098 0.465744 0.50339 0.531363 0.559337 0.576563 0.593789 0.599605 0.605422 0.599605 0.593789 0.576563 0.559337 0.531363 0.50339 0.465744 0.428098 0.382226 0.336354 0.28402 0.231685 0.174898 0.118112 0.059056 3.36741e-16 -0.059056 -0.118112 -0.174898 -0.231685 -0.28402 -0.336354 -0.382226 -0.428098 -0.465744 -0.50339 -0.531363 -0.559337 -0.576563 -0.593789 -0.599605 -0.605422 -0.599605 -0.593789 -0.576563 -0.559337 -0.531363 -0.50339 -0.465744 -0.428098 -0.382226 -0.336354 -0.28402 -0.231685 -0.174898 -0.118112 -0.059056 -2.09273e-17 0 0.0661434 0.132287 0.195888 0.25949 0.318105 0.376721 0.428098 0.479475 0.521639 0.563803 0.595133 0.626464 0.645757 0.665051 0.671565 0.67808 0.671565 0.665051 0.645757 0.626464 0.595133 0.563803 0.521639 0.479475 0.428098 0.376721 0.318105 0.25949 0.195888 0.132287 0.0661434 3.89154e-16 -0.0661434 -0.132287 -0.195888 -0.25949 -0.318105 -0.376721 -0.428098 -0.479475 -0.521639 -0.563803 -0.595133 -0.626464 -0.645757 -0.665051 -0.671565 -0.67808 -0.671565 -0.665051 -0.645757 -0.626464 -0.595133 -0.563803 -0.521639 -0.479475 -0.428098 -0.376721 -0.318105 -0.25949 -0.195888 -0.132287 -0.0661434 -2.34389e-17 0 0.0719599 0.14392 0.213114 0.282309 0.346079 0.409849 0.465744 0.521639 0.56751 0.613382 0.647468 0.681554 0.702544 0.723534 0.730621 0.737709 0.730621 0.723534 0.702544 0.681554 0.647468 0.613382 0.56751 0.521639 0.465744 0.409849 0.346079 0.282309 0.213114 0.14392 0.0719599 4.38317e-16 -0.0719599 -0.14392 -0.213114 -0.282309 -0.346079 -0.409849 -0.465744 -0.521639 -0.56751 -0.613382 -0.647468 -0.681554 -0.702544 -0.723534 -0.730621 -0.737709 -0.730621 -0.723534 -0.702544 -0.681554 -0.647468 -0.613382 -0.56751 -0.521639 -0.465744 -0.409849 -0.346079 -0.282309 -0.213114 -0.14392 -0.0719599 -2.55e-17 0 0.0777764 0.155553 0.23034 0.305128 0.374052 0.442977 0.50339 0.563803 0.613382 0.662962 0.699803 0.736644 0.75933 0.782017 0.789677 0.797337 0.789677 0.782017 0.75933 0.736644 0.699803 0.662962 0.613382 0.563803 0.50339 0.442977 0.374052 0.305128 0.23034 0.155553 0.0777764 4.87481e-16 -0.0777764 -0.155553 -0.23034 -0.305128 -0.374052 -0.442977 -0.50339 -0.563803 -0.613382 -0.662962 -0.699803 -0.736644 -0.75933 -0.782017 -0.789677 -0.797337 -0.789677 -0.782017 -0.75933 -0.736644 -0.699803 -0.662962 -0.613382 -0.563803 -0.50339 -0.442977 -0.374052 -0.305128 -0.23034 -0.155553 -0.0777764 -2.75612e-17 0 0.0820985 0.164197 0.24314 0.322084 0.394839 0.467593 0.531363 0.595133 0.647468 0.699803 0.738691 0.777579 0.801526 0.825474 0.83356 0.841646 0.83356 0.825474 0.801526 0.777579 0.738691 0.699803 0.647468 0.595133 0.531363 0.467593 0.394839 0.322084 0.24314 0.164197 0.0820985 5.39151e-16 -0.0820985 -0.164197 -0.24314 -0.322084 -0.394839 -0.467593 -0.531363 -0.595133 -0.647468 -0.699803 -0.738691 -0.777579 -0.801526 -0.825474 -0.83356 -0.841646 -0.83356 -0.825474 -0.801526 -0.777579 -0.738691 -0.699803 -0.647468 -0.595133 -0.531363 -0.467593 -0.394839 -0.322084 -0.24314 -0.164197 -0.0820985 -2.90928e-17 0 0.0864205 0.172841 0.25594 0.33904 0.415625 0.49221 0.559337 0.626464 0.681554 0.736644 0.777579 0.818515 0.843723 0.868931 0.877442 0.885954 0.877442 0.868931 0.843723 0.818515 0.777579 0.736644 0.681554 0.626464 0.559337 0.49221 0.415625 0.33904 0.25594 0.172841 0.0864205 5.90821e-16 -0.0864205 -0.172841 -0.25594 -0.33904 -0.415625 -0.49221 -0.559337 -0.626464 -0.681554 -0.736644 -0.777579 -0.818515 -0.843723 -0.868931 -0.877442 -0.885954 -0.877442 -0.868931 -0.843723 -0.818515 -0.777579 -0.736644 -0.681554 -0.626464 -0.559337 -0.49221 -0.415625 -0.33904 -0.25594 -0.172841 -0.0864205 -3.06244e-17 0 0.089082 0.178164 0.263823 0.349481 0.428425 0.507368 0.576563 0.645757 0.702544 0.75933 0.801526 0.843723 0.869707 0.895691 0.904465 0.913239 0.904465 0.895691 0.869707 0.843723 0.801526 0.75933 0.702544 0.645757 0.576563 0.507368 0.428425 0.349481 0.263823 0.178164 0.089082 6.2947e-16 -0.089082 -0.178164 -0.263823 -0.349481 -0.428425 -0.507368 -0.576563 -0.645757 -0.702544 -0.75933 -0.801526 -0.843723 -0.869707 -0.895691 -0.904465 -0.913239 -0.904465 -0.895691 -0.869707 -0.843723 -0.801526 -0.75933 -0.702544 -0.645757 -0.576563 -0.507368 -0.428425 -0.349481 -0.263823 -0.178164 -0.089082 -3.15675e-17 0 0.0917435 0.183487 0.271705 0.359923 0.441225 0.522527 0.593789 0.665051 0.723534 0.782017 0.825474 0.868931 0.895691 0.922452 0.931488 0.940524 0.931488 0.922452 0.895691 0.868931 0.825474 0.782017 0.723534 0.665051 0.593789 0.522527 0.441225 0.359923 0.271705 0.183487 0.0917435 6.68119e-16 -0.0917435 -0.183487 -0.271705 -0.359923 -0.441225 -0.522527 -0.593789 -0.665051 -0.723534 -0.782017 -0.825474 -0.868931 -0.895691 -0.922452 -0.931488 -0.940524 -0.931488 -0.922452 -0.895691 -0.868931 -0.825474 -0.782017 -0.723534 -0.665051 -0.593789 -0.522527 -0.441225 -0.359923 -0.271705 -0.183487 -0.0917435 -3.25107e-17 0 0.0926422 0.185284 0.274366 0.363448 0.445547 0.527645 0.599605 0.671565 0.730621 0.789677 0.83356 0.877442 0.904465 0.931488 0.940612 0.949737 0.940612 0.931488 0.904465 0.877442 0.83356 0.789677 0.730621 0.671565 0.599605 0.527645 0.445547 0.363448 0.274366 0.185284 0.0926422 6.74342e-16 -0.0926422 -0.185284 -0.274366 -0.363448 -0.445547 -0.527645 -0.599605 -0.671565 -0.730621 -0.789677 -0.83356 -0.877442 -0.904465 -0.931488 -0.940612 -0.949737 -0.940612 -0.931488 -0.904465 -0.877442 -0.83356 -0.789677 -0.730621 -0.671565 -0.599605 -0.527645 -0.445547 -0.363448 -0.274366 -0.185284 -0.0926422 -3.28291e-17 0 0.0935409 0.187082 0.277028 0.366974 0.449869 0.532764 0.605422 0.67808 0.737709 0.797337 0.841646 0.885954 0.913239 0.940524 0.949737 0.95895 0.949737 0.940524 0.913239 0.885954 0.841646 0.797337 0.737709 0.67808 0.605422 0.532764 0.449869 0.366974 0.277028 0.187082 0.0935409 6.80564e-16 -0.0935409 -0.187082 -0.277028 -0.366974 -0.449869 -0.532764 -0.605422 -0.67808 -0.737709 -0.797337 -0.841646 -0.885954 -0.913239 -0.940524 -0.949737 -0.95895 -0.949737 -0.940524 -0.913239 -0.885954 -0.841646 -0.797337 -0.737709 -0.67808 -0.605422 -0.532764 -0.449869 -0.366974 -0.277028 -0.187082 -0.0935409 -3.31476e-17 0 0.0926422 0.185284 0.274366 0.363448 0.445547 0.527645 0.599605 0.671565 0.730621 0.789677 0.83356 0.877442 0.904465 0.931488 0.940612 0.949737 0.940612 0.931488 0.904465 0.877442 0.83356 0.789677 0.730621 0.671565 0.599605 0.527645 0.445547 0.363448 0.274366 0.185284 0.0926422 6.78031e-16 -0.0926422 -0.185284 -0.274366 -0.363448 -0.445547 -0.527645 -0.599605 -0.671565 -0.730621 -0.789677 -0.83356 -0.877442 -0.904465 -0.931488 -0.940612 -0.949737 -0.940612 -0.931488 -0.904465 -0.877442 -0.83356 -0.789677 -0.730621 -0.671565 -0.599605 -0.527645 -0.445547 -0.363448 -0.274366 -0.185284 -0.0926422 -3.28291e-17 0 0.0917435 0.183487 0.271705 0.359923 0.441225 0.522527 0.593789 0.665051 0.723534 0.782017 0.825474 0.868931 0.895691 0.922452 0.931488 0.940524 0.931488 0.922452 0.895691 0.868931 0.825474 0.782017 0.723534 0.665051 0.593789 0.522527 0.441225 0.359923 0.271705 0.183487 0.0917435 6.75498e-16 -0.0917435 -0.183487 -0.271705 -0.359923 -0.441225 -0.522527 -0.593789 -0.665051 -0.723534 -0.782017 -0.825474 -0.868931 -0.895691 -0.922452 -0.931488 -0.940524 -0.931488 -0.922452 -0.895691 -0.868931 -0.825474 -0.782017 -0.723534 -0.665051 -0.593789 -0.522527 -0.441225 -0.359923 -0.271705 -0.183487 -0.0917435 -3.25107e-17 0 0.089082 0.178164 0.263823 0.349481 0.428425 0.507368 0.576563 0.645757 0.702544 0.75933 0.801526 0.843723 0.869707 0.895691 0.904465 0.913239 0.904465 0.895691 0.869707 0.843723 0.801526 0.75933 0.702544 0.645757 0.576563 0.507368 0.428425 0.349481 0.263823 0.178164 0.089082 6.46265e-16 -0.089082 -0.178164 -0.263823 -0.349481 -0.428425 -0.507368 -0.576563 -0.645757 -0.702544 -0.75933 -0.801526 -0.843723 -0.869707 -0.895691 -0.904465 -0.913239 -0.904465 -0.895691 -0.869707 -0.843723 -0.801526 -0.75933 -0.702544 -0.645757 -0.576563 -0.507368 -0.428425 -0.349481 -0.263823 -0.178164 -0.089082 -3.15675e-17 0 0.0864205 0.172841 0.25594 0.33904 0.415625 0.49221 0.559337 0.626464 0.681554 0.736644 0.777579 0.818515 0.843723 0.868931 0.877442 0.885954 0.877442 0.868931 0.843723 0.818515 0.777579 0.736644 0.681554 0.626464 0.559337 0.49221 0.415625 0.33904 0.25594 0.172841 0.0864205 6.17033e-16 -0.0864205 -0.172841 -0.25594 -0.33904 -0.415625 -0.49221 -0.559337 -0.626464 -0.681554 -0.736644 -0.777579 -0.818515 -0.843723 -0.868931 -0.877442 -0.885954 -0.877442 -0.868931 -0.843723 -0.818515 -0.777579 -0.736644 -0.681554 -0.626464 -0.559337 -0.49221 -0.415625 -0.33904 -0.25594 -0.172841 -0.0864205 -3.06244e-17 0 0.0820985 0.164197 0.24314 0.322084 0.394839 0.467593 0.531363 0.595133 0.647468 0.699803 0.738691 0.777579 0.801526 0.825474 0.83356 0.841646 0.83356 0.825474 0.801526 0.777579 0.738691 0.699803 0.647468 0.595133 0.531363 0.467593 0.394839 0.322084 0.24314 0.164197 0.0820985 5.64809e-16 -0.0820985 -0.164197 -0.24314 -0.322084 -0.394839 -0.467593 -0.531363 -0.595133 -0.647468 -0.699803 -0.738691 -0.777579 -0.801526 -0.825474 -0.83356 -0.841646 -0.83356 -0.825474 -0.801526 -0.777579 -0.738691 -0.699803 -0.647468 -0.595133 -0.531363 -0.467593 -0.394839 -0.322084 -0.24314 -0.164197 -0.0820985 -2.90928e-17 0 0.0777764 0.155553 0.23034 0.305128 0.374052 0.442977 0.50339 0.563803 0.613382 0.662962 0.699803 0.736644 0.75933 0.782017 0.789677 0.797337 0.789677 0.782017 0.75933 0.736644 0.699803 0.662962 0.613382 0.563803 0.50339 0.442977 0.374052 0.305128 0.23034 0.155553 0.0777764 5.12586e-16 -0.0777764 -0.155553 -0.23034 -0.305128 -0.374052 -0.442977 -0.50339 -0.563803 -0.613382 -0.662962 -0.699803 -0.736644 -0.75933 -0.782017 -0.789677 -0.797337 -0.789677 -0.782017 -0.75933 -0.736644 -0.699803 -0.662962 -0.613382 -0.563803 -0.50339 -0.442977 -0.374052 -0.305128 -0.23034 -0.155553 -0.0777764 -2.75612e-17 0 0.0719599 0.14392 0.213114 0.282309 0.346079 0.409849 0.465744 0.521639 0.56751 0.613382 0.647468 0.681554 0.702544 0.723534 0.730621 0.737709 0.730621 0.723534 0.702544 0.681554 0.647468 0.613382 0.56751 0.521639 0.465744 0.409849 0.346079 0.282309 0.213114 0.14392 0.0719599 4.64234e-16 -0.0719599 -0.14392 -0.213114 -0.282309 -0.346079 -0.409849 -0.465744 -0.521639 -0.56751 -0.613382 -0.647468 -0.681554 -0.702544 -0.723534 -0.730621 -0.737709 -0.730621 -0.723534 -0.702544 -0.681554 -0.647468 -0.613382 -0.56751 -0.521639 -0.465744 -0.409849 -0.346079 -0.282309 -0.213114 -0.14392 -0.0719599 -2.55e-17 0 0.0661434 0.132287 0.195888 0.25949 0.318105 0.376721 0.428098 0.479475 0.521639 0.563803 0.595133 0.626464 0.645757 0.665051 0.671565 0.67808 0.671565 0.665051 0.645757 0.626464 0.595133 0.563803 0.521639 0.479475 0.428098 0.376721 0.318105 0.25949 0.195888 0.132287 0.0661434 4.15881e-16 -0.0661434 -0.132287 -0.195888 -0.25949 -0.318105 -0.376721 -0.428098 -0.479475 -0.521639 -0.563803 -0.595133 -0.626464 -0.645757 -0.665051 -0.671565 -0.67808 -0.671565 -0.665051 -0.645757 -0.626464 -0.595133 -0.563803 -0.521639 -0.479475 -0.428098 -0.376721 -0.318105 -0.25949 -0.195888 -0.132287 -0.0661434 -2.34389e-17 0 0.059056 0.118112 0.174898 0.231685 0.28402 0.336354 0.382226 0.428098 0.465744 0.50339 0.531363 0.559337 0.576563 0.593789 0.599605 0.605422 0.599605 0.593789 0.576563 0.559337 0.531363 0.50339 0.465744 0.428098 0.382226 0.336354 0.28402 0.231685 0.174898 0.118112 0.059056 3.56852e-16 -0.059056 -0.118112 -0.174898 -0.231685 -0.28402 -0.336354 -0.382226 -0.428098 -0.465744 -0.50339 -0.531363 -0.559337 -0.576563 -0.593789 -0.599605 -0.605422 -0.599605 -0.593789 -0.576563 -0.559337 -0.531363 -0.50339 -0.465744 -0.428098 -0.382226 -0.336354 -0.28402 -0.231685 -0.174898 -0.118112 -0.059056 -2.09273e-17 0 0.0519685 0.103937 0.153908 0.20388 0.249934 0.295988 0.336354 0.376721 0.409849 0.442977 0.467593 0.49221 0.507368 0.522527 0.527645 0.532764 0.527645 0.522527 0.507368 0.49221 0.467593 0.442977 0.409849 0.376721 0.336354 0.295988 0.249934 0.20388 0.153908 0.103937 0.0519685 2.97823e-16 -0.0519685 -0.103937 -0.153908 -0.20388 -0.249934 -0.295988 -0.336354 -0.376721 -0.409849 -0.442977 -0.467593 -0.49221 -0.507368 -0.522527 -0.527645 -0.532764 -0.527645 -0.522527 -0.507368 -0.49221 -0.467593 -0.442977 -0.409849 -0.376721 -0.336354 -0.295988 -0.249934 -0.20388 -0.153908 -0.103937 -0.0519685 -1.84158e-17 0 0.0438825 0.0877651 0.129961 0.172157 0.211046 0.249934 0.28402 0.318105 0.346079 0.374052 0.394839 0.415625 0.428425 0.441225 0.445547 0.449869 0.445547 0.441225 0.428425 0.415625 0.394839 0.374052 0.346079 0.318105 0.28402 0.249934 0.211046 0.172157 0.129961 0.0877651 0.0438825 2.44873e-16 -0.0438825 -0.0877651 -0.129961 -0.172157 -0.211046 -0.249934 -0.28402 -0.318105 -0.346079 -0.374052 -0.394839 -0.415625 -0.428425 -0.441225 -0.445547 -0.449869 -0.445547 -0.441225 -0.428425 -0.415625 -0.394839 -0.374052 -0.346079 -0.318105 -0.28402 -0.249934 -0.211046 -0.172157 -0.129961 -0.0877651 -0.0438825 -1.55504e-17 0 0.0357965 0.0715931 0.106014 0.140435 0.172157 0.20388 0.231685 0.25949 0.282309 0.305128 0.322084 0.33904 0.349481 0.359923 0.363448 0.366974 0.363448 0.359923 0.349481 0.33904 0.322084 0.305128 0.282309 0.25949 0.231685 0.20388 0.172157 0.140435 0.106014 0.0715931 0.0357965 1.91923e-16 -0.0357965 -0.0715931 -0.106014 -0.140435 -0.172157 -0.20388 -0.231685 -0.25949 -0.282309 -0.305128 -0.322084 -0.33904 -0.349481 -0.359923 -0.363448 -0.366974 -0.363448 -0.359923 -0.349481 -0.33904 -0.322084 -0.305128 -0.282309 -0.25949 -0.231685 -0.20388 -0.172157 -0.140435 -0.106014 -0.0715931 -0.0357965 -1.2685e-17 0 0.0270227 0.0540455 0.0800297 0.106014 0.129961 0.153908 0.174898 0.195888 0.213114 0.23034 0.24314 0.25594 0.263823 0.271705 0.274366 0.277028 0.274366 0.271705 0.263823 0.25594 0.24314 0.23034 0.213114 0.195888 0.174898 0.153908 0.129961 0.106014 0.0800297 0.0540455 0.0270227 1.48833e-16 -0.0270227 -0.0540455 -0.0800297 -0.106014 -0.129961 -0.153908 -0.174898 -0.195888 -0.213114 -0.23034 -0.24314 -0.25594 -0.263823 -0.271705 -0.274366 -0.277028 -0.274366 -0.271705 -0.263823 -0.25594 -0.24314 -0.23034 -0.213114 -0.195888 -0.174898 -0.153908 -0.129961 -0.106014 -0.0800297 -0.0540455 -0.0270227 -9.5759e-18 0 0.0182489 0.0364978 0.0540455 0.0715931 0.0877651 0.103937 0.118112 0.132287 0.14392 0.155553 0.164197 0.172841 0.178164 0.183487 0.185284 0.187082 0.185284 0.183487 0.178164 0.172841 0.164197 0.155553 0.14392 0.132287 0.118112 0.103937 0.0877651 0.0715931 0.0540455 0.0364978 0.0182489 1.05743e-16 -0.0182489 -0.0364978 -0.0540455 -0.0715931 -0.0877651 -0.103937 -0.118112 -0.132287 -0.14392 -0.155553 -0.164197 -0.172841 -0.178164 -0.183487 -0.185284 -0.187082 -0.185284 -0.183487 -0.178164 -0.172841 -0.164197 -0.155553 -0.14392 -0.132287 -0.118112 -0.103937 -0.0877651 -0.0715931 -0.0540455 -0.0364978 -0.0182489 -6.46677e-18 0 0.00912446 0.0182489 0.0270227 0.0357965 0.0438825 0.0519685 0.059056 0.0661434 0.0719599 0.0777764 0.0820985 0.0864205 0.089082 0.0917435 0.0926422 0.0935409 0.0926422 0.0917435 0.089082 0.0864205 0.0820985 0.0777764 0.0719599 0.0661434 0.059056 0.0519685 0.0438825 0.0357965 0.0270227 0.0182489 0.00912446 6.16877e-17 -0.00912446 -0.0182489 -0.0270227 -0.0357965 -0.0438825 -0.0519685 -0.059056 -0.0661434 -0.0719599 -0.0777764 -0.0820985 -0.0864205 -0.089082 -0.0917435 -0.0926422 -0.0935409 -0.0926422 -0.0917435 -0.089082 -0.0864205 -0.0820985 -0.0777764 -0.0719599 -0.0661434 -0.059056 -0.0519685 -0.0438825 -0.0357965 -0.0270227 -0.0182489 -0.00912446 -3.23339e-18 0 3.05499e-17 6.10997e-17 9.70861e-17 1.33072e-16 1.63626e-16 1.9418e-16 2.55498e-16 3.16816e-16 3.06598e-16 2.9638e-16 2.9218e-16 2.87981e-16 3.12632e-16 3.37283e-16 3.45005e-16 3.52726e-16 3.40024e-16 3.27323e-16 3.27695e-16 3.28067e-16 3.00474e-16 2.72881e-16 2.48419e-16 2.23957e-16 2.11675e-16 1.99392e-16 1.7146e-16 1.43529e-16 1.14124e-16 8.47195e-17 5.11757e-17 1.7632e-17 -1.94354e-17 -5.65028e-17 -9.59851e-17 -1.35467e-16 -1.59914e-16 -1.84361e-16 -1.95055e-16 -2.05749e-16 -2.30897e-16 -2.56044e-16 -2.82215e-16 -3.08386e-16 -3.27678e-16 -3.4697e-16 -3.75871e-16 -4.04773e-16 -3.50873e-16 -2.96973e-16 -2.68164e-16 -2.39355e-16 -2.34404e-16 -2.29454e-16 -2.13743e-16 -1.98033e-16 -1.8338e-16 -1.68727e-16 -1.49305e-16 -1.29882e-16 -1.01897e-16 -7.39125e-17 -3.69562e-17 -4.05941e-33 0 -0.00912446 -0.0182489 -0.0270227 -0.0357965 -0.0438825 -0.0519685 -0.059056 -0.0661434 -0.0719599 -0.0777764 -0.0820985 -0.0864205 -0.089082 -0.0917435 -0.0926422 -0.0935409 -0.0926422 -0.0917435 -0.089082 -0.0864205 -0.0820985 -0.0777764 -0.0719599 -0.0661434 -0.059056 -0.0519685 -0.0438825 -0.0357965 -0.0270227 -0.0182489 -0.00912446 -2.17998e-17 0.00912446 0.0182489 0.0270227 0.0357965 0.0438825 0.0519685 0.059056 0.0661434 0.0719599 0.0777764 0.0820985 0.0864205 0.089082 0.0917435 0.0926422 0.0935409 0.0926422 0.0917435 0.089082 0.0864205 0.0820985 0.0777764 0.0719599 0.0661434 0.059056 0.0519685 0.0438825 0.0357965 0.0270227 0.0182489 0.00912446 3.23339e-18 -0 -0.0182489 -0.0364978 -0.0540455 -0.0715931 -0.0877651 -0.103937 -0.118112 -0.132287 -0.14392 -0.155553 -0.164197 -0.172841 -0.178164 -0.183487 -0.185284 -0.187082 -0.185284 -0.183487 -0.178164 -0.172841 -0.164197 -0.155553 -0.14392 -0.132287 -0.118112 -0.103937 -0.0877651 -0.0715931 -0.0540455 -0.0364978 -0.0182489 -6.12316e-17 0.0182489 0.0364978 0.0540455 0.0715931 0.0877651 0.103937 0.118112 0.132287 0.14392 0.155553 0.164197 0.172841 0.178164 0.183487 0.185284 0.187082 0.185284 0.183487 0.178164 0.172841 0.164197 0.155553 0.14392 0.132287 0.118112 0.103937 0.0877651 0.0715931 0.0540455 0.0364978 0.0182489 6.46677e-18 -0 -0.0270227 -0.0540455 -0.0800297 -0.106014 -0.129961 -0.153908 -0.174898 -0.195888 -0.213114 -0.23034 -0.24314 -0.25594 -0.263823 -0.271705 -0.274366 -0.277028 -0.274366 -0.271705 -0.263823 -0.25594 -0.24314 -0.23034 -0.213114 -0.195888 -0.174898 -0.153908 -0.129961 -0.106014 -0.0800297 -0.0540455 -0.0270227 -9.45531e-17 0.0270227 0.0540455 0.0800297 0.106014 0.129961 0.153908 0.174898 0.195888 0.213114 0.23034 0.24314 0.25594 0.263823 0.271705 0.274366 0.277028 0.274366 0.271705 0.263823 0.25594 0.24314 0.23034 0.213114 0.195888 0.174898 0.153908 0.129961 0.106014 0.0800297 0.0540455 0.0270227 9.5759e-18 -0 -0.0357965 -0.0715931 -0.106014 -0.140435 -0.172157 -0.20388 -0.231685 -0.25949 -0.282309 -0.305128 -0.322084 -0.33904 -0.349481 -0.359923 -0.363448 -0.366974 -0.363448 -0.359923 -0.349481 -0.33904 -0.322084 -0.305128 -0.282309 -0.25949 -0.231685 -0.20388 -0.172157 -0.140435 -0.106014 -0.0715931 -0.0357965 -1.27875e-16 0.0357965 0.0715931 0.106014 0.140435 0.172157 0.20388 0.231685 0.25949 0.282309 0.305128 0.322084 0.33904 0.349481 0.359923 0.363448 0.366974 0.363448 0.359923 0.349481 0.33904 0.322084 0.305128 0.282309 0.25949 0.231685 0.20388 0.172157 0.140435 0.106014 0.0715931 0.0357965 1.2685e-17 -0 -0.0438825 -0.0877651 -0.129961 -0.172157 -0.211046 -0.249934 -0.28402 -0.318105 -0.346079 -0.374052 -0.394839 -0.415625 -0.428425 -0.441225 -0.445547 -0.449869 -0.445547 -0.441225 -0.428425 -0.415625 -0.394839 -0.374052 -0.346079 -0.318105 -0.28402 -0.249934 -0.211046 -0.172157 -0.129961 -0.0877651 -0.0438825 -1.6438e-16 0.0438825 0.0877651 0.129961 0.172157 0.211046 0.249934 0.28402 0.318105 0.346079 0.374052 0.394839 0.415625 0.428425 0.441225 0.445547 0.449869 0.445547 0.441225 0.428425 0.415625 0.394839 0.374052 0.346079 0.318105 0.28402 0.249934 0.211046 0.172157 0.129961 0.0877651 0.0438825 1.55504e-17 -0 -0.0519685 -0.103937 -0.153908 -0.20388 -0.249934 -0.295988 -0.336354 -0.376721 -0.409849 -0.442977 -0.467593 -0.49221 -0.507368 -0.522527 -0.527645 -0.532764 -0.527645 -0.522527 -0.507368 -0.49221 -0.467593 -0.442977 -0.409849 -0.376721 -0.336354 -0.295988 -0.249934 -0.20388 -0.153908 -0.103937 -0.0519685 -2.00886e-16 0.0519685 0.103937 0.153908 0.20388 0.249934 0.295988 0.336354 0.376721 0.409849 0.442977 0.467593 0.49221 0.507368 0.522527 0.527645 0.532764 0.527645 0.522527 0.507368 0.49221 0.467593 0.442977 0.409849 0.376721 0.336354 0.295988 0.249934 0.20388 0.153908 0.103937 0.0519685 1.84158e-17 -0 -0.059056 -0.118112 -0.174898 -0.231685 -0.28402 -0.336354 -0.382226 -0.428098 -0.465744 -0.50339 -0.531363 -0.559337 -0.576563 -0.593789 -0.599605 -0.605422 -0.599605 -0.593789 -0.576563 -0.559337 -0.531363 -0.50339 -0.465744 -0.428098 -0.382226 -0.336354 -0.28402 -0.231685 -0.174898 -0.118112 -0.059056 -2.06635e-16 0.059056 0.118112 0.174898 0.231685 0.28402 0.336354 0.382226 0.428098 0.465744 0.50339 0.531363 0.559337 0.576563 0.593789 0.599605 0.605422 0.599605 0.593789 0.576563 0.559337 0.531363 0.50339 0.465744 0.428098 0.382226 0.336354 0.28402 0.231685 0.174898 0.118112 0.059056 2.09273e-17 -0 -0.0661434 -0.132287 -0.195888 -0.25949 -0.318105 -0.376721 -0.428098 -0.479475 -0.521639 -0.563803 -0.595133 -0.626464 -0.645757 -0.665051 -0.671565 -0.67808 -0.671565 -0.665051 -0.645757 -0.626464 -0.595133 -0.563803 -0.521639 -0.479475 -0.428098 -0.376721 -0.318105 -0.25949 -0.195888 -0.132287 -0.0661434 -2.12384e-16 0.0661434 0.132287 0.195888 0.25949 0.318105 0.376721 0.428098 0.479475 0.521639 0.563803 0.595133 0.626464 0.645757 0.665051 0.671565 0.67808 0.671565 0.665051 0.645757 0.626464 0.595133 0.563803 0.521639 0.479475 0.428098 0.376721 0.318105 0.25949 0.195888 0.132287 0.0661434 2.34389e-17 -0 -0.0719599 -0.14392 -0.213114 -0.282309 -0.346079 -0.409849 -0.465744 -0.521639 -0.56751 -0.613382 -0.647468 -0.681554 -0.702544 -0.723534 -0.730621 -0.737709 -0.730621 -0.723534 -0.702544 -0.681554 -0.647468 -0.613382 -0.56751 -0.521639 -0.465744 -0.409849 -0.346079 -0.282309 -0.213114 -0.14392 -0.0719599 -2.4227e-16 0.0719599 0.14392 0.213114 0.282309 0.346079 0.409849 0.465744 0.521639 0.56751 0.613382 0.647468 0.681554 0.702544 0.723534 0.730621 0.737709 0.730621 0.723534 0.702544 0.681554 0.647468 0.613382 0.56751 0.521639 0.465744 0.409849 0.346079 0.282309 0.213114 0.14392 0.0719599 2.55e-17 -0 -0.0777764 -0.155553 -0.23034 -0.305128 -0.374052 -0.442977 -0.50339 -0.563803 -0.613382 -0.662962 -0.699803 -0.736644 -0.75933 -0.782017 -0.789677 -0.797337 -0.789677 -0.782017 -0.75933 -0.736644 -0.699803 -0.662962 -0.613382 -0.563803 -0.50339 -0.442977 -0.374052 -0.305128 -0.23034 -0.155553 -0.0777764 -2.72155e-16 0.0777764 0.155553 0.23034 0.305128 0.374052 0.442977 0.50339 0.563803 0.613382 0.662962 0.699803 0.736644 0.75933 0.782017 0.789677 0.797337 0.789677 0.782017 0.75933 0.736644 0.699803 0.662962 0.613382 0.563803 0.50339 0.442977 0.374052 0.305128 0.23034 0.155553 0.0777764 2.75612e-17 -0 -0.0820985 -0.164197 -0.24314 -0.322084 -0.394839 -0.467593 -0.531363 -0.595133 -0.647468 -0.699803 -0.738691 -0.777579 -0.801526 -0.825474 -0.83356 -0.841646 -0.83356 -0.825474 -0.801526 -0.777579 -0.738691 -0.699803 -0.647468 -0.595133 -0.531363 -0.467593 -0.394839 -0.322084 -0.24314 -0.164197 -0.0820985 -2.824e-16 0.0820985 0.164197 0.24314 0.322084 0.394839 0.467593 0.531363 0.595133 0.647468 0.699803 0.738691 0.777579 0.801526 0.825474 0.83356 0.841646 0.83356 0.825474 0.801526 0.777579 0.738691 0.699803 0.647468 0.595133 0.531363 0.467593 0.394839 0.322084 0.24314 0.164197 0.0820985 2.90928e-17 -0 -0.0864205 -0.172841 -0.25594 -0.33904 -0.415625 -0.49221 -0.559337 -0.626464 -0.681554 -0.736644 -0.777579 -0.818515 -0.843723 -0.868931 -0.877442 -0.885954 -0.877442 -0.868931 -0.843723 -0.818515 -0.777579 -0.736644 -0.681554 -0.626464 -0.559337 -0.49221 -0.415625 -0.33904 -0.25594 -0.172841 -0.0864205 -2.92645e-16 0.0864205 0.172841 0.25594 0.33904 0.415625 0.49221 0.559337 0.626464 0.681554 0.736644 0.777579 0.818515 0.843723 0.868931 0.877442 0.885954 0.877442 0.868931 0.843723 0.818515 0.777579 0.736644 0.681554 0.626464 0.559337 0.49221 0.415625 0.33904 0.25594 0.172841 0.0864205 3.06244e-17 -0 -0.089082 -0.178164 -0.263823 -0.349481 -0.428425 -0.507368 -0.576563 -0.645757 -0.702544 -0.75933 -0.801526 -0.843723 -0.869707 -0.895691 -0.904465 -0.913239 -0.904465 -0.895691 -0.869707 -0.843723 -0.801526 -0.75933 -0.702544 -0.645757 -0.576563 -0.507368 -0.428425 -0.349481 -0.263823 -0.178164 -0.089082 -2.96891e-16 0.089082 0.178164 0.263823 0.349481 0.428425 0.507368 0.576563 0.645757 0.702544 0.75933 0.801526 0.843723 0.869707 0.895691 0.904465 0.913239 0.904465 0.895691 0.869707 0.843723 0.801526 0.75933 0.702544 0.645757 0.576563 0.507368 0.428425 0.349481 0.263823 0.178164 0.089082 3.15675e-17 -0 -0.0917435 -0.183487 -0.271705 -0.359923 -0.441225 -0.522527 -0.593789 -0.665051 -0.723534 -0.782017 -0.825474 -0.868931 -0.895691 -0.922452 -0.931488 -0.940524 -0.931488 -0.922452 -0.895691 -0.868931 -0.825474 -0.782017 -0.723534 -0.665051 -0.593789 -0.522527 -0.441225 -0.359923 -0.271705 -0.183487 -0.0917435 -3.01138e-16 0.0917435 0.183487 0.271705 0.359923 0.441225 0.522527 0.593789 0.665051 0.723534 0.782017 0.825474 0.868931 0.895691 0.922452 0.931488 0.940524 0.931488 0.922452 0.895691 0.868931 0.825474 0.782017 0.723534 0.665051 0.593789 0.522527 0.441225 0.359923 0.271705 0.183487 0.0917435 3.25107e-17 -0 -0.0926422 -0.185284 -0.274366 -0.363448 -0.445547 -0.527645 -0.599605 -0.671565 -0.730621 -0.789677 -0.83356 -0.877442 -0.904465 -0.931488 -0.940612 -0.949737 -0.940612 -0.931488 -0.904465 -0.877442 -0.83356 -0.789677 -0.730621 -0.671565 -0.599605 -0.527645 -0.445547 -0.363448 -0.274366 -0.185284 -0.0926422 -3.1946e-16 0.0926422 0.185284 0.274366 0.363448 0.445547 0.527645 0.599605 0.671565 0.730621 0.789677 0.83356 0.877442 0.904465 0.931488 0.940612 0.949737 0.940612 0.931488 0.904465 0.877442 0.83356 0.789677 0.730621 0.671565 0.599605 0.527645 0.445547 0.363448 0.274366 0.185284 0.0926422 3.28291e-17 -0 -0.0935409 -0.187082 -0.277028 -0.366974 -0.449869 -0.532764 -0.605422 -0.67808 -0.737709 -0.797337 -0.841646 -0.885954 -0.913239 -0.940524 -0.949737 -0.95895 -0.949737 -0.940524 -0.913239 -0.885954 -0.841646 -0.797337 -0.737709 -0.67808 -0.605422 -0.532764 -0.449869 -0.366974 -0.277028 -0.187082 -0.0935409 -3.37783e-16 0.0935409 0.187082 0.277028 0.366974 0.449869 0.53