<?xml version="1.0"?> 
<VTKFile type="StructuredGrid" version="0.1"> 
<StructuredGrid WholeExtent="0 64 0 64 0 0"> 
<Piece Extent="0 64 0 64 0 0"> 
<PointData>
<DataArray type="Float32" Name="u" format="ascii" NumberOfComponents="1"> 
0 0 0 0 0 0 0 0 0 0 0 0 0 0 0 0 0 0 0 0 0 0 0 0 0 0 0 0 0 0 0 0 0 0 -0 -0 -0 -0 -0 -0 -0 -0 -0 -0 -0 -0 -0 -0 -0 -0 -0 -0 -0 -0 -0 -0 -0 -0 -0 -0 -0 -0 -0 -0 -0 0 0.0064951 0.0129902 0.0192357 0.0254812 0.0312371 0.036993 0.042038 0.0470831 0.0512235 0.0553639 0.0584405 0.0615171 0.0634116 0.0653062 0.0659459 0.0665856 0.0659459 0.0653062 0.0634116 0.0615171 0.0584405 0.0553639 0.0512235 0.0470831 0.042038 0.036993 0.0312371 0.0254812 0.0192357 0.0129902 0.0064951 3.20195e-17 -0.0064951 -0.0129902 -0.0192357 -0.0254812 -0.0312371 -0.036993 -0.042038 -0.0470831 -0.0512235 -0.0553639 -0.0584405 -0.0615171 -0.0634116 -0.0653062 -0.0659459 -0.0665856 -0.0659459 -0.0653062 -0.0634116 -0.0615171 -0.0584405 -0.0553639 -0.0512235 -0.0470831 -0.042038 -0.036993 -0.0312371 -0.0254812 -0.0192357 -0.0129902 -0.0064951 -3.23339e-18 0 0.0129902 0.0259804 0.0384714 0.0509624 0.0624742 0.0739859 0.0840761 0.0941662 0.102447 0.110728 0.116881 0.123034 0.126823 0.130612 0.131892 0.133171 0.131892 0.130612 0.126823 0.123034 0.116881 0.110728 0.102447 0.0941662 0.0840761 0.0739859 0.0624742 0.0509624 0.0384714 0.0259804 0.0129902 6.40389e-17 -0.0129902 -0.0259804 -0.0384714 -0.0509624 -0.0624742 -0.0739859 -0.0840761 -0.0941662 -0.102447 -0.110728 -0.116881 -0.123034 -0.126823 -0.130612 -0.131892 -0.133171 -0.131892 -0.130612 -0.126823 -0.123034 -0.116881 -0.110728 -0.102447 -0.0941662 -0.0840761 -0.0739859 -0.0624742 -0.0509624 -0.0384714 -0.0259804 -0.0129902 -6.46677e-18 0 0.0192357 0.0384714 0.0569679 0.0754644 0.0925108 0.109557 0.124499 0.13944 0.151702 0.163964 0.173076 0.182187 0.187798 0.193409 0.195303 0.197198 0.195303 0.193409 0.187798 0.182187 0.173076 0.163964 0.151702 0.13944 0.124499 0.109557 0.0925108 0.0754644 0.0569679 0.0384714 0.0192357 9.67213e-17 -0.0192357 -0.0384714 -0.0569679 -0.0754644 -0.0925108 -0.109557 -0.124499 -0.13944 -0.151702 -0.163964 -0.173076 -0.182187 -0.187798 -0.193409 -0.195303 -0.197198 -0.195303 -0.193409 -0.187798 -0.182187 -0.173076 -0.163964 -0.151702 -0.13944 -0.124499 -0.109557 -0.0925108 -0.0754644 -0.0569679 -0.0384714 -0.0192357 -9.5759e-18 0 0.0254812 0.0509624 0.0754644 0.0999663 0.122547 0.145129 0.164921 0.184714 0.200957 0.2172 0.22927 0.24134 0.248773 0.256205 0.258715 0.261225 0.258715 0.256205 0.248773 0.24134 0.22927 0.2172 0.200957 0.184714 0.164921 0.145129 0.122547 0.0999663 0.0754644 0.0509624 0.0254812 1.29404e-16 -0.0254812 -0.0509624 -0.0754644 -0.0999663 -0.122547 -0.145129 -0.164921 -0.184714 -0.200957 -0.2172 -0.22927 -0.24134 -0.248773 -0.256205 -0.258715 -0.261225 -0.258715 -0.256205 -0.248773 -0.24134 -0.22927 -0.2172 -0.200957 -0.184714 -0.164921 -0.145129 -0.122547 -0.0999663 -0.0754644 -0.0509624 -0.0254812 -1.2685e-17 0 0.0312371 0.0624742 0.0925108 0.122547 0.150229 0.177911 0.202175 0.226438 0.246351 0.266263 0.281059 0.295856 0.304967 0.314079 0.317155 0.320232 0.317155 0.314079 0.304967 0.295856 0.281059 0.266263 0.246351 0.226438 0.202175 0.177911 0.150229 0.122547 0.0925108 0.0624742 0.0312371 1.67923e-16 -0.0312371 -0.0624742 -0.0925108 -0.122547 -0.150229 -0.177911 -0.202175 -0.226438 -0.246351 -0.266263 -0.281059 -0.295856 -0.304967 -0.314079 -0.317155 -0.320232 -0.317155 -0.314079 -0.304967 -0.295856 -0.281059 -0.266263 -0.246351 -0.226438 -0.202175 -0.177911 -0.150229 -0.122547 -0.0925108 -0.0624742 -0.0312371 -1.55504e-17 0 0.036993 0.0739859 0.109557 0.145129 0.177911 0.210694 0.239428 0.268163 0.291744 0.315326 0.332849 0.350372 0.361162 0.371952 0.375596 0.379239 0.375596 0.371952 0.361162 0.350372 0.332849 0.315326 0.291744 0.268163 0.239428 0.210694 0.177911 0.145129 0.109557 0.0739859 0.036993 2.06443e-16 -0.036993 -0.0739859 -0.109557 -0.145129 -0.177911 -0.210694 -0.239428 -0.268163 -0.291744 -0.315326 -0.332849 -0.350372 -0.361162 -0.371952 -0.375596 -0.379239 -0.375596 -0.371952 -0.361162 -0.350372 -0.332849 -0.315326 -0.291744 -0.268163 -0.239428 -0.210694 -0.177911 -0.145129 -0.109557 -0.0739859 -0.036993 -1.84158e-17 0 0.042038 0.0840761 0.124499 0.164921 0.202175 0.239428 0.272082 0.304735 0.331532 0.35833 0.378242 0.398155 0.410417 0.422679 0.426819 0.43096 0.426819 0.422679 0.410417 0.398155 0.378242 0.35833 0.331532 0.304735 0.272082 0.239428 0.202175 0.164921 0.124499 0.0840761 0.042038 2.3828e-16 -0.042038 -0.0840761 -0.124499 -0.164921 -0.202175 -0.239428 -0.272082 -0.304735 -0.331532 -0.35833 -0.378242 -0.398155 -0.410417 -0.422679 -0.426819 -0.43096 -0.426819 -0.422679 -0.410417 -0.398155 -0.378242 -0.35833 -0.331532 -0.304735 -0.272082 -0.239428 -0.202175 -0.164921 -0.124499 -0.0840761 -0.042038 -2.09273e-17 0 0.0470831 0.0941662 0.13944 0.184714 0.226438 0.268163 0.304735 0.341306 0.37132 0.401334 0.423636 0.445938 0.459672 0.473406 0.478043 0.48268 0.478043 0.473406 0.459672 0.445938 0.423636 0.401334 0.37132 0.341306 0.304735 0.268163 0.226438 0.184714 0.13944 0.0941662 0.0470831 2.70117e-16 -0.0470831 -0.0941662 -0.13944 -0.184714 -0.226438 -0.268163 -0.304735 -0.341306 -0.37132 -0.401334 -0.423636 -0.445938 -0.459672 -0.473406 -0.478043 -0.48268 -0.478043 -0.473406 -0.459672 -0.445938 -0.423636 -0.401334 -0.37132 -0.341306 -0.304735 -0.268163 -0.226438 -0.184714 -0.13944 -0.0941662 -0.0470831 -2.34389e-17 0 0.0512235 0.102447 0.151702 0.200957 0.246351 0.291744 0.331532 0.37132 0.403973 0.436626 0.46089 0.485153 0.500095 0.515036 0.520081 0.525126 0.520081 0.515036 0.500095 0.485153 0.46089 0.436626 0.403973 0.37132 0.331532 0.291744 0.246351 0.200957 0.151702 0.102447 0.0512235 3.08056e-16 -0.0512235 -0.102447 -0.151702 -0.200957 -0.246351 -0.291744 -0.331532 -0.37132 -0.403973 -0.436626 -0.46089 -0.485153 -0.500095 -0.515036 -0.520081 -0.525126 -0.520081 -0.515036 -0.500095 -0.485153 -0.46089 -0.436626 -0.403973 -0.37132 -0.331532 -0.291744 -0.246351 -0.200957 -0.151702 -0.102447 -0.0512235 -2.55e-17 0 0.0553639 0.110728 0.163964 0.2172 0.266263 0.315326 0.35833 0.401334 0.436626 0.471919 0.498143 0.524368 0.540517 0.556666 0.562119 0.567572 0.562119 0.556666 0.540517 0.524368 0.498143 0.471919 0.436626 0.401334 0.35833 0.315326 0.266263 0.2172 0.163964 0.110728 0.0553639 3.45996e-16 -0.0553639 -0.110728 -0.163964 -0.2172 -0.266263 -0.315326 -0.35833 -0.401334 -0.436626 -0.471919 -0.498143 -0.524368 -0.540517 -0.556666 -0.562119 -0.567572 -0.562119 -0.556666 -0.540517 -0.524368 -0.498143 -0.471919 -0.436626 -0.401334 -0.35833 -0.315326 -0.266263 -0.2172 -0.163964 -0.110728 -0.0553639 -2.75612e-17 0 0.0584405 0.116881 0.173076 0.22927 0.281059 0.332849 0.378242 0.423636 0.46089 0.498143 0.525825 0.553507 0.570554 0.5876 0.593356 0.599112 0.593356 0.5876 0.570554 0.553507 0.525825 0.498143 0.46089 0.423636 0.378242 0.332849 0.281059 0.22927 0.173076 0.116881 0.0584405 3.71441e-16 -0.0584405 -0.116881 -0.173076 -0.22927 -0.281059 -0.332849 -0.378242 -0.423636 -0.46089 -0.498143 -0.525825 -0.553507 -0.570554 -0.5876 -0.593356 -0.599112 -0.593356 -0.5876 -0.570554 -0.553507 -0.525825 -0.498143 -0.46089 -0.423636 -0.378242 -0.332849 -0.281059 -0.22927 -0.173076 -0.116881 -0.0584405 -2.90928e-17 0 0.0615171 0.123034 0.182187 0.24134 0.295856 0.350372 0.398155 0.445938 0.485153 0.524368 0.553507 0.582647 0.60059 0.618534 0.624593 0.630652 0.624593 0.618534 0.60059 0.582647 0.553507 0.524368 0.485153 0.445938 0.398155 0.350372 0.295856 0.24134 0.182187 0.123034 0.0615171 3.96886e-16 -0.0615171 -0.123034 -0.182187 -0.24134 -0.295856 -0.350372 -0.398155 -0.445938 -0.485153 -0.524368 -0.553507 -0.582647 -0.60059 -0.618534 -0.624593 -0.630652 -0.624593 -0.618534 -0.60059 -0.582647 -0.553507 -0.524368 -0.485153 -0.445938 -0.398155 -0.350372 -0.295856 -0.24134 -0.182187 -0.123034 -0.0615171 -3.06244e-17 0 0.0634116 0.126823 0.187798 0.248773 0.304967 0.361162 0.410417 0.459672 0.500095 0.540517 0.570554 0.60059 0.619087 0.637583 0.643829 0.650074 0.643829 0.637583 0.619087 0.60059 0.570554 0.540517 0.500095 0.459672 0.410417 0.361162 0.304967 0.248773 0.187798 0.126823 0.0634116 4.2408e-16 -0.0634116 -0.126823 -0.187798 -0.248773 -0.304967 -0.361162 -0.410417 -0.459672 -0.500095 -0.540517 -0.570554 -0.60059 -0.619087 -0.637583 -0.643829 -0.650074 -0.643829 -0.637583 -0.619087 -0.60059 -0.570554 -0.540517 -0.500095 -0.459672 -0.410417 -0.361162 -0.304967 -0.248773 -0.187798 -0.126823 -0.0634116 -3.15675e-17 0 0.0653062 0.130612 0.193409 0.256205 0.314079 0.371952 0.422679 0.473406 0.515036 0.556666 0.5876 0.618534 0.637583 0.656632 0.663065 0.669497 0.663065 0.656632 0.637583 0.618534 0.5876 0.556666 0.515036 0.473406 0.422679 0.371952 0.314079 0.256205 0.193409 0.130612 0.0653062 4.51274e-16 -0.0653062 -0.130612 -0.193409 -0.256205 -0.314079 -0.371952 -0.422679 -0.473406 -0.515036 -0.556666 -0.5876 -0.618534 -0.637583 -0.656632 -0.663065 -0.669497 -0.663065 -0.656632 -0.637583 -0.618534 -0.5876 -0.556666 -0.515036 -0.473406 -0.422679 -0.371952 -0.314079 -0.256205 -0.193409 -0.130612 -0.0653062 -3.25107e-17 0 0.0659459 0.131892 0.195303 0.258715 0.317155 0.375596 0.426819 0.478043 0.520081 0.562119 0.593356 0.624593 0.643829 0.663065 0.66956 0.676055 0.66956 0.663065 0.643829 0.624593 0.593356 0.562119 0.520081 0.478043 0.426819 0.375596 0.317155 0.258715 0.195303 0.131892 0.0659459 4.68863e-16 -0.0659459 -0.131892 -0.195303 -0.258715 -0.317155 -0.375596 -0.426819 -0.478043 -0.520081 -0.562119 -0.593356 -0.624593 -0.643829 -0.663065 -0.66956 -0.676055 -0.66956 -0.663065 -0.643829 -0.624593 -0.593356 -0.562119 -0.520081 -0.478043 -0.426819 -0.375596 -0.317155 -0.258715 -0.195303 -0.131892 -0.0659459 -3.28291e-17 0 0.0665856 0.133171 0.197198 0.261225 0.320232 0.379239 0.43096 0.48268 0.525126 0.567572 0.599112 0.630652 0.650074 0.669497 0.676055 0.682613 0.676055 0.669497 0.650074 0.630652 0.599112 0.567572 0.525126 0.48268 0.43096 0.379239 0.320232 0.261225 0.197198 0.133171 0.0665856 4.86452e-16 -0.0665856 -0.133171 -0.197198 -0.261225 -0.320232 -0.379239 -0.43096 -0.48268 -0.525126 -0.567572 -0.599112 -0.630652 -0.650074 -0.669497 -0.676055 -0.682613 -0.676055 -0.669497 -0.650074 -0.630652 -0.599112 -0.567572 -0.525126 -0.48268 -0.43096 -0.379239 -0.320232 -0.261225 -0.197198 -0.133171 -0.0665856 -3.31476e-17 0 0.0659459 0.131892 0.195303 0.258715 0.317155 0.375596 0.426819 0.478043 0.520081 0.562119 0.593356 0.624593 0.643829 0.663065 0.66956 0.676055 0.66956 0.663065 0.643829 0.624593 0.593356 0.562119 0.520081 0.478043 0.426819 0.375596 0.317155 0.258715 0.195303 0.131892 0.0659459 4.98824e-16 -0.0659459 -0.131892 -0.195303 -0.258715 -0.317155 -0.375596 -0.426819 -0.478043 -0.520081 -0.562119 -0.593356 -0.624593 -0.643829 -0.663065 -0.66956 -0.676055 -0.66956 -0.663065 -0.643829 -0.624593 -0.593356 -0.562119 -0.520081 -0.478043 -0.426819 -0.375596 -0.317155 -0.258715 -0.195303 -0.131892 -0.0659459 -3.28291e-17 0 0.0653062 0.130612 0.193409 0.256205 0.314079 0.371952 0.422679 0.473406 0.515036 0.556666 0.5876 0.618534 0.637583 0.656632 0.663065 0.669497 0.663065 0.656632 0.637583 0.618534 0.5876 0.556666 0.515036 0.473406 0.422679 0.371952 0.314079 0.256205 0.193409 0.130612 0.0653062 5.11195e-16 -0.0653062 -0.130612 -0.193409 -0.256205 -0.314079 -0.371952 -0.422679 -0.473406 -0.515036 -0.556666 -0.5876 -0.618534 -0.637583 -0.656632 -0.663065 -0.669497 -0.663065 -0.656632 -0.637583 -0.618534 -0.5876 -0.556666 -0.515036 -0.473406 -0.422679 -0.371952 -0.314079 -0.256205 -0.193409 -0.130612 -0.0653062 -3.25107e-17 0 0.0634116 0.126823 0.187798 0.248773 0.304967 0.361162 0.410417 0.459672 0.500095 0.540517 0.570554 0.60059 0.619087 0.637583 0.643829 0.650074 0.643829 0.637583 0.619087 0.60059 0.570554 0.540517 0.500095 0.459672 0.410417 0.361162 0.304967 0.248773 0.187798 0.126823 0.0634116 5.04232e-16 -0.0634116 -0.126823 -0.187798 -0.248773 -0.304967 -0.361162 -0.410417 -0.459672 -0.500095 -0.540517 -0.570554 -0.60059 -0.619087 -0.637583 -0.643829 -0.650074 -0.643829 -0.637583 -0.619087 -0.60059 -0.570554 -0.540517 -0.500095 -0.459672 -0.410417 -0.361162 -0.304967 -0.248773 -0.187798 -0.126823 -0.0634116 -3.15675e-17 0 0.0615171 0.123034 0.182187 0.24134 0.295856 0.350372 0.398155 0.445938 0.485153 0.524368 0.553507 0.582647 0.60059 0.618534 0.624593 0.630652 0.624593 0.618534 0.60059 0.582647 0.553507 0.524368 0.485153 0.445938 0.398155 0.350372 0.295856 0.24134 0.182187 0.123034 0.0615171 4.97268e-16 -0.0615171 -0.123034 -0.182187 -0.24134 -0.295856 -0.350372 -0.398155 -0.445938 -0.485153 -0.524368 -0.553507 -0.582647 -0.60059 -0.618534 -0.624593 -0.630652 -0.624593 -0.618534 -0.60059 -0.582647 -0.553507 -0.524368 -0.485153 -0.445938 -0.398155 -0.350372 -0.295856 -0.24134 -0.182187 -0.123034 -0.0615171 -3.06244e-17 0 0.0584405 0.116881 0.173076 0.22927 0.281059 0.332849 0.378242 0.423636 0.46089 0.498143 0.525825 0.553507 0.570554 0.5876 0.593356 0.599112 0.593356 0.5876 0.570554 0.553507 0.525825 0.498143 0.46089 0.423636 0.378242 0.332849 0.281059 0.22927 0.173076 0.116881 0.0584405 4.55727e-16 -0.0584405 -0.116881 -0.173076 -0.22927 -0.281059 -0.332849 -0.378242 -0.423636 -0.46089 -0.498143 -0.525825 -0.553507 -0.570554 -0.5876 -0.593356 -0.599112 -0.593356 -0.5876 -0.570554 -0.553507 -0.525825 -0.498143 -0.46089 -0.423636 -0.378242 -0.332849 -0.281059 -0.22927 -0.173076 -0.116881 -0.0584405 -2.90928e-17 0 0.0553639 0.110728 0.163964 0.2172 0.266263 0.315326 0.35833 0.401334 0.436626 0.471919 0.498143 0.524368 0.540517 0.556666 0.562119 0.567572 0.562119 0.556666 0.540517 0.524368 0.498143 0.471919 0.436626 0.401334 0.35833 0.315326 0.266263 0.2172 0.163964 0.110728 0.0553639 4.14185e-16 -0.0553639 -0.110728 -0.163964 -0.2172 -0.266263 -0.315326 -0.35833 -0.401334 -0.436626 -0.471919 -0.498143 -0.524368 -0.540517 -0.556666 -0.562119 -0.567572 -0.562119 -0.556666 -0.540517 -0.524368 -0.498143 -0.471919 -0.436626 -0.401334 -0.35833 -0.315326 -0.266263 -0.2172 -0.163964 -0.110728 -0.0553639 -2.75612e-17 0 0.0512235 0.102447 0.151702 0.200957 0.246351 0.291744 0.331532 0.37132 0.403973 0.436626 0.46089 0.485153 0.500095 0.515036 0.520081 0.525126 0.520081 0.515036 0.500095 0.485153 0.46089 0.436626 0.403973 0.37132 0.331532 0.291744 0.246351 0.200957 0.151702 0.102447 0.0512235 3.7069e-16 -0.0512235 -0.102447 -0.151702 -0.200957 -0.246351 -0.291744 -0.331532 -0.37132 -0.403973 -0.436626 -0.46089 -0.485153 -0.500095 -0.515036 -0.520081 -0.525126 -0.520081 -0.515036 -0.500095 -0.485153 -0.46089 -0.436626 -0.403973 -0.37132 -0.331532 -0.291744 -0.246351 -0.200957 -0.151702 -0.102447 -0.0512235 -2.55e-17 0 0.0470831 0.0941662 0.13944 0.184714 0.226438 0.268163 0.304735 0.341306 0.37132 0.401334 0.423636 0.445938 0.459672 0.473406 0.478043 0.48268 0.478043 0.473406 0.459672 0.445938 0.423636 0.401334 0.37132 0.341306 0.304735 0.268163 0.226438 0.184714 0.13944 0.0941662 0.0470831 3.27194e-16 -0.0470831 -0.0941662 -0.13944 -0.184714 -0.226438 -0.268163 -0.304735 -0.341306 -0.37132 -0.401334 -0.423636 -0.445938 -0.459672 -0.473406 -0.478043 -0.48268 -0.478043 -0.473406 -0.459672 -0.445938 -0.423636 -0.401334 -0.37132 -0.341306 -0.304735 -0.268163 -0.226438 -0.184714 -0.13944 -0.0941662 -0.0470831 -2.34389e-17 0 0.042038 0.0840761 0.124499 0.164921 0.202175 0.239428 0.272082 0.304735 0.331532 0.35833 0.378242 0.398155 0.410417 0.422679 0.426819 0.43096 0.426819 0.422679 0.410417 0.398155 0.378242 0.35833 0.331532 0.304735 0.272082 0.239428 0.202175 0.164921 0.124499 0.0840761 0.042038 3.05062e-16 -0.042038 -0.0840761 -0.124499 -0.164921 -0.202175 -0.239428 -0.272082 -0.304735 -0.331532 -0.35833 -0.378242 -0.398155 -0.410417 -0.422679 -0.426819 -0.43096 -0.426819 -0.422679 -0.410417 -0.398155 -0.378242 -0.35833 -0.331532 -0.304735 -0.272082 -0.239428 -0.202175 -0.164921 -0.124499 -0.0840761 -0.042038 -2.09273e-17 0 0.036993 0.0739859 0.109557 0.145129 0.177911 0.210694 0.239428 0.268163 0.291744 0.315326 0.332849 0.350372 0.361162 0.371952 0.375596 0.379239 0.375596 0.371952 0.361162 0.350372 0.332849 0.315326 0.291744 0.268163 0.239428 0.210694 0.177911 0.145129 0.109557 0.0739859 0.036993 2.82929e-16 -0.036993 -0.0739859 -0.109557 -0.145129 -0.177911 -0.210694 -0.239428 -0.268163 -0.291744 -0.315326 -0.332849 -0.350372 -0.361162 -0.371952 -0.375596 -0.379239 -0.375596 -0.371952 -0.361162 -0.350372 -0.332849 -0.315326 -0.291744 -0.268163 -0.239428 -0.210694 -0.177911 -0.145129 -0.109557 -0.0739859 -0.036993 -1.84158e-17 0 0.0312371 0.0624742 0.0925108 0.122547 0.150229 0.177911 0.202175 0.226438 0.246351 0.266263 0.281059 0.295856 0.304967 0.314079 0.317155 0.320232 0.317155 0.314079 0.304967 0.295856 0.281059 0.266263 0.246351 0.226438 0.202175 0.177911 0.150229 0.122547 0.0925108 0.0624742 0.0312371 2.49401e-16 -0.0312371 -0.0624742 -0.0925108 -0.122547 -0.150229 -0.177911 -0.202175 -0.226438 -0.246351 -0.266263 -0.281059 -0.295856 -0.304967 -0.314079 -0.317155 -0.320232 -0.317155 -0.314079 -0.304967 -0.295856 -0.281059 -0.266263 -0.246351 -0.226438 -0.202175 -0.177911 -0.150229 -0.122547 -0.0925108 -0.0624742 -0.0312371 -1.55504e-17 0 0.0254812 0.0509624 0.0754644 0.0999663 0.122547 0.145129 0.164921 0.184714 0.200957 0.2172 0.22927 0.24134 0.248773 0.256205 0.258715 0.261225 0.258715 0.256205 0.248773 0.24134 0.22927 0.2172 0.200957 0.184714 0.164921 0.145129 0.122547 0.0999663 0.0754644 0.0509624 0.0254812 2.15873e-16 -0.0254812 -0.0509624 -0.0754644 -0.0999663 -0.122547 -0.145129 -0.164921 -0.184714 -0.200957 -0.2172 -0.22927 -0.24134 -0.248773 -0.256205 -0.258715 -0.261225 -0.258715 -0.256205 -0.248773 -0.24134 -0.22927 -0.2172 -0.200957 -0.184714 -0.164921 -0.145129 -0.122547 -0.0999663 -0.0754644 -0.0509624 -0.0254812 -1.2685e-17 0 0.0192357 0.0384714 0.0569679 0.0754644 0.0925108 0.109557 0.124499 0.13944 0.151702 0.163964 0.173076 0.182187 0.187798 0.193409 0.195303 0.197198 0.195303 0.193409 0.187798 0.182187 0.173076 0.163964 0.151702 0.13944 0.124499 0.109557 0.0925108 0.0754644 0.0569679 0.0384714 0.0192357 1.78394e-16 -0.0192357 -0.0384714 -0.0569679 -0.0754644 -0.0925108 -0.109557 -0.124499 -0.13944 -0.151702 -0.163964 -0.173076 -0.182187 -0.187798 -0.193409 -0.195303 -0.197198 -0.195303 -0.193409 -0.187798 -0.182187 -0.173076 -0.163964 -0.151702 -0.13944 -0.124499 -0.109557 -0.0925108 -0.0754644 -0.0569679 -0.0384714 -0.0192357 -9.5759e-18 0 0.0129902 0.0259804 0.0384714 0.0509624 0.0624742 0.0739859 0.0840761 0.0941662 0.102447 0.110728 0.116881 0.123034 0.126823 0.130612 0.131892 0.133171 0.131892 0.130612 0.126823 0.123034 0.116881 0.110728 0.102447 0.0941662 0.0840761 0.0739859 0.0624742 0.0509624 0.0384714 0.0259804 0.0129902 1.40915e-16 -0.0129902 -0.0259804 -0.0384714 -0.0509624 -0.0624742 -0.0739859 -0.0840761 -0.0941662 -0.102447 -0.110728 -0.116881 -0.123034 -0.126823 -0.130612 -0.131892 -0.133171 -0.131892 -0.130612 -0.126823 -0.123034 -0.116881 -0.110728 -0.102447 -0.0941662 -0.0840761 -0.0739859 -0.0624742 -0.0509624 -0.0384714 -0.0259804 -0.0129902 -6.46677e-18 0 0.0064951 0.0129902 0.0192357 0.0254812 0.0312371 0.036993 0.042038 0.0470831 0.0512235 0.0553639 0.0584405 0.0615171 0.0634116 0.0653062 0.0659459 0.0665856 0.0659459 0.0653062 0.0634116 0.0615171 0.0584405 0.0553639 0.0512235 0.0470831 0.042038 0.036993 0.0312371 0.0254812 0.0192357 0.0129902 0.0064951 1.17804e-16 -0.0064951 -0.0129902 -0.0192357 -0.0254812 -0.0312371 -0.036993 -0.042038 -0.0470831 -0.0512235 -0.0553639 -0.0584405 -0.0615171 -0.0634116 -0.0653062 -0.0659459 -0.0665856 -0.0659459 -0.0653062 -0.0634116 -0.0615171 -0.0584405 -0.0553639 -0.0512235 -0.0470831 -0.042038 -0.036993 -0.0312371 -0.0254812 -0.0192357 -0.0129902 -0.0064951 -3.23339e-18 0 2.71711e-17 5.43422e-17 9.61815e-17 1.38021e-16 1.63347e-16 1.88672e-16 2.27586e-16 2.665e-16 2.98685e-16 3.30869e-16 3.32232e-16 3.33594e-16 3.54587e-16 3.7558e-16 3.75365e-16 3.7515e-16 3.88904e-16 4.02659e-16 3.74793e-16 3.46927e-16 3.55768e-16 3.64608e-16 3.28895e-16 2.93181e-16 2.73106e-16 2.5303e-16 2.27772e-16 2.02513e-16 1.74367e-16 1.4622e-16 1.20457e-16 9.46939e-17 6.64823e-17 3.82706e-17 5.73179e-18 -2.6807e-17 -5.48013e-17 -8.27957e-17 -1.15678e-16 -1.4856e-16 -1.63358e-16 -1.78156e-16 -1.99258e-16 -2.20359e-16 -2.20655e-16 -2.20951e-16 -2.57791e-16 -2.94632e-16 -2.58943e-16 -2.23255e-16 -2.05708e-16 -1.88162e-16 -1.84624e-16 -1.81087e-16 -1.63202e-16 -1.45318e-16 -1.39587e-16 -1.33856e-16 -1.07456e-16 -8.10558e-17 -6.11233e-17 -4.11909e-17 -2.05954e-17 -4.05941e-33 0 -0.0064951 -0.0129902 -0.0192357 -0.0254812 -0.0312371 -0.036993 -0.042038 -0.0470831 -0.0512235 -0.0553639 -0.0584405 -0.0615171 -0.0634116 -0.0653062 -0.0659459 -0.0665856 -0.0659459 -0.0653062 -0.0634116 -0.0615171 -0.0584405 -0.0553639 -0.0512235 -0.0470831 -0.042038 -0.036993 -0.0312371 -0.0254812 -0.0192357 -0.0129902 -0.0064951 6.63592e-17 0.0064951 0.0129902 0.0192357 0.0254812 0.0312371 0.036993 0.042038 0.0470831 0.0512235 0.0553639 0.0584405 0.0615171 0.0634116 0.0653062 0.0659459 0.0665856 0.0659459 0.0653062 0.0634116 0.0615171 0.0584405 0.0553639 0.0512235 0.0470831 0.042038 0.036993 0.0312371 0.0254812 0.0192357 0.0129902 0.0064951 3.23339e-18 -0 -0.0129902 -0.0259804 -0.0384714 -0.0509624 -0.0624742 -0.0739859 -0.0840761 -0.0941662 -0.102447 -0.110728 -0.116881 -0.123034 -0.126823 -0.130612 -0.131892 -0.133171 -0.131892 -0.130612 -0.126823 -0.123034 -0.116881 -0.110728 -0.102447 -0.0941662 -0.0840761 -0.0739859 -0.0624742 -0.0509624 -0.0384714 -0.0259804 -0.0129902 3.80244e-17 0.0129902 0.0259804 0.0384714 0.0509624 0.0624742 0.0739859 0.0840761 0.0941662 0.102447 0.110728 0.116881 0.123034 0.126823 0.130612 0.131892 0.133171 0.131892 0.130612 0.126823 0.123034 0.116881 0.110728 0.102447 0.0941662 0.0840761 0.0739859 0.0624742 0.0509624 0.0384714 0.0259804 0.0129902 6.46677e-18 -0 -0.0192357 -0.0384714 -0.0569679 -0.0754644 -0.0925108 -0.109557 -0.124499 -0.13944 -0.151702 -0.163964 -0.173076 -0.182187 -0.187798 -0.193409 -0.195303 -0.197198 -0.195303 -0.193409 -0.187798 -0.182187 -0.173076 -0.163964 -0.151702 -0.13944 -0.124499 -0.109557 -0.0925108 -0.0754644 -0.0569679 -0.0384714 -0.0192357 1.31429e-17 0.0192357 0.0384714 0.0569679 0.0754644 0.0925108 0.109557 0.124499 0.13944 0.151702 0.163964 0.173076 0.182187 0.187798 0.193409 0.195303 0.197198 0.195303 0.193409 0.187798 0.182187 0.173076 0.163964 0.151702 0.13944 0.124499 0.109557 0.0925108 0.0754644 0.0569679 0.0384714 0.0192357 9.5759e-18 -0 -0.0254812 -0.0509624 -0.0754644 -0.0999663 -0.122547 -0.145129 -0.164921 -0.184714 -0.200957 -0.2172 -0.22927 -0.24134 -0.248773 -0.256205 -0.258715 -0.261225 -0.258715 -0.256205 -0.248773 -0.24134 -0.22927 -0.2172 -0.200957 -0.184714 -0.164921 -0.145129 -0.122547 -0.0999663 -0.0754644 -0.0509624 -0.0254812 -1.17386e-17 0.0254812 0.0509624 0.0754644 0.0999663 0.122547 0.145129 0.164921 0.184714 0.200957 0.2172 0.22927 0.24134 0.248773 0.256205 0.258715 0.261225 0.258715 0.256205 0.248773 0.24134 0.22927 0.2172 0.200957 0.184714 0.164921 0.145129 0.122547 0.0999663 0.0754644 0.0509624 0.0254812 1.2685e-17 -0 -0.0312371 -0.0624742 -0.0925108 -0.122547 -0.150229 -0.177911 -0.202175 -0.226438 -0.246351 -0.266263 -0.281059 -0.295856 -0.304967 -0.314079 -0.317155 -0.320232 -0.317155 -0.314079 -0.304967 -0.295856 -0.281059 -0.266263 -0.246351 -0.226438 -0.202175 -0.177911 -0.150229 -0.122547 -0.0925108 -0.0624742 -0.0312371 -3.44521e-17 0.0312371 0.0624742 0.0925108 0.122547 0.150229 0.177911 0.202175 0.226438 0.246351 0.266263 0.281059 0.295856 0.304967 0.314079 0.317155 0.320232 0.317155 0.314079 0.304967 0.295856 0.281059 0.266263 0.246351 0.226438 0.202175 0.177911 0.150229 0.122547 0.0925108 0.0624742 0.0312371 1.55504e-17 -0 -0.036993 -0.0739859 -0.109557 -0.145129 -0.177911 -0.210694 -0.239428 -0.268163 -0.291744 -0.315326 -0.332849 -0.350372 -0.361162 -0.371952 -0.375596 -0.379239 -0.375596 -0.371952 -0.361162 -0.350372 -0.332849 -0.315326 -0.291744 -0.268163 -0.239428 -0.210694 -0.177911 -0.145129 -0.109557 -0.0739859 -0.036993 -5.71656e-17 0.036993 0.0739859 0.109557 0.145129 0.177911 0.210694 0.239428 0.268163 0.291744 0.315326 0.332849 0.350372 0.361162 0.371952 0.375596 0.379239 0.375596 0.371952 0.361162 0.350372 0.332849 0.315326 0.291744 0.268163 0.239428 0.210694 0.177911 0.145129 0.109557 0.0739859 0.036993 1.84158e-17 -0 -0.042038 -0.0840761 -0.124499 -0.164921 -0.202175 -0.239428 -0.272082 -0.304735 -0.331532 -0.35833 -0.378242 -0.398155 -0.410417 -0.422679 -0.426819 -0.43096 -0.426819 -0.422679 -0.410417 -0.398155 -0.378242 -0.35833 -0.331532 -0.304735 -0.272082 -0.239428 -0.202175 -0.164921 -0.124499 -0.0840761 -0.042038 -6.94524e-17 0.042038 0.0840761 0.124499 0.164921 0.202175 0.239428 0.272082 0.304735 0.331532 0.35833 0.378242 0.398155 0.410417 0.422679 0.426819 0.43096 0.426819 0.422679 0.410417 0.398155 0.378242 0.35833 0.331532 0.304735 0.272082 0.239428 0.202175 0.164921 0.124499 0.0840761 0.042038 2.09273e-17 -0 -0.0470831 -0.0941662 -0.13944 -0.184714 -0.226438 -0.268163 -0.304735 -0.341306 -0.37132 -0.401334 -0.423636 -0.445938 -0.459672 -0.473406 -0.478043 -0.48268 -0.478043 -0.473406 -0.459672 -0.445938 -0.423636 -0.401334 -0.37132 -0.341306 -0.304735 -0.268163 -0.226438 -0.184714 -0.13944 -0.0941662 -0.0470831 -8.17391e-17 0.0470831 0.0941662 0.13944 0.184714 0.226438 0.268163 0.304735 0.341306 0.37132 0.401334 0.423636 0.445938 0.459672 0.473406 0.478043 0.48268 0.478043 0.473406 0.459672 0.445938 0.423636 0.401334 0.37132 0.341306 0.304735 0.268163 0.226438 0.184714 0.13944 0.0941662 0.0470831 2.34389e-17 -0 -0.0512235 -0.102447 -0.151702 -0.200957 -0.246351 -0.291744 -0.331532 -0.37132 -0.403973 -0.436626 -0.46089 -0.485153 -0.500095 -0.515036 -0.520081 -0.525126 -0.520081 -0.515036 -0.500095 -0.485153 -0.46089 -0.436626 -0.403973 -0.37132 -0.331532 -0.291744 -0.246351 -0.200957 -0.151702 -0.102447 -0.0512235 -9.28669e-17 0.0512235 0.102447 0.151702 0.200957 0.246351 0.291744 0.331532 0.37132 0.403973 0.436626 0.46089 0.485153 0.500095 0.515036 0.520081 0.525126 0.520081 0.515036 0.500095 0.485153 0.46089 0.436626 0.403973 0.37132 0.331532 0.291744 0.246351 0.200957 0.151702 0.102447 0.0512235 2.55e-17 -0 -0.0553639 -0.110728 -0.163964 -0.2172 -0.266263 -0.315326 -0.35833 -0.401334 -0.436626 -0.471919 -0.498143 -0.524368 -0.540517 -0.556666 -0.562119 -0.567572 -0.562119 -0.556666 -0.540517 -0.524368 -0.498143 -0.471919 -0.436626 -0.401334 -0.35833 -0.315326 -0.266263 -0.2172 -0.163964 -0.110728 -0.0553639 -1.03995e-16 0.0553639 0.110728 0.163964 0.2172 0.266263 0.315326 0.35833 0.401334 0.436626 0.471919 0.498143 0.524368 0.540517 0.556666 0.562119 0.567572 0.562119 0.556666 0.540517 0.524368 0.498143 0.471919 0.436626 0.401334 0.35833 0.315326 0.266263 0.2172 0.163964 0.110728 0.0553639 2.75612e-17 -0 -0.0584405 -0.116881 -0.173076 -0.22927 -0.281059 -0.332849 -0.378242 -0.423636 -0.46089 -0.498143 -0.525825 -0.553507 -0.570554 -0.5876 -0.593356 -0.599112 -0.593356 -0.5876 -0.570554 -0.553507 -0.525825 -0.498143 -0.46089 -0.423636 -0.378242 -0.332849 -0.281059 -0.22927 -0.173076 -0.116881 -0.0584405 -1.19316e-16 0.0584405 0.116881 0.173076 0.22927 0.281059 0.332849 0.378242 0.423636 0.46089 0.498143 0.525825 0.553507 0.570554 0.5876 0.593356 0.599112 0.593356 0.5876 0.570554 0.553507 0.525825 0.498143 0.46089 0.423636 0.378242 0.332849 0.281059 0.22927 0.173076 0.116881 0.0584405 2.90928e-17 -0 -0.0615171 -0.123034 -0.182187 -0.24134 -0.295856 -0.350372 -0.398155 -0.445938 -0.485153 -0.524368 -0.553507 -0.582647 -0.60059 -0.618534 -0.624593 -0.630652 -0.624593 -0.618534 -0.60059 -0.582647 -0.553507 -0.524368 -0.485153 -0.445938 -0.398155 -0.350372 -0.295856 -0.24134 -0.182187 -0.123034 -0.0615171 -1.34638e-16 0.0615171 0.123034 0.182187 0.24134 0.295856 0.350372 0.398155 0.445938 0.485153 0.524368 0.553507 0.582647 0.60059 0.618534 0.624593 0.630652 0.624593 0.618534 0.60059 0.582647 0.553507 0.524368 0.485153 0.445938 0.398155 0.350372 0.295856 0.24134 0.182187 0.123034 0.0615171 3.06244e-17 -0 -0.0634116 -0.126823 -0.187798 -0.248773 -0.304967 -0.361162 -0.410417 -0.459672 -0.500095 -0.540517 -0.570554 -0.60059 -0.619087 -0.637583 -0.643829 -0.650074 -0.643829 -0.637583 -0.619087 -0.60059 -0.570554 -0.540517 -0.500095 -0.459672 -0.410417 -0.361162 -0.304967 -0.248773 -0.187798 -0.126823 -0.0634116 -1.55028e-16 0.0634116 0.126823 0.187798 0.248773 0.304967 0.361162 0.410417 0.459672 0.500095 0.540517 0.570554 0.60059 0.619087 0.637583 0.643829 0.650074 0.643829 0.637583 0.619087 0.60059 0.570554 0.540517 0.500095 0.459672 0.410417 0.361162 0.304967 0.248773 0.187798 0.126823 0.0634116 3.15675e-17 -0 -0.0653062 -0.130612 -0.193409 -0.256205 -0.314079 -0.371952 -0.422679 -0.473406 -0.515036 -0.556666 -0.5876 -0.618534 -0.637583 -0.656632 -0.663065 -0.669497 -0.663065 -0.656632 -0.637583 -0.618534 -0.5876 -0.556666 -0.515036 -0.473406 -0.422679 -0.371952 -0.314079 -0.256205 -0.193409 -0.130612 -0.0653062 -1.75418e-16 0.0653062 0.130612 0.193409 0.256205 0.314079 0.371952 0.422679 0.473406 0.515036 0.556666 0.5876 0.618534 0.637583 0.656632 0.663065 0.669497 0.663065 0.656632 0.637583 0.618534 0.5876 0.556666 0.515036 0.473406 0.422679 0.371952 0.314079 0.256205 0.193409 0.130612 0.0653062 3.25107e-17 -0 -0.0659459 -0.131892 -0.195303 -0.258715 -0.317155 -0.375596 -0.426819 -0.478043 -0.520081 -0.562119 -0.593356 -0.624593 -0.643829 -0.663065 -0.66956 -0.676055 -0.66956 -0.663065 -0.643829 -0.624593 -0.593356 -0.562119 -0.520081 -0.478043 -0.426819 -0.375596 -0.317155 -0.258715 -0.195303 -0.131892 -0.0659459 -1.82981e-16 0.0659459 0.131892 0.195303 0.258715 0.317155 0.375596 0.426819 0.478043 0.520081 0.562119 0.593356 0.624593 0.643829 0.663065 0.66956 0.676055 0.66956 0.663065 0.643829 0.624593 0.593356 0.562119 0.520081 0.478043 0.426819 0.375596 0.317155 0.258715 0.195303 0.131892 0.0659459 3.28291e-17 -0 -0.0665856 -0.133171 -0.197198 -0.261225 -0.320232 -0.379239 -0.43096 -0.48268 -0.525126 -0.567572 -0.599112 -0.630652 -0.650074 -0.669497 -0.676055 -0.682613 -0.676055 -0.669497 -0.650074 -0.630652 -0.599112 -0.567572 -0.525126 -0.48268 -