<?xml version="1.0"?> 
<VTKFile type="StructuredGrid" version="0.1"> 
<StructuredGrid WholeExtent="0 64 0 64 0 0"> 
<Piece Extent="0 64 0 64 0 0"> 
<PointData>
<DataArray type="Float32" Name="u" format="ascii" NumberOfComponents="1"> 
0 0 0 0 0 0 0 0 0 0 0 0 0 0 0 0 0 0 0 0 0 0 0 0 0 0 0 0 0 0 0 0 0 0 -0 -0 -0 -0 -0 -0 -0 -0 -0 -0 -0 -0 -0 -0 -0 -0 -0 -0 -0 -0 -0 -0 -0 -0 -0 -0 -0 -0 -0 -0 -0 0 0.00689674 0.0137935 0.0204252 0.0270569 0.0331687 0.0392805 0.0446375 0.0499946 0.054391 0.0587874 0.0620542 0.0653211 0.0673328 0.0693445 0.0700237 0.070703 0.0700237 0.0693445 0.0673328 0.0653211 0.0620542 0.0587874 0.054391 0.0499946 0.0446375 0.0392805 0.0331687 0.0270569 0.0204252 0.0137935 0.00689674 4.13482e-17 -0.00689674 -0.0137935 -0.0204252 -0.0270569 -0.0331687 -0.0392805 -0.0446375 -0.0499946 -0.054391 -0.0587874 -0.0620542 -0.0653211 -0.0673328 -0.0693445 -0.0700237 -0.070703 -0.0700237 -0.0693445 -0.0673328 -0.0653211 -0.0620542 -0.0587874 -0.054391 -0.0499946 -0.0446375 -0.0392805 -0.0331687 -0.0270569 -0.0204252 -0.0137935 -0.00689674 -3.23339e-18 0 0.0137935 0.0275869 0.0408503 0.0541137 0.0663374 0.078561 0.0892751 0.0999891 0.108782 0.117575 0.124108 0.130642 0.134666 0.138689 0.140047 0.141406 0.140047 0.138689 0.134666 0.130642 0.124108 0.117575 0.108782 0.0999891 0.0892751 0.078561 0.0663374 0.0541137 0.0408503 0.0275869 0.0137935 8.26964e-17 -0.0137935 -0.0275869 -0.0408503 -0.0541137 -0.0663374 -0.078561 -0.0892751 -0.0999891 -0.108782 -0.117575 -0.124108 -0.130642 -0.134666 -0.138689 -0.140047 -0.141406 -0.140047 -0.138689 -0.134666 -0.130642 -0.124108 -0.117575 -0.108782 -0.0999891 -0.0892751 -0.078561 -0.0663374 -0.0541137 -0.0408503 -0.0275869 -0.0137935 -6.46677e-18 0 0.0204252 0.0408503 0.0604906 0.0801308 0.0982314 0.116332 0.132197 0.148062 0.161083 0.174103 0.183778 0.193453 0.199411 0.205369 0.20738 0.209392 0.20738 0.205369 0.199411 0.193453 0.183778 0.174103 0.161083 0.148062 0.132197 0.116332 0.0982314 0.0801308 0.0604906 0.0408503 0.0204252 1.16514e-16 -0.0204252 -0.0408503 -0.0604906 -0.0801308 -0.0982314 -0.116332 -0.132197 -0.148062 -0.161083 -0.174103 -0.183778 -0.193453 -0.199411 -0.205369 -0.20738 -0.209392 -0.20738 -0.205369 -0.199411 -0.193453 -0.183778 -0.174103 -0.161083 -0.148062 -0.132197 -0.116332 -0.0982314 -0.0801308 -0.0604906 -0.0408503 -0.0204252 -9.5759e-18 0 0.0270569 0.0541137 0.0801308 0.106148 0.130125 0.154103 0.175119 0.196136 0.213384 0.230631 0.243448 0.256264 0.264156 0.272048 0.274713 0.277378 0.274713 0.272048 0.264156 0.256264 0.243448 0.230631 0.213384 0.196136 0.175119 0.154103 0.130125 0.106148 0.0801308 0.0541137 0.0270569 1.50332e-16 -0.0270569 -0.0541137 -0.0801308 -0.106148 -0.130125 -0.154103 -0.175119 -0.196136 -0.213384 -0.230631 -0.243448 -0.256264 -0.264156 -0.272048 -0.274713 -0.277378 -0.274713 -0.272048 -0.264156 -0.256264 -0.243448 -0.230631 -0.213384 -0.196136 -0.175119 -0.154103 -0.130125 -0.106148 -0.0801308 -0.0541137 -0.0270569 -1.2685e-17 0 0.0331687 0.0663374 0.0982314 0.130125 0.159519 0.188913 0.214677 0.24044 0.261584 0.282728 0.298439 0.314151 0.323825 0.3335 0.336767 0.340034 0.336767 0.3335 0.323825 0.314151 0.298439 0.282728 0.261584 0.24044 0.214677 0.188913 0.159519 0.130125 0.0982314 0.0663374 0.0331687 1.89385e-16 -0.0331687 -0.0663374 -0.0982314 -0.130125 -0.159519 -0.188913 -0.214677 -0.24044 -0.261584 -0.282728 -0.298439 -0.314151 -0.323825 -0.3335 -0.336767 -0.340034 -0.336767 -0.3335 -0.323825 -0.314151 -0.298439 -0.282728 -0.261584 -0.24044 -0.214677 -0.188913 -0.159519 -0.130125 -0.0982314 -0.0663374 -0.0331687 -1.55504e-17 0 0.0392805 0.078561 0.116332 0.154103 0.188913 0.223723 0.254234 0.284745 0.309785 0.334825 0.353431 0.372037 0.383495 0.394953 0.398821 0.40269 0.398821 0.394953 0.383495 0.372037 0.353431 0.334825 0.309785 0.284745 0.254234 0.223723 0.188913 0.154103 0.116332 0.078561 0.0392805 2.28439e-16 -0.0392805 -0.078561 -0.116332 -0.154103 -0.188913 -0.223723 -0.254234 -0.284745 -0.309785 -0.334825 -0.353431 -0.372037 -0.383495 -0.394953 -0.398821 -0.40269 -0.398821 -0.394953 -0.383495 -0.372037 -0.353431 -0.334825 -0.309785 -0.284745 -0.254234 -0.223723 -0.188913 -0.154103 -0.116332 -0.078561 -0.0392805 -1.84158e-17 0 0.0446375 0.0892751 0.132197 0.175119 0.214677 0.254234 0.288906 0.323578 0.352033 0.380488 0.401632 0.422775 0.435796 0.448816 0.453212 0.457609 0.453212 0.448816 0.435796 0.422775 0.401632 0.380488 0.352033 0.323578 0.288906 0.254234 0.214677 0.175119 0.132197 0.0892751 0.0446375 2.55469e-16 -0.0446375 -0.0892751 -0.132197 -0.175119 -0.214677 -0.254234 -0.288906 -0.323578 -0.352033 -0.380488 -0.401632 -0.422775 -0.435796 -0.448816 -0.453212 -0.457609 -0.453212 -0.448816 -0.435796 -0.422775 -0.401632 -0.380488 -0.352033 -0.323578 -0.288906 -0.254234 -0.214677 -0.175119 -0.132197 -0.0892751 -0.0446375 -2.09273e-17 0 0.0499946 0.0999891 0.148062 0.196136 0.24044 0.284745 0.323578 0.362412 0.394281 0.426151 0.449832 0.473514 0.488097 0.502679 0.507603 0.512527 0.507603 0.502679 0.488097 0.473514 0.449832 0.426151 0.394281 0.362412 0.323578 0.284745 0.24044 0.196136 0.148062 0.0999891 0.0499946 2.82499e-16 -0.0499946 -0.0999891 -0.148062 -0.196136 -0.24044 -0.284745 -0.323578 -0.362412 -0.394281 -0.426151 -0.449832 -0.473514 -0.488097 -0.502679 -0.507603 -0.512527 -0.507603 -0.502679 -0.488097 -0.473514 -0.449832 -0.426151 -0.394281 -0.362412 -0.323578 -0.284745 -0.24044 -0.196136 -0.148062 -0.0999891 -0.0499946 -2.34389e-17 0 0.054391 0.108782 0.161083 0.213384 0.261584 0.309785 0.352033 0.394281 0.428954 0.463626 0.48939 0.515153 0.531019 0.546884 0.552241 0.557598 0.552241 0.546884 0.531019 0.515153 0.48939 0.463626 0.428954 0.394281 0.352033 0.309785 0.261584 0.213384 0.161083 0.108782 0.054391 3.21602e-16 -0.054391 -0.108782 -0.161083 -0.213384 -0.261584 -0.309785 -0.352033 -0.394281 -0.428954 -0.463626 -0.48939 -0.515153 -0.531019 -0.546884 -0.552241 -0.557598 -0.552241 -0.546884 -0.531019 -0.515153 -0.48939 -0.463626 -0.428954 -0.394281 -0.352033 -0.309785 -0.261584 -0.213384 -0.161083 -0.108782 -0.054391 -2.55e-17 0 0.0587874 0.117575 0.174103 0.230631 0.282728 0.334825 0.380488 0.426151 0.463626 0.501101 0.528947 0.556793 0.573941 0.591088 0.596878 0.602669 0.596878 0.591088 0.573941 0.556793 0.528947 0.501101 0.463626 0.426151 0.380488 0.334825 0.282728 0.230631 0.174103 0.117575 0.0587874 3.60704e-16 -0.0587874 -0.117575 -0.174103 -0.230631 -0.282728 -0.334825 -0.380488 -0.426151 -0.463626 -0.501101 -0.528947 -0.556793 -0.573941 -0.591088 -0.596878 -0.602669 -0.596878 -0.591088 -0.573941 -0.556793 -0.528947 -0.501101 -0.463626 -0.426151 -0.380488 -0.334825 -0.282728 -0.230631 -0.174103 -0.117575 -0.0587874 -2.75612e-17 0 0.0620542 0.124108 0.183778 0.243448 0.298439 0.353431 0.401632 0.449832 0.48939 0.528947 0.558341 0.587734 0.605835 0.623935 0.630047 0.636159 0.630047 0.623935 0.605835 0.587734 0.558341 0.528947 0.48939 0.449832 0.401632 0.353431 0.298439 0.243448 0.183778 0.124108 0.0620542 4.05363e-16 -0.0620542 -0.124108 -0.183778 -0.243448 -0.298439 -0.353431 -0.401632 -0.449832 -0.48939 -0.528947 -0.558341 -0.587734 -0.605835 -0.623935 -0.630047 -0.636159 -0.630047 -0.623935 -0.605835 -0.587734 -0.558341 -0.528947 -0.48939 -0.449832 -0.401632 -0.353431 -0.298439 -0.243448 -0.183778 -0.124108 -0.0620542 -2.90928e-17 0 0.0653211 0.130642 0.193453 0.256264 0.314151 0.372037 0.422775 0.473514 0.515153 0.556793 0.587734 0.618675 0.637729 0.656782 0.663216 0.669649 0.663216 0.656782 0.637729 0.618675 0.587734 0.556793 0.515153 0.473514 0.422775 0.372037 0.314151 0.256264 0.193453 0.130642 0.0653211 4.50022e-16 -0.0653211 -0.130642 -0.193453 -0.256264 -0.314151 -0.372037 -0.422775 -0.473514 -0.515153 -0.556793 -0.587734 -0.618675 -0.637729 -0.656782 -0.663216 -0.669649 -0.663216 -0.656782 -0.637729 -0.618675 -0.587734 -0.556793 -0.515153 -0.473514 -0.422775 -0.372037 -0.314151 -0.256264 -0.193453 -0.130642 -0.0653211 -3.06244e-17 0 0.0673328 0.134666 0.199411 0.264156 0.323825 0.383495 0.435796 0.488097 0.531019 0.573941 0.605835 0.637729 0.657369 0.677009 0.683641 0.690273 0.683641 0.677009 0.657369 0.637729 0.605835 0.573941 0.531019 0.488097 0.435796 0.383495 0.323825 0.264156 0.199411 0.134666 0.0673328 4.7488e-16 -0.0673328 -0.134666 -0.199411 -0.264156 -0.323825 -0.383495 -0.435796 -0.488097 -0.531019 -0.573941 -0.605835 -0.637729 -0.657369 -0.677009 -0.683641 -0.690273 -0.683641 -0.677009 -0.657369 -0.637729 -0.605835 -0.573941 -0.531019 -0.488097 -0.435796 -0.383495 -0.323825 -0.264156 -0.199411 -0.134666 -0.0673328 -3.15675e-17 0 0.0693445 0.138689 0.205369 0.272048 0.3335 0.394953 0.448816 0.502679 0.546884 0.591088 0.623935 0.656782 0.677009 0.697236 0.704066 0.710896 0.704066 0.697236 0.677009 0.656782 0.623935 0.591088 0.546884 0.502679 0.448816 0.394953 0.3335 0.272048 0.205369 0.138689 0.0693445 4.99738e-16 -0.0693445 -0.138689 -0.205369 -0.272048 -0.3335 -0.394953 -0.448816 -0.502679 -0.546884 -0.591088 -0.623935 -0.656782 -0.677009 -0.697236 -0.704066 -0.710896 -0.704066 -0.697236 -0.677009 -0.656782 -0.623935 -0.591088 -0.546884 -0.502679 -0.448816 -0.394953 -0.3335 -0.272048 -0.205369 -0.138689 -0.0693445 -3.25107e-17 0 0.0700237 0.140047 0.20738 0.274713 0.336767 0.398821 0.453212 0.507603 0.552241 0.596878 0.630047 0.663216 0.683641 0.704066 0.710963 0.71786 0.710963 0.704066 0.683641 0.663216 0.630047 0.596878 0.552241 0.507603 0.453212 0.398821 0.336767 0.274713 0.20738 0.140047 0.0700237 5.21786e-16 -0.0700237 -0.140047 -0.20738 -0.274713 -0.336767 -0.398821 -0.453212 -0.507603 -0.552241 -0.596878 -0.630047 -0.663216 -0.683641 -0.704066 -0.710963 -0.71786 -0.710963 -0.704066 -0.683641 -0.663216 -0.630047 -0.596878 -0.552241 -0.507603 -0.453212 -0.398821 -0.336767 -0.274713 -0.20738 -0.140047 -0.0700237 -3.28291e-17 0 0.070703 0.141406 0.209392 0.277378 0.340034 0.40269 0.457609 0.512527 0.557598 0.602669 0.636159 0.669649 0.690273 0.710896 0.71786 0.724823 0.71786 0.710896 0.690273 0.669649 0.636159 0.602669 0.557598 0.512527 0.457609 0.40269 0.340034 0.277378 0.209392 0.141406 0.070703 5.43834e-16 -0.070703 -0.141406 -0.209392 -0.277378 -0.340034 -0.40269 -0.457609 -0.512527 -0.557598 -0.602669 -0.636159 -0.669649 -0.690273 -0.710896 -0.71786 -0.724823 -0.71786 -0.710896 -0.690273 -0.669649 -0.636159 -0.602669 -0.557598 -0.512527 -0.457609 -0.40269 -0.340034 -0.277378 -0.209392 -0.141406 -0.070703 -3.31476e-17 0 0.0700237 0.140047 0.20738 0.274713 0.336767 0.398821 0.453212 0.507603 0.552241 0.596878 0.630047 0.663216 0.683641 0.704066 0.710963 0.71786 0.710963 0.704066 0.683641 0.663216 0.630047 0.596878 0.552241 0.507603 0.453212 0.398821 0.336767 0.274713 0.20738 0.140047 0.0700237 5.39724e-16 -0.0700237 -0.140047 -0.20738 -0.274713 -0.336767 -0.398821 -0.453212 -0.507603 -0.552241 -0.596878 -0.630047 -0.663216 -0.683641 -0.704066 -0.710963 -0.71786 -0.710963 -0.704066 -0.683641 -0.663216 -0.630047 -0.596878 -0.552241 -0.507603 -0.453212 -0.398821 -0.336767 -0.274713 -0.20738 -0.140047 -0.0700237 -3.28291e-17 0 0.0693445 0.138689 0.205369 0.272048 0.3335 0.394953 0.448816 0.502679 0.546884 0.591088 0.623935 0.656782 0.677009 0.697236 0.704066 0.710896 0.704066 0.697236 0.677009 0.656782 0.623935 0.591088 0.546884 0.502679 0.448816 0.394953 0.3335 0.272048 0.205369 0.138689 0.0693445 5.35614e-16 -0.0693445 -0.138689 -0.205369 -0.272048 -0.3335 -0.394953 -0.448816 -0.502679 -0.546884 -0.591088 -0.623935 -0.656782 -0.677009 -0.697236 -0.704066 -0.710896 -0.704066 -0.697236 -0.677009 -0.656782 -0.623935 -0.591088 -0.546884 -0.502679 -0.448816 -0.394953 -0.3335 -0.272048 -0.205369 -0.138689 -0.0693445 -3.25107e-17 0 0.0673328 0.134666 0.199411 0.264156 0.323825 0.383495 0.435796 0.488097 0.531019 0.573941 0.605835 0.637729 0.657369 0.677009 0.683641 0.690273 0.683641 0.677009 0.657369 0.637729 0.605835 0.573941 0.531019 0.488097 0.435796 0.383495 0.323825 0.264156 0.199411 0.134666 0.0673328 5.20352e-16 -0.0673328 -0.134666 -0.199411 -0.264156 -0.323825 -0.383495 -0.435796 -0.488097 -0.531019 -0.573941 -0.605835 -0.637729 -0.657369 -0.677009 -0.683641 -0.690273 -0.683641 -0.677009 -0.657369 -0.637729 -0.605835 -0.573941 -0.531019 -0.488097 -0.435796 -0.383495 -0.323825 -0.264156 -0.199411 -0.134666 -0.0673328 -3.15675e-17 0 0.0653211 0.130642 0.193453 0.256264 0.314151 0.372037 0.422775 0.473514 0.515153 0.556793 0.587734 0.618675 0.637729 0.656782 0.663216 0.669649 0.663216 0.656782 0.637729 0.618675 0.587734 0.556793 0.515153 0.473514 0.422775 0.372037 0.314151 0.256264 0.193453 0.130642 0.0653211 5.05089e-16 -0.0653211 -0.130642 -0.193453 -0.256264 -0.314151 -0.372037 -0.422775 -0.473514 -0.515153 -0.556793 -0.587734 -0.618675 -0.637729 -0.656782 -0.663216 -0.669649 -0.663216 -0.656782 -0.637729 -0.618675 -0.587734 -0.556793 -0.515153 -0.473514 -0.422775 -0.372037 -0.314151 -0.256264 -0.193453 -0.130642 -0.0653211 -3.06244e-17 0 0.0620542 0.124108 0.183778 0.243448 0.298439 0.353431 0.401632 0.449832 0.48939 0.528947 0.558341 0.587734 0.605835 0.623935 0.630047 0.636159 0.630047 0.623935 0.605835 0.587734 0.558341 0.528947 0.48939 0.449832 0.401632 0.353431 0.298439 0.243448 0.183778 0.124108 0.0620542 4.65714e-16 -0.0620542 -0.124108 -0.183778 -0.243448 -0.298439 -0.353431 -0.401632 -0.449832 -0.48939 -0.528947 -0.558341 -0.587734 -0.605835 -0.623935 -0.630047 -0.636159 -0.630047 -0.623935 -0.605835 -0.587734 -0.558341 -0.528947 -0.48939 -0.449832 -0.401632 -0.353431 -0.298439 -0.243448 -0.183778 -0.124108 -0.0620542 -2.90928e-17 0 0.0587874 0.117575 0.174103 0.230631 0.282728 0.334825 0.380488 0.426151 0.463626 0.501101 0.528947 0.556793 0.573941 0.591088 0.596878 0.602669 0.596878 0.591088 0.573941 0.556793 0.528947 0.501101 0.463626 0.426151 0.380488 0.334825 0.282728 0.230631 0.174103 0.117575 0.0587874 4.26339e-16 -0.0587874 -0.117575 -0.174103 -0.230631 -0.282728 -0.334825 -0.380488 -0.426151 -0.463626 -0.501101 -0.528947 -0.556793 -0.573941 -0.591088 -0.596878 -0.602669 -0.596878 -0.591088 -0.573941 -0.556793 -0.528947 -0.501101 -0.463626 -0.426151 -0.380488 -0.334825 -0.282728 -0.230631 -0.174103 -0.117575 -0.0587874 -2.75612e-17 0 0.054391 0.108782 0.161083 0.213384 0.261584 0.309785 0.352033 0.394281 0.428954 0.463626 0.48939 0.515153 0.531019 0.546884 0.552241 0.557598 0.552241 0.546884 0.531019 0.515153 0.48939 0.463626 0.428954 0.394281 0.352033 0.309785 0.261584 0.213384 0.161083 0.108782 0.054391 3.78824e-16 -0.054391 -0.108782 -0.161083 -0.213384 -0.261584 -0.309785 -0.352033 -0.394281 -0.428954 -0.463626 -0.48939 -0.515153 -0.531019 -0.546884 -0.552241 -0.557598 -0.552241 -0.546884 -0.531019 -0.515153 -0.48939 -0.463626 -0.428954 -0.394281 -0.352033 -0.309785 -0.261584 -0.213384 -0.161083 -0.108782 -0.054391 -2.55e-17 0 0.0499946 0.0999891 0.148062 0.196136 0.24044 0.284745 0.323578 0.362412 0.394281 0.426151 0.449832 0.473514 0.488097 0.502679 0.507603 0.512527 0.507603 0.502679 0.488097 0.473514 0.449832 0.426151 0.394281 0.362412 0.323578 0.284745 0.24044 0.196136 0.148062 0.0999891 0.0499946 3.31308e-16 -0.0499946 -0.0999891 -0.148062 -0.196136 -0.24044 -0.284745 -0.323578 -0.362412 -0.394281 -0.426151 -0.449832 -0.473514 -0.488097 -0.502679 -0.507603 -0.512527 -0.507603 -0.502679 -0.488097 -0.473514 -0.449832 -0.426151 -0.394281 -0.362412 -0.323578 -0.284745 -0.24044 -0.196136 -0.148062 -0.0999891 -0.0499946 -2.34389e-17 0 0.0446375 0.0892751 0.132197 0.175119 0.214677 0.254234 0.288906 0.323578 0.352033 0.380488 0.401632 0.422775 0.435796 0.448816 0.453212 0.457609 0.453212 0.448816 0.435796 0.422775 0.401632 0.380488 0.352033 0.323578 0.288906 0.254234 0.214677 0.175119 0.132197 0.0892751 0.0446375 3.08011e-16 -0.0446375 -0.0892751 -0.132197 -0.175119 -0.214677 -0.254234 -0.288906 -0.323578 -0.352033 -0.380488 -0.401632 -0.422775 -0.435796 -0.448816 -0.453212 -0.457609 -0.453212 -0.448816 -0.435796 -0.422775 -0.401632 -0.380488 -0.352033 -0.323578 -0.288906 -0.254234 -0.214677 -0.175119 -0.132197 -0.0892751 -0.0446375 -2.09273e-17 0 0.0392805 0.078561 0.116332 0.154103 0.188913 0.223723 0.254234 0.284745 0.309785 0.334825 0.353431 0.372037 0.383495 0.394953 0.398821 0.40269 0.398821 0.394953 0.383495 0.372037 0.353431 0.334825 0.309785 0.284745 0.254234 0.223723 0.188913 0.154103 0.116332 0.078561 0.0392805 2.84714e-16 -0.0392805 -0.078561 -0.116332 -0.154103 -0.188913 -0.223723 -0.254234 -0.284745 -0.309785 -0.334825 -0.353431 -0.372037 -0.383495 -0.394953 -0.398821 -0.40269 -0.398821 -0.394953 -0.383495 -0.372037 -0.353431 -0.334825 -0.309785 -0.284745 -0.254234 -0.223723 -0.188913 -0.154103 -0.116332 -0.078561 -0.0392805 -1.84158e-17 0 0.0331687 0.0663374 0.0982314 0.130125 0.159519 0.188913 0.214677 0.24044 0.261584 0.282728 0.298439 0.314151 0.323825 0.3335 0.336767 0.340034 0.336767 0.3335 0.323825 0.314151 0.298439 0.282728 0.261584 0.24044 0.214677 0.188913 0.159519 0.130125 0.0982314 0.0663374 0.0331687 2.534e-16 -0.0331687 -0.0663374 -0.0982314 -0.130125 -0.159519 -0.188913 -0.214677 -0.24044 -0.261584 -0.282728 -0.298439 -0.314151 -0.323825 -0.3335 -0.336767 -0.340034 -0.336767 -0.3335 -0.323825 -0.314151 -0.298439 -0.282728 -0.261584 -0.24044 -0.214677 -0.188913 -0.159519 -0.130125 -0.0982314 -0.0663374 -0.0331687 -1.55504e-17 0 0.0270569 0.0541137 0.0801308 0.106148 0.130125 0.154103 0.175119 0.196136 0.213384 0.230631 0.243448 0.256264 0.264156 0.272048 0.274713 0.277378 0.274713 0.272048 0.264156 0.256264 0.243448 0.230631 0.213384 0.196136 0.175119 0.154103 0.130125 0.106148 0.0801308 0.0541137 0.0270569 2.22086e-16 -0.0270569 -0.0541137 -0.0801308 -0.106148 -0.130125 -0.154103 -0.175119 -0.196136 -0.213384 -0.230631 -0.243448 -0.256264 -0.264156 -0.272048 -0.274713 -0.277378 -0.274713 -0.272048 -0.264156 -0.256264 -0.243448 -0.230631 -0.213384 -0.196136 -0.175119 -0.154103 -0.130125 -0.106148 -0.0801308 -0.0541137 -0.0270569 -1.2685e-17 0 0.0204252 0.0408503 0.0604906 0.0801308 0.0982314 0.116332 0.132197 0.148062 0.161083 0.174103 0.183778 0.193453 0.199411 0.205369 0.20738 0.209392 0.20738 0.205369 0.199411 0.193453 0.183778 0.174103 0.161083 0.148062 0.132197 0.116332 0.0982314 0.0801308 0.0604906 0.0408503 0.0204252 1.8756e-16 -0.0204252 -0.0408503 -0.0604906 -0.0801308 -0.0982314 -0.116332 -0.132197 -0.148062 -0.161083 -0.174103 -0.183778 -0.193453 -0.199411 -0.205369 -0.20738 -0.209392 -0.20738 -0.205369 -0.199411 -0.193453 -0.183778 -0.174103 -0.161083 -0.148062 -0.132197 -0.116332 -0.0982314 -0.0801308 -0.0604906 -0.0408503 -0.0204252 -9.5759e-18 0 0.0137935 0.0275869 0.0408503 0.0541137 0.0663374 0.078561 0.0892751 0.0999891 0.108782 0.117575 0.124108 0.130642 0.134666 0.138689 0.140047 0.141406 0.140047 0.138689 0.134666 0.130642 0.124108 0.117575 0.108782 0.0999891 0.0892751 0.078561 0.0663374 0.0541137 0.0408503 0.0275869 0.0137935 1.53034e-16 -0.0137935 -0.0275869 -0.0408503 -0.0541137 -0.0663374 -0.078561 -0.0892751 -0.0999891 -0.108782 -0.117575 -0.124108 -0.130642 -0.134666 -0.138689 -0.140047 -0.141406 -0.140047 -0.138689 -0.134666 -0.130642 -0.124108 -0.117575 -0.108782 -0.0999891 -0.0892751 -0.078561 -0.0663374 -0.0541137 -0.0408503 -0.0275869 -0.0137935 -6.46677e-18 0 0.00689674 0.0137935 0.0204252 0.0270569 0.0331687 0.0392805 0.0446375 0.0499946 0.054391 0.0587874 0.0620542 0.0653211 0.0673328 0.0693445 0.0700237 0.070703 0.0700237 0.0693445 0.0673328 0.0653211 0.0620542 0.0587874 0.054391 0.0499946 0.0446375 0.0392805 0.0331687 0.0270569 0.0204252 0.0137935 0.00689674 1.30128e-16 -0.00689674 -0.0137935 -0.0204252 -0.0270569 -0.0331687 -0.0392805 -0.0446375 -0.0499946 -0.054391 -0.0587874 -0.0620542 -0.0653211 -0.0673328 -0.0693445 -0.0700237 -0.070703 -0.0700237 -0.0693445 -0.0673328 -0.0653211 -0.0620542 -0.0587874 -0.054391 -0.0499946 -0.0446375 -0.0392805 -0.0331687 -0.0270569 -0.0204252 -0.0137935 -0.00689674 -3.23339e-18 0 3.20012e-17 6.40025e-17 1.05751e-16 1.47499e-16 1.84896e-16 2.22293e-16 2.60101e-16 2.97908e-16 3.25502e-16 3.53096e-16 3.75005e-16 3.96914e-16 3.88805e-16 3.80697e-16 3.94019e-16 4.07341e-16 4.29717e-16 4.52093e-16 4.32446e-16 4.12798e-16 3.99761e-16 3.86724e-16 3.68431e-16 3.50137e-16 3.12302e-16 2.74467e-16 2.5587e-16 2.37273e-16 2.01852e-16 1.66431e-16 1.36826e-16 1.07222e-16 6.96547e-17 3.20877e-17 -1.63952e-20 -3.21204e-17 -7.18555e-17 -1.11591e-16 -1.30753e-16 -1.49916e-16 -1.90254e-16 -2.30592e-16 -2.54442e-16 -2.78292e-16 -2.87905e-16 -2.97518e-16 -3.27412e-16 -3.57305e-16 -3.13607e-16 -2.6991e-16 -2.53602e-16 -2.37294e-16 -2.19999e-16 -2.02703e-16 -1.97411e-16 -1.92118e-16 -1.71203e-16 -1.50288e-16 -1.23276e-16 -9.6263e-17 -7.45309e-17 -5.27988e-17 -2.63994e-17 -4.05941e-33 0 -0.00689674 -0.0137935 -0.0204252 -0.0270569 -0.0331687 -0.0392805 -0.0446375 -0.0499946 -0.054391 -0.0587874 -0.0620542 -0.0653211 -0.0673328 -0.0693445 -0.0700237 -0.070703 -0.0700237 -0.0693445 -0.0673328 -0.0653211 -0.0620542 -0.0587874 -0.054391 -0.0499946 -0.0446375 -0.0392805 -0.0331687 -0.0270569 -0.0204252 -0.0137935 -0.00689674 8.02989e-17 0.00689674 0.0137935 0.0204252 0.0270569 0.0331687 0.0392805 0.0446375 0.0499946 0.054391 0.0587874 0.0620542 0.0653211 0.0673328 0.0693445 0.0700237 0.070703 0.0700237 0.0693445 0.0673328 0.0653211 0.0620542 0.0587874 0.054391 0.0499946 0.0446375 0.0392805 0.0331687 0.0270569 0.0204252 0.0137935 0.00689674 3.23339e-18 -0 -0.0137935 -0.0275869 -0.0408503 -0.0541137 -0.0663374 -0.078561 -0.0892751 -0.0999891 -0.108782 -0.117575 -0.124108 -0.130642 -0.134666 -0.138689 -0.140047 -0.141406 -0.140047 -0.138689 -0.134666 -0.130642 -0.124108 -0.117575 -0.108782 -0.0999891 -0.0892751 -0.078561 -0.0663374 -0.0541137 -0.0408503 -0.0275869 -0.0137935 5.33759e-17 0.0137935 0.0275869 0.0408503 0.0541137 0.0663374 0.078561 0.0892751 0.0999891 0.108782 0.117575 0.124108 0.130642 0.134666 0.138689 0.140047 0.141406 0.140047 0.138689 0.134666 0.130642 0.124108 0.117575 0.108782 0.0999891 0.0892751 0.078561 0.0663374 0.0541137 0.0408503 0.0275869 0.0137935 6.46677e-18 -0 -0.0204252 -0.0408503 -0.0604906 -0.0801308 -0.0982314 -0.116332 -0.132197 -0.148062 -0.161083 -0.174103 -0.183778 -0.193453 -0.199411 -0.205369 -0.20738 -0.209392 -0.20738 -0.205369 -0.199411 -0.193453 -0.183778 -0.174103 -0.161083 -0.148062 -0.132197 -0.116332 -0.0982314 -0.0801308 -0.0604906 -0.0408503 -0.0204252 3.49235e-17 0.0204252 0.0408503 0.0604906 0.0801308 0.0982314 0.116332 0.132197 0.148062 0.161083 0.174103 0.183778 0.193453 0.199411 0.205369 0.20738 0.209392 0.20738 0.205369 0.199411 0.193453 0.183778 0.174103 0.161083 0.148062 0.132197 0.116332 0.0982314 0.0801308 0.0604906 0.0408503 0.0204252 9.5759e-18 -0 -0.0270569 -0.0541137 -0.0801308 -0.106148 -0.130125 -0.154103 -0.175119 -0.196136 -0.213384 -0.230631 -0.243448 -0.256264 -0.264156 -0.272048 -0.274713 -0.277378 -0.274713 -0.272048 -0.264156 -0.256264 -0.243448 -0.230631 -0.213384 -0.196136 -0.175119 -0.154103 -0.130125 -0.106148 -0.0801308 -0.0541137 -0.0270569 1.6471e-17 0.0270569 0.0541137 0.0801308 0.106148 0.130125 0.154103 0.175119 0.196136 0.213384 0.230631 0.243448 0.256264 0.264156 0.272048 0.274713 0.277378 0.274713 0.272048 0.264156 0.256264 0.243448 0.230631 0.213384 0.196136 0.175119 0.154103 0.130125 0.106148 0.0801308 0.0541137 0.0270569 1.2685e-17 -0 -0.0331687 -0.0663374 -0.0982314 -0.130125 -0.159519 -0.188913 -0.214677 -0.24044 -0.261584 -0.282728 -0.298439 -0.314151 -0.323825 -0.3335 -0.336767 -0.340034 -0.336767 -0.3335 -0.323825 -0.314151 -0.298439 -0.282728 -0.261584 -0.24044 -0.214677 -0.188913 -0.159519 -0.130125 -0.0982314 -0.0663374 -0.0331687 -5.41352e-18 0.0331687 0.0663374 0.0982314 0.130125 0.159519 0.188913 0.214677 0.24044 0.261584 0.282728 0.298439 0.314151 0.323825 0.3335 0.336767 0.340034 0.336767 0.3335 0.323825 0.314151 0.298439 0.282728 0.261584 0.24044 0.214677 0.188913 0.159519 0.130125 0.0982314 0.0663374 0.0331687 1.55504e-17 -0 -0.0392805 -0.078561 -0.116332 -0.154103 -0.188913 -0.223723 -0.254234 -0.284745 -0.309785 -0.334825 -0.353431 -0.372037 -0.383495 -0.394953 -0.398821 -0.40269 -0.398821 -0.394953 -0.383495 -0.372037 -0.353431 -0.334825 -0.309785 -0.284745 -0.254234 -0.223723 -0.188913 -0.154103 -0.116332 -0.078561 -0.0392805 -2.7298e-17 0.0392805 0.078561 0.116332 0.154103 0.188913 0.223723 0.254234 0.284745 0.309785 0.334825 0.353431 0.372037 0.383495 0.394953 0.398821 0.40269 0.398821 0.394953 0.383495 0.372037 0.353431 0.334825 0.309785 0.284745 0.254234 0.223723 0.188913 0.154103 0.116332 0.078561 0.0392805 1.84158e-17 -0 -0.0446375 -0.0892751 -0.132197 -0.175119 -0.214677 -0.254234 -0.288906 -0.323578 -0.352033 -0.380488 -0.401632 -0.422775 -0.435796 -0.448816 -0.453212 -0.457609 -0.453212 -0.448816 -0.435796 -0.422775 -0.401632 -0.380488 -0.352033 -0.323578 -0.288906 -0.254234 -0.214677 -0.175119 -0.132197 -0.0892751 -0.0446375 -3.76488e-17 0.0446375 0.0892751 0.132197 0.175119 0.214677 0.254234 0.288906 0.323578 0.352033 0.380488 0.401632 0.422775 0.435796 0.448816 0.453212 0.457609 0.453212 0.448816 0.435796 0.422775 0.401632 0.380488 0.352033 0.323578 0.288906 0.254234 0.214677 0.175119 0.132197 0.0892751 0.0446375 2.09273e-17 -0 -0.0499946 -0.0999891 -0.148062 -0.196136 -0.24044 -0.284745 -0.323578 -0.362412 -0.394281 -0.426151 -0.449832 -0.473514 -0.488097 -0.502679 -0.507603 -0.512527 -0.507603 -0.502679 -0.488097 -0.473514 -0.449832 -0.426151 -0.394281 -0.362412 -0.323578 -0.284745 -0.24044 -0.196136 -0.148062 -0.0999891 -0.0499946 -4.79995e-17 0.0499946 0.0999891 0.148062 0.196136 0.24044 0.284745 0.323578 0.362412 0.394281 0.426151 0.449832 0.473514 0.488097 0.502679 0.507603 0.512527 0.507603 0.502679 0.488097 0.473514 0.449832 0.426151 0.394281 0.362412 0.323578 0.284745 0.24044 0.196136 0.148062 0.0999891 0.0499946 2.34389e-17 -0 -0.054391 -0.108782 -0.161083 -0.213384 -0.261584 -0.309785 -0.352033 -0.394281 -0.428954 -0.463626 -0.48939 -0.515153 -0.531019 -0.546884 -0.552241 -0.557598 -0.552241 -0.546884 -0.531019 -0.515153 -0.48939 -0.463626 -0.428954 -0.394281 -0.352033 -0.309785 -0.261584 -0.213384 -0.161083 -0.108782 -0.054391 -7.99027e-17 0.054391 0.108782 0.161083 0.213384 0.261584 0.309785 0.352033 0.394281 0.428954 0.463626 0.48939 0.515153 0.531019 0.546884 0.552241 0.557598 0.552241 0.546884 0.531019 0.515153 0.48939 0.463626 0.428954 0.394281 0.352033 0.309785 0.261584 0.213384 0.161083 0.108782 0.054391 2.55e-17 -0 -0.0587874 -0.117575 -0.174103 -0.230631 -0.282728 -0.334825 -0.380488 -0.426151 -0.463626 -0.501101 -0.528947 -0.556793 -0.573941 -0.591088 -0.596878 -0.602669 -0.596878 -0.591088 -0.573941 -0.556793 -0.528947 -0.501101 -0.463626 -0.426151 -0.380488 -0.334825 -0.282728 -0.230631 -0.174103 -0.117575 -0.0587874 -1.11806e-16 0.0587874 0.117575 0.174103 0.230631 0.282728 0.334825 0.380488 0.426151 0.463626 0.501101 0.528947 0.556793 0.573941 0.591088 0.596878 0.602669 0.596878 0.591088 0.573941 0.556793 0.528947 0.501101 0.463626 0.426151 0.380488 0.334825 0.282728 0.230631 0.174103 0.117575 0.0587874 2.75612e-17 -0 -0.0620542 -0.124108 -0.183778 -0.243448 -0.298439 -0.353431 -0.401632 -0.449832 -0.48939 -0.528947 -0.558341 -0.587734 -0.605835 -0.623935 -0.630047 -0.636159 -0.630047 -0.623935 -0.605835 -0.587734 -0.558341 -0.528947 -0.48939 -0.449832 -0.401632 -0.353431 -0.298439 -0.243448 -0.183778 -0.124108 -0.0620542 -1.1423e-16 0.0620542 0.124108 0.183778 0.243448 0.298439 0.353431 0.401632 0.449832 0.48939 0.528947 0.558341 0.587734 0.605835 0.623935 0.630047 0.636159 0.630047 0.623935 0.605835 0.587734 0.558341 0.528947 0.48939 0.449832 0.401632 0.353431 0.298439 0.243448 0.183778 0.124108 0.0620542 2.90928e-17 -0 -0.0653211 -0.130642 -0.193453 -0.256264 -0.314151 -0.372037 -0.422775 -0.473514 -0.515153 -0.556793 -0.587734 -0.618675 -0.637729 -0.656782 -0.663216 -0.669649 -0.663216 -0.656782 -0.637729 -0.618675 -0.587734 -0.556793 -0.515153 -0.473514 -0.422775 -0.372037 -0.314151 -0.256264 -0.193453 -0.130642 -0.0653211 -1.16654e-16 0.0653211 0.130642 0.193453 0.256264 0.314151 0.372037 0.422775 0.473514 0.515153 0.556793 0.587734 0.618675 0.637729 0.656782 0.663216 0.669649 0.663216 0.656782 0.637729 0.618675 0.587734 0.556793 0.515153 0.473514 0.422775 0.372037 0.314151 0.256264 0.193453 0.130642 0.0653211 3.06244e-17 -0 -0.0673328 -0.134666 -0.199411 -0.264156 -0.323825 -0.383495 -0.435796 -0.488097 -0.531019 -0.573941 -0.605835 -0.637729 -0.657369 -0.677009 -0.683641 -0.690273 -0.683641 -0.677009 -0.657369 -0.637729 -0.605835 -0.573941 -0.531019 -0.488097 -0.435796 -0.383495 -0.323825 -0.264156 -0.199411 -0.134666 -0.0673328 -1.39766e-16 0.0673328 0.134666 0.199411 0.264156 0.323825 0.383495 0.435796 0.488097 0.531019 0.573941 0.605835 0.637729 0.657369 0.677009 0.683641 0.690273 0.683641 0.677009 0.657369 0.637729 0.605835 0.573941 0.531019 0.488097 0.435796 0.383495 0.323825 0.264156 0.199411 0.134666 0.0673328 3.15675e-17 -0 -0.0693445 -0.138689 -0.205369 -0.272048 -0.3335 -0.394953 -0.448816 -0.502679 -0.546884 -0.591088 -0.623935 -0.656782 -0.677009 -0.697236 -0.704066 -0.710896 -0.704066 -0.697236 -0.677009 -0.656782 -0.623935 -0.591088 -0.546884 -0.502679 -0.448816 -0.394953 -0.3335 -0.272048 -0.205369 -0.138689 -0.0693445 -1.62878e-16 0.0693445 0.138689 0.205369 0.272048 0.3335 0.394953 0.448816 0.502679 0.546884 0.591088 0.623935 0.656782 0.677009 0.697236 0.704066 0.710896 0.704066 0.697236 0.677009 0.656782 0.623935 0.591088 0.546884 0.502679 0.448816 0.394953 0.3335 0.272048 0.205369 0.138689 0.0693445 3.25107e-17 -0 -0.0700237 -0.140047 -0.20738 -0.274713 -0.336767 -0.398821 -0.453212 -0.507603 -0.552241 -0.596878 -0.630047 -0.663216 -0.683641 -0.704066 -0.710963 -0.71786 -0.710963 -0.704066 -0.683641 -0.663216 -0.630047 -0.596878 -0.552241 -0.507603 -0.453212 -0.398821 -0.336767 -0.274713 -0.20738 -0.140047 -0.0700237 -1.81063e-16 0.0700237 0.140047 0.20738 0.274713 0.336767 0.398821 0.453212 0.507603 0.552241 0.596878 0.630047 0.663216 0.683641 0.704066 0.710963 0.71786 0.710963 0.704066 0.683641 0.663216 0.630047 0.596878 0.552241 0.507603 0.453212 0.398821 0.336767 0.274713 0.20738 0.140047 0.0700237 3.28291e-17 -0 -0.070703 -0.141406 -0.209392 -0.277378 -0.340034 -0.40269 -0.457609 -0.512527 -0.557598 -0.