<?xml version="1.0"?> 
<VTKFile type="StructuredGrid" version="0.1"> 
<StructuredGrid WholeExtent="0 64 0 64 0 0"> 
<Piece Extent="0 64 0 64 0 0"> 
<PointData>
<DataArray type="Float32" Name="u" format="ascii" NumberOfComponents="1"> 
0 0 0 0 0 0 0 0 0 0 0 0 0 0 0 0 0 0 0 0 0 0 0 0 0 0 0 0 0 0 0 0 0 0 -0 -0 -0 -0 -0 -0 -0 -0 -0 -0 -0 -0 -0 -0 -0 -0 -0 -0 -0 -0 -0 -0 -0 -0 -0 -0 -0 -0 -0 -0 -0 0 0.00747114 0.0149423 0.0221263 0.0293104 0.0359312 0.042552 0.0483553 0.0541585 0.0589211 0.0636836 0.0672225 0.0707615 0.0729407 0.07512 0.0758558 0.0765917 0.0758558 0.07512 0.0729407 0.0707615 0.0672225 0.0636836 0.0589211 0.0541585 0.0483553 0.042552 0.0359312 0.0293104 0.0221263 0.0149423 0.00747114 4.36054e-17 -0.00747114 -0.0149423 -0.0221263 -0.0293104 -0.0359312 -0.042552 -0.0483553 -0.0541585 -0.0589211 -0.0636836 -0.0672225 -0.0707615 -0.0729407 -0.07512 -0.0758558 -0.0765917 -0.0758558 -0.07512 -0.0729407 -0.0707615 -0.0672225 -0.0636836 -0.0589211 -0.0541585 -0.0483553 -0.042552 -0.0359312 -0.0293104 -0.0221263 -0.0149423 -0.00747114 -3.23339e-18 0 0.0149423 0.0298846 0.0442526 0.0586207 0.0718624 0.0851041 0.0967105 0.108317 0.117842 0.127367 0.134445 0.141523 0.145881 0.15024 0.151712 0.153183 0.151712 0.15024 0.145881 0.141523 0.134445 0.127367 0.117842 0.108317 0.0967105 0.0851041 0.0718624 0.0586207 0.0442526 0.0298846 0.0149423 8.72107e-17 -0.0149423 -0.0298846 -0.0442526 -0.0586207 -0.0718624 -0.0851041 -0.0967105 -0.108317 -0.117842 -0.127367 -0.134445 -0.141523 -0.145881 -0.15024 -0.151712 -0.153183 -0.151712 -0.15024 -0.145881 -0.141523 -0.134445 -0.127367 -0.117842 -0.108317 -0.0967105 -0.0851041 -0.0718624 -0.0586207 -0.0442526 -0.0298846 -0.0149423 -6.46677e-18 0 0.0221263 0.0442526 0.0655287 0.0868047 0.106413 0.126021 0.143208 0.160394 0.174499 0.188604 0.199084 0.209565 0.216019 0.222473 0.224652 0.226832 0.224652 0.222473 0.216019 0.209565 0.199084 0.188604 0.174499 0.160394 0.143208 0.126021 0.106413 0.0868047 0.0655287 0.0442526 0.0221263 1.30422e-16 -0.0221263 -0.0442526 -0.0655287 -0.0868047 -0.106413 -0.126021 -0.143208 -0.160394 -0.174499 -0.188604 -0.199084 -0.209565 -0.216019 -0.222473 -0.224652 -0.226832 -0.224652 -0.222473 -0.216019 -0.209565 -0.199084 -0.188604 -0.174499 -0.160394 -0.143208 -0.126021 -0.106413 -0.0868047 -0.0655287 -0.0442526 -0.0221263 -9.5759e-18 0 0.0293104 0.0586207 0.0868047 0.114989 0.140963 0.166938 0.189705 0.212471 0.231156 0.24984 0.263724 0.277607 0.286157 0.294706 0.297593 0.30048 0.297593 0.294706 0.286157 0.277607 0.263724 0.24984 0.231156 0.212471 0.189705 0.166938 0.140963 0.114989 0.0868047 0.0586207 0.0293104 1.73633e-16 -0.0293104 -0.0586207 -0.0868047 -0.114989 -0.140963 -0.166938 -0.189705 -0.212471 -0.231156 -0.24984 -0.263724 -0.277607 -0.286157 -0.294706 -0.297593 -0.30048 -0.297593 -0.294706 -0.286157 -0.277607 -0.263724 -0.24984 -0.231156 -0.212471 -0.189705 -0.166938 -0.140963 -0.114989 -0.0868047 -0.0586207 -0.0293104 -1.2685e-17 0 0.0359312 0.0718624 0.106413 0.140963 0.172805 0.204647 0.232556 0.260466 0.283371 0.306276 0.323295 0.340315 0.350796 0.361277 0.364816 0.368354 0.364816 0.361277 0.350796 0.340315 0.323295 0.306276 0.283371 0.260466 0.232556 0.204647 0.172805 0.140963 0.106413 0.0718624 0.0359312 2.19487e-16 -0.0359312 -0.0718624 -0.106413 -0.140963 -0.172805 -0.204647 -0.232556 -0.260466 -0.283371 -0.306276 -0.323295 -0.340315 -0.350796 -0.361277 -0.364816 -0.368354 -0.364816 -0.361277 -0.350796 -0.340315 -0.323295 -0.306276 -0.283371 -0.260466 -0.232556 -0.204647 -0.172805 -0.140963 -0.106413 -0.0718624 -0.0359312 -1.55504e-17 0 0.042552 0.0851041 0.126021 0.166938 0.204647 0.242356 0.275408 0.308461 0.335586 0.362711 0.382867 0.403023 0.415435 0.427847 0.432038 0.436229 0.432038 0.427847 0.415435 0.403023 0.382867 0.362711 0.335586 0.308461 0.275408 0.242356 0.204647 0.166938 0.126021 0.0851041 0.042552 2.65341e-16 -0.042552 -0.0851041 -0.126021 -0.166938 -0.204647 -0.242356 -0.275408 -0.308461 -0.335586 -0.362711 -0.382867 -0.403023 -0.415435 -0.427847 -0.432038 -0.436229 -0.432038 -0.427847 -0.415435 -0.403023 -0.382867 -0.362711 -0.335586 -0.308461 -0.275408 -0.242356 -0.204647 -0.166938 -0.126021 -0.0851041 -0.042552 -1.84158e-17 0 0.0483553 0.0967105 0.143208 0.189705 0.232556 0.275408 0.312968 0.350528 0.381353 0.412178 0.435082 0.457987 0.472092 0.486197 0.490959 0.495722 0.490959 0.486197 0.472092 0.457987 0.435082 0.412178 0.381353 0.350528 0.312968 0.275408 0.232556 0.189705 0.143208 0.0967105 0.0483553 3.06538e-16 -0.0483553 -0.0967105 -0.143208 -0.189705 -0.232556 -0.275408 -0.312968 -0.350528 -0.381353 -0.412178 -0.435082 -0.457987 -0.472092 -0.486197 -0.490959 -0.495722 -0.490959 -0.486197 -0.472092 -0.457987 -0.435082 -0.412178 -0.381353 -0.350528 -0.312968 -0.275408 -0.232556 -0.189705 -0.143208 -0.0967105 -0.0483553 -2.09273e-17 0 0.0541585 0.108317 0.160394 0.212471 0.260466 0.308461 0.350528 0.392596 0.42712 0.461644 0.487298 0.512951 0.528749 0.544546 0.54988 0.555214 0.54988 0.544546 0.528749 0.512951 0.487298 0.461644 0.42712 0.392596 0.350528 0.308461 0.260466 0.212471 0.160394 0.108317 0.0541585 3.47735e-16 -0.0541585 -0.108317 -0.160394 -0.212471 -0.260466 -0.308461 -0.350528 -0.392596 -0.42712 -0.461644 -0.487298 -0.512951 -0.528749 -0.544546 -0.54988 -0.555214 -0.54988 -0.544546 -0.528749 -0.512951 -0.487298 -0.461644 -0.42712 -0.392596 -0.350528 -0.308461 -0.260466 -0.212471 -0.160394 -0.108317 -0.0541585 -2.34389e-17 0 0.0589211 0.117842 0.174499 0.231156 0.283371 0.335586 0.381353 0.42712 0.46468 0.50224 0.530149 0.558059 0.575246 0.592432 0.598235 0.604039 0.598235 0.592432 0.575246 0.558059 0.530149 0.50224 0.46468 0.42712 0.381353 0.335586 0.283371 0.231156 0.174499 0.117842 0.0589211 3.80172e-16 -0.0589211 -0.117842 -0.174499 -0.231156 -0.283371 -0.335586 -0.381353 -0.42712 -0.46468 -0.50224 -0.530149 -0.558059 -0.575246 -0.592432 -0.598235 -0.604039 -0.598235 -0.592432 -0.575246 -0.558059 -0.530149 -0.50224 -0.46468 -0.42712 -0.381353 -0.335586 -0.283371 -0.231156 -0.174499 -0.117842 -0.0589211 -2.55e-17 0 0.0636836 0.127367 0.188604 0.24984 0.306276 0.362711 0.412178 0.461644 0.50224 0.542836 0.573001 0.603167 0.621743 0.640318 0.646591 0.652863 0.646591 0.640318 0.621743 0.603167 0.573001 0.542836 0.50224 0.461644 0.412178 0.362711 0.306276 0.24984 0.188604 0.127367 0.0636836 4.12609e-16 -0.0636836 -0.127367 -0.188604 -0.24984 -0.306276 -0.362711 -0.412178 -0.461644 -0.50224 -0.542836 -0.573001 -0.603167 -0.621743 -0.640318 -0.646591 -0.652863 -0.646591 -0.640318 -0.621743 -0.603167 -0.573001 -0.542836 -0.50224 -0.461644 -0.412178 -0.362711 -0.306276 -0.24984 -0.188604 -0.127367 -0.0636836 -2.75612e-17 0 0.0672225 0.134445 0.199084 0.263724 0.323295 0.382867 0.435082 0.487298 0.530149 0.573001 0.604843 0.636685 0.656293 0.675901 0.682522 0.689143 0.682522 0.675901 0.656293 0.636685 0.604843 0.573001 0.530149 0.487298 0.435082 0.382867 0.323295 0.263724 0.199084 0.134445 0.0672225 4.69433e-16 -0.0672225 -0.134445 -0.199084 -0.263724 -0.323295 -0.382867 -0.435082 -0.487298 -0.530149 -0.573001 -0.604843 -0.636685 -0.656293 -0.675901 -0.682522 -0.689143 -0.682522 -0.675901 -0.656293 -0.636685 -0.604843 -0.573001 -0.530149 -0.487298 -0.435082 -0.382867 -0.323295 -0.263724 -0.199084 -0.134445 -0.0672225 -2.90928e-17 0 0.0707615 0.141523 0.209565 0.277607 0.340315 0.403023 0.457987 0.512951 0.558059 0.603167 0.636685 0.670203 0.690843 0.711484 0.718453 0.725423 0.718453 0.711484 0.690843 0.670203 0.636685 0.603167 0.558059 0.512951 0.457987 0.403023 0.340315 0.277607 0.209565 0.141523 0.0707615 5.26257e-16 -0.0707615 -0.141523 -0.209565 -0.277607 -0.340315 -0.403023 -0.457987 -0.512951 -0.558059 -0.603167 -0.636685 -0.670203 -0.690843 -0.711484 -0.718453 -0.725423 -0.718453 -0.711484 -0.690843 -0.670203 -0.636685 -0.603167 -0.558059 -0.512951 -0.457987 -0.403023 -0.340315 -0.277607 -0.209565 -0.141523 -0.0707615 -3.06244e-17 0 0.0729407 0.145881 0.216019 0.286157 0.350796 0.415435 0.472092 0.528749 0.575246 0.621743 0.656293 0.690843 0.712119 0.733395 0.740579 0.747764 0.740579 0.733395 0.712119 0.690843 0.656293 0.621743 0.575246 0.528749 0.472092 0.415435 0.350796 0.286157 0.216019 0.145881 0.0729407 5.5315e-16 -0.0729407 -0.145881 -0.216019 -0.286157 -0.350796 -0.415435 -0.472092 -0.528749 -0.575246 -0.621743 -0.656293 -0.690843 -0.712119 -0.733395 -0.740579 -0.747764 -0.740579 -0.733395 -0.712119 -0.690843 -0.656293 -0.621743 -0.575246 -0.528749 -0.472092 -0.415435 -0.350796 -0.286157 -0.216019 -0.145881 -0.0729407 -3.15675e-17 0 0.07512 0.15024 0.222473 0.294706 0.361277 0.427847 0.486197 0.544546 0.592432 0.640318 0.675901 0.711484 0.733395 0.755307 0.762706 0.770104 0.762706 0.755307 0.733395 0.711484 0.675901 0.640318 0.592432 0.544546 0.486197 0.427847 0.361277 0.294706 0.222473 0.15024 0.07512 5.80043e-16 -0.07512 -0.15024 -0.222473 -0.294706 -0.361277 -0.427847 -0.486197 -0.544546 -0.592432 -0.640318 -0.675901 -0.711484 -0.733395 -0.755307 -0.762706 -0.770104 -0.762706 -0.755307 -0.733395 -0.711484 -0.675901 -0.640318 -0.592432 -0.544546 -0.486197 -0.427847 -0.361277 -0.294706 -0.222473 -0.15024 -0.07512 -3.25107e-17 0 0.0758558 0.151712 0.224652 0.297593 0.364816 0.432038 0.490959 0.54988 0.598235 0.646591 0.682522 0.718453 0.740579 0.762706 0.770177 0.777648 0.770177 0.762706 0.740579 0.718453 0.682522 0.646591 0.598235 0.54988 0.490959 0.432038 0.364816 0.297593 0.224652 0.151712 0.0758558 6.09002e-16 -0.0758558 -0.151712 -0.224652 -0.297593 -0.364816 -0.432038 -0.490959 -0.54988 -0.598235 -0.646591 -0.682522 -0.718453 -0.740579 -0.762706 -0.770177 -0.777648 -0.770177 -0.762706 -0.740579 -0.718453 -0.682522 -0.646591 -0.598235 -0.54988 -0.490959 -0.432038 -0.364816 -0.297593 -0.224652 -0.151712 -0.0758558 -3.28291e-17 0 0.0765917 0.153183 0.226832 0.30048 0.368354 0.436229 0.495722 0.555214 0.604039 0.652863 0.689143 0.725423 0.747764 0.770104 0.777648 0.785192 0.777648 0.770104 0.747764 0.725423 0.689143 0.652863 0.604039 0.555214 0.495722 0.436229 0.368354 0.30048 0.226832 0.153183 0.0765917 6.37961e-16 -0.0765917 -0.153183 -0.226832 -0.30048 -0.368354 -0.436229 -0.495722 -0.555214 -0.604039 -0.652863 -0.689143 -0.725423 -0.747764 -0.770104 -0.777648 -0.785192 -0.777648 -0.770104 -0.747764 -0.725423 -0.689143 -0.652863 -0.604039 -0.555214 -0.495722 -0.436229 -0.368354 -0.30048 -0.226832 -0.153183 -0.0765917 -3.31476e-17 0 0.0758558 0.151712 0.224652 0.297593 0.364816 0.432038 0.490959 0.54988 0.598235 0.646591 0.682522 0.718453 0.740579 0.762706 0.770177 0.777648 0.770177 0.762706 0.740579 0.718453 0.682522 0.646591 0.598235 0.54988 0.490959 0.432038 0.364816 0.297593 0.224652 0.151712 0.0758558 6.32712e-16 -0.0758558 -0.151712 -0.224652 -0.297593 -0.364816 -0.432038 -0.490959 -0.54988 -0.598235 -0.646591 -0.682522 -0.718453 -0.740579 -0.762706 -0.770177 -0.777648 -0.770177 -0.762706 -0.740579 -0.718453 -0.682522 -0.646591 -0.598235 -0.54988 -0.490959 -0.432038 -0.364816 -0.297593 -0.224652 -0.151712 -0.0758558 -3.28291e-17 0 0.07512 0.15024 0.222473 0.294706 0.361277 0.427847 0.486197 0.544546 0.592432 0.640318 0.675901 0.711484 0.733395 0.755307 0.762706 0.770104 0.762706 0.755307 0.733395 0.711484 0.675901 0.640318 0.592432 0.544546 0.486197 0.427847 0.361277 0.294706 0.222473 0.15024 0.07512 6.27464e-16 -0.07512 -0.15024 -0.222473 -0.294706 -0.361277 -0.427847 -0.486197 -0.544546 -0.592432 -0.640318 -0.675901 -0.711484 -0.733395 -0.755307 -0.762706 -0.770104 -0.762706 -0.755307 -0.733395 -0.711484 -0.675901 -0.640318 -0.592432 -0.544546 -0.486197 -0.427847 -0.361277 -0.294706 -0.222473 -0.15024 -0.07512 -3.25107e-17 0 0.0729407 0.145881 0.216019 0.286157 0.350796 0.415435 0.472092 0.528749 0.575246 0.621743 0.656293 0.690843 0.712119 0.733395 0.740579 0.747764 0.740579 0.733395 0.712119 0.690843 0.656293 0.621743 0.575246 0.528749 0.472092 0.415435 0.350796 0.286157 0.216019 0.145881 0.0729407 6.27082e-16 -0.0729407 -0.145881 -0.216019 -0.286157 -0.350796 -0.415435 -0.472092 -0.528749 -0.575246 -0.621743 -0.656293 -0.690843 -0.712119 -0.733395 -0.740579 -0.747764 -0.740579 -0.733395 -0.712119 -0.690843 -0.656293 -0.621743 -0.575246 -0.528749 -0.472092 -0.415435 -0.350796 -0.286157 -0.216019 -0.145881 -0.0729407 -3.15675e-17 0 0.0707615 0.141523 0.209565 0.277607 0.340315 0.403023 0.457987 0.512951 0.558059 0.603167 0.636685 0.670203 0.690843 0.711484 0.718453 0.725423 0.718453 0.711484 0.690843 0.670203 0.636685 0.603167 0.558059 0.512951 0.457987 0.403023 0.340315 0.277607 0.209565 0.141523 0.0707615 6.267e-16 -0.0707615 -0.141523 -0.209565 -0.277607 -0.340315 -0.403023 -0.457987 -0.512951 -0.558059 -0.603167 -0.636685 -0.670203 -0.690843 -0.711484 -0.718453 -0.725423 -0.718453 -0.711484 -0.690843 -0.670203 -0.636685 -0.603167 -0.558059 -0.512951 -0.457987 -0.403023 -0.340315 -0.277607 -0.209565 -0.141523 -0.0707615 -3.06244e-17 0 0.0672225 0.134445 0.199084 0.263724 0.323295 0.382867 0.435082 0.487298 0.530149 0.573001 0.604843 0.636685 0.656293 0.675901 0.682522 0.689143 0.682522 0.675901 0.656293 0.636685 0.604843 0.573001 0.530149 0.487298 0.435082 0.382867 0.323295 0.263724 0.199084 0.134445 0.0672225 5.71814e-16 -0.0672225 -0.134445 -0.199084 -0.263724 -0.323295 -0.382867 -0.435082 -0.487298 -0.530149 -0.573001 -0.604843 -0.636685 -0.656293 -0.675901 -0.682522 -0.689143 -0.682522 -0.675901 -0.656293 -0.636685 -0.604843 -0.573001 -0.530149 -0.487298 -0.435082 -0.382867 -0.323295 -0.263724 -0.199084 -0.134445 -0.0672225 -2.90928e-17 0 0.0636836 0.127367 0.188604 0.24984 0.306276 0.362711 0.412178 0.461644 0.50224 0.542836 0.573001 0.603167 0.621743 0.640318 0.646591 0.652863 0.646591 0.640318 0.621743 0.603167 0.573001 0.542836 0.50224 0.461644 0.412178 0.362711 0.306276 0.24984 0.188604 0.127367 0.0636836 5.16928e-16 -0.0636836 -0.127367 -0.188604 -0.24984 -0.306276 -0.362711 -0.412178 -0.461644 -0.50224 -0.542836 -0.573001 -0.603167 -0.621743 -0.640318 -0.646591 -0.652863 -0.646591 -0.640318 -0.621743 -0.603167 -0.573001 -0.542836 -0.50224 -0.461644 -0.412178 -0.362711 -0.306276 -0.24984 -0.188604 -0.127367 -0.0636836 -2.75612e-17 0 0.0589211 0.117842 0.174499 0.231156 0.283371 0.335586 0.381353 0.42712 0.46468 0.50224 0.530149 0.558059 0.575246 0.592432 0.598235 0.604039 0.598235 0.592432 0.575246 0.558059 0.530149 0.50224 0.46468 0.42712 0.381353 0.335586 0.283371 0.231156 0.174499 0.117842 0.0589211 4.85643e-16 -0.0589211 -0.117842 -0.174499 -0.231156 -0.283371 -0.335586 -0.381353 -0.42712 -0.46468 -0.50224 -0.530149 -0.558059 -0.575246 -0.592432 -0.598235 -0.604039 -0.598235 -0.592432 -0.575246 -0.558059 -0.530149 -0.50224 -0.46468 -0.42712 -0.381353 -0.335586 -0.283371 -0.231156 -0.174499 -0.117842 -0.0589211 -2.55e-17 0 0.0541585 0.108317 0.160394 0.212471 0.260466 0.308461 0.350528 0.392596 0.42712 0.461644 0.487298 0.512951 0.528749 0.544546 0.54988 0.555214 0.54988 0.544546 0.528749 0.512951 0.487298 0.461644 0.42712 0.392596 0.350528 0.308461 0.260466 0.212471 0.160394 0.108317 0.0541585 4.54358e-16 -0.0541585 -0.108317 -0.160394 -0.212471 -0.260466 -0.308461 -0.350528 -0.392596 -0.42712 -0.461644 -0.487298 -0.512951 -0.528749 -0.544546 -0.54988 -0.555214 -0.54988 -0.544546 -0.528749 -0.512951 -0.487298 -0.461644 -0.42712 -0.392596 -0.350528 -0.308461 -0.260466 -0.212471 -0.160394 -0.108317 -0.0541585 -2.34389e-17 0 0.0483553 0.0967105 0.143208 0.189705 0.232556 0.275408 0.312968 0.350528 0.381353 0.412178 0.435082 0.457987 0.472092 0.486197 0.490959 0.495722 0.490959 0.486197 0.472092 0.457987 0.435082 0.412178 0.381353 0.350528 0.312968 0.275408 0.232556 0.189705 0.143208 0.0967105 0.0483553 4.15384e-16 -0.0483553 -0.0967105 -0.143208 -0.189705 -0.232556 -0.275408 -0.312968 -0.350528 -0.381353 -0.412178 -0.435082 -0.457987 -0.472092 -0.486197 -0.490959 -0.495722 -0.490959 -0.486197 -0.472092 -0.457987 -0.435082 -0.412178 -0.381353 -0.350528 -0.312968 -0.275408 -0.232556 -0.189705 -0.143208 -0.0967105 -0.0483553 -2.09273e-17 0 0.042552 0.0851041 0.126021 0.166938 0.204647 0.242356 0.275408 0.308461 0.335586 0.362711 0.382867 0.403023 0.415435 0.427847 0.432038 0.436229 0.432038 0.427847 0.415435 0.403023 0.382867 0.362711 0.335586 0.308461 0.275408 0.242356 0.204647 0.166938 0.126021 0.0851041 0.042552 3.7641e-16 -0.042552 -0.0851041 -0.126021 -0.166938 -0.204647 -0.242356 -0.275408 -0.308461 -0.335586 -0.362711 -0.382867 -0.403023 -0.415435 -0.427847 -0.432038 -0.436229 -0.432038 -0.427847 -0.415435 -0.403023 -0.382867 -0.362711 -0.335586 -0.308461 -0.275408 -0.242356 -0.204647 -0.166938 -0.126021 -0.0851041 -0.042552 -1.84158e-17 0 0.0359312 0.0718624 0.106413 0.140963 0.172805 0.204647 0.232556 0.260466 0.283371 0.306276 0.323295 0.340315 0.350796 0.361277 0.364816 0.368354 0.364816 0.361277 0.350796 0.340315 0.323295 0.306276 0.283371 0.260466 0.232556 0.204647 0.172805 0.140963 0.106413 0.0718624 0.0359312 3.32294e-16 -0.0359312 -0.0718624 -0.106413 -0.140963 -0.172805 -0.204647 -0.232556 -0.260466 -0.283371 -0.306276 -0.323295 -0.340315 -0.350796 -0.361277 -0.364816 -0.368354 -0.364816 -0.361277 -0.350796 -0.340315 -0.323295 -0.306276 -0.283371 -0.260466 -0.232556 -0.204647 -0.172805 -0.140963 -0.106413 -0.0718624 -0.0359312 -1.55504e-17 0 0.0293104 0.0586207 0.0868047 0.114989 0.140963 0.166938 0.189705 0.212471 0.231156 0.24984 0.263724 0.277607 0.286157 0.294706 0.297593 0.30048 0.297593 0.294706 0.286157 0.277607 0.263724 0.24984 0.231156 0.212471 0.189705 0.166938 0.140963 0.114989 0.0868047 0.0586207 0.0293104 2.88177e-16 -0.0293104 -0.0586207 -0.0868047 -0.114989 -0.140963 -0.166938 -0.189705 -0.212471 -0.231156 -0.24984 -0.263724 -0.277607 -0.286157 -0.294706 -0.297593 -0.30048 -0.297593 -0.294706 -0.286157 -0.277607 -0.263724 -0.24984 -0.231156 -0.212471 -0.189705 -0.166938 -0.140963 -0.114989 -0.0868047 -0.0586207 -0.0293104 -1.2685e-17 0 0.0221263 0.0442526 0.0655287 0.0868047 0.106413 0.126021 0.143208 0.160394 0.174499 0.188604 0.199084 0.209565 0.216019 0.222473 0.224652 0.226832 0.224652 0.222473 0.216019 0.209565 0.199084 0.188604 0.174499 0.160394 0.143208 0.126021 0.106413 0.0868047 0.0655287 0.0442526 0.0221263 2.40363e-16 -0.0221263 -0.0442526 -0.0655287 -0.0868047 -0.106413 -0.126021 -0.143208 -0.160394 -0.174499 -0.188604 -0.199084 -0.209565 -0.216019 -0.222473 -0.224652 -0.226832 -0.224652 -0.222473 -0.216019 -0.209565 -0.199084 -0.188604 -0.174499 -0.160394 -0.143208 -0.126021 -0.106413 -0.0868047 -0.0655287 -0.0442526 -0.0221263 -9.5759e-18 0 0.0149423 0.0298846 0.0442526 0.0586207 0.0718624 0.0851041 0.0967105 0.108317 0.117842 0.127367 0.134445 0.141523 0.145881 0.15024 0.151712 0.153183 0.151712 0.15024 0.145881 0.141523 0.134445 0.127367 0.117842 0.108317 0.0967105 0.0851041 0.0718624 0.0586207 0.0442526 0.0298846 0.0149423 1.92549e-16 -0.0149423 -0.0298846 -0.0442526 -0.0586207 -0.0718624 -0.0851041 -0.0967105 -0.108317 -0.117842 -0.127367 -0.134445 -0.141523 -0.145881 -0.15024 -0.151712 -0.153183 -0.151712 -0.15024 -0.145881 -0.141523 -0.134445 -0.127367 -0.117842 -0.108317 -0.0967105 -0.0851041 -0.0718624 -0.0586207 -0.0442526 -0.0298846 -0.0149423 -6.46677e-18 0 0.00747114 0.0149423 0.0221263 0.0293104 0.0359312 0.042552 0.0483553 0.0541585 0.0589211 0.0636836 0.0672225 0.0707615 0.0729407 0.07512 0.0758558 0.0765917 0.0758558 0.07512 0.0729407 0.0707615 0.0672225 0.0636836 0.0589211 0.0541585 0.0483553 0.042552 0.0359312 0.0293104 0.0221263 0.0149423 0.00747114 1.61777e-16 -0.00747114 -0.0149423 -0.0221263 -0.0293104 -0.0359312 -0.042552 -0.0483553 -0.0541585 -0.0589211 -0.0636836 -0.0672225 -0.0707615 -0.0729407 -0.07512 -0.0758558 -0.0765917 -0.0758558 -0.07512 -0.0729407 -0.0707615 -0.0672225 -0.0636836 -0.0589211 -0.0541585 -0.0483553 -0.042552 -0.0359312 -0.0293104 -0.0221263 -0.0149423 -0.00747114 -3.23339e-18 0 3.67775e-17 7.35549e-17 1.16714e-16 1.59873e-16 2.06371e-16 2.52869e-16 2.96394e-16 3.3992e-16 3.59226e-16 3.78532e-16 4.09298e-16 4.40065e-16 4.4932e-16 4.58574e-16 4.78498e-16 4.98422e-16 5.03639e-16 5.08857e-16 5.0125e-16 4.93642e-16 4.55523e-16 4.17404e-16 4.07778e-16 3.98151e-16 3.58416e-16 3.1868e-16 2.96189e-16 2.73697e-16 2.35482e-16 1.97268e-16 1.64137e-16 1.31005e-16 9.29993e-17 5.49931e-17 2.01744e-17 -1.46443e-17 -5.99438e-17 -1.05243e-16 -1.32058e-16 -1.58872e-16 -1.93323e-16 -2.27775e-16 -2.57381e-16 -2.86987e-16 -2.79711e-16 -2.72434e-16 -2.82981e-16 -2.93528e-16 -2.61065e-16 -2.28603e-16 -2.39813e-16 -2.51023e-16 -2.37199e-16 -2.23376e-16 -2.15408e-16 -2.0744e-16 -1.9771e-16 -1.8798e-16 -1.51481e-16 -1.14982e-16 -8.58838e-17 -5.67855e-17 -2.83928e-17 -4.05941e-33 0 -0.00747114 -0.0149423 -0.0221263 -0.0293104 -0.0359312 -0.042552 -0.0483553 -0.0541585 -0.0589211 -0.0636836 -0.0672225 -0.0707615 -0.0729407 -0.07512 -0.0758558 -0.0765917 -0.0758558 -0.07512 -0.0729407 -0.0707615 -0.0672225 -0.0636836 -0.0589211 -0.0541585 -0.0483553 -0.042552 -0.0359312 -0.0293104 -0.0221263 -0.0149423 -0.00747114 9.46604e-17 0.00747114 0.0149423 0.0221263 0.0293104 0.0359312 0.042552 0.0483553 0.0541585 0.0589211 0.0636836 0.0672225 0.0707615 0.0729407 0.07512 0.0758558 0.0765917 0.0758558 0.07512 0.0729407 0.0707615 0.0672225 0.0636836 0.0589211 0.0541585 0.0483553 0.042552 0.0359312 0.0293104 0.0221263 0.0149423 0.00747114 3.23339e-18 -0 -0.0149423 -0.0298846 -0.0442526 -0.0586207 -0.0718624 -0.0851041 -0.0967105 -0.108317 -0.117842 -0.127367 -0.134445 -0.141523 -0.145881 -0.15024 -0.151712 -0.153183 -0.151712 -0.15024 -0.145881 -0.141523 -0.134445 -0.127367 -0.117842 -0.108317 -0.0967105 -0.0851041 -0.0718624 -0.0586207 -0.0442526 -0.0298846 -0.0149423 5.83153e-17 0.0149423 0.0298846 0.0442526 0.0586207 0.0718624 0.0851041 0.0967105 0.108317 0.117842 0.127367 0.134445 0.141523 0.145881 0.15024 0.151712 0.153183 0.151712 0.15024 0.145881 0.141523 0.134445 0.127367 0.117842 0.108317 0.0967105 0.0851041 0.0718624 0.0586207 0.0442526 0.0298846 0.0149423 6.46677e-18 -0 -0.0221263 -0.0442526 -0.0655287 -0.0868047 -0.106413 -0.126021 -0.143208 -0.160394 -0.174499 -0.188604 -0.199084 -0.209565 -0.216019 -0.222473 -0.224652 -0.226832 -0.224652 -0.222473 -0.216019 -0.209565 -0.199084 -0.188604 -0.174499 -0.160394 -0.143208 -0.126021 -0.106413 -0.0868047 -0.0655287 -0.0442526 -0.0221263 2.41668e-17 0.0221263 0.0442526 0.0655287 0.0868047 0.106413 0.126021 0.143208 0.160394 0.174499 0.188604 0.199084 0.209565 0.216019 0.222473 0.224652 0.226832 0.224652 0.222473 0.216019 0.209565 0.199084 0.188604 0.174499 0.160394 0.143208 0.126021 0.106413 0.0868047 0.0655287 0.0442526 0.0221263 9.5759e-18 -0 -0.0293104 -0.0586207 -0.0868047 -0.114989 -0.140963 -0.166938 -0.189705 -0.212471 -0.231156 -0.24984 -0.263724 -0.277607 -0.286157 -0.294706 -0.297593 -0.30048 -0.297593 -0.294706 -0.286157 -0.277607 -0.263724 -0.24984 -0.231156 -0.212471 -0.189705 -0.166938 -0.140963 -0.114989 -0.0868047 -0.0586207 -0.0293104 -9.98179e-18 0.0293104 0.0586207 0.0868047 0.114989 0.140963 0.166938 0.189705 0.212471 0.231156 0.24984 0.263724 0.277607 0.286157 0.294706 0.297593 0.30048 0.297593 0.294706 0.286157 0.277607 0.263724 0.24984 0.231156 0.212471 0.189705 0.166938 0.140963 0.114989 0.0868047 0.0586207 0.0293104 1.2685e-17 -0 -0.0359312 -0.0718624 -0.106413 -0.140963 -0.172805 -0.204647 -0.232556 -0.260466 -0.283371 -0.306276 -0.323295 -0.340315 -0.350796 -0.361277 -0.364816 -0.368354 -0.364816 -0.361277 -0.350796 -0.340315 -0.323295 -0.306276 -0.283371 -0.260466 -0.232556 -0.204647 -0.172805 -0.140963 -0.106413 -0.0718624 -0.0359312 -3.61889e-17 0.0359312 0.0718624 0.106413 0.140963 0.172805 0.204647 0.232556 0.260466 0.283371 0.306276 0.323295 0.340315 0.350796 0.361277 0.364816 0.368354 0.364816 0.361277 0.350796 0.340315 0.323295 0.306276 0.283371 0.260466 0.232556 0.204647 0.172805 0.140963 0.106413 0.0718624 0.0359312 1.55504e-17 -0 -0.042552 -0.0851041 -0.126021 -0.166938 -0.204647 -0.242356 -0.275408 -0.308461 -0.335586 -0.362711 -0.382867 -0.403023 -0.415435 -0.427847 -0.432038 -0.436229 -0.432038 -0.427847 -0.415435 -0.403023 -0.382867 -0.362711 -0.335586 -0.308461 -0.275408 -0.242356 -0.204647 -0.166938 -0.126021 -0.0851041 -0.042552 -6.2396e-17 0.042552 0.0851041 0.126021 0.166938 0.204647 0.242356 0.275408 0.308461 0.335586 0.362711 0.382867 0.403023 0.415435 0.427847 0.432038 0.436229 0.432038 0.427847 0.415435 0.403023 0.382867 0.362711 0.335586 0.308461 0.275408 0.242356 0.204647 0.166938 0.126021 0.0851041 0.042552 1.84158e-17 -0 -0.0483553 -0.0967105 -0.143208 -0.189705 -0.232556 -0.275408 -0.312968 -0.350528 -0.381353 -0.412178 -0.435082 -0.457987 -0.472092 -0.486197 -0.490959 -0.495722 -0.490959 -0.486197 -0.472092 -0.457987 -0.435082 -0.412178 -0.381353 -0.350528 -0.312968 -0.275408 -0.232556 -0.189705 -0.143208 -0.0967105 -0.0483553 -7.8693e-17 0.0483553 0.0967105 0.143208 0.189705 0.232556 0.275408 0.312968 0.350528 0.381353 0.412178 0.435082 0.457987 0.472092 0.486197 0.490959 0.495722 0.490959 0.486197 0.472092 0.457987 0.435082 0.412178 0.381353 0.350528 0.312968 0.275408 0.232556 0.189705 0.143208 0.0967105 0.0483553 2.09273e-17 -0 -0.0541585 -0.108317 -0.160394 -0.212471 -0.260466 -0.308461 -0.350528 -0.392596 -0.42712 -0.461644 -0.487298 -0.512951 -0.528749 -0.544546 -0.54988 -0.555214 -0.54988 -0.544546 -0.528749 -0.512951 -0.487298 -0.461644 -0.42712 -0.392596 -0.350528 -0.308461 -0.260466 -0.212471 -0.160394 -0.108317 -0.0541585 -9.49901e-17 0.0541585 0.108317 0.160394 0.212471 0.260466 0.308461 0.350528 0.392596 0.42712 0.461644 0.487298 0.512951 0.528749 0.544546 0.54988 0.555214 0.54988 0.544546 0.528749 0.512951 0.487298 0.461644 0.42712 0.392596 0.350528 0.308461 0.260466 0.212471 0.160394 0.108317 0.0541585 2.34389e-17 -0 -0.0589211 -0.117842 -0.174499 -0.231156 -0.283371 -0.335586 -0.381353 -0.42712 -0.46468 -0.50224 -0.530149 -0.558059 -0.575246 -0.592432 -0.598235 -0.604039 -0.598235 -0.592432 -0.575246 -0.558059 -0.530149 -0.50224 -0.46468 -0.42712 -0.381353 -0.335586 -0.283371 -0.231156 -0.174499 -0.117842 -0.0589211 -1.29396e-16 0.0589211 0.117842 0.174499 0.231156 0.283371 0.335586 0.381353 0.42712 0.46468 0.50224 0.530149 0.558059 0.575246 0.592432 0.598235 0.604039 0.598235 0.592432 0.575246 0.558059 0.530149 0.50224 0.46468 0.42712 0.381353 0.335586 0.283371 0.231156 0.174499 0.117842 0.0589211 2.55e-17 -0 -0.0636836 -0.127367 -0.188604 -0.24984 -0.306276 -0.362711 -0.412178 -0.461644 -0.50224 -0.542836 -0.573001 -0.603167 -0.621743 -0.640318 -0.646591 -0.652863 -0.646591 -0.640318 -0.621743 -0.603167 -0.573001 -0.542836 -0.50224 -0.461644 -0.412178 -0.362711 -0.306276 -0.24984 -0.188604 -0.127367 -0.0636836 -1.63802e-16 0.0636836 0.127367 0.188604 0.24984 0.306276 0.362711 0.412178 0.461644 0.50224 0.542836 0.573001 0.603167 0.621743 0.640318 0.646591 0.652863 0.646591 0.640318 0.621743 0.603167 0.573001 0.542836 0.50224 0.461644 0.412178 0.362711 0.306276 0.24984 0.188604 0.127367 0.0636836 2.75612e-17 -0 -0.0672225 -0.134445 -0.199084 -0.263724 -0.323295 -0.382867 -0.435082 -0.487298 -0.530149 -0.573001 -0.604843 -0.636685 -0.656293 -0.675901 -0.682522 -0.689143 -0.682522 -0.675901 -0.656293 -0.636685 -0.604843 -0.573001 -0.530149 -0.487298 -0.435082 -0.382867 -0.323295 -0.263724 -0.199084 -0.134445 -0.0672225 -1.70998e-16 0.0672225 0.134445 0.199084 0.263724 0.323295 0.382867 0.435082 0.487298 0.530149 0.573001 0.604843 0.636685 0.656293 0.675901 0.682522 0.689143 0.682522 0.675901 0.656293 0.636685 0.604843 0.573001 0.530149 0.487298 0.435082 0.382867 0.323295 0.263724 0.199084 0.134445 0.0672225 2.90928e-17 -0 -0.0707615 -0.141523 -0.209565 -0.277607 -0.340315 -0.403023 -0.457987 -0.512951 -0.558059 -0.603167 -0.636685 -0.670203 -0.690843 -0.711484 -0.718453 -0.725423 -0.718453 -0.711484 -0.690843 -0.670203 -0.636685 -0.603167 -0.558059 -0.512951 -0.457987 -0.403023 -0.340315 -0.277607 -0.209565 -0.141523 -0.0707615 -1.78193e-16 0.0707615 0.141523 0.209565 0.277607 0.340315 0.403023 0.457987 0.512951 0.558059 0.603167 0.636685 0.670203 0.690843 0.711484 0.718453 0.725423 0.718453 0.711484 0.690843 0.670203 0.636685 0.603167 0.558059 0.512951 0.457987 0.403023 0.340315 0.277607 0.209565 0.141523 0.0707615 3.06244e-17 -0 -0.0729407 -0.145881 -0.216019 -0.286157 -0.350796 -0.415435 -0.472092 -0.528749 -0.575246 -0.621743 -0.656293 -0.690843 -0.712119 -0.733395 -0.740579 -0.747764 -0.740579 -0.733395 -0.712119 -0.690843 -0.656293 -0.621743 -0.575246 -0.528749 -0.472092 -0.415435 -0.350796 -0.286157 -0.216019 -0.145881 -0.0729407 -1.8522e-16 0.0729407 0.145881 0.216019 0.286157 0.350796 0.415435 0.472092 0.528749 0.575246 0.621743 0.656293 0.690843 0.712119 0.733395 0.740579 0.747764 0.740579 0.733395 0.712119 0.690843 0.656293 0.621743 0.575246 0.528749 0.472092 0.415435 0.350796 0.286157 0.216019 0.145881 0.0729407 3.15675e-17 -0 -0.07512 -0.15024 -0.222473 -0.294706 -0.361277 -0.427847 -0.486197 -0.544546 -0.592432 -0.640318 -0.675901 -0.711484 -0.733395 -0.755307 -0.762706 -0.770104 -0.762706 -0.755307 -0.733395 -0.711484 -0.675901 -0.640318 -0.592432 -0.544546 -0.486197 -0.427847 -0.361277 -0.294706 -0.222473 -0.15024 -0.07512 -1.92246e-16 0.07512 0.15024 0.222473 0.294706 0.361277 0.427847 0.486197 0.544546 0.592432 0.640318 0.675901 0.711484 0.733395 0.755307 0.762706 0.770104 0.762706 0.755307 0.733395 0.711484 0.675901 0.640318 0.592432 0.544546 0.486197 0.427847 0.361277 0.294706 0.222473 0.15024 0.07512 3.25107e-17 -0 -0.0758558 -0.151712 -0.224652 -0.297593 -0.364816 -0.432038 -0.490959 -0.54988 -0.598235 -0.646591 -0.682522 -0.718453 -0.740579 -0.762706 -0.770177 -0.777648 -0.770177 -0.762706 -0.740579 -0.718453 -0.682522 -0.646591 -0.598235 -0.54988 -0.490959 -0.432038 -0.364816 -0.297593 -0.224652 -0.151712 -0.0758558 -2.028e-16 0.0758558 0.151712 0.224652 0.297593 0.364816 0.432038 0.490959 0.54988 0.598235 0.646591 0.682522 0.718453 0.740579 0.762706 0.770177 0.777648 0.770177 0.762706 0.740579 0.718453 0.682522 0.646591 0.598235 0.54988 0.490959 0.432038 0.364816 0.297593 0.224652 0.151712 0.0758558 3.28291e-17 -0 -0.0765917 -0.153183 -0.226832 -0.30048 -0.368354 -0.436229 -0.495722 -0.555214 -0.604039 -0.652863 -0.689143 -0.725423 -0.747764 -0.770104 -0.777648 -0.785192 -0