<?xml version="1.0"?> 
<VTKFile type="StructuredGrid" version="0.1"> 
<StructuredGrid WholeExtent="0 128 0 128 0 0"> 
<Piece Extent="0 128 0 128 0 0"> 
<PointData>
<DataArray type="Float32" Name="u" format="ascii" NumberOfComponents="1"> 
0 0 0 0 0 0 0 0 0 0 0 0 0 0 0 0 0 0 0 0 0 0 0 0 0 0 0 0 0 0 0 0 0 0 0 0 0 0 0 0 0 0 0 0 0 0 0 0 0 0 0 0 0 0 0 0 0 0 0 0 0 0 0 0 0 0 0 0 0 0 0 0 0 0 0 0 0 0 0 0 0 0 0 0 0 0 0 0 0 0 0 0 0 0 0 0 0 0 0 0 0 0 0 0 0 0 0 0 0 0 0 0 0 0 0 0 0 0 0 0 0 0 0 0 0 0 0 0 0 0 3.58977e-07 1.43591e-06 3.23079e-06 5.74363e-06 8.97442e-06 1.29232e-05 1.75899e-05 2.29745e-05 2.87724e-05 3.46789e-05 4.06939e-05 4.68175e-05 5.30497e-05 5.93905e-05 6.58398e-05 7.23976e-05 7.90635e-05 8.5837e-05 9.27179e-05 9.97064e-05 0.000106802 0.000114006 0.000121317 0.000128735 0.000136208 0.000143683 0.000151158 0.000158636 0.000166114 0.000173594 0.000181075 0.000188558 0.000195987 0.00020331 0.000210526 0.000217635 0.000224637 0.000231533 0.000238321 0.000245002 0.000251526 0.000257842 0.00026395 0.00026985 0.000275543 0.000281027 0.000286303 0.000291372 0.000296193 0.000300725 0.00030497 0.000308926 0.000312595 0.000315976 0.000319069 0.000321873 0.000324368 0.00032653 0.000328359 0.000329856 0.00033102 0.000331852 0.00033235 0.000332517 0.00033235 0.000331852 0.00033102 0.000329856 0.000328359 0.00032653 0.000324368 0.000321873 0.000319069 0.000315976 0.000312595 0.000308926 0.00030497 0.000300725 0.000296193 0.000291372 0.000286304 0.000281027 0.000275543 0.00026985 0.00026395 0.000257842 0.000251526 0.000245002 0.000238321 0.000231533 0.000224638 0.000217635 0.000210526 0.00020331 0.000195988 0.000188558 0.000181075 0.000173594 0.000166114 0.000158636 0.000151159 0.000143683 0.000136209 0.000128736 0.000121317 0.000114006 0.000106802 9.97065e-05 9.27181e-05 8.58371e-05 7.90637e-05 7.23978e-05 6.58399e-05 5.93906e-05 5.30499e-05 4.68177e-05 4.06941e-05 3.4679e-05 2.87725e-05 2.29746e-05 1.75899e-05 1.29232e-05 8.97445e-06 5.74365e-06 3.2308e-06 1.43591e-06 3.58978e-07 0 0 1.43591e-06 5.74363e-06 1.29232e-05 2.29745e-05 3.58977e-05 5.16927e-05 7.03595e-05 9.18981e-05 0.00011509 0.000138716 0.000162776 0.00018727 0.000212199 0.000237562 0.000263359 0.00028959 0.000316254 0.000343348 0.000370872 0.000398825 0.000427209 0.000456023 0.000485267 0.000514942 0.000544833 0.000574731 0.000604634 0.000634542 0.000664456 0.000694375 0.0007243 0.000754231 0.00078395 0.000813241 0.000842105 0.000870541 0.00089855 0.000926131 0.000953284 0.000980009 0.0010061 0.00103137 0.0010558 0.0010794 0.00110217 0.00112411 0.00114521 0.00116549 0.00118477 0.0012029 0.00121988 0.00123571 0.00125038 0.0012639 0.00127627 0.00128749 0.00129747 0.00130612 0.00131344 0.00131942 0.00132408 0.00132741 0.0013294 0.00133007 0.0013294 0.00132741 0.00132408 0.00131942 0.00131344 0.00130612 0.00129747 0.00128749 0.00127627 0.0012639 0.00125038 0.00123571 0.00121988 0.0012029 0.00118477 0.00116549 0.00114521 0.00112411 0.00110217 0.0010794 0.0010558 0.00103137 0.0010061 0.000980009 0.000953284 0.000926131 0.00089855 0.000870542 0.000842106 0.000813242 0.00078395 0.000754231 0.000724301 0.000694376 0.000664457 0.000634543 0.000604634 0.000574731 0.000544834 0.000514942 0.000485268 0.000456024 0.00042721 0.000398826 0.000370872 0.000343348 0.000316255 0.000289591 0.00026336 0.000237562 0.000212199 0.000187271 0.000162776 0.000138716 0.00011509 9.18984e-05 7.03597e-05 5.16928e-05 3.58978e-05 2.29746e-05 1.29232e-05 5.74365e-06 1.43591e-06 0 0 3.23079e-06 1.29232e-05 2.90771e-05 5.16927e-05 8.07698e-05 0.000116308 0.000158309 0.000206771 0.000258952 0.00031211 0.000366245 0.000421358 0.000477447 0.000534514 0.000592558 0.000651579 0.000711572 0.000772533 0.000834461 0.000897357 0.000961221 0.00102605 0.00109185 0.00115862 0.00122588 0.00129314 0.00136043 0.00142772 0.00149503 0.00156234 0.00162968 0.00169702 0.00176389 0.00182979 0.00189474 0.00195872 0.00202174 0.00208379 0.00214489 0.00220502 0.00226374 0.00232058 0.00237555 0.00242865 0.00247988 0.00252924 0.00257673 0.00262235 0.00266573 0.00270653 0.00274473 0.00278034 0.00281336 0.00284378 0.00287162 0.00289686 0.00291931 0.00293877 0.00295523 0.0029687 0.00297918 0.00298666 0.00299115 0.00299265 0.00299115 0.00298666 0.00297918 0.0029687 0.00295523 0.00293877 0.00291931 0.00289686 0.00287162 0.00284378 0.00281336 0.00278034 0.00274473 0.00270653 0.00266573 0.00262235 0.00257673 0.00252924 0.00247988 0.00242865 0.00237555 0.00232058 0.00226374 0.00220502 0.00214489 0.00208379 0.00202174 0.00195872 0.00189474 0.00182979 0.00176389 0.00169702 0.00162968 0.00156235 0.00149503 0.00142772 0.00136043 0.00129315 0.00122588 0.00115862 0.00109185 0.00102605 0.000961222 0.000897359 0.000834463 0.000772534 0.000711573 0.00065158 0.000592559 0.000534516 0.000477449 0.000421359 0.000366247 0.000312111 0.000258953 0.000206771 0.000158309 0.000116309 8.07701e-05 5.16928e-05 2.90772e-05 1.29232e-05 3.2308e-06 0 0 5.74363e-06 2.29745e-05 5.16927e-05 9.18981e-05 0.000143591 0.000206771 0.000281438 0.000367592 0.000460359 0.000554862 0.000651103 0.000749081 0.000848796 0.000950247 0.00105344 0.00115836 0.00126502 0.00137339 0.00148349 0.0015953 0.00170884 0.00182409 0.00194107 0.00205977 0.00217933 0.00229892 0.00241854 0.00253817 0.00265782 0.0027775 0.0028972 0.00301692 0.0031358 0.00325297 0.00336842 0.00348217 0.0035942 0.00370452 0.00381313 0.00392004 0.00402442 0.00412547 0.0042232 0.00431761 0.00440868 0.00449643 0.00458086 0.00466195 0.00473908 0.0048116 0.00487952 0.00494282 0.00500152 0.00505561 0.0051051 0.00514998 0.00518989 0.00522448 0.00525375 0.0052777 0.00529632 0.00530963 0.00531761 0.00532027 0.00531761 0.00530963 0.00529632 0.0052777 0.00525375 0.00522448 0.00518989 0.00514998 0.0051051 0.00505561 0.00500152 0.00494282 0.00487952 0.0048116 0.00473908 0.00466195 0.00458086 0.00449643 0.00440868 0.00431761 0.00422321 0.00412548 0.00402442 0.00392004 0.00381314 0.00370452 0.0035942 0.00348217 0.00336842 0.00325297 0.0031358 0.00301692 0.0028972 0.0027775 0.00265783 0.00253817 0.00241854 0.00229893 0.00217934 0.00205977 0.00194107 0.0018241 0.00170884 0.0015953 0.00148349 0.00137339 0.00126502 0.00115836 0.00105344 0.00095025 0.000848798 0.000749083 0.000651105 0.000554864 0.00046036 0.000367594 0.000281439 0.000206771 0.000143591 9.18984e-05 5.16928e-05 2.29746e-05 5.74365e-06 0 0 8.97442e-06 3.58977e-05 8.07698e-05 0.000143591 0.00022436 0.000323079 0.000439747 0.000574363 0.000719311 0.000866973 0.00101735 0.00117044 0.00132624 0.00148476 0.00164599 0.00180994 0.00197659 0.00214592 0.00231795 0.00249266 0.00267006 0.00285015 0.00303292 0.00321838 0.00340521 0.00359207 0.00377896 0.00396589 0.00415285 0.00433985 0.00452688 0.00471394 0.00489969 0.00508276 0.00526316 0.00544088 0.00561594 0.00578832 0.00595802 0.00612506 0.00628815 0.00644605 0.00659876 0.00674626 0.00688857 0.00702568 0.00715759 0.0072843 0.00740481 0.00751813 0.00762424 0.00772316 0.00781488 0.0078994 0.00797672 0.00804684 0.0081092 0.00816325 0.00820898 0.0082464 0.0082755 0.00829629 0.00830876 0.00831292 0.00830876 0.00829629 0.0082755 0.0082464 0.00820898 0.00816325 0.0081092 0.00804684 0.00797672 0.0078994 0.00781488 0.00772316 0.00762425 0.00751813 0.00740481 0.0072843 0.00715759 0.00702568 0.00688857 0.00674626 0.00659876 0.00644606 0.00628816 0.00612506 0.00595802 0.00578832 0.00561594 0.00544089 0.00526316 0.00508276 0.00489969 0.00471394 0.00452688 0.00433985 0.00415285 0.00396589 0.00377896 0.00359207 0.00340521 0.00321839 0.00303293 0.00285015 0.00267006 0.00249266 0.00231795 0.00214593 0.00197659 0.00180994 0.001646 0.00148477 0.00132625 0.00117044 0.00101735 0.000866975 0.000719313 0.000574365 0.000439748 0.00032308 0.000224361 0.000143591 8.07701e-05 3.58978e-05 8.97445e-06 0 0 1.29232e-05 5.16927e-05 0.000116308 0.000206771 0.000323079 0.000465234 0.000633235 0.000827083 0.00103581 0.00124844 0.00146498 0.00168543 0.00190979 0.00213806 0.00237023 0.00260631 0.00284629 0.00309013 0.00333784 0.00358943 0.00384488 0.00410421 0.00436741 0.00463447 0.0049035 0.00517258 0.0054417 0.00571088 0.0059801 0.00624938 0.0065187 0.00678808 0.00705555 0.00731917 0.00757895 0.00783487 0.00808695 0.00833518 0.00857955 0.00882008 0.00905494 0.00928232 0.00950221 0.00971462 0.00991954 0.010117 0.0103069 0.0104894 0.0106629 0.0108261 0.0109789 0.0111214 0.0112534 0.0113751 0.0114865 0.0115874 0.0116772 0.0117551 0.0118209 0.0118748 0.0119167 0.0119467 0.0119646 0.0119706 0.0119646 0.0119467 0.0119167 0.0118748 0.0118209 0.0117551 0.0116772 0.0115874 0.0114865 0.0113751 0.0112534 0.0111214 0.0109789 0.0108261 0.0106629 0.0104894 0.0103069 0.010117 0.00991954 0.00971462 0.00950221 0.00928232 0.00905494 0.00882008 0.00857956 0.00833518 0.00808695 0.00783488 0.00757895 0.00731918 0.00705555 0.00678808 0.00651871 0.00624938 0.00598011 0.00571088 0.00544171 0.00517258 0.00490351 0.00463448 0.00436741 0.00410422 0.00384489 0.00358943 0.00333785 0.00309014 0.00284629 0.00260632 0.00237024 0.00213806 0.0019098 0.00168544 0.00146499 0.00124844 0.00103581 0.000827085 0.000633237 0.000465236 0.00032308 0.000206771 0.000116309 5.16928e-05 1.29232e-05 0 0 1.75899e-05 7.03595e-05 0.000158309 0.000281438 0.000439747 0.000633235 0.000861903 0.00112575 0.00140985 0.00169927 0.001994 0.00229406 0.00259944 0.00291013 0.00322615 0.00354748 0.00387411 0.00420601 0.00454318 0.00488561 0.00523331 0.00558629 0.00594453 0.00630803 0.00667421 0.00704045 0.00740676 0.00777314 0.00813959 0.0085061 0.00887268 0.00923933 0.00960339 0.00996221 0.0103158 0.0106641 0.0110072 0.0113451 0.0116777 0.0120051 0.0123248 0.0126343 0.0129336 0.0132227 0.0135016 0.0137703 0.0140289 0.0142772 0.0145134 0.0147355 0.0149435 0.0151374 0.0153172 0.0154828 0.0156344 0.0157718 0.015894 0.016 0.0160896 0.0161629 0.01622 0.0162607 0.0162852 0.0162933 0.0162852 0.0162607 0.01622 0.0161629 0.0160896 0.016 0.015894 0.0157718 0.0156344 0.0154828 0.0153172 0.0151374 0.0149435 0.0147355 0.0145134 0.0142772 0.0140289 0.0137703 0.0135016 0.0132227 0.0129336 0.0126343 0.0123248 0.0120051 0.0116777 0.0113451 0.0110072 0.0106641 0.0103158 0.00996221 0.00960339 0.00923933 0.00887268 0.0085061 0.00813959 0.00777315 0.00740677 0.00704046 0.00667422 0.00630804 0.00594453 0.00558629 0.00523332 0.00488562 0.00454318 0.00420602 0.00387412 0.00354749 0.00322616 0.00291014 0.00259944 0.00229407 0.00199401 0.00169927 0.00140985 0.00112576 0.000861906 0.000633237 0.000439748 0.000281439 0.000158309 7.03597e-05 1.75899e-05 0 0 2.29745e-05 9.18981e-05 0.000206771 0.000367592 0.000574363 0.000827083 0.00112575 0.00147037 0.00184144 0.00221945 0.00260441 0.00299632 0.00339518 0.00380099 0.00421374 0.00463345 0.00506007 0.00549357 0.00593395 0.00638121 0.00683535 0.00729637 0.00776428 0.00823906 0.00871734 0.00919569 0.00967414 0.0101527 0.0106313 0.01111 0.0115888 0.0120677 0.0125432 0.0130119 0.0134737 0.0139287 0.0143768 0.0148181 0.0152525 0.0156801 0.0160977 0.0165019 0.0168928 0.0172704 0.0176347 0.0179857 0.0183234 0.0186478 0.0189563 0.0192464 0.0195181 0.0197713 0.0200061 0.0202225 0.0204204 0.0205999 0.0207596 0.0208979 0.021015 0.0211108 0.0211853 0.0212385 0.0212704 0.0212811 0.0212704 0.0212385 0.0211853 0.0211108 0.021015 0.0208979 0.0207596 0.0205999 0.0204204 0.0202225 0.0200061 0.0197713 0.0195181 0.0192464 0.0189563 0.0186478 0.0183234 0.0179857 0.0176347 0.0172704 0.0168928 0.0165019 0.0160977 0.0156801 0.0152525 0.0148181 0.0143768 0.0139287 0.0134737 0.0130119 0.0125432 0.0120677 0.0115888 0.01111 0.0106313 0.0101527 0.00967415 0.0091957 0.00871734 0.00823907 0.00776429 0.00729638 0.00683536 0.00638122 0.00593396 0.00549358 0.00506008 0.00463346 0.00421375 0.003801 0.00339519 0.00299633 0.00260442 0.00221946 0.00184144 0.00147037 0.00112576 0.000827085 0.000574365 0.000367594 0.000206771 9.18984e-05 2.29746e-05 0 0 2.87546e-05 0.000115018 0.000258791 0.000460073 0.000718864 0.00103516 0.00140897 0.00184029 0.0023047 0.00277777 0.00325951 0.00374992 0.00424899 0.00475673 0.00527313 0.00579821 0.00633191 0.00687421 0.00742511 0.00798461 0.0085527 0.00912939 0.00971468 0.0103086 0.0109068 0.0115052 0.0121036 0.0127022 0.0133008 0.0138996 0.0144984 0.0150974 0.0156922 0.0162783 0.016856 0.017425 0.0179855 0.0185375 0.0190809 0.0196157 0.0201379 0.0206435 0.0211324 0.0216047 0.0220603 0.0224993 0.0229217 0.0233274 0.0237133 0.0240761 0.0244158 0.0247325 0.0250262 0.0252968 0.0255444 0.0257689 0.0259686 0.0261416 0.0262881 0.0264079 0.026501 0.0265676 0.0266075 0.0266208 0.0266075 0.0265676 0.026501 0.0264079 0.0262881 0.0261416 0.0259686 0.0257689 0.0255444 0.0252968 0.0250262 0.0247326 0.0244158 0.0240761 0.0237133 0.0233274 0.0229217 0.0224993 0.0220603 0.0216047 0.0211324 0.0206435 0.0201379 0.0196157 0.0190809 0.0185375 0.0179855 0.017425 0.016856 0.0162784 0.0156922 0.0150974 0.0144985 0.0138996 0.0133008 0.0127022 0.0121036 0.0115052 0.0109068 0.0103086 0.00971469 0.00912941 0.00855271 0.00798462 0.00742512 0.00687422 0.00633192 0.00579822 0.00527315 0.00475674 0.004249 0.00374993 0.00325952 0.00277778 0.00230471 0.0018403 0.00140898 0.00103517 0.000718867 0.000460075 0.000258792 0.000115019 2.87547e-05 0 0 3.46074e-05 0.00013843 0.000311467 0.000553719 0.000865186 0.00124587 0.00169576 0.00221488 0.00277377 0.00334301 0.0039226 0.00451253 0.00511282 0.00572345 0.00634443 0.00697575 0.00761741 0.00826937 0.00893163 0.0096042 0.0102871 0.0109803 0.0116838 0.0123976 0.0131166 0.0138357 0.0145549 0.0152742 0.0159937 0.0167133 0.017433 0.0181527 0.0188674 0.0195719 0.020266 0.0209498 0.0216233 0.0222866 0.0229395 0.0235822 0.0242097 0.0248172 0.0254047 0.0259722 0.0265197 0.0270472 0.0275547 0.0280422 0.0285059 0.0289419 0.0293501 0.0297307 0.0300835 0.0304087 0.0307062 0.0309759 0.0312159 0.0314238 0.0315997 0.0317437 0.0318557 0.0319356 0.0319836 0.0319996 0.0319836 0.0319356 0.0318557 0.0317437 0.0315998 0.0314238 0.0312159 0.0309759 0.0307062 0.0304087 0.0300835 0.0297307 0.0293501 0.0289419 0.0285059 0.0280422 0.0275547 0.0270472 0.0265197 0.0259722 0.0254047 0.0248172 0.0242097 0.0235822 0.0229395 0.0222866 0.0216233 0.0209498 0.020266 0.0195719 0.0188675 0.0181528 0.017433 0.0167133 0.0159937 0.0152743 0.0145549 0.0138357 0.0131166 0.0123976 0.0116838 0.0109803 0.0102871 0.00960422 0.00893165 0.00826938 0.00761742 0.00697577 0.00634444 0.00572346 0.00511283 0.00451255 0.00392261 0.00334302 0.00277378 0.00221488 0.00169577 0.00124587 0.000865189 0.000553721 0.000311468 0.00013843 3.46076e-05 0 0 4.05332e-05 0.000162133 0.000364798 0.00064853 0.00101333 0.00145919 0.00198612 0.00259412 0.00324865 0.00391517 0.00459367 0.00528417 0.00598667 0.00670115 0.00742762 0.00816609 0.00891656 0.00967903 0.0104535 0.01124 0.0120385 0.012849 0.0136715 0.014506 0.0153466 0.0161873 0.0170281 0.017869 0.01871 0.0195511 0.0203923 0.0212337 0.0220691 0.0228924 0.0237037 0.024503 0.0252902 0.0260654 0.0268286 0.0275797 0.0283131 0.0290231 0.0297098 0.030373 0.0310129 0.0316295 0.0322226 0.0327924 0.0333342 0.0338438 0.0343209 0.0347657 0.0351781 0.0355581 0.0359057 0.036221 0.0365014 0.0367444 0.0369501 0.0371183 0.0372492 0.0373426 0.0373987 0.0374174 0.0373987 0.0373426 0.0372492 0.0371183 0.0369501 0.0367444 0.0365014 0.036221 0.0359057 0.0355581 0.0351781 0.0347657 0.0343209 0.0338438 0.0333342 0.0327924 0.0322226 0.0316295 0.0310129 0.030373 0.0297098 0.0290231 0.0283131 0.0275797 0.0268286 0.0260654 0.0252902 0.024503 0.0237037 0.0228924 0.0220691 0.0212337 0.0203923 0.0195511 0.01871 0.017869 0.0170281 0.0161873 0.0153466 0.014506 0.0136715 0.012849 0.0120385 0.01124 0.0104535 0.00967905 0.00891657 0.00816611 0.00742764 0.00670117 0.00598668 0.00528419 0.00459369 0.00391518 0.00324866 0.00259413 0.00198613 0.0014592 0.00101333 0.000648533 0.0003648 0.000162133 4.05333e-05 0 0 4.65317e-05 0.000186127 0.000418785 0.000744507 0.00116329 0.00167514 0.00228005 0.00297803 0.00372933 0.00449424 0.00527274 0.00606484 0.00687054 0.00768983 0.00852273 0.00936922 0.0102294 0.0111032 0.0119907 0.012892 0.0138069 0.0147356 0.0156779 0.0166339 0.0175969 0.0185599 0.0195231 0.0204863 0.0214496 0.0224131 0.0233766 0.0243402 0.025297 0.02624 0.0271692 0.0280846 0.0289861 0.0298739 0.0307479 0.0316081 0.0324481 0.0332612 0.0340476 0.0348072 0.03554 0.036246 0.0369253 0.0375777 0.0381983 0.0387818 0.0393282 0.0398375 0.0403098 0.040745 0.0411431 0.0415042 0.0418253 0.0421036 0.042339 0.0425317 0.0426815 0.0427886 0.0428528 0.0428742 0.0428528 0.0427886 0.0426815 0.0425317 0.042339 0.0421036 0.0418253 0.0415042 0.0411431 0.040745 0.0403098 0.0398375 0.0393282 0.0387818 0.0381983 0.0375777 0.0369253 0.036246 0.03554 0.0348072 0.0340476 0.0332612 0.0324481 0.0316082 0.030748 0.029874 0.0289862 0.0280846 0.0271692 0.02624 0.025297 0.0243402 0.0233766 0.0224131 0.0214496 0.0204863 0.0195231 0.0185599 0.0175969 0.016634 0.0156779 0.0147356 0.0138069 0.012892 0.0119908 0.0111032 0.0102294 0.00936924 0.00852275 0.00768985 0.00687056 0.00606486 0.00527276 0.00449425 0.00372935 0.00297804 0.00228006 0.00167515 0.0011633 0.00074451 0.000418787 0.000186127 4.65319e-05 0 0 5.26031e-05 0.000210412 0.000473428 0.000841649 0.00131508 0.00189371 0.00257755 0.0033666 0.00421583 0.00508023 0.0059598 0.00685453 0.00776443 0.0086895 0.00962974 0.0105851 0.0115558 0.0125419 0.0135433 0.0145602 0.0155924 0.01664 0.017703 0.0187814 0.0198675 0.0209536 0.0220399 0.0231262 0.0242127 0.0252992 0.0263857 0.0274724 0.0285513 0.0296146 0.0306623 0.0316945 0.0327112 0.0337122 0.0346977 0.0356676 0.0366146 0.0375315 0.0384181 0.0392746 0.0401008 0.0408969 0.0416627 0.0423984 0.043098 0.0437559 0.044372 0.0449462 0.0454787 0.0459694 0.0464183 0.0468253 0.0471874 0.0475011 0.0477666 0.0479838 0.0481528 0.0482735 0.0483459 0.04837 0.0483459 0.0482735 0.0481528 0.0479838 0.0477666 0.0475011 0.0471874 0.0468253 0.0464183 0.0459694 0.0454787 0.0449463 0.044372 0.0437559 0.0430981 0.0423984 0.0416627 0.0408969 0.0401008 0.0392746 0.0384181 0.0375315 0.0366146 0.0356676 0.0346977 0.0337122 0.0327112 0.0316945 0.0306624 0.0296146 0.0285513 0.0274724 0.0263857 0.0252992 0.0242127 0.0231263 0.0220399 0.0209537 0.0198675 0.0187814 0.017703 0.01664 0.0155924 0.0145602 0.0135434 0.0125419 0.0115558 0.0105852 0.00962976 0.00868952 0.00776445 0.00685455 0.00595982 0.00508025 0.00421584 0.00336661 0.00257756 0.00189372 0.00131508 0.000841652 0.000473429 0.000210413 5.26033e-05 0 0 5.87473e-05 0.000234989 0.000528726 0.000939957 0.00146868 0.0021149 0.00287862 0.00375983 0.00470813 0.00567314 0.00665484 0.00765325 0.00866835 0.00970015 0.0107486 0.0118138 0.0128959 0.0139951 0.0151113 0.0162445 0.0173949 0.0185623 0.0197467 0.0209482 0.0221583 0.0233684 0.0245786 0.0257888 0.0269991 0.0282094 0.0294197 0.0306301 0.0318318 0.0330162 0.0341833 0.0353329 0.0364652 0.0375802 0.0386778 0.039758 0.0408128 0.0418339 0.0428214 0.0437752 0.0446955 0.045582 0.046435 0.0472543 0.0480335 0.0487662 0.0494523 0.0500918 0.0506848 0.0512313 0.0517312 0.0521845 0.0525877 0.0529372 0.0532328 0.0534748 0.0536629 0.0537973 0.0538779 0.0539048 0.0538779 0.0537973 0.0536629 0.0534748 0.0532328 0.0529372 0.0525877 0.0521845 0.0517312 0.0512313 0.0506849 0.0500918 0.0494523 0.0487662 0.0480335 0.0472543 0.046435 0.045582 0.0446955 0.0437753 0.0428214 0.0418339 0.0408128 0.0397581 0.0386778 0.0375802 0.0364652 0.0353329 0.0341833 0.0330162 0.0318319 0.0306301 0.0294197 0.0282094 0.0269991 0.0257888 0.0245786 0.0233685 0.0221583 0.0209483 0.0197468 0.0185623 0.0173949 0.0162446 0.0151113 0.0139951 0.012896 0.0118139 0.0107487 0.00970017 0.00866837 0.00765327 0.00665486 0.00567316 0.00470815 0.00375984 0.00287863 0.00211491 0.00146869 0.00093996 0.000528727 0.00023499 5.87475e-05 0 0 6.49643e-05 0.000259857 0.000584679 0.00103943 0.00162411 0.00233872 0.00318325 0.00415772 0.00520624 0.00627296 0.00735788 0.00846098 0.00958229 0.0107218 0.0118795 0.0130553 0.0142497 0.0154628 0.0166946 0.0179451 0.0192144 0.0205024 0.0218091 0.0231346 0.0244695 0.0258043 0.0271391 0.028474 0.0298089 0.0311437 0.0324786 0.0338135 0.0351388 0.0364449 0.0377319 0.0389997 0.0402484 0.0414779 0.0426883 0.0438795 0.0450425 0.0461685 0.0472574 0.0483092 0.0493239 0.0503015 0.051242 0.0521455 0.0530047 0.0538126 0.0545691 0.0552743 0.0559282 0.0565307 0.0570819 0.0575818 0.0580264 0.0584117 0.0587377 0.0590044 0.0592119 0.0593601 0.059449 0.0594786 0.059449 0.0593601 0.0592119 0.0590044 0.0587377 0.0584117 0.0580264 0.0575818 0.0570819 0.0565307 0.0559282 0.0552743 0.0545691 0.0538126 0.0530047 0.0521455 0.0512421 0.0503015 0.0493239 0.0483092 0.0472574 0.0461685 0.0450426 0.0438795 0.0426883 0.0414779 0.0402484 0.0389997 0.0377319 0.0364449 0.0351388 0.0338135 0.0324786 0.0311437 0.0298089 0.028474 0.0271392 0.0258043 0.0244695 0.0231346 0.0218092 0.0205024 0.0192144 0.0179451 0.0166946 0.0154628 0.0142497 0.0130554 0.0118795 0.0107218 0.00958231 0.00846101 0.0073579 0.00627298 0.00520626 0.00415773 0.00318326 0.00233872 0.00162411 0.00103943 0.000584681 0.000259858 6.49646e-05 0 0 7.12542e-05 0.000285017 0.000641288 0.00114007 0.00178136 0.00256515 0.00349146 0.00456027 0.00571016 0.00687971 0.0080689 0.00927775 0.0105062 0.0117544 0.0130222 0.0143096 0.0156171 0.016945 0.0182932 0.0196619 0.0210509 0.0224604 0.0238902 0.0253405 0.0268009 0.0282612 0.0297215 0.0311818 0.032642 0.0341022 0.0355623 0.0370224 0.038472 0.0399006 0.0413082 0.0426949 0.0440606 0.0454053 0.0467291 0.0480319 0.0493039 0.0505353 0.0517262 0.0528765 0.0539862 0.0550553 0.0560839 0.0570719 0.0580116 0.0588951 0.0597224 0.0604936 0.0612087 0.0618676 0.0624704 0.0630171 0.0635033 0.0639246 0.0642812 0.0645729 0.0647998 0.0649618 0.0650591 0.0650915 0.0650591 0.0649618 0.0647998 0.0645729 0.0642812 0.0639246 0.0635033 0.0630171 0.0624705 0.0618677 0.0612087 0.0604936 0.0597224 0.0588951 0.0580116 0.0570719 0.0560839 0.0550554 0.0539862 0.0528765 0.0517262 0.0505353 0.0493039 0.0480319 0.0467291 0.0454053 0.0440606 0.0426949 0.0413083 0.0399006 0.038472 0.0370224 0.0355624 0.0341022 0.0326421 0.0311818 0.0297216 0.0282613 0.0268009 0.0253405 0.0238903 0.0224604 0.021051 0.0196619 0.0182933 0.016945 0.0156171 0.0143097 0.0130222 0.0117544 0.0105063 0.00927777 0.00806893 0.00687973 0.00571018 0.00456029 0.00349147 0.00256516 0.00178136 0.00114007 0.00064129 0.000285018 7.12545e-05 0 0 7.75997e-05 0.000310399 0.000698398 0.0012416 0.00193999 0.00279359 0.00380239 0.00496638 0.00621852 0.00749174 0.00878605 0.0101014 0.0114379 0.0127955 0.0141741 0.0155738 0.0169951 0.0184385 0.0199039 0.0213913 0.0229008 0.0244324 0.025986 0.0275617 0.0291483 0.0307348 0.0323212 0.0339076 0.0354938 0.0370799 0.0386659 0.0402518 0.0418262 0.0433779 0.0449067 0.0464128 0.047896 0.0493565 0.0507942 0.0522091 0.0535905 0.0549279 0.0562212 0.0574704 0.0586756 0.0598367 0.0609537 0.0620267 0.0630471 0.0640066 0.0649051 0.0657426 0.0665192 0.0672347 0.0678894 0.068483 0.069011 0.0694686 0.0698558 0.0701725 0.0704189 0.0705949 0.0707005 0.0707357 0.0707005 0.0705949 0.0704189 0.0701725 0.0698558 0.0694686 0.069011 0.068483 0.0678894 0.0672348 0.0665192 0.0657426 0.0649051 0.0640066 0.0630471 0.0620267 0.0609537 0.0598367 0.0586756 0.0574704 0.0562212 0.0549279 0.0535905 0.0522091 0.0507942 0.0493565 0.0478961 0.0464128 0.0449067 0.0433779 0.0418262 0.0402518 0.0386659 0.0370799 0.0354938 0.0339076 0.0323213 0.0307348 0.0291483 0.0275617 0.025986 0.0244324 0.0229009 0.0213914 0.0199039 0.0184385 0.0169952 0.0155739 0.0141742 0.0127955 0.0114379 0.0101015 0.00878608 0.00749177 0.00621854 0.0049664 0.0038024 0.0027936 0.00194 0.0012416 0.0006984 0.0003104 7.76e-05 0 0 8.39837e-05 0.000335935 0.000755853 0.00134374 0.00209959 0.00302341 0.0041152 0.00537496 0.00672995 0.00810745 0.00950746 0.01093 0.012375 0.0138425 0.0153326 0.0168451 0.0183808 0.0199401 0.0215232 0.0231299 0.0247604 0.0264146 0.0280925 0.0297941 0.0315075 0.0332207 0.0349337 0.0366466 0.0383592 0.0400718 0.0417841 0.0434963 0.0451961 0.0468712 0.0485217 0.0501476 0.0517489 0.0533255 0.0548775 0.0564049 0.0578961 0.0593398 0.0607359 0.0620845 0.0633854 0.0646388 0.0658446 0.0670028 0.0681043 0.06914 0.0701099 0.071014 0.0718522 0.0726247 0.0733313 0.0739721 0.074542 0.075036 0.0754539 0.0757958 0.0760618 0.0762518 0.0763658 0.0764038 0.0763658 0.0762518 0.0760618 0.0757959 0.0754539 0.075036 0.074542 0.0739721 0.0733313 0.0726247 0.0718522 0.071014 0.0701099 0.06914 0.0681043 0.0670028 0.0658446 0.0646388 0.0633854 0.0620845 0.060736 0.0593399 0.0578962 0.0564049 0.0548775 0.0533255 0.0517489 0.0501476 0.0485217 0.0468712 0.0451961 0.0434963 0.0417841 0.0400718 0.0383593 0.0366466 0.0349337 0.0332207 0.0315075 0.0297941 0.0280925 0.0264146 0.0247605 0.02313 0.0215232 0.0199401 0.0183808 0.0168451 0.0153326 0.0138426 0.012375 0.01093 0.00950748 0.00810747 0.00672997 0.00537497 0.00411521 0.00302342 0.0020996 0.00134374 0.000755856 0.000335936 8.3984e-05 0 0 9.04061e-05 0.000361624 0.000813655 0.0014465 0.00226015 0.00325462 0.0044299 0.00578599 0.00724445 0.00872682 0.0102331 0.0117633 0.0133175 0.0148955 0.0164975 0.0181234 0.0197739 0.0214498 0.0231511 0.0248777 0.0266297 0.028407 0.0302097 0.0320378 0.0338784 0.0357188 0.0375589 0.0393988 0.0412385 0.0430779 0.044917 0.046756 0.0485815 0.0503806 0.0521532 0.0538994 0.0556191 0.0573123 0.058979 0.0606193 0.0622208 0.0637712 0.0652704 0.0667186 0.0681157 0.0694617 0.0707565 0.0720003 0.0731832 0.0742954 0.0753369 0.0763078 0.0772079 0.0780374 0.0787963 0.0794844 0.0800964 0.0806268 0.0810756 0.0814428 0.0817284 0.0819324 0.0820548 0.0820956 0.0820548 0.0819324 0.0817284 0.0814428 0.0810756 0.0806268 0.0800964 0.0794844 0.0787963 0.0780374 0.0772079 0.0763078 0.0753369 0.0742954 0.0731832 0.0720003 0.0707565 0.0694617 0.0681157 0.0667186 0.0652704 0.0637712 0.0622208 0.0606193 0.058979 0.0573123 0.0556191 0.0538994 0.0521533 0.0503806 0.0485815 0.046756 0.0449171 0.0430779 0.0412385 0.0393988 0.037559 0.0357188 0.0338784 0.0320378 0.0302098 0.0284071 0.0266297 0.0248777 0.0231511 0.0214499 0.019774 0.0181234 0.0164975 0.0148956 0.0133175 0.0117634 0.0102331 0.00872685 0.00724447 0.00578601 0.00442991 0.00325463 0.00226016 0.0014465 0.000813657 0.000361625 9.04064e-05 0 0 9.68669e-05 0.000387468 0.000871802 0.00154987 0.00242167 0.00348721 0.00474648 0.00619948 0.00776201 0.00934987 0.010963 0.0126015 0.0142654 0.0159545 0.017669 0.0194088 0.0211747 0.0229677 0.0247876 0.0266346 0.0285086 0.0304097 0.0323377 0.0342927 0.0362611 0.0382292 0.0401969 0.0421643 0.0441314 0.0460982 0.0480647 0.0500308 0.0519826 0.0539061 0.0558013 0.0576681 0.0595067 0.0613169 0.0630988 0.0648523 0.0665644 0.0682219 0.0698247 0.0713728 0.0728664 0.0743053 0.0756895 0.0770192 0.0782837 0.0794727 0.0805861 0.081624 0.0825863 0.083473 0.0842842 0.0850199 0.0856741 0.0862411 0.0867209 0.0871134 0.0874188 0.0876368 0.0877677 0.0878113 0.0877677 0.0876368 0.0874188 0.0871134 0.0867209 0.0862411 0.0856741 0.0850199 0.0842842 0.083473 0.0825863 0.081624 0.0805861 0.0794727 0.0782837 0.0770192 0.0756895 0.0743053 0.0728664 0.0713728 0.0698247 0.0682219 0.0665644 0.0648523 0.0630988 0.0613169 0.0595067 0.0576682 0.0558013 0.0539061 0.0519827 0.0500308 0.0480647 0.0460982 0.0441315 0.0421644 0.0401969 0.0382292 0.0362611 0.0342928 0.0323377 0.0304097 0.0285087 0.0266347 0.0247877 0.0229677 0.0211747 0.0194088 0.017669 0.0159545 0.0142654 0.0126016 0.0109631 0.00934989 0.00776204 0.0061995 0.00474649 0.00348722 0.00242168 0.00154988 0.000871805 0.000387469 9.68672e-05 0 0 0.000103366 0.000413465 0.000930295 0.00165386 0.00258415 0.00372118 0.00506494 0.00661543 0.00828265 0.00997658 0.0116972 0.0134446 0.0152186 0.0170194 0.0188469 0.0207011 0.022583 0.0244936 0.0264328 0.0284007 0.0303973 0.0324225 0.0344764 0.0365589 0.0386556 0.0407518 0.0428477 0.0449431 0.0470381 0.0491328 0.051227 0.0533208 0.0553994 0.0574477 0.0594659 0.0614539 0.0634117 0.0653393 0.0672367 0.069104 0.070927 0.0726919 0.0743986 0.0760472 0.0776375 0.0791696 0.0806436 0.0820594 0.0834059 0.0846719 0.0858575 0.0869626 0.0879872 0.0889314 0.0897952 0.0905785 0.0912751 0.0918789 0.0923897 0.0928077 0.0931328 0.093365 0.0935044 0.0935508 0.0935044 0.093365 0.0931328 0.0928077 0.0923897 0.0918789 0.0912751 0.0905785 0.0897952 0.0889314 0.0879872 0.0869626 0.0858575 0.0846719 0.0834059 0.0820594 0.0806436 0.0791697 0.0776375 0.0760472 0.0743986 0.0726919 0.0709271 0.069104 0.0672367 0.0653393 0.0634117 0.0614539 0.0594659 0.0574477 0.0553994 0.0533209 0.051227 0.0491328 0.0470382 0.0449431 0.0428477 0.0407518 0.0386556 0.0365589 0.0344764 0.0324225 0.0303973 0.0284008 0.0264329 0.0244936 0.0225831 0.0207012 0.018847 0.0170195 0.0152187 0.0134446 0.0116973 0.00997661 0.00828267 0.00661545 0.00506496 0.00372119 0.00258416 0.00165386 0.000930298 0.000413466 0.000103366 0 0 0.000109904 0.000439615 0.000989134 0.00175846 0.0027476 0.00395654 0.00538529 0.00703384 0.00880635 0.010607 0.0124357 0.0142925 0.0161773 0.0180903 0.0200314 0.0220006 0.023999 0.0260277 0.0280867 0.030176 0.0322956 0.0344455 0.0366257 0.0388363 0.0410618 0.0432867 0.0455112 0.0477351 0.0499586 0.0521816 0.054404 0.056626 0.0588317 0.0610054 0.063147 0.0652565 0.067334 0.0693795 0.0713929 0.0733742 0.0753087 0.0771814 0.0789923 0.0807416 0.082429 0.0840548 0.0856188 0.087121 0.0885497 0.089893 0.091151 0.0923236 0.0934108 0.0944127 0.0953292 0.0961603 0.0968995 0.0975401 0.0980822 0.0985257 0.0988706 0.099117 0.0992648 0.0993141 0.0992648 0.099117 0.0988706 0.0985257 0.0980822 0.0975401 0.0968995 0.0961603 0.0953292 0.0944127 0.0934108 0.0923236 0.091151 0.089893 0.0885497 0.087121 0.0856188 0.0840548 0.082429 0.0807416 0.0789923 0.0771814 0.0753087 0.0733742 0.0713929 0.0693795 0.067334 0.0652565 0.063147 0.0610054 0.0588317 0.056626 0.0544041 0.0521816 0.0499586 0.0477352 0.0455112 0.0432867 0.0410618 0.0388363 0.0366258 0.0344455 0.0322956 0.030176 0.0280867 0.0260277 0.023999 0.0220006 0.0200315 0.0180904 0.0161774 0.0142925 0.0124357 0.010607 0.00880638 0.00703387 0.0053853 0.00395655 0.0027476 0.00175847 0.000989137 0.000439617 0.000109904 0 0 0.00011648 0.00046592 0.00104832 0.00186368 0.002912 0.00419328 0.00570752 0.00745472 0.00933313 0.011241 0.0131784 0.0