<?xml version="1.0"?> 
<VTKFile type="StructuredGrid" version="0.1"> 
<StructuredGrid WholeExtent="0 128 0 128 0 0"> 
<Piece Extent="0 128 0 128 0 0"> 
<PointData>
<DataArray type="Float32" Name="u" format="ascii" NumberOfComponents="1"> 
0 0 0 0 0 0 0 0 0 0 0 0 0 0 0 0 0 0 0 0 0 0 0 0 0 0 0 0 0 0 0 0 0 0 0 0 0 0 0 0 0 0 0 0 0 0 0 0 0 0 0 0 0 0 0 0 0 0 0 0 0 0 0 0 0 0 0 0 0 0 0 0 0 0 0 0 0 0 0 0 0 0 0 0 0 0 0 0 0 0 0 0 0 0 0 0 0 0 0 0 0 0 0 0 0 0 0 0 0 0 0 0 0 0 0 0 0 0 0 0 0 0 0 0 0 0 0 0 0 0 2.56984e-07 1.02794e-06 2.31286e-06 4.11175e-06 6.42461e-06 9.25144e-06 1.25922e-05 1.6447e-05 2.05913e-05 2.48007e-05 2.90753e-05 3.3415e-05 3.78198e-05 4.22897e-05 4.68247e-05 5.14249e-05 5.60868e-05 6.08071e-05 6.55857e-05 7.04228e-05 7.53183e-05 8.02721e-05 8.52844e-05 9.0355e-05 9.54463e-05 0.000100521 0.000105578 0.000110618 0.000115641 0.000120647 0.000125636 0.000130608 0.000135529 0.000140364 0.000145114 0.000149779 0.000154358 0.000158852 0.00016326 0.000167583 0.000171792 0.000175859 0.000179782 0.000183563 0.000187201 0.000190697 0.000194049 0.000197259 0.000200305 0.000203166 0.000205843 0.000208334 0.00021064 0.000212762 0.000214699 0.00021645 0.000218006 0.000219354 0.000220495 0.000221428 0.000222154 0.000222672 0.000222984 0.000223087 0.000222984 0.000222672 0.000222154 0.000221428 0.000220495 0.000219354 0.000218006 0.00021645 0.000214699 0.000212762 0.00021064 0.000208334 0.000205843 0.000203166 0.000200305 0.000197259 0.000194049 0.000190697 0.000187201 0.000183563 0.000179782 0.000175859 0.000171792 0.000167583 0.00016326 0.000158852 0.000154358 0.000149779 0.000145114 0.000140364 0.000135529 0.000130608 0.000125636 0.000120647 0.000115641 0.000110618 0.000105578 0.000100521 9.54464e-05 9.03551e-05 8.52845e-05 8.02722e-05 7.53184e-05 7.04229e-05 6.55858e-05 6.08072e-05 5.60869e-05 5.1425e-05 4.68248e-05 4.22898e-05 3.78198e-05 3.3415e-05 2.90754e-05 2.48008e-05 2.05914e-05 1.6447e-05 1.25923e-05 9.25146e-06 6.42463e-06 4.11176e-06 2.31287e-06 1.02794e-06 2.56985e-07 0 0 1.02794e-06 4.11175e-06 9.25144e-06 1.6447e-05 2.56984e-05 3.70057e-05 5.03689e-05 6.5788e-05 8.23652e-05 9.9203e-05 0.000116301 0.00013366 0.000151279 0.000169159 0.000187299 0.000205699 0.000224347 0.000243228 0.000262343 0.000281691 0.000301273 0.000321089 0.000341137 0.00036142 0.000381785 0.000402082 0.000422311 0.000442471 0.000462564 0.000482588 0.000502544 0.000522432 0.000542115 0.000561456 0.000580456 0.000599114 0.000617431 0.000635407 0.000653041 0.000670333 0.000687169 0.000703435 0.000719129 0.000734252 0.000748805 0.000762786 0.000776197 0.000789036 0.000801221 0.000812665 0.00082337 0.000833336 0.000842561 0.000851048 0.000858794 0.000865801 0.000872023 0.000877416 0.000881979 0.000885712 0.000888616 0.00089069 0.000891934 0.000892349 0.000891934 0.00089069 0.000888616 0.000885712 0.000881979 0.000877416 0.000872023 0.000865801 0.000858794 0.000851048 0.000842562 0.000833336 0.00082337 0.000812665 0.000801221 0.000789037 0.000776197 0.000762787 0.000748805 0.000734253 0.000719129 0.000703435 0.00068717 0.000670333 0.000653041 0.000635407 0.000617432 0.000599115 0.000580456 0.000561456 0.000542115 0.000522432 0.000502544 0.000482588 0.000462564 0.000442472 0.000422311 0.000402082 0.000381785 0.00036142 0.000341138 0.000321089 0.000301274 0.000281692 0.000262343 0.000243229 0.000224347 0.0002057 0.000187299 0.000169159 0.000151279 0.00013366 0.000116301 9.92032e-05 8.23655e-05 6.57882e-05 5.03691e-05 3.70058e-05 2.56985e-05 1.6447e-05 9.25146e-06 4.11176e-06 1.02794e-06 0 0 2.31286e-06 9.25144e-06 2.08157e-05 3.70057e-05 5.78215e-05 8.32629e-05 0.00011333 0.000148023 0.000185322 0.000223207 0.000261678 0.000300735 0.000340378 0.000380607 0.000421422 0.000462824 0.000504781 0.000547264 0.000590272 0.000633805 0.000677865 0.000722449 0.000767559 0.000813195 0.000859017 0.000904685 0.000950199 0.000995561 0.00104077 0.00108582 0.00113072 0.00117547 0.00121976 0.00126328 0.00130603 0.00134801 0.00138922 0.00142967 0.00146934 0.00150825 0.00154613 0.00158273 0.00161804 0.00165207 0.00168481 0.00171627 0.00174644 0.00177533 0.00180275 0.0018285 0.00185258 0.00187501 0.00189576 0.00191486 0.00193229 0.00194805 0.00196205 0.00197419 0.00198445 0.00199285 0.00199939 0.00200405 0.00200685 0.00200779 0.00200685 0.00200405 0.00199939 0.00199285 0.00198445 0.00197419 0.00196205 0.00194805 0.00193229 0.00191486 0.00189576 0.00187501 0.00185258 0.0018285 0.00180275 0.00177533 0.00174644 0.00171627 0.00168481 0.00165207 0.00161804 0.00158273 0.00154613 0.00150825 0.00146934 0.00142967 0.00138922 0.00134801 0.00130603 0.00126328 0.00121976 0.00117547 0.00113072 0.00108582 0.00104077 0.000995561 0.0009502 0.000904686 0.000859017 0.000813196 0.00076756 0.00072245 0.000677865 0.000633806 0.000590273 0.000547264 0.000504782 0.000462825 0.000421423 0.000380608 0.000340379 0.000300735 0.000261678 0.000223207 0.000185322 0.000148023 0.00011333 8.32632e-05 5.78216e-05 3.70058e-05 2.08158e-05 9.25146e-06 2.31287e-06 0 0 4.11175e-06 1.6447e-05 3.70057e-05 6.5788e-05 0.000102794 0.000148023 0.000201476 0.000263152 0.000329461 0.000396812 0.000465205 0.000534639 0.000605116 0.000676635 0.000749195 0.000822798 0.000897388 0.000972913 0.00104937 0.00112677 0.00120509 0.00128435 0.00136455 0.00144568 0.00152714 0.00160833 0.00168924 0.00176989 0.00185026 0.00193035 0.00201018 0.00208973 0.00216846 0.00224582 0.00232182 0.00239646 0.00246973 0.00254163 0.00261216 0.00268133 0.00274868 0.00281374 0.00287652 0.00293701 0.00299522 0.00305115 0.00310479 0.00315615 0.00320488 0.00325066 0.00329348 0.00333334 0.00337025 0.00340419 0.00343518 0.0034632 0.00348809 0.00350966 0.00352792 0.00354285 0.00355446 0.00356276 0.00356774 0.0035694 0.00356774 0.00356276 0.00355446 0.00354285 0.00352792 0.00350966 0.00348809 0.0034632 0.00343518 0.00340419 0.00337025 0.00333334 0.00329348 0.00325066 0.00320488 0.00315615 0.00310479 0.00305115 0.00299522 0.00293701 0.00287652 0.00281374 0.00274868 0.00268133 0.00261216 0.00254163 0.00246973 0.00239646 0.00232182 0.00224583 0.00216846 0.00208973 0.00201018 0.00193035 0.00185026 0.00176989 0.00168924 0.00160833 0.00152714 0.00144568 0.00136455 0.00128436 0.00120509 0.00112677 0.00104937 0.000972915 0.00089739 0.000822799 0.000749197 0.000676636 0.000605117 0.000534641 0.000465206 0.000396813 0.000329462 0.000263153 0.000201476 0.000148023 0.000102794 6.57882e-05 3.70058e-05 1.6447e-05 4.11176e-06 0 0 6.42461e-06 2.56984e-05 5.78215e-05 0.000102794 0.000160615 0.000231286 0.000314806 0.000411175 0.000514783 0.000620018 0.000726882 0.000835374 0.000945494 0.00105724 0.00117062 0.00128562 0.00140217 0.00152018 0.00163964 0.00176057 0.00188296 0.0020068 0.00213211 0.00225887 0.00238616 0.00251301 0.00263944 0.00276545 0.00289102 0.00301617 0.0031409 0.0032652 0.00338822 0.0035091 0.00362785 0.00374446 0.00385895 0.00397129 0.0040815 0.00418958 0.00429481 0.00439647 0.00449456 0.00458908 0.00468003 0.00476741 0.00485123 0.00493148 0.00500763 0.00507916 0.00514606 0.00520835 0.00526601 0.00531905 0.00536746 0.00541126 0.00545014 0.00548385 0.00551237 0.0055357 0.00555385 0.00556681 0.00557459 0.00557718 0.00557459 0.00556681 0.00555385 0.0055357 0.00551237 0.00548385 0.00545015 0.00541126 0.00536746 0.00531905 0.00526601 0.00520835 0.00514607 0.00507916 0.00500763 0.00493148 0.00485123 0.00476742 0.00468003 0.00458908 0.00449456 0.00439647 0.00429481 0.00418958 0.00408151 0.00397129 0.00385895 0.00374447 0.00362785 0.0035091 0.00338822 0.0032652 0.0031409 0.00301618 0.00289103 0.00276545 0.00263945 0.00251302 0.00238616 0.00225888 0.00213211 0.00200681 0.00188296 0.00176057 0.00163965 0.00152018 0.00140217 0.00128562 0.00117062 0.00105724 0.000945496 0.000835376 0.000726884 0.00062002 0.000514784 0.000411176 0.000314807 0.000231287 0.000160616 0.000102794 5.78216e-05 2.56985e-05 6.42463e-06 0 0 9.25144e-06 3.70057e-05 8.32629e-05 0.000148023 0.000231286 0.000333052 0.00045332 0.000592092 0.000741287 0.000892827 0.00104671 0.00120294 0.00136151 0.00152243 0.00168569 0.00185129 0.00201912 0.00218905 0.00236109 0.00253522 0.00271146 0.0028898 0.00307024 0.00325278 0.00343607 0.00361874 0.0038008 0.00398224 0.00416307 0.00434329 0.0045229 0.00470188 0.00487903 0.0050531 0.0052241 0.00539203 0.00555688 0.00571866 0.00587737 0.006033 0.00618453 0.00633091 0.00647216 0.00660827 0.00673924 0.00686508 0.00698577 0.00710133 0.00721099 0.00731399 0.00741033 0.00750002 0.00758305 0.00765943 0.00772915 0.00779221 0.00784821 0.00789674 0.00793781 0.00797141 0.00799754 0.00801621 0.00802741 0.00803114 0.00802741 0.00801621 0.00799754 0.00797141 0.00793781 0.00789674 0.00784821 0.00779221 0.00772915 0.00765943 0.00758305 0.00750002 0.00741033 0.00731399 0.00721099 0.00710133 0.00698577 0.00686508 0.00673925 0.00660827 0.00647216 0.00633091 0.00618453 0.006033 0.00587737 0.00571866 0.00555688 0.00539203 0.00522411 0.00505311 0.00487903 0.00470189 0.0045229 0.00434329 0.00416308 0.00398225 0.0038008 0.00361874 0.00343607 0.00325278 0.00307024 0.0028898 0.00271146 0.00253522 0.00236109 0.00218906 0.00201913 0.0018513 0.00168569 0.00152243 0.00136151 0.00120294 0.00104671 0.000892829 0.000741289 0.000592094 0.000453322 0.000333053 0.000231287 0.000148023 8.32632e-05 3.70058e-05 9.25146e-06 0 0 1.25922e-05 5.03689e-05 0.00011333 0.000201476 0.000314806 0.00045332 0.000617019 0.000805903 0.00100897 0.00121524 0.00142469 0.00163733 0.00185317 0.00207219 0.00229441 0.00251982 0.00274825 0.00297955 0.0032137 0.00345072 0.0036906 0.00393333 0.00417893 0.00442739 0.00467687 0.00492551 0.00517331 0.00542027 0.00566641 0.0059117 0.00615616 0.00639979 0.0066409 0.00687784 0.00711059 0.00733915 0.00756353 0.00778373 0.00799975 0.00821158 0.00841783 0.00861708 0.00880933 0.00899459 0.00917286 0.00934413 0.00950841 0.0096657 0.00981495 0.00995515 0.0100863 0.0102084 0.0103214 0.0104253 0.0105202 0.0106061 0.0106823 0.0107483 0.0108042 0.01085 0.0108855 0.010911 0.0109262 0.0109313 0.0109262 0.010911 0.0108855 0.01085 0.0108042 0.0107483 0.0106823 0.0106061 0.0105202 0.0104253 0.0103214 0.0102084 0.0100863 0.00995515 0.00981495 0.0096657 0.00950841 0.00934414 0.00917286 0.0089946 0.00880933 0.00861708 0.00841783 0.00821158 0.00799975 0.00778374 0.00756354 0.00733915 0.00711059 0.00687784 0.00664091 0.00639979 0.00615617 0.00591171 0.00566641 0.00542028 0.00517331 0.00492551 0.00467687 0.0044274 0.00417894 0.00393334 0.0036906 0.00345072 0.00321371 0.00297955 0.00274826 0.00251982 0.00229441 0.0020722 0.00185317 0.00163734 0.00142469 0.00121524 0.00100898 0.000805905 0.000617021 0.000453322 0.000314807 0.000201476 0.00011333 5.03691e-05 1.25923e-05 0 0 1.6447e-05 6.5788e-05 0.000148023 0.000263152 0.000411175 0.000592092 0.000805903 0.00105261 0.00131784 0.00158725 0.00186082 0.00213856 0.00242046 0.00270654 0.00299678 0.00329119 0.00358955 0.00389165 0.00419749 0.00450706 0.00482037 0.00513742 0.0054582 0.00578272 0.00610856 0.00643331 0.00675697 0.00707954 0.00740102 0.00772141 0.0080407 0.00835891 0.00867383 0.0089833 0.00928729 0.00958583 0.0098789 0.0101665 0.0104487 0.0107253 0.0109947 0.011255 0.0115061 0.011748 0.0119809 0.0122046 0.0124192 0.0126246 0.0128195 0.0130026 0.0131739 0.0133334 0.013481 0.0136168 0.0137407 0.0138528 0.0139524 0.0140387 0.0141117 0.0141714 0.0142179 0.014251 0.014271 0.0142776 0.014271 0.014251 0.0142179 0.0141714 0.0141117 0.0140387 0.0139524 0.0138528 0.0137407 0.0136168 0.013481 0.0133334 0.0131739 0.0130026 0.0128195 0.0126246 0.0124192 0.0122046 0.0119809 0.011748 0.0115061 0.011255 0.0109947 0.0107253 0.0104487 0.0101665 0.00987891 0.00958583 0.0092873 0.0089833 0.00867384 0.00835891 0.00804071 0.00772141 0.00740103 0.00707955 0.00675698 0.00643332 0.00610857 0.00578273 0.00545821 0.00513742 0.00482038 0.00450707 0.00419749 0.00389166 0.00358956 0.0032912 0.00299679 0.00270654 0.00242047 0.00213856 0.00186082 0.00158725 0.00131785 0.00105261 0.000805905 0.000592094 0.000411176 0.000263153 0.000148023 6.57882e-05 1.6447e-05 0 0 2.05838e-05 8.23354e-05 0.000185255 0.000329341 0.000514596 0.000741018 0.00100861 0.00131737 0.00164931 0.00198644 0.00232878 0.00267631 0.00302903 0.00338696 0.00375008 0.00411839 0.00449164 0.00486956 0.00525215 0.00563941 0.00603133 0.00642792 0.00682918 0.00723511 0.00764269 0.0080489 0.00845375 0.00885723 0.00925934 0.00966008 0.0100595 0.0104575 0.0108514 0.0112384 0.0116187 0.0119921 0.0123587 0.0127184 0.0130713 0.0134174 0.0137543 0.0140798 0.0143939 0.0146966 0.0149878 0.0152676 0.015536 0.0157929 0.0160368 0.0162658 0.01648 0.0166795 0.0168641 0.0170339 0.017189 0.0173292 0.0174537 0.0175616 0.0176529 0.0177277 0.0177858 0.0178273 0.0178522 0.0178605 0.0178522 0.0178273 0.0177858 0.0177277 0.0176529 0.0175616 0.0174537 0.0173292 0.017189 0.0170339 0.0168641 0.0166795 0.01648 0.0162658 0.0160368 0.0157929 0.015536 0.0152676 0.0149878 0.0146966 0.0143939 0.0140798 0.0137543 0.0134174 0.0130713 0.0127184 0.0123587 0.0119921 0.0116187 0.0112385 0.0108514 0.0104575 0.0100595 0.00966009 0.00925934 0.00885723 0.00845376 0.00804891 0.0076427 0.00723512 0.00682919 0.00642793 0.00603134 0.00563941 0.00525216 0.00486957 0.00449165 0.0041184 0.00375008 0.00338696 0.00302904 0.00267631 0.00232878 0.00198645 0.00164931 0.00131737 0.00100861 0.00074102 0.000514597 0.000329342 0.000185255 8.23356e-05 2.05839e-05 0 0 2.47709e-05 9.90835e-05 0.000222938 0.000396334 0.000619272 0.000891751 0.00121377 0.00158534 0.00198477 0.0023904 0.00280224 0.00322027 0.00364451 0.00407494 0.00451158 0.00495441 0.00540314 0.00585747 0.00631739 0.00678291 0.00725402 0.00773073 0.00821303 0.00870093 0.0091908 0.00967902 0.0101656 0.0106505 0.0111338 0.0116154 0.0120954 0.0125737 0.0130471 0.0135123 0.0139692 0.014418 0.0148585 0.0152908 0.0157149 0.0161308 0.0165357 0.0169269 0.0173044 0.0176681 0.0180181 0.0183543 0.0186769 0.0189857 0.0192787 0.0195539 0.0198114 0.0200511 0.020273 0.0204771 0.0206634 0.0208319 0.0209815 0.0211112 0.021221 0.0213108 0.0213806 0.0214305 0.0214604 0.0214704 0.0214604 0.0214305 0.0213806 0.0213108 0.021221 0.0211112 0.0209815 0.0208319 0.0206634 0.0204771 0.020273 0.0200511 0.0198114 0.0195539 0.0192787 0.0189857 0.0186769 0.0183543 0.0180181 0.0176681 0.0173044 0.0169269 0.0165357 0.0161308 0.0157149 0.0152908 0.0148585 0.014418 0.0139692 0.0135123 0.0130471 0.0125737 0.0120954 0.0116154 0.0111338 0.0106505 0.0101656 0.00967903 0.00919081 0.00870094 0.00821304 0.00773074 0.00725403 0.00678292 0.0063174 0.00585748 0.00540315 0.00495442 0.00451159 0.00407495 0.00364452 0.00322028 0.00280225 0.00239041 0.00198478 0.00158534 0.00121378 0.000891754 0.000619274 0.000396335 0.000222939 9.90838e-05 2.47709e-05 0 0 2.90081e-05 0.000116032 0.000261073 0.00046413 0.000725202 0.00104429 0.0014214 0.00185652 0.00232424 0.00279913 0.00328121 0.00377046 0.00426689 0.00477049 0.00528128 0.00579924 0.00632405 0.00685538 0.00739322 0.00793757 0.00848845 0.00904584 0.00960975 0.0101802 0.0107529 0.0113237 0.0118925 0.0124594 0.0130243 0.0135874 0.0141484 0.0147076 0.015261 0.0158047 0.0163389 0.0168634 0.0173784 0.0178838 0.0183795 0.0188656 0.019339 0.0197962 0.0202374 0.0206626 0.0210717 0.0214648 0.0218418 0.0222028 0.0225453 0.0228671 0.023168 0.0234482 0.0237076 0.0239461 0.0241639 0.0243609 0.0245358 0.0246874 0.0248157 0.0249207 0.0250023 0.0250606 0.0250956 0.0251073 0.0250956 0.0250606 0.0250023 0.0249207 0.0248157 0.0246875 0.0245358 0.0243609 0.0241639 0.0239461 0.0237076 0.0234482 0.023168 0.0228671 0.0225453 0.0222028 0.0218418 0.0214648 0.0210717 0.0206626 0.0202375 0.0197962 0.019339 0.0188657 0.0183795 0.0178838 0.0173784 0.0168635 0.0163389 0.0158047 0.015261 0.0147076 0.0141485 0.0135874 0.0130244 0.0124594 0.0118925 0.0113237 0.0107529 0.0101802 0.00960976 0.00904585 0.00848846 0.00793759 0.00739323 0.00685539 0.00632406 0.00579925 0.00528129 0.0047705 0.0042669 0.00377047 0.00328121 0.00279914 0.00232424 0.00185652 0.0014214 0.00104429 0.000725204 0.000464131 0.000261074 0.000116033 2.90082e-05 0 0 3.32955e-05 0.000133182 0.00029966 0.000532728 0.000832388 0.00119864 0.00163148 0.00213091 0.00266771 0.00321263 0.00376568 0.00432686 0.00489617 0.00547361 0.00605918 0.00665288 0.00725436 0.00786328 0.00847962 0.0091034 0.00973461 0.0103733 0.0110193 0.0116728 0.0123289 0.0129828 0.0136345 0.0142839 0.014931 0.015576 0.0162187 0.0168591 0.017493 0.0181158 0.0187277 0.0193285 0.0199184 0.0204972 0.0210651 0.0216219 0.022164 0.0226878 0.0231932 0.0236802 0.0241488 0.024599 0.0250308 0.0254443 0.0258366 0.0262052 0.0265499 0.0268708 0.0271679 0.0274412 0.0276906 0.0279163 0.0281166 0.0282903 0.0284372 0.0285575 0.028651 0.0287178 0.0287578 0.0287712 0.0287578 0.0287178 0.028651 0.0285575 0.0284372 0.0282903 0.0281166 0.0279163 0.0276906 0.0274412 0.0271679 0.0268708 0.0265499 0.0262052 0.0258366 0.0254443 0.0250308 0.024599 0.0241488 0.0236802 0.0231932 0.0226878 0.022164 0.0216219 0.0210651 0.0204972 0.0199184 0.0193285 0.0187277 0.0181159 0.017493 0.0168592 0.0162187 0.015576 0.014931 0.0142839 0.0136345 0.0129828 0.012329 0.0116728 0.0110193 0.0103733 0.00973462 0.00910341 0.00847963 0.00786329 0.00725438 0.00665289 0.00605919 0.00547362 0.00489618 0.00432687 0.00376569 0.00321264 0.00266771 0.00213092 0.00163148 0.00119864 0.00083239 0.00053273 0.00029966 0.000133182 3.32956e-05 0 0 3.76331e-05 0.000150532 0.000338698 0.00060213 0.000940828 0.00135479 0.00184402 0.00240852 0.00301518 0.00363089 0.00425566 0.00488948 0.00553236 0.0061843 0.00684529 0.00751534 0.00819408 0.00888117 0.00957661 0.0102804 0.0109925 0.011713 0.0124418 0.0131789 0.013919 0.0146565 0.0153915 0.0161239 0.0168538 0.0175812 0.0183061 0.0190284 0.0197432 0.0204456 0.0211356 0.0218132 0.0224784 0.0231312 0.0237716 0.0243995 0.0250109 0.0256016 0.0261715 0.0267207 0.0272492 0.0277569 0.0282439 0.0287102 0.0291527 0.0295683 0.029957 0.0303189 0.030654 0.0309622 0.0312435 0.0314979 0.0317239 0.0319198 0.0320855 0.0322211 0.0323265 0.0324018 0.032447 0.0324621 0.032447 0.0324018 0.0323265 0.0322211 0.0320855 0.0319198 0.0317239 0.031498 0.0312435 0.0309622 0.030654 0.0303189 0.029957 0.0295683 0.0291527 0.0287102 0.0282439 0.0277569 0.0272492 0.0267207 0.0261715 0.0256016 0.0250109 0.0243996 0.0237716 0.0231312 0.0224784 0.0218133 0.0211356 0.0204456 0.0197432 0.0190284 0.0183061 0.0175812 0.0168539 0.0161239 0.0153915 0.0146565 0.013919 0.0131789 0.0124418 0.011713 0.0109925 0.0102804 0.00957662 0.00888119 0.0081941 0.00751535 0.0068453 0.00618431 0.00553238 0.00488949 0.00425567 0.0036309 0.00301518 0.00240853 0.00184403 0.0013548 0.00094083 0.000602131 0.000338699 0.000150533 3.76332e-05 0 0 4.20209e-05 0.000168084 0.000378188 0.000672334 0.00105052 0.00151275 0.00205902 0.00268934 0.00336665 0.00405392 0.00475114 0.00545832 0.00617546 0.00690255 0.0076396 0.0083866 0.00914321 0.00990907 0.0106842 0.0114685 0.0122621 0.013065 0.0138771 0.0146984 0.015523 0.0163447 0.0171636 0.0179796 0.0187928 0.0196031 0.0204106 0.0212153 0.0220116 0.0227941 0.0235627 0.0243176 0.0250586 0.0257857 0.0264991 0.0271986 0.0278797 0.0285376 0.0291725 0.0297843 0.030373 0.0309386 0.0314811 0.0320005 0.0324934 0.0329564 0.0333894 0.0337926 0.0341658 0.0345091 0.0348225 0.035106 0.0353577 0.0355759 0.0357605 0.0359115 0.036029 0.0361129 0.0361632 0.03618 0.0361632 0.0361129 0.036029 0.0359115 0.0357605 0.0355759 0.0353577 0.035106 0.0348225 0.0345091 0.0341658 0.0337926 0.0333894 0.0329564 0.0324934 0.0320005 0.0314811 0.0309386 0.030373 0.0297843 0.0291725 0.0285376 0.0278797 0.0271986 0.0264991 0.0257857 0.0250586 0.0243176 0.0235627 0.0227941 0.0220116 0.0212153 0.0204106 0.0196031 0.0187928 0.0179796 0.0171636 0.0163447 0.015523 0.0146985 0.0138771 0.013065 0.0122621 0.0114685 0.0106842 0.00990908 0.00914323 0.00838662 0.00763961 0.00690257 0.00617547 0.00545834 0.00475115 0.00405393 0.00336666 0.00268934 0.00205903 0.00151276 0.00105053 0.000672336 0.000378189 0.000168084 4.2021e-05 0 0 4.64589e-05 0.000185836 0.00041813 0.000743342 0.00116147 0.00167252 0.00227649 0.00297337 0.00372213 0.00448171 0.00525213 0.00603338 0.00682546 0.00762837 0.00844211 0.00926668 0.0101017 0.010947 0.0118023 0.0126678 0.0135435 0.0144293 0.0153253 0.0162314 0.017141 0.0180474 0.0189507 0.0198509 0.0207478 0.0216417 0.0225323 0.0234198 0.0242981 0.0251612 0.0260089 0.0268415 0.0276588 0.0284608 0.0292475 0.0300191 0.0307702 0.0314959 0.0321961 0.0328709 0.0335201 0.0341439 0.0347423 0.0353151 0.0358588 0.0363694 0.0368471 0.0372917 0.0377034 0.038082 0.0384277 0.0387403 0.039018 0.0392586 0.0394622 0.0396288 0.0397583 0.0398509 0.0399064 0.0399249 0.0399064 0.0398509 0.0397583 0.0396288 0.0394622 0.0392586 0.039018 0.0387403 0.0384277 0.038082 0.0377034 0.0372917 0.0368471 0.0363694 0.0358588 0.0353152 0.0347423 0.0341439 0.0335201 0.0328709 0.0321961 0.0314959 0.0307702 0.0300191 0.0292476 0.0284608 0.0276588 0.0268415 0.026009 0.0251612 0.0242981 0.0234198 0.0225323 0.0216417 0.0207479 0.0198509 0.0189507 0.0180474 0.017141 0.0162314 0.0153253 0.0144293 0.0135435 0.0126678 0.0118023 0.010947 0.0101018 0.0092667 0.00844213 0.00762839 0.00682548 0.0060334 0.00525215 0.00448173 0.00372214 0.00297338 0.00227649 0.00167252 0.00116148 0.000743344 0.000418131 0.000185836 4.6459e-05 0 0 5.0947e-05 0.000203788 0.000458523 0.000815153 0.00127368 0.00183409 0.00249641 0.00326061 0.0040816 0.00491428 0.00575863 0.00661466 0.00748237 0.00836176 0.00925283 0.0101556 0.0110697 0.0119948 0.012931 0.0138783 0.0148366 0.0158059 0.0167863 0.0177777 0.018773 0.0197647 0.0207529 0.0217377 0.022719 0.0236968 0.0246712 0.025642 0.0266028 0.0275469 0.0284743 0.029385 0.030279 0.0311564 0.032017 0.0328609 0.0336826 0.0344764 0.0352424 0.0359804 0.0366907 0.037373 0.0380276 0.0386542 0.0392489 0.0398075 0.04033 0.0408164 0.0412667 0.0416809 0.042059 0.042401 0.0427047 0.0429679 0.0431906 0.0433729 0.0435146 0.0436159 0.0436766 0.0436968 0.0436766 0.0436159 0.0435146 0.0433729 0.0431906 0.0429679 0.0427047 0.042401 0.042059 0.0416809 0.0412667 0.0408164 0.04033 0.0398075 0.0392489 0.0386542 0.0380276 0.0373731 0.0366907 0.0359805 0.0352424 0.0344764 0.0336826 0.0328609 0.032017 0.0311564 0.030279 0.029385 0.0284743 0.0275469 0.0266028 0.0256421 0.0246712 0.0236969 0.022719 0.0217377 0.020753 0.0197647 0.018773 0.0177778 0.0167863 0.0158059 0.0148366 0.0138783 0.0129311 0.0119949 0.0110697 0.0101556 0.00925285 0.00836178 0.00748238 0.00661467 0.00575864 0.00491429 0.00408161 0.00326062 0.00249641 0.0018341 0.00127368 0.000815155 0.000458525 0.000203789 5.09472e-05 0 0 5.54749e-05 0.0002219 0.000499274 0.000887599 0.00138687 0.0019971 0.00271827 0.00355039 0.00444425 0.00535062 0.0062695 0.00720089 0.00814479 0.00910121 0.0100701 0.0110516 0.0120452 0.0130509 0.0140684 0.0150979 0.0161393 0.0171927 0.0182579 0.0193352 0.0204165 0.021494 0.0225677 0.0236375 0.0247036 0.0257659 0.0268244 0.027879 0.0289227 0.0299483 0.0309557 0.031945 0.0329162 0.0338692 0.0348041 0.0357208 0.0366134 0.0374756 0.0383077 0.0391094 0.0398809 0.0406222 0.0413332 0.0420139 0.0426599 0.0432667 0.0438342 0.0443626 0.0448517 0.0453017 0.0457124 0.0460839 0.0464139 0.0466998 0.0469418 0.0471397 0.0472937 0.0474037 0.0474697 0.0474916 0.0474697 0.0474037 0.0472937 0.0471397 0.0469418 0.0466998 0.0464139 0.046084 0.0457124 0.0453017 0.0448517 0.0443626 0.0438342 0.0432667 0.0426599 0.0420139 0.0413332 0.0406222 0.039881 0.0391094 0.0383077 0.0374757 0.0366134 0.0357208 0.0348041 0.0338692 0.0329162 0.031945 0.0309557 0.0299483 0.0289227 0.0278791 0.0268244 0.0257659 0.0247036 0.0236376 0.0225677 0.021494 0.0204165 0.0193352 0.018258 0.0171927 0.0161393 0.0150979 0.0140684 0.0130509 0.0120453 0.0110516 0.0100702 0.00910123 0.00814481 0.0072009 0.00626951 0.00535063 0.00444426 0.0035504 0.00271828 0.0019971 0.00138688 0.000887601 0.000499276 0.0002219 5.54751e-05 0 0 6.0032e-05 0.000240128 0.000540288 0.000960512 0.0015008 0.00216115 0.00294157 0.00384205 0.00480923 0.00578975 0.00678361 0.00779081 0.00881135 0.00984522 0.0108924 0.011953 0.0130266 0.0141131 0.0152124 0.0163245 0.0174495 0.0185873 0.0197379 0.0209013 0.0220691 0.0232328 0.0243923 0.0255477 0.026699 0.0278461 0.0289891 0.0301279 0.0312549 0.0323623 0.0334501 0.0345183 0.0355669 0.036596 0.0376054 0.0385953 0.0395591 0.0404901 0.0413885 0.0422542 0.0430873 0.0438877 0.0446554 0.0453904 0.0460879 0.0467431 0.047356 0.0479265 0.0484547 0.0489405 0.049384 0.0497852 0.0501414 0.0504502 0.0507115 0.0509252 0.0510915 0.0512102 0.0512815 0.0513052 0.0512815 0.0512102 0.0510915 0.0509252 0.0507115 0.0504502 0.0501415 0.0497852 0.049384 0.0489405 0.0484547 0.0479265 0.047356 0.0467431 0.0460879 0.0453904 0.0446554 0.0438877 0.0430873 0.0422543 0.0413885 0.0404901 0.0395591 0.0385953 0.0376054 0.036596 0.0355669 0.0345183 0.0334501 0.0323623 0.0312549 0.0301279 0.0289891 0.0278461 0.026699 0.0255477 0.0243923 0.0232328 0.0220692 0.0209014 0.0197379 0.0185873 0.0174495 0.0163245 0.0152124 0.0141131 0.0130267 0.011953 0.0108925 0.00984524 0.00881136 0.00779083 0.00678363 0.00578977 0.00480924 0.00384206 0.00294158 0.00216116 0.0015008 0.000960515 0.000540289 0.000240129 6.00322e-05 0 0 6.46183e-05 0.000258473 0.000581565 0.00103389 0.00161546 0.00232626 0.0031663 0.00413557 0.00517654 0.00623168 0.00730097 0.00838442 0.00948203 0.0105938 0.0117197 0.0128598 0.0140138 0.0151816 0.0163631 0.0175583 0.0187672 0.0199898 0.0212262 0.0224762 0.0237309 0.0249812 0.0262269 0.0274682 0.028705 0.0299374 0.0311652 0.0323886 0.0335993 0.0347888 0.0359574 0.0371049 0.0382313 0.0393368 0.0404211 0.0414844 0.0425197 0.0435198 0.0444849 0.0454149 0.0463097 0.0471695 0.0479942 0.0487837 0.049533 0.0502368 0.0508952 0.051508 0.0520754 0.0525973 0.0530737 0.0535047 0.0538874 0.0542191 0.0544997 0.0547294 0.0549079 0.0550355 0.0551121 0.0551376 0.0551121 0.0550355 0.0549079 0.0547294 0.0544997 0.0542191 0.0538874 0.0535047 0.0530738 0.0525973 0.0520754 0.051508 0.0508952 0.0502368 0.049533 0.0487837 0.0479942 0.0471695 0.0463097 0.0454149 0.0444849 0.0435199 0.0425197 0.0414845 0.0404211 0.0393368 0.0382314 0.0371049 0.0359574 0.0347889 0.0335993 0.0323886 0.0311652 0.0299374 0.028705 0.0274682 0.0262269 0.0249812 0.023731 0.0224763 0.0212262 0.0199898 0.0187672 0.0175583 0.0163631 0.0151816 0.0140139 0.0128598 0.0117197 0.0105938 0.00948205 0.00838444 0.00730099 0.00623169 0.00517656 0.00413558 0.00316631 0.00232627 0.00161546 0.0010339 0.000581566 0.000258474 6.46185e-05 0 0 6.92338e-05 0.000276935 0.000623105 0.00110774 0.00173085 0.00249242 0.00339246 0.00443097 0.00554619 0.00667639 0.00782157 0.00898172 0.0101568 0.0113469 0.012552 0.013772 0.0150069 0.0162563 0.0175204 0.0187991 0.0200923 0.0214002 0.0227227 0.0240599 0.0254019 0.0267391 0.0280715 0.029399 0.0307218 0.0320398 0.0333529 0.0346612 0.0359559 0.037228 0.0384777 0.0397048 0.0409094 0.0420915 0.0432511 0.0443882 0.0454953 0.0465648 0.0475968 0.0485913 0.0495482 0.0504677 0.0513495 0.0521939 0.0529952 0.0537478 0.0544519 0.0551072 0.055714 0.0562721 0.0567816 0.0572425 0.0576517 0.0580064 0.0583066 0.0585521 0.0587431 0.0588795 0.0589614 0.0589887 0.0589614 0.0588795 0.0587431 0.0585521 0.0583066 0.0580064 0.0576518 0.0572425 0.0567816 0.0562721 0.055714 0.0551072 0.0544519 0.0537478 0.0529952 0.0521939 0.0513496 0.0504677 0.0495483 0.0485913 0.0475968 0.0465648 0.0454953 0.0443882 0.0432511 0.0420915 0.0409094 0.0397048 0.0384777 0.037228 0.0359559 0.0346612 0.0333529 0.0320398 0.0307218 0.0293991 0.0280715 0.0267391 0.0254019 0.0240599 0.0227228 0.0214003 0.0200924 0.0187991 0.0175204 0.0162563 0.0150069 0.0137721 0.012552 0.011347 0.0101569 0.00898174 0.00782159 0.00667641 0.00554621 0.00443098 0.00339247 0.00249242 0.00173085 0.00110774 0.000623106 0.000276936 6.9234e-05 0 0 7.38786e-05 0.000295514 0.000664907 0.00118206 0.00184696 0.00265963 0.00362005 0.00472823 0.00591818 0.00712391 0.00834542 0.00958271 0.0108358 0.0121046 0.0133893 0.0146897 0.0160057 0.0173373 0.0186844 0.0200469 0.021425 0.0228186 0.0242276 0.0256522 0.027082 0.0285065 0.029926 0.0313402 0.0327493 0.0341533 0.0355521 0.0369457 0.0383247 0.0396798 0.0410109 0.042318 0.0436011 0.0448603 0.0460954 0.0473066 0.0484858 0.049625 0.0507243 0.0517835 0.0528028 0.0537822 0.0547215 0.0556209 0.0564744 0.0572761 0.058026 0.0587241 0.0593704 0.0599649 0.0605076 0.0609985 0.0614345 0.0618123 0.062132 0.0623936 0.062597 0.0627423 0.0628295 0.0628586 0.0628295 0.0627423 0.062597 0.0623936 0.062132 0.0618123 0.0614345 0.0609985 0.0605076 0.0599649 0.0593704 0.0587241 0.058026 0.0572761 0.0564744 0.0556209 0.0547215 0.0537822 0.0528028 0.0517835 0.0507243 0.049625 0.0484858 0.0473066 0.0460954 0.0448603 0.0436011 0.042318 0.0410109 0.0396798 0.0383248 0.0369457 0.0355521 0.0341533 0.0327493 0.0313402 0.029926 0.0285066 0.027082 0.0256522 0.0242277 0.0228186 0.021425 0.020047 0.0186844 0.0173373 0.0160058 0.0146897 0.0133893 0.0121047 0.0108358 0.00958273 0.00834544 0.00712392 0.00591819 0.00472824 0.00362006 0.00265964 0.00184697 0.00118206 0.000664909 0.000295515 7.38788e-05 0 0 7.85525e-05 0.00031421 0.000706973 0.00125684 0.00196381 0.00282789 0.00384907 0.00502736 0.00629249 0.00757421 0.00887251 0.0101874 0.0115188 0.0128669 0.0142315 0.0156127 0.0170104 0.0184245 0.019855 0.0213019 0.0227651 0.0242448 0.0257408 0.0272533 0.0287712 0.0302835 0.0317904 0.0332917 0.0347876 0.0362779 0.0377627 0.039242 0.0407058 0.0421442 0.0435571 0.0449445 0.0463065 0.047643 0.048954 0.0502396 0.0514912 0.0527004 0.0538672 0.0549916 0.0560735 0.057113 0.0581101 0.0590647 0.0599707 0.0608216 0.0616176 0.0623586 0.0630447 0.0636757 0.0642518 0.0647729 0.0652356 0.0656366 0.065976 0.0662536 0.0664696 0.0666238 0.0667164 0.0667472 0.0667164 0.0666238 0.0664696 0.0662536 0.065976 0.0656366 0.0652356 0.0647729 0.0642518 0.0636757 0.0630447 0.0623586 0.0616176 0.0608217 0.0599707 0.0590647 0.0581101 0.057113 0.0560735 0.0549916 0.0538672 0.0527005 0.0514913 0.0502396 0.048954 0.047643 0.0463065 0.0449445 0.0435571 0.0421442 0.0407059 0.039242 0.0377627 0.0362779 0.0347876 0.0332918 0.0317904 0.0302836 0.0287712 0.0272533 0.0257409 0.0242448 0.0227652 0.0213019 0.019855 0.0184245 0.0