<?xml version="1.0"?> 
<VTKFile type="StructuredGrid" version="0.1"> 
<StructuredGrid WholeExtent="0 128 0 128 0 0"> 
<Piece Extent="0 128 0 128 0 0"> 
<PointData>
<DataArray type="Float32" Name="u" format="ascii" NumberOfComponents="1"> 
0 0 0 0 0 0 0 0 0 0 0 0 0 0 0 0 0 0 0 0 0 0 0 0 0 0 0 0 0 0 0 0 0 0 0 0 0 0 0 0 0 0 0 0 0 0 0 0 0 0 0 0 0 0 0 0 0 0 0 0 0 0 0 0 0 0 0 0 0 0 0 0 0 0 0 0 0 0 0 0 0 0 0 0 0 0 0 0 0 0 0 0 0 0 0 0 0 0 0 0 0 0 0 0 0 0 0 0 0 0 0 0 0 0 0 0 0 0 0 0 0 0 0 0 0 0 0 0 0 0 2.80553e-07 1.12221e-06 2.52498e-06 4.48885e-06 7.01383e-06 1.00999e-05 1.37471e-05 1.79554e-05 2.24804e-05 2.70777e-05 3.17473e-05 3.64893e-05 4.13035e-05 4.619e-05 5.11488e-05 5.618e-05 6.12801e-05 6.64459e-05 7.16774e-05 7.69746e-05 8.23375e-05 8.77661e-05 9.32603e-05 9.88203e-05 0.000104405 0.000109973 0.000115524 0.000121058 0.000126576 0.000132077 0.000137562 0.00014303 0.000148443 0.000153765 0.000158994 0.000164131 0.000169176 0.000174128 0.000178988 0.000183757 0.000188401 0.000192888 0.000197219 0.000201394 0.000205412 0.000209274 0.000212979 0.000216528 0.000219897 0.000223061 0.000226022 0.000228778 0.00023133 0.000233678 0.000235822 0.000237762 0.000239485 0.000240978 0.000242242 0.000243276 0.00024408 0.000244654 0.000244999 0.000245114 0.000244999 0.000244654 0.00024408 0.000243276 0.000242242 0.000240978 0.000239485 0.000237762 0.000235822 0.000233678 0.00023133 0.000228778 0.000226022 0.000223061 0.000219897 0.000216528 0.000212979 0.000209274 0.000205412 0.000201394 0.000197219 0.000192888 0.000188401 0.000183757 0.000178989 0.000174128 0.000169176 0.000164131 0.000158994 0.000153765 0.000148443 0.00014303 0.000137562 0.000132077 0.000126576 0.000121058 0.000115524 0.000109973 0.000104405 9.88204e-05 9.32604e-05 8.77662e-05 8.23376e-05 7.69747e-05 7.16775e-05 6.6446e-05 6.12802e-05 5.61801e-05 5.11489e-05 4.61901e-05 4.13036e-05 3.64893e-05 3.17474e-05 2.70778e-05 2.24805e-05 1.79555e-05 1.37472e-05 1.01e-05 7.01385e-06 4.48887e-06 2.52499e-06 1.12222e-06 2.80554e-07 0 0 1.12221e-06 4.48885e-06 1.00999e-05 1.79554e-05 2.80553e-05 4.03997e-05 5.49885e-05 7.18217e-05 8.99217e-05 0.000108311 0.000126989 0.000145957 0.000165214 0.00018476 0.000204595 0.00022472 0.00024512 0.000265784 0.00028671 0.000307898 0.00032935 0.000351064 0.000373041 0.000395281 0.000417619 0.00043989 0.000462095 0.000484233 0.000506305 0.000528309 0.000550248 0.000572119 0.000593773 0.000615059 0.000635975 0.000656523 0.000676702 0.000696512 0.000715954 0.000735027 0.000753602 0.000771552 0.000788877 0.000805575 0.000821648 0.000837095 0.000851917 0.000866112 0.000879587 0.000892245 0.000904087 0.000915113 0.000925321 0.000934714 0.00094329 0.000951049 0.000957941 0.000963914 0.000968968 0.000973103 0.000976319 0.000978616 0.000979995 0.000980454 0.000979995 0.000978616 0.000976319 0.000973103 0.000968968 0.000963914 0.000957941 0.000951049 0.00094329 0.000934714 0.000925322 0.000915113 0.000904087 0.000892246 0.000879587 0.000866113 0.000851917 0.000837095 0.000821648 0.000805575 0.000788877 0.000771553 0.000753603 0.000735027 0.000715954 0.000696513 0.000676702 0.000656523 0.000635975 0.000615059 0.000593774 0.00057212 0.000550248 0.00052831 0.000506305 0.000484233 0.000462095 0.000439891 0.000417619 0.000395282 0.000373042 0.000351065 0.00032935 0.000307899 0.00028671 0.000265784 0.000245121 0.00022472 0.000204596 0.00018476 0.000165214 0.000145957 0.00012699 0.000108311 8.99219e-05 7.18219e-05 5.49886e-05 4.03998e-05 2.80554e-05 1.79555e-05 1.01e-05 4.48887e-06 1.12222e-06 0 0 2.52498e-06 1.00999e-05 2.27248e-05 4.03997e-05 6.31245e-05 9.08993e-05 0.000123724 0.000161599 0.000202324 0.0002437 0.000285726 0.000328403 0.000371731 0.00041571 0.000460339 0.00050562 0.000551521 0.000598013 0.000645097 0.000692771 0.000741037 0.000789895 0.000839343 0.000889383 0.000939643 0.000989753 0.00103971 0.00108952 0.00113919 0.0011887 0.00123806 0.00128727 0.00133599 0.00138388 0.00143094 0.00147718 0.00152258 0.00156715 0.0016109 0.00165381 0.00169561 0.00173599 0.00177497 0.00181254 0.00184871 0.00188346 0.00191681 0.00194875 0.00197907 0.00200755 0.0020342 0.002059 0.00208197 0.00210311 0.0021224 0.00213986 0.00215537 0.00216881 0.00218018 0.00218948 0.00219672 0.00220189 0.00220499 0.00220602 0.00220499 0.00220189 0.00219672 0.00218948 0.00218018 0.00216881 0.00215537 0.00213986 0.0021224 0.00210311 0.00208197 0.002059 0.0020342 0.00200755 0.00197907 0.00194875 0.00191681 0.00188346 0.00184871 0.00181254 0.00177497 0.00173599 0.00169561 0.00165381 0.0016109 0.00156715 0.00152258 0.00147718 0.00143094 0.00138388 0.00133599 0.00128727 0.00123806 0.0011887 0.00113919 0.00108953 0.00103971 0.000989754 0.000939644 0.000889383 0.000839344 0.000789895 0.000741038 0.000692772 0.000645098 0.000598014 0.000551522 0.000505621 0.00046034 0.000415711 0.000371732 0.000328404 0.000285727 0.0002437 0.000202324 0.000161599 0.000123724 9.08996e-05 6.31247e-05 4.03998e-05 2.27249e-05 1.01e-05 2.52499e-06 0 0 4.48885e-06 1.79554e-05 4.03997e-05 7.18217e-05 0.000112221 0.000161599 0.000219954 0.000287287 0.000359687 0.000433244 0.000507957 0.000583828 0.000660856 0.00073904 0.000818381 0.000898879 0.000980481 0.00106313 0.00114684 0.00123159 0.0013174 0.00140426 0.00149217 0.00158112 0.00167048 0.00175956 0.00184838 0.00193693 0.00202522 0.00211324 0.00220099 0.00228848 0.00237509 0.00246023 0.0025439 0.00262609 0.00270681 0.00278605 0.00286382 0.00294011 0.00301441 0.00308621 0.00315551 0.0032223 0.00328659 0.00334838 0.00340767 0.00346445 0.00351835 0.00356898 0.00361635 0.00366045 0.00370129 0.00373886 0.00377316 0.0038042 0.00383176 0.00385566 0.00387587 0.00389241 0.00390528 0.00391446 0.00391998 0.00392182 0.00391998 0.00391446 0.00390528 0.00389241 0.00387587 0.00385566 0.00383176 0.0038042 0.00377316 0.00373886 0.00370129 0.00366045 0.00361635 0.00356898 0.00351835 0.00346445 0.00340767 0.00334838 0.00328659 0.0032223 0.00315551 0.00308621 0.00301441 0.00294011 0.00286382 0.00278605 0.00270681 0.00262609 0.0025439 0.00246024 0.00237509 0.00228848 0.00220099 0.00211324 0.00202522 0.00193693 0.00184838 0.00175956 0.00167048 0.00158113 0.00149217 0.00140426 0.0013174 0.0012316 0.00114684 0.00106314 0.000980483 0.000898881 0.000818383 0.000739042 0.000660857 0.00058383 0.000507959 0.000433245 0.000359688 0.000287287 0.000219954 0.000161599 0.000112222 7.18219e-05 4.03998e-05 1.79555e-05 4.48887e-06 0 0 7.01383e-06 2.80553e-05 6.31245e-05 0.000112221 0.000175346 0.000252498 0.000343678 0.000448885 0.00056201 0.000676943 0.000793683 0.000912231 0.00103259 0.00115475 0.00127872 0.0014045 0.001532 0.00166115 0.00179193 0.00192436 0.00205844 0.00219415 0.00233151 0.00247051 0.00261012 0.00274931 0.00288809 0.00302646 0.0031644 0.00330193 0.00343905 0.00357575 0.00371108 0.00384412 0.00397484 0.00410327 0.00422939 0.0043532 0.00447471 0.00459392 0.00471001 0.0048222 0.00493048 0.00503484 0.0051353 0.00523185 0.00532448 0.0054132 0.00549742 0.00557653 0.00565055 0.00571945 0.00578326 0.00584196 0.00589556 0.00594406 0.00598713 0.00602446 0.00605605 0.00608189 0.00610199 0.00611635 0.00612497 0.00612784 0.00612497 0.00611635 0.00610199 0.00608189 0.00605605 0.00602446 0.00598713 0.00594406 0.00589556 0.00584196 0.00578326 0.00571945 0.00565055 0.00557653 0.00549742 0.0054132 0.00532448 0.00523185 0.0051353 0.00503485 0.00493048 0.0048222 0.00471002 0.00459392 0.00447471 0.0043532 0.00422939 0.00410327 0.00397485 0.00384412 0.00371109 0.00357575 0.00343905 0.00330194 0.00316441 0.00302646 0.0028881 0.00274932 0.00261012 0.00247051 0.00233151 0.00219415 0.00205844 0.00192437 0.00179194 0.00166115 0.001532 0.0014045 0.00127872 0.00115475 0.00103259 0.000912234 0.000793686 0.000676945 0.000562012 0.000448887 0.000343679 0.000252499 0.000175346 0.000112222 6.31247e-05 2.80554e-05 7.01385e-06 0 0 1.00999e-05 4.03997e-05 9.08993e-05 0.000161599 0.000252498 0.000363597 0.000494896 0.000646395 0.000809295 0.000974798 0.0011429 0.00131361 0.00148693 0.00166284 0.00184136 0.00202248 0.00220608 0.00239205 0.00258039 0.00277109 0.00296415 0.00315958 0.00335737 0.00355753 0.00375857 0.00395901 0.00415886 0.0043581 0.00455674 0.00475479 0.00495223 0.00514907 0.00534396 0.00553553 0.00572378 0.00590871 0.00609032 0.00626861 0.00644359 0.00661524 0.00678242 0.00694397 0.00709989 0.00725018 0.00739483 0.00753386 0.00766725 0.00779501 0.00791628 0.00803021 0.00813679 0.00823601 0.00832789 0.00841242 0.00848961 0.00855944 0.00862147 0.00867522 0.00872071 0.00875793 0.00878687 0.00880755 0.00881995 0.00882409 0.00881995 0.00880755 0.00878687 0.00875793 0.00872071 0.00867522 0.00862147 0.00855944 0.00848961 0.00841242 0.00832789 0.00823601 0.00813679 0.00803021 0.00791629 0.00779501 0.00766725 0.00753386 0.00739483 0.00725018 0.00709989 0.00694397 0.00678242 0.00661524 0.00644359 0.00626861 0.00609032 0.00590871 0.00572378 0.00553553 0.00534396 0.00514908 0.00495223 0.00475479 0.00455674 0.0043581 0.00415886 0.00395902 0.00375857 0.00355753 0.00335738 0.00315958 0.00296415 0.00277109 0.00258039 0.00239206 0.00220609 0.00202248 0.00184136 0.00166284 0.00148693 0.00131362 0.00114291 0.000974801 0.000809297 0.000646397 0.000494898 0.000363598 0.000252499 0.000161599 9.08996e-05 4.03998e-05 1.01e-05 0 0 1.37471e-05 5.49885e-05 0.000123724 0.000219954 0.000343678 0.000494896 0.000673609 0.000879815 0.00110154 0.00132681 0.00155562 0.00178797 0.00202387 0.00226331 0.00250629 0.00275282 0.00300272 0.00325585 0.00351219 0.00377176 0.00403454 0.00430054 0.00456976 0.00484219 0.00511583 0.00538866 0.00566066 0.00593186 0.00620223 0.00647179 0.00674053 0.00700846 0.00727372 0.00753447 0.0077907 0.00804241 0.0082896 0.00853228 0.00877044 0.00900408 0.00923163 0.00945152 0.00966374 0.0098683 0.0100652 0.0102544 0.010436 0.0106099 0.0107749 0.01093 0.0110751 0.0112101 0.0113352 0.0114502 0.0115553 0.0116504 0.0117348 0.0118079 0.0118699 0.0119205 0.0119599 0.011988 0.0120049 0.0120106 0.0120049 0.011988 0.0119599 0.0119205 0.0118699 0.0118079 0.0117348 0.0116504 0.0115553 0.0114502 0.0113352 0.0112101 0.0110751 0.01093 0.0107749 0.0106099 0.010436 0.0102544 0.0100652 0.0098683 0.00966374 0.00945152 0.00923163 0.00900408 0.00877044 0.00853228 0.0082896 0.00804241 0.0077907 0.00753447 0.00727373 0.00700847 0.00674054 0.0064718 0.00620224 0.00593186 0.00566067 0.00538866 0.00511584 0.0048422 0.00456976 0.00430054 0.00403454 0.00377176 0.0035122 0.00325585 0.00300273 0.00275282 0.0025063 0.00226331 0.00202388 0.00178798 0.00155562 0.00132681 0.00110154 0.000879818 0.000673611 0.000494898 0.000343679 0.000219954 0.000123724 5.49886e-05 1.37472e-05 0 0 1.79554e-05 7.18217e-05 0.000161599 0.000287287 0.000448885 0.000646395 0.000879815 0.00114915 0.00143875 0.00173297 0.00203183 0.00233531 0.00264342 0.00295616 0.00327352 0.00359552 0.00392192 0.00425254 0.00458735 0.00492637 0.0052696 0.00561703 0.00596866 0.0063245 0.0066819 0.00703825 0.00739352 0.00774773 0.00810087 0.00845295 0.00880396 0.00915391 0.00950037 0.00984094 0.0101756 0.0105044 0.0108272 0.0111442 0.0114553 0.0117604 0.0120576 0.0123448 0.012622 0.0128892 0.0131464 0.0133935 0.0136307 0.0138578 0.0140734 0.0142759 0.0144654 0.0146418 0.0148051 0.0149554 0.0150926 0.0152168 0.0153271 0.0154226 0.0155035 0.0155696 0.0156211 0.0156579 0.0156799 0.0156873 0.0156799 0.0156579 0.0156211 0.0155696 0.0155035 0.0154226 0.0153271 0.0152168 0.0150926 0.0149554 0.0148051 0.0146418 0.0144654 0.0142759 0.0140734 0.0138578 0.0136307 0.0133935 0.0131464 0.0128892 0.012622 0.0123448 0.0120576 0.0117604 0.0114553 0.0111442 0.0108272 0.0105044 0.0101756 0.00984094 0.00950038 0.00915392 0.00880397 0.00845296 0.00810088 0.00774774 0.00739353 0.00703825 0.00668191 0.0063245 0.00596867 0.00561703 0.00526961 0.00492638 0.00458736 0.00425254 0.00392193 0.00359552 0.00327353 0.00295617 0.00264343 0.00233532 0.00203184 0.00173298 0.00143875 0.00114915 0.000879818 0.000646397 0.000448887 0.000287287 0.000161599 7.18219e-05 1.79555e-05 0 0 2.24713e-05 8.98853e-05 0.000202242 0.000359541 0.000561783 0.000808968 0.0011011 0.00143817 0.00180059 0.00216879 0.00254275 0.00292249 0.003308 0.00369928 0.00409632 0.00449914 0.00490747 0.00532105 0.00573989 0.00616397 0.00659331 0.0070279 0.00746774 0.00791284 0.00835989 0.00880561 0.00925 0.00969304 0.0101348 0.0105751 0.0110142 0.0114519 0.0118852 0.0123112 0.0127298 0.013141 0.0135448 0.0139413 0.0143303 0.014712 0.0150838 0.015443 0.0157897 0.0161239 0.0164455 0.0167546 0.0170513 0.0173353 0.017605 0.0178583 0.0180953 0.018316 0.0185203 0.0187082 0.0188798 0.0190351 0.019173 0.0192926 0.0193937 0.0194765 0.0195408 0.0195868 0.0196144 0.0196236 0.0196144 0.0195868 0.0195408 0.0194765 0.0193937 0.0192926 0.019173 0.0190351 0.0188798 0.0187082 0.0185203 0.018316 0.0180953 0.0178583 0.017605 0.0173354 0.0170513 0.0167547 0.0164455 0.0161239 0.0157897 0.015443 0.0150838 0.014712 0.0143303 0.0139413 0.0135448 0.013141 0.0127298 0.0123112 0.0118852 0.0114519 0.0110142 0.0105751 0.0101348 0.00969305 0.00925 0.00880562 0.0083599 0.00791285 0.00746775 0.00702791 0.00659332 0.00616398 0.00573989 0.00532106 0.00490748 0.00449915 0.00409633 0.00369928 0.00330801 0.0029225 0.00254276 0.00216879 0.0018006 0.00143817 0.0011011 0.00080897 0.000561785 0.000359542 0.000202243 8.98856e-05 2.24714e-05 0 0 2.70414e-05 0.000108166 0.000243372 0.000432662 0.000676034 0.00097349 0.00132503 0.00173065 0.00216675 0.00260974 0.00305962 0.00351637 0.00398002 0.00445055 0.00492796 0.00541226 0.00590315 0.00640033 0.00690381 0.00741358 0.00792965 0.00845201 0.00898067 0.00951562 0.0100529 0.0105886 0.0111227 0.0116551 0.012186 0.0127152 0.0132428 0.0137688 0.0142896 0.0148015 0.0153045 0.0157987 0.016284 0.0167604 0.0172279 0.0176866 0.0181333 0.018565 0.0189817 0.0193832 0.0197698 0.0201413 0.0204977 0.0208391 0.0211632 0.0214676 0.0217524 0.0220175 0.022263 0.0224889 0.0226951 0.0228818 0.0230475 0.0231911 0.0233127 0.0234121 0.0234895 0.0235447 0.0235779 0.0235889 0.0235779 0.0235447 0.0234895 0.0234121 0.0233127 0.0231911 0.0230475 0.0228818 0.0226951 0.0224889 0.022263 0.0220175 0.0217524 0.0214676 0.0211632 0.0208391 0.0204977 0.0201413 0.0197698 0.0193832 0.0189817 0.018565 0.0181334 0.0176866 0.017228 0.0167604 0.016284 0.0157987 0.0153045 0.0148015 0.0142896 0.0137688 0.0132428 0.0127152 0.012186 0.0116551 0.0111227 0.0105886 0.0100529 0.00951563 0.00898068 0.00845202 0.00792966 0.00741359 0.00690382 0.00640034 0.00590316 0.00541227 0.00492797 0.00445056 0.00398003 0.00351638 0.00305962 0.00260975 0.00216676 0.00173065 0.00132503 0.000973492 0.000676036 0.000432663 0.000243373 0.000108166 2.70415e-05 0 0 3.16656e-05 0.000126662 0.00028499 0.000506649 0.000791639 0.00113996 0.00155161 0.0020266 0.00253723 0.00305584 0.00358241 0.00411696 0.00465948 0.00520997 0.00576843 0.00633486 0.00690895 0.00749036 0.00807911 0.00867519 0.0092786 0.00988935 0.0105074 0.0111328 0.011761 0.0123872 0.0130115 0.013634 0.0142545 0.0148732 0.0154899 0.0161048 0.0167135 0.0173118 0.0178998 0.0184774 0.0190447 0.0196016 0.0201481 0.0206842 0.0212064 0.0217109 0.0221979 0.0226673 0.0231191 0.0235534 0.02397 0.024369 0.0247478 0.0251037 0.0254365 0.0257465 0.0260334 0.0262975 0.0265385 0.0267567 0.0269504 0.0271183 0.0272604 0.0273766 0.027467 0.0275316 0.0275703 0.0275833 0.0275703 0.0275316 0.027467 0.0273766 0.0272604 0.0271183 0.0269504 0.0267567 0.0265385 0.0262975 0.0260334 0.0257465 0.0254365 0.0251037 0.0247478 0.0243691 0.02397 0.0235534 0.0231191 0.0226673 0.0221979 0.021711 0.0212064 0.0206842 0.0201481 0.0196016 0.0190447 0.0184775 0.0178998 0.0173118 0.0167135 0.0161048 0.0154899 0.0148732 0.0142545 0.013634 0.0130115 0.0123872 0.011761 0.0111328 0.0105074 0.00988936 0.00927862 0.00867521 0.00807913 0.00749038 0.00690896 0.00633488 0.00576844 0.00520998 0.00465949 0.00411697 0.00358242 0.00305584 0.00253724 0.0020266 0.00155162 0.00113996 0.000791641 0.00050665 0.000284991 0.000126663 3.16656e-05 0 0 3.63439e-05 0.000145375 0.000327095 0.000581502 0.000908596 0.00130838 0.00178085 0.00232601 0.00291202 0.00350707 0.00411114 0.00472425 0.00534638 0.00597755 0.00661774 0.00726696 0.00792488 0.00859116 0.00926581 0.00994882 0.0106402 0.0113399 0.012048 0.0127645 0.013484 0.0142014 0.0149166 0.0156296 0.0163404 0.017049 0.0177554 0.0184597 0.0191569 0.0198422 0.0205157 0.0211773 0.021827 0.0224648 0.0230907 0.0237048 0.0243028 0.0248808 0.0254385 0.0259761 0.0264936 0.026991 0.0274681 0.0279252 0.028359 0.0287666 0.0291478 0.0295028 0.0298315 0.0301339 0.03041 0.0306599 0.0308817 0.0310741 0.0312368 0.0313699 0.0314735 0.0315474 0.0315918 0.0316066 0.0315918 0.0315474 0.0314735 0.0313699 0.0312368 0.0310741 0.0308818 0.0306599 0.03041 0.0301339 0.0298315 0.0295028 0.0291478 0.0287666 0.028359 0.0279252 0.0274682 0.026991 0.0264936 0.0259761 0.0254385 0.0248808 0.0243029 0.0237048 0.0230907 0.0224648 0.021827 0.0211773 0.0205157 0.0198422 0.0191569 0.0184597 0.0177554 0.017049 0.0163404 0.0156296 0.0149166 0.0142014 0.013484 0.0127645 0.012048 0.0113399 0.0106402 0.00994883 0.00926582 0.00859118 0.00792489 0.00726698 0.00661775 0.00597756 0.0053464 0.00472426 0.00411116 0.00350708 0.00291203 0.00232601 0.00178085 0.00130838 0.000908599 0.000581503 0.000327096 0.000145376 3.6344e-05 0 0 4.10763e-05 0.000164305 0.000369687 0.000657221 0.00102691 0.00147875 0.00201274 0.00262888 0.00329113 0.00396344 0.00464581 0.00533824 0.00604073 0.00675328 0.00747588 0.00820855 0.00895094 0.00970272 0.0104639 0.0112344 0.0120144 0.0128037 0.0136025 0.0144106 0.0152221 0.0160312 0.0168378 0.0176419 0.0184436 0.0192427 0.0200394 0.0208336 0.0216198 0.0223927 0.0231521 0.0238982 0.0246308 0.0253501 0.0260559 0.0267484 0.0274228 0.0280744 0.0287034 0.0293097 0.0298932 0.030454 0.0309921 0.0315075 0.0319968 0.0324563 0.0328863 0.0332866 0.0336572 0.0339982 0.0343096 0.0345913 0.0348416 0.0350584 0.0352419 0.0353921 0.0355088 0.0355922 0.0356423 0.035659 0.0356423 0.0355922 0.0355088 0.0353921 0.0352419 0.0350584 0.0348416 0.0345913 0.0343096 0.0339982 0.0336572 0.0332866 0.0328863 0.0324563 0.0319968 0.0315075 0.0309921 0.030454 0.0298932 0.0293097 0.0287034 0.0280745 0.0274228 0.0267484 0.0260559 0.0253501 0.0246308 0.0238982 0.0231521 0.0223927 0.0216198 0.0208336 0.0200394 0.0192427 0.0184436 0.0176419 0.0168378 0.0160312 0.0152221 0.0144106 0.0136025 0.0128037 0.0120144 0.0112345 0.0104639 0.00970274 0.00895096 0.00820857 0.0074759 0.00675329 0.00604074 0.00533825 0.00464582 0.00396345 0.00329114 0.00262889 0.00201274 0.00147875 0.00102691 0.000657223 0.000369688 0.000164306 4.10764e-05 0 0 4.58628e-05 0.000183451 0.000412766 0.000733806 0.00114657 0.00165106 0.00224728 0.00293522 0.00367456 0.00442496 0.00518642 0.00595894 0.00674252 0.00753716 0.00834286 0.00915963 0.00998713 0.010825 0.0116734 0.0125321 0.0134012 0.0142808 0.0151707 0.0160711 0.0169753 0.0178767 0.0187753 0.0196711 0.0205641 0.0214543 0.0223418 0.0232265 0.0241023 0.0249631 0.0258091 0.0266401 0.0274562 0.0282574 0.0290436 0.0298149 0.0305661 0.031292 0.0319926 0.0326679 0.0333179 0.0339426 0.034542 0.0351161 0.035661 0.0361729 0.0366518 0.0370977 0.0375106 0.0378904 0.0382373 0.0385511 0.0388298 0.0390714 0.0392758 0.039443 0.0395731 0.039666 0.0397218 0.0397403 0.0397218 0.039666 0.0395731 0.039443 0.0392758 0.0390714 0.0388298 0.0385511 0.0382373 0.0378905 0.0375106 0.0370977 0.0366518 0.0361729 0.035661 0.0351161 0.034542 0.0339426 0.0333179 0.0326679 0.0319926 0.031292 0.0305661 0.0298149 0.0290436 0.0282574 0.0274562 0.0266401 0.0258091 0.0249632 0.0241023 0.0232265 0.0223418 0.0214543 0.0205641 0.0196711 0.0187753 0.0178767 0.0169753 0.0160711 0.0151707 0.0142808 0.0134012 0.0125321 0.0116734 0.0108251 0.00998715 0.00915965 0.00834288 0.00753718 0.00674253 0.00595895 0.00518643 0.00442497 0.00367457 0.00293523 0.00224729 0.00165107 0.00114657 0.000733808 0.000412767 0.000183452 4.5863e-05 0 0 5.07035e-05 0.000202814 0.000456332 0.000811257 0.00126759 0.00182533 0.00248447 0.00324503 0.0040623 0.00489161 0.00573295 0.00658633 0.00745175 0.0083292 0.00921868 0.0101202 0.0110334 0.0119581 0.0128942 0.0138417 0.0148007 0.015771 0.0167528 0.017746 0.0187434 0.0197377 0.0207289 0.021717 0.0227019 0.0236838 0.0246626 0.0256383 0.0266042 0.0275537 0.0284866 0.0294031 0.0303032 0.0311867 0.0320538 0.0329045 0.0337329 0.0345335 0.0353061 0.0360509 0.0367677 0.0374567 0.0381177 0.0387508 0.0393518 0.0399164 0.0404445 0.0409363 0.0413916 0.0418105 0.0421931 0.0425392 0.0428465 0.043113 0.0433384 0.0435228 0.0436663 0.0437687 0.0438302 0.0438507 0.0438302 0.0437687 0.0436663 0.0435228 0.0433384 0.043113 0.0428466 0.0425392 0.0421931 0.0418105 0.0413916 0.0409363 0.0404445 0.0399164 0.0393518 0.0387508 0.0381177 0.0374567 0.0367677 0.0360509 0.0353061 0.0345335 0.0337329 0.0329045 0.0320539 0.0311868 0.0303032 0.0294032 0.0284866 0.0275537 0.0266042 0.0256383 0.0246626 0.0236838 0.022702 0.021717 0.0207289 0.0197377 0.0187434 0.0177461 0.0167529 0.0157711 0.0148007 0.0138418 0.0128942 0.0119581 0.0110335 0.0101202 0.0092187 0.00832922 0.00745177 0.00658635 0.00573297 0.00489162 0.00406231 0.00324504 0.00248448 0.00182533 0.00126759 0.000811259 0.000456333 0.000202815 5.07037e-05 0 0 5.55984e-05 0.000222393 0.000500385 0.000889574 0.00138996 0.00200154 0.00272432 0.00355829 0.00445436 0.0053634 0.00628543 0.00722043 0.00816842 0.00912939 0.0101033 0.0110903 0.0120899 0.013102 0.0141265 0.0151634 0.0162128 0.0172746 0.0183488 0.0194354 0.0205266 0.0216144 0.0226987 0.0237796 0.0248571 0.0259312 0.0270019 0.0280692 0.0291257 0.0301642 0.0311847 0.0321872 0.0331717 0.0341382 0.0350866 0.036017 0.0369232 0.0377988 0.0386439 0.0394585 0.0402426 0.0409962 0.0417192 0.0424118 0.0430691 0.0436867 0.0442644 0.0448022 0.0453003 0.0457585 0.0461769 0.0465555 0.0468917 0.0471831 0.0474297 0.0476315 0.0477884 0.0479004 0.0479677 0.0479901 0.0479677 0.0479004 0.0477884 0.0476315 0.0474297 0.0471831 0.0468917 0.0465555 0.0461769 0.0457585 0.0453003 0.0448023 0.0442644 0.0436867 0.0430691 0.0424118 0.0417193 0.0409962 0.0402426 0.0394586 0.038644 0.0377988 0.0369232 0.036017 0.0350866 0.0341382 0.0331717 0.0321872 0.0311848 0.0301642 0.0291257 0.0280692 0.0270019 0.0259312 0.0248571 0.0237796 0.0226987 0.0216144 0.0205266 0.0194355 0.0183488 0.0172746 0.0162128 0.0151634 0.0141265 0.013102 0.0120899 0.0110903 0.0101034 0.00912941 0.00816844 0.00722045 0.00628545 0.00536342 0.00445437 0.00355831 0.00272433 0.00200155 0.00138996 0.000889576 0.000500387 0.000222394 5.55985e-05 0 0 6.05354e-05 0.000242141 0.000544818 0.000968566 0.00151338 0.00217927 0.00296623 0.00387426 0.00484978 0.00583921 0.00684255 0.00785979 0.00889095 0.00993601 0.010995 0.0120679 0.0131544 0.0142544 0.0153678 0.0164947 0.017635 0.0187887 0.0199559 0.0211365 0.022322 0.0235037 0.0246817 0.025856 0.0270265 0.0281933 0.0293563 0.0305156 0.0316632 0.0327913 0.0338998 0.0349887 0.036058 0.0371078 0.038138 0.0391486 0.0401328 0.0410839 0.0420019 0.0428867 0.0437384 0.0445569 0.0453422 0.0460945 0.0468085 0.0474792 0.0481067 0.048691 0.049232 0.0497297 0.0501841 0.0505953 0.0509606 0.0512771 0.0515449 0.0517641 0.0519345 0.0520563 0.0521293 0.0521536 0.0521293 0.0520563 0.0519345 0.0517641 0.0515449 0.0512771 0.0509606 0.0505953 0.0501841 0.0497297 0.049232 0.048691 0.0481067 0.0474792 0.0468085 0.0460945 0.0453422 0.0445569 0.0437384 0.0428867 0.0420019 0.0410839 0.0401328 0.0391486 0.038138 0.0371078 0.036058 0.0349887 0.0338998 0.0327913 0.0316632 0.0305156 0.0293563 0.0281933 0.0270265 0.025856 0.0246817 0.0235038 0.022322 0.0211366 0.0199559 0.0187888 0.017635 0.0164947 0.0153679 0.0142544 0.0131544 0.0120679 0.010995 0.00993603 0.00889097 0.00785981 0.00684257 0.00583923 0.0048498 0.00387427 0.00296624 0.00217928 0.00151339 0.000968568 0.00054482 0.000242142 6.05355e-05 0 0 6.55026e-05 0.00026201 0.000589523 0.00104804 0.00163756 0.00235809 0.00320963 0.00419216 0.00524762 0.0063179 0.00740302 0.00850296 0.00961774 0.0107473 0.0118918 0.013051 0.0142249 0.0154133 0.0166161 0.0178333 0.0190649 0.0203111 0.0215716 0.0228466 0.0241268 0.0254029 0.026675 0.0279429 0.0292069 0.0304667 0.0317225 0.0329742 0.0342133 0.0354313 0.0366281 0.0378038 0.0389583 0.0400917 0.041204 0.0422951 0.0433578 0.0443847 0.0453758 0.0463311 0.0472506 0.0481343 0.0489823 0.0497944 0.0505653 0.0512895 0.051967 0.0525978 0.0531819 0.0537193 0.05421 0.054654 0.0550483 0.0553901 0.0556792 0.0559158 0.0560999 0.0562313 0.0563102 0.0563365 0.0563102 0.0562313 0.0560999 0.0559158 0.0556792 0.0553901 0.0550483 0.054654 0.05421 0.0537193 0.0531819 0.0525978 0.051967 0.0512895 0.0505653 0.0497944 0.0489823 0.0481343 0.0472506 0.0463311 0.0453758 0.0443847 0.0433578 0.0422951 0.041204 0.0400918 0.0389584 0.0378038 0.0366281 0.0354313 0.0342133 0.0329742 0.0317225 0.0304667 0.0292069 0.027943 0.026675 0.0254029 0.0241268 0.0228466 0.0215716 0.0203111 0.019065 0.0178333 0.0166161 0.0154133 0.014225 0.0130511 0.0118918 0.0107474 0.00961776 0.00850298 0.00740304 0.00631792 0.00524763 0.00419218 0.00320963 0.0023581 0.00163757 0.00104804 0.000589525 0.000262011 6.55027e-05 0 0 7.05e-05 0.000282 0.0006345 0.001128 0.0017625 0.002538 0.0034545 0.004512 0.00564787 0.00679949 0.00796684 0.00914995 0.0103488 0.0115634 0.0127937 0.0140398 0.0153015 0.0165786 0.0178711 0.0191791 0.0205026 0.0218415 0.0231959 0.0245657 0.025941 0.0273119 0.0286784 0.0300405 0.0313982 0.0327516 0.0341005 0.035445 0.0367759 0.0380842 0.0393697 0.0406325 0.0418727 0.0430901 0.0442847 0.0454567 0.0465981 0.0477011 0.0487656 0.0497917 0.0507793 0.0517285 0.0526393 0.0535117 0.0543397 0.0551176 0.0558453 0.0565228 0.0571502 0.0577274 0.0582545 0.0587313 0.0591549 0.059522 0.0598326 0.0600867 0.0602844 0.0604256 0.0605103 0.0605386 0.0605103 0.0604256 0.0602844 0.0600868 0.0598326 0.059522 0.0591549 0.0587314 0.0582545 0.0577274 0.0571502 0.0565228 0.0558453 0.0551176 0.0543397 0.0535117 0.0526393 0.0517285 0.0507793 0.0497917 0.0487656 0.0477011 0.0465981 0.0454567 0.0442848 0.0430901 0.0418727 0.0406326 0.0393697 0.0380842 0.036776 0.035445 0.0341005 0.0327516 0.0313983 0.0300405 0.0286784 0.0273119 0.025941 0.0245657 0.0231959 0.0218415 0.0205026 0.0191792 0.0178712 0.0165786 0.0153015 0.0140398 0.0127937 0.0115634 0.0103488 0.00914997 0.00796686 0.0067995 0.00564789 0.00451201 0.00345451 0.00253801 0.0017625 0.001128 0.000634502 0.000282001 7.05002e-05 0 0 7.55276e-05 0.000302111 0.000679749 0.00120844 0.00188819 0.00271899 0.00370085 0.00483377 0.00605054 0.00728395 0.00853402 0.00980074 0.0110841 0.0123841 0.0137008 0.0150341 0.016384 0.0177503 0.0191331 0.0205323 0.021948 0.0233801 0.0248287 0.0262937 0.0277645 0.0292307 0.0306921 0.0321487 0.0336007 0.0350478 0.0364903 0.037928 0.0393512 0.0407501 0.0421247 0.043475 0.044801 0.0461027 0.0473801 0.0486333 0.0498537 0.0510331 0.0521713 0.0532685 0.0543246 0.0553395 0.0563134 0.0572462 0.0581316 0.0589633 0.0597415 0.0604659 0.0611368 0.061754 0.0623176 0.0628275 0.0632804 0.0636729 0.0640051 0.0642768 0.0644882 0.0646391 0.0647297 0.0647599 0.0647297 0.0646391 0.0644882 0.0642768 0.0640051 0.0636729 0.0632804 0.0628275 0.0623176 0.061754 0.0611368 0.0604659 0.0597415 0.0589633 0.0581316 0.0572462 0.0563134 0.0553395 0.0543246 0.0532685 0.0521714 0.0510331 0.0498537 0.0486333 0.0473802 0.0461027 0.044801 0.043475 0.0421247 0.0407501 0.0393512 0.037928 0.0364903 0.0350479 0.0336007 0.0321488 0.0306921 0.0292307 0.0277646 0.0262937 0.0248287 0.0233801 0.021948 0.0205323 0.0191331 0.0177503 0.016384 0.0150341 0.0137008 0.0123842 0.0110841 0.00980076 0.00853404 0.00728397 0.00605055 0.00483378 0.00370086 0.002719 0.0018882 0.00120845 0.000679751 0.000302111 7.55278e-05 0 0 8.05855e-05 0.000322342 0.000725269 0.00128937 0.00201464 0.00290108 0.00394869 0.00515747 0.00645561 0.00777131 0.00910455 0.0104553 0.0118237 0.0132096 0.014613 0.016034 0.0174725 0.0189285 0.0204019 0.0218927 0.023401 0.0249268 0.02647 0.0280307 0.0295975 0.0311593 0.032716 0.0342676 0.0358141 0.0373555 0.0388919 0.0404231 0.0419389 0.0434288 0.0448929 0.046331 0.0477433 0.0491297 0.0504902 0.0518249 0.0531247 0.0543808 0.055593 0.0567616 0.0578863 0.0589673 0.0600045 0.060998 0.061941 0.0628268 0.0636556 0.0644272 0.0651417 0.065799 0.0663993 0.0669424 0.0674248 0.0678428 0.0681966 0.068486 0.0687111 0.0688719 0.0689684 0.0690006 0.0689684 0.0688719 0.0687111 0.068486 0.0681966 0.0678428 0.0674248 0.0669424 0.0663993 0.065799 0.0651417 0.0644272 0.0636556 0.0628268 0.061941 0.060998 0.0600045 0.0589673 0.0578863 0.0567616 0.0555931 0.0543808 0.0531247 0.0518249 0.0504902 0.0491297 0.0477433 0.046331 0.0448929 0.0434289 0.0419389 0.0404232 0.0388919 0.0373555 0.0358141 0.0342676 0.032716 0.0311593 0.0295975 0.0280307 0.02647 0.0249268 0.0234011 0.0218928 0.0204019 0.0189285 0.0174725 0.0160341 0.0146131 0.0132096 0.0118237 0.0104554 0.00910457 0.00777133 0.00645563 0.00515749 0.0039487 0.00290109 0.00201464 0.00128937 0.000725271 0.000322343 8.05857e-05 0 0 8.56736e-05 0.000342694 0.000771062 0.00137078 0.00214184 0.00308425 0.00419801 0.00548311 0.00686311 0.00826155 0.00967844 0.0111138 0.0125675 0.0140398 0.0155304 0.0170395 0.0185671 0.0201131 0.0216775 0.0232604 0.0248618 0.0264816 0.0281199 0.0297766 0.0314399 0.0330977 0.0347501 0.036397 0.0380385 0.0396746 0.0413053 0.0429305 0.0445393 0.0461206 0.0476744 0.0492008 0.0506996 0.0521711 0.053615 0.0550315 0.056411 0.0577441 0.0590307 0.0602708 0.0614646 0.0626118 0.0637126 0.064767 0.0657678 0.0667081 0.0675876 0.0684066 0.0691649 0.0698626 0.0704996 0.0710761 0.071588 0.0720318 0.0724072 0.0727144 0.0729533 0.073124 0.0732264 0.0732605 0.0732264 0.073124 0.0729533 0.0727144 0.0724072 0.0720318 0.071588 0.0710761 0.0704996 0.0698626 0.0691649 0.0684066 0.0675876 0.0667081 0.0657679 0.064767 0.0637127 0.0626118 0.0614646 0.0602709 0.0590307 0.0577441 0.056411 0.0550315 0.053615 0.0521711 0.0506997 0.0492008 0.0476744 0.0461206 0.0445393 0.0429305 0.0413053 0.0396746 0.0380385 0.036397 0.0347501 0.0330977 0.0314399 0.0297767 0.0281199 0.0264817 0.0248618 0.0232605 0.0216776 0.0201131 0.0185671 0.0170395 0.0155304 0.0140398 0.0125676 0.0111138 0.00967846 0.00826157