<?xml version="1.0"?> 
<VTKFile type="StructuredGrid" version="0.1"> 
<StructuredGrid WholeExtent="0 128 0 128 0 0"> 
<Piece Extent="0 128 0 128 0 0"> 
<PointData>
<DataArray type="Float32" Name="u" format="ascii" NumberOfComponents="1"> 
0 0 0 0 0 0 0 0 0 0 0 0 0 0 0 0 0 0 0 0 0 0 0 0 0 0 0 0 0 0 0 0 0 0 0 0 0 0 0 0 0 0 0 0 0 0 0 0 0 0 0 0 0 0 0 0 0 0 0 0 0 0 0 0 0 0 0 0 0 0 0 0 0 0 0 0 0 0 0 0 0 0 0 0 0 0 0 0 0 0 0 0 0 0 0 0 0 0 0 0 0 0 0 0 0 0 0 0 0 0 0 0 0 0 0 0 0 0 0 0 0 0 0 0 0 0 0 0 0 0 2.91885e-07 1.16754e-06 2.62696e-06 4.67015e-06 7.29711e-06 1.05078e-05 1.43023e-05 1.86806e-05 2.34671e-05 2.84864e-05 3.37384e-05 3.92232e-05 4.49407e-05 5.08909e-05 5.70739e-05 6.34897e-05 7.0166e-05 7.71307e-05 8.43838e-05 9.19253e-05 9.97552e-05 0.000107874 0.00011628 0.000124975 0.00013391 0.000143036 0.000152353 0.00016186 0.000171559 0.000181449 0.000191529 0.000201801 0.000212169 0.000222539 0.000232911 0.000243286 0.000253662 0.000264041 0.000274421 0.000284804 0.000295069 0.000305095 0.000314883 0.000324433 0.000333744 0.000342817 0.000351652 0.000360249 0.000368495 0.00037628 0.000383601 0.000390461 0.000396859 0.000402794 0.000408267 0.000413278 0.000417759 0.000421642 0.000424928 0.000427617 0.000429708 0.000431202 0.000432098 0.000432397 0.000432098 0.000431202 0.000429708 0.000427617 0.000424928 0.000421642 0.000417759 0.000413278 0.000408267 0.000402794 0.000396859 0.000390461 0.000383601 0.00037628 0.000368495 0.000360249 0.000351652 0.000342817 0.000333744 0.000324433 0.000314883 0.000305095 0.000295069 0.000284804 0.000274421 0.000264041 0.000253662 0.000243286 0.000232912 0.000222539 0.000212169 0.000201801 0.000191529 0.000181449 0.000171559 0.00016186 0.000152353 0.000143036 0.00013391 0.000124975 0.00011628 0.000107874 9.97553e-05 9.19254e-05 8.43839e-05 7.71308e-05 7.01661e-05 6.34898e-05 5.7074e-05 5.0891e-05 4.49408e-05 3.92233e-05 3.37385e-05 2.84865e-05 2.34672e-05 1.86807e-05 1.43024e-05 1.05079e-05 7.29713e-06 4.67017e-06 2.62697e-06 1.16754e-06 2.91885e-07 0 0 1.16754e-06 4.67015e-06 1.05078e-05 1.86806e-05 2.91885e-05 4.20314e-05 5.72094e-05 7.47224e-05 9.38685e-05 0.000113946 0.000134954 0.000156893 0.000179763 0.000203564 0.000228296 0.000253959 0.000280664 0.000308523 0.000337535 0.000367701 0.000399021 0.000431494 0.000465121 0.000499901 0.00053564 0.000572143 0.00060941 0.000647441 0.000686236 0.000725794 0.000766117 0.000807203 0.000848676 0.000890157 0.000931646 0.000973143 0.00101465 0.00105616 0.00109769 0.00113922 0.00118027 0.00122038 0.00125953 0.00129773 0.00133498 0.00137127 0.00140661 0.001441 0.00147398 0.00150512 0.00153441 0.00156184 0.00158743 0.00161118 0.00163307 0.00165311 0.00167103 0.00168657 0.00169971 0.00171047 0.00171883 0.00172481 0.00172839 0.00172959 0.00172839 0.00172481 0.00171883 0.00171047 0.00169971 0.00168657 0.00167103 0.00165311 0.00163307 0.00161118 0.00158743 0.00156184 0.00153441 0.00150512 0.00147398 0.001441 0.00140661 0.00137127 0.00133498 0.00129773 0.00125953 0.00122038 0.00118027 0.00113922 0.00109769 0.00105616 0.00101465 0.000973144 0.000931646 0.000890157 0.000848676 0.000807204 0.000766117 0.000725795 0.000686236 0.000647441 0.00060941 0.000572143 0.00053564 0.000499901 0.000465121 0.000431494 0.000399021 0.000367702 0.000337536 0.000308523 0.000280664 0.000253959 0.000228296 0.000203564 0.000179763 0.000156893 0.000134954 0.000113946 9.38688e-05 7.47226e-05 5.72095e-05 4.20315e-05 2.91885e-05 1.86807e-05 1.05079e-05 4.67017e-06 1.16754e-06 0 0 2.62696e-06 1.05078e-05 2.36426e-05 4.20314e-05 6.5674e-05 9.45706e-05 0.000128721 0.000168125 0.000211204 0.000256378 0.000303646 0.000353009 0.000404466 0.000458019 0.000513665 0.000571407 0.000631494 0.000694176 0.000759454 0.000827328 0.000897797 0.000970862 0.00104652 0.00112478 0.00120519 0.00128732 0.00137117 0.00145674 0.00154403 0.00163304 0.00172376 0.00181621 0.00190952 0.00200285 0.0020962 0.00218957 0.00228296 0.00237637 0.00246979 0.00256324 0.00265562 0.00274585 0.00283395 0.00291989 0.0030037 0.00308536 0.00316487 0.00324224 0.00331646 0.00338652 0.00345241 0.00351415 0.00357173 0.00362515 0.0036744 0.0037195 0.00375983 0.00379478 0.00382435 0.00384855 0.00386737 0.00388081 0.00388888 0.00389157 0.00388888 0.00388081 0.00386737 0.00384855 0.00382435 0.00379478 0.00375983 0.0037195 0.0036744 0.00362515 0.00357173 0.00351415 0.00345241 0.00338652 0.00331646 0.00324224 0.00316487 0.00308536 0.0030037 0.00291989 0.00283395 0.00274585 0.00265562 0.00256324 0.00246979 0.00237637 0.00228296 0.00218957 0.0020962 0.00200285 0.00190952 0.00181621 0.00172376 0.00163304 0.00154403 0.00145674 0.00137117 0.00128732 0.00120519 0.00112478 0.00104652 0.000970862 0.000897798 0.000827329 0.000759455 0.000694177 0.000631495 0.000571408 0.000513666 0.000458019 0.000404467 0.000353009 0.000303647 0.000256378 0.000211205 0.000168126 0.000128721 9.45709e-05 6.56742e-05 4.20315e-05 2.36427e-05 1.05079e-05 2.62697e-06 0 0 4.67015e-06 1.86806e-05 4.20314e-05 7.47224e-05 0.000116754 0.000168125 0.000228837 0.00029889 0.000375474 0.000455782 0.000539815 0.000627571 0.000719051 0.000814255 0.000913183 0.00101584 0.00112266 0.00123409 0.00135014 0.00147081 0.00159608 0.00172598 0.00186048 0.0019996 0.00214256 0.00228857 0.00243764 0.00258976 0.00274494 0.00290318 0.00306447 0.00322881 0.0033947 0.00356063 0.00372658 0.00389257 0.0040586 0.00422465 0.00439074 0.00455686 0.0047211 0.00488152 0.00503813 0.00519092 0.00533991 0.00548508 0.00562644 0.00576398 0.00589593 0.00602047 0.00613762 0.00624738 0.00634974 0.0064447 0.00653227 0.00661244 0.00668414 0.00674628 0.00679885 0.00684187 0.00687533 0.00689923 0.00691356 0.00691834 0.00691356 0.00689923 0.00687533 0.00684187 0.00679885 0.00674628 0.00668414 0.00661244 0.00653227 0.0064447 0.00634974 0.00624738 0.00613762 0.00602047 0.00589593 0.00576398 0.00562644 0.00548508 0.00533991 0.00519092 0.00503813 0.00488152 0.0047211 0.00455686 0.00439074 0.00422465 0.0040586 0.00389257 0.00372658 0.00356063 0.0033947 0.00322881 0.00306447 0.00290318 0.00274494 0.00258976 0.00243764 0.00228857 0.00214256 0.00199961 0.00186048 0.00172598 0.00159608 0.00147081 0.00135014 0.00123409 0.00112266 0.00101584 0.000913185 0.000814257 0.000719053 0.000627572 0.000539816 0.000455784 0.000375475 0.000298891 0.000228838 0.000168126 0.000116754 7.47226e-05 4.20315e-05 1.86807e-05 4.67017e-06 0 0 7.29711e-06 2.91885e-05 6.5674e-05 0.000116754 0.000182428 0.000262696 0.000357559 0.000467015 0.000586678 0.00071216 0.000843461 0.00098058 0.00112352 0.00127227 0.00142685 0.00158724 0.00175415 0.00192827 0.0021096 0.00229813 0.00249388 0.00269684 0.002907 0.00312438 0.00334775 0.0035759 0.00380881 0.00404651 0.00428897 0.00453621 0.00478823 0.00504502 0.00530422 0.00556348 0.00582279 0.00608215 0.00634156 0.00660102 0.00686053 0.0071201 0.00737671 0.00762737 0.00787207 0.00811082 0.0083436 0.00857043 0.00879131 0.00900622 0.00921238 0.00940699 0.00959004 0.00976153 0.00992147 0.0100698 0.0102067 0.0103319 0.010444 0.0105411 0.0106232 0.0106904 0.0107427 0.01078 0.0108024 0.0108099 0.0108024 0.01078 0.0107427 0.0106904 0.0106232 0.0105411 0.010444 0.0103319 0.0102067 0.0100698 0.00992147 0.00976153 0.00959004 0.00940699 0.00921238 0.00900622 0.00879131 0.00857043 0.0083436 0.00811082 0.00787207 0.00762737 0.00737671 0.0071201 0.00686053 0.00660102 0.00634156 0.00608215 0.00582279 0.00556348 0.00530423 0.00504502 0.00478823 0.00453622 0.00428897 0.00404651 0.00380881 0.0035759 0.00334775 0.00312438 0.00290701 0.00269684 0.00249388 0.00229814 0.0021096 0.00192827 0.00175415 0.00158724 0.00142685 0.00127228 0.00112352 0.000980582 0.000843463 0.000712162 0.00058668 0.000467017 0.00035756 0.000262697 0.000182428 0.000116754 6.56742e-05 2.91885e-05 7.29713e-06 0 0 1.05078e-05 4.20314e-05 9.45706e-05 0.000168125 0.000262696 0.000378282 0.000514884 0.000672502 0.000844817 0.00102551 0.00121458 0.00141203 0.00161786 0.00183207 0.00205466 0.00228563 0.00252598 0.00277671 0.00303782 0.00330931 0.00359119 0.00388345 0.00418609 0.00449911 0.00482076 0.00514929 0.00548469 0.00582697 0.00617612 0.00653215 0.00689505 0.00726483 0.00763808 0.00801141 0.00838481 0.00875829 0.00913184 0.00950547 0.00987917 0.0102529 0.0106225 0.0109834 0.0113358 0.0116796 0.0120148 0.0123414 0.0126595 0.012969 0.0132658 0.0135461 0.0138097 0.0140566 0.0142869 0.0145006 0.0146976 0.014878 0.0150393 0.0151791 0.0152974 0.0153942 0.0154695 0.0155233 0.0155555 0.0155663 0.0155555 0.0155233 0.0154695 0.0153942 0.0152974 0.0151791 0.0150393 0.014878 0.0146976 0.0145006 0.0142869 0.0140566 0.0138097 0.0135461 0.0132658 0.012969 0.0126595 0.0123414 0.0120148 0.0116796 0.0113358 0.0109834 0.0106225 0.0102529 0.00987917 0.00950547 0.00913184 0.00875829 0.00838481 0.00801141 0.00763808 0.00726483 0.00689505 0.00653215 0.00617612 0.00582697 0.00548469 0.00514929 0.00482076 0.00449911 0.00418609 0.00388345 0.00359119 0.00330931 0.00303782 0.00277671 0.00252598 0.00228563 0.00205467 0.00183208 0.00161787 0.00141204 0.00121459 0.00102551 0.000844819 0.000672504 0.000514886 0.000378283 0.000262697 0.000168126 9.45709e-05 4.20315e-05 1.05079e-05 0 0 1.43023e-05 5.72094e-05 0.000128721 0.000228837 0.000357559 0.000514884 0.000700815 0.00091535 0.00114989 0.00139583 0.00165318 0.00192194 0.00220209 0.00249366 0.00279662 0.00311099 0.00343813 0.0037794 0.00413481 0.00450434 0.00488801 0.0052858 0.00569773 0.00612379 0.00656159 0.00700875 0.00746527 0.00793115 0.00840639 0.00889098 0.00938493 0.00988824 0.0103963 0.0109044 0.0114127 0.011921 0.0124295 0.012938 0.0134466 0.0139554 0.0144584 0.0149496 0.0154293 0.0158972 0.0163535 0.016798 0.017231 0.0176522 0.0180563 0.0184377 0.0187965 0.0191326 0.0194461 0.0197369 0.0200051 0.0202506 0.0204702 0.0206605 0.0208215 0.0209532 0.0210557 0.0211289 0.0211728 0.0211874 0.0211728 0.0211289 0.0210557 0.0209532 0.0208215 0.0206605 0.0204702 0.0202506 0.0200051 0.0197369 0.0194461 0.0191326 0.0187965 0.0184377 0.0180563 0.0176522 0.017231 0.016798 0.0163535 0.0158972 0.0154293 0.0149496 0.0144584 0.0139554 0.0134466 0.012938 0.0124295 0.011921 0.0114127 0.0109044 0.0103963 0.00988824 0.00938493 0.00889098 0.00840639 0.00793115 0.00746528 0.00700876 0.0065616 0.00612379 0.00569773 0.00528581 0.00488801 0.00450434 0.00413481 0.00377941 0.00343814 0.003111 0.00279663 0.00249366 0.0022021 0.00192194 0.00165319 0.00139584 0.00114989 0.000915352 0.000700817 0.000514886 0.00035756 0.000228838 0.000128721 5.72095e-05 1.43024e-05 0 0 1.86806e-05 7.47224e-05 0.000168125 0.00029889 0.000467015 0.000672502 0.00091535 0.00119556 0.0015019 0.00182313 0.00215926 0.00251028 0.0028762 0.00325702 0.00365273 0.00406334 0.00449062 0.00493637 0.00540056 0.00588322 0.00638433 0.0069039 0.00744193 0.00799842 0.00857024 0.00915429 0.00975056 0.0103591 0.0109798 0.0116127 0.0122579 0.0129153 0.0135788 0.0142425 0.0149063 0.0155703 0.0162344 0.0168986 0.017563 0.0182275 0.0188844 0.0195261 0.0201525 0.0207637 0.0213596 0.0219403 0.0225057 0.0230559 0.0235837 0.0240819 0.0245505 0.0249895 0.025399 0.0257788 0.0261291 0.0264498 0.0267366 0.0269851 0.0271954 0.0273675 0.0275013 0.0275969 0.0276543 0.0276734 0.0276543 0.0275969 0.0275013 0.0273675 0.0271954 0.0269851 0.0267366 0.0264498 0.0261291 0.0257788 0.025399 0.0249895 0.0245505 0.0240819 0.0235837 0.0230559 0.0225057 0.0219403 0.0213596 0.0207637 0.0201525 0.0195261 0.0188844 0.0182275 0.017563 0.0168986 0.0162344 0.0155703 0.0149063 0.0142425 0.0135788 0.0129153 0.0122579 0.0116127 0.0109798 0.0103591 0.00975057 0.0091543 0.00857025 0.00799842 0.00744194 0.00690391 0.00638434 0.00588323 0.00540057 0.00493637 0.00449063 0.00406335 0.00365274 0.00325703 0.00287621 0.00251029 0.00215926 0.00182313 0.0015019 0.00119556 0.000915352 0.000672504 0.000467017 0.000298891 0.000168126 7.47226e-05 1.86807e-05 0 0 2.34239e-05 9.36958e-05 0.000210815 0.000374783 0.000585599 0.000843262 0.00114777 0.00149913 0.00188321 0.0022859 0.00270718 0.00314706 0.00360553 0.00408261 0.00457828 0.00509256 0.00562766 0.00618584 0.00676707 0.00737138 0.00799874 0.00864918 0.00932267 0.0100192 0.010735 0.011466 0.0122122 0.0129737 0.0137505 0.0145426 0.0153499 0.0161724 0.0170027 0.0178331 0.0186637 0.0194944 0.0203253 0.0211563 0.0219875 0.0228187 0.0236406 0.0244433 0.025227 0.0259915 0.026737 0.0274634 0.0281707 0.0288589 0.0295191 0.0301423 0.0307285 0.0312776 0.0317898 0.0322649 0.032703 0.0331042 0.0334629 0.0337737 0.0340368 0.034252 0.0344194 0.034539 0.0346107 0.0346346 0.0346107 0.034539 0.0344194 0.034252 0.0340368 0.0337737 0.0334629 0.0331042 0.032703 0.0322649 0.0317898 0.0312776 0.0307285 0.0301423 0.0295191 0.0288589 0.0281707 0.0274634 0.026737 0.0259915 0.025227 0.0244433 0.0236406 0.0228187 0.0219875 0.0211563 0.0203253 0.0194944 0.0186637 0.0178331 0.0170027 0.0161724 0.0153499 0.0145426 0.0137505 0.0129737 0.0122122 0.011466 0.010735 0.0100192 0.00932268 0.00864918 0.00799875 0.00737138 0.00676708 0.00618584 0.00562767 0.00509257 0.00457829 0.00408262 0.00360554 0.00314706 0.00270718 0.0022859 0.00188322 0.00149914 0.00114778 0.000843264 0.0005856 0.000374784 0.000210816 9.3696e-05 2.3424e-05 0 0 2.83136e-05 0.000113255 0.000254823 0.000453018 0.000707841 0.00101929 0.00138737 0.00181207 0.00227622 0.00276263 0.0032713 0.00380223 0.00435542 0.00493087 0.00552857 0.00614854 0.00679347 0.00746606 0.00816632 0.00889423 0.0096498 0.010433 0.0112439 0.0120825 0.012944 0.0138238 0.0147219 0.0156382 0.0165729 0.0175258 0.0184969 0.0194864 0.020485 0.0214838 0.0224827 0.0234817 0.0244808 0.0254801 0.0264794 0.0274789 0.0284669 0.029432 0.0303741 0.0312933 0.0321894 0.0330626 0.0339128 0.03474 0.0355335 0.0362826 0.0369871 0.0376471 0.0382627 0.0388337 0.0393603 0.0398424 0.0402735 0.0406471 0.0409632 0.0412219 0.0414231 0.0415668 0.041653 0.0416817 0.041653 0.0415668 0.0414231 0.0412219 0.0409632 0.0406471 0.0402735 0.0398424 0.0393603 0.0388337 0.0382627 0.0376471 0.0369871 0.0362826 0.0355335 0.03474 0.0339128 0.0330626 0.0321894 0.0312933 0.0303741 0.029432 0.0284669 0.0274789 0.0264794 0.0254801 0.0244808 0.0234817 0.0224827 0.0214838 0.020485 0.0194864 0.0184969 0.0175258 0.0165729 0.0156382 0.0147219 0.0138238 0.012944 0.0120825 0.0112439 0.010433 0.00964981 0.00889424 0.00816632 0.00746607 0.00679348 0.00614855 0.00552858 0.00493087 0.00435543 0.00380224 0.00327131 0.00276264 0.00227623 0.00181208 0.00138737 0.00101929 0.000707843 0.00045302 0.000254823 0.000113255 2.83137e-05 0 0 3.33497e-05 0.000133399 0.000300147 0.000533595 0.000833743 0.00120059 0.00163414 0.00213438 0.00268092 0.00325333 0.00385163 0.0044758 0.00512585 0.00580179 0.0065036 0.0072313 0.00798805 0.00877705 0.00959829 0.0104518 0.0113375 0.0122555 0.0132057 0.0141882 0.0151974 0.0162279 0.0172796 0.0183526 0.0194468 0.0205623 0.0216991 0.0228571 0.0240258 0.0251945 0.0263633 0.0275321 0.028701 0.0298699 0.0310389 0.0322079 0.0333635 0.0344922 0.035594 0.0366688 0.0377168 0.0387378 0.039732 0.0406992 0.041627 0.0425027 0.0433264 0.0440981 0.0448177 0.0454853 0.0461009 0.0466645 0.0471684 0.0476052 0.0479747 0.0482771 0.0485123 0.0486803 0.048781 0.0488146 0.048781 0.0486803 0.0485123 0.0482771 0.0479747 0.0476052 0.0471684 0.0466645 0.0461009 0.0454853 0.0448177 0.0440981 0.0433264 0.0425027 0.041627 0.0406992 0.039732 0.0387378 0.0377168 0.0366688 0.035594 0.0344922 0.0333635 0.0322079 0.0310389 0.0298699 0.028701 0.0275321 0.0263633 0.0251945 0.0240258 0.0228571 0.0216991 0.0205623 0.0194468 0.0183526 0.0172796 0.0162279 0.0151974 0.0141882 0.0132057 0.0122555 0.0113375 0.0104518 0.0095983 0.00877706 0.00798806 0.00723131 0.00650361 0.0058018 0.00512586 0.00447581 0.00385163 0.00325334 0.00268092 0.00213439 0.00163414 0.00120059 0.000833745 0.000533597 0.000300148 0.000133399 3.33498e-05 0 0 3.85321e-05 0.000154128 0.000346789 0.000616514 0.000963303 0.00138716 0.00188807 0.00246606 0.0030973 0.003758 0.00444816 0.00516777 0.00591685 0.00669538 0.00750337 0.00834081 0.0092114 0.0101188 0.011063 0.012044 0.0130619 0.0141165 0.015208 0.0163363 0.0174951 0.0186781 0.0198853 0.0211167 0.0223724 0.0236522 0.0249563 0.0262846 0.0276249 0.0289652 0.0303054 0.0316456 0.0329857 0.0343258 0.0356658 0.0370057 0.0383302 0.0396238 0.0408865 0.0421183 0.0433191 0.0444891 0.0456282 0.0467364 0.0477994 0.0488027 0.0497464 0.0506304 0.0514549 0.0522197 0.0529248 0.0535704 0.0541477 0.054648 0.0550713 0.0554176 0.055687 0.0558795 0.0559949 0.0560334 0.0559949 0.0558795 0.055687 0.0554176 0.0550713 0.054648 0.0541477 0.0535704 0.0529248 0.0522197 0.0514549 0.0506304 0.0497464 0.0488027 0.0477994 0.0467364 0.0456282 0.0444891 0.0433191 0.0421183 0.0408865 0.0396238 0.0383302 0.0370057 0.0356658 0.0343258 0.0329857 0.0316456 0.0303054 0.0289652 0.0276249 0.0262846 0.0249563 0.0236522 0.0223724 0.0211168 0.0198853 0.0186781 0.0174951 0.0163363 0.015208 0.0141165 0.0130619 0.012044 0.011063 0.0101188 0.00921141 0.00834083 0.00750338 0.00669539 0.00591686 0.00516779 0.00444817 0.00375801 0.00309731 0.00246606 0.00188808 0.00138716 0.000963306 0.000616516 0.00034679 0.000154129 3.85322e-05 0 0 4.38609e-05 0.000175444 0.000394748 0.000701775 0.00109652 0.00157899 0.00214918 0.0028071 0.00352537 0.00427664 0.00506089 0.00587815 0.00672839 0.00761164 0.00852787 0.0094771 0.0104635 0.0114913 0.0125605 0.013671 0.0148229 0.0160162 0.0172508 0.0185268 0.0198371 0.0211745 0.0225391 0.0239307 0.0253495 0.0267955 0.0282686 0.0297688 0.0312824 0.0327959 0.0343092 0.0358222 0.0373351 0.0388478 0.0403602 0.0418724 0.0433671 0.0448269 0.0462517 0.0476416 0.0489965 0.0503165 0.0516016 0.0528517 0.0540508 0.0551825 0.056247 0.0572442 0.0581741 0.0590368 0.0598321 0.0605602 0.0612112 0.0617755 0.0622529 0.0626435 0.0629473 0.0631644 0.0632946 0.063338 0.0632946 0.0631644 0.0629473 0.0626435 0.0622529 0.0617755 0.0612112 0.0605602 0.0598321 0.0590368 0.0581741 0.0572442 0.056247 0.0551825 0.0540508 0.0528517 0.0516016 0.0503165 0.0489965 0.0476416 0.0462517 0.0448269 0.0433671 0.0418724 0.0403602 0.0388478 0.0373351 0.0358222 0.0343092 0.0327959 0.0312825 0.0297688 0.0282686 0.0267955 0.0253496 0.0239307 0.0225391 0.0211745 0.0198371 0.0185268 0.0172508 0.0160162 0.0148229 0.013671 0.0125605 0.0114913 0.0104635 0.00947711 0.00852788 0.00761165 0.00672841 0.00587816 0.00506091 0.00427665 0.00352538 0.00280711 0.00214919 0.001579 0.00109653 0.000701777 0.000394749 0.000175444 4.3861e-05 0 0 4.93361e-05 0.000197344 0.000444025 0.000789377 0.0012334 0.0017761 0.00241747 0.00315751 0.00396513 0.00480924 0.00568984 0.00660692 0.0075605 0.00855056 0.00957711 0.0106402 0.0117444 0.0128946 0.0140906 0.0153326 0.0166206 0.0179544 0.0193341 0.0207598 0.0222235 0.0237171 0.0252408 0.0267946 0.0283783 0.0299921 0.0316359 0.0333097 0.0349984 0.0366867 0.0383745 0.040062 0.0417491 0.0434358 0.0451221 0.046808 0.0484742 0.0501014 0.0516896 0.0532387 0.0547488 0.0562199 0.057652 0.0590451 0.0603812 0.0616422 0.0628283 0.0639394 0.0649755 0.0659366 0.0668227 0.0676339 0.0683591 0.0689877 0.0695196 0.0699547 0.0702932 0.070535 0.07068 0.0707284 0.07068 0.070535 0.0702932 0.0699547 0.0695196 0.0689877 0.0683591 0.0676339 0.0668227 0.0659366 0.0649755 0.0639394 0.0628283 0.0616422 0.0603812 0.0590451 0.057652 0.0562199 0.0547488 0.0532387 0.0516896 0.0501014 0.0484742 0.046808 0.0451221 0.0434358 0.0417491 0.040062 0.0383745 0.0366867 0.0349984 0.0333098 0.0316359 0.0299921 0.0283783 0.0267946 0.0252408 0.0237171 0.0222235 0.0207598 0.0193342 0.0179544 0.0166206 0.0153326 0.0140907 0.0128946 0.0117444 0.0106402 0.00957713 0.00855058 0.00756051 0.00660694 0.00568985 0.00480925 0.00396514 0.00315752 0.00241747 0.0017761 0.0012334 0.000789379 0.000444026 0.000197345 4.93362e-05 0 0 5.49576e-05 0.00021983 0.000494618 0.000879321 0.00137394 0.00197847 0.00269292 0.00351728 0.00441658 0.00535581 0.00633498 0.0073541 0.00841315 0.00951215 0.0106511 0.01183 0.013054 0.0143286 0.0156536 0.017029 0.0184549 0.0199312 0.021458 0.0230352 0.0246541 0.0263059 0.0279906 0.0297082 0.0314587 0.0332421 0.0350583 0.0369075 0.0387728 0.0406374 0.0425015 0.0443649 0.0462277 0.0480899 0.0499515 0.0518124 0.0536515 0.0554474 0.0572001 0.0589097 0.0605762 0.0621994 0.0637796 0.0653165 0.0667906 0.0681818 0.0694903 0.070716 0.071859 0.0729192 0.0738967 0.0747914 0.0755913 0.0762847 0.0768713 0.0773513 0.0777246 0.0779913 0.0781513 0.0782046 0.0781513 0.0779913 0.0777246 0.0773513 0.0768713 0.0762847 0.0755913 0.0747914 0.0738967 0.0729192 0.071859 0.070716 0.0694903 0.0681818 0.0667906 0.0653165 0.0637796 0.0621994 0.0605762 0.0589097 0.0572001 0.0554474 0.0536515 0.0518124 0.0499515 0.0480899 0.0462277 0.0443649 0.0425015 0.0406374 0.0387728 0.0369075 0.0350583 0.0332421 0.0314587 0.0297082 0.0279906 0.026306 0.0246542 0.0230352 0.021458 0.0199312 0.0184549 0.017029 0.0156536 0.0143286 0.0130541 0.01183 0.0106511 0.00951217 0.00841317 0.00735411 0.006335 0.00535582 0.00441659 0.00351729 0.00269293 0.00197848 0.00137394 0.000879324 0.00049462 0.000219831 5.49577e-05 0 0 6.07254e-05 0.000242902 0.000546529 0.000971607 0.00151814 0.00218612 0.00297555 0.00388643 0.00487971 0.00591635 0.00699633 0.00811967 0.00928637 0.0104964 0.0117498 0.0130466 0.0143925 0.0157933 0.0172492 0.01876 0.0203258 0.0219466 0.0236224 0.0253531 0.0271291 0.0289409 0.0307885 0.0326717 0.0345907 0.0365454 0.0385358 0.040562 0.0426055 0.0446482 0.04669 0.0487309 0.0507709 0.0528101 0.0548483 0.0568857 0.0588989 0.0608648 0.0627834 0.0646546 0.0664785 0.068255 0.0699842 0.0716661 0.0732789 0.0748012 0.076233 0.0775741 0.0788246 0.0799846 0.0810539 0.0820327 0.0829079 0.0836663 0.0843081 0.0848332 0.0852416 0.0855333 0.0857083 0.0857667 0.0857083 0.0855333 0.0852416 0.0848332 0.0843081 0.0836663 0.0829079 0.0820327 0.0810539 0.0799846 0.0788246 0.0775741 0.076233 0.0748012 0.0732789 0.0716661 0.0699842 0.068255 0.0664785 0.0646546 0.0627834 0.0608648 0.0588989 0.0568857 0.0548483 0.0528101 0.0507709 0.0487309 0.04669 0.0446482 0.0426055 0.040562 0.0385358 0.0365454 0.0345907 0.0326717 0.0307885 0.0289409 0.0271292 0.0253531 0.0236224 0.0219466 0.0203258 0.01876 0.0172492 0.0157934 0.0143925 0.0130466 0.0117498 0.0104964 0.00928639 0.00811969 0.00699635 0.00591636 0.00487973 0.00388644 0.00297556 0.00218612 0.00151814 0.00097161 0.000546531 0.000242902 6.07256e-05 0 0 6.663e-05 0.00026652 0.00059967 0.00106608 0.00166575 0.00239868 0.00326487 0.00426432 0.00535377 0.00648995 0.00767286 0.00890251 0.0101789 0.011502 0.0128719 0.0142884 0.0157581 0.0172873 0.018876 0.0205241 0.0222317 0.0239988 0.0258254 0.0277115 0.0296466 0.0316202 0.0336323 0.035683 0.0377722 0.0399 0.0420663 0.0442711 0.0464946 0.0487168 0.0509379 0.0531578 0.0553765 0.057594 0.0598103 0.0620255 0.0642142 0.0663513 0.0684369 0.0704709 0.0724533 0.0743842 0.0762635 0.0780911 0.0798438 0.081498 0.0830538 0.084511 0.0858698 0.0871301 0.088292 0.0893554 0.0903061 0.0911301 0.0918273 0.0923978 0.0928415 0.0931584 0.0933486 0.093412 0.0933486 0.0931584 0.0928415 0.0923978 0.0918273 0.0911301 0.0903061 0.0893554 0.088292 0.0871301 0.0858698 0.084511 0.0830538 0.081498 0.0798438 0.0780911 0.0762635 0.0743842 0.0724533 0.0704709 0.0684369 0.0663513 0.0642142 0.0620255 0.0598103 0.057594 0.0553765 0.0531578 0.0509379 0.0487168 0.0464946 0.0442711 0.0420663 0.0399 0.0377722 0.035683 0.0336323 0.0316202 0.0296466 0.0277115 0.0258254 0.0239988 0.0222317 0.0205241 0.018876 0.0172873 0.0157581 0.0142885 0.0128719 0.011502 0.0101789 0.00890253 0.00767288 0.00648997 0.00535378 0.00426433 0.00326488 0.00239869 0.00166576 0.00106608 0.000599672 0.000266521 6.66302e-05 0 0 7.26617e-05 0.000290647 0.000653955 0.00116259 0.00181654 0.00261582 0.00356042 0.00465035 0.00583799 0.00707572 0.00836355 0.00970147 0.0110895 0.0125276 0.0140158 0.0155541 0.0171495 0.0188088 0.0205322 0.0223195 0.0241708 0.0260861 0.0280653 0.0301086 0.0322045 0.0343418 0.0365203 0.0387402 0.0410013 0.0433038 0.0456476 0.0480327 0.0504377 0.0528411 0.055243 0.0576434 0.0600422 0.0624395 0.0648352 0.0672294 0.0695949 0.0719045 0.0741583 0.0763562 0.0784983 0.0805845 0.0826148 0.0845893 0.0864827 0.0882696 0.0899502 0.0915243 0.092992 0.0943533 0.0956082 0.0967567 0.0977835 0.0986735 0.0994265 0.100043 0.100522 0.100864 0.101069 0.101138 0.101069 0.100864 0.100522 0.100043 0.0994265 0.0986735 0.0977835 0.0967567 0.0956082 0.0943533 0.092992 0.0915243 0.0899502 0.0882696 0.0864827 0.0845893 0.0826148 0.0805845 0.0784983 0.0763562 0.0741583 0.0719045 0.0695949 0.0672294 0.0648352 0.0624395 0.0600422 0.0576434 0.055243 0.0528411 0.0504377 0.0480327 0.0456476 0.0433038 0.0410013 0.0387402 0.0365203 0.0343418 0.0322045 0.0301086 0.0280654 0.0260861 0.0241708 0.0223195 0.0205322 0.0188088 0.0171495 0.0155542 0.0140158 0.0125276 0.0110895 0.00970149 0.00836357 0.00707574 0.005838 0.00465036 0.00356043 0.00261583 0.00181655 0.00116259 0.000653957 0.000290648 7.26619e-05 0 0 7.88205e-05 0.000315282 0.000709384 0.00126113 0.00197051 0.00283754 0.0038622 0.00504451 0.00633236 0.00767365 0.00906838 0.0105166 0.0120182 0.0135732 0.0151817 0.0168437 0.0185666 0.0203579 0.0222178 0.0241462 0.026143 0.0282083 0.0303422 0.0325445 0.034803 0.0371057 0.0394524 0.0418431 0.0442779 0.0467568 0.0492798 0.0518468 0.0544349 0.057021 0.0596052 0.0621876 0.0647679 0.0673464 0.0699229 0.0724975 0.0750411 0.0775244 0.0799476 0.0823106 0.0846133 0.0868559 0.0890384 0.0911606 0.0931955 0.095116 0.0969222 0.0986139 0.100191 0.101654 0.103003 0.104237 0.10534 0.106296 0.107105 0.107767 0.108282 0.10865 0.108871 0.108944 0.108871 0.10865 0.108282 0.107767 0.107105 0.106296 0.10534 0.104237 0.103003 0.101654 0.100191 0.0986139 0.0969222 0.095116 0.0931955 0.0911606 0.0890384 0.0868559 0.0846133 0.0823106 0.0799476 0.0775244 0.0750411 0.0724975 0.0699229 0.0673464 0.0647679 0.0621876 0.0596053 0.057021 0.0544349 0.0518468 0.0492798 0.0467568 0.044278 0.0418431 0.0394524 0.0371057 0.034803 0.0325445 0.0303422 0.0282084 0.026143 0.0241462 0.0222178 0.020358 0.0185666 0.0168437 0.0151817 0.0135732 0.0120182 0.0105166 0.0090684 0.00767367 0.00633237 0.00504452 0.00386221 0.00283754 0.00197052 0.00126113 0.000709386 0.000315283 7.88207e-05 0 0 8.51063e-05 0.000340425 0.000765957 0.0013617 0.00212766 0.00306383 0.00417021 0.0054468 0.00683689 0.00828374 0.00978736 0.0113478 0.0129649 0.0146388 0.0163695 0.018157 0.0200093 0.0219346 0.0239329 0.0260042 0.0281484 0.0303656 0.0326558 0.035019 0.0374421 0.0399119 0.0424285 0.0449919 0.0476021 0.0502591 0.0529629 0.0557134 0.0584862 0.0612566 0.0640247 0.0667904 0.0695538 0.0723148 0.0750735 0.0778298 0.0805527 0.083211 0.0858047 0.0883339 0.0907985 0.0931985 0.095534 0.0978049 0.0999823 0.102037 0.10397 0.10578 0.107467 0.109033 0.110475 0.111795 0.112976 0.113999 0.114864 0.115572 0.116123 0.116517 0.116753 0.116832 0.116753 0.116517 0.116123 0.115572 0.114864 0.113999 0.112976 0.111795 0.110475 0.109033 0.107467 0.10578 0.10397 0.102037 0.0999823 0.0978049 0.095534 0.0931985 0.0907985 0.0883339 0.0858047 0.083211 0.0805527 0.0778298 0.0750735 0.0723148 0.0695538 0.0667904 0.0640247 0.0612566 0.0584862 0.0557134 0.0529629 0.0502591 0.0476021 0.0449919 0.0424285 0.0399119 0.0374421 0.035019 0.0326559 0.0303657 0.0281485 0.0260042 0.023933 0.0219347 0.0200094 0.018157 0.0163696 0.0146389 0.0129649 0.0113478 0.00978739 0.00828376 0.00683691 0.00544682 0.00417022 0.00306383 0.00212766 0.0013617 0.000765959 0.000340426 8.51065e-05 0 0 9.15192e-05 0.000366077 0.000823673 0.00146431 0.00228798 0.00329469 0.00448444 0.00585723 0.00735157 0.008906 0.0105205 0.0121951 0.0139297 0.0157245 0.0175793 0.0194942 0.0214778 0.0235389 0.0256775 0.0278935 0.030187 0.032558 0.0350064 0.0375323 0.0401216 0.0427604 0.0454488 0.0481865 0.0509738 0.0538106 0.0566968 0.0596325 0.0625916 0.0655478 0.0685012 0.0714518 0.0743997 0.0773447 0.0802868 0.0832262 0.0861297 0.0889642 0.0917297 0.0944262 0.0970537 0.0996123 0.102102 0.104522 0.106843 0.109033 0.111093 0.113022 0.114821 0.116489 0.118026 0.119433 0.120691 0.121781 0.122703 0.123458 0.124045 0.124464 0.124715 0.124799 0.124715 0.124464 0.124045 0.123458 0.122703 0.121781 0.120691 0.119433 0.118026 0.116489 0.114821 0.113022 0.111093 0.109033 0.106843 0.104522 0.102102 0.0996123 0.0970537 0.0944262 0.0917297 0.0889642 0.0861297 0.0832262 0.0802869 0.0773447 0.0743997 0.0714518 0.0685012 0.0655478 0.0625916 0.0596325 0.0566968 0.0538106 0.0509738 0.0481866 0.0454488 0.0427605 0.0401216 0.0375323 0.0350064 0.032558 0.0301871 0.0278936 0.0256775 0.023539 0.0214778 0.0194942 0.0175793 0.0157245 0.0139298 0.0121951 0.0105205 0.00890602 0.00735159 0.00585724 0.00448445 0.0032947 0.00228799 0.00146431 0.000823675 0.000366078 9.15194e-05 0 0 9.80592e-05 0.000392237 0.000882533 0.00156895 0.00245148 0.00353013 0.0048049 0.00627579 0.00787642 0.00954042 0.0112678 0.0130585 0.0149126 0.0168301 0.0188109 0.0208551 0.022972 0.0251708 0.0274515 0.0298142 0.0322588 0.0347854 0.0373938 0.0400843 0.0428417 0.0456513 0.0485131 0.051427 0.0543931 0.0574113 0.0604816 0.0636041 0.066751 0.0698946 0.0730349 0.0761719 0.0793056 0.082436 0.0855631 0.0886868 0.0917722 0.0947841 0.0977226 0.100588 0.103379 0.106097 0.108742 0.111313 0.113778 0.116104 0.118292 0.120341 0.122251 0.124022 0.125655 0.127149 0.128485 0.129642 0.130622 0.131423 0.132046 0.132491 0.132759 0.132848 0.132759 0.132491 0.132046 0.131423 0.130622 0.129642 0.128485 0.127149 0.125655 0.124022 0.122251 0.120341 0.118292 0.116104 0.113778 0.111313 0.108742 0.106097 0.103379 0.100588 0.0977226 0.0947841 0.0917722 0.0886869 0.0855631 0.082436 0.0793056 0.076172 0.073035 0.0698947 0.066751 0.0636041 0.0604816 0.0574113 0.0543931 0.051427 0.0485131 0.0456513 0.0428417 0.0400843 0.0373939 0.0347854 0.0322588 0.0298142 0.0274516 0.0251708 0.022972 0.0208552 0.018811 0.0168301 0.0149127 0.0130585 0.0112678 0.00954044 0.00787644 0.0062758 0.00480491 0.00353014 0.00245149 0.00156895 0.000882535 0.000392238 9.80594e-05 0 0 0.000104726 0.000418905 0.000942536 0.00167562 0.00261816 0.00377014 0.00513159 0.00670248 0.00841142 0.010187 0.0120292 0.0139381 0.0159136 0.0179557 0.0200645 0.0222399 0.0244919 0.0268302 0.029255 0.0317662 0.0343638 0.0370478 0.039818