<?xml version="1.0"?> 
<VTKFile type="StructuredGrid" version="0.1"> 
<StructuredGrid WholeExtent="0 128 0 128 0 0"> 
<Piece Extent="0 128 0 128 0 0"> 
<PointData>
<DataArray type="Float32" Name="u" format="ascii" NumberOfComponents="1"> 
0 0 0 0 0 0 0 0 0 0 0 0 0 0 0 0 0 0 0 0 0 0 0 0 0 0 0 0 0 0 0 0 0 0 0 0 0 0 0 0 0 0 0 0 0 0 0 0 0 0 0 0 0 0 0 0 0 0 0 0 0 0 0 0 0 0 0 0 0 0 0 0 0 0 0 0 0 0 0 0 0 0 0 0 0 0 0 0 0 0 0 0 0 0 0 0 0 0 0 0 0 0 0 0 0 0 0 0 0 0 0 0 0 0 0 0 0 0 0 0 0 0 0 0 0 0 0 0 0 0 -9.89536e-08 -3.95814e-07 -8.90583e-07 -1.58326e-06 -2.47384e-06 -3.56233e-06 -4.84873e-06 -6.33303e-06 -7.70349e-06 -8.64833e-06 -9.16757e-06 -9.2612e-06 -8.92923e-06 -8.17164e-06 -6.98845e-06 -5.37966e-06 -3.25796e-06 -5.36092e-07 2.78596e-06 6.70819e-06 1.12306e-05 1.63532e-05 2.2076e-05 2.83989e-05 3.53197e-05 4.28359e-05 5.09477e-05 5.96549e-05 6.89576e-05 7.88557e-05 8.93494e-05 0.000100439 0.000111981 0.000123834 0.000135998 0.000148473 0.000161259 0.000174356 0.000187763 0.000201482 0.000215277 0.000228914 0.000242394 0.000255715 0.000268879 0.000281886 0.000294734 0.000307424 0.000319717 0.000331373 0.000342391 0.000352772 0.000362515 0.000371621 0.000380089 0.00038792 0.000394962 0.000401066 0.000406231 0.000410456 0.000413743 0.00041609 0.000417499 0.000417968 0.000417499 0.00041609 0.000413743 0.000410456 0.000406231 0.000401066 0.000394962 0.00038792 0.000380089 0.000371621 0.000362515 0.000352772 0.000342391 0.000331373 0.000319717 0.000307424 0.000294734 0.000281886 0.000268879 0.000255715 0.000242394 0.000228914 0.000215277 0.000201482 0.000187763 0.000174356 0.000161259 0.000148473 0.000135998 0.000123834 0.000111981 0.000100439 8.93494e-05 7.88558e-05 6.89576e-05 5.96549e-05 5.09477e-05 4.28359e-05 3.53197e-05 2.83989e-05 2.2076e-05 1.63532e-05 1.12306e-05 6.70819e-06 2.78596e-06 -5.36086e-07 -3.25796e-06 -5.37965e-06 -6.98845e-06 -8.17164e-06 -8.92922e-06 -9.2612e-06 -9.16757e-06 -8.64833e-06 -7.70348e-06 -6.33303e-06 -4.84873e-06 -3.56233e-06 -2.47384e-06 -1.58326e-06 -8.90582e-07 -3.95814e-07 -9.89536e-08 0 0 -3.95814e-07 -1.58326e-06 -3.56233e-06 -6.33303e-06 -9.89536e-06 -1.42493e-05 -1.93949e-05 -2.53321e-05 -3.08139e-05 -3.45933e-05 -3.66703e-05 -3.70448e-05 -3.57169e-05 -3.26866e-05 -2.79538e-05 -2.15186e-05 -1.30319e-05 -2.14437e-06 1.11438e-05 2.68328e-05 4.49224e-05 6.54127e-05 8.83038e-05 0.000113596 0.000141279 0.000171344 0.000203791 0.00023862 0.00027583 0.000315423 0.000357398 0.000401754 0.000447923 0.000495336 0.000543992 0.000593892 0.000645036 0.000697423 0.000751053 0.000805927 0.000861108 0.000915657 0.000969575 0.00102286 0.00107552 0.00112754 0.00117894 0.0012297 0.00127887 0.00132549 0.00136956 0.00141109 0.00145006 0.00148648 0.00152036 0.00155168 0.00157985 0.00160426 0.00162492 0.00164182 0.00165497 0.00166436 0.00167 0.00167187 0.00167 0.00166436 0.00165497 0.00164182 0.00162492 0.00160426 0.00157985 0.00155168 0.00152036 0.00148648 0.00145006 0.00141109 0.00136956 0.00132549 0.00127887 0.0012297 0.00117894 0.00112754 0.00107552 0.00102286 0.000969575 0.000915657 0.000861108 0.000805927 0.000751053 0.000697423 0.000645036 0.000593892 0.000543992 0.000495336 0.000447923 0.000401754 0.000357398 0.000315423 0.00027583 0.00023862 0.000203791 0.000171344 0.000141279 0.000113596 8.83038e-05 6.54128e-05 4.49224e-05 2.68328e-05 1.11439e-05 -2.14435e-06 -1.30318e-05 -2.15186e-05 -2.79538e-05 -3.26866e-05 -3.57169e-05 -3.70448e-05 -3.66703e-05 -3.45933e-05 -3.08139e-05 -2.53321e-05 -1.93949e-05 -1.42493e-05 -9.89536e-06 -6.33303e-06 -3.56233e-06 -1.58326e-06 -3.95814e-07 0 0 -8.90583e-07 -3.56233e-06 -8.01524e-06 -1.42493e-05 -2.22646e-05 -3.2061e-05 -4.36385e-05 -5.69973e-05 -6.93314e-05 -7.7835e-05 -8.25081e-05 -8.33508e-05 -8.0363e-05 -7.35448e-05 -6.28961e-05 -4.84169e-05 -2.93217e-05 -4.82483e-06 2.50736e-05 6.03737e-05 0.000101075 0.000147179 0.000198684 0.00025559 0.000317877 0.000385523 0.000458529 0.000536894 0.000620618 0.000709702 0.000804145 0.000903947 0.00100783 0.00111451 0.00122398 0.00133626 0.00145133 0.0015692 0.00168987 0.00181334 0.00193749 0.00206023 0.00218154 0.00230144 0.00241991 0.00253697 0.0026526 0.00276682 0.00287746 0.00298236 0.00308152 0.00317495 0.00326263 0.00334459 0.0034208 0.00349128 0.00355466 0.00360959 0.00365608 0.00369411 0.00372369 0.00374481 0.00375749 0.00376172 0.00375749 0.00374481 0.00372369 0.00369411 0.00365608 0.00360959 0.00355466 0.00349128 0.0034208 0.00334459 0.00326263 0.00317495 0.00308152 0.00298236 0.00287746 0.00276682 0.00265261 0.00253697 0.00241991 0.00230144 0.00218154 0.00206023 0.00193749 0.00181334 0.00168987 0.0015692 0.00145133 0.00133626 0.00122398 0.00111451 0.00100783 0.000903947 0.000804145 0.000709702 0.000620618 0.000536894 0.000458529 0.000385523 0.000317877 0.00025559 0.000198684 0.000147179 0.000101075 6.03738e-05 2.50737e-05 -4.82478e-06 -2.93216e-05 -4.84168e-05 -6.2896e-05 -7.35448e-05 -8.0363e-05 -8.33508e-05 -8.25081e-05 -7.7835e-05 -6.93314e-05 -5.69973e-05 -4.36385e-05 -3.2061e-05 -2.22646e-05 -1.42493e-05 -8.01524e-06 -3.56233e-06 -8.90582e-07 0 0 -1.58326e-06 -6.33303e-06 -1.42493e-05 -2.53321e-05 -3.95814e-05 -5.69973e-05 -7.75796e-05 -0.000101329 -0.000123256 -0.000138373 -0.000146681 -0.000148179 -0.000142868 -0.000130746 -0.000111815 -8.60745e-05 -5.21274e-05 -8.57748e-06 4.45753e-05 0.000107331 0.00017969 0.000261651 0.000353215 0.000454382 0.000565115 0.000685375 0.000815163 0.000954478 0.00110332 0.00126169 0.00142959 0.00160702 0.00179169 0.00198134 0.00217597 0.00237557 0.00258014 0.00278969 0.00300421 0.00322371 0.00344443 0.00366263 0.0038783 0.00409145 0.00430207 0.00451017 0.00471574 0.00491879 0.00511548 0.00530197 0.00547826 0.00564435 0.00580024 0.00594593 0.00608142 0.00620672 0.0063194 0.00641706 0.00649969 0.0065673 0.00661988 0.00665745 0.00667998 0.00668749 0.00667998 0.00665745 0.00661988 0.0065673 0.00649969 0.00641706 0.0063194 0.00620672 0.00608142 0.00594593 0.00580024 0.00564435 0.00547826 0.00530197 0.00511548 0.00491879 0.00471574 0.00451017 0.00430207 0.00409145 0.0038783 0.00366263 0.00344443 0.00322371 0.00300421 0.00278969 0.00258014 0.00237557 0.00217597 0.00198134 0.00179169 0.00160702 0.00142959 0.00126169 0.00110332 0.000954478 0.000815163 0.000685375 0.000565115 0.000454383 0.000353215 0.000261651 0.00017969 0.000107331 4.45754e-05 -8.57738e-06 -5.21273e-05 -8.60744e-05 -0.000111815 -0.000130746 -0.000142868 -0.000148179 -0.000146681 -0.000138373 -0.000123256 -0.000101328 -7.75796e-05 -5.69973e-05 -3.95814e-05 -2.53321e-05 -1.42493e-05 -6.33303e-06 -1.58326e-06 0 0 -2.47384e-06 -9.89536e-06 -2.22646e-05 -3.95814e-05 -6.1846e-05 -8.90583e-05 -0.000121218 -0.000158326 -0.000192587 -0.000216208 -0.000229189 -0.00023153 -0.000223231 -0.000204291 -0.000174711 -0.000134491 -8.14491e-05 -1.34023e-05 6.96489e-05 0.000167705 0.000280765 0.00040883 0.000551899 0.000709973 0.000882992 0.0010709 0.00127369 0.00149137 0.00172394 0.00197139 0.00223373 0.00251096 0.00279952 0.00309585 0.00339995 0.00371183 0.00403147 0.00435889 0.00469408 0.00503705 0.00538192 0.00572285 0.00605984 0.00639289 0.00672198 0.00704714 0.00736835 0.00768561 0.00799294 0.00828432 0.00855978 0.00881929 0.00906287 0.00929052 0.00950222 0.009698 0.00987406 0.0100267 0.0101558 0.0102614 0.0103436 0.0104023 0.0104375 0.0104492 0.0104375 0.0104023 0.0103436 0.0102614 0.0101558 0.0100267 0.00987406 0.009698 0.00950222 0.00929052 0.00906287 0.00881929 0.00855978 0.00828432 0.00799294 0.00768561 0.00736835 0.00704714 0.00672198 0.00639289 0.00605984 0.00572286 0.00538192 0.00503705 0.00469408 0.00435889 0.00403147 0.00371183 0.00339995 0.00309585 0.00279952 0.00251096 0.00223374 0.00197139 0.00172394 0.00149137 0.00127369 0.0010709 0.000882992 0.000709973 0.000551899 0.00040883 0.000280765 0.000167705 6.96491e-05 -1.34022e-05 -8.14489e-05 -0.000134491 -0.000174711 -0.000204291 -0.000223231 -0.00023153 -0.000229189 -0.000216208 -0.000192587 -0.000158326 -0.000121218 -8.90582e-05 -6.1846e-05 -3.95814e-05 -2.22646e-05 -9.89536e-06 -2.47384e-06 0 0 -3.56233e-06 -1.42493e-05 -3.2061e-05 -5.69973e-05 -8.90583e-05 -0.000128244 -0.000174554 -0.000227989 -0.000277325 -0.00031134 -0.000330033 -0.000333403 -0.000321452 -0.000294179 -0.000251584 -0.000193668 -0.000117287 -1.92993e-05 0.000100294 0.000241495 0.000404301 0.000588715 0.000794734 0.00102236 0.00127151 0.00154209 0.00183412 0.00214758 0.00248247 0.00283881 0.00321658 0.00361579 0.00403131 0.00445803 0.00489593 0.00534503 0.00580532 0.0062768 0.00675948 0.00725335 0.00774997 0.00824091 0.00872617 0.00920576 0.00967966 0.0101479 0.0106104 0.0110673 0.0115098 0.0119294 0.0123261 0.0126998 0.0130505 0.0133783 0.0136832 0.0139651 0.0142186 0.0144384 0.0146243 0.0147764 0.0148947 0.0149793 0.01503 0.0150469 0.01503 0.0149793 0.0148947 0.0147764 0.0146243 0.0144384 0.0142186 0.0139651 0.0136832 0.0133783 0.0130505 0.0126998 0.0123261 0.0119294 0.0115098 0.0110673 0.0106104 0.0101479 0.00967966 0.00920576 0.00872617 0.00824091 0.00774997 0.00725335 0.00675948 0.00627681 0.00580532 0.00534503 0.00489593 0.00445803 0.00403131 0.00361579 0.00321658 0.00283881 0.00248247 0.00214758 0.00183412 0.00154209 0.00127151 0.00102236 0.000794735 0.000588715 0.000404302 0.000241495 0.000100295 -1.92991e-05 -0.000117286 -0.000193667 -0.000251584 -0.000294179 -0.000321452 -0.000333403 -0.000330032 -0.00031134 -0.000277325 -0.000227989 -0.000174554 -0.000128244 -8.90582e-05 -5.69973e-05 -3.2061e-05 -1.42493e-05 -3.56233e-06 0 0 -4.84873e-06 -1.93949e-05 -4.36385e-05 -7.75796e-05 -0.000121218 -0.000174554 -0.000237588 -0.000310319 -0.000377471 -0.000423768 -0.000449211 -0.000453799 -0.000437532 -0.000400411 -0.000342434 -0.000263603 -0.00015964 -2.62685e-05 0.000136512 0.000328701 0.000550299 0.000801306 0.00108172 0.00139155 0.00173066 0.00209896 0.00249644 0.00292309 0.00337892 0.00386393 0.00437812 0.00492149 0.00548706 0.00606787 0.00666391 0.00727518 0.00790169 0.00854343 0.0092004 0.00987261 0.0105486 0.0112168 0.0118773 0.0125301 0.0131751 0.0138124 0.014442 0.0150638 0.0156662 0.0162373 0.0167772 0.0172858 0.0177632 0.0182094 0.0186244 0.0190081 0.0193532 0.0196522 0.0199053 0.0201124 0.0202734 0.0203884 0.0204574 0.0204804 0.0204574 0.0203884 0.0202734 0.0201124 0.0199053 0.0196522 0.0193532 0.0190081 0.0186244 0.0182094 0.0177632 0.0172858 0.0167772 0.0162373 0.0156662 0.0150638 0.014442 0.0138124 0.0131751 0.0125301 0.0118773 0.0112168 0.0105486 0.00987261 0.0092004 0.00854343 0.00790169 0.00727518 0.00666391 0.00606787 0.00548706 0.00492149 0.00437812 0.00386393 0.00337892 0.00292309 0.00249644 0.00209896 0.00173066 0.00139155 0.00108172 0.000801306 0.0005503 0.000328702 0.000136512 -2.62682e-05 -0.00015964 -0.000263603 -0.000342434 -0.00040041 -0.000437532 -0.000453799 -0.000449211 -0.000423768 -0.000377471 -0.000310318 -0.000237588 -0.000174554 -0.000121218 -7.75796e-05 -4.36385e-05 -1.93949e-05 -4.84873e-06 0 0 -6.33303e-06 -2.53321e-05 -5.69973e-05 -0.000101329 -0.000158326 -0.000227989 -0.000310319 -0.000405314 -0.000493023 -0.000553493 -0.000586725 -0.000592717 -0.000571471 -0.000522985 -0.000447261 -0.000344298 -0.00020851 -3.43099e-05 0.000178301 0.000429324 0.000718758 0.0010466 0.00141286 0.00181753 0.00226046 0.0027415 0.00326065 0.00381791 0.00441328 0.00504677 0.00571836 0.00642807 0.00716677 0.00792538 0.00870388 0.00950228 0.0103206 0.0111588 0.0120169 0.0128948 0.0137777 0.0146505 0.0155132 0.0163658 0.0172083 0.0180407 0.018863 0.0196752 0.0204619 0.0212079 0.021913 0.0225774 0.023201 0.0237837 0.0243257 0.0248269 0.0252776 0.0256682 0.0259988 0.0262692 0.0264795 0.0266298 0.0267199 0.02675 0.0267199 0.0266298 0.0264795 0.0262692 0.0259988 0.0256682 0.0252776 0.0248269 0.0243257 0.0237837 0.023201 0.0225774 0.021913 0.0212079 0.0204619 0.0196752 0.018863 0.0180407 0.0172083 0.0163658 0.0155132 0.0146505 0.0137777 0.0128948 0.0120169 0.0111588 0.0103206 0.00950228 0.00870388 0.00792538 0.00716677 0.00642807 0.00571836 0.00504677 0.00441329 0.00381791 0.00326065 0.0027415 0.00226046 0.00181753 0.00141286 0.0010466 0.000718759 0.000429324 0.000178302 -3.43095e-05 -0.000208509 -0.000344298 -0.000447261 -0.000522985 -0.00057147 -0.000592717 -0.000586724 -0.000553493 -0.000493023 -0.000405314 -0.000310318 -0.000227989 -0.000158326 -0.000101328 -5.69973e-05 -2.53321e-05 -6.33303e-06 0 0 -7.77246e-06 -3.10898e-05 -6.99521e-05 -0.000124359 -0.000194311 -0.000279808 -0.00038085 -0.000497437 -0.000604772 -0.000678057 -0.000717292 -0.000722478 -0.000693614 -0.0006307 -0.000533737 -0.000402724 -0.000230673 -1.05947e-05 0.000257511 0.000573643 0.000937803 0.00134999 0.0018102 0.00231845 0.00287451 0.0034782 0.00412951 0.00482845 0.00557501 0.00636919 0.007211 0.00810043 0.00902608 0.00997657 0.0109519 0.011952 0.012977 0.0140269 0.0151015 0.016201 0.0173065 0.0183994 0.0194796 0.0205471 0.0216019 0.022644 0.0236735 0.0246902 0.0256751 0.0266089 0.0274916 0.0283232 0.0291038 0.0298332 0.0305116 0.0311389 0.0317031 0.032192 0.0326057 0.0329442 0.0332075 0.0333955 0.0335084 0.033546 0.0335084 0.0333955 0.0332075 0.0329442 0.0326057 0.032192 0.0317031 0.0311389 0.0305116 0.0298332 0.0291038 0.0283232 0.0274916 0.0266089 0.0256751 0.0246902 0.0236735 0.022644 0.0216019 0.0205471 0.0194796 0.0183994 0.0173065 0.016201 0.0151015 0.0140269 0.012977 0.011952 0.0109519 0.00997657 0.00902609 0.00810043 0.007211 0.00636919 0.00557501 0.00482845 0.00412951 0.0034782 0.00287451 0.00231845 0.0018102 0.00134999 0.000937804 0.000573644 0.000257511 -1.05942e-05 -0.000230673 -0.000402724 -0.000533736 -0.0006307 -0.000693613 -0.000722477 -0.000717292 -0.000678056 -0.000604771 -0.000497437 -0.00038085 -0.000279808 -0.000194311 -0.000124359 -6.99521e-05 -3.10898e-05 -7.77245e-06 0 0 -8.92421e-06 -3.56969e-05 -8.03179e-05 -0.000142787 -0.000223105 -0.000321272 -0.000437286 -0.00057115 -0.000693506 -0.000775 -0.000815631 -0.0008154 -0.000774307 -0.000692352 -0.000569534 -0.000405854 -0.000192908 7.7706e-05 0.000405989 0.000791939 0.00123556 0.00173685 0.0022958 0.00291243 0.00358644 0.00431756 0.00510578 0.00595111 0.00685354 0.00781308 0.00882973 0.00990348 0.0110206 0.0121675 0.013344 0.0145502 0.0157861 0.0170517 0.018347 0.019672 0.0210041 0.0223209 0.0236222 0.0249081 0.0261786 0.0274337 0.0286735 0.0298978 0.0310836 0.032208 0.0332707 0.034272 0.0352117 0.0360899 0.0369065 0.0376616 0.0383407 0.0389292 0.0394272 0.0398346 0.0401515 0.0403778 0.0405137 0.0405589 0.0405137 0.0403778 0.0401515 0.0398346 0.0394272 0.0389292 0.0383407 0.0376616 0.0369065 0.0360899 0.0352117 0.034272 0.0332708 0.032208 0.0310837 0.0298978 0.0286735 0.0274337 0.0261786 0.0249081 0.0236222 0.0223209 0.0210041 0.019672 0.018347 0.0170517 0.0157861 0.0145502 0.013344 0.0121675 0.0110206 0.00990348 0.00882973 0.00781308 0.00685354 0.00595111 0.00510578 0.00431756 0.00358644 0.00291243 0.0022958 0.00173685 0.00123556 0.00079194 0.000405989 7.77066e-05 -0.000192907 -0.000405853 -0.000569533 -0.000692351 -0.000774307 -0.0008154 -0.000815631 -0.000775 -0.000693506 -0.000571149 -0.000437286 -0.000321272 -0.000223105 -0.000142787 -8.03179e-05 -3.56968e-05 -8.92421e-06 0 0 -9.7883e-06 -3.91532e-05 -8.80947e-05 -0.000156613 -0.000244708 -0.000352379 -0.000479627 -0.000626451 -0.000759226 -0.000844323 -0.000881743 -0.000871486 -0.000813552 -0.00070794 -0.000554652 -0.000353687 -9.52148e-05 0.000230592 0.000623735 0.00108421 0.00161203 0.00220717 0.00286966 0.00359948 0.00439624 0.00525957 0.00618945 0.00718589 0.00824889 0.00937844 0.0105746 0.0118372 0.0131504 0.0144981 0.0158802 0.0172968 0.0187479 0.0202334 0.0217534 0.0233079 0.0248705 0.0264148 0.0279409 0.0294488 0.0309384 0.0324098 0.033863 0.0352979 0.0366876 0.0380051 0.0392505 0.0404237 0.0415248 0.0425537 0.0435104 0.044395 0.0451904 0.0458798 0.0464631 0.0469404 0.0473116 0.0475768 0.0477359 0.0477889 0.0477359 0.0475768 0.0473116 0.0469404 0.0464631 0.0458798 0.0451904 0.044395 0.0435104 0.0425537 0.0415248 0.0404237 0.0392505 0.0380051 0.0366876 0.0352979 0.033863 0.0324098 0.0309384 0.0294488 0.0279409 0.0264148 0.0248705 0.0233079 0.0217534 0.0202334 0.0187479 0.0172968 0.0158802 0.0144981 0.0131504 0.0118372 0.0105746 0.00937844 0.00824889 0.00718589 0.00618945 0.00525957 0.00439624 0.00359948 0.00286966 0.00220717 0.00161203 0.00108421 0.000623735 0.000230593 -9.52142e-05 -0.000353686 -0.000554652 -0.00070794 -0.000813551 -0.000871486 -0.000881743 -0.000844323 -0.000759225 -0.000626451 -0.000479627 -0.000352379 -0.000244708 -0.000156613 -8.80947e-05 -3.91532e-05 -9.7883e-06 0 0 -1.03647e-05 -4.14589e-05 -9.32825e-05 -0.000165836 -0.000259118 -0.00037313 -0.000507872 -0.000663342 -0.000801931 -0.000886026 -0.000915627 -0.000890734 -0.000811347 -0.000677466 -0.000489091 -0.000246223 6.24066e-05 0.000448064 0.000910749 0.00145046 0.0020672 0.00276097 0.00353177 0.00437959 0.00530392 0.00630423 0.00738052 0.00853279 0.00976104 0.0110653 0.0124455 0.0139017 0.0154154 0.0169684 0.0185605 0.0201918 0.0218622 0.0235719 0.0253207 0.0271087 0.0289056 0.0306814 0.0324359 0.0341692 0.0358814 0.0375723 0.039242 0.0408905 0.0424869 0.0440004 0.0454309 0.0467784 0.048043 0.0492246 0.0503233 0.051339 0.0522523 0.0530438 0.0537136 0.0542616 0.0546878 0.0549923 0.0551749 0.0552358 0.0551749 0.0549923 0.0546878 0.0542616 0.0537136 0.0530438 0.0522523 0.051339 0.0503233 0.0492246 0.048043 0.0467784 0.0454309 0.0440004 0.0424869 0.0408905 0.039242 0.0375723 0.0358814 0.0341692 0.0324359 0.0306814 0.0289056 0.0271087 0.0253207 0.0235719 0.0218622 0.0201918 0.0185605 0.0169684 0.0154154 0.0139017 0.0124455 0.0110653 0.00976104 0.00853279 0.00738052 0.00630423 0.00530392 0.00437959 0.00353177 0.00276097 0.0020672 0.00145046 0.00091075 0.000448065 6.24073e-05 -0.000246222 -0.000489091 -0.000677466 -0.000811346 -0.000890733 -0.000915626 -0.000886026 -0.000801931 -0.000663342 -0.000507871 -0.00037313 -0.000259118 -0.000165836 -9.32825e-05 -4.14589e-05 -1.03647e-05 0 0 -1.06535e-05 -4.26139e-05 -9.58813e-05 -0.000170456 -0.000266337 -0.000383525 -0.000522021 -0.000681823 -0.000821622 -0.000900109 -0.000917283 -0.000873144 -0.000767693 -0.000600929 -0.000372852 -8.34625e-05 0.000279956 0.000730121 0.00126703 0.00189069 0.00260109 0.00339824 0.00428213 0.00525277 0.00630947 0.00745154 0.00867899 0.0099918 0.01139 0.0128736 0.0144425 0.0160968 0.0178157 0.0195784 0.0213849 0.0232352 0.0251292 0.0270671 0.0290488 0.0310743 0.0331095 0.0351204 0.0371071 0.0390694 0.0410074 0.0429211 0.0448105 0.0466757 0.0484817 0.0501937 0.0518119 0.0533361 0.0547664 0.0561027 0.0573451 0.0584936 0.0595263 0.0604213 0.0611786 0.0617982 0.0622801 0.0626244 0.0628309 0.0628997 0.0628309 0.0626244 0.0622801 0.0617982 0.0611786 0.0604213 0.0595263 0.0584936 0.0573451 0.0561027 0.0547664 0.0533361 0.0518119 0.0501937 0.0484817 0.0466757 0.0448105 0.0429211 0.0410074 0.0390694 0.0371071 0.0351204 0.0331095 0.0310743 0.0290488 0.0270671 0.0251292 0.0232352 0.0213849 0.0195784 0.0178157 0.0160968 0.0144425 0.0128736 0.01139 0.00999181 0.00867899 0.00745154 0.00630947 0.00525277 0.00428213 0.00339824 0.00260109 0.00189069 0.00126703 0.000730122 0.000279957 -8.34618e-05 -0.000372851 -0.000600928 -0.000767692 -0.000873144 -0.000917282 -0.000900109 -0.000821622 -0.000681823 -0.00052202 -0.000383525 -0.000266337 -0.000170456 -9.58813e-05 -4.26139e-05 -1.06535e-05 0 0 -1.06546e-05 -4.26183e-05 -9.58911e-05 -0.000170473 -0.000266364 -0.000383565 -0.000522074 -0.000681893 -0.000818299 -0.000886572 -0.000886711 -0.000818717 -0.000682589 -0.000478328 -0.000205934 0.000134594 0.000557434 0.00107676 0.00169258 0.00240489 0.00321369 0.00411898 0.00512075 0.00621902 0.0074129 0.00870151 0.0100849 0.0115629 0.0131358 0.0148033 0.0165656 0.0184226 0.0203512 0.0223281 0.0243533 0.0264269 0.0285489 0.0307192 0.0329378 0.0352048 0.0374822 0.0397321 0.0419544 0.0441492 0.0463165 0.0484563 0.0505686 0.0526533 0.0546718 0.0565851 0.0583934 0.0600967 0.0616948 0.0631879 0.064576 0.0658589 0.0670125 0.0680122 0.0688581 0.0695502 0.0700885 0.070473 0.0707038 0.0707807 0.0707038 0.070473 0.0700885 0.0695502 0.0688581 0.0680122 0.0670125 0.0658589 0.064576 0.0631879 0.0616949 0.0600967 0.0583934 0.0565851 0.0546718 0.0526533 0.0505686 0.0484563 0.0463165 0.0441492 0.0419544 0.0397321 0.0374822 0.0352048 0.0329378 0.0307192 0.0285489 0.0264269 0.0243533 0.0223281 0.0203512 0.0184226 0.0165656 0.0148033 0.0131358 0.0115629 0.0100849 0.00870151 0.0074129 0.00621902 0.00512075 0.00411898 0.00321369 0.00240489 0.00169258 0.00107676 0.000557435 0.000134595 -0.000205933 -0.000478328 -0.000682589 -0.000818716 -0.000886711 -0.000886571 -0.000818299 -0.000681892 -0.000522074 -0.000383564 -0.000266364 -0.000170473 -9.58911e-05 -4.26183e-05 -1.06546e-05 0 0 -1.0368e-05 -4.1472e-05 -9.33119e-05 -0.000165888 -0.0002592 -0.000373248 -0.000508032 -0.000663551 -0.000791961 -0.000845415 -0.000823912 -0.000727452 -0.000556037 -0.000309665 1.16634e-05 0.000407948 0.00089484 0.00148799 0.0021874 0.00299307 0.003905 0.00492318 0.00604763 0.00727833 0.0086142 0.0100541 0.0115981 0.0132462 0.0149983 0.0168545 0.0188148 0.0208791 0.0230219 0.0252175 0.0274659 0.0297671 0.0321212 0.034528 0.0369877 0.0395002 0.0420236 0.0445162 0.0469779 0.0494088 0.0518088 0.0541779 0.0565161 0.0588235 0.0610573 0.0631746 0.0651756 0.0670602 0.0688285 0.0704803 0.0720158 0.0734349 0.0747108 0.0758165 0.0767521 0.0775176 0.078113 0.0785383 0.0787935 0.0788785 0.0787935 0.0785383 0.078113 0.0775176 0.0767521 0.0758165 0.0747108 0.0734349 0.0720158 0.0704803 0.0688285 0.0670602 0.0651756 0.0631746 0.0610573 0.0588235 0.0565161 0.0541779 0.0518088 0.0494088 0.0469779 0.0445162 0.0420236 0.0395002 0.0369877 0.034528 0.0321212 0.0297671 0.0274659 0.0252175 0.0230219 0.0208791 0.0188148 0.0168545 0.0149983 0.0132462 0.0115981 0.0100541 0.0086142 0.00727834 0.00604763 0.00492319 0.003905 0.00299307 0.0021874 0.00148799 0.000894841 0.000407949 1.16643e-05 -0.000309664 -0.000556036 -0.000727452 -0.000823911 -0.000845414 -0.000791961 -0.000663551 -0.000508031 -0.000373248 -0.0002592 -0.000165888 -9.33119e-05 -4.14719e-05 -1.0368e-05 0 0 -9.79375e-06 -3.9175e-05 -8.81437e-05 -0.0001567 -0.000244844 -0.000352575 -0.000479894 -0.0006268 -0.000742609 -0.000776637 -0.000728884 -0.00059935 -0.000388035 -9.49383e-05 0.000279939 0.000736598 0.00129217 0.0019638 0.00275149 0.00365523 0.00467502 0.00581086 0.00706276 0.00843071 0.00991338 0.0115094 0.0132188 0.0150416 0.0169777 0.0190272 0.0211901 0.0234663 0.0258279 0.0282466 0.0307226 0.0332557 0.0358461 0.0384937 0.0411984 0.0439604 0.0467338 0.0494729 0.0521777 0.0548481 0.0574841 0.0600858 0.0626532 0.0651862 0.0676381 0.0699622 0.0721584 0.0742268 0.0761672 0.0779799 0.0796646 0.0812215 0.0826212 0.0838342 0.0848606 0.0857004 0.0863536 0.0868202 0.0871001 0.0871934 0.0871001 0.0868202 0.0863536 0.0857004 0.0848607 0.0838342 0.0826212 0.0812215 0.0796646 0.0779799 0.0761672 0.0742268 0.0721584 0.0699622 0.0676381 0.0651862 0.0626532 0.0600858 0.0574841 0.0548481 0.0521777 0.0494729 0.0467338 0.0439604 0.0411984 0.0384937 0.0358461 0.0332557 0.0307226 0.0282466 0.0258279 0.0234663 0.0211901 0.0190272 0.0169777 0.0150416 0.0132188 0.0115094 0.00991338 0.00843072 0.00706276 0.00581086 0.00467502 0.00365523 0.00275149 0.00196381 0.00129218 0.000736599 0.00027994 -9.49375e-05 -0.000388034 -0.000599349 -0.000728884 -0.000776637 -0.000742609 -0.000626799 -0.000479893 -0.000352575 -0.000244844 -0.0001567 -8.81437e-05 -3.9175e-05 -9.79374e-06 0 0 -8.90665e-06 -3.56266e-05 -8.01598e-05 -0.000142506 -0.000222666 -0.000320639 -0.000436426 -0.000570026 -0.000668225 -0.000677812 -0.000598786 -0.000431147 -0.000174895 0.00016997 0.000603448 0.00112554 0.00175488 0.0025101 0.00339121 0.0043982 0.00553107 0.00678982 0.00817446 0.00968499 0.0113198 0.0130772 0.0149573 0.01696 0.0190854 0.0213334 0.023704 0.0261974 0.0287827 0.0314296 0.0341381 0.036908 0.0397395 0.0426325 0.045587 0.048603 0.0516308 0.0546207 0.0575726 0.0604865 0.0633625 0.0662006 0.0690007 0.0717628 0.0744362 0.07697 0.0793643 0.0816191 0.0837343 0.08571 0.0875462 0.0892428 0.090768 0.0920898 0.0932083 0.0941234 0.0948351 0.0953435 0.0956485 0.0957502 0.0956485 0.0953435 0.0948351 0.0941234 0.0932083 0.0920898 0.090768 0.0892428 0.0875462 0.08571 0.0837343 0.0816191 0.0793643 0.07697 0.0744362 0.0717628 0.0690007 0.0662006 0.0633625 0.0604865 0.0575726 0.0546207 0.0516308 0.048603 0.045587 0.0426325 0.0397395 0.036908 0.0341381 0.0314296 0.0287827 0.0261974 0.023704 0.0213334 0.0190854 0.01696 0.0149573 0.0130772 0.0113198 0.00968499 0.00817447 0.00678983 0.00553107 0.0043982 0.00339121 0.0025101 0.00175488 0.00112554 0.000603449 0.000169971 -0.000174894 -0.000431146 -0.000598786 -0.000677812 -0.000668225 -0.000570025 -0.000436426 -0.000320639 -0.000222666 -0.000142506 -8.01598e-05 -3.56266e-05 -8.90664e-06 0 0 -7.68152e-06 -3.07261e-05 -6.91337e-05 -0.000122904 -0.000192038 -0.000276535 -0.000376394 -0.000491617 -0.000566793 -0.000546512 -0.000430774 -0.00021958 8.70713e-05 0.000489179 0.000986744 0.00157977 0.00228839 0.00313278 0.00411292 0.00522882 0.00648047 0.00786788 0.00939105 0.01105 0.0128427 0.0147674 0.0168239 0.0190124 0.0213328 0.023785 0.0263692 0.0290853 0.0319002 0.0347808 0.0377272 0.0407394 0.0438172 0.0469609 0.0501703 0.0534454 0.0567326 0.059978 0.0631818 0.0663437 0.069464 0.0725426 0.0755794 0.0785745 0.081473 0.0842201 0.0868158 0.08926 0.0915529 0.0936942 0.0956842 0.0975227 0.0991753 0.100608 0.10182 0.102811 0.103582 0.104133 0.104464 0.104574 0.104464 0.104133 0.103582 0.102811 0.10182 0.100608 0.0991753 0.0975227 0.0956842 0.0936942 0.0915529 0.0892601 0.0868158 0.0842201 0.081473 0.0785745 0.0755794 0.0725426 0.069464 0.0663437 0.0631818 0.059978 0.0567326 0.0534454 0.0501703 0.0469609 0.0438172 0.0407394 0.0377272 0.0347808 0.0319002 0.0290853 0.0263692 0.023785 0.0213328 0.0190124 0.0168239 0.0147674 0.0128427 0.01105 0.00939105 0.00786788 0.00648047 0.00522882 0.00411292 0.00313278 0.0022884 0.00157977 0.000986745 0.00048918 8.70722e-05 -0.000219579 -0.000430774 -0.000546511 -0.000566792 -0.000491617 -0.000376394 -0.000276534 -0.000192038 -0.000122904 -6.91336e-05 -3.0726e-05 -7.68151e-06 0 0 -6.11835e-06 -2.44734e-05 -5.50651e-05 -9.78936e-05 -0.000152959 -0.000220261 -0.000299799 -0.000391574 -0.000438312 -0.000382737 -0.000224849 3.53514e-05 0.000397864 0.000862689 0.00142983 0.00209928 0.00289272 0.00383184 0.00491663 0.00614709 0.00752323 0.00904504 0.0107125 0.0125257 0.0144822 0.0165799 0.0188188 0.0211988 0.0237199 0.0263821 0.0291855 0.0321301 0.0351801 0.0383001 0.0414899 0.0447497 0.0480793 0.0514789 0.0549483 0.0584877 0.0620391 0.065545 0.0690051 0.0724197 0.0757886 0.0791118 0.0823894 0.0856214 0.0887488 0.0917126 0.0945129 0.0971497 0.0996229 0.101933 0.104079 0.106061 0.107843 0.109388 0.110694 0.111764 0.112595 0.113189 0.113546 0.113664 0.113546 0.113189 0.112595 0.111764 0.110694 0.109388 0.107843 0.106061 0.104079 0.101933 0.0996229 0.0971497 0.0945129 0.0917126 0.0887488 0.0856214 0.0823894 0.0791118 0.0757886 0.0724197 0.0690051 0.065545 0.0620391 0.0584877 0.0549483 0.0514789 0.0480793 0.0447497 0.04149 0.0383001 0.0351801 0.0321301 0.0291855 0.0263821 0.0237199 0.0211988 0.0188188 0.0165799 0.0144822 0.0125257 0.0107125 0.00904504 0.00752323 0.00614709 0.00491663 0.00383184 0.00289272 0.00209928 0.00142983 0.00086269 0.000397865 3.53523e-05 -0.000224848 -0.000382736 -0.000438311 -0.000391574 -0.000299799 -0.00022026 -0.000152959 -9.78935e-05 -5.50651e-05 -2.44734e-05 -6.11834e-06 0 0 -4.21715e-06 -1.68686e-05 -3.79543e-05 -6.74743e-05 -0.000105429 -0.000151817 -0.00020664 -0.000269897 -0.000282782 -0.000186486 1.89904e-05 0.000333647 0.000757483 0.0012905 0.0019327 0.00268407 0.00356786 0.00460728 0.00580233 0.00715301 0.00865933 0.0103213 0.0121389 0.0141121 0.0162383 0.0185149 0.0209418 0.0235191 0.0262467 0.0291247 0.0321531 0.0353318 0.0386227 0.0419875 0.0454263 0.0489391 0.0525258 0.0561865 0.0599211 0.0637297 0.0675504 0.0713215 0.0750427 0.0787143 0.0823362 0.0859083 0.0894308 0.0929035 0.0962634 0.0994475 0.102456 0.105288 0.107944 0.110425 0.11273 0.114858 0.116772 0.11843 0.119833 0.120981 0.121874 0.122512 0.122894 0.123022 0.122894 0.122512 0.121874 0.120981 0.119833 0.11843 0.116772 0.114858 0.11273 0.110425 0.107944 0.105288 0.102456 0.0994475 0.0962634 0.0929035 0.0894308 0.0859083 0.0823362 0.0787143 0.0750428 0.0713215 0.0675504 0.0637297 0.0599211 0.0561865 0.0525258 0.0489391 0.0454263 0.0419875 0.0386227 0.0353318 0.0321531 0.0291247 0.0262467 0.0235191 0.0209418 0.0185149 0.0162383 0.0141121 0.0121389 0.0103213 0.00865933 0.00715302 0.00580233 0.00460728 0.00356786 0.00268408 0.0019327 0.0012905 0.000757484 0.000333648 1.89914e-05 -0.000186485 -0.000282781 -0.000269897 -0.00020664 -0.000151817 -0.000105428 -6.74742e-05 -3.79542e-05 -1.68686e-05 -4.21714e-06 0 0 -1.97791e-06 -7.91163e-06 -1.78012e-05 -3.16465e-05 -4.94477e-05 -7.12047e-05 -9.69175e-05 -0.000126586 -0.000100203 4.22404e-05 0.000300743 0.000675306 0.00116593 0.00177261 0.00249535 0.00333416 0.00431381 0.0054591 0.00677002 0.00824659 0.00988879 0.0116966 0.0136701 0.0158092 0.0181109 0.0205722 0.023193 0.0259734 0.0289133 0.0320128 0.0352718 0.0386904 0.0422278 0.0458431 0.0495363 0.0533075 0.0571566 0.0610836 0.0650886 0.0691716 0.0732665 0.0773075 0.0812946 0.0852277 0.0891069 0.0929321 0.0967034 0.100421 0.104017 0.107425 0.110644 0.113675 0.116517 0.119171 0.121637 0.123914 0.125961 0.127734 0.129235 0.130463 0.131418 0.1321 0.13251 0.132646 0.13251 0.1321 0.131418 0.130463 0.129235 0.127734 0.125961 0.123914 0.121637 0.119171 0.116517 0.113675 0.110644 0.107425 0.104017 0.100421 0.0967034 0.0929321 0.0891069 0.0852277 0.0812946 0.0773075 0.0732665 0.0691716 0.0650886 0.0610836 0.0571566 0.0533075 0.0495363 0.0458431 0.0422278 0.0386904 0.0352719 0.0320128 0.0289133 0.0259734 0.023193 0.0205722 0.0181109 0.0158092 0.0136701 0.0116966 0.00988879 0.00824659 0.00677002 0.0054591 0.00431381 0.00333416 0.00249536 0.00177261 0.00116593 0.000675308 0.000300745 4.22414e-05 -0.000100202 -0.000126585 -9.6917e-05 -7.12043e-05 -4.94475e-05 -3.16464e-05 -1.78011e-05 