<?xml version="1.0"?> 
<VTKFile type="StructuredGrid" version="0.1"> 
<StructuredGrid WholeExtent="0 128 0 128 0 0"> 
<Piece Extent="0 128 0 128 0 0"> 
<PointData>
<DataArray type="Float32" Name="u" format="ascii" NumberOfComponents="1"> 
0 0 0 0 0 0 0 0 0 0 0 0 0 0 0 0 0 0 0 0 0 0 0 0 0 0 0 0 0 0 0 0 0 0 0 0 0 0 0 0 0 0 0 0 0 0 0 0 0 0 0 0 0 0 0 0 0 0 0 0 0 0 0 0 0 0 0 0 0 0 0 0 0 0 0 0 0 0 0 0 0 0 0 0 0 0 0 0 0 0 0 0 0 0 0 0 0 0 0 0 0 0 0 0 0 0 0 0 0 0 0 0 0 0 0 0 0 0 0 0 0 0 0 0 0 0 0 0 0 0 3.47098e-07 1.38839e-06 3.12389e-06 5.55357e-06 8.67746e-06 1.24955e-05 1.70078e-05 2.22143e-05 2.78616e-05 3.36962e-05 3.97183e-05 4.59278e-05 5.23247e-05 5.8909e-05 6.56807e-05 7.26398e-05 7.98021e-05 8.71834e-05 9.47838e-05 0.000102603 0.000110642 0.000118899 0.000127376 0.000136071 0.000144932 0.000153902 0.000162983 0.000172174 0.000181475 0.000190886 0.000200407 0.000210039 0.000219699 0.000229308 0.000238864 0.000248368 0.000257819 0.000267219 0.000276566 0.000285861 0.000295009 0.000303917 0.000312584 0.000321011 0.000329197 0.000337142 0.000344847 0.000352312 0.000359451 0.000366181 0.000372503 0.000378415 0.000383918 0.000389012 0.000393697 0.000397973 0.00040179 0.000405098 0.000407897 0.000410187 0.000411969 0.000413241 0.000414004 0.000414259 0.000414004 0.000413241 0.000411969 0.000410187 0.000407897 0.000405098 0.00040179 0.000397973 0.000393697 0.000389012 0.000383918 0.000378415 0.000372503 0.000366181 0.000359451 0.000352312 0.000344847 0.000337142 0.000329197 0.000321011 0.000312584 0.000303917 0.000295009 0.000285861 0.000276566 0.000267219 0.000257819 0.000248368 0.000238864 0.000229308 0.0002197 0.000210039 0.000200407 0.000190886 0.000181475 0.000172174 0.000162983 0.000153902 0.000144932 0.000136072 0.000127376 0.000118899 0.000110642 0.000102603 9.4784e-05 8.71836e-05 7.98022e-05 7.26399e-05 6.56808e-05 5.89091e-05 5.23248e-05 4.59279e-05 3.97184e-05 3.36964e-05 2.78617e-05 2.22144e-05 1.70079e-05 1.24956e-05 8.67749e-06 5.55359e-06 3.1239e-06 1.3884e-06 3.47099e-07 0 0 1.38839e-06 5.55357e-06 1.24955e-05 2.22143e-05 3.47098e-05 4.99822e-05 6.80313e-05 8.88572e-05 0.000111446 0.000134785 0.000158873 0.000183711 0.000209299 0.000235636 0.000262723 0.000290559 0.000319208 0.000348734 0.000379135 0.000410413 0.000442567 0.000475597 0.000509503 0.000544286 0.000579727 0.000615608 0.000651931 0.000688694 0.000725898 0.000763543 0.000801629 0.000840156 0.000878798 0.000917231 0.000955456 0.000993471 0.00103128 0.00106888 0.00110626 0.00114344 0.00118004 0.00121567 0.00125034 0.00128404 0.00131679 0.00134857 0.00137939 0.00140925 0.0014378 0.00146473 0.00149001 0.00151366 0.00153567 0.00155605 0.00157479 0.00159189 0.00160716 0.00162039 0.00163159 0.00164075 0.00164787 0.00165296 0.00165602 0.00165703 0.00165602 0.00165296 0.00164787 0.00164075 0.00163159 0.00162039 0.00160716 0.00159189 0.00157479 0.00155605 0.00153567 0.00151366 0.00149001 0.00146473 0.0014378 0.00140925 0.00137939 0.00134857 0.00131679 0.00128404 0.00125034 0.00121567 0.00118004 0.00114344 0.00110626 0.00106888 0.00103128 0.000993471 0.000955456 0.000917232 0.000878798 0.000840156 0.000801629 0.000763544 0.000725899 0.000688695 0.000651931 0.000615609 0.000579727 0.000544286 0.000509504 0.000475598 0.000442567 0.000410414 0.000379136 0.000348734 0.000319209 0.00029056 0.000262723 0.000235636 0.000209299 0.000183712 0.000158874 0.000134785 0.000111447 8.88575e-05 6.80315e-05 4.99823e-05 3.47099e-05 2.22144e-05 1.24956e-05 5.55359e-06 1.3884e-06 0 0 3.12389e-06 1.24955e-05 2.8115e-05 4.99822e-05 7.80971e-05 0.00011246 0.00015307 0.000199929 0.000250754 0.000303266 0.000357465 0.00041335 0.000470922 0.000530181 0.000591126 0.000653758 0.000718219 0.000784651 0.000853055 0.000923429 0.000995776 0.00107009 0.00114638 0.00122464 0.00130439 0.00138512 0.00146684 0.00154956 0.00163327 0.00171797 0.00180367 0.00189035 0.0019773 0.00206377 0.00214978 0.00223531 0.00232037 0.00240497 0.00248909 0.00257275 0.00265508 0.00273525 0.00281326 0.0028891 0.00296277 0.00303428 0.00310363 0.0031708 0.00323506 0.00329563 0.00335252 0.00340573 0.00345526 0.00350111 0.00354327 0.00358176 0.00361611 0.00364588 0.00367107 0.00369169 0.00370772 0.00371917 0.00372604 0.00372833 0.00372604 0.00371917 0.00370772 0.00369169 0.00367107 0.00364588 0.00361611 0.00358176 0.00354327 0.00350111 0.00345526 0.00340573 0.00335252 0.00329563 0.00323506 0.0031708 0.00310363 0.00303428 0.00296277 0.0028891 0.00281326 0.00273525 0.00265508 0.00257275 0.00248909 0.00240497 0.00232038 0.00223531 0.00214978 0.00206377 0.0019773 0.00189035 0.00180367 0.00171797 0.00163327 0.00154956 0.00146685 0.00138512 0.00130439 0.00122464 0.00114638 0.00107009 0.000995777 0.000923431 0.000853056 0.000784652 0.00071822 0.000653759 0.000591127 0.000530182 0.000470923 0.000413351 0.000357466 0.000303267 0.000250755 0.000199929 0.000153071 0.00011246 7.80974e-05 4.99823e-05 2.81151e-05 1.24956e-05 3.1239e-06 0 0 5.55357e-06 2.22143e-05 4.99822e-05 8.88572e-05 0.000138839 0.000199929 0.000272125 0.000355429 0.000445785 0.00053914 0.000635493 0.000734845 0.000837195 0.000942544 0.00105089 0.00116224 0.00127683 0.00139493 0.00151654 0.00164165 0.00177027 0.00190239 0.00203801 0.00217714 0.00231891 0.00246243 0.00260772 0.00275478 0.00290359 0.00305417 0.00320652 0.00336062 0.00351519 0.00366893 0.00382182 0.00397388 0.00412511 0.0042755 0.00442505 0.00457377 0.00472015 0.00486267 0.00500135 0.00513618 0.00526715 0.00539428 0.00551756 0.00563699 0.00575122 0.0058589 0.00596004 0.00605464 0.00614269 0.00622419 0.00629915 0.00636757 0.00642864 0.00648157 0.00652635 0.006563 0.0065915 0.00661185 0.00662407 0.00662814 0.00662407 0.00661185 0.0065915 0.006563 0.00652635 0.00648157 0.00642864 0.00636757 0.00629915 0.00622419 0.00614269 0.00605464 0.00596004 0.0058589 0.00575122 0.00563699 0.00551756 0.00539428 0.00526715 0.00513618 0.00500135 0.00486267 0.00472015 0.00457377 0.00442505 0.0042755 0.00412511 0.00397389 0.00382182 0.00366893 0.00351519 0.00336062 0.00320652 0.00305417 0.00290359 0.00275478 0.00260773 0.00246244 0.00231891 0.00217714 0.00203802 0.00190239 0.00177027 0.00164165 0.00151654 0.00139494 0.00127684 0.00116224 0.00105089 0.000942546 0.000837197 0.000734847 0.000635495 0.000539142 0.000445787 0.00035543 0.000272126 0.000199929 0.00013884 8.88575e-05 4.99823e-05 2.22144e-05 5.55359e-06 0 0 8.67746e-06 3.47098e-05 7.80971e-05 0.000138839 0.000216936 0.000312389 0.000425195 0.000555357 0.000696539 0.000842406 0.000992958 0.0011482 0.00130812 0.00147272 0.00164202 0.00181599 0.00199505 0.00217959 0.0023696 0.00256508 0.00276604 0.00297248 0.0031844 0.00340179 0.00362329 0.00384755 0.00407457 0.00430434 0.00453686 0.00477215 0.00501018 0.00525097 0.00549249 0.0057327 0.0059716 0.0062092 0.00644549 0.00668047 0.00691415 0.00714652 0.00737523 0.00759793 0.00781461 0.00802527 0.00822993 0.00842856 0.00862118 0.00880779 0.00898628 0.00915453 0.00931257 0.00946037 0.00959795 0.0097253 0.00984243 0.00994933 0.0100447 0.0101275 0.0101974 0.0102547 0.0102992 0.010331 0.0103501 0.0103565 0.0103501 0.010331 0.0102992 0.0102547 0.0101974 0.0101275 0.0100447 0.00994933 0.00984243 0.0097253 0.00959795 0.00946037 0.00931257 0.00915453 0.00898628 0.00880779 0.00862118 0.00842856 0.00822993 0.00802527 0.00781461 0.00759793 0.00737523 0.00714652 0.00691415 0.00668047 0.00644549 0.0062092 0.0059716 0.0057327 0.00549249 0.00525097 0.00501018 0.00477215 0.00453687 0.00430434 0.00407457 0.00384756 0.00362329 0.00340179 0.0031844 0.00297248 0.00276605 0.00256508 0.0023696 0.00217959 0.00199506 0.001816 0.00164202 0.00147273 0.00130812 0.0011482 0.000992961 0.000842409 0.000696541 0.000555359 0.000425197 0.00031239 0.000216937 0.00013884 7.80974e-05 3.47099e-05 8.67749e-06 0 0 1.24955e-05 4.99822e-05 0.00011246 0.000199929 0.000312389 0.000449839 0.000612282 0.000799715 0.00100302 0.00121306 0.00142986 0.0016534 0.00188369 0.00212072 0.0023645 0.00261503 0.00287287 0.0031386 0.00341222 0.00369372 0.0039831 0.00428037 0.00458553 0.00489857 0.00521754 0.00554048 0.00586738 0.00619825 0.00653309 0.00687189 0.00721466 0.0075614 0.00790918 0.00825508 0.0085991 0.00894124 0.0092815 0.00961988 0.00995637 0.010291 0.0106203 0.010941 0.011253 0.0115564 0.0118511 0.0121371 0.0124145 0.0126832 0.0129402 0.0131825 0.0134101 0.0136229 0.013821 0.0140044 0.0141731 0.014327 0.0144644 0.0145835 0.0146843 0.0147667 0.0148309 0.0148767 0.0149042 0.0149133 0.0149042 0.0148767 0.0148309 0.0147667 0.0146843 0.0145835 0.0144644 0.014327 0.0141731 0.0140044 0.013821 0.0136229 0.0134101 0.0131825 0.0129402 0.0126832 0.0124145 0.0121371 0.0118511 0.0115564 0.011253 0.010941 0.0106203 0.010291 0.00995637 0.00961988 0.0092815 0.00894124 0.0085991 0.00825508 0.00790918 0.0075614 0.00721466 0.00687189 0.00653309 0.00619825 0.00586738 0.00554048 0.00521754 0.00489858 0.00458553 0.00428038 0.00398311 0.00369372 0.00341222 0.00313861 0.00287288 0.00261504 0.00236451 0.00212073 0.00188369 0.00165341 0.00142986 0.00121307 0.00100302 0.000799717 0.000612283 0.000449841 0.00031239 0.000199929 0.00011246 4.99823e-05 1.24956e-05 0 0 1.70078e-05 6.80313e-05 0.00015307 0.000272125 0.000425195 0.000612282 0.000833383 0.0010885 0.00136522 0.00165112 0.0019462 0.00225046 0.00256391 0.00288654 0.00321835 0.00355935 0.0039103 0.00427199 0.00464441 0.00502756 0.00542145 0.00582606 0.00624142 0.0066675 0.00710165 0.0075412 0.00798615 0.0084365 0.00889225 0.00935341 0.00981996 0.0102919 0.0107653 0.0112361 0.0117043 0.01217 0.0126332 0.0130937 0.0135517 0.0140072 0.0144555 0.0148919 0.0153166 0.0157295 0.0161307 0.01652 0.0168975 0.0172633 0.0176131 0.0179429 0.0182526 0.0185423 0.018812 0.0190616 0.0192912 0.0195007 0.0196877 0.0198498 0.019987 0.0200992 0.0201865 0.0202488 0.0202862 0.0202987 0.0202862 0.0202488 0.0201865 0.0200992 0.019987 0.0198498 0.0196877 0.0195007 0.0192912 0.0190616 0.018812 0.0185423 0.0182526 0.0179429 0.0176131 0.0172633 0.0168975 0.01652 0.0161307 0.0157295 0.0153166 0.0148919 0.0144555 0.0140072 0.0135517 0.0130937 0.0126332 0.01217 0.0117043 0.0112361 0.0107653 0.0102919 0.00981996 0.00935341 0.00889226 0.00843651 0.00798616 0.00754121 0.00710166 0.00666751 0.00624142 0.00582607 0.00542145 0.00502757 0.00464441 0.00427199 0.00391031 0.00355936 0.00321836 0.00288655 0.00256392 0.00225047 0.0019462 0.00165112 0.00136522 0.0010885 0.000833386 0.000612283 0.000425197 0.000272126 0.000153071 6.80315e-05 1.70079e-05 0 0 2.22143e-05 8.88572e-05 0.000199929 0.000355429 0.000555357 0.000799715 0.0010885 0.00142171 0.00178314 0.00215656 0.00254197 0.00293938 0.00334878 0.00377017 0.00420356 0.00464894 0.00510733 0.00557974 0.00606617 0.00656661 0.00708107 0.00760955 0.00815205 0.00870857 0.00927563 0.00984973 0.0104309 0.0110191 0.0116144 0.0122167 0.0128261 0.0134425 0.0140608 0.0146757 0.0152873 0.0158955 0.0165004 0.017102 0.0177002 0.0182951 0.0188806 0.0194507 0.0200054 0.0205447 0.0210686 0.0215771 0.0220702 0.0225479 0.0230049 0.0234356 0.0238402 0.0242186 0.0245708 0.0248968 0.0251966 0.0254703 0.0257146 0.0259263 0.0261054 0.026252 0.026366 0.0264474 0.0264963 0.0265126 0.0264963 0.0264474 0.026366 0.026252 0.0261054 0.0259263 0.0257146 0.0254703 0.0251966 0.0248968 0.0245708 0.0242186 0.0238402 0.0234356 0.0230049 0.0225479 0.0220702 0.0215771 0.0210686 0.0205447 0.0200054 0.0194507 0.0188806 0.0182951 0.0177002 0.017102 0.0165004 0.0158955 0.0152873 0.0146757 0.0140608 0.0134425 0.0128261 0.0122167 0.0116144 0.0110191 0.0104309 0.00984974 0.00927563 0.00870858 0.00815206 0.00760956 0.00708108 0.00656662 0.00606617 0.00557975 0.00510734 0.00464895 0.00420357 0.00377018 0.00334879 0.00293939 0.00254198 0.00215657 0.00178315 0.00142172 0.0010885 0.000799717 0.000555359 0.00035543 0.000199929 8.88575e-05 2.22144e-05 0 0 2.78268e-05 0.000111307 0.000250441 0.000445228 0.000695669 0.00100176 0.00136351 0.00178091 0.00223363 0.00270131 0.00318397 0.00368159 0.00419419 0.00472176 0.00526429 0.0058218 0.00639556 0.00698683 0.00759562 0.00822192 0.00886575 0.00952709 0.0102059 0.0109023 0.0116119 0.0123302 0.0130574 0.0137933 0.0145381 0.0152916 0.016054 0.0168252 0.0175987 0.0183679 0.019133 0.0198939 0.0206506 0.0214031 0.0221515 0.0228956 0.023628 0.0243411 0.0250349 0.0257095 0.0263649 0.0270009 0.0276177 0.0282152 0.0287867 0.0293255 0.0298315 0.0303048 0.0307453 0.0311531 0.0315281 0.0318704 0.032176 0.0324408 0.0326648 0.0328481 0.0329907 0.0330926 0.0331537 0.033174 0.0331537 0.0330926 0.0329907 0.0328481 0.0326648 0.0324408 0.032176 0.0318704 0.0315281 0.0311531 0.0307453 0.0303048 0.0298315 0.0293255 0.0287867 0.0282152 0.0276177 0.0270009 0.0263649 0.0257095 0.025035 0.0243411 0.023628 0.0228956 0.0221515 0.0214032 0.0206506 0.0198939 0.019133 0.018368 0.0175987 0.0168252 0.016054 0.0152916 0.0145381 0.0137933 0.0130574 0.0123302 0.0116119 0.0109023 0.010206 0.0095271 0.00886576 0.00822193 0.00759563 0.00698684 0.00639557 0.00582181 0.00526431 0.00472177 0.0041942 0.0036816 0.00318397 0.00270132 0.00223363 0.00178092 0.00136352 0.00100177 0.000695671 0.00044523 0.000250442 0.000111307 2.78268e-05 0 0 3.3557e-05 0.000134228 0.000302013 0.000536912 0.000838925 0.00120805 0.00164429 0.00214765 0.00269351 0.00325728 0.00383896 0.00443854 0.00505602 0.00569141 0.00634471 0.00701591 0.00770656 0.00841822 0.00915089 0.00990456 0.0106792 0.0114749 0.0122916 0.0131293 0.0139828 0.0148468 0.0157213 0.0166064 0.017502 0.0184081 0.0193248 0.020252 0.021182 0.0221068 0.0230266 0.0239414 0.024851 0.0257556 0.0266551 0.0275495 0.0284298 0.029287 0.0301209 0.0309317 0.0317193 0.0324838 0.033225 0.0339431 0.03463 0.0352774 0.0358855 0.0364543 0.0369837 0.0374737 0.0379244 0.0383357 0.0387028 0.039021 0.0392903 0.0395106 0.0396819 0.0398043 0.0398777 0.0399022 0.0398777 0.0398043 0.0396819 0.0395106 0.0392903 0.039021 0.0387028 0.0383357 0.0379244 0.0374737 0.0369837 0.0364543 0.0358855 0.0352774 0.03463 0.0339431 0.033225 0.0324838 0.0317193 0.0309317 0.0301209 0.029287 0.0284298 0.0275495 0.0266551 0.0257556 0.024851 0.0239414 0.0230266 0.0221068 0.021182 0.020252 0.0193248 0.0184081 0.017502 0.0166064 0.0157213 0.0148468 0.0139828 0.0131293 0.0122916 0.0114749 0.0106792 0.00990457 0.0091509 0.00841823 0.00770657 0.00701592 0.00634472 0.00569142 0.00505603 0.00443855 0.00383897 0.00325729 0.00269352 0.00214765 0.0016443 0.00120806 0.000838928 0.000536914 0.000302014 0.000134228 3.35571e-05 0 0 3.9405e-05 0.00015762 0.000354645 0.00063048 0.000985126 0.00141858 0.00193085 0.00252192 0.0031628 0.00382448 0.00450695 0.00521022 0.00593428 0.00667914 0.0074448 0.00823125 0.00904035 0.00987392 0.010732 0.0116145 0.0125215 0.013453 0.014409 0.0153895 0.0163883 0.0173994 0.0184227 0.0194583 0.0205061 0.0215661 0.0226384 0.023723 0.0248107 0.0258924 0.0269681 0.0280378 0.0291016 0.0301593 0.0312111 0.0322569 0.0332861 0.0342883 0.0352633 0.0362112 0.037132 0.0380256 0.0388922 0.0397316 0.0405345 0.0412913 0.0420022 0.042667 0.0432858 0.0438586 0.0443854 0.0448661 0.0452952 0.0456672 0.0459819 0.0462393 0.0464396 0.0465827 0.0466685 0.0466971 0.0466685 0.0465827 0.0464396 0.0462393 0.0459819 0.0456672 0.0452952 0.0448661 0.0443854 0.0438586 0.0432858 0.042667 0.0420022 0.0412913 0.0405345 0.0397316 0.0388922 0.0380256 0.037132 0.0362112 0.0352633 0.0342883 0.0332861 0.0322569 0.0312111 0.0301593 0.0291016 0.0280378 0.0269681 0.0258924 0.0248107 0.023723 0.0226385 0.0215662 0.0205061 0.0194583 0.0184227 0.0173994 0.0163883 0.0153895 0.014409 0.0134531 0.0125216 0.0116145 0.010732 0.00987394 0.00904036 0.00823127 0.00744481 0.00667916 0.00593429 0.00521023 0.00450696 0.00382449 0.00316281 0.00252193 0.00193085 0.00141859 0.000985129 0.000630482 0.000354646 0.000157621 3.94051e-05 0 0 4.53708e-05 0.000181483 0.000408337 0.000725933 0.00113427 0.00163335 0.00222317 0.00290373 0.00364149 0.00440289 0.00518794 0.00599663 0.00682896 0.00768495 0.00856457 0.00946785 0.0103969 0.0113539 0.0123389 0.0133518 0.0143927 0.0154615 0.0165582 0.0176829 0.0188285 0.0199881 0.0211616 0.022349 0.0235504 0.0247657 0.0259949 0.0272381 0.0284848 0.0297245 0.0309574 0.0321833 0.0334023 0.0346143 0.0358195 0.0370177 0.0381969 0.0393451 0.0404621 0.041548 0.0426028 0.0436266 0.0446192 0.0455807 0.0465004 0.0473673 0.0481815 0.0489429 0.0496517 0.0503077 0.0509111 0.0514617 0.0519531 0.0523791 0.0527395 0.0530344 0.0532638 0.0534276 0.0535259 0.0535587 0.0535259 0.0534276 0.0532638 0.0530344 0.0527395 0.0523791 0.0519532 0.0514617 0.0509111 0.0503077 0.0496517 0.0489429 0.0481815 0.0473673 0.0465004 0.0455807 0.0446192 0.0436266 0.0426028 0.041548 0.0404621 0.0393451 0.0381969 0.0370177 0.0358195 0.0346144 0.0334023 0.0321833 0.0309574 0.0297246 0.0284848 0.0272381 0.025995 0.0247657 0.0235504 0.022349 0.0211616 0.0199881 0.0188285 0.0176829 0.0165582 0.0154615 0.0143927 0.0133518 0.0123389 0.0113539 0.0103969 0.00946786 0.00856459 0.00768496 0.00682898 0.00599664 0.00518795 0.0044029 0.0036415 0.00290374 0.00222318 0.00163335 0.00113427 0.000725935 0.000408339 0.000181484 4.5371e-05 0 0 5.14544e-05 0.000205818 0.00046309 0.00082327 0.00128636 0.00185236 0.00252127 0.00329308 0.00412958 0.00499253 0.00588192 0.00679777 0.00774007 0.00870883 0.00970403 0.0107257 0.0117763 0.0128582 0.0139716 0.0151164 0.0162926 0.0175002 0.0187391 0.0200095 0.0213034 0.0226129 0.023938 0.0252786 0.0266349 0.0280068 0.0293943 0.0307974 0.0322043 0.0336034 0.0349945 0.0363778 0.0377532 0.0391207 0.0404803 0.041832 0.0431622 0.0444573 0.0457173 0.0469421 0.0481319 0.0492865 0.050406 0.0514905 0.0525276 0.0535052 0.0544234 0.0552821 0.0560814 0.0568212 0.0575015 0.0581224 0.0586766 0.0591569 0.0595633 0.0598958 0.0601544 0.0603391 0.06045 0.0604869 0.06045 0.0603391 0.0601544 0.0598958 0.0595633 0.0591569 0.0586766 0.0581224 0.0575015 0.0568212 0.0560814 0.0552821 0.0544234 0.0535052 0.0525276 0.0514905 0.0504061 0.0492865 0.0481319 0.0469422 0.0457173 0.0444573 0.0431622 0.041832 0.0404803 0.0391207 0.0377532 0.0363778 0.0349945 0.0336034 0.0322043 0.0307974 0.0293943 0.0280068 0.0266349 0.0252787 0.023938 0.0226129 0.0213034 0.0200095 0.0187392 0.0175002 0.0162926 0.0151164 0.0139716 0.0128583 0.0117763 0.0107257 0.00970405 0.00870884 0.00774009 0.00679779 0.00588194 0.00499254 0.00412959 0.00329309 0.00252127 0.00185236 0.00128636 0.000823273 0.000463091 0.000205818 5.14546e-05 0 0 5.76558e-05 0.000230623 0.000518902 0.000922492 0.00144139 0.00207561 0.00282513 0.00368997 0.00462707 0.00559338 0.00658891 0.00761365 0.00866761 0.00975078 0.0108632 0.0120048 0.0131784 0.0143869 0.0156302 0.0169083 0.0182213 0.0195692 0.0209518 0.0223694 0.0238129 0.0252737 0.0267518 0.0282471 0.0297597 0.0312895 0.0328365 0.0344008 0.0359692 0.0375288 0.0390795 0.0406213 0.0421542 0.0436783 0.0451934 0.0466997 0.0481819 0.049625 0.0510289 0.0523936 0.0537192 0.0550055 0.0562527 0.0574608 0.0586161 0.0597052 0.060728 0.0616845 0.0625748 0.0633989 0.0641567 0.0648482 0.0654655 0.0660004 0.0664531 0.0668234 0.0671115 0.0673173 0.0674407 0.0674819 0.0674407 0.0673173 0.0671115 0.0668234 0.0664531 0.0660004 0.0654655 0.0648482 0.0641567 0.0633989 0.0625748 0.0616845 0.060728 0.0597052 0.0586161 0.0574608 0.0562527 0.0550055 0.0537192 0.0523936 0.0510289 0.049625 0.0481819 0.0466997 0.0451934 0.0436783 0.0421543 0.0406213 0.0390795 0.0375288 0.0359692 0.0344008 0.0328365 0.0312895 0.0297597 0.0282471 0.0267518 0.0252738 0.023813 0.0223694 0.0209519 0.0195692 0.0182213 0.0169083 0.0156302 0.0143869 0.0131784 0.0120048 0.0108632 0.0097508 0.00866763 0.00761367 0.00658893 0.0055934 0.00462708 0.00368998 0.00282514 0.00207561 0.0014414 0.000922495 0.000518903 0.000230624 5.76559e-05 0 0 6.39749e-05 0.0002559 0.000575774 0.0010236 0.00159937 0.0023031 0.00313477 0.00409439 0.00513396 0.00620546 0.00730889 0.00844426 0.00961157 0.0108108 0.012042 0.0133051 0.0146033 0.0159398 0.0173145 0.0187276 0.0201789 0.0216685 0.0231963 0.0247624 0.0263571 0.0279707 0.0296031 0.0312544 0.0329246 0.0346136 0.0363215 0.0380483 0.0397796 0.0415009 0.0432124 0.0449139 0.0466055 0.0482872 0.049959 0.0516209 0.0532561 0.0548482 0.0563969 0.0579024 0.0593646 0.0607836 0.0621593 0.0634917 0.0647659 0.0659671 0.0670952 0.0681502 0.069132 0.0700408 0.0708766 0.0716392 0.0723199 0.0729098 0.073409 0.0738174 0.0741351 0.074362 0.0744981 0.0745435 0.0744981 0.074362 0.0741351 0.0738174 0.073409 0.0729098 0.0723199 0.0716392 0.0708766 0.0700408 0.069132 0.0681502 0.0670952 0.0659671 0.064766 0.0634917 0.0621593 0.0607836 0.0593646 0.0579024 0.0563969 0.0548482 0.0532561 0.0516209 0.049959 0.0482872 0.0466055 0.0449139 0.0432124 0.0415009 0.0397796 0.0380483 0.0363216 0.0346136 0.0329246 0.0312544 0.0296031 0.0279707 0.0263571 0.0247625 0.0231963 0.0216685 0.0201789 0.0187276 0.0173146 0.0159398 0.0146033 0.0133051 0.012042 0.0108108 0.00961159 0.00844429 0.00730891 0.00620548 0.00513398 0.00409441 0.00313478 0.0023031 0.00159938 0.0010236 0.000575776 0.0002559 6.39751e-05 0 0 7.04118e-05 0.000281647 0.000633706 0.00112659 0.0017603 0.00253483 0.00345018 0.00450636 0.00565025 0.00682876 0.00804188 0.00928961 0.010572 0.0118889 0.0132405 0.0146267 0.016051 0.017517 0.0190247 0.0205741 0.0221653 0.023798 0.0254725 0.0271887 0.028936 0.0307037 0.0324919 0.0343006 0.0361297 0.0379794 0.0398494 0.04174 0.0436353 0.0455197 0.047393 0.0492555 0.0511069 0.0529474 0.0547769 0.0565954 0.0583848 0.0601268 0.0618214 0.0634685 0.0650683 0.0666207 0.0681257 0.0695832 0.0709771 0.0722911 0.073525 0.074679 0.075753 0.0767471 0.0776612 0.0784953 0.0792398 0.079885 0.080431 0.0808777 0.0812251 0.0814733 0.0816222 0.0816718 0.0816222 0.0814733 0.0812251 0.0808777 0.080431 0.079885 0.0792398 0.0784953 0.0776612 0.0767471 0.075753 0.074679 0.073525 0.0722911 0.0709771 0.0695832 0.0681257 0.0666207 0.0650683 0.0634685 0.0618214 0.0601268 0.0583848 0.0565955 0.0547769 0.0529474 0.0511069 0.0492555 0.0473931 0.0455197 0.0436353 0.04174 0.0398495 0.0379794 0.0361298 0.0343006 0.0324919 0.0307037 0.028936 0.0271887 0.0254726 0.0237981 0.0221653 0.0205742 0.0190248 0.017517 0.016051 0.0146267 0.0132405 0.0118889 0.010572 0.00928963 0.0080419 0.00682878 0.00565027 0.00450637 0.00345019 0.00253483 0.0017603 0.00112659 0.000633708 0.000281648 7.0412e-05 0 0 7.69515e-05 0.000307806 0.000692564 0.00123122 0.00192379 0.00277025 0.00377062 0.0049249 0.00617475 0.00746187 0.00878624 0.0101479 0.0115468 0.0129829 0.0144563 0.015967 0.0175189 0.0191158 0.0207579 0.0224451 0.0241774 0.0259547 0.0277772 0.0296448 0.031546 0.0334692 0.0354145 0.0373818 0.0393712 0.0413826 0.0434161 0.0454716 0.0475321 0.0495806 0.0516171 0.0536415 0.0556538 0.0576541 0.0596423 0.0616185 0.0635629 0.0654558 0.067297 0.0690867 0.0708248 0.0725114 0.0741464 0.0757299 0.0772441 0.0786714 0.0800119 0.0812654 0.0824321 0.0835118 0.0845047 0.0854107 0.0862193 0.0869202 0.0875132 0.0879984 0.0883757 0.0886453 0.088807 0.0888609 0.088807 0.0886453 0.0883757 0.0879984 0.0875132 0.0869202 0.0862193 0.0854107 0.0845047 0.0835118 0.0824321 0.0812654 0.0800119 0.0786714 0.0772441 0.0757299 0.0741464 0.0725114 0.0708249 0.0690867 0.067297 0.0654558 0.0635629 0.0616185 0.0596423 0.0576541 0.0556538 0.0536415 0.0516171 0.0495806 0.0475321 0.0454716 0.0434161 0.0413826 0.0393712 0.0373818 0.0354145 0.0334692 0.031546 0.0296448 0.0277772 0.0259548 0.0241774 0.0224451 0.0207579 0.0191159 0.0175189 0.0159671 0.0144564 0.012983 0.0115468 0.0101479 0.00878627 0.00746189 0.00617477 0.00492491 0.00377064 0.00277026 0.00192379 0.00123123 0.000692566 0.000307807 7.69518e-05 0 0 8.3579e-05 0.000334316 0.000752211 0.00133726 0.00208948 0.00300884 0.00409537 0.00534906 0.00670627 0.00810337 0.00954037 0.0110173 0.012534 0.0140907 0.0156873 0.0173237 0.0190044 0.0207336 0.0225112 0.0243374 0.0262121 0.0281353 0.0301071 0.0321273 0.0341836 0.0362635 0.038367 0.0404941 0.0426449 0.0448193 0.0470172 0.0492389 0.0514657 0.0536794 0.0558799 0.0580672 0.0602415 0.0624025 0.0645504 0.0666852 0.0687854 0.07083 0.0728187 0.0747517 0.076629 0.0784504 0.0802162 0.0819261 0.0835613 0.0851026 0.08655 0.0879036 0.0891634 0.0903293 0.0914013 0.0923796 0.0932526 0.0940093 0.0946496 0.0951734 0.0955809 0.0958719 0.0960465 0.0961047 0.0960465 0.0958719 0.0955809 0.0951734 0.0946496 0.0940093 0.0932526 0.0923796 0.0914013 0.0903293 0.0891634 0.0879036 0.08655 0.0851026 0.0835613 0.0819261 0.0802162 0.0784504 0.076629 0.0747517 0.0728187 0.07083 0.0687854 0.0666852 0.0645504 0.0624025 0.0602415 0.0580673 0.0558799 0.0536794 0.0514657 0.0492389 0.0470173 0.0448193 0.0426449 0.0404942 0.038367 0.0362635 0.0341836 0.0321273 0.0301071 0.0281354 0.0262122 0.0243375 0.0225113 0.0207336 0.0190044 0.0173238 0.0156873 0.0140907 0.0125341 0.0110173 0.00954039 0.00810339 0.00670629 0.00534907 0.00409538 0.00300885 0.00208948 0.00133727 0.000752213 0.000334317 8.35793e-05 0 0 9.02943e-05 0.000361177 0.000812649 0.00144471 0.00225736 0.00325059 0.00442442 0.00577884 0.0072448 0.00875327 0.0103043 0.0118977 0.0135337 0.0152122 0.0169333 0.0186968 0.0205075 0.0223702 0.0242847 0.0262512 0.0282696 0.0303398 0.032462 0.0346361 0.0368488 0.0390866 0.0413496 0.0436377 0.045951 0.0482894 0.050653 0.0530418 0.055436 0.0578159 0.0601815 0.0625328 0.0648699 0.0671927 0.0695011 0.0717953 0.0740524 0.0762494 0.0783865 0.0804636 0.0824806 0.0844377 0.0863348 0.0881719 0.0899286 0.0915845 0.0931395 0.0945936 0.095947 0.0971994 0.0983511 0.0994018 0.10034 0.101152 0.10184 0.102403 0.102841 0.103153 0.103341 0.103403 0.103341 0.103153 0.102841 0.102403 0.10184 0.101152 0.10034 0.0994018 0.0983511 0.0971994 0.095947 0.0945936 0.0931395 0.0915845 0.0899286 0.0881719 0.0863348 0.0844377 0.0824806 0.0804636 0.0783865 0.0762494 0.0740524 0.0717953 0.0695011 0.0671927 0.0648699 0.0625329 0.0601815 0.0578159 0.055436 0.0530418 0.050653 0.0482894 0.045951 0.0436377 0.0413496 0.0390866 0.0368488 0.0346362 0.0324621 0.0303399 0.0282696 0.0262512 0.0242848 0.0223702 0.0205076 0.0186968 0.0169333 0.0152123 0.0135338 0.0118978 0.0103043 0.0087533 0.00724482 0.00577885 0.00442443 0.0032506 0.00225736 0.00144471 0.000812651 0.000361178 9.02946e-05 0 0 9.70974e-05 0.00038839 0.000873876 0.00155356 0.00242743 0.00349551 0.00475777 0.00621423 0.00779034 0.00941157 0.0110779 0.0127893 0.0145459 0.0163475 0.0181943 0.0200862 0.0220283 0.0240257 0.0260784 0.0281864 0.0303497 0.0325683 0.0348422 0.0371714 0.0395416 0.0419385 0.0443621 0.0468124 0.0492893 0.051793 0.0543233 0.0568804 0.059443 0.0619902 0.0645219 0.0670382 0.0695391 0.0720245 0.0744945 0.076949 0.0793637 0.0817141 0.0840003 0.0862222 0.0883799 0.0904733 0.0925024 0.0944674 0.0963462 0.0981172 0.0997803 0.101335 0.102783 0.104122 0.105354 0.106478 0.10748 0.10835 0.109085 0.109687 0.110155 0.110489 0.11069 0.110757 0.11069 0.110489 0.110155 0.109687 0.109085 0.10835 0.10748 0.106478 0.105354 0.104122 0.102783 0.101335 0.0997803 0.0981172 0.0963462 0.0944674 0.0925024 0.0904733 0.0883799 0.0862222 0.0840003 0.0817141 0.0793637 0.076949 0.0744945 0.0720245 0.0695391 0.0670383 0.064522 0.0619902 0.059443 0.0568804 0.0543233 0.051793 0.0492894 0.0468124 0.0443621 0.0419385 0.0395416 0.0371714 0.0348422 0.0325683 0.0303497 0.0281864 0.0260784 0.0240257 0.0220283 0.0200862 0.0181943 0.0163476 0.0145459 0.0127894 0.0110779 0.00941159 0.00779037 0.00621425 0.00475779 0.00349552 0.00242744 0.00155356 0.000873879 0.000388391 9.70977e-05 0 0 0.000103988 0.000415953 0.000935894 0.00166381 0.00259971 0.00374358 0.00509542 0.00665525 0.00834291 0.0100783 0.0118613 0.013692 0.0155705 0.0174966 0.0194704 0.0214919 0.0235666 0.0257 0.0278921 0.0301429 0.0324524 0.0348206 0.0372475 0.0397331 0.0422621 0.0448193 0.0474047 0.0500183 0.0526601 0.0553301 0.0580282 0.0607546 0.0634868 0.0662023 0.0689012 0.0715834 0.0742491 0.0768981 0.0795305 0.0821462 0.0847194 0.087224 0.0896601 0.0920277 0.0943267 0.0965571 0.098719 0.100812 0.102814 0.104701 0.106472 0.108129 0.109671 0.111098 0.11241 0.113607 0.114675 0.115601 0.116384 0.117025 0.117524 0.11788 0.118093 0.118165 0.118093 0.11788 0.117524 0.117025 0.116384 0.115601 0.114675 0.113607 0.11241 0.111098 0.109671 0.108129 0.106472 0.104701 0.102814 0.100812 0.098719 0.0965571 0.0943267 0.0920277 0.0896601 0.0872241 0.0847194 0.0821463 0.0795305 0.0768981 0.0742491 0.0715835 0.0689012 0.0662023 0.0634868 0.0607546 0.0580282 0.0553301 0.0526601 0.0500183 0.0474047 0.0448193 0.0422621 0.0397331 0.0372475 0.0348206 0.0324525 0.030143 0.0278922 0.0257001 0.0235667 0.021492 0.0194705 0.0174966 0.0155705 0.0136921 0.0118613 0.0100783 0.00834293 0.00665527 0.00509544 0.00374359 0.00259971 0.00166382 0.000935897 0.000415954 0.000103989 0 0 0.000110967 0.000443868 0.000998702 0.00177547 0.00277417 0.00399481 0.00543738 0.00710188 0.00890248 0.0107533 0.0126545 0.0146059 0.0166075 0.0186594 0.0207616 0.022914 0.0251226 0.0273933 0.0297261 0.0321209 0.0345778 0.0370968 0.0396779 0.0423211 0.0450101 0.0477289 0.0504773 0.0532554 0.0560631 0.0589006 0.0617677 0.0646645 0.0675672 0.0704521 0.0733192 0.0761684 0.0789998 0.0818134 0.0846091 0.087387 0.0901196 0.0927792 0.095366 0.09788 0.100321 0.102689 0.104985 0.107207 0.109332 0.111335 0.113216 0.114975 0.116611 0.118126 0.119519 0.120789 0.121923 0.122906 0.123738 0.124418 0.124947 0.125325 0.125552 0.125628 0.125552 0.125325 0.124947 0.124418 0.123738 0.122906 0.121923 0.120789 0.119519 0.118126 0.116611 0.114975 0.113216 0.111335 0.109332 0.107207 0.104985 0.102689 0.100321 0.09788 0.095366 0.0927792 0.0901196 0.087387 0.0846091 0.0818134 0.0789999 0.0761685 0.0733192 0.0704522 0.0675673 0.0646645 0.0617677 0.0589006 0.0560631 0.0532554 0.0504773 0.0477289 0.0450102 0.0423211 0.039678 0.0370969 0.0345779 0.032121 0.0297261 0.0273934 0.0251227 0.0229141 0.0207616 0.0186595 0.0166075 0.0146059 0.0126545 0.0107534 0.00890251 0.0071019 0.00543739 0.00399482 0.00277418 0.00177548 0.000998705 0.000443869 0.000110967 0 0 0.000118033 0.000472133 0.0010623 0.00188853 0.00295083 0.0042492 0.00578363 0.00755414 0.00946908 0.0114368 0.0134574 0.0155308 0.017657 0.019836 0.0220678 0.0243525 0.0266962 0.0291055 0.0315802 0.0341203 0.0367259 0.039397 0.0421335 0.0449355 0.0477858 0.0506673 0.0535799