<?xml version="1.0"?> 
<VTKFile type="StructuredGrid" version="0.1"> 
<StructuredGrid WholeExtent="0 128 0 128 0 0"> 
<Piece Extent="0 128 0 128 0 0"> 
<PointData>
<DataArray type="Float32" Name="u" format="ascii" NumberOfComponents="1"> 
0 0 0 0 0 0 0 0 0 0 0 0 0 0 0 0 0 0 0 0 0 0 0 0 0 0 0 0 0 0 0 0 0 0 0 0 0 0 0 0 0 0 0 0 0 0 0 0 0 0 0 0 0 0 0 0 0 0 0 0 0 0 0 0 0 0 0 0 0 0 0 0 0 0 0 0 0 0 0 0 0 0 0 0 0 0 0 0 0 0 0 0 0 0 0 0 0 0 0 0 0 0 0 0 0 0 0 0 0 0 0 0 0 0 0 0 0 0 0 0 0 0 0 0 0 0 0 0 0 0 2.68434e-07 1.07374e-06 2.4159e-06 4.29494e-06 6.71085e-06 9.66362e-06 1.31533e-05 1.71798e-05 2.1599e-05 2.62669e-05 3.11834e-05 3.63486e-05 4.17623e-05 4.74248e-05 5.33358e-05 5.94955e-05 6.5936e-05 7.26897e-05 7.97564e-05 8.71363e-05 9.48293e-05 0.000102835 0.000111155 0.000119787 0.000128686 0.000137806 0.000147147 0.000156709 0.000166492 0.000176495 0.000186719 0.000197164 0.000207731 0.000218321 0.000228934 0.00023957 0.000250229 0.000260911 0.000271617 0.000282345 0.000292967 0.000303353 0.000313504 0.000323419 0.000333098 0.000342542 0.00035175 0.000360722 0.000369337 0.000377473 0.000385129 0.000392305 0.000399002 0.00040522 0.000410958 0.000416217 0.000420922 0.000425 0.000428451 0.000431274 0.00043347 0.000435038 0.000435979 0.000436293 0.000435979 0.000435038 0.00043347 0.000431274 0.000428451 0.000425 0.000420922 0.000416217 0.000410958 0.00040522 0.000399002 0.000392305 0.000385129 0.000377473 0.000369337 0.000360722 0.00035175 0.000342542 0.000333098 0.000323419 0.000313504 0.000303353 0.000292967 0.000282345 0.000271617 0.000260911 0.000250229 0.00023957 0.000228934 0.000218321 0.000207731 0.000197164 0.000186719 0.000176495 0.000166492 0.000156709 0.000147147 0.000137807 0.000128686 0.000119787 0.000111155 0.000102836 9.48294e-05 8.71364e-05 7.97565e-05 7.26897e-05 6.59361e-05 5.94955e-05 5.33359e-05 4.74248e-05 4.17624e-05 3.63486e-05 3.11835e-05 2.6267e-05 2.15991e-05 1.71798e-05 1.31533e-05 9.66364e-06 6.71086e-06 4.29495e-06 2.41591e-06 1.07374e-06 2.68435e-07 0 0 1.07374e-06 4.29494e-06 9.66362e-06 1.71798e-05 2.68434e-05 3.86545e-05 5.2613e-05 6.87191e-05 8.63961e-05 0.000105068 0.000124734 0.000145394 0.000167049 0.000189699 0.000213343 0.000237982 0.000263744 0.000290759 0.000319026 0.000348545 0.000379317 0.000411342 0.000444619 0.000479148 0.000514745 0.000551226 0.00058859 0.000626837 0.000665967 0.00070598 0.000746877 0.000788657 0.000830924 0.000873284 0.000915736 0.00095828 0.00100092 0.00104365 0.00108647 0.00112938 0.00117187 0.00121341 0.00125401 0.00129367 0.00133239 0.00137017 0.001407 0.00144289 0.00147735 0.00150989 0.00154051 0.00156922 0.00159601 0.00162088 0.00164383 0.00166487 0.00168369 0.0017 0.0017138 0.0017251 0.00173388 0.00174015 0.00174392 0.00174517 0.00174392 0.00174015 0.00173388 0.0017251 0.0017138 0.0017 0.00168369 0.00166487 0.00164383 0.00162088 0.00159601 0.00156922 0.00154051 0.00150989 0.00147735 0.00144289 0.001407 0.00137017 0.00133239 0.00129367 0.00125401 0.00121341 0.00117187 0.00112938 0.00108647 0.00104365 0.00100092 0.00095828 0.000915736 0.000873284 0.000830925 0.000788657 0.000746877 0.00070598 0.000665967 0.000626837 0.00058859 0.000551226 0.000514746 0.000479148 0.000444619 0.000411342 0.000379318 0.000348546 0.000319026 0.000290759 0.000263744 0.000237982 0.000213343 0.000189699 0.00016705 0.000145395 0.000124734 0.000105068 8.63963e-05 6.87192e-05 5.26132e-05 3.86546e-05 2.68435e-05 1.71798e-05 9.66364e-06 4.29495e-06 1.07374e-06 0 0 2.4159e-06 9.66362e-06 2.17431e-05 3.86545e-05 6.03976e-05 8.69726e-05 0.000118379 0.000154618 0.000194391 0.000236402 0.000280651 0.000327137 0.000375861 0.000426823 0.000480022 0.000535459 0.000593424 0.000654207 0.000717808 0.000784227 0.000853464 0.000925519 0.00100039 0.00107808 0.00115818 0.00124026 0.00132433 0.00141038 0.00149843 0.00158846 0.00168047 0.00177448 0.00186958 0.00196489 0.00206041 0.00215613 0.00225206 0.0023482 0.00244455 0.0025411 0.0026367 0.00273018 0.00282153 0.00291077 0.00299788 0.00308288 0.00316575 0.0032465 0.00332403 0.00339725 0.00346616 0.00353075 0.00359102 0.00364698 0.00369862 0.00374595 0.0037883 0.003825 0.00385606 0.00388147 0.00390123 0.00391534 0.00392381 0.00392664 0.00392381 0.00391534 0.00390123 0.00388147 0.00385606 0.003825 0.0037883 0.00374595 0.00369862 0.00364698 0.00359102 0.00353075 0.00346616 0.00339725 0.00332403 0.0032465 0.00316575 0.00308288 0.00299788 0.00291077 0.00282153 0.00273018 0.0026367 0.0025411 0.00244455 0.0023482 0.00225206 0.00215613 0.00206041 0.00196489 0.00186958 0.00177448 0.00168047 0.00158846 0.00149843 0.00141038 0.00132433 0.00124026 0.00115818 0.00107808 0.00100039 0.00092552 0.000853465 0.000784227 0.000717808 0.000654208 0.000593425 0.00053546 0.000480023 0.000426824 0.000375862 0.000327138 0.000280651 0.000236403 0.000194392 0.000154618 0.00011838 8.69728e-05 6.03978e-05 3.86546e-05 2.17432e-05 9.66364e-06 2.41591e-06 0 0 4.29494e-06 1.71798e-05 3.86545e-05 6.87191e-05 0.000107374 0.000154618 0.000210452 0.000274876 0.000345584 0.000420271 0.000498935 0.000581577 0.000668198 0.000758796 0.000853373 0.000951927 0.00105498 0.00116303 0.0012761 0.00139418 0.00151727 0.00164537 0.00177847 0.00191659 0.00205898 0.0022049 0.00235436 0.00250735 0.00266387 0.00282392 0.00298751 0.00315463 0.0033237 0.00349314 0.00366294 0.00383312 0.00400367 0.00417458 0.00434586 0.00451752 0.00468747 0.00485365 0.00501606 0.0051747 0.00532957 0.00548067 0.005628 0.00577156 0.00590939 0.00603956 0.00616206 0.00627688 0.00638403 0.00648352 0.00657533 0.00665947 0.00673475 0.0068 0.00685521 0.00690038 0.00693552 0.00696061 0.00697567 0.00698069 0.00697567 0.00696061 0.00693552 0.00690038 0.00685521 0.0068 0.00673475 0.00665947 0.00657533 0.00648352 0.00638403 0.00627688 0.00616206 0.00603956 0.00590939 0.00577156 0.005628 0.00548067 0.00532957 0.0051747 0.00501606 0.00485365 0.00468747 0.00451752 0.00434586 0.00417458 0.00400367 0.00383312 0.00366295 0.00349314 0.0033237 0.00315463 0.00298751 0.00282392 0.00266387 0.00250735 0.00235436 0.0022049 0.00205898 0.00191659 0.00177848 0.00164537 0.00151727 0.00139418 0.0012761 0.00116304 0.00105498 0.000951929 0.000853374 0.000758797 0.000668199 0.000581578 0.000498936 0.000420272 0.000345585 0.000274877 0.000210453 0.000154618 0.000107374 6.87192e-05 3.86546e-05 1.71798e-05 4.29495e-06 0 0 6.71085e-06 2.68434e-05 6.03976e-05 0.000107374 0.000167771 0.00024159 0.000328831 0.000429494 0.000539976 0.000656673 0.000779586 0.000908714 0.00104406 0.00118562 0.00133339 0.00148739 0.0016484 0.00181724 0.00199391 0.00217841 0.00237073 0.00257089 0.00277887 0.00299468 0.00321716 0.00344516 0.00367869 0.00391773 0.00416229 0.00441238 0.00466798 0.00492911 0.00519328 0.00545803 0.00572335 0.00598925 0.00625573 0.00652278 0.00679041 0.00705862 0.00732417 0.00758382 0.00783759 0.00808547 0.00832745 0.00856354 0.00879374 0.00901806 0.00923343 0.00943681 0.00962821 0.00980763 0.00997505 0.0101305 0.010274 0.0104054 0.0105231 0.010625 0.0107113 0.0107818 0.0108367 0.010876 0.0108995 0.0109073 0.0108995 0.010876 0.0108367 0.0107818 0.0107113 0.010625 0.0105231 0.0104054 0.010274 0.0101305 0.00997505 0.00980763 0.00962821 0.00943681 0.00923343 0.00901806 0.00879374 0.00856354 0.00832745 0.00808547 0.00783759 0.00758382 0.00732417 0.00705862 0.00679041 0.00652278 0.00625573 0.00598925 0.00572335 0.00545803 0.00519328 0.00492911 0.00466798 0.00441238 0.00416229 0.00391773 0.00367869 0.00344516 0.00321716 0.00299468 0.00277887 0.00257089 0.00237073 0.00217841 0.00199391 0.00181724 0.0016484 0.00148739 0.0013334 0.00118562 0.00104406 0.000908716 0.000779587 0.000656674 0.000539977 0.000429495 0.000328832 0.000241591 0.000167772 0.000107374 6.03978e-05 2.68435e-05 6.71086e-06 0 0 9.66362e-06 3.86545e-05 8.69726e-05 0.000154618 0.00024159 0.00034789 0.000473517 0.000618472 0.000777565 0.000945609 0.0011226 0.00130855 0.00150344 0.00170729 0.00192009 0.00214184 0.0023737 0.00261683 0.00287123 0.00313691 0.00341386 0.00370208 0.00400157 0.00431233 0.00463271 0.00496103 0.00529731 0.00564153 0.0059937 0.00635382 0.00672189 0.00709791 0.00747832 0.00785956 0.00824163 0.00862452 0.00900825 0.00939281 0.00977819 0.0101644 0.0105468 0.0109207 0.0112861 0.0116431 0.0119915 0.0123315 0.012663 0.012986 0.0132961 0.013589 0.0138646 0.014123 0.0143641 0.0145879 0.0147945 0.0149838 0.0151532 0.0153 0.0154242 0.0155259 0.0156049 0.0156614 0.0156953 0.0157065 0.0156953 0.0156614 0.0156049 0.0155259 0.0154242 0.0153 0.0151532 0.0149838 0.0147945 0.0145879 0.0143641 0.014123 0.0138646 0.013589 0.0132961 0.012986 0.012663 0.0123315 0.0119915 0.0116431 0.0112861 0.0109207 0.0105468 0.0101644 0.0097782 0.00939281 0.00900825 0.00862452 0.00824163 0.00785956 0.00747832 0.00709791 0.00672189 0.00635382 0.0059937 0.00564153 0.00529731 0.00496104 0.00463271 0.00431234 0.00400157 0.00370208 0.00341386 0.00313691 0.00287123 0.00261683 0.0023737 0.00214184 0.00192009 0.00170729 0.00150345 0.00130855 0.00112261 0.000945611 0.000777567 0.000618473 0.000473519 0.000347891 0.000241591 0.000154618 8.69728e-05 3.86546e-05 9.66364e-06 0 0 1.31533e-05 5.2613e-05 0.000118379 0.000210452 0.000328831 0.000473517 0.00064451 0.000841809 0.00105835 0.00128708 0.00152799 0.00178108 0.00204636 0.00232381 0.00261345 0.00291528 0.00323086 0.00356179 0.00390806 0.00426968 0.00464664 0.00503894 0.00544658 0.00586957 0.00630563 0.00675252 0.00721022 0.00767875 0.00815809 0.00864826 0.00914924 0.00966105 0.0101788 0.0106977 0.0112178 0.0117389 0.0122612 0.0127847 0.0133092 0.0138349 0.0143554 0.0148643 0.0153617 0.0158475 0.0163218 0.0167845 0.0172357 0.0176754 0.0180975 0.0184962 0.0188713 0.0192229 0.0195511 0.0198558 0.0201369 0.0203946 0.0206252 0.020825 0.0209941 0.0211324 0.02124 0.0213169 0.021363 0.0213784 0.021363 0.0213169 0.02124 0.0211324 0.0209941 0.020825 0.0206252 0.0203946 0.0201369 0.0198558 0.0195511 0.0192229 0.0188713 0.0184962 0.0180975 0.0176754 0.0172357 0.0167845 0.0163218 0.0158475 0.0153617 0.0148643 0.0143554 0.0138349 0.0133092 0.0127847 0.0122612 0.0117389 0.0112178 0.0106977 0.0101788 0.00966105 0.00914924 0.00864826 0.0081581 0.00767875 0.00721023 0.00675252 0.00630563 0.00586957 0.00544658 0.00503894 0.00464664 0.00426968 0.00390807 0.0035618 0.00323087 0.00291528 0.00261346 0.00232382 0.00204636 0.00178108 0.00152799 0.00128708 0.00105835 0.000841811 0.000644511 0.000473519 0.000328832 0.000210453 0.00011838 5.26132e-05 1.31533e-05 0 0 1.71798e-05 6.87191e-05 0.000154618 0.000274876 0.000429494 0.000618472 0.000841809 0.00109951 0.00138234 0.00168108 0.00199574 0.00232631 0.00267279 0.00303518 0.00341349 0.00380771 0.0042199 0.00465214 0.00510441 0.00557672 0.00606908 0.00658147 0.0071139 0.00766637 0.00823593 0.00881962 0.00941744 0.0100294 0.0106555 0.0112957 0.01195 0.0126185 0.0132948 0.0139725 0.0146518 0.0153325 0.0160147 0.0166983 0.0173835 0.0180701 0.0187499 0.0194146 0.0200642 0.0206988 0.0213183 0.0219227 0.022512 0.0230862 0.0236376 0.0241582 0.0246482 0.0251075 0.0255361 0.0259341 0.0263013 0.0266379 0.026939 0.0272 0.0274208 0.0276015 0.0277421 0.0278424 0.0279027 0.0279227 0.0279027 0.0278424 0.0277421 0.0276015 0.0274208 0.0272 0.026939 0.0266379 0.0263013 0.0259341 0.0255361 0.0251075 0.0246482 0.0241582 0.0236376 0.0230862 0.022512 0.0219227 0.0213183 0.0206988 0.0200642 0.0194146 0.0187499 0.0180701 0.0173835 0.0166983 0.0160147 0.0153325 0.0146518 0.0139725 0.0132948 0.0126185 0.01195 0.0112957 0.0106555 0.0100294 0.00941744 0.00881962 0.00823593 0.00766637 0.0071139 0.00658147 0.00606908 0.00557673 0.00510442 0.00465214 0.00421991 0.00380771 0.0034135 0.00303519 0.0026728 0.00232631 0.00199574 0.00168109 0.00138234 0.00109951 0.000841811 0.000618473 0.000429495 0.000274877 0.000154618 6.87192e-05 1.71798e-05 0 0 2.15531e-05 8.62123e-05 0.000193978 0.000344849 0.000538827 0.000775911 0.0010561 0.0013794 0.00173418 0.00210884 0.00250336 0.00291775 0.00335202 0.00380615 0.00428016 0.00477403 0.00529036 0.00583174 0.00639815 0.00698961 0.00760612 0.00824766 0.00891425 0.00960588 0.0103189 0.0110495 0.0117978 0.0125637 0.0133473 0.0141485 0.0149674 0.0158039 0.0166501 0.0174982 0.0183481 0.0191998 0.0200534 0.0209087 0.0217659 0.0226249 0.0234754 0.024307 0.0251197 0.0259135 0.0266885 0.0274446 0.0281818 0.0289001 0.0295898 0.0302411 0.030854 0.0314286 0.0319647 0.0324625 0.0329218 0.0333428 0.0337195 0.034046 0.0343222 0.0345482 0.034724 0.0348495 0.0349249 0.03495 0.0349249 0.0348495 0.034724 0.0345482 0.0343222 0.034046 0.0337195 0.0333428 0.0329218 0.0324625 0.0319647 0.0314286 0.030854 0.0302411 0.0295898 0.0289001 0.0281818 0.0274446 0.0266885 0.0259135 0.0251197 0.024307 0.0234754 0.0226249 0.0217659 0.0209087 0.0200534 0.0191998 0.0183481 0.0174982 0.0166501 0.0158039 0.0149674 0.0141485 0.0133473 0.0125637 0.0117978 0.0110495 0.0103189 0.00960589 0.00891426 0.00824767 0.00760612 0.00698962 0.00639816 0.00583174 0.00529037 0.00477404 0.00428016 0.00380616 0.00335203 0.00291776 0.00250337 0.00210884 0.00173419 0.0013794 0.0010561 0.000775913 0.000538829 0.00034485 0.000193978 8.62126e-05 2.15531e-05 0 0 2.60832e-05 0.000104333 0.000234748 0.00041733 0.000652079 0.000938994 0.00127807 0.00166932 0.00209855 0.00255156 0.00302835 0.00352894 0.00405331 0.00460147 0.00517341 0.00576914 0.00639179 0.00704446 0.00772717 0.00843992 0.0091827 0.00995551 0.0107584 0.0115912 0.0124497 0.0133293 0.01423 0.0151519 0.0160949 0.017059 0.0180443 0.0190507 0.0200687 0.0210889 0.0221111 0.0231355 0.0241621 0.0251907 0.0262215 0.0272544 0.028277 0.0292769 0.030254 0.0312084 0.0321401 0.033049 0.0339352 0.0347987 0.0356277 0.0364106 0.0371474 0.0378379 0.0384824 0.0390806 0.0396328 0.0401388 0.0405915 0.0409838 0.0413158 0.0415875 0.0417987 0.0419496 0.0420402 0.0420704 0.0420402 0.0419496 0.0417987 0.0415875 0.0413158 0.0409838 0.0405915 0.0401388 0.0396328 0.0390806 0.0384824 0.0378379 0.0371474 0.0364106 0.0356277 0.0347987 0.0339352 0.033049 0.0321401 0.0312084 0.030254 0.0292769 0.028277 0.0272544 0.0262215 0.0251907 0.0241621 0.0231356 0.0221111 0.0210889 0.0200687 0.0190507 0.0180443 0.017059 0.0160949 0.0151519 0.01423 0.0133293 0.0124497 0.0115912 0.0107584 0.00995551 0.0091827 0.00843992 0.00772718 0.00704447 0.00639179 0.00576915 0.00517342 0.00460148 0.00405332 0.00352895 0.00302836 0.00255156 0.00209855 0.00166933 0.00127808 0.000938996 0.000652081 0.000417332 0.000234749 0.000104333 2.60832e-05 0 0 3.077e-05 0.00012308 0.00027693 0.00049232 0.000769249 0.00110772 0.00150773 0.00196928 0.00247543 0.00300924 0.00357072 0.00415986 0.00477666 0.00542113 0.00609326 0.00679305 0.00752417 0.00829032 0.00909147 0.00992764 0.0107988 0.011705 0.0126462 0.0136224 0.0146284 0.0156591 0.0167142 0.017794 0.0188984 0.0200273 0.0211809 0.022359 0.0235506 0.0247446 0.0259409 0.0271397 0.0283408 0.0295443 0.0307502 0.0319585 0.0331547 0.0343242 0.0354671 0.0365833 0.0376729 0.0387359 0.0397723 0.040782 0.0417513 0.0426668 0.0435282 0.0443356 0.0450891 0.0457886 0.0464341 0.0470256 0.0475549 0.0480136 0.0484017 0.0487193 0.0489663 0.0491427 0.0492485 0.0492838 0.0492485 0.0491427 0.0489663 0.0487193 0.0484017 0.0480136 0.0475549 0.0470256 0.0464341 0.0457886 0.0450891 0.0443356 0.0435282 0.0426668 0.0417513 0.040782 0.0397723 0.0387359 0.0376729 0.0365833 0.0354671 0.0343242 0.0331547 0.0319585 0.0307502 0.0295443 0.0283408 0.0271397 0.0259409 0.0247446 0.0235506 0.022359 0.0211809 0.0200273 0.0188984 0.017794 0.0167142 0.0156591 0.0146285 0.0136224 0.0126462 0.011705 0.0107988 0.00992764 0.00909148 0.00829032 0.00752418 0.00679306 0.00609326 0.00542114 0.00477667 0.00415987 0.00357073 0.00300925 0.00247544 0.00196928 0.00150773 0.00110772 0.000769251 0.000492321 0.000276931 0.00012308 3.07701e-05 0 0 3.56136e-05 0.000142454 0.000320522 0.000569817 0.000890339 0.00128209 0.00174506 0.00227927 0.00286483 0.0034819 0.00413046 0.00481052 0.00552208 0.00626513 0.00703969 0.00784574 0.00868753 0.0095693 0.010491 0.0114528 0.0124545 0.0134962 0.0145778 0.0156995 0.0168551 0.0180387 0.0192504 0.02049 0.0217577 0.0230534 0.024377 0.0257287 0.0270957 0.0284653 0.0298375 0.0312122 0.0325896 0.0339696 0.0353522 0.0367373 0.0381085 0.039449 0.040759 0.0420384 0.0432872 0.0445053 0.0456929 0.0468499 0.0479606 0.0490095 0.0499965 0.0509217 0.0517849 0.0525863 0.0533259 0.0540035 0.0546098 0.0551353 0.0555799 0.0559437 0.0562266 0.0564287 0.05655 0.0565904 0.05655 0.0564287 0.0562266 0.0559437 0.0555799 0.0551353 0.0546098 0.0540035 0.0533259 0.0525863 0.0517849 0.0509217 0.0499965 0.0490095 0.0479606 0.0468499 0.0456929 0.0445053 0.0432872 0.0420384 0.040759 0.0394491 0.0381085 0.0367373 0.0353522 0.0339696 0.0325896 0.0312122 0.0298375 0.0284653 0.0270957 0.0257287 0.0243771 0.0230534 0.0217577 0.02049 0.0192504 0.0180387 0.0168551 0.0156995 0.0145778 0.0134962 0.0124545 0.0114528 0.0104911 0.00956931 0.00868754 0.00784575 0.0070397 0.00626514 0.00552209 0.00481053 0.00413047 0.00348191 0.00286484 0.00227927 0.00174507 0.00128209 0.000890341 0.000569818 0.000320523 0.000142455 3.56136e-05 0 0 4.06139e-05 0.000162456 0.000365525 0.000649822 0.00101535 0.0014621 0.00199008 0.00259929 0.00326676 0.00396952 0.00470757 0.00548092 0.00628955 0.00713348 0.00801271 0.00892722 0.00988185 0.0108814 0.0119259 0.0130153 0.0141497 0.015329 0.0165532 0.0178223 0.0191297 0.0204684 0.0218385 0.02324 0.0246729 0.0261372 0.0276329 0.0291599 0.0307041 0.032251 0.0338007 0.0353532 0.0369084 0.0384664 0.0400272 0.0415908 0.0431384 0.0446514 0.0461298 0.0475735 0.0489827 0.0503572 0.0516972 0.0530025 0.0542556 0.0554389 0.0565524 0.057596 0.0585698 0.0594738 0.060308 0.0610723 0.0617562 0.0623489 0.0628504 0.0632607 0.0635798 0.0638078 0.0639445 0.0639901 0.0639445 0.0638078 0.0635798 0.0632607 0.0628504 0.0623489 0.0617562 0.0610723 0.060308 0.0594738 0.0585698 0.057596 0.0565524 0.0554389 0.0542556 0.0530025 0.0516972 0.0503572 0.0489827 0.0475735 0.0461298 0.0446514 0.0431384 0.0415908 0.0400272 0.0384664 0.0369084 0.0353532 0.0338007 0.032251 0.0307041 0.0291599 0.0276329 0.0261372 0.0246729 0.02324 0.0218385 0.0204684 0.0191297 0.0178223 0.0165532 0.015329 0.0141497 0.0130153 0.0119259 0.0108814 0.00988186 0.00892723 0.00801272 0.0071335 0.00628957 0.00548093 0.00470758 0.00396953 0.00326676 0.00259929 0.00199009 0.0014621 0.00101535 0.000649824 0.000365526 0.000162456 4.0614e-05 0 0 4.5771e-05 0.000183084 0.000411939 0.000732335 0.00114427 0.00164775 0.00224278 0.00292934 0.0036812 0.0044721 0.00530205 0.00617105 0.00707909 0.00802618 0.00901231 0.0100375 0.0111071 0.0122266 0.013396 0.0146153 0.0158844 0.0172034 0.0185723 0.0199911 0.0214521 0.0229479 0.0244785 0.0260438 0.0276439 0.0292787 0.0309483 0.0326526 0.0343758 0.0361018 0.0378307 0.0395626 0.0412973 0.0430349 0.0447754 0.0465188 0.0482444 0.0499312 0.0515793 0.0531888 0.0547596 0.0562917 0.0577851 0.0592398 0.0606363 0.0619549 0.0631957 0.0643587 0.0654438 0.0664511 0.0673805 0.0682322 0.0689941 0.0696544 0.0702131 0.0706702 0.0710258 0.0712798 0.0714321 0.0714829 0.0714321 0.0712798 0.0710258 0.0706702 0.0702131 0.0696544 0.0689941 0.0682321 0.0673805 0.0664511 0.0654438 0.0643587 0.0631957 0.0619549 0.0606363 0.0592398 0.0577851 0.0562917 0.0547596 0.0531888 0.0515793 0.0499312 0.0482444 0.0465188 0.0447754 0.0430349 0.0412973 0.0395626 0.0378308 0.0361018 0.0343758 0.0326526 0.0309483 0.0292787 0.0276439 0.0260438 0.0244785 0.0229479 0.0214521 0.0199911 0.0185723 0.0172034 0.0158844 0.0146153 0.013396 0.0122267 0.0111071 0.0100375 0.00901233 0.00802619 0.00707911 0.00617106 0.00530207 0.00447211 0.00368121 0.00292935 0.00224278 0.00164776 0.00114428 0.000732337 0.00041194 0.000183084 4.57711e-05 0 0 5.10848e-05 0.000204339 0.000459763 0.000817357 0.00127712 0.00183905 0.00250315 0.00326943 0.00410816 0.00498966 0.00591391 0.00688092 0.00789069 0.00894322 0.0100385 0.0111766 0.0123634 0.013605 0.0149014 0.0162527 0.0176587 0.0191195 0.0206352 0.0222056 0.0238225 0.0254774 0.0271705 0.0289016 0.0306708 0.032478 0.0343233 0.0362068 0.0381107 0.0400176 0.0419275 0.0438404 0.0457562 0.047675 0.0495968 0.0515216 0.0534264 0.0552885 0.0571077 0.0588841 0.0606178 0.0623086 0.0639566 0.0655618 0.0671026 0.0685576 0.0699266 0.0712097 0.0724069 0.0735181 0.0745435 0.0754829 0.0763234 0.0770518 0.0776681 0.0781724 0.0785646 0.0788447 0.0790128 0.0790689 0.0790128 0.0788447 0.0785646 0.0781724 0.0776681 0.0770518 0.0763234 0.0754829 0.0745435 0.0735181 0.0724069 0.0712097 0.0699266 0.0685576 0.0671026 0.0655618 0.0639566 0.0623086 0.0606178 0.0588841 0.0571077 0.0552885 0.0534264 0.0515216 0.0495968 0.047675 0.0457562 0.0438404 0.0419275 0.0400176 0.0381107 0.0362068 0.0343234 0.032478 0.0306708 0.0289016 0.0271705 0.0254774 0.0238225 0.0222056 0.0206352 0.0191195 0.0176587 0.0162527 0.0149015 0.013605 0.0123634 0.0111766 0.0100385 0.00894324 0.00789071 0.00688094 0.00591392 0.00498967 0.00410817 0.00326943 0.00250316 0.00183906 0.00127712 0.000817359 0.000459764 0.00020434 5.10849e-05 0 0 5.65554e-05 0.000226221 0.000508998 0.000904886 0.00141388 0.00203599 0.00277121 0.00361954 0.00454765 0.00552218 0.00654314 0.00761053 0.00872435 0.00988461 0.0110913 0.0123444 0.0136506 0.0150165 0.0164421 0.0179275 0.0194725 0.0210773 0.0227418 0.024466 0.0262408 0.0280569 0.0299144 0.0318132 0.0337535 0.0357351 0.037758 0.0398224 0.0419089 0.0439984 0.046091 0.0481866 0.0502851 0.0523867 0.0544913 0.056599 0.0586846 0.0607232 0.0627149 0.0646596 0.0665573 0.068408 0.0702117 0.0719685 0.0736547 0.0752468 0.0767449 0.078149 0.079459 0.0806749 0.0817968 0.0828247 0.0837442 0.0845411 0.0852154 0.0857671 0.0861962 0.0865027 0.0866866 0.0867479 0.0866866 0.0865027 0.0861962 0.0857671 0.0852154 0.0845411 0.0837442 0.0828247 0.0817968 0.0806749 0.079459 0.078149 0.0767449 0.0752468 0.0736547 0.0719685 0.0702117 0.068408 0.0665573 0.0646596 0.0627149 0.0607232 0.0586846 0.056599 0.0544913 0.0523867 0.0502851 0.0481866 0.046091 0.0439984 0.0419089 0.0398224 0.037758 0.0357351 0.0337535 0.0318132 0.0299144 0.0280569 0.0262408 0.024466 0.0227418 0.0210773 0.0194725 0.0179275 0.0164421 0.0150165 0.0136506 0.0123444 0.0110913 0.00988463 0.00872437 0.00761055 0.00654315 0.00552219 0.00454766 0.00361955 0.00277122 0.002036 0.00141389 0.000904888 0.000509 0.000226222 5.65555e-05 0 0 6.21753e-05 0.000248701 0.000559578 0.000994805 0.00155438 0.00223831 0.00304659 0.00397922 0.00499906 0.00606897 0.00718896 0.00835902 0.00957915 0.0108494 0.0121696 0.01354 0.0149677 0.01646 0.0180169 0.0196385 0.0213247 0.0230755 0.024891 0.026771 0.0287057 0.030685 0.032709 0.0347776 0.0368908 0.0390486 0.0412511 0.0434982 0.0457691 0.048043 0.05032 0.0525999 0.0548829 0.0571688 0.0594578 0.0617497 0.0640176 0.0662343 0.0683997 0.0705139 0.0725769 0.0745887 0.0765492 0.0784586 0.0802912 0.0820215 0.0836496 0.0851754 0.086599 0.0879203 0.0891394 0.0902562 0.0912553 0.0921211 0.0928538 0.0934532 0.0939194 0.0942525 0.0944523 0.0945189 0.0944523 0.0942525 0.0939194 0.0934532 0.0928538 0.0921211 0.0912553 0.0902562 0.0891394 0.0879203 0.086599 0.0851754 0.0836496 0.0820215 0.0802912 0.0784586 0.0765492 0.0745887 0.0725769 0.0705139 0.0683997 0.0662343 0.0640176 0.0617497 0.0594578 0.0571688 0.0548829 0.0525999 0.05032 0.048043 0.0457691 0.0434982 0.0412511 0.0390486 0.0368908 0.0347776 0.032709 0.030685 0.0287057 0.026771 0.024891 0.0230755 0.0213247 0.0196385 0.018017 0.01646 0.0149677 0.01354 0.0121697 0.0108494 0.00957917 0.00835904 0.00718898 0.00606899 0.00499907 0.00397923 0.0030466 0.00223832 0.00155439 0.000994807 0.000559579 0.000248702 6.21754e-05 0 0 6.79371e-05 0.000271748 0.000611434 0.00108699 0.00169843 0.00244574 0.00332892 0.00434798 0.00546182 0.00662936 0.00785059 0.00912552 0.0104542 0.0118365 0.0132725 0.0147622 0.0163135 0.0179344 0.0196248 0.0213847 0.0232141 0.025113 0.0270815 0.0291195 0.0312161 0.0333607 0.0355531 0.0377933 0.0400815 0.0424174 0.0448013 0.047233 0.0496901 0.0521502 0.0546132 0.0570792 0.0595481 0.06202 0.0644949 0.0669727 0.0694242 0.0718203 0.0741608 0.0764459 0.0786754 0.0808494 0.0829679 0.0850309 0.0870109 0.0888804 0.0906394 0.0922878 0.0938257 0.0952531 0.09657 0.0977763 0.0988554 0.0997907 0.100582 0.10123 0.101733 0.102093 0.102309 0.102381 0.102309 0.102093 0.101733 0.10123 0.100582 0.0997907 0.0988554 0.0977763 0.09657 0.0952531 0.0938257 0.0922878 0.0906394 0.0888804 0.0870109 0.0850309 0.0829679 0.0808494 0.0786754 0.0764459 0.0741608 0.0718203 0.0694242 0.0669727 0.0644949 0.06202 0.0595481 0.0570792 0.0546132 0.0521502 0.0496901 0.047233 0.0448013 0.0424175 0.0400815 0.0377934 0.0355531 0.0333607 0.0312162 0.0291195 0.0270815 0.025113 0.0232141 0.0213847 0.0196248 0.0179344 0.0163136 0.0147622 0.0132725 0.0118365 0.0104542 0.00912554 0.00785061 0.00662937 0.00546183 0.00434799 0.00332893 0.00244574 0.00169843 0.001087 0.000611436 0.000271749 6.79373e-05 0 0 7.38409e-05 0.000295363 0.000664568 0.00118145 0.00184602 0.00265827 0.0036182 0.00472582 0.00593592 0.00720333 0.00852804 0.00991005 0.0113494 0.012846 0.0143999 0.0160111 0.0176882 0.0194397 0.0212656 0.0231659 0.0251406 0.0271898 0.0293133 0.0315113 0.033772 0.0360838 0.0384467 0.0408606 0.0433255 0.0458415 0.0484086 0.0510267 0.0536718 0.0563198 0.0589706 0.0616243 0.0642809 0.0669403 0.0696026 0.0722678 0.0749045 0.0774813 0.0799983 0.0824554 0.0848527 0.0871902 0.0894678 0.0916855 0.0938139 0.0958235 0.0977142 0.0994861 0.101139 0.102673 0.104089 0.105385 0.106545 0.10755 0.1084 0.109096 0.109637 0.110024 0.110256 0.110333 0.110256 0.110024 0.109637 0.109096 0.1084 0.10755 0.106545 0.105385 0.104089 0.102673 0.101139 0.0994861 0.0977142 0.0958235 0.0938139 0.0916855 0.0894678 0.0871902 0.0848527 0.0824554 0.0799983 0.0774813 0.0749045 0.0722678 0.0696026 0.0669403 0.0642809 0.0616243 0.0589707 0.0563198 0.0536719 0.0510268 0.0484086 0.0458415 0.0433255 0.0408606 0.0384467 0.0360838 0.0337721 0.0315113 0.0293134 0.0271898 0.0251406 0.0231659 0.0212656 0.0194397 0.0176882 0.0160111 0.0143999 0.012846 0.0113494 0.00991007 0.00852805 0.00720334 0.00593594 0.00472583 0.00361821 0.00265828 0.00184603 0.00118146 0.00066457 0.000295364 7.38411e-05 0 0 7.98865e-05 0.000319546 0.000718979 0.00127818 0.00199716 0.00287592 0.00391444 0.00511274 0.00642137 0.00779088 0.00922129 0.0107126 0.0122648 0.0138778 0.0155518 0.0172866 0.0190916 0.0209758 0.0229394 0.0249822 0.0271044 0.0293058 0.0315866 0.0339466 0.0363734 0.0388545 0.0413897 0.0439792 0.0466229 0.0493209 0.0520731 0.0548795 0.0577144 0.060552 0.0633924 0.0662354 0.0690812 0.0719298 0.0747811 0.0776351 0.0804583 0.0832173 0.0859121 0.0885426 0.0911089 0.093611 0.0960488 0.0984224 0.1007 0.102851 0.104874 0.10677 0.108539 0.110181 0.111695 0.113082 0.114323 0.115398 0.116308 0.117053 0.117632 0.118045 0.118294 0.118376 0.118294 0.118045 0.117632 0.117053 0.116308 0.115398 0.114323 0.113082 0.111695 0.110181 0.108539 0.10677 0.104874 0.102851 0.1007 0.0984224 0.0960488 0.093611 0.0911089 0.0885426 0.0859121 0.0832173 0.0804583 0.0776351 0.0747811 0.0719298 0.0690813 0.0662354 0.0633924 0.060552 0.0577144 0.0548795 0.0520731 0.0493209 0.046623 0.0439792 0.0413897 0.0388545 0.0363734 0.0339466 0.0315866 0.0293058 0.0271044 0.0249822 0.0229394 0.0209759 0.0190916 0.0172867 0.0155518 0.0138779 0.0122648 0.0107126 0.00922131 0.0077909 0.00642138 0.00511275 0.00391445 0.00287592 0.00199717 0.00127819 0.000718981 0.000319547 7.98867e-05 0 0 8.60741e-05 0.000344296 0.000774667 0.00137719 0.00215185 0.00309867 0.00421763 0.00550874 0.00691816 0.00839203 0.00993036 0.0115331 0.0132004 0.0149321 0.0167282 0.0185888 0.0205238 0.0225429 0.0246462 0.0268336 0.0291053 0.0314611 0.0339011 0.0364253 0.0390203 0.0416726 0.0443823 0.0471493 0.0499737 0.0528555 0.0557947 0.0587912 0.0618177 0.0648467 0.0678783 0.0709124 0.0739491 0.0769884 0.0800302 0.0830745 0.0860858 0.0890284 0.0919023 0.0947075 0.097444 0.100112 0.102711 0.105241 0.10767 0.109962 0.112119 0.11414 0.116026 0.117776 0.11939 0.120868 0.122191 0.123337 0.124306 0.1251 0.125717 0.126158 0.126422 0.12651 0.126422 0.126158 0.125717 0.1251 0.124306 0.123337 0.122191 0.120868 0.11939 0.117776 0.116026 0.11414 0.112119 0.109962 0.10767 0.105241 0.102711 0.100112 0.097444 0.0947075 0.0919023 0.0890284 0.0860858 0.0830745 0.0800302 0.0769884 0.0739491 0.0709124 0.0678783 0.0648467 0.0618177 0.0587912 0.0557947 0.0528555 0.0499738 0.0471493 0.0443823 0.0416726 0.0390203 0.0364253 0.0339011 0.0314611 0.0291053 0.0268337 0.0246462 0.0225429 0.0205238 0.0185889 0.0167283 0.0149321 0.0132004 0.0115332 0.00993038 0.00839205 0.00691817 0.00550876 0.00421764 0.00309868 0.00215186 0.00137719 0.000774669 0.000344297 8.60743e-05 0 0 9.24036e-05 0.000369614 0.000831632 0.00147846 0.00231009 0.00332653 0.00452778 0.00591383 0.00742629 0.00900676 0.0106552 0.0123717 0.0141562 0.0160087 0.0179292 0.0199177 0.0219847 0.0241408 0.026386 0.0287202 0.0311434 0.0336557 0.036257 0.0389474 0.0417126 0.0445382 0.0474243 0.0503709 0.0533779 0.0564454 0.0595734 0.0627619 0.0659818 0.069204 0.0724285 0.0756554 0.0788845 0.0821161 0.0853499 0.0885861 0.0917869 0.0949144 0.0979688 0.10095 0.103858 0.106693 0.109454 0.112143 0.114722 0.117158 0.119449 0.121596 0.123599 0.125458 0.127172 0.128743 0.130147 0.131364 0.132394 0.133237 0.133892 0.134361 0.134641 0.134735 0.134641 0.134361 0.133892 0.133237 0.132394 0.131364 0.130147 0.128743 0.127172 0.125458 0.123599 0.121596 0.119449 0.117158 0.114722 0.112143 0.109454 0.106693 0.103858 0.10095 0.0979688 0.0949144 0.0917869 0.0885861 0.0853499 0.0821161 0.0788845 0.0756554 0.0724285 0.069204 0.0659818 0.0627619 0.0595734 0.0564454 0.0533779 0.0503709 0.0474243 0.0445382 0.0417126 0.0389474 0.036257 0.0336557 0.0311434 0.0287202 0.026386 0.0241409 0.0219848 0.0199177 0.0179292 0.0160087 0.0141562 0.0123717 0.0106553 0.00900678 0.00742631 0.00591385 0.00452779 0.00332654 0.0023101 0.00147846 0.000831634 0.000369615 9.24038e-05 0 0 9.8875e-05 0.0003955 0.000889875 0.001582 0.00247188 0.0035595 0.00484488 0.006328 0.00794577 0.00963508 0.0113959 0.0132283 0.0151322 0.0171077 0.0191547 0.0212732 0.0234745 0.0257697 0.0281588 0.0306418 0.0332187 0.0358895 0.0386543 0.0415129 0.0444503 0