<?xml version="1.0"?> 
<VTKFile type="StructuredGrid" version="0.1"> 
<StructuredGrid WholeExtent="0 128 0 128 0 0"> 
<Piece Extent="0 128 0 128 0 0"> 
<PointData>
<DataArray type="Float32" Name="u" format="ascii" NumberOfComponents="1"> 
0 0 0 0 0 0 0 0 0 0 0 0 0 0 0 0 0 0 0 0 0 0 0 0 0 0 0 0 0 0 0 0 0 0 0 0 0 0 0 0 0 0 0 0 0 0 0 0 0 0 0 0 0 0 0 0 0 0 0 0 0 0 0 0 0 0 0 0 0 0 0 0 0 0 0 0 0 0 0 0 0 0 0 0 0 0 0 0 0 0 0 0 0 0 0 0 0 0 0 0 0 0 0 0 0 0 0 0 0 0 0 0 0 0 0 0 0 0 0 0 0 0 0 0 0 0 0 0 0 0 2.93268e-07 1.17307e-06 2.63941e-06 4.69229e-06 7.33171e-06 1.05577e-05 1.43701e-05 1.87692e-05 2.34997e-05 2.83067e-05 3.31903e-05 3.81503e-05 4.31868e-05 4.82998e-05 5.34893e-05 5.87553e-05 6.40945e-05 6.95039e-05 7.49834e-05 8.05329e-05 8.61525e-05 9.18422e-05 9.7602e-05 0.000103432 0.000109289 0.00011513 0.000120955 0.000126763 0.000132556 0.000138333 0.000144094 0.000149839 0.000155528 0.000161122 0.000166619 0.000172022 0.000177328 0.000182539 0.000187654 0.000192674 0.000197563 0.000202289 0.000206851 0.000211249 0.000215483 0.000219553 0.000223459 0.000227201 0.000230753 0.000234091 0.000237213 0.000240121 0.000242814 0.000245291 0.000247554 0.000249601 0.00025142 0.000252997 0.00025433 0.000255422 0.00025627 0.000256877 0.00025724 0.000257362 0.00025724 0.000256877 0.00025627 0.000255422 0.00025433 0.000252997 0.00025142 0.000249601 0.000247554 0.000245291 0.000242814 0.000240121 0.000237214 0.000234091 0.000230753 0.000227201 0.000223459 0.000219553 0.000215483 0.000211249 0.000206851 0.000202289 0.000197563 0.000192674 0.000187654 0.000182539 0.000177328 0.000172022 0.000166619 0.000161122 0.000155528 0.000149839 0.000144094 0.000138333 0.000132556 0.000126764 0.000120955 0.00011513 0.000109289 0.000103432 9.76021e-05 9.18423e-05 8.61526e-05 8.0533e-05 7.49835e-05 6.9504e-05 6.40947e-05 5.87554e-05 5.34894e-05 4.82999e-05 4.31869e-05 3.81504e-05 3.31904e-05 2.83068e-05 2.34998e-05 1.87692e-05 1.43702e-05 1.05577e-05 7.33173e-06 4.69231e-06 2.63942e-06 1.17308e-06 2.93269e-07 0 0 1.17307e-06 4.69229e-06 1.05577e-05 1.87692e-05 2.93268e-05 4.22306e-05 5.74806e-05 7.50767e-05 9.39988e-05 0.000113227 0.000132761 0.000152601 0.000172747 0.000193199 0.000213957 0.000235021 0.000256378 0.000278016 0.000299933 0.000322132 0.00034461 0.000367369 0.000390408 0.000413727 0.000437155 0.000460519 0.000483818 0.000507054 0.000530225 0.000553333 0.000576377 0.000599356 0.000622113 0.000644486 0.000666478 0.000688086 0.000709312 0.000730155 0.000750616 0.000770694 0.000790253 0.000809157 0.000827404 0.000844995 0.000861931 0.000878211 0.000893835 0.000908803 0.000923013 0.000936364 0.000948854 0.000960484 0.000971255 0.000981165 0.000990215 0.000998406 0.00100568 0.00101199 0.00101732 0.00102169 0.00102508 0.00102751 0.00102896 0.00102945 0.00102896 0.00102751 0.00102508 0.00102169 0.00101732 0.00101199 0.00100568 0.000998406 0.000990215 0.000981165 0.000971255 0.000960484 0.000948854 0.000936364 0.000923014 0.000908803 0.000893835 0.000878211 0.000861931 0.000844996 0.000827404 0.000809157 0.000790254 0.000770695 0.000750616 0.000730156 0.000709312 0.000688086 0.000666478 0.000644487 0.000622113 0.000599357 0.000576377 0.000553333 0.000530226 0.000507054 0.000483819 0.000460519 0.000437155 0.000413728 0.000390408 0.000367369 0.00034461 0.000322132 0.000299934 0.000278016 0.000256379 0.000235022 0.000213958 0.0001932 0.000172748 0.000152602 0.000132761 0.000113227 9.39991e-05 7.50769e-05 5.74808e-05 4.22308e-05 2.93269e-05 1.87692e-05 1.05577e-05 4.69231e-06 1.17308e-06 0 0 2.63941e-06 1.05577e-05 2.37547e-05 4.22306e-05 6.59854e-05 9.50189e-05 0.000129331 0.000168923 0.000211497 0.000254761 0.000298712 0.000343353 0.000388681 0.000434698 0.000481404 0.000528797 0.000576851 0.000625535 0.00067485 0.000724796 0.000775372 0.00082658 0.000878418 0.000930886 0.000983599 0.00103617 0.00108859 0.00114087 0.00119301 0.001245 0.00129685 0.00134855 0.00139975 0.00145009 0.00149957 0.00154819 0.00159595 0.00164285 0.00168889 0.00173406 0.00177807 0.0018206 0.00186166 0.00190124 0.00193934 0.00197597 0.00201113 0.00204481 0.00207678 0.00210682 0.00213492 0.00216109 0.00218532 0.00220762 0.00222798 0.00224641 0.00226278 0.00227697 0.00228897 0.00229879 0.00230643 0.00231189 0.00231516 0.00231626 0.00231516 0.00231189 0.00230643 0.00229879 0.00228897 0.00227697 0.00226278 0.00224641 0.00222798 0.00220762 0.00218532 0.00216109 0.00213492 0.00210682 0.00207678 0.00204481 0.00201113 0.00197597 0.00193935 0.00190124 0.00186166 0.0018206 0.00177807 0.00173406 0.00168889 0.00164285 0.00159595 0.00154819 0.00149958 0.0014501 0.00139975 0.00134855 0.00129685 0.001245 0.00119301 0.00114087 0.00108859 0.00103617 0.0009836 0.000930887 0.000878419 0.000826581 0.000775373 0.000724797 0.000674851 0.000625536 0.000576852 0.000528799 0.000481405 0.000434699 0.000388682 0.000343353 0.000298713 0.000254761 0.000211498 0.000168923 0.000129332 9.50192e-05 6.59856e-05 4.22308e-05 2.37548e-05 1.05577e-05 2.63942e-06 0 0 4.69229e-06 1.87692e-05 4.22306e-05 7.50767e-05 0.000117307 0.000168923 0.000229922 0.000300307 0.000375995 0.000452908 0.000531044 0.000610404 0.000690989 0.000772797 0.000855829 0.000940084 0.00102551 0.00111206 0.00119973 0.00128853 0.00137844 0.00146947 0.00156163 0.00165491 0.00174862 0.00184207 0.00193527 0.00202822 0.0021209 0.00221333 0.00230551 0.00239743 0.00248845 0.00257795 0.00266591 0.00275234 0.00283725 0.00292062 0.00300246 0.00308278 0.00316101 0.00323663 0.00330962 0.00337998 0.00344772 0.00351284 0.00357534 0.00363521 0.00369205 0.00374545 0.00379542 0.00384194 0.00388502 0.00392466 0.00396086 0.00399362 0.00402272 0.00404794 0.00406929 0.00408675 0.00410033 0.00411003 0.00411585 0.00411779 0.00411585 0.00411003 0.00410033 0.00408675 0.00406929 0.00404794 0.00402272 0.00399362 0.00396086 0.00392466 0.00388502 0.00384194 0.00379542 0.00374546 0.00369205 0.00363521 0.00357534 0.00351284 0.00344772 0.00337998 0.00330962 0.00323663 0.00316101 0.00308278 0.00300247 0.00292062 0.00283725 0.00275235 0.00266591 0.00257795 0.00248845 0.00239743 0.00230551 0.00221333 0.0021209 0.00202822 0.00193527 0.00184208 0.00174862 0.00165491 0.00156163 0.00146948 0.00137844 0.00128853 0.00119974 0.00111206 0.00102551 0.000940086 0.00085583 0.000772798 0.00069099 0.000610406 0.000531046 0.000452909 0.000375996 0.000300308 0.000229923 0.000168923 0.000117308 7.50769e-05 4.22308e-05 1.87692e-05 4.69231e-06 0 0 7.33171e-06 2.93268e-05 6.59854e-05 0.000117307 0.000183293 0.000263941 0.000359254 0.000469229 0.000587493 0.000707668 0.000829757 0.000953757 0.00107967 0.00120749 0.00133723 0.00146888 0.00160236 0.0017376 0.00187458 0.00201332 0.00215381 0.00229605 0.00244005 0.0025858 0.00273222 0.00287824 0.00302386 0.00316909 0.00331391 0.00345833 0.00360235 0.00374598 0.0038882 0.00402804 0.00416548 0.00430054 0.0044332 0.00456347 0.00469135 0.00481684 0.00493908 0.00505723 0.00517127 0.00528122 0.00538707 0.00548882 0.00558647 0.00568002 0.00576883 0.00585227 0.00593034 0.00600303 0.00607034 0.00613228 0.00618885 0.00624003 0.00628551 0.00632491 0.00635826 0.00638554 0.00640676 0.00642192 0.00643101 0.00643404 0.00643101 0.00642192 0.00640676 0.00638554 0.00635826 0.00632491 0.00628551 0.00624004 0.00618885 0.00613228 0.00607034 0.00600303 0.00593034 0.00585227 0.00576883 0.00568002 0.00558647 0.00548882 0.00538707 0.00528122 0.00517128 0.00505723 0.00493909 0.00481684 0.00469135 0.00456347 0.0044332 0.00430054 0.00416549 0.00402804 0.00388821 0.00374598 0.00360236 0.00345833 0.00331391 0.00316909 0.00302387 0.00287824 0.00273222 0.0025858 0.00244005 0.00229606 0.00215382 0.00201332 0.00187459 0.0017376 0.00160237 0.00146888 0.00133724 0.0012075 0.00107967 0.00095376 0.000829759 0.000707671 0.000587494 0.000469231 0.000359255 0.000263942 0.000183293 0.000117308 6.59856e-05 2.93269e-05 7.33173e-06 0 0 1.05577e-05 4.22306e-05 9.50189e-05 0.000168923 0.000263941 0.000380076 0.000517325 0.00067569 0.000845989 0.00101904 0.00119485 0.00137341 0.00155472 0.00173879 0.00192561 0.00211519 0.0023074 0.00250214 0.0026994 0.00289918 0.00310149 0.00330632 0.00351367 0.00372355 0.00393439 0.00414467 0.00435436 0.00456348 0.00477203 0.00498 0.00518739 0.00539421 0.00559901 0.00580038 0.0059983 0.00619277 0.00638381 0.0065714 0.00675555 0.00693625 0.00711228 0.00728241 0.00744663 0.00760496 0.00775738 0.0079039 0.00804451 0.00817923 0.00830712 0.00842727 0.00853969 0.00864436 0.00874129 0.00883048 0.00891194 0.00898565 0.00905113 0.00910788 0.00915589 0.00919518 0.00922574 0.00924756 0.00926066 0.00926502 0.00926066 0.00924756 0.00922574 0.00919518 0.00915589 0.00910788 0.00905113 0.00898565 0.00891194 0.00883049 0.00874129 0.00864436 0.00853969 0.00842727 0.00830712 0.00817923 0.00804452 0.0079039 0.00775738 0.00760496 0.00744664 0.00728241 0.00711228 0.00693625 0.00675555 0.0065714 0.00638381 0.00619278 0.0059983 0.00580038 0.00559902 0.00539421 0.00518739 0.00498 0.00477203 0.00456349 0.00435437 0.00414467 0.0039344 0.00372355 0.00351367 0.00330632 0.00310149 0.00289919 0.00269941 0.00250215 0.00230741 0.00211519 0.00192562 0.0017388 0.00155473 0.00137341 0.00119485 0.00101905 0.000845992 0.000675692 0.000517327 0.000380077 0.000263942 0.000168923 9.50192e-05 4.22308e-05 1.05577e-05 0 0 1.43701e-05 5.74806e-05 0.000129331 0.000229922 0.000359254 0.000517325 0.000704137 0.000919689 0.00115149 0.00138703 0.00162632 0.00186936 0.00211615 0.00236669 0.00262098 0.00287901 0.00314063 0.00340569 0.00367418 0.00394611 0.00422147 0.00450027 0.0047825 0.00506816 0.00535515 0.00564135 0.00592677 0.00621141 0.00649526 0.00677833 0.00706061 0.00734211 0.00762088 0.00789496 0.00816435 0.00842905 0.00868907 0.0089444 0.00919505 0.00944101 0.0096806 0.00991217 0.0101357 0.0103512 0.0105587 0.0107581 0.0109495 0.0111328 0.0113069 0.0114705 0.0116235 0.0117659 0.0118979 0.0120193 0.0121301 0.0122305 0.0123196 0.0123968 0.0124622 0.0125157 0.0125573 0.012587 0.0126048 0.0126107 0.0126048 0.012587 0.0125573 0.0125157 0.0124622 0.0123968 0.0123196 0.0122305 0.0121301 0.0120193 0.0118979 0.0117659 0.0116235 0.0114705 0.0113069 0.0111328 0.0109495 0.0107581 0.0105587 0.0103512 0.0101357 0.00991217 0.00968061 0.00944101 0.00919505 0.00894441 0.00868908 0.00842906 0.00816435 0.00789496 0.00762088 0.00734212 0.00706062 0.00677833 0.00649527 0.00621141 0.00592678 0.00564136 0.00535515 0.00506816 0.0047825 0.00450027 0.00422148 0.00394612 0.00367419 0.0034057 0.00314064 0.00287901 0.00262098 0.0023667 0.00211616 0.00186937 0.00162633 0.00138703 0.00115149 0.000919692 0.000704139 0.000517327 0.000359255 0.000229923 0.000129332 5.74808e-05 1.43702e-05 0 0 1.87692e-05 7.50767e-05 0.000168923 0.000300307 0.000469229 0.00067569 0.000919689 0.00120123 0.00150398 0.00181163 0.00212418 0.00244162 0.00276395 0.00309119 0.00342331 0.00376034 0.00410205 0.00444825 0.00479893 0.0051541 0.00551376 0.0058779 0.00624653 0.00661964 0.00699448 0.0073683 0.00774109 0.00811286 0.00848361 0.00885333 0.00922203 0.0095897 0.0099538 0.0103118 0.0106636 0.0110094 0.011349 0.0116825 0.0120099 0.0123311 0.0126441 0.0129465 0.0132385 0.0135199 0.0137909 0.0140514 0.0143014 0.0145408 0.0147682 0.0149818 0.0151817 0.0153677 0.0155401 0.0156986 0.0158434 0.0159745 0.0160909 0.0161918 0.0162771 0.016347 0.0164013 0.0164401 0.0164634 0.0164712 0.0164634 0.0164401 0.0164013 0.016347 0.0162771 0.0161918 0.0160909 0.0159745 0.0158434 0.0156986 0.0155401 0.0153678 0.0151817 0.0149818 0.0147682 0.0145409 0.0143014 0.0140514 0.0137909 0.0135199 0.0132385 0.0129465 0.0126441 0.0123311 0.0120099 0.0116825 0.011349 0.0110094 0.0106636 0.0103118 0.00995381 0.00958971 0.00922203 0.00885333 0.00848361 0.00811287 0.0077411 0.0073683 0.00699449 0.00661964 0.00624653 0.00587791 0.00551377 0.00515411 0.00479894 0.00444826 0.00410206 0.00376035 0.00342332 0.00309119 0.00276396 0.00244162 0.00212418 0.00181164 0.00150399 0.00120123 0.000919692 0.000675692 0.000469231 0.000300308 0.000168923 7.50769e-05 1.87692e-05 0 0 2.34896e-05 9.39585e-05 0.000211407 0.000375834 0.000587241 0.000845627 0.00115099 0.00150334 0.00188222 0.00226721 0.00265831 0.00305551 0.00345882 0.00386823 0.00428374 0.00470536 0.00513283 0.00556591 0.00600459 0.00644887 0.00689876 0.00735426 0.00781535 0.00828205 0.00875091 0.00921849 0.00968478 0.0101498 0.0106135 0.011076 0.0115371 0.011997 0.0124524 0.0129001 0.0133402 0.0137727 0.0141974 0.0146146 0.015024 0.0154258 0.0158172 0.0161955 0.0165607 0.0169127 0.0172517 0.0175775 0.0178901 0.0181897 0.0184741 0.0187412 0.0189912 0.0192239 0.0194395 0.0196378 0.0198189 0.0199828 0.0201284 0.0202546 0.0203614 0.0204487 0.0205167 0.0205652 0.0205943 0.020604 0.0205943 0.0205652 0.0205167 0.0204487 0.0203614 0.0202546 0.0201284 0.0199828 0.0198189 0.0196378 0.0194395 0.0192239 0.0189912 0.0187412 0.0184741 0.0181897 0.0178901 0.0175775 0.0172517 0.0169128 0.0165607 0.0161955 0.0158173 0.0154258 0.015024 0.0146146 0.0141975 0.0137727 0.0133402 0.0129001 0.0124524 0.011997 0.0115371 0.011076 0.0106135 0.0101498 0.00968479 0.0092185 0.00875092 0.00828206 0.00781536 0.00735426 0.00689877 0.00644888 0.0060046 0.00556592 0.00513284 0.00470537 0.00428375 0.00386823 0.00345882 0.00305552 0.00265832 0.00226722 0.00188223 0.00150334 0.001151 0.00084563 0.000587243 0.000375835 0.000211407 9.39588e-05 2.34897e-05 0 0 2.82665e-05 0.000113066 0.000254398 0.000452263 0.000706661 0.00101759 0.00138506 0.00180905 0.00226496 0.00272815 0.00319862 0.00367638 0.00416142 0.00465375 0.00515336 0.00566026 0.00617415 0.00669476 0.00722209 0.00775613 0.0082969 0.00884437 0.00939856 0.00995947 0.010523 0.0110849 0.0116453 0.0122041 0.0127614 0.0133172 0.0138714 0.014424 0.0149713 0.0155093 0.0160382 0.0165579 0.0170683 0.0175696 0.0180616 0.0185444 0.0190148 0.0194694 0.0199082 0.0203313 0.0207385 0.02113 0.0215058 0.0218657 0.0222075 0.0225285 0.0228289 0.0231086 0.0233676 0.0236059 0.0238236 0.0240205 0.0241955 0.0243471 0.0244754 0.0245804 0.024662 0.0247204 0.0247554 0.024767 0.0247554 0.0247204 0.024662 0.0245804 0.0244754 0.0243471 0.0241955 0.0240205 0.0238236 0.0236059 0.0233676 0.0231086 0.0228289 0.0225285 0.0222075 0.0218657 0.0215058 0.02113 0.0207385 0.0203313 0.0199082 0.0194694 0.0190148 0.0185445 0.0180616 0.0175696 0.0170683 0.0165579 0.0160382 0.0155093 0.0149713 0.014424 0.0138714 0.0133172 0.0127614 0.0122042 0.0116453 0.0110849 0.010523 0.00995948 0.00939858 0.00884438 0.00829691 0.00775615 0.0072221 0.00669477 0.00617416 0.00566027 0.00515337 0.00465376 0.00416143 0.00367639 0.00319863 0.00272816 0.00226497 0.00180906 0.00138506 0.0010176 0.000706664 0.000452265 0.000254399 0.000113066 2.82665e-05 0 0 3.30996e-05 0.000132398 0.000297897 0.000529594 0.000827491 0.00119159 0.00162188 0.00211838 0.00265219 0.00319443 0.00374511 0.00430423 0.00487177 0.00544776 0.00603217 0.00662503 0.00722601 0.00783481 0.00845144 0.00907588 0.00970815 0.0103482 0.0109962 0.0116519 0.0123106 0.0129676 0.0136227 0.0142759 0.0149274 0.015577 0.0162248 0.0168708 0.0175104 0.0181394 0.0187575 0.0193649 0.0199616 0.0205475 0.0211226 0.021687 0.0222367 0.0227681 0.023281 0.0237754 0.0242515 0.0247091 0.0251483 0.025569 0.0259684 0.0263437 0.0266948 0.0270217 0.0273244 0.027603 0.0278574 0.0280876 0.0282921 0.0284694 0.0286193 0.028742 0.0288375 0.0289056 0.0289465 0.0289602 0.0289465 0.0289056 0.0288375 0.028742 0.0286193 0.0284694 0.0282921 0.0280876 0.0278574 0.027603 0.0273244 0.0270217 0.0266948 0.0263437 0.0259684 0.025569 0.0251483 0.0247091 0.0242515 0.0237755 0.023281 0.0227681 0.0222367 0.021687 0.0211226 0.0205475 0.0199616 0.0193649 0.0187575 0.0181394 0.0175104 0.0168708 0.0162248 0.015577 0.0149274 0.0142759 0.0136227 0.0129676 0.0123107 0.0116519 0.0109962 0.0103483 0.00970817 0.0090759 0.00845145 0.00783482 0.00722602 0.00662504 0.00603219 0.00544777 0.00487179 0.00430424 0.00374512 0.00319444 0.00265219 0.00211838 0.00162189 0.00119159 0.000827493 0.000529596 0.000297898 0.000132399 3.30997e-05 0 0 3.79891e-05 0.000151957 0.000341902 0.000607826 0.000949728 0.00136761 0.00186147 0.0024313 0.00304391 0.00366607 0.00429778 0.00493905 0.00558987 0.00625025 0.00692018 0.00759967 0.0082884 0.00898605 0.00969262 0.0104081 0.0111325 0.0118659 0.0126082 0.0133593 0.0141139 0.0148664 0.0156168 0.0163651 0.0171113 0.0178554 0.0185974 0.0193372 0.0200699 0.0207902 0.0214982 0.0221939 0.0228772 0.0235483 0.024207 0.0248534 0.025483 0.0260916 0.026679 0.0272453 0.0277905 0.0283146 0.0288176 0.0292995 0.029757 0.0301868 0.0305889 0.0309633 0.03131 0.0316291 0.0319204 0.0321841 0.0324183 0.0326213 0.0327931 0.0329336 0.0330429 0.033121 0.0331678 0.0331835 0.0331678 0.033121 0.0330429 0.0329336 0.0327931 0.0326213 0.0324183 0.0321841 0.0319204 0.0316291 0.03131 0.0309633 0.0305889 0.0301868 0.029757 0.0292995 0.0288176 0.0283146 0.0277905 0.0272453 0.026679 0.0260916 0.025483 0.0248534 0.024207 0.0235483 0.0228773 0.0221939 0.0214982 0.0207902 0.0200699 0.0193372 0.0185974 0.0178554 0.0171113 0.0163651 0.0156168 0.0148665 0.014114 0.0133594 0.0126082 0.0118659 0.0111326 0.0104081 0.00969264 0.00898606 0.00828841 0.00759969 0.0069202 0.00625027 0.00558989 0.00493906 0.00429779 0.00366608 0.00304392 0.00243131 0.00186147 0.00136761 0.000949731 0.000607828 0.000341903 0.000151957 3.79893e-05 0 0 4.2935e-05 0.00017174 0.000386415 0.00068696 0.00107338 0.00154566 0.00210382 0.00274784 0.00344012 0.00414305 0.00485663 0.00558085 0.00631572 0.00706123 0.00781739 0.00858419 0.00936133 0.0101485 0.0109457 0.0117528 0.0125701 0.0133973 0.0142345 0.0150818 0.0159329 0.0167816 0.0176279 0.0184718 0.0193133 0.0201524 0.0209891 0.0218234 0.0226496 0.0234619 0.0242603 0.0250448 0.0258153 0.026572 0.0273148 0.0280436 0.0287537 0.0294399 0.0301023 0.0307409 0.0313557 0.0319467 0.0325138 0.0330572 0.0335731 0.0340577 0.0345111 0.0349333 0.0353243 0.0356841 0.0360127 0.03631 0.0365741 0.036803 0.0369967 0.0371552 0.0372784 0.0373665 0.0374193 0.0374369 0.0374193 0.0373665 0.0372784 0.0371552 0.0369967 0.036803 0.0365741 0.03631 0.0360127 0.0356841 0.0353243 0.0349334 0.0345111 0.0340577 0.0335731 0.0330572 0.0325138 0.0319467 0.0313557 0.0307409 0.0301023 0.0294399 0.0287537 0.0280437 0.0273148 0.026572 0.0258153 0.0250448 0.0242603 0.0234619 0.0226496 0.0218234 0.0209891 0.0201524 0.0193133 0.0184718 0.0176279 0.0167816 0.0159329 0.0150818 0.0142345 0.0133973 0.0125701 0.0117529 0.0109457 0.0101485 0.00936135 0.00858421 0.0078174 0.00706124 0.00631573 0.00558086 0.00485664 0.00414306 0.00344013 0.00274785 0.00210382 0.00154566 0.00107338 0.000686962 0.000386416 0.000171741 4.29351e-05 0 0 4.79372e-05 0.000191749 0.000431435 0.000766996 0.00119843 0.00172574 0.00234892 0.00306798 0.00384083 0.00462539 0.00542165 0.00622962 0.0070493 0.00788069 0.00872378 0.00957859 0.0104448 0.0113221 0.0122105 0.0131101 0.0140207 0.0149424 0.0158753 0.0168193 0.0177674 0.0187129 0.0196557 0.0205958 0.0215332 0.022468 0.0234 0.0243294 0.0252496 0.0261544 0.0270437 0.0279175 0.0287758 0.0296186 0.030446 0.0312578 0.0320487 0.032813 0.0335508 0.0342621 0.0349469 0.0356052 0.0362369 0.0368422 0.0374167 0.0379566 0.0384616 0.0389319 0.0393674 0.0397681 0.0401341 0.0404653 0.0407595 0.0410144 0.0412302 0.0414067 0.041544 0.041642 0.0417009 0.0417205 0.0417009 0.041642 0.041544 0.0414067 0.0412302 0.0410144 0.0407595 0.0404653 0.0401341 0.0397681 0.0393674 0.0389319 0.0384616 0.0379566 0.0374168 0.0368422 0.0362369 0.0356052 0.0349469 0.0342621 0.0335508 0.032813 0.0320487 0.0312578 0.030446 0.0296187 0.0287758 0.0279175 0.0270437 0.0261544 0.0252496 0.0243294 0.0234 0.022468 0.0215332 0.0205958 0.0196557 0.0187129 0.0177674 0.0168193 0.0158753 0.0149425 0.0140207 0.0131101 0.0122106 0.0113221 0.0104448 0.0095786 0.0087238 0.00788071 0.00704932 0.00622964 0.00542167 0.0046254 0.00384084 0.00306799 0.00234893 0.00172575 0.00119843 0.000766998 0.000431436 0.000191749 4.79374e-05 0 0 5.29958e-05 0.000211983 0.000476962 0.000847933 0.00132489 0.00190785 0.00259679 0.00339173 0.00424603 0.00511307 0.00599286 0.00688538 0.00779064 0.00870864 0.00963938 0.0105829 0.0115388 0.0125069 0.0134873 0.0144798 0.0154845 0.0165014 0.0175305 0.0185717 0.0196176 0.0206605 0.0217004 0.0227373 0.0237712 0.0248021 0.0258301 0.026855 0.0278699 0.0288678 0.0298485 0.0308122 0.0317587 0.0326882 0.0336006 0.0344959 0.0353681 0.036211 0.0370246 0.037809 0.0385642 0.0392902 0.0399869 0.0406543 0.041288 0.0418833 0.0424403 0.0429589 0.0434392 0.0438811 0.0442847 0.0446499 0.0449744 0.0452556 0.0454935 0.0456881 0.0458396 0.0459477 0.0460126 0.0460342 0.0460126 0.0459477 0.0458396 0.0456882 0.0454935 0.0452556 0.0449744 0.0446499 0.0442847 0.0438811 0.0434392 0.0429589 0.0424403 0.0418833 0.041288 0.0406543 0.0399869 0.0392902 0.0385642 0.0378091 0.0370246 0.036211 0.0353681 0.0344959 0.0336006 0.0326882 0.0317587 0.0308122 0.0298485 0.0288678 0.0278699 0.026855 0.0258301 0.0248021 0.0237712 0.0227373 0.0217004 0.0206605 0.0196176 0.0185717 0.0175305 0.0165014 0.0154845 0.0144798 0.0134873 0.012507 0.0115388 0.0105829 0.0096394 0.00870866 0.00779066 0.00688539 0.00599287 0.00511309 0.00424605 0.00339174 0.0025968 0.00190785 0.0013249 0.000847935 0.000476964 0.000211984 5.29959e-05 0 0 5.81107e-05 0.000232443 0.000522996 0.000929771 0.00145277 0.00209199 0.00284742 0.00371909 0.00465573 0.00560611 0.00657024 0.00754811 0.00853972 0.00954507 0.0105642 0.011597 0.0126433 0.0137029 0.0147758 0.015862 0.0169614 0.018074 0.0192 0.0203392 0.0214834 0.0226243 0.0237619 0.0248962 0.0260272 0.0271549 0.0282793 0.0294004 0.0305105 0.0316019 0.0326747 0.0337287 0.034764 0.0357807 0.0367786 0.0377579 0.0387118 0.0396337 0.0405237 0.0413817 0.0422076 0.0430016 0.0437637 0.0444937 0.0451868 0.0458379 0.0464471 0.0470144 0.0475397 0.0480231 0.0484645 0.048864 0.0492189 0.0495264 0.0497867 0.0499996 0.0501652 0.0502835 0.0503544 0.0503781 0.0503544 0.0502835 0.0501652 0.0499996 0.0497867 0.0495264 0.0492189 0.048864 0.0484645 0.0480231 0.0475397 0.0470144 0.0464471 0.0458379 0.0451868 0.0444937 0.0437637 0.0430017 0.0422077 0.0413817 0.0405237 0.0396337 0.0387118 0.0377579 0.0367786 0.0357807 0.034764 0.0337287 0.0326747 0.031602 0.0305105 0.0294004 0.0282793 0.0271549 0.0260272 0.0248962 0.0237619 0.0226243 0.0214834 0.0203392 0.0192 0.0180741 0.0169614 0.015862 0.0147758 0.013703 0.0126434 0.011597 0.0105642 0.00954509 0.00853974 0.00754813 0.00657026 0.00560613 0.00465574 0.0037191 0.00284743 0.00209199 0.00145277 0.000929774 0.000522998 0.000232444 5.81109e-05 0 0 6.32692e-05 0.000253077 0.000569423 0.00101231 0.00158173 0.00227769 0.00310019 0.00404923 0.0050689 0.0061033 0.00715242 0.00821627 0.00929484 0.0103881 0.0114962 0.0126189 0.0137562 0.0149078 0.0160738 0.0172541 0.0184488 0.0196577 0.0208811 0.0221187 0.0233618 0.0246012 0.025837 0.0270692 0.0282978 0.0295228 0.0307441 0.0319618 0.0331676 0.0343531 0.0355183 0.0366631 0.0377876 0.0388919 0.0399758 0.0410394 0.0420755 0.0430768 0.0440435 0.0449753 0.0458725 0.0467349 0.0475625 0.0483555 0.0491083 0.0498155 0.0504772 0.0510933 0.0516639 0.0521889 0.0526684 0.0531023 0.0534877 0.0538218 0.0541044 0.0543357 0.0545156 0.054644 0.0547211 0.0547468 0.0547211 0.054644 0.0545156 0.0543357 0.0541044 0.0538218 0.0534877 0.0531023 0.0526684 0.0521889 0.0516639 0.0510933 0.0504772 0.0498155 0.0491083 0.0483555 0.0475626 0.0467349 0.0458725 0.0449753 0.0440435 0.0430769 0.0420755 0.0410394 0.0399758 0.0388919 0.0377877 0.0366631 0.0355183 0.0343531 0.0331676 0.0319619 0.0307441 0.0295228 0.0282978 0.0270692 0.025837 0.0246012 0.0233618 0.0221188 0.0208811 0.0196578 0.0184488 0.0172541 0.0160738 0.0149079 0.0137562 0.0126189 0.0114962 0.0103882 0.00929486 0.00821629 0.00715244 0.00610331 0.00506891 0.00404924 0.0031002 0.0022777 0.00158173 0.00101231 0.000569424 0.000253078 6.32694e-05 0 0 6.84585e-05 0.000273834 0.000616126 0.00109534 0.00171146 0.00246451 0.00335447 0.00438134 0.00548453 0.00660342 0.00773801 0.00888831 0.0100543 0.011236 0.0124334 0.0136465 0.0148752 0.0161193 0.0173787 0.0186536 0.019944 0.0212497 0.0225708 0.0239074 0.0252497 0.0265881 0.0279225 0.029253 0.0305796 0.0319022 0.0332209 0.0345356 0.0358375 0.0371174 0.0383753 0.0396114 0.0408255 0.0420176 0.0431879 0.0443362 0.0454547 0.0465358 0.0475794 0.0485855 0.0495541 0.0504851 0.0513787 0.0522348 0.0530475 0.0538111 0.0545254 0.0551906 0.0558066 0.0563735 0.0568911 0.0573596 0.0577757 0.0581364 0.0584416 0.0586912 0.0588854 0.0590241 0.0591074 0.0591351 0.0591074 0.0590241 0.0588854 0.0586912 0.0584416 0.0581364 0.0577757 0.0573596 0.0568911 0.0563735 0.0558066 0.0551906 0.0545254 0.0538111 0.0530475 0.0522348 0.0513787 0.0504851 0.0495541 0.0485855 0.0475794 0.0465358 0.0454548 0.0443362 0.0431879 0.0420176 0.0408255 0.0396114 0.0383754 0.0371174 0.0358375 0.0345357 0.0332209 0.0319022 0.0305796 0.029253 0.0279225 0.0265881 0.0252497 0.0239074 0.0225709 0.0212497 0.019944 0.0186537 0.0173788 0.0161193 0.0148752 0.0136465 0.0124334 0.011236 0.0100543 0.00888833 0.00773803 0.00660344 0.00548455 0.00438136 0.00335448 0.00246451 0.00171147 0.00109534 0.000616128 0.000273835 6.84587e-05 0 0 7.36786e-05 0.000294714 0.000663107 0.00117886 0.00184196 0.00265243 0.00361025 0.00471543 0.00590262 0.00710649 0.00832702 0.00956423 0.0108181 0.0120887 0.0133759 0.0146798 0.0160003 0.0173372 0.0186907 0.0200606 0.021447 0.0228499 0.0242693 0.0257052 0.0271472 0.0285849 0.0300184 0.0314476 0.0328725 0.0342932 0.0357096 0.0371218 0.0385201 0.0398948 0.0412459 0.0425735 0.0438775 0.0451579 0.0464148 0.0476482 0.0488496 0.0500107 0.0511315 0.0522121 0.0532524 0.0542524 0.0552121 0.0561316 0.0570045 0.0578246 0.0585919 0.0593063 0.059968 0.0605768 0.0611328 0.0616359 0.0620829 0.0624703 0.062798 0.0630662 0.0632748 0.0634238 0.0635132 0.063543 0.0635132 0.0634238 0.0632748 0.0630662 0.062798 0.0624703 0.0620829 0.0616359 0.0611328 0.0605768 0.059968 0.0593063 0.0585919 0.0578246 0.0570045 0.0561316 0.0552121 0.0542524 0.0532524 0.0522121 0.0511315 0.0500107 0.0488496 0.0476482 0.0464148 0.045158 0.0438775 0.0425735 0.0412459 0.0398948 0.0385201 0.0371218 0.0357097 0.0342932 0.0328725 0.0314476 0.0300184 0.0285849 0.0271472 0.0257052 0.0242693 0.0228499 0.021447 0.0200606 0.0186907 0.0173372 0.0160003 0.0146798 0.0133759 0.0120887 0.0108181 0.00956426 0.00832705 0.00710651 0.00590264 0.00471544 0.00361026 0.00265244 0.00184197 0.00117886 0.000663109 0.000294715 7.36788e-05 0 0 7.89295e-05 0.000315718 0.000710365 0.00126287 0.00197324 0.00284146 0.00386754 0.00505149 0.00632317 0.0076125 0.00891945 0.010244 0.0115863 0.0129461 0.0143236 0.0157187 0.0171314 0.0185617 0.0200096 0.0214749 0.0229579 0.0244584 0.0259764 0.0275121 0.0290542 0.0305917 0.0321246 0.0336529 0.0351767 0.0366958 0.0382104 0.0397204 0.0412154 0.0426853 0.04413 0.0455495 0.0469437 0.0483128 0.0496567 0.0509754 0.0522599 0.0535014 0.0546998 0.0558552 0.0569675 0.0580367 0.0590629 0.060046 0.0609793 0.0618562 0.0626765 0.0634404 0.0641479 0.0647988 0.0653933 0.0659313 0.0664092 0.0668234 0.0671739 0.0674606 0.0676837 0.067843 0.0679385 0.0679704 0.0679385 0.067843 0.0676837 0.0674606 0.0671739 0.0668234 0.0664092 0.0659313 0.0653933 0.0647988 0.0641479 0.0634405 0.0626765 0.0618562 0.0609793 0.060046 0.0590629 0.0580367 0.0569675 0.0558552 0.0546998 0.0535014 0.0522599 0.0509754 0.0496567 0.0483128 0.0469438 0.0455495 0.04413 0.0426853 0.0412155 0.0397204 0.0382104 0.0366958 0.0351767 0.0336529 0.0321246 0.0305917 0.0290542 0.0275121 0.0259765 0.0244584 0.0229579 0.021475 0.0200096 0.0185618 0.0171315 0.0157188 0.0143236 0.0129461 0.0115863 0.0102441 0.00891947 0.00761252 0.00632319 0.0050515 0.00386755 0.00284147 0.00197324 0.00126288 0.000710367 0.000315719 7.89297e-05 0 0 8.42112e-05 0.000336845 0.0007579 0.00134738 0.00210528 0.0030316 0.00412635 0.00538951 0.00674619 0.00812145 0.0095153 0.0109277 0.0123588 0.0138084 0.0152766 0.0167634 0.0182687 0.0197928 0.0213354 0.0228967 0.0244766 0.0260751 0.0276923 0.0293281 0.0309707 0.0326084 0.0342412 0.0358691 0.037492 0.03911 0.0407231 0.0423313 0.0439235 0.045489 0.0470276 0.0485393 0.0500242 0.0514823 0.0529135 0.0543178 0.0556858 0.057008 0.0582843 0.0595147 0.0606993 0.061838 0.0629308 0.0639778 0.0649718 0.0659057 0.0667794 0.067593 0.0683464 0.0690396 0.0696728 0.0702458 0.0707547 0.0711958 0.0715691 0.0718745 0.072112 0.0722817 0.0723835 0.0724174 0.0723835 0.0722817 0.072112 0.0718745 0.0715691 0.0711959 0.0707547 0.0702458 0.0696728 0.0690397 0.0683464 0.067593 0.0667794 0.0659057 0.0649718 0.0639779 0.0629309 0.061838 0.0606993 0.0595147 0.0582843 0.057008 0.0556858 0.0543178 0.0529135 0.0514823 0.0500242 0.0485393 0.0470276 0.045489 0.0439236 0.0423313 0.0407231 0.03911 0.037492 0.0358691 0.0342412 0.0326084 0.0309707 0.0293281 0.0276923 0.0260752 0.0244766 0.0228967 0.0213354 0.0197928 0.0182688 0.0167634 0.0152766 0.0138084 0.0123588 0.0109278 0.00951532 0.00812147 0.0067462 0.00538953 0.00412636 0.00303161 0.00210528 0.00134738 0.000757903 0.000336846 8.42114e-05 0 0 8.95236e-05 0.000358095 0.000805713 0.00143238 0.00223809 0.00322285 0.00438666 0.00572951 0.00717166 0.00863334 0.0101146 0.0116153 0.0131356 0.0146754 0.0162348 0.0178137 0.0194122 0.0210304 0.0226683 0.0243259 0.0260031 0.0277001 0.0294168 0.0311532 0.0328968 0.0346351 0.0363682 0.038096 0.0398185 0.0415358 0.0432478 0.0449545 0.0466444 0.0483058 0.0499386 0.051543 0.0531189 0.0546662 0.0561851 0.0576755 0.0591273 0.0605304 0.0618849 0.0631907 0.0644478 0.0656563 0.0668161 0.0679273 0.0689821 0.0699732 0.0709005 0.0717639 0.0725634 0.0732992 0.0739711 0.0745792 0.0751194 0.0755875 0.0759837 0.0763078 0.0765598 0.0767399 0.0768479 0.076884 0.0768479 0.0767399 0.0765599 0.0763078 0.0759837 0.0755875 0.0751194 0.0745792 0.0739711 0.0732992 0.0725635 0.0717639 0.0709005 0.0699732 0.0689822 0.0679273 0.0668161 0.0656563 0.0644478 0.0631907 0.0618849 0.0605304 0.0591273 0.0576755 0.0561851 0.0546663 0.0531189 0.051543 0.0499386 0.0483058 0.0466444 0.0449545 0.0432478 0.0415358 0.0398185 0.038096 0.0363682 0.0346351 0.0328968 0.0311532 0.0294168 0.0277002 0.0260032 0.0243259 0.0226683 0.0210304 0.0194122 0.0178137 0.0162348 0.0146754 0.0131356 0.01161