<?xml version="1.0"?> 
<VTKFile type="StructuredGrid" version="0.1"> 
<StructuredGrid WholeExtent="0 128 0 128 0 0"> 
<Piece Extent="0 128 0 128 0 0"> 
<PointData>
<DataArray type="Float32" Name="u" format="ascii" NumberOfComponents="1"> 
0 0 0 0 0 0 0 0 0 0 0 0 0 0 0 0 0 0 0 0 0 0 0 0 0 0 0 0 0 0 0 0 0 0 0 0 0 0 0 0 0 0 0 0 0 0 0 0 0 0 0 0 0 0 0 0 0 0 0 0 0 0 0 0 0 0 0 0 0 0 0 0 0 0 0 0 0 0 0 0 0 0 0 0 0 0 0 0 0 0 0 0 0 0 0 0 0 0 0 0 0 0 0 0 0 0 0 0 0 0 0 0 0 0 0 0 0 0 0 0 0 0 0 0 0 0 0 0 0 0 -1.56695e-07 -6.26782e-07 -1.41026e-06 -2.50713e-06 -3.91739e-06 -5.64104e-06 -7.67808e-06 -1.00285e-05 -1.26781e-05 -1.56127e-05 -1.88322e-05 -2.23368e-05 -2.61262e-05 -3.02007e-05 -3.45601e-05 -3.92045e-05 -4.40924e-05 -4.91825e-05 -5.44747e-05 -5.9969e-05 -6.56654e-05 -7.15639e-05 -7.76646e-05 -8.39673e-05 -9.03006e-05 -9.64926e-05 -0.000102543 -0.000108453 -0.000114222 -0.000119849 -0.000125335 -0.00013068 -0.000135732 -0.00014034 -0.000144505 -0.000148225 -0.000151502 -0.000154334 -0.000156723 -0.000158667 -0.000160182 -0.00016128 -0.000161961 -0.000162227 -0.000162076 -0.000161508 -0.000160525 -0.000159125 -0.000157482 -0.00015577 -0.000153989 -0.000152139 -0.00015022 -0.000148232 -0.000146174 -0.000144048 -0.000142022 -0.000140266 -0.000138781 -0.000137565 -0.00013662 -0.000135944 -0.000135539 -0.000135404 -0.000135539 -0.000135944 -0.00013662 -0.000137565 -0.000138781 -0.000140266 -0.000142022 -0.000144048 -0.000146174 -0.000148232 -0.00015022 -0.000152139 -0.000153989 -0.00015577 -0.000157482 -0.000159125 -0.000160525 -0.000161508 -0.000162076 -0.000162227 -0.000161961 -0.00016128 -0.000160182 -0.000158667 -0.000156723 -0.000154334 -0.000151502 -0.000148225 -0.000144505 -0.00014034 -0.000135732 -0.00013068 -0.000125335 -0.000119849 -0.000114222 -0.000108453 -0.000102543 -9.64926e-05 -9.03006e-05 -8.39673e-05 -7.76646e-05 -7.15639e-05 -6.56654e-05 -5.9969e-05 -5.44747e-05 -4.91825e-05 -4.40924e-05 -3.92045e-05 -3.45601e-05 -3.02007e-05 -2.61262e-05 -2.23368e-05 -1.88322e-05 -1.56127e-05 -1.26781e-05 -1.00285e-05 -7.67807e-06 -5.64103e-06 -3.91738e-06 -2.50713e-06 -1.41026e-06 -6.26782e-07 -1.56695e-07 0 0 -6.26782e-07 -2.50713e-06 -5.64104e-06 -1.00285e-05 -1.56695e-05 -2.25641e-05 -3.07123e-05 -4.0114e-05 -5.07125e-05 -6.24508e-05 -7.5329e-05 -8.93471e-05 -0.000104505 -0.000120803 -0.00013824 -0.000156818 -0.00017637 -0.00019673 -0.000217899 -0.000239876 -0.000262661 -0.000286256 -0.000310658 -0.000335869 -0.000361202 -0.00038597 -0.000410174 -0.000433812 -0.000456886 -0.000479395 -0.00050134 -0.000522719 -0.000542928 -0.000561362 -0.000578019 -0.000592901 -0.000606006 -0.000617336 -0.000626891 -0.000634669 -0.000640726 -0.000645119 -0.000647846 -0.000648907 -0.000648303 -0.000646034 -0.000642099 -0.000636499 -0.000629928 -0.00062308 -0.000615957 -0.000608556 -0.00060088 -0.000592927 -0.000584698 -0.000576192 -0.000568088 -0.000561065 -0.000555122 -0.00055026 -0.000546478 -0.000543777 -0.000542157 -0.000541616 -0.000542157 -0.000543777 -0.000546478 -0.00055026 -0.000555122 -0.000561065 -0.000568088 -0.000576192 -0.000584698 -0.000592927 -0.00060088 -0.000608556 -0.000615957 -0.00062308 -0.000629928 -0.000636499 -0.000642099 -0.000646034 -0.000648303 -0.000648907 -0.000647846 -0.000645119 -0.000640726 -0.000634669 -0.000626891 -0.000617336 -0.000606006 -0.000592901 -0.000578019 -0.000561362 -0.000542928 -0.000522719 -0.00050134 -0.000479395 -0.000456886 -0.000433812 -0.000410174 -0.00038597 -0.000361202 -0.000335869 -0.000310658 -0.000286256 -0.000262661 -0.000239876 -0.000217899 -0.00019673 -0.00017637 -0.000156818 -0.00013824 -0.000120803 -0.000104505 -8.9347e-05 -7.5329e-05 -6.24508e-05 -5.07125e-05 -4.0114e-05 -3.07123e-05 -2.25641e-05 -1.56695e-05 -1.00285e-05 -5.64103e-06 -2.50713e-06 -6.26782e-07 0 0 -1.41026e-06 -5.64104e-06 -1.26923e-05 -2.25641e-05 -3.52565e-05 -5.07693e-05 -6.91027e-05 -9.02566e-05 -0.000114103 -0.000140514 -0.00016949 -0.000201031 -0.000235136 -0.000271806 -0.000311041 -0.000352841 -0.000396832 -0.000442642 -0.000490272 -0.000539721 -0.000590988 -0.000644075 -0.000698981 -0.000755706 -0.000812705 -0.000868433 -0.000922891 -0.000976078 -0.00102799 -0.00107864 -0.00112801 -0.00117612 -0.00122159 -0.00126306 -0.00130054 -0.00133403 -0.00136351 -0.00138901 -0.0014105 -0.001428 -0.00144163 -0.00145152 -0.00145765 -0.00146004 -0.00145868 -0.00145358 -0.00144472 -0.00143212 -0.00141734 -0.00140193 -0.0013859 -0.00136925 -0.00135198 -0.00133409 -0.00131557 -0.00129643 -0.0012782 -0.0012624 -0.00124903 -0.00123809 -0.00122958 -0.0012235 -0.00121985 -0.00121864 -0.00121985 -0.0012235 -0.00122958 -0.00123809 -0.00124903 -0.0012624 -0.0012782 -0.00129643 -0.00131557 -0.00133409 -0.00135198 -0.00136925 -0.0013859 -0.00140193 -0.00141734 -0.00143212 -0.00144472 -0.00145358 -0.00145868 -0.00146004 -0.00145765 -0.00145152 -0.00144163 -0.001428 -0.0014105 -0.00138901 -0.00136351 -0.00133403 -0.00130054 -0.00126306 -0.00122159 -0.00117612 -0.00112801 -0.00107864 -0.00102799 -0.000976078 -0.000922891 -0.000868434 -0.000812705 -0.000755706 -0.000698981 -0.000644075 -0.000590988 -0.000539721 -0.000490272 -0.000442642 -0.000396832 -0.00035284 -0.000311041 -0.000271806 -0.000235136 -0.000201031 -0.00016949 -0.000140514 -0.000114103 -9.02565e-05 -6.91027e-05 -5.07693e-05 -3.52565e-05 -2.25641e-05 -1.26923e-05 -5.64103e-06 -1.41026e-06 0 0 -2.50713e-06 -1.00285e-05 -2.25641e-05 -4.0114e-05 -6.26782e-05 -9.02566e-05 -0.000122849 -0.000160456 -0.00020285 -0.000249803 -0.000301316 -0.000357388 -0.00041802 -0.000483211 -0.000552962 -0.000627272 -0.000705479 -0.00078692 -0.000871595 -0.000959503 -0.00105065 -0.00114502 -0.00124263 -0.00134348 -0.00144481 -0.00154388 -0.0016407 -0.00173525 -0.00182755 -0.00191758 -0.00200536 -0.00209088 -0.00217171 -0.00224545 -0.00231208 -0.0023716 -0.00242403 -0.00246935 -0.00250756 -0.00253868 -0.00256291 -0.00258047 -0.00259138 -0.00259563 -0.00259321 -0.00258414 -0.0025684 -0.002546 -0.00251971 -0.00249232 -0.00246383 -0.00243423 -0.00240352 -0.00237171 -0.00233879 -0.00230477 -0.00227235 -0.00224426 -0.00222049 -0.00220104 -0.00218591 -0.00217511 -0.00216863 -0.00216647 -0.00216863 -0.00217511 -0.00218591 -0.00220104 -0.00222049 -0.00224426 -0.00227235 -0.00230477 -0.00233879 -0.00237171 -0.00240352 -0.00243423 -0.00246383 -0.00249232 -0.00251971 -0.002546 -0.0025684 -0.00258414 -0.00259321 -0.00259563 -0.00259138 -0.00258047 -0.00256291 -0.00253868 -0.00250756 -0.00246935 -0.00242403 -0.0023716 -0.00231208 -0.00224545 -0.00217171 -0.00209088 -0.00200536 -0.00191758 -0.00182755 -0.00173525 -0.0016407 -0.00154388 -0.00144481 -0.00134348 -0.00124263 -0.00114502 -0.00105065 -0.000959503 -0.000871595 -0.00078692 -0.000705479 -0.000627272 -0.000552962 -0.000483211 -0.00041802 -0.000357388 -0.000301316 -0.000249803 -0.00020285 -0.000160456 -0.000122849 -9.02565e-05 -6.26782e-05 -4.0114e-05 -2.25641e-05 -1.00285e-05 -2.50713e-06 0 0 -3.91739e-06 -1.56695e-05 -3.52565e-05 -6.26782e-05 -9.79347e-05 -0.000141026 -0.000191952 -0.000250713 -0.000316953 -0.000390318 -0.000470806 -0.000558419 -0.000653156 -0.000755017 -0.000864003 -0.000980113 -0.00110231 -0.00122956 -0.00136187 -0.00149922 -0.00164163 -0.0017891 -0.00194161 -0.00209918 -0.00225751 -0.00241232 -0.00256359 -0.00271133 -0.00285554 -0.00299622 -0.00313337 -0.00326699 -0.0033933 -0.00350851 -0.00361262 -0.00370563 -0.00378754 -0.00385835 -0.00391807 -0.00396668 -0.00400454 -0.00403199 -0.00404903 -0.00405567 -0.00405189 -0.00403771 -0.00401312 -0.00397812 -0.00393705 -0.00389425 -0.00384973 -0.00380348 -0.0037555 -0.00370579 -0.00365436 -0.0036012 -0.00355055 -0.00350666 -0.00346952 -0.00343913 -0.00341549 -0.00339861 -0.00338848 -0.0033851 -0.00338848 -0.00339861 -0.00341549 -0.00343913 -0.00346952 -0.00350666 -0.00355055 -0.0036012 -0.00365436 -0.00370579 -0.0037555 -0.00380348 -0.00384973 -0.00389425 -0.00393705 -0.00397812 -0.00401312 -0.00403771 -0.00405189 -0.00405567 -0.00404904 -0.00403199 -0.00400454 -0.00396668 -0.00391807 -0.00385835 -0.00378754 -0.00370563 -0.00361262 -0.00350851 -0.0033933 -0.00326699 -0.00313337 -0.00299622 -0.00285554 -0.00271133 -0.00256359 -0.00241232 -0.00225751 -0.00209918 -0.00194161 -0.0017891 -0.00164163 -0.00149922 -0.00136187 -0.00122956 -0.00110231 -0.000980112 -0.000864003 -0.000755017 -0.000653156 -0.000558419 -0.000470806 -0.000390317 -0.000316953 -0.000250713 -0.000191952 -0.000141026 -9.79346e-05 -6.26782e-05 -3.52565e-05 -1.56695e-05 -3.91738e-06 0 0 -5.64104e-06 -2.25641e-05 -5.07693e-05 -9.02566e-05 -0.000141026 -0.000203077 -0.000276411 -0.000361026 -0.000456412 -0.000562057 -0.000677961 -0.000804123 -0.000940545 -0.00108723 -0.00124416 -0.00141136 -0.00158733 -0.00177057 -0.00196109 -0.00215888 -0.00236395 -0.0025763 -0.00279592 -0.00302282 -0.00325082 -0.00347373 -0.00369156 -0.00390431 -0.00411198 -0.00431456 -0.00451206 -0.00470447 -0.00488635 -0.00505225 -0.00520217 -0.00533611 -0.00545406 -0.00555603 -0.00564201 -0.00571202 -0.00576654 -0.00580607 -0.00583061 -0.00584016 -0.00583473 -0.0058143 -0.00577889 -0.00572849 -0.00566935 -0.00560772 -0.00554361 -0.00547701 -0.00540792 -0.00533634 -0.00526228 -0.00518573 -0.00511279 -0.00504959 -0.0049961 -0.00495234 -0.00491831 -0.004894 -0.00487941 -0.00487455 -0.00487941 -0.004894 -0.00491831 -0.00495234 -0.0049961 -0.00504959 -0.00511279 -0.00518573 -0.00526228 -0.00533634 -0.00540792 -0.00547701 -0.00554361 -0.00560772 -0.00566935 -0.00572849 -0.00577889 -0.0058143 -0.00583473 -0.00584016 -0.00583061 -0.00580607 -0.00576654 -0.00571202 -0.00564201 -0.00555603 -0.00545406 -0.00533611 -0.00520217 -0.00505225 -0.00488635 -0.00470447 -0.00451206 -0.00431456 -0.00411198 -0.00390431 -0.00369156 -0.00347373 -0.00325082 -0.00302282 -0.00279592 -0.0025763 -0.00236395 -0.00215888 -0.00196109 -0.00177057 -0.00158733 -0.00141136 -0.00124416 -0.00108722 -0.000940545 -0.000804123 -0.000677961 -0.000562057 -0.000456412 -0.000361026 -0.000276411 -0.000203077 -0.000141026 -9.02565e-05 -5.07693e-05 -2.25641e-05 -5.64103e-06 0 0 -7.67808e-06 -3.07123e-05 -6.91027e-05 -0.000122849 -0.000191952 -0.000276411 -0.000376226 -0.000491397 -0.000621228 -0.000765022 -0.00092278 -0.0010945 -0.00128019 -0.00147983 -0.00169345 -0.00192102 -0.00216053 -0.00240994 -0.00266926 -0.00293848 -0.0032176 -0.00350663 -0.00380556 -0.0041144 -0.00442473 -0.00472814 -0.00502463 -0.0053142 -0.00559686 -0.00587259 -0.00614141 -0.00640331 -0.00665087 -0.00687668 -0.00708073 -0.00726303 -0.00742358 -0.00756237 -0.00767941 -0.00777469 -0.0078489 -0.0079027 -0.00793611 -0.00794911 -0.00794171 -0.00791391 -0.00786571 -0.00779711 -0.00771662 -0.00763274 -0.00754547 -0.00745482 -0.00736078 -0.00726336 -0.00716255 -0.00705835 -0.00695908 -0.00687305 -0.00680025 -0.00674069 -0.00669436 -0.00666127 -0.00664142 -0.0066348 -0.00664142 -0.00666127 -0.00669436 -0.00674069 -0.00680025 -0.00687305 -0.00695908 -0.00705835 -0.00716255 -0.00726336 -0.00736078 -0.00745482 -0.00754547 -0.00763274 -0.00771662 -0.00779711 -0.00786571 -0.00791391 -0.00794171 -0.00794911 -0.00793611 -0.0079027 -0.0078489 -0.00777469 -0.00767941 -0.00756237 -0.00742358 -0.00726303 -0.00708073 -0.00687668 -0.00665087 -0.00640331 -0.00614141 -0.00587259 -0.00559686 -0.0053142 -0.00502463 -0.00472814 -0.00442473 -0.0041144 -0.00380556 -0.00350663 -0.0032176 -0.00293848 -0.00266926 -0.00240994 -0.00216053 -0.00192102 -0.00169345 -0.00147983 -0.00128019 -0.0010945 -0.00092278 -0.000765022 -0.000621228 -0.000491397 -0.000376226 -0.000276411 -0.000191952 -0.000122849 -6.91027e-05 -3.07123e-05 -7.67807e-06 0 0 -1.00285e-05 -4.0114e-05 -9.02566e-05 -0.000160456 -0.000250713 -0.000361026 -0.000491397 -0.000641825 -0.0008114 -0.000999213 -0.00120526 -0.00142955 -0.00167208 -0.00193284 -0.00221185 -0.00250909 -0.00282192 -0.00314768 -0.00348638 -0.00383801 -0.00420258 -0.00458009 -0.00497053 -0.00537391 -0.00577924 -0.00617553 -0.00656278 -0.006941 -0.00731018 -0.00767032 -0.00802143 -0.0083635 -0.00868685 -0.00898178 -0.0092483 -0.00948641 -0.0096961 -0.00987738 -0.0100302 -0.0101547 -0.0102516 -0.0103219 -0.0103655 -0.0103825 -0.0103728 -0.0103365 -0.0102736 -0.010184 -0.0100788 -0.00996929 -0.00985531 -0.0097369 -0.00961408 -0.00948683 -0.00935516 -0.00921907 -0.00908941 -0.00897704 -0.00888196 -0.00880416 -0.00874366 -0.00870044 -0.0086745 -0.00866586 -0.0086745 -0.00870044 -0.00874366 -0.00880416 -0.00888196 -0.00897704 -0.00908941 -0.00921907 -0.00935516 -0.00948683 -0.00961408 -0.0097369 -0.00985531 -0.00996929 -0.0100788 -0.010184 -0.0102736 -0.0103365 -0.0103728 -0.0103825 -0.0103655 -0.0103219 -0.0102516 -0.0101547 -0.0100302 -0.00987738 -0.0096961 -0.00948641 -0.0092483 -0.00898178 -0.00868685 -0.0083635 -0.00802143 -0.00767033 -0.00731018 -0.006941 -0.00656278 -0.00617553 -0.00577924 -0.00537391 -0.00497053 -0.00458009 -0.00420258 -0.00383801 -0.00348638 -0.00314768 -0.00282192 -0.00250909 -0.00221185 -0.00193284 -0.00167208 -0.00142955 -0.00120526 -0.000999212 -0.000811399 -0.000641824 -0.000491397 -0.000361026 -0.000250713 -0.000160456 -9.02565e-05 -4.0114e-05 -1.00285e-05 0 0 -1.26366e-05 -5.05463e-05 -0.000113729 -0.000202185 -0.000315914 -0.000454917 -0.000619192 -0.000808741 -0.00102216 -0.00125806 -0.00151643 -0.00179727 -0.00210059 -0.00242638 -0.00277464 -0.00314538 -0.00353516 -0.00394056 -0.00436156 -0.00479818 -0.00525041 -0.00571825 -0.0062017 -0.00670077 -0.00720164 -0.0076905 -0.00816736 -0.00863221 -0.00908505 -0.0095259 -0.00995473 -0.0103716 -0.0107644 -0.0111211 -0.0114418 -0.0117264 -0.011975 -0.0121875 -0.0123639 -0.0125043 -0.01261 -0.0126824 -0.0127215 -0.0127273 -0.0126997 -0.0126389 -0.0125447 -0.0124172 -0.0122707 -0.0121194 -0.0119632 -0.0118022 -0.0116364 -0.0114658 -0.0112903 -0.0111101 -0.0109388 -0.0107904 -0.0106649 -0.0105621 -0.0104822 -0.0104251 -0.0103909 -0.0103794 -0.0103909 -0.0104251 -0.0104822 -0.0105621 -0.0106649 -0.0107904 -0.0109388 -0.0111101 -0.0112903 -0.0114658 -0.0116364 -0.0118022 -0.0119632 -0.0121194 -0.0122707 -0.0124172 -0.0125447 -0.0126389 -0.0126997 -0.0127273 -0.0127215 -0.0126824 -0.01261 -0.0125043 -0.0123639 -0.0121875 -0.011975 -0.0117264 -0.0114418 -0.0111211 -0.0107644 -0.0103716 -0.00995473 -0.0095259 -0.00908506 -0.00863221 -0.00816736 -0.0076905 -0.00720164 -0.00670077 -0.0062017 -0.00571825 -0.00525041 -0.00479818 -0.00436156 -0.00394056 -0.00353516 -0.00314538 -0.00277464 -0.00242638 -0.00210059 -0.00179727 -0.00151643 -0.00125806 -0.00102216 -0.00080874 -0.000619192 -0.000454916 -0.000315914 -0.000202185 -0.000113729 -5.05463e-05 -1.26366e-05 0 0 -1.54465e-05 -6.1786e-05 -0.000139018 -0.000247144 -0.000386162 -0.000556074 -0.000756878 -0.000988576 -0.00124875 -0.00153499 -0.00184729 -0.00218565 -0.00255007 -0.00294056 -0.00335711 -0.00379972 -0.00426395 -0.00474535 -0.00524392 -0.00575967 -0.00629259 -0.00684268 -0.00740995 -0.00799439 -0.00857921 -0.00914765 -0.00969969 -0.0102353 -0.0107546 -0.0112574 -0.0117439 -0.012214 -0.0126535 -0.0130482 -0.0133981 -0.0137032 -0.0139635 -0.0141791 -0.0143498 -0.0144758 -0.0145594 -0.014603 -0.0146067 -0.0145703 -0.014494 -0.0143776 -0.0142213 -0.0140251 -0.0138069 -0.0135849 -0.0133592 -0.0131296 -0.0128963 -0.0126592 -0.0124183 -0.0121736 -0.0119424 -0.0117421 -0.0115726 -0.0114339 -0.011326 -0.0112489 -0.0112027 -0.0111873 -0.0112027 -0.0112489 -0.011326 -0.0114339 -0.0115726 -0.0117421 -0.0119424 -0.0121736 -0.0124183 -0.0126592 -0.0128963 -0.0131296 -0.0133592 -0.0135849 -0.0138069 -0.0140251 -0.0142213 -0.0143776 -0.014494 -0.0145703 -0.0146067 -0.014603 -0.0145594 -0.0144758 -0.0143498 -0.0141791 -0.0139635 -0.0137032 -0.0133981 -0.0130482 -0.0126535 -0.012214 -0.0117439 -0.0112574 -0.0107546 -0.0102353 -0.00969969 -0.00914765 -0.00857921 -0.00799439 -0.00740995 -0.00684268 -0.00629259 -0.00575967 -0.00524392 -0.00474535 -0.00426395 -0.00379972 -0.00335711 -0.00294056 -0.00255007 -0.00218565 -0.00184729 -0.00153499 -0.00124875 -0.000988575 -0.000756878 -0.000556074 -0.000386162 -0.000247144 -0.000139018 -6.1786e-05 -1.54465e-05 0 0 -1.84583e-05 -7.38332e-05 -0.000166125 -0.000295333 -0.000461457 -0.000664499 -0.000904456 -0.00118133 -0.00149117 -0.00183 -0.00219784 -0.00259469 -0.00302054 -0.00347539 -0.00395924 -0.0044721 -0.00500827 -0.00556206 -0.00613346 -0.00672249 -0.00732913 -0.00795339 -0.00859527 -0.00925477 -0.00991197 -0.010547 -0.0111598 -0.0117504 -0.0123188 -0.012865 -0.013389 -0.0138908 -0.0143542 -0.014763 -0.0151172 -0.0154168 -0.0156618 -0.0158522 -0.015988 -0.0160692 -0.0160998 -0.0160837 -0.016021 -0.0159116 -0.0157555 -0.0155528 -0.0153034 -0.0150074 -0.0146874 -0.014366 -0.0140433 -0.0137192 -0.0133938 -0.0130671 -0.012739 -0.0124096 -0.0121002 -0.011832 -0.0116051 -0.0114194 -0.011275 -0.0111719 -0.01111 -0.0110894 -0.01111 -0.0111719 -0.011275 -0.0114194 -0.0116051 -0.011832 -0.0121002 -0.0124096 -0.012739 -0.0130671 -0.0133938 -0.0137192 -0.0140433 -0.014366 -0.0146874 -0.0150074 -0.0153034 -0.0155528 -0.0157555 -0.0159116 -0.016021 -0.0160837 -0.0160998 -0.0160692 -0.015988 -0.0158522 -0.0156618 -0.0154168 -0.0151172 -0.014763 -0.0143542 -0.0138908 -0.013389 -0.012865 -0.0123188 -0.0117504 -0.0111598 -0.010547 -0.00991197 -0.00925477 -0.00859527 -0.00795339 -0.00732913 -0.00672249 -0.00613346 -0.00556206 -0.00500827 -0.0044721 -0.00395924 -0.00347539 -0.00302053 -0.00259469 -0.00219784 -0.00183 -0.00149116 -0.00118133 -0.000904456 -0.000664498 -0.000461457 -0.000295332 -0.000166125 -7.38331e-05 -1.84583e-05 0 0 -2.1672e-05 -8.66878e-05 -0.000195048 -0.000346751 -0.000541799 -0.00078019 -0.00106193 -0.001387 -0.0017494 -0.0021431 -0.0025681 -0.00302439 -0.00351198 -0.00403086 -0.00458104 -0.00516252 -0.00576813 -0.00639068 -0.00703018 -0.00768663 -0.00836002 -0.00905037 -0.00975767 -0.0104819 -0.0111999 -0.0118885 -0.0125476 -0.0131773 -0.0137776 -0.0143485 -0.0148899 -0.0154019 -0.0158665 -0.0162655 -0.0165991 -0.0168671 -0.0170697 -0.0172068 -0.0172784 -0.0172845 -0.0172312 -0.0171245 -0.0169645 -0.0167511 -0.0164844 -0.0161644 -0.015791 -0.0153643 -0.0149121 -0.0144625 -0.0140155 -0.0135709 -0.0131289 -0.0126895 -0.0122526 -0.0118182 -0.0114121 -0.0110602 -0.0107624 -0.0105188 -0.0103293 -0.010194 -0.0101127 -0.0100857 -0.0101127 -0.010194 -0.0103293 -0.0105188 -0.0107624 -0.0110602 -0.0114121 -0.0118182 -0.0122526 -0.0126895 -0.0131289 -0.0135709 -0.0140155 -0.0144625 -0.0149121 -0.0153643 -0.015791 -0.0161644 -0.0164844 -0.0167511 -0.0169645 -0.0171245 -0.0172312 -0.0172845 -0.0172784 -0.0172068 -0.0170697 -0.0168671 -0.0165991 -0.0162655 -0.0158665 -0.0154019 -0.0148899 -0.0143485 -0.0137776 -0.0131773 -0.0125476 -0.0118885 -0.0111999 -0.0104819 -0.00975767 -0.00905037 -0.00836002 -0.00768663 -0.00703018 -0.00639068 -0.00576813 -0.00516252 -0.00458104 -0.00403086 -0.00351197 -0.00302439 -0.00256809 -0.0021431 -0.0017494 -0.001387 -0.00106192 -0.00078019 -0.000541798 -0.000346751 -0.000195047 -8.66878e-05 -2.16719e-05 0 0 -2.50875e-05 -0.00010035 -0.000225787 -0.0004014 -0.000627187 -0.000903149 -0.00122929 -0.0016056 -0.00202347 -0.00247429 -0.00295804 -0.00347475 -0.00402439 -0.00460698 -0.00522251 -0.00587099 -0.00654352 -0.00723122 -0.00793407 -0.00865209 -0.00938528 -0.0101336 -0.0108971 -0.0116758 -0.012443 -0.0131722 -0.0138632 -0.0145162 -0.0151312 -0.015708 -0.0162468 -0.0167474 -0.0171904 -0.0175558 -0.0178438 -0.0180543 -0.0181873 -0.0182429 -0.018221 -0.0181216 -0.0179535 -0.0177254 -0.0174372 -0.0170889 -0.0166807 -0.0162124 -0.0156841 -0.0150957 -0.0144812 -0.0138746 -0.0132758 -0.0126848 -0.0121017 -0.0115263 -0.0109589 -0.0103992 -0.00987819 -0.00942665 -0.00904458 -0.00873197 -0.00848884 -0.00831517 -0.00821097 -0.00817623 -0.00821097 -0.00831517 -0.00848884 -0.00873197 -0.00904458 -0.00942665 -0.00987819 -0.0103992 -0.0109589 -0.0115263 -0.0121017 -0.0126848 -0.0132758 -0.0138746 -0.0144812 -0.0150957 -0.0156841 -0.0162124 -0.0166807 -0.0170889 -0.0174372 -0.0177254 -0.0179535 -0.0181216 -0.018221 -0.0182429 -0.0181873 -0.0180543 -0.0178438 -0.0175558 -0.0171904 -0.0167475 -0.0162468 -0.015708 -0.0151312 -0.0145162 -0.0138632 -0.0131722 -0.012443 -0.0116758 -0.0108971 -0.0101336 -0.00938528 -0.00865209 -0.00793407 -0.00723121 -0.00654352 -0.00587099 -0.00522251 -0.00460698 -0.00402439 -0.00347474 -0.00295804 -0.00247428 -0.00202347 -0.0016056 -0.00122929 -0.000903149 -0.000627187 -0.000401399 -0.000225787 -0.00010035 -2.50875e-05 0 0 -2.87049e-05 -0.000114819 -0.000258344 -0.000459278 -0.000717622 -0.00103338 -0.00140654 -0.00183711 -0.00231336 -0.00282355 -0.00336769 -0.00394577 -0.00455779 -0.00520375 -0.00588365 -0.0065975 -0.00733445 -0.00808367 -0.00884514 -0.00961888 -0.0104049 -0.0112032 -0.0120137 -0.0128365 -0.0136413 -0.014398 -0.0151066 -0.015767 -0.0163793 -0.0169435 -0.0174595 -0.0179273 -0.0183259 -0.0186339 -0.0188513 -0.0189783 -0.0190147 -0.0189605 -0.0188159 -0.0185807 -0.0182669 -0.0178863 -0.017439 -0.016925 -0.0163443 -0.0156968 -0.0149826 -0.0142017 -0.0133946 -0.0126021 -0.0118242 -0.0110608 -0.010312 -0.00957768 -0.00885794 -0.00815274 -0.00749843 -0.00693137 -0.00645155 -0.00605896 -0.00575362 -0.00553552 -0.00540466 -0.00536104 -0.00540466 -0.00553552 -0.00575362 -0.00605896 -0.00645155 -0.00693137 -0.00749843 -0.00815274 -0.00885794 -0.00957768 -0.010312 -0.0110608 -0.0118242 -0.0126021 -0.0133946 -0.0142017 -0.0149826 -0.0156968 -0.0163443 -0.016925 -0.017439 -0.0178863 -0.0182669 -0.0185807 -0.0188159 -0.0189605 -0.0190147 -0.0189783 -0.0188513 -0.0186339 -0.0183259 -0.0179273 -0.0174595 -0.0169435 -0.0163793 -0.015767 -0.0151066 -0.014398 -0.0136413 -0.0128365 -0.0120137 -0.0112032 -0.0104049 -0.00961888 -0.00884514 -0.00808367 -0.00733445 -0.0065975 -0.00588365 -0.00520375 -0.00455778 -0.00394576 -0.00336769 -0.00282355 -0.00231336 -0.00183711 -0.00140654 -0.00103337 -0.000717621 -0.000459278 -0.000258344 -0.000114819 -2.87049e-05 0 0 -3.25241e-05 -0.000130097 -0.000292717 -0.000520386 -0.000813103 -0.00117087 -0.00159368 -0.00208154 -0.00261908 -0.00319091 -0.00379703 -0.00443744 -0.00511216 -0.00582116 -0.00656446 -0.00734206 -0.00814092 -0.00894803 -0.00976339 -0.010587 -0.0114189 -0.012259 -0.0131073 -0.0139639 -0.0147948 -0.0155661 -0.0162777 -0.0169298 -0.0175222 -0.0180549 -0.0185281 -0.0189416 -0.0192729 -0.0194996 -0.0196217 -0.019639 -0.0195517 -0.0193597 -0.019063 -0.0186616 -0.0181712 -0.0176074 -0.0169701 -0.0162594 -0.0154752 -0.0146176 -0.0136866 -0.0126822 -0.0116523 -0.0106452 -0.00966074 -0.00869897 -0.00775989 -0.0068435 -0.00594979 -0.00507878 -0.00427283 -0.00357435 -0.00298332 -0.00249976 -0.00212365 -0.001855 -0.00169381 -0.00164009 -0.00169381 -0.001855 -0.00212365 -0.00249976 -0.00298332 -0.00357435 -0.00427283 -0.00507878 -0.00594979 -0.0068435 -0.00775989 -0.00869897 -0.00966074 -0.0106452 -0.0116523 -0.0126822 -0.0136866 -0.0146176 -0.0154752 -0.0162594 -0.0169701 -0.0176074 -0.0181712 -0.0186616 -0.019063 -0.0193597 -0.0195517 -0.019639 -0.0196217 -0.0194996 -0.0192729 -0.0189416 -0.0185281 -0.0180549 -0.0175222 -0.0169298 -0.0162777 -0.0155661 -0.0147948 -0.0139639 -0.0131073 -0.012259 -0.0114189 -0.010587 -0.00976339 -0.00894803 -0.00814092 -0.00734205 -0.00656446 -0.00582116 -0.00511215 -0.00443744 -0.00379703 -0.0031909 -0.00261908 -0.00208154 -0.00159368 -0.00117087 -0.000813103 -0.000520386 -0.000292717 -0.000130096 -3.25241e-05 0 0 -3.65453e-05 -0.000146181 -0.000328907 -0.000584724 -0.000913632 -0.00131563 -0.00179072 -0.0023389 -0.00294062 -0.00357634 -0.00424606 -0.00494978 -0.0056875 -0.00645922 -0.00726494 -0.00810465 -0.00896293 -0.00982432 -0.0106888 -0.0115564 -0.0124272 -0.013301 -0.014178 -0.0150581 -0.0159035 -0.0166763 -0.0173766 -0.0180044 -0.0185596 -0.0190424 -0.0194525 -0.0197902 -0.0200316 -0.0201532 -0.0201548 -0.0200365 -0.0197984 -0.0194403 -0.0189623 -0.0183644 -0.0176665 -0.0168885 -0.0160303 -0.015092 -0.0140735 -0.0129749 -0.0117961 -0.0105372 -0.00925434 -0.00800373 -0.00678537 -0.00559926 -0.0044454 -0.00332379 -0.00223443 -0.00117732 -0.000201397 0.000644404 0.00136008 0.00194564 0.00240107 0.00272638 0.00292156 0.00298662 0.00292156 0.00272638 0.00240107 0.00194564 0.00136008 0.000644404 -0.000201397 -0.00117732 -0.00223443 -0.00332379 -0.0044454 -0.00559926 -0.00678537 -0.00800373 -0.00925434 -0.0105372 -0.0117961 -0.0129749 -0.0140735 -0.015092 -0.0160303 -0.0168885 -0.0176665 -0.0183644 -0.0189623 -0.0194403 -0.0197984 -0.0200365 -0.0201548 -0.0201532 -0.0200316 -0.0197902 -0.0194525 -0.0190424 -0.0185597 -0.0180044 -0.0173766 -0.0166763 -0.0159035 -0.0150581 -0.014178 -0.013301 -0.0124272 -0.0115564 -0.0106888 -0.00982432 -0.00896293 -0.00810465 -0.00726494 -0.00645922 -0.0056875 -0.00494978 -0.00424606 -0.00357634 -0.00294062 -0.00233889 -0.00179072 -0.00131563 -0.000913631 -0.000584724 -0.000328907 -0.000146181 -3.65452e-05 0 0 -4.07606e-05 -0.000163043 -0.000366846 -0.00065217 -0.00101902 -0.00146738 -0.00199727 -0.00260868 -0.00327732 -0.0039789 -0.00471343 -0.00548089 -0.0062813 -0.00711465 -0.00798093 -0.00888016 -0.00979418 -0.0107048 -0.0116121 -0.012516 -0.0134166 -0.0143138 -0.0152076 -0.016098 -0.0169432 -0.0177012 -0.018372 -0.0189557 -0.0194522 -0.0198615 -0.0201837 -0.0204186 -0.0205418 -0.0205285 -0.0203788 -0.0200926 -0.0196699 -0.0191107 -0.0184151 -0.0175831 -0.0166394 -0.0156088 -0.0144913 -0.013287 -0.0119958 -0.0106178 -0.0091529 -0.00760114 -0.00602773 -0.00449789 -0.00301163 -0.00156895 -0.000169839 0.00118569 0.00249765 0.00376603 0.00493472 0.00594758 0.00680461 0.00750582 0.0080512 0.00844077 0.0086745 0.00875241 0.0086745 0.00844077 0.0080512 0.00750582 0.00680461 0.00594758 0.00493472 0.00376604 0.00249765 0.00118569 -0.000169839 -0.00156895 -0.00301163 -0.00449789 -0.00602773 -0.00760114 -0.0091529 -0.0106178 -0.0119958 -0.013287 -0.0144913 -0.0156088 -0.0166394 -0.0175831 -0.0184151 -0.0191107 -0.0196699 -0.0200926 -0.0203788 -0.0205285 -0.0205418 -0.0204186 -0.0201837 -0.0198615 -0.0194522 -0.0189557 -0.018372 -0.0177012 -0.0169432 -0.016098 -0.0152076 -0.0143138 -0.0134166 -0.012516 -0.0116121 -0.0107048 -0.00979418 -0.00888016 -0.00798093 -0.00711464 -0.00628129 -0.00548089 -0.00471342 -0.0039789 -0.00327732 -0.00260868 -0.00199727 -0.00146738 -0.00101901 -0.00065217 -0.000366845 -0.000163042 -4.07606e-05 0 0 -4.51626e-05 -0.000180651 -0.000406464 -0.000722602 -0.00112907 -0.00162586 -0.00221297 -0.00289041 -0.00362851 -0.00439763 -0.00519775 -0.00602887 -0.00689101 -0.00778415 -0.0087083 -0.00966345 -0.0106284 -0.0115819 -0.0125239 -0.0134546 -0.0143737 -0.0152815 -0.0161778 -0.0170626 -0.0178898 -0.0186132 -0.0192327 -0.0197483 -0.0201601 -0.0204681 -0.0206722 -0.0207724 -0.0207434 -0.0205598 -0.0202216 -0.0197288 -0.0190814 -0.0182794 -0.0173227 -0.0162115 -0.0149762 -0.0136473 -0.0122248 -0.0107087 -0.00909899 -0.0073957 -0.00559882 -0.00370834 -0.00179956 5.22051e-05 0.00184697 0.00358472 0.00526547 0.00688922 0.00845596 0.00996569 0.0113543 0.0125578 0.0135762 0.0144094 0.0150574 0.0155203 0.015798 0.0158906 0.015798 0.0155203 0.0150574 0.0144094 0.0135762 0.0125578 0.0113543 0.00996569 0.00845596 0.00688922 0.00526547 0.00358472 0.00184697 5.22051e-05 -0.00179956 -0.00370834 -0.00559882 -0.0073957 -0.00909899 -0.0107087 -0.0122248 -0.0136473 -0.0149762 -0.0162115 -0.0173227 -0.0182794 -0.0190814 -0.0197288 -0.0202216 -0.0205598 -0.0207434 -0.0207724 -0.0206722 -0.0204681 -0.0201601 -0.0197483 -0.0192327 -0.0186132 -0.0178898 -0.0170626 -0.0161778 -0.0152815 -0.0143737 -0.0134546 -0.0125239 -0.0115819 -0.0106284 -0.00966345 -0.00870829 -0.00778415 -0.006891 -0.00602887 -0.00519774 -0.00439762 -0.00362851 -0.00289041 -0.00221297 -0.00162585 -0.00112907 -0.000722602 -0.000406463 -0.00018065 -4.51626e-05 0 0 -4.97513e-05 -0.000199005 -0.000447762 -0.00079602 -0.00124378 -0.00179105 -0.00243781 -0.00318408 -0.0039942 -0.00483252 -0.00569903 -0.00659373 -0.00751664 -0.00846774 -0.00944703 -0.0104545 -0.0114656 -0.0124555 -0.0134243 -0.0143721 -0.0152987 -0.0162042 -0.0170886 -0.017952 -0.0187434 -0.0194123 -0.0199586 -0.0203824 -0.0206835 -0.0208621 -0.020918 -0.0208514 -0.0206364 -0.020247 -0.0196833 -0.0189452 -0.0180328 -0.0169461 -0.0156851 -0.0142497 -0.0126771 -0.011004 -0.00923067 -0.00735697 -0.00538293 -0.00330856 -0.00113384 0.00114121 0.00343015 0.00564656 0.00779043 0.00986175 0.0118605 0.0137868 0.0156405 0.0174217 0.0190575 0.0204752 0.0216748 0.0226563 0.0234197 0.023965 0.0242922 0.0244012 0.0242922 0.023965 0.0234197 0.0226563 0.0216748 0.0204752 0.0190575 0.0174217 0.0156405 0.0137868 0.0118605 0.00986175 0.00779043 0.00564656 0.00343015 0.00114121 -0.00113384 -0.00330856 -0.00538293 -0.00735697 -0.00923067 -0.011004 -0.0126771 -0.0142497 -0.0156851 -0.0169461 -0.0180328 -0.0189452 -0.0196833 -0.020247 -0.0206364 -0.0208514 -0.020918 -0.0208621 -0.0206835 -0.0203824 -0.0199586 -0.0194123 -0.0187434 -0.017952 -0.0170886 -0.0162042 -0.0152987 -0.0143721 -0.0134243 -0.0124555 -0.0114656 -0.0104545 -0.00944703 -0.00846773 -0.00751663 -0.00659373 -0.00569902 -0.00483251 -0.0039942 -0.00318408 -0.00243781 -0.00179104 -0.00124378 -0.00079602 -0.000447761 -0.000199005 -4.97512e-05 0 0 -5.45265e-05 -0.000218106 -0.000490739 -0.000872425 -0.00136316 -0.00196296 -0.0026718 -0.0034897 -0.00437438 -0.00528357 -0.00621726 -0.00717547 -0.00815818 -0.0091654 -0.0101971 -0.0112534 -0.0123057 -0.0133257 -0.0143133 -0.0152685 -0.0161914 -0.017082 -0.0179402 -0.018766 -0.019504 -0.0200986 -0.0205499 -0.0208578 -0.0210223 -0.0210435 -0.0209213 -0.0206558 -0.0202207 -0.0195901 -0.0187638 -0.0177418 -0.0165243 -0.0151111 -0.0135022 -0.0116978 -0.00974192 -0.00767899 -0.00550898 -0.00323187 -0.000847666 0.00164363 0.00424201 0.00694749 0.00966142 0.0122852 0.0148187 0.0172621 0.0196154 0.0218784 0.0240512 0.0261339 0.0280442 0.0296997 0.0311005 0.0322467 0.0331381 0.0337749 0.0341569 0.0342843 0.0341569 0.0337749 0.0331381 0.0322467 0.0311005 0.0296997 0.0280442 0.0261339 0.0240512 0.0218784 0.0196154 0.0172621 0.0148187 0.0122852 0.00966142 0.00694749 0.00424201 0.00164363 -0.000847666 -0.00323187 -0.00550898 -0.00767899 -0.00974192 -0.0116978 -0.0135022 -0.0151111 -0.0165243 -0.0177418 -0.0187638 -0.0195901 -0.0202207 -0.0206558 