<?xml version="1.0"?> 
<VTKFile type="StructuredGrid" version="0.1"> 
<StructuredGrid WholeExtent="0 128 0 128 0 0"> 
<Piece Extent="0 128 0 128 0 0"> 
<PointData>
<DataArray type="Float32" Name="u" format="ascii" NumberOfComponents="1"> 
0 0 0 0 0 0 0 0 0 0 0 0 0 0 0 0 0 0 0 0 0 0 0 0 0 0 0 0 0 0 0 0 0 0 0 0 0 0 0 0 0 0 0 0 0 0 0 0 0 0 0 0 0 0 0 0 0 0 0 0 0 0 0 0 0 0 0 0 0 0 0 0 0 0 0 0 0 0 0 0 0 0 0 0 0 0 0 0 0 0 0 0 0 0 0 0 0 0 0 0 0 0 0 0 0 0 0 0 0 0 0 0 0 0 0 0 0 0 0 0 0 0 0 0 0 0 0 0 0 0 2.46487e-07 9.85947e-07 2.21838e-06 3.94379e-06 6.16217e-06 8.87352e-06 1.20779e-05 1.57752e-05 1.98502e-05 2.41878e-05 2.8788e-05 3.36508e-05 3.8776e-05 4.41639e-05 4.98143e-05 5.57273e-05 6.1939e-05 6.84856e-05 7.53672e-05 8.25837e-05 9.01351e-05 9.80215e-05 0.000106243 0.000114799 0.000123646 0.000132741 0.000142084 0.000151674 0.000161511 0.000171596 0.000181928 0.000192508 0.000203232 0.000213999 0.000224808 0.000235659 0.000246552 0.000257487 0.000268464 0.000279483 0.000290407 0.000301098 0.000311557 0.000321782 0.000331775 0.000341536 0.000351063 0.000360358 0.000369289 0.000377727 0.00038567 0.000393119 0.000400074 0.000406536 0.000412503 0.000417976 0.000422875 0.000427121 0.000430714 0.000433654 0.00043594 0.000437573 0.000438553 0.00043888 0.000438553 0.000437573 0.00043594 0.000433654 0.000430714 0.000427121 0.000422875 0.000417976 0.000412503 0.000406536 0.000400074 0.000393119 0.00038567 0.000377727 0.000369289 0.000360358 0.000351063 0.000341536 0.000331775 0.000321782 0.000311557 0.000301098 0.000290407 0.000279483 0.000268464 0.000257487 0.000246552 0.000235659 0.000224808 0.000213999 0.000203232 0.000192508 0.000181928 0.000171596 0.000161511 0.000151674 0.000142084 0.000132741 0.000123646 0.000114799 0.000106243 9.80215e-05 9.01351e-05 8.25837e-05 7.53672e-05 6.84857e-05 6.1939e-05 5.57273e-05 4.98144e-05 4.4164e-05 3.87761e-05 3.36508e-05 2.87881e-05 2.41879e-05 1.98503e-05 1.57752e-05 1.20779e-05 8.87355e-06 6.16219e-06 3.9438e-06 2.21839e-06 9.8595e-07 2.46487e-07 0 0 9.85947e-07 3.94379e-06 8.87352e-06 1.57752e-05 2.46487e-05 3.54941e-05 4.83114e-05 6.31006e-05 7.94009e-05 9.67514e-05 0.000115152 0.000134603 0.000155104 0.000176656 0.000199257 0.000222909 0.000247756 0.000273942 0.000301469 0.000330335 0.00036054 0.000392086 0.000424971 0.000459196 0.000494586 0.000530965 0.000568335 0.000606694 0.000646044 0.000686383 0.000727712 0.000770031 0.000812929 0.000855996 0.000899231 0.000942634 0.000986206 0.00102995 0.00107385 0.00111793 0.00116163 0.00120439 0.00124623 0.00128713 0.0013271 0.00136614 0.00140425 0.00144143 0.00147716 0.00151091 0.00154268 0.00157248 0.0016003 0.00162614 0.00165001 0.0016719 0.0016915 0.00170848 0.00172286 0.00173461 0.00174376 0.00175029 0.00175421 0.00175552 0.00175421 0.00175029 0.00174376 0.00173461 0.00172286 0.00170848 0.0016915 0.0016719 0.00165001 0.00162614 0.0016003 0.00157248 0.00154268 0.00151091 0.00147716 0.00144143 0.00140425 0.00136614 0.0013271 0.00128713 0.00124623 0.00120439 0.00116163 0.00111793 0.00107385 0.00102995 0.000986206 0.000942634 0.000899231 0.000855996 0.000812929 0.000770031 0.000727712 0.000686383 0.000646044 0.000606694 0.000568335 0.000530965 0.000494586 0.000459196 0.000424971 0.000392086 0.000360541 0.000330335 0.000301469 0.000273943 0.000247756 0.000222909 0.000199257 0.000176656 0.000155104 0.000134603 0.000115152 9.67516e-05 7.94011e-05 6.31008e-05 4.83115e-05 3.54942e-05 2.46487e-05 1.57752e-05 8.87355e-06 3.9438e-06 9.8595e-07 0 0 2.21838e-06 8.87352e-06 1.99654e-05 3.54941e-05 5.54595e-05 7.98617e-05 0.000108701 0.000141976 0.000178652 0.000217691 0.000259092 0.000302857 0.000348984 0.000397475 0.000448329 0.000501545 0.000557451 0.00061637 0.000678304 0.000743253 0.000811216 0.000882193 0.000956185 0.00103319 0.00111282 0.00119467 0.00127875 0.00136506 0.0014536 0.00154436 0.00163735 0.00173257 0.00182909 0.00192599 0.00202327 0.00212093 0.00221896 0.00231738 0.00241617 0.00251535 0.00261366 0.00270988 0.00280401 0.00289604 0.00298598 0.00307382 0.00315957 0.00324322 0.0033236 0.00339954 0.00347103 0.00353807 0.00360067 0.00365882 0.00371252 0.00376178 0.00380588 0.00384409 0.00387643 0.00390288 0.00392346 0.00393816 0.00394698 0.00394992 0.00394698 0.00393816 0.00392346 0.00390288 0.00387643 0.00384409 0.00380588 0.00376178 0.00371252 0.00365882 0.00360067 0.00353807 0.00347103 0.00339954 0.0033236 0.00324322 0.00315957 0.00307382 0.00298598 0.00289604 0.00280401 0.00270988 0.00261366 0.00251535 0.00241617 0.00231738 0.00221896 0.00212093 0.00202327 0.00192599 0.00182909 0.00173257 0.00163735 0.00154436 0.0014536 0.00136506 0.00127875 0.00119467 0.00111282 0.00103319 0.000956185 0.000882194 0.000811216 0.000743253 0.000678305 0.000616371 0.000557451 0.000501546 0.000448329 0.000397476 0.000348985 0.000302857 0.000259093 0.000217691 0.000178652 0.000141977 0.000108701 7.98619e-05 5.54597e-05 3.54942e-05 1.99655e-05 8.87355e-06 2.21839e-06 0 0 3.94379e-06 1.57752e-05 3.54941e-05 6.31006e-05 9.85947e-05 0.000141976 0.000193246 0.000252402 0.000317604 0.000387006 0.000460608 0.000538412 0.000620417 0.000706622 0.000797029 0.000891636 0.000991023 0.00109577 0.00120587 0.00132134 0.00144216 0.00156834 0.00169988 0.00183678 0.00197834 0.00212386 0.00227334 0.00242678 0.00258417 0.00274553 0.00291085 0.00308012 0.00325172 0.00342398 0.00359692 0.00377054 0.00394482 0.00411979 0.00429542 0.00447173 0.00464651 0.00481757 0.0049849 0.00514852 0.0053084 0.00546457 0.00561701 0.00576573 0.00590863 0.00604363 0.00617072 0.00628991 0.00640119 0.00650457 0.00660004 0.00668761 0.006766 0.00683394 0.00689142 0.00693846 0.00697504 0.00700117 0.00701685 0.00702207 0.00701685 0.00700117 0.00697504 0.00693846 0.00689142 0.00683394 0.006766 0.00668761 0.00660004 0.00650457 0.00640119 0.00628991 0.00617072 0.00604363 0.00590863 0.00576573 0.00561701 0.00546457 0.0053084 0.00514852 0.0049849 0.00481757 0.00464651 0.00447173 0.00429542 0.00411979 0.00394482 0.00377054 0.00359692 0.00342398 0.00325172 0.00308012 0.00291085 0.00274553 0.00258417 0.00242678 0.00227334 0.00212386 0.00197834 0.00183678 0.00169988 0.00156834 0.00144216 0.00132134 0.00120588 0.00109577 0.000991024 0.000891637 0.00079703 0.000706623 0.000620418 0.000538413 0.000460609 0.000387006 0.000317604 0.000252403 0.000193246 0.000141977 9.8595e-05 6.31008e-05 3.54942e-05 1.57752e-05 3.9438e-06 0 0 6.16217e-06 2.46487e-05 5.54595e-05 9.85947e-05 0.000154054 0.000221838 0.000301946 0.000394379 0.000496256 0.000604696 0.000719701 0.000841269 0.000969401 0.0011041 0.00124536 0.00139318 0.00154847 0.00171214 0.00188418 0.00206459 0.00225338 0.00245054 0.00265607 0.00286997 0.00309116 0.00331853 0.00355209 0.00379184 0.00403777 0.00428989 0.0045482 0.00481269 0.00508081 0.00534997 0.00562019 0.00589146 0.00616379 0.00643716 0.00671159 0.00698707 0.00726017 0.00752745 0.00778891 0.00804456 0.00829438 0.00853839 0.00877658 0.00900895 0.00923223 0.00944317 0.00964175 0.00982798 0.0100019 0.0101634 0.0103126 0.0104494 0.0105719 0.010678 0.0107679 0.0108413 0.0108985 0.0109393 0.0109638 0.010972 0.0109638 0.0109393 0.0108985 0.0108413 0.0107679 0.010678 0.0105719 0.0104494 0.0103126 0.0101634 0.0100019 0.00982798 0.00964175 0.00944317 0.00923223 0.00900895 0.00877658 0.00853839 0.00829438 0.00804456 0.00778891 0.00752745 0.00726017 0.00698707 0.00671159 0.00643716 0.00616379 0.00589146 0.00562019 0.00534998 0.00508081 0.00481269 0.0045482 0.00428989 0.00403777 0.00379184 0.00355209 0.00331853 0.00309116 0.00286998 0.00265607 0.00245054 0.00225338 0.00206459 0.00188418 0.00171214 0.00154848 0.00139318 0.00124536 0.0011041 0.000969403 0.000841271 0.000719702 0.000604698 0.000496257 0.00039438 0.000301947 0.000221839 0.000154055 9.8595e-05 5.54597e-05 2.46487e-05 6.16219e-06 0 0 8.87352e-06 3.54941e-05 7.98617e-05 0.000141976 0.000221838 0.000319447 0.000434803 0.000567906 0.000714608 0.000870762 0.00103637 0.00121143 0.00139594 0.0015899 0.00179331 0.00200618 0.0022298 0.00246548 0.00271322 0.00297301 0.00324486 0.00352877 0.00382474 0.00413276 0.00445127 0.00477869 0.00511501 0.00546025 0.00581439 0.00617745 0.00654941 0.00693028 0.00731636 0.00770396 0.00809308 0.00848371 0.00887585 0.00926952 0.00966469 0.0100614 0.0104546 0.0108395 0.011216 0.0115842 0.0119439 0.0122953 0.0126383 0.0129729 0.0132944 0.0135982 0.0138841 0.0141523 0.0144027 0.0146353 0.0148501 0.0150471 0.0152235 0.0153764 0.0155057 0.0156115 0.0156938 0.0157526 0.0157879 0.0157997 0.0157879 0.0157526 0.0156938 0.0156115 0.0155057 0.0153764 0.0152235 0.0150471 0.0148501 0.0146353 0.0144027 0.0141523 0.0138841 0.0135982 0.0132944 0.0129729 0.0126383 0.0122953 0.0119439 0.0115842 0.011216 0.0108395 0.0104546 0.0100614 0.00966469 0.00926952 0.00887586 0.00848371 0.00809308 0.00770396 0.00731636 0.00693028 0.00654941 0.00617745 0.00581439 0.00546025 0.00511501 0.00477869 0.00445127 0.00413276 0.00382474 0.00352877 0.00324487 0.00297301 0.00271322 0.00246548 0.00222981 0.00200618 0.00179332 0.0015899 0.00139594 0.00121143 0.00103637 0.000870764 0.00071461 0.000567907 0.000434804 0.000319448 0.000221839 0.000141977 7.98619e-05 3.54942e-05 8.87355e-06 0 0 1.20779e-05 4.83114e-05 0.000108701 0.000193246 0.000301946 0.000434803 0.000591815 0.000772983 0.000972661 0.0011852 0.00141061 0.00164889 0.00190003 0.00216403 0.0024409 0.00273064 0.00303501 0.00335579 0.00369299 0.0040466 0.00441662 0.00480305 0.00520589 0.00562515 0.00605867 0.00650432 0.0069621 0.007432 0.00791403 0.00840819 0.00891447 0.00943288 0.00995838 0.010486 0.0110156 0.0115473 0.012081 0.0126168 0.0131547 0.0136947 0.0142299 0.0147538 0.0152663 0.0157673 0.016257 0.0167352 0.0172021 0.0176575 0.0180952 0.0185086 0.0188978 0.0192628 0.0196036 0.0199202 0.0202126 0.0204808 0.0207209 0.0209289 0.021105 0.021249 0.0213611 0.0214411 0.0214891 0.0215051 0.0214891 0.0214411 0.0213611 0.021249 0.021105 0.0209289 0.0207209 0.0204808 0.0202126 0.0199202 0.0196036 0.0192628 0.0188978 0.0185086 0.0180952 0.0176575 0.0172021 0.0167352 0.016257 0.0157673 0.0152663 0.0147538 0.0142299 0.0136947 0.0131547 0.0126168 0.012081 0.0115473 0.0110156 0.010486 0.00995839 0.00943288 0.00891447 0.00840819 0.00791404 0.00743201 0.0069621 0.00650433 0.00605868 0.00562515 0.0052059 0.00480305 0.00441662 0.0040466 0.00369299 0.0033558 0.00303501 0.00273064 0.0024409 0.00216403 0.00190003 0.00164889 0.00141062 0.00118521 0.000972663 0.000772985 0.000591816 0.000434804 0.000301947 0.000193246 0.000108701 4.83115e-05 1.20779e-05 0 0 1.57752e-05 6.31006e-05 0.000141976 0.000252402 0.000394379 0.000567906 0.000772983 0.00100961 0.00127041 0.00154802 0.00184243 0.00215365 0.00248167 0.00282649 0.00318812 0.00356654 0.00396409 0.00438308 0.0048235 0.00528535 0.00576865 0.00627337 0.00679954 0.00734713 0.00791337 0.00849544 0.00909336 0.00970711 0.0103367 0.0109821 0.0116434 0.0123205 0.0130069 0.0136959 0.0143877 0.0150821 0.0157793 0.0164791 0.0171817 0.0178869 0.018586 0.0192703 0.0199396 0.0205941 0.0212336 0.0218583 0.022468 0.0230629 0.0236345 0.0241745 0.0246829 0.0251596 0.0256048 0.0260183 0.0264002 0.0267504 0.027064 0.0273358 0.0275657 0.0277538 0.0279002 0.0280047 0.0280674 0.0280883 0.0280674 0.0280047 0.0279002 0.0277538 0.0275657 0.0273358 0.027064 0.0267504 0.0264002 0.0260183 0.0256048 0.0251596 0.0246829 0.0241745 0.0236345 0.0230629 0.022468 0.0218583 0.0212336 0.0205941 0.0199396 0.0192703 0.018586 0.0178869 0.0171817 0.0164791 0.0157793 0.0150822 0.0143877 0.0136959 0.0130069 0.0123205 0.0116434 0.0109821 0.0103367 0.00970711 0.00909336 0.00849545 0.00791337 0.00734714 0.00679954 0.00627338 0.00576865 0.00528536 0.0048235 0.00438308 0.0039641 0.00356655 0.00318812 0.00282649 0.00248167 0.00215365 0.00184244 0.00154803 0.00127042 0.00100961 0.000772985 0.000567907 0.00039438 0.000252403 0.000141977 6.31008e-05 1.57752e-05 0 0 1.9802e-05 7.92078e-05 0.000178218 0.000316831 0.000495049 0.00071287 0.000970296 0.00126732 0.00159465 0.00194296 0.00231225 0.00270253 0.00311379 0.00354603 0.00399927 0.00447348 0.00497158 0.00549647 0.00604815 0.00662662 0.00723187 0.00786392 0.00852275 0.00920837 0.00991728 0.010646 0.0113944 0.0121627 0.0129507 0.0137585 0.0145861 0.0154335 0.0162924 0.0171547 0.0180203 0.0188893 0.0197616 0.0206373 0.0215163 0.0223986 0.0232733 0.0241293 0.0249667 0.0257855 0.0265856 0.027367 0.0281298 0.028874 0.029589 0.0302645 0.0309005 0.0314969 0.0320537 0.0325709 0.0330486 0.0334868 0.033879 0.0342189 0.0345066 0.0347419 0.0349249 0.0350557 0.0351341 0.0351603 0.0351341 0.0350557 0.0349249 0.0347419 0.0345066 0.0342189 0.033879 0.0334868 0.0330486 0.0325709 0.0320537 0.0314969 0.0309005 0.0302645 0.029589 0.028874 0.0281298 0.027367 0.0265856 0.0257855 0.0249667 0.0241293 0.0232733 0.0223986 0.0215163 0.0206373 0.0197616 0.0188893 0.0180203 0.0171547 0.0162924 0.0154335 0.0145861 0.0137585 0.0129507 0.0121627 0.0113944 0.010646 0.00991728 0.00920838 0.00852276 0.00786392 0.00723188 0.00662662 0.00604816 0.00549648 0.00497159 0.00447349 0.00399927 0.00354604 0.00311379 0.00270253 0.00231225 0.00194296 0.00159465 0.00126733 0.000970298 0.000712872 0.00049505 0.000316832 0.000178218 7.9208e-05 1.9802e-05 0 0 2.39948e-05 9.59791e-05 0.000215953 0.000383916 0.000599869 0.000863812 0.00117574 0.00153567 0.00193214 0.00235375 0.00280048 0.00327234 0.00376932 0.00429143 0.00483866 0.00541102 0.00601201 0.00664512 0.00731037 0.00800774 0.00873724 0.00949887 0.0102926 0.0111185 0.0119723 0.0128498 0.013751 0.0146758 0.0156244 0.0165966 0.0175926 0.0186122 0.0196456 0.020683 0.0217243 0.0227696 0.0238188 0.024872 0.0259291 0.0269902 0.028042 0.0290713 0.0300782 0.0310627 0.0320246 0.0329641 0.0338812 0.0347758 0.0356354 0.0364474 0.0372118 0.0379287 0.038598 0.0392198 0.039794 0.0403206 0.040792 0.0412006 0.0415463 0.0418292 0.0420492 0.0422063 0.0423006 0.042332 0.0423006 0.0422063 0.0420492 0.0418292 0.0415463 0.0412006 0.040792 0.0403206 0.039794 0.0392198 0.038598 0.0379287 0.0372118 0.0364474 0.0356354 0.0347758 0.0338812 0.0329641 0.0320246 0.0310627 0.0300782 0.0290713 0.028042 0.0269902 0.0259291 0.024872 0.0238188 0.0227696 0.0217243 0.020683 0.0196456 0.0186122 0.0175926 0.0165966 0.0156244 0.0146758 0.013751 0.0128498 0.0119723 0.0111185 0.0102926 0.00949888 0.00873725 0.00800774 0.00731037 0.00664513 0.00601201 0.00541103 0.00483867 0.00429143 0.00376933 0.00327234 0.00280049 0.00235375 0.00193215 0.00153567 0.00117575 0.000863814 0.000599871 0.000383917 0.000215953 9.59793e-05 2.39948e-05 0 0 2.83536e-05 0.000113414 0.000255182 0.000453658 0.00070884 0.00102073 0.00138933 0.00181463 0.0022829 0.0027804 0.00330712 0.00386308 0.00444826 0.00506266 0.0057063 0.00637916 0.00708536 0.00782902 0.00861014 0.00942871 0.0102847 0.0111782 0.0121092 0.0130776 0.0140785 0.015107 0.016163 0.0172466 0.0183577 0.0194965 0.0206628 0.0218566 0.0230665 0.0242809 0.0254998 0.0267232 0.027951 0.0291834 0.0304203 0.0316617 0.0328922 0.0340963 0.0352742 0.0364256 0.0375508 0.0386496 0.0397221 0.0407683 0.0417735 0.042723 0.0436169 0.0444552 0.0452379 0.0459649 0.0466362 0.0472519 0.0478031 0.0482808 0.048685 0.0490157 0.0492729 0.0494566 0.0495668 0.0496036 0.0495668 0.0494566 0.0492729 0.0490157 0.048685 0.0482808 0.0478031 0.0472519 0.0466362 0.0459649 0.0452379 0.0444552 0.0436169 0.042723 0.0417735 0.0407683 0.0397221 0.0386496 0.0375508 0.0364256 0.0352742 0.0340963 0.0328922 0.0316617 0.0304203 0.0291834 0.027951 0.0267232 0.0254998 0.0242809 0.0230665 0.0218566 0.0206628 0.0194965 0.0183578 0.0172466 0.016163 0.015107 0.0140785 0.0130776 0.0121092 0.0111782 0.0102847 0.00942872 0.00861014 0.00782903 0.00708537 0.00637917 0.00570631 0.00506267 0.00444826 0.00386309 0.00330713 0.00278041 0.00228291 0.00181463 0.00138933 0.00102073 0.000708842 0.000453659 0.000255183 0.000113415 2.83537e-05 0 0 3.28784e-05 0.000131514 0.000295906 0.000526055 0.000821961 0.00118362 0.00161104 0.00210422 0.00264692 0.00322291 0.00383218 0.00447475 0.0051506 0.00585975 0.00660218 0.0073779 0.00819165 0.00904817 0.00994747 0.0108895 0.0118744 0.012902 0.0139724 0.0150855 0.0162358 0.0174174 0.0186305 0.0198749 0.0211508 0.022458 0.0237967 0.0251668 0.026555 0.0279483 0.0293466 0.0307499 0.0321582 0.0335715 0.0349898 0.0364131 0.0378238 0.0392043 0.0405545 0.0418744 0.0431641 0.0444235 0.0456526 0.0468515 0.0480034 0.0490915 0.0501158 0.0510764 0.0519731 0.0528061 0.0535753 0.0542807 0.0549122 0.0554594 0.0559225 0.0563014 0.056596 0.0568065 0.0569328 0.0569749 0.0569328 0.0568065 0.056596 0.0563014 0.0559225 0.0554594 0.0549122 0.0542807 0.0535753 0.0528061 0.0519731 0.0510764 0.0501158 0.0490915 0.0480034 0.0468515 0.0456526 0.0444235 0.0431641 0.0418744 0.0405545 0.0392043 0.0378238 0.0364131 0.0349898 0.0335715 0.0321582 0.0307499 0.0293466 0.0279483 0.026555 0.0251668 0.0237967 0.022458 0.0211508 0.0198749 0.0186305 0.0174174 0.0162358 0.0150855 0.0139724 0.012902 0.0118744 0.0108895 0.00994748 0.00904818 0.00819166 0.00737791 0.00660219 0.00585976 0.00515061 0.00447476 0.00383219 0.00322292 0.00264693 0.00210423 0.00161105 0.00118363 0.000821963 0.000526056 0.000295907 0.000131514 3.28785e-05 0 0 3.75693e-05 0.000150277 0.000338124 0.000601109 0.000939233 0.0013525 0.0018409 0.00240444 0.0030242 0.00368127 0.00437566 0.00510735 0.00587636 0.00668268 0.0075263 0.00840724 0.00933087 0.0103026 0.0113224 0.0123902 0.0135061 0.0146702 0.0158822 0.0171424 0.0184442 0.0197812 0.0211534 0.0225608 0.0240035 0.0254813 0.0269944 0.0285426 0.0301112 0.0316853 0.0332648 0.0348498 0.0364403 0.0380362 0.0396376 0.0412445 0.042837 0.0443952 0.0459192 0.0474089 0.0488644 0.0502857 0.0516727 0.0530255 0.0543251 0.0555528 0.0567084 0.0577921 0.0588038 0.0597435 0.0606113 0.061407 0.0621193 0.0627366 0.0632589 0.0636863 0.0640187 0.0642561 0.0643985 0.064446 0.0643985 0.0642561 0.0640187 0.0636863 0.0632589 0.0627366 0.0621193 0.061407 0.0606113 0.0597435 0.0588038 0.0577921 0.0567084 0.0555528 0.0543251 0.0530255 0.0516727 0.0502857 0.0488644 0.0474089 0.0459192 0.0443952 0.042837 0.0412445 0.0396376 0.0380362 0.0364403 0.0348498 0.0332648 0.0316853 0.0301112 0.0285426 0.0269944 0.0254813 0.0240035 0.0225609 0.0211534 0.0197812 0.0184442 0.0171424 0.0158822 0.0146702 0.0135062 0.0123902 0.0113224 0.0103026 0.00933088 0.00840725 0.00752631 0.00668269 0.00587637 0.00510737 0.00437567 0.00368128 0.00302421 0.00240444 0.0018409 0.0013525 0.000939235 0.00060111 0.000338125 0.000150278 3.75694e-05 0 0 4.24262e-05 0.000169705 0.000381836 0.000678819 0.00106065 0.00152734 0.00207888 0.00271528 0.00341474 0.0041555 0.00493755 0.00576089 0.00662553 0.00753145 0.00847867 0.00946718 0.010503 0.0115922 0.0127348 0.0139307 0.0151801 0.0164827 0.0178388 0.0192482 0.0207037 0.0221983 0.0237318 0.0253044 0.0269159 0.0285663 0.0302558 0.0319842 0.0337351 0.0354918 0.0372545 0.039023 0.0407973 0.0425776 0.0443637 0.0461558 0.0479316 0.0496691 0.0513683 0.0530293 0.0546519 0.0562363 0.0577823 0.0592901 0.0607386 0.0621068 0.0633948 0.0646025 0.06573 0.0667772 0.0677441 0.0686308 0.0694244 0.0701122 0.0706942 0.0711704 0.0715407 0.0718053 0.071964 0.0720169 0.071964 0.0718053 0.0715407 0.0711704 0.0706942 0.0701122 0.0694244 0.0686308 0.0677441 0.0667772 0.06573 0.0646025 0.0633948 0.0621068 0.0607386 0.0592901 0.0577823 0.0562363 0.0546519 0.0530293 0.0513683 0.0496691 0.0479316 0.0461558 0.0443637 0.0425776 0.0407973 0.039023 0.0372545 0.0354918 0.0337351 0.0319842 0.0302558 0.0285663 0.0269159 0.0253044 0.0237318 0.0221983 0.0207038 0.0192482 0.0178388 0.0164827 0.0151801 0.0139308 0.0127348 0.0115922 0.010503 0.0094672 0.00847868 0.00753146 0.00662554 0.0057609 0.00493756 0.00415551 0.00341475 0.00271528 0.00207889 0.00152735 0.00106066 0.000678821 0.000381837 0.000169705 4.24263e-05 0 0 4.74491e-05 0.000189796 0.000427042 0.000759185 0.00118623 0.00170817 0.00232501 0.00303674 0.00381854 0.00464558 0.00551785 0.00643536 0.0073981 0.00840607 0.00945928 0.0105577 0.0117081 0.0129171 0.0141848 0.0155111 0.0168961 0.0183397 0.019842 0.0214028 0.0230144 0.0246687 0.0263657 0.0281055 0.0298879 0.0317131 0.0335809 0.0354915 0.0374266 0.0393679 0.0413155 0.0432693 0.0452293 0.0471956 0.0491682 0.0511469 0.0531077 0.055026 0.0569019 0.0587354 0.0605265 0.0622752 0.0639815 0.0656455 0.0672439 0.0687537 0.070175 0.0715076 0.0727516 0.073907 0.0749738 0.075952 0.0768275 0.0775863 0.0782284 0.0787537 0.0791623 0.0794541 0.0796293 0.0796876 0.0796293 0.0794541 0.0791623 0.0787537 0.0782284 0.0775863 0.0768275 0.075952 0.0749738 0.073907 0.0727516 0.0715076 0.070175 0.0687537 0.0672439 0.0656455 0.0639816 0.0622752 0.0605265 0.0587354 0.0569019 0.055026 0.0531077 0.0511469 0.0491682 0.0471956 0.0452293 0.0432693 0.0413155 0.0393679 0.0374266 0.0354915 0.0335809 0.0317131 0.0298879 0.0281055 0.0263657 0.0246687 0.0230144 0.0214029 0.019842 0.0183397 0.0168961 0.0155111 0.0141848 0.0129172 0.0117081 0.0105577 0.0094593 0.00840609 0.00739811 0.00643537 0.00551786 0.00464559 0.00381855 0.00303675 0.00232501 0.00170817 0.00118623 0.000759187 0.000427043 0.000189797 4.74492e-05 0 0 5.2638e-05 0.000210552 0.000473742 0.000842208 0.00131595 0.00189497 0.00257926 0.00336883 0.00423561 0.00515152 0.00611657 0.00713076 0.00819408 0.00930654 0.0104681 0.0116789 0.0129461 0.0142773 0.0156724 0.0171314 0.0186543 0.0202411 0.0218918 0.0236064 0.0253762 0.0271925 0.0290551 0.0309641 0.0329196 0.0349215 0.0369698 0.0390646 0.0411858 0.0433136 0.0454479 0.0475888 0.0497363 0.0518903 0.0540509 0.056218 0.0583652 0.0604658 0.0625198 0.0645273 0.0664882 0.0684025 0.0702703 0.0720916 0.073841 0.0754934 0.0770488 0.0785072 0.0798686 0.081133 0.0823004 0.0833707 0.0843287 0.085159 0.0858615 0.0864363 0.0868833 0.0872026 0.0873942 0.0874581 0.0873942 0.0872026 0.0868833 0.0864363 0.0858615 0.085159 0.0843287 0.0833707 0.0823004 0.081133 0.0798686 0.0785072 0.0770488 0.0754934 0.073841 0.0720916 0.0702703 0.0684025 0.0664882 0.0645273 0.0625198 0.0604658 0.0583652 0.056218 0.0540509 0.0518903 0.0497363 0.0475888 0.0454479 0.0433136 0.0411858 0.0390646 0.0369698 0.0349215 0.0329196 0.0309642 0.0290551 0.0271925 0.0253762 0.0236064 0.0218918 0.0202411 0.0186543 0.0171314 0.0156724 0.0142773 0.0129461 0.0116789 0.0104682 0.00930656 0.0081941 0.00713077 0.00611659 0.00515153 0.00423562 0.00336884 0.00257927 0.00189497 0.00131595 0.00084221 0.000473743 0.000210553 5.26381e-05 0 0 5.79876e-05 0.00023195 0.000521888 0.000927801 0.00144969 0.00208755 0.00284139 0.00371121 0.00466551 0.00567283 0.00673315 0.00784649 0.00901283 0.0102322 0.0115046 0.0128299 0.0142164 0.015672 0.0171968 0.0187908 0.0204539 0.0221862 0.0239877 0.0258583 0.0277886 0.0297689 0.0317994 0.0338799 0.0360105 0.0381912 0.040422 0.0427029 0.0450122 0.0473284 0.0496514 0.0519812 0.0543179 0.0566614 0.0590117 0.0613688 0.063704 0.0659884 0.068222 0.0704048 0.0725369 0.0746182 0.0766486 0.0786283 0.0805299 0.082326 0.0840165 0.0856016 0.0870812 0.0884553 0.0897239 0.090887 0.091928 0.0928302 0.0935936 0.0942182 0.094704 0.095051 0.0952591 0.0953285 0.0952591 0.095051 0.094704 0.0942182 0.0935936 0.0928302 0.091928 0.090887 0.0897239 0.0884553 0.0870812 0.0856016 0.0840165 0.082326 0.0805299 0.0786283 0.0766486 0.0746182 0.0725369 0.0704048 0.068222 0.0659884 0.063704 0.0613689 0.0590117 0.0566614 0.0543179 0.0519812 0.0496514 0.0473284 0.0450122 0.0427029 0.040422 0.0381912 0.0360105 0.0338799 0.0317994 0.029769 0.0277886 0.0258583 0.0239877 0.0221862 0.0204539 0.0187908 0.0171968 0.015672 0.0142164 0.0128299 0.0115046 0.0102322 0.00901285 0.0078465 0.00673317 0.00567284 0.00466552 0.00371121 0.0028414 0.00208756 0.00144969 0.000927804 0.00052189 0.000231951 5.79877e-05 0 0 6.34925e-05 0.00025397 0.000571432 0.00101588 0.00158731 0.00228573 0.00311113 0.00406352 0.00510783 0.00620901 0.00736705 0.00858195 0.00985372 0.0111824 0.0125678 0.0140102 0.0155182 0.0171006 0.0187575 0.0204887 0.0222944 0.0241745 0.026129 0.0281579 0.0302509 0.0323976 0.0345981 0.0368522 0.0391601 0.0415217 0.0439371 0.0464061 0.0489056 0.0514121 0.0539256 0.0564462 0.0589739 0.0615086 0.0640503 0.0665991 0.0691239 0.0715937 0.0740084 0.076368 0.0786725 0.080922 0.0831164 0.0852558 0.0873106 0.0892513 0.091078 0.0927907 0.0943894 0.095874 0.0972445 0.0985011 0.0996256 0.1006 0.101425 0.1021 0.102624 0.102999 0.103224 0.103299 0.103224 0.102999 0.102624 0.1021 0.101425 0.1006 0.0996256 0.0985011 0.0972445 0.095874 0.0943894 0.0927907 0.091078 0.0892513 0.0873106 0.0852558 0.0831164 0.080922 0.0786725 0.076368 0.0740084 0.0715937 0.0691239 0.0665991 0.0640503 0.0615086 0.0589739 0.0564462 0.0539256 0.0514121 0.0489056 0.0464061 0.0439371 0.0415217 0.0391601 0.0368522 0.0345981 0.0323976 0.0302509 0.0281579 0.026129 0.0241745 0.0222944 0.0204887 0.0187575 0.0171006 0.0155182 0.0140102 0.0125679 0.0111824 0.00985374 0.00858197 0.00736706 0.00620902 0.00510784 0.00406353 0.00311114 0.00228573 0.00158732 0.00101588 0.000571434 0.000253971 6.34926e-05 0 0 6.91527e-05 0.000276611 0.000622374 0.00110644 0.00172882 0.0024895 0.00338848 0.00442577 0.00556256 0.00676006 0.00801825 0.00933714 0.0107167 0.012157 0.013658 0.0152197 0.0168516 0.0185631 0.0203543 0.0222252 0.0241757 0.0262059 0.0283157 0.0305052 0.0327632 0.0350785 0.0374511 0.0398811 0.0423684 0.044913 0.0475149 0.0501742 0.0528658 0.0555645 0.0582705 0.0609838 0.0637042 0.0664319 0.0691668 0.0719089 0.074625 0.0772816 0.0798788 0.0824167 0.0848951 0.0873141 0.0896737 0.0919739 0.094183 0.0962695 0.0982334 0.100075 0.101793 0.103389 0.104862 0.106213 0.107421 0.108469 0.109355 0.110081 0.110645 0.111047 0.111289 0.11137 0.111289 0.111047 0.110645 0.110081 0.109355 0.108469 0.107421 0.106213 0.104862 0.103389 0.101793 0.100075 0.0982334 0.0962695 0.094183 0.0919739 0.0896737 0.0873141 0.0848951 0.0824167 0.0798788 0.0772816 0.074625 0.0719089 0.0691668 0.0664319 0.0637042 0.0609838 0.0582705 0.0555645 0.0528658 0.0501742 0.047515 0.044913 0.0423684 0.0398811 0.0374511 0.0350785 0.0327632 0.0305052 0.0283157 0.0262059 0.0241757 0.0222252 0.0203543 0.0185631 0.0168516 0.0152197 0.013658 0.012157 0.0107168 0.00933716 0.00801827 0.00676007 0.00556258 0.00442578 0.00338849 0.0024895 0.00172882 0.00110645 0.000622376 0.000276611 6.91528e-05 0 0 7.49682e-05 0.000299873 0.000674714 0.00119949 0.0018742 0.00269885 0.00367344 0.00479796 0.00602971 0.00732598 0.00868676 0.0101121 0.0116019 0.0131562 0.0147751 0.0164584 0.0182165 0.0200595 0.0219874 0.0240001 0.0260978 0.0282803 0.0305478 0.0329001 0.0353254 0.0378115 0.0403586 0.0429665 0.0456353 0.0483651 0.0511557 0.0540072 0.0568928 0.0597858 0.0626862 0.0655939 0.0685089 0.0714313 0.0743611 0.0772982 0.0802071 0.0830522 0.0858334 0.0885509 0.0912045 0.0937944 0.0963204 0.0987827 0.101147 0.103381 0.105483 0.107453 0.109292 0.111 0.112577 0.114022 0.115316 0.116437 0.117385 0.118161 0.118765 0.119196 0.119454 0.119541 0.119454 0.119196 0.118765 0.118161 0.117385 0.116437 0.115316 0.114022 0.112577 0.111 0.109292 0.107453 0.105483 0.103381 0.101147 0.0987827 0.0963204 0.0937944 0.0912045 0.0885509 0.0858334 0.0830522 0.0802071 0.0772982 0.0743611 0.0714313 0.0685089 0.0655939 0.0626862 0.0597858 0.0568928 0.0540072 0.0511557 0.0483651 0.0456353 0.0429665 0.0403586 0.0378115 0.0353254 0.0329002 0.0305478 0.0282804 0.0260978 0.0240001 0.0219874 0.0200595 0.0182165 0.0164585 0.0147751 0.0131562 0.0116019 0.0101121 0.00868678 0.007326 0.00602973 0.00479798 0.00367345 0.00269886 0.00187421 0.00119949 0.000674715 0.000299873 7.49684e-05 0 0 8.0939e-05 0.000323756 0.000728451 0.00129502 0.00202348 0.0029138 0.00396601 0.0051801 0.00650928 0.00790678 0.00937259 0.0109067 0.0125092 0.0141799 0.015919 0.0177264 0.019613 0.0215897 0.0236566 0.0258136 0.0280607 0.0303979 0.0328253 0.0353428 0.0379376 0.0405968 0.0433204 0.0461085 0.048961 0.0518779 0.0548593 0.0579051 0.0609868 0.0640759 0.0671725 0.0702765 0.073388 0.0765069 0.0796332 0.082767 0.0858703 0.0889054 0.0918722 0.0947707 0.0976009 0.100363 0.103057 0.105682 0.108203 0.110585 0.112826 0.114927 0.116887 0.118708 0.120389 0.121929 0.123308 0.124503 0.125514 0.126341 0.126984 0.127444 0.12772 0.127811 0.12772 0.127444 0.126984 0.126341 0.125514 0.124503 0.123308 0.121929 0.120389 0.118708 0.116887 0.114927 0.112826 0.110585 0.108203 0.105682 0.103057 0.100363 0.0976009 0.0947707 0.0918722 0.0889054 0.0858703 0.082767 0.0796332 0.0765069 0.073388 0.0702766 0.0671725 0.0640759 0.0609868 0.0579051 0.0548593 0.0518779 0.048961 0.0461085 0.0433204 0.0405968 0.0379376 0.0353428 0.0328253 0.030398 0.0280607 0.0258136 0.0236566 0.0215898 0.019613 0.0177264 0.015919 0.0141799 0.0125092 0.0109067 0.00937261 0.00790679 0.00650929 0.00518011 0.00396602 0.00291381 0.00202348 0.00129503 0.000728453 0.000323757 8.09392e-05 0 0 8.70651e-05 0.000348261 0.000783586 0.00139304 0.00217663 0.00313434 0.00426619 0.00557217 0.00700126 0.00850244 0.0100757 0.0117211 0.0134386 0.0152281 0.0170898 0.0190236 0.021041 0.0231539 0.025362 0.0276656 0.0300644 0.0325587 0.0351482 0.0378332 0.0405997 0.0434342 0.0463366 0.049307 0.0523453 0.0554515 0.0586257 0.0618678 0.0651476 0.0684349 0.0717296 0.0750318 0.0783415 0.0816586 0.0849832 0.0883152 0.0916146 0.0948412 0.097995 0.101076 0.104084 0.10702 0.109882 0.112672 0.115351 0.117881 0.120262 0.122495 0.124578 0.126512 0.128298 0.129934 0.131399 0.132668 0.133742 0.13462 0.135304 0.135792 0.136085 0.136183 0.136085 0.135792 0.135304 0.13462 0.133742 0.132668 0.131399 0.129934 0.128298 0.126512 0.124578 0.122495 0.120262 0.117881 0.115351 0.112672 0.109882 0.10702 0.104084 0.101076 0.097995 0.0948412 0.0916146 0.0883152 0.0849832 0.0816586 0.0783415 0.0750318 0.0717296 0.0684349 0.0651476 0.0618678 0.0586257 0.0554515 0.0523453 0.049307 0.0463367 0.0434342 0.0405997 0.0378332 0.0351483 0.0325587 0.0300645 0.0276656 0.0253621 0.0231539 0.0210411 0.0190236 0.0170898 0.0152282 0.0134386 0.0117211 0.0100757 0.00850246 0.00700127 0.00557218 0.0042662 0.00313435 0.00217663 0.00139305 0.000783588 0.000348261 8.70653e-05 0 0 9.33466e-05 0.000373386 0.000840119 0.00149355 0.00233366 0.00336048 0.00457398 0.00597418 0.00750565 0.00911298 0.0107962 0.0125552 0.0143901 0.0163009 0.0182875 0.0203499 0