<?xml version="1.0"?> 
<VTKFile type="StructuredGrid" version="0.1"> 
<StructuredGrid WholeExtent="0 128 0 128 0 0"> 
<Piece Extent="0 128 0 128 0 0"> 
<PointData>
<DataArray type="Float32" Name="u" format="ascii" NumberOfComponents="1"> 
0 0 0 0 0 0 0 0 0 0 0 0 0 0 0 0 0 0 0 0 0 0 0 0 0 0 0 0 0 0 0 0 0 0 0 0 0 0 0 0 0 0 0 0 0 0 0 0 0 0 0 0 0 0 0 0 0 0 0 0 0 0 0 0 0 0 0 0 0 0 0 0 0 0 0 0 0 0 0 0 0 0 0 0 0 0 0 0 0 0 0 0 0 0 0 0 0 0 0 0 0 0 0 0 0 0 0 0 0 0 0 0 0 0 0 0 0 0 0 0 0 0 0 0 0 0 0 0 0 0 3.74629e-07 1.49852e-06 3.37167e-06 5.99407e-06 9.36574e-06 1.34867e-05 1.83568e-05 2.39763e-05 3.00398e-05 3.62423e-05 4.25837e-05 4.90641e-05 5.56834e-05 6.24416e-05 6.93388e-05 7.63749e-05 8.35546e-05 9.08825e-05 9.83588e-05 0.000105983 0.000113756 0.000121677 0.000129746 0.000137964 0.000146274 0.000154619 0.000163 0.000171416 0.000179868 0.000188356 0.00019688 0.000205439 0.000213968 0.000222402 0.00023074 0.000238983 0.000247131 0.000255183 0.00026314 0.000271001 0.0002787 0.00028617 0.00029341 0.000300421 0.000307202 0.000313755 0.000320078 0.000326171 0.00033198 0.000337446 0.000342572 0.000347356 0.000351798 0.000355899 0.000359658 0.000363076 0.00036612 0.000368758 0.000370991 0.000372817 0.000374238 0.000375253 0.000375862 0.000376065 0.000375862 0.000375253 0.000374238 0.000372817 0.000370991 0.000368759 0.00036612 0.000363076 0.000359658 0.000355899 0.000351798 0.000347356 0.000342572 0.000337446 0.00033198 0.000326171 0.000320078 0.000313755 0.000307202 0.000300421 0.00029341 0.00028617 0.0002787 0.000271001 0.00026314 0.000255183 0.000247131 0.000238983 0.00023074 0.000222402 0.000213968 0.000205439 0.00019688 0.000188356 0.000179868 0.000171416 0.000163 0.000154619 0.000146274 0.000137964 0.000129747 0.000121677 0.000113756 0.000105983 9.83589e-05 9.08827e-05 8.35547e-05 7.6375e-05 6.93389e-05 6.24418e-05 5.56835e-05 4.90642e-05 4.25839e-05 3.62424e-05 3.00399e-05 2.39764e-05 1.83569e-05 1.34867e-05 9.36577e-06 5.99409e-06 3.37168e-06 1.49852e-06 3.74631e-07 0 0 1.49852e-06 5.99407e-06 1.34867e-05 2.39763e-05 3.74629e-05 5.39466e-05 7.34274e-05 9.59051e-05 0.000120159 0.000144969 0.000170335 0.000196256 0.000222733 0.000249766 0.000277355 0.000305499 0.000334218 0.00036353 0.000393435 0.000423933 0.000455024 0.000486708 0.000518986 0.000551856 0.000585094 0.000618475 0.000651999 0.000685665 0.000719473 0.000753425 0.000787519 0.000821755 0.000855873 0.000889608 0.000922962 0.000955934 0.000988524 0.00102073 0.00105256 0.001084 0.0011148 0.00114468 0.00117364 0.00120168 0.00122881 0.00125502 0.00128031 0.00130469 0.00132792 0.00134979 0.00137029 0.00138942 0.00140719 0.00142359 0.00143863 0.0014523 0.00146448 0.00147503 0.00148396 0.00149127 0.00149695 0.00150101 0.00150345 0.00150426 0.00150345 0.00150101 0.00149695 0.00149127 0.00148396 0.00147503 0.00146448 0.0014523 0.00143863 0.0014236 0.00140719 0.00138942 0.00137029 0.00134979 0.00132792 0.00130469 0.00128031 0.00125502 0.00122881 0.00120168 0.00117364 0.00114468 0.0011148 0.001084 0.00105256 0.00102073 0.000988524 0.000955934 0.000922962 0.000889608 0.000855873 0.000821756 0.000787519 0.000753425 0.000719474 0.000685665 0.000651999 0.000618476 0.000585095 0.000551857 0.000518986 0.000486709 0.000455025 0.000423934 0.000393436 0.000363531 0.000334219 0.0003055 0.000277356 0.000249767 0.000222734 0.000196257 0.000170335 0.00014497 0.00012016 9.59055e-05 7.34276e-05 5.39468e-05 3.74631e-05 2.39764e-05 1.34867e-05 5.99409e-06 1.49852e-06 0 0 3.37167e-06 1.34867e-05 3.0345e-05 5.39466e-05 8.42916e-05 0.00012138 0.000165212 0.000215787 0.000270358 0.000326181 0.000383253 0.000441577 0.00050115 0.000561974 0.000624049 0.000687374 0.000751991 0.000817943 0.000885229 0.00095385 0.0010238 0.00109509 0.00116772 0.00124168 0.00131646 0.00139157 0.001467 0.00154275 0.00161882 0.00169521 0.00177192 0.00184895 0.00192571 0.00200162 0.00207666 0.00215085 0.00222418 0.00229665 0.00236826 0.00243901 0.0025083 0.00257553 0.00264069 0.00270379 0.00276482 0.00282379 0.0028807 0.00293554 0.00298782 0.00303702 0.00308315 0.0031262 0.00316618 0.00320309 0.00323692 0.00326768 0.00329508 0.00331883 0.00333892 0.00335536 0.00336814 0.00337728 0.00338275 0.00338458 0.00338275 0.00337728 0.00336814 0.00335536 0.00333892 0.00331883 0.00329508 0.00326768 0.00323692 0.00320309 0.00316618 0.0031262 0.00308315 0.00303702 0.00298782 0.00293554 0.0028807 0.00282379 0.00276482 0.00270379 0.00264069 0.00257553 0.0025083 0.00243901 0.00236826 0.00229665 0.00222418 0.00215085 0.00207666 0.00200162 0.00192571 0.00184895 0.00177192 0.00169521 0.00161882 0.00154275 0.001467 0.00139157 0.00131646 0.00124168 0.00116772 0.0010951 0.00102381 0.000953851 0.00088523 0.000817944 0.000751993 0.000687375 0.00062405 0.000561976 0.000501152 0.000441578 0.000383255 0.000326182 0.000270359 0.000215787 0.000165212 0.00012138 8.42919e-05 5.39468e-05 3.03451e-05 1.34867e-05 3.37168e-06 0 0 5.99407e-06 2.39763e-05 5.39466e-05 9.59051e-05 0.000149852 0.000215787 0.00029371 0.000383621 0.000480637 0.000579877 0.00068134 0.000785025 0.000890934 0.000999065 0.00110942 0.001222 0.00133687 0.00145412 0.00157374 0.00169573 0.0018201 0.00194683 0.00207594 0.00220742 0.00234038 0.0024739 0.00260799 0.00274266 0.00287789 0.0030137 0.00315008 0.00328702 0.00342349 0.00355843 0.00369185 0.00382373 0.0039541 0.00408293 0.00421024 0.00433602 0.0044592 0.00457871 0.00469456 0.00480673 0.00491524 0.00502007 0.00512124 0.00521874 0.00531167 0.00539914 0.00548115 0.00555769 0.00562877 0.00569438 0.00575453 0.00580922 0.00585792 0.00590014 0.00593585 0.00596508 0.00598781 0.00600404 0.00601379 0.00601703 0.00601379 0.00600404 0.00598781 0.00596508 0.00593585 0.00590014 0.00585792 0.00580922 0.00575453 0.00569438 0.00562877 0.00555769 0.00548115 0.00539914 0.00531167 0.00521874 0.00512124 0.00502008 0.00491524 0.00480673 0.00469456 0.00457871 0.0044592 0.00433602 0.00421024 0.00408293 0.0039541 0.00382374 0.00369185 0.00355843 0.00342349 0.00328702 0.00315008 0.0030137 0.0028779 0.00274266 0.002608 0.0024739 0.00234038 0.00220743 0.00207595 0.00194684 0.0018201 0.00169574 0.00157374 0.00145412 0.00133688 0.001222 0.00110942 0.000999068 0.000890936 0.000785028 0.000681342 0.000579879 0.000480639 0.000383622 0.000293711 0.000215787 0.000149852 9.59055e-05 5.39468e-05 2.39764e-05 5.99409e-06 0 0 9.36574e-06 3.74629e-05 8.42916e-05 0.000149852 0.000234143 0.000337167 0.000458921 0.000599407 0.000750996 0.000906058 0.00106459 0.0012266 0.00139208 0.00156104 0.00173347 0.00190937 0.00208886 0.00227206 0.00245897 0.00264958 0.0028439 0.00304193 0.00324366 0.0034491 0.00365684 0.00386547 0.00407499 0.0042854 0.00449671 0.0047089 0.00492199 0.00513597 0.0053492 0.00556005 0.00576851 0.00597458 0.00617827 0.00637958 0.00657849 0.00677503 0.0069675 0.00715424 0.00733524 0.00751052 0.00768006 0.00784387 0.00800194 0.00815428 0.00829949 0.00843616 0.00856429 0.00868389 0.00879495 0.00889747 0.00899145 0.0090769 0.009153 0.00921896 0.00927477 0.00932044 0.00935595 0.00938132 0.00939654 0.00940161 0.00939654 0.00938132 0.00935595 0.00932044 0.00927477 0.00921896 0.00915301 0.0090769 0.00899145 0.00889747 0.00879495 0.00868389 0.00856429 0.00843616 0.00829949 0.00815428 0.00800194 0.00784387 0.00768006 0.00751052 0.00733525 0.00715424 0.0069675 0.00677503 0.0065785 0.00637958 0.00617828 0.00597459 0.00576851 0.00556005 0.00534921 0.00513597 0.00492199 0.00470891 0.00449671 0.00428541 0.00407499 0.00386547 0.00365684 0.0034491 0.00324366 0.00304193 0.00284391 0.00264959 0.00245897 0.00227207 0.00208887 0.00190938 0.00173347 0.00156104 0.00139209 0.00122661 0.0010646 0.000906061 0.000750998 0.000599409 0.000458923 0.000337168 0.000234144 0.000149852 8.42919e-05 3.74631e-05 9.36577e-06 0 0 1.34867e-05 5.39466e-05 0.00012138 0.000215787 0.000337167 0.00048552 0.000660846 0.000863146 0.00108143 0.00130472 0.00153301 0.00176631 0.0020046 0.0022479 0.0024962 0.0027495 0.00300796 0.00327177 0.00354092 0.0038154 0.00409522 0.00438038 0.00467087 0.0049667 0.00526585 0.00556628 0.00586799 0.00617098 0.00647526 0.00678082 0.00708767 0.0073958 0.00770285 0.00800647 0.00830665 0.0086034 0.00889671 0.00918659 0.00947303 0.00975604 0.0100332 0.0103021 0.0105628 0.0108151 0.0110593 0.0112952 0.0115228 0.0117422 0.0119513 0.0121481 0.0123326 0.0125048 0.0126647 0.0128124 0.0129477 0.0130707 0.0131803 0.0132753 0.0133557 0.0134214 0.0134726 0.0135091 0.013531 0.0135383 0.013531 0.0135091 0.0134726 0.0134214 0.0133557 0.0132753 0.0131803 0.0130707 0.0129477 0.0128124 0.0126647 0.0125048 0.0123326 0.0121481 0.0119513 0.0117422 0.0115228 0.0112952 0.0110593 0.0108151 0.0105628 0.0103021 0.0100332 0.00975604 0.00947303 0.00918659 0.00889672 0.0086034 0.00830666 0.00800647 0.00770286 0.0073958 0.00708767 0.00678083 0.00647526 0.00617099 0.00586799 0.00556628 0.00526585 0.00496671 0.00467088 0.00438038 0.00409522 0.0038154 0.00354092 0.00327178 0.00300797 0.0027495 0.0024962 0.0022479 0.00200461 0.00176631 0.00153302 0.00130473 0.00108144 0.000863149 0.000660849 0.000485522 0.000337168 0.000215787 0.00012138 5.39468e-05 1.34867e-05 0 0 1.83568e-05 7.34274e-05 0.000165212 0.00029371 0.000458921 0.000660846 0.000899485 0.00117484 0.00147195 0.00177587 0.0020866 0.00240414 0.00272848 0.00305964 0.0033976 0.00374237 0.00409417 0.00445324 0.00481958 0.00519318 0.00557405 0.00596218 0.00635758 0.00676024 0.0071674 0.00757632 0.00798698 0.00839939 0.00881355 0.00922945 0.0096471 0.0100665 0.0104844 0.0108977 0.0113063 0.0117102 0.0121094 0.012504 0.0128938 0.0132791 0.0136563 0.0140223 0.0143771 0.0147206 0.0150529 0.015374 0.0156838 0.0159824 0.016267 0.0165349 0.016786 0.0170204 0.0172381 0.017439 0.0176232 0.0177907 0.0179399 0.0180692 0.0181786 0.0182681 0.0183377 0.0183874 0.0184172 0.0184272 0.0184172 0.0183874 0.0183377 0.0182681 0.0181786 0.0180692 0.0179399 0.0177907 0.0176232 0.017439 0.0172381 0.0170204 0.016786 0.0165349 0.016267 0.0159824 0.0156838 0.015374 0.0150529 0.0147206 0.0143771 0.0140223 0.0136563 0.0132791 0.0128939 0.012504 0.0121094 0.0117102 0.0113063 0.0108977 0.0104844 0.0100665 0.00964711 0.00922946 0.00881355 0.0083994 0.00798699 0.00757633 0.00716741 0.00676024 0.00635758 0.00596219 0.00557405 0.00519319 0.00481959 0.00445325 0.00409418 0.00374238 0.00339761 0.00305965 0.00272849 0.00240415 0.00208661 0.00177588 0.00147196 0.00117484 0.000899489 0.000660849 0.000458923 0.000293711 0.000165212 7.34276e-05 1.83569e-05 0 0 2.39763e-05 9.59051e-05 0.000215787 0.000383621 0.000599407 0.000863146 0.00117484 0.00153448 0.00192255 0.00231951 0.00272536 0.0031401 0.00356374 0.00399626 0.00443768 0.00488799 0.00534749 0.00581648 0.00629496 0.00678293 0.00728039 0.00778734 0.00830377 0.0088297 0.00936151 0.0098956 0.010432 0.0109706 0.0115116 0.0120548 0.0126003 0.0131481 0.013694 0.0142337 0.0147674 0.0152949 0.0158164 0.0163317 0.0168409 0.0173441 0.0178368 0.0183148 0.0187782 0.0192269 0.019661 0.0200803 0.020485 0.020875 0.0212467 0.0215966 0.0219246 0.0222308 0.0225151 0.0227775 0.0230181 0.0232369 0.0234317 0.0236005 0.0237434 0.0238603 0.0239512 0.0240162 0.0240551 0.0240681 0.0240551 0.0240162 0.0239512 0.0238603 0.0237434 0.0236005 0.0234317 0.0232369 0.0230181 0.0227775 0.0225151 0.0222308 0.0219246 0.0215966 0.0212467 0.020875 0.020485 0.0200803 0.019661 0.0192269 0.0187782 0.0183149 0.0178368 0.0173441 0.0168409 0.0163317 0.0158164 0.0152949 0.0147674 0.0142337 0.013694 0.0131481 0.0126003 0.0120548 0.0115116 0.0109706 0.010432 0.00989561 0.00936152 0.00882971 0.00830378 0.00778735 0.0072804 0.00678294 0.00629497 0.00581649 0.0053475 0.004888 0.00443769 0.00399627 0.00356375 0.00314011 0.00272537 0.00231952 0.00192256 0.00153449 0.00117484 0.000863149 0.000599409 0.000383622 0.000215787 9.59055e-05 2.39764e-05 0 0 3.0015e-05 0.00012006 0.000270135 0.00048024 0.000750375 0.00108054 0.00147073 0.00192096 0.00240675 0.00290363 0.0034116 0.00393068 0.00446084 0.0050021 0.00555445 0.0061179 0.00669283 0.00727961 0.00787825 0.00848874 0.00911109 0.0097453 0.0103914 0.0110493 0.0117146 0.0123827 0.0130536 0.0137275 0.0144041 0.0150836 0.015766 0.0164512 0.017134 0.0178091 0.0184766 0.0191365 0.0197887 0.0204333 0.0210702 0.0216995 0.0223158 0.0229137 0.0234933 0.0240545 0.0245974 0.0251219 0.025628 0.0261158 0.0265807 0.0270183 0.0274286 0.0278115 0.0281671 0.0284953 0.0287963 0.0290699 0.0293135 0.0295247 0.0297034 0.0298496 0.0299633 0.0300445 0.0300933 0.0301095 0.0300933 0.0300445 0.0299633 0.0298496 0.0297034 0.0295247 0.0293135 0.0290699 0.0287963 0.0284953 0.0281671 0.0278115 0.0274286 0.0270183 0.0265807 0.0261158 0.025628 0.0251219 0.0245974 0.0240545 0.0234933 0.0229137 0.0223158 0.0216995 0.0210702 0.0204333 0.0197887 0.0191365 0.0184766 0.0178091 0.017134 0.0164512 0.015766 0.0150836 0.0144041 0.0137275 0.0130537 0.0123827 0.0117146 0.0110493 0.0103914 0.00974531 0.0091111 0.00848875 0.00787826 0.00727962 0.00669284 0.00611792 0.00555447 0.00500211 0.00446085 0.00393069 0.00341162 0.00290364 0.00240676 0.00192097 0.00147074 0.00108054 0.000750378 0.000480242 0.000270136 0.00012006 3.00151e-05 0 0 3.6143e-05 0.000144572 0.000325287 0.000578288 0.000903574 0.00130115 0.00177101 0.00231315 0.00289807 0.00349624 0.00410767 0.00473235 0.00537029 0.00602148 0.00668594 0.00736364 0.00805509 0.00876074 0.00948062 0.0102147 0.010963 0.0117255 0.0125023 0.0132932 0.014093 0.0148961 0.0157027 0.0165126 0.0173259 0.0181427 0.0189628 0.0197863 0.020607 0.0214184 0.0222206 0.0230137 0.0237975 0.0245721 0.0253376 0.0260938 0.0268344 0.0275529 0.0282494 0.0289238 0.0295761 0.0302064 0.0308146 0.0314007 0.0319594 0.0324852 0.0329782 0.0334384 0.0338656 0.0342601 0.0346217 0.0349504 0.0352432 0.0354969 0.0357117 0.0358873 0.036024 0.0361216 0.0361801 0.0361996 0.0361801 0.0361216 0.036024 0.0358873 0.0357117 0.0354969 0.0352432 0.0349504 0.0346217 0.0342601 0.0338656 0.0334384 0.0329782 0.0324852 0.0319594 0.0314007 0.0308146 0.0302064 0.0295761 0.0289238 0.0282494 0.0275529 0.0268344 0.0260938 0.0253376 0.0245721 0.0237975 0.0230137 0.0222206 0.0214184 0.020607 0.0197864 0.0189628 0.0181427 0.017326 0.0165126 0.0157027 0.0148961 0.014093 0.0132932 0.0125023 0.0117255 0.010963 0.0102147 0.00948063 0.00876076 0.0080551 0.00736366 0.00668595 0.0060215 0.0053703 0.00473236 0.00410768 0.00349625 0.00289808 0.00231316 0.00177101 0.00130115 0.000903578 0.00057829 0.000325288 0.000144572 3.61431e-05 0 0 4.23602e-05 0.000169441 0.000381242 0.000677764 0.00105901 0.00152497 0.00207565 0.00271105 0.00339651 0.00409733 0.00481354 0.00554512 0.00629208 0.00705441 0.00783212 0.00862521 0.00943427 0.0102599 0.0111021 0.0119608 0.0128361 0.013728 0.0146365 0.0155615 0.0164967 0.0174359 0.018379 0.0193261 0.0202771 0.021232 0.0221908 0.0231536 0.024113 0.0250616 0.0259994 0.0269265 0.0278427 0.0287482 0.029643 0.0305269 0.0313926 0.0322325 0.0330465 0.0338348 0.0345973 0.0353339 0.0360448 0.0367298 0.0373828 0.0379974 0.0385735 0.0391113 0.0396107 0.0400717 0.0404943 0.0408785 0.0412207 0.0415172 0.0417682 0.0419735 0.0421332 0.0422472 0.0423157 0.0423385 0.0423157 0.0422472 0.0421332 0.0419735 0.0417682 0.0415172 0.0412207 0.0408785 0.0404943 0.0400717 0.0396107 0.0391113 0.0385735 0.0379974 0.0373828 0.0367298 0.0360448 0.0353339 0.0345973 0.0338348 0.0330465 0.0322325 0.0313926 0.0305269 0.029643 0.0287482 0.0278427 0.0269265 0.0259994 0.0250616 0.024113 0.0231536 0.0221909 0.021232 0.0202771 0.0193261 0.018379 0.0174359 0.0164967 0.0155615 0.0146365 0.013728 0.0128362 0.0119608 0.0111021 0.0102599 0.00943429 0.00862523 0.00783214 0.00705443 0.0062921 0.00554514 0.00481355 0.00409735 0.00339652 0.00271106 0.00207566 0.00152497 0.00105901 0.000677766 0.000381243 0.000169442 4.23604e-05 0 0 4.86668e-05 0.000194667 0.000438001 0.000778668 0.00121667 0.001752 0.00238467 0.00311467 0.00390207 0.00470692 0.00552923 0.00636899 0.00722621 0.00810089 0.00899302 0.0099026 0.0108304 0.011777 0.0127426 0.0137271 0.0147305 0.0157528 0.016794 0.0178541 0.0189258 0.0200021 0.0210827 0.0221679 0.0232575 0.0243515 0.0254501 0.026553 0.027652 0.0287387 0.029813 0.0308749 0.0319244 0.0329616 0.0339864 0.0349989 0.0359904 0.0369523 0.0378847 0.0387875 0.0396607 0.0405044 0.0413185 0.0421031 0.0428509 0.0435547 0.0442145 0.0448304 0.0454023 0.0459302 0.0464141 0.0468541 0.047246 0.0475856 0.047873 0.0481081 0.0482909 0.0484216 0.0484999 0.0485261 0.0484999 0.0484216 0.0482909 0.0481081 0.047873 0.0475856 0.047246 0.0468541 0.0464141 0.0459302 0.0454023 0.0448304 0.0442145 0.0435547 0.0428509 0.0421031 0.0413185 0.0405044 0.0396607 0.0387875 0.0378847 0.0369523 0.0359904 0.0349989 0.0339865 0.0329616 0.0319244 0.0308749 0.029813 0.0287387 0.027652 0.026553 0.0254501 0.0243516 0.0232575 0.0221679 0.0210828 0.0200021 0.0189258 0.0178541 0.016794 0.0157528 0.0147305 0.0137271 0.0127426 0.0117771 0.0108304 0.00990263 0.00899304 0.00810091 0.00722623 0.00636901 0.00552925 0.00470694 0.00390208 0.00311468 0.00238468 0.00175201 0.00121667 0.000778671 0.000438002 0.000194668 4.86669e-05 0 0 5.50626e-05 0.00022025 0.000495563 0.000881001 0.00137656 0.00198225 0.00269806 0.003524 0.00441475 0.00532499 0.00625473 0.00720396 0.00817269 0.00916091 0.0101686 0.0111958 0.0122434 0.0133122 0.0144022 0.0155135 0.016646 0.0177998 0.0189748 0.020171 0.0213803 0.0225946 0.0238138 0.025038 0.0262672 0.0275013 0.0287404 0.0299845 0.0312241 0.0324497 0.0336613 0.0348589 0.0360426 0.0372123 0.038368 0.0395097 0.0406278 0.0417125 0.0427639 0.0437819 0.0447666 0.0457179 0.0466359 0.0475205 0.0483636 0.0491572 0.0499012 0.0505956 0.0512404 0.0518356 0.0523812 0.0528773 0.0533191 0.053702 0.054026 0.0542911 0.0544973 0.0546445 0.0547329 0.0547623 0.0547329 0.0546445 0.0544973 0.0542911 0.054026 0.053702 0.0533191 0.0528773 0.0523812 0.0518356 0.0512404 0.0505956 0.0499012 0.0491572 0.0483636 0.0475205 0.0466359 0.0457179 0.0447666 0.0437819 0.0427639 0.0417125 0.0406278 0.0395097 0.038368 0.0372123 0.0360426 0.0348589 0.0336613 0.0324497 0.0312241 0.0299845 0.0287405 0.0275014 0.0262672 0.025038 0.0238138 0.0225946 0.0213803 0.020171 0.0189748 0.0177998 0.0166461 0.0155135 0.0144023 0.0133122 0.0122434 0.0111959 0.0101686 0.00916093 0.00817271 0.00720398 0.00625475 0.00532501 0.00441477 0.00352402 0.00269807 0.00198226 0.00137657 0.000881004 0.000495565 0.000220251 5.50627e-05 0 0 6.15476e-05 0.00024619 0.000553929 0.000984762 0.00153869 0.00221571 0.00301583 0.00393905 0.00493456 0.00595156 0.00699005 0.00805003 0.0091315 0.0102345 0.0113589 0.0125049 0.0136734 0.0148654 0.016081 0.0173201 0.0185828 0.0198691 0.0211789 0.0225122 0.0238601 0.0252134 0.0265722 0.0279365 0.0293062 0.0306814 0.032062 0.0334481 0.0348292 0.0361946 0.0375444 0.0388786 0.0401972 0.0415002 0.0427876 0.0440594 0.0453048 0.046513 0.0476841 0.048818 0.0499147 0.0509743 0.0519967 0.052982 0.0539211 0.0548049 0.0556335 0.0564069 0.057125 0.0577879 0.0583956 0.058948 0.0594401 0.0598665 0.0602273 0.0605225 0.0607521 0.0609161 0.0610146 0.0610474 0.0610146 0.0609162 0.0607521 0.0605225 0.0602273 0.0598665 0.0594401 0.058948 0.0583956 0.0577879 0.057125 0.0564069 0.0556335 0.0548049 0.0539211 0.052982 0.0519968 0.0509743 0.0499148 0.048818 0.0476841 0.046513 0.0453048 0.0440594 0.0427876 0.0415002 0.0401972 0.0388786 0.0375444 0.0361946 0.0348292 0.0334481 0.032062 0.0306814 0.0293062 0.0279365 0.0265722 0.0252134 0.0238601 0.0225122 0.0211789 0.0198691 0.0185828 0.0173201 0.016081 0.0148654 0.0136734 0.0125049 0.011359 0.0102345 0.00913153 0.00805005 0.00699007 0.00595157 0.00493457 0.00393906 0.00301584 0.00221572 0.0015387 0.000984765 0.00055393 0.000246191 6.15478e-05 0 0 6.8122e-05 0.000272488 0.000613098 0.00108995 0.00170305 0.00245239 0.00333798 0.00435981 0.00546148 0.0065866 0.00773518 0.0089072 0.0101027 0.0113216 0.0125639 0.0138298 0.0151202 0.0164366 0.0177788 0.0191468 0.0205408 0.0219606 0.0234063 0.0248778 0.0263653 0.0278587 0.029358 0.0308633 0.0323745 0.0338917 0.0354148 0.0369438 0.0384672 0.0399734 0.0414623 0.0429339 0.0443883 0.0458254 0.0472453 0.0486479 0.0500214 0.0513539 0.0526453 0.0538958 0.0551053 0.0562738 0.0574012 0.0584877 0.0595232 0.0604978 0.0614115 0.0622643 0.0630561 0.0637871 0.0644572 0.0650663 0.0656088 0.066079 0.0664769 0.0668024 0.0670556 0.0672364 0.0673449 0.0673811 0.0673449 0.0672364 0.0670556 0.0668024 0.0664769 0.066079 0.0656088 0.0650663 0.0644572 0.0637871 0.0630561 0.0622643 0.0614115 0.0604978 0.0595232 0.0584877 0.0574012 0.0562738 0.0551053 0.0538958 0.0526453 0.0513539 0.0500214 0.0486479 0.0472453 0.0458254 0.0443883 0.0429339 0.0414623 0.0399734 0.0384673 0.0369439 0.0354148 0.0338917 0.0323745 0.0308633 0.029358 0.0278587 0.0263653 0.0248778 0.0234063 0.0219606 0.0205408 0.0191469 0.0177788 0.0164366 0.0151203 0.0138298 0.012564 0.0113216 0.0101027 0.00890722 0.0077352 0.00658663 0.0054615 0.00435982 0.00333799 0.0024524 0.00170305 0.00108996 0.0006131 0.000272489 6.81222e-05 0 0 7.47856e-05 0.000299142 0.00067307 0.00119657 0.00186964 0.00269228 0.00366449 0.00478628 0.00599553 0.00723014 0.00849012 0.00977546 0.0110862 0.0124222 0.0137837 0.0151705 0.016584 0.0180258 0.0194957 0.0209937 0.02252 0.0240744 0.025657 0.0272677 0.0288958 0.0305302 0.0321711 0.0338184 0.0354721 0.0371322 0.0387987 0.0404717 0.0421383 0.0437861 0.0454149 0.0470249 0.0486158 0.0501879 0.051741 0.0532753 0.0547776 0.056235 0.0576476 0.0590153 0.0603382 0.0616162 0.0628493 0.0640375 0.06517 0.0662359 0.0672351 0.0681678 0.0690338 0.0698332 0.070566 0.0712321 0.0718254 0.0723396 0.0727747 0.0731307 0.0734076 0.0736053 0.073724 0.0737636 0.073724 0.0736053 0.0734076 0.0731307 0.0727747 0.0723396 0.0718254 0.0712321 0.070566 0.0698332 0.0690338 0.0681678 0.0672351 0.0662359 0.06517 0.0640375 0.0628493 0.0616162 0.0603382 0.0590153 0.0576476 0.056235 0.0547776 0.0532753 0.0517411 0.0501879 0.0486159 0.0470249 0.045415 0.0437861 0.0421384 0.0404717 0.0387987 0.0371322 0.0354721 0.0338184 0.0321711 0.0305303 0.0288958 0.0272678 0.025657 0.0240744 0.02252 0.0209938 0.0194957 0.0180258 0.0165841 0.0151705 0.0137837 0.0124223 0.0110862 0.00977549 0.00849015 0.00723017 0.00599555 0.00478629 0.00366451 0.00269229 0.00186965 0.00119657 0.000673072 0.000299143 7.47858e-05 0 0 8.15205e-05 0.000326082 0.000733684 0.00130433 0.00203801 0.00293474 0.0039945 0.00521731 0.00653526 0.00788047 0.00925292 0.0106526 0.0120796 0.0135338 0.0150153 0.016524 0.0180616 0.0196296 0.0212281 0.0228571 0.0245165 0.0262064 0.0279268 0.0296777 0.0314472 0.0332236 0.0350068 0.0367969 0.0385939 0.0403978 0.0422085 0.0440261 0.0458369 0.047627 0.0493965 0.0511454 0.0528737 0.0545814 0.0562685 0.057935 0.0595668 0.0611498 0.0626841 0.0641697 0.0656064 0.0669945 0.0683337 0.0696242 0.0708542 0.0720117 0.073097 0.0741098 0.0750504 0.0759185 0.0767143 0.0774378 0.0780821 0.0786405 0.079113 0.0794996 0.0798002 0.080015 0.0801439 0.0801868 0.0801439 0.080015 0.0798002 0.0794996 0.079113 0.0786405 0.0780821 0.0774378 0.0767143 0.0759185 0.0750504 0.0741098 0.073097 0.0720117 0.0708542 0.0696242 0.0683337 0.0669945 0.0656064 0.0641697 0.0626841 0.0611499 0.0595668 0.057935 0.0562685 0.0545814 0.0528737 0.0511454 0.0493965 0.047627 0.0458369 0.0440261 0.0422085 0.0403978 0.0385939 0.036797 0.0350068 0.0332236 0.0314472 0.0296777 0.0279269 0.0262065 0.0245166 0.0228571 0.0212282 0.0196296 0.0180616 0.016524 0.0150153 0.0135338 0.0120796 0.0106527 0.00925295 0.00788049 0.00653528 0.00521733 0.00399452 0.00293475 0.00203802 0.00130433 0.000733687 0.000326083 8.15207e-05 0 0 8.83086e-05 0.000353234 0.000794777 0.00141294 0.00220771 0.00317911 0.00432712 0.00565175 0.00707925 0.00853588 0.0100216 0.0115365 0.0130805 0.0146537 0.0162559 0.0178873 0.0195497 0.0212448 0.0229726 0.0247332 0.0265266 0.0283528 0.0302117 0.0321033 0.034015 0.035934 0.0378604 0.039794 0.041735 0.0436833 0.0456389 0.0476018 0.0495572 0.0514903 0.0534011 0.0552897 0.0571559 0.0589998 0.0608214 0.0626207 0.0643825 0.0660916 0.0677481 0.0693519 0.0709031 0.0724016 0.0738474 0.0752406 0.0765683 0.077818 0.0789895 0.080083 0.0810983 0.0820354 0.0828945 0.0836754 0.084371 0.0849737 0.0854838 0.0859011 0.0862257 0.0864575 0.0865966 0.086643 0.0865966 0.0864575 0.0862257 0.0859011 0.0854838 0.0849737 0.084371 0.0836754 0.0828945 0.0820354 0.0810983 0.080083 0.0789895 0.077818 0.0765683 0.0752406 0.0738474 0.0724016 0.0709031 0.0693519 0.0677481 0.0660916 0.0643825 0.0626207 0.0608214 0.0589998 0.0571559 0.0552897 0.0534012 0.0514904 0.0495572 0.0476018 0.0456389 0.0436833 0.041735 0.039794 0.0378604 0.0359341 0.034015 0.0321033 0.0302117 0.0283528 0.0265267 0.0247333 0.0229727 0.0212448 0.0195497 0.0178874 0.016256 0.0146537 0.0130806 0.0115366 0.0100217 0.0085359 0.00707927 0.00565177 0.00432713 0.00317912 0.00220772 0.00141294 0.00079478 0.000353235 8.83089e-05 0 0 9.51499e-05 0.0003806 0.000856349 0.0015224 0.00237875 0.0034254 0.00466235 0.0060896 0.00762749 0.00919638 0.0107963 0.0124271 0.014089 0.0157818 0.0175057 0.0192605 0.0210483 0.0228712 0.0247292 0.0266222 0.0285502 0.0305133 0.0325115 0.0345447 0.0365993 0.0386616 0.0407318 0.0428096 0.0448952 0.0469886 0.0490898 0.0511986 0.0532994 0.0553761 0.0574289 0.0594576 0.0614623 0.0634429 0.0653996 0.0673322 0.0692246 0.0710603 0.0728395 0.0745621 0.0762281 0.0778375 0.0793903 0.0808866 0.0823126 0.0836546 0.0849128 0.0860871 0.0871775 0.0881839 0.0891065 0.0899452 0.0906921 0.0913394 0.0918872 0.0923353 0.0926839 0.0929328 0.0930822 0.093132 0.0930822 0.0929328 0.0926839 0.0923353 0.0918872 0.0913394 0.0906921 0.0899452 0.0891065 0.0881839 0.0871775 0.0860871 0.0849128 0.0836546 0.0823126 0.0808866 0.0793903 0.0778375 0.0762281 0.0745621 0.0728395 0.0710604 0.0692246 0.0673323 0.0653996 0.0634429 0.0614623 0.0594576 0.0574289 0.0553761 0.0532994 0.0511987 0.0490898 0.0469886 0.0448953 0.0428097 0.0407318 0.0386617 0.0365993 0.0345447 0.0325115 0.0305134 0.0285503 0.0266222 0.0247292 0.0228713 0.0210484 0.0192605 0.0175057 0.0157819 0.014089 0.0124272 0.0107963 0.0091964 0.00762751 0.00608962 0.00466236 0.00342541 0.00237876 0.0015224 0.000856352 0.000380601 9.51502e-05 0 0 0.000102045 0.000408178 0.000918401 0.00163271 0.00255111 0.0036736 0.00500018 0.00653085 0.00817998 0.00986196 0.0115768 0.0133244 0.0151049 0.0169183 0.0187644 0.0206435 0.0225576 0.024509 0.0264978 0.0285239 0.0305874 0.0326882 0.0348263 0.0370018 0.0392 0.0414064 0.043621 0.0458438 0.0480747 0.0503139 0.0525612 0.0548167 0.0570634 0.0592844 0.0614796 0.0636491 0.0657929 0.0679109 0.0700032 0.0720697 0.0740932 0.076056 0.0779584 0.0798002 0.0815815 0.0833023 0.0849625 0.0865622 0.0880868 0.0895217 0.0908668 0.0921223 0.093288 0.094364 0.0953504 0.096247 0.0970455 0.0977375 0.0983231 0.0988022 0.0991749 0.099441 0.0996007 0.099654 0.0996007 0.099441 0.0991749 0.0988022 0.0983231 0.0977375 0.0970455 0.096247 0.0953504 0.094364 0.093288 0.0921223 0.0908668 0.0895217 0.0880868 0.0865622 0.0849625 0.0833023 0.0815815 0.0798002 0.0779584 0.076056 0.0740932 0.0720698 0.0700032 0.0679109 0.0657929 0.0636491 0.0614796 0.0592844 0.0570634 0.0548167 0.0525612 0.0503139 0.0480748 0.0458438 0.043621 0.0414064 0.0392 0.0370018 0.0348263 0.0326882 0.0305874 0.0285239 0.0264978 0.024509 0.0225576 0.0206435 0.0187645 0.0169183 0.015105 0.0133245 0.0115768 0.00986199 0.00818001 0.00653087 0.0050002 0.00367362 0.00255112 0.00163272 0.000918404 0.00040818 0.000102045 0 0 0.000108992 0.00043597 0.000980932 0.00174388 0.00272481 0.00392373 0.00534063 0.00697551 0.00873673 0.0105326 0.0123632 0.0142285 0.0161284 0.018063 0.0200323 0.0220362 0.0240774 0.0261581 0.0282784 0.0304384 0.032638 0.0348773 0.0371561 0.0394746 0.0418171 0.0441683 0.0465281 0.0488965 0.0512734 0.053659 0.0560531 0.0584559 0.0608492 0.0632151 0.0655534 0.0678643 0.0701478 0.0724037 0.0746322 0.0768332 0.0789882 0.0810787 0.0831047 0.0850662 0.0869633 0.0887958 0.0905639 0.0922675 0.0938911 0.0954191 0.0968515 0.0981885 0.0994299 0.100576 0.101626 0.102581 0.103431 0.104168 0.104792 0.105302 0.105699 0.105982 0.106152 0.106209 0.106152 0.105982 0.105699 0.105302 0.104792 0.104168 0.103431 0.102581 0.101626 0.100576 0.0994299 0.0981885 0.0968516 0.0954191 0.0938911 0.0922675 0.0905639 0.0887959 0.0869633 0.0850663 0.0831047 0.0810787 0.0789882 0.0768332 0.0746322 0.0724037 0.0701478 0.0678644 0.0655535 0.0632151 0.0608492 0.0584559 0.0560532 0.053659 0.0512734 0.0488965 0.0465281 0.0441683 0.0418172 0.0394746 0.0371561 0.0348773 0.0326381 0.0304385 0.0282785 0.0261581 0.0240774 0.0220363 0.0200323 0.018063 0.0161284 0.0142285 0.0123632 0.0105327 0.00873676 0.00697554 0.00534064 0.00392374 0.00272482 0.00174388 0.000980935 0.000435971 0.000108993 0 0 0.000115994 0.000463974 0.00104394 0.0018559 0.00289984 0.00417577 0.00568368 0.00742358 0.00929773 0.0112084 0.0131555 0.0151392 0.0171593 0.019216 0.0213092 0.0234388 0.0256077 0.0278185 0.0300712 0.0323657 0.0347022 0.0370806 0.0395009 0.0419631 0.0444507 0.0469474 0.049453 0.0519677 0.0544913 0.057024 0.0595657 0.0621163 0.0646569 0.0671682 0.0696503 0.0721032 0.0745269 0.0769213 0.0792865 0.0816225 0.0839096 0.0861283 0.0882785 0.0903602 0.0923735 0.0943182 0.0961946 0.0980024 0.0997253 0.101347 0.102867 0.104286 0.105603 0.106819 0.107934 0.108947 0.109849 0.110631 0.111293 0.111834 0.112255 0.112556 0.112736 0.112796 0.112736 0.112556 0.112255 0.111834 0.111293 0.110631 0.109849 0.108947 0.107934 0.106819 0.105603 0.104286 0.102867 0.101347 0.0997253 0.0980024 0.0961946 0.0943183 0.0923735 0.0903602 0.0882785 0.0861283 0.0839096 0.0816225 0.0792865 0.0769213 0.0745269 0.0721032 0.0696504 0.0671682 0.0646569 0.0621164 0.0595657 0.057024 0.0544914 0.0519677 0.049453 0.0469474 0.0444507 0.0419631 0.0395009 0.0370806 0.0347022 0.0323658 0.0300712 0.0278185 0.0256077 0.0234389 0.0213092 0.0192161 0.0171594 0.0151392 0.0131556 0.0112084 0.00929776 0.00742361 0.0056837 0.00417578 0.00289985 0.0018559 0.00104394 0.000463975 0.000115994 0 0 0.000123048 0.000492191 0.00110743 0.00196877 0.0030762 0.00442972 0.00602935 0.00787506 0.00986299 0.0118892 0.0139538 0.0160566 0.0181978 0.0203773 0.0225951 0.0248512 0.0271486 0.0294902 0.0318759 0.0343058 0.0367799 0.0392982 0.0418607 0.0